FOO
141312
    1MOL0     O    1   7.244   2.203  10.971 -0.3621 -0.5170  0.6723
    1MOL0     C    2   7.347   2.265  10.960  0.1775 -0.0538  0.5628
    1MOL0     O    3   7.469   2.226  11.010 -0.5111 -0.1121  1.0274
    1MOL0     C    4   7.491   2.118  11.100  0.2337  0.0348 -0.7865
    1MOL0     C    5   7.397   2.059  11.186  0.2564 -0.5333 -0.0636
    1MOL0     C    6   7.410   1.947  11.257 -0.4962 -0.1146  0.7121
    1MOL0     C    7   7.538   1.888  11.274 -0.0250  0.2361  0.2932
    1MOL0     O    8   7.567   1.773  11.342  0.3781  0.4759 -0.5784
    1MOL0     C    9   7.507   1.736  11.472  0.2632 -0.0546 -0.4948
    1MOL0     C   10   7.556   1.597  11.520  0.8692  0.0663 -0.3750
    1MOL0     C   11   7.704   1.583  11.508 -0.1908 -0.9159 -0.2606
    1MOL0     C   12   7.737   1.447  11.574  0.3976 -0.4410 -0.1005
    1MOL0     C   13   7.749   1.442  11.724  0.1012  0.0539 -0.9329
    1MOL0     C   14   7.712   1.305  11.773 -0.6919  0.5043 -0.3206
    1MOL0     C   15   7.764   1.281  11.916 -0.1501 -0.2978  0.6321
    1MOL0     C   16   7.713   1.158  11.982 -0.1885  0.3523  0.2537
    1MOL0     N   17   7.715   1.034  11.901  0.9362 -0.0563 -0.6611
    1MOL0     C   18   7.815   0.958  11.854  0.0146  0.0242 -0.9642
    1MOL0     C   19   7.761   0.841  11.835  0.4308  0.5375  0.9168
    1MOL0     C   20   7.827   0.716  11.766  0.3608 -0.3888 -0.0877
    1MOL0     C   21   7.794   0.592  11.844  0.4236 -0.6148  0.4491
    1MOL0     C   22   7.896   0.485  11.825  0.7449  0.3571 -0.8219
    1MOL0     C   23   7.849   0.352  11.891  0.0782  0.4910 -0.2410
    1MOL0     O   24   7.840   0.384  12.034 -0.2357  0.1808 -1.2929
    1MOL0     C   25   7.751   0.303  12.106  0.7804  0.5984 -0.4371
    1MOL0     C   26   7.675   0.371  12.195  0.0213  0.6203 -0.3077
    1MOL0     C   27   7.581   0.309  12.279  0.1954  0.4183  0.1177
    1MOL0     C   28   7.512   0.380  12.395 -0.3264 -0.0689 -0.4605
    1MOL0     C   29   7.573   0.168  12.264  0.3766 -0.7818  0.6382
    1MOL0     C   30   7.493   0.075  12.360  0.7865 -0.2347  0.2708
    1MOL0     O   31   7.363   0.101  12.363 -0.4074 -0.3222  0.9503
    1MOL0     C   32   7.294   0.046  12.468  0.6678 -0.0642  0.4665
    1MOL0     C   33   7.208  -0.063  12.455  0.4684 -1.2317  0.3039
    1MOL0     C   34   7.138  -0.108  12.573 -0.2127  0.3655 -0.1912
    1MOL0     C   35   7.149  -0.051  12.697 -0.7770  0.1848  0.8548
    1MOL0     O   36   7.078  -0.103  12.801  0.0028  0.5230  0.0493
    1MOL0     C   37   7.151  -0.113  12.933  1.0364  0.3464  0.8785
    1MOL0     C   38   7.144  -0.246  13.009 -0.4231 -0.8136 -0.0197
    1MOL0     C   39   7.192  -0.361  12.927 -0.2011  0.3835  0.2029
    1MOL0     C   40   7.062  -0.441  12.884 -0.3271 -0.4756  0.6315
    1MOL0     C   41   7.109  -0.559  12.798 -0.5940  0.4563 -0.3098
    1MOL0     C   42   6.984  -0.602  12.723  0.8024 -0.6049 -0.8131
    1MOL0     C   43   6.991  -0.741  12.680  0.4712  0.2864  0.1887
    1MOL0     C   44   7.067  -0.768  12.544  0.9577 -0.1832 -0.6191
    1MOL0    Cl   45   7.051  -0.933  12.483  0.3999 -0.3377  0.1702
    1MOL0     C   46   7.227   0.064  12.707 -0.1197  0.3828  0.1175
    1MOL0     C   47   7.295   0.111  12.594 -0.2089  0.2324  0.0705
    1MOL0     O   48   7.550  -0.021  12.402 -0.2649  0.5699 -0.2394
    1MOL0     C   49   7.654   0.094  12.172 -0.1461  0.3668  0.2228
    1MOL0     C   50   7.752   0.162  12.103  0.0915 -0.4005  0.0350
    1MOL0     N   51   7.623   0.844  11.847  0.1143 -0.2379  0.5085
    1MOL0     N   52   7.601   0.962  11.892  0.1420 -0.2555  0.8822
    1MOL0     C   53   7.633   1.941  11.183 -0.1660  0.0961  0.5398
    1MOL0     C   54   7.609   2.046  11.099  0.2922  0.0726  0.9423
    1MOL0     C   55   7.336   2.377  10.870  0.0435  0.1498 -1.2404
    1MOL0     C   56   7.210   2.448  10.852  0.0532  0.6126 -0.2692
    1MOL0     C   57   7.206   2.569  10.782 -0.2900  0.3051  0.0083
    1MOL0     C   58   7.327   2.624  10.736 -0.2426 -0.2344 -0.0566
    1MOL0     O   59   7.314   2.747  10.692 -0.2321  0.4259  0.6272
    1MOL0     C   60   7.430   2.817  10.648  0.5288 -0.6198 -0.2748
    1MOL0     C   61   7.395   2.916  10.536 -0.0881 -0.4389 -0.1577
    1MOL0     C   62   7.506   2.974  10.445  0.2499 -0.7944  0.0832
    1MOL0     C   63   7.562   3.106  10.493 -0.2457 -0.3408  0.1190
    1MOL0     C   64   7.464   3.211  10.533 -0.1178  0.1895  0.2868
    1MOL0     C   65   7.394   3.301  10.577 -0.1896 -0.7640  0.2287
    1MOL0     C   66   7.446   2.548  10.738 -0.2046 -0.1848  0.7204
    1MOL0     C   67   7.452   2.422  10.796 -0.3043 -0.5039  0.8705
    1MOL0     C   68   7.598   2.355  10.781  0.7235 -0.3718 -0.3735
    1MOL0     H   69   7.296   2.095  11.202 -1.5841 -4.9728 -0.0574
    1MOL0     H   70   7.330   1.900  11.313 -1.4419 -0.7209 -1.0897
    1MOL0     H   71   7.399   1.742  11.461  0.5215  1.0589 -3.3678
    1MOL0     H   72   7.546   1.799  11.553 -2.4034  0.2095  0.6833
    1MOL0     H   73   7.521   1.578  11.622 -1.7029 -0.3750 -1.2491
    1MOL0     H   74   7.511   1.524  11.452  2.0381 -0.4259 -0.6329
    1MOL0     H   75   7.742   1.590  11.405 -2.1342  2.2498 -0.8975
    1MOL0     H   76   7.760   1.660  11.562 -1.5568  1.1526 -1.6610
    1MOL0     H   77   7.664   1.367  11.556  2.1500 -2.3597  0.9374
    1MOL0     H   78   7.836   1.420  11.538  0.5393 -3.7994  2.3484
    1MOL0     H   79   7.681   1.513  11.773 -0.7474 -1.3176 -0.0519
    1MOL0     H   80   7.852   1.466  11.752  0.4033 -1.2926 -0.8281
    1MOL0     H   81   7.604   1.291  11.763 -0.8317  2.3459 -1.8822
    1MOL0     H   82   7.753   1.219  11.719 -1.1812  0.0212  0.0614
    1MOL0     H   83   7.745   1.377  11.964 -1.2256  1.5201 -3.0112
    1MOL0     H   84   7.873   1.270  11.912  0.2317  2.4462 -3.4668
    1MOL0     H   85   7.766   1.145  12.077  2.0757 -0.8868 -1.0746
    1MOL0     H   86   7.608   1.182  12.002 -0.0594  0.1176  1.2435
    1MOL0     H   87   7.920   0.982  11.861 -0.0269  0.6704 -2.3868
    1MOL0     H   88   7.935   0.734  11.762  0.2056  0.7253  0.5350
    1MOL0     H   89   7.794   0.707  11.662  1.1207 -1.2340 -0.2696
    1MOL0     H   90   7.804   0.620  11.949  2.5625 -1.1355  0.4268
    1MOL0     H   91   7.691   0.563  11.823 -0.2923  2.5095 -0.9256
    1MOL0     H   92   7.920   0.476  11.719 -0.5890  2.8906 -1.4402
    1MOL0     H   93   7.994   0.503  11.868  1.2926 -1.4458 -1.2335
    1MOL0     H   94   7.750   0.324  11.855  0.1287  0.6879 -0.5376
    1MOL0     H   95   7.921   0.271  11.875  0.5630  0.6191  1.0720
    1MOL0     H   96   7.675   0.478  12.179 -1.8133  0.5863 -0.7886
    1MOL0     H   97   7.538   0.486  12.393 -1.1756  0.1373 -1.1193
    1MOL0     H   98   7.550   0.341  12.490 -1.9695 -1.0912 -0.1751
    1MOL0     H   99   7.406   0.354  12.396 -0.0184 -1.5986 -1.9941
    1MOL0     H  100   7.199  -0.122  12.364  2.1661 -1.8859  0.5260
    1MOL0     H  101   7.080  -0.199  12.563 -1.4633  1.1173  0.0843
    1MOL0     H  102   7.253  -0.075  12.923  1.0805  1.3140  4.0644
    1MOL0     H  103   7.093  -0.048  12.999 -0.3336 -2.5450  2.7354
    1MOL0     H  104   7.207  -0.241  13.098 -1.2777  2.9228  0.5255
    1MOL0     H  105   7.037  -0.250  13.031 -0.7952  6.2828  1.8079
    1MOL0     H  106   7.274  -0.413  12.978  0.3478 -0.7143 -1.7066
    1MOL0     H  107   7.251  -0.318  12.845 -0.6115  2.5534  0.9761
    1MOL0     H  108   7.002  -0.370  12.825  2.6385  3.8481  2.3142
    1MOL0     H  109   7.007  -0.482  12.969 -1.1032 -0.1658  0.2948
    1MOL0     H  110   7.175  -0.520  12.720 -2.6485 -0.4475 -2.6480
    1MOL0     H  111   7.161  -0.634  12.858  0.4610  1.9224  0.6736
    1MOL0     H  112   6.958  -0.531  12.643  2.8753  1.1661 -0.0243
    1MOL0     H  113   6.894  -0.585  12.783 -0.0832  2.5564 -2.7843
    1MOL0     H  114   6.889  -0.771  12.655  0.9119  1.1990 -3.2659
    1MOL0     H  115   7.025  -0.812  12.757 -3.0504 -1.7064  0.1055
    1MOL0     H  116   7.171  -0.744  12.566 -0.1870  2.9175  2.3420
    1MOL0     H  117   7.030  -0.691  12.475  1.3699 -0.6579 -1.3835
    1MOL0     H  118   7.258   0.114  12.798 -0.3881  0.2639  0.2765
    1MOL0     H  119   7.362   0.197  12.594  1.9475 -1.3471 -0.0564
    1MOL0     H  120   7.650  -0.014  12.168  0.6278  0.1765  2.8333
    1MOL0     H  121   7.813   0.104  12.035  0.7557  0.9126 -0.5221
    1MOL0     H  122   7.721   1.878  11.180  1.5153  2.3699 -0.8023
    1MOL0     H  123   7.677   2.082  11.022  0.5211  0.8612  1.4980
    1MOL0     H  124   7.121   2.411  10.901  1.7441  0.9963  3.3861
    1MOL0     H  125   7.110   2.614  10.759  1.6180  3.8825 -1.7935
    1MOL0     H  126   7.473   2.877  10.729 -0.6235  1.8482 -1.3787
    1MOL0     H  127   7.506   2.744  10.617  2.4552  0.6918  1.1137
    1MOL0     H  128   7.328   2.988  10.585  0.0029  0.6457 -1.5499
    1MOL0     H  129   7.334   2.848  10.475  1.8515 -3.4378  1.0115
    1MOL0     H  130   7.579   2.896  10.422 -1.5119 -2.0704 -1.5790
    1MOL0     H  131   7.463   2.987  10.345 -2.4441  2.3510  1.4689
    1MOL0     H  132   7.640   3.142  10.425 -2.4386  2.8400 -0.9122
    1MOL0     H  133   7.611   3.072  10.585  0.3492 -1.3402 -0.5416
    1MOL0     H  134   7.336   3.379  10.621  1.3421  0.6054 -0.0653
    1MOL0     H  135   7.536   2.570  10.682  0.9749 -3.4831  1.0995
    1MOL0     H  136   7.634   2.363  10.678  1.4462  1.9000  0.0048
    1MOL0     H  137   7.671   2.406  10.844 -1.6563  0.4112  1.9268
    1MOL0     H  138   7.588   2.253  10.818 -1.2071 -1.2259 -2.8839
    2MOL0     O  139   7.685   0.527   1.962 -0.0286 -0.3012  0.3650
    2MOL0     C  140   7.599   0.487   2.038 -0.9398 -0.6027 -0.6826
    2MOL0     O  141   7.618   0.467   2.178  0.2404  0.6503 -0.0293
    2MOL0     C  142   7.734   0.479   2.247  0.0858  0.7554  0.1379
    2MOL0     C  143   7.812   0.596   2.240  0.3359 -1.2716  0.5533
    2MOL0     C  144   7.936   0.620   2.308 -0.0160 -1.0885  0.3090
    2MOL0     C  145   7.989   0.516   2.371  0.2215 -0.5291  0.1113
    2MOL0     O  146   8.116   0.524   2.425  0.3557  0.6664 -0.2861
    2MOL0     C  147   8.228   0.589   2.351 -0.0607  0.7136 -0.9627
    2MOL0     C  148   8.294   0.483   2.261  1.0964  1.0036  0.6129
    2MOL0     C  149   8.201   0.399   2.173  0.2872 -1.0711  0.2802
    2MOL0     C  150   8.287   0.334   2.064 -0.1114  0.2962  0.2636
    2MOL0     C  151   8.200   0.251   1.969  0.1554 -0.3845 -1.0012
    2MOL0     C  152   8.290   0.175   1.869 -0.6300  0.1911 -0.1563
    2MOL0     C  153   8.348   0.268   1.764  0.2091 -0.4304  0.0507
    2MOL0     C  154   8.477   0.216   1.727  0.0704 -0.5819  0.2879
    2MOL0     N  155   8.493   0.248   1.585 -0.3553  0.1349  0.6452
    2MOL0     C  156   8.527   0.157   1.487  0.4554  0.1402 -0.2540
    2MOL0     C  157   8.541   0.224   1.378 -0.0672  0.4451  0.6582
    2MOL0     C  158   8.551   0.168   1.232  1.4529 -0.5370  0.5049
    2MOL0     C  159   8.650   0.240   1.139  0.1461  0.5761  0.1432
    2MOL0     C  160   8.728   0.135   1.056 -0.3761 -1.2530  0.2619
    2MOL0     C  161   8.855   0.186   0.975  0.4055  0.0252  0.2096
    2MOL0     O  162   8.957   0.245   1.064  0.3988 -0.9085 -0.5178
    2MOL0     C  163   9.083   0.288   1.022 -0.9796  0.2155 -0.4462
    2MOL0     C  164   9.133   0.259   0.890  1.5727  0.6873  1.1350
    2MOL0     C  165   9.257   0.296   0.849 -0.3677 -0.1936  0.5030
    2MOL0     C  166   9.301   0.285   0.701  0.5231  0.1950  0.0589
    2MOL0     C  167   9.346   0.354   0.947 -0.1917  0.3399 -0.1945
    2MOL0     C  168   9.492   0.367   0.926 -0.1119  0.7548  0.2960
    2MOL0     O  169   9.558   0.465   0.993  1.0953  0.4338 -0.3349
    2MOL0     C  170   9.666   0.515   0.937 -0.4571  0.1310  0.1565
    2MOL0     C  171   9.792   0.487   1.000  1.5116 -0.2502  0.2683
    2MOL0     C  172   9.910   0.529   0.943 -0.0651  0.0416  1.1048
    2MOL0     C  173   9.909   0.613   0.825 -0.3899 -0.2064 -0.2640
    2MOL0     O  174  10.026   0.661   0.767  0.1569 -0.0388 -0.0055
    2MOL0     C  175  10.145   0.574   0.770  0.5970  0.5837 -0.2134
    2MOL0     C  176  10.263   0.625   0.697  0.4383  0.2360 -0.0516
    2MOL0     C  177  10.245   0.621   0.548  0.1681  0.1640  0.4776
    2MOL0     C  178  10.361   0.708   0.488 -0.3561  1.0130  0.6482
    2MOL0     C  179  10.512   0.650   0.501 -1.4354  0.7972 -0.2097
    2MOL0     C  180  10.611   0.760   0.480 -1.0366  0.4053  0.1462
    2MOL0     C  181  10.756   0.716   0.492 -0.7396  0.2612 -0.2370
    2MOL0     C  182  10.844   0.777   0.386  0.3390  0.1306 -0.3244
    2MOL0    Cl  183  10.777   0.765   0.223  0.2899  0.4738  0.0698
    2MOL0     C  184   9.778   0.634   0.769 -0.6862 -0.0566 -0.3748
    2MOL0     C  185   9.667   0.580   0.819 -0.6165  0.1156  0.2866
    2MOL0     O  186   9.547   0.287   0.844 -0.9977  0.5237  1.1048
    2MOL0     C  187   9.298   0.378   1.081  1.1044 -0.7241 -0.0662
    2MOL0     C  188   9.175   0.349   1.110 -1.0410  0.4227 -0.3405
    2MOL0     N  189   8.513   0.356   1.405  0.7324 -0.0013 -0.0976
    2MOL0     N  190   8.476   0.368   1.533 -0.0038 -0.3731 -1.5074
    2MOL0     C  191   7.912   0.397   2.387 -0.7956 -0.1783  0.0519
    2MOL0     C  192   7.786   0.378   2.333 -0.5407 -0.2152 -0.5625
    2MOL0     C  193   7.458   0.443   1.978 -0.6011  1.0366 -1.1258
    2MOL0     C  194   7.359   0.394   2.070  1.1568  0.2557  1.1077
    2MOL0     C  195   7.240   0.336   2.023 -0.0545 -0.4941 -0.3324
    2MOL0     C  196   7.196   0.346   1.893 -0.1929  0.0629  1.1197
    2MOL0     O  197   7.072   0.316   1.850  0.4008 -0.3801 -0.1292
    2MOL0     C  198   6.962   0.298   1.938 -1.2020  0.0731  0.3529
    2MOL0     C  199   6.824   0.276   1.860  0.0062  0.0306  0.2573
    2MOL0     C  200   6.723   0.200   1.943  0.0765 -0.6422 -1.1576
    2MOL0     C  201   6.587   0.199   1.871  0.0642 -0.5682  0.1884
    2MOL0     C  202   6.559   0.144   1.741  0.0735 -0.1869  0.4359
    2MOL0     C  203   6.527   0.088   1.644 -0.3177  0.4292  0.7718
    2MOL0     C  204   7.290   0.410   1.807  0.0214 -0.2884 -0.3883
    2MOL0     C  205   7.424   0.444   1.844  0.1104 -0.3594 -0.2686
    2MOL0     C  206   7.516   0.496   1.734 -0.3595 -0.0924  0.3725
    2MOL0     H  207   7.751   0.672   2.192  2.0502 -0.6844 -0.8237
    2MOL0     H  208   7.984   0.716   2.323 -1.7635 -0.5603  3.1751
    2MOL0     H  209   8.306   0.620   2.421  0.0625 -1.2868 -0.1184
    2MOL0     H  210   8.190   0.672   2.291 -1.3230  2.0662  1.5175
    2MOL0     H  211   8.360   0.544   2.199  0.2321  1.7395  0.3949
    2MOL0     H  212   8.356   0.416   2.321  2.0352 -2.4161 -3.6619
    2MOL0     H  213   8.169   0.314   2.234  0.6195 -0.2784  1.5930
    2MOL0     H  214   8.120   0.456   2.126  1.3197  1.2940  1.2274
    2MOL0     H  215   8.326   0.418   2.006 -0.5219  0.4366  0.1864
    2MOL0     H  216   8.374   0.284   2.108 -0.4402  0.0807  0.6775
    2MOL0     H  217   8.128   0.311   1.913 -0.7475  0.3456  0.8591
    2MOL0     H  218   8.136   0.187   2.032 -2.0248  4.0163  1.7359
    2MOL0     H  219   8.366   0.136   1.937 -2.1098  0.0354  1.4720
    2MOL0     H  220   8.231   0.094   1.824  0.2957 -1.4173  1.4006
    2MOL0     H  221   8.353   0.372   1.797  1.5800 -0.9878  1.7022
    2MOL0     H  222   8.278   0.276   1.680 -0.6783 -2.6027  0.5374
    2MOL0     H  223   8.551   0.268   1.789 -0.1485  1.5024 -1.0986
    2MOL0     H  224   8.492   0.108   1.741  0.4806 -0.2905  2.3887
    2MOL0     H  225   8.520   0.048   1.494 -3.5618  0.2959  0.8401
    2MOL0     H  226   8.451   0.168   1.189  1.1423 -6.4115  0.4840
    2MOL0     H  227   8.556   0.059   1.235 -1.0018 -0.7355 -0.4554
    2MOL0     H  228   8.603   0.312   1.071  3.4953  2.6571 -0.1904
    2MOL0     H  229   8.701   0.312   1.204 -3.9383  1.9278  2.2207
    2MOL0     H  230   8.771   0.081   1.142 -2.1923 -2.4495  0.4681
    2MOL0     H  231   8.657   0.078   0.996  1.0557 -0.8481 -1.9366
    2MOL0     H  232   8.900   0.097   0.928  1.8723  0.9957 -0.2804
    2MOL0     H  233   8.813   0.254   0.901 -1.1233 -1.3304 -0.2450
    2MOL0     H  234   9.072   0.215   0.812  1.8500  2.4141 -0.1271
    2MOL0     H  235   9.382   0.211   0.693  0.5186  0.2340 -0.3435
    2MOL0     H  236   9.334   0.384   0.670  1.5903 -0.9714 -2.9077
    2MOL0     H  237   9.212   0.253   0.646 -0.2855  2.0989  0.2170
    2MOL0     H  238   9.784   0.434   1.094  2.3803  0.1202  0.5617
    2MOL0     H  239   9.999   0.507   1.001  1.6189  1.8620 -0.6296
    2MOL0     H  240  10.166   0.558   0.877 -1.3090 -0.1226  0.1102
    2MOL0     H  241  10.121   0.478   0.723  0.3233  0.4910  0.1067
    2MOL0     H  242  10.287   0.728   0.725 -2.3475  1.3359 -1.2936
    2MOL0     H  243  10.350   0.563   0.721  1.8796  2.1075 -0.1675
    2MOL0     H  244  10.147   0.654   0.512  0.6274 -0.1243 -1.1146
    2MOL0     H  245  10.251   0.517   0.515  4.0555  0.1578  0.6864
    2MOL0     H  246  10.348   0.807   0.533 -1.9320  0.4527  1.5105
    2MOL0     H  247  10.352   0.706   0.379 -3.9813  1.1529  0.8470
    2MOL0     H  248  10.530   0.612   0.602  3.5705  0.7495 -0.8758
    2MOL0     H  249  10.535   0.571   0.429  1.2283  0.7164  0.6217
    2MOL0     H  250  10.592   0.840   0.552 -1.5171 -2.3562  3.3846
    2MOL0     H  251  10.589   0.799   0.380 -2.5369 -1.1677 -0.2012
    2MOL0     H  252  10.754   0.608   0.473 -5.0691 -0.0791  1.1357
    2MOL0     H  253  10.794   0.723   0.594 -2.7483 -2.3274  0.8259
    2MOL0     H  254  10.945   0.737   0.376 -0.0514 -0.6220 -1.4135
    2MOL0     H  255  10.862   0.879   0.422 -2.7294  1.9697 -3.4598
    2MOL0     H  256   9.770   0.688   0.676  0.0212 -0.5064 -0.7015
    2MOL0     H  257   9.572   0.592   0.769  0.1268 -0.0978 -1.2126
    2MOL0     H  258   9.361   0.441   1.144  1.1806 -0.9024  0.0368
    2MOL0     H  259   9.137   0.379   1.207  1.6580 -0.5338  1.1198
    2MOL0     H  260   7.955   0.317   2.446 -2.4883 -1.0887  0.1194
    2MOL0     H  261   7.727   0.288   2.338 -0.3614 -0.3966 -1.4768
    2MOL0     H  262   7.381   0.383   2.176  1.0185 -4.0727  0.8527
    2MOL0     H  263   7.168   0.306   2.099  0.0891  2.9015  1.3338
    2MOL0     H  264   6.990   0.209   1.995  1.2317  1.2872  1.1922
    2MOL0     H  265   6.966   0.371   2.020 -0.9591  1.1907 -0.6154
    2MOL0     H  266   6.852   0.215   1.774  1.4394 -0.0297  0.7470
    2MOL0     H  267   6.779   0.367   1.820 -1.7846 -1.6492 -1.8482
    2MOL0     H  268   6.741   0.094   1.963 -0.0042 -0.1627  1.9072
    2MOL0     H  269   6.717   0.257   2.035  0.2402 -2.8829  0.3264
    2MOL0     H  270   6.547   0.301   1.866  0.1009 -0.5348  0.5914
    2MOL0     H  271   6.520   0.136   1.929 -0.0093 -2.4217 -1.7826
    2MOL0     H  272   6.488   0.028   1.565 -0.0932 -3.0438  3.0601
    2MOL0     H  273   7.241   0.421   1.710 -2.5183 -3.7485  0.3304
    2MOL0     H  274   7.546   0.600   1.750  3.8653 -0.8670 -1.1349
    2MOL0     H  275   7.594   0.421   1.720 -0.1015  0.3430 -0.5743
    2MOL0     H  276   7.456   0.480   1.644 -3.2789 -1.8736  2.4306
    3MOL0     O  277   4.571   0.697   2.740  0.4712 -1.1822 -0.5810
    3MOL0     C  278   4.696   0.690   2.729  0.2849  0.0510 -0.3009
    3MOL0     O  279   4.772   0.759   2.646  0.7776  0.5277  0.2291
    3MOL0     C  280   4.705   0.843   2.564  0.6167 -1.3811 -0.5588
    3MOL0     C  281   4.621   0.787   2.465  0.0994 -0.5398 -0.2825
    3MOL0     C  282   4.579   0.882   2.367  0.3887  0.8887 -0.1720
    3MOL0     C  283   4.612   1.009   2.367  0.2593  0.6448 -0.2567
    3MOL0     O  284   4.557   1.088   2.264 -0.1050 -0.1762 -0.4412
    3MOL0     C  285   4.565   1.234   2.264  0.3438 -0.0985 -0.1504
    3MOL0     C  286   4.460   1.290   2.166 -0.3259  0.4799  0.0320
    3MOL0     C  287   4.483   1.234   2.023 -0.4612  0.3104 -0.6842
    3MOL0     C  288   4.406   1.328   1.932  0.0290  0.3963 -0.7292
    3MOL0     C  289   4.344   1.272   1.801  0.2001 -0.3867 -0.2797
    3MOL0     C  290   4.450   1.201   1.713  0.5027  0.0337  0.4083
    3MOL0     C  291   4.578   1.279   1.684 -0.2459  0.9863  0.1338
    3MOL0     C  292   4.544   1.394   1.595  0.0189 -0.3064  0.5651
    3MOL0     N  293   4.649   1.493   1.593 -0.6433 -0.6458 -0.3627
    3MOL0     C  294   4.646   1.592   1.681 -0.1658 -0.5556 -0.9620
    3MOL0     C  295   4.766   1.657   1.674  0.0202 -0.2936 -0.2210
    3MOL0     C  296   4.805   1.765   1.755 -0.8469  0.1208 -1.2470
    3MOL0     C  297   4.712   1.884   1.776  0.8552 -0.1265  0.9207
    3MOL0     C  298   4.767   2.010   1.846 -0.6730  0.3857  0.6497
    3MOL0     C  299   4.836   1.971   1.979  0.3683 -0.3888 -0.0834
    3MOL0     O  300   4.741   1.888   2.052 -0.9854 -0.0458  0.0206
    3MOL0     C  301   4.714   1.931   2.185  0.5598  0.0582  0.7475
    3MOL0     C  302   4.698   2.064   2.232 -0.0842  0.1033  0.1370
    3MOL0     C  303   4.664   2.088   2.370 -0.8762  0.0064  0.4053
    3MOL0     C  304   4.632   2.228   2.401 -0.8573  0.2361 -0.2811
    3MOL0     C  305   4.644   1.976   2.454 -0.3757 -0.0526 -0.9926
    3MOL0     C  306   4.594   2.003   2.592  0.8064  1.0446  0.5419
    3MOL0     O  307   4.484   1.936   2.632  0.5370 -0.2858  0.3103
    3MOL0     C  308   4.450   1.931   2.760 -0.0757 -0.0502 -0.4567
    3MOL0     C  309   4.430   1.808   2.819  0.0869  0.2609  0.4581
    3MOL0     C  310   4.400   1.789   2.948  0.4638 -0.6744  0.0967
    3MOL0     C  311   4.390   1.901   3.026 -0.8404 -0.1814  0.0229
    3MOL0     O  312   4.344   1.880   3.156 -0.4243 -0.1479 -0.1314
    3MOL0     C  313   4.386   1.977   3.253  0.3428 -0.2230  0.3254
    3MOL0     C  314   4.312   1.951   3.380 -0.2985 -0.2260  0.1721
    3MOL0     C  315   4.298   2.078   3.473 -0.3178 -0.1907  0.6109
    3MOL0     C  316   4.427   2.171   3.463  0.5870  0.6012  0.0537
    3MOL0     C  317   4.429   2.271   3.575  0.0986 -0.9899 -0.7094
    3MOL0     C  318   4.329   2.394   3.567 -0.5104  0.1097 -0.3487
    3MOL0     C  319   4.293   2.436   3.429  0.6111 -0.1264  0.4760
    3MOL0     C  320   4.202   2.563   3.423 -0.6098  0.4839  0.2589
    3MOL0    Cl  321   4.166   2.604   3.255 -0.7033  0.2279 -0.1346
    3MOL0     C  322   4.397   2.029   2.969  0.1917  0.0664 -0.2171
    3MOL0     C  323   4.435   2.047   2.839 -0.6896  0.3294  0.2652
    3MOL0     O  324   4.664   2.074   2.662  0.3496  0.0070  0.0032
    3MOL0     C  325   4.645   1.851   2.403 -0.7202  0.5984 -0.4030
    3MOL0     C  326   4.667   1.833   2.269  0.1458  1.1204  0.4598
    3MOL0     N  327   4.840   1.606   1.572  1.0861 -0.3904  0.4487
    3MOL0     N  328   4.768   1.506   1.533 -0.1112  0.4565  0.8450
    3MOL0     C  329   4.677   1.066   2.476 -0.2097  0.4673  0.0805
    3MOL0     C  330   4.721   0.980   2.576 -0.0972  1.3137  0.2220
    3MOL0     C  331   4.769   0.583   2.808  1.1226  0.0148 -0.1577
    3MOL0     C  332   4.713   0.554   2.935 -0.2846  0.0671  0.7498
    3MOL0     C  333   4.772   0.462   3.020  0.1585  0.7484  0.0793
    3MOL0     C  334   4.877   0.380   2.978 -0.2149  0.0370 -0.0550
    3MOL0     O  335   4.913   0.273   3.063  0.5644 -0.2593  0.0059
    3MOL0     C  336   4.973   0.163   2.993  1.0801 -0.0243 -1.0399
    3MOL0     C  337   4.888   0.039   3.049 -0.7113 -0.2231 -0.6185
    3MOL0     C  338   4.939  -0.022   3.182  0.5464 -0.3775 -0.0919
    3MOL0     C  339   4.853  -0.141   3.236  0.2177 -0.2219  0.0707
    3MOL0     C  340   4.786  -0.105   3.362 -0.3753  0.6827  0.9736
    3MOL0     C  341   4.762  -0.084   3.481 -0.3855 -1.1953  0.5663
    3MOL0     C  342   4.932   0.413   2.856 -0.7407  1.0544  0.1988
    3MOL0     C  343   4.881   0.505   2.768  0.3158 -0.2198  0.1550
    3MOL0     C  344   4.966   0.541   2.642  0.5857  0.2096 -1.0045
    3MOL0     H  345   4.593   0.682   2.470 -0.4402 -0.3357  1.6528
    3MOL0     H  346   4.523   0.836   2.286  0.9952  1.0751 -0.7090
    3MOL0     H  347   4.666   1.270   2.242  1.3095 -1.2179  2.1015
    3MOL0     H  348   4.549   1.267   2.367  1.0808 -2.9254  0.9616
    3MOL0     H  349   4.358   1.271   2.199 -0.5885 -1.1787 -1.6307
    3MOL0     H  350   4.483   1.395   2.147  2.4030 -0.1344 -0.5700
    3MOL0     H  351   4.591   1.240   2.010 -0.3331 -1.2907 -0.5481
    3MOL0     H  352   4.452   1.129   2.012 -1.7102  0.3105  1.8678
    3MOL0     H  353   4.331   1.391   1.981  2.0163  3.3606 -1.2123
    3MOL0     H  354   4.472   1.415   1.921  0.2628  0.7322  2.3216
    3MOL0     H  355   4.306   1.357   1.745  2.5770  1.3147  0.5417
    3MOL0     H  356   4.259   1.210   1.831 -0.3165  0.8406  0.8803
    3MOL0     H  357   4.477   1.109   1.765 -1.5494 -1.0802 -0.3696
    3MOL0     H  358   4.400   1.180   1.618  0.1059  1.5674  0.2549
    3MOL0     H  359   4.645   1.214   1.627 -0.2807 -2.4546  3.6070
    3MOL0     H  360   4.634   1.304   1.774  0.1451  1.0525 -0.1231
    3MOL0     H  361   4.520   1.370   1.491  0.1326 -0.1200  0.4934
    3MOL0     H  362   4.456   1.449   1.629 -0.7591  0.5004 -2.4190
    3MOL0     H  363   4.561   1.627   1.738  2.6929  3.0478  1.5883
    3MOL0     H  364   4.891   1.813   1.707 -0.1756  1.0132  0.7427
    3MOL0     H  365   4.843   1.729   1.852 -1.0714  0.2646 -1.1059
    3MOL0     H  366   4.668   1.905   1.678  2.9577 -0.4502 -0.1487
    3MOL0     H  367   4.631   1.846   1.839  0.9583 -1.0721  0.5071
    3MOL0     H  368   4.835   2.051   1.771  2.5254 -2.6831  1.6065
    3MOL0     H  369   4.682   2.078   1.859 -2.1609 -0.8511 -1.8430
    3MOL0     H  370   4.929   1.919   1.956  0.0177 -1.0907  0.0480
    3MOL0     H  371   4.865   2.063   2.030 -1.7061 -0.1319  0.7412
    3MOL0     H  372   4.694   2.144   2.159 -0.0974  0.5654  0.6356
    3MOL0     H  373   4.522   2.230   2.405 -0.8528  0.6855 -0.3281
    3MOL0     H  374   4.655   2.302   2.324  0.2749  1.1418  0.8653
    3MOL0     H  375   4.677   2.262   2.495 -2.2517  0.1402  0.4475
    3MOL0     H  376   4.462   1.721   2.762 -0.8100  0.1699  0.0754
    3MOL0     H  377   4.382   1.689   2.984 -2.5731 -0.8258 -1.5875
    3MOL0     H  378   4.494   1.964   3.264  0.5059 -1.9281 -2.3667
    3MOL0     H  379   4.350   2.076   3.226 -0.9421 -1.4212 -2.9919
    3MOL0     H  380   4.211   1.916   3.359 -0.8378  0.2476  1.8234
    3MOL0     H  381   4.371   1.870   3.424 -1.9628 -1.3761  0.3497
    3MOL0     H  382   4.284   2.036   3.573  0.2841  1.0442  1.2488
    3MOL0     H  383   4.211   2.134   3.437  0.6395  1.1028  0.2136
    3MOL0     H  384   4.433   2.221   3.366  2.0409  0.9242  0.2785
    3MOL0     H  385   4.509   2.099   3.475 -0.6774 -0.7285  1.0680
    3MOL0     H  386   4.405   2.228   3.673  0.6437 -3.7203 -1.6946
    3MOL0     H  387   4.531   2.308   3.565 -0.0584 -0.7658 -1.4968
    3MOL0     H  388   4.377   2.478   3.616 -0.3059 -1.4756  2.3578
    3MOL0     H  389   4.235   2.389   3.622  0.0744  5.1351  1.5932
    3MOL0     H  390   4.236   2.357   3.380  1.1702  0.3002 -0.9188
    3MOL0     H  391   4.387   2.460   3.380  1.5639 -0.9738  1.7972
    3MOL0     H  392   4.251   2.641   3.482 -1.6903  1.5222 -0.1858
    3MOL0     H  393   4.105   2.548   3.469  0.4166 -0.1333  2.3414
    3MOL0     H  394   4.396   2.115   3.036  0.9348  1.0626 -1.4504
    3MOL0     H  395   4.444   2.146   2.795 -0.9921 -0.5018 -1.8193
    3MOL0     H  396   4.612   1.767   2.463  2.4874  0.4921  1.4462
    3MOL0     H  397   4.667   1.729   2.240  2.3226  0.3335  2.9273
    3MOL0     H  398   4.699   1.172   2.485  0.3866  0.2094  2.2525
    3MOL0     H  399   4.782   1.000   2.664  1.1953  1.1365 -0.6135
    3MOL0     H  400   4.635   0.625   2.961 -1.9271 -1.9918  1.7817
    3MOL0     H  401   4.719   0.433   3.111  2.8484  2.5782  2.3791
    3MOL0     H  402   4.957   0.166   2.884  1.2746  0.7440 -1.0541
    3MOL0     H  403   5.081   0.165   3.006  0.8850 -0.9564  1.0858
    3MOL0     H  404   4.898  -0.039   2.974  1.0525  0.9092 -1.6191
    3MOL0     H  405   4.781   0.061   3.058 -1.3613 -2.8090 -1.2905
    3MOL0     H  406   5.035  -0.068   3.159 -0.2018 -1.8679 -0.3350
    3MOL0     H  407   4.949   0.061   3.252 -1.7956  0.1737 -0.3282
    3MOL0     H  408   4.909  -0.235   3.241  2.2210  0.9724  1.7122
    3MOL0     H  409   4.765  -0.152   3.172  0.1270 -2.7667  0.5107
    3MOL0     H  410   4.721  -0.076   3.579  1.1596 -3.7111  1.5199
    3MOL0     H  411   5.032   0.372   2.845 -1.9052 -2.6759  1.8377
    3MOL0     H  412   4.988   0.648   2.644 -2.6800  1.0034  1.5657
    3MOL0     H  413   5.046   0.467   2.631 -0.0869 -0.4176 -1.7549
    3MOL0     H  414   4.910   0.535   2.548  0.7702  1.4894 -1.2187
    4MOL0     O  415   6.554   4.935   3.908 -0.2606  0.0436  0.1168
    4MOL0     C  416   6.436   4.970   3.903 -0.1733 -0.2437  0.7453
    4MOL0     O  417   6.337   4.913   3.827 -0.9379  0.5908  0.4593
    4MOL0     C  418   6.349   4.812   3.728 -0.0290  0.5095 -0.4063
    4MOL0     C  419   6.463   4.785   3.660 -1.3001  0.3571  1.2792
    4MOL0     C  420   6.465   4.697   3.548  1.2727 -0.3003 -0.2853
    4MOL0     C  421   6.349   4.635   3.512  0.2466 -0.4273  0.7332
    4MOL0     O  422   6.319   4.556   3.397 -0.3406 -0.5509  0.2412
    4MOL0     C  423   6.394   4.579   3.279  0.2224 -0.5812 -0.0542
    4MOL0     C  424   6.517   4.487   3.287 -0.1397  0.2114 -0.2389
    4MOL0     C  425   6.594   4.479   3.158 -0.3582  0.0832 -0.2812
    4MOL0     C  426   6.724   4.401   3.170  0.3038  1.3696  0.6448
    4MOL0     C  427   6.701   4.249   3.151  0.5120 -0.2009  0.5519
    4MOL0     C  428   6.721   4.198   3.003  0.2324 -0.0390  0.1224
    4MOL0     C  429   6.714   4.039   3.010 -0.3138  0.2890 -0.6891
    4MOL0     C  430   6.722   3.987   2.876  0.4762 -0.5433  1.5481
    4MOL0     N  431   6.781   3.851   2.867  0.7656 -0.3782  0.7484
    4MOL0     C  432   6.719   3.740   2.912  0.3920 -1.0221 -1.2631
    4MOL0     C  433   6.810   3.646   2.893  0.7421  0.9249 -0.3208
    4MOL0     C  434   6.781   3.500   2.939 -0.0568 -0.2143 -0.1637
    4MOL0     C  435   6.708   3.425   2.831 -0.5178 -0.1240  0.3570
    4MOL0     C  436   6.559   3.442   2.850  0.6602 -0.2622 -0.5428
    4MOL0     C  437   6.478   3.333   2.763 -0.3970 -0.8871  0.5082
    4MOL0     O  438   6.340   3.367   2.780 -0.5321 -0.1778  0.6479
    4MOL0     C  439   6.240   3.267   2.757  0.0986 -0.2548 -1.0372
    4MOL0     C  440   6.121   3.314   2.707  0.1893  0.2587  0.4672
    4MOL0     C  441   6.008   3.240   2.682 -0.1752 -0.1670 -0.1263
    4MOL0     C  442   5.882   3.304   2.622 -0.4777  0.1510  0.8471
    4MOL0     C  443   6.024   3.105   2.715  0.3301  0.1956  0.9109
    4MOL0     C  444   5.913   3.003   2.698 -1.4795  0.7545  0.0537
    4MOL0     O  445   5.816   3.040   2.615  0.9833 -0.9494 -0.3346
    4MOL0     C  446   5.722   2.954   2.570 -0.9831 -0.2412  0.0339
    4MOL0     C  447   5.607   3.012   2.513 -0.8196 -0.3334 -0.5366
    4MOL0     C  448   5.501   2.940   2.481 -0.1146  0.5965 -0.7850
    4MOL0     C  449   5.494   2.796   2.500 -0.9792 -0.4260 -0.0286
    4MOL0     O  450   5.388   2.711   2.467 -1.1390  0.8429 -0.1517
    4MOL0     C  451   5.254   2.769   2.471  0.0519 -0.8878  0.3673
    4MOL0     C  452   5.199   2.785   2.332  0.1154 -0.1606  1.3107
    4MOL0     C  453   5.213   2.647   2.258  0.9448 -0.3986  0.6930
    4MOL0     C  454   5.110   2.622   2.147 -0.2439 -0.0069  0.2035
    4MOL0     C  455   5.124   2.479   2.087  0.2699 -0.0142 -0.4806
    4MOL0     C  456   5.036   2.461   1.958  0.1621  0.0930 -0.9735
    4MOL0     C  457   4.892   2.518   1.967  0.1870 -0.0287  0.3245
    4MOL0     C  458   4.809   2.433   2.057  0.0279 -0.8534  0.2670
    4MOL0    Cl  459   4.763   2.533   2.193  0.8466  0.1756  0.2097
    4MOL0     C  460   5.616   2.737   2.536  0.2954  0.4427  0.6344
    4MOL0     C  461   5.727   2.813   2.574  0.5932  1.0437  0.4340
    4MOL0     O  462   5.918   2.901   2.761 -0.5614 -0.1957 -0.4261
    4MOL0     C  463   6.130   3.058   2.790 -0.4490 -1.3433 -0.0594
    4MOL0     C  464   6.243   3.138   2.796  0.5724  0.2054  0.4236
    4MOL0     N  465   6.922   3.690   2.822 -0.1345  0.0731 -0.5561
    4MOL0     N  466   6.897   3.819   2.808 -1.0007  0.1667 -0.4065
    4MOL0     C  467   6.229   4.668   3.578  0.1080 -0.2597  0.2562
    4MOL0     C  468   6.232   4.756   3.680 -0.6487 -0.8973 -0.4728
    4MOL0     C  469   6.369   5.078   3.993 -0.4237  1.5076  0.4480
    4MOL0     C  470   6.288   5.168   3.924  0.2771 -0.5138  0.7179
    4MOL0     C  471   6.238   5.282   3.999  0.2877  0.3759 -0.0291
    4MOL0     C  472   6.280   5.291   4.132  0.9200 -0.6899 -0.3744
    4MOL0     O  473   6.233   5.397   4.208  0.5779  0.7807  0.4328
    4MOL0     C  474   6.201   5.521   4.142  0.3595 -0.9928  0.2186
    4MOL0     C  475   6.211   5.628   4.241  0.1791 -0.1124  0.6151
    4MOL0     C  476   6.130   5.615   4.365 -0.0477  0.1687 -0.2065
    4MOL0     C  477   5.987   5.570   4.338  0.2907 -0.5360  0.3090
    4MOL0     C  478   5.910   5.538   4.461 -0.8008  0.2233 -0.7579
    4MOL0     C  479   5.843   5.538   4.565  0.1245  1.0335 -0.0964
    4MOL0     C  480   6.363   5.200   4.192  0.7484  0.4532  0.1706
    4MOL0     C  481   6.402   5.089   4.125 -0.2938 -0.4568 -0.0657
    4MOL0     C  482   6.492   4.986   4.193  0.7870  0.1354  0.5709
    4MOL0     H  483   6.551   4.845   3.680 -0.5452 -0.8363  1.6028
    4MOL0     H  484   6.553   4.684   3.486  0.5272 -0.9754 -1.2310
    4MOL0     H  485   6.441   4.678   3.277 -2.3476  0.7305  0.3838
    4MOL0     H  486   6.332   4.576   3.189  1.0820 -1.1707 -0.6468
    4MOL0     H  487   6.589   4.509   3.366  1.7962 -3.5521 -0.6833
    4MOL0     H  488   6.474   4.388   3.307 -1.4760  0.5601 -1.2420
    4MOL0     H  489   6.535   4.468   3.067  1.2886  0.8047 -1.4772
    4MOL0     H  490   6.630   4.581   3.141 -1.0076  0.1531 -1.2969
    4MOL0     H  491   6.796   4.439   3.097  0.4576  0.3741  0.2575
    4MOL0     H  492   6.767   4.414   3.270  0.0919  2.6305  0.5804
    4MOL0     H  493   6.602   4.222   3.190  0.4203 -1.6856 -0.6081
    4MOL0     H  494   6.777   4.202   3.214  4.3708  0.4404 -3.1260
    4MOL0     H  495   6.635   4.219   2.939  0.4802  0.3681 -0.0802
    4MOL0     H  496   6.817   4.220   2.955  0.7417 -0.3917  0.9590
    4MOL0     H  497   6.619   4.005   3.051 -0.3664  1.9724  0.6807
    4MOL0     H  498   6.791   3.997   3.076  0.2001 -2.3610 -2.7896
    4MOL0     H  499   6.623   3.994   2.831 -0.1544 -5.1124  1.7361
    4MOL0     H  500   6.794   4.042   2.815 -0.3834 -0.5047  0.5405
    4MOL0     H  501   6.625   3.737   2.965  2.0402  2.3058  2.2697
    4MOL0     H  502   6.720   3.507   3.030 -3.0929 -1.3815 -1.9579
    4MOL0     H  503   6.875   3.451   2.965  0.8295  2.4837  2.3075
    4MOL0     H  504   6.748   3.462   2.736  3.2246 -0.8637  1.4782
    4MOL0     H  505   6.734   3.318   2.829  2.1342  0.4666 -1.4207
    4MOL0     H  506   6.530   3.434   2.955  2.6830 -0.9147  0.0231
    4MOL0     H  507   6.530   3.539   2.809 -0.2868 -0.2116  0.2009
    4MOL0     H  508   6.493   3.342   2.655  3.7782  1.7018  1.1224
    4MOL0     H  509   6.514   3.233   2.789  2.9408 -0.1896 -1.0078
    4MOL0     H  510   6.103   3.419   2.686  0.8210  0.0338 -1.3581
    4MOL0     H  511   5.796   3.276   2.684 -0.5950 -0.2583  0.5098
    4MOL0     H  512   5.868   3.267   2.520  1.5585  1.5692 -0.0188
    4MOL0     H  513   5.884   3.412   2.632  2.5327  0.5315 -2.0963
    4MOL0     H  514   5.597   3.121   2.515  0.1798 -0.2191  2.1649
    4MOL0     H  515   5.412   2.994   2.448 -2.0432 -0.4636  2.2468
    4MOL0     H  516   5.177   2.711   2.523 -1.2285  0.3773 -0.0517
    4MOL0     H  517   5.249   2.864   2.526 -1.2833 -1.5911  1.5166
    4MOL0     H  518   5.094   2.811   2.320  0.3405 -0.7315 -3.5531
    4MOL0     H  519   5.263   2.855   2.277  1.8124  0.1835  3.5589
    4MOL0     H  520   5.212   2.569   2.334  1.4482  0.7937  1.9685
    4MOL0     H  521   5.313   2.641   2.215  0.4000  0.7044 -0.8423
    4MOL0     H  522   5.134   2.684   2.060 -0.7915 -2.3610 -1.7290
    4MOL0     H  523   5.009   2.640   2.186  0.1282  1.2761  0.6410
    4MOL0     H  524   5.231   2.458   2.071  1.0637  2.4472  1.0578
    4MOL0     H  525   5.088   2.409   2.164 -0.2213  1.9759  1.1893
    4MOL0     H  526   5.028   2.355   1.929 -0.3313 -0.2195  0.2521
    4MOL0     H  527   5.096   2.508   1.880 -0.4741  0.5195 -1.2124
    4MOL0     H  528   4.837   2.520   1.872  0.9979  1.1266 -0.1499
    4MOL0     H  529   4.885   2.619   2.007  1.5764 -1.0466  3.4151
    4MOL0     H  530   4.862   2.347   2.100  2.7185  1.5209  2.0844
    4MOL0     H  531   4.718   2.388   2.017 -1.0316  1.4330 -0.0374
    4MOL0     H  532   5.619   2.630   2.554  0.9194  0.1532 -0.9984
    4MOL0     H  533   5.809   2.750   2.608  1.6953  3.8187  3.4987
    4MOL0     H  534   6.146   2.957   2.827 -3.6464 -1.4863  1.2202
    4MOL0     H  535   6.331   3.109   2.853  1.3745  0.7556 -0.4951
    4MOL0     H  536   6.131   4.628   3.552  0.1963 -1.0938  1.1427
    4MOL0     H  537   6.143   4.793   3.730  1.3606 -0.0328  2.7963
    4MOL0     H  538   6.267   5.166   3.817 -1.4302 -2.0614  1.0514
    4MOL0     H  539   6.172   5.357   3.957  0.3951  1.6816  2.0093
    4MOL0     H  540   6.268   5.555   4.063 -2.8088  1.9180 -1.4953
    4MOL0     H  541   6.100   5.526   4.099  1.1860  0.0511 -1.7219
    4MOL0     H  542   6.182   5.719   4.188 -0.0894 -0.7722 -0.3978
    4MOL0     H  543   6.318   5.628   4.264  0.1887 -1.2901  0.6338
    4MOL0     H  544   6.183   5.545   4.429 -0.0625 -1.8345 -2.2812
    4MOL0     H  545   6.132   5.702   4.432  1.0212 -0.4795  0.6316
    4MOL0     H  546   5.980   5.488   4.266 -1.9399 -1.6229  1.6212
    4MOL0     H  547   5.942   5.658   4.291  2.6286  0.2121 -0.6708
    4MOL0     H  548   5.788   5.535   4.656 -1.1659  1.4459 -0.8425
    4MOL0     H  549   6.401   5.223   4.291  2.0857 -2.3721  0.4228
    4MOL0     H  550   6.456   4.883   4.202 -1.6752  0.9455  0.6720
    4MOL0     H  551   6.589   4.991   4.142  0.5674  0.0736  0.1491
    4MOL0     H  552   6.511   5.023   4.294 -1.3296 -2.0609  1.8793
    5MOL0     O  553   0.365   3.955   7.580 -0.0364 -0.1950  0.4415
    5MOL0     C  554   0.434   4.044   7.619  0.5548 -1.2556 -0.4832
    5MOL0     O  555   0.530   4.030   7.714  0.6535 -0.6504 -0.7026
    5MOL0     C  556   0.585   3.905   7.728  0.7363 -0.9191 -0.4215
    5MOL0     C  557   0.586   3.842   7.847 -0.3187 -0.2323  0.2045
    5MOL0     C  558   0.635   3.714   7.856  0.2302  1.0815  0.2206
    5MOL0     C  559   0.700   3.648   7.750 -0.0055  0.3404  0.4014
    5MOL0     O  560   0.756   3.516   7.768  0.1630 -0.0836  0.4730
    5MOL0     C  561   0.871   3.484   7.689  0.8876  0.8276 -0.1632
    5MOL0     C  562   0.834   3.411   7.555  0.5151 -0.1725  1.1795
    5MOL0     C  563   0.953   3.336   7.498  0.2488  0.0439  0.9512
    5MOL0     C  564   0.961   3.342   7.344 -0.1678 -0.6842 -0.3721
    5MOL0     C  565   1.063   3.257   7.290 -0.1976 -0.4103  0.1038
    5MOL0     C  566   1.210   3.310   7.306 -0.5077  0.3201 -0.3947
    5MOL0     C  567   1.316   3.217   7.239  0.1744  0.6013 -0.5041
    5MOL0     C  568   1.460   3.269   7.266 -0.2496 -0.5345  0.1321
    5MOL0     N  569   1.561   3.213   7.173  0.1957  0.1223  0.1142
    5MOL0     C  570   1.616   3.090   7.191 -1.5531 -0.0046 -0.2778
    5MOL0     C  571   1.698   3.093   7.084 -0.3662  0.9831 -0.9556
    5MOL0     C  572   1.792   2.980   7.056  0.2703  0.8536  0.1732
    5MOL0     C  573   1.933   3.006   7.090 -0.7767 -0.4693  1.0365
    5MOL0     C  574   1.990   2.930   7.200 -0.1390  0.1040 -0.1353
    5MOL0     C  575   2.124   2.990   7.248  0.5832  0.5110 -0.0311
    5MOL0     O  576   2.183   2.910   7.351  0.3971  0.0155 -0.2318
    5MOL0     C  577   2.222   2.787   7.315 -0.5103 -0.6543 -0.1300
    5MOL0     C  578   2.290   2.756   7.192  0.3455  1.0245 -0.3837
    5MOL0     C  579   2.363   2.645   7.165  0.0590  1.1912  0.1000
    5MOL0     C  580   2.428   2.639   7.028  0.0096  0.6397  0.1023
    5MOL0     C  581   2.362   2.534   7.262 -0.6154  0.2522  0.2597
    5MOL0     C  582   2.411   2.387   7.240 -0.3467 -0.1686  0.0803
    5MOL0     O  583   2.418   2.322   7.355  0.1512 -0.7713  0.0992
    5MOL0     C  584   2.500   2.210   7.358 -0.6822  0.3287 -0.7148
    5MOL0     C  585   2.637   2.228   7.321  0.0723  1.0348 -0.6012
    5MOL0     C  586   2.719   2.116   7.315 -0.6166  0.4518  0.4996
    5MOL0     C  587   2.676   1.986   7.349  0.5258 -0.7628  0.5198
    5MOL0     O  588   2.748   1.876   7.332  0.1002  0.7057 -0.2588
    5MOL0     C  589   2.883   1.874   7.289  0.1111 -0.6545 -0.9380
    5MOL0     C  590   2.978   1.904   7.409  0.3128 -0.0244 -0.8619
    5MOL0     C  591   3.010   1.770   7.485 -0.1393 -0.2196 -0.5168
    5MOL0     C  592   2.884   1.740   7.580  0.0789 -0.7835  0.5511
    5MOL0     C  593   2.905   1.617   7.671 -0.3779 -0.4176  0.3041
    5MOL0     C  594   2.812   1.607   7.794  0.4510  0.3805  0.3211
    5MOL0     C  595   2.840   1.474   7.859  1.4068  0.8257 -0.0379
    5MOL0     C  596   2.742   1.459   7.973 -0.0794  0.2391  0.2156
    5MOL0    Cl  597   2.770   1.564   8.119  0.0675 -0.1491  0.0396
    5MOL0     C  598   2.547   1.978   7.398  0.1204 -0.0048 -0.3744
    5MOL0     C  599   2.454   2.084   7.397 -0.7377 -0.4403 -0.1349
    5MOL0     O  600   2.449   2.355   7.126  0.4295  0.6128  0.1059
    5MOL0     C  601   2.285   2.559   7.377  1.1207  1.0411 -0.3520
    5MOL0     C  602   2.224   2.684   7.405  0.1883  0.1387  0.0347
    5MOL0     N  603   1.693   3.209   7.004  0.5054 -0.1885 -0.2060
    5MOL0     N  604   1.599   3.279   7.060 -0.0007  0.3960 -0.7262
    5MOL0     C  605   0.720   3.722   7.633  0.4357  0.2201  0.3232
    5MOL0     C  606   0.656   3.847   7.618 -0.1633  0.0348 -0.0234
    5MOL0     C  607   0.413   4.187   7.576  0.2588  0.0804  0.4543
    5MOL0     C  608   0.457   4.291   7.656  0.4554 -0.3451 -0.4258
    5MOL0     C  609   0.428   4.429   7.631 -0.4386 -0.0540 -0.7158
    5MOL0     C  610   0.346   4.463   7.523  0.0637  0.3102  0.5400
    5MOL0     O  611   0.326   4.589   7.502  0.9448 -0.6004 -0.0892
    5MOL0     C  612   0.288   4.674   7.618 -0.9111 -1.3128  0.6308
    5MOL0     C  613   0.242   4.812   7.576  0.0965 -0.6780  0.5219
    5MOL0     C  614   0.211   4.914   7.690  0.7217  0.5450  0.7695
    5MOL0     C  615   0.335   4.966   7.757 -0.2596  0.6972 -0.0937
    5MOL0     C  616   0.302   5.068   7.860  0.0816  1.0385  0.4016
    5MOL0     C  617   0.269   5.151   7.937  0.9041 -0.8354  0.1045
    5MOL0     C  618   0.314   4.365   7.429 -0.2891  0.2902  0.2859
    5MOL0     C  619   0.345   4.231   7.447 -1.0412  0.1905 -0.4249
    5MOL0     C  620   0.279   4.116   7.367 -0.5116  0.5910  0.1965
    5MOL0     H  621   0.548   3.895   7.934  0.3775 -1.2707  1.1688
    5MOL0     H  622   0.619   3.655   7.946  0.6077  1.6764  0.6916
    5MOL0     H  623   0.923   3.416   7.756 -2.7060  0.2649  2.3460
    5MOL0     H  624   0.936   3.570   7.668 -0.8915  2.5868  1.0769
    5MOL0     H  625   0.742   3.353   7.553  0.7369 -0.5743 -2.2307
    5MOL0     H  626   0.816   3.488   7.479  0.4265  0.3213  1.6911
    5MOL0     H  627   1.045   3.366   7.549  0.5697 -0.3928  0.6419
    5MOL0     H  628   0.944   3.229   7.522  4.0033 -0.5740  0.2825
    5MOL0     H  629   0.866   3.313   7.299 -2.4918  2.3935  2.0590
    5MOL0     H  630   0.988   3.446   7.323  2.0862 -0.5329  2.5312
    5MOL0     H  631   1.036   3.246   7.184 -0.2363 -1.9454  0.2504
    5MOL0     H  632   1.058   3.153   7.324  2.0891 -0.9658 -1.0773
    5MOL0     H  633   1.216   3.411   7.265  2.6702  0.4290  0.1288
    5MOL0     H  634   1.235   3.320   7.412  1.4659 -0.8179 -0.7085
    5MOL0     H  635   1.296   3.198   7.133 -1.4365  2.0265 -0.4961
    5MOL0     H  636   1.305   3.123   7.293  1.9912  0.6455  0.0326
    5MOL0     H  637   1.459   3.376   7.246 -0.9096 -0.8476 -1.7042
    5MOL0     H  638   1.492   3.248   7.368 -2.5554  2.1229  1.5665
    5MOL0     H  639   1.614   3.017   7.271 -1.3497 -2.8230 -2.6675
    5MOL0     H  640   1.783   2.954   6.950 -0.6726  2.1834 -0.0955
    5MOL0     H  641   1.755   2.891   7.106 -2.3358  2.5891  1.5421
    5MOL0     H  642   1.993   2.986   7.001 -0.5239  0.6712  0.9402
    5MOL0     H  643   1.948   3.109   7.124  1.2978  0.4372 -2.1906
    5MOL0     H  644   1.927   2.936   7.290  2.3799  0.4016  1.7285
    5MOL0     H  645   2.002   2.828   7.165 -4.5585 -1.2310  1.5597
    5MOL0     H  646   2.198   3.007   7.169  1.4063 -0.3805  0.5155
    5MOL0     H  647   2.107   3.093   7.278  0.1453  1.2405 -2.5474
    5MOL0     H  648   2.294   2.828   7.111 -0.3025  2.4952  0.8233
    5MOL0     H  649   2.434   2.740   6.985 -3.2817  1.8286  2.0528
    5MOL0     H  650   2.373   2.570   6.963 -1.1720 -0.6432  2.3379
    5MOL0     H  651   2.531   2.605   7.036 -0.1449  0.1386  0.0268
    5MOL0     H  652   2.668   2.330   7.303 -2.4930  1.4551 -3.7651
    5MOL0     H  653   2.823   2.122   7.284 -0.7786 -0.6049 -0.2997
    5MOL0     H  654   2.895   1.773   7.250 -0.5889 -1.2668  0.3519
    5MOL0     H  655   2.904   1.935   7.201  0.8268 -0.1847 -0.4603
    5MOL0     H  656   3.068   1.951   7.369  1.7240  0.3944  2.4727
    5MOL0     H  657   2.928   1.977   7.473 -2.5063 -2.1609 -0.3940
    5MOL0     H  658   3.099   1.782   7.548  0.2711  0.1810 -1.1641
    5MOL0     H  659   3.033   1.694   7.410  1.3605 -1.8255  1.4549
    5MOL0     H  660   2.791   1.727   7.524 -1.0042  1.7972  1.6070
    5MOL0     H  661   2.878   1.827   7.647 -2.3147 -1.3593  1.1954
    5MOL0     H  662   2.903   1.522   7.616  2.5531 -1.5184  1.8369
    5MOL0     H  663   3.008   1.617   7.709 -0.8127 -2.1716  1.6616
    5MOL0     H  664   2.708   1.608   7.758  0.4202  0.8691  0.4155
    5MOL0     H  665   2.838   1.696   7.852  0.4246  0.7750 -0.2569
    5MOL0     H  666   2.946   1.463   7.884  0.9344 -0.7018  1.4571
    5MOL0     H  667   2.820   1.405   7.776 -1.4526  1.8069 -0.2617
    5MOL0     H  668   2.744   1.351   7.990 -2.6173  0.0765 -0.2275
    5MOL0     H  669   2.643   1.485   7.934  0.1522  1.9755  0.7072
    5MOL0     H  670   2.522   1.878   7.429 -1.4537  0.5411  0.2169
    5MOL0     H  671   2.354   2.079   7.440 -1.4337 -3.1244 -1.8259
    5MOL0     H  672   2.271   2.487   7.457  2.3941  1.9558  0.7319
    5MOL0     H  673   2.158   2.700   7.489  1.5132  1.8284  0.8147
    5MOL0     H  674   0.768   3.676   7.548  1.9762 -2.1351  2.3573
    5MOL0     H  675   0.659   3.894   7.521  0.1146  2.4398  1.0710
    5MOL0     H  676   0.510   4.265   7.747 -1.0488 -0.5610  0.4278
    5MOL0     H  677   0.474   4.509   7.688  3.1961 -0.8443 -2.2698
    5MOL0     H  678   0.200   4.630   7.666 -0.9315  0.4729  2.3359
    5MOL0     H  679   0.373   4.688   7.684 -1.4352 -2.4332  1.5894
    5MOL0     H  680   0.155   4.804   7.511  1.7854  0.2764 -2.0128
    5MOL0     H  681   0.308   4.868   7.510 -1.4744  1.5976  0.7819
    5MOL0     H  682   0.157   4.995   7.642  0.9799 -0.3963 -1.1980
    5MOL0     H  683   0.150   4.870   7.770 -0.2700 -0.3436 -0.4447
    5MOL0     H  684   0.405   5.008   7.685  1.4473  0.2796  1.2444
    5MOL0     H  685   0.390   4.885   7.806  0.4367  1.1979 -0.0333
    5MOL0     H  686   0.249   5.232   8.004  0.8483 -1.0978  0.4109
    5MOL0     H  687   0.250   4.383   7.343 -0.2479  1.1541  0.4303
    5MOL0     H  688   0.220   4.161   7.287 -1.3988  1.8646  1.5027
    5MOL0     H  689   0.357   4.056   7.320  0.2616  0.4691  1.5998
    5MOL0     H  690   0.203   4.051   7.411  0.5392 -0.0476  1.1180
    6MOL0     O  691   6.170   0.984   8.652 -0.3056 -0.3069 -0.5605
    6MOL0     C  692   6.074   0.919   8.687 -0.0189  0.2568 -0.3468
    6MOL0     O  693   6.049   0.881   8.822 -0.3896  0.2273  0.3034
    6MOL0     C  694   6.144   0.897   8.922 -0.8799 -0.3919 -0.0905
    6MOL0     C  695   6.079   0.894   9.045  0.3913 -0.4378 -0.0964
    6MOL0     C  696   6.141   0.917   9.169  0.1933 -0.2279 -0.8341
    6MOL0     C  697   6.276   0.946   9.167 -0.6774 -0.7156 -0.2434
    6MOL0     O  698   6.342   0.967   9.287 -0.3915  0.2337 -0.4146
    6MOL0     C  699   6.318   1.094   9.347  0.3025  0.0733  0.3407
    6MOL0     C  700   6.276   1.058   9.489  0.3337  0.3435  0.1902
    6MOL0     C  701   6.221   1.178   9.556  0.0140  0.1967  0.0409
    6MOL0     C  702   6.201   1.142   9.709  0.4630 -0.4270  1.0533
    6MOL0     C  703   6.084   1.214   9.783  0.0664  0.5731  0.6277
    6MOL0     C  704   5.932   1.186   9.752  0.1196  0.7153  0.6872
    6MOL0     C  705   5.881   1.071   9.849  0.1774 -0.1052 -0.4378
    6MOL0     C  706   5.892   1.103  10.001  0.2497  0.3557 -0.3462
    6MOL0     N  707   5.823   0.994  10.070 -0.5527  0.5097 -0.3689
    6MOL0     C  708   5.695   0.950  10.050 -0.5596  0.5992  1.2192
    6MOL0     C  709   5.660   0.876  10.155 -0.3712  0.2152  0.5646
    6MOL0     C  710   5.519   0.828  10.181 -0.8587 -0.7062  0.9168
    6MOL0     C  711   5.466   0.837  10.320  0.3143 -0.8372  0.6076
    6MOL0     C  712   5.328   0.782  10.315  0.5381  0.7359 -0.9998
    6MOL0     C  713   5.255   0.804  10.440 -0.4844 -0.0111 -0.3173
    6MOL0     O  714   5.308   0.715  10.542 -0.4029 -0.6063 -0.2727
    6MOL0     C  715   5.289   0.765  10.664  0.0810  0.5018  0.5637
    6MOL0     C  716   5.387   0.735  10.765 -0.3677 -0.8770 -0.2375
    6MOL0     C  717   5.369   0.785  10.900  0.5014  0.1132 -0.5153
    6MOL0     C  718   5.499   0.756  10.992  0.6702 -0.4737 -0.5263
    6MOL0     C  719   5.257   0.866  10.929 -0.2040 -0.5567  0.0564
    6MOL0     C  720   5.236   0.916  11.069  0.0755 -0.9994  0.7359
    6MOL0     O  721   5.334   0.905  11.157  0.0378  0.5653  0.4148
    6MOL0     C  722   5.305   0.918  11.293  0.2404  0.5196 -1.4064
    6MOL0     C  723   5.181   0.875  11.365  0.0605  0.4341 -0.0301
    6MOL0     C  724   5.171   0.890  11.505 -0.7688  0.0136  0.4945
    6MOL0     C  725   5.266   0.959  11.576  0.1865 -0.5008 -0.5652
    6MOL0     O  726   5.255   0.994  11.713  0.1961 -0.4353  0.3026
    6MOL0     C  727   5.194   0.890  11.791  1.1256 -0.9537  0.5343
    6MOL0     C  728   5.153   0.956  11.926 -0.0477 -0.5957 -0.1899
    6MOL0     C  729   5.047   1.064  11.900 -0.1260 -0.3062  0.6871
    6MOL0     C  730   4.920   1.004  11.834 -0.1136  0.9633 -0.4478
    6MOL0     C  731   4.794   1.093  11.820 -0.8647  1.2539  0.1253
    6MOL0     C  732   4.768   1.181  11.940 -0.8080 -0.0939  0.1241
    6MOL0     C  733   4.664   1.288  11.914 -0.3894  0.2563 -0.5302
    6MOL0     C  734   4.527   1.258  11.848  0.3550 -0.1892  0.0493
    6MOL0    Cl  735   4.387   1.360  11.903 -0.2241 -0.3638  0.2063
    6MOL0     C  736   5.376   1.013  11.504 -0.1278  0.4510  0.1527
    6MOL0     C  737   5.405   0.985  11.368 -0.4999  0.0466 -0.9513
    6MOL0     O  738   5.125   0.972  11.091  0.4929 -0.2653 -0.2200
    6MOL0     C  739   5.158   0.889  10.836 -0.3879  0.4512  0.5589
    6MOL0     C  740   5.167   0.828  10.706 -0.2220 -0.5768  1.5104
    6MOL0     N  741   5.759   0.877  10.247 -0.5464  0.2808  0.6586
    6MOL0     N  742   5.858   0.949  10.196  0.0259  0.3571  0.0836
    6MOL0     C  743   6.347   0.934   9.046 -0.2756  0.3580  0.0046
    6MOL0     C  744   6.280   0.911   8.921 -0.2899  0.2580  0.0650
    6MOL0     C  745   5.982   0.869   8.584 -0.0567 -0.3597 -0.6071
    6MOL0     C  746   5.956   0.966   8.493 -0.0070  0.5500 -0.3126
    6MOL0     C  747   5.880   0.939   8.383  0.1306  0.5809 -0.1391
    6MOL0     C  748   5.804   0.814   8.382 -0.1648 -0.2296 -0.7072
    6MOL0     O  749   5.714   0.784   8.288 -0.4908  0.3310 -0.7706
    6MOL0     C  750   5.645   0.891   8.210 -0.3671  0.2725 -0.3181
    6MOL0     C  751   5.581   0.830   8.091  0.0197 -1.2276  0.1973
    6MOL0     C  752   5.498   0.704   8.114 -0.9772 -0.5522  0.6542
    6MOL0     C  753   5.446   0.670   7.971  0.5288  0.2542 -0.8814
    6MOL0     C  754   5.323   0.587   7.979 -0.7637  0.2129 -0.0270
    6MOL0     C  755   5.223   0.506   7.969 -0.8931 -0.0382 -0.4250
    6MOL0     C  756   5.839   0.712   8.472  0.9917  0.6909 -0.0697
    6MOL0     C  757   5.926   0.736   8.585  0.0268  0.6646  0.3845
    6MOL0     C  758   5.955   0.630   8.675 -0.3894 -0.1284 -0.8370
    6MOL0     H  759   5.972   0.874   9.049  0.6041 -1.4695  1.1768
    6MOL0     H  760   6.084   0.906   9.261  1.1597 -1.4653 -0.3576
    6MOL0     H  761   6.248   1.161   9.296 -1.7288 -1.2733  1.2158
    6MOL0     H  762   6.415   1.144   9.356  0.1282  0.6726 -0.8631
    6MOL0     H  763   6.200   0.980   9.501  2.9495 -2.1348  2.0670
    6MOL0     H  764   6.366   1.031   9.545  0.6012 -0.9910 -0.8326
    6MOL0     H  765   6.282   1.268   9.551 -0.8066  0.7021 -1.3484
    6MOL0     H  766   6.127   1.211   9.511  0.8919  3.8761  0.6079
    6MOL0     H  767   6.169   1.038   9.724 -1.3631  0.2122  1.7900
    6MOL0     H  768   6.294   1.151   9.766  0.5428 -1.4159  1.0928
    6MOL0     H  769   6.103   1.318   9.756 -1.0442  0.2721 -1.5485
    6MOL0     H  770   6.101   1.206   9.891  0.9527 -0.7753  0.4073
    6MOL0     H  771   5.872   1.277   9.766 -0.3581  0.5377 -0.1380
    6MOL0     H  772   5.924   1.166   9.645  2.4953  0.9216  0.4110
    6MOL0     H  773   5.934   0.977   9.832  1.4932  0.0398  2.2977
    6MOL0     H  774   5.777   1.047   9.826  0.0653 -0.2136  0.1728
    6MOL0     H  775   5.995   1.115  10.034 -0.1428  3.3523  0.1597
    6MOL0     H  776   5.842   1.200  10.014 -1.1025 -0.6851  3.2296
    6MOL0     H  777   5.628   0.985   9.972 -2.0275 -2.0920  1.1554
    6MOL0     H  778   5.509   0.724  10.146  2.6156 -0.0989 -2.5835
    6MOL0     H  779   5.454   0.895  10.125  1.8237 -0.6873 -2.5050
    6MOL0     H  780   5.527   0.769  10.381  0.0212 -1.5987  0.0672
    6MOL0     H  781   5.469   0.938  10.361 -0.7496 -1.4449  2.2730
    6MOL0     H  782   5.270   0.842  10.245 -0.3366  1.8168  0.5805
    6MOL0     H  783   5.322   0.676  10.288 -1.6380  0.7726 -0.8309
    6MOL0     H  784   5.267   0.906  10.478  1.5842 -0.0895 -0.6543
    6MOL0     H  785   5.151   0.775  10.421 -1.1834  1.9265  0.3301
    6MOL0     H  786   5.479   0.690  10.727  1.8174  3.8318 -1.2430
    6MOL0     H  787   5.565   0.843  10.992 -2.2843  1.9920  1.2602
    6MOL0     H  788   5.554   0.673  10.948 -0.0068 -1.7264  0.9293
    6MOL0     H  789   5.471   0.721  11.091  1.3867 -3.0463 -1.1766
    6MOL0     H  790   5.097   0.830  11.313 -1.1612 -0.4120  2.5237
    6MOL0     H  791   5.078   0.854  11.549 -0.1382 -0.1716  1.7213
    6MOL0     H  792   5.104   0.849  11.744  0.5078  2.2582 -1.3839
    6MOL0     H  793   5.265   0.813  11.821  2.2973  0.8765  2.7654
    6MOL0     H  794   5.108   0.881  11.992 -1.4498 -0.7375 -1.2651
    6MOL0     H  795   5.242   1.004  11.967  0.5122 -0.6007 -1.3705
    6MOL0     H  796   5.076   1.149  11.837 -1.4056 -0.2183  0.1731
    6MOL0     H  797   5.039   1.115  11.997 -1.0680  0.3237  0.2968
    6MOL0     H  798   4.898   0.909  11.883  1.4341 -0.6018 -2.6269
    6MOL0     H  799   4.941   0.976  11.731 -0.5304 -0.1747 -0.2337
    6MOL0     H  800   4.803   1.163  11.737 -0.8461  1.9444  0.7030
    6MOL0     H  801   4.704   1.032  11.809 -0.6566  1.0578 -0.4813
    6MOL0     H  802   4.856   1.242  11.958  1.0408 -2.4189 -0.4800
    6MOL0     H  803   4.745   1.121  12.029 -5.1976 -0.5495 -1.0492
    6MOL0     H  804   4.713   1.359  11.847  0.6486  0.8851  0.8426
    6MOL0     H  805   4.648   1.342  12.008  1.1139 -0.3790  0.1174
    6MOL0     H  806   4.509   1.152  11.868  1.3595 -0.3336  0.2228
    6MOL0     H  807   4.538   1.264  11.739 -0.2872  3.3240  0.0823
    6MOL0     H  808   5.440   1.083  11.556 -0.2311 -0.1896  1.1734
    6MOL0     H  809   5.494   1.023  11.319 -0.8196 -0.5810 -2.0558
    6MOL0     H  810   5.083   0.965  10.855  0.8750  2.0592 -0.6420
    6MOL0     H  811   5.082   0.828  10.639  1.7011  2.7678 -1.3151
    6MOL0     H  812   6.455   0.942   9.039 -0.1300  1.1627  2.3131
    6MOL0     H  813   6.336   0.911   8.828  3.9319 -0.1775  2.3489
    6MOL0     H  814   6.007   1.062   8.490 -1.8655  1.6523  1.1118
    6MOL0     H  815   5.856   1.011   8.306 -4.1356 -0.6156 -0.1763
    6MOL0     H  816   5.564   0.917   8.279  1.4387 -0.1321  2.0726
    6MOL0     H  817   5.700   0.979   8.176 -0.4189 -0.0617 -1.2915
    6MOL0     H  818   5.660   0.797   8.024  0.5957 -3.1361  1.7517
    6MOL0     H  819   5.529   0.910   8.036 -1.1307 -1.2501  1.1994
    6MOL0     H  820   5.559   0.617   8.138 -0.5948 -0.5576 -0.3099
    6MOL0     H  821   5.425   0.720   8.194 -0.3737  0.7341  0.9777
    6MOL0     H  822   5.519   0.614   7.913  1.2114  1.0889 -0.8442
    6MOL0     H  823   5.406   0.759   7.921  2.4720  1.7502  0.0920
    6MOL0     H  824   5.138   0.442   7.980 -1.2212  0.1035 -1.9163
    6MOL0     H  825   5.766   0.632   8.474 -1.5696  2.7771 -2.2811
    6MOL0     H  826   5.930   0.674   8.772  0.9656 -0.2873 -0.3937
    6MOL0     H  827   5.890   0.543   8.661 -0.9306  0.2682 -0.8250
    6MOL0     H  828   6.058   0.594   8.675 -0.6643 -0.9883 -2.0565
    7MOL0     O  829   5.061   7.524   4.160 -0.1351  0.3077  0.0935
    7MOL0     C  830   5.164   7.568   4.111  0.5459  0.1414 -0.0273
    7MOL0     O  831   5.173   7.679   4.038  1.1308 -0.3292 -0.2528
    7MOL0     C  832   5.070   7.763   4.046 -0.9333 -0.3760  0.8284
    7MOL0     C  833   5.030   7.813   3.924 -0.6942 -0.1078 -0.1451
    7MOL0     C  834   4.918   7.899   3.909 -0.0693 -0.0040  0.6400
    7MOL0     C  835   4.840   7.939   4.022 -0.4363  0.3737  0.3904
    7MOL0     O  836   4.714   8.003   4.015 -0.3773 -0.0329  0.2495
    7MOL0     C  837   4.675   8.080   4.128 -0.0697  0.7635 -0.0142
    7MOL0     C  838   4.755   8.206   4.158 -0.3613  0.4009  0.3777
    7MOL0     C  839   4.679   8.283   4.263 -0.5050  0.2309  0.0810
    7MOL0     C  840   4.751   8.420   4.288 -0.0266  0.4245 -0.0162
    7MOL0     C  841   4.689   8.499   4.415  1.1723  0.4830 -0.3233
    7MOL0     C  842   4.781   8.615   4.450  0.3167  0.2319  0.7074
    7MOL0     C  843   4.842   8.711   4.344 -0.2534  0.0223  0.5258
    7MOL0     C  844   4.917   8.824   4.405  1.2974  0.2518  0.5324
    7MOL0     N  845   5.007   8.894   4.308  0.3647 -0.4363 -0.7568
    7MOL0     C  846   4.974   8.930   4.175  0.3775  0.7617  0.2863
    7MOL0     C  847   5.080   8.997   4.138 -0.3892 -0.3356  0.2387
    7MOL0     C  848   5.088   9.048   3.991 -0.0943 -0.0136 -0.2377
    7MOL0     C  849   5.009   9.178   3.984 -0.4674  0.1242 -0.6025
    7MOL0     C  850   5.042   9.253   3.854  0.5378 -0.3023 -0.0524
    7MOL0     C  851   4.913   9.320   3.806 -0.2547  0.5327 -1.0724
    7MOL0     O  852   4.870   9.427   3.898 -0.1311  0.0350 -0.6456
    7MOL0     C  853   4.744   9.471   3.882  0.3281 -0.0292  0.5063
    7MOL0     C  854   4.701   9.586   3.958 -0.6342  0.6977 -0.2384
    7MOL0     C  855   4.571   9.641   3.933 -0.0727 -0.1569  0.6413
    7MOL0     C  856   4.544   9.760   4.016 -0.2065  0.0330  0.1410
    7MOL0     C  857   4.480   9.580   3.843  0.8033 -0.7526  0.1419
    7MOL0     C  858   4.351   9.655   3.805  0.4117  0.9766  0.1187
    7MOL0     O  859   4.249   9.573   3.759  0.3965  0.4449  0.0763
    7MOL0     C  860   4.185   9.621   3.649  0.5955 -0.0234  0.2660
    7MOL0     C  861   4.048   9.631   3.652  0.4807  0.1591  0.0955
    7MOL0     C  862   3.987   9.670   3.536 -0.0397 -1.1454  0.4992
    7MOL0     C  863   4.055   9.704   3.421  0.1843 -0.0351 -0.5724
    7MOL0     O  864   3.971   9.742   3.320  0.5140  0.1268  0.6589
    7MOL0     C  865   4.017   9.852   3.240 -0.4544 -0.8089 -0.2975
    7MOL0     C  866   3.906   9.905   3.148  0.5936 -0.2684  0.1732
    7MOL0     C  867   3.812   9.998   3.224 -0.2701  0.5622 -0.2016
    7MOL0     C  868   3.695  10.032   3.133 -1.0400 -0.5648  0.9578
    7MOL0     C  869   3.603  10.141   3.182 -0.5212  0.4180 -0.3821
    7MOL0     C  870   3.486  10.109   3.271  0.0043 -0.0240  0.0381
    7MOL0     C  871   3.388  10.227   3.269  0.1276  0.6119 -0.5882
    7MOL0     C  872   3.271  10.188   3.188  0.0986  0.0829  0.1868
    7MOL0    Cl  873   3.175  10.329   3.168  0.2885 -0.0034 -0.2911
    7MOL0     C  874   4.188   9.703   3.425 -0.8008  0.2123  0.1941
    7MOL0     C  875   4.255   9.663   3.536 -0.6398  0.4672  0.3963
    7MOL0     O  876   4.340   9.773   3.808  0.2078 -0.1398  0.5030
    7MOL0     C  877   4.520   9.460   3.780  0.2603  0.4223  0.7669
    7MOL0     C  878   4.647   9.405   3.801 -0.0104  0.1726  1.1802
    7MOL0     N  879   5.170   9.010   4.237 -0.8010 -0.3920  0.2769
    7MOL0     N  880   5.131   8.945   4.337 -0.2238 -1.0757 -0.1423
    7MOL0     C  881   4.895   7.903   4.145 -0.3874  0.0587  0.4835
    7MOL0     C  882   5.005   7.822   4.158 -0.6326 -0.1906 -0.1607
    7MOL0     C  883   5.292   7.494   4.122  0.3414  0.6450  0.0209
    7MOL0     C  884   5.408   7.545   4.067  0.0103 -0.5625 -0.1644
    7MOL0     C  885   5.537   7.484   4.069  0.5406 -0.4183 -0.3233
    7MOL0     C  886   5.540   7.354   4.115 -0.2433  0.5294 -0.2553
    7MOL0     O  887   5.668   7.298   4.126 -0.4645  0.7436  0.2193
    7MOL0     C  888   5.677   7.155   4.130  0.0361 -0.5211  0.7071
    7MOL0     C  889   5.808   7.108   4.066  0.5054  1.0917 -0.1054
    7MOL0     C  890   5.821   7.169   3.922 -1.1782 -0.3553 -0.2665
    7MOL0     C  891   5.968   7.134   3.879  0.3786 -0.8011 -1.0092
    7MOL0     C  892   6.067   7.240   3.921 -0.1650  0.0807  0.3051
    7MOL0     C  893   6.136   7.328   3.956 -0.6420  0.6009  0.4316
    7MOL0     C  894   5.432   7.300   4.173  0.1961  0.5673 -0.1724
    7MOL0     C  895   5.302   7.357   4.179  0.1684  0.6586 -0.9058
    7MOL0     C  896   5.183   7.276   4.232  0.8843 -0.0058  0.1693
    7MOL0     H  897   5.101   7.799   3.843  1.3235  0.4821  1.4264
    7MOL0     H  898   4.889   7.932   3.810 -1.1127 -0.4912  0.7607
    7MOL0     H  899   4.661   8.026   4.222 -1.3429  2.9205  1.1204
    7MOL0     H  900   4.579   8.119   4.094 -0.1629 -0.9896 -1.8948
    7MOL0     H  901   4.856   8.180   4.191 -0.9800 -3.4688 -0.2951
    7MOL0     H  902   4.744   8.260   4.064 -1.8188 -2.7890 -1.4553
    7MOL0     H  903   4.579   8.309   4.226 -1.2447 -0.1738  1.7171
    7MOL0     H  904   4.677   8.231   4.359 -2.8022 -4.3147 -2.1441
    7MOL0     H  905   4.856   8.400   4.313 -0.4797 -0.1278  1.5665
    7MOL0     H  906   4.752   8.496   4.209  2.0340  0.0964 -0.3736
    7MOL0     H  907   4.674   8.442   4.507 -1.3819  0.0197 -0.9558
    7MOL0     H  908   4.588   8.533   4.389 -0.0573 -2.1381  0.7249
    7MOL0     H  909   4.719   8.661   4.527  2.7076  2.5180  1.4215
    7MOL0     H  910   4.868   8.579   4.506  0.4272 -0.3735  0.1540
    7MOL0     H  911   4.769   8.755   4.275  1.9490  0.5655 -1.6140
    7MOL0     H  912   4.907   8.652   4.279  0.4287 -1.1720  2.2025
    7MOL0     H  913   4.853   8.904   4.442  1.3207  0.7147 -0.4010
    7MOL0     H  914   4.969   8.779   4.490 -1.2800 -2.9644  0.6153
    7MOL0     H  915   4.892   8.910   4.107  2.4071  1.1575 -2.4596
    7MOL0     H  916   5.034   8.983   3.921 -0.8394  1.1971 -0.8362
    7MOL0     H  917   5.190   9.056   3.953  0.5588 -0.4134  1.3924
    7MOL0     H  918   4.901   9.164   3.995 -0.1797 -1.1864  0.8918
    7MOL0     H  919   5.045   9.236   4.069  6.3479 -0.6675 -2.3433
    7MOL0     H  920   5.113   9.335   3.865 -1.6306  1.8004 -0.9396
    7MOL0     H  921   5.062   9.170   3.785 -2.0165 -1.2260  0.1988
    7MOL0     H  922   4.916   9.363   3.705  0.1210  0.3040 -1.1607
    7MOL0     H  923   4.844   9.235   3.801 -0.1361  0.4853 -2.5433
    7MOL0     H  924   4.779   9.624   4.023 -2.0794 -2.1648  3.5605
    7MOL0     H  925   4.443   9.753   4.058  0.2009  0.8970  1.3021
    7MOL0     H  926   4.527   9.857   3.967  0.9959  2.5807  4.2344
    7MOL0     H  927   4.620   9.780   4.092 -2.4654  1.1720  2.2577
    7MOL0     H  928   3.989   9.599   3.738 -2.9205  0.2614 -1.9788
    7MOL0     H  929   3.880   9.684   3.525  0.3120  2.9393  0.8869
    7MOL0     H  930   4.064   9.929   3.302 -1.8774  0.0093 -0.1935
    7MOL0     H  931   4.096   9.834   3.166 -1.5753  1.8795 -2.2983
    7MOL0     H  932   3.953   9.946   3.059 -1.1464 -0.8542 -1.0761
    7MOL0     H  933   3.856   9.814   3.114 -0.9888  0.0417  1.5204
    7MOL0     H  934   3.868  10.082   3.264  0.0470 -0.6314  1.9874
    7MOL0     H  935   3.775   9.937   3.307 -0.5145  0.7245 -0.1901
    7MOL0     H  936   3.648   9.939   3.100 -0.6404 -0.2792 -0.4758
    7MOL0     H  937   3.743  10.067   3.041 -0.6834  0.0035  1.3555
    7MOL0     H  938   3.665  10.214   3.236  0.5289  0.0290 -1.0209
    7MOL0     H  939   3.556  10.181   3.092 -1.4804  2.1158  0.8237
    7MOL0     H  940   3.522  10.099   3.373 -0.6910  2.1135  0.5574
    7MOL0     H  941   3.439  10.017   3.234 -0.9475  0.4507  0.0112
    7MOL0     H  942   3.431  10.319   3.229  1.5835 -0.2917 -1.1558
    7MOL0     H  943   3.364  10.262   3.370  0.6503  0.6455 -0.4730
    7MOL0     H  944   3.214  10.117   3.249  1.3466 -1.5395 -0.4668
    7MOL0     H  945   3.292  10.154   3.086  0.3379  1.0334 -0.0903
    7MOL0     H  946   4.242   9.728   3.334  0.7541 -2.4216  0.2999
    7MOL0     H  947   4.360   9.638   3.548 -0.6539  1.1398  2.1712
    7MOL0     H  948   4.453   9.421   3.704  1.0059  0.6086 -0.0022
    7MOL0     H  949   4.663   9.323   3.732 -0.8460  1.8365 -1.1211
    7MOL0     H  950   4.847   7.933   4.238 -0.7929 -1.9038  0.9562
    7MOL0     H  951   5.018   7.788   4.261 -3.6958  0.7572  0.6678
    7MOL0     H  952   5.407   7.651   4.044  2.2895 -0.9686 -2.6960
    7MOL0     H  953   5.629   7.538   4.046  0.3349 -0.6251 -1.6924
    7MOL0     H  954   5.679   7.123   4.235  0.3807 -2.5591  0.1204
    7MOL0     H  955   5.593   7.110   4.076 -1.4014  2.3043  0.4068
    7MOL0     H  956   5.816   7.000   4.072  0.1627  1.1457  2.5974
    7MOL0     H  957   5.882   7.145   4.138 -0.7741  0.1588  1.7706
    7MOL0     H  958   5.748   7.113   3.863  1.7967 -2.6596 -2.0354
    7MOL0     H  959   5.815   7.278   3.925  1.8583 -0.1250  0.6300
    7MOL0     H  960   5.976   7.128   3.771 -0.1879 -1.8448 -1.0070
    7MOL0     H  961   5.994   7.043   3.934  1.4307  1.6340  2.9847
    7MOL0     H  962   6.183   7.414   4.001  0.2150 -0.6424  2.0188
    7MOL0     H  963   5.446   7.206   4.227 -2.2196  1.2837  1.9274
    7MOL0     H  964   5.213   7.177   4.270 -0.2169  0.1394  1.4775
    7MOL0     H  965   5.136   7.327   4.316  0.2638  0.6582 -0.5713
    7MOL0     H  966   5.115   7.257   4.149 -0.5786 -0.3497  1.3995
    8MOL0     O  967   2.132   9.926   1.372 -0.1198  0.2770  0.5226
    8MOL0     C  968   2.116   9.798   1.361 -0.7711 -1.3614  0.2883
    8MOL0     O  969   2.028   9.737   1.269  0.5074  0.3846  0.3039
    8MOL0     C  970   1.935   9.819   1.203  0.8665 -0.6175  0.1109
    8MOL0     C  971   1.857   9.929   1.254 -0.1813  0.0435 -1.3785
    8MOL0     C  972   1.775  10.003   1.171 -0.1626 -0.4046 -0.2912
    8MOL0     C  973   1.754   9.970   1.040  0.5211 -0.7460 -0.6016
    8MOL0     O  974   1.660  10.064   0.980  0.1222 -0.0928  0.3393
    8MOL0     C  975   1.630  10.038   0.836 -0.5425  0.4366  0.3298
    8MOL0     C  976   1.732  10.074   0.731  0.2131  0.0946  0.1884
    8MOL0     C  977   1.692   9.993   0.602 -0.2121 -0.7675 -1.1583
    8MOL0     C  978   1.824   9.947   0.534 -0.4070 -0.7374 -0.2035
    8MOL0     C  979   1.782   9.892   0.399  1.0747  0.5455  0.6920
    8MOL0     C  980   1.892   9.810   0.325  1.0375  0.0032 -0.0954
    8MOL0     C  981   1.842   9.723   0.207  0.8403  0.5748 -0.5881
    8MOL0     C  982   1.955   9.638   0.149  0.6050 -0.1816 -1.1109
    8MOL0     N  983   1.971   9.520   0.232 -0.1936 -0.6839 -0.1408
    8MOL0     C  984   1.885   9.419   0.221  0.9712  0.1572 -0.4369
    8MOL0     C  985   1.935   9.323   0.302 -0.0074 -0.9567  0.1936
    8MOL0     C  986   1.861   9.193   0.346 -0.7538 -1.0373 -0.3866
    8MOL0     C  987   1.836   9.106   0.218 -0.1414  1.2553 -0.1995
    8MOL0     C  988   1.924   8.978   0.215  0.7070 -0.4709 -0.3271
    8MOL0     C  989   2.061   9.010   0.156  0.8856  0.1505 -0.2113
    8MOL0     O  990   2.057   9.045   0.016 -0.2385  0.4565  0.1563
    8MOL0     C  991   2.170   8.999  -0.057 -0.0165  0.5641 -1.2889
    8MOL0     C  992   2.148   8.981  -0.192 -0.2165 -0.6899 -0.4318
    8MOL0     C  993   2.252   8.940  -0.274 -0.0433  0.2626 -1.0951
    8MOL0     C  994   2.218   8.902  -0.414 -0.1644  0.0171  0.2305
    8MOL0     C  995   2.385   8.907  -0.223  0.7500 -0.4786  0.9899
    8MOL0     C  996   2.502   8.858  -0.304  0.1120  0.6669 -0.5748
    8MOL0     O  997   2.594   8.792  -0.232  0.3064  0.4070 -0.0881
    8MOL0     C  998   2.719   8.805  -0.283 -0.6105  0.1274 -0.3761
    8MOL0     C  999   2.805   8.916  -0.249 -0.3264 -0.5719  0.5336
    8MOL0     C 1000   2.925   8.938  -0.316  0.2658 -0.2152 -0.7135
    8MOL0     C 1001   2.968   8.851  -0.415  0.4250  0.3670  0.7070
    8MOL0     O 1002   3.080   8.882  -0.494 -0.1277 -0.0041 -0.0694
    8MOL0     C 1003   3.203   8.922  -0.423 -0.0852 -0.0541  0.9173
    8MOL0     C 1004   3.261   9.055  -0.483 -0.0252 -0.3126  0.1662
    8MOL0     C 1005   3.334   9.023  -0.617  0.2477  1.2611  0.3145
    8MOL0     C 1006   3.385   9.155  -0.683  0.4637  0.2397 -0.7727
    8MOL0     C 1007   3.439   9.140  -0.830  0.4167 -0.0856 -1.1235
    8MOL0     C 1008   3.558   9.049  -0.824 -0.6085  1.1023  0.4543
    8MOL0     C 1009   3.577   9.000  -0.970  0.3378  0.0248 -0.7060
    8MOL0     C 1010   3.642   9.099  -1.073 -0.0594  1.3379 -0.1507
    8MOL0    Cl 1011   3.821   9.095  -1.041  0.1452  0.2772  0.1351
    8MOL0     C 1012   2.886   8.738  -0.446  1.0985  0.1708 -0.4448
    8MOL0     C 1013   2.766   8.714  -0.382  0.6552  0.4536 -0.9001
    8MOL0     O 1014   2.511   8.876  -0.426 -0.3977 -0.3782  0.7023
    8MOL0     C 1015   2.406   8.934  -0.090  0.0360 -0.1336 -0.8532
    8MOL0     C 1016   2.302   8.979  -0.005 -0.8534  0.8912  0.2312
    8MOL0     N 1017   2.051   9.370   0.355  0.7447  0.1036  0.4553
    8MOL0     N 1018   2.076   9.490   0.315  0.1556  0.7985  0.4475
    8MOL0     C 1019   1.814   9.856   0.991 -0.0321 -0.4631 -0.2973
    8MOL0     C 1020   1.902   9.791   1.074  0.3006 -0.2069  0.3929
    8MOL0     C 1021   2.216   9.715   1.429  0.2231 -0.3491  0.2811
    8MOL0     C 1022   2.298   9.628   1.351 -0.0726 -0.8734 -0.5218
    8MOL0     C 1023   2.405   9.563   1.408  0.3107 -0.5701  0.7781
    8MOL0     C 1024   2.431   9.577   1.542 -0.5182 -0.9698 -0.6231
    8MOL0     O 1025   2.546   9.542   1.605  0.1602 -0.2938  0.1043
    8MOL0     C 1026   2.649   9.454   1.552  0.8146 -0.2260 -0.0575
    8MOL0     C 1027   2.746   9.526   1.467 -0.1675 -0.9157 -0.2246
    8MOL0     C 1028   2.807   9.644   1.544 -0.4976 -0.7715 -0.3899
    8MOL0     C 1029   2.855   9.757   1.456  0.0491 -0.3228 -0.0621
    8MOL0     C 1030   2.734   9.827   1.422  0.7187 -0.4158 -0.0614
    8MOL0     C 1031   2.632   9.879   1.392 -0.7949 -0.6173 -0.4666
    8MOL0     C 1032   2.349   9.659   1.622  0.0191 -0.4416 -0.3774
    8MOL0     C 1033   2.248   9.736   1.563 -0.4998  0.2367 -0.5244
    8MOL0     C 1034   2.163   9.836   1.648  1.1978 -0.0156 -1.0974
    8MOL0     H 1035   1.888   9.953   1.355  0.0591 -1.7271 -0.9994
    8MOL0     H 1036   1.723  10.084   1.220 -0.5663 -2.0638  2.2392
    8MOL0     H 1037   1.534  10.083   0.808  0.1266  1.2425 -0.7739
    8MOL0     H 1038   1.613   9.930   0.830 -1.3741  0.4150  2.4003
    8MOL0     H 1039   1.697  10.177   0.714 -1.4817 -0.8770 -2.9169
    8MOL0     H 1040   1.837  10.058   0.758  0.2294 -4.4128 -1.6551
    8MOL0     H 1041   1.634   9.902   0.622 -4.1445  1.8426  0.5755
    8MOL0     H 1042   1.635  10.064   0.541 -1.0383  1.3593  1.8791
    8MOL0     H 1043   1.892  10.027   0.505 -0.8451 -0.6741 -1.0708
    8MOL0     H 1044   1.888   9.884   0.596  4.2122  0.6768 -3.0583
    8MOL0     H 1045   1.753   9.973   0.331 -0.4737 -0.1202  0.5088
    8MOL0     H 1046   1.698   9.826   0.423 -0.1629  2.1909  1.0640
    8MOL0     H 1047   1.972   9.877   0.292  1.3001 -1.4540 -2.7036
    8MOL0     H 1048   1.937   9.746   0.402  0.1183 -2.9698 -1.8707
    8MOL0     H 1049   1.795   9.794   0.139  0.3565  1.4075  0.5683
    8MOL0     H 1050   1.759   9.659   0.240 -1.0072 -0.0402 -5.5871
    8MOL0     H 1051   1.935   9.609   0.046  1.8037 -0.1014 -1.3796
    8MOL0     H 1052   2.045   9.699   0.159 -0.6393  1.6227 -0.3390
    8MOL0     H 1053   1.788   9.423   0.172  0.4448 -1.4927  0.3994
    8MOL0     H 1054   1.771   9.227   0.397  0.4203  1.8782 -0.0943
    8MOL0     H 1055   1.919   9.141   0.422  1.1130  3.8871  1.9732
    8MOL0     H 1056   1.731   9.076   0.222  0.6055 -2.4637 -2.7638
    8MOL0     H 1057   1.849   9.170   0.130 -0.1496  0.7257 -0.5914
    8MOL0     H 1058   1.951   8.939   0.314 -0.3973 -0.3661  0.0235
    8MOL0     H 1059   1.871   8.903   0.155  0.5357  0.3042 -1.1591
    8MOL0     H 1060   2.099   9.093   0.217  0.1156  1.0204 -0.8935
    8MOL0     H 1061   2.131   8.927   0.171  2.8235  1.2337 -2.4719
    8MOL0     H 1062   2.048   9.005  -0.225 -0.7671  0.3018  1.7931
    8MOL0     H 1063   2.112   8.898  -0.441 -0.3940 -1.2323  1.2480
    8MOL0     H 1064   2.256   8.801  -0.432  1.6525  0.6040  0.5290
    8MOL0     H 1065   2.264   8.965  -0.491  1.9851 -1.7279 -0.0172
    8MOL0     H 1066   2.766   8.996  -0.188 -0.0505 -0.5762  0.7194
    8MOL0     H 1067   2.977   9.029  -0.287 -2.9008  0.9627  1.8905
    8MOL0     H 1068   3.174   8.944  -0.320 -2.6215 -2.4338  0.8164
    8MOL0     H 1069   3.276   8.840  -0.423 -0.1831 -0.1464  1.6760
    8MOL0     H 1070   3.169   9.113  -0.494 -1.4542 -1.9041  2.6112
    8MOL0     H 1071   3.339   9.095  -0.417  1.4261 -3.1876  0.3203
    8MOL0     H 1072   3.276   8.965  -0.690  0.6628 -0.9977  1.6802
    8MOL0     H 1073   3.423   8.963  -0.597  2.2478  2.6438 -3.4540
    8MOL0     H 1074   3.469   9.199  -0.628  0.3775 -0.3341 -0.1655
    8MOL0     H 1075   3.308   9.232  -0.682  0.9067  0.7508  1.9793
    8MOL0     H 1076   3.358   9.113  -0.899  0.7450 -0.1671 -1.4792
    8MOL0     H 1077   3.464   9.239  -0.870 -4.6746  1.8982 -0.2007
    8MOL0     H 1078   3.530   8.962  -0.764 -3.2885  1.1194 -0.6666
    8MOL0     H 1079   3.655   9.090  -0.792  1.3717 -2.6489 -0.0636
    8MOL0     H 1080   3.479   8.972  -1.008  0.0153  0.9474 -0.5886
    8MOL0     H 1081   3.636   8.909  -0.956  1.8584  1.0045 -0.4198
    8MOL0     H 1082   3.617   9.204  -1.054  1.0915  1.9495 -1.7720
    8MOL0     H 1083   3.620   9.064  -1.174  1.6290  0.5793 -0.2983
    8MOL0     H 1084   2.915   8.668  -0.523  3.0770 -0.0337  0.4219
    8MOL0     H 1085   2.709   8.625  -0.403  2.5977 -1.6858  2.0490
    8MOL0     H 1086   2.502   8.917  -0.044 -0.5823 -0.1660  0.4579
    8MOL0     H 1087   2.306   9.010   0.099 -1.6381  1.2014  0.1829
    8MOL0     H 1088   1.816   9.820   0.888  0.2521 -3.7374  0.7632
    8MOL0     H 1089   1.961   9.718   1.020 -0.6853 -0.6997 -0.0449
    8MOL0     H 1090   2.272   9.606   1.248  0.8055 -1.8907 -0.5355
    8MOL0     H 1091   2.468   9.491   1.357 -0.2276 -0.6289  0.1760
    8MOL0     H 1092   2.708   9.407   1.631  1.1439  3.6252  2.2621
    8MOL0     H 1093   2.596   9.384   1.487 -0.6612  2.2042 -1.6436
    8MOL0     H 1094   2.689   9.558   1.379  2.3825  0.2212 -1.5913
    8MOL0     H 1095   2.821   9.454   1.434  1.7899  0.4121  1.0802
    8MOL0     H 1096   2.739   9.670   1.626  0.6815 -1.5715  0.8931
    8MOL0     H 1097   2.901   9.610   1.589  0.1343  3.1710  1.7159
    8MOL0     H 1098   2.914   9.721   1.371  0.5932 -2.5040  1.1358
    8MOL0     H 1099   2.928   9.817   1.511  2.6423 -4.9170  2.1628
    8MOL0     H 1100   2.532   9.912   1.369 -1.0341 -0.0143  1.2597
    8MOL0     H 1101   2.373   9.672   1.727 -0.5072 -0.9681 -0.1827
    8MOL0     H 1102   2.064   9.858   1.607  0.8030  0.7197  0.2139
    8MOL0     H 1103   2.146   9.802   1.751 -2.0610  1.1474 -1.1507
    8MOL0     H 1104   2.217   9.931   1.648 -1.2799  1.6146  2.5274
    9MOL0     O 1105   0.403   8.217  10.044  0.5731  0.5648  0.6114
    9MOL0     C 1106   0.349   8.288   9.958 -0.0855  0.4195  0.2699
    9MOL0     O 1107   0.376   8.272   9.830  0.4110 -0.0971  0.0480
    9MOL0     C 1108   0.435   8.152   9.804  0.6871  1.0936  1.2795
    9MOL0     C 1109   0.567   8.141   9.761 -0.1800  0.8782  0.9658
    9MOL0     C 1110   0.627   8.015   9.749  0.3525  0.1385  0.8584
    9MOL0     C 1111   0.547   7.896   9.750 -0.0719  0.6410  0.0390
    9MOL0     O 1112   0.597   7.765   9.729  0.8655 -0.3757 -0.1211
    9MOL0     C 1113   0.733   7.753   9.725 -0.6466  0.1660  0.4191
    9MOL0     C 1114   0.775   7.607   9.708  0.5555  0.1528  0.0029
    9MOL0     C 1115   0.717   7.530   9.826 -0.0352  0.4446 -0.3712
    9MOL0     C 1116   0.781   7.391   9.838 -0.2664  0.8803 -0.5648
    9MOL0     C 1117   0.704   7.297   9.946  0.3880 -0.5721 -0.2288
    9MOL0     C 1118   0.572   7.232   9.899  0.1835 -0.0073 -1.1021
    9MOL0     C 1119   0.550   7.105   9.992 -0.8892  1.0222  0.1063
    9MOL0     C 1120   0.415   7.028   9.965  0.1284 -1.2215 -0.2816
    9MOL0     N 1121   0.404   6.918  10.054  0.6870  0.1755  0.0346
    9MOL0     C 1122   0.429   6.917  10.190 -0.4765  0.1718 -0.2287
    9MOL0     C 1123   0.387   6.787  10.213 -0.0769 -0.8638  0.0841
    9MOL0     C 1124   0.390   6.744  10.351  0.1502  0.5283 -0.5703
    9MOL0     C 1125   0.482   6.617  10.365 -1.0889 -0.0145  0.7213
    9MOL0     C 1126   0.498   6.570  10.509  0.2121 -0.0707  0.0400
    9MOL0     C 1127   0.379   6.496  10.571  0.3143  0.0329 -0.4126
    9MOL0     O 1128   0.270   6.588  10.586 -0.5959  0.5444 -0.4078
    9MOL0     C 1129   0.253   6.663  10.699 -1.0867 -0.6303  0.5858
    9MOL0     C 1130   0.322   6.658  10.817 -0.8758 -0.1688 -0.7243
    9MOL0     C 1131   0.308   6.757  10.918 -0.4841  0.1671 -0.8020
    9MOL0     C 1132   0.405   6.756  11.036 -0.1506  0.2479  0.6573
    9MOL0     C 1133   0.199   6.850  10.907  0.7774 -0.1927 -0.5769
    9MOL0     C 1134   0.161   6.949  11.014  0.1655  0.4508  0.1344
    9MOL0     O 1135   0.266   6.999  11.094  0.7921  0.0772 -0.1992
    9MOL0     C 1136   0.245   7.076  11.210 -0.3122  0.7751 -0.0535
    9MOL0     C 1137   0.371   7.121  11.259  0.7716 -0.2519  2.0274
    9MOL0     C 1138   0.375   7.188  11.377 -0.1272  1.3981 -0.6187
    9MOL0     C 1139   0.261   7.220  11.449 -1.4282 -0.3289  1.2397
    9MOL0     O 1140   0.279   7.313  11.551 -0.0625 -0.5383 -0.1538
    9MOL0     C 1141   0.219   7.283  11.675 -0.7182  0.4332 -0.9273
    9MOL0     C 1142   0.320   7.323  11.790  0.1328  1.1701  0.0346
    9MOL0     C 1143   0.296   7.459  11.859  0.1183  0.4424 -1.0195
    9MOL0     C 1144   0.375   7.571  11.797  0.6727 -0.1064 -0.5605
    9MOL0     C 1145   0.330   7.707  11.863  0.1666 -0.2922  0.5281
    9MOL0     C 1146   0.320   7.711  12.013  0.2649 -0.2025 -0.6256
    9MOL0     C 1147   0.291   7.851  12.066 -0.2748 -0.1292 -0.0550
    9MOL0     C 1148   0.149   7.887  12.027 -0.2373  0.3627 -0.9571
    9MOL0    Cl 1149   0.083   8.017  12.126 -0.0214 -0.1609 -0.1039
    9MOL0     C 1150   0.142   7.168  11.409  0.6483  0.1981  0.4934
    9MOL0     C 1151   0.126   7.096  11.288 -1.0655 -0.7023  0.8496
    9MOL0     O 1152   0.048   6.994  11.011 -0.3404  0.1663 -0.2150
    9MOL0     C 1153   0.123   6.845  10.787  0.6808 -0.0829 -0.3980
    9MOL0     C 1154   0.162   6.765  10.678 -0.0542 -0.1308 -0.4566
    9MOL0     N 1155   0.332   6.727  10.096  0.0940  0.0729  0.0125
    9MOL0     N 1156   0.355   6.808   9.999 -0.3258  0.2160  0.6896
    9MOL0     C 1157   0.411   7.915   9.773 -0.9722  0.4262  0.2788
    9MOL0     C 1158   0.353   8.034   9.815 -0.2529 -0.4869  0.4726
    9MOL0     C 1159   0.285   8.418  10.008 -0.0921  1.3906 -0.6423
    9MOL0     C 1160   0.349   8.495  10.112  1.2959  0.3164  1.2703
    9MOL0     C 1161   0.277   8.607  10.165 -0.5296  0.4811 -0.3152
    9MOL0     C 1162   0.169   8.657  10.103 -0.1956 -0.9134 -0.5611
    9MOL0     O 1163   0.130   8.779  10.160  1.0147 -0.2933  0.4810
    9MOL0     C 1164   0.074   8.891  10.080 -0.2417  0.1940 -0.1176
    9MOL0     C 1165   0.185   8.998  10.087 -0.6494 -0.0122  0.2062
    9MOL0     C 1166   0.181   9.068  10.223  0.5043  0.6035 -0.2211
    9MOL0     C 1167   0.310   9.131  10.256  0.5144 -0.6196  0.9292
    9MOL0     C 1168   0.361   9.224  10.151  0.1288 -0.3245  0.1235
    9MOL0     C 1169   0.397   9.304  10.066 -0.6948  0.6727  0.7511
    9MOL0     C 1170   0.112   8.585   9.997  0.1218 -0.0776  0.4155
    9MOL0     C 1171   0.165   8.473   9.944  0.2682 -0.0591  0.1783
    9MOL0     C 1172   0.091   8.419   9.826 -0.0557  0.0092 -0.1993
    9MOL0     H 1173   0.624   8.232   9.744 -0.0355  0.5835 -0.2429
    9MOL0     H 1174   0.735   8.002   9.752  0.2092 -1.3070  0.6954
    9MOL0     H 1175   0.773   7.798   9.816 -4.1617  2.8381  0.8807
    9MOL0     H 1176   0.766   7.792   9.628  1.5649 -0.4054  0.8907
    9MOL0     H 1177   0.749   7.574   9.607 -0.7181  3.1003 -0.7315
    9MOL0     H 1178   0.884   7.599   9.703  0.5286  0.1984 -0.7963
    9MOL0     H 1179   0.728   7.584   9.920 -1.4658 -3.0456  2.0006
    9MOL0     H 1180   0.611   7.509   9.811  0.4904 -1.0143 -2.6143
    9MOL0     H 1181   0.777   7.344   9.739 -1.1641  0.1246 -0.1860
    9MOL0     H 1182   0.888   7.406   9.854 -0.2576 -0.0329  0.3797
    9MOL0     H 1183   0.684   7.349  10.041  0.9035  2.0798 -1.4631
    9MOL0     H 1184   0.774   7.218   9.973  0.6382 -0.8692 -1.6843
    9MOL0     H 1185   0.487   7.301   9.901  1.6598  1.8994 -0.1255
    9MOL0     H 1186   0.582   7.208   9.793  2.0744  0.4124 -1.0487
    9MOL0     H 1187   0.554   7.143  10.094  1.7551  1.1225  0.0169
    9MOL0     H 1188   0.635   7.038   9.972 -0.9064  1.8207 -3.3333
    9MOL0     H 1189   0.333   7.098   9.984  0.5035 -1.0542  0.8011
    9MOL0     H 1190   0.402   6.997   9.861  2.0242 -0.0258 -0.9355
    9MOL0     H 1191   0.476   6.988  10.256 -0.7939  2.3915 -2.2382
    9MOL0     H 1192   0.290   6.708  10.378  1.3640 -0.8174  2.6041
    9MOL0     H 1193   0.421   6.827  10.416 -0.4967 -0.3234  0.8895
    9MOL0     H 1194   0.454   6.536  10.296 -0.8972 -0.6761  1.4032
    9MOL0     H 1195   0.580   6.647  10.326 -0.7520 -2.2093 -0.2656
    9MOL0     H 1196   0.586   6.506  10.517  0.5577  0.5375  1.4744
    9MOL0     H 1197   0.516   6.658  10.571  0.2493 -0.0272 -0.0329
    9MOL0     H 1198   0.357   6.414  10.502 -0.9317  0.2286 -0.2828
    9MOL0     H 1199   0.413   6.451  10.664  4.9469  3.1016 -0.2953
    9MOL0     H 1200   0.395   6.580  10.833 -1.8589 -1.1291 -0.8121
    9MOL0     H 1201   0.477   6.837  11.030 -0.6846  1.0603  3.7198
    9MOL0     H 1202   0.463   6.663  11.027 -0.8374 -0.0828 -0.6984
    9MOL0     H 1203   0.354   6.736  11.131 -0.8424 -4.0683 -0.4113
    9MOL0     H 1204   0.459   7.096  11.201 -0.5716  0.8708 -0.6417
    9MOL0     H 1205   0.471   7.227  11.412 -0.2013  0.4111  0.8040
    9MOL0     H 1206   0.134   7.352  11.682 -0.9310  0.3015 -1.9958
    9MOL0     H 1207   0.187   7.179  11.682  0.5026  0.1490  1.8466
    9MOL0     H 1208   0.303   7.248  11.868  0.8820 -1.2036 -1.9543
    9MOL0     H 1209   0.423   7.316  11.754  0.5232  2.6729  0.7858
    9MOL0     H 1210   0.333   7.449  11.962  1.0690 -0.1905 -1.4111
    9MOL0     H 1211   0.191   7.490  11.863  0.1425  0.4202  0.5673
    9MOL0     H 1212   0.361   7.572  11.688  3.5856 -0.0353 -0.9952
    9MOL0     H 1213   0.481   7.553  11.814  0.3755 -1.4712 -0.0615
    9MOL0     H 1214   0.405   7.780  11.832 -2.3789  1.2448 -2.6515
    9MOL0     H 1215   0.234   7.733  11.817  1.1434  1.7688 -0.4990
    9MOL0     H 1216   0.416   7.684  12.058  0.4571  0.5231 -0.5772
    9MOL0     H 1217   0.240   7.643  12.044 -0.1821  0.5143 -0.1695
    9MOL0     H 1218   0.347   7.939  12.033 -1.5851  1.1053  0.8557
    9MOL0     H 1219   0.298   7.839  12.174 -0.0772  1.0256  0.0797
    9MOL0     H 1220   0.092   7.794  12.022  1.0770 -0.6809  1.6089
    9MOL0     H 1221   0.152   7.937  11.930 -0.1798  0.5348 -0.8678
    9MOL0     H 1222   0.056   7.172  11.475  0.6729 -2.4429  0.7746
    9MOL0     H 1223   0.032   7.056  11.251 -0.1150 -2.1652 -0.1027
    9MOL0     H 1224   0.033   6.905  10.780 -0.3747 -0.9072  3.4646
    9MOL0     H 1225   0.109   6.753  10.583 -1.3626 -0.6618  0.3153
    9MOL0     H 1226   0.352   7.825   9.765 -2.3499  1.4208 -1.5113
    9MOL0     H 1227   0.254   8.040   9.858 -0.5147 -0.0861 -0.1745
    9MOL0     H 1228   0.442   8.461  10.157  2.3025 -4.4306 -3.3307
    9MOL0     H 1229   0.322   8.655  10.251  0.8880  1.9688 -1.8062
    9MOL0     H 1230   0.066   8.868   9.974 -0.3421 -0.2058 -0.0246
    9MOL0     H 1231  -0.022   8.931  10.115 -2.1282 -2.3562 -2.0505
    9MOL0     H 1232   0.172   9.068  10.004 -2.5974 -0.6923 -0.1310
    9MOL0     H 1233   0.278   8.948  10.058 -0.2501  1.4129 -1.0628
    9MOL0     H 1234   0.100   9.141  10.226 -0.3390 -0.2445 -1.3224
    9MOL0     H 1235   0.150   8.999  10.301 -1.1579  0.5341 -0.9062
    9MOL0     H 1236   0.391   9.059  10.270 -0.4638 -2.1147 -0.7438
    9MOL0     H 1237   0.292   9.186  10.348 -1.9806 -0.9894  0.7127
    9MOL0     H 1238   0.448   9.369   9.998 -1.9933 -2.3843 -3.5666
    9MOL0     H 1239   0.010   8.609   9.969 -0.8635 -4.4546 -0.4274
    9MOL0     H 1240  -0.015   8.412   9.850 -0.0270 -2.0373 -0.5252
    9MOL0     H 1241   0.119   8.480   9.740 -0.8466 -0.9874 -1.1835
    9MOL0     H 1242   0.118   8.316   9.800 -1.7748 -1.4758  3.2382
   10MOL0     O 1243   4.948   7.335   6.122 -0.3320  0.2420 -0.2678
   10MOL0     C 1244   4.936   7.212   6.107 -0.0526  0.1701  0.2218
   10MOL0     O 1245   5.037   7.127   6.074 -0.0773  0.1072 -0.9723
   10MOL0     C 1246   5.168   7.171   6.072  0.1843 -0.3469 -0.3204
   10MOL0     C 1247   5.244   7.202   5.959 -0.5264  0.9705  0.1874
   10MOL0     C 1248   5.372   7.242   5.972 -0.6149 -0.5414 -0.1547
   10MOL0     C 1249   5.427   7.241   6.104 -0.4747 -0.1827 -0.2473
   10MOL0     O 1250   5.566   7.275   6.105 -0.0069  0.7281 -0.4453
   10MOL0     C 1251   5.638   7.266   6.227  0.0017 -0.1404  0.1899
   10MOL0     C 1252   5.789   7.260   6.188  0.3449  0.0701 -0.2024
   10MOL0     C 1253   5.842   7.130   6.134 -1.0302  0.0936 -0.3656
   10MOL0     C 1254   5.863   7.045   6.266  0.7935  0.1827 -0.0314
   10MOL0     C 1255   5.934   6.914   6.233 -0.5619  0.0827 -0.2523
   10MOL0     C 1256   6.077   6.923   6.180 -1.0984 -0.8525  0.5578
   10MOL0     C 1257   6.164   7.021   6.260 -0.5374  0.3527  0.2837
   10MOL0     C 1258   6.301   7.063   6.199 -0.6121 -1.2899 -0.3999
   10MOL0     N 1259   6.290   7.177   6.111  0.4766  0.1720  0.2470
   10MOL0     C 1260   6.346   7.298   6.121 -0.1482  0.3330 -0.7676
   10MOL0     C 1261   6.268   7.389   6.046 -0.5488  1.1349  0.4999
   10MOL0     C 1262   6.323   7.532   6.050  0.0265 -0.6946 -1.1204
   10MOL0     C 1263   6.252   7.619   6.164  0.2362 -0.1565  0.6034
   10MOL0     C 1264   6.104   7.617   6.149  0.1887 -0.1780  0.0658
   10MOL0     C 1265   6.035   7.685   6.274 -0.0108 -0.1528 -0.0118
   10MOL0     O 1266   6.069   7.827   6.296  0.0452  0.6532 -0.4361
   10MOL0     C 1267   6.067   7.911   6.186  0.0960 -0.6848 -0.9114
   10MOL0     C 1268   5.965   7.900   6.086 -0.6271  0.1360  0.5242
   10MOL0     C 1269   5.960   7.984   5.973  1.3616 -0.0952  0.7547
   10MOL0     C 1270   5.830   7.969   5.892  0.1757 -0.1826  0.5167
   10MOL0     C 1271   6.070   8.073   5.948 -0.3459 -0.2970 -0.5449
   10MOL0     C 1272   6.061   8.145   5.827 -1.3051 -0.3733 -0.7306
   10MOL0     O 1273   5.980   8.258   5.820 -0.2301 -0.1534  0.0914
   10MOL0     C 1274   5.980   8.324   5.699 -0.0672 -0.3999 -0.7478
   10MOL0     C 1275   6.092   8.357   5.619 -0.0657  1.0273 -0.4361
   10MOL0     C 1276   6.072   8.417   5.494 -0.0566 -0.6455  0.0377
   10MOL0     C 1277   5.947   8.468   5.451  0.4574  1.4087 -0.6171
   10MOL0     O 1278   5.953   8.544   5.336 -0.2510 -0.1764 -0.4552
   10MOL0     C 1279   5.972   8.682   5.379  0.0697  0.6060  0.1808
   10MOL0     C 1280   5.903   8.785   5.290 -0.4415  0.2583  0.3818
   10MOL0     C 1281   5.878   8.914   5.360 -0.3601  0.3573 -1.7051
   10MOL0     C 1282   5.755   8.908   5.450 -0.7280 -0.3534  0.0321
   10MOL0     C 1283   5.769   9.033   5.530 -0.1287  0.4700 -0.1601
   10MOL0     C 1284   5.658   9.051   5.645  0.1003  0.2897 -0.3324
   10MOL0     C 1285   5.521   9.105   5.603 -0.0076 -0.3943 -0.1015
   10MOL0     C 1286   5.424   9.135   5.712 -0.4155  0.4821  0.8250
   10MOL0    Cl 1287   5.487   9.271   5.808 -0.1934  0.0829 -0.1612
   10MOL0     C 1288   5.841   8.440   5.533 -1.1497 -0.5451  0.0751
   10MOL0     C 1289   5.855   8.375   5.662 -0.0189  0.5898 -0.3358
   10MOL0     O 1290   6.126   8.094   5.733 -0.4094  0.0392  0.5144
   10MOL0     C 1291   6.176   8.077   6.043 -0.0978  0.1703  0.4980
   10MOL0     C 1292   6.170   8.005   6.163  0.8090  0.3390 -0.5293
   10MOL0     N 1293   6.178   7.308   5.984 -0.6844 -0.2963  0.0578
   10MOL0     N 1294   6.195   7.184   6.011  0.6546  0.0042  0.8569
   10MOL0     C 1295   5.349   7.223   6.221 -0.8876  0.5483  0.9119
   10MOL0     C 1296   5.221   7.188   6.202 -0.0352  0.0136 -0.1966
   10MOL0     C 1297   4.809   7.154   6.143  0.1208  1.6254  0.8698
   10MOL0     C 1298   4.809   7.011   6.175  0.2807  0.5022 -0.2246
   10MOL0     C 1299   4.692   6.950   6.221 -0.4550 -0.0791 -0.0780
   10MOL0     C 1300   4.581   7.022   6.251  0.0219  0.0931  0.1532
   10MOL0     O 1301   4.463   6.969   6.307 -0.6637  0.0905 -0.5189
   10MOL0     C 1302   4.460   6.831   6.347  0.4928  0.3547 -0.2961
   10MOL0     C 1303   4.365   6.810   6.476  0.2485  0.4850 -0.4825
   10MOL0     C 1304   4.310   6.668   6.487 -0.5771  0.2386 -0.1079
   10MOL0     C 1305   4.236   6.657   6.621 -0.7948  0.2004  0.2284
   10MOL0     C 1306   4.311   6.680   6.744 -0.1983 -0.2444 -0.7433
   10MOL0     C 1307   4.370   6.685   6.857 -0.3351  0.1170 -0.1373
   10MOL0     C 1308   4.576   7.156   6.201 -0.1064  0.9718 -0.3687
   10MOL0     C 1309   4.691   7.230   6.160 -1.0459 -0.2942  0.0246
   10MOL0     C 1310   4.674   7.373   6.121  0.2215 -0.7356 -0.0552
   10MOL0     H 1311   5.184   7.188   5.869  0.6381  0.6456 -0.5581
   10MOL0     H 1312   5.444   7.257   5.892  0.8231 -2.2172  0.7502
   10MOL0     H 1313   5.602   7.170   6.267  1.7706 -2.6262 -3.5358
   10MOL0     H 1314   5.616   7.344   6.300  0.1147 -0.5778  0.7058
   10MOL0     H 1315   5.792   7.339   6.112  0.2043 -0.6760 -1.0059
   10MOL0     H 1316   5.849   7.291   6.274  2.0418 -0.2288 -1.2293
   10MOL0     H 1317   5.774   7.094   6.056 -0.5687 -2.3990  0.2873
   10MOL0     H 1318   5.939   7.146   6.086 -0.6638  1.0266  0.6483
   10MOL0     H 1319   5.905   7.094   6.354 -1.2016  1.6792  0.1533
   10MOL0     H 1320   5.764   7.018   6.303  0.2699 -0.2443 -1.6535
   10MOL0     H 1321   5.873   6.872   6.153 -2.1728  2.5412 -0.4192
   10MOL0     H 1322   5.935   6.845   6.318  0.7233  0.1534 -0.1911
   10MOL0     H 1323   6.124   6.826   6.196  1.3005  0.2540  0.6820
   10MOL0     H 1324   6.080   6.950   6.074 -1.8521 -1.3516  0.4119
   10MOL0     H 1325   6.190   6.973   6.355 -1.1789  0.7345  0.6594
   10MOL0     H 1326   6.113   7.110   6.296  1.9244  1.0257  2.4273
   10MOL0     H 1327   6.380   7.067   6.274  1.9593 -3.7907 -2.7135
   10MOL0     H 1328   6.336   6.983   6.133  2.1441 -0.4112 -0.1024
   10MOL0     H 1329   6.436   7.320   6.178  0.4489  2.8812 -2.4807
   10MOL0     H 1330   6.285   7.574   5.956 -1.9230 -1.7059 -0.8452
   10MOL0     H 1331   6.431   7.542   6.064  0.4127 -0.6035 -3.6726
   10MOL0     H 1332   6.273   7.598   6.269 -1.0579 -2.4584  0.4756
   10MOL0     H 1333   6.278   7.723   6.145 -0.0882 -0.2224 -0.2432
   10MOL0     H 1334   6.086   7.664   6.052  0.3668 -0.8715 -0.3067
   10MOL0     H 1335   6.072   7.513   6.146  0.8365 -0.4337 -4.2408
   10MOL0     H 1336   5.927   7.669   6.271  0.0758 -0.6216 -2.5016
   10MOL0     H 1337   6.062   7.638   6.369 -2.4301 -1.3906  0.1539
   10MOL0     H 1338   5.885   7.829   6.105  1.0299 -2.4367 -1.3977
   10MOL0     H 1339   5.853   7.931   5.792 -0.5025  0.8499 -0.0542
   10MOL0     H 1340   5.781   8.066   5.876  2.1506  0.7128 -0.4857
   10MOL0     H 1341   5.759   7.906   5.946 -0.7546  0.8475  0.5404
   10MOL0     H 1342   6.189   8.323   5.653  0.0546  0.0609 -1.7124
   10MOL0     H 1343   6.158   8.424   5.428 -0.6982  0.3371 -0.7261
   10MOL0     H 1344   5.939   8.696   5.483  0.5865 -0.3279  0.4865
   10MOL0     H 1345   6.078   8.707   5.384  0.0100  0.9814 -0.3529
   10MOL0     H 1346   5.977   8.818   5.217  0.7202  1.9540  2.2313
   10MOL0     H 1347   5.814   8.744   5.241 -0.2747  0.2647  0.0740
   10MOL0     H 1348   5.866   8.991   5.284 -0.8206 -0.6701 -2.6934
   10MOL0     H 1349   5.969   8.942   5.415 -0.8148 -1.9912  0.4317
   10MOL0     H 1350   5.749   8.818   5.512 -0.1290 -0.8602 -0.6266
   10MOL0     H 1351   5.666   8.908   5.386  0.8707  1.0844 -2.3470
   10MOL0     H 1352   5.866   9.035   5.580 -0.1370  3.0766 -0.1367
   10MOL0     H 1353   5.763   9.121   5.466  0.9784  1.5054  1.0945
   10MOL0     H 1354   5.688   9.130   5.715  1.2409 -1.8285  1.7285
   10MOL0     H 1355   5.629   8.963   5.703 -2.1710 -2.5750 -5.1864
   10MOL0     H 1356   5.469   9.027   5.547  0.4229 -0.5935 -0.2290
   10MOL0     H 1357   5.532   9.195   5.541 -0.1607  0.4932  1.1278
   10MOL0     H 1358   5.412   9.048   5.777  2.5060  1.0518  2.3188
   10MOL0     H 1359   5.331   9.161   5.661  1.1419  3.5405 -0.7110
   10MOL0     H 1360   5.745   8.479   5.500 -0.6391 -1.5404 -2.9349
   10MOL0     H 1361   5.772   8.352   5.728  0.3971  3.5804  1.4193
   10MOL0     H 1362   6.272   8.126   6.032  3.1741 -5.1582  1.5516
   10MOL0     H 1363   6.249   8.024   6.236  1.1300  1.0747 -1.0537
   10MOL0     H 1364   5.390   7.224   6.322 -0.5959 -0.0974  0.8064
   10MOL0     H 1365   5.150   7.162   6.280 -1.0961 -3.0367 -2.0043
   10MOL0     H 1366   4.898   6.952   6.154 -0.8601 -1.6690  0.6953
   10MOL0     H 1367   4.696   6.845   6.248 -0.5405  0.2177  1.1582
   10MOL0     H 1368   4.433   6.774   6.258 -1.5888 -1.4347  1.3482
   10MOL0     H 1369   4.557   6.791   6.377 -0.3883 -0.9824  0.9127
   10MOL0     H 1370   4.284   6.883   6.474 -1.2728 -1.1655 -1.7261
   10MOL0     H 1371   4.430   6.831   6.562 -1.4778 -0.3270  1.1006
   10MOL0     H 1372   4.241   6.650   6.404  0.1611 -1.6520 -0.3727
   10MOL0     H 1373   4.398   6.603   6.473 -2.3423 -2.3389  0.0643
   10MOL0     H 1374   4.206   6.552   6.613  0.4871 -0.1377 -0.3586
   10MOL0     H 1375   4.139   6.706   6.630 -1.5817 -0.8536 -1.7323
   10MOL0     H 1376   4.438   6.694   6.939 -0.4695 -3.3549  0.5009
   10MOL0     H 1377   4.478   7.202   6.206 -0.0763  0.9407  0.8518
   10MOL0     H 1378   4.709   7.389   6.018 -2.4580 -0.3463 -0.9662
   10MOL0     H 1379   4.568   7.396   6.121  0.6364  1.7350  2.9210
   10MOL0     H 1380   4.730   7.434   6.192  1.4844 -2.7071  0.7441
   11MOL0     O 1381   9.654   6.739   0.062 -0.7573  0.0112  0.0311
   11MOL0     C 1382   9.694   6.632   0.013 -0.2230 -0.3653  0.8996
   11MOL0     O 1383   9.623   6.519   0.005  0.6058  0.2952  0.3394
   11MOL0     C 1384   9.491   6.514   0.036 -0.5212 -0.5441  0.3903
   11MOL0     C 1385   9.442   6.546   0.166 -0.0753  0.7955  0.3941
   11MOL0     C 1386   9.306   6.547   0.192 -0.2003  0.6674  0.3514
   11MOL0     C 1387   9.215   6.510   0.087  0.1165 -0.2531  0.5474
   11MOL0     O 1388   9.082   6.515   0.116 -0.2513  0.9137  0.5039
   11MOL0     C 1389   8.984   6.435   0.049  0.1043 -0.2561  1.6016
   11MOL0     C 1390   9.000   6.294   0.105  0.1878  1.0264  0.1619
   11MOL0     C 1391   8.893   6.193   0.061  0.3780 -0.4120  0.3330
   11MOL0     C 1392   8.924   6.057   0.140 -0.3311  0.1855  0.3230
   11MOL0     C 1393   8.796   5.965   0.115 -0.3011  0.6149  0.2454
   11MOL0     C 1394   8.660   6.018   0.170 -0.1556 -0.5029  0.3102
   11MOL0     C 1395   8.547   5.919   0.135 -0.1446  0.6549 -0.3264
   11MOL0     C 1396   8.408   5.963   0.184  0.6958 -0.2355  0.3551
   11MOL0     N 1397   8.301   5.875   0.126 -0.2114 -0.0307  0.4920
   11MOL0     C 1398   8.226   5.895   0.004 -0.1624  0.3934 -0.4889
   11MOL0     C 1399   8.117   5.806   0.004  0.5808 -0.0140  0.9541
   11MOL0     C 1400   7.984   5.810  -0.082  0.0249  0.2462 -0.6258
   11MOL0     C 1401   8.022   5.768  -0.225 -0.6910 -0.3305  0.1252
   11MOL0     C 1402   7.993   5.621  -0.245 -0.5929 -0.3065  0.5798
   11MOL0     C 1403   7.834   5.612  -0.240 -0.0472  0.7163  0.8336
   11MOL0     O 1404   7.789   5.502  -0.327  0.4340  0.3499 -0.6820
   11MOL0     C 1405   7.765   5.394  -0.247  0.1644 -0.1638 -0.3298
   11MOL0     C 1406   7.850   5.302  -0.232 -0.2824  0.1952  1.0438
   11MOL0     C 1407   7.829   5.186  -0.152  0.0821  0.1844 -0.4200
   11MOL0     C 1408   7.947   5.085  -0.112 -0.3120 -1.1549 -0.8170
   11MOL0     C 1409   7.704   5.180  -0.076  0.8143  0.0002  0.5220
   11MOL0     C 1410   7.663   5.065   0.009 -0.1899 -0.4140 -0.7675
   11MOL0     O 1411   7.586   5.101   0.118  0.9630  0.1753 -1.2326
   11MOL0     C 1412   7.486   5.019   0.167 -0.4099 -0.3946 -0.2738
   11MOL0     C 1413   7.450   4.887   0.119 -0.4116  0.2033  0.1433
   11MOL0     C 1414   7.357   4.808   0.189 -0.9403 -0.3601  0.0723
   11MOL0     C 1415   7.284   4.860   0.300 -0.1125 -0.7982  0.2881
   11MOL0     O 1416   7.205   4.776   0.375 -0.1999  0.5347  0.0110
   11MOL0     C 1417   7.275   4.689   0.464  0.4637 -1.0222 -0.7830
   11MOL0     C 1418   7.164   4.586   0.496 -0.5537  0.5189 -0.2286
   11MOL0     C 1419   7.195   4.501   0.612  0.3795  0.1373 -0.2297
   11MOL0     C 1420   7.101   4.393   0.644 -0.6440  0.6064 -0.7337
   11MOL0     C 1421   7.150   4.310   0.761  0.5758  0.7137  0.0660
   11MOL0     C 1422   7.220   4.180   0.699 -0.5603  0.0100  0.9684
   11MOL0     C 1423   7.282   4.088   0.800  0.1329 -0.1909 -0.7613
   11MOL0     C 1424   7.348   3.969   0.746 -0.3800  0.9754 -0.4560
   11MOL0    Cl 1425   7.513   4.011   0.694 -0.0674 -0.3815  0.3314
   11MOL0     C 1426   7.302   5.000   0.326  0.7100  0.4697 -0.3773
   11MOL0     C 1427   7.408   5.074   0.267 -0.3773 -0.7786  0.5078
   11MOL0     O 1428   7.707   4.951  -0.012 -0.2076 -0.7983  0.3931
   11MOL0     C 1429   7.613   5.283  -0.084  0.8979  0.7267  0.1066
   11MOL0     C 1430   7.641   5.386  -0.177 -0.6221  0.2687 -0.0133
   11MOL0     N 1431   8.143   5.725   0.112 -0.3560 -0.3292  0.3286
   11MOL0     N 1432   8.239   5.771   0.190 -0.5627 -0.4220  1.6136
   11MOL0     C 1433   9.269   6.468  -0.039  0.7344  0.2193 -0.1019
   11MOL0     C 1434   9.402   6.485  -0.061 -0.5881  0.0417 -1.1133
   11MOL0     C 1435   9.835   6.647  -0.040 -0.8146 -1.2601  0.1142
   11MOL0     C 1436   9.857   6.670  -0.175 -0.0736 -0.3412  0.4490
   11MOL0     C 1437   9.986   6.675  -0.224  0.2895  0.0450 -1.1181
   11MOL0     C 1438  10.094   6.692  -0.133 -0.1530  0.4463  0.4156
   11MOL0     O 1439  10.230   6.708  -0.156 -0.4274 -0.2077 -0.0076
   11MOL0     C 1440  10.283   6.744  -0.281  0.0007 -0.9609  0.3545
   11MOL0     C 1441  10.231   6.880  -0.327  0.1908 -0.2813 -0.2808
   11MOL0     C 1442  10.284   6.928  -0.452  0.7056  0.1958 -0.0037
   11MOL0     C 1443  10.255   6.867  -0.583  0.6232 -0.2121 -0.5468
   11MOL0     C 1444  10.361   6.851  -0.682 -0.6278  0.9245  0.0807
   11MOL0     C 1445  10.453   6.842  -0.760 -0.9167 -0.2377  0.6095
   11MOL0     C 1446  10.072   6.684   0.007  0.2657 -0.0710 -0.9995
   11MOL0     C 1447   9.943   6.663   0.053  0.0343  1.2233  0.2055
   11MOL0     C 1448   9.930   6.646   0.199  0.2932 -0.7326 -0.1829
   11MOL0     H 1449   9.512   6.580   0.242  3.4787 -2.7012 -0.9567
   11MOL0     H 1450   9.284   6.572   0.295 -0.1312  1.5199  0.1612
   11MOL0     H 1451   8.982   6.436  -0.060 -1.6497  2.5075  1.5583
   11MOL0     H 1452   8.882   6.467   0.069 -0.7335 -0.9503 -1.1690
   11MOL0     H 1453   9.092   6.248   0.071  1.0549  1.7943  1.3658
   11MOL0     H 1454   9.008   6.314   0.213  3.7483 -1.1817  0.4448
   11MOL0     H 1455   8.796   6.235   0.091  0.9138 -1.5130  4.1377
   11MOL0     H 1456   8.890   6.175  -0.047 -1.2769  1.3733  0.0279
   11MOL0     H 1457   9.018   6.011   0.108 -0.6108 -2.1383  2.5106
   11MOL0     H 1458   8.938   6.067   0.248  2.2196  0.3918  0.0400
   11MOL0     H 1459   8.811   5.872   0.171 -2.9457  0.4113  0.7635
   11MOL0     H 1460   8.788   5.930   0.012  1.9270 -0.0184  0.2315
   11MOL0     H 1461   8.661   6.047   0.276  0.1515  1.1553 -0.1121
   11MOL0     H 1462   8.630   6.111   0.120  1.4264  2.2748  4.0468
   11MOL0     H 1463   8.567   5.816   0.166 -2.6699  0.5441  1.2590
   11MOL0     H 1464   8.545   5.916   0.026 -1.9843  1.2770 -0.3423
   11MOL0     H 1465   8.402   5.965   0.293 -0.5214  1.5313  0.3043
   11MOL0     H 1466   8.379   6.064   0.151 -0.9550 -0.4174  1.1256
   11MOL0     H 1467   8.223   5.984  -0.058 -3.0877  3.0964  3.0257
   11MOL0     H 1468   7.940   5.910  -0.090  2.4824  1.5132  0.5329
   11MOL0     H 1469   7.917   5.739  -0.034  0.7591  0.2900  0.5118
   11MOL0     H 1470   7.965   5.828  -0.298  0.2684 -1.3536 -1.5354
   11MOL0     H 1471   8.130   5.777  -0.241 -0.6994  0.0631  0.2635
   11MOL0     H 1472   8.015   5.611  -0.352 -3.8523  0.0858 -0.2372
   11MOL0     H 1473   8.061   5.554  -0.193 -1.0797 -1.9111 -0.7766
   11MOL0     H 1474   7.791   5.612  -0.139 -2.0725 -3.3918  0.1716
   11MOL0     H 1475   7.798   5.708  -0.279 -0.0112  1.0160  1.5184
   11MOL0     H 1476   7.945   5.324  -0.280  0.9917 -2.8127  1.9938
   11MOL0     H 1477   7.963   5.101  -0.005  1.3102  0.2458 -1.2289
   11MOL0     H 1478   8.037   5.101  -0.171 -0.0284 -0.8160 -0.2984
   11MOL0     H 1479   7.914   4.984  -0.138 -0.1387 -0.6856 -3.1179
   11MOL0     H 1480   7.499   4.842   0.033 -0.7648 -2.9081  1.4472
   11MOL0     H 1481   7.336   4.712   0.142  1.0786 -0.7192 -0.2221
   11MOL0     H 1482   7.364   4.638   0.427  1.8493 -0.5760  1.6556
   11MOL0     H 1483   7.309   4.733   0.559  3.7981  0.0458 -2.3207
   11MOL0     H 1484   7.076   4.647   0.517 -0.5473  0.2819  0.4955
   11MOL0     H 1485   7.133   4.525   0.410  0.9445  3.0822 -2.7630
   11MOL0     H 1486   7.199   4.576   0.692  4.1942  0.6257 -0.7056
   11MOL0     H 1487   7.298   4.464   0.613 -0.5137 -2.5889  1.2145
   11MOL0     H 1488   7.081   4.328   0.558 -1.1308 -0.0766 -0.1185
   11MOL0     H 1489   7.007   4.443   0.669 -0.0270  1.5401 -0.2343
   11MOL0     H 1490   7.221   4.374   0.814  0.4710  0.9411 -0.0648
   11MOL0     H 1491   7.074   4.278   0.833 -0.2077 -0.1725 -1.1037
   11MOL0     H 1492   7.298   4.207   0.628  0.9805  2.0340  3.2502
   11MOL0     H 1493   7.150   4.125   0.635 -1.8318 -0.2898  2.5367
   11MOL0     H 1494   7.199   4.043   0.854 -0.9959 -0.8553 -2.9408
   11MOL0     H 1495   7.348   4.132   0.875  1.2369 -3.7112  0.4916
   11MOL0     H 1496   7.287   3.930   0.664  1.2085 -3.2731  0.1569
   11MOL0     H 1497   7.357   3.892   0.823  2.7697 -0.0129 -1.6652
   11MOL0     H 1498   7.255   5.045   0.413  1.8393  0.5953  0.1865
   11MOL0     H 1499   7.426   5.176   0.298 -0.9730 -1.2344  2.5415
   11MOL0     H 1500   7.517   5.281  -0.033  0.7414  0.9871 -0.1711
   11MOL0     H 1501   7.561   5.457  -0.197  1.1722  3.0522  1.9517
   11MOL0     H 1502   9.207   6.445  -0.125 -0.1598  0.7387  0.3891
   11MOL0     H 1503   9.445   6.483  -0.161 -3.1937  3.0924 -2.4886
   11MOL0     H 1504   9.792   6.658  -0.261  0.1671 -0.2597  0.2557
   11MOL0     H 1505   9.993   6.686  -0.332  2.2011  0.9158 -0.9433
   11MOL0     H 1506  10.390   6.765  -0.280 -0.2931  0.8262 -1.2674
   11MOL0     H 1507  10.262   6.671  -0.359  1.7160  1.2795 -2.3572
   11MOL0     H 1508  10.249   6.959  -0.253 -1.1916  3.0681 -3.2673
   11MOL0     H 1509  10.123   6.876  -0.343 -0.1750  2.2490  1.0466
   11MOL0     H 1510  10.268   7.036  -0.451  4.9852  1.0226  0.7196
   11MOL0     H 1511  10.392   6.916  -0.438  0.8204  0.1958 -0.8799
   11MOL0     H 1512  10.179   6.924  -0.637  0.4384 -0.0577 -0.1269
   11MOL0     H 1513  10.196   6.776  -0.574 -2.4924  1.8567  2.0225
   11MOL0     H 1514  10.519   6.816  -0.840 -1.4063 -1.5590  0.6030
   11MOL0     H 1515  10.152   6.688   0.080  0.1375 -0.8945 -0.8007
   11MOL0     H 1516   9.849   6.576   0.221  0.2180 -0.9852 -1.2328
   11MOL0     H 1517  10.019   6.602   0.247  1.6210 -0.3143 -2.1399
   11MOL0     H 1518   9.916   6.748   0.237 -0.1763  0.2567 -2.7917
   12MOL0     O 1519   8.235  11.289   8.192  0.8020 -0.0139 -0.4426
   12MOL0     C 1520   8.128  11.338   8.235 -0.3439  0.5613  0.2583
   12MOL0     O 1521   8.117  11.417   8.340  0.2659 -0.7646 -0.5360
   12MOL0     C 1522   8.215  11.393   8.433 -0.1284  0.3639 -0.3085
   12MOL0     C 1523   8.241  11.267   8.487 -0.7605 -0.4889  0.4852
   12MOL0     C 1524   8.350  11.241   8.569  0.5314 -0.7835 -0.1175
   12MOL0     C 1525   8.422  11.343   8.632  0.6987 -0.0645 -0.7050
   12MOL0     O 1526   8.531  11.305   8.708 -0.0227  0.3347  0.8487
   12MOL0     C 1527   8.496  11.258   8.840  0.4067  0.4752 -0.3554
   12MOL0     C 1528   8.617  11.262   8.924 -0.2463 -0.3275  0.3443
   12MOL0     C 1529   8.593  11.230   9.074  0.2020  0.4668 -0.0613
   12MOL0     C 1530   8.721  11.246   9.161 -0.0567 -0.8756  0.1373
   12MOL0     C 1531   8.701  11.220   9.309 -0.4505 -0.5359  0.4065
   12MOL0     C 1532   8.588  11.307   9.372 -0.2883  0.4425  0.1021
   12MOL0     C 1533   8.593  11.456   9.348  1.2745  0.2039 -0.6024
   12MOL0     C 1534   8.717  11.520   9.408  0.6095 -0.7217 -0.3411
   12MOL0     N 1535   8.679  11.663   9.427 -1.0750  0.1314 -0.4340
   12MOL0     C 1536   8.613  11.718   9.531  1.0693  0.3506 -0.1095
   12MOL0     C 1537   8.556  11.834   9.493  0.4523  0.1415  0.3794
   12MOL0     C 1538   8.461  11.919   9.579  0.0113 -0.2980 -0.0305
   12MOL0     C 1539   8.310  11.893   9.552  0.1580 -0.4103 -0.6642
   12MOL0     C 1540   8.216  11.975   9.643  0.3284  0.3809 -0.1794
   12MOL0     C 1541   8.070  11.961   9.606  0.8353 -0.6467 -0.3392
   12MOL0     O 1542   7.983  12.067   9.632  0.7294  0.0870 -0.1235
   12MOL0     C 1543   7.988  12.132   9.747 -0.3836  0.6264 -0.4652
   12MOL0     C 1544   7.945  12.070   9.862  0.0378 -0.0780  0.1813
   12MOL0     C 1545   7.950  12.125   9.987  0.1241  0.1309  0.1263
   12MOL0     C 1546   7.887  12.044  10.101 -0.0522  0.1709  0.3861
   12MOL0     C 1547   8.001  12.255   9.999 -0.1702  0.5148  0.5770
   12MOL0     C 1548   8.030  12.318  10.131  0.1761  0.7989  0.4609
   12MOL0     O 1549   8.086  12.237  10.225 -0.0425  0.7620 -0.2536
   12MOL0     C 1550   8.120  12.285  10.349 -0.2674 -0.3741  0.3662
   12MOL0     C 1551   8.070  12.222  10.460 -0.3615  0.4477  0.4824
   12MOL0     C 1552   8.082  12.261  10.592  0.8563 -1.0463 -0.2736
   12MOL0     C 1553   8.125  12.394  10.608 -1.0192  0.3101  0.2217
   12MOL0     O 1554   8.124  12.454  10.730 -1.0310 -0.1035 -0.3227
   12MOL0     C 1555   8.016  12.541  10.765 -0.2402  0.7438  0.1182
   12MOL0     C 1556   8.038  12.596  10.905  0.6608 -0.0689  0.1387
   12MOL0     C 1557   7.988  12.501  11.020 -0.1566 -0.0754 -0.3897
   12MOL0     C 1558   7.962  12.569  11.155  0.2314  0.4698  0.0274
   12MOL0     C 1559   8.087  12.641  11.196 -0.1784  0.0145 -1.2102
   12MOL0     C 1560   8.085  12.641  11.351  0.0483  0.3449 -0.1303
   12MOL0     C 1561   8.205  12.692  11.429 -0.7003 -0.2502  0.1620
   12MOL0     C 1562   8.170  12.683  11.578  1.2696  0.4940 -0.4599
   12MOL0    Cl 1563   8.057  12.814  11.636 -0.2468  0.6404  0.4831
   12MOL0     C 1564   8.179  12.468  10.494  0.3506 -1.1759 -0.3660
   12MOL0     C 1565   8.179  12.411  10.364  1.5629  0.2392  0.0893
   12MOL0     O 1566   8.011  12.438  10.135 -0.0404 -0.0070  0.0909
   12MOL0     C 1567   8.042  12.322   9.877  0.2678 -0.7450 -0.0439
   12MOL0     C 1568   8.028  12.260   9.749 -0.1771  0.2127 -1.1057
   12MOL0     N 1569   8.613  11.866   9.375 -0.1646  0.8873 -0.2243
   12MOL0     N 1570   8.678  11.767   9.331 -0.0708  0.0067  0.1712
   12MOL0     C 1571   8.398  11.472   8.579 -0.4452  0.4035  0.0492
   12MOL0     C 1572   8.294  11.495   8.491  0.8357  0.7036  0.8679
   12MOL0     C 1573   8.010  11.344   8.154  0.7422  0.7193  1.0469
   12MOL0     C 1574   7.937  11.467   8.147  1.1882  0.3177  1.1086
   12MOL0     C 1575   7.829  11.473   8.056  0.0496 -0.5337 -0.3434
   12MOL0     C 1576   7.794  11.369   7.973 -0.2896  0.9758 -0.4087
   12MOL0     O 1577   7.679  11.355   7.890 -0.7198 -0.5453  0.2180
   12MOL0     C 1578   7.582  11.463   7.896  0.4322 -0.0782 -0.0547
   12MOL0     C 1579   7.480  11.444   7.783  0.6435 -0.0723  0.4240
   12MOL0     C 1580   7.384  11.326   7.805 -0.8673  0.7441  0.3854
   12MOL0     C 1581   7.299  11.347   7.930 -0.1120 -0.3843  0.0083
   12MOL0     C 1582   7.213  11.225   7.958  0.3524 -0.5305  0.5846
   12MOL0     C 1583   7.150  11.128   7.991  0.5946 -0.0682 -0.0497
   12MOL0     C 1584   7.872  11.251   7.984  1.6744 -0.5535  0.0220
   12MOL0     C 1585   7.984  11.241   8.069  0.3687 -0.0154 -0.7647
   12MOL0     C 1586   8.062  11.108   8.058  0.8260 -0.5810  0.6745
   12MOL0     H 1587   8.181  11.182   8.456 -2.4366 -0.6301  3.6261
   12MOL0     H 1588   8.381  11.140   8.592  0.2294 -1.1946 -1.4244
   12MOL0     H 1589   8.441  11.165   8.824 -3.1444  2.3410  0.2346
   12MOL0     H 1590   8.423  11.324   8.886 -0.0406 -1.1162  1.3443
   12MOL0     H 1591   8.689  11.183   8.901 -1.8889 -3.1658  4.0013
   12MOL0     H 1592   8.660  11.362   8.916  1.6780 -1.2671 -2.6514
   12MOL0     H 1593   8.501  11.279   9.107  0.5041  1.7976 -1.1035
   12MOL0     H 1594   8.560  11.126   9.081 -2.8325  1.4852  3.5519
   12MOL0     H 1595   8.798  11.180   9.120 -0.5025  0.7677 -3.8151
   12MOL0     H 1596   8.764  11.345   9.143  1.3271 -0.7599  3.4045
   12MOL0     H 1597   8.796  11.245   9.358 -0.6548  1.0695  0.0204
   12MOL0     H 1598   8.682  11.114   9.328 -3.4446 -0.3713 -0.9771
   12MOL0     H 1599   8.489  11.268   9.350 -0.0137 -1.7552  2.3512
   12MOL0     H 1600   8.602  11.307   9.480  0.7104 -0.6202 -0.0044
   12MOL0     H 1601   8.511  11.501   9.404 -1.2817 -5.3755  0.7971
   12MOL0     H 1602   8.589  11.482   9.241  0.9165 -4.1944 -1.8293
   12MOL0     H 1603   8.742  11.475   9.504  0.0292  2.0635  1.2217
   12MOL0     H 1604   8.799  11.502   9.337  2.3409  0.4917  1.2728
   12MOL0     H 1605   8.597  11.660   9.621  2.1089 -3.6015 -2.2379
   12MOL0     H 1606   8.480  12.027   9.583  0.7481 -0.4591  1.5665
   12MOL0     H 1607   8.476  11.903   9.686 -1.8416  3.4443  0.9581
   12MOL0     H 1608   8.295  11.919   9.447  0.4417 -1.6574 -1.0348
   12MOL0     H 1609   8.293  11.786   9.538  1.6720 -0.6779 -0.5848
   12MOL0     H 1610   8.222  11.945   9.748  2.4851  0.6587 -0.1952
   12MOL0     H 1611   8.247  12.079   9.640  2.4095 -0.1884  0.4322
   12MOL0     H 1612   8.073  11.946   9.498 -0.2967  0.0499 -0.4820
   12MOL0     H 1613   8.014  11.877   9.649 -1.1177  1.5615  1.7380
   12MOL0     H 1614   7.903  11.971   9.851  0.0732 -0.0201 -0.4973
   12MOL0     H 1615   7.809  11.977  10.065  1.9564 -1.8093 -0.5303
   12MOL0     H 1616   7.851  12.098  10.189  1.2605  1.4585  0.1826
   12MOL0     H 1617   7.961  11.973  10.140 -1.6544 -0.0360  3.3283
   12MOL0     H 1618   8.058  12.116  10.445 -0.6622  0.6717 -1.0208
   12MOL0     H 1619   8.043  12.191  10.664 -2.1782  1.1779  0.4361
   12MOL0     H 1620   8.029  12.628  10.699  3.2773  0.6047  0.4204
   12MOL0     H 1621   7.914  12.509  10.742 -1.4125  4.0414  0.1939
   12MOL0     H 1622   8.145  12.614  10.916  0.8388  1.4883 -3.1799
   12MOL0     H 1623   7.979  12.688  10.904  3.4572  1.9029 -3.1865
   12MOL0     H 1624   8.061  12.420  11.027  1.5933  1.4770  0.2053
   12MOL0     H 1625   7.894  12.454  10.990  0.9769 -1.0939 -2.5875
   12MOL0     H 1626   7.925  12.492  11.223  1.1201 -1.7723 -1.8835
   12MOL0     H 1627   7.883  12.644  11.151 -1.9214 -1.6153  1.2300
   12MOL0     H 1628   8.175  12.586  11.163  0.2675  0.1062 -0.2229
   12MOL0     H 1629   8.087  12.742  11.155 -0.2536  0.0316 -1.1684
   12MOL0     H 1630   8.087  12.534  11.374  0.1078  0.7762  2.0030
   12MOL0     H 1631   7.996  12.689  11.392  1.0935  3.4743 -1.2380
   12MOL0     H 1632   8.227  12.796  11.404  4.3294 -1.1343 -0.0675
   12MOL0     H 1633   8.299  12.639  11.410 -1.9366 -2.0009 -1.4462
   12MOL0     H 1634   8.258  12.701  11.640 -1.0418  1.5620  2.7430
   12MOL0     H 1635   8.130  12.587  11.612 -1.0427  1.5359 -0.0150
   12MOL0     H 1636   8.209  12.571  10.510 -1.3842 -0.5933 -0.6543
   12MOL0     H 1637   8.201  12.481  10.283 -0.2375 -0.5804 -1.1967
   12MOL0     H 1638   8.084  12.422   9.878 -2.3157  0.4284  0.6382
   12MOL0     H 1639   8.057  12.305   9.654  0.0504  3.4280  0.3534
   12MOL0     H 1640   8.464  11.550   8.615 -0.2134  1.6496 -2.8626
   12MOL0     H 1641   8.265  11.599   8.480 -1.8151 -0.1658 -1.9064
   12MOL0     H 1642   7.969  11.559   8.194  2.4733  0.7087 -0.4171
   12MOL0     H 1643   7.775  11.568   8.052  2.7301  1.0527 -0.8886
   12MOL0     H 1644   7.531  11.471   7.993 -3.4928 -3.4886 -1.5310
   12MOL0     H 1645   7.627  11.560   7.875 -1.8763  1.2842  0.8387
   12MOL0     H 1646   7.529  11.427   7.687 -1.5488 -0.6223 -0.6497
   12MOL0     H 1647   7.425  11.538   7.790 -0.3962 -0.7202  1.2690
   12MOL0     H 1648   7.318  11.312   7.719  0.9491 -2.1557 -0.6999
   12MOL0     H 1649   7.444  11.235   7.813 -0.7515  0.4883 -2.4128
   12MOL0     H 1650   7.231  11.433   7.929 -0.2025 -0.4242  1.1553
   12MOL0     H 1651   7.378  11.359   8.006 -0.1920  1.5781 -0.1468
   12MOL0     H 1652   7.096  11.036   8.002 -0.0519  0.3918  0.7478
   12MOL0     H 1653   7.848  11.166   7.921 -0.0770 -0.2808  0.2553
   12MOL0     H 1654   8.155  11.136   8.010 -0.0971 -0.2322 -0.9899
   12MOL0     H 1655   8.075  11.045   8.147  2.2365 -2.0031 -0.4845
   12MOL0     H 1656   8.009  11.043   7.988 -0.3102  1.1958 -0.1812
   13MOL0     O 1657  10.687   9.776   2.124  0.2444  0.3372 -0.8374
   13MOL0     C 1658  10.770   9.840   2.193 -0.4213 -0.5855 -0.3213
   13MOL0     O 1659  10.741   9.924   2.292  0.4948  0.0827 -0.6601
   13MOL0     C 1660  10.620   9.985   2.288  0.4321 -0.4398 -0.0080
   13MOL0     C 1661  10.538   9.984   2.405  0.0889 -0.3925  0.4107
   13MOL0     C 1662  10.420  10.059   2.404 -0.2885  0.9061  0.2320
   13MOL0     C 1663  10.372  10.115   2.286  1.4573  0.3500 -0.0424
   13MOL0     O 1664  10.246  10.173   2.271 -0.3588  0.8318  0.3648
   13MOL0     C 1665  10.184  10.239   2.383  0.2035  0.6596 -0.3931
   13MOL0     C 1666  10.034  10.277   2.346 -0.4016  0.1739 -0.0471
   13MOL0     C 1667   9.935  10.308   2.450 -0.0191  0.2862  0.1281
   13MOL0     C 1668   9.789  10.299   2.397 -0.2839 -0.2633 -0.0066
   13MOL0     C 1669   9.736  10.437   2.367 -0.4981  0.2124  0.4112
   13MOL0     C 1670   9.591  10.445   2.310 -0.0631  0.5568 -0.3761
   13MOL0     C 1671   9.496  10.385   2.416  0.0008  0.4222 -0.3836
   13MOL0     C 1672   9.343  10.403   2.394  0.3438  0.4148  0.1796
   13MOL0     N 1673   9.275  10.324   2.508 -0.1562 -0.8419  0.1447
   13MOL0     C 1674   9.269  10.190   2.517  0.4476  0.0218 -0.2943
   13MOL0     C 1675   9.186  10.178   2.627 -0.1933  0.0746 -0.1108
   13MOL0     C 1676   9.147  10.046   2.689  0.2570 -0.5371 -0.0651
   13MOL0     C 1677   9.266   9.980   2.749 -0.3145  0.4724  0.1545
   13MOL0     C 1678   9.287   9.830   2.718 -0.3456 -0.4713 -0.0142
   13MOL0     C 1679   9.437   9.776   2.725  0.8261  0.6123 -0.4976
   13MOL0     O 1680   9.514   9.846   2.632 -0.9480 -0.1808  0.3474
   13MOL0     C 1681   9.648   9.819   2.601  0.0833 -0.3817 -0.0529
   13MOL0     C 1682   9.698   9.876   2.486  0.1239  0.3565 -0.3572
   13MOL0     C 1683   9.839   9.868   2.451  1.4889 -0.0345  1.0035
   13MOL0     C 1684   9.886   9.938   2.324 -0.1056  1.0242  0.3553
   13MOL0     C 1685   9.921   9.792   2.533 -0.8329  0.0245  0.0966
   13MOL0     C 1686  10.070   9.791   2.509 -1.1228  0.1488  0.3355
   13MOL0     O 1687  10.133   9.712   2.419  0.2101 -0.9132  0.0783
   13MOL0     C 1688  10.071   9.624   2.345  0.6987  0.3155 -1.0989
   13MOL0     C 1689  10.009   9.520   2.394  0.9113  0.4614 -0.0501
   13MOL0     C 1690   9.944   9.437   2.304  0.2493  0.1743 -0.1529
   13MOL0     C 1691   9.932   9.466   2.165 -0.2147  0.5450 -0.6630
   13MOL0     O 1692   9.874   9.379   2.079  0.1273  0.4236  0.2791
   13MOL0     C 1693   9.750   9.314   2.109 -0.0359  0.4756 -0.1480
   13MOL0     C 1694   9.702   9.224   1.995 -1.0252  0.9438 -0.4474
   13MOL0     C 1695   9.569   9.159   2.036 -0.7097 -0.4201  0.5396
   13MOL0     C 1696   9.450   9.261   2.019  0.3196 -0.1060  0.5468
   13MOL0     C 1697   9.300   9.216   2.056 -0.0879  0.0011  1.1202
   13MOL0     C 1698   9.282   9.195   2.209 -0.0080  0.3718  0.0219
   13MOL0     C 1699   9.139   9.151   2.249 -0.6026 -0.4395  0.2562
   13MOL0     C 1700   9.117   9.168   2.404  0.5899 -0.7866 -0.6705
   13MOL0    Cl 1701   9.201   9.041   2.497  0.6266  0.0434 -0.0887
   13MOL0     C 1702  10.005   9.564   2.116 -0.4535  0.2643 -0.3256
   13MOL0     C 1703  10.080   9.641   2.203  0.4844  0.5046 -0.3856
   13MOL0     O 1704  10.127   9.857   2.594 -0.6038  0.4128 -1.1184
   13MOL0     C 1705   9.869   9.735   2.650 -0.5393  0.7482  0.1864
   13MOL0     C 1706   9.742   9.753   2.682 -0.3022 -0.4305  0.0223
   13MOL0     N 1707   9.145  10.297   2.681  0.6142 -0.2980  1.2592
   13MOL0     N 1708   9.206  10.388   2.607  0.4049 -0.3358 -0.3271
   13MOL0     C 1709  10.443  10.110   2.173  0.2688 -0.7876  0.7006
   13MOL0     C 1710  10.574  10.059   2.177 -0.1111  0.5710 -0.0004
   13MOL0     C 1711  10.904   9.792   2.168  0.3439  1.0665 -0.1590
   13MOL0     C 1712  10.930   9.730   2.045 -1.0046  0.2924  0.2413
   13MOL0     C 1713  11.054   9.672   2.024 -0.0100 -0.2860  1.0406
   13MOL0     C 1714  11.145   9.660   2.126 -0.0383  0.5677  0.1617
   13MOL0     O 1715  11.261   9.595   2.107  0.4354  0.1462  0.0157
   13MOL0     C 1716  11.256   9.460   2.160  0.1290  0.8481 -0.6980
   13MOL0     C 1717  11.367   9.421   2.255  0.1365 -0.2048  0.0930
   13MOL0     C 1718  11.347   9.280   2.306  0.0155 -0.5685  0.4341
   13MOL0     C 1719  11.458   9.253   2.409  0.9205  0.3897 -0.8048
   13MOL0     C 1720  11.437   9.123   2.475 -0.3677  0.0730 -0.0716
   13MOL0     C 1721  11.395   9.020   2.527  0.7694  0.3995  1.1207
   13MOL0     C 1722  11.125   9.734   2.245 -0.0896 -1.2899 -0.7359
   13MOL0     C 1723  11.003   9.804   2.266 -0.7753 -0.0652  0.7748
   13MOL0     C 1724  10.996   9.898   2.378 -0.5274  0.7295  0.6662
   13MOL0     H 1725  10.577   9.929   2.490 -0.5491 -0.0551  0.9314
   13MOL0     H 1726  10.361  10.064   2.494  0.1245  1.8161  0.4647
   13MOL0     H 1727  10.228  10.331   2.422  1.7471 -0.1552 -0.1167
   13MOL0     H 1728  10.178  10.170   2.467  2.0748  0.7420 -0.1509
   13MOL0     H 1729  10.036  10.370   2.288 -2.0833  0.6328  0.5534
   13MOL0     H 1730   9.989  10.198   2.285  3.6957 -2.3936 -0.0776
   13MOL0     H 1731   9.952  10.259   2.546  2.4509  0.3260 -0.2203
   13MOL0     H 1732   9.954  10.414   2.473  0.2127  0.3382 -0.2888
   13MOL0     H 1733   9.780  10.246   2.302  1.4126  1.6377 -1.3119
   13MOL0     H 1734   9.732  10.261   2.483  2.2212 -3.7820  0.3352
   13MOL0     H 1735   9.804  10.483   2.295 -0.2932  0.4643  0.7602
   13MOL0     H 1736   9.738  10.507   2.452 -2.1854  0.1153  0.5648
   13MOL0     H 1737   9.555  10.548   2.310  1.2410  1.1346  2.5047
   13MOL0     H 1738   9.588  10.413   2.205  6.1800 -1.6640 -0.3020
   13MOL0     H 1739   9.525  10.411   2.518  0.4252 -1.2367 -0.0566
   13MOL0     H 1740   9.526  10.280   2.416  0.7498  0.6273  0.2849
   13MOL0     H 1741   9.315  10.508   2.397  0.2604  0.3699  1.2743
   13MOL0     H 1742   9.316  10.363   2.296 -0.9025 -0.7334  0.9400
   13MOL0     H 1743   9.301  10.112   2.449  2.2931  0.7051 -0.2707
   13MOL0     H 1744   9.098   9.982   2.615 -0.9749  0.3069  0.0102
   13MOL0     H 1745   9.084  10.071   2.775  2.0973  0.0298  1.1859
   13MOL0     H 1746   9.360  10.029   2.722 -0.0153 -1.0188 -1.6745
   13MOL0     H 1747   9.259  10.004   2.855 -1.3557  3.0335 -0.4179
   13MOL0     H 1748   9.229   9.765   2.784 -0.7839 -0.8655 -0.7652
   13MOL0     H 1749   9.264   9.803   2.614  2.8846 -0.4186 -0.8498
   13MOL0     H 1750   9.477   9.813   2.820 -1.9743 -0.7751  1.3746
   13MOL0     H 1751   9.448   9.667   2.718 -2.5580  0.1353  0.0630
   13MOL0     H 1752   9.640   9.943   2.423 -0.8192  0.9140  1.0436
   13MOL0     H 1753   9.824  10.027   2.309 -0.7290  0.1666 -2.8074
   13MOL0     H 1754   9.871   9.871   2.239  4.8371  0.8691 -0.7192
   13MOL0     H 1755   9.995   9.951   2.315 -0.1989  0.7080 -1.8667
   13MOL0     H 1756   9.999   9.498   2.500  0.4965  0.4324 -0.0924
   13MOL0     H 1757   9.916   9.344   2.351 -1.8593  0.2224 -1.2106
   13MOL0     H 1758   9.769   9.254   2.199 -0.5537 -0.2452 -0.5083
   13MOL0     H 1759   9.672   9.389   2.129  0.4185  1.3511 -1.5110
   13MOL0     H 1760   9.690   9.282   1.904 -1.2907  1.8918  0.1792
   13MOL0     H 1761   9.773   9.142   1.977 -0.8662  0.3991  2.2523
   13MOL0     H 1762   9.563   9.133   2.143 -0.5838 -0.4369  0.5417
   13MOL0     H 1763   9.559   9.060   1.991 -0.4642  0.1050 -0.6913
   13MOL0     H 1764   9.443   9.296   1.915 -4.4796  2.2266  1.3552
   13MOL0     H 1765   9.483   9.351   2.072 -0.8148  0.6366  0.0592
   13MOL0     H 1766   9.229   9.296   2.033  0.5515  0.7375  1.6603
   13MOL0     H 1767   9.274   9.123   2.005  2.9853 -1.9786  2.8593
   13MOL0     H 1768   9.302   9.288   2.263  1.0267  1.0338 -1.4491
   13MOL0     H 1769   9.361   9.127   2.239 -1.2491 -1.1927 -0.1182
   13MOL0     H 1770   9.127   9.047   2.218  0.2542 -1.3418  2.6702
   13MOL0     H 1771   9.063   9.211   2.199 -0.0913 -2.1874 -2.8817
   13MOL0     H 1772   9.009   9.163   2.420  0.3307  3.5405  0.2165
   13MOL0     H 1773   9.138   9.272   2.430 -1.3329 -0.3347 -0.7877
   13MOL0     H 1774  10.019   9.580   2.009 -2.7960  0.7612 -0.6042
   13MOL0     H 1775  10.139   9.726   2.170  0.8818 -0.2478 -1.6839
   13MOL0     H 1776   9.931   9.673   2.713  0.0041  1.1973  0.0932
   13MOL0     H 1777   9.706   9.746   2.784 -1.1789 -2.7236 -0.3892
   13MOL0     H 1778  10.394  10.145   2.083  1.2615 -2.3671 -0.4888
   13MOL0     H 1779  10.626  10.068   2.082 -4.2424 -0.7353 -2.7020
   13MOL0     H 1780  10.863   9.718   1.960 -0.6797  5.7232 -1.1535
   13MOL0     H 1781  11.073   9.617   1.933  0.2985  1.0885  0.2615
   13MOL0     H 1782  11.158   9.450   2.207 -1.4528 -0.9108 -4.0276
   13MOL0     H 1783  11.259   9.393   2.073  3.2112  0.6241 -0.5221
   13MOL0     H 1784  11.363   9.486   2.342 -1.7031 -2.7074  2.0051
   13MOL0     H 1785  11.463   9.443   2.205 -1.0015  4.0787 -0.6129
   13MOL0     H 1786  11.250   9.271   2.356  0.1540  1.5980  1.1935
   13MOL0     H 1787  11.348   9.204   2.227 -2.7099 -0.1791 -0.0930
   13MOL0     H 1788  11.447   9.337   2.477 -1.6851  0.0108 -0.6528
   13MOL0     H 1789  11.557   9.271   2.366  0.4641  1.7523 -1.3460
   13MOL0     H 1790  11.345   8.934   2.567 -1.1682  1.6664  1.5871
   13MOL0     H 1791  11.206   9.739   2.316  0.7233 -4.5447 -1.2702
   13MOL0     H 1792  11.090   9.924   2.428  1.0584 -0.2111 -1.6589
   13MOL0     H 1793  10.953   9.992   2.344 -0.4020  1.1843  1.7425
   13MOL0     H 1794  10.948   9.860   2.469  1.3896  0.7649  1.7642
   14MOL0     O 1795   7.154   4.212   8.265  0.0442  0.3392  0.0541
   14MOL0     C 1796   7.155   4.275   8.371 -1.2102  0.1217 -0.6779
   14MOL0     O 1797   7.180   4.405   8.389  0.1783  0.4482 -0.1858
   14MOL0     C 1798   7.230   4.492   8.291  0.0022  0.5724  0.3000
   14MOL0     C 1799   7.265   4.458   8.159 -0.1530 -0.1230 -0.5485
   14MOL0     C 1800   7.326   4.552   8.083 -0.2435 -0.0709  0.4956
   14MOL0     C 1801   7.363   4.676   8.130 -1.4613  0.0149 -0.9254
   14MOL0     O 1802   7.415   4.764   8.035 -0.0603  0.4574  0.0936
   14MOL0     C 1803   7.472   4.890   8.061 -0.4479  0.2620  0.3833
   14MOL0     C 1804   7.448   4.990   7.951  0.6468  0.3027 -0.0732
   14MOL0     C 1805   7.440   5.134   8.001  0.2910 -0.5247  0.1854
   14MOL0     C 1806   7.581   5.210   8.005  0.0449  0.1532  0.3685
   14MOL0     C 1807   7.651   5.228   7.873 -0.5242 -0.0150 -0.5096
   14MOL0     C 1808   7.581   5.324   7.781 -0.0282  0.5917 -0.3540
   14MOL0     C 1809   7.660   5.334   7.649  0.4491  0.6668  0.6551
   14MOL0     C 1810   7.589   5.437   7.556 -0.4262  0.0302  0.1389
   14MOL0     N 1811   7.688   5.540   7.541  0.0712 -0.5797  0.5801
   14MOL0     C 1812   7.732   5.625   7.638  0.1536 -0.4598  0.8646
   14MOL0     C 1813   7.830   5.701   7.585 -0.8841 -0.2208  0.5054
   14MOL0     C 1814   7.909   5.805   7.663 -0.8964 -0.2604  0.5853
   14MOL0     C 1815   8.049   5.751   7.706 -0.2580 -0.6264 -0.1421
   14MOL0     C 1816   8.141   5.730   7.582 -0.2182  0.1233 -0.1230
   14MOL0     C 1817   8.281   5.683   7.635  0.2540 -0.1450 -0.1492
   14MOL0     O 1818   8.386   5.678   7.527  0.1661  0.1891 -0.5248
   14MOL0     C 1819   8.515   5.690   7.561  0.3016 -0.1345 -0.2887
   14MOL0     C 1820   8.610   5.694   7.461 -0.1186 -0.4717 -0.2465
   14MOL0     C 1821   8.748   5.696   7.480 -1.0137 -0.0244  0.1958
   14MOL0     C 1822   8.835   5.710   7.358 -0.1853  0.3892 -0.1539
   14MOL0     C 1823   8.795   5.682   7.602 -0.4713 -0.5395  0.9312
   14MOL0     C 1824   8.942   5.667   7.632  0.0019 -0.1826  0.2611
   14MOL0     O 1825   9.032   5.636   7.534  0.1974 -0.4920  0.0536
   14MOL0     C 1826   9.163   5.631   7.571  0.0725  0.0379  0.6397
   14MOL0     C 1827   9.228   5.508   7.566 -1.6839  0.0487 -0.1005
   14MOL0     C 1828   9.359   5.504   7.623 -0.1672  0.5284 -0.3616
   14MOL0     C 1829   9.428   5.617   7.657 -0.9686  0.6119 -0.0764
   14MOL0     O 1830   9.566   5.626   7.693 -0.9192  1.1498 -0.3109
   14MOL0     C 1831   9.646   5.508   7.680 -0.8766 -0.1065  0.1058
   14MOL0     C 1832   9.774   5.548   7.756 -1.3312 -0.2982 -0.3206
   14MOL0     C 1833   9.880   5.433   7.779  0.3907  0.3372 -0.3216
   14MOL0     C 1834  10.016   5.480   7.833 -0.0371 -1.2345  0.2153
   14MOL0     C 1835  10.103   5.534   7.729 -0.5368 -0.4767 -0.2504
   14MOL0     C 1836  10.233   5.464   7.700 -0.2207  0.2408 -0.0042
   14MOL0     C 1837  10.332   5.467   7.806 -0.1851  0.1679 -0.1767
   14MOL0     C 1838  10.461   5.403   7.753 -0.0894  0.6365  0.9565
   14MOL0    Cl 1839  10.591   5.413   7.871 -0.5158  0.5675 -0.0289
   14MOL0     C 1840   9.367   5.741   7.634  0.8139  0.2541 -0.2097
   14MOL0     C 1841   9.234   5.749   7.592 -0.2667 -0.3902  0.3213
   14MOL0     O 1842   8.974   5.672   7.754 -0.4934  0.6753  0.5721
   14MOL0     C 1843   8.708   5.686   7.716  0.4475 -1.0945  0.6686
   14MOL0     C 1844   8.564   5.677   7.699 -0.2788 -0.7793  0.2502
   14MOL0     N 1845   7.838   5.668   7.453 -0.1182  0.3081 -0.1624
   14MOL0     N 1846   7.757   5.571   7.429  0.7065 -0.2101  0.0184
   14MOL0     C 1847   7.335   4.709   8.266 -0.1664 -0.6412  0.8776
   14MOL0     C 1848   7.266   4.614   8.350 -0.0599 -0.5269  0.5404
   14MOL0     C 1849   7.113   4.213   8.498  0.1957 -0.3247 -0.4090
   14MOL0     C 1850   7.169   4.261   8.618 -0.0953 -0.3503  0.0706
   14MOL0     C 1851   7.117   4.223   8.737  0.1678  0.4143  0.7119
   14MOL0     C 1852   7.018   4.132   8.736 -0.1510  0.7335  0.3310
   14MOL0     O 1853   6.962   4.076   8.845  0.1909 -0.9257  0.3577
   14MOL0     C 1854   6.854   4.152   8.896  0.1654  0.6976 -0.0527
   14MOL0     C 1855   6.795   4.064   9.009  1.3483  0.7066 -0.5121
   14MOL0     C 1856   6.860   4.081   9.150  0.1688 -0.2459 -0.1966
   14MOL0     C 1857   6.831   3.949   9.235 -0.2041 -0.5679  0.8317
   14MOL0     C 1858   6.921   3.926   9.353  0.2730 -1.0720 -0.6693
   14MOL0     C 1859   7.016   3.888   9.517 -0.0442  0.2476 -0.1494
   14MOL0     C 1860   6.975   4.071   8.622 -1.8239  0.6559 -0.6118
   14MOL0     C 1861   7.023   4.109   8.500  0.3566 -0.2453  0.0941
   14MOL0     C 1862   6.942   4.057   8.377 -0.1899 -0.3263  0.9928
   14MOL0     H 1863   7.247   4.355   8.128 -0.8267 -0.3675  0.5977
   14MOL0     H 1864   7.337   4.523   7.979  0.5490 -1.3789  0.9218
   14MOL0     H 1865   7.581   4.878   8.059 -0.5512 -1.5367 -3.2148
   14MOL0     H 1866   7.441   4.945   8.150 -0.2117  1.1733 -0.0807
   14MOL0     H 1867   7.525   4.991   7.873 -0.1819 -0.9696 -0.9361
   14MOL0     H 1868   7.361   4.964   7.890  2.1560 -1.4435 -1.6364
   14MOL0     H 1869   7.380   5.185   7.926  0.6750  0.2640  0.3997
   14MOL0     H 1870   7.392   5.144   8.099 -3.5237  0.1926 -1.5726
   14MOL0     H 1871   7.565   5.307   8.054 -1.1920  0.7777 -1.2021
   14MOL0     H 1872   7.652   5.149   8.061  3.3888  0.2474 -3.3091
   14MOL0     H 1873   7.665   5.131   7.824  1.2058  0.1641 -0.4063
   14MOL0     H 1874   7.750   5.266   7.899 -0.7155  0.7712 -0.9114
   14MOL0     H 1875   7.480   5.299   7.748  0.1118  3.2813 -3.3617
   14MOL0     H 1876   7.579   5.428   7.815 -1.0126  1.2049 -2.1403
   14MOL0     H 1877   7.656   5.239   7.596 -3.6211  0.1734  1.4895
   14MOL0     H 1878   7.766   5.352   7.667  1.4486 -2.3584 -1.3563
   14MOL0     H 1879   7.573   5.394   7.457  0.8496 -1.7290  0.6374
   14MOL0     H 1880   7.497   5.473   7.604  0.0906  2.7896 -0.7477
   14MOL0     H 1881   7.701   5.652   7.739  2.2876 -0.3286  1.5326
   14MOL0     H 1882   7.865   5.808   7.764  2.0583 -1.6293  2.0381
   14MOL0     H 1883   7.925   5.900   7.613 -0.3476 -1.3744 -1.4644
   14MOL0     H 1884   8.094   5.821   7.776 -0.9933 -1.2466  0.9704
   14MOL0     H 1885   8.035   5.658   7.762  3.3300 -0.6859  0.8977
   14MOL0     H 1886   8.113   5.649   7.513  1.9191  0.9607 -2.0912
   14MOL0     H 1887   8.153   5.829   7.538  0.2011 -0.2432 -0.8523
   14MOL0     H 1888   8.307   5.768   7.699  0.5008  1.3214 -2.1023
   14MOL0     H 1889   8.282   5.591   7.693  1.8158  0.2917  0.5722
   14MOL0     H 1890   8.583   5.687   7.356  2.2315  1.2916 -1.0614
   14MOL0     H 1891   8.778   5.758   7.277  1.1489 -0.3842 -1.6061
   14MOL0     H 1892   8.874   5.612   7.329  0.7521 -0.1907  2.7865
   14MOL0     H 1893   8.918   5.778   7.379 -0.1149 -0.5325  2.9988
   14MOL0     H 1894   9.176   5.415   7.542 -0.0220 -0.7106 -0.9805
   14MOL0     H 1895   9.404   5.406   7.614 -0.2856  0.5448 -1.2141
   14MOL0     H 1896   9.595   5.423   7.727 -1.4866  0.1091 -0.1584
   14MOL0     H 1897   9.683   5.487   7.579 -0.5879 -0.8648  0.3640
   14MOL0     H 1898   9.820   5.632   7.704 -2.0041  2.1698  2.7703
   14MOL0     H 1899   9.744   5.589   7.853 -2.8629  0.5592 -1.1230
   14MOL0     H 1900   9.889   5.373   7.688  1.3536 -0.6257  0.3827
   14MOL0     H 1901   9.832   5.365   7.851 -1.2460  1.0140 -0.7371
   14MOL0     H 1902  10.071   5.398   7.880  1.0906 -2.0063 -2.2573
   14MOL0     H 1903   9.986   5.553   7.909 -0.0026 -2.5351  1.5182
   14MOL0     H 1904  10.035   5.539   7.643  0.3579  1.5005 -0.8961
   14MOL0     H 1905  10.143   5.630   7.762  0.1599 -0.5494 -0.8671
   14MOL0     H 1906  10.284   5.504   7.613  1.1991 -2.6572 -0.6409
   14MOL0     H 1907  10.200   5.363   7.671 -2.7442  1.2079 -0.7813
   14MOL0     H 1908  10.305   5.399   7.888  5.4862 -1.5315  0.7234
   14MOL0     H 1909  10.334   5.570   7.844 -3.2719  0.1162  0.4173
   14MOL0     H 1910  10.478   5.458   7.660 -0.1458 -0.0526  0.5353
   14MOL0     H 1911  10.447   5.300   7.721 -4.1353  1.6501 -1.1878
   14MOL0     H 1912   9.430   5.824   7.665  0.6520  0.9694 -1.7418
   14MOL0     H 1913   9.188   5.847   7.602 -1.6747 -1.2133  3.4969
   14MOL0     H 1914   8.758   5.678   7.812 -0.2005 -2.0663  0.9419
   14MOL0     H 1915   8.510   5.660   7.791  0.8241  0.4928  1.1755
   14MOL0     H 1916   7.346   4.808   8.310 -1.7122 -0.4141  0.8223
   14MOL0     H 1917   7.237   4.655   8.446 -0.1645  0.4272  0.1132
   14MOL0     H 1918   7.247   4.336   8.618  0.2318 -0.6826 -0.1216
   14MOL0     H 1919   7.163   4.265   8.826  0.8356 -0.3290  0.7278
   14MOL0     H 1920   6.905   4.243   8.929 -1.4651  0.6719  2.9700
   14MOL0     H 1921   6.779   4.181   8.822 -1.0311 -0.0459  0.8242
   14MOL0     H 1922   6.790   3.957   8.990  2.8806  0.5283 -0.0080
   14MOL0     H 1923   6.687   4.080   9.013  0.9918 -0.9085 -2.2754
   14MOL0     H 1924   6.963   4.085   9.112 -0.1330  1.9890 -0.9478
   14MOL0     H 1925   6.826   4.168   9.206 -0.3130  0.4327 -1.4928
   14MOL0     H 1926   6.858   3.864   9.172 -1.5402 -0.9635  0.7525
   14MOL0     H 1927   6.727   3.939   9.268 -0.7594  2.6255  0.3728
   14MOL0     H 1928   7.064   3.873   9.612 -0.5849 -1.0442 -0.0490
   14MOL0     H 1929   6.907   3.987   8.633  0.3697 -1.2302 -0.8258
   14MOL0     H 1930   6.892   4.146   8.338  2.8916  0.8803 -0.5208
   14MOL0     H 1931   7.014   4.016   8.306  2.5042  4.4291  0.5585
   14MOL0     H 1932   6.869   3.982   8.409 -1.7437  1.3899  1.6472
   15MOL0     O 1933   2.962   4.841   0.403  0.0148  0.5660 -0.2135
   15MOL0     C 1934   3.010   4.949   0.368  1.0000 -0.4535 -0.0008
   15MOL0     O 1935   2.948   5.030   0.274 -0.1884 -0.0318  0.3425
   15MOL0     C 1936   2.835   4.979   0.209 -0.0836  1.0150 -0.3647
   15MOL0     C 1937   2.718   5.053   0.199 -0.4886  0.3634 -0.1916
   15MOL0     C 1938   2.611   5.011   0.116 -1.3409 -0.3290 -0.3895
   15MOL0     C 1939   2.625   4.889   0.044 -0.5070 -0.0741  0.3772
   15MOL0     O 1940   2.535   4.844  -0.044  0.2939  0.9304  0.2944
   15MOL0     C 1941   2.397   4.887  -0.019  0.3001  0.0822 -0.3326
   15MOL0     C 1942   2.304   4.765  -0.034  0.3569  0.0046  0.4286
   15MOL0     C 1943   2.172   4.816  -0.066 -0.7280 -0.7165 -0.0619
   15MOL0     C 1944   2.125   4.765  -0.205  0.9063  0.6823  0.2487
   15MOL0     C 1945   1.999   4.838  -0.243  0.6767 -0.3223  0.7503
   15MOL0     C 1946   1.937   4.785  -0.371  0.3164 -0.1131 -0.0098
   15MOL0     C 1947   1.864   4.893  -0.447  0.4375  0.6048  0.3589
   15MOL0     C 1948   1.767   4.984  -0.357 -0.0017  0.2213 -0.8290
   15MOL0     N 1949   1.723   5.109  -0.433  0.4121 -1.0196 -0.6185
   15MOL0     C 1950   1.797   5.217  -0.473  0.3764  0.5742 -0.4908
   15MOL0     C 1951   1.705   5.276  -0.558  0.8123  0.5465  0.4657
   15MOL0     C 1952   1.738   5.404  -0.633  0.0666 -0.6845 -0.3301
   15MOL0     C 1953   1.637   5.523  -0.606  0.2934 -0.4372 -0.1308
   15MOL0     C 1954   1.630   5.539  -0.453 -0.1601 -0.0988  0.6653
   15MOL0     C 1955   1.560   5.672  -0.415  0.1966  0.3446  0.2376
   15MOL0     O 1956   1.536   5.673  -0.270  0.4447  0.3266 -0.1775
   15MOL0     C 1957   1.459   5.775  -0.232 -0.4336  0.5251  0.3153
   15MOL0     C 1958   1.498   5.902  -0.261 -0.4648 -0.2106  0.0710
   15MOL0     C 1959   1.428   6.014  -0.203  0.5040 -0.3834  0.1945
   15MOL0     C 1960   1.481   6.154  -0.233 -0.8259  0.4141  0.0213
   15MOL0     C 1961   1.312   5.996  -0.124 -0.3290 -0.6540  0.1006
   15MOL0     C 1962   1.228   6.102  -0.052 -0.4996 -0.2326  0.9740
   15MOL0     O 1963   1.281   6.224  -0.027 -0.1880  0.3394  0.4074
   15MOL0     C 1964   1.205   6.304   0.047 -0.6560 -0.2112 -0.9929
   15MOL0     C 1965   1.128   6.407  -0.007 -0.2750 -0.4986  1.0745
   15MOL0     C 1966   1.046   6.490   0.077 -1.2927 -0.8292 -0.3660
   15MOL0     C 1967   1.054   6.481   0.221 -0.0012  0.3869  0.2542
   15MOL0     O 1968   0.965   6.568   0.296 -0.2506 -0.6817 -0.8981
   15MOL0     C 1969   0.933   6.530   0.433 -0.3561 -0.1104 -0.0273
   15MOL0     C 1970   0.803   6.592   0.490  0.3369 -0.4932 -0.4142
   15MOL0     C 1971   0.672   6.552   0.426 -0.9349 -0.4964  0.7815
   15MOL0     C 1972   0.557   6.613   0.486 -0.3212  0.4108 -0.2905
   15MOL0     C 1973   0.426   6.556   0.428 -0.0580  0.2893  0.1436
   15MOL0     C 1974   0.297   6.614   0.478 -0.0865 -0.4518 -1.2044
   15MOL0     C 1975   0.257   6.758   0.435  0.2261  0.9249  0.9766
   15MOL0     C 1976   0.323   6.872   0.516  0.1011  0.2175  0.1548
   15MOL0    Cl 1977   0.216   7.013   0.509  0.3130  0.0030 -0.0977
   15MOL0     C 1978   1.136   6.372   0.272  0.2821 -0.3700 -0.0942
   15MOL0     C 1979   1.203   6.284   0.183  0.7505 -0.6347  0.6532
   15MOL0     O 1980   1.131   6.056   0.000 -0.1778  0.6454  1.0604
   15MOL0     C 1981   1.275   5.862  -0.100  0.6914  0.0573  0.3513
   15MOL0     C 1982   1.352   5.752  -0.154 -0.4923  1.1231 -0.4349
   15MOL0     N 1983   1.575   5.225  -0.549 -0.4668  0.9346  0.1085
   15MOL0     N 1984   1.596   5.128  -0.479 -0.2376 -0.0991 -0.8619
   15MOL0     C 1985   2.741   4.822   0.050 -0.3579 -0.9655  0.1181
   15MOL0     C 1986   2.849   4.867   0.122 -0.2995  1.1841  0.2191
   15MOL0     C 1987   3.124   5.007   0.445 -0.9062 -0.1981 -0.4597
   15MOL0     C 1988   3.162   4.942   0.562 -0.7899  0.5519  0.0788
   15MOL0     C 1989   3.268   4.977   0.644  0.0109  0.1110 -0.4335
   15MOL0     C 1990   3.344   5.086   0.609 -0.4404  0.1283 -0.5381
   15MOL0     O 1991   3.467   5.115   0.668 -0.1762 -0.0960  0.4768
   15MOL0     C 1992   3.486   5.094   0.809 -1.4553  0.3813  0.5032
   15MOL0     C 1993   3.437   5.207   0.890  0.5737  0.1976 -0.3969
   15MOL0     C 1994   3.458   5.347   0.827 -0.6455 -0.4425 -0.3540
   15MOL0     C 1995   3.438   5.461   0.932  0.5196  0.7030  1.1626
   15MOL0     C 1996   3.450   5.588   0.867 -0.4101 -0.6662 -0.0906
   15MOL0     C 1997   3.478   5.703   0.817  0.2373 -0.0506  0.2202
   15MOL0     C 1998   3.314   5.156   0.497  0.2853  0.1682  0.2195
   15MOL0     C 1999   3.196   5.132   0.425  0.0515  0.0609 -0.7889
   15MOL0     C 2000   3.162   5.224   0.306 -1.0788 -0.2300  0.1018
   15MOL0     H 2001   2.715   5.152   0.242 -0.1500  0.0965  0.4582
   15MOL0     H 2002   2.533   5.086   0.115  0.1035  1.3533  2.4718
   15MOL0     H 2003   2.382   4.961  -0.098 -1.1001  2.7621  2.2569
   15MOL0     H 2004   2.373   4.926   0.081  0.0041 -2.4450  0.6781
   15MOL0     H 2005   2.344   4.700  -0.112  0.7404  0.3159  0.3587
   15MOL0     H 2006   2.305   4.701   0.055 -0.0174 -2.2295 -1.0940
   15MOL0     H 2007   2.104   4.772   0.008 -1.2774 -2.1281 -1.3412
   15MOL0     H 2008   2.166   4.925  -0.073  2.9509 -0.4736 -4.4491
   15MOL0     H 2009   2.192   4.791  -0.288 -0.9897  0.1376 -1.5475
   15MOL0     H 2010   2.119   4.655  -0.206 -1.8316  0.7042 -2.7183
   15MOL0     H 2011   2.046   4.937  -0.251  1.0528 -0.3828  1.9175
   15MOL0     H 2012   1.916   4.830  -0.173 -0.9818  0.2296 -1.0654
   15MOL0     H 2013   2.017   4.740  -0.432  2.6298  2.3482  1.0327
   15MOL0     H 2014   1.874   4.698  -0.349 -0.3945  0.1571 -0.9154
   15MOL0     H 2015   1.803   4.841  -0.522  2.8726 -1.3744 -0.3777
   15MOL0     H 2016   1.929   4.955  -0.509  0.8107  0.0658  0.2077
   15MOL0     H 2017   1.681   4.926  -0.324  0.1580  0.9878  1.1026
   15MOL0     H 2018   1.821   5.017  -0.267  2.1146  0.1662 -1.9960
   15MOL0     H 2019   1.899   5.247  -0.453  1.7591 -3.5278 -0.5337
   15MOL0     H 2020   1.740   5.392  -0.741  2.7878  2.0688 -0.7247
   15MOL0     H 2021   1.838   5.444  -0.614 -0.1739 -0.2299  0.0405
   15MOL0     H 2022   1.676   5.613  -0.654  4.0449 -0.1168  3.0256
   15MOL0     H 2023   1.541   5.488  -0.645 -0.8976 -0.1177  2.3253
   15MOL0     H 2024   1.569   5.459  -0.411  2.1390 -2.3726 -0.0463
   15MOL0     H 2025   1.731   5.540  -0.411 -0.6878  0.0607  1.9675
   15MOL0     H 2026   1.619   5.756  -0.453  1.6395 -0.7824 -0.1305
   15MOL0     H 2027   1.466   5.662  -0.469  1.8379 -1.3588 -2.5814
   15MOL0     H 2028   1.589   5.918  -0.318 -1.3142 -0.2005 -1.3494
   15MOL0     H 2029   1.404   6.227  -0.260  0.7642  2.1573 -0.0311
   15MOL0     H 2030   1.558   6.151  -0.311  0.5798 -1.7638  1.3716
   15MOL0     H 2031   1.519   6.204  -0.143 -1.5581 -0.1467  0.6548
   15MOL0     H 2032   1.116   6.416  -0.114 -1.5014  1.0961  1.3080
   15MOL0     H 2033   0.960   6.545   0.040 -4.4054 -3.2889  2.6189
   15MOL0     H 2034   0.908   6.424   0.424 -2.5944  0.1156  2.4167
   15MOL0     H 2035   1.017   6.545   0.502  0.9576 -1.4282 -1.2657
   15MOL0     H 2036   0.797   6.569   0.597  0.1344 -2.3624 -0.8034
   15MOL0     H 2037   0.817   6.701   0.485  0.0888 -0.1879  2.9946
   15MOL0     H 2038   0.667   6.444   0.437  1.5662 -0.7480 -0.0131
   15MOL0     H 2039   0.686   6.581   0.322 -1.1091  1.1378  1.1839
   15MOL0     H 2040   0.558   6.719   0.461 -1.3188  1.3441  3.0799
   15MOL0     H 2041   0.560   6.608   0.596  1.8561  0.2793 -0.3094
   15MOL0     H 2042   0.447   6.560   0.321  0.7876  2.6895  0.3384
   15MOL0     H 2043   0.430   6.454   0.467 -0.1620  0.4755  0.6450
   15MOL0     H 2044   0.294   6.621   0.587 -2.1417  0.0065 -1.2365
   15MOL0     H 2045   0.222   6.539   0.450  1.9950 -2.1898 -2.4132
   15MOL0     H 2046   0.151   6.752   0.458 -0.1201 -2.0642 -0.9230
   15MOL0     H 2047   0.270   6.760   0.326  0.9757 -2.1048  0.9172
   15MOL0     H 2048   0.418   6.896   0.466 -0.2844 -0.6435 -1.0568
   15MOL0     H 2049   0.351   6.850   0.619  4.0002  2.4409 -0.2414
   15MOL0     H 2050   1.127   6.344   0.377  0.2763  2.2011  0.6452
   15MOL0     H 2051   1.248   6.196   0.229  0.6125 -1.6235 -1.0297
   15MOL0     H 2052   1.186   5.838  -0.044  0.9228  1.9610  1.6150
   15MOL0     H 2053   1.329   5.650  -0.123 -1.5235  1.6253  0.5551
   15MOL0     H 2054   2.759   4.728  -0.001  1.5049 -1.0318  0.7983
   15MOL0     H 2055   2.943   4.814   0.111 -1.6156 -1.4713  0.9137
   15MOL0     H 2056   3.108   4.856   0.599 -1.4391 -0.0339 -2.0685
   15MOL0     H 2057   3.288   4.915   0.731 -0.0852  1.4374  0.5689
   15MOL0     H 2058   3.449   4.997   0.842 -1.6968  0.5608  0.7679
   15MOL0     H 2059   3.593   5.082   0.829 -1.6211 -1.3525  0.5015
   15MOL0     H 2060   3.502   5.195   0.977 -1.0553 -1.1017  0.7062
   15MOL0     H 2061   3.333   5.190   0.921  0.7817  1.2508  1.0028
   15MOL0     H 2062   3.563   5.352   0.799 -0.5655  1.0955  0.1406
   15MOL0     H 2063   3.398   5.363   0.737 -0.7299  0.7793 -0.1011
   15MOL0     H 2064   3.512   5.465   1.013 -0.6776 -4.2126  2.8639
   15MOL0     H 2065   3.339   5.449   0.976 -0.5815  1.6042 -0.9136
   15MOL0     H 2066   3.508   5.802   0.788 -0.4587  1.0539  2.9382
   15MOL0     H 2067   3.378   5.238   0.466 -0.4019  1.5031  2.1070
   15MOL0     H 2068   3.072   5.285   0.319 -1.7017 -1.3177  1.1037
   15MOL0     H 2069   3.235   5.305   0.298 -0.6685 -0.5102  0.9208
   15MOL0     H 2070   3.155   5.172   0.210  3.5784 -0.7314 -0.1853
   16MOL0     O 2071   3.833   4.027  10.125  0.4713 -0.6819 -0.4764
   16MOL0     C 2072   3.726   4.014  10.066 -0.3780  0.1787 -0.0944
   16MOL0     O 2073   3.709   4.059   9.940  0.5223  0.8433 -0.6353
   16MOL0     C 2074   3.804   4.141   9.885 -0.0998  0.1078 -0.2250
   16MOL0     C 2075   3.768   4.275   9.883  0.5775  0.0163 -1.1459
   16MOL0     C 2076   3.855   4.377   9.840  0.6692  0.6088  0.1195
   16MOL0     C 2077   3.972   4.337   9.775 -1.2543 -1.2963 -0.1920
   16MOL0     O 2078   4.048   4.442   9.720  0.0050  0.5631  0.1505
   16MOL0     C 2079   4.139   4.425   9.614 -0.1777 -0.0914 -0.9934
   16MOL0     C 2080   4.092   4.509   9.494 -0.6669 -0.0153 -0.3392
   16MOL0     C 2081   4.080   4.653   9.546 -0.2020  0.5070  0.2675
   16MOL0     C 2082   4.060   4.744   9.416  1.0387 -0.4151  0.3019
   16MOL0     C 2083   4.011   4.894   9.466  0.6224  1.5736 -0.5107
   16MOL0     C 2084   3.987   4.984   9.340 -0.2451  0.5088  0.1150
   16MOL0     C 2085   4.116   5.022   9.270  0.0167  0.0384 -0.7801
   16MOL0     C 2086   4.077   5.146   9.181  0.2110 -0.3053  0.0719
   16MOL0     N 2087   4.189   5.188   9.098  0.8450  1.0473  0.3923
   16MOL0     C 2088   4.173   5.223   8.966 -0.3380 -0.3350 -0.5067
   16MOL0     C 2089   4.283   5.302   8.948  0.0540 -0.4620  0.9377
   16MOL0     C 2090   4.326   5.361   8.814 -0.5001  0.3098  0.8693
   16MOL0     C 2091   4.225   5.447   8.751  0.2366 -0.7633  0.3836
   16MOL0     C 2092   4.298   5.535   8.644  0.0871  0.5741 -0.6995
   16MOL0     C 2093   4.311   5.472   8.504  0.0746 -0.3549 -0.4412
   16MOL0     O 2094   4.425   5.386   8.480  0.3178  0.0551  0.8402
   16MOL0     C 2095   4.422   5.328   8.349 -0.6815 -0.0748  0.4080
   16MOL0     C 2096   4.541   5.266   8.303 -0.0049  0.1600 -0.4310
   16MOL0     C 2097   4.533   5.180   8.192 -0.4870 -0.5640 -0.0383
   16MOL0     C 2098   4.669   5.118   8.159  0.9855 -1.0380 -1.4862
   16MOL0     C 2099   4.414   5.167   8.109  0.3531  0.2881  0.4229
   16MOL0     C 2100   4.415   5.081   7.985  0.9321  1.0240  0.5110
   16MOL0     O 2101   4.297   5.096   7.909  0.1904  0.3488 -0.1205
   16MOL0     C 2102   4.263   5.009   7.804  1.0997  0.0518 -0.2857
   16MOL0     C 2103   4.342   4.976   7.691 -0.6229  0.4644  0.5179
   16MOL0     C 2104   4.266   4.913   7.583 -0.5791 -0.3750  0.8050
   16MOL0     C 2105   4.144   4.849   7.599  0.1467 -0.5994 -0.1647
   16MOL0     O 2106   4.089   4.761   7.515  0.4421 -0.1511  0.0464
   16MOL0     C 2107   4.165   4.709   7.402 -0.2580  0.1585  0.3777
   16MOL0     C 2108   4.079   4.604   7.323  0.6168 -0.3021 -0.5259
   16MOL0     C 2109   4.128   4.570   7.184  0.3329  1.0754 -0.4725
   16MOL0     C 2110   4.092   4.667   7.073  0.3435 -0.7432 -0.2772
   16MOL0     C 2111   3.973   4.618   6.994 -0.9936  0.4569 -0.1019
   16MOL0     C 2112   4.027   4.516   6.888 -0.2908  0.8988  0.0732
   16MOL0     C 2113   3.917   4.457   6.787  0.2611 -0.7770 -0.0237
   16MOL0     C 2114   3.959   4.326   6.728 -0.2819  0.4059 -0.8697
   16MOL0    Cl 2115   4.128   4.337   6.662 -0.0970  0.1604 -0.5699
   16MOL0     C 2116   4.079   4.877   7.722 -0.5108  0.8930 -0.2699
   16MOL0     C 2117   4.130   4.967   7.816 -0.2512  0.4350 -0.6915
   16MOL0     O 2118   4.493   4.994   7.965  0.1187 -0.2699 -0.2344
   16MOL0     C 2119   4.304   5.247   8.152 -0.2041 -0.7268 -0.0970
   16MOL0     C 2120   4.305   5.324   8.268 -0.5110 -0.0186 -0.4247
   16MOL0     N 2121   4.362   5.312   9.060 -0.8534  0.2617 -0.8743
   16MOL0     N 2122   4.303   5.243   9.149 -0.6222 -0.4940 -0.2221
   16MOL0     C 2123   4.014   4.204   9.769  0.1186 -0.0440 -0.7055
   16MOL0     C 2124   3.931   4.106   9.828 -0.3869 -0.1612 -0.2576
   16MOL0     C 2125   3.615   3.938  10.121 -0.6334 -0.4031 -0.0513
   16MOL0     C 2126   3.516   3.904  10.032  0.6957  0.7104  0.0299
   16MOL0     C 2127   3.404   3.837  10.071 -0.1257  0.6521 -0.5128
   16MOL0     C 2128   3.398   3.778  10.200  0.3770 -0.1953 -0.5172
   16MOL0     O 2129   3.296   3.691  10.239  0.7694  0.2641  0.4594
   16MOL0     C 2130   3.171   3.760  10.241 -0.3611 -0.6427  0.5465
   16MOL0     C 2131   3.082   3.696  10.340  0.0227  0.6020  0.3798
   16MOL0     C 2132   3.035   3.566  10.274 -0.0916  0.9697 -0.5535
   16MOL0     C 2133   2.890   3.582  10.235  0.8870 -0.4088 -0.1158
   16MOL0     C 2134   2.857   3.458  10.171 -0.0478  0.0889 -0.8681
   16MOL0     C 2135   2.829   3.363  10.107  0.6087  0.7604  0.2552
   16MOL0     C 2136   3.493   3.815  10.293 -0.6464  0.0167  0.0988
   16MOL0     C 2137   3.598   3.911  10.260  1.0756  0.1987 -0.1939
   16MOL0     C 2138   3.704   3.938  10.366 -0.4023  0.3219 -0.3077
   16MOL0     H 2139   3.680   4.302   9.940  2.0875  2.1510  0.3351
   16MOL0     H 2140   3.831   4.482   9.852  2.8548  0.9773  2.0742
   16MOL0     H 2141   4.150   4.319   9.589 -0.3759  0.2059 -2.4079
   16MOL0     H 2142   4.239   4.448   9.652 -0.3416 -0.0663 -0.5744
   16MOL0     H 2143   4.175   4.496   9.423  1.6457 -3.1969  2.6408
   16MOL0     H 2144   4.003   4.467   9.445  0.4423 -0.4839 -2.0543
   16MOL0     H 2145   3.986   4.662   9.602 -0.6274 -3.1449  0.3545
   16MOL0     H 2146   4.174   4.679   9.595  0.7467 -2.8558  0.4823
   16MOL0     H 2147   4.161   4.749   9.373  1.3275 -1.0753  0.8911
   16MOL0     H 2148   3.983   4.696   9.354 -0.0327  0.3497  1.0047
   16MOL0     H 2149   4.091   4.938   9.525 -0.5460  2.0696  0.7519
   16MOL0     H 2150   3.915   4.888   9.519  0.2651 -0.1707 -1.2800
   16MOL0     H 2151   3.929   4.928   9.266  0.3190  0.3493 -0.2064
   16MOL0     H 2152   3.938   5.074   9.377  1.7312  0.9727  1.8111
   16MOL0     H 2153   4.169   4.946   9.210 -2.3095 -1.9543 -0.4819
   16MOL0     H 2154   4.176   5.055   9.355  0.2748  0.8078 -1.2521
   16MOL0     H 2155   3.997   5.116   9.112 -0.5042  0.5787  0.4952
   16MOL0     H 2156   4.058   5.231   9.246  1.5776  0.4736 -0.5265
   16MOL0     H 2157   4.088   5.208   8.899  0.1246  0.4113 -1.2771
   16MOL0     H 2158   4.344   5.287   8.734 -2.2706  0.9543 -0.1840
   16MOL0     H 2159   4.422   5.411   8.828 -0.3590  0.0646  0.8040
   16MOL0     H 2160   4.145   5.393   8.698 -1.5974  1.6802  0.4826
   16MOL0     H 2161   4.190   5.511   8.832  2.9121  2.7535 -1.0042
   16MOL0     H 2162   4.253   5.635   8.645  0.4247  0.7326  0.7383
   16MOL0     H 2163   4.403   5.543   8.676 -0.2711  0.4510  0.5617
   16MOL0     H 2164   4.223   5.407   8.504  0.3483 -1.2055  5.2379
   16MOL0     H 2165   4.307   5.548   8.425 -2.4528 -1.6984 -1.7545
   16MOL0     H 2166   4.629   5.276   8.365 -0.9528 -0.6501  1.0978
   16MOL0     H 2167   4.681   5.101   8.052 -0.6942  1.2452 -2.1268
   16MOL0     H 2168   4.670   5.026   8.219 -2.1487  0.7286  1.7165
   16MOL0     H 2169   4.741   5.191   8.196 -1.3746  0.0385  1.3742
   16MOL0     H 2170   4.442   5.011   7.669 -1.0331  0.3900 -1.7707
   16MOL0     H 2171   4.317   4.894   7.489 -2.1497 -2.0918  0.2301
   16MOL0     H 2172   4.206   4.787   7.336 -0.4130  0.3184  0.4716
   16MOL0     H 2173   4.258   4.660   7.434  3.4993  4.6369 -2.2703
   16MOL0     H 2174   4.063   4.520   7.391  0.7355  0.1198  0.0278
   16MOL0     H 2175   3.979   4.643   7.303  1.2807  1.8468  0.0334
   16MOL0     H 2176   4.092   4.468   7.168  3.9803 -0.4792  0.1022
   16MOL0     H 2177   4.237   4.567   7.192  0.6452  1.3581 -3.5532
   16MOL0     H 2178   4.178   4.685   7.007 -1.4351  0.9828 -2.2840
   16MOL0     H 2179   4.071   4.768   7.110  1.6238 -0.0743 -1.3072
   16MOL0     H 2180   3.909   4.572   7.070  1.4355 -1.4980  0.8983
   16MOL0     H 2181   3.914   4.701   6.954 -2.6105  0.4042  1.9685
   16MOL0     H 2182   4.080   4.438   6.943  0.9877  1.0447 -0.9148
   16MOL0     H 2183   4.107   4.563   6.831 -0.2010 -0.4533 -0.9609
   16MOL0     H 2184   3.903   4.532   6.710  0.5871 -2.0737 -1.3871
   16MOL0     H 2185   3.825   4.443   6.845  1.1361 -1.7340  1.1976
   16MOL0     H 2186   3.894   4.299   6.644  0.9079  1.0638 -2.0396
   16MOL0     H 2187   3.952   4.239   6.794  1.1112 -1.0303 -2.5028
   16MOL0     H 2188   3.984   4.832   7.751 -1.4529  2.3667 -0.9145
   16MOL0     H 2189   4.080   4.991   7.909  4.3428 -0.1166  2.1866
   16MOL0     H 2190   4.217   5.254   8.087  0.0023 -1.7299 -0.4994
   16MOL0     H 2191   4.217   5.385   8.284 -0.6231 -0.6830  1.8457
   16MOL0     H 2192   4.104   4.161   9.727  0.7528 -0.5775  1.0959
   16MOL0     H 2193   3.974   4.006   9.829  0.6782  0.2722  1.1056
   16MOL0     H 2194   3.522   3.935   9.928 -0.2436  2.7769  0.5533
   16MOL0     H 2195   3.325   3.808  10.003 -0.3244 -2.2873  0.8055
   16MOL0     H 2196   3.181   3.863  10.277  2.5050 -0.6319 -0.0874
   16MOL0     H 2197   3.129   3.773  10.141 -0.9059 -0.4088  0.7982
   16MOL0     H 2198   2.994   3.759  10.359 -2.5652 -2.7182  0.4864
   16MOL0     H 2199   3.138   3.679  10.432 -2.2340  0.2049  1.7581
   16MOL0     H 2200   3.088   3.536  10.184 -2.3205 -0.9817 -1.2947
   16MOL0     H 2201   3.037   3.479  10.341 -1.6177  0.9517 -0.4792
   16MOL0     H 2202   2.891   3.659  10.157 -1.9015 -0.0039  0.1506
   16MOL0     H 2203   2.820   3.610  10.314  0.0660 -1.5710 -0.4205
   16MOL0     H 2204   2.798   3.280  10.047 -0.6351  0.1997  1.6026
   16MOL0     H 2205   3.467   3.777  10.392 -0.3980 -1.4467 -0.3689
   16MOL0     H 2206   3.667   3.918  10.467  2.0981 -0.2561  0.5559
   16MOL0     H 2207   3.794   3.880  10.346 -1.0622 -0.8541  0.0029
   16MOL0     H 2208   3.738   4.040  10.384  3.2319 -1.2008  2.7116
   17MOL0     O 2209   6.916  10.387   5.950  1.2421  0.7371 -0.5221
   17MOL0     C 2210   7.034  10.420   5.949  0.6099 -0.0561 -0.4779
   17MOL0     O 2211   7.120  10.412   6.056 -0.8533  0.6279  0.4278
   17MOL0     C 2212   7.056  10.359   6.165  0.0465 -0.0227 -0.4520
   17MOL0     C 2213   7.004  10.226   6.183  0.0639  0.1330 -0.6542
   17MOL0     C 2214   6.935  10.197   6.300  0.3129 -0.9255 -0.0399
   17MOL0     C 2215   6.911  10.295   6.400  0.2680 -0.1790 -0.1336
   17MOL0     O 2216   6.834  10.276   6.510 -0.0124  0.3607  0.0485
   17MOL0     C 2217   6.822  10.143   6.559  0.4214 -0.7706 -0.1749
   17MOL0     C 2218   6.773  10.181   6.703 -0.2325  0.5183 -0.2498
   17MOL0     C 2219   6.880  10.145   6.804  0.7795  1.1051 -0.2093
   17MOL0     C 2220   6.837  10.228   6.924  0.1990 -0.2613 -1.4417
   17MOL0     C 2221   6.937  10.215   7.040 -0.8900 -0.0577  0.2003
   17MOL0     C 2222   6.903  10.320   7.154 -0.4837  0.3460  0.3356
   17MOL0     C 2223   6.936  10.260   7.295  0.5161  0.8881 -0.7427
   17MOL0     C 2224   6.966  10.375   7.392 -0.0239 -0.0234 -0.4008
   17MOL0     N 2225   7.018  10.327   7.521 -0.2115 -0.7861 -1.2723
   17MOL0     C 2226   6.948  10.317   7.634  0.1709 -0.4524 -0.6841
   17MOL0     C 2227   7.027  10.239   7.714  0.8833 -0.1303  0.4102
   17MOL0     C 2228   6.982  10.199   7.852 -0.3200 -0.1503 -0.4360
   17MOL0     C 2229   7.020  10.057   7.883  0.7670 -0.7827  0.9924
   17MOL0     C 2230   6.920   9.952   7.838  0.4237  0.9546  0.6316
   17MOL0     C 2231   6.914   9.930   7.684  0.1826 -0.2860 -0.7860
   17MOL0     O 2232   6.820   9.815   7.687  0.1349 -0.6344  0.2151
   17MOL0     C 2233   6.769   9.763   7.569  0.6039 -0.0352  0.3198
   17MOL0     C 2234   6.799   9.819   7.442 -0.4118  0.4645 -0.1655
   17MOL0     C 2235   6.745   9.769   7.323  0.4662 -0.2302  0.1040
   17MOL0     C 2236   6.788   9.828   7.192 -0.3452 -1.1324  0.3281
   17MOL0     C 2237   6.666   9.654   7.324  0.1323  0.4624 -0.4252
   17MOL0     C 2238   6.605   9.603   7.200  0.3374 -0.3189 -0.7473
   17MOL0     O 2239   6.600   9.464   7.201  0.3470 -0.4459 -0.9386
   17MOL0     C 2240   6.536   9.411   7.097 -0.5789 -0.2064  0.6525
   17MOL0     C 2241   6.589   9.386   6.973  0.8315 -0.8664 -0.4044
   17MOL0     C 2242   6.523   9.316   6.873 -0.3584 -0.0764 -0.7614
   17MOL0     C 2243   6.388   9.278   6.903  0.2227  0.1973  0.1469
   17MOL0     O 2244   6.304   9.196   6.820 -1.1964 -0.5860  0.3399
   17MOL0     C 2245   6.238   9.251   6.714 -0.3264 -0.8316  0.2701
   17MOL0     C 2246   6.338   9.324   6.624 -0.1308 -0.0040 -0.2768
   17MOL0     C 2247   6.282   9.386   6.500  0.2453 -0.7091 -0.4440
   17MOL0     C 2248   6.184   9.505   6.504 -0.6740  0.2374 -0.0230
   17MOL0     C 2249   6.152   9.571   6.367  0.6139  0.2855 -0.4504
   17MOL0     C 2250   6.066   9.706   6.384  0.8040 -0.0168  0.8712
   17MOL0     C 2251   6.055   9.768   6.240  1.2046 -0.1951 -0.4913
   17MOL0     C 2252   6.148   9.881   6.210 -0.6197 -0.1226 -1.5056
   17MOL0    Cl 2253   6.314   9.842   6.265  0.0375 -0.2202 -0.1023
   17MOL0     C 2254   6.333   9.306   7.025 -0.7142 -0.4935 -0.0468
   17MOL0     C 2255   6.406   9.373   7.122  1.0495  0.0679 -0.4391
   17MOL0     O 2256   6.545   9.679   7.118 -0.3326  0.2740 -0.8559
   17MOL0     C 2257   6.630   9.595   7.454 -0.4283  1.1707  0.4445
   17MOL0     C 2258   6.689   9.649   7.576  0.0696 -0.0727  0.1061
   17MOL0     N 2259   7.141  10.208   7.650 -0.0744 -0.1537  0.2684
   17MOL0     N 2260   7.134  10.258   7.534  0.3183 -0.5922 -0.2566
   17MOL0     C 2261   6.957  10.428   6.378  0.0328 -0.3667 -0.5333
   17MOL0     C 2262   7.035  10.465   6.270  0.7671  0.8629  0.6249
   17MOL0     C 2263   7.077  10.446   5.806 -0.9613 -0.9164 -0.7536
   17MOL0     C 2264   7.006  10.530   5.718  0.0621  0.2478  0.1598
   17MOL0     C 2265   7.045  10.565   5.588  0.1865 -0.2331 -1.0374
   17MOL0     C 2266   7.171  10.524   5.550  0.9613 -0.5083  0.9988
   17MOL0     O 2267   7.220  10.556   5.422  0.0890  0.2969 -0.5094
   17MOL0     C 2268   7.329  10.645   5.416  0.4698  0.6286 -0.5633
   17MOL0     C 2269   7.296  10.749   5.311 -0.3934  1.0411  0.0027
   17MOL0     C 2270   7.418  10.829   5.269 -0.6053  0.3018 -1.4206
   17MOL0     C 2271   7.485  10.912   5.382 -0.7173  0.0266  0.5499
   17MOL0     C 2272   7.595  10.990   5.331  0.1919 -0.7485  0.3143
   17MOL0     C 2273   7.693  11.039   5.280 -0.5593 -0.0619 -0.6520
   17MOL0     C 2274   7.246  10.459   5.636 -0.7277  0.3888  0.2846
   17MOL0     C 2275   7.203  10.414   5.759  0.2366 -0.3674 -0.7863
   17MOL0     C 2276   7.311  10.341   5.846 -0.1153 -0.2603  0.2997
   17MOL0     H 2277   7.014  10.160   6.097 -2.9092 -1.7660  0.2858
   17MOL0     H 2278   6.914  10.092   6.316  0.7682 -1.3129 -1.7902
   17MOL0     H 2279   6.920  10.096   6.569 -0.0100 -1.3132  1.9119
   17MOL0     H 2280   6.746  10.091   6.500 -0.3745 -0.5071  0.5922
   17MOL0     H 2281   6.732  10.281   6.712 -0.5059  0.3823  0.0466
   17MOL0     H 2282   6.686  10.115   6.709  0.8527 -1.0109 -0.6142
   17MOL0     H 2283   6.862  10.040   6.828  1.0149  0.4127 -2.8393
   17MOL0     H 2284   6.984  10.153   6.774  0.2989  1.0443 -1.9804
   17MOL0     H 2285   6.839  10.334   6.898 -1.5863 -0.7811 -4.2335
   17MOL0     H 2286   6.738  10.196   6.958  0.1167 -2.0322 -3.1105
   17MOL0     H 2287   7.040  10.234   7.007 -0.2878  0.5072  2.2476
   17MOL0     H 2288   6.938  10.117   7.088 -0.9100  1.1880  2.9553
   17MOL0     H 2289   6.961  10.408   7.121 -2.1894  1.2824 -0.2641
   17MOL0     H 2290   6.797  10.344   7.143 -0.1459  1.2732 -1.3437
   17MOL0     H 2291   7.031  10.208   7.290  0.7999  1.4269 -1.1436
   17MOL0     H 2292   6.864  10.188   7.335 -0.6549  2.2067 -0.3747
   17MOL0     H 2293   7.049  10.433   7.351  1.2348 -0.9683  0.6977
   17MOL0     H 2294   6.877  10.436   7.411 -1.0917 -2.2053  2.5311
   17MOL0     H 2295   6.852  10.359   7.659  0.8058  2.1214 -2.2352
   17MOL0     H 2296   6.873  10.211   7.853 -0.2454  0.8066  2.1999
   17MOL0     H 2297   7.016  10.260   7.936 -1.6305 -0.0718  0.0555
   17MOL0     H 2298   7.124  10.037   7.854  2.0391  2.6200  2.7094
   17MOL0     H 2299   7.015  10.040   7.990 -1.0952 -0.5920  0.9664
   17MOL0     H 2300   6.949   9.852   7.870 -1.4682 -0.6999 -2.4121
   17MOL0     H 2301   6.825   9.985   7.881  0.9612  2.7255  0.5463
   17MOL0     H 2302   6.884  10.018   7.626 -2.9456  0.7300  2.0339
   17MOL0     H 2303   7.010   9.887   7.655  0.8996  1.0518 -0.4729
   17MOL0     H 2304   6.860   9.908   7.429  1.5528 -0.8267 -0.3067
   17MOL0     H 2305   6.897   9.824   7.201 -0.4147 -0.4389  1.7327
   17MOL0     H 2306   6.758   9.933   7.189  1.9617 -0.1266  4.2140
   17MOL0     H 2307   6.755   9.784   7.098 -2.4652  0.5460  0.2236
   17MOL0     H 2308   6.691   9.420   6.954 -0.1931  4.5020  1.8055
   17MOL0     H 2309   6.571   9.297   6.778  1.7083  1.2817 -0.0332
   17MOL0     H 2310   6.197   9.171   6.651 -2.0084  0.3664 -0.2127
   17MOL0     H 2311   6.154   9.318   6.732 -3.0187 -3.4024 -1.7931
   17MOL0     H 2312   6.383   9.404   6.683  2.3615 -2.2406  1.0665
   17MOL0     H 2313   6.415   9.249   6.601  3.3833  1.7618  4.1782
   17MOL0     H 2314   6.230   9.311   6.440  0.5285 -1.4840  0.2650
   17MOL0     H 2315   6.368   9.424   6.444 -0.1010 -0.4461 -0.7983
   17MOL0     H 2316   6.222   9.581   6.574 -1.5001  1.3812 -0.7828
   17MOL0     H 2317   6.089   9.473   6.547 -1.3466 -0.2153 -1.7890
   17MOL0     H 2318   6.234   9.594   6.299 -0.7121 -2.6622 -3.3036
   17MOL0     H 2319   6.082   9.502   6.319 -1.4864  1.3301  0.9239
   17MOL0     H 2320   6.110   9.779   6.452 -0.6096  2.2011 -0.4728
   17MOL0     H 2321   5.962   9.678   6.408  0.8161 -0.0683  0.8637
   17MOL0     H 2322   5.952   9.805   6.230  0.4417 -2.4895 -1.8113
   17MOL0     H 2323   6.076   9.688   6.169  2.2600 -2.3562  2.0723
   17MOL0     H 2324   6.113   9.976   6.251 -0.5238  0.3199 -2.4141
   17MOL0     H 2325   6.133   9.896   6.103 -2.1156  4.2463 -0.8645
   17MOL0     H 2326   6.233   9.266   7.041 -0.0102 -1.9026  1.0893
   17MOL0     H 2327   6.365   9.390   7.221  0.6911 -4.6927  0.4758
   17MOL0     H 2328   6.579   9.499   7.465  2.1477 -0.1168  2.1992
   17MOL0     H 2329   6.652   9.601   7.667 -0.7256  1.9557  0.9030
   17MOL0     H 2330   6.929  10.500   6.454  2.4867 -0.7361  0.8373
   17MOL0     H 2331   7.072  10.566   6.257 -2.0125  1.7457 -1.4155
   17MOL0     H 2332   6.905  10.548   5.754 -0.8017 -3.3854 -0.1251
   17MOL0     H 2333   6.985  10.627   5.522 -0.6155 -0.6125 -0.6896
   17MOL0     H 2334   7.362  10.702   5.503  2.8312  2.5724 -2.5819
   17MOL0     H 2335   7.418  10.587   5.389  1.5223  2.6754 -1.8143
   17MOL0     H 2336   7.224  10.821   5.348 -0.0863  2.0286 -1.2465
   17MOL0     H 2337   7.254  10.695   5.225 -4.2828  0.3135  2.1249
   17MOL0     H 2338   7.495  10.760   5.233 -1.8495 -0.9089 -1.8648
   17MOL0     H 2339   7.374  10.891   5.191 -3.6577 -0.2396 -0.2843
   17MOL0     H 2340   7.520  10.853   5.468 -2.6525 -1.2024  0.5589
   17MOL0     H 2341   7.426  10.992   5.426  3.0331  3.2926  0.1951
   17MOL0     H 2342   7.787  11.067   5.237 -1.1437  2.5701 -0.3731
   17MOL0     H 2343   7.344  10.437   5.594 -1.9519  1.2201 -3.4194
   17MOL0     H 2344   7.403  10.347   5.787  1.1666 -1.1076  2.0960
   17MOL0     H 2345   7.333  10.394   5.940  0.3582  2.1173 -1.0797
   17MOL0     H 2346   7.287  10.235   5.860 -1.5294 -0.2455 -1.6523
   18MOL0     O 2347   6.975  11.108   4.390  0.0344 -0.3356  0.7285
   18MOL0     C 2348   6.880  11.037   4.427 -0.3076 -0.2296 -0.0348
   18MOL0     O 2349   6.892  10.952   4.531  0.2055  0.2455  0.6213
   18MOL0     C 2350   7.015  10.955   4.598  0.0393 -0.5099  0.3040
   18MOL0     C 2351   7.049  11.010   4.722  0.1461 -0.0144  0.4129
   18MOL0     C 2352   7.175  11.004   4.774 -0.2777 -0.0947  0.1767
   18MOL0     C 2353   7.277  10.943   4.706  0.5356 -0.5013 -0.2283
   18MOL0     O 2354   7.397  10.928   4.765  0.6901 -0.2258  0.5963
   18MOL0     C 2355   7.420  10.973   4.898 -0.7582  0.1974  0.3445
   18MOL0     C 2356   7.569  10.940   4.929  0.1578  0.3174  0.7986
   18MOL0     C 2357   7.595  10.796   4.920 -0.3022  0.2879  0.4771
   18MOL0     C 2358   7.722  10.766   4.995 -0.6580 -0.3455 -0.0472
   18MOL0     C 2359   7.758  10.608   4.995 -0.5608 -1.3591 -0.7745
   18MOL0     C 2360   7.680  10.544   5.098  0.1467 -0.2604 -0.5864
   18MOL0     C 2361   7.718  10.395   5.084  0.3060  0.4846  0.7724
   18MOL0     C 2362   7.642  10.313   5.194  0.1391  0.0999 -0.6401
   18MOL0     N 2363   7.666  10.365   5.333  0.5779 -0.8081  0.2847
   18MOL0     C 2364   7.793  10.383   5.390 -0.2567 -0.1839  0.5000
   18MOL0     C 2365   7.770  10.420   5.517  0.4683  0.0706  0.2655
   18MOL0     C 2366   7.862  10.418   5.627 -0.0965 -0.3851 -0.1744
   18MOL0     C 2367   7.801  10.488   5.741  0.0357  0.4933 -0.5395
   18MOL0     C 2368   7.728  10.396   5.835 -0.8472  0.1996  0.3354
   18MOL0     C 2369   7.654  10.476   5.940  0.5666  0.4728 -0.2290
   18MOL0     O 2370   7.582  10.392   6.027  0.2835  0.2197  0.4394
   18MOL0     C 2371   7.534  10.445   6.145  0.0892  0.4275  0.3193
   18MOL0     C 2372   7.453  10.365   6.227  0.2018 -0.2214  0.3810
   18MOL0     C 2373   7.407  10.415   6.351  0.5431  0.3392 -0.2459
   18MOL0     C 2374   7.335  10.315   6.438  0.2520 -0.8793  1.0784
   18MOL0     C 2375   7.434  10.551   6.387  0.3152 -0.3616  0.9937
   18MOL0     C 2376   7.380  10.618   6.515 -0.0309 -0.2324  0.9534
   18MOL0     O 2377   7.340  10.541   6.619 -0.1109  0.2000  0.0965
   18MOL0     C 2378   7.283  10.596   6.735  0.1664  0.0867  0.4501
   18MOL0     C 2379   7.203  10.718   6.740 -1.0338  0.1704  0.3998
   18MOL0     C 2380   7.101  10.736   6.843 -0.6135  0.3702 -0.1758
   18MOL0     C 2381   7.105  10.652   6.960  0.2634 -0.7589  0.2248
   18MOL0     O 2382   7.011  10.655   7.063  1.7400 -0.5422 -0.0865
   18MOL0     C 2383   6.903  10.761   7.053 -0.5525  0.3046  0.4480
   18MOL0     C 2384   6.797  10.773   7.176 -0.6768  0.2586 -0.0463
   18MOL0     C 2385   6.699  10.660   7.154 -0.2644 -1.1174  0.7183
   18MOL0     C 2386   6.583  10.625   7.249 -0.2801  0.4256 -0.1482
   18MOL0     C 2387   6.634  10.568   7.382  0.8640  0.4771 -0.8021
   18MOL0     C 2388   6.511  10.553   7.478 -1.4902 -0.4084  0.5736
   18MOL0     C 2389   6.547  10.487   7.614 -0.4441  0.7767  0.3125
   18MOL0     C 2390   6.551  10.332   7.606 -0.7001 -1.2704  0.3534
   18MOL0    Cl 2391   6.612  10.253   7.749 -0.1689 -0.1230 -0.0225
   18MOL0     C 2392   7.188  10.540   6.952  0.5658 -0.0099 -0.9551
   18MOL0     C 2393   7.274  10.507   6.844 -0.0279  0.1527  0.3016
   18MOL0     O 2394   7.373  10.741   6.509  0.6895  0.6420 -0.6417
   18MOL0     C 2395   7.528  10.625   6.319 -0.2241  0.4996  0.8472
   18MOL0     C 2396   7.573  10.572   6.196  1.0340 -0.3982 -0.0651
   18MOL0     N 2397   7.626  10.423   5.529  0.5900 -0.0535 -0.0553
   18MOL0     N 2398   7.567  10.377   5.426 -0.1580 -0.3021 -0.4262
   18MOL0     C 2399   7.245  10.880   4.582 -0.4871 -0.0121 -0.6097
   18MOL0     C 2400   7.111  10.892   4.531 -0.8281 -0.2535  0.6261
   18MOL0     C 2401   6.751  11.040   4.349 -0.0524 -0.1598  0.1168
   18MOL0     C 2402   6.657  10.942   4.380  0.0074  1.2510 -1.6772
   18MOL0     C 2403   6.537  10.925   4.305 -0.0500  0.1671 -0.5573
   18MOL0     C 2404   6.511  11.011   4.191 -0.0008 -0.1861 -0.1687
   18MOL0     O 2405   6.409  11.007   4.107 -0.5793 -0.4437 -0.3106
   18MOL0     C 2406   6.324  10.892   4.082  0.0867  0.3738  0.0337
   18MOL0     C 2407   6.402  10.783   4.015  0.1226  0.3603 -0.4283
   18MOL0     C 2408   6.303  10.685   3.956 -0.0271 -0.3954 -1.0040
   18MOL0     C 2409   6.378  10.554   3.905  0.3854 -0.8572  0.3352
   18MOL0     C 2410   6.441  10.574   3.775 -0.3881 -0.1464 -0.9449
   18MOL0     C 2411   6.507  10.602   3.678 -0.0014  0.5241  0.1961
   18MOL0     C 2412   6.605  11.108   4.171  0.3720 -0.4600 -0.3003
   18MOL0     C 2413   6.724  11.128   4.241  0.5205  0.3662  0.3437
   18MOL0     C 2414   6.808  11.243   4.198 -0.6583  0.2687 -0.6317
   18MOL0     H 2415   6.977  11.061   4.785  0.8511  1.2506  0.2175
   18MOL0     H 2416   7.186  11.035   4.878  0.6515 -3.1225  1.0761
   18MOL0     H 2417   7.343  10.928   4.961 -1.0529 -4.7466 -2.9530
   18MOL0     H 2418   7.407  11.081   4.898 -0.2094  0.3138  2.4866
   18MOL0     H 2419   7.626  10.993   4.852 -0.5396  1.5447  1.0932
   18MOL0     H 2420   7.605  10.967   5.028  1.6229  2.0561 -0.1500
   18MOL0     H 2421   7.510  10.736   4.954 -0.9374  0.3248 -0.9576
   18MOL0     H 2422   7.622  10.774   4.816  1.0537  0.0663  0.8566
   18MOL0     H 2423   7.795  10.826   4.939 -3.1614  2.1531 -0.8685
   18MOL0     H 2424   7.720  10.800   5.099 -0.9061  1.9325 -0.7349
   18MOL0     H 2425   7.865  10.594   5.013 -0.5713 -1.3116 -0.6774
   18MOL0     H 2426   7.735  10.569   4.895  1.3078 -1.2318 -1.2797
   18MOL0     H 2427   7.702  10.586   5.196 -1.1411 -0.0439 -0.3623
   18MOL0     H 2428   7.573  10.560   5.080  0.1873  0.1341 -0.4728
   18MOL0     H 2429   7.827  10.387   5.091  0.5349  2.1148 -0.3358
   18MOL0     H 2430   7.694  10.360   4.983  0.3875  2.2839  0.0955
   18MOL0     H 2431   7.539  10.301   5.161 -0.1518 -2.6391  0.8969
   18MOL0     H 2432   7.686  10.212   5.193  1.0753  0.4454  1.2732
   18MOL0     H 2433   7.886  10.364   5.338  0.6118  1.8575  1.2109
   18MOL0     H 2434   7.956  10.468   5.602  1.4096 -1.9464  1.9628
   18MOL0     H 2435   7.878  10.317   5.666  0.6773  0.3177  1.4565
   18MOL0     H 2436   7.881  10.533   5.801 -0.2880 -2.5810  2.5447
   18MOL0     H 2437   7.735  10.571   5.714  1.5552  1.8750 -0.1616
   18MOL0     H 2438   7.662  10.342   5.768 -1.7845  1.6817  0.0238
   18MOL0     H 2439   7.791  10.326   5.891 -2.9267 -3.4358 -1.5159
   18MOL0     H 2440   7.733  10.534   5.988  0.0246  1.3778 -0.4249
   18MOL0     H 2441   7.581  10.535   5.884  0.2508 -1.2940 -1.7743
   18MOL0     H 2442   7.424  10.263   6.206 -3.1865  0.5207  0.8396
   18MOL0     H 2443   7.393  10.286   6.527  0.4406 -2.5532  0.4514
   18MOL0     H 2444   7.309  10.226   6.380 -0.9359 -0.7967  1.4567
   18MOL0     H 2445   7.243  10.361   6.475  0.6983 -1.2795  2.8175
   18MOL0     H 2446   7.181  10.781   6.654 -2.8283 -0.7550  0.1359
   18MOL0     H 2447   7.021  10.809   6.830 -1.5121 -1.0885 -4.3852
   18MOL0     H 2448   6.958  10.855   7.043 -1.2928  0.7724  0.7067
   18MOL0     H 2449   6.853  10.750   6.956  2.0356 -0.0616 -0.9315
   18MOL0     H 2450   6.851  10.754   7.269 -1.5983  1.6106  0.7948
   18MOL0     H 2451   6.755  10.874   7.178 -0.3863  0.7415 -5.1573
   18MOL0     H 2452   6.746  10.562   7.146 -1.2232 -1.5116 -0.3387
   18MOL0     H 2453   6.661  10.686   7.055  0.7331  0.9298  0.8293
   18MOL0     H 2454   6.525  10.545   7.202 -2.2519  1.7992 -0.1788
   18MOL0     H 2455   6.505  10.701   7.260 -0.5498 -0.1366  2.4100
   18MOL0     H 2456   6.684  10.472   7.366  1.3931  0.0103  2.8201
   18MOL0     H 2457   6.707  10.634   7.430  1.2910  0.4098 -1.3547
   18MOL0     H 2458   6.434  10.488   7.435 -0.9792 -0.4029 -0.3904
   18MOL0     H 2459   6.477  10.657   7.479 -0.7640  0.1524 -4.5715
   18MOL0     H 2460   6.480  10.529   7.690  0.7851  2.7105  0.4139
   18MOL0     H 2461   6.647  10.525   7.640  0.6802 -1.7589 -0.0243
   18MOL0     H 2462   6.611  10.291   7.525 -1.9608  0.2239 -1.4107
   18MOL0     H 2463   6.450  10.311   7.571 -0.4978 -0.3832 -0.8216
   18MOL0     H 2464   7.189  10.470   7.035  0.9220 -1.3791 -2.0713
   18MOL0     H 2465   7.320  10.409   6.846  0.6437  0.4773  0.9162
   18MOL0     H 2466   7.573  10.717   6.356  2.5914 -1.3100  2.1749
   18MOL0     H 2467   7.640  10.643   6.150  0.5905  0.1154  0.0764
   18MOL0     H 2468   7.322  10.832   4.523 -0.2959  0.8259 -1.0653
   18MOL0     H 2469   7.085  10.837   4.441  1.3704 -0.8378  0.2881
   18MOL0     H 2470   6.671  10.875   4.465 -1.1218  2.4395 -0.5060
   18MOL0     H 2471   6.455  10.856   4.322  0.0451  0.5165  1.6330
   18MOL0     H 2472   6.280  10.851   4.173 -0.9688 -2.2123 -1.5166
   18MOL0     H 2473   6.237  10.920   4.023 -1.3573  0.1108  1.9488
   18MOL0     H 2474   6.467  10.728   4.084 -0.6723 -2.0089 -1.4848
   18MOL0     H 2475   6.467  10.815   3.934  3.7293  2.2745  2.8950
   18MOL0     H 2476   6.228  10.656   4.030 -1.8629 -1.2123 -3.0779
   18MOL0     H 2477   6.240  10.727   3.877 -1.4650  0.5162  0.5743
   18MOL0     H 2478   6.304  10.474   3.896  0.1748 -0.7599  1.1106
   18MOL0     H 2479   6.443  10.524   3.988  4.0964  1.4555 -1.4595
   18MOL0     H 2480   6.568  10.626   3.592 -0.7982  0.9156 -0.2730
   18MOL0     H 2481   6.582  11.181   4.094  1.1788  1.4352  1.1635
   18MOL0     H 2482   6.881  11.215   4.121 -1.7153 -1.4075 -1.0987
   18MOL0     H 2483   6.749  11.321   4.148 -0.8687  0.4757 -0.0648
   18MOL0     H 2484   6.869  11.285   4.278 -2.3602  0.0682  0.8455
   19MOL0     O 2485   1.549  11.075   8.184 -0.2231 -0.2016  0.2899
   19MOL0     C 2486   1.540  11.078   8.065 -1.4579  0.2036 -0.8520
   19MOL0     O 2487   1.442  11.128   7.990 -0.1908 -0.0694 -0.5691
   19MOL0     C 2488   1.330  11.169   8.069 -0.7526 -0.2755  0.5375
   19MOL0     C 2489   1.295  11.304   8.064  0.2235  0.6038 -0.1737
   19MOL0     C 2490   1.175  11.350   8.128  0.1288 -0.6807 -0.0780
   19MOL0     C 2491   1.093  11.252   8.192 -0.0251 -0.5503 -0.2463
   19MOL0     O 2492   0.984  11.288   8.257 -0.4717  0.1021 -0.5913
   19MOL0     C 2493   0.936  11.425   8.272 -0.1399  0.0865 -0.6356
   19MOL0     C 2494   0.802  11.444   8.343  0.1118  0.0614 -0.8016
   19MOL0     C 2495   0.760  11.602   8.349 -0.1656  0.3470  0.1489
   19MOL0     C 2496   0.766  11.676   8.213 -0.2505 -0.5150  0.7018
   19MOL0     C 2497   0.704  11.820   8.203  0.0497 -0.1967 -0.6737
   19MOL0     C 2498   0.566  11.814   8.265  0.7440 -0.1511  0.1318
   19MOL0     C 2499   0.479  11.926   8.221 -0.2032 -0.9046 -0.0690
   19MOL0     C 2500   0.332  11.909   8.280 -0.7279 -1.0594  0.6679
   19MOL0     N 2501   0.259  11.804   8.199  0.5101 -0.0256 -0.7616
   19MOL0     C 2502   0.218  11.673   8.241 -0.3457 -0.3899  0.3744
   19MOL0     C 2503   0.171  11.605   8.135  0.0540 -0.4540  0.6560
   19MOL0     C 2504   0.103  11.463   8.135 -0.7301  0.6949 -0.6637
   19MOL0     C 2505   0.069  11.431   7.991 -0.3319  0.9929  0.4546
   19MOL0     C 2506   0.066  11.281   7.965 -0.2722  0.0591  0.1111
   19MOL0     C 2507   0.022  11.231   7.831 -0.4297  0.2092  0.8635
   19MOL0     O 2508   0.080  11.099   7.812  0.5338  0.6302 -0.2119
   19MOL0     C 2509   0.050  11.028   7.701 -1.0353  0.3784 -0.1951
   19MOL0     C 2510  -0.024  11.072   7.592  0.1815 -0.0118 -0.2020
   19MOL0     C 2511  -0.044  10.991   7.479  0.8030  0.0119 -0.0328
   19MOL0     C 2512  -0.113  11.072   7.368  0.4569  0.7723 -0.6166
   19MOL0     C 2513   0.007  10.860   7.475 -0.0623 -1.1054 -0.7244
   19MOL0     C 2514  -0.013  10.766   7.373 -0.0540  0.7436  0.4119
   19MOL0     O 2515   0.074  10.659   7.373  0.1187  0.4475 -0.2578
   19MOL0     C 2516   0.031  10.535   7.321 -0.5789 -0.4920 -0.1003
   19MOL0     C 2517  -0.098  10.483   7.314  0.3050  0.7052 -0.3712
   19MOL0     C 2518  -0.114  10.358   7.267 -1.0566 -0.0691  0.2895
   19MOL0     C 2519  -0.006  10.283   7.209 -0.1472  0.9441  0.3140
   19MOL0     O 2520  -0.010  10.157   7.165 -0.0564 -0.2745  0.4431
   19MOL0     C 2521  -0.126  10.085   7.209  0.4049 -0.0435  0.0684
   19MOL0     C 2522  -0.110   9.943   7.152  0.8197 -0.4918 -0.8389
   19MOL0     C 2523  -0.222   9.845   7.212 -0.7362  0.7628  0.0136
   19MOL0     C 2524  -0.216   9.701   7.150  0.9147 -0.5313  0.6944
   19MOL0     C 2525  -0.149   9.600   7.237 -0.2914  0.2825  0.5478
   19MOL0     C 2526  -0.073   9.489   7.154  0.8240  0.0619  0.5256
   19MOL0     C 2527  -0.008   9.377   7.235 -0.0060  0.0145  1.0293
   19MOL0     C 2528   0.076   9.285   7.154 -1.0291  0.3378  0.2002
   19MOL0    Cl 2529  -0.032   9.191   7.047 -0.0568  0.6444 -0.1017
   19MOL0     C 2530   0.118  10.339   7.206 -0.6908  0.0307  0.2209
   19MOL0     C 2531   0.142  10.458   7.272 -0.2414  0.5823 -0.0812
   19MOL0     O 2532  -0.114  10.777   7.296  0.2217 -0.8121 -0.1213
   19MOL0     C 2533   0.075  10.812   7.590  0.3199  0.1975  0.3729
   19MOL0     C 2534   0.096  10.895   7.708 -0.0965  0.2444  0.8400
   19MOL0     N 2535   0.174  11.694   8.032  0.2929 -0.3665  0.4470
   19MOL0     N 2536   0.220  11.813   8.073  0.0500 -0.1084 -0.1081
   19MOL0     C 2537   1.122  11.116   8.190 -0.2202  0.3463 -0.8857
   19MOL0     C 2538   1.247  11.078   8.125 -0.0475 -0.6608 -0.3985
   19MOL0     C 2539   1.630  10.995   7.981  0.4457 -0.4451 -0.2833
   19MOL0     C 2540   1.579  10.957   7.861  0.4489 -0.1438  0.4349
   19MOL0     C 2541   1.645  10.861   7.782  0.2631 -0.3163  0.1192
   19MOL0     C 2542   1.769  10.815   7.824 -1.0603  0.4081  1.4764
   19MOL0     O 2543   1.827  10.723   7.730 -0.5262  0.0358 -0.5999
   19MOL0     C 2544   1.959  10.674   7.754  0.4691 -0.4885  0.6489
   19MOL0     C 2545   2.060  10.781   7.710 -0.7993  0.1646 -0.1471
   19MOL0     C 2546   2.070  10.791   7.549 -0.8652  0.5032  0.0477
   19MOL0     C 2547   2.141  10.918   7.500  0.6160 -0.4313 -0.2280
   19MOL0     C 2548   2.085  11.048   7.548 -0.0118  0.0590  0.2293
   19MOL0     C 2549   2.043  11.155   7.570  0.0871  0.1012 -0.0262
   19MOL0     C 2550   1.825  10.865   7.939 -0.5887 -0.2501  0.5549
   19MOL0     C 2551   1.758  10.946   8.020 -1.5811 -0.8367 -0.3518
   19MOL0     C 2552   1.833  10.996   8.136 -0.7485  0.4708  0.3152
   19MOL0     H 2553   1.353  11.377   8.008 -1.2705  2.9203  1.1276
   19MOL0     H 2554   1.140  11.453   8.122 -2.9636 -1.6563 -0.8286
   19MOL0     H 2555   0.909  11.456   8.170 -3.5604 -3.3830 -1.0096
   19MOL0     H 2556   1.014  11.491   8.313 -0.5836  0.1049  0.1943
   19MOL0     H 2557   0.724  11.394   8.285  0.7405 -0.4201 -1.2493
   19MOL0     H 2558   0.808  11.401   8.444  1.0759 -0.1217 -0.9253
   19MOL0     H 2559   0.658  11.615   8.387  0.4446  0.8210  1.7221
   19MOL0     H 2560   0.822  11.662   8.417 -0.3884  1.4410 -0.5894
   19MOL0     H 2561   0.872  11.688   8.189  0.1448  0.0121  2.5040
   19MOL0     H 2562   0.717  11.622   8.133 -0.8932 -0.0138  0.7509
   19MOL0     H 2563   0.693  11.848   8.098 -5.9308  0.0673 -0.2870
   19MOL0     H 2564   0.764  11.904   8.242 -0.6970  0.7910 -1.5816
   19MOL0     H 2565   0.517  11.720   8.241 -0.1003 -0.4624  2.7715
   19MOL0     H 2566   0.582  11.809   8.373  3.3354 -3.5618 -0.2407
   19MOL0     H 2567   0.478  11.934   8.112 -1.8917 -0.9345 -0.0837
   19MOL0     H 2568   0.534  12.017   8.246  0.7243 -1.2920 -0.6357
   19MOL0     H 2569   0.336  11.888   8.388 -0.9830 -1.8279  0.5342
   19MOL0     H 2570   0.279  12.005   8.269 -0.4240 -1.1435 -2.0426
   19MOL0     H 2571   0.214  11.636   8.343 -1.7635  0.7147  0.7636
   19MOL0     H 2572   0.017  11.461   8.202 -1.3200 -3.2242 -1.3456
   19MOL0     H 2573   0.176  11.399   8.185 -1.6537 -0.4043 -0.6968
   19MOL0     H 2574  -0.020  11.490   7.968 -1.3081 -0.2905  0.8244
   19MOL0     H 2575   0.144  11.474   7.925 -0.1937 -0.2542 -0.2321
   19MOL0     H 2576   0.163  11.233   7.979 -0.1492  0.8647  2.4325
   19MOL0     H 2577  -0.007  11.236   8.033  0.0711 -1.2625 -0.3664
   19MOL0     H 2578  -0.086  11.227   7.812 -0.2868  0.1923  0.0600
   19MOL0     H 2579   0.067  11.295   7.755  0.1254 -1.9294 -0.7078
   19MOL0     H 2580  -0.075  11.168   7.593  1.4713  0.7565 -2.0711
   19MOL0     H 2581  -0.221  11.055   7.363  0.2392  1.6843  0.5141
   19MOL0     H 2582  -0.063  11.029   7.281  0.5133  0.6592 -0.5280
   19MOL0     H 2583  -0.097  11.180   7.370 -2.2746  1.2870 -1.3783
   19MOL0     H 2584  -0.189  10.523   7.358  0.3639 -1.2041  1.6743
   19MOL0     H 2585  -0.213  10.316   7.277 -0.9286 -0.6274 -0.6762
   19MOL0     H 2586  -0.130  10.080   7.318  2.0008  1.7297  0.2529
   19MOL0     H 2587  -0.218  10.130   7.171 -0.3323 -1.4562  0.1060
   19MOL0     H 2588  -0.107   9.940   7.043  2.0178 -0.7090 -0.8136
   19MOL0     H 2589  -0.006   9.919   7.174  0.4834  0.1418  1.8135
   19MOL0     H 2590  -0.319   9.894   7.196 -0.2184  2.6114  2.0625
   19MOL0     H 2591  -0.211   9.849   7.321  2.5227  1.9563 -0.2551
   19MOL0     H 2592  -0.148   9.706   7.065 -0.3189  0.9053 -0.2626
   19MOL0     H 2593  -0.315   9.662   7.124  0.3877  2.5475 -2.8107
   19MOL0     H 2594  -0.092   9.666   7.303  2.3285  0.2814 -1.5496
   19MOL0     H 2595  -0.229   9.540   7.282  1.2892 -0.8991  1.9247
   19MOL0     H 2596  -0.003   9.521   7.076 -2.1681  1.7204 -1.6746
   19MOL0     H 2597  -0.155   9.434   7.107 -0.2799  2.8676 -1.0373
   19MOL0     H 2598  -0.078   9.314   7.291  1.6300 -1.1824  1.8325
   19MOL0     H 2599   0.060   9.427   7.304  2.3156 -2.2691  0.5774
   19MOL0     H 2600   0.138   9.223   7.219  1.6607  0.7867 -1.7422
   19MOL0     H 2601   0.156   9.325   7.090 -0.8375 -0.1857  0.1105
   19MOL0     H 2602   0.197  10.278   7.161 -1.6582  0.9998 -3.0592
   19MOL0     H 2603   0.244  10.495   7.267 -0.2278  0.8312  1.7095
   19MOL0     H 2604   0.112  10.711   7.578 -0.0812  0.1340 -0.3865
   19MOL0     H 2605   0.136  10.846   7.796 -0.0110  2.6268  2.2268
   19MOL0     H 2606   1.055  11.037   8.222 -0.3190 -0.6970 -3.4525
   19MOL0     H 2607   1.286  10.977   8.115  0.5259 -0.4362 -0.4766
   19MOL0     H 2608   1.483  10.983   7.820  0.9540  2.9181  0.9715
   19MOL0     H 2609   1.608  10.819   7.689  1.4417 -1.2767  0.0541
   19MOL0     H 2610   1.976  10.631   7.853 -0.4141 -1.5327  0.3668
   19MOL0     H 2611   1.976  10.579   7.702 -2.2669 -0.7698  0.1227
   19MOL0     H 2612   2.160  10.765   7.751  0.5346  3.1016 -1.9351
   19MOL0     H 2613   2.026  10.880   7.742 -1.2486  0.6529 -2.0058
   19MOL0     H 2614   2.127  10.702   7.524 -0.0515  0.3483  2.2478
   19MOL0     H 2615   1.968  10.780   7.509  0.3136 -2.0657 -2.5531
   19MOL0     H 2616   2.128  10.925   7.392 -0.8910  1.1715  0.0031
   19MOL0     H 2617   2.247  10.913   7.526  0.1509 -3.3610  1.6528
   19MOL0     H 2618   2.033  11.259   7.593  1.0697  0.0399  0.7689
   19MOL0     H 2619   1.931  10.847   7.955 -0.2366  1.7246  0.6359
   19MOL0     H 2620   1.930  11.037   8.108 -1.2996  0.3802 -1.9669
   19MOL0     H 2621   1.779  11.073   8.191 -2.4222  0.0844 -0.6933
   19MOL0     H 2622   1.843  10.914   8.207  0.8654  1.4966  1.3133
   20MOL0     O 2623   8.450   7.568   3.838  0.8699  1.1463 -0.1244
   20MOL0     C 2624   8.422   7.553   3.718 -0.3604 -0.3455 -0.7187
   20MOL0     O 2625   8.430   7.656   3.621 -0.5202  0.2199 -0.5245
   20MOL0     C 2626   8.433   7.786   3.658 -0.3061  0.5328 -0.3037
   20MOL0     C 2627   8.534   7.864   3.606 -0.6976 -0.7844  0.2729
   20MOL0     C 2628   8.547   8.000   3.645  0.1455  0.2494 -0.4096
   20MOL0     C 2629   8.457   8.054   3.747 -1.2040  0.1205  0.8123
   20MOL0     O 2630   8.456   8.183   3.794  0.5937 -0.4163 -0.7525
   20MOL0     C 2631   8.564   8.271   3.766 -0.3897  0.8719  1.8594
   20MOL0     C 2632   8.581   8.361   3.878 -0.0074  0.1092 -0.6855
   20MOL0     C 2633   8.682   8.480   3.844  0.2544  0.5299  0.4541
   20MOL0     C 2634   8.662   8.599   3.932  0.5555 -0.5584 -0.3293
   20MOL0     C 2635   8.762   8.700   3.900 -0.2838 -0.7791 -0.2597
   20MOL0     C 2636   8.793   8.809   4.008  0.6069 -0.4201 -0.7460
   20MOL0     C 2637   8.855   8.928   3.952 -0.0785 -0.3050 -0.4126
   20MOL0     C 2638   8.894   9.025   4.054  0.0514  0.9580 -0.1750
   20MOL0     N 2639   8.934   9.162   4.002  0.2438 -0.0024  0.3217
   20MOL0     C 2640   8.945   9.278   4.084  0.9792  0.3662 -0.0126
   20MOL0     C 2641   8.997   9.378   4.003 -0.0793  0.3742  1.4145
   20MOL0     C 2642   9.028   9.522   4.021  0.3811  0.4335  0.0704
   20MOL0     C 2643   8.960   9.596   4.139 -0.4153 -0.2838  0.1312
   20MOL0     C 2644   8.809   9.580   4.164  0.3073 -0.0141  0.7363
   20MOL0     C 2645   8.725   9.656   4.053 -0.0885  0.6364  0.2324
   20MOL0     O 2646   8.740   9.792   4.088  0.0272  0.4057 -0.2050
   20MOL0     C 2647   8.670   9.893   4.024  0.4025  0.4264 -0.3755
   20MOL0     C 2648   8.607   9.880   3.894  0.3141  0.0933  0.1295
   20MOL0     C 2649   8.549   9.983   3.822  0.2890  0.0668  0.4019
   20MOL0     C 2650   8.505   9.964   3.682  0.3918 -0.7395 -0.4218
   20MOL0     C 2651   8.557  10.111   3.879  0.5822 -0.1686 -0.5814
   20MOL0     C 2652   8.483  10.237   3.844 -0.4119  0.7411 -0.1071
   20MOL0     O 2653   8.393  10.286   3.927 -0.1476 -0.3812 -0.4451
   20MOL0     C 2654   8.354  10.409   3.902  1.1947  0.5860 -0.1214
   20MOL0     C 2655   8.415  10.510   3.969  0.1407  0.4942 -0.2647
   20MOL0     C 2656   8.350  10.634   3.983 -0.8748  0.2055 -0.2222
   20MOL0     C 2657   8.247  10.666   3.896 -0.2736  0.7103  0.3783
   20MOL0     O 2658   8.218  10.801   3.888  0.2032  0.3922 -0.0693
   20MOL0     C 2659   8.123  10.844   3.792 -0.1597  1.3296  0.1199
   20MOL0     C 2660   8.128  10.994   3.772  0.6534  0.7156 -0.0626
   20MOL0     C 2661   8.137  11.053   3.635 -0.6475 -0.0014  0.0721
   20MOL0     C 2662   8.268  11.044   3.563 -0.2689  0.4479  0.6232
   20MOL0     C 2663   8.288  11.163   3.468 -0.2068 -0.0051 -0.4262
   20MOL0     C 2664   8.202  11.153   3.335 -0.1296 -0.0620  0.2085
   20MOL0     C 2665   8.241  11.247   3.223  0.6817  0.5240 -0.4495
   20MOL0     C 2666   8.137  11.234   3.104  0.1600  0.5466  0.0841
   20MOL0    Cl 2667   7.985  11.329   3.114 -0.3705 -0.1443 -0.3443
   20MOL0     C 2668   8.189  10.557   3.821  0.0694 -0.2329 -0.8723
   20MOL0     C 2669   8.236  10.427   3.830  1.0872 -0.1611 -0.7408
   20MOL0     O 2670   8.512  10.286   3.735  0.2672  0.0965 -0.9329
   20MOL0     C 2671   8.624  10.127   4.004 -0.0719  0.5026 -1.1665
   20MOL0     C 2672   8.672  10.015   4.076  0.1556 -0.3867  0.0090
   20MOL0     N 2673   9.012   9.322   3.875  0.1337 -0.6517 -0.1582
   20MOL0     N 2674   8.976   9.196   3.876  0.4298 -0.1911  0.1454
   20MOL0     C 2675   8.353   7.971   3.794 -0.3733 -0.0714  0.0971
   20MOL0     C 2676   8.339   7.843   3.744  0.7661 -1.3805  0.6679
   20MOL0     C 2677   8.393   7.416   3.661 -0.1317 -0.4554 -0.6265
   20MOL0     C 2678   8.425   7.397   3.527 -0.2322 -0.1238 -0.0479
   20MOL0     C 2679   8.398   7.270   3.472  0.4647 -0.2002 -0.1628
   20MOL0     C 2680   8.334   7.171   3.541 -0.6275 -0.6503 -0.0393
   20MOL0     O 2681   8.306   7.038   3.494  0.6296 -0.0928 -0.4316
   20MOL0     C 2682   8.315   7.017   3.354  0.5510  0.7330  0.4147
   20MOL0     C 2683   8.233   6.884   3.330 -0.0480  0.1316 -0.0784
   20MOL0     C 2684   8.270   6.751   3.412  0.2181  0.3020 -0.0692
   20MOL0     C 2685   8.205   6.634   3.358 -1.2181  0.1862 -0.0293
   20MOL0     C 2686   8.064   6.633   3.391  0.3643  0.2581  1.0743
   20MOL0     C 2687   7.944   6.643   3.421 -0.0241 -0.1780  0.2484
   20MOL0     C 2688   8.317   7.188   3.674 -0.3045  0.1250  0.6689
   20MOL0     C 2689   8.339   7.308   3.737 -1.7443 -0.8686  0.1268
   20MOL0     C 2690   8.309   7.304   3.884 -0.0834 -0.0715  0.1973
   20MOL0     H 2691   8.592   7.814   3.529 -2.4972 -0.2170 -1.5456
   20MOL0     H 2692   8.627   8.059   3.599 -1.4435  0.7087 -2.7622
   20MOL0     H 2693   8.543   8.330   3.676 -0.0903 -2.3418 -0.4968
   20MOL0     H 2694   8.655   8.215   3.746 -1.0866 -0.6344  2.7681
   20MOL0     H 2695   8.486   8.406   3.908  0.6804  2.6592 -2.0981
   20MOL0     H 2696   8.621   8.305   3.963 -0.3080  2.0894  0.8098
   20MOL0     H 2697   8.782   8.439   3.862  0.5275  0.9829 -0.0164
   20MOL0     H 2698   8.672   8.507   3.739 -3.0064  3.1772  1.2764
   20MOL0     H 2699   8.561   8.639   3.918  0.5301 -0.2571  0.6304
   20MOL0     H 2700   8.673   8.566   4.036  3.5969  0.9028 -0.0926
   20MOL0     H 2701   8.719   8.755   3.815  1.3963  2.3907  0.7839
   20MOL0     H 2702   8.846   8.656   3.846  0.0753  1.0529 -1.3034
   20MOL0     H 2703   8.702   8.837   4.062 -0.3481 -0.8856 -2.0510
   20MOL0     H 2704   8.869   8.781   4.081  1.2550 -0.2328 -1.3318
   20MOL0     H 2705   8.779   8.979   3.893 -1.5165 -0.3686  1.2838
   20MOL0     H 2706   8.946   8.902   3.898 -0.0396 -3.4722  0.9159
   20MOL0     H 2707   8.811   9.040   4.124 -0.2537 -0.1456 -0.2939
   20MOL0     H 2708   8.980   8.989   4.112 -1.2528  0.5156  1.5663
   20MOL0     H 2709   8.917   9.278   4.188 -2.2955  0.3007 -0.7836
   20MOL0     H 2710   9.013   9.584   3.932  0.8284  0.7859  0.2326
   20MOL0     H 2711   9.136   9.515   4.041  0.8759 -0.1530 -2.4288
   20MOL0     H 2712   9.017   9.550   4.219 -1.6352  1.0118  1.8361
   20MOL0     H 2713   8.994   9.700   4.149 -1.4152  0.0232  0.5587
   20MOL0     H 2714   8.786   9.474   4.153  2.6477 -0.4698 -0.5354
   20MOL0     H 2715   8.776   9.605   4.265 -3.4117  1.9013 -0.7409
   20MOL0     H 2716   8.761   9.628   3.954 -2.2557 -1.7333  0.0047
   20MOL0     H 2717   8.621   9.623   4.049  0.2912 -0.5766 -0.0149
   20MOL0     H 2718   8.615   9.781   3.851 -1.5059 -0.5220  1.1179
   20MOL0     H 2719   8.486  10.051   3.618 -0.2845 -2.2474 -2.3518
   20MOL0     H 2720   8.413   9.905   3.684  0.1191 -0.7243  5.6253
   20MOL0     H 2721   8.581   9.907   3.626  1.7788  1.0966 -0.5139
   20MOL0     H 2722   8.506  10.485   4.023  1.3229 -0.8873 -2.6818
   20MOL0     H 2723   8.384  10.704   4.059 -3.9101 -0.7392  2.2283
   20MOL0     H 2724   8.138  10.787   3.700  0.7784 -2.4064  2.3665
   20MOL0     H 2725   8.025  10.812   3.829 -0.1417  1.4475  0.2762
   20MOL0     H 2726   8.029  11.021   3.808  0.9709  1.4216  0.2922
   20MOL0     H 2727   8.194  11.036   3.848 -1.6606  0.2326  2.3403
   20MOL0     H 2728   8.131  11.161   3.652 -1.1390 -0.0009 -0.1035
   20MOL0     H 2729   8.055  11.013   3.575  0.3253 -1.8747 -0.0912
   20MOL0     H 2730   8.269  10.948   3.510 -3.5593 -0.0886  1.3723
   20MOL0     H 2731   8.334  11.038   3.650 -1.2470  0.3494  1.3754
   20MOL0     H 2732   8.259  11.256   3.520  0.6782 -0.5459  1.1117
   20MOL0     H 2733   8.392  11.167   3.434 -0.4199 -0.4975 -1.1380
   20MOL0     H 2734   8.094  11.162   3.349 -0.8757 -1.5756 -3.2498
   20MOL0     H 2735   8.222  11.053   3.293 -1.1355  0.1076 -0.7100
   20MOL0     H 2736   8.342  11.236   3.184  0.1150  0.3592 -1.9153
   20MOL0     H 2737   8.236  11.350   3.258 -0.8239  1.2026 -2.4715
   20MOL0     H 2738   8.100  11.132   3.085  0.3210  0.4538  0.2646
   20MOL0     H 2739   8.184  11.268   3.011 -0.6901 -0.1317 -0.6178
   20MOL0     H 2740   8.097  10.555   3.762  0.6400 -0.2142 -1.7878
   20MOL0     H 2741   8.186  10.342   3.784 -2.7540  1.4178  0.1356
   20MOL0     H 2742   8.644  10.227   4.042  1.3886 -0.6605  1.3456
   20MOL0     H 2743   8.730  10.035   4.166 -1.7213  3.1099  0.6567
   20MOL0     H 2744   8.295   8.018   3.873  0.1487  1.7797 -0.5816
   20MOL0     H 2745   8.248   7.789   3.766  0.6079 -1.6078 -0.4917
   20MOL0     H 2746   8.489   7.468   3.475  1.2535 -1.2938  0.0934
   20MOL0     H 2747   8.410   7.267   3.364  0.8016 -3.0684 -0.1298
   20MOL0     H 2748   8.268   7.097   3.296  2.0288  0.9016 -0.6047
   20MOL0     H 2749   8.418   7.018   3.319  1.1879  4.0217  1.9057
   20MOL0     H 2750   8.241   6.852   3.225 -0.2788 -2.9795  0.7525
   20MOL0     H 2751   8.129   6.909   3.350 -0.5569 -2.2912  0.6271
   20MOL0     H 2752   8.377   6.735   3.424  0.1064  0.6153  1.6546
   20MOL0     H 2753   8.238   6.774   3.514  1.1699  2.2349 -0.1703
   20MOL0     H 2754   8.237   6.538   3.400 -3.5250 -1.2401 -1.3160
   20MOL0     H 2755   8.216   6.629   3.249 -0.1898  1.7085 -0.0255
   20MOL0     H 2756   7.839   6.658   3.434 -0.2076 -0.9003 -0.3590
   20MOL0     H 2757   8.266   7.112   3.733 -3.1736  1.2201 -0.2498
   20MOL0     H 2758   8.262   7.209   3.910  0.8346  0.0963  2.7348
   20MOL0     H 2759   8.399   7.308   3.946  0.0671  2.8494 -0.1031
   20MOL0     H 2760   8.244   7.387   3.912  1.4971  1.1524  0.3443
   21MOL0     O 2761  11.089   8.356   9.910  0.4735  0.7364 -0.1394
   21MOL0     C 2762  11.066   8.466   9.957  0.0417  0.0719  0.0326
   21MOL0     O 2763  11.021   8.488  10.082  0.0455 -0.4709  0.3745
   21MOL0     C 2764  10.976   8.378  10.156 -0.4647  0.5592 -0.6798
   21MOL0     C 2765  11.054   8.336  10.258 -0.0424 -0.1361  0.2352
   21MOL0     C 2766  11.001   8.241  10.354  1.2862  0.4728 -0.6545
   21MOL0     C 2767  10.875   8.178  10.345 -0.7748  0.0556  0.3118
   21MOL0     O 2768  10.813   8.100  10.440 -0.2540 -0.3637 -1.0547
   21MOL0     C 2769  10.889   8.002  10.511  0.5746 -0.5179  0.3201
   21MOL0     C 2770  10.925   7.873  10.440 -0.2187 -0.6181  0.1741
   21MOL0     C 2771  10.805   7.807  10.393 -0.2051 -0.5254  0.0533
   21MOL0     C 2772  10.765   7.703  10.497 -0.3676  0.1475  1.6329
   21MOL0     C 2773  10.621   7.633  10.481  0.0801  0.8376 -0.1672
   21MOL0     C 2774  10.520   7.689  10.585  1.1625  0.4690  0.4870
   21MOL0     C 2775  10.376   7.625  10.594 -0.3997  0.5148  0.3102
   21MOL0     C 2776  10.315   7.680  10.721  0.5585 -0.4145  0.0575
   21MOL0     N 2777  10.170   7.653  10.734 -0.0686 -0.1720  0.0406
   21MOL0     C 2778  10.106   7.537  10.781  0.5989  0.2173  0.2276
   21MOL0     C 2779   9.985   7.576  10.809  0.4581  0.2810 -1.4018
   21MOL0     C 2780   9.874   7.496  10.880  0.1190  0.0055 -0.1304
   21MOL0     C 2781   9.724   7.518  10.837 -0.3818  0.7207 -0.2404
   21MOL0     C 2782   9.695   7.541  10.685  0.2114  1.4885 -0.5065
   21MOL0     C 2783   9.748   7.422  10.602  0.9953 -0.8529  0.5616
   21MOL0     O 2784   9.743   7.292  10.664  0.1667  0.4867  1.2132
   21MOL0     C 2785   9.789   7.187  10.586 -0.6450 -0.2045 -0.2410
   21MOL0     C 2786   9.783   7.066  10.658 -0.6708  0.2385  0.0879
   21MOL0     C 2787   9.828   6.954  10.591  0.4619  0.4061 -0.3210
   21MOL0     C 2788   9.786   6.832  10.660 -0.0213  0.0536  0.0025
   21MOL0     C 2789   9.884   6.959  10.461 -0.3092 -0.3942 -0.9687
   21MOL0     C 2790   9.961   6.848  10.395  0.4332  0.0782  0.4441
   21MOL0     O 2791   9.965   6.721  10.442 -0.3097  0.2468 -0.5365
   21MOL0     C 2792  10.056   6.641  10.380  0.7411 -0.0527  0.1979
   21MOL0     C 2793  10.005   6.566  10.276  0.4254  0.8037 -1.4055
   21MOL0     C 2794  10.098   6.512  10.183  1.1741  0.0164 -0.1870
   21MOL0     C 2795  10.236   6.510  10.213  0.0964 -0.4168 -0.9751
   21MOL0     O 2796  10.317   6.431  10.137  0.0355 -0.6465 -0.1223
   21MOL0     C 2797  10.452   6.396  10.177 -0.1811  0.5443  0.3864
   21MOL0     C 2798  10.549   6.517  10.135 -0.1929  0.3436 -0.2130
   21MOL0     C 2799  10.681   6.470  10.086  0.3232 -0.8425 -0.8703
   21MOL0     C 2800  10.752   6.589  10.018  0.1161  0.0802 -0.8396
   21MOL0     C 2801  10.893   6.562   9.976  0.2181  1.3065  1.3474
   21MOL0     C 2802  10.939   6.672   9.873  0.0766 -0.6281 -0.6150
   21MOL0     C 2803  11.097   6.648   9.848  0.3963  0.1984 -0.8517
   21MOL0     C 2804  11.155   6.786   9.796 -0.8908 -0.1555  0.7267
   21MOL0    Cl 2805  11.143   6.903   9.922  0.3680  0.2727 -0.5063
   21MOL0     C 2806  10.281   6.587  10.326  0.3250 -0.7716 -0.8418
   21MOL0     C 2807  10.191   6.656  10.405  0.3826 -0.8727 -0.4989
   21MOL0     O 2808  10.002   6.876  10.281  1.0800 -0.0157  0.2920
   21MOL0     C 2809   9.890   7.083  10.398 -0.8718  0.4171 -0.1684
   21MOL0     C 2810   9.842   7.192  10.457  0.3256 -0.3880 -1.6779
   21MOL0     N 2811   9.969   7.714  10.783  1.5864  0.2244 -0.6521
   21MOL0     N 2812  10.083   7.756  10.742  0.1568 -0.1714  0.1975
   21MOL0     C 2813  10.797   8.229  10.235  0.0521  0.3965  0.4070
   21MOL0     C 2814  10.849   8.318  10.138 -0.3578  0.1530  0.1492
   21MOL0     C 2815  11.109   8.587   9.886 -0.5053 -0.0278 -0.0914
   21MOL0     C 2816  11.159   8.690   9.960 -0.4004 -0.5025 -0.0794
   21MOL0     C 2817  11.184   8.816   9.917 -0.0386 -0.6069 -0.1715
   21MOL0     C 2818  11.174   8.836   9.778  0.0983 -1.0092  0.8259
   21MOL0     O 2819  11.203   8.948   9.712 -0.1433 -0.2588  0.2991
   21MOL0     C 2820  11.217   9.063   9.794 -0.1310 -0.2673 -0.6320
   21MOL0     C 2821  11.195   9.186   9.696  0.3454 -0.5001 -0.7191
   21MOL0     C 2822  11.061   9.182   9.621  0.5672  0.3461 -0.6186
   21MOL0     C 2823  11.040   9.326   9.576 -0.0036  0.4964 -0.3122
   21MOL0     C 2824  10.930   9.331   9.482 -0.0681  0.1221 -0.4431
   21MOL0     C 2825  10.852   9.333   9.390  0.7571  0.5949  0.4756
   21MOL0     C 2826  11.126   8.736   9.695  0.6437 -0.2869  0.2834
   21MOL0     C 2827  11.091   8.609   9.747 -0.1112 -0.1580  0.4791
   21MOL0     C 2828  11.024   8.518   9.649  0.4637  1.0407  0.8124
   21MOL0     H 2829  11.146   8.391  10.273  0.8145 -1.6696  0.9442
   21MOL0     H 2830  11.070   8.215  10.434 -0.6965  1.2818  1.4131
   21MOL0     H 2831  10.829   7.970  10.597  0.8987 -0.0542  0.7198
   21MOL0     H 2832  10.972   8.055  10.558 -3.2918  7.4095 -0.1985
   21MOL0     H 2833  10.988   7.877  10.350  0.2609 -0.5314  0.5126
   21MOL0     H 2834  10.983   7.814  10.511 -1.2807 -3.1796 -0.9770
   21MOL0     H 2835  10.722   7.877  10.382  0.5723  1.1718  3.3447
   21MOL0     H 2836  10.839   7.768  10.297  1.5565 -0.1586  0.4784
   21MOL0     H 2837  10.829   7.615  10.482 -2.3527 -1.2292  0.8213
   21MOL0     H 2838  10.778   7.742  10.599  2.6559  1.2352  0.9343
   21MOL0     H 2839  10.626   7.523  10.481  0.1054  0.8382 -0.5318
   21MOL0     H 2840  10.592   7.660  10.379  0.9648 -0.4946 -0.8055
   21MOL0     H 2841  10.568   7.669  10.682  2.7522 -2.6463 -0.8038
   21MOL0     H 2842  10.513   7.799  10.580  1.7332  0.5790  1.7229
   21MOL0     H 2843  10.384   7.517  10.607  3.8172  0.3610 -1.8893
   21MOL0     H 2844  10.309   7.654  10.513 -0.9968  0.7149  0.8657
   21MOL0     H 2845  10.362   7.629  10.807 -0.1205  0.8978  1.2404
   21MOL0     H 2846  10.325   7.788  10.731  2.3525 -0.5101 -0.3647
   21MOL0     H 2847  10.137   7.433  10.782 -0.1443 -0.0101  0.6755
   21MOL0     H 2848   9.881   7.542  10.979  1.1287  3.0487 -1.4705
   21MOL0     H 2849   9.899   7.390  10.885  0.4149  0.0713 -0.2069
   21MOL0     H 2850   9.672   7.431  10.877 -1.8981  1.6707 -0.0693
   21MOL0     H 2851   9.694   7.616  10.875  0.8579  1.1702 -0.3564
   21MOL0     H 2852   9.588   7.561  10.671 -0.1378  1.7440  1.9622
   21MOL0     H 2853   9.746   7.632  10.651 -0.8301  1.2276 -2.9141
   21MOL0     H 2854   9.687   7.410  10.512 -1.2066 -0.7954  1.9815
   21MOL0     H 2855   9.843   7.453  10.557 -1.1038  2.0178 -2.4086
   21MOL0     H 2856   9.748   7.070  10.761 -2.2978  0.8724 -0.4605
   21MOL0     H 2857   9.697   6.784  10.620  1.2788 -1.5338 -1.1440
   21MOL0     H 2858   9.759   6.835  10.766 -3.2440 -4.1123 -0.4333
   21MOL0     H 2859   9.867   6.762  10.635 -0.3770  0.8887 -4.2209
   21MOL0     H 2860   9.902   6.531  10.271  0.0331  1.5101  0.8541
   21MOL0     H 2861  10.053   6.463  10.097  1.8954  0.6424 -0.9465
   21MOL0     H 2862  10.462   6.367  10.281  1.5361  1.5387  0.5405
   21MOL0     H 2863  10.471   6.305  10.120 -1.7626 -0.2279  1.0669
   21MOL0     H 2864  10.501   6.574  10.056 -2.1968  0.9875  1.3782
   21MOL0     H 2865  10.563   6.573  10.228 -0.7116 -0.3713  0.3057
   21MOL0     H 2866  10.665   6.391  10.012  3.0131 -2.8484  0.5285
   21MOL0     H 2867  10.743   6.437  10.170  1.3509 -2.1769 -2.1108
   21MOL0     H 2868  10.759   6.671  10.089  1.5085 -2.9833  2.8703
   21MOL0     H 2869  10.700   6.625   9.928  2.2693  0.5990 -1.9389
   21MOL0     H 2870  10.961   6.567  10.062  0.5472  1.6442  1.0745
   21MOL0     H 2871  10.908   6.465   9.928 -1.1132  1.1583  1.1935
   21MOL0     H 2872  10.908   6.763   9.925  0.6195 -1.3861  1.0994
   21MOL0     H 2873  10.892   6.673   9.774 -0.2548  0.8946 -0.4670
   21MOL0     H 2874  11.111   6.559   9.787  0.5065 -0.9606  0.7940
   21MOL0     H 2875  11.143   6.629   9.946 -0.2671  2.0175 -0.1368
   21MOL0     H 2876  11.090   6.818   9.715 -1.9171 -0.8178  1.2643
   21MOL0     H 2877  11.251   6.767   9.747 -1.3017 -0.6542  0.1069
   21MOL0     H 2878  10.384   6.568  10.354 -0.6628 -3.1432  1.6534
   21MOL0     H 2879  10.225   6.719  10.486  0.0967 -1.1390 -0.1664
   21MOL0     H 2880   9.929   7.095  10.297 -1.4995  4.5747 -0.0999
   21MOL0     H 2881   9.849   7.285  10.402 -4.2702  0.1512 -1.7602
   21MOL0     H 2882  10.698   8.186  10.231  0.2404 -0.4899  3.4526
   21MOL0     H 2883  10.784   8.343  10.055 -1.6508 -0.2899  0.9981
   21MOL0     H 2884  11.173   8.687  10.067  3.1128  1.6795 -0.3401
   21MOL0     H 2885  11.235   8.893   9.973 -0.2103 -0.4125 -0.2790
   21MOL0     H 2886  11.147   9.064   9.878  0.7133 -4.1477  0.3405
   21MOL0     H 2887  11.321   9.067   9.827 -0.0426  0.3391 -0.9684
   21MOL0     H 2888  11.274   9.176   9.621 -0.0428  0.3241 -1.2458
   21MOL0     H 2889  11.207   9.276   9.757  2.2536 -0.4892 -1.0575
   21MOL0     H 2890  11.085   9.120   9.534  0.9031 -1.4333  0.6830
   21MOL0     H 2891  10.971   9.147   9.673 -1.7376  1.5179 -3.5368
   21MOL0     H 2892  11.127   9.349   9.515  0.3075 -3.8939 -1.9352
   21MOL0     H 2893  11.026   9.404   9.651 -0.8879 -0.8154  0.9346
   21MOL0     H 2894  10.792   9.358   9.305  0.4610 -1.0328  0.1679
   21MOL0     H 2895  11.114   8.755   9.589  0.5298 -4.1812 -0.5529
   21MOL0     H 2896  10.915   8.513   9.659  0.5342 -0.5905  1.0367
   21MOL0     H 2897  11.042   8.563   9.551 -1.3384 -2.9174 -1.5926
   21MOL0     H 2898  11.068   8.418   9.640 -0.9348  0.5525 -5.0750
   22MOL0     O 2899   9.506   2.228   6.663 -0.7752  0.0041  0.0585
   22MOL0     C 2900   9.438   2.323   6.701 -0.1440  0.2750 -0.2266
   22MOL0     O 2901   9.487   2.453   6.716  0.2018  0.6554  0.6548
   22MOL0     C 2902   9.612   2.491   6.760  0.2411 -0.6009  1.4094
   22MOL0     C 2903   9.701   2.411   6.838 -0.2594  0.4251 -0.4872
   22MOL0     C 2904   9.816   2.470   6.881  0.7906 -0.1138  0.0532
   22MOL0     C 2905   9.853   2.595   6.852 -0.1639 -0.2506  0.1785
   22MOL0     O 2906   9.979   2.647   6.898 -0.2345  0.0611  0.4672
   22MOL0     C 2907  10.022   2.783   6.872  0.0725 -0.8483 -0.0928
   22MOL0     C 2908   9.940   2.870   6.968 -0.2757 -0.3718  0.8298
   22MOL0     C 2909   9.966   3.015   6.956 -0.4071 -0.5083 -0.4976
   22MOL0     C 2910   9.889   3.085   6.856  0.4522  1.0969  0.5464
   22MOL0     C 2911   9.887   3.240   6.881  0.0552  0.3665  1.6969
   22MOL0     C 2912   9.822   3.296   6.754 -0.0915 -0.1671 -0.2247
   22MOL0     C 2913   9.795   3.449   6.749  0.4430 -0.0598  0.3458
   22MOL0     C 2914   9.685   3.500   6.848  0.2871 -0.0320 -0.1110
   22MOL0     N 2915   9.737   3.526   6.979 -1.1695  0.5292 -0.8152
   22MOL0     C 2916   9.683   3.506   7.103 -0.7927  0.1695 -0.9106
   22MOL0     C 2917   9.779   3.576   7.176 -0.2600 -0.0511  0.7555
   22MOL0     C 2918   9.783   3.591   7.323 -0.3233 -1.4342 -0.4758
   22MOL0     C 2919   9.767   3.740   7.367 -0.1750 -0.6775 -1.0465
   22MOL0     C 2920   9.667   3.819   7.289  0.0178 -0.1729  0.0186
   22MOL0     C 2921   9.519   3.768   7.318 -0.5775 -0.4748  0.6636
   22MOL0     O 2922   9.480   3.764   7.461 -0.0391 -0.4017  0.4964
   22MOL0     C 2923   9.345   3.764   7.474  0.4720 -0.3317 -1.2577
   22MOL0     C 2924   9.271   3.661   7.426 -0.2958  0.0768  0.9423
   22MOL0     C 2925   9.132   3.649   7.422  1.3752  0.7049 -0.6873
   22MOL0     C 2926   9.057   3.548   7.348  0.2836  0.5123 -0.1962
   22MOL0     C 2927   9.068   3.746   7.501  0.2032  0.8167 -1.3540
   22MOL0     C 2928   8.915   3.769   7.502  0.2656  0.1319 -0.1578
   22MOL0     O 2929   8.864   3.902   7.477 -0.5553 -0.7594 -0.2031
   22MOL0     C 2930   8.734   3.944   7.506 -0.3349 -0.2250  0.4588
   22MOL0     C 2931   8.711   4.023   7.621 -0.2468 -1.1562  0.3068
   22MOL0     C 2932   8.581   4.075   7.641 -0.8761  0.3933  0.1739
   22MOL0     C 2933   8.480   4.051   7.552 -0.2526  0.2456  0.0753
   22MOL0     O 2934   8.355   4.098   7.585  0.5465  0.5802 -0.6058
   22MOL0     C 2935   8.234   4.079   7.505  0.7300 -0.0725  0.0989
   22MOL0     C 2936   8.221   4.184   7.397  0.5148  0.1402 -0.5614
   22MOL0     C 2937   8.088   4.175   7.316  0.1637  1.1929  1.1826
   22MOL0     C 2938   8.049   4.304   7.247 -0.4901 -0.3909 -0.3299
   22MOL0     C 2939   7.934   4.279   7.148  0.8408  0.8416  0.5896
   22MOL0     C 2940   7.877   4.400   7.083 -0.6171  0.3523 -0.0674
   22MOL0     C 2941   7.835   4.384   6.928  0.0801  0.2268  0.2126
   22MOL0     C 2942   7.751   4.267   6.903  0.2972 -0.8123 -0.4579
   22MOL0    Cl 2943   7.610   4.267   7.004 -0.2418  0.2023  0.8879
   22MOL0     C 2944   8.511   3.981   7.434 -0.0747  0.0184  0.4199
   22MOL0     C 2945   8.630   3.915   7.417  1.0374 -0.2187  0.0829
   22MOL0     O 2946   8.837   3.672   7.517  0.2830  0.7683 -0.3991
   22MOL0     C 2947   9.143   3.847   7.562 -0.5885  0.3498  0.2018
   22MOL0     C 2948   9.277   3.860   7.548 -0.5376  0.0051  0.0827
   22MOL0     N 2949   9.880   3.631   7.097  0.9476 -0.0895 -1.3162
   22MOL0     N 2950   9.849   3.602   6.982  0.3793  0.5876  1.1361
   22MOL0     C 2951   9.762   2.678   6.789  0.3583 -0.2725  0.1582
   22MOL0     C 2952   9.645   2.629   6.747 -0.6084  0.6303  0.0975
   22MOL0     C 2953   9.290   2.308   6.716 -0.6593  0.0965  0.7092
   22MOL0     C 2954   9.213   2.256   6.607  0.7849 -0.3459 -0.5120
   22MOL0     C 2955   9.064   2.257   6.621  0.8011  0.4923  0.0654
   22MOL0     C 2956   9.006   2.319   6.729  0.0056 -0.4203  0.3312
   22MOL0     O 2957   8.869   2.338   6.740 -0.4805  0.2924 -0.0612
   22MOL0     C 2958   8.795   2.226   6.803  0.2226  0.7657 -0.4790
   22MOL0     C 2959   8.726   2.290   6.918  0.0807 -0.3539 -0.6153
   22MOL0     C 2960   8.620   2.406   6.883  0.8253  0.3627 -0.5832
   22MOL0     C 2961   8.478   2.371   6.929  0.5983  0.0670  0.5648
   22MOL0     C 2962   8.430   2.274   6.828  0.0099 -0.2253 -0.0106
   22MOL0     C 2963   8.400   2.202   6.739 -0.2597 -0.3380  0.5497
   22MOL0     C 2964   9.088   2.364   6.834  0.2138  0.7433  0.3838
   22MOL0     C 2965   9.222   2.360   6.828  0.2245  0.1467 -0.1828
   22MOL0     C 2966   9.296   2.411   6.954  0.1270 -0.9390  0.1188
   22MOL0     H 2967   9.697   2.305   6.862 -2.7837  0.9008  1.5192
   22MOL0     H 2968   9.889   2.412   6.937 -1.1256  0.4119  3.3564
   22MOL0     H 2969  10.012   2.817   6.768 -0.4202 -0.6327  0.0253
   22MOL0     H 2970  10.130   2.787   6.892  0.6708 -2.3905 -2.4986
   22MOL0     H 2971   9.832   2.856   6.963 -0.4876  1.2447  0.1932
   22MOL0     H 2972   9.975   2.845   7.068  0.7521  1.3535  0.9520
   22MOL0     H 2973   9.931   3.058   7.051 -1.8189  1.8522 -2.0016
   22MOL0     H 2974  10.073   3.030   6.938 -0.3004 -2.1696 -1.4747
   22MOL0     H 2975   9.933   3.054   6.760  1.4007 -2.4491  1.9608
   22MOL0     H 2976   9.784   3.056   6.849  0.4098  1.6430 -2.2518
   22MOL0     H 2977   9.988   3.282   6.882  1.1732 -1.9674 -0.9673
   22MOL0     H 2978   9.822   3.259   6.967  1.1073  0.1752  2.5470
   22MOL0     H 2979   9.883   3.273   6.665  0.7464 -1.4444  0.6444
   22MOL0     H 2980   9.729   3.241   6.734 -0.4801 -0.3891  2.0079
   22MOL0     H 2981   9.753   3.464   6.649  1.4551 -1.3010 -0.2947
   22MOL0     H 2982   9.889   3.504   6.748  1.7224 -1.9973 -2.7363
   22MOL0     H 2983   9.636   3.585   6.800  2.2577  1.0045 -0.4007
   22MOL0     H 2984   9.603   3.431   6.866  0.7401  0.3259  4.8763
   22MOL0     H 2985   9.586   3.468   7.135 -1.5873  3.9252  1.9380
   22MOL0     H 2986   9.884   3.573   7.360  1.0351 -0.4951 -3.4436
   22MOL0     H 2987   9.727   3.517   7.382  1.9540 -1.8690  1.2806
   22MOL0     H 2988   9.752   3.759   7.474  4.4565  1.0439 -0.4458
   22MOL0     H 2989   9.854   3.800   7.337 -2.3962  2.6162 -1.3500
   22MOL0     H 2990   9.679   3.924   7.319  0.5430 -0.3799  0.5325
   22MOL0     H 2991   9.685   3.827   7.181 -0.6636  2.3980  0.0185
   22MOL0     H 2992   9.466   3.849   7.268  2.2836  0.1971 -1.4881
   22MOL0     H 2993   9.495   3.671   7.273  2.1675 -1.3258  0.8804
   22MOL0     H 2994   9.329   3.576   7.391 -1.0842 -1.9155  4.0560
   22MOL0     H 2995   8.995   3.590   7.269  2.7740  4.3519 -0.3659
   22MOL0     H 2996   8.988   3.499   7.418 -1.3183  3.6391  0.5972
   22MOL0     H 2997   9.133   3.483   7.303  0.2042  0.0278  0.3579
   22MOL0     H 2998   8.793   4.037   7.690 -1.9752 -0.3024  2.2899
   22MOL0     H 2999   8.555   4.139   7.725  1.9122  3.8265 -1.3239
   22MOL0     H 3000   8.248   3.982   7.457  2.3308 -0.3037  0.9483
   22MOL0     H 3001   8.142   4.063   7.563 -0.4842  1.9493 -1.1511
   22MOL0     H 3002   8.230   4.275   7.458  0.0866 -0.3855  0.3082
   22MOL0     H 3003   8.310   4.178   7.334  0.9178  0.4649 -0.0338
   22MOL0     H 3004   8.009   4.141   7.384  0.9457  0.4232  1.7116
   22MOL0     H 3005   8.096   4.094   7.242  1.0263  1.7839  0.6088
   22MOL0     H 3006   8.131   4.350   7.192  0.7883  0.6768  2.2619
   22MOL0     H 3007   8.016   4.379   7.319 -1.1308  0.4476 -1.4643
   22MOL0     H 3008   7.983   4.221   7.069  1.2863  2.1373 -0.1286
   22MOL0     H 3009   7.854   4.232   7.205  1.6981  1.1205  2.0644
   22MOL0     H 3010   7.957   4.475   7.084  1.6289 -1.7524 -2.7863
   22MOL0     H 3011   7.793   4.426   7.148  1.6660 -2.3783  4.4588
   22MOL0     H 3012   7.920   4.379   6.860 -0.2087 -2.4616 -0.0880
   22MOL0     H 3013   7.773   4.469   6.898  1.7646  1.1149 -0.9249
   22MOL0     H 3014   7.793   4.173   6.941  0.0755 -0.3764  0.9139
   22MOL0     H 3015   7.718   4.261   6.799 -1.0491  0.6095 -0.1488
   22MOL0     H 3016   8.431   3.958   7.364 -1.3302  1.3700  1.3410
   22MOL0     H 3017   8.656   3.846   7.337 -0.1080 -2.7066  1.7196
   22MOL0     H 3018   9.087   3.928   7.606 -2.2386 -0.3398 -0.5508
   22MOL0     H 3019   9.338   3.931   7.603 -1.5888 -1.0438  2.7940
   22MOL0     H 3020   9.775   2.786   6.788 -2.0153  0.2706  4.5513
   22MOL0     H 3021   9.563   2.689   6.709 -1.2804 -1.1691 -1.5043
   22MOL0     H 3022   9.255   2.213   6.517  0.0715 -1.2681 -0.4284
   22MOL0     H 3023   9.003   2.210   6.545  3.0206 -2.7062  0.0553
   22MOL0     H 3024   8.729   2.183   6.728 -0.3269 -0.6895  0.7660
   22MOL0     H 3025   8.856   2.144   6.844 -1.3199 -0.5543 -0.7145
   22MOL0     H 3026   8.788   2.337   6.994 -0.8711 -2.7462  1.8260
   22MOL0     H 3027   8.672   2.209   6.968  0.6789 -0.5284 -0.2443
   22MOL0     H 3028   8.652   2.484   6.953  1.0272 -0.0583 -0.2065
   22MOL0     H 3029   8.618   2.433   6.777  2.9194 -0.9701 -1.0197
   22MOL0     H 3030   8.421   2.464   6.937 -0.6293 -0.7632  1.9860
   22MOL0     H 3031   8.480   2.333   7.031  2.7626  2.8304  1.6543
   22MOL0     H 3032   8.355   2.159   6.651  3.6045  0.2416 -1.9290
   22MOL0     H 3033   9.037   2.405   6.921  0.8768  2.4490  0.0152
   22MOL0     H 3034   9.378   2.342   6.978  0.9107 -0.6752 -1.6425
   22MOL0     H 3035   9.338   2.508   6.928  0.3802 -1.0644  0.0590
   22MOL0     H 3036   9.237   2.432   7.043  3.4705 -1.0195  2.5278
   23MOL0     O 3037   6.927   1.362   2.166 -0.1000 -0.2606 -0.5130
   23MOL0     C 3038   6.872   1.429   2.076  0.3640 -0.6189 -0.2529
   23MOL0     O 3039   6.750   1.492   2.089  0.7565  0.7935 -0.1939
   23MOL0     C 3040   6.679   1.465   2.204 -0.0907  0.1797  0.8671
   23MOL0     C 3041   6.646   1.330   2.232 -0.0511 -0.2730  0.0652
   23MOL0     C 3042   6.563   1.302   2.335 -0.1087  0.2455  0.3954
   23MOL0     C 3043   6.522   1.404   2.419  0.2796 -1.2195 -0.2674
   23MOL0     O 3044   6.450   1.361   2.528 -0.0860 -0.5030 -0.7122
   23MOL0     C 3045   6.401   1.445   2.637  0.1250  0.2005  0.3967
   23MOL0     C 3046   6.347   1.340   2.739  0.2927 -0.8675 -0.5178
   23MOL0     C 3047   6.448   1.241   2.795 -0.2854 -0.8043  1.3536
   23MOL0     C 3048   6.408   1.152   2.914  0.9101 -0.5521 -0.5887
   23MOL0     C 3049   6.381   1.234   3.040  0.3688 -0.1765  0.0921
   23MOL0     C 3050   6.492   1.334   3.082 -0.6106 -0.0803  0.3183
   23MOL0     C 3051   6.633   1.267   3.095  0.1874  0.3947 -0.0790
   23MOL0     C 3052   6.642   1.150   3.180  0.4497  0.7029  1.2670
   23MOL0     N 3053   6.612   1.175   3.321  0.1429  0.2027 -0.2013
   23MOL0     C 3054   6.691   1.131   3.417  0.0420 -0.4105  1.0790
   23MOL0     C 3055   6.611   1.150   3.529 -0.0489  0.1924 -0.6898
   23MOL0     C 3056   6.648   1.122   3.663 -0.6466  0.3520 -0.5747
   23MOL0     C 3057   6.653   0.968   3.692 -0.2066  0.6681 -0.0430
   23MOL0     C 3058   6.722   0.956   3.836  0.2178 -0.2211  0.0925
   23MOL0     C 3059   6.710   0.810   3.883  0.0685 -0.1688  0.9369
   23MOL0     O 3060   6.780   0.723   3.790 -0.0558  0.4872 -0.5717
   23MOL0     C 3061   6.896   0.668   3.835 -0.5725 -0.5983 -1.3476
   23MOL0     C 3062   7.015   0.712   3.787 -0.1551 -0.7583 -0.4211
   23MOL0     C 3063   7.133   0.658   3.834  1.0516 -0.2159 -1.0518
   23MOL0     C 3064   7.257   0.708   3.773 -0.3372 -0.3789  0.0942
   23MOL0     C 3065   7.134   0.546   3.929  0.8581  0.1434  0.9561
   23MOL0     C 3066   7.252   0.488   3.989  0.4438  0.7439 -0.0844
   23MOL0     O 3067   7.364   0.473   3.914 -0.2068 -0.3776 -0.1113
   23MOL0     C 3068   7.460   0.391   3.960  0.7341  0.1289  0.6954
   23MOL0     C 3069   7.549   0.436   4.051 -0.2425  0.2394  0.3358
   23MOL0     C 3070   7.652   0.357   4.101  0.3330  0.5879  0.3500
   23MOL0     C 3071   7.649   0.221   4.069  0.1966  0.1774 -0.1330
   23MOL0     O 3072   7.744   0.142   4.135  0.5614 -0.6196 -0.4463
   23MOL0     C 3073   7.826   0.054   4.055 -0.1949 -0.0293 -1.1675
   23MOL0     C 3074   7.922  -0.012   4.142  0.0545  0.4515 -0.2090
   23MOL0     C 3075   8.029   0.075   4.206 -0.8746 -0.3442  1.0941
   23MOL0     C 3076   8.013   0.098   4.357  0.8241 -0.8230 -0.3575
   23MOL0     C 3077   8.032  -0.018   4.457 -0.3963  0.3899 -0.2750
   23MOL0     C 3078   8.163  -0.104   4.435 -0.9145 -0.1634  0.1331
   23MOL0     C 3079   8.288  -0.024   4.481 -0.4666 -0.7726 -0.7768
   23MOL0     C 3080   8.307   0.010   4.637  0.5123 -1.4125  0.0680
   23MOL0    Cl 3081   8.299  -0.133   4.730  0.0940  0.3943 -0.0473
   23MOL0     C 3082   7.556   0.168   3.968 -0.2763 -0.5948 -1.2712
   23MOL0     C 3083   7.461   0.257   3.912 -0.3801 -0.1950 -0.6031
   23MOL0     O 3084   7.240   0.436   4.095  0.0007  0.4014  0.2311
   23MOL0     C 3085   7.004   0.501   3.978  0.0564 -0.5305  0.1371
   23MOL0     C 3086   6.891   0.560   3.928 -1.1531  0.4352 -0.4489
   23MOL0     N 3087   6.483   1.200   3.493 -1.1191 -0.0326 -0.2605
   23MOL0     N 3088   6.491   1.216   3.371 -0.3719  0.2407  0.1741
   23MOL0     C 3089   6.562   1.541   2.403  1.0155  0.0247 -0.0462
   23MOL0     C 3090   6.648   1.570   2.294  1.2069  0.9085  0.2925
   23MOL0     C 3091   6.953   1.467   1.959 -0.0236 -0.3753 -0.5993
   23MOL0     C 3092   6.884   1.475   1.836  0.0390  0.2597  0.2022
   23MOL0     C 3093   6.949   1.518   1.715 -0.0024  0.1851 -0.3803
   23MOL0     C 3094   7.083   1.548   1.719  0.3138  0.0978 -0.7181
   23MOL0     O 3095   7.134   1.589   1.600  0.4693  0.2260 -0.1821
   23MOL0     C 3096   7.263   1.646   1.596 -0.5153 -0.3929 -0.7473
   23MOL0     C 3097   7.308   1.670   1.445 -0.1564 -0.1521 -0.3146
   23MOL0     C 3098   7.442   1.751   1.448  0.0905  0.1244 -0.6575
   23MOL0     C 3099   7.563   1.706   1.532  0.0625 -0.9132  0.6236
   23MOL0     C 3100   7.551   1.730   1.676 -0.0303  0.1487 -0.8158
   23MOL0     C 3101   7.515   1.743   1.793 -0.0292 -0.1174 -0.1511
   23MOL0     C 3102   7.150   1.542   1.843  0.4983 -0.5925 -1.4990
   23MOL0     C 3103   7.097   1.500   1.964  0.2395 -0.0122 -0.6602
   23MOL0     C 3104   7.170   1.504   2.091 -1.0399 -0.0020  0.3483
   23MOL0     H 3105   6.670   1.255   2.158 -1.3316  1.7095 -2.5458
   23MOL0     H 3106   6.528   1.200   2.348 -1.3767  0.5941 -0.1014
   23MOL0     H 3107   6.323   1.517   2.614 -1.5051 -1.5451  0.2469
   23MOL0     H 3108   6.484   1.505   2.676 -1.3002  1.8533  1.0310
   23MOL0     H 3109   6.309   1.400   2.822  1.7898 -1.3549  0.5721
   23MOL0     H 3110   6.271   1.280   2.690 -0.8970  0.6163 -0.5530
   23MOL0     H 3111   6.477   1.178   2.711 -0.5788 -1.4733  1.7472
   23MOL0     H 3112   6.536   1.300   2.822 -0.8118  1.1001 -0.7811
   23MOL0     H 3113   6.318   1.097   2.882 -0.0742  1.6852 -1.9183
   23MOL0     H 3114   6.483   1.077   2.940 -0.5673 -1.6512  0.7058
   23MOL0     H 3115   6.357   1.182   3.134  0.4498  1.2064  0.9046
   23MOL0     H 3116   6.291   1.293   3.022  0.0142 -0.6351  0.3486
   23MOL0     H 3117   6.495   1.419   3.013  0.2518  1.3763  2.0700
   23MOL0     H 3118   6.453   1.376   3.175 -0.7758 -1.2682  0.8010
   23MOL0     H 3119   6.703   1.342   3.134  2.2836 -0.8540 -1.2468
   23MOL0     H 3120   6.661   1.247   2.991  0.0414  0.3526 -0.1102
   23MOL0     H 3121   6.579   1.069   3.143  0.5517  2.1683 -2.5192
   23MOL0     H 3122   6.745   1.112   3.173  0.5180  1.2740 -2.8571
   23MOL0     H 3123   6.794   1.096   3.417  0.9964  2.1564  2.6165
   23MOL0     H 3124   6.583   1.174   3.733 -2.2756 -2.6360  0.3238
   23MOL0     H 3125   6.752   1.157   3.671 -0.1930 -0.2888 -2.9672
   23MOL0     H 3126   6.550   0.934   3.707  0.1190 -0.5068 -0.4253
   23MOL0     H 3127   6.699   0.910   3.612  0.4072 -0.2326  0.9227
   23MOL0     H 3128   6.826   0.989   3.830 -0.1872  0.9155 -1.6164
   23MOL0     H 3129   6.686   1.023   3.915  2.4907 -0.2222  1.1966
   23MOL0     H 3130   6.732   0.803   3.990 -1.7976  2.2017  1.5531
   23MOL0     H 3131   6.602   0.793   3.885 -0.2785  1.8281  3.0260
   23MOL0     H 3132   6.995   0.782   3.707 -1.1682  1.9684  2.0453
   23MOL0     H 3133   7.286   0.635   3.697 -1.9668 -1.7578  0.7226
   23MOL0     H 3134   7.330   0.721   3.853 -1.5951  1.8300  0.9667
   23MOL0     H 3135   7.245   0.800   3.716  1.2660 -1.2312 -1.7290
   23MOL0     H 3136   7.523   0.538   4.078 -1.0518  1.6229 -4.5934
   23MOL0     H 3137   7.720   0.405   4.171 -0.3784  4.6165 -1.4685
   23MOL0     H 3138   7.758  -0.024   4.019  1.0724 -1.8656  0.2261
   23MOL0     H 3139   7.881   0.107   3.977  3.7449 -2.0299 -0.0376
   23MOL0     H 3140   7.864  -0.067   4.217 -0.7908 -0.1107 -1.2471
   23MOL0     H 3141   7.970  -0.091   4.085 -1.6777 -0.8036 -0.0047
   23MOL0     H 3142   8.021   0.178   4.169  0.9819 -0.3998  0.4570
   23MOL0     H 3143   8.129   0.042   4.178 -0.5770  1.4664 -0.1468
   23MOL0     H 3144   7.922   0.154   4.380 -0.3241 -1.6599 -2.5539
   23MOL0     H 3145   8.097   0.162   4.387 -0.5764  0.8724  0.1070
   23MOL0     H 3146   8.038   0.018   4.560  2.1339 -0.9137  0.1142
   23MOL0     H 3147   7.947  -0.087   4.455  1.0266 -1.4255 -1.6267
   23MOL0     H 3148   8.167  -0.129   4.328  1.0376  3.1604 -0.7232
   23MOL0     H 3149   8.174  -0.199   4.488  1.2427 -0.9488 -1.5340
   23MOL0     H 3150   8.306   0.071   4.431 -0.5099 -0.7064 -0.6651
   23MOL0     H 3151   8.374  -0.092   4.469 -0.7086 -1.9049  2.7107
   23MOL0     H 3152   8.235   0.088   4.665  1.1034 -1.0312  0.5725
   23MOL0     H 3153   8.397   0.069   4.656  0.1202 -1.2498  1.5250
   23MOL0     H 3154   7.568   0.063   3.941  3.2287 -1.6592  3.1551
   23MOL0     H 3155   7.391   0.223   3.837 -3.0444  2.0901  0.6495
   23MOL0     H 3156   6.988   0.421   4.049  0.0872  0.8074  1.6992
   23MOL0     H 3157   6.796   0.514   3.952 -2.5141  1.7534 -2.9963
   23MOL0     H 3158   6.522   1.626   2.456  1.1007 -0.4999  0.8827
   23MOL0     H 3159   6.680   1.672   2.272 -0.2948  1.0581 -1.3697
   23MOL0     H 3160   6.778   1.454   1.830 -0.1324  0.8552  1.0036
   23MOL0     H 3161   6.883   1.515   1.629  0.3156  3.0116 -0.8137
   23MOL0     H 3162   7.268   1.740   1.652 -0.2322 -1.0002  0.2628
   23MOL0     H 3163   7.339   1.580   1.639  3.3878  3.7131 -0.4829
   23MOL0     H 3164   7.236   1.727   1.386 -1.8978 -3.1736 -1.3021
   23MOL0     H 3165   7.309   1.575   1.390 -2.6246 -0.0064 -0.7294
   23MOL0     H 3166   7.481   1.747   1.346  1.9318 -0.4469  0.0227
   23MOL0     H 3167   7.412   1.854   1.468  1.2118 -0.1663  3.3266
   23MOL0     H 3168   7.640   1.772   1.492 -1.8925  1.4730  0.5367
   23MOL0     H 3169   7.589   1.603   1.507 -2.0356 -1.1286 -0.9317
   23MOL0     H 3170   7.490   1.773   1.893  0.4912  0.7980 -0.2852
   23MOL0     H 3171   7.253   1.574   1.845 -0.2419  2.1016 -1.9399
   23MOL0     H 3172   7.266   1.555   2.075 -0.0160 -2.0398 -0.2903
   23MOL0     H 3173   7.109   1.549   2.170  0.6897 -1.7881  2.8492
   23MOL0     H 3174   7.182   1.401   2.124 -4.6296 -0.1735  1.4643
   24MOL0     O 3175   5.683   0.925   9.037  0.4160 -0.1677 -0.3689
   24MOL0     C 3176   5.622   0.812   9.046 -0.4458 -0.1222  0.2359
   24MOL0     O 3177   5.610   0.736   9.164 -0.3844 -1.3799 -0.3563
   24MOL0     C 3178   5.698   0.761   9.263 -0.6738  0.9065 -0.6166
   24MOL0     C 3179   5.777   0.652   9.313  0.1737  0.9588 -0.0340
   24MOL0     C 3180   5.869   0.681   9.412 -0.5244 -0.0410 -0.6564
   24MOL0     C 3181   5.895   0.803   9.465  0.3276  0.2489  0.6315
   24MOL0     O 3182   5.993   0.849   9.560  0.3113  0.3942  0.0958
   24MOL0     C 3183   6.060   0.739   9.630  0.3511 -0.4622 -0.8044
   24MOL0     C 3184   6.176   0.675   9.543 -0.1037  0.2957 -0.2384
   24MOL0     C 3185   6.197   0.522   9.539  0.3069 -1.1198 -0.2089
   24MOL0     C 3186   6.194   0.468   9.683  0.4686  0.0941 -0.2476
   24MOL0     C 3187   6.261   0.322   9.703  0.0296 -0.3325 -0.0308
   24MOL0     C 3188   6.249   0.286   9.853  0.5224  0.1828 -0.8144
   24MOL0     C 3189   6.310   0.146   9.891 -0.1517 -0.1583  1.0765
   24MOL0     C 3190   6.295   0.122  10.039 -0.0803 -2.0781 -0.2482
   24MOL0     N 3191   6.371   0.007  10.087  0.6878  0.7416 -0.1193
   24MOL0     C 3192   6.499   0.006  10.131 -0.3323 -0.1826  0.8014
   24MOL0     C 3193   6.506  -0.106  10.209 -0.0318 -0.2362 -0.1982
   24MOL0     C 3194   6.631  -0.184  10.274  0.0773 -0.5328 -0.7507
   24MOL0     C 3195   6.645  -0.338  10.238 -0.9271 -0.4836 -0.2044
   24MOL0     C 3196   6.519  -0.423  10.291 -0.2750  0.3883 -0.2547
   24MOL0     C 3197   6.491  -0.416  10.447 -0.1966  0.7829  0.5199
   24MOL0     O 3198   6.603  -0.473  10.518 -0.8614  0.2064  0.7242
   24MOL0     C 3199   6.627  -0.444  10.652 -0.5248  0.0361 -0.1564
   24MOL0     C 3200   6.742  -0.495  10.712 -0.2958  0.0054  0.5855
   24MOL0     C 3201   6.765  -0.487  10.854  0.3752 -0.5457  1.2609
   24MOL0     C 3202   6.885  -0.553  10.905  0.1523  0.5933 -0.0440
   24MOL0     C 3203   6.668  -0.425  10.933 -0.1264 -0.4904 -0.1565
   24MOL0     C 3204   6.679  -0.408  11.076  0.0215  0.5037  0.5958
   24MOL0     O 3205   6.557  -0.420  11.150 -0.4238  0.2615  0.0527
   24MOL0     C 3206   6.556  -0.388  11.278  0.0731  0.5319  0.0318
   24MOL0     C 3207   6.614  -0.467  11.383 -0.6748 -0.2273 -0.4890
   24MOL0     C 3208   6.627  -0.419  11.513  0.4725 -0.5624  0.3118
   24MOL0     C 3209   6.567  -0.299  11.555 -0.0255  0.0215 -0.6223
   24MOL0     O 3210   6.567  -0.235  11.673 -0.0110 -0.1410 -0.2261
   24MOL0     C 3211   6.628  -0.304  11.787 -0.4484  0.6279 -0.5193
   24MOL0     C 3212   6.664  -0.195  11.889  0.5537 -0.2270 -1.1962
   24MOL0     C 3213   6.732  -0.252  12.015 -0.6253  0.3089 -0.3575
   24MOL0     C 3214   6.775  -0.145  12.110 -0.5658  0.1517  0.5572
   24MOL0     C 3215   6.692  -0.135  12.237  0.4043 -0.1755  0.4925
   24MOL0     C 3216   6.740  -0.029  12.331 -0.0559 -0.3163  0.0713
   24MOL0     C 3217   6.671  -0.038  12.462 -0.2960  0.3816 -0.4872
   24MOL0     C 3218   6.761  -0.004  12.587  0.3891  0.1662 -0.5656
   24MOL0    Cl 3219   6.759   0.173  12.609  0.3024 -0.3835  0.2871
   24MOL0     C 3220   6.500  -0.228  11.453 -0.5309  0.8044  0.6867
   24MOL0     C 3221   6.495  -0.270  11.321  0.8665 -0.0575 -0.5489
   24MOL0     O 3222   6.793  -0.387  11.125  0.2438  0.2888 -0.7855
   24MOL0     C 3223   6.554  -0.382  10.866 -0.5792 -0.4910 -0.3389
   24MOL0     C 3224   6.537  -0.385  10.734  0.1194  0.2248  0.2894
   24MOL0     N 3225   6.379  -0.156  10.207  1.0440  0.5816 -0.0527
   24MOL0     N 3226   6.308  -0.104  10.117  0.1412  0.7159 -0.0390
   24MOL0     C 3227   5.801   0.899   9.429  0.0434  0.9777  0.0831
   24MOL0     C 3228   5.704   0.883   9.331 -0.0206 -0.1750  0.5271
   24MOL0     C 3229   5.545   0.772   8.925  0.4891 -1.1063 -0.3268
   24MOL0     C 3230   5.614   0.775   8.803  0.7807  0.2135 -1.0313
   24MOL0     C 3231   5.541   0.755   8.685  0.3515 -1.5831  0.5593
   24MOL0     C 3232   5.410   0.747   8.679  0.6015 -0.3169 -0.5498
   24MOL0     O 3233   5.360   0.738   8.546  0.7933  0.1523  0.3520
   24MOL0     C 3234   5.223   0.764   8.509 -0.4966 -0.9977 -0.1130
   24MOL0     C 3235   5.185   0.910   8.536 -0.6816  0.0288 -0.5886
   24MOL0     C 3236   5.290   1.012   8.492 -0.4037 -0.3855 -0.1462
   24MOL0     C 3237   5.245   1.150   8.539  0.0075 -0.0172 -0.0727
   24MOL0     C 3238   5.358   1.248   8.504  1.0144  0.1887 -0.0628
   24MOL0     C 3239   5.435   1.332   8.459  0.2026  0.5842  0.8759
   24MOL0     C 3240   5.335   0.753   8.803 -0.0408  0.4885 -0.3798
   24MOL0     C 3241   5.398   0.764   8.929 -0.5228  0.4691  0.4995
   24MOL0     C 3242   5.318   0.782   9.053 -0.8784 -0.1573  0.3417
   24MOL0     H 3243   5.741   0.554   9.285  1.4735 -0.0092  1.4951
   24MOL0     H 3244   5.903   0.585   9.450  0.2497 -0.9212 -3.3556
   24MOL0     H 3245   5.986   0.664   9.661  0.3280 -0.6565 -1.3271
   24MOL0     H 3246   6.094   0.775   9.727 -1.5170  2.8958 -1.2621
   24MOL0     H 3247   6.168   0.720   9.443  2.2865 -0.5903 -0.8835
   24MOL0     H 3248   6.270   0.717   9.579  0.6341 -1.8085  0.4229
   24MOL0     H 3249   6.119   0.470   9.484  0.2281 -2.8194  1.4023
   24MOL0     H 3250   6.296   0.496   9.502  0.8616  0.7375 -0.1515
   24MOL0     H 3251   6.256   0.539   9.738  2.4670 -0.2719 -1.9130
   24MOL0     H 3252   6.088   0.466   9.710  0.2352 -1.5884 -1.1428
   24MOL0     H 3253   6.366   0.323   9.673  0.1388 -0.2944  0.3514
   24MOL0     H 3254   6.202   0.251   9.645 -2.3700 -0.8238  2.7838
   24MOL0     H 3255   6.297   0.365   9.911 -0.8475 -0.2738  0.9999
   24MOL0     H 3256   6.144   0.294   9.882  0.7019  1.0822 -0.3895
   24MOL0     H 3257   6.412   0.141   9.852 -0.4247  2.1850 -0.1488
   24MOL0     H 3258   6.247   0.074   9.837 -1.0308  1.9113 -0.8118
   24MOL0     H 3259   6.320   0.212  10.096 -0.7874 -0.7428 -1.9439
   24MOL0     H 3260   6.188   0.103  10.046  0.0976 -2.8740  0.5194
   24MOL0     H 3261   6.577   0.079  10.112 -2.6327  1.8054 -1.9130
   24MOL0     H 3262   6.619  -0.181  10.383  1.4993  0.6549 -0.6049
   24MOL0     H 3263   6.723  -0.129  10.255  0.1438 -0.6442 -0.7521
   24MOL0     H 3264   6.656  -0.353  10.130  0.2343 -0.0187 -0.1720
   24MOL0     H 3265   6.738  -0.370  10.286 -0.4626 -1.6335 -1.7955
   24MOL0     H 3266   6.434  -0.393  10.229  0.3904 -0.0593 -1.4147
   24MOL0     H 3267   6.549  -0.522  10.257  0.6072  1.0606 -1.4847
   24MOL0     H 3268   6.480  -0.313  10.482  2.0017  0.5032  2.2640
   24MOL0     H 3269   6.403  -0.479  10.465  3.7176 -5.1282  1.9474
   24MOL0     H 3270   6.801  -0.557  10.646 -2.9368  2.0037 -4.1014
   24MOL0     H 3271   6.968  -0.483  10.900 -0.6224  1.5401  0.1657
   24MOL0     H 3272   6.913  -0.639  10.843  5.4144  0.5818  1.8611
   24MOL0     H 3273   6.861  -0.589  11.006 -4.2243  0.1400 -1.0452
   24MOL0     H 3274   6.640  -0.569  11.359 -0.1136 -0.3204  0.4722
   24MOL0     H 3275   6.666  -0.469  11.601  2.7775  2.0414  0.9171
   24MOL0     H 3276   6.564  -0.379  11.833  1.3459  0.5057  1.9748
   24MOL0     H 3277   6.714  -0.366  11.762 -0.3352  1.2360 -1.7089
   24MOL0     H 3278   6.726  -0.123  11.835 -0.5604 -0.3588 -2.7415
   24MOL0     H 3279   6.571  -0.149  11.922  1.6156 -1.1595  3.8139
   24MOL0     H 3280   6.815  -0.317  11.988  0.1215  0.2865  1.7875
   24MOL0     H 3281   6.661  -0.314  12.070 -0.7179  0.6103 -0.1320
   24MOL0     H 3282   6.790  -0.047  12.064  3.9377  0.2748  1.7614
   24MOL0     H 3283   6.877  -0.172  12.141 -0.1964 -0.1151 -0.8098
   24MOL0     H 3284   6.594  -0.105  12.200  1.0403  0.3218 -0.8719
   24MOL0     H 3285   6.680  -0.233  12.284 -0.0098 -2.1576 -3.2792
   24MOL0     H 3286   6.718   0.069  12.288 -1.0070 -0.5812 -0.0603
   24MOL0     H 3287   6.850  -0.031  12.335 -0.0067  1.0439 -0.1658
   24MOL0     H 3288   6.625  -0.137  12.462  1.4236 -0.4698  0.8135
   24MOL0     H 3289   6.586   0.031  12.466 -0.4770  0.1091  1.9647
   24MOL0     H 3290   6.861  -0.048  12.578 -0.3865 -1.5508 -1.3090
   24MOL0     H 3291   6.710  -0.038  12.677  0.9602  0.3856 -0.1527
   24MOL0     H 3292   6.443  -0.138  11.475 -0.3729  0.3637  3.1860
   24MOL0     H 3293   6.437  -0.195  11.268 -1.5601  1.1961  3.4179
   24MOL0     H 3294   6.469  -0.352  10.926 -0.5712 -0.0684 -0.5329
   24MOL0     H 3295   6.439  -0.352  10.704 -0.6329  0.3760  2.6630
   24MOL0     H 3296   5.808   0.990   9.488 -1.6228 -1.7698  5.1618
   24MOL0     H 3297   5.637   0.959   9.291 -1.0660 -0.7039  1.2200
   24MOL0     H 3298   5.721   0.783   8.796  0.9173 -0.1684  0.2713
   24MOL0     H 3299   5.590   0.757   8.588 -1.3291  0.0650 -0.2950
   24MOL0     H 3300   5.220   0.749   8.401  2.7418 -2.9505 -0.0459
   24MOL0     H 3301   5.153   0.694   8.553 -1.5766  0.0804 -0.0535
   24MOL0     H 3302   5.163   0.915   8.643 -0.9834 -1.7660 -0.5322
   24MOL0     H 3303   5.091   0.930   8.484 -1.4763 -0.4558  0.6132
   24MOL0     H 3304   5.392   0.990   8.525 -0.8614  1.2473  2.6803
   24MOL0     H 3305   5.286   1.017   8.383 -2.3588  0.3496 -0.0891
   24MOL0     H 3306   5.218   1.152   8.645 -1.6518 -3.5411 -0.2702
   24MOL0     H 3307   5.150   1.176   8.491 -0.8263 -1.2549  0.8428
   24MOL0     H 3308   5.509   1.388   8.405  1.3929 -0.8620  0.9585
   24MOL0     H 3309   5.227   0.745   8.802 -0.1593  1.7468  0.6560
   24MOL0     H 3310   5.373   0.834   9.132  1.8301 -2.7939  0.3574
   24MOL0     H 3311   5.248   0.854   9.010 -0.6769  1.0494  1.9430
   24MOL0     H 3312   5.256   0.697   9.085 -2.6517  0.0332 -2.2787
   25MOL0     O 3313   7.732   0.841   5.635 -0.4777 -0.0767  0.8909
   25MOL0     C 3314   7.640   0.926   5.625  0.4426 -0.5042  0.8350
   25MOL0     O 3315   7.523   0.922   5.699 -0.4603 -0.0590  0.2198
   25MOL0     C 3316   7.498   0.816   5.780  0.6216  0.9038 -0.9080
   25MOL0     C 3317   7.374   0.747   5.786 -0.0277 -0.3251 -0.0459
   25MOL0     C 3318   7.345   0.637   5.862 -1.3502  0.0187 -1.0177
   25MOL0     C 3319   7.437   0.588   5.957  0.1087  0.0537 -0.5304
   25MOL0     O 3320   7.403   0.473   6.024  0.3949 -0.3857  0.0025
   25MOL0     C 3321   7.479   0.441   6.141  0.3250 -0.6510 -0.5125
   25MOL0     C 3322   7.383   0.379   6.257 -0.3326 -0.4569  0.1760
   25MOL0     C 3323   7.241   0.377   6.218 -0.0704 -0.3269  0.2949
   25MOL0     C 3324   7.153   0.358   6.333 -0.1632 -0.2141  0.2755
   25MOL0     C 3325   7.117   0.216   6.348  0.9223  0.9018 -0.4957
   25MOL0     C 3326   7.109   0.189   6.497 -0.1806  0.2247 -0.4496
   25MOL0     C 3327   7.007   0.284   6.560 -0.4608  0.2523 -0.9476
   25MOL0     C 3328   6.966   0.233   6.705  0.4560  0.6166 -0.2313
   25MOL0     N 3329   6.844   0.294   6.746 -0.9874 -0.5152 -0.4348
   25MOL0     C 3330   6.853   0.411   6.809  0.5269 -1.0722 -0.1592
   25MOL0     C 3331   6.732   0.467   6.775 -0.1462 -0.3193 -0.0733
   25MOL0     C 3332   6.676   0.604   6.806  0.4188 -0.8665 -0.4530
   25MOL0     C 3333   6.727   0.716   6.707 -0.6125  0.4509 -0.5194
   25MOL0     C 3334   6.708   0.689   6.555  0.6063  0.4509 -0.3127
   25MOL0     C 3335   6.577   0.633   6.503 -0.1370  0.5383  0.3627
   25MOL0     O 3336   6.564   0.669   6.361  0.2576  0.4939  0.2051
   25MOL0     C 3337   6.658   0.622   6.275 -0.3036 -0.6747  0.1453
   25MOL0     C 3338   6.679   0.716   6.171 -0.0832  0.7137 -0.1112
   25MOL0     C 3339   6.765   0.686   6.065  0.3126  0.1286 -0.1933
   25MOL0     C 3340   6.733   0.766   5.941  0.5441  0.1056 -1.2783
   25MOL0     C 3341   6.857   0.575   6.066 -0.1742 -0.5671 -0.3644
   25MOL0     C 3342   6.951   0.536   5.947 -0.0944 -0.0436 -0.7189
   25MOL0     O 3343   7.027   0.421   5.963  0.1746  0.0185 -0.0939
   25MOL0     C 3344   7.036   0.335   5.856 -0.4454  0.1842 -0.6917
   25MOL0     C 3345   6.924   0.294   5.785 -0.2197  0.5946 -0.5870
   25MOL0     C 3346   6.937   0.194   5.685 -0.3731 -0.2068 -0.3322
   25MOL0     C 3347   7.062   0.157   5.644 -0.5171  0.6141  0.0697
   25MOL0     O 3348   7.089   0.093   5.529  1.1965 -0.7429  1.2912
   25MOL0     C 3349   7.001   0.104   5.414  0.9560  0.7022 -1.0620
   25MOL0     C 3350   7.041   0.038   5.284 -0.0045 -0.6338  0.9348
   25MOL0     C 3351   7.128  -0.095   5.289 -0.6852  0.1197 -0.0570
   25MOL0     C 3352   7.051  -0.224   5.253 -0.4990  0.5220 -0.4109
   25MOL0     C 3353   7.140  -0.340   5.268  0.0989 -0.0974 -0.5421
   25MOL0     C 3354   7.071  -0.478   5.268  0.5405  0.7253  0.9407
   25MOL0     C 3355   7.036  -0.511   5.120 -0.5153 -0.8184 -0.3704
   25MOL0     C 3356   6.885  -0.499   5.105  0.7242 -0.2055  0.2000
   25MOL0    Cl 3357   6.835  -0.590   4.957 -0.3624  0.3814 -0.3659
   25MOL0     C 3358   7.180   0.204   5.713 -0.2047  0.6759 -0.2303
   25MOL0     C 3359   7.164   0.295   5.820 -0.0349  0.9533  0.2415
   25MOL0     O 3360   6.942   0.606   5.847 -0.0699  0.1290  0.1073
   25MOL0     C 3361   6.841   0.485   6.183 -0.2846 -1.0680  0.0122
   25MOL0     C 3362   6.746   0.514   6.287  0.1616 -1.2624 -0.4109
   25MOL0     N 3363   6.659   0.386   6.696 -0.3340  0.1222  0.0027
   25MOL0     N 3364   6.728   0.292   6.674  0.3381  0.4212 -0.3840
   25MOL0     C 3365   7.557   0.665   5.965 -0.9633  0.1717 -0.1416
   25MOL0     C 3366   7.594   0.766   5.869  0.5829  0.4499 -0.1393
   25MOL0     C 3367   7.670   1.038   5.532  0.4789 -0.8887 -0.5092
   25MOL0     C 3368   7.592   1.148   5.564 -0.0611 -0.6730 -0.4308
   25MOL0     C 3369   7.585   1.260   5.476 -0.3803  0.2495 -0.7599
   25MOL0     C 3370   7.670   1.262   5.367  0.0649 -0.1869 -0.6338
   25MOL0     O 3371   7.660   1.373   5.289  0.1815  0.0412  0.0016
   25MOL0     C 3372   7.590   1.383   5.162  0.0604  0.5134  0.2169
   25MOL0     C 3373   7.478   1.278   5.150 -0.7045  0.3719  0.9143
   25MOL0     C 3374   7.416   1.301   5.011 -0.0808 -0.0825 -0.7712
   25MOL0     C 3375   7.268   1.361   5.025  0.2097  0.4955  0.1466
   25MOL0     C 3376   7.168   1.266   5.075 -0.2255 -0.1883 -0.2828
   25MOL0     C 3377   7.075   1.198   5.096 -0.3423 -0.3508  0.2013
   25MOL0     C 3378   7.759   1.159   5.344  0.8416  0.0361  0.3593
   25MOL0     C 3379   7.751   1.048   5.421  0.3137  0.5872  0.2078
   25MOL0     C 3380   7.825   0.925   5.361  0.1108  1.0244  1.0119
   25MOL0     H 3381   7.292   0.791   5.730 -1.9193 -2.1563  1.1283
   25MOL0     H 3382   7.248   0.589   5.852 -0.1219 -3.1710  0.8250
   25MOL0     H 3383   7.535   0.517   6.196  2.4447 -2.6001  0.1946
   25MOL0     H 3384   7.554   0.365   6.118 -0.3863 -2.9763  3.7738
   25MOL0     H 3385   7.424   0.283   6.289 -1.4196 -0.7542  0.6962
   25MOL0     H 3386   7.396   0.454   6.335  0.4447  0.6813 -1.0097
   25MOL0     H 3387   7.228   0.484   6.199 -0.4140  0.0054  2.2106
   25MOL0     H 3388   7.217   0.310   6.134 -0.5646  0.9812 -0.6336
   25MOL0     H 3389   7.198   0.397   6.425 -2.7277  1.0538  1.0592
   25MOL0     H 3390   7.063   0.419   6.326  0.1960  0.7491  2.7405
   25MOL0     H 3391   7.191   0.140   6.324 -2.4069 -2.6111 -0.4700
   25MOL0     H 3392   7.029   0.185   6.292 -0.1271  0.2874  1.4328
   25MOL0     H 3393   7.078   0.085   6.511  1.9808 -0.3792  0.2404
   25MOL0     H 3394   7.211   0.204   6.532 -0.7281  2.4175  0.3656
   25MOL0     H 3395   6.920   0.305   6.498 -1.4690 -0.6599  0.1137
   25MOL0     H 3396   7.050   0.384   6.568 -3.0995  1.3045  2.0599
   25MOL0     H 3397   6.934   0.129   6.697 -2.3152  1.3394  0.1098
   25MOL0     H 3398   7.054   0.239   6.770  0.4580  1.7829 -0.3202
   25MOL0     H 3399   6.934   0.470   6.848 -1.1480 -0.2881  2.3929
   25MOL0     H 3400   6.709   0.622   6.909 -0.7822  2.4008 -0.5267
   25MOL0     H 3401   6.568   0.614   6.814  0.5638  0.4629  0.2678
   25MOL0     H 3402   6.671   0.806   6.734 -0.3495  0.0293  1.6130
   25MOL0     H 3403   6.834   0.734   6.720 -0.6782 -0.1728  1.0968
   25MOL0     H 3404   6.711   0.790   6.511  0.8019  0.2446 -0.7798
   25MOL0     H 3405   6.793   0.627   6.523  0.0556 -1.4869  1.7742
   25MOL0     H 3406   6.576   0.525   6.515 -1.1867  0.4068 -0.7432
   25MOL0     H 3407   6.497   0.688   6.554 -0.0598 -1.2183  2.4941
   25MOL0     H 3408   6.621   0.807   6.167  0.6988  1.5051  3.5732
   25MOL0     H 3409   6.698   0.692   5.868  0.4371 -1.1800  0.0196
   25MOL0     H 3410   6.818   0.819   5.896  2.1227 -1.1903  0.0178
   25MOL0     H 3411   6.649   0.834   5.957  0.1096 -0.9792  1.5954
   25MOL0     H 3412   6.827   0.323   5.824 -0.1239 -1.2285  1.1228
   25MOL0     H 3413   6.855   0.150   5.628 -1.6218  0.3914  0.9457
   25MOL0     H 3414   6.901   0.066   5.435  1.1154  1.5107  1.4673
   25MOL0     H 3415   6.996   0.212   5.392 -0.3933  1.1054  0.9623
   25MOL0     H 3416   6.953   0.028   5.220 -0.7684 -2.0999  2.1622
   25MOL0     H 3417   7.116   0.107   5.245  1.9161 -2.7026  0.7480
   25MOL0     H 3418   7.171  -0.100   5.390  0.5264  4.1551 -0.1850
   25MOL0     H 3419   7.212  -0.075   5.222  0.1698 -1.7084  0.4238
   25MOL0     H 3420   7.030  -0.224   5.145 -0.1643  1.5833 -0.4871
   25MOL0     H 3421   6.962  -0.236   5.315  0.1885  0.7000  0.6221
   25MOL0     H 3422   7.206  -0.337   5.181 -0.1756  1.9940 -0.7196
   25MOL0     H 3423   7.209  -0.329   5.352  2.7681 -0.5379 -2.5141
   25MOL0     H 3424   6.982  -0.458   5.327 -0.0418  0.8134  0.0538
   25MOL0     H 3425   7.135  -0.554   5.315 -0.7012 -1.1934 -0.3145
   25MOL0     H 3426   7.057  -0.616   5.096 -0.9845 -0.9805 -0.0883
   25MOL0     H 3427   7.086  -0.451   5.043  1.2309  1.2301  2.1936
   25MOL0     H 3428   6.860  -0.394   5.087 -2.5053 -1.0850 -1.1248
   25MOL0     H 3429   6.822  -0.533   5.188 -0.6156  2.5149  0.3976
   25MOL0     H 3430   7.277   0.173   5.676 -0.4828 -2.1679  1.1119
   25MOL0     H 3431   7.255   0.319   5.874  1.1272 -0.9263 -0.7900
   25MOL0     H 3432   6.909   0.402   6.193 -0.0906 -1.1518 -1.8157
   25MOL0     H 3433   6.725   0.439   6.363 -0.3954 -2.2786 -1.5376
   25MOL0     H 3434   7.632   0.628   6.034  0.1222 -3.4434 -2.9113
   25MOL0     H 3435   7.692   0.812   5.866  0.3992  0.8888  0.4162
   25MOL0     H 3436   7.532   1.154   5.654  1.3018 -2.6724  0.7044
   25MOL0     H 3437   7.510   1.334   5.500  0.8915  0.9316  1.4379
   25MOL0     H 3438   7.551   1.484   5.147 -2.8180 -0.5971 -0.5496
   25MOL0     H 3439   7.662   1.373   5.081 -0.5299 -5.0419  0.0124
   25MOL0     H 3440   7.412   1.286   5.236 -3.5248  1.7483 -1.2013
   25MOL0     H 3441   7.523   1.179   5.142  0.1362  0.9075 -2.9130
   25MOL0     H 3442   7.485   1.370   4.962 -0.2093  1.0589  0.5769
   25MOL0     H 3443   7.407   1.201   4.968 -0.4921 -0.6164  0.5113
   25MOL0     H 3444   7.236   1.391   4.926 -0.2881  0.3027  0.2484
   25MOL0     H 3445   7.279   1.455   5.079  3.3650  0.0311  0.5583
   25MOL0     H 3446   6.981   1.155   5.122 -0.9452  1.5689  1.4002
   25MOL0     H 3447   7.815   1.184   5.254  1.4934  1.4893  1.1354
   25MOL0     H 3448   7.777   0.827   5.360  2.1543 -0.0123  0.0148
   25MOL0     H 3449   7.873   0.950   5.266 -1.0207 -1.6131 -0.3487
   25MOL0     H 3450   7.916   0.910   5.420  0.0835 -2.8225  0.3256
   26MOL0     O 3451   6.811   6.246   0.226 -0.2551  0.7096  0.5242
   26MOL0     C 3452   6.925   6.194   0.237 -0.1092 -0.2242 -0.1455
   26MOL0     O 3453   7.054   6.257   0.216 -0.1323  0.4298  0.5132
   26MOL0     C 3454   7.059   6.391   0.242  0.0243 -1.2460 -0.6157
   26MOL0     C 3455   7.043   6.438   0.373  0.5063  0.0184 -0.5750
   26MOL0     C 3456   7.029   6.581   0.396  0.1959  0.0338  0.8093
   26MOL0     C 3457   7.026   6.671   0.295 -0.1741  0.2123 -0.0069
   26MOL0     O 3458   6.998   6.805   0.302 -0.1346 -0.1425 -0.1010
   26MOL0     C 3459   6.897   6.849   0.391  0.3198  0.9163 -0.5555
   26MOL0     C 3460   6.874   6.995   0.357  0.4580  0.2554  0.9934
   26MOL0     C 3461   6.762   7.064   0.432  0.6968  0.5257  0.1078
   26MOL0     C 3462   6.763   7.050   0.586  0.7592 -1.0901 -0.8842
   26MOL0     C 3463   6.672   7.151   0.647  0.2322  0.2479 -0.0165
   26MOL0     C 3464   6.586   7.080   0.763 -0.3533  0.8743 -0.8289
   26MOL0     C 3465   6.462   7.157   0.822 -0.0762  0.1910  0.8295
   26MOL0     C 3466   6.479   7.157   0.975 -0.3121 -0.1507  0.1028
   26MOL0     N 3467   6.373   7.242   1.046 -0.7588  0.1849 -0.2848
   26MOL0     C 3468   6.239   7.205   1.053  0.4716 -0.6271 -0.3694
   26MOL0     C 3469   6.180   7.323   1.096  0.3868  0.5016  0.0515
   26MOL0     C 3470   6.041   7.348   1.148  1.3286  1.4353 -0.6645
   26MOL0     C 3471   5.960   7.455   1.073  0.1263  0.7098  0.3980
   26MOL0     C 3472   5.808   7.461   1.121 -0.2049  0.3838  0.0425
   26MOL0     C 3473   5.723   7.546   1.023 -0.0810 -0.6301  0.6020
   26MOL0     O 3474   5.716   7.496   0.893 -0.1900 -0.4118  0.4410
   26MOL0     C 3475   5.612   7.424   0.847 -0.4018 -0.4341 -0.5801
   26MOL0     C 3476   5.500   7.384   0.930 -0.5481  0.1382 -0.2494
   26MOL0     C 3477   5.410   7.285   0.892  1.0715  0.3034 -0.3609
   26MOL0     C 3478   5.323   7.237   1.002  0.6473 -0.6654 -0.1804
   26MOL0     C 3479   5.418   7.229   0.759 -0.1134 -0.7191  0.1621
   26MOL0     C 3480   5.310   7.145   0.711  0.4509  0.1767  0.4650
   26MOL0     O 3481   5.355   7.030   0.647  0.2497 -0.3473 -0.5730
   26MOL0     C 3482   5.260   6.961   0.573 -0.2610  0.4549 -0.5364
   26MOL0     C 3483   5.231   6.999   0.441  0.0118  0.2716  0.9619
   26MOL0     C 3484   5.126   6.925   0.372  0.5223  0.1168  0.1071
   26MOL0     C 3485   5.055   6.820   0.431 -0.1209 -0.9294 -0.3870
   26MOL0     O 3486   4.954   6.780   0.345  0.0722  0.1044  0.6691
   26MOL0     C 3487   4.938   6.638   0.345  1.0371  0.5248 -0.0380
   26MOL0     C 3488   4.893   6.605   0.200 -0.3670 -0.8082 -0.1732
   26MOL0     C 3489   4.998   6.614   0.101 -0.3845 -0.5938 -0.1008
   26MOL0     C 3490   4.943   6.598  -0.045 -0.0657  0.0945 -0.3116
   26MOL0     C 3491   5.042   6.602  -0.155 -0.5597 -0.3002  0.6964
   26MOL0     C 3492   4.970   6.597  -0.290 -0.9287  0.2070  1.1275
   26MOL0     C 3493   5.035   6.677  -0.402 -0.0633 -0.2740 -0.3689
   26MOL0     C 3494   5.036   6.615  -0.539  0.5079  0.4260  0.4562
   26MOL0    Cl 3495   5.161   6.489  -0.536  0.2849  0.1260  0.4523
   26MOL0     C 3496   5.085   6.790   0.571  1.3586  0.0134 -0.2112
   26MOL0     C 3497   5.200   6.845   0.623  0.3445 -0.0766  0.1187
   26MOL0     O 3498   5.190   7.194   0.712  0.0208  0.7171  0.5680
   26MOL0     C 3499   5.513   7.279   0.669  0.0192 -0.4685 -0.3827
   26MOL0     C 3500   5.615   7.370   0.721  0.7214  0.2406  0.4293
   26MOL0     N 3501   6.284   7.408   1.120  0.4894  0.0290  0.1507
   26MOL0     N 3502   6.395   7.371   1.077  1.0682  0.0002 -0.5188
   26MOL0     C 3503   7.045   6.626   0.163 -0.0710  0.2635 -0.5295
   26MOL0     C 3504   7.063   6.485   0.140 -0.5479 -0.0115  0.0412
   26MOL0     C 3505   6.924   6.047   0.247 -0.2490 -1.0011  0.2356
   26MOL0     C 3506   7.005   5.964   0.176 -0.7393 -0.0647  0.1129
   26MOL0     C 3507   7.005   5.825   0.181  0.4878  0.6699  1.4629
   26MOL0     C 3508   6.922   5.760   0.269  0.3516 -0.5557  0.2027
   26MOL0     O 3509   6.923   5.626   0.273  0.1578  0.2592  0.1426
   26MOL0     C 3510   6.897   5.536   0.388  0.8193  0.2502 -0.1214
   26MOL0     C 3511   6.882   5.400   0.337 -0.2923  0.3954 -0.3198
   26MOL0     C 3512   7.017   5.331   0.312 -0.1156 -0.1379  0.0282
   26MOL0     C 3513   7.109   5.299   0.431 -0.0158  0.0186 -0.2796
   26MOL0     C 3514   7.043   5.191   0.514 -0.1374 -0.2695  0.0749
   26MOL0     C 3515   6.992   5.100   0.570 -0.7078  0.5647  0.2887
   26MOL0     C 3516   6.848   5.845   0.353  0.0973  0.7716 -0.1076
   26MOL0     C 3517   6.840   5.983   0.341 -0.5399  0.5561 -0.5064
   26MOL0     C 3518   6.739   6.051   0.426 -0.2627 -0.7021  0.7369
   26MOL0     H 3519   7.045   6.363   0.452 -0.5594  0.4149 -0.1569
   26MOL0     H 3520   7.009   6.615   0.497 -1.3464 -0.2507  0.6244
   26MOL0     H 3521   6.937   6.831   0.492  1.4610  1.3909 -0.9111
   26MOL0     H 3522   6.807   6.788   0.380  0.5855  0.1524  1.1329
   26MOL0     H 3523   6.966   7.052   0.372  1.1776 -0.5931  0.0045
   26MOL0     H 3524   6.845   6.985   0.252 -0.5845  0.3427  1.2690
   26MOL0     H 3525   6.765   7.171   0.412  1.4751  0.5776  0.4537
   26MOL0     H 3526   6.665   7.027   0.397  1.8069 -1.0199 -1.5432
   26MOL0     H 3527   6.728   6.951   0.617 -0.4981 -0.0505  1.1945
   26MOL0     H 3528   6.859   7.059   0.638  0.4587  2.6245 -0.7586
   26MOL0     H 3529   6.597   7.195   0.580 -1.1288 -0.3057  1.0863
   26MOL0     H 3530   6.721   7.231   0.704 -2.7524  1.3128  1.2912
   26MOL0     H 3531   6.547   6.988   0.717 -2.5601  0.5594  1.3998
   26MOL0     H 3532   6.655   7.044   0.840 -2.3609 -2.3653 -0.3128
   26MOL0     H 3533   6.365   7.110   0.801 -0.1213  0.7720 -0.3476
   26MOL0     H 3534   6.445   7.259   0.784 -3.5441  0.4518  2.6537
   26MOL0     H 3535   6.499   7.060   1.021 -0.5437  0.2388  1.0406
   26MOL0     H 3536   6.579   7.196   0.993  0.1607 -0.4873 -1.6021
   26MOL0     H 3537   6.194   7.106   1.059  2.2485 -1.4068  1.1296
   26MOL0     H 3538   6.043   7.374   1.255  1.6813  2.1066 -0.8305
   26MOL0     H 3539   5.982   7.256   1.150 -0.2603  2.3688 -2.2197
   26MOL0     H 3540   6.007   7.550   1.099  1.8642 -0.6192  2.4237
   26MOL0     H 3541   5.957   7.442   0.965 -2.9576  0.1995  0.4352
   26MOL0     H 3542   5.763   7.362   1.120 -3.6637  1.6598  3.5412
   26MOL0     H 3543   5.804   7.502   1.222  1.9609  2.3429 -0.5662
   26MOL0     H 3544   5.628   7.565   1.074 -1.2422 -0.7055 -1.4295
   26MOL0     H 3545   5.777   7.641   1.014 -0.1901 -0.3408  2.5524
   26MOL0     H 3546   5.486   7.424   1.030  0.2065 -1.0600  0.3658
   26MOL0     H 3547   5.246   7.314   1.012  1.7335  0.5033 -0.4384
   26MOL0     H 3548   5.385   7.233   1.092 -0.4808  1.0061  0.7219
   26MOL0     H 3549   5.275   7.141   0.980 -1.9796  0.9546 -2.2121
   26MOL0     H 3550   5.269   7.088   0.392 -2.7525  1.2367  0.4424
   26MOL0     H 3551   5.112   6.960   0.270  1.8443  0.7682  0.1303
   26MOL0     H 3552   5.031   6.589   0.374 -0.2840 -1.5027  1.0433
   26MOL0     H 3553   4.858   6.607   0.413  0.6556 -0.0618 -0.7401
   26MOL0     H 3554   4.858   6.502   0.194 -2.0243 -0.2164 -5.1266
   26MOL0     H 3555   4.805   6.666   0.179  1.4762  2.6201  1.0977
   26MOL0     H 3556   5.079   6.542   0.118  1.3296  1.0649 -0.8896
   26MOL0     H 3557   5.045   6.712   0.114 -2.3822  0.5844 -1.4052
   26MOL0     H 3558   4.882   6.688  -0.059  1.9201  1.9149  1.9405
   26MOL0     H 3559   4.884   6.505  -0.051  0.4427 -0.2904  0.4400
   26MOL0     H 3560   5.094   6.698  -0.155  1.7212 -1.4077 -1.8167
   26MOL0     H 3561   5.124   6.530  -0.155  0.2975  0.6531  0.6377
   26MOL0     H 3562   4.865   6.627  -0.294 -0.7690  0.6709  0.1260
   26MOL0     H 3563   4.989   6.498  -0.332  1.1873  1.3990 -0.9729
   26MOL0     H 3564   5.140   6.691  -0.376  1.0569  0.4477 -4.5503
   26MOL0     H 3565   4.993   6.778  -0.403  2.8219  1.0393 -1.0040
   26MOL0     H 3566   5.062   6.678  -0.625 -2.8813 -0.6732 -1.5817
   26MOL0     H 3567   4.935   6.584  -0.570  0.5685  0.9148 -0.2722
   26MOL0     H 3568   5.043   6.713   0.635  0.9439  1.7897  1.7869
   26MOL0     H 3569   5.223   6.831   0.728  0.1106  4.1528  0.9018
   26MOL0     H 3570   5.502   7.256   0.564 -2.5616  1.9089 -0.7521
   26MOL0     H 3571   5.699   7.386   0.654  1.3533 -1.6800  0.6849
   26MOL0     H 3572   7.034   6.695   0.080  1.0873  0.2618 -0.6940
   26MOL0     H 3573   7.070   6.443   0.040  0.2663 -0.3032  0.2155
   26MOL0     H 3574   7.083   6.017   0.121  0.3028  0.3329  1.8849
   26MOL0     H 3575   7.053   5.761   0.108  1.1160  0.3823  2.1134
   26MOL0     H 3576   6.972   5.539   0.467 -0.6961  0.9582  1.3630
   26MOL0     H 3577   6.807   5.561   0.446  3.1891  4.6478  2.1840
   26MOL0     H 3578   6.817   5.402   0.249  0.6685  2.3117 -1.0470
   26MOL0     H 3579   6.837   5.337   0.414  4.6772 -2.8753  0.3572
   26MOL0     H 3580   6.994   5.238   0.260  0.0274 -0.2046  0.0843
   26MOL0     H 3581   7.083   5.397   0.256  1.3885  0.7891  2.7371
   26MOL0     H 3582   7.123   5.391   0.488  0.6764  2.4002 -3.9096
   26MOL0     H 3583   7.207   5.258   0.404  0.8384  0.1808  2.2824
   26MOL0     H 3584   6.940   5.018   0.617 -0.0089  0.5310  1.0316
   26MOL0     H 3585   6.788   5.800   0.431 -0.6538  1.2016 -0.4306
   26MOL0     H 3586   6.698   5.983   0.501  1.0902 -0.6538  1.5590
   26MOL0     H 3587   6.789   6.127   0.486  1.8709 -0.1420 -1.5726
   26MOL0     H 3588   6.665   6.100   0.362  3.6678  2.7639 -1.7489
   27MOL0     O 3589   5.258   4.533   2.652  0.0190  0.2003 -0.4722
   27MOL0     C 3590   5.295   4.577   2.760  0.7873  0.9733 -0.3392
   27MOL0     O 3591   5.234   4.678   2.823 -1.2441  0.3928 -0.9010
   27MOL0     C 3592   5.156   4.760   2.760  0.7243  0.9332  0.0835
   27MOL0     C 3593   5.022   4.748   2.790  0.2089  0.6510 -0.2421
   27MOL0     C 3594   4.933   4.852   2.747 -0.6089  0.1754 -1.0781
   27MOL0     C 3595   4.981   4.959   2.663  0.1300 -1.2157 -0.2524
   27MOL0     O 3596   4.896   5.063   2.620  0.6687  0.2431  0.4776
   27MOL0     C 3597   4.765   5.058   2.675 -0.9469 -1.4022 -0.8694
   27MOL0     C 3598   4.671   5.151   2.611  0.1816 -0.2636 -0.0865
   27MOL0     C 3599   4.699   5.302   2.628 -0.2337  0.3541 -0.1698
   27MOL0     C 3600   4.656   5.378   2.508  0.2505 -0.8176  0.6577
   27MOL0     C 3601   4.676   5.525   2.534 -0.4204 -0.1257  0.8146
   27MOL0     C 3602   4.820   5.560   2.562 -0.7480 -0.3680 -0.5184
   27MOL0     C 3603   4.849   5.710   2.585 -0.8740  0.0202  0.3976
   27MOL0     C 3604   5.000   5.738   2.583  0.2291 -0.0888 -1.4808
   27MOL0     N 3605   5.043   5.869   2.621 -0.0009 -0.8815  0.8153
   27MOL0     C 3606   5.170   5.910   2.657  0.6839  0.6451 -0.3245
   27MOL0     C 3607   5.153   6.035   2.691 -1.0352 -0.9298 -0.7068
   27MOL0     C 3608   5.251   6.132   2.753  0.5299  0.6305  0.9158
   27MOL0     C 3609   5.298   6.081   2.883 -0.8641  0.7209 -0.0049
   27MOL0     C 3610   5.406   6.180   2.945  0.1865 -0.5750  0.1646
   27MOL0     C 3611   5.477   6.124   3.071 -0.5690 -0.6074 -0.3707
   27MOL0     O 3612   5.499   6.211   3.185  0.3623  0.3241  0.3364
   27MOL0     C 3613   5.584   6.169   3.285 -0.1838 -0.2170  0.4393
   27MOL0     C 3614   5.634   6.035   3.295  0.3541  0.0571 -0.1195
   27MOL0     C 3615   5.727   6.001   3.390 -0.8449 -1.3587 -0.2749
   27MOL0     C 3616   5.770   5.864   3.383 -0.8530  0.0087 -0.4932
   27MOL0     C 3617   5.761   6.098   3.499 -0.0401  0.0742 -0.4960
   27MOL0     C 3618   5.866   6.079   3.606  0.8362  0.6439  0.2012
   27MOL0     O 3619   5.900   6.202   3.665  0.3006  0.0503  0.8629
   27MOL0     C 3620   6.008   6.203   3.749  0.3755 -0.5563  0.4025
   27MOL0     C 3621   5.994   6.257   3.872  0.6945 -0.3734 -0.2481
   27MOL0     C 3622   6.102   6.279   3.952  0.3306 -0.6292  0.2567
   27MOL0     C 3623   6.233   6.237   3.913 -0.2790 -0.5126  0.8000
   27MOL0     O 3624   6.348   6.260   3.995  0.4814  0.4654 -0.2594
   27MOL0     C 3625   6.479   6.212   3.958  1.4626  0.4791  0.0292
   27MOL0     C 3626   6.579   6.213   4.075  0.2745 -0.8724 -0.2733
   27MOL0     C 3627   6.720   6.166   4.032  0.8227 -1.2857 -0.2097
   27MOL0     C 3628   6.788   6.097   4.150  0.4789  0.7155  0.3506
   27MOL0     C 3629   6.929   6.044   4.098 -0.7033  0.6189  0.3699
   27MOL0     C 3630   7.009   5.967   4.202 -0.5002  0.1479 -0.3269
   27MOL0     C 3631   6.966   5.818   4.186  0.0502 -0.3233  0.8803
   27MOL0     C 3632   7.042   5.717   4.271 -0.3146  0.6904  0.6663
   27MOL0    Cl 3633   6.954   5.684   4.422 -0.3417 -0.1861 -0.0742
   27MOL0     C 3634   6.253   6.183   3.782  0.5911  0.3466  0.1886
   27MOL0     C 3635   6.141   6.183   3.694 -0.1406  1.1729 -0.3617
   27MOL0     O 3636   5.910   5.971   3.638 -0.6049  0.0843 -0.4899
   27MOL0     C 3637   5.699   6.225   3.493  0.0069  0.3706  0.4680
   27MOL0     C 3638   5.618   6.260   3.386  0.3622 -0.5376  1.6258
   27MOL0     N 3639   5.028   6.078   2.667 -0.1114  0.8223  0.4885
   27MOL0     N 3640   4.960   5.982   2.613 -0.7389 -0.1860 -0.4002
   27MOL0     C 3641   5.117   4.952   2.621 -0.9751  0.6463 -0.3658
   27MOL0     C 3642   5.208   4.858   2.671 -0.7842  0.4890 -0.0118
   27MOL0     C 3643   5.423   4.538   2.820 -0.8725 -0.0437 -0.8499
   27MOL0     C 3644   5.519   4.464   2.739 -0.0549 -0.0856 -0.5057
   27MOL0     C 3645   5.647   4.431   2.779  0.0454 -0.3735 -0.1387
   27MOL0     C 3646   5.688   4.469   2.912 -0.6676  0.0277  0.0625
   27MOL0     O 3647   5.817   4.427   2.940  0.5257  0.0468  0.7229
   27MOL0     C 3648   5.873   4.464   3.069  0.4119  0.1267 -0.1473
   27MOL0     C 3649   5.928   4.602   3.056 -0.2898 -0.7286  0.1097
   27MOL0     C 3650   6.017   4.648   3.175 -0.0439 -0.2384  0.4216
   27MOL0     C 3651   6.086   4.785   3.143  0.6167  0.5569  0.2122
   27MOL0     C 3652   5.983   4.887   3.130  0.0746  0.1327 -0.6708
   27MOL0     C 3653   5.907   4.984   3.140  0.3064  0.5129 -0.5920
   27MOL0     C 3654   5.603   4.545   2.985 -0.5939  0.6945  1.3933
   27MOL0     C 3655   5.472   4.576   2.944  0.1279 -0.4489 -0.0443
   27MOL0     C 3656   5.395   4.659   3.052  0.3361 -0.4267  0.1575
   27MOL0     H 3657   4.991   4.662   2.849  0.3517 -0.8348 -2.2271
   27MOL0     H 3658   4.836   4.857   2.795 -0.4691  0.3393 -0.8061
   27MOL0     H 3659   4.770   5.093   2.778  0.6894  0.0262 -1.3849
   27MOL0     H 3660   4.721   4.958   2.669 -1.6813 -1.2148  0.8184
   27MOL0     H 3661   4.676   5.119   2.507  2.0469  0.8608 -0.3837
   27MOL0     H 3662   4.571   5.137   2.652 -0.9163  0.9593 -2.1400
   27MOL0     H 3663   4.645   5.316   2.723  1.6374  1.5224  0.7846
   27MOL0     H 3664   4.806   5.317   2.640  0.4544 -1.2156 -3.3813
   27MOL0     H 3665   4.711   5.340   2.421 -0.1197 -1.6781  0.7933
   27MOL0     H 3666   4.548   5.366   2.496  0.0776 -1.9773  2.9066
   27MOL0     H 3667   4.605   5.553   2.612 -0.9695  0.4409  0.1201
   27MOL0     H 3668   4.640   5.582   2.448  1.2976 -0.1183  0.0529
   27MOL0     H 3669   4.855   5.512   2.653 -2.7601 -2.5822 -0.8221
   27MOL0     H 3670   4.877   5.533   2.473 -0.9118  2.9492 -1.7884
   27MOL0     H 3671   4.792   5.746   2.672  1.5605  1.1970  1.5911
   27MOL0     H 3672   4.808   5.764   2.500 -0.2288  0.0173  0.0830
   27MOL0     H 3673   5.049   5.689   2.668  4.4434 -1.2207 -4.2107
   27MOL0     H 3674   5.049   5.706   2.490  0.2891 -0.4817 -1.3165
   27MOL0     H 3675   5.258   5.847   2.654 -1.1963 -2.1458 -0.4410
   27MOL0     H 3676   5.215   6.235   2.763 -4.0979 -0.3354 -2.6310
   27MOL0     H 3677   5.336   6.143   2.685  0.8630 -2.3148  0.7328
   27MOL0     H 3678   5.210   6.059   2.944 -0.6826 -3.3311 -0.9469
   27MOL0     H 3679   5.350   5.987   2.863 -2.7175 -0.4121  0.3493
   27MOL0     H 3680   5.485   6.199   2.872 -1.5642  0.2330 -1.6132
   27MOL0     H 3681   5.358   6.272   2.979 -0.9971 -1.4819  1.0512
   27MOL0     H 3682   5.408   6.048   3.111 -0.1391 -1.1374 -0.6219
   27MOL0     H 3683   5.570   6.074   3.044 -0.7264 -1.9437  1.3682
   27MOL0     H 3684   5.606   5.965   3.217  2.5473  1.6386 -2.4851
   27MOL0     H 3685   5.868   5.861   3.333 -1.0158  0.0204 -0.8117
   27MOL0     H 3686   5.707   5.798   3.324 -0.2706 -1.6645  0.6877
   27MOL0     H 3687   5.770   5.840   3.490 -5.2025 -0.1146 -0.3816
   27MOL0     H 3688   5.903   6.303   3.910  0.7827 -0.3398 -0.0764
   27MOL0     H 3689   6.083   6.320   4.051 -1.3431 -1.4629  0.3082
   27MOL0     H 3690   6.476   6.112   3.915 -2.8525  0.2005  0.4716
   27MOL0     H 3691   6.529   6.277   3.887  0.0100  2.4975  0.7444
   27MOL0     H 3692   6.603   6.315   4.106  0.2009 -1.7310  3.0043
   27MOL0     H 3693   6.530   6.158   4.156  1.2543  1.6115  2.1912
   27MOL0     H 3694   6.769   6.258   4.001 -0.7866 -0.9471 -1.8959
   27MOL0     H 3695   6.718   6.100   3.945  3.8361 -1.9214  0.1046
   27MOL0     H 3696   6.732   6.011   4.187 -0.3289  1.0315 -0.1195
   27MOL0     H 3697   6.822   6.164   4.230  1.9472  0.7549 -0.2822
   27MOL0     H 3698   6.918   5.997   4.000 -2.3841  1.2403  0.2330
   27MOL0     H 3699   6.991   6.132   4.082 -2.1538  1.3508 -1.6373
   27MOL0     H 3700   6.983   5.998   4.304 -1.1149  3.9170 -1.4913
   27MOL0     H 3701   7.116   5.985   4.191 -0.1817  0.3688  2.4683
   27MOL0     H 3702   6.965   5.793   4.079 -1.5687 -1.0299  1.0209
   27MOL0     H 3703   6.859   5.800   4.201 -0.6076 -1.8064 -3.8248
   27MOL0     H 3704   7.139   5.754   4.304  1.4059 -1.8509 -1.1978
   27MOL0     H 3705   7.063   5.626   4.215  0.9872  2.4446 -1.9103
   27MOL0     H 3706   6.347   6.145   3.744 -0.2920 -0.5658 -1.1582
   27MOL0     H 3707   6.143   6.139   3.595 -0.8841  0.0029  0.1194
   27MOL0     H 3708   5.727   6.310   3.555  0.0312  0.7158 -0.0049
   27MOL0     H 3709   5.576   6.360   3.389 -1.2384 -1.1495  0.8259
   27MOL0     H 3710   5.162   5.030   2.559  0.4335  0.9850  0.9983
   27MOL0     H 3711   5.314   4.853   2.645 -0.8840  2.6716 -1.0922
   27MOL0     H 3712   5.485   4.432   2.641 -0.6650  0.7885 -0.5937
   27MOL0     H 3713   5.711   4.372   2.713  0.2015 -0.2664 -0.0836
   27MOL0     H 3714   5.811   4.465   3.159  0.4356  0.2305 -0.1325
   27MOL0     H 3715   5.960   4.402   3.093 -0.2819 -1.2673 -1.1222
   27MOL0     H 3716   5.856   4.681   3.035  1.2313  0.3465 -1.2925
   27MOL0     H 3717   5.994   4.590   2.970 -1.7383 -1.4937 -0.9310
   27MOL0     H 3718   5.958   4.651   3.267 -0.6434 -1.4715  0.0974
   27MOL0     H 3719   6.098   4.575   3.181 -2.3634 -2.9356  1.2147
   27MOL0     H 3720   6.146   4.774   3.052 -0.6972  0.3207 -0.6629
   27MOL0     H 3721   6.156   4.813   3.222  3.8408  1.1595 -2.6407
   27MOL0     H 3722   5.859   5.079   3.132  0.0583  0.3426 -1.1465
   27MOL0     H 3723   5.634   4.582   3.082 -0.5425  0.9409  1.2858
   27MOL0     H 3724   5.428   4.655   3.156 -0.3085 -0.8687  0.3557
   27MOL0     H 3725   5.383   4.766   3.034 -3.2687 -0.0844  3.3237
   27MOL0     H 3726   5.292   4.621   3.043 -0.6939  2.6027 -3.2857
   28MOL0     O 3727  11.120   6.859   5.706  0.9696 -0.1092  0.1637
   28MOL0     C 3728  11.085   6.978   5.722  1.4456  0.2465 -0.2759
   28MOL0     O 3729  11.048   7.062   5.622 -0.3634  0.0212 -0.2246
   28MOL0     C 3730  11.095   7.038   5.504  0.2848  0.4617  0.2440
   28MOL0     C 3731  11.016   6.970   5.406 -0.2475  0.1904  0.2890
   28MOL0     C 3732  11.069   6.945   5.275  0.5012  0.2874 -0.5153
   28MOL0     C 3733  11.207   6.985   5.253 -0.5063 -0.6499 -0.0299
   28MOL0     O 3734  11.268   6.963   5.129  0.6918  0.3402  0.2624
   28MOL0     C 3735  11.201   6.872   5.033  0.5267 -0.3966 -0.4829
   28MOL0     C 3736  11.295   6.870   4.925  0.3271  1.0213  0.2356
   28MOL0     C 3737  11.236   6.909   4.791 -0.2440  0.1974 -0.1948
   28MOL0     C 3738  11.325   6.885   4.674 -0.0326  0.2315 -0.2592
   28MOL0     C 3739  11.285   6.929   4.529 -0.4766 -0.3738  0.7137
   28MOL0     C 3740  11.179   6.843   4.461 -0.4893  0.0350  0.1620
   28MOL0     C 3741  11.235   6.719   4.404  0.0204 -0.7619  0.5350
   28MOL0     C 3742  11.327   6.743   4.276  0.5182  0.4515  0.1373
   28MOL0     N 3743  11.430   6.640   4.250  0.0217 -0.4643 -0.5331
   28MOL0     C 3744  11.406   6.509   4.246 -0.2937  0.0698 -0.4452
   28MOL0     C 3745  11.530   6.461   4.222 -0.1371 -1.1030 -0.8885
   28MOL0     C 3746  11.576   6.318   4.198  0.4006  0.3022  0.5179
   28MOL0     C 3747  11.475   6.219   4.126  0.8361 -0.5281 -0.3014
   28MOL0     C 3748  11.537   6.149   4.001  0.3782  0.0308 -0.8345
   28MOL0     C 3749  11.521   6.228   3.874 -0.0015 -0.2895  0.6569
   28MOL0     O 3750  11.522   6.136   3.761  0.3482 -0.0226 -0.5981
   28MOL0     C 3751  11.630   6.082   3.705 -0.6246  0.1288  0.1784
   28MOL0     C 3752  11.613   6.001   3.590  0.3002 -0.0213  0.0648
   28MOL0     C 3753  11.715   5.963   3.504 -0.0458 -0.0681  0.0784
   28MOL0     C 3754  11.684   5.887   3.373  0.0486 -0.6613  0.9638
   28MOL0     C 3755  11.845   6.005   3.539  0.2163  0.4962 -0.2663
   28MOL0     C 3756  11.955   5.991   3.447  0.1192 -1.2616 -0.7845
   28MOL0     O 3757  11.993   5.863   3.417 -0.2151 -0.8238  0.0149
   28MOL0     C 3758  12.088   5.837   3.320 -0.0395 -0.0707 -0.1047
   28MOL0     C 3759  12.159   5.716   3.322  0.4626  0.5015 -0.2367
   28MOL0     C 3760  12.266   5.697   3.229  0.2490  0.1449  0.9067
   28MOL0     C 3761  12.306   5.788   3.136 -0.4510  0.0071  0.3003
   28MOL0     O 3762  12.426   5.769   3.063 -0.0523 -0.2155 -0.2174
   28MOL0     C 3763  12.444   5.835   2.939 -0.1115 -0.7799  0.3248
   28MOL0     C 3764  12.595   5.840   2.921  0.9522  0.9719 -0.5015
   28MOL0     C 3765  12.644   5.948   2.834 -1.4459  0.5461 -0.1628
   28MOL0     C 3766  12.796   5.960   2.828 -0.7783  0.3239 -0.4899
   28MOL0     C 3767  12.828   6.076   2.748  0.0298 -0.6392 -0.0762
   28MOL0     C 3768  12.979   6.070   2.717 -0.9371  1.0561  0.2706
   28MOL0     C 3769  13.010   6.022   2.570  0.1092 -0.6507  0.5030
   28MOL0     C 3770  13.163   5.996   2.544 -0.2170  0.2189 -0.8479
   28MOL0    Cl 3771  13.176   5.890   2.409  0.4591  0.2544 -0.1689
   28MOL0     C 3772  12.231   5.913   3.137  0.1743 -1.2302  0.7256
   28MOL0     C 3773  12.114   5.917   3.213  0.4179  0.6522  1.0517
   28MOL0     O 3774  12.024   6.090   3.421  0.2390 -0.3504 -0.4831
   28MOL0     C 3775  11.876   6.077   3.657 -0.5736  0.0374  0.7192
   28MOL0     C 3776  11.767   6.119   3.730 -0.1528  0.2862  0.1836
   28MOL0     N 3777  11.613   6.564   4.205 -0.7387  0.3462 -0.0608
   28MOL0     N 3778  11.557   6.673   4.216  0.6436 -0.6461 -0.7755
   28MOL0     C 3779  11.285   7.043   5.353  0.5966 -0.4577  0.5270
   28MOL0     C 3780  11.227   7.074   5.479  1.3096 -0.7610  0.0240
   28MOL0     C 3781  11.073   7.031   5.863  1.3955 -0.4968 -0.1180
   28MOL0     C 3782  11.127   7.160   5.886 -0.5115 -0.0851 -0.2459
   28MOL0     C 3783  11.127   7.213   6.010  0.6871 -0.4848  0.5740
   28MOL0     C 3784  11.078   7.148   6.112 -0.5449 -0.2120 -1.3746
   28MOL0     O 3785  11.077   7.200   6.238 -0.3133 -0.1683  0.1032
   28MOL0     C 3786  11.190   7.149   6.315 -0.4871 -0.0192  0.1280
   28MOL0     C 3787  11.180   7.211   6.449  0.1778 -0.9539 -0.6819
   28MOL0     C 3788  11.070   7.143   6.528  0.7068  0.9172 -0.4806
   28MOL0     C 3789  11.022   7.221   6.647  0.1078 -0.7393 -0.3303
   28MOL0     C 3790  11.131   7.288   6.727  0.2853  0.8825  0.5051
   28MOL0     C 3791  11.206   7.361   6.789  0.1391  0.4402  0.8151
   28MOL0     C 3792  11.010   7.027   6.091 -0.5126 -0.0995  0.6649
   28MOL0     C 3793  11.006   6.962   5.966  0.7794  0.5683 -0.5717
   28MOL0     C 3794  10.940   6.818   5.966 -0.9534 -1.4925  0.4635
   28MOL0     H 3795  10.919   6.932   5.433 -2.1734  2.9994 -2.0526
   28MOL0     H 3796  11.005   6.894   5.205 -1.8758  1.6487  0.5369
   28MOL0     H 3797  11.108   6.917   4.998  0.2636 -0.1401  0.5204
   28MOL0     H 3798  11.187   6.767   5.058  0.0609 -1.2580 -3.8218
   28MOL0     H 3799  11.383   6.933   4.940  1.7182 -1.1702  1.8783
   28MOL0     H 3800  11.343   6.772   4.916 -0.1956  0.6759  1.1033
   28MOL0     H 3801  11.138   6.864   4.774  1.1642 -3.2197 -0.0450
   28MOL0     H 3802  11.216   7.016   4.804  1.2622  0.7129 -1.7140
   28MOL0     H 3803  11.419   6.939   4.689 -0.5073  1.2529 -0.8687
   28MOL0     H 3804  11.356   6.780   4.679  0.9352  0.5528  1.2603
   28MOL0     H 3805  11.380   6.940   4.477  0.2306  1.3530  2.2432
   28MOL0     H 3806  11.251   7.033   4.521  0.1200 -0.2652 -0.7909
   28MOL0     H 3807  11.097   6.834   4.533  1.0221 -2.5785  1.7171
   28MOL0     H 3808  11.134   6.899   4.379 -2.8857  0.7013  1.8066
   28MOL0     H 3809  11.158   6.646   4.377  1.3425 -2.1796  0.4306
   28MOL0     H 3810  11.299   6.668   4.477 -0.8092 -2.2226  0.2980
   28MOL0     H 3811  11.267   6.746   4.185  3.6326  3.2283 -2.0850
   28MOL0     H 3812  11.370   6.843   4.286 -1.2594  1.3532 -0.7301
   28MOL0     H 3813  11.314   6.453   4.254 -1.0409  0.6487 -3.4326
   28MOL0     H 3814  11.596   6.290   4.302  0.4696  1.4036  0.8104
   28MOL0     H 3815  11.666   6.313   4.137 -0.9264 -2.5194 -1.4509
   28MOL0     H 3816  11.450   6.141   4.199  3.2176 -1.3837 -0.3164
   28MOL0     H 3817  11.380   6.269   4.104  1.8549  2.2994  1.1903
   28MOL0     H 3818  11.643   6.127   4.019 -0.0541 -1.7485 -0.2566
   28MOL0     H 3819  11.494   6.049   3.984  1.6073 -0.4364 -1.3170
   28MOL0     H 3820  11.433   6.292   3.876 -0.9597 -1.4738 -1.0132
   28MOL0     H 3821  11.607   6.295   3.879  1.7166 -2.4429  2.4591
   28MOL0     H 3822  11.508   5.976   3.575  0.0918 -0.0324  1.4074
   28MOL0     H 3823  11.575   5.890   3.358 -0.1822 -1.4793  2.2705
   28MOL0     H 3824  11.719   5.784   3.384  2.8436  0.4122  3.6248
   28MOL0     H 3825  11.730   5.927   3.283 -0.7398  0.6802  1.1269
   28MOL0     H 3826  12.146   5.652   3.409 -1.1709 -2.4317 -2.4653
   28MOL0     H 3827  12.323   5.604   3.231 -4.2648 -2.9640 -0.4420
   28MOL0     H 3828  12.397   5.771   2.863 -0.6774  0.7994 -0.6937
   28MOL0     H 3829  12.389   5.925   2.912  1.7831 -0.2997 -2.2441
   28MOL0     H 3830  12.626   5.848   3.026  0.5200 -4.5460  0.3321
   28MOL0     H 3831  12.639   5.743   2.893 -1.3269 -0.7789  1.5575
   28MOL0     H 3832  12.605   6.041   2.878  0.1394  1.2350 -0.1535
   28MOL0     H 3833  12.602   5.951   2.733  0.2005 -0.7288 -0.9219
   28MOL0     H 3834  12.849   5.872   2.790  2.6682  1.5069  1.1389
   28MOL0     H 3835  12.830   5.982   2.929  1.6506  1.0031 -1.3748
   28MOL0     H 3836  12.763   6.062   2.660 -0.0448 -1.1289  0.0566
   28MOL0     H 3837  12.805   6.170   2.800  0.2538  0.2000 -1.4416
   28MOL0     H 3838  13.039   6.000   2.776  2.9539  3.3988 -0.5562
   28MOL0     H 3839  13.030   6.166   2.731 -1.3449  1.1548  1.1319
   28MOL0     H 3840  12.979   6.094   2.494 -3.5442 -0.3177  2.0862
   28MOL0     H 3841  12.954   5.930   2.548  1.3294 -1.5246  0.9499
   28MOL0     H 3842  13.201   5.950   2.635 -1.1944 -1.0403 -1.0453
   28MOL0     H 3843  13.219   6.089   2.544  0.2772  0.0056  2.0511
   28MOL0     H 3844  12.262   5.998   3.077  0.9786 -1.8665  0.2154
   28MOL0     H 3845  12.051   6.003   3.193  2.2641  1.3024 -2.8178
   28MOL0     H 3846  11.978   6.112   3.665 -0.5009  0.9163 -2.4904
   28MOL0     H 3847  11.793   6.178   3.818 -1.3101 -1.0189  1.4524
   28MOL0     H 3848  11.386   7.078   5.333  0.7530 -0.8105  0.6986
   28MOL0     H 3849  11.299   7.125   5.542  1.1759  0.1310 -0.5259
   28MOL0     H 3850  11.186   7.216   5.813 -0.8354 -0.1139 -0.5312
   28MOL0     H 3851  11.180   7.308   6.012  0.6774 -0.3742 -1.6815
   28MOL0     H 3852  11.190   7.042   6.335  0.5197 -0.2564 -1.0445
   28MOL0     H 3853  11.287   7.174   6.271 -0.5295 -3.6557 -2.4708
   28MOL0     H 3854  11.158   7.318   6.442  0.0150 -0.7289  2.1865
   28MOL0     H 3855  11.271   7.193   6.507 -0.1433 -1.2488 -0.2630
   28MOL0     H 3856  10.980   7.136   6.468 -0.5406 -2.6039  1.5425
   28MOL0     H 3857  11.092   7.043   6.566  1.5389  1.5017  0.6784
   28MOL0     H 3858  10.957   7.156   6.706  1.4369 -0.3509  1.6714
   28MOL0     H 3859  10.958   7.300   6.607  2.7101  0.5126 -2.3378
   28MOL0     H 3860  11.273   7.436   6.827  0.8825  2.0303 -3.1768
   28MOL0     H 3861  10.974   6.975   6.179 -0.5492  0.1989  0.8277
   28MOL0     H 3862  10.925   6.786   6.070  2.4962  0.1235  1.6031
   28MOL0     H 3863  10.840   6.816   5.921 -0.9212  1.2599  0.1304
   28MOL0     H 3864  10.995   6.749   5.901 -0.0698 -0.9338  0.5995
   29MOL0     O 3865   0.264   7.856   4.493 -0.6666 -0.3812  0.5778
   29MOL0     C 3866   0.314   7.808   4.393 -1.1346  0.2470 -0.6061
   29MOL0     O 3867   0.353   7.679   4.382 -0.4765 -0.5490  0.4377
   29MOL0     C 3868   0.299   7.579   4.456 -0.1183  0.5080 -0.8508
   29MOL0     C 3869   0.178   7.581   4.538 -0.1196  0.2538  0.0784
   29MOL0     C 3870   0.121   7.466   4.605  0.1134  0.7727 -0.2942
   29MOL0     C 3871   0.186   7.339   4.594  0.9621 -0.1581  0.6961
   29MOL0     O 3872   0.143   7.214   4.645  0.3717  0.5598  0.0361
   29MOL0     C 3873   0.142   7.199   4.791  0.3455  0.1632  1.1778
   29MOL0     C 3874   0.250   7.110   4.861 -0.1718  1.0287  0.3580
   29MOL0     C 3875   0.398   7.132   4.828  0.3095  0.4706 -0.2843
   29MOL0     C 3876   0.484   7.030   4.903  0.2389  0.6007 -0.3397
   29MOL0     C 3877   0.638   7.070   4.893  0.2782 -0.5843 -0.0777
   29MOL0     C 3878   0.728   6.997   4.999  0.7933 -1.0851  0.6271
   29MOL0     C 3879   0.873   7.045   4.990 -0.6260  0.3213 -0.3901
   29MOL0     C 3880   0.945   7.015   5.123  0.4886  0.0992  0.1138
   29MOL0     N 3881   1.088   7.049   5.117  0.4679  0.1643 -0.0651
   29MOL0     C 3882   1.187   6.976   5.058 -0.0674  0.1216 -0.3742
   29MOL0     C 3883   1.304   7.046   5.061 -0.5540  0.2890  0.9074
   29MOL0     C 3884   1.430   7.005   4.985  0.1443 -0.5803  1.0592
   29MOL0     C 3885   1.561   7.072   5.044  0.6407  0.5929 -0.5568
   29MOL0     C 3886   1.657   7.083   4.924 -1.3310  0.7819  0.5855
   29MOL0     C 3887   1.805   7.092   4.967  0.3524 -0.6075  1.6732
   29MOL0     O 3888   1.889   7.087   4.852  0.5980  0.9676  1.1157
   29MOL0     C 3889   1.890   7.196   4.766 -0.4780 -0.1576 -0.3322
   29MOL0     C 3890   1.814   7.198   4.649  0.4123 -0.3773  0.8781
   29MOL0     C 3891   1.832   7.312   4.560  0.7635  0.2055  1.0328
   29MOL0     C 3892   1.726   7.333   4.454 -0.5449  0.3611 -0.2810
   29MOL0     C 3893   1.913   7.420   4.597  0.6950  0.0511 -0.5653
   29MOL0     C 3894   1.914   7.560   4.538 -0.8826 -0.0793 -0.9401
   29MOL0     O 3895   1.837   7.579   4.427 -0.5979  0.2631 -0.9031
   29MOL0     C 3896   1.749   7.681   4.414 -0.7462  0.2949 -0.3826
   29MOL0     C 3897   1.678   7.684   4.294 -0.4143 -0.3942 -0.8010
   29MOL0     C 3898   1.597   7.798   4.251  0.3757 -0.0223 -0.5861
   29MOL0     C 3899   1.554   7.886   4.357 -0.7806  0.7703  0.0562
   29MOL0     O 3900   1.458   7.976   4.348  0.5495  0.0349 -0.0083
   29MOL0     C 3901   1.411   8.009   4.215 -0.2657  0.7677 -0.6909
   29MOL0     C 3902   1.501   8.115   4.142 -0.6631  0.0951  0.0875
   29MOL0     C 3903   1.546   8.079   4.001 -0.1253 -0.4263  0.7632
   29MOL0     C 3904   1.421   8.105   3.912 -0.9910  0.6940  0.0014
   29MOL0     C 3905   1.441   8.031   3.780  0.4493 -0.5203 -0.8846
   29MOL0     C 3906   1.324   8.045   3.673 -0.5351  0.1764  0.4612
   29MOL0     C 3907   1.316   8.172   3.593  0.8500 -0.7618 -0.3377
   29MOL0     C 3908   1.263   8.161   3.455 -1.2867  1.3730 -0.2404
   29MOL0    Cl 3909   1.246   8.315   3.368  0.2554 -0.4967 -0.8618
   29MOL0     C 3910   1.611   7.870   4.479  0.2685 -0.2225 -0.1493
   29MOL0     C 3911   1.709   7.771   4.511  0.2037 -0.1150  0.0741
   29MOL0     O 3912   1.960   7.649   4.607  0.3290  0.5146 -0.1089
   29MOL0     C 3913   1.994   7.399   4.714 -0.7043  0.0667 -1.1426
   29MOL0     C 3914   1.977   7.299   4.801  1.0532 -0.1367  0.0764
   29MOL0     N 3915   1.268   7.174   5.106 -0.2577  1.2965  0.5379
   29MOL0     N 3916   1.138   7.177   5.135 -0.0130 -0.4762 -0.0617
   29MOL0     C 3917   0.300   7.337   4.513 -0.8418 -0.4887 -1.0809
   29MOL0     C 3918   0.357   7.456   4.444 -0.6664  0.5053 -0.5427
   29MOL0     C 3919   0.382   7.925   4.311  0.1538  0.3167  0.3438
   29MOL0     C 3920   0.401   8.046   4.374  0.0237 -0.1452  0.6300
   29MOL0     C 3921   0.481   8.154   4.313  1.1987  0.5444  0.9425
   29MOL0     C 3922   0.534   8.141   4.187 -0.0708  1.2151  0.3735
   29MOL0     O 3923   0.614   8.241   4.139  0.0032  0.7906 -0.4014
   29MOL0     C 3924   0.752   8.229   4.161 -0.3617 -0.3105  0.2944
   29MOL0     C 3925   0.792   8.292   4.292  0.8978  0.3556 -0.5255
   29MOL0     C 3926   0.947   8.267   4.341 -0.2585 -0.2081  0.0308
   29MOL0     C 3927   1.049   8.295   4.228 -0.6181  0.7965 -0.2720
   29MOL0     C 3928   1.076   8.170   4.151  0.2001  0.3141 -0.4221
   29MOL0     C 3929   1.094   8.067   4.099  0.2395 -0.6845  0.5225
   29MOL0     C 3930   0.514   8.016   4.125  0.6243  0.2012  0.7910
   29MOL0     C 3931   0.440   7.908   4.177 -0.4063 -0.5192 -1.0418
   29MOL0     C 3932   0.431   7.771   4.112 -0.7845  1.8621 -1.1347
   29MOL0     H 3933   0.122   7.671   4.559 -3.3928 -1.3094 -1.2193
   29MOL0     H 3934   0.025   7.481   4.654  0.5062 -0.5514  0.9479
   29MOL0     H 3935   0.039   7.171   4.814 -0.1544  1.8549  1.0823
   29MOL0     H 3936   0.157   7.298   4.834 -0.7807  0.7702  0.2288
   29MOL0     H 3937   0.240   7.114   4.970 -2.9148  0.0615  0.2269
   29MOL0     H 3938   0.224   7.008   4.833  1.9618  0.0020  1.8298
   29MOL0     H 3939   0.416   7.117   4.721  0.9037 -2.5769  0.1548
   29MOL0     H 3940   0.428   7.231   4.863 -1.5392  1.5358 -1.4953
   29MOL0     H 3941   0.464   7.025   5.011  2.4404 -0.2287  0.0711
   29MOL0     H 3942   0.459   6.932   4.861 -0.2103  1.4196 -2.0668
   29MOL0     H 3943   0.652   7.174   4.924  0.6476 -1.1737  1.8760
   29MOL0     H 3944   0.679   7.047   4.794  3.3213 -1.4797  1.2553
   29MOL0     H 3945   0.689   7.022   5.098  2.5579 -1.5155  1.4676
   29MOL0     H 3946   0.715   6.889   4.993  1.3321 -1.0876 -1.9134
   29MOL0     H 3947   0.866   7.151   4.963  0.2209  0.1603 -1.2751
   29MOL0     H 3948   0.928   6.989   4.915  0.8915 -1.7976  2.1198
   29MOL0     H 3949   0.902   7.053   5.216  0.2592  0.1866 -0.0287
   29MOL0     H 3950   0.937   6.907   5.136  1.0247  0.1770  1.2130
   29MOL0     H 3951   1.181   6.879   5.009  2.3977 -0.5317  0.4283
   29MOL0     H 3952   1.417   7.018   4.877  0.6500 -1.3497  0.9016
   29MOL0     H 3953   1.435   6.896   4.993 -1.1053 -0.6463  1.2190
   29MOL0     H 3954   1.546   7.166   5.097 -1.7031  0.3242 -0.6331
   29MOL0     H 3955   1.603   7.002   5.117  0.6693 -3.6045 -4.1579
   29MOL0     H 3956   1.656   7.005   4.847  4.0663  1.0954 -0.2179
   29MOL0     H 3957   1.628   7.175   4.872 -0.9291  1.9500  2.3233
   29MOL0     H 3958   1.802   7.198   4.994  0.4217  1.2753 -4.2593
   29MOL0     H 3959   1.832   7.019   5.044 -0.8634 -3.8437 -0.6967
   29MOL0     H 3960   1.727   7.138   4.622  1.1393  0.0581 -3.0407
   29MOL0     H 3961   1.686   7.234   4.429 -0.0644 -0.1861  1.0314
   29MOL0     H 3962   1.758   7.369   4.356  0.4223 -1.1137 -0.5485
   29MOL0     H 3963   1.644   7.395   4.490 -1.7138 -0.1336 -1.9568
   29MOL0     H 3964   1.693   7.604   4.222 -2.7041  1.5842 -3.6925
   29MOL0     H 3965   1.549   7.789   4.155 -0.5421  0.8520 -0.2238
   29MOL0     H 3966   1.393   7.922   4.151  2.3387  0.5848 -1.2852
   29MOL0     H 3967   1.314   8.060   4.221 -1.9510 -2.3048  0.3946
   29MOL0     H 3968   1.454   8.214   4.148 -1.5121 -0.2333 -0.8619
   29MOL0     H 3969   1.599   8.115   4.191 -0.3310  0.8710 -0.5433
   29MOL0     H 3970   1.576   7.973   4.000 -2.5304 -1.1897 -1.2905
   29MOL0     H 3971   1.623   8.152   3.975  0.8150 -0.1671  3.8151
   29MOL0     H 3972   1.412   8.213   3.896  0.0448  0.6263 -1.2265
   29MOL0     H 3973   1.328   8.064   3.951  0.0760 -2.7558 -0.6720
   29MOL0     H 3974   1.535   8.079   3.749 -0.9654  3.4487  0.3928
   29MOL0     H 3975   1.468   7.926   3.796  1.3852 -0.0722  0.6326
   29MOL0     H 3976   1.225   8.036   3.718 -1.7221  2.0733 -1.5668
   29MOL0     H 3977   1.335   7.961   3.603  0.2378  1.4037 -0.9522
   29MOL0     H 3978   1.413   8.221   3.606  0.3202 -0.2969  2.3927
   29MOL0     H 3979   1.241   8.233   3.643 -0.3877 -2.5017  0.0137
   29MOL0     H 3980   1.170   8.104   3.465 -0.2720 -0.3292 -0.1770
   29MOL0     H 3981   1.329   8.092   3.402 -3.5686 -1.8369  0.7899
   29MOL0     H 3982   1.584   7.949   4.548  2.2758  1.1207 -0.8280
   29MOL0     H 3983   1.749   7.772   4.611 -2.6367 -0.2520  1.3061
   29MOL0     H 3984   2.065   7.476   4.743 -1.8218  0.3875  0.9709
   29MOL0     H 3985   2.034   7.282   4.891 -0.3258  0.4956  1.1011
   29MOL0     H 3986   0.347   7.241   4.494  0.2638  0.0948 -1.4070
   29MOL0     H 3987   0.443   7.441   4.380  1.4098  0.8572  2.0018
   29MOL0     H 3988   0.362   8.062   4.474 -5.2322  0.1092 -1.1292
   29MOL0     H 3989   0.487   8.252   4.358 -1.1823  2.0906 -1.8136
   29MOL0     H 3990   0.798   8.130   4.165  0.7207  0.0869 -1.3817
   29MOL0     H 3991   0.797   8.273   4.071  0.4950  0.1368  0.9298
   29MOL0     H 3992   0.730   8.268   4.379  0.2393  3.3248 -0.0787
   29MOL0     H 3993   0.777   8.399   4.275 -2.4514 -0.4278 -3.8601
   29MOL0     H 3994   0.979   8.321   4.431  1.5477  1.8178 -1.7245
   29MOL0     H 3995   0.944   8.162   4.371 -0.5372 -0.4346 -0.7699
   29MOL0     H 3996   1.141   8.350   4.249 -0.3131  1.0831 -2.2281
   29MOL0     H 3997   1.000   8.355   4.151 -1.4309  0.3374 -0.1326
   29MOL0     H 3998   1.105   7.975   4.045  1.8745  1.0950 -2.4762
   29MOL0     H 3999   0.571   8.001   4.034 -0.6375 -4.4295  0.5159
   29MOL0     H 4000   0.505   7.699   4.148 -1.6695  1.3217 -0.3720
   29MOL0     H 4001   0.335   7.725   4.137  2.0305 -2.7466  2.9070
   29MOL0     H 4002   0.454   7.776   4.005  1.2115  2.6288 -0.7098
   30MOL0     O 4003   8.244   8.370   9.656  0.5093 -1.0459  0.8816
   30MOL0     C 4004   8.354   8.313   9.637 -0.0938  0.8392  0.3024
   30MOL0     O 4005   8.459   8.314   9.716  0.3695  0.0606 -0.5886
   30MOL0     C 4006   8.466   8.399   9.826 -0.3993  0.2625  0.5318
   30MOL0     C 4007   8.569   8.494   9.824  0.0937  0.3036 -0.7438
   30MOL0     C 4008   8.580   8.583   9.928 -0.9107  0.0465 -0.1864
   30MOL0     C 4009   8.487   8.581  10.027  0.6245 -0.1375  0.1001
   30MOL0     O 4010   8.518   8.666  10.126 -0.2983  0.2986  0.5361
   30MOL0     C 4011   8.448   8.656  10.253  0.1627 -0.0826  0.0754
   30MOL0     C 4012   8.492   8.536  10.344  0.5671 -0.2975 -0.4965
   30MOL0     C 4013   8.407   8.543  10.476 -0.2611  0.2693  0.4183
   30MOL0     C 4014   8.495   8.509  10.595 -0.7790 -0.1896 -0.3570
   30MOL0     C 4015   8.448   8.524  10.736  0.0612  0.3194 -0.9566
   30MOL0     C 4016   8.415   8.669  10.763  1.2016  0.4091  0.1259
   30MOL0     C 4017   8.386   8.695  10.918  0.3970  0.0264 -0.5673
   30MOL0     C 4018   8.374   8.841  10.944 -0.2972  0.5551  0.0689
   30MOL0     N 4019   8.265   8.907  10.858 -0.0279  0.0428  0.4629
   30MOL0     C 4020   8.277   9.030  10.798  0.5284  0.2015  0.4637
   30MOL0     C 4021   8.151   9.061  10.763  0.2962  0.4020  0.7728
   30MOL0     C 4022   8.118   9.197  10.704  0.3801 -0.0868 -0.9800
   30MOL0     C 4023   8.013   9.276  10.798 -0.3104 -0.3491 -0.7151
   30MOL0     C 4024   8.092   9.331  10.919  0.3432 -0.8889 -0.2097
   30MOL0     C 4025   7.994   9.399  11.010  0.1188 -0.0925 -0.7653
   30MOL0     O 4026   7.928   9.507  10.952 -0.1520  0.2463 -0.3049
   30MOL0     C 4027   7.852   9.584  11.036  0.7287  0.9312 -0.5187
   30MOL0     C 4028   7.862   9.572  11.175  0.2566  0.1525 -0.0263
   30MOL0     C 4029   7.759   9.641  11.246  0.9659 -0.0484  0.7917
   30MOL0     C 4030   7.757   9.617  11.391 -0.4778 -0.4648 -0.5678
   30MOL0     C 4031   7.668   9.727  11.184  0.5134 -0.0254 -0.7282
   30MOL0     C 4032   7.582   9.821  11.252 -0.3890  0.4354 -0.4402
   30MOL0     O 4033   7.642   9.924  11.308  0.5694  0.7245  0.3973
   30MOL0     C 4034   7.567  10.028  11.365 -0.1097  0.3616  0.6648
   30MOL0     C 4035   7.564  10.037  11.495 -0.1010  0.1519  0.3769
   30MOL0     C 4036   7.487  10.135  11.562  0.1040 -0.4245  0.4006
   30MOL0     C 4037   7.422  10.230  11.485 -0.6524 -0.7079 -0.1948
   30MOL0     O 4038   7.350  10.340  11.523  0.4820  0.6362 -0.4802
   30MOL0     C 4039   7.380  10.408  11.649 -1.1230  0.0820  0.4485
   30MOL0     C 4040   7.306  10.550  11.647  1.2628 -0.9038  0.3507
   30MOL0     C 4041   7.281  10.589  11.797 -0.1118 -1.2802  0.1583
   30MOL0     C 4042   7.200  10.716  11.812 -0.0532  0.9660 -0.1748
   30MOL0     C 4043   7.195  10.771  11.951 -0.4014  0.1347 -0.5644
   30MOL0     C 4044   7.082  10.874  11.947  1.1009  0.1297 -1.3717
   30MOL0     C 4045   7.067  10.954  12.079 -0.0112 -0.6512  0.5891
   30MOL0     C 4046   7.207  11.010  12.114  0.9158 -0.3918  0.2984
   30MOL0    Cl 4047   7.195  11.167  12.194  0.2722 -0.6385  0.2882
   30MOL0     C 4048   7.439  10.226  11.354 -0.3406  0.3064  0.1884
   30MOL0     C 4049   7.503  10.114  11.295  0.2571 -0.5515 -0.2180
   30MOL0     O 4050   7.459   9.815  11.220 -0.3751  0.0445  0.2605
   30MOL0     C 4051   7.675   9.735  11.043  0.5585  0.6773  0.3845
   30MOL0     C 4052   7.763   9.667  10.968 -1.5290 -0.2709 -0.4520
   30MOL0     N 4053   8.070   8.953  10.784 -0.0857  0.6351  0.5693
   30MOL0     N 4054   8.137   8.865  10.853  0.1424 -0.2544 -0.2819
   30MOL0     C 4055   8.381   8.487  10.030  1.1555  0.5577  0.0295
   30MOL0     C 4056   8.369   8.399   9.916  0.1368 -0.5967 -0.7336
   30MOL0     C 4057   8.359   8.224   9.515  0.0814  0.8327  0.2062
   30MOL0     C 4058   8.437   8.107   9.531 -0.0376 -0.5936 -0.1994
   30MOL0     C 4059   8.442   8.019   9.430 -0.3174  0.8617 -0.2081
   30MOL0     C 4060   8.388   8.030   9.302 -0.2164 -0.5598  0.7655
   30MOL0     O 4061   8.425   7.940   9.207  0.4427  0.5973  0.1770
   30MOL0     C 4062   8.359   7.953   9.083 -0.4730 -0.0474 -0.7128
   30MOL0     C 4063   8.407   7.843   8.998 -0.7149  0.7993  0.1425
   30MOL0     C 4064   8.457   7.874   8.853 -0.3316 -0.6355  0.1999
   30MOL0     C 4065   8.483   7.739   8.773  0.8182 -0.0433  0.0207
   30MOL0     C 4066   8.565   7.773   8.651  0.8948  0.2855  0.1827
   30MOL0     C 4067   8.617   7.797   8.546  0.3415  0.6634 -0.0785
   30MOL0     C 4068   8.316   8.154   9.283  0.5454  0.0670  0.1116
   30MOL0     C 4069   8.301   8.246   9.388  1.0366  1.2660 -0.2606
   30MOL0     C 4070   8.246   8.377   9.356  0.7081 -0.6233 -0.7107
   30MOL0     H 4071   8.644   8.496   9.745  0.7823  0.3253 -0.0917
   30MOL0     H 4072   8.660   8.657   9.929 -0.1565 -0.6804 -2.0880
   30MOL0     H 4073   8.340   8.656  10.237  0.2475 -1.1579 -0.5928
   30MOL0     H 4074   8.469   8.754  10.299 -1.5239 -0.3617  1.5357
   30MOL0     H 4075   8.487   8.437  10.297 -0.3946 -0.9243  0.8775
   30MOL0     H 4076   8.598   8.547  10.370  0.2205  0.1208  0.8180
   30MOL0     H 4077   8.354   8.636  10.498 -0.3954  0.5966 -1.1817
   30MOL0     H 4078   8.316   8.486  10.459 -0.1309  0.4638 -0.9960
   30MOL0     H 4079   8.530   8.407  10.575  1.8435  1.0570 -2.7776
   30MOL0     H 4080   8.584   8.570  10.581  0.5871 -1.7429  0.9708
   30MOL0     H 4081   8.518   8.486  10.810  0.4170 -0.7141 -1.7895
   30MOL0     H 4082   8.357   8.464  10.754  1.9998 -3.4839 -2.6507
   30MOL0     H 4083   8.505   8.728  10.740  1.5259  1.1843  3.0150
   30MOL0     H 4084   8.326   8.700  10.708  0.2188  1.0392  1.9926
   30MOL0     H 4085   8.475   8.658  10.969  1.6013 -0.7738 -3.1181
   30MOL0     H 4086   8.306   8.643  10.971  1.4396 -1.1397 -0.0908
   30MOL0     H 4087   8.349   8.862  11.049  1.5621 -1.7486  1.0618
   30MOL0     H 4088   8.477   8.875  10.935 -0.4639  1.3196  0.8026
   30MOL0     H 4089   8.357   9.103  10.794  0.3123  0.3758 -2.5016
   30MOL0     H 4090   8.068   9.186  10.607 -1.2759 -1.8551 -0.0049
   30MOL0     H 4091   8.209   9.254  10.687  0.4590 -1.1367 -5.5065
   30MOL0     H 4092   7.969   9.357  10.739 -1.0453 -0.0336  0.2256
   30MOL0     H 4093   7.935   9.214  10.844 -0.0881  1.1087  1.8646
   30MOL0     H 4094   8.141   9.251  10.976  1.1760  2.4561  4.2696
   30MOL0     H 4095   8.170   9.395  10.875 -1.3965 -0.2863 -2.6010
   30MOL0     H 4096   7.923   9.322  11.042 -0.9112  0.3142 -1.9849
   30MOL0     H 4097   8.056   9.435  11.092 -1.2202 -1.3447  0.8630
   30MOL0     H 4098   7.933   9.514  11.234 -1.0697 -0.9557  0.5454
   30MOL0     H 4099   7.830   9.685  11.434 -1.7969  0.4535  0.2991
   30MOL0     H 4100   7.775   9.512  11.416  0.4665 -0.5452 -1.5031
   30MOL0     H 4101   7.668   9.634  11.452  0.8891 -3.7452  2.7531
   30MOL0     H 4102   7.618   9.967  11.559 -1.3992 -0.4516  0.8430
   30MOL0     H 4103   7.496  10.132  11.670  0.0225 -1.9899  0.3851
   30MOL0     H 4104   7.337  10.347  11.729 -0.5373 -0.3627  0.4288
   30MOL0     H 4105   7.489  10.417  11.657 -1.0580 -0.2460 -0.0174
   30MOL0     H 4106   7.377  10.623  11.607  0.0158 -0.1209 -0.4947
   30MOL0     H 4107   7.209  10.544  11.598  1.5167  1.3720 -0.5335
   30MOL0     H 4108   7.381  10.609  11.837  0.5110 -3.1517 -0.3475
   30MOL0     H 4109   7.227  10.505  11.841 -1.1588 -1.9809 -2.2549
   30MOL0     H 4110   7.100  10.682  11.782 -0.1225 -0.3481  1.4094
   30MOL0     H 4111   7.234  10.798  11.748  1.7385  1.9837  1.9587
   30MOL0     H 4112   7.187  10.687  12.020  0.9391  1.3584  1.1861
   30MOL0     H 4113   7.292  10.812  11.981 -0.0051 -1.3664  0.2733
   30MOL0     H 4114   6.992  10.816  11.929  0.8502 -0.5965  1.6624
   30MOL0     H 4115   7.113  10.944  11.869  0.5560 -0.6037 -2.2600
   30MOL0     H 4116   7.039  10.890  12.163  2.5067 -1.9200  0.5413
   30MOL0     H 4117   7.001  11.041  12.069  0.1756 -0.6281 -0.6131
   30MOL0     H 4118   7.262  11.024  12.020 -1.5124  1.4000 -0.9848
   30MOL0     H 4119   7.252  10.943  12.188  1.4011  1.6006  1.8856
   30MOL0     H 4120   7.382  10.298  11.296 -0.0024  2.7681  2.6980
   30MOL0     H 4121   7.501  10.112  11.186  0.1955  1.5755 -0.2918
   30MOL0     H 4122   7.611   9.802  10.988  0.5588 -1.4264 -2.3776
   30MOL0     H 4123   7.781   9.675  10.861 -0.1834  1.2886 -0.1488
   30MOL0     H 4124   8.298   8.482  10.099  2.1519 -0.6181  1.2118
   30MOL0     H 4125   8.289   8.326   9.903 -2.1481  1.9711 -2.1127
   30MOL0     H 4126   8.491   8.092   9.624 -0.0745  1.5838  0.2337
   30MOL0     H 4127   8.521   7.944   9.431 -0.6797  0.4769  0.7362
   30MOL0     H 4128   8.250   7.951   9.096 -0.4123 -0.6766 -0.2776
   30MOL0     H 4129   8.382   8.052   9.042 -2.2193  0.3438 -0.8419
   30MOL0     H 4130   8.337   7.758   8.993  0.0255  0.1064  1.1691
   30MOL0     H 4131   8.494   7.801   9.049 -0.6757 -0.5970 -0.9868
   30MOL0     H 4132   8.389   7.947   8.808 -0.2254  1.6978  3.4960
   30MOL0     H 4133   8.551   7.928   8.860  0.1003 -1.4190  0.5523
   30MOL0     H 4134   8.387   7.703   8.734  1.1079 -0.9521  0.1317
   30MOL0     H 4135   8.533   7.668   8.838  0.7982  0.3860  0.5102
   30MOL0     H 4136   8.678   7.826   8.463  0.0496  2.6826  0.3568
   30MOL0     H 4137   8.276   8.185   9.187  1.0986  1.2968  0.2595
   30MOL0     H 4138   8.207   8.358   9.255 -1.3246 -0.9007  0.0729
   30MOL0     H 4139   8.155   8.402   9.412  0.4557  0.7126 -1.6726
   30MOL0     H 4140   8.327   8.449   9.372  0.0788 -0.2979  1.2939
   31MOL0     O 4141   7.495   0.320  11.441  0.4797  0.0019 -0.1903
   31MOL0     C 4142   7.458   0.331  11.322  0.1444  0.8731 -0.8738
   31MOL0     O 4143   7.473   0.435  11.243  0.2881  0.4373 -0.3464
   31MOL0     C 4144   7.513   0.560  11.291 -0.3321 -0.0660  0.9489
   31MOL0     C 4145   7.587   0.635  11.197 -0.8061  0.3100  0.2025
   31MOL0     C 4146   7.640   0.760  11.235 -0.1153  0.2534 -0.2779
   31MOL0     C 4147   7.625   0.821  11.356  0.5100 -0.0756  0.1002
   31MOL0     O 4148   7.691   0.939  11.366  0.3460 -0.2739  0.3001
   31MOL0     C 4149   7.701   0.986  11.492  0.1247 -0.4080 -0.1647
   31MOL0     C 4150   7.569   1.038  11.558  0.1804  0.5471  0.7446
   31MOL0     C 4151   7.456   1.097  11.475 -0.1934  0.0510  0.1845
   31MOL0     C 4152   7.360   1.191  11.561 -0.7973  0.4407  0.8763
   31MOL0     C 4153   7.281   1.291  11.473 -0.0300  0.4270 -0.0952
   31MOL0     C 4154   7.202   1.380  11.576 -0.0133  0.2742 -0.0233
   31MOL0     C 4155   7.158   1.503  11.497  0.3076 -0.3469 -0.3268
   31MOL0     C 4156   7.071   1.587  11.592  0.5397 -0.4119 -0.3014
   31MOL0     N 4157   7.062   1.715  11.526  0.0736  0.1528 -0.0698
   31MOL0     C 4158   6.998   1.738  11.403  0.2594  0.1382  0.7078
   31MOL0     C 4159   7.026   1.870  11.383  0.1429 -0.1228  0.2136
   31MOL0     C 4160   6.967   1.962  11.275 -0.5201  0.1644 -1.0037
   31MOL0     C 4161   6.987   2.112  11.315  0.5829 -0.7675 -0.8015
   31MOL0     C 4162   6.981   2.202  11.190  0.5623 -0.8934  0.3850
   31MOL0     C 4163   6.997   2.358  11.228 -0.2170  0.7138 -0.2857
   31MOL0     O 4164   6.864   2.413  11.249 -0.0289 -0.7587  0.1362
   31MOL0     C 4165   6.843   2.477  11.366  0.6868 -0.8799 -1.2950
   31MOL0     C 4166   6.930   2.578  11.425  0.6327 -0.5455  0.0241
   31MOL0     C 4167   6.898   2.648  11.537 -0.5680  0.1596  0.1816
   31MOL0     C 4168   7.022   2.730  11.592  0.4057  0.0138 -1.2734
   31MOL0     C 4169   6.772   2.637  11.595 -0.3928  0.0892 -0.2829
   31MOL0     C 4170   6.732   2.718  11.714  0.9264  1.0000  0.6529
   31MOL0     O 4171   6.632   2.658  11.790 -0.8800  0.2467 -0.3165
   31MOL0     C 4172   6.596   2.710  11.914 -0.4470 -0.8873  0.3322
   31MOL0     C 4173   6.684   2.716  12.024 -0.0263  1.1825  0.1212
   31MOL0     C 4174   6.648   2.774  12.150 -0.4318 -0.3398  0.7095
   31MOL0     C 4175   6.522   2.826  12.170  0.4587  0.8460  0.0399
   31MOL0     O 4176   6.491   2.866  12.297  0.3015 -0.1014  0.7420
   31MOL0     C 4177   6.433   2.994  12.308 -0.1339 -0.4959 -0.2178
   31MOL0     C 4178   6.437   3.020  12.459 -0.2195  0.6573  0.2125
   31MOL0     C 4179   6.578   3.007  12.526  0.3893  0.9027 -0.0860
   31MOL0     C 4180   6.579   3.043  12.673 -0.1951 -0.6321  0.3787
   31MOL0     C 4181   6.711   3.011  12.739 -0.0342 -0.6150  0.1193
   31MOL0     C 4182   6.696   3.050  12.883  0.5864 -0.2351 -0.8212
   31MOL0     C 4183   6.823   3.017  12.967 -0.1603 -0.1589 -0.0625
   31MOL0     C 4184   6.844   3.065  13.112 -0.2740 -0.2957  0.9467
   31MOL0    Cl 4185   6.911   3.232  13.111  0.0118  0.3225  0.0763
   31MOL0     C 4186   6.428   2.811  12.063 -0.2112 -0.1340  1.0554
   31MOL0     C 4187   6.471   2.754  11.940 -0.0161 -0.5621  0.2097
   31MOL0     O 4188   6.780   2.827  11.735  0.0194  0.1401  0.8144
   31MOL0     C 4189   6.684   2.542  11.544  0.0759 -0.3732 -0.0886
   31MOL0     C 4190   6.714   2.469  11.424  0.2503 -0.5540  0.0677
   31MOL0     N 4191   7.103   1.926  11.484  0.2726  0.3689  0.3070
   31MOL0     N 4192   7.118   1.829  11.567 -0.0516 -0.5737  0.7863
   31MOL0     C 4193   7.568   0.739  11.452 -0.2804  0.0537  0.1281
   31MOL0     C 4194   7.510   0.609  11.423  0.0954  0.0824  0.1659
   31MOL0     C 4195   7.390   0.217  11.253  0.2870 -0.8485  0.2588
   31MOL0     C 4196   7.368   0.223  11.116  1.6833 -0.5663 -0.3065
   31MOL0     C 4197   7.296   0.118  11.054 -0.0421  0.3236 -0.5169
   31MOL0     C 4198   7.265  -0.000  11.118 -0.8510 -0.4932  1.0097
   31MOL0     O 4199   7.202  -0.098  11.046  0.9004  0.0202 -0.4523
   31MOL0     C 4200   7.173  -0.225  11.113 -0.5229 -0.5175  0.1242
   31MOL0     C 4201   7.170  -0.338  11.007 -0.2524 -0.0099 -1.5082
   31MOL0     C 4202   7.309  -0.347  10.942 -0.9037  0.6023 -0.5854
   31MOL0     C 4203   7.347  -0.498  10.933 -1.0172  1.0660 -0.2270
   31MOL0     C 4204   7.277  -0.571  10.828 -0.4716  0.9850 -1.5424
   31MOL0     C 4205   7.228  -0.635  10.743  0.3309 -0.7450  0.5420
   31MOL0     C 4206   7.282  -0.009  11.254 -0.0503 -0.3610 -0.8517
   31MOL0     C 4207   7.336   0.101  11.320  0.0226  0.9748 -1.3737
   31MOL0     C 4208   7.350   0.087  11.469 -0.4355 -0.6799  0.4191
   31MOL0     H 4209   7.579   0.606  11.093 -0.4531  3.7023 -0.8855
   31MOL0     H 4210   7.700   0.809  11.159  0.1948 -4.3537 -3.4356
   31MOL0     H 4211   7.765   1.074  11.480  2.1468 -1.6244  1.1189
   31MOL0     H 4212   7.744   0.920  11.568  0.9720  0.3900  0.0842
   31MOL0     H 4213   7.512   0.964  11.615  0.7887 -0.8209 -0.3532
   31MOL0     H 4214   7.595   1.108  11.637 -1.1002  1.1201  0.6756
   31MOL0     H 4215   7.506   1.164  11.404  1.5375  0.4078  1.6621
   31MOL0     H 4216   7.399   1.030  11.410  1.8336 -0.3766 -1.2685
   31MOL0     H 4217   7.301   1.127  11.627 -0.9553  1.2892  1.5694
   31MOL0     H 4218   7.430   1.242  11.628  1.6083 -0.9044 -0.4502
   31MOL0     H 4219   7.210   1.228  11.419  0.8090 -0.8068  0.1941
   31MOL0     H 4220   7.355   1.345  11.414  0.3228 -0.0377 -0.0794
   31MOL0     H 4221   7.128   1.316  11.625  3.3003 -1.2644  3.4884
   31MOL0     H 4222   7.272   1.415  11.652 -0.2101 -0.8720  0.7077
   31MOL0     H 4223   7.098   1.479  11.409 -0.7543  0.6994  0.0781
   31MOL0     H 4224   7.247   1.561  11.472  1.2713 -0.7419  1.9038
   31MOL0     H 4225   6.971   1.544  11.606 -0.0250  1.2038  0.8032
   31MOL0     H 4226   7.124   1.604  11.686 -0.1719  2.3527 -0.3142
   31MOL0     H 4227   6.930   1.671  11.354 -1.3210 -1.6651  4.9234
   31MOL0     H 4228   6.860   1.939  11.270 -0.3456 -0.6626 -1.0895
   31MOL0     H 4229   7.022   1.939  11.184  2.5180 -1.5508  1.0908
   31MOL0     H 4230   6.911   2.141  11.388 -1.8657 -0.4471 -3.3097
   31MOL0     H 4231   7.086   2.119  11.362  0.0800  0.2468  0.1209
   31MOL0     H 4232   7.057   2.165  11.121 -1.3962  0.7849 -2.9714
   31MOL0     H 4233   6.880   2.203  11.148 -0.8112  3.2699  3.1131
   31MOL0     H 4234   7.073   2.365  11.307  0.2380  0.5290 -0.6984
   31MOL0     H 4235   7.024   2.414  11.138 -0.6741 -0.5706 -1.2531
   31MOL0     H 4236   7.028   2.601  11.383  0.6938 -0.3897  0.2512
   31MOL0     H 4237   7.047   2.691  11.691  3.2877  0.9951 -1.5069
   31MOL0     H 4238   6.991   2.835  11.602  1.4562  0.3668 -1.6366
   31MOL0     H 4239   7.110   2.740  11.528 -0.0628  2.1998 -1.6615
   31MOL0     H 4240   6.783   2.675  12.006  0.0296  1.6503 -0.7050
   31MOL0     H 4241   6.715   2.785  12.235 -0.1501  2.1342  0.2423
   31MOL0     H 4242   6.492   3.072  12.259 -0.8570 -0.0626 -0.3990
   31MOL0     H 4243   6.339   3.007  12.255  1.3459  2.1132 -2.4910
   31MOL0     H 4244   6.422   3.128  12.468  3.4404  1.2431  0.6434
   31MOL0     H 4245   6.356   2.963  12.505  0.8320 -1.5531 -0.5506
   31MOL0     H 4246   6.642   3.064  12.458 -2.7213  0.9529 -3.2607
   31MOL0     H 4247   6.609   2.903  12.520  1.2917  1.2090 -0.9316
   31MOL0     H 4248   6.500   2.991  12.728  0.4803 -1.0976  0.9307
   31MOL0     H 4249   6.547   3.147  12.683 -1.9150 -0.9967 -0.9088
   31MOL0     H 4250   6.735   2.904  12.741  2.4209 -0.1048  0.6277
   31MOL0     H 4251   6.787   3.072  12.689 -3.0567  3.5261  0.0327
   31MOL0     H 4252   6.618   2.999  12.941  1.3733 -0.8222 -0.2626
   31MOL0     H 4253   6.662   3.154  12.884  0.0095 -0.4159 -1.0306
   31MOL0     H 4254   6.905   3.045  12.900 -1.9385  1.3177 -1.7430
   31MOL0     H 4255   6.827   2.908  12.967  1.9886 -0.1680 -2.2473
   31MOL0     H 4256   6.910   2.993  13.162  0.4165  1.0153  1.9713
   31MOL0     H 4257   6.749   3.071  13.166  0.0917  3.6447  1.4231
   31MOL0     H 4258   6.329   2.855  12.072  0.0450  0.9518 -0.8090
   31MOL0     H 4259   6.398   2.743  11.860 -1.0076 -0.6981  1.1010
   31MOL0     H 4260   6.588   2.528  11.593 -1.1098  3.8183 -0.8337
   31MOL0     H 4261   6.636   2.413  11.373  2.5854 -2.1626 -1.9353
   31MOL0     H 4262   7.564   0.779  11.553  0.2468 -1.1139  0.6344
   31MOL0     H 4263   7.478   0.546  11.504  1.9579 -0.8800  0.2186
   31MOL0     H 4264   7.411   0.303  11.056  0.0678  1.0659  0.6045
   31MOL0     H 4265   7.280   0.122  10.947 -1.2687  2.2387 -0.3114
   31MOL0     H 4266   7.255  -0.242  11.184 -1.5811  2.4232  2.2596
   31MOL0     H 4267   7.077  -0.239  11.162  0.3566  1.3019  2.5507
   31MOL0     H 4268   7.088  -0.313  10.938 -2.9571 -2.2325  0.6632
   31MOL0     H 4269   7.131  -0.426  11.059 -1.4494  1.6061  0.5235
   31MOL0     H 4270   7.320  -0.290  10.850  2.8669 -2.0889 -2.0741
   31MOL0     H 4271   7.394  -0.307  10.999  1.3462 -0.3401 -3.0887
   31MOL0     H 4272   7.326  -0.540  11.032  2.5647  0.6552  0.4805
   31MOL0     H 4273   7.454  -0.516  10.921 -1.2042 -0.1766 -0.1986
   31MOL0     H 4274   7.165  -0.693  10.679  0.1512  0.3168 -0.2769
   31MOL0     H 4275   7.250  -0.093  11.315 -0.6261  1.3162  1.2374
   31MOL0     H 4276   7.315  -0.012  11.501 -0.9820 -0.4934  0.4123
   31MOL0     H 4277   7.455   0.089  11.497 -0.0534  0.6052 -0.9514
   31MOL0     H 4278   7.294   0.167  11.517 -1.2604  0.2473 -1.9346
   32MOL0     O 4279   3.540   0.048  10.288 -0.2244 -0.0025 -0.4566
   32MOL0     C 4280   3.447   0.068  10.205 -0.0622  0.3725 -0.3955
   32MOL0     O 4281   3.459   0.150  10.098 -0.1937 -0.1560 -0.9526
   32MOL0     C 4282   3.585   0.194  10.068  0.0009  0.5680  0.1661
   32MOL0     C 4283   3.664   0.127   9.977  0.7163 -0.4499  0.4944
   32MOL0     C 4284   3.790   0.172   9.936  0.6048 -0.0777  0.2659
   32MOL0     C 4285   3.840   0.288   9.994 -0.5060 -0.0686 -0.2189
   32MOL0     O 4286   3.963   0.340   9.975  0.0858  0.1127 -0.2977
   32MOL0     C 4287   4.014   0.325   9.844  0.0426 -0.3370 -0.0760
   32MOL0     C 4288   4.136   0.417   9.832  0.5522  0.3770 -0.3754
   32MOL0     C 4289   4.239   0.375   9.735  0.2908  0.0506 -0.0675
   32MOL0     C 4290   4.357   0.461   9.738 -0.9563 -0.1300 -0.1410
   32MOL0     C 4291   4.457   0.426   9.627  0.8867 -0.8453  0.8644
   32MOL0     C 4292   4.392   0.439   9.488 -0.3442 -0.0807  0.1591
   32MOL0     C 4293   4.496   0.458   9.379  0.6285 -0.3035 -0.0903
   32MOL0     C 4294   4.416   0.447   9.249  0.1645 -0.6922  0.3902
   32MOL0     N 4295   4.501   0.474   9.137 -0.5633  0.2815 -0.5451
   32MOL0     C 4296   4.532   0.387   9.038 -0.2291  0.4397 -0.9694
   32MOL0     C 4297   4.588   0.463   8.947  0.2374  0.0997 -0.5853
   32MOL0     C 4298   4.637   0.426   8.812 -0.2208 -0.4800 -0.9986
   32MOL0     C 4299   4.531   0.449   8.702  0.1236  0.6109 -0.6406
   32MOL0     C 4300   4.591   0.384   8.578 -0.0934  0.3366  0.5191
   32MOL0     C 4301   4.471   0.344   8.485 -0.3400  0.3636 -0.8753
   32MOL0     O 4302   4.426   0.219   8.534  0.8284  0.2040 -0.4775
   32MOL0     C 4303   4.301   0.205   8.489  0.9132  0.0202  0.3184
   32MOL0     C 4304   4.274   0.110   8.390  0.0293  0.3139  0.4759
   32MOL0     C 4305   4.143   0.074   8.351 -0.9516  0.0271 -1.1334
   32MOL0     C 4306   4.123  -0.039   8.262 -0.1935  0.7421 -0.6884
   32MOL0     C 4307   4.036   0.152   8.396 -1.0960 -0.0853  0.0048
   32MOL0     C 4308   3.896   0.141   8.365  0.9058  0.0086  0.5198
   32MOL0     O 4309   3.804   0.237   8.410  0.3071  0.2949 -0.0246
   32MOL0     C 4310   3.673   0.202   8.432 -0.8156 -0.5113  0.7271
   32MOL0     C 4311   3.629   0.067   8.457 -0.0080 -0.9849 -0.8580
   32MOL0     C 4312   3.506   0.042   8.513  0.2863 -1.3201 -0.2345
   32MOL0     C 4313   3.411   0.146   8.526 -0.0631  0.2534 -1.2365
   32MOL0     O 4314   3.284   0.112   8.569 -0.1140  0.1780  0.2637
   32MOL0     C 4315   3.237  -0.019   8.594 -0.4432  0.5246  0.3774
   32MOL0     C 4316   3.094  -0.028   8.645  0.7882  0.5915  0.7255
   32MOL0     C 4317   3.059  -0.174   8.665  0.5496  0.2803  0.6307
   32MOL0     C 4318   2.910  -0.193   8.644  0.0491 -1.4558 -0.4852
   32MOL0     C 4319   2.859  -0.340   8.634  0.0172 -0.0420 -0.2371
   32MOL0     C 4320   2.734  -0.360   8.543 -0.7976 -0.4563  0.3701
   32MOL0     C 4321   2.675  -0.494   8.555 -0.0184 -0.1459  0.4615
   32MOL0     C 4322   2.521  -0.495   8.532  0.9287 -0.1338  0.7550
   32MOL0    Cl 4323   2.439  -0.459   8.690 -0.1326 -0.0231 -0.1043
   32MOL0     C 4324   3.448   0.276   8.496  0.5237  0.2940 -0.3980
   32MOL0     C 4325   3.584   0.306   8.459 -0.7750 -1.2667 -0.4703
   32MOL0     O 4326   3.861   0.049   8.290  0.7031  0.0862  0.0795
   32MOL0     C 4327   4.065   0.238   8.509  0.1382 -0.5625 -0.6914
   32MOL0     C 4328   4.191   0.258   8.556 -1.1273 -0.8238 -0.4053
   32MOL0     N 4329   4.582   0.595   8.991 -0.1597  0.2502 -0.0899
   32MOL0     N 4330   4.517   0.603   9.106 -0.1429 -0.0727 -0.2006
   32MOL0     C 4331   3.769   0.341  10.102 -0.2897 -0.4265  0.2186
   32MOL0     C 4332   3.637   0.305  10.132 -0.6363 -0.0975 -0.1058
   32MOL0     C 4333   3.307   0.014  10.229 -0.8267 -0.8549  0.9619
   32MOL0     C 4334   3.234  -0.020  10.113  0.4829 -0.7053 -0.1290
   32MOL0     C 4335   3.108  -0.090  10.127 -0.2962 -0.3761  0.2083
   32MOL0     C 4336   3.063  -0.120  10.260 -0.7370  0.2656 -0.7209
   32MOL0     O 4337   2.952  -0.185  10.307 -0.6649  0.0170 -0.1033
   32MOL0     C 4338   2.842  -0.215  10.220 -0.6314  1.5614  0.5457
   32MOL0     C 4339   2.727  -0.268  10.302  0.0142  0.5263  0.0287
   32MOL0     C 4340   2.728  -0.417  10.328 -0.2265  0.0299  0.5377
   32MOL0     C 4341   2.609  -0.446  10.429  0.8379  0.0369 -0.0904
   32MOL0     C 4342   2.469  -0.476  10.374  0.0457 -0.7457 -0.4774
   32MOL0     C 4343   2.347  -0.494  10.347 -0.5311  0.2884 -0.4351
   32MOL0     C 4344   3.149  -0.085  10.362  0.4788  0.0395  0.1679
   32MOL0     C 4345   3.269  -0.024  10.352  0.2052 -0.0197  0.8579
   32MOL0     C 4346   3.346  -0.007  10.489  1.3569  0.3551  0.0991
   32MOL0     H 4347   3.619   0.040   9.931 -0.7686 -0.0419  1.1100
   32MOL0     H 4348   3.854   0.115   9.870 -0.0910 -0.9943  0.3676
   32MOL0     H 4349   3.941   0.352   9.767  0.4807  0.0023 -0.3756
   32MOL0     H 4350   4.045   0.221   9.831  0.2451 -0.0843 -1.8247
   32MOL0     H 4351   4.104   0.515   9.795  1.1076  0.0388 -1.8220
   32MOL0     H 4352   4.179   0.429   9.932 -2.6042 -1.7530  1.4198
   32MOL0     H 4353   4.257   0.267   9.744  0.6558 -0.4090 -4.3288
   32MOL0     H 4354   4.195   0.393   9.637  0.7372  0.0745 -0.2679
   32MOL0     H 4355   4.323   0.565   9.731 -1.0866 -0.1812 -0.2946
   32MOL0     H 4356   4.398   0.450   9.838  1.9056  0.4054 -1.1549
   32MOL0     H 4357   4.498   0.326   9.646 -1.8959 -1.9711  1.4141
   32MOL0     H 4358   4.536   0.500   9.642  2.9671 -3.0618  1.6244
   32MOL0     H 4359   4.337   0.351   9.454 -0.4679  1.2900 -3.7675
   32MOL0     H 4360   4.336   0.533   9.490 -1.5472 -0.7663  2.9804
   32MOL0     H 4361   4.567   0.375   9.379  3.0097  1.6275  0.4990
   32MOL0     H 4362   4.545   0.554   9.395  0.9604 -0.1762 -1.7452
   32MOL0     H 4363   4.376   0.347   9.228  1.6363 -0.7983 -2.3660
   32MOL0     H 4364   4.334   0.518   9.264 -0.6597 -1.6289  0.4240
   32MOL0     H 4365   4.519   0.279   9.030  0.1354  0.2768  0.4914
   32MOL0     H 4366   4.649   0.317   8.817 -1.4665 -0.5712  1.3355
   32MOL0     H 4367   4.727   0.485   8.794 -0.4839  0.0041 -0.7442
   32MOL0     H 4368   4.438   0.401   8.733 -1.0702  1.3528 -2.8569
   32MOL0     H 4369   4.492   0.551   8.703 -0.3334  0.4345 -0.4651
   32MOL0     H 4370   4.655   0.460   8.533 -0.4993  1.2875  1.5043
   32MOL0     H 4371   4.654   0.301   8.611 -0.1424  0.5246  1.0984
   32MOL0     H 4372   4.397   0.425   8.478  0.9932  1.7713  0.6015
   32MOL0     H 4373   4.507   0.344   8.381  0.7606  2.2292 -0.5429
   32MOL0     H 4374   4.351   0.053   8.340  1.3606  0.7483  1.9653
   32MOL0     H 4375   4.215  -0.094   8.238 -0.4913 -0.1526  0.1534
   32MOL0     H 4376   4.094  -0.007   8.161 -1.6455 -0.0591 -0.5531
   32MOL0     H 4377   4.047  -0.110   8.294  0.6054  1.0675  2.2618
   32MOL0     H 4378   3.696  -0.017   8.448 -1.1619 -1.7951 -2.3288
   32MOL0     H 4379   3.471  -0.059   8.533 -2.5983 -0.2541  0.5858
   32MOL0     H 4380   3.233  -0.069   8.497  1.8558  0.9046  0.0459
   32MOL0     H 4381   3.299  -0.070   8.669 -2.4524 -1.3935  0.8473
   32MOL0     H 4382   3.087   0.016   8.745 -1.7538 -0.5289  1.1126
   32MOL0     H 4383   3.033   0.029   8.574 -0.7787 -0.1425  1.4409
   32MOL0     H 4384   3.080  -0.209   8.766  1.5001 -1.1486 -0.0211
   32MOL0     H 4385   3.103  -0.241   8.590  1.1265  2.0891 -0.7222
   32MOL0     H 4386   2.902  -0.141   8.549  1.7563  1.5180  0.8723
   32MOL0     H 4387   2.861  -0.144   8.729  0.2464  1.0487 -1.7280
   32MOL0     H 4388   2.942  -0.408   8.614  0.7825  1.4887 -2.6585
   32MOL0     H 4389   2.840  -0.366   8.739  2.2148  1.0858  0.4937
   32MOL0     H 4390   2.760  -0.343   8.438 -1.4639  0.7105  0.3858
   32MOL0     H 4391   2.657  -0.286   8.566 -0.2433 -0.1520  1.2883
   32MOL0     H 4392   2.705  -0.527   8.655  0.0086 -2.0964 -0.1380
   32MOL0     H 4393   2.728  -0.557   8.483 -1.6940  0.2350 -1.1804
   32MOL0     H 4394   2.489  -0.597   8.508  1.0708 -0.4703  1.9077
   32MOL0     H 4395   2.502  -0.424   8.452 -1.3206 -1.2128  0.2348
   32MOL0     H 4396   3.381   0.360   8.512  1.2445  0.1494  5.8465
   32MOL0     H 4397   3.615   0.410   8.454 -1.7374 -1.0193 -2.2292
   32MOL0     H 4398   3.983   0.299   8.547 -0.4555 -1.0894 -1.1125
   32MOL0     H 4399   4.209   0.320   8.643 -0.1185 -1.9920  0.2458
   32MOL0     H 4400   3.801   0.435  10.147  4.0917 -1.2927 -0.5745
   32MOL0     H 4401   3.590   0.366  10.208  0.6753  0.8008  0.0239
   32MOL0     H 4402   3.264   0.001  10.011  0.2046 -1.1278 -0.2985
   32MOL0     H 4403   3.050  -0.115  10.039 -0.9001  2.5778 -0.3446
   32MOL0     H 4404   2.799  -0.127  10.172 -0.7240  1.1960 -0.0425
   32MOL0     H 4405   2.885  -0.287  10.151  1.0866  1.3487  1.7683
   32MOL0     H 4406   2.632  -0.243  10.253 -0.6516 -1.0095  0.5080
   32MOL0     H 4407   2.737  -0.215  10.397  2.0369 -0.7320  0.5547
   32MOL0     H 4408   2.717  -0.461  10.229 -2.0523 -0.7172  1.0257
   32MOL0     H 4409   2.821  -0.452  10.375  0.6732 -0.8268 -1.7582
   32MOL0     H 4410   2.601  -0.369  10.506  0.6008  1.6774 -1.6851
   32MOL0     H 4411   2.629  -0.546  10.469 -1.4638 -2.0521 -3.6219
   32MOL0     H 4412   2.242  -0.518  10.345 -0.1472 -2.0837  2.2306
   32MOL0     H 4413   3.125  -0.105  10.466 -0.9307 -0.9472 -0.3092
   32MOL0     H 4414   3.386   0.095  10.487 -1.8732  1.8106 -3.6808
   32MOL0     H 4415   3.275  -0.017  10.571 -0.6124  0.3798 -1.5375
   32MOL0     H 4416   3.419  -0.086  10.510  3.5644  1.8371 -1.4129
   33MOL0     O 4417   5.308  11.301   7.340 -0.1255  0.4296 -0.4844
   33MOL0     C 4418   5.265  11.400   7.283 -0.3533  0.2026  0.1189
   33MOL0     O 4419   5.337  11.479   7.196  0.1804 -0.2899 -0.5622
   33MOL0     C 4420   5.477  11.481   7.205 -0.0281 -0.3742  0.0857
   33MOL0     C 4421   5.552  11.464   7.322  1.1888  0.6024  0.5314
   33MOL0     C 4422   5.688  11.474   7.315 -0.5504 -0.6942  0.3420
   33MOL0     C 4423   5.752  11.513   7.202  0.6810  0.4057 -0.6736
   33MOL0     O 4424   5.885  11.513   7.191 -0.7279 -0.7586  0.0373
   33MOL0     C 4425   5.946  11.591   7.291 -0.1518  0.6755  0.8032
   33MOL0     C 4426   6.092  11.541   7.306  0.3587 -0.5642  0.5886
   33MOL0     C 4427   6.171  11.549   7.177  0.4504  0.1807 -0.9130
   33MOL0     C 4428   6.318  11.540   7.199 -0.5354 -0.0927 -0.3002
   33MOL0     C 4429   6.406  11.476   7.094 -0.0962 -0.4632 -0.5342
   33MOL0     C 4430   6.371  11.338   7.053 -0.6163 -0.2738 -1.0991
   33MOL0     C 4431   6.487  11.264   6.972  0.3484 -0.6018  0.2690
   33MOL0     C 4432   6.627  11.265   7.040 -0.2612 -0.0707  0.0270
   33MOL0     N 4433   6.724  11.192   6.955  0.0644  0.3200  0.0756
   33MOL0     C 4434   6.785  11.242   6.846 -0.2209 -0.4468  0.1268
   33MOL0     C 4435   6.844  11.141   6.776  1.0241 -0.2401  0.1431
   33MOL0     C 4436   6.935  11.151   6.656  0.2420  0.5516  0.3062
   33MOL0     C 4437   7.089  11.169   6.690 -0.1397  0.6396 -0.2892
   33MOL0     C 4438   7.160  11.157   6.559  0.0968 -0.9456  0.4749
   33MOL0     C 4439   7.299  11.224   6.559  0.9055 -0.1767 -0.2893
   33MOL0     O 4440   7.342  11.205   6.420  0.3098 -0.1800  0.3411
   33MOL0     C 4441   7.465  11.175   6.375  0.0674  0.0534  0.0953
   33MOL0     C 4442   7.529  11.244   6.269 -0.3185 -0.4518 -0.1035
   33MOL0     C 4443   7.657  11.203   6.224 -0.4949 -0.3260  0.5607
   33MOL0     C 4444   7.684  11.265   6.081  0.7094  0.8103  0.5719
   33MOL0     C 4445   7.729  11.096   6.285  1.1179  0.0118 -0.7471
   33MOL0     C 4446   7.858  11.046   6.232  0.0543 -0.3328  0.5675
   33MOL0     O 4447   7.910  10.946   6.299 -0.0390  0.3856  0.1661
   33MOL0     C 4448   7.986  10.852   6.234 -1.4999  0.9556 -1.0040
   33MOL0     C 4449   8.057  10.772   6.328  0.0142 -0.1201 -0.1890
   33MOL0     C 4450   8.144  10.673   6.283 -0.2586 -0.4080 -1.0393
   33MOL0     C 4451   8.146  10.632   6.148  0.9154 -0.0659 -0.4089
   33MOL0     O 4452   8.213  10.518   6.119 -0.7279  0.1199  0.4235
   33MOL0     C 4453   8.227  10.480   5.985 -0.4830  1.1213  0.1755
   33MOL0     C 4454   8.353  10.380   5.965  0.3610 -0.3287 -0.2028
   33MOL0     C 4455   8.337  10.291   5.845  0.0022 -0.0137 -1.1804
   33MOL0     C 4456   8.475  10.229   5.811 -0.7014  1.2126 -0.2891
   33MOL0     C 4457   8.455  10.085   5.761  0.9656  1.1126  0.0494
   33MOL0     C 4458   8.589  10.029   5.756  0.4303  0.3730 -0.0736
   33MOL0     C 4459   8.599   9.873   5.744  0.1076 -0.1413  0.5267
   33MOL0     C 4460   8.551   9.806   5.615  0.4084  0.2663 -0.8457
   33MOL0    Cl 4461   8.367   9.795   5.626  0.1423  0.6329  0.3262
   33MOL0     C 4462   8.060  10.695   6.056  0.4385 -0.2987 -0.1471
   33MOL0     C 4463   7.971  10.791   6.106  0.7815  0.9658 -0.6619
   33MOL0     O 4464   7.914  11.089   6.129 -0.1499 -0.4404  0.3497
   33MOL0     C 4465   7.666  11.025   6.397 -0.0177 -0.3487 -0.5199
   33MOL0     C 4466   7.530  11.058   6.422 -0.7404  0.7733 -0.0827
   33MOL0     N 4467   6.807  11.026   6.842 -0.0280  0.1415  0.2488
   33MOL0     N 4468   6.734  11.055   6.947 -0.6189  0.0018 -0.7131
   33MOL0     C 4469   5.680  11.548   7.084  0.0073  0.0023  0.2925
   33MOL0     C 4470   5.549  11.534   7.091  0.7810  0.4235 -0.7128
   33MOL0     C 4471   5.118  11.431   7.292  0.3435  0.1715 -0.9313
   33MOL0     C 4472   5.051  11.335   7.368  0.0292  1.2498 -0.5584
   33MOL0     C 4473   4.913  11.345   7.393 -1.0304 -0.1136 -0.3516
   33MOL0     C 4474   4.844  11.461   7.355 -0.1639 -0.3929  0.0551
   33MOL0     O 4475   4.716  11.489   7.393  0.5756 -0.0673  0.0819
   33MOL0     C 4476   4.630  11.385   7.451 -0.0791  0.5530 -0.5612
   33MOL0     C 4477   4.630  11.256   7.370  0.8647 -0.6226  0.4013
   33MOL0     C 4478   4.488  11.189   7.383  0.3381  0.7850 -0.3935
   33MOL0     C 4479   4.379  11.265   7.302 -0.4018 -0.3143 -0.5477
   33MOL0     C 4480   4.254  11.204   7.338 -0.5173  1.0677 -0.9799
   33MOL0     C 4481   4.148  11.142   7.353  0.1816 -0.4048  0.0440
   33MOL0     C 4482   4.908  11.556   7.282  0.3813 -0.4345 -1.1145
   33MOL0     C 4483   5.044  11.542   7.245 -0.4401  0.9302  0.1363
   33MOL0     C 4484   5.094  11.654   7.153 -0.0453 -0.6852  0.8878
   33MOL0     H 4485   5.507  11.415   7.407  1.0139  1.8864  1.1967
   33MOL0     H 4486   5.731  11.429   7.404 -0.0780 -0.8886  0.0267
   33MOL0     H 4487   5.896  11.587   7.389 -1.5712  0.1712  0.0860
   33MOL0     H 4488   5.958  11.688   7.243 -3.6412  0.1359 -1.5373
   33MOL0     H 4489   6.138  11.601   7.385 -2.0811  0.0560  1.6398
   33MOL0     H 4490   6.086  11.434   7.326 -1.3388 -0.6348 -0.1057
   33MOL0     H 4491   6.134  11.473   7.108 -3.4328  1.0351  0.0139
   33MOL0     H 4492   6.160  11.644   7.124  4.2548  1.1042 -0.3614
   33MOL0     H 4493   6.355  11.641   7.216 -0.7460  0.2914 -1.9640
   33MOL0     H 4494   6.324  11.476   7.288 -4.5301  1.9112  1.6595
   33MOL0     H 4495   6.503  11.481   7.142 -0.6929  3.2186  0.5351
   33MOL0     H 4496   6.404  11.532   7.000 -2.0153 -1.0554 -0.9065
   33MOL0     H 4497   6.362  11.277   7.143  2.1955 -2.8743 -2.3795
   33MOL0     H 4498   6.276  11.332   7.000 -1.0215  0.3636 -0.4715
   33MOL0     H 4499   6.492  11.298   6.868 -1.0877 -1.4780 -0.1221
   33MOL0     H 4500   6.455  11.160   6.959  3.3699 -1.6186 -0.0628
   33MOL0     H 4501   6.658  11.369   7.057  1.7373 -0.8438  1.4139
   33MOL0     H 4502   6.621  11.216   7.137  1.2599 -0.4912 -0.0694
   33MOL0     H 4503   6.783  11.346   6.815  0.1485  0.3656  2.6051
   33MOL0     H 4504   6.901  11.242   6.606  2.4454  0.9052 -0.6398
   33MOL0     H 4505   6.918  11.073   6.581 -1.9730  1.6344 -0.4165
   33MOL0     H 4506   7.091  11.273   6.723  0.6174  0.7178 -0.5725
   33MOL0     H 4507   7.109  11.090   6.763 -3.9326 -0.5767 -0.3074
   33MOL0     H 4508   7.165  11.053   6.526  1.0743 -1.5327  2.3192
   33MOL0     H 4509   7.101  11.207   6.481  0.9076 -0.6971  0.0110
   33MOL0     H 4510   7.292  11.327   6.595  1.6785 -0.0207 -0.5780
   33MOL0     H 4511   7.364  11.167   6.625 -1.0727 -0.6252  1.3611
   33MOL0     H 4512   7.479  11.329   6.224  1.7181  0.9274  0.1259
   33MOL0     H 4513   7.791  11.264   6.056  0.3049  0.1402 -1.2903
   33MOL0     H 4514   7.659  11.371   6.070 -3.9068 -0.1917 -0.6909
   33MOL0     H 4515   7.620  11.217   6.007 -1.0369  1.5289  1.5666
   33MOL0     H 4516   8.047  10.787   6.435 -1.8526  1.7783 -0.5554
   33MOL0     H 4517   8.210  10.622   6.352 -0.5147  1.3826  0.5925
   33MOL0     H 4518   8.132  10.428   5.968 -0.6513  1.1659  0.9541
   33MOL0     H 4519   8.233  10.561   5.911 -4.0694  0.5021 -0.9698
   33MOL0     H 4520   8.450  10.430   5.974 -0.7015  3.4257 -5.0354
   33MOL0     H 4521   8.341  10.314   6.051  0.3041  2.5155  2.1513
   33MOL0     H 4522   8.288  10.345   5.763 -1.5971  2.4124  1.1866
   33MOL0     H 4523   8.265  10.214   5.875 -0.7468  1.2060  0.3122
   33MOL0     H 4524   8.536  10.225   5.902  0.6431 -3.1824 -1.1481
   33MOL0     H 4525   8.533  10.277   5.732 -0.6086 -1.5327 -2.0328
   33MOL0     H 4526   8.399  10.022   5.831  1.5043  0.0160 -0.4842
   33MOL0     H 4527   8.414  10.076   5.660 -1.0869 -0.7698  0.9725
   33MOL0     H 4528   8.649  10.070   5.838 -1.3999  0.5782  1.2318
   33MOL0     H 4529   8.632  10.068   5.663 -1.0493 -4.1006 -2.9722
   33MOL0     H 4530   8.539   9.832   5.825 -1.0160  0.5838  0.0810
   33MOL0     H 4531   8.705   9.847   5.747 -0.0150 -0.5576  1.7836
   33MOL0     H 4532   8.579   9.700   5.618 -3.1831 -0.7966  0.3975
   33MOL0     H 4533   8.584   9.862   5.527 -2.3704  1.1614 -1.4291
   33MOL0     H 4534   8.061  10.668   5.951  0.0307  0.1274 -0.2589
   33MOL0     H 4535   7.902  10.822   6.029  1.0248 -4.0337 -3.3125
   33MOL0     H 4536   7.705  10.945   6.460  1.6697  0.9808  0.2119
   33MOL0     H 4537   7.478  11.000   6.498  1.6935 -0.5858  0.6439
   33MOL0     H 4538   5.730  11.587   6.996  0.2371 -0.8231  0.0544
   33MOL0     H 4539   5.486  11.562   7.007  0.4687 -0.5939 -0.8211
   33MOL0     H 4540   5.105  11.245   7.397  2.3927  2.5612 -0.6752
   33MOL0     H 4541   4.881  11.272   7.466  2.1773 -2.2266 -0.8498
   33MOL0     H 4542   4.678  11.364   7.548  2.7808 -1.4267 -2.2619
   33MOL0     H 4543   4.532  11.433   7.459  0.4409  2.4989 -3.8154
   33MOL0     H 4544   4.706  11.186   7.406  1.5595  0.2668  0.6874
   33MOL0     H 4545   4.643  11.280   7.264  1.2224  1.4184  0.8646
   33MOL0     H 4546   4.482  11.082   7.359  0.7361  0.5819  0.3736
   33MOL0     H 4547   4.464  11.188   7.489  1.5161  2.3100 -0.0727
   33MOL0     H 4548   4.402  11.257   7.196 -0.2671 -0.5326 -0.5033
   33MOL0     H 4549   4.368  11.370   7.331  0.7802 -0.1657 -0.5526
   33MOL0     H 4550   4.055  11.091   7.360  0.2170 -0.4249  0.3595
   33MOL0     H 4551   4.850  11.644   7.255  1.7645  1.0867  0.5973
   33MOL0     H 4552   5.013  11.694   7.092  0.0012 -0.9820  0.6267
   33MOL0     H 4553   5.153  11.735   7.197 -0.6792  1.1587 -1.4434
   33MOL0     H 4554   5.164  11.613   7.079 -1.4038 -2.5200  0.5521
   34MOL0     O 4555   4.135   6.922   5.627 -0.3637 -0.6081  0.0936
   34MOL0     C 4556   4.105   6.818   5.571 -0.7832 -0.5736  0.0661
   34MOL0     O 4557   4.014   6.726   5.610 -0.1832 -0.0502  0.3709
   34MOL0     C 4558   3.940   6.737   5.724  0.1628  0.4534  0.2478
   34MOL0     C 4559   3.874   6.617   5.760  0.9152 -0.0908 -0.4177
   34MOL0     C 4560   3.787   6.616   5.871 -0.2745 -0.6679  0.2755
   34MOL0     C 4561   3.766   6.733   5.949  0.3400 -0.2940  0.0310
   34MOL0     O 4562   3.703   6.725   6.071 -0.1016 -0.3808 -0.3047
   34MOL0     C 4563   3.684   6.852   6.137  0.2201  0.2078 -0.1669
   34MOL0     C 4564   3.618   6.815   6.270  0.1611 -0.6277  0.9626
   34MOL0     C 4565   3.607   6.929   6.365 -0.1472 -0.0061 -0.6551
   34MOL0     C 4566   3.521   6.882   6.481  0.3352 -0.9331  0.7728
   34MOL0     C 4567   3.497   6.999   6.582  0.1471  1.1719 -0.4111
   34MOL0     C 4568   3.407   6.958   6.700 -0.4888 -0.7753  0.5714
   34MOL0     C 4569   3.392   7.084   6.797  0.3672 -0.1693  0.1869
   34MOL0     C 4570   3.313   7.057   6.917 -0.7697  0.1809 -0.3186
   34MOL0     N 4571   3.173   7.042   6.875 -0.3637  0.0452  0.0689
   34MOL0     C 4572   3.095   7.139   6.817  0.2968  0.0640 -0.0466
   34MOL0     C 4573   2.986   7.084   6.760  0.5115  0.3306 -0.3798
   34MOL0     C 4574   2.873   7.152   6.697  0.4409  0.4312 -0.4021
   34MOL0     C 4575   2.901   7.194   6.551  0.7434  0.8198 -1.1799
   34MOL0     C 4576   3.018   7.288   6.543 -0.0837 -0.2207 -0.2418
   34MOL0     C 4577   3.045   7.319   6.397 -0.7025 -0.7993  0.4631
   34MOL0     O 4578   3.145   7.420   6.367 -1.0041 -0.2084  0.4017
   34MOL0     C 4579   3.144   7.461   6.239  0.5517  0.4040  1.0117
   34MOL0     C 4580   3.101   7.591   6.213  0.3602  0.1201  0.8974
   34MOL0     C 4581   3.087   7.641   6.078  0.2248  0.0384  0.3331
   34MOL0     C 4582   3.055   7.786   6.060  0.3516 -0.2617 -0.7748
   34MOL0     C 4583   3.094   7.547   5.973 -0.2414  0.7944 -1.2329
   34MOL0     C 4584   3.098   7.589   5.826 -0.5888  0.3688 -0.5870
   34MOL0     O 4585   3.085   7.482   5.738 -0.0809 -0.4800  0.3878
   34MOL0     C 4586   3.088   7.517   5.603 -0.1549 -1.2465 -0.2606
   34MOL0     C 4587   3.190   7.598   5.551  0.0702  0.7253  0.2085
   34MOL0     C 4588   3.188   7.624   5.414 -0.4147  0.3124  0.1987
   34MOL0     C 4589   3.069   7.609   5.340  0.5800 -0.5394  1.2525
   34MOL0     O 4590   3.045   7.661   5.216  0.3825 -0.1952  0.6206
   34MOL0     C 4591   3.080   7.800   5.203  0.2826 -0.2416  0.4296
   34MOL0     C 4592   2.949   7.863   5.152  0.0731  1.0299 -0.4454
   34MOL0     C 4593   2.987   8.006   5.131 -0.3503  0.2457 -0.2844
   34MOL0     C 4594   2.864   8.074   5.071  0.8913 -0.1684 -0.3090
   34MOL0     C 4595   2.896   8.216   5.012 -1.4244  0.4220 -0.4601
   34MOL0     C 4596   2.773   8.267   4.928 -0.4534  0.3952 -0.0019
   34MOL0     C 4597   2.773   8.415   4.897  0.6587 -0.6691 -0.6257
   34MOL0     C 4598   2.720   8.450   4.762 -1.3165  0.0986 -0.5422
   34MOL0    Cl 4599   2.553   8.394   4.754  0.0806  0.5966 -0.7926
   34MOL0     C 4600   2.963   7.535   5.403  0.3944  0.9454 -0.5751
   34MOL0     C 4601   2.979   7.485   5.527 -0.2809  0.7488 -0.7672
   34MOL0     O 4602   3.111   7.701   5.800 -0.6057 -0.1395  0.6230
   34MOL0     C 4603   3.135   7.414   6.007  0.8124  0.9498 -0.3043
   34MOL0     C 4604   3.160   7.375   6.135  0.6472 -0.6855  0.1547
   34MOL0     N 4605   2.993   6.949   6.797 -0.1857 -0.2926 -0.0573
   34MOL0     N 4606   3.102   6.931   6.868 -0.2928 -0.1414 -0.2202
   34MOL0     C 4607   3.834   6.846   5.913  0.6115 -0.5116  0.1951
   34MOL0     C 4608   3.922   6.847   5.805  1.4118  0.8461  0.7444
   34MOL0     C 4609   4.172   6.792   5.441  0.6914 -0.6149  0.2475
   34MOL0     C 4610   4.083   6.767   5.333  0.1272 -0.1802 -0.7103
   34MOL0     C 4611   4.122   6.728   5.205 -0.3527  0.6232  0.6546
   34MOL0     C 4612   4.257   6.727   5.172 -0.4509  0.6558 -0.0690
   34MOL0     O 4613   4.305   6.682   5.052 -1.0011 -0.1435  0.8240
   34MOL0     C 4614   4.243   6.730   4.937 -0.8572  0.0825  0.4305
   34MOL0     C 4615   4.307   6.871   4.899 -0.1899 -0.0883 -0.3385
   34MOL0     C 4616   4.463   6.882   4.920  0.1304 -0.2665  0.6510
   34MOL0     C 4617   4.535   6.770   4.853  0.8389 -0.1649  0.7100
   34MOL0     C 4618   4.651   6.750   4.943  0.2016 -0.0524  0.0584
   34MOL0     C 4619   4.753   6.743   5.014  1.1311 -0.2732  0.9166
   34MOL0     C 4620   4.348   6.756   5.274 -0.5768 -0.0987 -0.1687
   34MOL0     C 4621   4.305   6.791   5.402  0.6171 -0.0835 -0.5943
   34MOL0     C 4622   4.414   6.818   5.502  0.4653  1.1743  0.4933
   34MOL0     H 4623   3.879   6.532   5.693 -1.2423 -0.0961 -0.6255
   34MOL0     H 4624   3.746   6.521   5.901 -0.7628  0.0828  2.1243
   34MOL0     H 4625   3.615   6.908   6.073 -1.3743 -2.0785 -0.5323
   34MOL0     H 4626   3.781   6.895   6.166  0.0891 -0.6180  1.5657
   34MOL0     H 4627   3.516   6.778   6.255 -0.2833  0.0687  2.1421
   34MOL0     H 4628   3.666   6.733   6.323  0.4889  0.2682  2.1022
   34MOL0     H 4629   3.708   6.947   6.401 -0.7443  2.4310 -0.0367
   34MOL0     H 4630   3.558   7.012   6.313 -0.9625  0.5372  0.9306
   34MOL0     H 4631   3.418   6.847   6.468  1.8921 -5.3742 -1.8329
   34MOL0     H 4632   3.561   6.791   6.527  2.3442 -0.3328  0.3012
   34MOL0     H 4633   3.449   7.077   6.523 -2.2423 -0.0513 -0.2165
   34MOL0     H 4634   3.591   7.035   6.623  1.4365 -2.8276  0.6269
   34MOL0     H 4635   3.311   6.917   6.668 -0.1936 -1.0489  0.0357
   34MOL0     H 4636   3.455   6.878   6.757 -0.4364 -0.8532  0.4183
   34MOL0     H 4637   3.348   7.171   6.748 -1.0066  0.1672  1.9410
   34MOL0     H 4638   3.496   7.107   6.823  0.5094  0.4733 -0.8752
   34MOL0     H 4639   3.353   6.983   6.987  0.8519 -0.9285 -2.2949
   34MOL0     H 4640   3.327   7.145   6.982  2.1445 -0.2036 -0.2808
   34MOL0     H 4641   3.124   7.242   6.798  1.1017 -0.5990 -3.0080
   34MOL0     H 4642   2.838   7.239   6.754 -0.5681  2.6806 -4.0992
   34MOL0     H 4643   2.790   7.081   6.694  0.6519  0.1119  0.6717
   34MOL0     H 4644   2.923   7.105   6.491 -2.2583 -0.8235 -0.0690
   34MOL0     H 4645   2.810   7.239   6.509  0.7161  1.7484 -0.1754
   34MOL0     H 4646   2.987   7.375   6.602 -1.0814 -0.3548 -0.5625
   34MOL0     H 4647   3.116   7.252   6.578  0.6594 -0.8328 -2.7646
   34MOL0     H 4648   3.090   7.230   6.353 -1.2282 -0.8748  0.0790
   34MOL0     H 4649   2.948   7.339   6.353 -1.8422 -3.3618  1.6225
   34MOL0     H 4650   3.074   7.641   6.306  0.5225 -1.2664  1.7200
   34MOL0     H 4651   3.144   7.846   6.086  2.6539 -3.8897  0.5562
   34MOL0     H 4652   2.988   7.801   6.145  3.5132  3.8937  1.4126
   34MOL0     H 4653   2.996   7.823   5.977  0.2620  1.7989  0.1439
   34MOL0     H 4654   3.278   7.619   5.611 -0.7876 -2.2405  2.8135
   34MOL0     H 4655   3.276   7.674   5.374 -0.2743 -0.0801  0.0073
   34MOL0     H 4656   3.110   7.840   5.300  2.8399 -0.3737 -0.2438
   34MOL0     H 4657   3.166   7.815   5.138  0.3575 -1.2058  0.2820
   34MOL0     H 4658   2.906   7.814   5.065 -0.9734 -0.0809  0.6490
   34MOL0     H 4659   2.871   7.849   5.228 -0.2976  3.9280 -0.1597
   34MOL0     H 4660   3.068   8.008   5.057  1.1128 -1.2018  1.1832
   34MOL0     H 4661   3.016   8.058   5.222 -1.3310 -1.0024  0.7767
   34MOL0     H 4662   2.787   8.084   5.147  1.9818  1.1859  0.6860
   34MOL0     H 4663   2.822   8.023   4.984 -0.6602 -0.2519  0.4642
   34MOL0     H 4664   2.928   8.275   5.098  2.0232 -0.7274 -0.7842
   34MOL0     H 4665   2.989   8.209   4.955  0.5233  0.8128  2.4306
   34MOL0     H 4666   2.677   8.247   4.977  0.9137 -2.9923  1.6422
   34MOL0     H 4667   2.796   8.213   4.836 -0.5165  1.3775 -0.6020
   34MOL0     H 4668   2.878   8.444   4.912  0.7591 -1.1660 -0.3370
   34MOL0     H 4669   2.709   8.465   4.971 -0.5097 -1.7641 -0.8651
   34MOL0     H 4670   2.784   8.411   4.682  1.4268 -1.8048  2.3610
   34MOL0     H 4671   2.715   8.557   4.739  1.0529  0.3208 -0.2275
   34MOL0     H 4672   2.875   7.531   5.340 -0.8630  0.8898  1.1438
   34MOL0     H 4673   2.896   7.437   5.578  1.8740 -1.1101  1.3027
   34MOL0     H 4674   3.148   7.344   5.925 -3.4523  1.4835 -1.6651
   34MOL0     H 4675   3.179   7.272   6.163  0.9495 -0.6357  0.1452
   34MOL0     H 4676   3.847   6.941   5.963 -0.9096 -0.1611 -0.0439
   34MOL0     H 4677   3.971   6.941   5.784  1.0140  1.0209  0.5948
   34MOL0     H 4678   3.978   6.771   5.359 -0.2703  0.1888 -2.2492
   34MOL0     H 4679   4.048   6.701   5.131 -0.2418  0.8697  0.4493
   34MOL0     H 4680   4.265   6.658   4.857 -3.7996  0.5080 -0.8641
   34MOL0     H 4681   4.137   6.746   4.955 -0.7074 -0.1939  1.6438
   34MOL0     H 4682   4.258   6.941   4.968  0.6693  1.1426 -0.9451
   34MOL0     H 4683   4.294   6.891   4.793  2.1896 -0.1336 -0.6770
   34MOL0     H 4684   4.500   6.971   4.870  0.5142  0.0089  1.4091
   34MOL0     H 4685   4.486   6.894   5.026  2.9704 -1.5598  0.2648
   34MOL0     H 4686   4.572   6.801   4.755  1.2007  2.2154  1.5110
   34MOL0     H 4687   4.472   6.683   4.835 -1.3297  1.8667 -2.6410
   34MOL0     H 4688   4.842   6.738   5.074  1.4337 -1.6137  0.3883
   34MOL0     H 4689   4.456   6.749   5.259 -0.8130 -0.6340 -1.9214
   34MOL0     H 4690   4.421   6.755   5.591 -1.0388  0.7221  0.3283
   34MOL0     H 4691   4.507   6.802   5.447 -0.1933  1.7820 -0.8618
   34MOL0     H 4692   4.412   6.917   5.550  3.8291  0.0864  3.3148
   35MOL0     O 4693   8.706   1.751   5.670  0.1847 -0.2431 -0.2157
   35MOL0     C 4694   8.637   1.841   5.720  0.3194  0.0330 -0.1071
   35MOL0     O 4695   8.613   1.954   5.656  0.5077  0.0851 -0.0969
   35MOL0     C 4696   8.690   1.990   5.542 -0.0368 -0.5136 -0.6034
   35MOL0     C 4697   8.641   1.946   5.421 -0.2548  0.2661  0.1424
   35MOL0     C 4698   8.709   1.978   5.307  0.0198  0.1162  0.3126
   35MOL0     C 4699   8.829   2.049   5.317 -1.5846 -0.4113 -0.1226
   35MOL0     O 4700   8.901   2.080   5.207 -0.5264  0.4906 -0.1876
   35MOL0     C 4701   8.851   2.191   5.131 -0.1681 -0.2820  1.0561
   35MOL0     C 4702   8.941   2.191   4.995  0.6315  0.2824  0.3562
   35MOL0     C 4703   8.937   2.053   4.920  0.5824  0.5244 -0.1515
   35MOL0     C 4704   8.989   2.065   4.775 -0.2800  1.0836 -0.3542
   35MOL0     C 4705   8.995   1.940   4.692  0.1126  0.3780 -0.0261
   35MOL0     C 4706   8.850   1.893   4.656 -0.5298  0.1608 -0.3646
   35MOL0     C 4707   8.839   1.761   4.584  0.9540  0.0347  0.4166
   35MOL0     C 4708   8.705   1.700   4.593 -0.7350 -0.2024 -0.1580
   35MOL0     N 4709   8.687   1.584   4.505 -0.3299 -0.1195  0.5990
   35MOL0     C 4710   8.649   1.456   4.553 -0.4419  1.1189 -0.8432
   35MOL0     C 4711   8.669   1.381   4.445  0.1005 -0.7375  0.0811
   35MOL0     C 4712   8.625   1.238   4.434  0.3470 -1.0232 -0.5649
   35MOL0     C 4713   8.744   1.144   4.432 -0.3075  0.2491 -0.6327
   35MOL0     C 4714   8.694   1.002   4.385 -0.1222  0.1407  0.0800
   35MOL0     C 4715   8.808   0.905   4.413  0.3024 -0.3298  0.6272
   35MOL0     O 4716   8.785   0.785   4.344 -0.0673  0.5081  0.0055
   35MOL0     C 4717   8.883   0.684   4.339 -0.3930 -0.1381 -0.3883
   35MOL0     C 4718   8.998   0.695   4.427  0.4602  0.5775  0.0793
   35MOL0     C 4719   9.087   0.584   4.436 -0.2681  0.3642  0.2885
   35MOL0     C 4720   9.194   0.592   4.535 -0.8148  0.4886 -0.1603
   35MOL0     C 4721   9.065   0.467   4.358 -0.6432  0.1335  0.7750
   35MOL0     C 4722   9.157   0.342   4.350  0.3651 -0.3105 -1.0417
   35MOL0     O 4723   9.089   0.219   4.321  0.3293 -0.4792  0.6832
   35MOL0     C 4724   9.151   0.101   4.296 -0.3507  0.2362 -0.5468
   35MOL0     C 4725   9.287   0.078   4.269 -0.5163 -0.2901  0.3418
   35MOL0     C 4726   9.337  -0.051   4.242  0.2177 -0.3907 -0.1530
   35MOL0     C 4727   9.262  -0.164   4.255  0.5631 -0.4710 -0.0603
   35MOL0     O 4728   9.334  -0.279   4.239  0.1814 -0.0627  1.2017
   35MOL0     C 4729   9.279  -0.400   4.301 -0.9813  0.4340  0.0945
   35MOL0     C 4730   9.358  -0.517   4.240 -0.3393 -0.1285 -0.6476
   35MOL0     C 4731   9.285  -0.646   4.268  0.5828 -0.4942  0.6876
   35MOL0     C 4732   9.331  -0.748   4.172  0.2720 -0.3489  0.0225
   35MOL0     C 4733   9.269  -0.882   4.191  0.3503 -0.7218  0.7796
   35MOL0     C 4734   9.274  -0.955   4.052 -0.0023  0.5028  0.4049
   35MOL0     C 4735   9.241  -1.107   4.072  0.1175  0.0618 -0.5837
   35MOL0     C 4736   9.335  -1.175   4.175 -1.6030 -0.3716  0.3364
   35MOL0    Cl 4737   9.510  -1.149   4.141  0.1365  0.5393  0.4435
   35MOL0     C 4738   9.130  -0.146   4.293  0.7426  0.4403  0.1391
   35MOL0     C 4739   9.075  -0.018   4.311  0.8230  0.3277 -0.6368
   35MOL0     O 4740   9.280   0.358   4.356 -0.1093 -0.1026  0.4804
   35MOL0     C 4741   8.945   0.459   4.278 -0.2198 -0.3465  0.1509
   35MOL0     C 4742   8.856   0.568   4.268 -0.7181 -0.2823  0.1566
   35MOL0     N 4743   8.721   1.452   4.339 -0.0160 -1.2391 -0.3901
   35MOL0     N 4744   8.732   1.575   4.376  0.0848 -0.5601  0.4653
   35MOL0     C 4745   8.874   2.098   5.438 -0.9641  0.5037 -0.1409
   35MOL0     C 4746   8.812   2.068   5.554  0.3863  1.2325 -0.1689
   35MOL0     C 4747   8.581   1.813   5.854  0.0119 -0.2573  0.0848
   35MOL0     C 4748   8.533   1.685   5.882  0.9264 -0.2036 -0.8006
   35MOL0     C 4749   8.474   1.654   6.008 -0.8611 -0.0102 -0.6896
   35MOL0     C 4750   8.465   1.753   6.112  0.2401  0.0185 -0.1909
   35MOL0     O 4751   8.405   1.732   6.233 -0.1389 -0.2264  0.0357
   35MOL0     C 4752   8.339   1.608   6.265  0.8257  0.4787  0.0811
   35MOL0     C 4753   8.199   1.599   6.225  0.3379  0.3351 -0.3206
   35MOL0     C 4754   8.112   1.710   6.288 -0.9442 -0.0674  0.3796
   35MOL0     C 4755   8.050   1.640   6.418  0.1575  0.6482 -0.3080
   35MOL0     C 4756   7.912   1.610   6.415  0.1301 -0.3033 -0.9567
   35MOL0     C 4757   7.794   1.576   6.424 -0.0990 -0.0334 -0.1769
   35MOL0     C 4758   8.529   1.879   6.085 -0.1216 -0.5850 -0.6640
   35MOL0     C 4759   8.581   1.907   5.953  0.6751 -1.5629 -0.7979
   35MOL0     C 4760   8.607   2.047   5.917  0.1964 -0.1623 -1.1336
   35MOL0     H 4761   8.550   1.886   5.418 -0.4278  0.1769  3.2580
   35MOL0     H 4762   8.689   1.947   5.205  3.6881 -0.6801 -0.3197
   35MOL0     H 4763   8.865   2.287   5.182  2.9249  0.0736 -0.2708
   35MOL0     H 4764   8.748   2.176   5.098  0.8586  0.1427 -2.7601
   35MOL0     H 4765   8.910   2.273   4.930  2.6054  0.5151 -0.3593
   35MOL0     H 4766   9.044   2.214   5.026  0.7924 -1.0830  0.9300
   35MOL0     H 4767   8.993   1.978   4.977 -1.3519  0.3674  1.6790
   35MOL0     H 4768   8.837   2.009   4.922  1.1416 -0.8335 -0.7338
   35MOL0     H 4769   8.921   2.135   4.724 -1.6375 -0.0556 -0.1564
   35MOL0     H 4770   9.092   2.101   4.786  0.8072 -0.6392 -3.5975
   35MOL0     H 4771   9.042   1.854   4.742  4.3800  0.8955 -2.5855
   35MOL0     H 4772   9.052   1.963   4.602 -0.6431 -3.8607 -1.8111
   35MOL0     H 4773   8.798   1.890   4.752  1.4270  0.3572  0.7537
   35MOL0     H 4774   8.795   1.972   4.605  0.6860  1.1737 -0.1402
   35MOL0     H 4775   8.912   1.686   4.616  1.5901  0.0073 -1.0384
   35MOL0     H 4776   8.865   1.779   4.480  1.6176 -0.3475  0.5100
   35MOL0     H 4777   8.688   1.667   4.695 -1.2905 -1.3848 -0.6202
   35MOL0     H 4778   8.628   1.773   4.566 -1.9316 -1.2591  0.3374
   35MOL0     H 4779   8.614   1.432   4.653 -2.0004  3.6746 -0.6990
   35MOL0     H 4780   8.579   1.223   4.336  2.0855 -0.0909 -1.5693
   35MOL0     H 4781   8.556   1.214   4.515 -0.5278  0.8854 -0.6821
   35MOL0     H 4782   8.816   1.184   4.360 -1.2886  1.8998 -0.7302
   35MOL0     H 4783   8.788   1.143   4.532 -0.2238  0.1460 -0.6706
   35MOL0     H 4784   8.603   0.965   4.433 -1.7433  0.3923 -2.5728
   35MOL0     H 4785   8.683   1.001   4.276  1.7601 -0.3430 -0.1451
   35MOL0     H 4786   8.899   0.951   4.374 -1.5000  1.2320 -2.1247
   35MOL0     H 4787   8.800   0.883   4.520 -0.9027  1.4454  0.9547
   35MOL0     H 4788   8.998   0.782   4.492 -1.9523  0.5320  0.2167
   35MOL0     H 4789   9.194   0.503   4.598  2.3855  1.7537  1.9027
   35MOL0     H 4790   9.169   0.670   4.608 -0.9229 -1.2736  1.8015
   35MOL0     H 4791   9.289   0.598   4.481 -0.4740  1.0854  0.4837
   35MOL0     H 4792   9.346   0.164   4.238 -0.3195 -1.0136 -1.4164
   35MOL0     H 4793   9.442  -0.062   4.214  0.2793 -1.9446  0.6250
   35MOL0     H 4794   9.305  -0.385   4.406  3.4625  1.3766 -0.9222
   35MOL0     H 4795   9.171  -0.416   4.292 -0.9610  0.6495 -0.6582
   35MOL0     H 4796   9.354  -0.514   4.131 -0.2291  1.1489 -0.6240
   35MOL0     H 4797   9.461  -0.516   4.276 -0.6918 -0.2098  0.4038
   35MOL0     H 4798   9.179  -0.629   4.244  0.5619 -2.4239 -0.8385
   35MOL0     H 4799   9.289  -0.666   4.376  1.8892 -1.5975  0.4602
   35MOL0     H 4800   9.441  -0.755   4.172  0.2302 -1.8068 -1.8103
   35MOL0     H 4801   9.306  -0.720   4.069 -0.0581  0.1804  0.2454
   35MOL0     H 4802   9.322  -0.934   4.271  3.3674 -0.7013 -1.0597
   35MOL0     H 4803   9.164  -0.861   4.214  0.5999  1.5972  0.0813
   35MOL0     H 4804   9.372  -0.944   4.006 -1.2745  0.2931 -2.5655
   35MOL0     H 4805   9.200  -0.900   3.994 -1.8351  0.9123  2.9345
   35MOL0     H 4806   9.242  -1.163   3.978 -3.3655  0.7544 -1.1426
   35MOL0     H 4807   9.141  -1.123   4.111  0.9579 -4.3398  0.3019
   35MOL0     H 4808   9.327  -1.284   4.168  1.7828 -0.9597  3.0217
   35MOL0     H 4809   9.335  -1.143   4.280 -0.2451  0.4941  0.1017
   35MOL0     H 4810   9.077  -0.234   4.327  2.1503 -0.1067  0.9949
   35MOL0     H 4811   8.969  -0.007   4.330  0.5391 -0.6455 -1.5303
   35MOL0     H 4812   8.926   0.368   4.221  0.3630  0.1273 -0.8284
   35MOL0     H 4813   8.773   0.562   4.198 -1.3908  0.0760  0.8922
   35MOL0     H 4814   8.975   2.138   5.438 -0.7856  0.0637 -1.0304
   35MOL0     H 4815   8.844   2.093   5.655  2.3344 -1.3910 -0.0399
   35MOL0     H 4816   8.521   1.612   5.802 -0.6339  0.8055 -1.5489
   35MOL0     H 4817   8.420   1.560   6.012 -1.6007  0.4440  1.5648
   35MOL0     H 4818   8.400   1.526   6.226  1.1384  1.5161 -1.7159
   35MOL0     H 4819   8.348   1.599   6.374 -0.2715  0.1788  0.1616
   35MOL0     H 4820   8.168   1.497   6.247 -1.3736  1.0419  0.7916
   35MOL0     H 4821   8.188   1.609   6.116 -3.0737 -1.9222 -0.3508
   35MOL0     H 4822   8.174   1.796   6.315 -4.3604  2.3198  1.3614
   35MOL0     H 4823   8.039   1.743   6.214  0.4640 -0.2000 -1.1158
   35MOL0     H 4824   8.064   1.717   6.494 -2.0058  2.7261 -1.8790
   35MOL0     H 4825   8.108   1.556   6.459  0.3559  1.2954  0.7762
   35MOL0     H 4826   7.701   1.532   6.452 -0.6558 -1.4907 -3.7253
   35MOL0     H 4827   8.529   1.954   6.164 -1.9498  0.7574 -1.8460
   35MOL0     H 4828   8.699   2.046   5.859 -1.2832  1.8873 -3.7618
   35MOL0     H 4829   8.532   2.092   5.851  1.4009 -1.7239 -3.7460
   35MOL0     H 4830   8.611   2.094   6.015  1.3273 -3.2451  0.4406
   36MOL0     O 4831   5.726   7.431   5.121  0.5656  0.1600 -0.2573
   36MOL0     C 4832   5.692   7.318   5.093  0.3201 -0.2051 -0.1889
   36MOL0     O 4833   5.570   7.279   5.044  0.0495  0.4864  0.1496
   36MOL0     C 4834   5.464   7.354   5.052  0.7599 -0.3240  0.3039
   36MOL0     C 4835   5.382   7.354   4.944  0.3961 -0.3889 -0.2075
   36MOL0     C 4836   5.271   7.438   4.930 -0.3597 -0.1972 -1.3117
   36MOL0     C 4837   5.228   7.515   5.033 -0.5274 -0.0933  0.0984
   36MOL0     O 4838   5.115   7.591   5.041 -0.2093  0.7094 -0.5043
   36MOL0     C 4839   5.006   7.536   4.970 -0.6215  0.2230  0.2975
   36MOL0     C 4840   4.999   7.608   4.838 -0.2695 -0.2658  0.9125
   36MOL0     C 4841   4.918   7.536   4.731  0.0904 -0.3912  0.3175
   36MOL0     C 4842   4.918   7.613   4.592  0.0917 -0.2245  0.2438
   36MOL0     C 4843   4.859   7.536   4.478 -1.2709  0.3373  0.1708
   36MOL0     C 4844   4.731   7.449   4.511 -0.3755 -0.7313  0.7713
   36MOL0     C 4845   4.604   7.531   4.528 -0.5190  0.3692 -0.7041
   36MOL0     C 4846   4.555   7.628   4.415  0.6613 -0.1591  0.1188
   36MOL0     N 4847   4.558   7.561   4.280 -0.7370 -0.3865  0.8875
   36MOL0     C 4848   4.630   7.596   4.166  0.0214  0.3093  0.3656
   36MOL0     C 4849   4.590   7.504   4.071 -0.6822 -0.2809 -0.5018
   36MOL0     C 4850   4.659   7.496   3.936  0.7191 -0.3803 -0.0228
   36MOL0     C 4851   4.807   7.450   3.950  0.2937  0.5908  0.1523
   36MOL0     C 4852   4.880   7.450   3.817  0.2016  0.2068  0.0515
   36MOL0     C 4853   5.020   7.397   3.820  0.5665  0.2157 -0.6558
   36MOL0     O 4854   5.093   7.437   3.700 -0.0474 -1.2509 -0.1229
   36MOL0     C 4855   5.191   7.361   3.658  0.2870 -0.1896 -1.2152
   36MOL0     C 4856   5.234   7.364   3.528 -0.4465 -0.0874  0.2484
   36MOL0     C 4857   5.352   7.303   3.475 -0.0248  0.2421 -1.4224
   36MOL0     C 4858   5.408   7.346   3.348  0.2708 -0.0913 -0.7529
   36MOL0     C 4859   5.421   7.212   3.564 -0.0456 -0.6533 -0.0470
   36MOL0     C 4860   5.546   7.143   3.519 -0.3160  0.5230 -0.4616
   36MOL0     O 4861   5.546   7.097   3.398 -0.9149  0.2885 -0.8004
   36MOL0     C 4862   5.644   7.001   3.363 -0.2186  0.5188  0.1589
   36MOL0     C 4863   5.720   7.020   3.251 -1.0846 -0.3334  0.5414
   36MOL0     C 4864   5.818   6.925   3.211 -0.5042 -0.3439 -0.9131
   36MOL0     C 4865   5.851   6.823   3.300 -1.0811  0.7653  0.5406
   36MOL0     O 4866   5.938   6.725   3.250  0.9048 -0.1683 -0.5860
   36MOL0     C 4867   5.970   6.610   3.329  0.5428  0.4033 -1.0434
   36MOL0     C 4868   6.089   6.542   3.265  0.9031  1.1433  0.0243
   36MOL0     C 4869   6.110   6.399   3.324  0.6424 -1.0847  0.4015
   36MOL0     C 4870   6.230   6.339   3.253 -0.0297 -0.1728  0.9000
   36MOL0     C 4871   6.248   6.200   3.300  0.0297  0.1785  0.3047
   36MOL0     C 4872   6.150   6.100   3.241 -0.4815 -0.5202 -0.3194
   36MOL0     C 4873   6.100   6.126   3.098  0.2842  0.3156 -0.2840
   36MOL0     C 4874   6.024   6.008   3.041 -0.3676 -0.8186 -0.3895
   36MOL0    Cl 4875   6.124   5.852   3.025 -0.3969 -0.4260  0.1645
   36MOL0     C 4876   5.771   6.797   3.410 -0.4264 -0.0665  1.3092
   36MOL0     C 4877   5.664   6.882   3.437  0.0545  0.3931 -0.3021
   36MOL0     O 4878   5.639   7.134   3.601 -0.7054  0.0366 -0.6627
   36MOL0     C 4879   5.381   7.196   3.697 -0.1223 -0.7987  0.0544
   36MOL0     C 4880   5.267   7.276   3.748 -0.7237 -0.6030 -0.0977
   36MOL0     N 4881   4.494   7.418   4.123  0.2986 -1.2221 -0.5407
   36MOL0     N 4882   4.493   7.446   4.252 -0.2644 -0.3392  0.9823
   36MOL0     C 4883   5.311   7.522   5.145  0.9834  0.4610  0.8929
   36MOL0     C 4884   5.424   7.444   5.150 -0.3050  0.7985 -0.7138
   36MOL0     C 4885   5.797   7.222   5.102  1.4822 -0.4226  0.3269
   36MOL0     C 4886   5.852   7.190   4.981  0.7247  0.7518 -0.4090
   36MOL0     C 4887   5.959   7.096   4.972 -0.4451 -0.3585 -0.1949
   36MOL0     C 4888   5.998   7.029   5.084  0.3073  0.3748 -0.1416
   36MOL0     O 4889   6.091   6.936   5.071  0.7187  0.5741  0.0403
   36MOL0     C 4890   6.054   6.802   5.024  0.0985 -0.6613  0.3558
   36MOL0     C 4891   6.175   6.706   5.035  0.3938 -0.5439 -0.3336
   36MOL0     C 4892   6.143   6.585   4.955 -0.8690  0.1645  0.1640
   36MOL0     C 4893   6.176   6.589   4.796 -0.6572  0.0939 -0.4831
   36MOL0     C 4894   6.210   6.452   4.758  0.7779  0.2368 -0.2058
   36MOL0     C 4895   6.231   6.340   4.723 -0.1764  0.1992  0.0274
   36MOL0     C 4896   5.929   7.049   5.212 -0.4141  0.4802  0.6575
   36MOL0     C 4897   5.833   7.150   5.220 -0.1813 -0.2691  0.2468
   36MOL0     C 4898   5.774   7.174   5.358  0.2194  0.1092  0.3226
   36MOL0     H 4899   5.406   7.285   4.864 -3.9718 -0.0415 -2.1126
   36MOL0     H 4900   5.223   7.425   4.834  0.4633  1.1189 -1.9296
   36MOL0     H 4901   4.913   7.552   5.026 -1.2459  0.3914 -0.7803
   36MOL0     H 4902   5.012   7.427   4.964  1.9768  0.2615  0.9059
   36MOL0     H 4903   4.950   7.704   4.854  2.1446  1.1516  0.3614
   36MOL0     H 4904   5.104   7.616   4.807 -0.9114 -0.4120 -1.4635
   36MOL0     H 4905   4.965   7.438   4.721 -2.9461 -2.0772  1.4298
   36MOL0     H 4906   4.814   7.526   4.761 -0.3115  0.5999 -0.6848
   36MOL0     H 4907   4.857   7.704   4.603 -1.1453 -0.4242 -3.5178
   36MOL0     H 4908   5.017   7.638   4.554  1.5941 -5.5245 -0.0651
   36MOL0     H 4909   4.944   7.476   4.442 -0.7839  1.2458 -0.2431
   36MOL0     H 4910   4.841   7.609   4.398 -1.1310 -0.2534 -0.4183
   36MOL0     H 4911   4.718   7.380   4.427  0.4224 -0.8645  0.7544
   36MOL0     H 4912   4.766   7.387   4.593  1.9405 -0.6294 -0.0609
   36MOL0     H 4913   4.610   7.588   4.621 -0.0862 -0.8592  0.0397
   36MOL0     H 4914   4.530   7.451   4.546  1.7782 -1.4640  1.3376
   36MOL0     H 4915   4.456   7.668   4.438  1.4852  1.2722  1.3647
   36MOL0     H 4916   4.621   7.715   4.421  1.1610 -0.2258 -2.8415
   36MOL0     H 4917   4.702   7.676   4.151 -1.2571  1.2273 -1.3044
   36MOL0     H 4918   4.657   7.596   3.893 -0.1655 -0.6605 -0.6714
   36MOL0     H 4919   4.607   7.429   3.867 -0.8291 -0.2414  0.9718
   36MOL0     H 4920   4.871   7.508   4.017  0.7784 -1.0582  1.1705
   36MOL0     H 4921   4.804   7.348   3.988  2.8404  0.8284  1.1967
   36MOL0     H 4922   4.831   7.404   3.730  0.6403 -0.6973  0.2779
   36MOL0     H 4923   4.893   7.553   3.782  0.1401  0.4058  0.6019
   36MOL0     H 4924   5.069   7.442   3.907  1.8435  0.1811 -1.3273
   36MOL0     H 4925   5.026   7.291   3.844  0.5397  0.5800  1.0954
   36MOL0     H 4926   5.168   7.423   3.466 -1.5458 -0.0632  1.4027
   36MOL0     H 4927   5.364   7.444   3.326 -0.5399  0.2059  1.8226
   36MOL0     H 4928   5.382   7.272   3.272  1.1904 -0.5973 -0.5897
   36MOL0     H 4929   5.515   7.363   3.352 -0.1081  2.3777  0.6729
   36MOL0     H 4930   5.700   7.103   3.184 -2.3403  0.7336  2.1407
   36MOL0     H 4931   5.878   6.937   3.122  1.1183  0.3350  0.2335
   36MOL0     H 4932   6.006   6.622   3.431 -0.2323  0.8873 -0.8198
   36MOL0     H 4933   5.881   6.547   3.335  0.6818  0.3519  1.1994
   36MOL0     H 4934   6.070   6.530   3.158 -1.3625 -3.5686  0.6815
   36MOL0     H 4935   6.182   6.598   3.272  2.2482 -0.9918  0.3004
   36MOL0     H 4936   6.016   6.343   3.319 -0.4264  0.7096 -0.5773
   36MOL0     H 4937   6.140   6.412   3.429  0.5405 -1.4468  0.4754
   36MOL0     H 4938   6.317   6.389   3.295 -0.2375  0.9551  0.0094
   36MOL0     H 4939   6.224   6.347   3.144 -2.6800  0.3581  1.0098
   36MOL0     H 4940   6.347   6.165   3.271  0.3665 -1.3562  2.9875
   36MOL0     H 4941   6.238   6.196   3.409  0.4860 -0.9834  0.3198
   36MOL0     H 4942   6.065   6.100   3.311  2.3479  0.8274  3.4973
   36MOL0     H 4943   6.198   6.002   3.250  0.8244  0.2581  2.4912
   36MOL0     H 4944   6.190   6.149   3.041  0.5656 -0.7049 -0.2705
   36MOL0     H 4945   6.035   6.214   3.088 -0.0505  0.2467  1.0181
   36MOL0     H 4946   5.984   6.042   2.945  0.5353  2.3774  0.2551
   36MOL0     H 4947   5.930   5.997   3.096  0.0229  0.3293  0.5363
   36MOL0     H 4948   5.769   6.711   3.476 -3.3088 -0.4611  0.8057
   36MOL0     H 4949   5.597   6.860   3.519  2.7413 -1.5673  1.5541
   36MOL0     H 4950   5.425   7.125   3.766  0.1506  0.3491  1.0982
   36MOL0     H 4951   5.236   7.263   3.852 -1.5895  0.2444 -0.2334
   36MOL0     H 4952   5.275   7.593   5.220  1.3017  1.6196 -0.0301
   36MOL0     H 4953   5.484   7.451   5.240  1.0296  0.5585 -1.5432
   36MOL0     H 4954   5.824   7.247   4.893  0.6286 -1.3069 -1.7705
   36MOL0     H 4955   6.008   7.056   4.883 -0.2558 -0.5660  0.0032
   36MOL0     H 4956   5.988   6.745   5.090 -0.0781 -3.0645 -1.7479
   36MOL0     H 4957   5.999   6.806   4.930 -0.9074  0.0922  0.9584
   36MOL0     H 4958   6.184   6.679   5.140 -1.0133  0.9688  0.2129
   36MOL0     H 4959   6.262   6.764   5.005  0.1804  0.7416  1.4084
   36MOL0     H 4960   6.214   6.507   4.984  0.0857  0.9149 -0.1318
   36MOL0     H 4961   6.044   6.540   4.970 -0.7273 -0.6986 -1.2424
   36MOL0     H 4962   6.268   6.645   4.781  0.3230 -1.2435  0.2876
   36MOL0     H 4963   6.097   6.636   4.737  0.9953  2.0528 -1.2459
   36MOL0     H 4964   6.256   6.244   4.684  0.2652 -0.2168  1.2789
   36MOL0     H 4965   5.938   6.977   5.292 -0.6930 -2.3626 -1.7137
   36MOL0     H 4966   5.800   7.276   5.390 -1.7335  0.8347 -0.2434
   36MOL0     H 4967   5.665   7.179   5.347  0.4152 -0.4399 -2.4708
   36MOL0     H 4968   5.821   7.107   5.431  1.8472  0.8466 -0.0106
   37MOL0     O 4969   5.865   3.437   8.267 -1.0208  0.4763 -0.1150
   37MOL0     C 4970   5.776   3.355   8.273 -0.1006  0.7554  0.2503
   37MOL0     O 4971   5.782   3.222   8.283  0.1545  0.3910 -0.1108
   37MOL0     C 4972   5.893   3.150   8.328 -0.6847  0.6189  0.4738
   37MOL0     C 4973   5.862   3.012   8.352  0.1348  0.2450  1.4380
   37MOL0     C 4974   5.956   2.927   8.399 -0.3861 -0.4934 -0.5499
   37MOL0     C 4975   6.083   2.968   8.417 -0.9193  1.1037  0.4130
   37MOL0     O 4976   6.191   2.888   8.446  0.0168  0.0854 -0.1655
   37MOL0     C 4977   6.168   2.751   8.497 -0.9754 -0.6570  0.3431
   37MOL0     C 4978   6.304   2.709   8.562 -0.2337 -0.7270 -0.6492
   37MOL0     C 4979   6.332   2.817   8.682  0.0090 -0.0038 -0.0130
   37MOL0     C 4980   6.478   2.797   8.735  0.2899  0.4867  1.0299
   37MOL0     C 4981   6.498   2.678   8.824  0.1871  0.8573 -0.4425
   37MOL0     C 4982   6.632   2.699   8.915  0.0778  0.5376 -0.2386
   37MOL0     C 4983   6.748   2.694   8.807  0.2215  0.7448 -0.2845
   37MOL0     C 4984   6.879   2.682   8.877  0.1907  0.0627  0.4797
   37MOL0     N 4985   6.993   2.710   8.787 -0.0202  0.3305 -0.8427
   37MOL0     C 4986   7.034   2.842   8.756 -0.1520  1.4132 -0.0549
   37MOL0     C 4987   7.160   2.816   8.695  0.0166 -0.3263 -0.2795
   37MOL0     C 4988   7.276   2.902   8.656 -0.5681 -0.2359  0.4708
   37MOL0     C 4989   7.292   2.900   8.496  0.4076 -0.2260 -0.8007
   37MOL0     C 4990   7.418   2.986   8.468 -0.1445  1.3905 -0.1211
   37MOL0     C 4991   7.454   2.956   8.328  0.6626 -0.6908  0.3874
   37MOL0     O 4992   7.543   3.049   8.273 -0.2597  0.0397  0.1997
   37MOL0     C 4993   7.553   3.078   8.137  0.1801  0.3840  0.0022
   37MOL0     C 4994   7.652   3.169   8.105  0.1178 -0.1271  0.8152
   37MOL0     C 4995   7.693   3.195   7.971 -0.3381  0.8058 -0.2420
   37MOL0     C 4996   7.803   3.302   7.951 -0.2265  0.5773  0.0157
   37MOL0     C 4997   7.625   3.125   7.863  0.4217 -0.3013 -0.5363
   37MOL0     C 4998   7.659   3.144   7.722 -0.8248 -0.1889  0.3306
   37MOL0     O 4999   7.756   3.230   7.692  1.1097  0.4345  0.4884
   37MOL0     C 5000   7.777   3.251   7.552  0.1324 -0.1983 -0.2476
   37MOL0     C 5001   7.701   3.333   7.475  0.0734  0.4623  0.1792
   37MOL0     C 5002   7.722   3.348   7.342  1.1912 -0.7227  1.2186
   37MOL0     C 5003   7.819   3.275   7.273 -0.1607  0.1740  0.1083
   37MOL0     O 5004   7.827   3.273   7.138  0.2022 -0.9024 -0.1590
   37MOL0     C 5005   7.836   3.404   7.066 -0.0726 -0.2109 -0.2072
   37MOL0     C 5006   7.762   3.416   6.935  0.4729 -0.5738  0.0785
   37MOL0     C 5007   7.808   3.543   6.850 -0.3517  0.3765 -0.7687
   37MOL0     C 5008   7.798   3.507   6.704  0.0735 -0.1158  0.0607
   37MOL0     C 5009   7.810   3.645   6.616 -0.0356  0.5050  0.7556
   37MOL0     C 5010   7.946   3.728   6.638 -0.3469 -0.4829 -0.0972
   37MOL0     C 5011   7.949   3.861   6.573  0.6446 -0.7793  0.1371
   37MOL0     C 5012   7.891   3.865   6.425  0.4504  0.9839 -0.3447
   37MOL0    Cl 5013   7.941   4.027   6.387  0.3118 -0.1607  0.6333
   37MOL0     C 5014   7.902   3.188   7.345 -1.2571 -1.2715  0.8125
   37MOL0     C 5015   7.887   3.186   7.486 -0.7034 -0.1760 -0.2046
   37MOL0     O 5016   7.595   3.076   7.641  0.2179  0.2411 -0.7841
   37MOL0     C 5017   7.536   3.025   7.898  0.1170  0.5850 -0.2159
   37MOL0     C 5018   7.494   3.005   8.033  0.4107  0.1893 -0.0493
   37MOL0     N 5019   7.174   2.677   8.688 -0.6761 -0.1717  0.8701
   37MOL0     N 5020   7.077   2.615   8.751  0.5048 -0.0987  0.2751
   37MOL0     C 5021   6.117   3.102   8.378 -0.0644  0.2773  0.7506
   37MOL0     C 5022   6.026   3.196   8.340 -0.0643 -0.0581  0.2701
   37MOL0     C 5023   5.638   3.412   8.296 -0.3169  0.4955  0.6800
   37MOL0     C 5024   5.622   3.548   8.268  0.5519 -0.0003  0.1221
   37MOL0     C 5025   5.499   3.609   8.283 -0.8743  0.1528  0.1684
   37MOL0     C 5026   5.381   3.545   8.343 -0.0956 -0.4664  0.1239
   37MOL0     O 5027   5.258   3.602   8.362  0.6812 -0.0935 -0.3381
   37MOL0     C 5028   5.231   3.740   8.311  0.0923 -0.4147  0.6996
   37MOL0     C 5029   5.109   3.803   8.360  0.1711 -0.7629 -0.3538
   37MOL0     C 5030   5.084   3.935   8.275 -0.3516  0.3267 -0.2295
   37MOL0     C 5031   4.977   4.024   8.336  0.7441  0.2441 -1.0295
   37MOL0     C 5032   4.857   3.942   8.345 -0.1121  1.3373 -0.3935
   37MOL0     C 5033   4.749   3.885   8.340 -0.6736 -0.4537  0.1373
   37MOL0     C 5034   5.411   3.417   8.388  0.1207 -0.2844  0.7731
   37MOL0     C 5035   5.533   3.342   8.363  0.1847  0.2816 -0.5305
   37MOL0     C 5036   5.523   3.196   8.414 -0.2294 -0.1408 -0.1728
   37MOL0     H 5037   5.758   2.983   8.355 -0.6333  2.7535  1.7542
   37MOL0     H 5038   5.917   2.829   8.426  1.5583 -1.2632 -0.3897
   37MOL0     H 5039   6.146   2.677   8.420  0.3643 -0.5548 -0.1571
   37MOL0     H 5040   6.079   2.753   8.562 -2.2235  1.1150 -1.2989
   37MOL0     H 5041   6.288   2.609   8.605 -1.7840 -1.1553 -2.1215
   37MOL0     H 5042   6.375   2.706   8.480  0.2711  0.0516 -0.2587
   37MOL0     H 5043   6.317   2.920   8.650  1.0881  0.1350 -0.1274
   37MOL0     H 5044   6.266   2.788   8.764 -0.5778  1.8551  0.2155
   37MOL0     H 5045   6.539   2.796   8.643 -1.1980  5.3710 -0.2611
   37MOL0     H 5046   6.497   2.892   8.785  0.9604  0.7849  0.2339
   37MOL0     H 5047   6.496   2.583   8.770  1.1103  0.7048 -0.2210
   37MOL0     H 5048   6.411   2.680   8.891 -0.9101 -1.7069 -1.6183
   37MOL0     H 5049   6.629   2.792   8.972 -2.4048  0.4119 -0.0333
   37MOL0     H 5050   6.645   2.619   8.988 -1.0759 -0.6607 -1.2958
   37MOL0     H 5051   6.750   2.788   8.749 -0.4717  1.5063  0.8826
   37MOL0     H 5052   6.724   2.613   8.738 -1.2954  3.5057 -3.3076
   37MOL0     H 5053   6.896   2.751   8.960 -0.0277  0.7079 -0.0043
   37MOL0     H 5054   6.886   2.595   8.943 -2.0316  1.4639  2.7646
   37MOL0     H 5055   6.992   2.938   8.783  3.7443  3.0624  0.8020
   37MOL0     H 5056   7.371   2.877   8.704  0.0493 -1.0794 -1.1209
   37MOL0     H 5057   7.261   3.002   8.699 -0.4617 -0.8668  2.0388
   37MOL0     H 5058   7.312   2.798   8.464 -1.8527 -1.1309  0.4648
   37MOL0     H 5059   7.210   2.939   8.435  1.8132  4.5622 -0.0760
   37MOL0     H 5060   7.388   3.091   8.467 -1.6556  0.9818  0.2362
   37MOL0     H 5061   7.503   2.961   8.532 -1.6451 -0.7763  1.1729
   37MOL0     H 5062   7.505   2.859   8.331  0.2320 -0.9464  3.5155
   37MOL0     H 5063   7.358   2.955   8.276 -1.3112 -0.7326  3.7330
   37MOL0     H 5064   7.722   3.209   8.178  0.9687  0.0888 -0.1038
   37MOL0     H 5065   7.797   3.364   8.041 -0.6120  0.2991  0.1820
   37MOL0     H 5066   7.781   3.375   7.873  0.8501  1.1904  0.2624
   37MOL0     H 5067   7.902   3.256   7.954  0.0586  0.9948 -1.8591
   37MOL0     H 5068   7.634   3.397   7.531  1.5776  0.0898  2.5734
   37MOL0     H 5069   7.655   3.405   7.278  3.5496  1.4606  0.5375
   37MOL0     H 5070   7.779   3.478   7.123 -1.6905 -0.8484 -0.9686
   37MOL0     H 5071   7.943   3.418   7.045 -0.2634  1.3934 -0.2226
   37MOL0     H 5072   7.787   3.330   6.872  1.5644 -1.9107  2.2344
   37MOL0     H 5073   7.658   3.433   6.963  0.9253 -0.5779  1.8476
   37MOL0     H 5074   7.914   3.569   6.865  0.1885 -1.6880 -0.6921
   37MOL0     H 5075   7.745   3.628   6.878 -0.4885  0.1244 -0.3112
   37MOL0     H 5076   7.703   3.456   6.686  1.6800 -3.0570 -0.7052
   37MOL0     H 5077   7.883   3.445   6.673  0.3679  0.5056 -0.4090
   37MOL0     H 5078   7.784   3.631   6.511 -2.2119  0.1528  1.2969
   37MOL0     H 5079   7.727   3.708   6.647 -2.3909 -0.7698 -2.3920
   37MOL0     H 5080   8.028   3.666   6.602  0.4615  0.1613  0.6022
   37MOL0     H 5081   7.970   3.744   6.743 -2.4650 -1.4961  0.6042
   37MOL0     H 5082   8.056   3.877   6.555  0.3872  0.9264 -0.0355
   37MOL0     H 5083   7.906   3.942   6.633 -0.4844 -0.6617 -0.7996
   37MOL0     H 5084   7.784   3.848   6.433  0.7913 -0.4612  3.4674
   37MOL0     H 5085   7.930   3.788   6.358 -0.7125  0.7247 -0.7434
   37MOL0     H 5086   7.984   3.143   7.289 -0.7313  0.3714  0.2047
   37MOL0     H 5087   7.944   3.119   7.550 -4.9146 -2.6957  1.2962
   37MOL0     H 5088   7.506   2.947   7.828 -0.0560  0.2205  0.2535
   37MOL0     H 5089   7.429   2.920   8.051 -0.5808 -0.1065 -4.1070
   37MOL0     H 5090   6.217   3.143   8.384  0.6133 -0.6491 -2.3558
   37MOL0     H 5091   6.072   3.283   8.296  1.4592  0.0188  1.8928
   37MOL0     H 5092   5.697   3.616   8.229 -0.3745  1.6313  1.0839
   37MOL0     H 5093   5.478   3.711   8.253  0.2861 -0.1493 -1.8250
   37MOL0     H 5094   5.311   3.811   8.330  0.1367  0.1166 -1.2522
   37MOL0     H 5095   5.212   3.727   8.204 -2.6004  3.7294  0.4278
   37MOL0     H 5096   5.130   3.828   8.465 -1.8576  1.2387 -0.3535
   37MOL0     H 5097   5.024   3.735   8.350  0.5365 -1.0532 -1.6992
   37MOL0     H 5098   5.173   3.994   8.251 -0.1324 -0.3155 -0.9966
   37MOL0     H 5099   5.055   3.904   8.174  0.7497  2.1063 -1.1378
   37MOL0     H 5100   4.965   4.115   8.275 -2.6745  0.0435 -0.8442
   37MOL0     H 5101   5.001   4.069   8.433  1.1324 -1.6587 -0.1991
   37MOL0     H 5102   4.654   3.837   8.327 -0.4757 -0.1781 -3.1625
   37MOL0     H 5103   5.322   3.363   8.418  0.2970 -1.5955 -0.9179
   37MOL0     H 5104   5.422   3.169   8.445  0.4503 -0.4918  1.9237
   37MOL0     H 5105   5.555   3.128   8.335  0.1977  1.1068 -1.1169
   37MOL0     H 5106   5.597   3.188   8.495 -1.1663 -1.3516  0.6034
   38MOL0     O 5107   1.159  11.100   0.845  0.5751  0.1190 -0.3383
   38MOL0     C 5108   1.092  11.016   0.907 -0.6336 -0.1694 -0.0654
   38MOL0     O 5109   0.987  10.936   0.857  0.0482 -0.0400  0.7727
   38MOL0     C 5110   0.965  10.962   0.717  0.1547  0.7174  0.0384
   38MOL0     C 5111   1.058  10.916   0.621  0.5957  0.1666  0.2757
   38MOL0     C 5112   1.026  10.931   0.484 -0.7283  0.5909 -0.0702
   38MOL0     C 5113   0.901  11.000   0.443  0.5866  0.8087 -0.3290
   38MOL0     O 5114   0.869  11.036   0.307 -0.2513 -0.1460 -1.3642
   38MOL0     C 5115   0.911  10.959   0.205  0.0903  0.1768 -0.1720
   38MOL0     C 5116   0.858  10.817   0.220  0.3160 -0.2917  0.8846
   38MOL0     C 5117   0.713  10.797   0.256 -0.0497  0.7513 -0.2050
   38MOL0     C 5118   0.619  10.892   0.179  1.0239  0.8748 -0.3172
   38MOL0     C 5119   0.468  10.848   0.204 -0.0114 -0.6693 -0.3505
   38MOL0     C 5120   0.367  10.967   0.161  0.0804  0.3235  0.1412
   38MOL0     C 5121   0.394  11.026   0.021  0.7006  0.1851 -0.0070
   38MOL0     C 5122   0.284  11.125  -0.004  0.3552 -0.4693 -0.0365
   38MOL0     N 5123   0.297  11.156  -0.146  0.3367  0.4150 -0.5135
   38MOL0     C 5124   0.259  11.274  -0.201 -0.1014  0.2182 -0.4044
   38MOL0     C 5125   0.257  11.259  -0.338 -0.4836  0.7168  0.5097
   38MOL0     C 5126   0.223  11.356  -0.443 -0.7506  0.1556  0.3312
   38MOL0     C 5127   0.114  11.305  -0.542  0.2537 -0.0028 -0.4001
   38MOL0     C 5128   0.061  11.421  -0.622  0.0412 -0.7664  1.4356
   38MOL0     C 5129  -0.032  11.378  -0.738  0.3403  0.6686 -0.3844
   38MOL0     O 5130  -0.083  11.487  -0.807  0.0950  0.3416  0.4500
   38MOL0     C 5131  -0.150  11.469  -0.930  0.4216  0.5726 -0.8867
   38MOL0     C 5132  -0.214  11.585  -0.987  0.2281  0.4070 -0.3924
   38MOL0     C 5133  -0.287  11.580  -1.113  0.2540  0.2931  0.2651
   38MOL0     C 5134  -0.355  11.713  -1.158 -0.6806  0.0579 -0.5869
   38MOL0     C 5135  -0.299  11.451  -1.181  0.6578  0.2845  0.1357
   38MOL0     C 5136  -0.365  11.426  -1.310 -0.1866  0.1734 -1.5517
   38MOL0     O 5137  -0.340  11.521  -1.419 -0.3795 -0.2594 -0.1913
   38MOL0     C 5138  -0.435  11.536  -1.516  0.0725  0.4013  1.3818
   38MOL0     C 5139  -0.569  11.506  -1.510  0.6264  0.2881  0.3061
   38MOL0     C 5140  -0.647  11.505  -1.625  0.5423 -0.1190 -0.1599
   38MOL0     C 5141  -0.612  11.562  -1.743  0.1985 -0.7195  0.1707
   38MOL0     O 5142  -0.701  11.595  -1.838  0.0133  0.2818  0.1128
   38MOL0     C 5143  -0.705  11.724  -1.899 -0.0431 -0.4585  0.0157
   38MOL0     C 5144  -0.815  11.718  -2.015 -0.9838  0.0874 -0.6381
   38MOL0     C 5145  -0.951  11.666  -1.957 -0.1003  0.3107  0.9828
   38MOL0     C 5146  -1.061  11.692  -2.059  0.4079  0.6990 -0.2475
   38MOL0     C 5147  -1.175  11.584  -2.037 -0.6636 -0.1311 -0.1364
   38MOL0     C 5148  -1.248  11.615  -1.909  0.0335 -0.0913 -0.6436
   38MOL0     C 5149  -1.379  11.553  -1.917 -0.2642 -0.0621 -0.6499
   38MOL0     C 5150  -1.463  11.560  -1.785  0.0271  0.5486  0.0134
   38MOL0    Cl 5151  -1.511  11.721  -1.737 -0.0233 -0.0391 -0.0007
   38MOL0     C 5152  -0.477  11.605  -1.756  1.2127 -0.5104  0.2767
   38MOL0     C 5153  -0.387  11.584  -1.644 -0.3493  0.7869 -0.8488
   38MOL0     O 5154  -0.427  11.319  -1.321 -0.5596 -0.3539 -0.2908
   38MOL0     C 5155  -0.237  11.343  -1.113  1.0228  0.0842  0.1902
   38MOL0     C 5156  -0.161  11.347  -0.997 -0.5269 -0.2179 -0.6712
   38MOL0     N 5157   0.307  11.125  -0.362  0.0170 -0.9382 -0.6820
   38MOL0     N 5158   0.319  11.071  -0.245  0.8725  0.6229 -0.3024
   38MOL0     C 5159   0.814  11.040   0.546  0.4416  0.2596 -0.0948
   38MOL0     C 5160   0.845  11.023   0.685  0.1302 -0.0022 -0.3813
   38MOL0     C 5161   1.124  11.006   1.050  0.3748  1.0803  0.1919
   38MOL0     C 5162   1.010  10.993   1.134 -0.8678  0.1853  0.4326
   38MOL0     C 5163   1.036  10.978   1.272 -0.6823  0.1868 -0.6951
   38MOL0     C 5164   1.162  10.962   1.330 -0.3700 -0.5495 -0.8730
   38MOL0     O 5165   1.159  10.928   1.471 -0.3720  0.0686  0.4682
   38MOL0     C 5166   1.284  10.905   1.528 -0.4735  0.4904 -0.9326
   38MOL0     C 5167   1.345  10.765   1.483  0.2337  0.5183  0.0989
   38MOL0     C 5168   1.494  10.748   1.517 -0.4633 -0.2633  0.0826
   38MOL0     C 5169   1.529  10.773   1.669 -0.5876 -0.4077  0.3190
   38MOL0     C 5170   1.679  10.766   1.691 -0.6822 -0.0396  0.4618
   38MOL0     C 5171   1.804  10.792   1.700  0.3366 -0.5994  0.0979
   38MOL0     C 5172   1.276  10.990   1.253  0.3020  0.4149 -0.7577
   38MOL0     C 5173   1.260  11.003   1.110 -0.2758 -0.2647 -1.1977
   38MOL0     C 5174   1.390  11.022   1.029 -0.0777 -0.8739 -0.5595
   38MOL0     H 5175   1.150  10.867   0.653  0.9972 -0.6582 -1.9315
   38MOL0     H 5176   1.090  10.890   0.407 -1.9866  3.0194 -2.5641
   38MOL0     H 5177   1.020  10.967   0.209  0.2163 -1.6305  1.5469
   38MOL0     H 5178   0.867  11.012   0.119 -0.0024  2.3930  1.1529
   38MOL0     H 5179   0.878  10.766   0.126 -0.2117 -0.3385  0.7897
   38MOL0     H 5180   0.909  10.760   0.299 -0.2782 -0.4239  1.1815
   38MOL0     H 5181   0.686  10.694   0.231  2.6880  0.2270 -1.3266
   38MOL0     H 5182   0.688  10.809   0.362  1.8191  0.1802  0.3366
   38MOL0     H 5183   0.638  10.993   0.215 -0.7879  0.5659  1.7419
   38MOL0     H 5184   0.634  10.876   0.072 -1.4755  0.9368 -0.7515
   38MOL0     H 5185   0.454  10.837   0.312  2.6209  0.4347  0.1935
   38MOL0     H 5186   0.443  10.756   0.149 -0.0307  0.0727 -1.6227
   38MOL0     H 5187   0.265  10.931   0.177 -0.3835  2.3711  2.6297
   38MOL0     H 5188   0.385  11.064   0.209 -1.6966  0.9468 -0.3866
   38MOL0     H 5189   0.394  10.943  -0.051  1.9732  1.8054 -1.9887
   38MOL0     H 5190   0.490  11.078   0.012 -0.2436  2.5354  2.2677
   38MOL0     H 5191   0.183  11.086   0.014 -1.4184  2.6280 -2.3665
   38MOL0     H 5192   0.308  11.212   0.058 -0.8279 -2.0524  2.8488
   38MOL0     H 5193   0.235  11.366  -0.149 -4.8154  0.6606 -2.8062
   38MOL0     H 5194   0.312  11.367  -0.505  0.9303  0.7303  2.6721
   38MOL0     H 5195   0.198  11.454  -0.403  0.2976  1.2032 -1.4577
   38MOL0     H 5196   0.154  11.228  -0.609 -0.6793 -1.1077  0.2752
   38MOL0     H 5197   0.030  11.258  -0.489  0.5565 -0.2914 -0.1676
   38MOL0     H 5198   0.005  11.492  -0.561  0.4385  0.1437  0.7676
   38MOL0     H 5199   0.137  11.483  -0.671 -1.9770  2.4532  2.0802
   38MOL0     H 5200   0.026  11.303  -0.793 -0.5795 -0.6250  0.3405
   38MOL0     H 5201  -0.117  11.322  -0.696 -0.8516  2.2474 -0.6218
   38MOL0     H 5202  -0.214  11.681  -0.935 -1.1560 -0.2263  0.8464
   38MOL0     H 5203  -0.449  11.711  -1.213 -2.4453 -0.1953  2.2055
   38MOL0     H 5204  -0.277  11.769  -1.210 -0.7649 -0.6379 -1.4793
   38MOL0     H 5205  -0.376  11.773  -1.069  1.4045  0.8377 -0.5636
   38MOL0     H 5206  -0.612  11.472  -1.416  0.6431  0.6467  0.4470
   38MOL0     H 5207  -0.749  11.476  -1.603  0.1576  2.1190  1.2617
   38MOL0     H 5208  -0.734  11.793  -1.819  1.7416  1.2163 -0.6993
   38MOL0     H 5209  -0.607  11.750  -1.941  0.3194  1.3920  1.7798
   38MOL0     H 5210  -0.826  11.810  -2.074 -2.4226  1.8653  2.1497
   38MOL0     H 5211  -0.768  11.644  -2.079 -0.4329  1.8437 -2.3720
   38MOL0     H 5212  -0.983  11.717  -1.866 -1.6243 -0.1577  0.7408
   38MOL0     H 5213  -0.950  11.559  -1.936 -0.0491 -0.4261 -2.2165
   38MOL0     H 5214  -1.022  11.670  -2.158  0.3331 -1.1303  0.0950
   38MOL0     H 5215  -1.087  11.798  -2.058  2.0933  1.2029  2.5851
   38MOL0     H 5216  -1.247  11.580  -2.120  0.4348  0.1677 -1.1232
   38MOL0     H 5217  -1.131  11.484  -2.035  0.4733  0.3666 -0.0042
   38MOL0     H 5218  -1.256  11.724  -1.906  0.9247  0.1205 -3.3812
   38MOL0     H 5219  -1.201  11.580  -1.816 -2.2711  1.2741  1.1485
   38MOL0     H 5220  -1.375  11.445  -1.936 -2.1756 -0.1625 -0.7165
   38MOL0     H 5221  -1.442  11.591  -1.998  0.7423  1.8301 -0.5995
   38MOL0     H 5222  -1.406  11.517  -1.702  0.1086  0.2881 -0.1776
   38MOL0     H 5223  -1.539  11.482  -1.791  1.6839 -1.6866  4.1858
   38MOL0     H 5224  -0.437  11.646  -1.848  0.2338 -1.5354 -0.6306
   38MOL0     H 5225  -0.280  11.588  -1.664 -0.1948 -2.0820 -0.9499
   38MOL0     H 5226  -0.258  11.249  -1.163 -1.9757  0.7856 -0.0991
   38MOL0     H 5227  -0.117  11.252  -0.967  1.4601  0.3731 -1.5481
   38MOL0     H 5228   0.715  11.072   0.515  0.3122 -0.7735 -0.7766
   38MOL0     H 5229   0.784  11.047   0.771 -0.7097  0.9725 -1.2186
   38MOL0     H 5230   0.911  10.980   1.093 -1.9322  0.4521  2.7459
   38MOL0     H 5231   0.958  10.953   1.343  0.0045  2.2331  0.8726
   38MOL0     H 5232   1.353  10.988   1.511 -0.7335  1.2958  1.5313
   38MOL0     H 5233   1.263  10.893   1.635  0.9155 -1.5748 -0.8234
   38MOL0     H 5234   1.321  10.746   1.378  0.4383 -0.2932  0.1939
   38MOL0     H 5235   1.294  10.693   1.548  0.1350  1.5137  1.1624
   38MOL0     H 5236   1.516  10.646   1.487  1.1623 -0.3840  1.5140
   38MOL0     H 5237   1.553  10.815   1.453 -0.8011 -0.7261 -0.7240
   38MOL0     H 5238   1.471  10.708   1.735 -1.4036  0.7079  0.7318
   38MOL0     H 5239   1.502  10.876   1.691 -2.1909 -1.2018  2.4556
   38MOL0     H 5240   1.904  10.828   1.688 -0.7280  1.9409 -2.3091
   38MOL0     H 5241   1.375  10.991   1.297  0.2132  1.5104 -0.5516
   38MOL0     H 5242   1.368  11.116   0.979  1.8853  0.1441  0.3807
   38MOL0     H 5243   1.470  11.048   1.099 -0.6089  0.2050 -0.3444
   38MOL0     H 5244   1.408  10.938   0.961  1.6368 -0.5479 -0.5580
   39MOL0     O 5245   7.596   8.206   8.815  0.8209  0.0197 -0.4900
   39MOL0     C 5246   7.519   8.233   8.912 -0.3060  0.9465  0.2050
   39MOL0     O 5247   7.557   8.258   9.040 -0.4485 -0.5479  1.7113
   39MOL0     C 5248   7.657   8.346   9.062 -0.5378 -0.2415  0.5463
   39MOL0     C 5249   7.719   8.422   8.962 -0.2429  0.5777 -0.1515
   39MOL0     C 5250   7.833   8.510   8.990  0.6540 -0.2853  0.6468
   39MOL0     C 5251   7.885   8.520   9.116 -0.5701 -0.9167 -0.0887
   39MOL0     O 5252   7.997   8.603   9.148  0.1470  0.2122 -0.4649
   39MOL0     C 5253   8.077   8.653   9.042  0.1265  0.8332 -0.2882
   39MOL0     C 5254   8.178   8.762   9.075 -0.5599  0.1454 -0.2298
   39MOL0     C 5255   8.315   8.709   9.129  0.4985 -0.3303 -0.8019
   39MOL0     C 5256   8.400   8.615   9.036 -0.6181  0.5524  0.6316
   39MOL0     C 5257   8.500   8.688   8.944  0.1780  0.6649  0.5399
   39MOL0     C 5258   8.644   8.708   8.996  0.3194 -0.1040 -0.1824
   39MOL0     C 5259   8.654   8.831   9.090  0.1742  1.0040 -0.4180
   39MOL0     C 5260   8.811   8.858   9.125  0.2171 -0.7550  0.7966
   39MOL0     N 5261   8.838   8.981   9.211 -0.2730  0.8859 -0.0308
   39MOL0     C 5262   8.913   8.995   9.331  0.9113  0.2250 -0.9781
   39MOL0     C 5263   8.917   9.134   9.359  0.0346  0.3718 -1.0240
   39MOL0     C 5264   8.971   9.192   9.494  0.0423 -0.4336  0.8755
   39MOL0     C 5265   9.121   9.216   9.496 -0.2562  0.9229 -0.1788
   39MOL0     C 5266   9.177   9.293   9.374  0.3686  0.4319 -0.6686
   39MOL0     C 5267   9.328   9.321   9.385  0.4328 -0.4566  0.1359
   39MOL0     O 5268   9.372   9.422   9.285  0.4379  0.3630  0.0169
   39MOL0     C 5269   9.507   9.456   9.291  0.0887 -0.3703  0.2339
   39MOL0     C 5270   9.547   9.557   9.203  0.9586  0.1989  0.9894
   39MOL0     C 5271   9.683   9.600   9.197 -0.2355 -0.3999  0.1358
   39MOL0     C 5272   9.731   9.714   9.113  0.7056 -0.1267  0.5808
   39MOL0     C 5273   9.783   9.536   9.272 -0.5003  0.1887  0.0795
   39MOL0     C 5274   9.931   9.581   9.266 -0.5473  1.1929  0.2723
   39MOL0     O 5275   9.954   9.683   9.353 -0.3033 -0.4989 -0.2502
   39MOL0     C 5276  10.085   9.707   9.393  1.1427 -0.1783  0.5662
   39MOL0     C 5277  10.107   9.720   9.531 -0.8769 -0.4396 -0.2544
   39MOL0     C 5278  10.246   9.735   9.569 -0.1858 -0.6894  0.7502
   39MOL0     C 5279  10.353   9.766   9.472  1.1419 -0.3209  0.9595
   39MOL0     O 5280  10.475   9.771   9.531 -0.2256  0.5815 -0.4177
   39MOL0     C 5281  10.589   9.732   9.456  0.2506 -0.6985 -0.1733
   39MOL0     C 5282  10.721   9.775   9.529  0.6800  0.2528  0.0650
   39MOL0     C 5283  10.838   9.669   9.503  0.4218 -0.1166  0.0196
   39MOL0     C 5284  10.981   9.716   9.489  0.2434 -0.3639 -0.0919
   39MOL0     C 5285  11.064   9.661   9.367  0.5618  0.9339 -0.9104
   39MOL0     C 5286  11.211   9.695   9.388  0.2953 -0.1501  0.5289
   39MOL0     C 5287  11.283   9.613   9.499  0.7504  0.2634  0.9297
   39MOL0     C 5288  11.406   9.686   9.546  0.2370 -1.5494  0.0490
   39MOL0    Cl 5289  11.521   9.715   9.404  0.0570  0.1775 -0.3942
   39MOL0     C 5290  10.311   9.767   9.340  0.1151  0.0318 -0.2649
   39MOL0     C 5291  10.180   9.743   9.303  0.9846 -0.2593  0.5660
   39MOL0     O 5292  10.009   9.513   9.199 -0.4289  0.1890  0.2514
   39MOL0     C 5293   9.745   9.442   9.369 -0.0043 -0.7190  0.1428
   39MOL0     C 5294   9.607   9.407   9.379 -0.7176  0.2078 -0.1101
   39MOL0     N 5295   8.830   9.188   9.268 -0.3394 -0.9459  0.4494
   39MOL0     N 5296   8.783   9.098   9.183  0.6373 -0.3551 -0.3444
   39MOL0     C 5297   7.829   8.437   9.211  0.2888  0.1032  0.1288
   39MOL0     C 5298   7.716   8.354   9.187  0.1790  0.9002  0.4121
   39MOL0     C 5299   7.376   8.226   8.887  0.6982  0.3313 -0.0351
   39MOL0     C 5300   7.296   8.326   8.935 -0.3522 -0.2193 -0.4963
   39MOL0     C 5301   7.160   8.324   8.911  0.6181  0.0012 -0.5192
   39MOL0     C 5302   7.097   8.226   8.835  0.3609  0.9186 -0.7643
   39MOL0     O 5303   6.963   8.245   8.820 -0.6102 -0.1027  0.3689
   39MOL0     C 5304   6.886   8.166   8.724  0.9644 -1.0080 -0.7068
   39MOL0     C 5305   6.754   8.230   8.714  0.9576 -0.1435 -0.1303
   39MOL0     C 5306   6.658   8.173   8.609  1.1434 -0.8764 -0.0253
   39MOL0     C 5307   6.525   8.254   8.608 -0.4975 -0.1273 -0.2800
   39MOL0     C 5308   6.543   8.398   8.585  0.6094 -0.1586  0.7757
   39MOL0     C 5309   6.560   8.518   8.565  0.6390 -0.0570 -1.4491
   39MOL0     C 5310   7.171   8.118   8.793 -0.9642 -0.3019  0.9147
   39MOL0     C 5311   7.308   8.119   8.817  0.4033 -0.0203  1.3093
   39MOL0     C 5312   7.373   7.995   8.772  0.4066 -0.1682  0.5056
   39MOL0     H 5313   7.682   8.430   8.860  1.1006  3.0189 -0.5104
   39MOL0     H 5314   7.859   8.564   8.900  1.4993  0.4643  1.3313
   39MOL0     H 5315   8.012   8.700   8.968 -2.6924 -1.7591  0.3314
   39MOL0     H 5316   8.138   8.573   8.998  1.6296  1.0094  1.3575
   39MOL0     H 5317   8.207   8.820   8.987 -1.5012  2.5163  0.9284
   39MOL0     H 5318   8.128   8.830   9.145  2.1191  1.6181  0.4166
   39MOL0     H 5319   8.370   8.797   9.162  1.0678 -0.3461 -1.6723
   39MOL0     H 5320   8.274   8.657   9.216 -1.4827  2.3424 -0.0248
   39MOL0     H 5321   8.464   8.551   9.097 -0.2398  2.0111  1.8494
   39MOL0     H 5322   8.338   8.557   8.968  2.7518  0.8045 -3.0394
   39MOL0     H 5323   8.449   8.775   8.901 -1.2218  0.0342  0.8636
   39MOL0     H 5324   8.516   8.634   8.850 -0.2439 -0.8127  1.2889
   39MOL0     H 5325   8.679   8.615   9.042  1.6833 -0.1486 -1.2338
   39MOL0     H 5326   8.713   8.731   8.914  1.3198  1.3122  1.0067
   39MOL0     H 5327   8.601   8.811   9.184  0.4239 -0.8750 -0.6386
   39MOL0     H 5328   8.605   8.921   9.050 -1.5307  1.6089  2.6941
   39MOL0     H 5329   8.850   8.774   9.184  1.2949  0.6413  2.1608
   39MOL0     H 5330   8.873   8.888   9.041 -1.8519  1.6265  0.0019
   39MOL0     H 5331   8.958   8.919   9.394 -0.3535 -0.2097 -0.5729
   39MOL0     H 5332   8.936   9.128   9.575  2.8672 -3.3223  0.0443
   39MOL0     H 5333   8.923   9.287   9.519  4.4583  1.9010  1.3818
   39MOL0     H 5334   9.152   9.257   9.593 -1.4401  0.6436  0.3384
   39MOL0     H 5335   9.151   9.111   9.499 -1.8539  0.3532  4.5336
   39MOL0     H 5336   9.162   9.223   9.291  1.6312  0.8956 -1.3200
   39MOL0     H 5337   9.113   9.380   9.361 -0.3709  0.2506  1.4472
   39MOL0     H 5338   9.366   9.348   9.484  1.7230  1.7561 -0.8787
   39MOL0     H 5339   9.378   9.230   9.350 -1.2783 -0.3516 -2.9304
   39MOL0     H 5340   9.477   9.605   9.135  2.0034  0.7427  0.2741
   39MOL0     H 5341   9.814   9.684   9.047  0.4638  0.6886 -0.1169
   39MOL0     H 5342   9.741   9.805   9.173 -1.7546  1.6703 -1.4936
   39MOL0     H 5343   9.649   9.743   9.046  0.0782  0.5300  1.6110
   39MOL0     H 5344  10.030   9.698   9.604 -2.7196  1.9184 -1.3509
   39MOL0     H 5345  10.265   9.721   9.675 -1.4977  1.2500  1.3005
   39MOL0     H 5346  10.580   9.623   9.457 -0.4706 -0.6409  0.8262
   39MOL0     H 5347  10.598   9.775   9.356  4.2504 -3.6516 -1.3675
   39MOL0     H 5348  10.746   9.875   9.493 -1.3140 -0.2827 -3.2141
   39MOL0     H 5349  10.692   9.776   9.635 -0.4438 -1.3993 -0.1997
   39MOL0     H 5350  10.818   9.608   9.415  1.8411 -0.2796 -0.2074
   39MOL0     H 5351  10.844   9.608   9.594  2.4561 -1.1256 -0.7284
   39MOL0     H 5352  11.043   9.690   9.575 -0.1272 -0.7201  0.0700
   39MOL0     H 5353  10.963   9.823   9.483 -1.4327 -0.5477  0.8438
   39MOL0     H 5354  11.056   9.552   9.356  1.6540  0.9283 -1.8147
   39MOL0     H 5355  11.024   9.705   9.275  2.3571  1.9625 -1.2584
   39MOL0     H 5356  11.204   9.798   9.423 -0.9979  0.0090 -0.1458
   39MOL0     H 5357  11.262   9.691   9.292  4.7907 -0.9018  2.6495
   39MOL0     H 5358  11.309   9.514   9.462  0.6129  0.8977 -0.9865
   39MOL0     H 5359  11.230   9.594   9.593  2.5951  0.4217  2.0811
   39MOL0     H 5360  11.461   9.622   9.616  0.1991 -1.9518 -0.2816
   39MOL0     H 5361  11.389   9.785   9.588  0.9855 -1.9697  1.3940
   39MOL0     H 5362  10.378   9.788   9.258  1.8567 -4.3159 -0.2374
   39MOL0     H 5363  10.140   9.765   9.205  0.4382  0.0235  0.8434
   39MOL0     H 5364   9.819   9.402   9.437  0.2997  0.6488  0.6625
   39MOL0     H 5365   9.592   9.325   9.448  0.9760 -0.6602 -0.7070
   39MOL0     H 5366   7.874   8.427   9.310  1.4446  0.8646 -0.3120
   39MOL0     H 5367   7.678   8.284   9.260 -0.9168  1.4805  0.4126
   39MOL0     H 5368   7.335   8.404   9.000  0.8888 -0.3514 -1.0499
   39MOL0     H 5369   7.102   8.412   8.934 -2.3976 -2.2929  1.5542
   39MOL0     H 5370   6.934   8.164   8.626  2.5474  2.5685 -0.1867
   39MOL0     H 5371   6.879   8.063   8.759  0.4435 -0.3756  1.1747
   39MOL0     H 5372   6.768   8.338   8.703  1.9491 -0.0419  1.6428
   39MOL0     H 5373   6.702   8.215   8.810  1.9855  0.0163  0.4631
   39MOL0     H 5374   6.709   8.169   8.512  1.5688  0.0592  0.1527
   39MOL0     H 5375   6.635   8.068   8.630 -0.1196 -0.8154 -0.9885
   39MOL0     H 5376   6.489   8.260   8.711  2.7522 -0.0948  0.9419
   39MOL0     H 5377   6.446   8.211   8.545 -1.1877  0.3018  0.2878
   39MOL0     H 5378   6.584   8.623   8.564 -0.3488  0.2103  0.0724
   39MOL0     H 5379   7.131   8.034   8.737  2.4235 -0.8261 -0.9872
   39MOL0     H 5380   7.461   7.975   8.835  1.4908  0.8900 -0.6111
   39MOL0     H 5381   7.307   7.909   8.785 -0.5765  0.0748 -2.2755
   39MOL0     H 5382   7.401   8.012   8.668 -0.8575 -0.1803  0.1494
   40MOL0     O 5383   4.038   7.299  10.753 -0.1927 -0.8367 -0.5893
   40MOL0     C 5384   3.941   7.375  10.729 -0.4676  0.0042 -0.9968
   40MOL0     O 5385   3.843   7.363  10.629 -0.9049 -0.2811  0.6404
   40MOL0     C 5386   3.835   7.255  10.542 -0.0584  0.2177  0.6641
   40MOL0     C 5387   3.850   7.118  10.564  0.3914 -0.4831 -0.1954
   40MOL0     C 5388   3.816   7.013  10.472 -0.2048 -0.0036  0.6724
   40MOL0     C 5389   3.762   7.059  10.350  0.4513 -0.2593  0.0778
   40MOL0     O 5390   3.726   6.984  10.241  0.1839 -0.6871 -1.2104
   40MOL0     C 5391   3.790   6.859  10.233 -0.7257  0.1044  1.0177
   40MOL0     C 5392   3.747   6.793  10.096  0.2687  0.9904  0.3444
   40MOL0     C 5393   3.594   6.799  10.089  0.2653 -1.3435 -0.4950
   40MOL0     C 5394   3.549   6.684   9.997  0.3769 -1.2295  1.0609
   40MOL0     C 5395   3.398   6.691   9.997 -0.7738 -0.0484  0.1705
   40MOL0     C 5396   3.335   6.590   9.901  0.1008 -0.2197  0.2504
   40MOL0     C 5397   3.183   6.594   9.922  0.0553  0.2310  0.0405
   40MOL0     C 5398   3.101   6.501   9.832 -0.2993  0.1391 -0.6171
   40MOL0     N 5399   3.146   6.487   9.693 -0.3626 -0.0009  0.1513
   40MOL0     C 5400   3.147   6.586   9.596  0.6908  0.1589  0.2305
   40MOL0     C 5401   3.214   6.520   9.493 -0.3246  0.4836 -0.3108
   40MOL0     C 5402   3.213   6.585   9.358 -1.0728  0.2016  0.1806
   40MOL0     C 5403   3.089   6.534   9.283  0.3895 -1.2601 -0.4668
   40MOL0     C 5404   3.142   6.500   9.140 -0.4701 -1.0086  0.1830
   40MOL0     C 5405   3.052   6.565   9.035  0.1086  0.0019 -0.3573
   40MOL0     O 5406   3.065   6.491   8.911  0.4988  0.3032  0.3228
   40MOL0     C 5407   3.001   6.534   8.800 -0.3455 -0.4779 -0.8404
   40MOL0     C 5408   2.987   6.444   8.693 -0.0845  0.0735  0.0017
   40MOL0     C 5409   2.926   6.484   8.568  0.2591  1.0297 -0.4030
   40MOL0     C 5410   2.930   6.382   8.454  0.7515  0.1687 -0.6620
   40MOL0     C 5411   2.885   6.616   8.552 -0.1722 -0.4672 -0.0424
   40MOL0     C 5412   2.834   6.678   8.425  0.4807 -0.6874  0.2227
   40MOL0     O 5413   2.751   6.782   8.444  0.4576  0.1737 -0.0125
   40MOL0     C 5414   2.669   6.824   8.339 -0.1453  0.0867  0.0410
   40MOL0     C 5415   2.706   6.923   8.240 -0.2260  0.0577 -0.1374
   40MOL0     C 5416   2.620   6.966   8.140 -0.1211  0.8874  0.5148
   40MOL0     C 5417   2.488   6.921   8.143 -0.0569  0.3558  0.6163
   40MOL0     O 5418   2.392   6.958   8.053  0.5792 -0.7622 -0.8010
   40MOL0     C 5419   2.421   7.034   7.929  0.2806 -0.1040 -0.1630
   40MOL0     C 5420   2.509   6.954   7.838 -0.3749  0.0571  0.5350
   40MOL0     C 5421   2.465   6.958   7.694 -0.1077  0.3519 -0.1026
   40MOL0     C 5422   2.571   6.907   7.598 -0.5992 -0.3643 -0.0623
   40MOL0     C 5423   2.529   6.905   7.454  0.3363 -0.0667  1.3927
   40MOL0     C 5424   2.417   6.806   7.412 -0.9082 -0.1488 -0.7208
   40MOL0     C 5425   2.446   6.723   7.289 -0.6445  0.2118  0.1413
   40MOL0     C 5426   2.521   6.595   7.309 -0.5789 -0.0905 -0.9069
   40MOL0    Cl 5427   2.409   6.471   7.382  0.5634 -0.1160 -0.2179
   40MOL0     C 5428   2.452   6.822   8.238 -0.3037  0.0701  0.7243
   40MOL0     C 5429   2.536   6.781   8.335 -0.1163  0.3814 -0.3464
   40MOL0     O 5430   2.873   6.643   8.310 -0.3662  0.0722  0.2696
   40MOL0     C 5431   2.889   6.705   8.662  0.7598  0.1589  1.1541
   40MOL0     C 5432   2.940   6.666   8.782 -0.3707  0.1707 -0.3279
   40MOL0     N 5433   3.236   6.390   9.527 -0.7673 -0.6426  0.3872
   40MOL0     N 5434   3.208   6.374   9.646  0.4253 -0.3355  0.0652
   40MOL0     C 5435   3.753   7.196  10.322  0.2684  0.8035 -0.1868
   40MOL0     C 5436   3.785   7.295  10.410 -0.3353 -1.1861 -1.4023
   40MOL0     C 5437   3.905   7.488  10.817 -0.7260 -0.4720 -0.1962
   40MOL0     C 5438   3.778   7.543  10.806  0.4059 -0.3315 -0.4725
   40MOL0     C 5439   3.746   7.654  10.883  0.8015  0.6439 -0.9554
   40MOL0     C 5440   3.837   7.702  10.977  0.4139  0.1389  1.3778
   40MOL0     O 5441   3.815   7.813  11.053 -0.2553  0.1321 -0.6896
   40MOL0     C 5442   3.683   7.810  11.114  0.2001  0.0340 -0.6652
   40MOL0     C 5443   3.697   7.880  11.249 -0.7663  0.3002  1.3545
   40MOL0     C 5444   3.685   8.030  11.240 -0.6533 -0.6517 -0.2225
   40MOL0     C 5445   3.761   8.072  11.367  0.3124  0.3423  0.3262
   40MOL0     C 5446   3.749   8.216  11.386  0.2288  0.3661  0.3074
   40MOL0     C 5447   3.745   8.333  11.408 -0.1556 -0.8959 -0.4250
   40MOL0     C 5448   3.968   7.660  10.970  0.5693 -0.5378  0.8144
   40MOL0     C 5449   4.005   7.562  10.892 -0.1238  0.2265  0.0178
   40MOL0     C 5450   4.149   7.514  10.907  0.4185  0.0623  0.3962
   40MOL0     H 5451   3.909   7.091  10.651  1.9173 -1.2964 -1.4399
   40MOL0     H 5452   3.830   6.907  10.493 -1.6999 -0.2170  0.6984
   40MOL0     H 5453   3.754   6.789  10.309  0.5833 -0.3165  1.2837
   40MOL0     H 5454   3.898   6.871  10.242 -0.4182 -0.1294 -1.5625
   40MOL0     H 5455   3.801   6.836  10.012  3.6985  0.0003  1.8665
   40MOL0     H 5456   3.780   6.689  10.097  0.5046  0.9919 -2.0241
   40MOL0     H 5457   3.540   6.780  10.182 -0.0284 -0.0303 -0.3837
   40MOL0     H 5458   3.571   6.893  10.038  4.2391 -0.7453 -1.5128
   40MOL0     H 5459   3.589   6.697   9.897 -2.6818 -3.0662 -0.5740
   40MOL0     H 5460   3.586   6.592  10.044 -0.2511 -1.6662  0.7175
   40MOL0     H 5461   3.356   6.788   9.972 -3.3693 -0.1293  3.5944
   40MOL0     H 5462   3.367   6.657  10.096  2.6186 -0.6835  1.1555
   40MOL0     H 5463   3.369   6.621   9.801  0.1399 -1.0177  0.0088
   40MOL0     H 5464   3.362   6.487   9.925  2.9418  0.4860  0.4617
   40MOL0     H 5465   3.155   6.696   9.895 -1.6190 -0.7573 -2.3180
   40MOL0     H 5466   3.152   6.585  10.027 -2.5925  2.9818 -0.3627
   40MOL0     H 5467   3.088   6.400   9.872 -0.0375 -0.9992 -3.2344
   40MOL0     H 5468   3.004   6.550   9.818 -0.4634 -0.5544 -2.0451
   40MOL0     H 5469   3.112   6.689   9.594  0.9450  0.3178  2.1490
   40MOL0     H 5470   3.299   6.539   9.309  0.4497 -1.9088  4.3142
   40MOL0     H 5471   3.227   6.693   9.363 -2.1355  0.2923  2.0501
   40MOL0     H 5472   3.049   6.450   9.341  1.2821 -0.2189  1.7748
   40MOL0     H 5473   3.010   6.609   9.288 -1.5027 -3.0501 -1.9113
   40MOL0     H 5474   3.248   6.520   9.119 -0.6335  2.4458  2.0244
   40MOL0     H 5475   3.143   6.392   9.120  1.9771 -0.9138 -0.6714
   40MOL0     H 5476   2.947   6.559   9.063  0.1358 -1.2174 -0.4495
   40MOL0     H 5477   3.066   6.673   9.033 -1.6166  0.2535 -2.8946
   40MOL0     H 5478   3.020   6.342   8.710 -1.8852 -0.2368  2.0835
   40MOL0     H 5479   2.962   6.282   8.484  0.2346 -0.9499 -3.4563
   40MOL0     H 5480   2.997   6.418   8.376  0.9565 -1.3927 -1.2434
   40MOL0     H 5481   2.831   6.379   8.407  0.4928  3.0602 -0.5023
   40MOL0     H 5482   2.813   6.941   8.233 -0.1791 -0.2604 -0.2836
   40MOL0     H 5483   2.659   7.043   8.074 -0.3423  1.1266  0.6649
   40MOL0     H 5484   2.332   7.063   7.873  1.5696 -0.1434 -2.3474
   40MOL0     H 5485   2.476   7.128   7.942  2.0607 -0.6338 -2.8696
   40MOL0     H 5486   2.613   6.986   7.854 -0.6415  0.9347  0.5271
   40MOL0     H 5487   2.497   6.848   7.862 -1.8992  0.0751 -0.1055
   40MOL0     H 5488   2.454   7.066   7.680  1.4217  0.5245 -0.0890
   40MOL0     H 5489   2.366   6.916   7.672  1.5508 -2.7588 -2.3086
   40MOL0     H 5490   2.596   6.806   7.633 -0.2702 -0.9235 -1.8010
   40MOL0     H 5491   2.658   6.973   7.599 -1.2554  0.5558  1.7726
   40MOL0     H 5492   2.501   7.007   7.425  1.3309  0.0726  0.8788
   40MOL0     H 5493   2.616   6.878   7.392  0.9850  1.7309  1.4549
   40MOL0     H 5494   2.316   6.847   7.412 -1.2644 -0.8009  2.0997
   40MOL0     H 5495   2.412   6.734   7.495 -1.8910  1.8884  1.1149
   40MOL0     H 5496   2.509   6.783   7.223  1.8935 -2.1600  0.2256
   40MOL0     H 5497   2.351   6.710   7.236  0.9086 -0.3664 -2.6780
   40MOL0     H 5498   2.600   6.619   7.381 -0.9075 -1.9342  0.1543
   40MOL0     H 5499   2.568   6.559   7.217  0.1553  1.3058 -1.1015
   40MOL0     H 5500   2.347   6.794   8.239 -0.4619  0.6748  1.5375
   40MOL0     H 5501   2.501   6.719   8.416 -2.0878  2.7144  0.7062
   40MOL0     H 5502   2.856   6.808   8.650 -0.2274 -0.1827  0.8621
   40MOL0     H 5503   2.940   6.736   8.865 -0.3807  0.1432 -0.3050
   40MOL0     H 5504   3.701   7.236  10.236  2.7426  1.2624 -1.5749
   40MOL0     H 5505   3.766   7.398  10.379  1.0697 -1.5739 -3.7719
   40MOL0     H 5506   3.694   7.511  10.745  0.1603 -0.3493 -0.1283
   40MOL0     H 5507   3.642   7.682  10.871 -0.1218  0.6983  4.6184
   40MOL0     H 5508   3.605   7.855  11.052 -1.6239 -1.3199  0.5447
   40MOL0     H 5509   3.651   7.708  11.132  2.0816 -0.6078 -0.7137
   40MOL0     H 5510   3.797   7.850  11.282 -0.8716 -0.6869  0.8305
   40MOL0     H 5511   3.615   7.844  11.313  0.0390 -0.0588  2.2057
   40MOL0     H 5512   3.730   8.075  11.150 -0.6947  0.7083  0.4158
   40MOL0     H 5513   3.578   8.052  11.242 -1.4128 -3.4827 -2.3858
   40MOL0     H 5514   3.865   8.039  11.375 -0.5980 -2.6625  1.3016
   40MOL0     H 5515   3.708   8.024  11.450 -1.9250  0.8994 -0.7025
   40MOL0     H 5516   3.744   8.435  11.443  1.3138 -1.4727  1.5043
   40MOL0     H 5517   4.032   7.728  11.024  1.8933 -0.8052 -0.3650
   40MOL0     H 5518   4.192   7.500  10.808  1.8769  2.5086  0.5814
   40MOL0     H 5519   4.215   7.586  10.957  5.2823 -1.7441 -2.6981
   40MOL0     H 5520   4.153   7.423  10.967 -1.5791  0.9137  1.9427
   41MOL0     O 5521   7.824   8.439   1.859  0.3852  0.6921  0.4325
   41MOL0     C 5522   7.766   8.535   1.808  0.1699  0.0563  0.2140
   41MOL0     O 5523   7.656   8.604   1.853  0.8352 -0.5900 -1.2613
   41MOL0     C 5524   7.603   8.579   1.976  0.4102  0.0958 -0.0817
   41MOL0     C 5525   7.674   8.542   2.092 -1.0517 -0.6210 -0.5922
   41MOL0     C 5526   7.612   8.545   2.218  0.0249 -0.6700 -0.2062
   41MOL0     C 5527   7.475   8.567   2.226  0.5346  0.0662  0.0104
   41MOL0     O 5528   7.412   8.587   2.337  1.1452  0.1984 -0.0859
   41MOL0     C 5529   7.476   8.653   2.450 -1.1510  0.1321 -0.8738
   41MOL0     C 5530   7.370   8.697   2.550 -0.6719 -0.1390 -0.7970
   41MOL0     C 5531   7.423   8.793   2.666  0.7534 -0.1849  0.1696
   41MOL0     C 5532   7.440   8.932   2.594 -0.1925  0.3347 -1.4557
   41MOL0     C 5533   7.492   9.027   2.701 -0.2964 -0.2599 -0.2482
   41MOL0     C 5534   7.643   9.022   2.718  0.0289  0.3632 -0.4866
   41MOL0     C 5535   7.694   9.150   2.792  1.2359  0.1260 -0.1212
   41MOL0     C 5536   7.697   9.273   2.699 -0.2015 -0.2375 -0.0451
   41MOL0     N 5537   7.812   9.257   2.597  0.7665 -0.1483  0.0554
   41MOL0     C 5538   7.788   9.206   2.469  0.5480 -0.0893 -0.9315
   41MOL0     C 5539   7.909   9.189   2.419  0.3403  0.1980 -0.3038
   41MOL0     C 5540   7.953   9.149   2.274 -0.7750  0.9456 -0.2586
   41MOL0     C 5541   7.997   8.997   2.289  0.4974  0.7698  0.1180
   41MOL0     C 5542   7.890   8.907   2.335  0.1693  0.4098 -0.4597
   41MOL0     C 5543   7.926   8.759   2.322 -0.0984 -0.1617 -0.1891
   41MOL0     O 5544   7.841   8.679   2.408 -0.2379 -0.0867 -0.0850
   41MOL0     C 5545   7.919   8.591   2.476 -0.2441  0.1865  0.6529
   41MOL0     C 5546   7.960   8.470   2.422  0.1416 -0.1463  0.3387
   41MOL0     C 5547   8.034   8.373   2.500  0.5006 -0.5132 -0.4200
   41MOL0     C 5548   8.064   8.237   2.444  0.3725  0.2444 -0.0871
   41MOL0     C 5549   8.065   8.410   2.634 -1.3544 -0.4438  0.5705
   41MOL0     C 5550   8.153   8.328   2.724  0.5695 -0.7171 -0.1454
   41MOL0     O 5551   8.200   8.406   2.830 -0.6445 -0.2107 -0.3802
   41MOL0     C 5552   8.284   8.342   2.918  0.0110  0.6635 -0.2140
   41MOL0     C 5553   8.258   8.343   3.052  0.4178  0.4895 -0.0327
   41MOL0     C 5554   8.345   8.278   3.139  0.0298  1.3384  0.1541
   41MOL0     C 5555   8.468   8.222   3.096 -0.0591 -0.0505  0.2051
   41MOL0     O 5556   8.550   8.154   3.188 -0.1176  0.0639 -0.2785
   41MOL0     C 5557   8.611   8.031   3.149  0.0536  1.0424  0.2239
   41MOL0     C 5558   8.642   7.952   3.285  1.0621  0.0658  0.6375
   41MOL0     C 5559   8.784   7.902   3.305 -0.2086 -1.0514 -0.5236
   41MOL0     C 5560   8.887   8.011   3.331  0.5668 -0.9340  0.7052
   41MOL0     C 5561   8.866   8.124   3.431  0.1809 -0.0554 -0.4900
   41MOL0     C 5562   8.985   8.219   3.421 -0.5951  0.2035  0.9075
   41MOL0     C 5563   8.949   8.320   3.528  0.5773 -0.1922 -0.5423
   41MOL0     C 5564   9.052   8.435   3.541  0.3740 -0.1336  0.4156
   41MOL0    Cl 5565   9.076   8.492   3.701  0.0706  0.1513  0.2057
   41MOL0     C 5566   8.484   8.219   2.956 -0.3673 -0.2046  1.3027
   41MOL0     C 5567   8.396   8.277   2.873 -1.5551  0.2515  1.0511
   41MOL0     O 5568   8.185   8.210   2.701  0.6717 -0.5487  1.1054
   41MOL0     C 5569   8.015   8.527   2.689 -0.4905 -0.2419 -0.4879
   41MOL0     C 5570   7.943   8.612   2.610 -0.0316  0.3956  0.1450
   41MOL0     N 5571   8.000   9.239   2.511  0.1910 -0.3777 -0.2806
   41MOL0     N 5572   7.940   9.279   2.623 -0.2267 -1.6818 -0.0984
   41MOL0     C 5573   7.402   8.589   2.105  0.5071  0.3623 -0.0123
   41MOL0     C 5574   7.462   8.596   1.984  0.4081  0.2586  0.8534
   41MOL0     C 5575   7.809   8.568   1.671  0.4214 -0.6189 -0.4276
   41MOL0     C 5576   7.708   8.614   1.582  0.3295  0.0715  0.4277
   41MOL0     C 5577   7.738   8.675   1.461  0.4451  0.7386  1.2069
   41MOL0     C 5578   7.868   8.689   1.429  0.2532 -0.0454 -0.3255
   41MOL0     O 5579   7.914   8.754   1.310  1.0580  0.7670 -0.2811
   41MOL0     C 5580   7.816   8.810   1.223 -0.3266  0.6438  0.9115
   41MOL0     C 5581   7.903   8.896   1.131  0.3243  0.3190  0.0921
   41MOL0     C 5582   7.815   9.003   1.063  0.1130 -0.2215 -0.6643
   41MOL0     C 5583   7.884   9.112   0.983  0.5762 -0.1678  0.0618
   41MOL0     C 5584   7.984   9.181   1.060  0.5607 -0.9916  0.9392
   41MOL0     C 5585   8.076   9.244   1.111  0.0182 -0.2868 -0.4354
   41MOL0     C 5586   7.965   8.632   1.502  0.8082 -0.5501  1.1528
   41MOL0     C 5587   7.936   8.573   1.624 -0.5493 -0.6317 -0.5726
   41MOL0     C 5588   8.063   8.536   1.703  0.9724 -0.7174 -0.5315
   41MOL0     H 5589   7.779   8.513   2.087 -0.7429 -0.0180  1.4862
   41MOL0     H 5590   7.681   8.528   2.300 -0.6274 -0.1350  0.4676
   41MOL0     H 5591   7.553   8.728   2.432 -0.0710 -0.4163  1.1694
   41MOL0     H 5592   7.532   8.575   2.503  0.0618  1.1434 -0.6099
   41MOL0     H 5593   7.288   8.742   2.494 -0.3617  0.1809 -0.9970
   41MOL0     H 5594   7.326   8.603   2.585 -1.0652  0.6114  0.8290
   41MOL0     H 5595   7.347   8.796   2.744  0.4665 -3.6300  0.1810
   41MOL0     H 5596   7.505   8.744   2.719 -0.1902 -2.2096 -0.1341
   41MOL0     H 5597   7.509   8.927   2.509  1.4234 -1.4416 -0.1365
   41MOL0     H 5598   7.342   8.964   2.558 -0.9719 -0.7106 -0.3602
   41MOL0     H 5599   7.456   9.001   2.801 -1.7766 -0.9204 -0.9302
   41MOL0     H 5600   7.459   9.129   2.682  0.6640 -0.4815 -3.9233
   41MOL0     H 5601   7.667   8.939   2.786 -1.4738  2.2066  2.5511
   41MOL0     H 5602   7.694   9.011   2.622  1.0551 -0.5400  0.1390
   41MOL0     H 5603   7.796   9.131   2.828  1.6456 -0.5004 -1.4986
   41MOL0     H 5604   7.630   9.176   2.876 -0.4069 -0.4518 -1.1454
   41MOL0     H 5605   7.599   9.285   2.652  1.1816  0.1061 -3.0529
   41MOL0     H 5606   7.730   9.367   2.746 -1.5857  0.3668 -0.2482
   41MOL0     H 5607   7.689   9.190   2.428 -1.0526 -1.1995  2.9062
   41MOL0     H 5608   8.036   9.215   2.245  0.6207  0.3075  2.0198
   41MOL0     H 5609   7.871   9.168   2.205 -0.5609  0.0663 -0.7630
   41MOL0     H 5610   8.027   8.960   2.190  1.0262  0.1226  0.5106
   41MOL0     H 5611   8.088   8.997   2.350  1.2789  4.9263 -0.7190
   41MOL0     H 5612   7.880   8.923   2.443 -2.1426 -1.2175 -0.3759
   41MOL0     H 5613   7.792   8.920   2.290 -0.5085 -1.1927  0.4793
   41MOL0     H 5614   7.924   8.726   2.218  0.2840  0.6776 -0.4708
   41MOL0     H 5615   8.027   8.735   2.358 -0.1704 -2.8664 -1.5069
   41MOL0     H 5616   7.936   8.448   2.318 -2.2442 -2.9142  1.3735
   41MOL0     H 5617   8.018   8.159   2.505  1.8905  0.4507  1.3647
   41MOL0     H 5618   8.173   8.229   2.448  0.4022 -0.7772 -1.8917
   41MOL0     H 5619   8.016   8.244   2.345 -3.3864  2.8264  1.6525
   41MOL0     H 5620   8.172   8.403   3.082 -0.1412  0.9869 -2.3707
   41MOL0     H 5621   8.333   8.270   3.246  0.6163 -3.4110  0.0665
   41MOL0     H 5622   8.549   7.973   3.080 -1.0510  1.5640  0.7499
   41MOL0     H 5623   8.710   8.056   3.108  0.1074 -1.9898 -1.7478
   41MOL0     H 5624   8.614   8.020   3.365  0.6040  1.4555 -0.6497
   41MOL0     H 5625   8.565   7.875   3.296  0.9781  0.0045 -0.2443
   41MOL0     H 5626   8.832   7.852   3.220  4.2144  2.2853 -0.3717
   41MOL0     H 5627   8.786   7.841   3.396 -3.2306  2.4057  2.1602
   41MOL0     H 5628   8.909   8.057   3.235  2.5150 -2.0789  0.5385
   41MOL0     H 5629   8.984   7.963   3.348  0.9440 -0.1504  0.7699
   41MOL0     H 5630   8.772   8.178   3.417  0.7151  1.1044  0.1439
   41MOL0     H 5631   8.850   8.088   3.533 -4.6035  0.9357 -0.6649
   41MOL0     H 5632   8.995   8.266   3.324 -0.6455 -0.6214  0.4902
   41MOL0     H 5633   9.075   8.163   3.448  1.1034  1.9207 -0.9432
   41MOL0     H 5634   8.942   8.268   3.624  2.9119  0.2466 -0.0756
   41MOL0     H 5635   8.853   8.371   3.516  0.2760 -1.0711 -2.0737
   41MOL0     H 5636   9.021   8.531   3.500 -0.5833 -0.6697 -0.1443
   41MOL0     H 5637   9.145   8.394   3.501 -0.5749 -1.1527 -0.8445
   41MOL0     H 5638   8.566   8.159   2.917  0.6029  1.8072  0.0631
   41MOL0     H 5639   8.409   8.271   2.765  0.6555 -2.2537  1.3480
   41MOL0     H 5640   8.038   8.562   2.789  0.7092 -1.0524 -0.4621
   41MOL0     H 5641   7.914   8.712   2.641 -0.0283  0.7504 -0.9664
   41MOL0     H 5642   7.294   8.604   2.106  0.5986  1.0624  0.2448
   41MOL0     H 5643   7.403   8.610   1.894  1.6923 -2.3174 -0.4917
   41MOL0     H 5644   7.607   8.624   1.621 -1.5467 -2.5349 -3.1513
   41MOL0     H 5645   7.668   8.729   1.398 -0.2369  0.6740  1.8988
   41MOL0     H 5646   7.764   8.735   1.163  0.8599  1.5809 -1.4164
   41MOL0     H 5647   7.760   8.882   1.283  0.1673  2.0982 -0.3119
   41MOL0     H 5648   7.944   8.838   1.048  0.6137 -1.0775  1.1714
   41MOL0     H 5649   7.980   8.939   1.197 -0.7993  1.2089  0.8584
   41MOL0     H 5650   7.743   8.947   1.002 -1.2805  3.9982 -3.3454
   41MOL0     H 5651   7.750   9.055   1.134  1.4582  1.0384 -0.3240
   41MOL0     H 5652   7.812   9.175   0.930  2.6682  1.1979 -1.3267
   41MOL0     H 5653   7.942   9.066   0.902  0.5482  1.0507 -0.6775
   41MOL0     H 5654   8.149   9.313   1.148 -2.1230  1.0430  1.5795
   41MOL0     H 5655   8.069   8.637   1.472  0.3208  1.1443 -0.4053
   41MOL0     H 5656   8.043   8.519   1.809  1.0062  1.2504 -0.1616
   41MOL0     H 5657   8.110   8.444   1.670  0.5380 -1.9683  2.0597
   41MOL0     H 5658   8.134   8.619   1.711  0.4406 -0.4093  2.1864
   42MOL0     O 5659   4.360   2.864   6.295 -0.0773  0.0510 -0.1841
   42MOL0     C 5660   4.272   2.831   6.375 -0.2100 -1.2980 -0.3533
   42MOL0     O 5661   4.194   2.720   6.361 -0.0365  0.2591 -0.7519
   42MOL0     C 5662   4.197   2.648   6.245  1.0063  0.0137 -0.0128
   42MOL0     C 5663   4.282   2.539   6.228  0.3294 -0.0395  0.2555
   42MOL0     C 5664   4.299   2.484   6.103 -0.9208  0.7203  0.8064
   42MOL0     C 5665   4.219   2.525   5.990  1.4516 -0.1532 -0.2546
   42MOL0     O 5666   4.239   2.475   5.864  0.5584  0.7132  0.1753
   42MOL0     C 5667   4.273   2.574   5.767  0.1266 -0.4327 -0.2421
   42MOL0     C 5668   4.348   2.512   5.655  0.7262  0.2314  0.4577
   42MOL0     C 5669   4.343   2.594   5.525  0.0315 -0.1370  0.6574
   42MOL0     C 5670   4.443   2.708   5.519 -1.1401 -0.5261 -1.3207
   42MOL0     C 5671   4.444   2.757   5.375 -0.4191  0.3415 -0.7298
   42MOL0     C 5672   4.521   2.892   5.343  0.1559  0.2193  0.8195
   42MOL0     C 5673   4.435   3.005   5.405  0.3306  0.1089 -0.6383
   42MOL0     C 5674   4.485   3.136   5.350 -0.9543  0.4343  0.8485
   42MOL0     N 5675   4.400   3.247   5.398 -0.1751  0.5651 -0.3958
   42MOL0     C 5676   4.283   3.283   5.337 -1.3727 -1.0755  0.0537
   42MOL0     C 5677   4.210   3.362   5.425 -0.0218 -0.0301 -0.1971
   42MOL0     C 5678   4.086   3.445   5.394  0.1440  0.4153 -0.1352
   42MOL0     C 5679   4.093   3.536   5.271  0.0573  0.5983  0.4069
   42MOL0     C 5680   3.958   3.611   5.247 -0.6980  0.0716 -0.1830
   42MOL0     C 5681   3.961   3.678   5.106  0.7827  0.5860  0.0625
   42MOL0     O 5682   4.078   3.760   5.096  0.3907  0.4532 -0.2136
   42MOL0     C 5683   4.065   3.900   5.102 -0.0564  0.3095 -1.1306
   42MOL0     C 5684   3.954   3.972   5.164  0.2919  0.4564  0.2792
   42MOL0     C 5685   3.931   4.109   5.167 -1.0897  0.3363  0.8089
   42MOL0     C 5686   3.821   4.151   5.271 -0.6318 -0.0958  0.9628
   42MOL0     C 5687   4.024   4.189   5.109  0.8993  0.4154 -0.2303
   42MOL0     C 5688   4.022   4.336   5.114  0.5534  0.4629 -0.7613
   42MOL0     O 5689   4.140   4.394   5.104 -0.5134 -0.6360 -0.8539
   42MOL0     C 5690   4.138   4.525   5.149 -0.0549  0.7435  1.7996
   42MOL0     C 5691   4.112   4.625   5.057 -0.5567  0.8146  0.7202
   42MOL0     C 5692   4.131   4.754   5.095  0.0313 -0.1501 -0.4034
   42MOL0     C 5693   4.165   4.786   5.225  0.4219 -0.8116 -0.6776
   42MOL0     O 5694   4.165   4.920   5.257 -0.0341  0.2359  0.7289
   42MOL0     C 5695   4.230   4.972   5.371 -0.3395 -1.0386 -0.3785
   42MOL0     C 5696   4.150   4.975   5.499 -0.8243 -0.2403  0.5272
   42MOL0     C 5697   4.028   5.061   5.513  0.3015 -0.3645  0.6478
   42MOL0     C 5698   3.958   5.055   5.648  0.7844 -0.0265 -0.6956
   42MOL0     C 5699   3.804   5.067   5.651  0.6606 -0.1027  0.7009
   42MOL0     C 5700   3.757   5.199   5.585  0.1793 -0.4850 -0.6243
   42MOL0     C 5701   3.611   5.203   5.543 -0.1700  0.0295  0.2300
   42MOL0     C 5702   3.523   5.157   5.660  0.5852  1.3422  0.6346
   42MOL0    Cl 5703   3.555   5.265   5.791 -0.2592  0.1011 -0.5624
   42MOL0     C 5704   4.196   4.682   5.317 -0.2577  0.1823 -0.3495
   42MOL0     C 5705   4.177   4.550   5.276 -0.1190 -0.1308 -0.0030
   42MOL0     O 5706   3.913   4.394   5.136 -0.3774 -0.2746 -0.5027
   42MOL0     C 5707   4.142   4.133   5.054 -0.0751 -0.8075 -0.4881
   42MOL0     C 5708   4.160   3.993   5.046 -0.0370 -0.4842  0.0121
   42MOL0     N 5709   4.289   3.376   5.533 -0.3433 -0.2318  0.2954
   42MOL0     N 5710   4.395   3.300   5.523 -0.1403 -0.1622  0.0001
   42MOL0     C 5711   4.110   2.615   6.018  0.7237  0.1822  0.5744
   42MOL0     C 5712   4.100   2.687   6.139 -0.8367  0.0284 -0.1195
   42MOL0     C 5713   4.277   2.901   6.503  0.5001  0.2010  0.1348
   42MOL0     C 5714   4.243   2.839   6.627 -0.0532 -0.0992 -0.4898
   42MOL0     C 5715   4.264   2.903   6.754  0.6725 -0.0624 -0.3014
   42MOL0     C 5716   4.305   3.039   6.758 -1.0668 -0.2259  0.2045
   42MOL0     O 5717   4.308   3.100   6.879 -0.5750 -0.6654 -0.0534
   42MOL0     C 5718   4.333   3.237   6.895 -0.2024 -0.3938  0.0757
   42MOL0     C 5719   4.215   3.328   6.836  0.0104  0.2558  0.4325
   42MOL0     C 5720   4.247   3.478   6.851 -1.1139  0.3866 -0.4781
   42MOL0     C 5721   4.380   3.514   6.780  0.8958 -0.3543  0.3720
   42MOL0     C 5722   4.354   3.496   6.641  1.0732  0.4502 -0.5830
   42MOL0     C 5723   4.322   3.484   6.522  0.4655  0.6479  0.8548
   42MOL0     C 5724   4.336   3.100   6.644  0.3906 -0.0008  0.6028
   42MOL0     C 5725   4.322   3.039   6.517 -0.2573 -1.1780 -0.2277
   42MOL0     C 5726   4.356   3.123   6.399  0.1900  0.1360 -1.0215
   42MOL0     H 5727   4.354   2.509   6.304  0.1987 -4.6371 -1.1598
   42MOL0     H 5728   4.378   2.410   6.096 -1.4400  0.1882  0.5137
   42MOL0     H 5729   4.324   2.654   5.821 -2.5004  0.5107  1.0625
   42MOL0     H 5730   4.186   2.629   5.730  2.0008  1.3838 -2.2278
   42MOL0     H 5731   4.449   2.490   5.690  1.6884  1.5741 -1.3158
   42MOL0     H 5732   4.286   2.422   5.644 -0.0011  0.8031 -0.3031
   42MOL0     H 5733   4.360   2.520   5.446 -0.5064  1.2881 -0.8468
   42MOL0     H 5734   4.244   2.638   5.509  0.3607 -0.1747 -1.9702
   42MOL0     H 5735   4.407   2.791   5.580 -3.0242 -1.6061 -0.8965
   42MOL0     H 5736   4.541   2.676   5.556 -1.5817  1.5886  2.0361
   42MOL0     H 5737   4.337   2.776   5.363 -0.6546  0.2498  0.9782
   42MOL0     H 5738   4.491   2.681   5.312  0.5812  0.7336 -0.4711
   42MOL0     H 5739   4.622   2.883   5.385 -0.5297 -3.3795  2.0772
   42MOL0     H 5740   4.522   2.909   5.235 -4.4233 -3.8974 -0.2115
   42MOL0     H 5741   4.453   3.013   5.512 -1.9538  1.3711 -0.2786
   42MOL0     H 5742   4.328   2.997   5.383  0.5741 -0.8250 -1.5613
   42MOL0     H 5743   4.586   3.152   5.389  0.7479  1.8408 -3.5762
   42MOL0     H 5744   4.508   3.133   5.243  0.2061  2.1433  1.0188
   42MOL0     H 5745   4.233   3.241   5.250 -1.0428 -1.5290  0.0783
   42MOL0     H 5746   4.059   3.506   5.480 -0.2319  3.2307 -2.1108
   42MOL0     H 5747   4.009   3.372   5.366  0.3210  0.6963 -1.4404
   42MOL0     H 5748   4.162   3.618   5.294  2.0593 -1.4381  2.0617
   42MOL0     H 5749   4.131   3.489   5.180  0.0061  2.0862 -0.4158
   42MOL0     H 5750   3.881   3.535   5.262  1.4211 -2.3691 -0.8654
   42MOL0     H 5751   3.932   3.689   5.319  1.4286 -1.2607  2.2100
   42MOL0     H 5752   3.985   3.601   5.033  0.0522  0.5545 -0.1539
   42MOL0     H 5753   3.866   3.725   5.081 -1.1722 -1.9018  2.1945
   42MOL0     H 5754   3.879   3.914   5.216  1.4887 -1.7317 -0.2865
   42MOL0     H 5755   3.874   4.194   5.356  2.4691  0.2222 -0.9456
   42MOL0     H 5756   3.764   4.062   5.296 -0.3579  0.1057  2.3504
   42MOL0     H 5757   3.752   4.218   5.218  0.4483 -0.1064 -0.5203
   42MOL0     H 5758   4.101   4.585   4.957  1.1959  1.3837  0.2616
   42MOL0     H 5759   4.116   4.839   5.030 -0.8802  1.3841  1.6787
   42MOL0     H 5760   4.331   4.934   5.385  0.2220  0.6338  0.4349
   42MOL0     H 5761   4.264   5.071   5.339  5.1170 -3.0331 -1.8758
   42MOL0     H 5762   4.113   4.874   5.515  3.5336 -1.7103  3.0053
   42MOL0     H 5763   4.222   5.015   5.571 -0.0879 -1.5880  0.5698
   42MOL0     H 5764   3.951   5.045   5.436 -1.4288  4.4800  1.0717
   42MOL0     H 5765   4.063   5.162   5.490  0.6992 -0.4753  0.7698
   42MOL0     H 5766   3.999   5.133   5.713  0.4982  1.9965 -2.8169
   42MOL0     H 5767   3.989   4.957   5.686  3.0495  0.4450 -1.1933
   42MOL0     H 5768   3.780   4.986   5.582 -0.9588  2.6815 -2.2557
   42MOL0     H 5769   3.762   5.051   5.751 -0.3026  0.4689  0.4005
   42MOL0     H 5770   3.819   5.223   5.499 -1.1709  1.1599 -1.1950
   42MOL0     H 5771   3.781   5.279   5.657  2.2381 -1.2781 -0.3438
   42MOL0     H 5772   3.602   5.145   5.451 -2.2502  0.3987  0.1422
   42MOL0     H 5773   3.594   5.306   5.509  1.6888 -0.1237 -1.3478
   42MOL0     H 5774   3.537   5.053   5.690  0.1573  1.3438  0.8465
   42MOL0     H 5775   3.418   5.175   5.635  0.6340 -0.7674 -1.5338
   42MOL0     H 5776   4.225   4.708   5.419 -2.0256  0.7199  0.0561
   42MOL0     H 5777   4.189   4.463   5.339 -2.0272  1.3997  2.6851
   42MOL0     H 5778   4.225   4.195   5.022  0.5971 -0.2761  2.0599
   42MOL0     H 5779   4.243   3.952   4.990 -1.9052 -3.8600 -0.6128
   42MOL0     H 5780   4.042   2.638   5.937 -0.3701  2.8612  2.1221
   42MOL0     H 5781   4.036   2.773   6.158  3.9307  3.2153  4.5658
   42MOL0     H 5782   4.213   2.734   6.626  0.4326 -0.4301  3.5439
   42MOL0     H 5783   4.254   2.857   6.851  0.3576  0.0588 -0.2768
   42MOL0     H 5784   4.349   3.267   7.000  1.7983 -2.2687  0.3783
   42MOL0     H 5785   4.416   3.269   6.831  0.5446  2.0064  2.0641
   42MOL0     H 5786   4.126   3.308   6.897  1.7018  3.0835  4.2895
   42MOL0     H 5787   4.192   3.305   6.732  0.7144 -1.7723  0.6692
   42MOL0     H 5788   4.167   3.542   6.814 -1.2453  0.8282  0.5335
   42MOL0     H 5789   4.256   3.502   6.957 -0.8023 -0.1287 -0.3864
   42MOL0     H 5790   4.462   3.452   6.817  0.6661  1.6006  4.6743
   42MOL0     H 5791   4.412   3.618   6.784 -0.2460  0.2661 -3.0612
   42MOL0     H 5792   4.287   3.476   6.421  0.1751 -0.5462  1.0269
   42MOL0     H 5793   4.357   3.206   6.633 -2.7311  0.4810 -2.1906
   42MOL0     H 5794   4.458   3.106   6.360  0.4865 -1.5889  0.3745
   42MOL0     H 5795   4.293   3.098   6.313 -0.4815 -3.1075  0.2569
   42MOL0     H 5796   4.341   3.228   6.424 -0.2047 -0.0650 -0.4088
   43MOL0     O 5797   4.713  10.173   8.503  0.2925  0.0476 -0.0617
   43MOL0     C 5798   4.803  10.252   8.482  0.6985 -0.1493 -0.7192
   43MOL0     O 5799   4.924  10.228   8.429 -0.3609 -0.3666 -0.4697
   43MOL0     C 5800   4.954  10.113   8.370  0.9946 -0.6370  0.2217
   43MOL0     C 5801   4.942  10.113   8.230  0.2083  0.1593 -0.2002
   43MOL0     C 5802   4.962   9.993   8.155 -0.3197 -0.6281  0.9382
   43MOL0     C 5803   5.031   9.885   8.220  0.5990 -0.0805 -0.4590
   43MOL0     O 5804   5.090   9.774   8.168  1.0785 -0.3873  0.2266
   43MOL0     C 5805   5.204   9.795   8.080  0.6805  0.3755 -0.8189
   43MOL0     C 5806   5.339   9.771   8.142 -0.2808  0.8630 -0.1723
   43MOL0     C 5807   5.419   9.668   8.052  0.5191 -1.3534  0.6113
   43MOL0     C 5808   5.559   9.627   8.101 -0.2668  0.9021 -0.0367
   43MOL0     C 5809   5.643   9.542   8.005  0.0654 -0.3313 -0.4760
   43MOL0     C 5810   5.597   9.393   7.978  0.0294  0.1160  0.0646
   43MOL0     C 5811   5.683   9.302   7.890 -0.2575 -0.1462  0.5534
   43MOL0     C 5812   5.806   9.240   7.957 -0.8101 -1.0843  0.1248
   43MOL0     N 5813   5.918   9.328   8.005 -0.1527  0.2836  0.3025
   43MOL0     C 5814   5.945   9.380   8.128  0.2809  0.1317 -0.2173
   43MOL0     C 5815   6.070   9.437   8.125  0.4732 -0.1881  0.2495
   43MOL0     C 5816   6.127   9.514   8.243  0.2513  0.1888 -0.5746
   43MOL0     C 5817   6.094   9.664   8.221 -0.3282 -0.4984  0.1671
   43MOL0     C 5818   5.943   9.700   8.229 -0.1207 -0.0458 -1.4465
   43MOL0     C 5819   5.909   9.845   8.221  0.6120 -1.1597 -0.1180
   43MOL0     O 5820   5.952   9.907   8.103  0.6376  0.2405  0.2407
   43MOL0     C 5821   6.075   9.960   8.092  0.7424 -0.2982  0.1325
   43MOL0     C 5822   6.111  10.010   7.967 -0.7231 -0.0801  1.5109
   43MOL0     C 5823   6.239  10.056   7.940 -0.1018 -0.1895 -0.0381
   43MOL0     C 5824   6.276  10.099   7.807  0.1978  0.0700  0.5718
   43MOL0     C 5825   6.332  10.083   8.054  0.3866  0.9239 -0.7032
   43MOL0     C 5826   6.473  10.141   8.046  0.8048 -0.6327 -0.7055
   43MOL0     O 5827   6.581  10.067   8.078  0.2151 -0.5318  0.3609
   43MOL0     C 5828   6.570   9.925   8.079 -0.8475 -0.0277 -0.5185
   43MOL0     C 5829   6.570   9.846   8.199 -0.2870 -0.5469  0.2640
   43MOL0     C 5830   6.574   9.712   8.183 -0.2715  0.4272  0.0112
   43MOL0     C 5831   6.555   9.645   8.057 -0.4389 -0.0880  0.0508
   43MOL0     O 5832   6.524   9.512   8.051  0.0191  0.2802  0.5702
   43MOL0     C 5833   6.627   9.415   8.085  0.5560 -0.0949  0.2058
   43MOL0     C 5834   6.647   9.298   7.985  0.2866 -0.0233  0.4439
   43MOL0     C 5835   6.781   9.231   8.028 -0.7844  0.3467  0.0137
   43MOL0     C 5836   6.788   9.082   7.968  0.0217 -0.0058 -1.0391
   43MOL0     C 5837   6.785   9.088   7.814 -0.3726 -0.3732 -0.2070
   43MOL0     C 5838   6.849   8.972   7.738  0.7644 -0.4297 -0.3250
   43MOL0     C 5839   6.996   8.972   7.744  0.7481  0.6125  1.1838
   43MOL0     C 5840   7.059   9.108   7.692  0.2284 -0.5950  0.6059
   43MOL0    Cl 5841   7.237   9.085   7.738 -0.0493  0.3539 -0.1749
   43MOL0     C 5842   6.548   9.720   7.943  0.0082  0.3824 -0.4232
   43MOL0     C 5843   6.548   9.863   7.957  0.1147  0.9199  1.0069
   43MOL0     O 5844   6.473  10.262   8.013  0.4553 -0.1993 -0.3120
   43MOL0     C 5845   6.291  10.033   8.176  0.1945 -0.5939  0.2568
   43MOL0     C 5846   6.165   9.973   8.202  0.2493  0.7559  0.8716
   43MOL0     N 5847   6.123   9.403   8.001  0.5088 -0.1514  0.1101
   43MOL0     N 5848   6.038   9.339   7.938 -0.0855 -0.2617  0.8081
   43MOL0     C 5849   5.042   9.888   8.367  0.1676  0.1989  0.6026
   43MOL0     C 5850   4.998  10.000   8.433  0.0445  0.2613  0.5774
   43MOL0     C 5851   4.785  10.389   8.532  0.1328 -0.2161  0.2117
   43MOL0     C 5852   4.874  10.483   8.488  0.3532  0.0017  0.6353
   43MOL0     C 5853   4.861  10.614   8.524  0.1027 -0.6041  0.4327
   43MOL0     C 5854   4.757  10.666   8.609  0.1632  0.0441  0.6285
   43MOL0     O 5855   4.730  10.804   8.599  0.0014 -0.1413  0.2922
   43MOL0     C 5856   4.610  10.837   8.668  0.1513 -0.2991  0.1238
   43MOL0     C 5857   4.571  10.981   8.620  0.1538 -0.0952  0.4882
   43MOL0     C 5858   4.444  11.034   8.669 -0.4499 -0.8997 -1.3088
   43MOL0     C 5859   4.402  11.176   8.629  0.3190  0.0001  0.7135
   43MOL0     C 5860   4.383  11.191   8.485 -0.4390 -0.1935  0.2643
   43MOL0     C 5861   4.346  11.189   8.374 -0.0538 -0.0618  0.3355
   43MOL0     C 5862   4.678  10.565   8.663  0.3288  0.0249  0.6890
   43MOL0     C 5863   4.691  10.428   8.628 -0.6395 -0.4158 -0.0858
   43MOL0     C 5864   4.608  10.333   8.701  0.7226  0.1893 -0.3323
   43MOL0     H 5865   4.894  10.203   8.192 -0.0045  0.4871  0.8150
   43MOL0     H 5866   4.943   9.976   8.049  1.0936 -2.0468  0.8711
   43MOL0     H 5867   5.189   9.887   8.021  0.4729  2.0149  1.6683
   43MOL0     H 5868   5.179   9.712   8.013 -2.4302  2.3116 -2.3022
   43MOL0     H 5869   5.406   9.857   8.144  0.4553  0.2902  0.6975
   43MOL0     H 5870   5.330   9.734   8.244 -2.2094 -0.3707 -0.7264
   43MOL0     H 5871   5.354   9.583   8.032  0.2589 -0.8618 -0.7266
   43MOL0     H 5872   5.431   9.722   7.958  1.6727 -2.9979 -0.2526
   43MOL0     H 5873   5.613   9.722   8.106 -0.3371  1.0395 -1.5051
   43MOL0     H 5874   5.571   9.583   8.201 -1.4617  3.3589  1.3076
   43MOL0     H 5875   5.749   9.553   8.030 -0.1581  1.3011 -0.1365
   43MOL0     H 5876   5.633   9.596   7.911 -1.5530  1.0878  0.4452
   43MOL0     H 5877   5.600   9.331   8.069  0.9804 -2.4733 -1.6102
   43MOL0     H 5878   5.498   9.411   7.935  1.4822  3.3739 -2.2653
   43MOL0     H 5879   5.722   9.353   7.801 -1.0178  1.2399  1.0033
   43MOL0     H 5880   5.622   9.220   7.852  0.5896 -0.9306  0.8428
   43MOL0     H 5881   5.774   9.174   8.039 -0.0873  1.0668  2.2451
   43MOL0     H 5882   5.858   9.166   7.896  0.6253 -1.2947  1.5455
   43MOL0     H 5883   5.880   9.382   8.214  0.4216  0.4222 -0.1137
   43MOL0     H 5884   6.236   9.516   8.252  0.0999 -0.4857  5.0290
   43MOL0     H 5885   6.110   9.468   8.340  1.0165 -1.0715 -1.0141
   43MOL0     H 5886   6.150   9.717   8.299 -0.5669  0.9191 -0.5887
   43MOL0     H 5887   6.129   9.698   8.123 -0.3607 -5.4844 -1.8962
   43MOL0     H 5888   5.890   9.660   8.142 -1.6389  0.7326 -0.9310
   43MOL0     H 5889   5.892   9.652   8.314  3.8282 -0.9106  0.6814
   43MOL0     H 5890   5.800   9.846   8.205  0.7279 -1.6428 -1.0210
   43MOL0     H 5891   5.934   9.898   8.313 -5.5076 -2.3729  2.8138
   43MOL0     H 5892   6.046   9.997   7.881 -0.5275  0.2200  1.3136
   43MOL0     H 5893   6.302  10.205   7.802  1.6148 -0.2367  1.0244
   43MOL0     H 5894   6.192  10.067   7.744  3.1173 -1.8008 -2.6916
   43MOL0     H 5895   6.367  10.057   7.765 -1.8600 -1.4885 -2.6917
   43MOL0     H 5896   6.575   9.901   8.293 -1.6850 -1.7065  1.0508
   43MOL0     H 5897   6.571   9.649   8.271 -2.2297 -1.4833 -1.3221
   43MOL0     H 5898   6.721   9.467   8.109  0.3564  0.5021 -0.2666
   43MOL0     H 5899   6.586   9.368   8.174 -0.1242 -1.2776 -0.7076
   43MOL0     H 5900   6.574   9.218   8.000  0.6690 -0.1681  1.6411
   43MOL0     H 5901   6.641   9.329   7.881 -0.1516  1.0671  0.7794
   43MOL0     H 5902   6.804   9.223   8.135  0.1085 -4.0426 -0.3304
   43MOL0     H 5903   6.859   9.296   7.989  0.2886 -0.3629  0.9378
   43MOL0     H 5904   6.705   9.022   8.006  0.4968  1.1131  2.0733
   43MOL0     H 5905   6.869   9.018   8.001 -0.4933  0.1014  0.4926
   43MOL0     H 5906   6.681   9.086   7.779 -0.4347  2.9957 -0.4715
   43MOL0     H 5907   6.823   9.184   7.780  2.7090 -2.3753 -3.0783
   43MOL0     H 5908   6.802   8.965   7.639 -0.7194  1.7749  0.1527
   43MOL0     H 5909   6.817   8.883   7.793  0.3637 -0.1463 -0.0969
   43MOL0     H 5910   7.025   8.880   7.691 -1.8971  1.3661 -1.8984
   43MOL0     H 5911   7.016   8.955   7.850  2.4993  0.5287  0.8756
   43MOL0     H 5912   7.016   9.196   7.742  2.5086  0.8628  0.1300
   43MOL0     H 5913   7.050   9.114   7.583  0.7597 -0.7892  0.5481
   43MOL0     H 5914   6.536   9.669   7.848 -0.6476 -4.1194  1.7807
   43MOL0     H 5915   6.531   9.919   7.866 -2.6560 -0.3162  0.6495
   43MOL0     H 5916   6.355  10.042   8.264 -0.8675  0.0779  0.9839
   43MOL0     H 5917   6.150   9.941   8.305  2.4786  0.9911  1.3116
   43MOL0     H 5918   5.076   9.799   8.420  0.9827 -0.7703 -1.4453
   43MOL0     H 5919   4.998   9.987   8.540 -0.3589  1.4657  0.7414
   43MOL0     H 5920   4.962  10.453   8.431 -0.4765 -1.0996 -0.0964
   43MOL0     H 5921   4.913  10.692   8.471 -3.3929  0.8469 -1.1815
   43MOL0     H 5922   4.519  10.777   8.653 -2.8578  3.5532  1.2341
   43MOL0     H 5923   4.620  10.852   8.776 -3.2146 -0.1339  0.5221
   43MOL0     H 5924   4.568  10.964   8.512  4.3129 -2.3705  0.5315
   43MOL0     H 5925   4.649  11.049   8.656  0.0299 -1.2208  3.0943
   43MOL0     H 5926   4.366  10.959   8.649  0.7062 -2.0181 -1.7324
   43MOL0     H 5927   4.462  11.030   8.776 -5.3026  0.0930 -0.1990
   43MOL0     H 5928   4.472  11.255   8.658 -1.8285  2.4902 -0.4410
   43MOL0     H 5929   4.305  11.203   8.671 -0.3078  0.8841 -1.1876
   43MOL0     H 5930   4.319  11.185   8.270  0.1758  0.3391  0.2581
   43MOL0     H 5931   4.593  10.584   8.728  2.6623  0.2639  3.9830
   43MOL0     H 5932   4.674  10.247   8.717  2.0103  0.3896 -3.7831
   43MOL0     H 5933   4.559  10.367   8.792 -1.2606  1.8890 -1.9490
   43MOL0     H 5934   4.525  10.303   8.637 -1.4774  1.0790  1.9508
   44MOL0     O 5935   1.531   3.245   4.971  0.7125  1.0288 -0.0292
   44MOL0     C 5936   1.641   3.293   4.995 -0.1199 -0.6852 -0.1586
   44MOL0     O 5937   1.731   3.245   5.087 -0.5123  0.2637 -0.2386
   44MOL0     C 5938   1.695   3.146   5.179 -0.0673 -0.1236  0.5127
   44MOL0     C 5939   1.731   3.009   5.152  1.1312  0.3282  0.1254
   44MOL0     C 5940   1.664   2.904   5.240 -0.1381 -0.7152  0.3721
   44MOL0     C 5941   1.586   2.946   5.345  0.9852  0.3077 -0.0265
   44MOL0     O 5942   1.521   2.842   5.414 -0.0126 -0.4533 -0.1988
   44MOL0     C 5943   1.381   2.829   5.391  0.2122  0.3625 -0.4963
   44MOL0     C 5944   1.352   2.727   5.285 -0.7467 -0.5342 -0.1201
   44MOL0     C 5945   1.410   2.588   5.324 -0.0651  0.9570  0.2126
   44MOL0     C 5946   1.368   2.472   5.246 -0.2794  0.5603  0.4794
   44MOL0     C 5947   1.456   2.344   5.263 -0.6773  0.4480  0.6172
   44MOL0     C 5948   1.384   2.218   5.196  0.0243 -0.5291 -0.1042
   44MOL0     C 5949   1.279   2.159   5.300 -0.1588 -0.2853 -0.3365
   44MOL0     C 5950   1.225   2.021   5.256 -0.1897  0.4687  0.6372
   44MOL0     N 5951   1.160   2.010   5.119  0.6586 -0.7825 -0.2925
   44MOL0     C 5952   1.026   1.998   5.090 -1.2352 -0.3345 -0.0665
   44MOL0     C 5953   1.006   2.017   4.961 -1.0603 -0.2640 -1.0326
   44MOL0     C 5954   0.878   2.011   4.896  1.0425 -1.1914  0.3304
   44MOL0     C 5955   0.857   1.882   4.818 -1.0578 -0.0623  0.2395
   44MOL0     C 5956   0.716   1.827   4.844  0.1493 -0.1395  0.0694
   44MOL0     C 5957   0.701   1.756   4.979 -0.9137  0.2071 -0.1917
   44MOL0     O 5958   0.779   1.637   4.972 -0.3847 -0.1628 -0.2741
   44MOL0     C 5959   0.791   1.551   5.072 -0.6456  0.2963 -0.1261
   44MOL0     C 5960   0.740   1.565   5.204  0.2074  0.8436 -1.0819
   44MOL0     C 5961   0.747   1.454   5.293  0.1114  0.1101 -0.0221
   44MOL0     C 5962   0.656   1.484   5.414 -0.3453  0.4098  0.5541
   44MOL0     C 5963   0.801   1.334   5.260 -0.5656  0.9546  0.0930
   44MOL0     C 5964   0.796   1.208   5.336 -0.4104  0.2724  0.1215
   44MOL0     O 5965   0.862   1.097   5.284  0.3248 -0.1216  0.0874
   44MOL0     C 5966   0.831   0.976   5.331  0.0758  0.1632 -0.1035
   44MOL0     C 5967   0.917   0.908   5.416 -0.0374 -0.4256  0.7411
   44MOL0     C 5968   0.900   0.768   5.451 -0.9221  0.2579 -0.4357
   44MOL0     C 5969   0.799   0.694   5.406  0.7382  0.6696  0.3720
   44MOL0     O 5970   0.791   0.568   5.451  0.1194 -1.2297 -0.0124
   44MOL0     C 5971   0.750   0.469   5.356 -0.0588 -0.2815 -0.5193
   44MOL0     C 5972   0.620   0.420   5.406 -0.6597  0.2435 -0.3751
   44MOL0     C 5973   0.548   0.344   5.301 -0.0201  0.8023 -0.0378
   44MOL0     C 5974   0.404   0.332   5.345 -0.8742  0.3196  0.3555
   44MOL0     C 5975   0.324   0.224   5.267 -0.3244  0.8276 -0.7033
   44MOL0     C 5976   0.352   0.078   5.307  0.5015 -0.1914  0.0175
   44MOL0     C 5977   0.458  -0.010   5.226  0.0917 -0.2787  0.9029
   44MOL0     C 5978   0.475  -0.148   5.284 -0.3991  0.8661  0.2884
   44MOL0    Cl 5979   0.597  -0.112   5.400  0.6862 -0.2007 -0.0283
   44MOL0     C 5980   0.711   0.764   5.315  0.8070 -0.5553 -0.1854
   44MOL0     C 5981   0.724   0.903   5.278  0.1460  0.6986  0.5621
   44MOL0     O 5982   0.733   1.207   5.446  0.2948 -0.0188  1.0031
   44MOL0     C 5983   0.864   1.329   5.136  0.0208 -0.0567 -0.4083
   44MOL0     C 5984   0.867   1.438   5.044  0.3933  0.0630  0.1314
   44MOL0     N 5985   1.125   2.058   4.900  0.1289 -0.6018  0.1294
   44MOL0     N 5986   1.216   2.044   4.995 -0.1248 -0.6027  0.6850
   44MOL0     C 5987   1.549   3.081   5.361  0.4337 -0.5930  1.4617
   44MOL0     C 5988   1.602   3.180   5.275  0.1151  0.1869 -0.1322
   44MOL0     C 5989   1.671   3.408   4.897 -0.4028 -0.8612  0.9065
   44MOL0     C 5990   1.570   3.456   4.809 -0.5295 -0.1027 -0.6937
   44MOL0     C 5991   1.593   3.566   4.721 -0.4251  1.1630 -0.2203
   44MOL0     C 5992   1.721   3.619   4.715 -0.5924 -0.6105 -0.0913
   44MOL0     O 5993   1.755   3.732   4.634 -0.6728 -0.6070 -0.1009
   44MOL0     C 5994   1.668   3.771   4.526  0.1100 -0.9520 -0.4000
   44MOL0     C 5995   1.740   3.890   4.454  0.4621 -0.2790  0.4703
   44MOL0     C 5996   1.884   3.860   4.414  0.1120  0.3627 -0.5564
   44MOL0     C 5997   1.956   3.988   4.363  0.6507  0.5805 -0.2238
   44MOL0     C 5998   1.928   3.991   4.211 -0.6180 -0.6409 -0.2567
   44MOL0     C 5999   1.909   4.000   4.088 -0.5228  0.1050  0.0179
   44MOL0     C 6000   1.823   3.565   4.786  1.2080 -0.3895 -0.3180
   44MOL0     C 6001   1.799   3.463   4.880 -0.3214 -0.8305 -0.7043
   44MOL0     C 6002   1.921   3.412   4.953  0.4783  0.1851 -0.2263
   44MOL0     H 6003   1.795   2.972   5.073  1.8217 -1.4192  1.4352
   44MOL0     H 6004   1.673   2.799   5.213  1.9056 -0.6243  0.5692
   44MOL0     H 6005   1.338   2.922   5.353  1.6008  1.6515  0.9535
   44MOL0     H 6006   1.325   2.812   5.484 -0.8581  2.9816 -0.5670
   44MOL0     H 6007   1.246   2.724   5.256 -1.3207 -0.4463  1.8365
   44MOL0     H 6008   1.405   2.761   5.195  2.7806  0.2489  2.0582
   44MOL0     H 6009   1.520   2.592   5.327 -0.0285  2.6104 -1.2573
   44MOL0     H 6010   1.375   2.572   5.426 -0.9154  1.7218  0.0515
   44MOL0     H 6011   1.263   2.450   5.267 -0.0269 -2.3578 -0.7220
   44MOL0     H 6012   1.385   2.495   5.140  2.8081 -0.0603  0.7297
   44MOL0     H 6013   1.482   2.321   5.367  0.2039 -2.2782 -0.1181
   44MOL0     H 6014   1.555   2.362   5.218 -1.1578  4.0577  0.7312
   44MOL0     H 6015   1.340   2.235   5.097 -1.2521  1.6745  0.7621
   44MOL0     H 6016   1.460   2.141   5.183  1.4385  1.1962 -2.7605
   44MOL0     H 6017   1.193   2.228   5.298 -1.2278 -1.5490  0.5689
   44MOL0     H 6018   1.323   2.145   5.398 -1.7972  1.1616  0.6749
   44MOL0     H 6019   1.302   1.943   5.259 -1.2438 -0.7613 -1.9594
   44MOL0     H 6020   1.159   1.990   5.337 -0.5015 -0.7838 -0.0755
   44MOL0     H 6021   0.951   1.975   5.165 -0.3909 -1.5143  0.4317
   44MOL0     H 6022   0.873   2.104   4.840 -0.2248 -0.0709  2.2168
   44MOL0     H 6023   0.805   2.026   4.976  0.9694  0.4074 -0.0029
   44MOL0     H 6024   0.865   1.909   4.712 -1.7170 -1.2175 -0.1186
   44MOL0     H 6025   0.939   1.812   4.835  1.1376  2.4505  0.7086
   44MOL0     H 6026   0.632   1.897   4.845 -0.4167 -0.8056  0.7427
   44MOL0     H 6027   0.697   1.763   4.758  1.4643  1.4966 -1.5355
   44MOL0     H 6028   0.750   1.819   5.055  1.9265 -0.9934 -0.8933
   44MOL0     H 6029   0.596   1.736   5.001 -0.4644 -1.1227  0.9134
   44MOL0     H 6030   0.666   1.637   5.239 -1.0845 -1.1173  0.4896
   44MOL0     H 6031   0.698   1.444   5.507  0.1878 -1.1645 -0.3268
   44MOL0     H 6032   0.558   1.439   5.395  0.2360 -2.5040  3.4880
   44MOL0     H 6033   0.617   1.585   5.431 -1.8591 -0.1167  0.3742
   44MOL0     H 6034   1.002   0.956   5.464 -1.9045 -0.0019  3.9237
   44MOL0     H 6035   0.970   0.725   5.522  0.6271  3.5596  0.2247
   44MOL0     H 6036   0.740   0.515   5.257  0.2424 -0.5292 -0.6671
   44MOL0     H 6037   0.818   0.383   5.350  1.5473  0.9643 -0.6259
   44MOL0     H 6038   0.631   0.368   5.501  1.1973  1.4085  0.1071
   44MOL0     H 6039   0.557   0.505   5.433 -1.6733 -0.8285  0.7671
   44MOL0     H 6040   0.582   0.239   5.301 -2.4651 -0.0533 -1.3375
   44MOL0     H 6041   0.553   0.384   5.200  1.3509  2.0426  0.4920
   44MOL0     H 6042   0.359   0.429   5.322  2.1789  1.1586 -3.1163
   44MOL0     H 6043   0.397   0.308   5.451  2.6157  0.2966  0.7193
   44MOL0     H 6044   0.219   0.247   5.292 -0.4573 -0.8022  0.3360
   44MOL0     H 6045   0.334   0.242   5.159 -0.1973  1.8995 -0.5257
   44MOL0     H 6046   0.255   0.032   5.290  0.3215 -0.3389  1.3620
   44MOL0     H 6047   0.356   0.084   5.416  0.1805  0.5170 -0.0053
   44MOL0     H 6048   0.557   0.033   5.208  0.1843 -0.5471  0.7532
   44MOL0     H 6049   0.414  -0.022   5.126  2.4774 -2.1328 -0.0213
   44MOL0     H 6050   0.516  -0.214   5.208  0.0251  0.3282  0.9693
   44MOL0     H 6051   0.383  -0.191   5.326  0.7784 -0.4599  1.6034
   44MOL0     H 6052   0.621   0.711   5.283  0.1080 -0.9389  2.2193
   44MOL0     H 6053   0.655   0.929   5.198 -0.8912 -0.0225  1.2088
   44MOL0     H 6054   0.909   1.233   5.111 -0.8262 -1.5430  3.2504
   44MOL0     H 6055   0.892   1.428   4.939 -1.0825 -2.1393 -0.0911
   44MOL0     H 6056   1.485   3.122   5.437 -2.3505 -0.9180 -0.5290
   44MOL0     H 6057   1.575   3.285   5.263  1.8479  0.4073 -2.8668
   44MOL0     H 6058   1.467   3.425   4.823  0.5624 -4.0121 -0.1422
   44MOL0     H 6059   1.519   3.615   4.658 -1.6788  0.1311  0.4090
   44MOL0     H 6060   1.667   3.690   4.453 -0.5676 -1.4950  0.1923
   44MOL0     H 6061   1.562   3.785   4.548  0.0085 -2.2742 -0.0040
   44MOL0     H 6062   1.746   3.982   4.512  0.2835  2.0646 -2.9167
   44MOL0     H 6063   1.670   3.914   4.373  1.0255 -1.6308 -0.4437
   44MOL0     H 6064   1.934   3.831   4.508 -0.2410  2.4703  0.3356
   44MOL0     H 6065   1.900   3.774   4.348  0.8469  0.2370 -0.2290
   44MOL0     H 6066   2.065   3.985   4.376  0.6781 -0.0204 -0.5788
   44MOL0     H 6067   1.915   4.080   4.407 -0.7242  0.1324 -0.5357
   44MOL0     H 6068   1.905   4.005   3.981  0.4263  0.4318 -0.0099
   44MOL0     H 6069   1.923   3.609   4.793 -0.2772  3.0859  3.5694
   44MOL0     H 6070   1.913   3.446   5.057  1.4436  0.5909 -0.2745
   44MOL0     H 6071   1.943   3.305   4.959 -1.4376 -0.2078  0.2898
   44MOL0     H 6072   2.010   3.448   4.901 -0.8957  1.8668 -1.4899
   45MOL0     O 6073   3.791   3.271   2.961 -0.1484 -0.2456  0.7574
   45MOL0     C 6074   3.769   3.385   2.984 -0.1571 -0.3583 -0.0598
   45MOL0     O 6075   3.646   3.445   2.988  0.6616  0.1109  0.1640
   45MOL0     C 6076   3.541   3.375   2.939  0.5736 -0.0764 -0.2404
   45MOL0     C 6077   3.506   3.253   2.994  0.4453 -0.1914 -0.8044
   45MOL0     C 6078   3.380   3.194   2.950 -0.7193 -0.7062  0.2069
   45MOL0     C 6079   3.296   3.257   2.853  0.9530 -0.0944  0.1514
   45MOL0     O 6080   3.176   3.209   2.812 -0.1740 -0.9851 -0.7487
   45MOL0     C 6081   3.111   3.098   2.885 -0.3493 -1.1112  0.2238
   45MOL0     C 6082   2.971   3.074   2.824 -0.2254  0.0364  0.4758
   45MOL0     C 6083   2.915   2.938   2.865  0.2073 -0.3264 -0.1301
   45MOL0     C 6084   2.763   2.946   2.849 -0.3417  0.5167 -0.5236
   45MOL0     C 6085   2.699   2.829   2.929 -0.4537 -0.1291  1.0306
   45MOL0     C 6086   2.550   2.835   2.889  0.6043 -0.1063  0.3174
   45MOL0     C 6087   2.478   2.760   2.993  0.1327  0.0113  0.3328
   45MOL0     C 6088   2.327   2.774   2.992 -0.7871  0.4059  0.2823
   45MOL0     N 6089   2.270   2.733   3.125 -0.1337  0.7698  0.1613
   45MOL0     C 6090   2.224   2.609   3.158 -0.1993  0.5639 -0.1303
   45MOL0     C 6091   2.174   2.623   3.281 -0.1175 -0.9043  0.3923
   45MOL0     C 6092   2.115   2.527   3.375  0.8017 -0.0118  0.4951
   45MOL0     C 6093   2.192   2.504   3.506  0.3608  0.8523 -0.1437
   45MOL0     C 6094   2.113   2.400   3.585 -1.1463 -0.2980 -0.3479
   45MOL0     C 6095   2.179   2.327   3.714  0.1332  0.0719  0.8563
   45MOL0     O 6096   2.300   2.264   3.671 -0.1739 -0.4391  0.1973
   45MOL0     C 6097   2.294   2.149   3.591  0.2152  0.5611  0.3071
   45MOL0     C 6098   2.179   2.062   3.574  1.0270 -0.9379 -0.0542
   45MOL0     C 6099   2.181   1.946   3.492 -0.4920 -0.7257 -0.3131
   45MOL0     C 6100   2.056   1.870   3.462 -0.2092  0.1952  0.9411
   45MOL0     C 6101   2.312   1.901   3.449 -0.4063 -0.7324 -0.1673
   45MOL0     C 6102   2.336   1.780   3.363 -0.0444  0.4343  0.3440
   45MOL0     O 6103   2.455   1.780   3.293 -0.2281 -0.9821  0.1834
   45MOL0     C 6104   2.476   1.677   3.214 -0.8499 -0.0774  0.3714
   45MOL0     C 6105   2.523   1.706   3.082  0.4993  0.6147  0.3902
   45MOL0     C 6106   2.569   1.603   2.995  0.0061 -0.8078 -0.4565
   45MOL0     C 6107   2.532   1.470   3.025  0.1057  0.4657  0.4584
   45MOL0     O 6108   2.558   1.370   2.935  0.0761  0.2833 -0.5246
   45MOL0     C 6109   2.494   1.395   2.814 -0.1200  0.3332  0.9413
   45MOL0     C 6110   2.518   1.265   2.734 -0.5161  0.3311  0.1095
   45MOL0     C 6111   2.415   1.153   2.735 -0.0631 -0.9184  0.2007
   45MOL0     C 6112   2.398   1.095   2.875 -0.4478  0.3894 -0.1764
   45MOL0     C 6113   2.261   1.024   2.888  1.0409 -0.0437  0.3889
   45MOL0     C 6114   2.140   1.107   2.913 -0.4582 -0.6606 -0.5239
   45MOL0     C 6115   2.025   1.019   2.961  0.6147  0.5335  0.1838
   45MOL0     C 6116   1.886   1.086   2.945 -0.0214 -0.7538 -0.4318
   45MOL0    Cl 6117   1.870   1.235   3.042 -0.4354  0.4876  0.2393
   45MOL0     C 6118   2.487   1.440   3.147 -0.0492  0.9211 -0.7129
   45MOL0     C 6119   2.480   1.539   3.249  0.0972 -0.3543  0.0833
   45MOL0     O 6120   2.252   1.694   3.363 -0.0818  0.3080 -1.2260
   45MOL0     C 6121   2.427   1.983   3.482 -0.0894 -0.2923  1.5298
   45MOL0     C 6122   2.417   2.105   3.540 -0.7777 -0.2136 -1.1561
   45MOL0     N 6123   2.193   2.753   3.326  0.4490  0.3383  0.2513
   45MOL0     N 6124   2.238   2.821   3.226  0.8477  0.2566 -0.2370
   45MOL0     C 6125   3.339   3.372   2.797  0.3977  0.1254  0.0859
   45MOL0     C 6126   3.458   3.441   2.838  0.3905  0.0677 -0.0150
   45MOL0     C 6127   3.868   3.482   3.036 -0.8178  0.2218 -0.0186
   45MOL0     C 6128   3.835   3.613   3.081  0.2693 -0.0571  0.5938
   45MOL0     C 6129   3.931   3.697   3.128 -0.1325  0.0448 -0.8490
   45MOL0     C 6130   4.067   3.666   3.143 -0.1295 -0.8677  0.6139
   45MOL0     O 6131   4.146   3.780   3.180  0.0689  0.2865  0.0440
   45MOL0     C 6132   4.268   3.747   3.244  0.1605 -0.0938  0.8685
   45MOL0     C 6133   4.314   3.857   3.350  0.3146 -0.0914 -0.5455
   45MOL0     C 6134   4.206   3.870   3.452  0.4992 -1.0818 -0.6608
   45MOL0     C 6135   4.160   3.745   3.530  0.0792 -0.2340  1.5659
   45MOL0     C 6136   4.240   3.705   3.648 -0.0681  0.0922 -1.3252
   45MOL0     C 6137   4.324   3.668   3.731 -0.2405 -1.3776 -0.2575
   45MOL0     C 6138   4.107   3.548   3.083 -0.2983 -0.2450 -0.8765
   45MOL0     C 6139   4.012   3.450   3.048 -0.8648  0.1903 -0.2309
   45MOL0     C 6140   4.066   3.308   3.015 -0.0330  0.7000  0.3415
   45MOL0     H 6141   3.579   3.200   3.053 -1.9233 -0.8629  1.7642
   45MOL0     H 6142   3.374   3.094   2.992  1.0716 -0.1613  1.9251
   45MOL0     H 6143   3.101   3.132   2.989 -3.4536 -0.9183 -0.0526
   45MOL0     H 6144   3.175   3.011   2.867  4.1371  1.8497  0.3182
   45MOL0     H 6145   2.906   3.156   2.856  1.2175  2.5203 -2.4471
   45MOL0     H 6146   2.972   3.076   2.715  1.0854  1.0088  0.4751
   45MOL0     H 6147   2.953   2.854   2.805 -3.2987 -2.7371  0.7407
   45MOL0     H 6148   2.936   2.924   2.971 -1.6599 -0.4405  0.2593
   45MOL0     H 6149   2.728   3.042   2.887  1.4667 -0.2448  3.6754
   45MOL0     H 6150   2.737   2.936   2.743  0.0276  1.6774 -0.7376
   45MOL0     H 6151   2.709   2.848   3.036  0.3568 -1.9494  1.3112
   45MOL0     H 6152   2.738   2.731   2.898 -1.4454 -0.0595 -0.6120
   45MOL0     H 6153   2.515   2.938   2.901 -0.8577 -0.6239  0.7542
   45MOL0     H 6154   2.525   2.792   2.792 -0.8285 -0.5857  0.8675
   45MOL0     H 6155   2.521   2.781   3.092 -0.0785  0.5975  0.3051
   45MOL0     H 6156   2.498   2.658   2.958  3.4513  1.1701 -1.6389
   45MOL0     H 6157   2.316   2.879   2.964 -1.4704  0.2524 -0.0542
   45MOL0     H 6158   2.274   2.717   2.915 -1.3112  2.1844 -0.7458
   45MOL0     H 6159   2.234   2.521   3.095 -0.8571 -2.3174  3.3941
   45MOL0     H 6160   2.097   2.439   3.312  1.5010  0.3145 -0.1831
   45MOL0     H 6161   2.013   2.557   3.401 -0.3056 -1.5588 -1.7328
   45MOL0     H 6162   2.288   2.456   3.483  1.0490  0.0031  3.7372
   45MOL0     H 6163   2.220   2.595   3.560  0.3749  1.3031 -0.8991
   45MOL0     H 6164   2.017   2.446   3.612 -1.8829 -1.8023 -0.3327
   45MOL0     H 6165   2.090   2.322   3.513 -1.5826  0.5153 -1.1117
   45MOL0     H 6166   2.196   2.418   3.773  1.4907  2.0080 -2.2434
   45MOL0     H 6167   2.128   2.255   3.779  0.9460 -0.8930  0.4488
   45MOL0     H 6168   2.084   2.087   3.619  2.0920 -1.8161  2.9195
   45MOL0     H 6169   2.066   1.785   3.530  0.7836 -2.7892 -2.6278
   45MOL0     H 6170   2.057   1.846   3.355 -0.2418 -0.4249  1.0765
   45MOL0     H 6171   1.974   1.940   3.483  0.4678  1.0918  0.6656
   45MOL0     H 6172   2.542   1.806   3.044  0.4169 -0.2855 -2.2394
   45MOL0     H 6173   2.605   1.645   2.901  0.4061  4.2098  1.6092
   45MOL0     H 6174   2.386   1.413   2.813 -0.5573 -1.8511 -1.2450
   45MOL0     H 6175   2.557   1.467   2.762  1.3273  0.2487  2.4920
   45MOL0     H 6176   2.513   1.296   2.629 -3.6089 -0.0260  0.0763
   45MOL0     H 6177   2.616   1.220   2.756 -0.2565  0.0540 -1.4639
   45MOL0     H 6178   2.448   1.075   2.666 -1.6778 -0.7103 -0.8525
   45MOL0     H 6179   2.320   1.190   2.697 -1.1942 -2.0714  1.8005
   45MOL0     H 6180   2.407   1.160   2.963 -0.7322  2.6083 -1.6831
   45MOL0     H 6181   2.474   1.018   2.888  0.5574  1.2466 -0.7737
   45MOL0     H 6182   2.235   0.966   2.799 -3.2361 -0.7278  1.8479
   45MOL0     H 6183   2.263   0.955   2.972  0.4951  0.0021  0.4438
   45MOL0     H 6184   2.113   1.168   2.827  0.1886 -1.1735 -1.1090
   45MOL0     H 6185   2.155   1.176   2.997 -0.2072  0.4731 -1.4812
   45MOL0     H 6186   2.036   0.998   3.068  1.5242 -0.0043 -0.0045
   45MOL0     H 6187   2.025   0.925   2.906 -1.2758  1.4976 -1.6098
   45MOL0     H 6188   1.819   1.009   2.984 -0.0370 -1.0183 -0.9838
   45MOL0     H 6189   1.861   1.111   2.842 -2.4755  2.4429  0.7513
   45MOL0     H 6190   2.472   1.334   3.159  2.5171  0.3572 -1.8388
   45MOL0     H 6191   2.448   1.509   3.348 -0.8890  2.2016  0.6080
   45MOL0     H 6192   2.526   1.952   3.449  0.0344  0.3253  1.3121
   45MOL0     H 6193   2.505   2.163   3.565 -0.4471 -0.8229 -0.8905
   45MOL0     H 6194   3.270   3.418   2.727  0.4144 -3.3544 -2.5169
   45MOL0     H 6195   3.489   3.541   2.813  3.7322 -0.5006  1.3172
   45MOL0     H 6196   3.730   3.640   3.076 -1.0996 -4.1835  2.5514
   45MOL0     H 6197   3.908   3.799   3.158 -1.7525 -0.9206  1.4304
   45MOL0     H 6198   4.268   3.640   3.269 -2.6450 -0.7972 -1.4687
   45MOL0     H 6199   4.343   3.757   3.164  0.2419 -3.2641  0.4082
   45MOL0     H 6200   4.325   3.956   3.305 -2.8326 -0.5326 -2.5654
   45MOL0     H 6201   4.402   3.830   3.410 -0.4449  2.5412  1.9904
   45MOL0     H 6202   4.237   3.943   3.527 -1.1178  0.1884 -1.1472
   45MOL0     H 6203   4.118   3.900   3.394  1.1350 -0.0597 -1.1194
   45MOL0     H 6204   4.157   3.667   3.453 -0.0515 -0.6376  1.9699
   45MOL0     H 6205   4.059   3.766   3.568  0.1608  1.6678  0.8391
   45MOL0     H 6206   4.404   3.633   3.793 -3.8627 -1.2643  5.1323
   45MOL0     H 6207   4.215   3.536   3.085  0.4940  4.4763  2.3966
   45MOL0     H 6208   4.031   3.230   3.084  0.0174  0.4198  0.0483
   45MOL0     H 6209   4.028   3.297   2.914 -3.1633  2.4598  1.1866
   45MOL0     H 6210   4.175   3.298   3.016 -0.0317  0.4653 -0.9743
   46MOL0     O 6211  11.220   5.822  10.489  0.0615 -0.3325  0.6681
   46MOL0     C 6212  11.187   5.878  10.588  0.2338 -0.3619 -0.7776
   46MOL0     O 6213  11.269   5.942  10.672  0.6610 -0.4873 -0.3116
   46MOL0     C 6214  11.405   5.926  10.665  0.2313  0.1267 -0.9122
   46MOL0     C 6215  11.459   5.813  10.720  0.0857 -0.5971  0.1056
   46MOL0     C 6216  11.605   5.797  10.700  0.0261 -0.0110 -0.1495
   46MOL0     C 6217  11.677   5.883  10.619 -0.1256 -0.1002  0.5199
   46MOL0     O 6218  11.813   5.860  10.612  1.0408  0.2207 -0.0915
   46MOL0     C 6219  11.863   5.786  10.509 -0.1360  0.4076 -0.0907
   46MOL0     C 6220  12.004   5.841  10.472  0.5070  0.1498  0.6274
   46MOL0     C 6221  11.991   5.912  10.327 -0.8291 -0.6662  0.2766
   46MOL0     C 6222  12.113   5.986  10.276  0.0865 -0.7131 -0.4993
   46MOL0     C 6223  12.078   6.101  10.179  0.2182  0.7106  0.6616
   46MOL0     C 6224  12.200   6.149  10.090 -0.9617 -0.7486 -0.2562
   46MOL0     C 6225  12.166   6.233   9.963 -0.0432 -0.0405  1.0785
   46MOL0     C 6226  12.062   6.347   9.993 -0.0419 -0.7892 -0.9287
   46MOL0     N 6227  12.009   6.392   9.863 -1.0076  0.9349 -0.9466
   46MOL0     C 6228  11.963   6.513   9.830 -0.6902  0.9138  0.0166
   46MOL0     C 6229  11.895   6.495   9.712  0.3047 -0.0488  0.0648
   46MOL0     C 6230  11.837   6.615   9.635 -0.0235 -0.3991  0.0730
   46MOL0     C 6231  11.930   6.733   9.587 -0.5728 -0.9198  1.0667
   46MOL0     C 6232  11.852   6.834   9.499  0.0529 -0.1632  0.3070
   46MOL0     C 6233  11.938   6.954   9.465 -0.1035 -0.5525  0.9550
   46MOL0     O 6234  11.966   7.017   9.601  0.3862  0.5151  0.4337
   46MOL0     C 6235  11.908   7.143   9.592 -0.1562 -0.7610  0.2039
   46MOL0     C 6236  11.969   7.249   9.522  0.3996  0.7131 -0.3848
   46MOL0     C 6237  11.917   7.380   9.514  1.0700  0.4840 -0.3477
   46MOL0     C 6238  11.966   7.471   9.407 -0.7588  0.6948 -0.1863
   46MOL0     C 6239  11.789   7.405   9.578  1.6579  0.4782 -0.2884
   46MOL0     C 6240  11.713   7.541   9.576 -0.4636  0.0272 -0.3550
   46MOL0     O 6241  11.591   7.546   9.645  0.2110  0.5084 -0.2437
   46MOL0     C 6242  11.515   7.655   9.633 -0.3736 -0.6320 -0.5708
   46MOL0     C 6243  11.521   7.759   9.726 -0.0794 -0.5878  0.6504
   46MOL0     C 6244  11.438   7.874   9.708  0.1643  0.1584 -0.1528
   46MOL0     C 6245  11.347   7.882   9.605  0.4838  0.4399  0.5949
   46MOL0     O 6246  11.246   7.983   9.602  0.0713  0.1238 -0.1572
   46MOL0     C 6247  11.134   7.971   9.531  0.3582  0.1093  0.1668
   46MOL0     C 6248  11.021   8.036   9.609  0.3015  1.4495  0.7823
   46MOL0     C 6249  10.902   8.064   9.511  0.6726 -0.5789  0.0271
   46MOL0     C 6250  10.855   7.946   9.428 -0.6682  0.5848  0.5039
   46MOL0     C 6251  10.747   7.986   9.326 -0.2726 -0.5961 -0.5707
   46MOL0     C 6252  10.613   8.015   9.410  0.6565  0.3248  0.5469
   46MOL0     C 6253  10.515   8.078   9.309  0.1556 -1.0938 -0.3699
   46MOL0     C 6254  10.386   8.146   9.376 -0.5849  0.1021 -0.6050
   46MOL0    Cl 6255  10.292   8.018   9.466 -0.0883 -0.2729  0.0006
   46MOL0     C 6256  11.338   7.773   9.517  0.8498 -0.4166 -0.5985
   46MOL0     C 6257  11.427   7.672   9.524  0.5429  0.5297  0.0925
   46MOL0     O 6258  11.766   7.639   9.526  1.0701  0.0307  0.2066
   46MOL0     C 6259  11.724   7.299   9.652 -0.2229  0.0553  0.1323
   46MOL0     C 6260  11.781   7.170   9.653  0.1066 -0.0126  0.2562
   46MOL0     N 6261  11.914   6.366   9.677 -0.7341 -0.4892 -0.2264
   46MOL0     N 6262  11.974   6.299   9.774 -0.1315  0.8490 -0.4254
   46MOL0     C 6263  11.610   6.003  10.576 -0.2529 -0.3740 -0.3418
   46MOL0     C 6264  11.483   6.026  10.601 -0.0022  0.4030 -0.7494
   46MOL0     C 6265  11.040   5.912  10.607  0.8315  0.3516  0.6033
   46MOL0     C 6266  11.001   6.031  10.668  0.6856  0.7736  0.1646
   46MOL0     C 6267  10.866   6.072  10.698  0.6879  0.2193 -0.3877
   46MOL0     C 6268  10.770   5.990  10.645 -0.1407  0.2360 -0.4728
   46MOL0     O 6269  10.636   6.020  10.637  0.0596  0.6500  0.4605
   46MOL0     C 6270  10.570   6.093  10.738  0.9035  0.6391  0.8756
   46MOL0     C 6271  10.590   6.242  10.710 -0.0814 -0.0799  0.1389
   46MOL0     C 6272  10.469   6.316  10.646  0.7188  0.0420 -0.3602
   46MOL0     C 6273  10.454   6.462  10.675  0.6100  0.0207  0.3800
   46MOL0     C 6274  10.552   6.544  10.600 -0.4588  0.9653  0.9923
   46MOL0     C 6275  10.640   6.594  10.531 -0.6218 -0.1843  0.7636
   46MOL0     C 6276  10.803   5.864  10.586 -0.4033 -0.4780  0.5718
   46MOL0     C 6277  10.937   5.827  10.564  0.7407 -0.4254 -0.2816
   46MOL0     C 6278  10.957   5.688  10.506  0.4434 -0.6698  0.5480
   46MOL0     H 6279  11.405   5.736  10.775 -0.7868 -4.1132 -5.0140
   46MOL0     H 6280  11.661   5.714  10.741 -1.4921 -0.9987  0.0037
   46MOL0     H 6281  11.805   5.805  10.418 -0.5016 -1.5323 -0.3167
   46MOL0     H 6282  11.859   5.682  10.542  3.0964  0.8127  2.0487
   46MOL0     H 6283  12.055   5.899  10.549  4.1623 -2.7038  0.6666
   46MOL0     H 6284  12.059   5.749  10.450  0.5148  0.5732 -1.3328
   46MOL0     H 6285  11.963   5.839  10.251 -1.7108 -0.0616  0.0122
   46MOL0     H 6286  11.917   5.992  10.340 -0.3670  0.1554 -1.8493
   46MOL0     H 6287  12.161   6.030  10.364  0.5184 -2.4982  0.2073
   46MOL0     H 6288  12.182   5.916  10.227  2.6706  1.7511 -0.6742
   46MOL0     H 6289  12.040   6.184  10.239  4.0407  1.0867  2.9196
   46MOL0     H 6290  12.004   6.054  10.115 -0.0497 -2.2669  2.9391
   46MOL0     H 6291  12.270   6.201  10.156  1.4985 -2.7784 -1.1290
   46MOL0     H 6292  12.250   6.060  10.052 -0.7746  0.1869 -2.3793
   46MOL0     H 6293  12.126   6.159   9.892  0.5348  0.1564  0.5415
   46MOL0     H 6294  12.255   6.277   9.917 -0.6251  1.5843  1.4614
   46MOL0     H 6295  11.982   6.328  10.066  0.4396  1.6098  0.3297
   46MOL0     H 6296  12.108   6.432  10.044 -2.5965 -0.5371  1.1749
   46MOL0     H 6297  11.989   6.605   9.882  2.2658 -0.7714  1.8296
   46MOL0     H 6298  11.762   6.665   9.697  2.1284  0.5589  2.0810
   46MOL0     H 6299  11.801   6.569   9.543 -0.9162 -0.2157  0.3159
   46MOL0     H 6300  11.980   6.792   9.664  1.3852  0.0368 -0.8521
   46MOL0     H 6301  12.010   6.689   9.526 -0.6591 -2.6451  2.1047
   46MOL0     H 6302  11.823   6.791   9.403 -3.1254  2.5205 -0.1165
   46MOL0     H 6303  11.758   6.858   9.551  0.3361  3.2546 -0.5159
   46MOL0     H 6304  12.026   6.921   9.409 -2.6199 -0.2911 -3.5686
   46MOL0     H 6305  11.886   7.023   9.398  0.5012 -0.1593  0.8798
   46MOL0     H 6306  12.062   7.230   9.471 -0.2603 -2.9224 -0.4928
   46MOL0     H 6307  11.974   7.573   9.447 -4.6356  0.0437  2.8094
   46MOL0     H 6308  11.919   7.459   9.309  0.2113 -4.2840 -0.3049
   46MOL0     H 6309  12.073   7.448   9.395 -0.0315  3.2819  0.6367
   46MOL0     H 6310  11.588   7.758   9.812  0.6075  0.6940  0.1612
   46MOL0     H 6311  11.440   7.959   9.776 -2.7294  0.0864  0.1616
   46MOL0     H 6312  11.149   8.024   9.436 -1.1975  1.4286  0.6209
   46MOL0     H 6313  11.098   7.867   9.527 -0.1408  0.2734  0.3731
   46MOL0     H 6314  11.002   7.970   9.694 -0.0932  0.9905  0.3408
   46MOL0     H 6315  11.047   8.136   9.644 -0.5805  1.4684  1.3976
   46MOL0     H 6316  10.929   8.142   9.439  0.6508 -0.1380  0.4918
   46MOL0     H 6317  10.834   8.097   9.590  2.6865  1.7708  0.9210
   46MOL0     H 6318  10.811   7.872   9.496  1.0286  0.7114  1.8290
   46MOL0     H 6319  10.933   7.882   9.386 -0.3411  1.2684  0.0472
   46MOL0     H 6320  10.785   8.070   9.268  3.2850 -0.1999  1.9973
   46MOL0     H 6321  10.733   7.896   9.264 -0.3995 -1.5417  0.7951
   46MOL0     H 6322  10.620   8.084   9.495 -2.7801 -1.2240  2.2953
   46MOL0     H 6323  10.553   7.931   9.447  1.0456 -0.4060 -0.4275
   46MOL0     H 6324  10.485   8.014   9.225 -0.4863 -0.3322 -0.7280
   46MOL0     H 6325  10.558   8.166   9.260 -1.8100  0.8582  1.2257
   46MOL0     H 6326  10.318   8.196   9.307 -1.3127  1.0173  0.7383
   46MOL0     H 6327  10.420   8.215   9.453 -0.8437  0.9735 -1.2616
   46MOL0     H 6328  11.266   7.785   9.436 -1.4943 -0.1289  1.3820
   46MOL0     H 6329  11.428   7.606   9.438  3.6299 -0.4049  0.7193
   46MOL0     H 6330  11.623   7.313   9.689  0.6853 -0.4342  3.0597
   46MOL0     H 6331  11.732   7.091   9.709  0.6587 -1.0023 -0.6102
   46MOL0     H 6332  11.672   6.081  10.532 -1.3145  0.0574 -1.1028
   46MOL0     H 6333  11.421   6.111  10.575  1.2994  1.4324 -0.6300
   46MOL0     H 6334  11.079   6.103  10.691 -0.8388  2.3561  0.6149
   46MOL0     H 6335  10.866   6.165  10.753  3.5498 -2.1731  4.3377
   46MOL0     H 6336  10.468   6.054  10.746  0.6722  1.1210  0.3558
   46MOL0     H 6337  10.619   6.062  10.831  0.0356 -0.1719  1.0830
   46MOL0     H 6338  10.682   6.262  10.654 -2.0324  1.7500 -2.7386
   46MOL0     H 6339  10.612   6.287  10.808 -0.8325  3.5521 -1.1981
   46MOL0     H 6340  10.478   6.304  10.538 -0.0865  2.4435 -0.7492
   46MOL0     H 6341  10.385   6.259  10.688  1.8932 -0.4736  1.3848
   46MOL0     H 6342  10.478   6.482  10.780  1.9615  0.1807  0.0659
   46MOL0     H 6343  10.354   6.499  10.651  0.9466  0.2973 -0.6463
   46MOL0     H 6344  10.724   6.642  10.485  0.0413  0.3776  2.4455
   46MOL0     H 6345  10.714   5.809  10.555 -1.9914  0.1690  3.5442
   46MOL0     H 6346  11.054   5.636  10.507 -0.3965 -2.3242  2.4260
   46MOL0     H 6347  10.899   5.614  10.562  1.7182 -0.9640  1.5450
   46MOL0     H 6348  10.928   5.692  10.401  1.5712  3.0234  0.2402
   47MOL0     O 6349   4.749   3.321   0.682 -0.3071  0.2397  0.6457
   47MOL0     C 6350   4.650   3.251   0.708  1.1775  0.0104 -0.9082
   47MOL0     O 6351   4.592   3.238   0.834 -0.3850 -0.4481 -0.1952
   47MOL0     C 6352   4.668   3.297   0.931  0.6152 -0.2332 -1.0352
   47MOL0     C 6353   4.752   3.226   1.020  1.1257 -0.2146  0.2479
   47MOL0     C 6354   4.828   3.293   1.107  0.1652 -0.7328 -1.1861
   47MOL0     C 6355   4.841   3.436   1.113  0.0078 -0.0770  0.1520
   47MOL0     O 6356   4.931   3.508   1.177  0.0654 -0.6709 -0.0454
   47MOL0     C 6357   5.026   3.438   1.254 -0.4080 -0.5988 -1.0545
   47MOL0     C 6358   5.148   3.510   1.290 -0.3280 -0.2523 -0.4939
   47MOL0     C 6359   5.126   3.606   1.413  0.2656  0.1615  0.1474
   47MOL0     C 6360   5.223   3.721   1.419  0.7174 -0.3019  0.4280
   47MOL0     C 6361   5.193   3.816   1.540  0.9831 -0.0092  0.2996
   47MOL0     C 6362   5.195   3.732   1.678 -0.2043  0.0158 -0.3807
   47MOL0     C 6363   5.185   3.831   1.804 -0.9811  0.6045 -0.8972
   47MOL0     C 6364   5.211   3.761   1.942 -0.4483  0.7445 -0.1939
   47MOL0     N 6365   5.139   3.832   2.054 -0.5880  0.2549  0.2929
   47MOL0     C 6366   5.018   3.796   2.108 -0.3060  0.8046 -0.3318
   47MOL0     C 6367   4.977   3.885   2.202  0.3915 -0.1653 -0.7798
   47MOL0     C 6368   4.857   3.882   2.299 -0.2220  0.2769 -0.0565
   47MOL0     C 6369   4.729   3.825   2.248 -0.1194 -0.0840  0.9228
   47MOL0     C 6370   4.648   3.924   2.152  1.3118 -0.3331 -0.6028
   47MOL0     C 6371   4.523   3.873   2.080  0.4225  0.0603  0.2464
   47MOL0     O 6372   4.412   3.855   2.167 -0.4847 -0.2147  0.0730
   47MOL0     C 6373   4.384   3.976   2.223  0.7919  0.8409  0.0593
   47MOL0     C 6374   4.364   4.105   2.162  0.0330  0.0362 -0.0543
   47MOL0     C 6375   4.332   4.227   2.237 -0.3639  0.0428 -0.2118
   47MOL0     C 6376   4.283   4.349   2.156  0.6272  0.7056 -0.1124
   47MOL0     C 6377   4.345   4.226   2.374  0.1140 -0.0006 -0.4644
   47MOL0     C 6378   4.318   4.346   2.466  0.4286 -0.4767 -1.1978
   47MOL0     O 6379   4.289   4.305   2.595 -0.0564 -0.6661 -0.2773
   47MOL0     C 6380   4.261   4.410   2.683  0.2791  0.0856  0.6237
   47MOL0     C 6381   4.370   4.457   2.752  0.8432  0.4970 -0.0200
   47MOL0     C 6382   4.357   4.549   2.850  0.1049 -0.6022 -1.4354
   47MOL0     C 6383   4.232   4.589   2.881 -0.0452 -0.0729 -0.0608
   47MOL0     O 6384   4.220   4.679   2.989 -0.0610  0.7747 -0.3464
   47MOL0     C 6385   4.128   4.782   2.962  0.6442  0.0589  0.0089
   47MOL0     C 6386   3.997   4.774   3.047 -0.3677  1.0501  0.8953
   47MOL0     C 6387   4.023   4.744   3.195  0.1612  0.1686  0.0481
   47MOL0     C 6388   3.897   4.781   3.282 -0.3095  0.3544 -0.3232
   47MOL0     C 6389   3.763   4.707   3.238 -0.1267 -0.0208 -0.5346
   47MOL0     C 6390   3.652   4.721   3.336  0.3335  0.0115 -0.0942
   47MOL0     C 6391   3.540   4.639   3.266  0.5382  0.1234  0.5995
   47MOL0     C 6392   3.401   4.668   3.330 -0.0331  0.5805 -0.5160
   47MOL0    Cl 6393   3.420   4.667   3.513 -0.0704  0.7249  0.0705
   47MOL0     C 6394   4.117   4.538   2.815  0.0863 -0.0086  0.0881
   47MOL0     C 6395   4.134   4.453   2.705 -0.3262 -0.0781  0.2398
   47MOL0     O 6396   4.319   4.462   2.431  0.3722  0.5644  0.1617
   47MOL0     C 6397   4.387   4.102   2.429  0.5185  0.2852 -0.3161
   47MOL0     C 6398   4.395   3.984   2.355 -0.5548  0.8525 -0.2277
   47MOL0     N 6399   5.084   3.970   2.214 -0.7276 -0.0718 -0.3315
   47MOL0     N 6400   5.185   3.940   2.127  0.0195 -1.3429  0.2221
   47MOL0     C 6401   4.758   3.508   1.027 -0.3540 -0.0041 -0.1585
   47MOL0     C 6402   4.665   3.433   0.948 -1.1358  0.2327  0.3841
   47MOL0     C 6403   4.562   3.212   0.595 -0.8129 -0.2327 -0.9501
   47MOL0     C 6404   4.427   3.195   0.614  0.2879 -0.1834 -0.0444
   47MOL0     C 6405   4.334   3.165   0.510  1.1325  1.0127 -0.9608
   47MOL0     C 6406   4.388   3.154   0.377 -1.0613  0.0837 -0.8408
   47MOL0     O 6407   4.311   3.146   0.269 -0.1956  0.9472  0.7040
   47MOL0     C 6408   4.218   3.250   0.269  0.3493  0.6909 -0.5947
   47MOL0     C 6409   4.198   3.276   0.124 -0.1670  0.0509 -0.1005
   47MOL0     C 6410   4.143   3.158   0.032 -0.5014 -0.3794 -0.3506
   47MOL0     C 6411   4.161   3.190  -0.116 -0.1464  0.2385 -0.5498
   47MOL0     C 6412   4.103   3.087  -0.204  0.0804  0.3355 -0.8959
   47MOL0     C 6413   4.078   3.001  -0.281  0.5178 -0.0203  0.2646
   47MOL0     C 6414   4.523   3.160   0.361  0.4191 -0.1661  0.3274
   47MOL0     C 6415   4.612   3.181   0.469  0.4454  1.0474 -0.3540
   47MOL0     C 6416   4.759   3.158   0.437  0.2582 -1.2352  0.4015
   47MOL0     H 6417   4.768   3.121   0.996 -0.2823  0.0868 -2.3558
   47MOL0     H 6418   4.897   3.242   1.174 -1.0309 -1.7296 -0.6606
   47MOL0     H 6419   5.060   3.358   1.188 -1.2133 -0.2059 -1.9741
   47MOL0     H 6420   4.982   3.387   1.341  0.3030 -0.4829 -0.6220
   47MOL0     H 6421   5.223   3.436   1.318  0.2338  0.8118  0.9872
   47MOL0     H 6422   5.172   3.566   1.199 -1.9274  0.3402 -0.5879
   47MOL0     H 6423   5.025   3.647   1.415  0.3847  0.4314  1.3825
   47MOL0     H 6424   5.143   3.542   1.500 -1.6229  1.2199  1.3700
   47MOL0     H 6425   5.327   3.686   1.414  1.0042  0.6143 -0.6329
   47MOL0     H 6426   5.202   3.775   1.326 -0.9705 -1.4034  0.1338
   47MOL0     H 6427   5.090   3.846   1.517  0.5646 -0.4527  1.5288
   47MOL0     H 6428   5.256   3.905   1.551  0.0967  0.3069  4.0528
   47MOL0     H 6429   5.111   3.664   1.690  0.9192 -1.3529  0.0261
   47MOL0     H 6430   5.295   3.689   1.690 -0.7617 -1.8774 -2.0495
   47MOL0     H 6431   5.094   3.891   1.814  0.2470  2.2680  1.4190
   47MOL0     H 6432   5.270   3.901   1.801 -1.0149  0.6379 -1.0990
   47MOL0     H 6433   5.172   3.659   1.943  1.4672 -0.0211  0.6769
   47MOL0     H 6434   5.319   3.766   1.952 -0.3165 -1.7999  0.4282
   47MOL0     H 6435   4.974   3.702   2.078  2.0819 -0.1761 -1.0735
   47MOL0     H 6436   4.824   3.981   2.331 -2.4017 -0.9134  1.7042
   47MOL0     H 6437   4.890   3.820   2.383  2.3255 -1.1944 -2.0205
   47MOL0     H 6438   4.751   3.736   2.188  0.2154  1.2976 -1.0733
   47MOL0     H 6439   4.658   3.791   2.325 -2.1517 -0.6312 -1.1006
   47MOL0     H 6440   4.622   4.018   2.201  1.6263 -0.4321 -0.2306
   47MOL0     H 6441   4.722   3.935   2.072 -0.7537 -0.2649 -2.6076
   47MOL0     H 6442   4.503   3.938   1.995  0.5942 -0.0969  0.0852
   47MOL0     H 6443   4.542   3.778   2.030 -0.3288 -0.4514  0.8923
   47MOL0     H 6444   4.363   4.109   2.053  2.5270 -1.1800 -0.1926
   47MOL0     H 6445   4.286   4.335   2.047 -1.1401  3.0678 -0.5488
   47MOL0     H 6446   4.360   4.425   2.171 -1.6139  2.8447  1.0732
   47MOL0     H 6447   4.189   4.396   2.185 -0.9473 -1.7260 -0.9046
   47MOL0     H 6448   4.474   4.438   2.728  0.5089  0.5880 -1.6767
   47MOL0     H 6449   4.444   4.594   2.897  0.8126 -1.4016 -1.9614
   47MOL0     H 6450   4.167   4.882   2.982  0.5899  0.5256 -2.0231
   47MOL0     H 6451   4.107   4.780   2.855 -0.0826  0.1900  0.1444
   47MOL0     H 6452   3.945   4.866   3.019 -2.5513 -1.1000 -2.8864
   47MOL0     H 6453   3.940   4.687   3.014  1.0546 -0.0783  1.3354
   47MOL0     H 6454   4.101   4.805   3.241 -0.1206  0.5630 -0.0019
   47MOL0     H 6455   4.053   4.641   3.218 -2.7432  0.2528  6.1939
   47MOL0     H 6456   3.889   4.890   3.291 -1.0341  0.4421 -1.8051
   47MOL0     H 6457   3.921   4.748   3.384  0.0139 -1.6094 -0.9937
   47MOL0     H 6458   3.732   4.736   3.137 -5.1046  1.3898  1.1189
   47MOL0     H 6459   3.767   4.598   3.234 -3.9075 -0.2879 -0.6250
   47MOL0     H 6460   3.631   4.827   3.351  1.5127  0.0889  1.1746
   47MOL0     H 6461   3.691   4.665   3.422  0.9021 -0.9002 -0.9123
   47MOL0     H 6462   3.560   4.533   3.283 -3.0096 -0.7371  0.3272
   47MOL0     H 6463   3.529   4.657   3.158  1.5297 -0.0465  0.4623
   47MOL0     H 6464   3.328   4.591   3.301  1.9358 -2.4065  1.9090
   47MOL0     H 6465   3.348   4.762   3.311  0.6333  0.6211 -2.4319
   47MOL0     H 6466   4.012   4.559   2.834 -0.8508 -2.6756 -1.5573
   47MOL0     H 6467   4.051   4.417   2.646 -1.4779  0.7492  1.2959
   47MOL0     H 6468   4.419   4.092   2.532  1.4063 -0.5782 -0.6683
   47MOL0     H 6469   4.409   3.885   2.397 -0.3629  0.4074 -1.3032
   47MOL0     H 6470   4.772   3.615   1.012 -0.8963  0.3318  1.5605
   47MOL0     H 6471   4.604   3.482   0.873 -0.4635  0.1976 -0.2009
   47MOL0     H 6472   4.389   3.217   0.713  1.2639  0.6195  0.1622
   47MOL0     H 6473   4.228   3.157   0.528  1.5661 -0.7116  1.1960
   47MOL0     H 6474   4.131   3.213   0.322  2.5083 -2.4726  1.0998
   47MOL0     H 6475   4.259   3.342   0.312  1.8663  1.3697 -3.2612
   47MOL0     H 6476   4.297   3.307   0.090  1.4956 -3.9673  0.5775
   47MOL0     H 6477   4.127   3.359   0.115  1.1825  1.0288 -2.9214
   47MOL0     H 6478   4.202   3.073   0.069  1.2261  0.3900 -1.2215
   47MOL0     H 6479   4.039   3.151   0.063 -0.0564 -0.2157  1.2776
   47MOL0     H 6480   4.270   3.181  -0.118 -0.1140 -0.6766  1.7968
   47MOL0     H 6481   4.117   3.289  -0.129  1.2908  0.7098 -2.1480
   47MOL0     H 6482   4.054   2.922  -0.350  0.4688 -0.5338  0.8622
   47MOL0     H 6483   4.553   3.153   0.256  2.3363 -1.6787  0.9002
   47MOL0     H 6484   4.778   3.073   0.371  0.6619 -1.8760  1.3266
   47MOL0     H 6485   4.794   3.250   0.390 -2.0690 -0.4799  0.0592
   47MOL0     H 6486   4.818   3.153   0.529  0.6074  1.6710  0.4158
   48MOL0     O 6487   1.973   0.508   6.362  1.2922  0.1330 -0.1785
   48MOL0     C 6488   2.015   0.393   6.370 -0.1667 -0.6630 -0.4956
   48MOL0     O 6489   2.076   0.319   6.269  0.0795  0.0096  0.0709
   48MOL0     C 6490   2.066   0.349   6.132 -0.2570 -0.0995 -0.0817
   48MOL0     C 6491   1.938   0.378   6.083  0.2994  0.3095  1.0274
   48MOL0     C 6492   1.932   0.418   5.947 -0.3303 -0.3847 -0.2871
   48MOL0     C 6493   2.047   0.400   5.864  0.2165 -0.2311  0.4146
   48MOL0     O 6494   2.040   0.414   5.725  0.0116  0.5000  0.0644
   48MOL0     C 6495   1.949   0.518   5.676  0.2440 -0.8304 -0.4019
   48MOL0     C 6496   1.961   0.525   5.530 -0.1651 -0.1699  0.0712
   48MOL0     C 6497   1.858   0.614   5.468  0.4959  0.4975 -0.1031
   48MOL0     C 6498   1.880   0.622   5.316  0.0806  0.7832 -0.5367
   48MOL0     C 6499   1.756   0.690   5.248 -1.1030  0.4698  1.1676
   48MOL0     C 6500   1.724   0.829   5.300 -0.1703  0.0354  0.3280
   48MOL0     C 6501   1.634   0.889   5.206  1.2667  0.4102 -0.2132
   48MOL0     C 6502   1.565   1.018   5.268  1.0717 -0.4552  1.0620
   48MOL0     N 6503   1.655   1.118   5.334  0.4493 -0.3682 -0.8484
   48MOL0     C 6504   1.758   1.183   5.276  0.3229  0.3745 -0.6759
   48MOL0     C 6505   1.789   1.285   5.358  0.3535 -0.0636 -0.3070
   48MOL0     C 6506   1.896   1.393   5.353  0.0903 -0.6351 -0.5918
   48MOL0     C 6507   1.926   1.434   5.205 -0.3343  0.2119  0.1412
   48MOL0     C 6508   1.798   1.511   5.137  0.2787  0.3486  0.2532
   48MOL0     C 6509   1.821   1.561   4.992 -0.0772 -0.4933 -0.1223
   48MOL0     O 6510   1.881   1.462   4.918  0.4944  0.4084  0.3714
   48MOL0     C 6511   1.784   1.400   4.839  0.2588 -0.5773 -0.0506
   48MOL0     C 6512   1.713   1.290   4.877 -0.0349  0.2566 -0.0940
   48MOL0     C 6513   1.614   1.225   4.804 -0.4902 -0.1527  0.9366
   48MOL0     C 6514   1.545   1.097   4.860 -0.2669 -0.1899  0.2194
   48MOL0     C 6515   1.600   1.280   4.671 -0.5642  0.1647  0.3535
   48MOL0     C 6516   1.494   1.237   4.566 -0.9491 -0.6056 -0.5280
   48MOL0     O 6517   1.497   1.285   4.433  0.2456 -0.0040 -0.1597
   48MOL0     C 6518   1.389   1.268   4.356 -0.2642  0.8136 -0.0534
   48MOL0     C 6519   1.358   1.138   4.302 -0.0336 -0.5075  0.9207
   48MOL0     C 6520   1.252   1.120   4.206 -0.3814  0.0314 -0.6592
   48MOL0     C 6521   1.179   1.230   4.166  0.1243 -0.2586 -0.0892
   48MOL0     O 6522   1.087   1.235   4.064 -0.3099 -0.3158 -0.0845
   48MOL0     C 6523   1.005   1.120   4.038 -0.2431  0.3494 -0.0057
   48MOL0     C 6524   0.892   1.159   3.949 -0.8542 -0.1298  0.7728
   48MOL0     C 6525   0.920   1.140   3.798 -0.1515  0.2863  0.1426
   48MOL0     C 6526   0.923   0.997   3.739 -0.3909  0.0543  0.4569
   48MOL0     C 6527   0.922   0.996   3.581  0.5397 -0.0800 -0.8097
   48MOL0     C 6528   0.931   0.850   3.531  0.2861 -0.2946 -0.3649
   48MOL0     C 6529   0.958   0.849   3.389 -0.6791 -0.7968 -0.9887
   48MOL0     C 6530   0.926   0.717   3.324  0.7790  0.4660  0.4690
   48MOL0    Cl 6531   1.017   0.699   3.173  0.3864 -0.1980  0.1039
   48MOL0     C 6532   1.207   1.357   4.222  0.7381 -0.8435 -0.2885
   48MOL0     C 6533   1.310   1.377   4.315 -0.3579 -0.3593  0.1678
   48MOL0     O 6534   1.400   1.182   4.614  0.2417  0.6424 -0.9224
   48MOL0     C 6535   1.669   1.397   4.633 -0.5959 -0.6529  0.7074
   48MOL0     C 6536   1.763   1.448   4.717 -1.0253  0.7143 -0.2560
   48MOL0     N 6537   1.695   1.290   5.455 -0.3612  0.8627 -0.6638
   48MOL0     N 6538   1.605   1.192   5.440  0.1975 -0.9853 -0.1277
   48MOL0     C 6539   2.172   0.369   5.917  0.7315  0.7892  0.2712
   48MOL0     C 6540   2.177   0.333   6.055  0.1544 -0.6032  0.4436
   48MOL0     C 6541   1.998   0.328   6.501 -0.8443  0.6422 -0.7748
   48MOL0     C 6542   1.882   0.263   6.525 -0.0984 -0.4336 -0.4652
   48MOL0     C 6543   1.850   0.229   6.659  0.1398  0.1953 -0.1369
   48MOL0     C 6544   1.954   0.246   6.759  0.5516  0.7665 -0.6600
   48MOL0     O 6545   1.936   0.203   6.894 -0.0828 -0.0152  0.4447
   48MOL0     C 6546   1.875   0.298   6.982  0.0449  0.8342  0.0099
   48MOL0     C 6547   1.889   0.275   7.126 -0.5111 -1.1986 -0.7827
   48MOL0     C 6548   1.859   0.135   7.177  0.2077 -0.1281 -0.4420
   48MOL0     C 6549   1.923   0.108   7.320  0.2881 -0.0310 -0.0881
   48MOL0     C 6550   1.862   0.193   7.415  0.7528 -0.4256 -0.0993
   48MOL0     C 6551   1.822   0.281   7.486 -0.3022  1.0519 -0.1627
   48MOL0     C 6552   2.083   0.288   6.730  0.2782  0.0401  0.6931
   48MOL0     C 6553   2.103   0.338   6.596  0.6931  0.0845 -0.3527
   48MOL0     C 6554   2.233   0.398   6.552  0.0794 -0.2356 -0.3687
   48MOL0     H 6555   1.849   0.365   6.145 -0.5199 -0.4509 -0.2580
   48MOL0     H 6556   1.828   0.436   5.919 -0.6502  4.1843  2.8319
   48MOL0     H 6557   1.968   0.619   5.714  1.2806 -0.5932 -1.4847
   48MOL0     H 6558   1.848   0.484   5.701  0.5030 -0.5222  1.1970
   48MOL0     H 6559   2.062   0.563   5.511 -0.6521  0.9673 -0.2770
   48MOL0     H 6560   1.951   0.423   5.491  0.5294 -0.9290  1.7445
   48MOL0     H 6561   1.759   0.574   5.491  0.6403 -0.8273 -1.6244
   48MOL0     H 6562   1.867   0.714   5.510  1.2617  0.2556  0.3241
   48MOL0     H 6563   1.967   0.686   5.295  1.2931 -0.1143  1.4653
   48MOL0     H 6564   1.900   0.522   5.277  1.6161  1.3494 -1.2905
   48MOL0     H 6565   1.672   0.621   5.262 -0.5652 -0.3327  0.4681
   48MOL0     H 6566   1.787   0.692   5.144  1.9284 -1.1698  1.9400
   48MOL0     H 6567   1.679   0.816   5.399 -1.3433 -0.9327 -0.3061
   48MOL0     H 6568   1.806   0.901   5.302 -0.1688  0.0787 -0.6988
   48MOL0     H 6569   1.550   0.821   5.190  1.2183 -0.0818  1.8941
   48MOL0     H 6570   1.677   0.913   5.108 -1.0940  2.6025 -0.8409
   48MOL0     H 6571   1.509   1.068   5.189  0.8900 -2.8386 -0.4031
   48MOL0     H 6572   1.490   1.006   5.348  1.1434  3.7999  2.0246
   48MOL0     H 6573   1.804   1.157   5.181 -1.0135 -1.7331 -0.8209
   48MOL0     H 6574   1.981   1.360   5.414  1.8377  3.1820 -0.6779
   48MOL0     H 6575   1.863   1.480   5.410  0.7388 -2.1796  2.3676
   48MOL0     H 6576   2.022   1.484   5.209 -0.1249 -0.1614 -0.1314
   48MOL0     H 6577   1.939   1.351   5.134 -2.7633 -0.0976 -0.0298
   48MOL0     H 6578   1.708   1.449   5.139 -2.6315  4.2238  0.5605
   48MOL0     H 6579   1.768   1.600   5.192 -0.7217  2.2462 -3.0649
   48MOL0     H 6580   1.729   1.594   4.943  1.5471  3.1180 -1.0741
   48MOL0     H 6581   1.883   1.650   4.987 -3.6431  2.3889  1.5202
   48MOL0     H 6582   1.729   1.247   4.976 -1.2869 -2.0919 -0.8451
   48MOL0     H 6583   1.593   1.005   4.825  1.7223  0.0681  2.0255
   48MOL0     H 6584   1.440   1.087   4.833 -0.2388  2.9978 -1.5121
   48MOL0     H 6585   1.549   1.108   4.969  2.6678  4.9462 -0.0909
   48MOL0     H 6586   1.416   1.049   4.325  1.0865 -0.4577 -1.3723
   48MOL0     H 6587   1.254   1.015   4.180  1.3496 -0.4101  0.9891
   48MOL0     H 6588   1.064   1.042   3.989 -1.6692 -1.6473  1.3398
   48MOL0     H 6589   0.965   1.074   4.128  1.5572  0.8650  1.1057
   48MOL0     H 6590   0.804   1.096   3.968 -0.9891  0.3993  1.9692
   48MOL0     H 6591   0.863   1.261   3.978 -0.2477  0.4309 -0.5112
   48MOL0     H 6592   1.014   1.193   3.776  1.4012 -1.6279  1.7300
   48MOL0     H 6593   0.840   1.187   3.741  0.0292 -0.2463 -0.5678
   48MOL0     H 6594   0.831   0.945   3.769 -1.5642  1.0864 -1.2000
   48MOL0     H 6595   1.008   0.946   3.786  1.2073 -0.6465 -2.9533
   48MOL0     H 6596   0.826   1.029   3.541 -0.0037 -1.7453 -0.9655
   48MOL0     H 6597   1.013   1.049   3.552  0.4994  1.3911  1.5062
   48MOL0     H 6598   0.836   0.801   3.554 -1.8145  1.9176 -3.5843
   48MOL0     H 6599   1.017   0.808   3.584  1.1987  4.3216  2.4472
   48MOL0     H 6600   1.063   0.872   3.373  0.6077 -3.2070  2.7217
   48MOL0     H 6601   0.902   0.932   3.345 -1.0823  0.7185  2.1350
   48MOL0     H 6602   0.820   0.701   3.301  1.8376 -0.3577 -5.4567
   48MOL0     H 6603   0.953   0.638   3.394 -2.7455 -0.2563  1.2012
   48MOL0     H 6604   1.146   1.443   4.196  1.3043 -0.2047  0.4464
   48MOL0     H 6605   1.327   1.479   4.349 -1.2322 -0.1078 -0.1032
   48MOL0     H 6606   1.655   1.449   4.538  3.3711  1.0280  0.8589
   48MOL0     H 6607   1.822   1.534   4.688 -0.1008  0.4125  0.6977
   48MOL0     H 6608   2.253   0.343   5.848  0.6867 -2.3068  1.2159
   48MOL0     H 6609   2.271   0.294   6.095  0.5418  0.5175  0.6537
   48MOL0     H 6610   1.813   0.231   6.448  0.6647  0.0241 -1.3501
   48MOL0     H 6611   1.757   0.181   6.688  1.5551 -1.7588  1.3799
   48MOL0     H 6612   1.913   0.395   6.949  1.6980  0.4605  0.7098
   48MOL0     H 6613   1.768   0.287   6.962  0.2615  0.6899 -1.1782
   48MOL0     H 6614   1.829   0.353   7.175  0.9800 -0.3958 -0.1882
   48MOL0     H 6615   1.995   0.297   7.136 -0.4464 -0.9096 -1.9565
   48MOL0     H 6616   1.751   0.119   7.180  0.7432 -5.7582 -0.4384
   48MOL0     H 6617   1.904   0.055   7.116  2.0299 -0.1352  0.8441
   48MOL0     H 6618   2.031   0.127   7.317 -0.0637  2.1166 -1.9270
   48MOL0     H 6619   1.913   0.007   7.360  4.3989  0.5482  3.2077
   48MOL0     H 6620   1.809   0.374   7.538  3.0107  0.5134  1.9271
   48MOL0     H 6621   2.164   0.284   6.802  2.4055 -2.1744 -1.6344
   48MOL0     H 6622   2.317   0.331   6.573 -0.6211 -1.8058 -2.2486
   48MOL0     H 6623   2.251   0.413   6.445  1.4896 -1.5069 -0.3437
   48MOL0     H 6624   2.252   0.502   6.580  2.7878 -0.0566 -2.4743
   49MOL0     O 6625   2.217   4.705   0.845 -0.3604  0.1436 -0.7356
   49MOL0     C 6626   2.157   4.812   0.834  0.2304 -1.0034  0.4167
   49MOL0     O 6627   2.120   4.895   0.932  0.9595 -0.5105 -0.1756
   49MOL0     C 6628   2.144   4.843   1.054 -0.3515  0.9336 -1.0253
   49MOL0     C 6629   2.253   4.874   1.126 -0.2018 -0.1736 -0.3398
   49MOL0     C 6630   2.258   4.821   1.259  1.1202  1.4515  0.6198
   49MOL0     C 6631   2.161   4.730   1.306 -0.4852 -1.3292  0.0500
   49MOL0     O 6632   2.189   4.688   1.435 -0.9153  0.3656  0.9394
   49MOL0     C 6633   2.099   4.597   1.486 -0.5063 -0.3274  1.0951
   49MOL0     C 6634   2.128   4.544   1.620  0.1876  0.6756 -0.9788
   49MOL0     C 6635   2.258   4.465   1.646 -1.0623  0.3172 -0.3437
   49MOL0     C 6636   2.262   4.400   1.782  0.5884 -0.5309  0.9215
   49MOL0     C 6637   2.388   4.311   1.799  0.0605  1.7475  0.4246
   49MOL0     C 6638   2.378   4.184   1.891  0.3548 -0.1378 -0.0994
   49MOL0     C 6639   2.525   4.140   1.935  0.1934  0.0649  0.7246
   49MOL0     C 6640   2.539   4.004   1.997 -0.8010 -0.1559  0.5983
   49MOL0     N 6641   2.424   3.950   2.072 -0.0095  1.5991 -0.2953
   49MOL0     C 6642   2.370   3.830   2.028 -0.2792 -0.6635 -0.1183
   49MOL0     C 6643   2.264   3.822   2.113 -0.1801  0.2417  0.4473
   49MOL0     C 6644   2.177   3.708   2.144  0.0080  1.3277  0.0111
   49MOL0     C 6645   2.164   3.677   2.294  0.3141  0.0653 -0.0168
   49MOL0     C 6646   2.087   3.551   2.304 -0.5032  0.1925  0.4686
   49MOL0     C 6647   2.088   3.515   2.444 -0.2346  0.8549  0.3254
   49MOL0     O 6648   2.214   3.458   2.483 -0.4021 -0.1004 -0.6972
   49MOL0     C 6649   2.246   3.411   2.613  0.3677  0.6688 -0.9632
   49MOL0     C 6650   2.378   3.420   2.650 -0.0994 -0.5527 -0.5821
   49MOL0     C 6651   2.422   3.375   2.780  0.3775  0.6761  0.0806
   49MOL0     C 6652   2.569   3.393   2.808 -0.2842 -0.2375 -0.3293
   49MOL0     C 6653   2.328   3.314   2.866 -0.4132 -0.1934 -1.3031
   49MOL0     C 6654   2.365   3.244   2.995 -0.5703  0.0661 -0.2823
   49MOL0     O 6655   2.493   3.207   3.019  0.1718  0.0709 -0.0909
   49MOL0     C 6656   2.534   3.163   3.136  0.3853 -0.5665  0.4349
   49MOL0     C 6657   2.472   3.058   3.203 -0.2932  0.3962  0.2289
   49MOL0     C 6658   2.525   3.011   3.324  0.7378 -0.6068 -0.0767
   49MOL0     C 6659   2.633   3.078   3.384 -0.6600 -0.1830 -0.2389
   49MOL0     O 6660   2.679   3.054   3.515  0.6642 -0.0361 -0.4627
   49MOL0     C 6661   2.580   3.079   3.606  0.9294  0.8816  0.5093
   49MOL0     C 6662   2.652   3.084   3.746 -0.0544  0.7701  0.0194
   49MOL0     C 6663   2.553   3.103   3.864  0.8970 -0.4188  0.3523
   49MOL0     C 6664   2.604   3.093   4.007 -0.6401 -0.0338 -0.5915
   49MOL0     C 6665   2.512   3.156   4.124  0.3658  0.5058  0.0761
   49MOL0     C 6666   2.369   3.108   4.142  0.5787  0.3291 -0.5732
   49MOL0     C 6667   2.353   2.986   4.225  0.0044  0.5097 -0.4944
   49MOL0     C 6668   2.204   2.941   4.247 -1.0812 -0.6362 -0.6259
   49MOL0    Cl 6669   2.089   3.076   4.290 -0.1581 -0.2561 -0.3130
   49MOL0     C 6670   2.699   3.187   3.307  0.3396  0.7798  1.1563
   49MOL0     C 6671   2.658   3.218   3.175 -0.5497 -0.0165 -0.1059
   49MOL0     O 6672   2.269   3.230   3.071 -0.3484 -0.0389  0.0566
   49MOL0     C 6673   2.191   3.313   2.828  0.3997 -0.1223  0.2719
   49MOL0     C 6674   2.150   3.368   2.709  0.2412 -0.2231  0.8252
   49MOL0     N 6675   2.256   3.935   2.191  0.1793  0.0736  0.0385
   49MOL0     N 6676   2.360   4.008   2.174  1.0249 -0.2220  0.4168
   49MOL0     C 6677   2.046   4.714   1.232 -1.0516 -0.0375 -0.3522
   49MOL0     C 6678   2.039   4.777   1.113  0.0185  0.4136 -0.4193
   49MOL0     C 6679   2.158   4.857   0.689  0.6210  0.3916  0.4714
   49MOL0     C 6680   2.271   4.850   0.603 -0.4130 -1.8182 -0.0619
   49MOL0     C 6681   2.263   4.877   0.464 -0.3033  0.0679  0.0210
   49MOL0     C 6682   2.144   4.910   0.402 -1.3510 -1.2265  0.3517
   49MOL0     O 6683   2.161   4.951   0.271  1.2364  0.3092  0.2637
   49MOL0     C 6684   2.077   5.048   0.199 -0.1551 -0.3648 -0.9128
   49MOL0     C 6685   2.173   5.161   0.194 -0.2358  0.1623  0.2032
   49MOL0     C 6686   2.196   5.253   0.325  0.3229 -0.8315  0.8177
   49MOL0     C 6687   2.291   5.377   0.296  0.2229  0.1224 -0.2819
   49MOL0     C 6688   2.317   5.451   0.422  1.2320 -0.8216 -0.1112
   49MOL0     C 6689   2.335   5.514   0.524  0.2862 -0.2881 -0.7934
   49MOL0     C 6690   2.028   4.929   0.476  0.2136 -0.0276  0.1146
   49MOL0     C 6691   2.032   4.900   0.619  0.0704  0.6105  0.3622
   49MOL0     C 6692   1.902   4.909   0.698 -0.6639  0.3039 -0.1695
   49MOL0     H 6693   2.335   4.936   1.091  0.5841 -1.5463 -1.0298
   49MOL0     H 6694   2.336   4.850   1.328  0.9210 -1.4557  2.2110
   49MOL0     H 6695   2.084   4.515   1.415 -1.4622 -0.3740  1.3411
   49MOL0     H 6696   2.001   4.644   1.496 -1.0677 -0.5921 -2.1057
   49MOL0     H 6697   2.141   4.634   1.681  0.7460 -0.3337  0.4761
   49MOL0     H 6698   2.043   4.482   1.648  0.5676  1.4240  2.3074
   49MOL0     H 6699   2.283   4.396   1.565 -1.2916  1.2944 -1.2742
   49MOL0     H 6700   2.332   4.545   1.642 -0.1236 -0.5781 -1.9443
   49MOL0     H 6701   2.261   4.461   1.873  2.6474 -0.0887  0.7120
   49MOL0     H 6702   2.180   4.328   1.783  1.6506 -1.8660  3.7663
   49MOL0     H 6703   2.466   4.369   1.848 -0.7762  1.4585  2.2015
   49MOL0     H 6704   2.422   4.281   1.699  1.5179 -2.6876  1.9852
   49MOL0     H 6705   2.323   4.227   1.976  0.7182  2.4447 -1.0968
   49MOL0     H 6706   2.332   4.096   1.846  3.8854 -1.1348 -2.1291
   49MOL0     H 6707   2.557   4.222   1.999 -0.2826  2.9098 -2.3766
   49MOL0     H 6708   2.606   4.138   1.861  0.8914 -2.3777  1.4477
   49MOL0     H 6709   2.576   3.930   1.925 -0.4492  1.0511 -0.4880
   49MOL0     H 6710   2.616   4.006   2.075 -1.2864 -0.5039  1.0948
   49MOL0     H 6711   2.403   3.756   1.955  0.6797  2.3500 -2.9882
   49MOL0     H 6712   2.226   3.620   2.101  0.3666  0.8198  1.3776
   49MOL0     H 6713   2.079   3.720   2.098  0.3515 -1.6912 -1.7498
   49MOL0     H 6714   2.264   3.672   2.339  0.1361 -1.8858  0.2389
   49MOL0     H 6715   2.107   3.761   2.335  0.5014  1.0520 -1.6755
   49MOL0     H 6716   1.986   3.555   2.260 -1.5267  0.3365  2.6950
   49MOL0     H 6717   2.151   3.485   2.244 -0.6197 -1.3406  1.9469
   49MOL0     H 6718   2.061   3.596   2.512  0.7346  0.7522  0.8527
   49MOL0     H 6719   2.007   3.442   2.456 -0.1424  0.6398 -0.3169
   49MOL0     H 6720   2.436   3.453   2.564 -3.4766  1.7871 -2.1700
   49MOL0     H 6721   2.616   3.296   2.794 -1.2474 -0.6847 -0.5962
   49MOL0     H 6722   2.574   3.425   2.912 -2.6821  0.4234 -0.3639
   49MOL0     H 6723   2.608   3.470   2.740  3.5407 -1.4556  0.2473
   49MOL0     H 6724   2.372   3.028   3.172 -0.9085 -0.3337  2.6527
   49MOL0     H 6725   2.454   2.946   3.375 -1.6110  1.6877 -0.1788
   49MOL0     H 6726   2.536   3.179   3.602 -1.8553 -0.2201  1.1399
   49MOL0     H 6727   2.504   3.001   3.606  1.1816  0.6256 -0.2043
   49MOL0     H 6728   2.706   2.989   3.752 -1.5233 -0.2098 -1.4011
   49MOL0     H 6729   2.728   3.162   3.739  0.8827  0.1675  2.6025
   49MOL0     H 6730   2.464   3.040   3.850 -1.2218  2.6267 -0.9392
   49MOL0     H 6731   2.515   3.200   3.834  0.4019 -0.6402  0.2528
   49MOL0     H 6732   2.705   3.135   4.004 -1.9868  3.6420  0.1245
   49MOL0     H 6733   2.612   2.986   4.031  1.8934  0.5910  1.7906
   49MOL0     H 6734   2.579   3.154   4.210  0.4054 -0.4696  0.0281
   49MOL0     H 6735   2.503   3.258   4.085 -0.5631 -0.3861 -2.2364
   49MOL0     H 6736   2.318   3.098   4.045  0.4123  1.0228 -0.5597
   49MOL0     H 6737   2.319   3.187   4.198 -1.5596 -0.1934 -1.6140
   49MOL0     H 6738   2.397   3.001   4.324 -1.3815  1.0033  0.0848
   49MOL0     H 6739   2.408   2.903   4.180 -2.7565 -2.2101  0.7162
   49MOL0     H 6740   2.195   2.869   4.329 -0.3906  1.8602  1.7766
   49MOL0     H 6741   2.167   2.889   4.158  3.3471 -2.0562 -1.8950
   49MOL0     H 6742   2.789   3.226   3.352  1.8051 -0.8799 -0.1930
   49MOL0     H 6743   2.698   3.295   3.111 -0.9162 -0.8151 -1.3346
   49MOL0     H 6744   2.120   3.285   2.905  0.6959  1.2273  1.0803
   49MOL0     H 6745   2.042   3.366   2.694  0.1886 -3.0537  1.1025
   49MOL0     H 6746   1.962   4.649   1.255 -1.2026 -0.5879 -2.2554
   49MOL0     H 6747   1.952   4.768   1.048  1.7047  1.5377 -3.0021
   49MOL0     H 6748   2.371   4.835   0.640  0.2227 -1.0429 -1.3756
   49MOL0     H 6749   2.347   4.869   0.396 -1.2760  0.3817 -1.2586
   49MOL0     H 6750   2.051   5.022   0.096 -0.1029  1.4963 -1.4260
   49MOL0     H 6751   1.982   5.072   0.247  0.6382  1.2185 -0.0574
   49MOL0     H 6752   2.134   5.240   0.128 -1.0776  1.1130  1.7784
   49MOL0     H 6753   2.267   5.129   0.146  0.1840 -0.5674  1.4697
   49MOL0     H 6754   2.099   5.297   0.350  0.0550 -1.5368  1.0280
   49MOL0     H 6755   2.234   5.206   0.416  0.5414 -0.3923  0.9595
   49MOL0     H 6756   2.237   5.436   0.222 -1.2751  0.6159  1.1532
   49MOL0     H 6757   2.379   5.342   0.240 -0.8660  1.2620 -2.8692
   49MOL0     H 6758   2.350   5.573   0.612 -1.1787  0.4314 -1.0115
   49MOL0     H 6759   1.948   4.954   0.407  0.4790  1.1788  0.2214
   49MOL0     H 6760   1.860   4.809   0.712  3.6494 -1.2696  4.5756
   49MOL0     H 6761   1.930   4.942   0.799  4.0824 -5.4403  0.9696
   49MOL0     H 6762   1.831   4.972   0.644  0.9477  1.5326 -0.9270
   50MOL0     O 6763   4.944   5.172   6.950  0.0054  0.1849  0.2024
   50MOL0     C 6764   4.881   5.088   7.015  0.3466 -0.7140 -0.2701
   50MOL0     O 6765   4.831   4.972   6.968  0.2446 -0.6902  0.9710
   50MOL0     C 6766   4.849   4.945   6.832  0.9751  0.3718  1.2401
   50MOL0     C 6767   4.891   4.814   6.795 -0.0551  0.9685  0.1058
   50MOL0     C 6768   4.907   4.780   6.663  0.7287 -1.1611  0.6128
   50MOL0     C 6769   4.863   4.870   6.562  0.3943 -1.1003 -0.2972
   50MOL0     O 6770   4.874   4.832   6.428 -0.2624  0.5140 -1.1366
   50MOL0     C 6771   4.904   4.933   6.332 -0.5088 -0.3601 -1.1087
   50MOL0     C 6772   4.963   4.867   6.209 -0.8926 -0.9868  0.3510
   50MOL0     C 6773   4.872   4.766   6.153 -1.8114  0.6037 -0.0226
   50MOL0     C 6774   4.949   4.707   6.038  0.4958  0.6927  0.1896
   50MOL0     C 6775   4.882   4.593   5.973  1.1011  0.6643  0.0252
   50MOL0     C 6776   4.919   4.564   5.828 -0.0794  0.0522 -0.0068
   50MOL0     C 6777   4.858   4.440   5.785  0.1828  0.2787  0.4326
   50MOL0     C 6778   4.911   4.406   5.643  0.6712  0.2987  0.0080
   50MOL0     N 6779   4.817   4.439   5.536  0.1032  0.2323 -0.4563
   50MOL0     C 6780   4.718   4.349   5.500  0.5567 -0.3117  1.0344
   50MOL0     C 6781   4.627   4.418   5.425  0.5137  0.3934 -0.2269
   50MOL0     C 6782   4.501   4.362   5.363 -0.0438  0.7019  0.5297
   50MOL0     C 6783   4.518   4.342   5.216  0.8235 -0.9657  0.3201
   50MOL0     C 6784   4.498   4.474   5.139  0.0200  0.0789  0.1680
   50MOL0     C 6785   4.550   4.477   4.998  0.1506  0.6780 -0.6827
   50MOL0     O 6786   4.467   4.392   4.924 -0.1308  0.5078  0.0608
   50MOL0     C 6787   4.447   4.432   4.791 -0.7396  0.4822 -0.3419
   50MOL0     C 6788   4.365   4.542   4.760 -0.2844  0.3188 -0.3281
   50MOL0     C 6789   4.360   4.599   4.636  1.1646 -0.7258 -0.4868
   50MOL0     C 6790   4.294   4.737   4.635 -0.4999  0.0720  1.3968
   50MOL0     C 6791   4.413   4.522   4.525  0.0618 -0.1755  0.9843
   50MOL0     C 6792   4.407   4.569   4.389  0.7314  0.8286  0.3640
   50MOL0     O 6793   4.294   4.652   4.353 -0.1029 -0.4021 -0.3112
   50MOL0     C 6794   4.313   4.715   4.228 -0.4350  0.9983 -0.0135
   50MOL0     C 6795   4.391   4.833   4.222 -0.1141  0.4510 -0.0872
   50MOL0     C 6796   4.410   4.891   4.095 -0.1928 -0.1990  0.1639
   50MOL0     C 6797   4.365   4.842   3.981  0.1725 -0.9094  0.1251
   50MOL0     O 6798   4.414   4.913   3.869  0.6033 -0.5840  0.6081
   50MOL0     C 6799   4.403   4.867   3.727  0.6392 -1.0963 -0.7349
   50MOL0     C 6800   4.506   4.953   3.656  0.2107 -0.2316  0.8825
   50MOL0     C 6801   4.517   4.929   3.505  0.6396  0.6660 -0.0932
   50MOL0     C 6802   4.621   4.827   3.466  0.1076  0.3063 -0.8446
   50MOL0     C 6803   4.628   4.796   3.321  0.2136 -0.9458  0.4859
   50MOL0     C 6804   4.746   4.692   3.288 -0.2960 -0.4885 -0.3904
   50MOL0     C 6805   4.774   4.668   3.136 -0.3902  0.1149  0.7514
   50MOL0     C 6806   4.654   4.611   3.062  0.0616  0.6520  0.0422
   50MOL0    Cl 6807   4.701   4.559   2.884 -0.1169  0.0338  0.3235
   50MOL0     C 6808   4.276   4.723   3.981 -0.0259 -0.5283  0.5788
   50MOL0     C 6809   4.249   4.667   4.108  0.5555 -0.7820  0.0531
   50MOL0     O 6810   4.498   4.535   4.319  0.6458 -0.5185  0.2139
   50MOL0     C 6811   4.478   4.404   4.555 -0.4644  0.4529 -0.5191
   50MOL0     C 6812   4.503   4.360   4.685 -0.0807 -0.0230 -0.5200
   50MOL0     N 6813   4.671   4.548   5.426  1.1303 -0.0298 -0.4478
   50MOL0     N 6814   4.781   4.561   5.494  0.0835 -0.2785  0.1735
   50MOL0     C 6815   4.828   5.003   6.596 -0.3819  0.5144 -0.1451
   50MOL0     C 6816   4.826   5.039   6.732  0.3577 -0.4917  0.2392
   50MOL0     C 6817   4.850   5.103   7.160 -0.9897  0.1523 -0.1073
   50MOL0     C 6818   4.741   5.025   7.215 -0.2784 -0.0316  0.0164
   50MOL0     C 6819   4.693   5.061   7.338 -0.5192 -0.4968 -0.3964
   50MOL0     C 6820   4.750   5.157   7.413 -0.9305 -0.6424  0.0446
   50MOL0     O 6821   4.695   5.192   7.538  0.0062  0.0715 -0.6884
   50MOL0     C 6822   4.790   5.181   7.651 -0.6206  1.1888  0.1685
   50MOL0     C 6823   4.754   5.276   7.759  0.1652  0.4007 -0.5679
   50MOL0     C 6824   4.862   5.283   7.872  0.0257  0.9611 -0.2474
   50MOL0     C 6825   4.829   5.381   7.977 -0.5331 -0.7096  0.3893
   50MOL0     C 6826   4.848   5.512   7.918 -0.7142 -1.3629 -0.5453
   50MOL0     C 6827   4.846   5.631   7.883  0.1909 -0.4551 -0.3060
   50MOL0     C 6828   4.869   5.226   7.363  1.0540  0.3272  0.7584
   50MOL0     C 6829   4.918   5.198   7.238  0.0562  0.4732  0.3296
   50MOL0     C 6830   5.053   5.264   7.201  0.8018 -0.0760 -0.0876
   50MOL0     H 6831   4.898   4.723   6.853 -2.2028  1.6144  1.4937
   50MOL0     H 6832   4.928   4.682   6.622  1.2006  0.3494 -3.1201
   50MOL0     H 6833   4.973   5.007   6.374  0.2772 -0.8906 -1.4348
   50MOL0     H 6834   4.811   4.983   6.307 -0.2492  0.3796 -0.6373
   50MOL0     H 6835   4.991   4.943   6.135  0.7254 -1.3877  0.5027
   50MOL0     H 6836   5.059   4.818   6.231  0.7478  1.4812 -0.8655
   50MOL0     H 6837   4.851   4.684   6.222 -0.2740 -1.9702 -2.4432
   50MOL0     H 6838   4.779   4.814   6.120 -1.6334 -0.9003 -2.9903
   50MOL0     H 6839   4.969   4.783   5.962  2.4787 -0.3049 -0.3739
   50MOL0     H 6840   5.048   4.672   6.069 -0.5321 -1.8621  0.8100
   50MOL0     H 6841   4.773   4.593   5.976  1.1123  2.0022  1.6795
   50MOL0     H 6842   4.906   4.513   6.043  0.1666  2.0255  1.9898
   50MOL0     H 6843   4.890   4.639   5.754 -0.5500 -0.7586 -0.6667
   50MOL0     H 6844   5.028   4.553   5.825 -0.3322 -4.4735 -3.3944
   50MOL0     H 6845   4.749   4.446   5.788  0.1873  2.4801 -1.2686
   50MOL0     H 6846   4.872   4.362   5.860 -3.2940 -1.3299 -0.3719
   50MOL0     H 6847   4.997   4.471   5.624 -0.4603  1.2733 -2.0752
   50MOL0     H 6848   4.937   4.300   5.646  1.0878  0.4234  1.8755
   50MOL0     H 6849   4.711   4.244   5.525  0.3546 -1.6540 -3.8245
   50MOL0     H 6850   4.421   4.432   5.390 -0.7867 -0.3097  0.9956
   50MOL0     H 6851   4.482   4.263   5.405 -0.2794  0.1670 -0.8083
   50MOL0     H 6852   4.612   4.290   5.193  0.4869 -1.3995 -0.1172
   50MOL0     H 6853   4.442   4.272   5.179 -1.8856  2.2197 -0.6600
   50MOL0     H 6854   4.395   4.510   5.132  0.0494 -0.1255 -2.7615
   50MOL0     H 6855   4.546   4.554   5.196 -0.0576 -0.4754  1.0217
   50MOL0     H 6856   4.544   4.578   4.956 -3.3432  3.1170  4.6426
   50MOL0     H 6857   4.656   4.451   4.992  0.9294  2.6329  2.4471
   50MOL0     H 6858   4.323   4.579   4.853  1.9746 -2.1967  1.8303
   50MOL0     H 6859   4.313   4.778   4.535 -2.6081  2.2163  1.8147
   50MOL0     H 6860   4.330   4.807   4.710  0.0049  0.9571  0.3578
   50MOL0     H 6861   4.187   4.722   4.647 -0.7467  0.1226 -0.4486
   50MOL0     H 6862   4.437   4.873   4.312  0.5428  3.5369 -1.6616
   50MOL0     H 6863   4.472   4.979   4.083  0.7452 -1.2386 -3.9473
   50MOL0     H 6864   4.424   4.762   3.706  3.8416 -0.6159 -0.4177
   50MOL0     H 6865   4.309   4.894   3.678  1.9533  0.6733 -2.4717
   50MOL0     H 6866   4.479   5.058   3.670 -2.5361 -0.7934  0.3444
   50MOL0     H 6867   4.608   4.933   3.690  0.9314  0.4972 -0.7450
   50MOL0     H 6868   4.547   5.025   3.463 -1.9600  1.6613  0.1750
   50MOL0     H 6869   4.419   4.904   3.464  0.7269 -0.2982  0.2671
   50MOL0     H 6870   4.607   4.734   3.521 -1.7204  0.5107 -0.9120
   50MOL0     H 6871   4.720   4.867   3.491 -0.0867  0.3385 -0.1078
   50MOL0     H 6872   4.536   4.742   3.301 -1.0685  1.4007 -0.4372
   50MOL0     H 6873   4.627   4.885   3.256  0.0439 -1.4688 -0.2357
   50MOL0     H 6874   4.728   4.590   3.321  2.1577 -1.3469 -1.4431
   50MOL0     H 6875   4.832   4.744   3.333 -1.6159  0.7695  0.7864
   50MOL0     H 6876   4.852   4.592   3.126 -3.2270 -2.9789  0.6448
   50MOL0     H 6877   4.811   4.760   3.088  1.8490 -1.5182 -0.9034
   50MOL0     H 6878   4.580   4.691   3.059 -0.3795  0.2226 -1.2045
   50MOL0     H 6879   4.616   4.524   3.115  3.1017  0.7856  2.8036
   50MOL0     H 6880   4.248   4.688   3.882  0.1675  0.9337 -0.0223
   50MOL0     H 6881   4.197   4.573   4.127  0.4138 -0.6484  0.3472
   50MOL0     H 6882   4.523   4.343   4.477  2.3638  0.6557  0.8232
   50MOL0     H 6883   4.570   4.276   4.695  1.2161  0.9534 -0.6921
   50MOL0     H 6884   4.801   5.072   6.517 -3.1922  1.2006  1.2856
   50MOL0     H 6885   4.796   5.144   6.737  0.7527 -0.4441  2.7583
   50MOL0     H 6886   4.689   4.957   7.147 -0.0950 -0.3983  0.2381
   50MOL0     H 6887   4.606   5.009   7.378  0.9175 -1.5714  1.4883
   50MOL0     H 6888   4.782   5.084   7.700 -3.0104  1.9646  1.4732
   50MOL0     H 6889   4.891   5.196   7.612 -0.6168  1.6537  0.3558
   50MOL0     H 6890   4.654   5.257   7.799  0.5371 -3.1017 -1.0492
   50MOL0     H 6891   4.743   5.373   7.709 -4.0405  0.1379 -0.5115
   50MOL0     H 6892   4.860   5.186   7.923  2.8820  0.0874 -1.5825
   50MOL0     H 6893   4.964   5.302   7.836  0.6330 -0.2959  0.7360
   50MOL0     H 6894   4.877   5.380   8.075 -1.8351  1.2161  1.0977
   50MOL0     H 6895   4.724   5.374   8.004  0.0191 -1.1994  2.5774
   50MOL0     H 6896   4.866   5.725   7.836 -0.4693 -1.0524 -1.8600
   50MOL0     H 6897   4.912   5.310   7.416 -3.1662  1.5116  2.8034
   50MOL0     H 6898   5.109   5.290   7.291  2.1529  0.3713 -1.0140
   50MOL0     H 6899   5.109   5.195   7.138 -0.7144  0.6072 -2.3677
   50MOL0     H 6900   5.030   5.357   7.147  0.6403 -1.5624 -2.7973
   51MOL0     O 6901   6.227   3.402   3.680  0.8765 -0.3650  0.3656
   51MOL0     C 6902   6.276   3.370   3.576 -0.1474 -0.0927  0.3499
   51MOL0     O 6903   6.403   3.403   3.532  0.2941  0.7092  0.5460
   51MOL0     C 6904   6.479   3.500   3.588  0.3298 -0.5794  0.1298
   51MOL0     C 6905   6.628   3.485   3.583 -0.2673  0.5767  0.1778
   51MOL0     C 6906   6.713   3.572   3.642  0.0007 -0.2968  0.2506
   51MOL0     C 6907   6.663   3.678   3.718  0.8476  0.9126 -0.3603
   51MOL0     O 6908   6.756   3.761   3.779  0.1104 -0.6777 -0.8275
   51MOL0     C 6909   6.744   3.791   3.919  0.7811 -0.3263  0.7511
   51MOL0     C 6910   6.653   3.917   3.939  0.6252 -1.8078 -0.1145
   51MOL0     C 6911   6.717   4.022   4.044  0.7709 -0.3543  0.2831
   51MOL0     C 6912   6.704   3.982   4.190 -0.4427  0.1713 -0.0909
   51MOL0     C 6913   6.714   4.103   4.286  0.1344 -0.7665  0.1537
   51MOL0     C 6914   6.781   4.070   4.419  0.6346  0.3847 -2.1175
   51MOL0     C 6915   6.766   3.927   4.484  0.1932  0.7141 -0.5088
   51MOL0     C 6916   6.766   3.914   4.634 -0.7949  0.2161  1.0994
   51MOL0     N 6917   6.892   3.961   4.692 -0.2137 -0.3168 -0.7172
   51MOL0     C 6918   6.914   4.096   4.724  0.5245 -0.0057  0.1988
   51MOL0     C 6919   7.042   4.098   4.767 -0.3880  0.6159 -0.5283
   51MOL0     C 6920   7.134   4.208   4.813  0.3836  0.8109 -0.2524
   51MOL0     C 6921   7.185   4.161   4.957 -0.5189  0.7534  0.6021
   51MOL0     C 6922   7.264   4.279   5.014 -0.7888  0.4045 -0.5421
   51MOL0     C 6923   7.357   4.215   5.120  0.0321  0.2714  0.7374
   51MOL0     O 6924   7.285   4.129   5.213 -0.1153 -0.3762 -0.0880
   51MOL0     C 6925   7.346   4.079   5.315 -0.1774  0.0551 -0.6372
   51MOL0     C 6926   7.485   4.078   5.342 -0.3165  0.9733  0.4551
   51MOL0     C 6927   7.542   4.018   5.455  0.1741 -0.5539 -0.4084
   51MOL0     C 6928   7.687   4.054   5.478 -0.0778 -0.4802 -0.3827
   51MOL0     C 6929   7.459   3.963   5.550  0.0551 -0.3394 -0.5612
   51MOL0     C 6930   7.518   3.912   5.671  0.6014 -0.3942  0.5330
   51MOL0     O 6931   7.442   3.948   5.777 -0.2276  0.2912 -0.4671
   51MOL0     C 6932   7.465   3.894   5.904  0.4899 -0.7596  0.2505
   51MOL0     C 6933   7.399   3.778   5.946 -0.2062  0.5045  1.2889
   51MOL0     C 6934   7.440   3.706   6.064 -0.2305 -0.2984  0.4553
   51MOL0     C 6935   7.535   3.763   6.147  0.5100 -0.4665 -0.1386
   51MOL0     O 6936   7.595   3.702   6.261  0.1277 -0.2865 -0.0869
   51MOL0     C 6937   7.580   3.556   6.277  0.6417  0.3488 -0.5424
   51MOL0     C 6938   7.681   3.486   6.185  0.0288 -0.0836 -0.0450
   51MOL0     C 6939   7.642   3.347   6.162  0.3955  0.1607  0.5079
   51MOL0     C 6940   7.644   3.274   6.302  0.0184  0.1687  0.1107
   51MOL0     C 6941   7.671   3.118   6.280  0.1209  0.5359 -0.5167
   51MOL0     C 6942   7.723   3.056   6.416  0.3744 -0.4399  0.9591
   51MOL0     C 6943   7.644   3.109   6.546  0.6190  1.2790  0.4794
   51MOL0     C 6944   7.719   3.045   6.669  0.3607  0.5610  0.6969
   51MOL0    Cl 6945   7.880   3.112   6.672  0.0404  0.0684  0.6115
   51MOL0     C 6946   7.594   3.880   6.102 -0.5523 -0.1250 -0.6101
   51MOL0     C 6947   7.564   3.944   5.990 -0.7141 -0.2945  0.4665
   51MOL0     O 6948   7.604   3.828   5.674  0.7432  0.1990 -0.3026
   51MOL0     C 6949   7.322   3.951   5.527 -0.0861 -0.0405  0.0370
   51MOL0     C 6950   7.272   4.017   5.416 -0.2084 -0.3331 -0.2482
   51MOL0     N 6951   7.091   3.966   4.747  0.6545 -0.2666  0.3462
   51MOL0     N 6952   7.002   3.882   4.706  0.3279 -0.3792  1.0114
   51MOL0     C 6953   6.521   3.698   3.724 -0.6026 -0.3508  0.0332
   51MOL0     C 6954   6.433   3.617   3.658  1.0914 -0.4537 -0.1567
   51MOL0     C 6955   6.198   3.277   3.478  0.1613 -1.1469 -0.4669
   51MOL0     C 6956   6.064   3.260   3.501  0.8510 -0.1243 -0.2167
   51MOL0     C 6957   5.980   3.179   3.430  0.5820  0.3406 -0.3371
   51MOL0     C 6958   6.033   3.105   3.325 -0.4272 -0.0997 -0.5460
   51MOL0     O 6959   5.953   3.028   3.255 -0.4480  0.0466  0.0742
   51MOL0     C 6960   5.968   3.024   3.111  0.5823  0.1439  0.6317
   51MOL0     C 6961   5.904   3.148   3.050 -0.4256 -1.0382  0.6293
   51MOL0     C 6962   5.753   3.158   3.069  0.0463 -0.1086  0.2325
   51MOL0     C 6963   5.675   3.090   2.947 -0.4637  0.4778 -0.2977
   51MOL0     C 6964   5.539   3.063   2.988 -0.3587 -0.2060 -0.6955
   51MOL0     C 6965   5.431   3.065   3.041  0.3763 -0.2089 -0.1225
   51MOL0     C 6966   6.173   3.115   3.300 -0.0908 -0.3420 -0.0353
   51MOL0     C 6967   6.248   3.204   3.369 -1.0597  0.3822 -0.0221
   51MOL0     C 6968   6.395   3.221   3.333 -0.2597 -0.0638 -0.4226
   51MOL0     H 6969   6.671   3.399   3.533  0.0757  0.6818  0.2858
   51MOL0     H 6970   6.820   3.555   3.642 -0.3464 -3.3758  2.3223
   51MOL0     H 6971   6.847   3.798   3.956  0.8561 -1.9764  0.9327
   51MOL0     H 6972   6.697   3.706   3.969 -0.6501 -1.4429 -2.2416
   51MOL0     H 6973   6.642   3.973   3.846  0.0471  0.1631  1.0875
   51MOL0     H 6974   6.551   3.887   3.964  0.8390 -1.3927  1.3568
   51MOL0     H 6975   6.820   4.053   4.021  0.2295  2.8851  1.7280
   51MOL0     H 6976   6.662   4.116   4.045  1.7873  0.3166 -1.6261
   51MOL0     H 6977   6.608   3.931   4.204  1.0148 -3.2716 -1.3842
   51MOL0     H 6978   6.783   3.908   4.207  0.0809  0.1163 -2.4209
   51MOL0     H 6979   6.613   4.141   4.299  1.1449  1.7499  1.0936
   51MOL0     H 6980   6.779   4.180   4.244 -3.1420  1.5290 -1.1351
   51MOL0     H 6981   6.889   4.087   4.421  0.7922 -0.2535  1.8302
   51MOL0     H 6982   6.727   4.138   4.486  0.2250 -3.4319  1.9012
   51MOL0     H 6983   6.847   3.860   4.456  1.0061  1.6109 -0.3400
   51MOL0     H 6984   6.677   3.882   4.438  0.7126 -0.9327  0.0409
   51MOL0     H 6985   6.682   3.966   4.681 -0.2545  0.8140  1.4112
   51MOL0     H 6986   6.760   3.808   4.661 -0.0635  0.5341  2.5699
   51MOL0     H 6987   6.849   4.180   4.700 -2.6139 -2.6832 -1.5255
   51MOL0     H 6988   7.070   4.296   4.824  0.9106  0.9683  1.9974
   51MOL0     H 6989   7.208   4.217   4.733  0.4102 -3.8245 -1.0519
   51MOL0     H 6990   7.104   4.134   5.025 -3.2380  1.3368 -2.1832
   51MOL0     H 6991   7.248   4.075   4.932  0.6635  1.3084  1.5385
   51MOL0     H 6992   7.324   4.336   4.943  1.4785 -2.1381 -0.8375
   51MOL0     H 6993   7.194   4.347   5.063 -0.5980 -0.6427  1.2891
   51MOL0     H 6994   7.431   4.154   5.067  1.8108  2.3923  0.6294
   51MOL0     H 6995   7.410   4.289   5.180 -1.6028 -0.9293  3.9472
   51MOL0     H 6996   7.553   4.129   5.274 -1.0259  3.2907  1.4015
   51MOL0     H 6997   7.732   4.120   5.404  2.3985  0.1566  1.5491
   51MOL0     H 6998   7.738   3.958   5.478  2.9924  1.0300 -0.7476
   51MOL0     H 6999   7.710   4.101   5.574  0.0586  0.2594 -0.7680
   51MOL0     H 7000   7.320   3.720   5.898 -1.7180  1.4697  2.5028
   51MOL0     H 7001   7.384   3.616   6.089 -2.8214  1.2206  0.4764
   51MOL0     H 7002   7.587   3.526   6.382  3.3999  1.2480 -0.3984
   51MOL0     H 7003   7.477   3.529   6.250  0.8219  0.0521 -0.9387
   51MOL0     H 7004   7.665   3.535   6.089 -3.7491 -2.8420 -1.0682
   51MOL0     H 7005   7.784   3.511   6.210 -0.2938  0.8752  0.3783
   51MOL0     H 7006   7.703   3.291   6.090  1.3420 -0.7162  1.9294
   51MOL0     H 7007   7.541   3.336   6.123  0.8263  0.5362 -0.7546
   51MOL0     H 7008   7.553   3.286   6.361 -1.4015 -0.6279 -1.8019
   51MOL0     H 7009   7.718   3.318   6.370 -0.4383 -0.3628  0.9584
   51MOL0     H 7010   7.586   3.057   6.247  0.5727 -1.9511  2.4843
   51MOL0     H 7011   7.740   3.115   6.196  1.3251 -0.2721  0.4668
   51MOL0     H 7012   7.827   3.088   6.424  0.0396  0.8601  0.3749
   51MOL0     H 7013   7.716   2.947   6.406 -2.7181 -0.5105  2.6414
   51MOL0     H 7014   7.544   3.063   6.548 -0.0827  2.7496  0.8016
   51MOL0     H 7015   7.635   3.218   6.545  0.5578  1.2776 -0.9401
   51MOL0     H 7016   7.733   2.938   6.652  1.2538  0.8242 -0.3652
   51MOL0     H 7017   7.663   3.061   6.762  0.9968 -3.8012  2.0321
   51MOL0     H 7018   7.679   3.915   6.160 -1.5151  0.5063  0.4409
   51MOL0     H 7019   7.632   4.023   5.957 -1.0008 -0.7501 -1.2576
   51MOL0     H 7020   7.247   3.915   5.597  1.2461  1.1057  2.1753
   51MOL0     H 7021   7.165   4.025   5.405 -0.2937 -2.6456 -1.8476
   51MOL0     H 7022   6.493   3.781   3.788  0.4136  1.9442 -2.3132
   51MOL0     H 7023   6.327   3.642   3.663  0.9086 -1.1554 -0.3983
   51MOL0     H 7024   6.011   3.316   3.577  2.2369  1.9117 -0.6850
   51MOL0     H 7025   5.878   3.159   3.459  1.5750 -1.6446  2.1949
   51MOL0     H 7026   6.074   3.028   3.082  0.1111  0.2092 -1.2178
   51MOL0     H 7027   5.924   2.932   3.073 -0.0088  0.8407 -0.4339
   51MOL0     H 7028   5.935   3.161   2.946 -2.2409  0.9314  0.2556
   51MOL0     H 7029   5.949   3.236   3.097  1.4569 -1.1123 -0.9339
   51MOL0     H 7030   5.731   3.106   3.163 -3.9370 -0.9830 -1.0080
   51MOL0     H 7031   5.714   3.258   3.086 -4.8566 -2.1692  3.5365
   51MOL0     H 7032   5.730   3.002   2.912 -0.3225  1.3390 -2.4196
   51MOL0     H 7033   5.671   3.157   2.860 -1.7955  1.5845  0.5882
   51MOL0     H 7034   5.338   3.079   3.092  1.4133 -1.3667  2.2732
   51MOL0     H 7035   6.224   3.052   3.228  0.6455  0.4350 -0.2101
   51MOL0     H 7036   6.467   3.189   3.409  1.4319  0.5573 -1.6848
   51MOL0     H 7037   6.423   3.163   3.245 -2.3481 -2.9457  0.6732
   51MOL0     H 7038   6.430   3.323   3.311  0.8184 -0.4030 -0.3351
   52MOL0     O 7039  11.357   3.641   0.552 -0.0676 -0.1923 -0.2762
   52MOL0     C 7040  11.340   3.531   0.596  0.3368  0.3696 -0.5821
   52MOL0     O 7041  11.253   3.443   0.550 -0.6925  0.3148 -0.0643
   52MOL0     C 7042  11.164   3.459   0.450  0.3299 -0.4251 -0.6312
   52MOL0     C 7043  11.101   3.343   0.409  0.6447  0.0646 -0.4778
   52MOL0     C 7044  11.013   3.350   0.293 -0.4840  0.6162 -0.2401
   52MOL0     C 7045  10.979   3.473   0.236 -0.2365  0.0493  1.0035
   52MOL0     O 7046  10.906   3.492   0.122  0.2322  0.6177  0.1453
   52MOL0     C 7047  10.970   3.439   0.006 -0.2412 -0.5726  0.0532
   52MOL0     C 7048  10.916   3.512  -0.122  0.3477 -0.4634  1.2301
   52MOL0     C 7049  10.945   3.664  -0.132  0.5084  0.8808  0.7087
   52MOL0     C 7050  11.096   3.670  -0.172 -0.3774 -1.2125  0.1249
   52MOL0     C 7051  11.148   3.810  -0.191 -0.0612  0.0289  0.0909
   52MOL0     C 7052  11.119   3.856  -0.336  0.3839  0.6882  0.4930
   52MOL0     C 7053  11.155   3.997  -0.387  0.7379 -0.6174  0.1818
   52MOL0     C 7054  11.058   4.108  -0.341  0.0472  0.2170  0.3795
   52MOL0     N 7055  10.921   4.092  -0.393  0.6293 -0.0097 -0.9152
   52MOL0     C 7056  10.884   4.086  -0.527  0.1449  0.6850 -0.1683
   52MOL0     C 7057  10.754   4.064  -0.518  0.4093  1.8956 -0.5711
   52MOL0     C 7058  10.682   4.030  -0.646  0.1227 -0.4180 -0.1808
   52MOL0     C 7059  10.730   3.903  -0.719  0.8547  0.4587 -1.0886
   52MOL0     C 7060  10.646   3.895  -0.845  0.4717 -0.0715 -0.2030
   52MOL0     C 7061  10.709   3.792  -0.943 -0.0618  0.3150  0.0278
   52MOL0     O 7062  10.837   3.851  -0.986 -0.3153  0.3925 -0.0525
   52MOL0     C 7063  10.921   3.783  -1.071  0.0015  0.7978  0.5456
   52MOL0     C 7064  11.036   3.840  -1.106 -0.1811 -0.7525 -1.3310
   52MOL0     C 7065  11.135   3.780  -1.181  0.1348  0.3719 -0.0852
   52MOL0     C 7066  11.240   3.871  -1.230  0.3314 -0.7720  0.8349
   52MOL0     C 7067  11.128   3.643  -1.211 -0.5272 -0.5683  0.0978
   52MOL0     C 7068  11.247   3.564  -1.259  0.7911 -0.8160 -0.4717
   52MOL0     O 7069  11.214   3.437  -1.287 -0.8657 -0.0741  0.0066
   52MOL0     C 7070  11.303   3.342  -1.324 -0.3282 -1.2028  0.2590
   52MOL0     C 7071  11.382   3.279  -1.226 -1.0630  0.1261 -0.0324
   52MOL0     C 7072  11.464   3.170  -1.250 -0.1298  0.7298  0.3770
   52MOL0     C 7073  11.467   3.122  -1.384 -0.0964 -0.4830 -0.2986
   52MOL0     O 7074  11.541   3.010  -1.402  0.2525  0.2932 -0.2336
   52MOL0     C 7075  11.590   2.982  -1.536 -0.7063  0.7965 -0.6588
   52MOL0     C 7076  11.498   2.889  -1.623  1.0951  0.4945  0.6205
   52MOL0     C 7077  11.552   2.815  -1.748  0.3174 -0.0906  0.0703
   52MOL0     C 7078  11.580   2.905  -1.875  0.1544 -0.3594 -0.4810
   52MOL0     C 7079  11.639   3.056  -1.859 -0.0538  0.2535 -0.8090
   52MOL0     C 7080  11.638   3.143  -1.976 -1.1701 -0.4733  0.1229
   52MOL0     C 7081  11.706   3.092  -2.100 -0.5519  0.3173 -0.7941
   52MOL0     C 7082  11.701   3.211  -2.198  0.1544 -0.2611  0.5791
   52MOL0    Cl 7083  11.526   3.260  -2.224 -0.3641 -0.5592 -0.2100
   52MOL0     C 7084  11.394   3.188  -1.486 -0.9045 -0.6683  0.1828
   52MOL0     C 7085  11.312   3.302  -1.453  0.5524  0.3249 -0.3838
   52MOL0     O 7086  11.359   3.612  -1.261 -0.4321  0.1603 -0.2078
   52MOL0     C 7087  11.009   3.575  -1.168 -0.6812 -0.5070 -0.6290
   52MOL0     C 7088  10.913   3.648  -1.101  0.3473  0.3695 -0.5744
   52MOL0     N 7089  10.704   4.069  -0.392 -0.3167  0.6134  0.1629
   52MOL0     N 7090  10.807   4.077  -0.311  0.1076 -1.0308  0.5830
   52MOL0     C 7091  11.022   3.598   0.291 -0.2597  1.3123  0.3293
   52MOL0     C 7092  11.121   3.584   0.395 -0.6961  1.1318  0.2007
   52MOL0     C 7093  11.443   3.481   0.695  0.4232  0.0692  0.1334
   52MOL0     C 7094  11.420   3.367   0.766 -0.3444 -0.2042 -0.5276
   52MOL0     C 7095  11.498   3.323   0.878  0.0899  0.6255  0.8665
   52MOL0     C 7096  11.608   3.395   0.916  0.2666 -0.0922 -0.1229
   52MOL0     O 7097  11.668   3.353   1.032 -1.1769 -0.3106  0.2923
   52MOL0     C 7098  11.775   3.435   1.089 -0.4818 -0.1664 -0.8174
   52MOL0     C 7099  11.817   3.381   1.223  0.6744 -0.2162 -0.4952
   52MOL0     C 7100  11.702   3.421   1.333 -0.6761  0.3147  0.5543
   52MOL0     C 7101  11.713   3.362   1.473  0.1175  0.2357  0.5723
   52MOL0     C 7102  11.846   3.388   1.536 -0.1954  0.0287  0.0660
   52MOL0     C 7103  11.937   3.419   1.611  0.0468 -0.3694  0.5462
   52MOL0     C 7104  11.645   3.502   0.838 -0.2330  0.1693  1.4449
   52MOL0     C 7105  11.558   3.550   0.734  0.4116 -1.1229  0.8297
   52MOL0     C 7106  11.603   3.691   0.671  0.9152 -0.9922 -0.5610
   52MOL0     H 7107  11.131   3.252   0.461 -2.3474  0.3822  2.0995
   52MOL0     H 7108  10.948   3.269   0.259 -0.1334  1.4504 -3.1776
   52MOL0     H 7109  10.959   3.330  -0.004 -2.0591 -0.4564  0.4965
   52MOL0     H 7110  11.078   3.447   0.022 -0.2193  1.8215 -0.9284
   52MOL0     H 7111  10.960   3.471  -0.214 -0.6846  0.2969  0.3688
   52MOL0     H 7112  10.808   3.497  -0.124 -0.0827  2.1155  1.0229
   52MOL0     H 7113  10.883   3.709  -0.209 -3.7839  0.3442  3.4879
   52MOL0     H 7114  10.917   3.711  -0.037 -3.9411  0.8356 -0.3579
   52MOL0     H 7115  11.158   3.630  -0.091  0.4454  0.8569  0.5668
   52MOL0     H 7116  11.121   3.612  -0.261  1.9073  0.0091 -0.1186
   52MOL0     H 7117  11.256   3.810  -0.175 -0.2040 -0.1291  1.0591
   52MOL0     H 7118  11.095   3.865  -0.113 -1.2058  0.7371 -1.1245
   52MOL0     H 7119  11.156   3.780  -0.405 -3.6426  0.4298 -1.7551
   52MOL0     H 7120  11.011   3.847  -0.351  0.5888  1.8327 -2.4357
   52MOL0     H 7121  11.150   3.981  -0.495 -0.6056 -2.7357  0.5153
   52MOL0     H 7122  11.258   4.028  -0.365  1.0253 -1.5470  0.1815
   52MOL0     H 7123  11.048   4.114  -0.232 -0.6576  1.1600  0.2742
   52MOL0     H 7124  11.099   4.204  -0.373  1.4051  0.0246  1.4779
   52MOL0     H 7125  10.953   4.087  -0.611  0.3171 -5.4854 -0.5452
   52MOL0     H 7126  10.707   4.119  -0.705 -0.7422  0.8087  1.2242
   52MOL0     H 7127  10.576   4.036  -0.619  0.2622  0.1948  0.2498
   52MOL0     H 7128  10.834   3.922  -0.749  0.5220  0.8584 -2.0008
   52MOL0     H 7129  10.723   3.813  -0.658 -0.3196 -0.9817 -3.2583
   52MOL0     H 7130  10.541   3.869  -0.833  0.4636  0.6654  1.7860
   52MOL0     H 7131  10.655   3.991  -0.896  2.3879  0.4469  1.0085
   52MOL0     H 7132  10.725   3.702  -0.884  1.2406 -0.6077 -1.6492
   52MOL0     H 7133  10.633   3.788  -1.021 -0.5843  2.1991  0.3826
   52MOL0     H 7134  11.044   3.945  -1.079  1.6518 -1.4631  1.2513
   52MOL0     H 7135  11.328   3.844  -1.171 -1.4048 -1.3280  3.3485
   52MOL0     H 7136  11.212   3.977  -1.218  3.5787  0.1959  0.8316
   52MOL0     H 7137  11.254   3.858  -1.338  0.1413 -0.0927  0.7248
   52MOL0     H 7138  11.389   3.324  -1.127  1.4014  2.6063 -1.1603
   52MOL0     H 7139  11.514   3.122  -1.166  1.9138  2.7651  0.4338
   52MOL0     H 7140  11.614   3.080  -1.579  0.8955  0.6800 -0.0993
   52MOL0     H 7141  11.679   2.919  -1.527 -0.5261  0.9739 -1.1376
   52MOL0     H 7142  11.455   2.814  -1.556  0.1995  0.0475 -0.4224
   52MOL0     H 7143  11.418   2.949  -1.667  2.1957  0.1828 -2.0054
   52MOL0     H 7144  11.480   2.737  -1.774 -1.4217  0.6585  2.3212
   52MOL0     H 7145  11.645   2.773  -1.708  0.3535 -1.6880 -1.5486
   52MOL0     H 7146  11.485   2.925  -1.926 -0.5738  2.3961  1.6846
   52MOL0     H 7147  11.663   2.862  -1.930  1.4702  0.7171  0.5934
   52MOL0     H 7148  11.570   3.097  -1.785 -0.1329 -1.2943  0.0157
   52MOL0     H 7149  11.737   3.070  -1.812 -0.4101  3.4723 -0.8208
   52MOL0     H 7150  11.661   3.249  -1.961 -0.1582 -0.9171  1.9140
   52MOL0     H 7151  11.530   3.158  -1.990 -0.9412  2.2183  0.5960
   52MOL0     H 7152  11.662   2.999  -2.135 -0.8762  0.2218 -0.1566
   52MOL0     H 7153  11.806   3.072  -2.059 -1.4632  0.4265  1.6368
   52MOL0     H 7154  11.742   3.187  -2.296  1.7781  3.7512  0.0899
   52MOL0     H 7155  11.758   3.295  -2.159 -0.1208 -0.0012  0.4229
   52MOL0     H 7156  11.401   3.150  -1.587  2.5908 -0.8572  0.3775
   52MOL0     H 7157  11.247   3.329  -1.535 -0.3146  0.6105  0.3886
   52MOL0     H 7158  10.990   3.470  -1.185 -1.1317 -0.3224 -1.2842
   52MOL0     H 7159  10.841   3.585  -1.049  1.5353  0.5994  1.4844
   52MOL0     H 7160  11.005   3.690   0.236 -0.2364  1.0607 -0.1054
   52MOL0     H 7161  11.158   3.679   0.431 -1.2040  0.6824  2.0253
   52MOL0     H 7162  11.337   3.297   0.755 -0.4402 -0.3096  0.7321
   52MOL0     H 7163  11.460   3.236   0.931  1.3068 -0.4202  0.1028
   52MOL0     H 7164  11.867   3.446   1.031  0.5614  3.6013  1.1595
   52MOL0     H 7165  11.734   3.535   1.106  0.8209  0.3370 -0.4973
   52MOL0     H 7166  11.915   3.424   1.248  0.1374 -0.2556  1.9359
   52MOL0     H 7167  11.842   3.275   1.229  3.8083  0.4368 -0.1926
   52MOL0     H 7168  11.716   3.528   1.350  2.5142  0.0151  0.4583
   52MOL0     H 7169  11.599   3.402   1.302 -0.3279  1.5976 -1.5728
   52MOL0     H 7170  11.686   3.256   1.482 -1.9726  0.9074  3.8823
   52MOL0     H 7171  11.638   3.404   1.540 -0.7187 -2.2457  1.3158
   52MOL0     H 7172  12.020   3.445   1.675  2.1675  2.0836 -2.8205
   52MOL0     H 7173  11.746   3.539   0.852  1.5823 -2.5394 -2.7941
   52MOL0     H 7174  11.640   3.673   0.570  0.8283 -2.1205 -0.4081
   52MOL0     H 7175  11.519   3.761   0.677 -0.1399 -2.1846 -0.7201
   52MOL0     H 7176  11.686   3.734   0.728 -0.6238 -1.3336  2.1220
   53MOL0     O 7177   6.900   0.781   7.740  0.2251  1.1219  0.7074
   53MOL0     C 7178   6.937   0.662   7.725 -0.4542 -0.0152 -0.5936
   53MOL0     O 7179   7.066   0.624   7.711 -0.2506 -0.2040  0.3760
   53MOL0     C 7180   7.171   0.704   7.758 -0.5663 -0.8240 -0.5133
   53MOL0     C 7181   7.261   0.765   7.675 -0.3313 -0.3162  0.8463
   53MOL0     C 7182   7.370   0.839   7.712 -0.3786  0.3270 -0.0085
   53MOL0     C 7183   7.413   0.835   7.841 -0.0868 -0.8249 -0.0453
   53MOL0     O 7184   7.530   0.904   7.870 -0.1459  0.3695  0.0598
   53MOL0     C 7185   7.637   0.824   7.910  0.8985  0.4520  0.5180
   53MOL0     C 7186   7.684   0.834   8.053 -0.0138 -0.0283  0.3033
   53MOL0     C 7187   7.687   0.982   8.088 -0.2733 -0.0043  0.2222
   53MOL0     C 7188   7.779   1.012   8.200  0.0710  1.0225  0.2974
   53MOL0     C 7189   7.922   1.024   8.150 -0.1495 -0.8824 -0.6858
   53MOL0     C 7190   8.018   1.063   8.263  0.3253 -0.7471  0.6567
   53MOL0     C 7191   8.163   1.079   8.222 -0.1475 -0.7388  0.4112
   53MOL0     C 7192   8.265   1.117   8.339  0.6756  0.0397  0.7683
   53MOL0     N 7193   8.252   1.259   8.375 -0.3881 -0.6867 -0.3274
   53MOL0     C 7194   8.306   1.360   8.296 -0.1486 -1.0910 -0.1512
   53MOL0     C 7195   8.251   1.471   8.352  0.8070 -0.0399  0.5075
   53MOL0     C 7196   8.281   1.609   8.294  0.8941  0.4892 -0.2370
   53MOL0     C 7197   8.145   1.661   8.252  0.8290 -0.5736  0.8132
   53MOL0     C 7198   8.140   1.810   8.197 -0.0793  0.2801 -0.6183
   53MOL0     C 7199   8.206   1.813   8.059  0.6752 -0.1933 -0.8185
   53MOL0     O 7200   8.284   1.931   8.039 -0.2741 -0.2713 -0.4275
   53MOL0     C 7201   8.403   1.913   7.976  0.3600 -0.3493  0.9127
   53MOL0     C 7202   8.400   1.906   7.835 -0.0263  0.6703  0.0269
   53MOL0     C 7203   8.519   1.879   7.756 -0.7626  0.0476  0.6866
   53MOL0     C 7204   8.492   1.839   7.618 -0.4629 -0.2122  0.5448
   53MOL0     C 7205   8.649   1.879   7.818  0.1155  0.5447  0.2349
   53MOL0     C 7206   8.779   1.860   7.743 -0.2275 -1.2017 -0.9794
   53MOL0     O 7207   8.889   1.870   7.825 -0.6559  0.3655 -0.1897
   53MOL0     C 7208   9.019   1.863   7.780 -0.0604  0.0053 -0.4602
   53MOL0     C 7209   9.070   1.892   7.650 -0.0193  0.0960 -0.5946
   53MOL0     C 7210   9.207   1.860   7.618 -0.7674 -0.5273 -0.3702
   53MOL0     C 7211   9.298   1.803   7.715  0.2934 -0.8735  0.5266
   53MOL0     O 7212   9.433   1.772   7.700 -0.8660  0.3297  0.2795
   53MOL0     C 7213   9.495   1.844   7.595  0.2079 -0.4500 -0.2104
   53MOL0     C 7214   9.642   1.863   7.619  0.2781 -0.1402 -0.2432
   53MOL0     C 7215   9.731   1.734   7.598  1.1991  0.6816  0.3789
   53MOL0     C 7216   9.871   1.773   7.651 -1.1044  0.6636  0.4664
   53MOL0     C 7217   9.976   1.686   7.585 -0.5208  0.6817  0.5457
   53MOL0     C 7218  10.105   1.696   7.663 -0.4149  0.7407  0.5221
   53MOL0     C 7219  10.115   1.587   7.769 -0.1052 -0.7976 -0.1037
   53MOL0     C 7220  10.258   1.526   7.794 -0.9405 -0.1624  0.4253
   53MOL0    Cl 7221  10.328   1.625   7.910 -0.4068 -0.1923 -0.2032
   53MOL0     C 7222   9.243   1.780   7.842  0.2060  0.4268 -0.4988
   53MOL0     C 7223   9.114   1.813   7.875  0.5171 -0.4448 -0.1561
   53MOL0     O 7224   8.778   1.839   7.620  0.2357 -0.3067 -0.6006
   53MOL0     C 7225   8.650   1.881   7.961 -0.3622 -0.1700  0.4596
   53MOL0     C 7226   8.528   1.888   8.034 -0.1266 -1.3611 -0.5065
   53MOL0     N 7227   8.175   1.443   8.466  0.1592  0.3635  0.4266
   53MOL0     N 7228   8.173   1.315   8.473  0.2583  1.0629 -0.5530
   53MOL0     C 7229   7.334   0.767   7.932 -0.4994 -0.2411 -0.4238
   53MOL0     C 7230   7.204   0.718   7.896 -0.6525 -0.1946  0.1435
   53MOL0     C 7231   6.840   0.548   7.713 -0.5068  0.0653  0.1485
   53MOL0     C 7232   6.897   0.414   7.703 -0.1693  0.3081  0.6845
   53MOL0     C 7233   6.808   0.308   7.694 -0.0967  0.1763 -0.3898
   53MOL0     C 7234   6.669   0.328   7.676 -0.2087  0.3365  0.3152
   53MOL0     O 7235   6.603   0.212   7.646 -0.9364 -0.0357 -0.2439
   53MOL0     C 7236   6.460   0.202   7.633  0.2075 -0.0695 -0.4963
   53MOL0     C 7237   6.408   0.054   7.640 -0.7686 -1.1353 -0.5178
   53MOL0     C 7238   6.456  -0.013   7.777 -0.4218  0.7337 -0.6362
   53MOL0     C 7239   6.376  -0.147   7.813  0.8386 -0.0538 -0.3605
   53MOL0     C 7240   6.384  -0.245   7.708 -0.5031  0.2969  0.7975
   53MOL0     C 7241   6.391  -0.326   7.611  0.1402  0.0590 -1.2144
   53MOL0     C 7242   6.613   0.454   7.695  0.6345 -0.8230 -0.3795
   53MOL0     C 7243   6.695   0.568   7.711 -0.3624  0.8916 -0.4042
   53MOL0     C 7244   6.627   0.702   7.734 -0.8915  0.6589 -1.3020
   53MOL0     H 7245   7.232   0.761   7.570  1.3589 -1.2770  0.3804
   53MOL0     H 7246   7.436   0.885   7.639 -1.3632  3.1030  0.7227
   53MOL0     H 7247   7.725   0.845   7.848 -0.3348  1.8393 -0.8619
   53MOL0     H 7248   7.616   0.718   7.899  1.6568  0.2059  1.3038
   53MOL0     H 7249   7.604   0.786   8.111 -3.3088  3.3572 -1.0138
   53MOL0     H 7250   7.775   0.776   8.072 -0.0649 -1.2804 -2.7800
   53MOL0     H 7251   7.709   1.052   8.008 -1.4960  0.4379  0.2498
   53MOL0     H 7252   7.590   1.016   8.126 -1.1597 -2.3235  0.1869
   53MOL0     H 7253   7.748   1.108   8.242  1.2920  1.3274  0.5227
   53MOL0     H 7254   7.768   0.935   8.277  1.0911  1.9523  1.4002
   53MOL0     H 7255   7.935   1.102   8.074  1.5345  0.2824  0.7115
   53MOL0     H 7256   7.956   0.928   8.108 -2.2302 -2.0190  0.1094
   53MOL0     H 7257   7.982   1.152   8.315  1.6498  0.0495  0.2569
   53MOL0     H 7258   8.005   0.983   8.337 -2.2557 -2.7078 -1.6755
   53MOL0     H 7259   8.162   1.160   8.147 -0.7155  0.0753  1.2702
   53MOL0     H 7260   8.191   0.983   8.179  0.2125 -0.9003  1.0044
   53MOL0     H 7261   8.256   1.043   8.419  3.7813 -0.8892  0.3987
   53MOL0     H 7262   8.360   1.104   8.286  1.4299  1.6962  1.6370
   53MOL0     H 7263   8.371   1.349   8.210  2.4149 -0.4426  1.5829
   53MOL0     H 7264   8.341   1.607   8.203 -1.9633  3.4159 -2.4109
   53MOL0     H 7265   8.332   1.667   8.372  0.9907  1.1923 -0.8095
   53MOL0     H 7266   8.097   1.595   8.179  1.7057 -1.5279  1.0707
   53MOL0     H 7267   8.081   1.656   8.341  0.6640 -0.1575  0.7195
   53MOL0     H 7268   8.041   1.856   8.196 -0.8095 -1.2456 -0.9623
   53MOL0     H 7269   8.201   1.865   8.269 -2.4265  2.4566 -0.1388
   53MOL0     H 7270   8.268   1.724   8.046  1.2681  0.2051 -0.7466
   53MOL0     H 7271   8.128   1.820   7.981  2.8751  0.7584 -3.0789
   53MOL0     H 7272   8.298   1.913   7.797 -0.6615 -0.6675  1.3752
   53MOL0     H 7273   8.555   1.912   7.567 -1.0283 -0.5644 -0.6860
   53MOL0     H 7274   8.390   1.857   7.583  0.3657  2.5248 -0.6795
   53MOL0     H 7275   8.531   1.741   7.590  0.0694  0.2454 -0.3383
   53MOL0     H 7276   8.995   1.918   7.576 -2.8224 -3.6115  0.5972
   53MOL0     H 7277   9.256   1.878   7.523 -0.6935  4.3718  0.3547
   53MOL0     H 7278   9.474   1.790   7.502 -2.4458 -2.4054  1.3890
   53MOL0     H 7279   9.447   1.942   7.597 -1.9266 -1.4185 -0.7726
   53MOL0     H 7280   9.666   1.951   7.557 -1.6091 -0.0243 -0.8842
   53MOL0     H 7281   9.674   1.886   7.721  1.5276 -1.2405 -0.3652
   53MOL0     H 7282   9.719   1.714   7.491 -0.8644  0.6397  0.5657
   53MOL0     H 7283   9.684   1.652   7.653 -1.3322  0.3022 -2.1025
   53MOL0     H 7284   9.877   1.759   7.760 -0.3999  3.1765  0.8095
   53MOL0     H 7285   9.882   1.881   7.635 -2.7737  1.1837  2.4193
   53MOL0     H 7286   9.942   1.588   7.551  1.6883 -0.9059  2.5414
   53MOL0     H 7287   9.999   1.729   7.488 -0.2723 -2.0439 -0.7088
   53MOL0     H 7288  10.127   1.792   7.711 -0.3840  1.7889 -1.4686
   53MOL0     H 7289  10.189   1.681   7.594 -1.0607  1.0698 -0.3665
   53MOL0     H 7290  10.058   1.499   7.734 -1.8882 -0.6473  2.1888
   53MOL0     H 7291  10.079   1.624   7.865  2.7592  0.1917  0.6734
   53MOL0     H 7292  10.310   1.546   7.700 -2.7686  1.3298 -0.3269
   53MOL0     H 7293  10.254   1.419   7.816  0.7222 -0.3836 -0.2197
   53MOL0     H 7294   9.309   1.751   7.922 -1.2715 -0.1124  0.5775
   53MOL0     H 7295   9.082   1.803   7.978  1.6483 -2.5291  0.0422
   53MOL0     H 7296   8.736   1.868   8.025 -2.1853 -1.6592  2.7896
   53MOL0     H 7297   8.535   1.909   8.140  2.5040 -0.4615 -0.7657
   53MOL0     H 7298   7.357   0.768   8.038 -1.5155  0.0813 -0.1911
   53MOL0     H 7299   7.137   0.689   7.976  1.4124  0.1505  2.1044
   53MOL0     H 7300   7.004   0.402   7.716  0.1157  1.9104 -0.0031
   53MOL0     H 7301   6.851   0.208   7.698  4.2560  1.8133 -0.2926
   53MOL0     H 7302   6.407   0.254   7.713  0.8901 -1.3361  0.8349
   53MOL0     H 7303   6.427   0.262   7.547  1.0503  3.5438  1.4864
   53MOL0     H 7304   6.453  -0.008   7.562  0.5984  1.2542 -1.7229
   53MOL0     H 7305   6.299   0.052   7.632 -0.8212 -2.6612  0.1052
   53MOL0     H 7306   6.557  -0.053   7.775 -1.5268 -2.9520  3.4189
   53MOL0     H 7307   6.457   0.052   7.865  0.3138 -1.5075  1.0747
   53MOL0     H 7308   6.269  -0.130   7.832  0.6900 -1.9243  0.7581
   53MOL0     H 7309   6.421  -0.192   7.902  3.4783  2.9542 -0.0008
   53MOL0     H 7310   6.400  -0.395   7.529 -1.8040 -0.0756 -1.3480
   53MOL0     H 7311   6.507   0.473   7.686  0.1488 -2.7555  0.5693
   53MOL0     H 7312   6.670   0.756   7.819  2.1517 -0.6516 -1.8858
   53MOL0     H 7313   6.636   0.755   7.639 -0.0592  0.1511 -1.5143
   53MOL0     H 7314   6.519   0.703   7.754 -0.3094  1.7153  2.7600
   54MOL0     O 7315   3.730   2.845   4.633 -0.7551  0.0880 -0.2659
   54MOL0     C 7316   3.692   2.822   4.518 -1.4048 -0.4132 -0.1211
   54MOL0     O 7317   3.711   2.704   4.451  0.1045 -0.1038 -0.1651
   54MOL0     C 7318   3.746   2.598   4.535 -0.1522  0.7612 -0.3246
   54MOL0     C 7319   3.882   2.572   4.571  1.5141  0.1118 -0.0736
   54MOL0     C 7320   3.904   2.469   4.666  0.2092  0.7613 -0.4851
   54MOL0     C 7321   3.804   2.388   4.718 -0.0244  0.1508 -0.2330
   54MOL0     O 7322   3.851   2.292   4.806  1.0542 -0.4018  0.6152
   54MOL0     C 7323   3.761   2.266   4.917  0.8499  0.5316 -0.9413
   54MOL0     C 7324   3.837   2.153   4.994 -0.1935 -0.0276  0.1022
   54MOL0     C 7325   3.977   2.196   5.046  0.1438 -0.2669  0.9622
   54MOL0     C 7326   4.062   2.077   5.085 -0.1533 -0.2559 -0.7164
   54MOL0     C 7327   4.026   2.010   5.214  0.1890 -0.7141  0.2926
   54MOL0     C 7328   4.119   1.897   5.248 -0.4041 -0.3148  0.0173
   54MOL0     C 7329   4.070   1.819   5.366 -0.2901  0.0836  0.3738
   54MOL0     C 7330   4.188   1.734   5.414 -0.2587  0.4629 -0.2756
   54MOL0     N 7331   4.166   1.687   5.554 -0.3232  0.1012 -0.2900
   54MOL0     C 7332   4.232   1.571   5.596 -0.1412 -0.3765  0.1966
   54MOL0     C 7333   4.172   1.540   5.711 -0.1580 -0.2588  0.4891
   54MOL0     C 7334   4.192   1.419   5.796  0.9136 -0.4882  0.5640
   54MOL0     C 7335   4.204   1.454   5.939 -0.6875  1.4169 -0.6725
   54MOL0     C 7336   4.251   1.342   6.030  0.2805 -0.2860  0.3176
   54MOL0     C 7337   4.158   1.223   6.037 -0.5808  0.0669  0.2289
   54MOL0     O 7338   4.211   1.125   6.120 -0.0553  0.1238 -0.8875
   54MOL0     C 7339   4.127   1.020   6.171 -0.2536 -0.8964 -0.6075
   54MOL0     C 7340   4.169   0.944   6.278  0.5271  1.4384 -0.4868
   54MOL0     C 7341   4.076   0.863   6.354  0.1916  0.3552  0.0112
   54MOL0     C 7342   4.130   0.806   6.479  0.0243  0.0274  0.1023
   54MOL0     C 7343   3.940   0.859   6.307  0.9937 -0.3358 -0.4738
   54MOL0     C 7344   3.832   0.784   6.375 -1.1182  0.2063 -0.1242
   54MOL0     O 7345   3.860   0.731   6.493  0.2894 -0.3297  0.0729
   54MOL0     C 7346   3.764   0.665   6.572 -0.0089 -0.1360 -0.6020
   54MOL0     C 7347   3.782   0.675   6.712 -0.3692  0.8054 -0.3277
   54MOL0     C 7348   3.695   0.596   6.801 -0.5690 -0.7478  0.3408
   54MOL0     C 7349   3.594   0.514   6.750 -0.2325  0.6795  0.4617
   54MOL0     O 7350   3.508   0.422   6.818 -0.3309  0.8605  0.2390
   54MOL0     C 7351   3.485   0.437   6.969 -1.2759 -0.4888 -0.0529
   54MOL0     C 7352   3.390   0.344   7.040 -0.8021  0.1267 -0.0600
   54MOL0     C 7353   3.435   0.197   7.021  0.3777 -0.3066  0.3937
   54MOL0     C 7354   3.365   0.097   7.117 -0.3316  0.0979 -0.0313
   54MOL0     C 7355   3.401  -0.051   7.107 -0.0841 -0.8712 -0.2314
   54MOL0     C 7356   3.348  -0.118   6.990 -0.0959 -0.3846  0.7074
   54MOL0     C 7357   3.197  -0.134   6.990 -0.1275  0.3165  0.0797
   54MOL0     C 7358   3.152  -0.234   6.887  0.4550 -0.6433 -0.9185
   54MOL0    Cl 7359   3.109  -0.168   6.720  0.2139 -0.6282  0.1439
   54MOL0     C 7360   3.581   0.501   6.612 -1.2424 -0.9023  0.4388
   54MOL0     C 7361   3.660   0.576   6.525 -1.3256 -0.5556 -0.5883
   54MOL0     O 7362   3.725   0.770   6.318 -0.4284  0.4732  0.3903
   54MOL0     C 7363   3.908   0.920   6.187 -0.0030 -0.0432 -0.8919
   54MOL0     C 7364   3.998   0.994   6.116  0.2074 -0.9003  0.6043
   54MOL0     N 7365   4.064   1.619   5.722 -1.4393  0.2010 -0.6738
   54MOL0     N 7366   4.056   1.714   5.634 -0.1295  0.5123  0.0357
   54MOL0     C 7367   3.666   2.417   4.673 -0.3394  0.5273 -0.2522
   54MOL0     C 7368   3.639   2.526   4.596  0.1459  0.0737 -0.5047
   54MOL0     C 7369   3.628   2.933   4.448 -0.4307 -0.3937 -0.4024
   54MOL0     C 7370   3.566   3.040   4.519 -0.0465  0.7264 -0.3149
   54MOL0     C 7371   3.477   3.126   4.452 -0.2583 -0.6896  0.0813
   54MOL0     C 7372   3.455   3.131   4.316 -0.8938 -0.0186  0.5994
   54MOL0     O 7373   3.383   3.240   4.270 -0.1656 -0.6448  0.8981
   54MOL0     C 7374   3.341   3.252   4.132 -0.2905  0.0881  0.3083
   54MOL0     C 7375   3.228   3.159   4.109 -0.0752  0.3477 -0.8217
   54MOL0     C 7376   3.199   3.150   3.954  0.5984 -0.1514  0.1132
   54MOL0     C 7377   3.107   3.043   3.913  0.0462 -0.9591 -0.3173
   54MOL0     C 7378   3.066   3.073   3.776  0.3332  0.8651  0.4642
   54MOL0     C 7379   3.006   3.101   3.669 -0.1084 -0.4597 -0.3470
   54MOL0     C 7380   3.530   3.040   4.242 -0.2447 -0.4763 -0.5065
   54MOL0     C 7381   3.619   2.954   4.302  0.3444 -0.3925  0.3678
   54MOL0     C 7382   3.707   2.878   4.205 -0.0000  1.1077 -0.5224
   54MOL0     H 7383   3.961   2.635   4.530  1.8349 -0.0065  0.3624
   54MOL0     H 7384   3.999   2.453   4.715 -0.1286 -1.5056 -0.4878
   54MOL0     H 7385   3.667   2.227   4.877  0.5902 -0.8329  0.8725
   54MOL0     H 7386   3.756   2.350   4.987  1.5292  0.4408 -0.7806
   54MOL0     H 7387   3.773   2.131   5.080 -1.4306 -1.5483 -1.1293
   54MOL0     H 7388   3.838   2.070   4.922 -3.8345 -0.0586 -0.1118
   54MOL0     H 7389   4.027   2.247   4.963 -0.6846 -1.4110 -0.2743
   54MOL0     H 7390   3.973   2.260   5.135  3.6161 -0.4874  1.4214
   54MOL0     H 7391   4.063   2.001   5.006  0.9258  0.0922 -1.0649
   54MOL0     H 7392   4.161   2.124   5.088 -0.6619  0.8477 -0.6594
   54MOL0     H 7393   3.926   1.966   5.209 -1.8202  3.4298 -0.2665
   54MOL0     H 7394   4.025   2.071   5.304 -0.3310 -1.4952  0.8210
   54MOL0     H 7395   4.131   1.845   5.153 -1.3153 -1.0035  0.2651
   54MOL0     H 7396   4.212   1.946   5.278 -2.4256  1.8924  3.2842
   54MOL0     H 7397   3.981   1.760   5.342 -1.7377  1.2338  2.5717
   54MOL0     H 7398   4.031   1.891   5.438  0.1732 -0.6324  1.3662
   54MOL0     H 7399   4.182   1.657   5.337 -0.5578  1.1374 -0.9437
   54MOL0     H 7400   4.280   1.794   5.412 -0.0618  0.1617 -0.1847
   54MOL0     H 7401   4.314   1.521   5.546 -0.4929 -0.4686 -0.2892
   54MOL0     H 7402   4.280   1.362   5.764  0.3845 -1.0601  0.0742
   54MOL0     H 7403   4.113   1.348   5.767  1.9685 -1.0642 -1.0036
   54MOL0     H 7404   4.269   1.540   5.954  1.2263  0.2749 -2.0333
   54MOL0     H 7405   4.108   1.491   5.976 -0.2239 -1.0811  3.7168
   54MOL0     H 7406   4.350   1.307   6.000  1.2284  0.3598  2.5304
   54MOL0     H 7407   4.270   1.382   6.130  1.1245 -0.2945  0.1656
   54MOL0     H 7408   4.063   1.254   6.081 -0.4636  0.4755  0.2012
   54MOL0     H 7409   4.130   1.183   5.939 -2.0225  2.4857 -0.4374
   54MOL0     H 7410   4.272   0.961   6.307  0.6647  1.2604 -0.8733
   54MOL0     H 7411   4.238   0.817   6.493  0.3553 -1.4081 -1.0862
   54MOL0     H 7412   4.125   0.698   6.464  2.6846 -0.1209 -0.1167
   54MOL0     H 7413   4.084   0.849   6.569 -1.9763  2.6546 -1.9963
   54MOL0     H 7414   3.859   0.746   6.741  0.0802  0.5535 -0.8698
   54MOL0     H 7415   3.704   0.618   6.906 -1.8323 -0.9043  0.4944
   54MOL0     H 7416   3.584   0.427   7.014 -1.1418  0.9980  0.0280
   54MOL0     H 7417   3.454   0.540   6.991 -1.3399 -0.8153  1.5182
   54MOL0     H 7418   3.387   0.373   7.145  0.3285  1.7346 -0.4288
   54MOL0     H 7419   3.290   0.351   6.996 -0.2207 -0.6991 -1.5891
   54MOL0     H 7420   3.542   0.180   7.032  0.1401 -1.3375  1.3534
   54MOL0     H 7421   3.403   0.167   6.921  1.3680 -3.0736  0.8193
   54MOL0     H 7422   3.256   0.104   7.131 -0.5758 -1.9224 -0.5912
   54MOL0     H 7423   3.406   0.128   7.214  0.2059  0.5318 -0.3991
   54MOL0     H 7424   3.510  -0.063   7.110  0.6675  3.8846 -0.9412
   54MOL0     H 7425   3.365  -0.097   7.199  2.3437  1.2655  1.9678
   54MOL0     H 7426   3.406  -0.210   6.975  2.4216  0.7617  2.7323
   54MOL0     H 7427   3.373  -0.052   6.907  0.1890  1.1615  1.9699
   54MOL0     H 7428   3.164  -0.033   6.966  0.8785  1.1664  2.0542
   54MOL0     H 7429   3.156  -0.157   7.089  0.0514  1.4685  0.4380
   54MOL0     H 7430   3.054  -0.273   6.917  0.7800 -1.6971 -1.1805
   54MOL0     H 7431   3.226  -0.314   6.890 -0.0062 -1.0455  1.1347
   54MOL0     H 7432   3.508   0.429   6.579 -0.9882 -0.0403 -2.2765
   54MOL0     H 7433   3.652   0.560   6.418  4.8595 -0.7324 -1.3633
   54MOL0     H 7434   3.805   0.905   6.157 -2.1681  1.2301  4.6612
   54MOL0     H 7435   3.976   1.045   6.023 -0.8669  0.5787  1.6226
   54MOL0     H 7436   3.583   2.360   4.714  1.9176 -3.8947 -1.2045
   54MOL0     H 7437   3.534   2.543   4.577  0.1243  0.8688  0.2833
   54MOL0     H 7438   3.581   3.036   4.626  2.0502  1.5519 -0.5239
   54MOL0     H 7439   3.428   3.203   4.511  1.6457 -2.1739  3.9538
   54MOL0     H 7440   3.307   3.352   4.104  0.1428  0.2467  0.3305
   54MOL0     H 7441   3.424   3.236   4.063  0.4676  0.3657  1.1194
   54MOL0     H 7442   3.144   3.193   4.169  1.3553 -1.1853  2.2791
   54MOL0     H 7443   3.234   3.057   4.148 -4.6577  1.2713  3.1734
   54MOL0     H 7444   3.159   3.248   3.925  0.5994  0.1014  0.9494
   54MOL0     H 7445   3.293   3.131   3.901  1.1597  2.2891  0.1138
   54MOL0     H 7446   3.022   3.028   3.979  0.2805 -1.3783 -0.1082
   54MOL0     H 7447   3.163   2.949   3.906  1.0184 -0.3853 -0.3796
   54MOL0     H 7448   2.960   3.114   3.574  0.9802 -3.0560 -1.3299
   54MOL0     H 7449   3.515   3.034   4.134 -0.9780  1.1293 -0.5143
   54MOL0     H 7450   3.705   2.769   4.214  0.0616  1.1069 -0.5161
   54MOL0     H 7451   3.661   2.884   4.107 -1.7538  2.7888  0.3224
   54MOL0     H 7452   3.811   2.911   4.212  0.1918  0.2525  1.6207
   55MOL0     O 7453   6.368  10.648   2.743  0.1778  0.1367  0.2875
   55MOL0     C 7454   6.488  10.665   2.733 -0.5582  0.2138  0.7870
   55MOL0     O 7455   6.563  10.708   2.835 -0.2691 -0.7634  0.0206
   55MOL0     C 7456   6.528  10.723   2.960  0.6399  0.5979  1.2531
   55MOL0     C 7457   6.439  10.641   3.028  0.3563  1.1524  1.2925
   55MOL0     C 7458   6.399  10.682   3.159 -0.0731 -0.7814 -0.5904
   55MOL0     C 7459   6.439  10.802   3.226 -0.4091 -0.3147  1.2328
   55MOL0     O 7460   6.389  10.853   3.343  0.4629  0.3818  0.1330
   55MOL0     C 7461   6.248  10.824   3.375 -0.2292 -0.5533  0.1612
   55MOL0     C 7462   6.195  10.919   3.483 -0.0848 -0.0703 -0.1585
   55MOL0     C 7463   6.072  10.876   3.562  0.1798  0.0035 -0.0020
   55MOL0     C 7464   6.019  10.982   3.657  0.3465 -0.5781  0.1692
   55MOL0     C 7465   6.126  11.068   3.718  0.0989 -0.3965  0.3897
   55MOL0     C 7466   6.062  11.181   3.798 -0.5737  0.0772  0.8281
   55MOL0     C 7467   6.017  11.305   3.715 -0.1525  0.4694  0.2918
   55MOL0     C 7468   5.898  11.392   3.766  0.5334  0.0822 -0.4046
   55MOL0     N 7469   5.876  11.511   3.696  0.7420  0.4945  1.0189
   55MOL0     C 7470   5.852  11.640   3.743 -0.8664 -0.1127 -0.0879
   55MOL0     C 7471   5.805  11.702   3.633  0.9809  1.1234  0.5306
   55MOL0     C 7472   5.746  11.844   3.625 -0.1940  0.1472 -0.4503
   55MOL0     C 7473   5.596  11.850   3.585  0.5524  1.1578 -0.1067
   55MOL0     C 7474   5.535  11.985   3.580 -0.7595 -0.6935 -0.8991
   55MOL0     C 7475   5.419  11.984   3.481  0.1035 -0.3259 -0.0361
   55MOL0     O 7476   5.385  12.121   3.452 -0.4634  0.4086 -0.2649
   55MOL0     C 7477   5.255  12.152   3.420 -0.0422  0.6594  0.1669
   55MOL0     C 7478   5.209  12.275   3.465  0.0280 -0.5353 -0.0505
   55MOL0     C 7479   5.074  12.315   3.453 -0.1239  1.0892 -0.0922
   55MOL0     C 7480   5.038  12.441   3.537  0.1609  0.1303  0.6448
   55MOL0     C 7481   4.976  12.232   3.383 -0.1242  0.9261 -0.8697
   55MOL0     C 7482   4.829  12.265   3.364  0.5414 -0.3127 -0.2337
   55MOL0     O 7483   4.741  12.157   3.345  0.5028  0.1959  0.4934
   55MOL0     C 7484   4.606  12.154   3.338  1.0152  0.4332 -0.1211
   55MOL0     C 7485   4.520  12.262   3.308  0.1746 -1.0596 -0.2933
   55MOL0     C 7486   4.380  12.251   3.308 -0.4301  0.0178  0.4778
   55MOL0     C 7487   4.326  12.127   3.312  0.4958  0.3744  0.3188
   55MOL0     O 7488   4.187  12.114   3.299 -0.0619  1.1234 -0.6773
   55MOL0     C 7489   4.090  12.223   3.312 -0.4473 -0.0725 -0.4013
   55MOL0     C 7490   4.033  12.240   3.178  0.0332  0.3347 -0.0444
   55MOL0     C 7491   3.971  12.374   3.142  1.2070  0.3386 -0.5738
   55MOL0     C 7492   3.866  12.421   3.236  0.0439  0.4643 -0.2519
   55MOL0     C 7493   3.776  12.532   3.189  0.7092 -0.0291  0.2136
   55MOL0     C 7494   3.852  12.650   3.156 -0.1755 -0.1532  0.3758
   55MOL0     C 7495   3.764  12.775   3.154 -0.0397  0.3507  0.8754
   55MOL0     C 7496   3.647  12.767   3.053 -1.0041 -0.4273 -0.2637
   55MOL0    Cl 7497   3.499  12.691   3.117 -0.2747 -0.6381 -0.1266
   55MOL0     C 7498   4.408  12.013   3.353 -0.6155  0.0610  0.4623
   55MOL0     C 7499   4.551  12.029   3.351 -0.1067  0.2679 -0.8562
   55MOL0     O 7500   4.795  12.382   3.358  0.3658  0.4728 -0.7832
   55MOL0     C 7501   5.026  12.107   3.352 -0.4079  0.3898 -0.3415
   55MOL0     C 7502   5.161  12.064   3.366 -0.0553 -1.1568 -0.0724
   55MOL0     N 7503   5.792  11.620   3.519 -0.2632  0.4319 -0.3513
   55MOL0     N 7504   5.850  11.510   3.558 -0.3400 -0.1484 -0.5342
   55MOL0     C 7505   6.539  10.870   3.159 -0.2100  0.2008  0.0300
   55MOL0     C 7506   6.577  10.837   3.028 -0.7568 -0.0818  0.4386
   55MOL0     C 7507   6.563  10.662   2.595 -0.1147  0.5817 -0.4982
   55MOL0     C 7508   6.682  10.743   2.587  0.3029 -0.2451 -0.9181
   55MOL0     C 7509   6.761  10.724   2.471 -0.1227 -0.0117  0.5533
   55MOL0     C 7510   6.713  10.657   2.366 -0.0657 -0.5303  0.5802
   55MOL0     O 7511   6.799  10.664   2.253  0.0458  0.0065  0.2550
   55MOL0     C 7512   6.719  10.704   2.146 -0.0490 -0.9848  0.8145
   55MOL0     C 7513   6.812  10.764   2.039  0.1617  0.1136  0.1522
   55MOL0     C 7514   6.915  10.658   1.991 -0.1959  0.9800 -0.6294
   55MOL0     C 7515   7.005  10.713   1.876  0.5974  0.3164 -0.5006
   55MOL0     C 7516   7.116  10.635   1.847  0.4748 -0.9668  0.4065
   55MOL0     C 7517   7.218  10.587   1.799 -0.0160 -0.3287  1.0657
   55MOL0     C 7518   6.600  10.583   2.378 -0.0453 -0.1357  0.6363
   55MOL0     C 7519   6.515  10.588   2.489 -0.0757  0.1846 -0.1706
   55MOL0     C 7520   6.369  10.528   2.467 -0.4431  0.5133  0.3559
   55MOL0     H 7521   6.403  10.557   2.969  0.4882 -0.3411  3.2083
   55MOL0     H 7522   6.333  10.622   3.220  0.5840 -0.0422  0.8868
   55MOL0     H 7523   6.229  10.724   3.415 -1.8483  0.9545  3.6399
   55MOL0     H 7524   6.191  10.834   3.282 -0.5845 -1.0881  0.3093
   55MOL0     H 7525   6.270  10.940   3.560  0.6313 -0.0733 -0.8430
   55MOL0     H 7526   6.173  11.006   3.421  1.2755 -0.5292 -1.3069
   55MOL0     H 7527   5.995  10.845   3.491 -0.3786 -0.3018  0.7169
   55MOL0     H 7528   6.114  10.790   3.613 -0.2716 -0.1482  0.1183
   55MOL0     H 7529   5.961  11.045   3.589  0.3871 -0.9228 -0.1800
   55MOL0     H 7530   5.966  10.924   3.733  1.7008 -1.0255  0.8069
   55MOL0     H 7531   6.193  11.124   3.652 -2.5268 -2.5794 -4.6680
   55MOL0     H 7532   6.184  11.000   3.781  0.3066 -2.4135 -1.8380
   55MOL0     H 7533   5.976  11.144   3.856  0.2152 -1.9837  0.7573
   55MOL0     H 7534   6.134  11.224   3.869  0.0503  1.0050 -0.3393
   55MOL0     H 7535   5.990  11.265   3.617 -3.4737 -0.8726  1.5994
   55MOL0     H 7536   6.112  11.360   3.718  1.8235 -2.6258  0.0820
   55MOL0     H 7537   5.800  11.344   3.768 -0.3485  1.7919  1.3646
   55MOL0     H 7538   5.931  11.424   3.865 -2.1075  0.8039  0.3202
   55MOL0     H 7539   5.863  11.681   3.843  0.1765  0.8829 -0.5825
   55MOL0     H 7540   5.807  11.918   3.573  3.9130 -1.0647  2.1311
   55MOL0     H 7541   5.761  11.883   3.727  0.1223  1.0901 -0.8469
   55MOL0     H 7542   5.581  11.799   3.489 -1.0138 -1.0217  1.1960
   55MOL0     H 7543   5.541  11.796   3.662  0.7919 -1.6265 -1.7394
   55MOL0     H 7544   5.505  12.025   3.677  0.1216  2.0956 -1.6742
   55MOL0     H 7545   5.620  12.043   3.544 -0.9240 -1.6548 -3.0468
   55MOL0     H 7546   5.432  11.927   3.388  0.8828 -2.4353  1.2830
   55MOL0     H 7547   5.344  11.937   3.546  1.7755  1.7640  3.7698
   55MOL0     H 7548   5.283  12.344   3.505  0.3073  1.2717 -3.3487
   55MOL0     H 7549   5.080  12.533   3.497 -1.0371  0.3475 -0.1549
   55MOL0     H 7550   5.079  12.434   3.638  0.4783 -2.0022  0.4263
   55MOL0     H 7551   4.929  12.450   3.544 -0.0012  0.7923 -1.7466
   55MOL0     H 7552   4.557  12.364   3.307  0.5598 -1.1930 -0.0921
   55MOL0     H 7553   4.320  12.341   3.297  0.2158  0.7492  2.4014
   55MOL0     H 7554   4.002  12.199   3.373 -1.7855  1.6616 -1.5397
   55MOL0     H 7555   4.128  12.313   3.362 -1.8634 -0.4993  1.5645
   55MOL0     H 7556   4.101  12.205   3.100  1.6470 -1.5346  2.0583
   55MOL0     H 7557   3.948  12.173   3.166 -0.7831  1.5411 -1.3921
   55MOL0     H 7558   3.915  12.372   3.048 -4.4845  3.5316  2.2434
   55MOL0     H 7559   4.050  12.447   3.122  2.3313 -0.1307  1.8141
   55MOL0     H 7560   3.915  12.443   3.332  1.9441 -2.1437 -0.5475
   55MOL0     H 7561   3.805  12.332   3.253  1.5192 -0.6219 -0.4511
   55MOL0     H 7562   3.722  12.513   3.095  0.4402 -0.2600  0.4123
   55MOL0     H 7563   3.706  12.543   3.272 -0.3932 -0.5713 -0.6155
   55MOL0     H 7564   3.918  12.648   3.068  1.7936  2.4293  1.6727
   55MOL0     H 7565   3.922  12.658   3.239 -0.3775  6.6100  0.3856
   55MOL0     H 7566   3.832  12.853   3.119 -1.6126  1.8986  1.1301
   55MOL0     H 7567   3.710  12.800   3.246 -1.6657  2.0042 -0.4417
   55MOL0     H 7568   3.672  12.721   2.957 -0.8836 -0.2320 -0.3269
   55MOL0     H 7569   3.622  12.868   3.018 -0.4543 -0.1333  0.1906
   55MOL0     H 7570   4.375  11.909   3.352 -1.4689  0.3107  1.3878
   55MOL0     H 7571   4.608  11.943   3.383 -1.4535  0.7202  3.5354
   55MOL0     H 7572   4.960  12.041   3.297  1.3174 -2.1223  0.3692
   55MOL0     H 7573   5.187  11.971   3.316  2.6107 -0.0911 -0.8752
   55MOL0     H 7574   6.587  10.960   3.197  0.4927 -0.6278  1.1587
   55MOL0     H 7575   6.644  10.903   2.974 -1.0811 -1.2823 -1.5755
   55MOL0     H 7576   6.728  10.798   2.668 -0.2179 -0.0951 -0.7219
   55MOL0     H 7577   6.851  10.783   2.459 -0.1881  1.1295  4.4161
   55MOL0     H 7578   6.649  10.630   2.106 -4.5299  1.3833  3.4040
   55MOL0     H 7579   6.655  10.784   2.186  2.2088  0.4637  1.6946
   55MOL0     H 7580   6.873  10.839   2.090  1.1466 -2.2487  2.7362
   55MOL0     H 7581   6.757  10.805   1.954 -2.4278 -0.0987  1.6268
   55MOL0     H 7582   6.979  10.619   2.072  1.0117  2.3920 -0.8568
   55MOL0     H 7583   6.857  10.572   1.956  0.0296 -0.0295  1.2765
   55MOL0     H 7584   7.046  10.810   1.905  3.6307  0.8027 -5.2854
   55MOL0     H 7585   6.940  10.720   1.789 -2.1751 -0.8043  1.3563
   55MOL0     H 7586   7.299  10.533   1.755  1.3749  1.6316  1.0985
   55MOL0     H 7587   6.570  10.521   2.295  0.9163  0.6958 -0.3706
   55MOL0     H 7588   6.375  10.488   2.366 -0.0386  0.1797  0.5094
   55MOL0     H 7589   6.338  10.456   2.543 -0.7823  0.1567 -0.1163
   55MOL0     H 7590   6.290  10.604   2.467 -3.0233 -1.8561  3.8433
   56MOL0     O 7591   0.352  11.012   3.522 -0.7484 -0.4587 -0.0211
   56MOL0     C 7592   0.263  10.962   3.455  0.2427  0.7299 -0.1853
   56MOL0     O 7593   0.221  10.997   3.319 -0.0212 -0.2965  0.0717
   56MOL0     C 7594   0.239  11.113   3.251 -0.8372  0.5499  0.5667
   56MOL0     C 7595   0.168  11.133   3.133 -0.2878 -0.2899 -0.3325
   56MOL0     C 7596   0.179  11.249   3.060  0.6215  1.3487  0.5622
   56MOL0     C 7597   0.267  11.347   3.089 -0.4547  1.1019  0.3574
   56MOL0     O 7598   0.292  11.453   3.007 -0.0345 -0.0937  1.0041
   56MOL0     C 7599   0.253  11.441   2.865 -0.1415  0.7734 -0.2839
   56MOL0     C 7600   0.117  11.506   2.834 -0.8920  0.2714 -0.1333
   56MOL0     C 7601   0.119  11.635   2.738 -0.1683  1.6544  0.4979
   56MOL0     C 7602  -0.010  11.721   2.732 -0.5303 -0.4045 -0.1879
   56MOL0     C 7603  -0.043  11.816   2.846  0.2026  0.1846  0.3481
   56MOL0     C 7604  -0.160  11.903   2.817 -0.4473  0.4299  0.2849
   56MOL0     C 7605  -0.302  11.831   2.795 -0.2206  0.0315  0.2103
   56MOL0     C 7606  -0.384  11.934   2.725 -0.8536 -0.3549 -1.4968
   56MOL0     N 7607  -0.522  11.897   2.746  0.2194  0.1818 -0.4230
   56MOL0     C 7608  -0.599  11.926   2.861  0.0849 -0.2035 -0.0598
   56MOL0     C 7609  -0.712  11.859   2.838 -0.7726 -1.1358 -0.2139
   56MOL0     C 7610  -0.828  11.847   2.931 -0.5117 -0.3849  0.1041
   56MOL0     C 7611  -0.910  11.986   2.932  0.4312  0.8082  0.4562
   56MOL0     C 7612  -0.832  12.084   3.029 -0.9155 -0.4267 -0.7067
   56MOL0     C 7613  -0.921  12.200   3.096  0.6205  0.5699  0.4414
   56MOL0     O 7614  -0.993  12.251   2.978 -0.1675  0.1286 -0.9222
   56MOL0     C 7615  -1.062  12.362   3.019  0.4575 -0.4316  0.6282
   56MOL0     C 7616  -1.003  12.477   3.043 -1.5060 -0.0184 -0.8495
   56MOL0     C 7617  -1.072  12.598   3.091 -0.4186 -0.0213 -0.0277
   56MOL0     C 7618  -0.995  12.721   3.122  0.7929  0.3027  0.2312
   56MOL0     C 7619  -1.212  12.593   3.091  0.1968  0.1599 -0.1589
   56MOL0     C 7620  -1.295  12.712   3.122  0.3541 -0.9628  0.2951
   56MOL0     O 7621  -1.415  12.720   3.060  0.1618 -0.4636 -0.2125
   56MOL0     C 7622  -1.485  12.835   3.063  0.0811  0.5687  0.2733
   56MOL0     C 7623  -1.458  12.947   2.975 -1.2108  0.5817  0.0474
   56MOL0     C 7624  -1.537  13.057   2.979 -0.9640 -0.3299 -0.0974
   56MOL0     C 7625  -1.638  13.073   3.081 -0.1803  0.0787  0.1176
   56MOL0     O 7626  -1.709  13.185   3.099 -0.5549  0.2467 -0.4833
   56MOL0     C 7627  -1.628  13.305   3.092 -0.4996 -1.2091 -0.0704
   56MOL0     C 7628  -1.703  13.420   3.157 -0.2617 -0.6434  0.2573
   56MOL0     C 7629  -1.681  13.566   3.105 -0.0503  0.4694 -0.9002
   56MOL0     C 7630  -1.780  13.650   3.194 -0.6992  0.7108 -0.6506
   56MOL0     C 7631  -1.792  13.802   3.164  0.6386 -1.8177  0.3126
   56MOL0     C 7632  -1.851  13.851   3.034 -0.1136 -0.3731  0.7684
   56MOL0     C 7633  -1.895  13.993   3.050 -0.0142 -0.6257  0.5417
   56MOL0     C 7634  -1.948  14.056   2.922 -0.7932 -0.4351  0.6351
   56MOL0    Cl 7635  -1.994  14.217   2.946  0.2744 -0.0018  0.4753
   56MOL0     C 7636  -1.680  12.954   3.149  0.5863  1.3322  0.8729
   56MOL0     C 7637  -1.601  12.835   3.138 -1.0842  0.4242 -0.5515
   56MOL0     O 7638  -1.252  12.801   3.198 -0.0783 -1.1009  0.3796
   56MOL0     C 7639  -1.272  12.470   3.063 -0.6680  0.0629  0.4209
   56MOL0     C 7640  -1.199  12.355   3.032  0.4357  0.4259  0.3259
   56MOL0     N 7641  -0.723  11.810   2.712  0.2025  0.5464  0.3217
   56MOL0     N 7642  -0.595  11.818   2.670  0.4848 -0.0102  0.5023
   56MOL0     C 7643   0.344  11.336   3.200 -0.6925  0.1552 -0.2161
   56MOL0     C 7644   0.337  11.213   3.271  0.3791 -0.0634 -0.3961
   56MOL0     C 7645   0.187  10.856   3.535 -0.6074 -0.1538  0.2644
   56MOL0     C 7646   0.259  10.801   3.637 -0.5185  0.3069 -0.5886
   56MOL0     C 7647   0.203  10.709   3.723  0.0668  0.0756 -0.1111
   56MOL0     C 7648   0.071  10.661   3.705 -0.5909 -1.3231 -0.0498
   56MOL0     O 7649   0.020  10.551   3.774  0.3545 -0.1299  0.0432
   56MOL0     C 7650   0.109  10.451   3.822 -0.0036 -0.2746 -0.7036
   56MOL0     C 7651   0.200  10.384   3.711  0.0158  0.1595  0.4192
   56MOL0     C 7652   0.213  10.238   3.748 -0.2488 -0.0097 -0.1243
   56MOL0     C 7653   0.323  10.211   3.854  0.0269  0.2288 -0.0631
   56MOL0     C 7654   0.346  10.066   3.867 -0.1193 -0.2789 -0.5774
   56MOL0     C 7655   0.357   9.951   3.915 -0.3559  0.2190  0.1410
   56MOL0     C 7656  -0.006  10.725   3.601  0.0961 -0.3007 -0.0995
   56MOL0     C 7657   0.057  10.818   3.511  0.0373  0.4655 -0.2137
   56MOL0     C 7658  -0.036  10.873   3.400  0.0020 -0.3606 -0.2720
   56MOL0     H 7659   0.093  11.065   3.094  0.2369  0.3340 -2.5621
   56MOL0     H 7660   0.108  11.247   2.979 -3.5414  2.8123  3.7890
   56MOL0     H 7661   0.261  11.338   2.828  0.7922  0.7565 -0.0453
   56MOL0     H 7662   0.321  11.509   2.813 -1.8902  1.6242 -1.5513
   56MOL0     H 7663   0.057  11.427   2.786 -0.1156 -1.4594  1.5862
   56MOL0     H 7664   0.070  11.526   2.931 -0.6492  1.0998 -0.1844
   56MOL0     H 7665   0.204  11.697   2.766  0.9979  0.4342 -0.1673
   56MOL0     H 7666   0.139  11.604   2.635  3.4673 -1.9462  2.0060
   56MOL0     H 7667   0.001  11.783   2.643 -1.1085  3.5375  2.2656
   56MOL0     H 7668  -0.090  11.649   2.713 -0.7222  0.2273 -1.9194
   56MOL0     H 7669   0.039  11.881   2.876  0.7076 -0.4384  0.3484
   56MOL0     H 7670  -0.066  11.757   2.935 -0.3189 -1.5714 -0.8826
   56MOL0     H 7671  -0.168  11.963   2.908  1.4709  2.2677 -0.6734
   56MOL0     H 7672  -0.132  11.977   2.742  3.1240  1.8130  2.7084
   56MOL0     H 7673  -0.358  11.801   2.883 -0.3565  2.7113  1.1402
   56MOL0     H 7674  -0.298  11.743   2.730  1.5261  0.7373 -0.7086
   56MOL0     H 7675  -0.375  12.030   2.776 -2.0489 -0.7745 -0.4674
   56MOL0     H 7676  -0.365  11.945   2.618 -1.1187  2.2045 -1.3432
   56MOL0     H 7677  -0.579  11.977   2.954  1.7686 -0.6592 -0.1461
   56MOL0     H 7678  -0.794  11.822   3.032 -0.6449  1.3513  0.6142
   56MOL0     H 7679  -0.878  11.755   2.900  0.5289 -1.4393  1.4295
   56MOL0     H 7680  -0.909  12.023   2.829 -0.6475  2.4166  0.9835
   56MOL0     H 7681  -1.011  11.972   2.973  1.0628 -0.3115  1.6881
   56MOL0     H 7682  -0.769  12.037   3.105 -0.2028 -0.4108 -1.2799
   56MOL0     H 7683  -0.751  12.130   2.971 -1.3626 -1.0470 -1.8521
   56MOL0     H 7684  -0.992  12.161   3.169  4.6597 -2.2998  3.3563
   56MOL0     H 7685  -0.855  12.272   3.146  1.4518 -1.5630  2.6224
   56MOL0     H 7686  -0.895  12.480   3.044 -1.2740 -3.2681  2.1306
   56MOL0     H 7687  -1.018  12.752   3.225  0.8291  1.8429 -0.1945
   56MOL0     H 7688  -1.018  12.797   3.047  0.8023  1.2442  1.1477
   56MOL0     H 7689  -0.887  12.705   3.124  0.5953 -1.4779  3.0883
   56MOL0     H 7690  -1.381  12.938   2.899 -2.1253 -0.0875 -0.8236
   56MOL0     H 7691  -1.513  13.137   2.910 -2.1596 -0.0077 -0.1673
   56MOL0     H 7692  -1.532  13.286   3.142  0.8556 -1.5194 -2.6152
   56MOL0     H 7693  -1.614  13.311   2.984 -1.1139 -1.7286 -0.1869
   56MOL0     H 7694  -1.810  13.408   3.138  0.0728  0.5051 -3.0078
   56MOL0     H 7695  -1.689  13.423   3.265  1.7508  0.8334  0.0216
   56MOL0     H 7696  -1.695  13.586   2.998 -1.6348 -0.9635 -1.0001
   56MOL0     H 7697  -1.579  13.593   3.132 -0.5072  0.1860  1.2739
   56MOL0     H 7698  -1.729  13.633   3.289  0.4573 -1.0407 -1.5221
   56MOL0     H 7699  -1.881  13.610   3.199  0.8761 -4.1808 -2.2603
   56MOL0     H 7700  -1.849  13.835   3.251  1.0811 -1.7666  0.5857
   56MOL0     H 7701  -1.694  13.850   3.173  1.4777 -2.5822 -3.2217
   56MOL0     H 7702  -1.935  13.792   2.995 -1.0308  1.5859 -0.3112
   56MOL0     H 7703  -1.772  13.850   2.959 -0.3691  4.8055  0.1086
   56MOL0     H 7704  -1.815  14.062   3.079 -1.0215  0.4556  0.8128
   56MOL0     H 7705  -1.976  14.002   3.122  0.2055  1.6772  0.5648
   56MOL0     H 7706  -2.038  14.003   2.887 -1.4690 -2.4065  4.7198
   56MOL0     H 7707  -1.866  14.047   2.851  0.5343 -0.2822  2.0911
   56MOL0     H 7708  -1.762  12.952   3.219  1.4112  1.0545  1.8508
   56MOL0     H 7709  -1.629  12.756   3.206  1.3030  0.9304  1.1206
   56MOL0     H 7710  -1.379  12.465   3.078 -0.7861  1.3965  0.1956
   56MOL0     H 7711  -1.237  12.253   3.019  1.3446 -0.1878  2.2232
   56MOL0     H 7712   0.416  11.411   3.229 -2.3636  0.8711  2.4750
   56MOL0     H 7713   0.393  11.214   3.365  0.4855  0.6599 -0.4593
   56MOL0     H 7714   0.363  10.830   3.648 -0.9355  1.7185 -0.1416
   56MOL0     H 7715   0.271  10.658   3.790  2.1358  2.8089  0.0269
   56MOL0     H 7716   0.174  10.494   3.899  0.4100 -0.9556 -0.6635
   56MOL0     H 7717   0.055  10.378   3.884  2.5614 -1.5745  0.1318
   56MOL0     H 7718   0.301  10.425   3.706  1.0530 -2.2692 -0.0427
   56MOL0     H 7719   0.146  10.392   3.616 -0.2456 -0.4376  0.5171
   56MOL0     H 7720   0.113  10.198   3.766 -0.2513  0.2957  0.5484
   56MOL0     H 7721   0.241  10.186   3.655  1.4626 -0.2969  0.5069
   56MOL0     H 7722   0.286  10.258   3.946 -0.7064 -0.8835  0.2296
   56MOL0     H 7723   0.425  10.247   3.836  0.3937 -0.6468  0.1936
   56MOL0     H 7724   0.364   9.844   3.927 -2.3329 -0.0626 -0.6537
   56MOL0     H 7725  -0.111  10.702   3.584 -0.3560  0.6089  1.2615
   56MOL0     H 7726  -0.138  10.872   3.440  0.6643  1.1730  1.5770
   56MOL0     H 7727  -0.011  10.970   3.356 -1.0919 -1.0316 -2.5691
   56MOL0     H 7728  -0.054  10.809   3.312 -1.3287 -0.4491  0.0368
   57MOL0     O 7729   3.247   5.143  11.159  1.3612  0.5137 -0.0354
   57MOL0     C 7730   3.278   5.213  11.257 -0.1282  0.3214  0.5965
   57MOL0     O 7731   3.285   5.167  11.383 -0.0633  0.4046 -0.0979
   57MOL0     C 7732   3.311   5.255  11.484  0.5952  0.9712 -0.6530
   57MOL0     C 7733   3.434   5.224  11.544 -0.2507 -0.6434  0.3366
   57MOL0     C 7734   3.487   5.315  11.641  0.3829 -0.3898 -0.3636
   57MOL0     C 7735   3.413   5.424  11.684  0.0340 -0.1735  0.3226
   57MOL0     O 7736   3.472   5.520  11.761  0.3828 -0.8841  0.6069
   57MOL0     C 7737   3.392   5.594  11.856 -0.3608  0.0669 -0.5955
   57MOL0     C 7738   3.500   5.641  11.961  0.6679 -0.4583 -0.4360
   57MOL0     C 7739   3.564   5.533  12.034 -0.1808  0.7051  0.4932
   57MOL0     C 7740   3.709   5.563  12.089 -0.1322 -0.6952 -0.2656
   57MOL0     C 7741   3.766   5.430  12.140 -0.1722 -0.1427  0.2295
   57MOL0     C 7742   3.887   5.450  12.237  0.0986  0.1046  0.1019
   57MOL0     C 7743   3.952   5.321  12.279  0.9677  0.4223 -0.7806
   57MOL0     C 7744   4.059   5.332  12.387  0.6038 -0.8762  0.0227
   57MOL0     N 7745   4.171   5.412  12.336  0.2253  0.4546  0.1070
   57MOL0     C 7746   4.305   5.376  12.349 -0.2504 -0.6997 -0.0231
   57MOL0     C 7747   4.378   5.480  12.290 -0.7173  0.1157  0.2307
   57MOL0     C 7748   4.529   5.482  12.259 -0.4718  0.3155 -0.3220
   57MOL0     C 7749   4.600   5.618  12.268 -0.2339 -0.3735  0.1419
   57MOL0     C 7750   4.573   5.673  12.412  0.0067 -0.6407 -0.4648
   57MOL0     C 7751   4.665   5.775  12.457 -1.0440  0.0556 -0.2039
   57MOL0     O 7752   4.794   5.703  12.480  0.2539 -0.1561 -0.7640
   57MOL0     C 7753   4.901   5.779  12.445  0.3188 -0.5416 -0.3418
   57MOL0     C 7754   4.928   5.811  12.312  0.1176  0.0744 -0.5415
   57MOL0     C 7755   5.043   5.882  12.279 -0.4538  0.7714 -0.7319
   57MOL0     C 7756   5.068   5.898  12.138 -0.3126 -0.2173  1.0324
   57MOL0     C 7757   5.121   5.944  12.382  0.0941 -0.2057  0.9165
   57MOL0     C 7758   5.246   6.027  12.363 -0.1244 -0.4097 -0.5924
   57MOL0     O 7759   5.331   6.035  12.471  0.5046  0.2682  0.5183
   57MOL0     C 7760   5.450   6.097  12.455  0.6544 -0.6343  0.1145
   57MOL0     C 7761   5.465   6.235  12.487 -0.0403  0.4806  0.3276
   57MOL0     C 7762   5.590   6.290  12.490  0.2081 -0.1694 -1.1556
   57MOL0     C 7763   5.703   6.212  12.465 -0.3396 -0.1641  0.4138
   57MOL0     O 7764   5.837   6.250  12.464  0.4337  0.0164  0.3629
   57MOL0     C 7765   5.879   6.379  12.427 -0.9771  0.1160  0.5337
   57MOL0     C 7766   5.983   6.425  12.524  0.3505 -0.4844 -0.5504
   57MOL0     C 7767   5.916   6.457  12.658 -0.4416 -0.7873  0.4967
   57MOL0     C 7768   5.940   6.361  12.772  0.5147  0.5938 -0.6391
   57MOL0     C 7769   5.829   6.372  12.885 -0.9505 -0.4930  0.2847
   57MOL0     C 7770   5.683   6.318  12.846  0.4523  0.5983  0.7886
   57MOL0     C 7771   5.694   6.165  12.821 -0.5151 -0.6446 -0.6999
   57MOL0     C 7772   5.564   6.093  12.843 -0.8396 -0.4130 -0.1600
   57MOL0    Cl 7773   5.582   5.914  12.797  0.0324 -0.3411 -0.4442
   57MOL0     C 7774   5.686   6.080  12.419 -0.5962 -0.5336 -1.0589
   57MOL0     C 7775   5.563   6.023  12.410 -0.4861  0.3418 -0.6545
   57MOL0     O 7776   5.273   6.076  12.254  0.1153  0.8062 -0.0818
   57MOL0     C 7777   5.084   5.924  12.513  1.0033  0.9484 -0.2618
   57MOL0     C 7778   4.972   5.848  12.542 -0.0495  0.1049  0.2031
   57MOL0     N 7779   4.291   5.592  12.286 -0.9399 -0.7268  0.9390
   57MOL0     N 7780   4.172   5.546  12.305 -0.2663  0.0424  0.2673
   57MOL0     C 7781   3.282   5.444  11.626  0.9599  0.1542 -0.1075
   57MOL0     C 7782   3.229   5.353  11.536  0.2329 -0.1399 -0.2822
   57MOL0     C 7783   3.319   5.353  11.240  1.3862  0.5928 -0.2181
   57MOL0     C 7784   3.455   5.385  11.266 -0.0413 -0.7017  0.2751
   57MOL0     C 7785   3.498   5.521  11.282 -0.3086  0.0222 -1.0605
   57MOL0     C 7786   3.405   5.622  11.263  0.4684 -0.3714 -0.7291
   57MOL0     O 7787   3.431   5.751  11.297  0.2744  0.1832  0.1673
   57MOL0     C 7788   3.384   5.772  11.436 -0.3224 -0.5637 -0.8079
   57MOL0     C 7789   3.507   5.805  11.526  0.8590  0.1057  0.3349
   57MOL0     C 7790   3.620   5.704  11.523  0.5300 -0.6982 -0.8032
   57MOL0     C 7791   3.728   5.753  11.625 -0.0105 -0.1706  0.3636
   57MOL0     C 7792   3.787   5.885  11.590  0.5515  0.8244 -0.0453
   57MOL0     C 7793   3.819   6.002  11.574 -0.6847 -0.0848  0.3960
   57MOL0     C 7794   3.277   5.591  11.232  0.3103  0.1230  0.7760
   57MOL0     C 7795   3.232   5.464  11.222  0.5647  1.2720  0.2774
   57MOL0     C 7796   3.081   5.435  11.181  0.0899 -0.4890  0.0007
   57MOL0     H 7797   3.503   5.150  11.506 -0.2751 -0.3933 -0.1946
   57MOL0     H 7798   3.588   5.308  11.680 -0.6695 -1.5304  2.4286
   57MOL0     H 7799   3.313   5.529  11.896 -0.0647  0.0570 -0.0306
   57MOL0     H 7800   3.351   5.681  11.805  2.0831  0.5253 -1.9157
   57MOL0     H 7801   3.573   5.703  11.907 -0.9909  1.6819 -0.3759
   57MOL0     H 7802   3.461   5.708  12.038  0.4350 -0.9131 -0.1562
   57MOL0     H 7803   3.505   5.519  12.125 -0.9118 -0.4230 -0.1334
   57MOL0     H 7804   3.571   5.437  11.982  0.0284  0.2567  1.3290
   57MOL0     H 7805   3.767   5.602  12.005  1.7262  1.6648  1.9576
   57MOL0     H 7806   3.704   5.636  12.170 -0.0152 -2.3404  1.2918
   57MOL0     H 7807   3.790   5.377  12.048 -2.5814 -0.0774 -0.5036
   57MOL0     H 7808   3.693   5.379  12.204  0.2813 -0.9967  0.0799
   57MOL0     H 7809   3.951   5.514  12.175 -1.1382  1.3292  0.0461
   57MOL0     H 7810   3.850   5.498  12.328 -2.8851 -0.4056 -0.7488
   57MOL0     H 7811   3.999   5.286  12.187  2.0904  1.5621 -0.6761
   57MOL0     H 7812   3.878   5.244  12.302 -0.1413  1.0763 -2.0734
   57MOL0     H 7813   4.023   5.389  12.473 -0.5145 -1.9737  0.3098
   57MOL0     H 7814   4.091   5.239  12.433 -3.3655 -0.9859  3.1187
   57MOL0     H 7815   4.344   5.283  12.387  0.2801 -0.4539  0.0402
   57MOL0     H 7816   4.549   5.431  12.164  0.7299  0.2080 -0.0268
   57MOL0     H 7817   4.585   5.414  12.324  1.2349  1.4629 -0.5202
   57MOL0     H 7818   4.708   5.612  12.254 -0.6593 -2.8197 -3.0039
   57MOL0     H 7819   4.557   5.689  12.197 -0.3828 -0.1702  0.4298
   57MOL0     H 7820   4.473   5.717  12.414 -1.5725 -3.8228 -1.3053
   57MOL0     H 7821   4.567   5.597  12.491 -0.4332 -0.3317 -0.1951
   57MOL0     H 7822   4.669   5.857  12.386 -2.0591 -0.5363 -0.9680
   57MOL0     H 7823   4.629   5.799  12.558  1.9274 -1.9962  1.5340
   57MOL0     H 7824   4.867   5.779  12.228 -1.4809  0.3179  0.4743
   57MOL0     H 7825   5.134   5.818  12.103  0.4036  2.0039 -3.3327
   57MOL0     H 7826   5.104   5.995  12.104  2.0740 -2.3763 -3.4042
   57MOL0     H 7827   4.976   5.890  12.080 -0.2238  1.0452  0.6875
   57MOL0     H 7828   5.374   6.287  12.516 -0.7726  0.0754 -1.0898
   57MOL0     H 7829   5.593   6.397  12.509 -4.1760 -0.0130 -0.2501
   57MOL0     H 7830   5.934   6.367  12.333 -1.5477  2.1456 -0.1252
   57MOL0     H 7831   5.796   6.451  12.415 -1.8756 -1.2146 -2.0158
   57MOL0     H 7832   6.070   6.358  12.530  1.3214  0.8642  2.2181
   57MOL0     H 7833   6.019   6.516  12.476 -2.0741 -0.7435 -3.0870
   57MOL0     H 7834   5.807   6.462  12.647 -0.2147  0.7991 -1.7234
   57MOL0     H 7835   5.949   6.557  12.687  1.7105 -0.8987 -1.3195
   57MOL0     H 7836   6.030   6.390  12.827 -0.3054  0.6290  0.7437
   57MOL0     H 7837   5.945   6.259  12.733  3.8038 -0.0436  1.0932
   57MOL0     H 7838   5.883   6.340  12.975 -4.6061  0.9757  3.2768
   57MOL0     H 7839   5.819   6.481  12.895  0.3801 -0.4307  1.1764
   57MOL0     H 7840   5.641   6.363  12.756  1.6381 -0.6608 -0.4490
   57MOL0     H 7841   5.593   6.335  12.907  0.4647 -0.3818  1.0916
   57MOL0     H 7842   5.762   6.139  12.903 -1.5587  2.0709  1.1980
   57MOL0     H 7843   5.728   6.151  12.718  1.8037  0.4225 -0.1394
   57MOL0     H 7844   5.487   6.145  12.785 -0.8053  0.0482  0.2057
   57MOL0     H 7845   5.533   6.097  12.948 -0.9636 -0.6441 -0.1877
   57MOL0     H 7846   5.768   6.012  12.396 -1.0646 -2.2736  1.9171
   57MOL0     H 7847   5.543   5.923  12.374 -3.8741  0.5252  0.3754
   57MOL0     H 7848   5.146   5.971  12.588  0.5743 -1.6770  1.8938
   57MOL0     H 7849   4.927   5.834  12.640 -3.3472  1.3060 -0.9998
   57MOL0     H 7850   3.217   5.527  11.654 -2.0283 -2.0256 -0.1431
   57MOL0     H 7851   3.127   5.365  11.500  1.1357  1.0491 -2.6532
   57MOL0     H 7852   3.532   5.308  11.276 -0.0259 -1.1335 -2.4643
   57MOL0     H 7853   3.603   5.540  11.305 -0.2632 -1.4980  0.1730
   57MOL0     H 7854   3.314   5.856  11.429 -0.7105 -0.9632 -2.0278
   57MOL0     H 7855   3.320   5.700  11.488 -0.2301  1.9110  3.1641
   57MOL0     H 7856   3.466   5.816  11.627  0.6033  0.0150  0.2407
   57MOL0     H 7857   3.535   5.906  11.495  0.3552 -0.1024 -0.8605
   57MOL0     H 7858   3.578   5.607  11.552  0.9125 -0.2100  1.5982
   57MOL0     H 7859   3.670   5.705  11.426 -1.4562  4.0057 -2.0745
   57MOL0     H 7860   3.808   5.680  11.642 -0.8891 -0.9122  1.5342
   57MOL0     H 7861   3.675   5.766  11.720  0.4672  2.9910  0.2965
   57MOL0     H 7862   3.856   6.102  11.566 -0.4683 -0.2878 -1.8471
   57MOL0     H 7863   3.207   5.672  11.212  1.3484  0.2116 -3.2139
   57MOL0     H 7864   3.040   5.364  11.253 -0.5060  1.4634  1.6925
   57MOL0     H 7865   3.026   5.529  11.182  2.7575  1.2040 -0.4959
   57MOL0     H 7866   3.069   5.398  11.079  0.1331 -0.3892 -0.0408
   58MOL0     O 7867  10.883   6.659   7.151 -1.4096 -0.2614 -0.3396
   58MOL0     C 7868  10.847   6.544   7.162  0.5143 -1.0621 -0.5969
   58MOL0     O 7869  10.915   6.431   7.164  0.4475  1.2574  0.1952
   58MOL0     C 7870  11.047   6.420   7.135  1.3769  0.2987 -0.0754
   58MOL0     C 7871  11.106   6.288   7.154 -0.0896 -0.5199 -0.6276
   58MOL0     C 7872  11.247   6.266   7.137 -0.3775 -0.1856  0.4047
   58MOL0     C 7873  11.326   6.358   7.074  0.7732  0.0022  0.0488
   58MOL0     O 7874  11.461   6.339   7.068  0.1328 -0.9277 -0.1405
   58MOL0     C 7875  11.540   6.423   6.985  0.7788 -0.6418  0.1632
   58MOL0     C 7876  11.681   6.357   6.982  0.1130 -0.1321  0.4832
   58MOL0     C 7877  11.761   6.402   6.849  0.1640 -0.0339 -0.3585
   58MOL0     C 7878  11.905   6.340   6.861  0.5243 -0.7743  1.4806
   58MOL0     C 7879  11.981   6.362   6.727  0.5021  0.7512  0.1320
   58MOL0     C 7880  12.000   6.509   6.694 -0.6751 -0.9592  0.2735
   58MOL0     C 7881  12.109   6.538   6.589 -0.4825  0.2847  0.2891
   58MOL0     C 7882  12.086   6.461   6.458 -0.9309  0.1015  0.3465
   58MOL0     N 7883  12.192   6.471   6.359 -0.0159  0.7009  0.2522
   58MOL0     C 7884  12.199   6.433   6.223  0.8405  0.0335 -1.5096
   58MOL0     C 7885  12.316   6.464   6.171 -0.6559  0.5384 -0.4538
   58MOL0     C 7886  12.360   6.437   6.031  0.1532  0.1159 -0.1966
   58MOL0     C 7887  12.255   6.424   5.935  0.6185  0.5698  1.0377
   58MOL0     C 7888  12.297   6.420   5.787 -0.4178 -0.0354 -0.1885
   58MOL0     C 7889  12.178   6.384   5.704  0.3253  0.4577 -0.7051
   58MOL0     O 7890  12.222   6.361   5.566 -0.0458  0.4649 -0.7179
   58MOL0     C 7891  12.290   6.244   5.532  0.0834 -0.8300  0.2057
   58MOL0     C 7892  12.288   6.129   5.607 -0.1874  0.3197 -1.3660
   58MOL0     C 7893  12.347   6.000   5.574 -0.1412 -1.5407  0.7758
   58MOL0     C 7894  12.313   5.889   5.665 -0.6386 -0.9165 -0.2566
   58MOL0     C 7895  12.408   5.994   5.444  0.3162  0.7502 -0.1244
   58MOL0     C 7896  12.475   5.873   5.388  1.0611  0.2033  0.4240
   58MOL0     O 7897  12.582   5.883   5.308  0.0691 -0.6185  0.1202
   58MOL0     C 7898  12.655   5.763   5.287 -0.3152  0.9319 -1.0794
   58MOL0     C 7899  12.782   5.762   5.339 -0.1975  0.1717  0.8347
   58MOL0     C 7900  12.852   5.646   5.349  0.0745  0.3841  0.8744
   58MOL0     C 7901  12.807   5.526   5.289 -0.1025 -0.3398  0.5357
   58MOL0     O 7902  12.888   5.418   5.305  0.1072 -0.6254 -0.0671
   58MOL0     C 7903  12.863   5.300   5.227  0.6493 -0.2283 -0.9953
   58MOL0     C 7904  12.962   5.195   5.257 -0.7542 -0.0929 -0.7072
   58MOL0     C 7905  12.921   5.075   5.172  0.0809 -0.2919 -0.8057
   58MOL0     C 7906  13.028   4.960   5.176  0.5294 -0.7211 -1.0818
   58MOL0     C 7907  13.021   4.847   5.071  0.7743 -0.8888 -0.4549
   58MOL0     C 7908  13.109   4.727   5.091 -0.2621  0.7096 -0.0532
   58MOL0     C 7909  13.247   4.730   5.025  0.2070 -0.3028 -0.7876
   58MOL0     C 7910  13.311   4.591   5.045 -1.0672 -0.5195 -0.0497
   58MOL0    Cl 7911  13.326   4.534   5.206  0.7660  0.1160 -0.0519
   58MOL0     C 7912  12.678   5.529   5.226 -0.3720 -0.0569  0.0328
   58MOL0     C 7913  12.604   5.649   5.231  0.9422 -0.1743 -0.2492
   58MOL0     O 7914  12.424   5.767   5.433  0.4423  0.4550  0.2656
   58MOL0     C 7915  12.421   6.116   5.373 -0.0967  0.3048 -1.0112
   58MOL0     C 7916  12.359   6.235   5.411 -1.1064 -0.4623 -0.3621
   58MOL0     N 7917  12.384   6.528   6.269 -0.2903  0.7978 -0.2414
   58MOL0     N 7918  12.316   6.528   6.374  0.5575 -0.3903 -0.0126
   58MOL0     C 7919  11.259   6.477   7.033 -1.6211 -0.9818 -0.2323
   58MOL0     C 7920  11.133   6.513   7.071  0.0078 -0.4364 -0.3642
   58MOL0     C 7921  10.700   6.528   7.168 -0.6103 -0.1756  0.6529
   58MOL0     C 7922  10.649   6.535   7.294  0.0552 -0.0127 -0.4899
   58MOL0     C 7923  10.515   6.542   7.305  0.7349 -0.5466  0.2321
   58MOL0     C 7924  10.425   6.510   7.195  0.1227  0.1534  0.3521
   58MOL0     O 7925  10.282   6.497   7.210 -0.9816 -0.0823  0.2569
   58MOL0     C 7926  10.205   6.529   7.091 -0.2640 -0.4735 -0.0674
   58MOL0     C 7927  10.053   6.549   7.129  0.3178 -0.2215 -0.2737
   58MOL0     C 7928  10.026   6.688   7.205 -0.6716 -1.2423 -0.0516
   58MOL0     C 7929   9.975   6.796   7.116  0.0762 -0.0744 -0.1397
   58MOL0     C 7930   9.836   6.768   7.092  0.1417 -0.6626 -0.0284
   58MOL0     C 7931   9.726   6.726   7.063  0.3854 -0.1007  0.6740
   58MOL0     C 7932  10.481   6.498   7.071 -0.5595  0.1130  0.0338
   58MOL0     C 7933  10.621   6.504   7.055  0.2694 -0.5054 -0.1435
   58MOL0     C 7934  10.683   6.514   6.916  0.6470  0.6661  0.1926
   58MOL0     H 7935  11.049   6.206   7.196 -1.8741  0.3036 -1.3521
   58MOL0     H 7936  11.286   6.170   7.167  1.2582 -0.6056 -2.6859
   58MOL0     H 7937  11.553   6.524   7.027 -1.2595 -1.5640  3.3284
   58MOL0     H 7938  11.511   6.433   6.880  2.4192  0.3523 -0.2365
   58MOL0     H 7939  11.749   6.383   7.064  3.5049  0.3977 -2.2596
   58MOL0     H 7940  11.675   6.248   6.978  2.2510 -0.2525 -1.3128
   58MOL0     H 7941  11.717   6.390   6.749  0.4384  0.3660 -0.5320
   58MOL0     H 7942  11.766   6.511   6.859  1.2000 -0.3367  5.7286
   58MOL0     H 7943  11.960   6.405   6.929 -0.7164  1.2982  0.6145
   58MOL0     H 7944  11.904   6.235   6.892 -0.4129 -0.3754  2.9118
   58MOL0     H 7945  11.940   6.303   6.644  0.6949 -0.6192  0.9975
   58MOL0     H 7946  12.077   6.310   6.739  0.0522 -0.6169 -1.7481
   58MOL0     H 7947  11.911   6.558   6.652 -0.9364 -0.9207  0.8676
   58MOL0     H 7948  12.029   6.566   6.783 -0.6200 -1.6020  0.6660
   58MOL0     H 7949  12.203   6.509   6.637  2.2260  1.7795 -3.5268
   58MOL0     H 7950  12.110   6.645   6.566 -2.1620  0.2784  0.0981
   58MOL0     H 7951  12.098   6.355   6.482  2.1974 -0.3619 -2.6011
   58MOL0     H 7952  11.987   6.485   6.419 -0.2336  1.3483 -0.7081
   58MOL0     H 7953  12.110   6.391   6.179 -0.6637  1.1219  0.3704
   58MOL0     H 7954  12.428   6.351   6.024  1.6423  1.4087 -4.1162
   58MOL0     H 7955  12.428   6.519   6.007  3.5392 -1.9931  1.3371
   58MOL0     H 7956  12.194   6.334   5.949 -0.3617  0.5360 -2.5487
   58MOL0     H 7957  12.186   6.509   5.941  1.0939  1.1131 -0.5518
   58MOL0     H 7958  12.343   6.512   5.751  2.6261 -1.3667 -0.0121
   58MOL0     H 7959  12.375   6.347   5.764  2.7273  3.1327 -0.3485
   58MOL0     H 7960  12.120   6.306   5.755  0.2451  1.5513  0.9534
   58MOL0     H 7961  12.112   6.471   5.694  0.1933  0.1064 -3.9516
   58MOL0     H 7962  12.231   6.132   5.699 -0.0985 -0.5384 -1.2730
   58MOL0     H 7963  12.273   5.800   5.615  0.8930 -2.1412  0.6157
   58MOL0     H 7964  12.253   5.924   5.750  2.0140 -1.5136  1.9997
   58MOL0     H 7965  12.402   5.859   5.721  1.3321  1.7886 -1.7337
   58MOL0     H 7966  12.845   5.845   5.367  2.9946 -1.0978 -1.7777
   58MOL0     H 7967  12.953   5.652   5.389  1.0869 -0.6405 -1.3926
   58MOL0     H 7968  12.762   5.261   5.242 -1.1718  2.7009 -3.9479
   58MOL0     H 7969  12.875   5.332   5.122  1.1287 -2.6314 -1.7234
   58MOL0     H 7970  13.063   5.225   5.229  1.2345 -3.0408  2.4896
   58MOL0     H 7971  12.968   5.167   5.363  0.0310  0.7855 -0.5043
   58MOL0     H 7972  12.909   5.110   5.069 -0.1876 -2.2151 -1.4681
   58MOL0     H 7973  12.835   5.031   5.223 -0.0284 -1.2416 -1.7792
   58MOL0     H 7974  13.009   4.918   5.275 -0.3922  0.2229 -0.8456
   58MOL0     H 7975  13.128   5.004   5.177  0.1100  0.3028  1.1747
   58MOL0     H 7976  12.918   4.812   5.066 -0.7280  3.1658 -3.0243
   58MOL0     H 7977  13.041   4.882   4.969 -1.5124 -1.9917 -1.3426
   58MOL0     H 7978  13.060   4.646   5.037  3.0677  0.6116 -3.3403
   58MOL0     H 7979  13.119   4.698   5.196  0.8543  0.0940 -0.3155
   58MOL0     H 7980  13.311   4.804   5.074 -1.7584 -0.9123  3.0090
   58MOL0     H 7981  13.232   4.756   4.919 -2.1876  1.3578 -0.1233
   58MOL0     H 7982  13.415   4.592   5.011 -1.2724  1.2045 -0.6945
   58MOL0     H 7983  13.252   4.521   4.986 -0.8363  0.5559 -1.6064
   58MOL0     H 7984  12.644   5.436   5.182  1.4552  0.6842 -3.2144
   58MOL0     H 7985  12.504   5.643   5.189  1.2523 -1.3204 -0.8793
   58MOL0     H 7986  12.456   6.118   5.271  2.0986  2.8579 -0.3203
   58MOL0     H 7987  12.354   6.318   5.341  4.0192  0.2486 -0.3110
   58MOL0     H 7988  11.325   6.552   6.990  0.9040 -2.4564  0.8225
   58MOL0     H 7989  11.104   6.616   7.053 -0.8571 -0.1606  2.2055
   58MOL0     H 7990  10.711   6.554   7.381 -2.8755  3.0914  1.1493
   58MOL0     H 7991  10.485   6.560   7.408 -0.1812 -1.5968  0.1623
   58MOL0     H 7992  10.248   6.622   7.052 -0.5386 -0.4884 -0.4160
   58MOL0     H 7993  10.206   6.456   7.009  1.9646 -0.5116 -0.0568
   58MOL0     H 7994  10.047   6.475   7.210 -2.1317 -1.3170 -1.3890
   58MOL0     H 7995   9.985   6.538   7.045 -0.8347  1.8989  0.3077
   58MOL0     H 7996   9.955   6.670   7.287  1.0184 -2.8480  1.1267
   58MOL0     H 7997  10.128   6.709   7.237 -1.3515 -1.7676  2.7203
   58MOL0     H 7998  10.040   6.812   7.029 -0.3028  0.9928 -0.2460
   58MOL0     H 7999   9.976   6.890   7.173  0.9568 -1.7221  2.7234
   58MOL0     H 8000   9.639   6.678   7.023  0.6912  0.8416 -1.1792
   58MOL0     H 8001  10.433   6.482   6.975  1.1124 -0.4875 -0.7441
   58MOL0     H 8002  10.610   6.559   6.847 -0.2456 -1.7956 -0.5924
   58MOL0     H 8003  10.778   6.566   6.906  0.5224  0.8937  0.1946
   58MOL0     H 8004  10.690   6.410   6.882 -2.4460  0.3565  0.1800
   59MOL0     O 8005  11.103   0.791   1.268 -0.6400  0.6292  0.0622
   59MOL0     C 8006  10.991   0.838   1.281 -0.2960  0.8090  0.3036
   59MOL0     O 8007  10.880   0.761   1.270  0.1832 -0.1669 -0.2077
   59MOL0     C 8008  10.869   0.625   1.258 -0.7833  0.1681  0.5370
   59MOL0     C 8009  10.968   0.540   1.221 -0.2653 -0.5010  0.2216
   59MOL0     C 8010  10.954   0.400   1.228  0.4398 -0.5869  0.1105
   59MOL0     C 8011  10.832   0.348   1.284 -0.4620  0.5856  0.3683
   59MOL0     O 8012  10.807   0.208   1.289 -0.0209 -0.1966 -0.0434
   59MOL0     C 8013  10.703   0.158   1.373  0.4215  0.2684 -0.6094
   59MOL0     C 8014  10.722   0.006   1.362  0.3050  0.2008 -0.3428
   59MOL0     C 8015  10.628  -0.057   1.468  0.5516  0.0546 -0.8783
   59MOL0     C 8016  10.668  -0.203   1.508 -0.2074 -0.5124  0.2196
   59MOL0     C 8017  10.580  -0.248   1.624 -0.1398 -0.0465  0.4365
   59MOL0     C 8018  10.610  -0.398   1.649  0.3189 -0.0907  0.8398
   59MOL0     C 8019  10.530  -0.466   1.754  0.0296  0.2061  0.4920
   59MOL0     C 8020  10.551  -0.612   1.751 -0.5802 -0.1210  0.0087
   59MOL0     N 8021  10.458  -0.681   1.838 -0.2119 -0.7589  0.1400
   59MOL0     C 8022  10.323  -0.687   1.808 -0.4339  0.4579  0.5522
   59MOL0     C 8023  10.270  -0.735   1.920  0.3259 -0.3548 -0.4508
   59MOL0     C 8024  10.123  -0.758   1.944 -0.0979 -0.1062  0.3104
   59MOL0     C 8025  10.084  -0.896   1.991 -0.2896 -0.3453 -1.5551
   59MOL0     C 8026  10.152  -1.005   1.898  0.0426  0.0864  0.2868
   59MOL0     C 8027  10.115  -1.139   1.969 -0.2817 -0.2757  0.1775
   59MOL0     O 8028  10.157  -1.261   1.901  0.1306 -0.2328 -0.9401
   59MOL0     C 8029  10.287  -1.270   1.877 -0.6838 -0.3102  0.0381
   59MOL0     C 8030  10.325  -1.364   1.783  0.8388 -0.5563  0.7617
   59MOL0     C 8031  10.460  -1.390   1.758  0.6896 -0.0589 -0.5697
   59MOL0     C 8032  10.477  -1.500   1.657 -0.1608  0.5239 -0.2890
   59MOL0     C 8033  10.562  -1.324   1.827 -0.6366 -0.5739 -0.5546
   59MOL0     C 8034  10.705  -1.348   1.797 -0.0185 -0.3247  1.2950
   59MOL0     O 8035  10.773  -1.389   1.906 -0.0390  0.0579 -0.0299
   59MOL0     C 8036  10.897  -1.444   1.895  0.3526 -0.6906  0.0735
   59MOL0     C 8037  11.013  -1.362   1.928  0.5971  0.2818 -0.4829
   59MOL0     C 8038  11.147  -1.407   1.902  0.6472 -0.4246  0.4429
   59MOL0     C 8039  11.164  -1.532   1.842  0.6449 -0.1664 -0.3228
   59MOL0     O 8040  11.289  -1.567   1.818 -0.5912 -0.2254  0.6039
   59MOL0     C 8041  11.328  -1.704   1.801  0.0363 -0.4432  0.1743
   59MOL0     C 8042  11.479  -1.698   1.798  0.4362  0.6550  0.4757
   59MOL0     C 8043  11.570  -1.820   1.800 -0.5722 -0.4361  0.5040
   59MOL0     C 8044  11.533  -1.914   1.908 -0.2191  0.9742 -0.1066
   59MOL0     C 8045  11.624  -2.038   1.919 -0.9556  0.9478 -1.1506
   59MOL0     C 8046  11.628  -2.141   1.806 -1.0003 -0.3887  0.0790
   59MOL0     C 8047  11.678  -2.283   1.844 -0.5025 -0.5546  0.8109
   59MOL0     C 8048  11.568  -2.388   1.816 -0.3622  0.2076  0.1216
   59MOL0    Cl 8049  11.418  -2.379   1.913 -0.1861 -0.5354  0.5907
   59MOL0     C 8050  11.053  -1.608   1.796 -0.1757 -0.1466 -0.2619
   59MOL0     C 8051  10.919  -1.564   1.830 -0.2966  0.8729  0.0967
   59MOL0     O 8052  10.754  -1.346   1.679 -0.5469  0.0647 -0.5042
   59MOL0     C 8053  10.531  -1.213   1.901  0.3842  1.9734 -0.4392
   59MOL0     C 8054  10.392  -1.197   1.941 -0.3362  0.4994 -0.3660
   59MOL0     N 8055  10.363  -0.767   2.014  0.1588  0.3624  0.5758
   59MOL0     N 8056  10.480  -0.721   1.965 -0.0998  0.6487 -0.7825
   59MOL0     C 8057  10.740   0.433   1.329  0.2624 -0.2736 -0.0588
   59MOL0     C 8058  10.755   0.572   1.317  0.0085  0.5838  0.7978
   59MOL0     C 8059  10.979   0.983   1.303 -0.0692 -0.0252 -0.2486
   59MOL0     C 8060  10.854   1.044   1.291  0.5392 -0.0114  0.1640
   59MOL0     C 8061  10.838   1.181   1.299  0.2742  0.0289  0.6179
   59MOL0     C 8062  10.943   1.266   1.331  0.7123  1.1537 -0.1793
   59MOL0     O 8063  10.917   1.400   1.323 -0.7935 -0.9232 -0.3858
   59MOL0     C 8064  11.029   1.495   1.319  0.3084  0.5865 -0.6064
   59MOL0     C 8065  10.977   1.632   1.278 -0.2260  0.8744  0.2821
   59MOL0     C 8066  10.883   1.645   1.151 -0.7503 -0.2639  0.1821
   59MOL0     C 8067  10.882   1.786   1.079 -0.1646  0.3404  0.1523
   59MOL0     C 8068  10.989   1.783   0.978 -0.7478 -1.0180 -0.2020
   59MOL0     C 8069  11.065   1.792   0.887  0.0968 -0.6040  0.2868
   59MOL0     C 8070  11.070   1.210   1.341 -0.4178  0.2213  0.0825
   59MOL0     C 8071  11.095   1.069   1.325  0.2339 -0.1172 -0.3261
   59MOL0     C 8072  11.235   1.033   1.326 -0.3041  0.6368 -0.0502
   59MOL0     H 8073  11.057   0.585   1.177 -0.0888 -0.5903  0.4918
   59MOL0     H 8074  11.031   0.335   1.188  0.3593 -0.3342 -0.4613
   59MOL0     H 8075  10.597   0.174   1.349 -0.0635 -0.3351  1.0330
   59MOL0     H 8076  10.721   0.177   1.479  1.8339  1.9997 -1.1208
   59MOL0     H 8077  10.698  -0.025   1.260  1.0922  1.9686 -1.1147
   59MOL0     H 8078  10.823  -0.022   1.394 -0.5440  2.3637  5.4984
   59MOL0     H 8079  10.633  -0.005   1.564 -0.1778 -3.1241  1.0497
   59MOL0     H 8080  10.525  -0.050   1.432  0.7228  4.2395 -1.0463
   59MOL0     H 8081  10.644  -0.274   1.428 -1.5317  0.5834 -0.4132
   59MOL0     H 8082  10.767  -0.208   1.553 -1.2373 -0.9905  2.5776
   59MOL0     H 8083  10.476  -0.245   1.589  0.2400  0.1533 -0.7288
   59MOL0     H 8084  10.583  -0.187   1.715 -0.2874  0.8917 -0.1647
   59MOL0     H 8085  10.608  -0.461   1.559  1.0506 -0.0916  0.8110
   59MOL0     H 8086  10.716  -0.397   1.677  0.8106  2.8531 -0.6678
   59MOL0     H 8087  10.426  -0.440   1.735 -0.9460 -3.3884  0.2249
   59MOL0     H 8088  10.560  -0.420   1.848 -2.1771  0.1382  1.2672
   59MOL0     H 8089  10.544  -0.657   1.651  1.1133 -4.5971  1.6312
   59MOL0     H 8090  10.650  -0.625   1.796 -0.3062  2.1144  0.1366
   59MOL0     H 8091  10.265  -0.667   1.719  0.2471  2.2610  0.4687
   59MOL0     H 8092  10.065  -0.725   1.858  0.1524 -1.2897 -0.3387
   59MOL0     H 8093  10.094  -0.682   2.017  1.0631 -0.5479  1.2720
   59MOL0     H 8094  10.122  -0.901   2.094 -1.7728 -0.2478 -0.9698
   59MOL0     H 8095   9.975  -0.900   1.999 -0.4682  0.7268 -3.1346
   59MOL0     H 8096  10.101  -0.999   1.801 -0.9947  0.3361  0.8324
   59MOL0     H 8097  10.257  -0.976   1.889 -0.6004  2.1872 -1.0542
   59MOL0     H 8098  10.148  -1.138   2.074 -1.1991 -2.2662  0.5443
   59MOL0     H 8099  10.006  -1.151   1.972 -0.2930 -0.3162 -0.4262
   59MOL0     H 8100  10.240  -1.406   1.730  1.6265 -1.3876  0.1197
   59MOL0     H 8101  10.580  -1.534   1.645  0.1078 -0.8907  4.0954
   59MOL0     H 8102  10.444  -1.473   1.556  1.4486  1.3201 -0.6333
   59MOL0     H 8103  10.419  -1.586   1.693  1.5433 -0.5552 -0.0245
   59MOL0     H 8104  10.992  -1.261   1.963  1.2313  0.0429  0.6096
   59MOL0     H 8105  11.234  -1.352   1.936  1.5344 -2.3306  1.4166
   59MOL0     H 8106  11.303  -1.774   1.882  2.2918 -0.8430  0.6092
   59MOL0     H 8107  11.303  -1.744   1.702  2.7313  1.4083 -1.3770
   59MOL0     H 8108  11.503  -1.650   1.703  0.4855  2.5377  1.3894
   59MOL0     H 8109  11.511  -1.632   1.879  3.7894 -1.8525  1.4242
   59MOL0     H 8110  11.670  -1.781   1.823 -0.7692 -0.0994  0.8078
   59MOL0     H 8111  11.577  -1.866   1.702 -0.4151  2.4256 -0.9463
   59MOL0     H 8112  11.434  -1.958   1.895 -0.2491  1.1635 -0.5362
   59MOL0     H 8113  11.538  -1.854   1.999  4.0342  2.7382 -1.2542
   59MOL0     H 8114  11.724  -1.997   1.937 -0.6979 -1.0925  3.5368
   59MOL0     H 8115  11.604  -2.087   2.015  0.6508  4.2967  1.0834
   59MOL0     H 8116  11.698  -2.102   1.731 -1.6270 -0.4613 -0.5518
   59MOL0     H 8117  11.530  -2.136   1.757 -0.1198  1.0835 -1.6646
   59MOL0     H 8118  11.702  -2.289   1.951 -2.5406 -5.0634  1.2139
   59MOL0     H 8119  11.768  -2.313   1.791 -0.2110 -0.1082  1.0480
   59MOL0     H 8120  11.622  -2.483   1.829  3.9530  2.2063 -1.1772
   59MOL0     H 8121  11.548  -2.374   1.710  1.5775  0.0792 -0.3011
   59MOL0     H 8122  11.076  -1.698   1.741  3.6928 -0.3823  1.4486
   59MOL0     H 8123  10.840  -1.638   1.827 -1.3259  1.9025  1.0137
   59MOL0     H 8124  10.605  -1.150   1.950  0.2630  0.2310  2.2306
   59MOL0     H 8125  10.377  -1.132   2.026 -0.0860  0.9784 -0.6779
   59MOL0     H 8126  10.658   0.401   1.392 -0.3391  2.8543  0.8925
   59MOL0     H 8127  10.677   0.640   1.349 -0.0801  1.6845 -1.5110
   59MOL0     H 8128  10.767   0.980   1.280  2.0452 -2.3730  1.0576
   59MOL0     H 8129  10.738   1.223   1.296  0.1650 -0.2610  0.2424
   59MOL0     H 8130  11.074   1.511   1.417  0.1431  2.1038 -0.7580
   59MOL0     H 8131  11.112   1.464   1.255  1.4426  1.8533  0.2218
   59MOL0     H 8132  11.058   1.704   1.267 -0.2095  0.7921 -0.1623
   59MOL0     H 8133  10.917   1.668   1.362 -0.7327 -2.0472  1.3033
   59MOL0     H 8134  10.893   1.556   1.090  0.7078 -0.3863  0.5657
   59MOL0     H 8135  10.780   1.635   1.187 -0.9534 -1.6018 -0.7015
   59MOL0     H 8136  10.876   1.870   1.148  0.3382 -0.2068  0.8708
   59MOL0     H 8137  10.788   1.789   1.023  1.5455 -0.8376 -3.0370
   59MOL0     H 8138  11.141   1.789   0.811 -0.4350 -1.2151 -0.2343
   59MOL0     H 8139  11.153   1.280   1.353 -1.2236  1.1895  0.1646
   59MOL0     H 8140  11.287   1.021   1.230  1.0475 -0.3959  0.7705
   59MOL0     H 8141  11.277   1.114   1.385 -1.4239 -0.0338  1.7379
   59MOL0     H 8142  11.255   0.943   1.385  1.6561 -0.3294 -2.0129
   60MOL0     O 8143   9.619   6.969   3.471  0.4193 -0.2292 -0.9187
   60MOL0     C 8144   9.568   6.857   3.487 -0.5108  0.0051 -0.7173
   60MOL0     O 8145   9.540   6.764   3.393  0.0721  0.7779 -0.5642
   60MOL0     C 8146   9.609   6.764   3.268  0.2190  0.5532 -0.7405
   60MOL0     C 8147   9.707   6.847   3.223 -0.4684  0.2154  0.3738
   60MOL0     C 8148   9.758   6.823   3.091  0.0450  0.2618  0.4867
   60MOL0     C 8149   9.708   6.733   3.009 -0.0526  0.1597  0.4714
   60MOL0     O 8150   9.746   6.723   2.876 -0.3680 -0.2321 -0.0134
   60MOL0     C 8151   9.836   6.800   2.803  0.3351 -0.6433  0.4810
   60MOL0     C 8152   9.980   6.787   2.849  0.0539  0.5519  0.1859
   60MOL0     C 8153  10.034   6.651   2.798 -0.4293 -0.8449 -0.1986
   60MOL0     C 8154  10.188   6.657   2.793 -0.4778 -0.9707 -0.5093
   60MOL0     C 8155  10.263   6.538   2.753 -0.0043 -0.1741  0.8010
   60MOL0     C 8156  10.416   6.565   2.759  0.3176  0.7944  0.5542
   60MOL0     C 8157  10.496   6.439   2.717  0.7658 -0.4265 -0.6647
   60MOL0     C 8158  10.494   6.324   2.820 -0.2148 -0.3353 -1.1442
   60MOL0     N 8159  10.563   6.212   2.766 -0.2545 -0.0052  0.6216
   60MOL0     C 8160  10.576   6.180   2.633 -0.9813 -0.3284  0.1728
   60MOL0     C 8161  10.634   6.054   2.643 -0.3609  0.8161  0.4092
   60MOL0     C 8162  10.664   5.969   2.521 -0.5896 -0.2086  0.9101
   60MOL0     C 8163  10.799   5.883   2.543  0.7197  0.1816 -0.7385
   60MOL0     C 8164  10.799   5.755   2.459 -0.4892  0.2580 -0.0691
   60MOL0     C 8165  10.823   5.774   2.311  0.1925 -1.1868 -1.0189
   60MOL0     O 8166  10.698   5.801   2.247  0.6555 -0.8897 -0.6685
   60MOL0     C 8167  10.698   5.778   2.115 -0.6843  0.2119 -0.1754
   60MOL0     C 8168  10.576   5.781   2.044 -0.1372 -0.6714  0.1041
   60MOL0     C 8169  10.567   5.769   1.906 -0.1962  0.1263  0.4947
   60MOL0     C 8170  10.431   5.772   1.843  1.2732 -0.0625 -0.3286
   60MOL0     C 8171  10.685   5.761   1.831 -0.5123  0.7769  0.1983
   60MOL0     C 8172  10.687   5.728   1.691 -0.5048 -0.9718  0.9776
   60MOL0     O 8173  10.763   5.814   1.625 -0.8011  0.0798 -0.1492
   60MOL0     C 8174  10.818   5.775   1.508  0.9316  0.2083  0.1147
   60MOL0     C 8175  10.744   5.808   1.397  0.7203  0.5381  0.2697
   60MOL0     C 8176  10.778   5.766   1.261  0.4107  0.0362 -0.4836
   60MOL0     C 8177  10.893   5.686   1.243 -0.0808 -0.1901  0.1418
   60MOL0     O 8178  10.935   5.629   1.128 -0.1986 -0.0675 -0.3394
   60MOL0     C 8179  10.861   5.656   1.004 -0.4789  0.6011  0.7930
   60MOL0     C 8180  10.911   5.569   0.891 -0.3009  0.2594  0.8070
   60MOL0     C 8181  10.878   5.615   0.750  0.0558 -0.0543 -0.7873
   60MOL0     C 8182  10.944   5.533   0.649 -0.2667  0.2837  1.6540
   60MOL0     C 8183  10.901   5.563   0.508  0.2081 -0.1059 -0.0572
   60MOL0     C 8184  10.988   5.486   0.402  0.3331 -0.0032  0.7155
   60MOL0     C 8185  10.957   5.512   0.255  0.2248  0.6616 -1.0610
   60MOL0     C 8186  11.010   5.640   0.204  0.2012 -0.3865  0.3634
   60MOL0    Cl 8187  11.179   5.627   0.150  0.1570  0.1082 -0.5236
   60MOL0     C 8188  10.961   5.658   1.363 -0.4342  0.3540  0.4873
   60MOL0     C 8189  10.936   5.707   1.492 -0.7474 -0.6183 -0.3631
   60MOL0     O 8190  10.624   5.636   1.640 -0.0618 -0.0790 -0.0409
   60MOL0     C 8191  10.813   5.761   1.899 -0.5902 -0.1775 -0.0036
   60MOL0     C 8192  10.816   5.760   2.040  0.2670  0.1956 -0.6784
   60MOL0     N 8193  10.663   6.029   2.774  0.3208  0.3606 -0.3363
   60MOL0     N 8194  10.618   6.123   2.846 -1.1633  0.2956  1.0360
   60MOL0     C 8195   9.615   6.640   3.054 -0.5762  0.3692 -0.0728
   60MOL0     C 8196   9.572   6.653   3.188  1.2342 -0.1670 -0.1877
   60MOL0     C 8197   9.509   6.826   3.619 -0.1411  1.2360 -0.2161
   60MOL0     C 8198   9.375   6.778   3.621 -0.3224  1.0027  0.3266
   60MOL0     C 8199   9.312   6.758   3.738  0.1658 -0.6124 -0.2999
   60MOL0     C 8200   9.371   6.788   3.858  0.2105 -0.8559 -1.0300
   60MOL0     O 8201   9.287   6.769   3.961  0.8971 -0.2196 -0.5669
   60MOL0     C 8202   9.347   6.781   4.091  0.0886  0.7481 -0.2588
   60MOL0     C 8203   9.231   6.779   4.197  0.2767  0.6178  0.4974
   60MOL0     C 8204   9.290   6.769   4.345  0.8930  0.2231 -0.0975
   60MOL0     C 8205   9.334   6.907   4.385 -0.8578  0.2880  0.0589
   60MOL0     C 8206   9.373   6.891   4.524  1.0862 -0.2509 -0.5916
   60MOL0     C 8207   9.394   6.868   4.644 -0.3743  0.5008  0.4112
   60MOL0     C 8208   9.508   6.824   3.863  0.2644 -0.4832  0.7655
   60MOL0     C 8209   9.575   6.846   3.747  0.7763 -0.1177  0.5357
   60MOL0     C 8210   9.712   6.886   3.758 -1.1809 -0.0904 -0.1797
   60MOL0     H 8211   9.757   6.927   3.278  2.9773 -0.2019 -1.8146
   60MOL0     H 8212   9.827   6.901   3.062  2.7154 -1.4387  1.8108
   60MOL0     H 8213   9.802   6.900   2.830  0.0466 -1.2257  2.4360
   60MOL0     H 8214   9.820   6.781   2.696 -0.0291 -2.0274  0.7621
   60MOL0     H 8215  10.030   6.875   2.807  2.8649 -1.2901 -0.5840
   60MOL0     H 8216   9.981   6.798   2.958  3.1513 -3.9905  0.8629
   60MOL0     H 8217  10.004   6.570   2.865 -2.6971  1.6573  2.0424
   60MOL0     H 8218   9.997   6.627   2.698  1.9985 -0.1029 -1.3486
   60MOL0     H 8219  10.220   6.732   2.721  3.5178 -4.3609 -2.7443
   60MOL0     H 8220  10.225   6.690   2.890 -1.5846  1.3093 -0.8007
   60MOL0     H 8221  10.237   6.519   2.648  2.1703  1.7029 -0.1920
   60MOL0     H 8222  10.241   6.451   2.816 -0.0746  0.3019  1.4375
   60MOL0     H 8223  10.438   6.638   2.680  0.8151 -2.1621 -2.2806
   60MOL0     H 8224  10.443   6.604   2.857  0.7487 -0.0463  0.7815
   60MOL0     H 8225  10.601   6.467   2.703  0.4315 -0.1893 -3.0819
   60MOL0     H 8226  10.453   6.418   2.619  2.5772  2.3939 -2.2151
   60MOL0     H 8227  10.550   6.360   2.907 -1.5955  0.9151 -0.7303
   60MOL0     H 8228  10.391   6.307   2.853  0.3909  0.5462  1.4455
   60MOL0     H 8229  10.552   6.236   2.544 -0.0095 -1.2933 -0.7264
   60MOL0     H 8230  10.675   6.025   2.427 -0.1604 -2.5057 -0.5024
   60MOL0     H 8231  10.583   5.898   2.500  1.3194 -2.6062  1.1760
   60MOL0     H 8232  10.883   5.945   2.508 -0.4401  2.5003  0.3614
   60MOL0     H 8233  10.810   5.862   2.650  0.2775  1.9794 -0.3140
   60MOL0     H 8234  10.878   5.695   2.504 -0.5096 -0.5171 -1.0264
   60MOL0     H 8235  10.703   5.704   2.468  0.2417 -0.6989  4.0958
   60MOL0     H 8236  10.901   5.849   2.295 -1.7808  0.6433 -2.4728
   60MOL0     H 8237  10.868   5.680   2.278  1.8259 -1.7354  2.2920
   60MOL0     H 8238  10.493   5.790   2.113  1.0431  3.4724  1.3021
   60MOL0     H 8239  10.421   5.827   1.749 -0.6028 -1.5168 -1.0594
   60MOL0     H 8240  10.363   5.819   1.915  1.9496  0.9518 -0.3392
   60MOL0     H 8241  10.394   5.669   1.830 -2.2397  0.6307  2.5810
   60MOL0     H 8242  10.657   5.870   1.417  0.1612  0.4379 -1.6790
   60MOL0     H 8243  10.720   5.802   1.178  0.9672  1.6222 -0.2150
   60MOL0     H 8244  10.755   5.637   1.023 -1.1288  2.5072 -0.6698
   60MOL0     H 8245  10.866   5.761   0.975  2.5381  0.2527 -0.2802
   60MOL0     H 8246  11.019   5.555   0.890 -0.0649  1.9428  0.8574
   60MOL0     H 8247  10.872   5.467   0.905 -2.5915  0.9832  0.1923
   60MOL0     H 8248  10.909   5.717   0.726  2.2202 -0.8654 -1.7572
   60MOL0     H 8249  10.771   5.609   0.728 -0.0293  1.8994 -1.0881
   60MOL0     H 8250  10.937   5.424   0.650  0.9132 -0.2162 -4.6200
   60MOL0     H 8251  11.050   5.558   0.663 -0.4708  0.1925  3.6945
   60MOL0     H 8252  10.798   5.536   0.484 -0.1668  2.2769 -1.4654
   60MOL0     H 8253  10.897   5.670   0.488 -1.4536 -0.6849 -3.4422
   60MOL0     H 8254  10.961   5.381   0.418 -1.5276  0.1741 -0.8858
   60MOL0     H 8255  11.096   5.490   0.419  0.8593 -1.3002 -1.8134
   60MOL0     H 8256  10.849   5.522   0.246  0.3298  1.3761 -1.5669
   60MOL0     H 8257  10.970   5.425   0.191  1.3379 -0.7040  0.8904
   60MOL0     H 8258  11.016   5.714   0.285  1.7014 -0.4856  0.3801
   60MOL0     H 8259  10.950   5.670   0.118  2.3900 -1.7400 -1.7627
   60MOL0     H 8260  11.038   5.584   1.346  1.1953  2.6644 -3.7548
   60MOL0     H 8261  10.994   5.670   1.576  3.1592 -0.3188 -2.6580
   60MOL0     H 8262  10.901   5.749   1.836 -0.9692 -2.8513 -0.1098
   60MOL0     H 8263  10.919   5.754   2.072  0.1954 -1.7204 -0.6818
   60MOL0     H 8264   9.583   6.558   2.991 -0.2382 -1.5850  2.1574
   60MOL0     H 8265   9.484   6.598   3.219  0.4224  1.7403  1.0817
   60MOL0     H 8266   9.315   6.740   3.539 -0.1021  0.1598  0.5452
   60MOL0     H 8267   9.208   6.727   3.746 -0.4498  1.1564 -1.0876
   60MOL0     H 8268   9.419   6.705   4.123  0.1152  0.9502  0.1709
   60MOL0     H 8269   9.394   6.879   4.108 -2.2871  1.9266 -0.0474
   60MOL0     H 8270   9.155   6.701   4.194  1.5251 -0.6761  1.2390
   60MOL0     H 8271   9.169   6.869   4.191  1.0148  1.0753 -3.5563
   60MOL0     H 8272   9.205   6.730   4.401 -0.0203  0.4075 -1.3273
   60MOL0     H 8273   9.373   6.697   4.348  2.3620  1.8863  1.7965
   60MOL0     H 8274   9.259   6.985   4.374 -0.8799  0.2754  0.1202
   60MOL0     H 8275   9.420   6.926   4.320 -0.6422 -0.6728  0.0421
   60MOL0     H 8276   9.405   6.862   4.751  0.0283  0.1575  0.3530
   60MOL0     H 8277   9.562   6.841   3.955  2.0617  0.0978 -0.3329
   60MOL0     H 8278   9.756   6.905   3.659  3.1377 -0.7156  1.3810
   60MOL0     H 8279   9.716   6.986   3.801 -0.1044  0.9535 -2.5189
   60MOL0     H 8280   9.787   6.815   3.796  0.5298  2.4203  1.4025
   61MOL0     O 8281   4.795   9.030   6.052 -0.1672  0.6983  0.1382
   61MOL0     C 8282   4.774   9.101   5.955  0.6428  0.6159  0.0368
   61MOL0     O 8283   4.778   9.066   5.823 -0.3445 -0.0058  0.3219
   61MOL0     C 8284   4.802   8.936   5.784  1.1930 -0.6160  0.1757
   61MOL0     C 8285   4.749   8.904   5.662  0.1337  0.1438  0.1563
   61MOL0     C 8286   4.778   8.774   5.595 -0.3472 -0.2150 -0.4655
   61MOL0     C 8287   4.866   8.680   5.664  1.2011  0.2566 -0.4230
   61MOL0     O 8288   4.889   8.555   5.613  0.0225  0.8373  0.5960
   61MOL0     C 8289   5.027   8.530   5.585 -0.4244  0.2063  0.8588
   61MOL0     C 8290   5.039   8.389   5.526  0.7574  1.5715  0.4613
   61MOL0     C 8291   4.993   8.391   5.384 -0.2624 -0.4951  0.4831
   61MOL0     C 8292   4.983   8.254   5.320  0.3149  0.4680  1.1147
   61MOL0     C 8293   4.974   8.259   5.163 -0.0418  0.0003  0.7865
   61MOL0     C 8294   4.981   8.119   5.093 -0.4006  0.9520  0.1207
   61MOL0     C 8295   4.861   8.027   5.128 -0.0526 -0.7473  0.5076
   61MOL0     C 8296   4.881   7.900   5.057  1.0486  0.4103  0.3926
   61MOL0     N 8297   4.763   7.814   5.052  0.4926  0.3018 -0.5487
   61MOL0     C 8298   4.676   7.804   5.164 -0.8358  0.0300  0.1370
   61MOL0     C 8299   4.580   7.726   5.113 -0.6273 -0.2818 -0.0837
   61MOL0     C 8300   4.455   7.678   5.189 -0.6451  0.4105  0.3137
   61MOL0     C 8301   4.307   7.728   5.158 -0.0597  0.2075 -0.3117
   61MOL0     C 8302   4.300   7.878   5.186  0.5610 -1.0120  0.1843
   61MOL0     C 8303   4.301   7.919   5.345  0.3755 -0.2893 -0.0032
   61MOL0     O 8304   4.177   7.872   5.412  0.3753 -0.0311  0.6106
   61MOL0     C 8305   4.161   7.874   5.545 -0.0274 -0.2143 -0.7039
   61MOL0     C 8306   4.220   7.970   5.625  0.4643 -0.3303  0.5990
   61MOL0     C 8307   4.202   7.980   5.761  0.0798 -0.0014  0.1710
   61MOL0     C 8308   4.288   8.088   5.839 -0.1980 -0.5201 -0.2192
   61MOL0     C 8309   4.117   7.875   5.823  0.6400 -0.3272  0.7905
   61MOL0     C 8310   4.092   7.857   5.967 -0.4406 -0.0469 -0.1986
   61MOL0     O 8311   4.004   7.762   6.009  0.7050  0.1077 -0.3419
   61MOL0     C 8312   3.965   7.754   6.141 -0.8326 -0.2933 -0.9451
   61MOL0     C 8313   3.958   7.846   6.248 -0.2311 -0.3447  0.6361
   61MOL0     C 8314   3.906   7.810   6.377 -0.4413 -0.1202  0.4878
   61MOL0     C 8315   3.881   7.669   6.398  0.3766 -0.1247 -0.2593
   61MOL0     O 8316   3.845   7.633   6.524 -0.6345  0.3335  0.4518
   61MOL0     C 8317   3.944   7.627   6.631  0.7137 -1.1977  1.2134
   61MOL0     C 8318   3.876   7.564   6.757 -1.0510 -0.2426 -0.0374
   61MOL0     C 8319   3.990   7.504   6.849 -0.0722 -1.0424  0.1659
   61MOL0     C 8320   3.933   7.460   6.976 -0.5096  1.3464 -0.2531
   61MOL0     C 8321   4.045   7.429   7.073 -0.6795 -0.6236 -0.9258
   61MOL0     C 8322   3.980   7.351   7.192 -0.1976 -0.0180 -0.1020
   61MOL0     C 8323   4.088   7.320   7.305  0.2732  0.6570 -0.5315
   61MOL0     C 8324   4.040   7.231   7.416  0.1159  0.3061  0.3212
   61MOL0    Cl 8325   4.039   7.057   7.381 -0.5120 -0.4409 -0.5929
   61MOL0     C 8326   3.900   7.573   6.301  0.4918  1.0625 -0.1244
   61MOL0     C 8327   3.929   7.622   6.172 -0.9547 -0.7751  0.2705
   61MOL0     O 8328   4.155   7.937   6.038  0.0114  0.6892 -0.0346
   61MOL0     C 8329   4.055   7.781   5.742 -0.3377  0.2797  1.3060
   61MOL0     C 8330   4.074   7.778   5.605 -0.9693  0.1866  0.4465
   61MOL0     N 8331   4.605   7.692   4.984 -0.0356  0.1984  0.1377
   61MOL0     N 8332   4.705   7.760   4.944  0.4610 -0.1099 -0.2361
   61MOL0     C 8333   4.913   8.717   5.792 -0.3008 -0.5957  1.0251
   61MOL0     C 8334   4.893   8.845   5.849  0.2729 -0.9030 -0.1772
   61MOL0     C 8335   4.725   9.234   5.990 -0.4776 -0.8889 -0.1746
   61MOL0     C 8336   4.663   9.266   6.125 -0.2233  0.2700 -0.6029
   61MOL0     C 8337   4.602   9.381   6.154  0.8824 -0.0729 -0.2892
   61MOL0     C 8338   4.614   9.489   6.071  0.9856 -0.1695 -0.7041
   61MOL0     O 8339   4.566   9.619   6.090  0.4867  0.2020  0.0019
   61MOL0     C 8340   4.467   9.653   6.183 -0.1934  0.2769 -0.5375
   61MOL0     C 8341   4.454   9.795   6.230 -0.3947  0.8636 -0.5784
   61MOL0     C 8342   4.414   9.890   6.117  0.3852 -0.6682  0.2973
   61MOL0     C 8343   4.261   9.912   6.091 -0.8757  0.8167 -1.0240
   61MOL0     C 8344   4.219  10.008   5.991 -0.9019  0.8832 -1.2486
   61MOL0     C 8345   4.187  10.091   5.909 -0.7869  0.3957 -0.0117
   61MOL0     C 8346   4.693   9.474   5.953  0.1952  0.3745 -0.0799
   61MOL0     C 8347   4.747   9.351   5.912 -0.4219 -0.5420 -0.5391
   61MOL0     C 8348   4.817   9.352   5.780  0.2945  0.2141  0.5660
   61MOL0     H 8349   4.677   8.967   5.611  1.9481  0.9201 -1.5876
   61MOL0     H 8350   4.723   8.738   5.508  1.5359  0.3960 -1.9867
   61MOL0     H 8351   5.081   8.531   5.680  0.6506 -1.6045  0.2936
   61MOL0     H 8352   5.085   8.594   5.518  0.0057  0.9135  1.8778
   61MOL0     H 8353   5.140   8.349   5.515 -0.8409 -3.8309  2.4459
   61MOL0     H 8354   4.989   8.313   5.586 -1.2990  2.4362 -0.0876
   61MOL0     H 8355   4.896   8.441   5.374  0.4767  0.9809  0.5099
   61MOL0     H 8356   5.070   8.438   5.323 -1.5650  3.0280  1.3168
   61MOL0     H 8357   5.057   8.181   5.356  0.9911  0.1135 -0.8960
   61MOL0     H 8358   4.887   8.210   5.349 -1.2348  2.4886 -0.6707
   61MOL0     H 8359   5.062   8.308   5.120  0.5734 -1.3554  0.4677
   61MOL0     H 8360   4.882   8.313   5.137 -0.4689  0.4813  3.0724
   61MOL0     H 8361   4.990   8.141   4.986  5.2200 -0.7502 -0.0488
   61MOL0     H 8362   5.080   8.077   5.110 -0.6076  0.5119  0.2504
   61MOL0     H 8363   4.770   8.076   5.092  1.5479  1.8351 -0.3153
   61MOL0     H 8364   4.852   8.007   5.235  0.4914 -1.3130  0.4513
   61MOL0     H 8365   4.911   7.929   4.956  0.9202  0.7656  0.4562
   61MOL0     H 8366   4.965   7.842   5.095  1.1271 -0.3157 -0.8141
   61MOL0     H 8367   4.683   7.826   5.270 -0.9768 -1.9018  0.5781
   61MOL0     H 8368   4.472   7.676   5.297 -1.5389 -0.4500  0.4545
   61MOL0     H 8369   4.452   7.571   5.163 -1.0140  0.1994  1.2133
   61MOL0     H 8370   4.297   7.716   5.050  2.4479  1.1156 -0.7105
   61MOL0     H 8371   4.236   7.667   5.215  1.2237 -0.3719  0.7293
   61MOL0     H 8372   4.390   7.924   5.144 -1.0503  0.1564 -2.2373
   61MOL0     H 8373   4.221   7.933   5.135  1.3618  0.5288  0.5523
   61MOL0     H 8374   4.382   7.862   5.392  2.9252  0.8447 -2.6485
   61MOL0     H 8375   4.323   8.026   5.348  0.8604 -0.0520 -4.7769
   61MOL0     H 8376   4.286   8.037   5.571 -1.0401  1.9486  1.4460
   61MOL0     H 8377   4.322   8.168   5.772  0.4713 -0.3349  0.3344
   61MOL0     H 8378   4.376   8.046   5.888  2.4098  2.9118 -1.5283
   61MOL0     H 8379   4.227   8.151   5.905  0.2508  1.1130 -1.2936
   61MOL0     H 8380   3.988   7.951   6.242  2.3968 -0.8848  2.5480
   61MOL0     H 8381   3.880   7.875   6.460 -0.6692  0.1813  0.1748
   61MOL0     H 8382   4.030   7.572   6.592  3.1053  1.3039  2.6687
   61MOL0     H 8383   3.985   7.726   6.652  2.1430 -0.9013 -2.2431
   61MOL0     H 8384   3.808   7.635   6.806 -1.8938 -0.7701 -0.4246
   61MOL0     H 8385   3.815   7.480   6.725 -1.9339  0.1978  0.4606
   61MOL0     H 8386   4.060   7.587   6.868 -1.8279  0.6477 -0.4175
   61MOL0     H 8387   4.049   7.426   6.801  1.1933 -1.7334  2.6459
   61MOL0     H 8388   3.872   7.370   6.963 -1.1073  1.3469  2.1519
   61MOL0     H 8389   3.866   7.534   7.021 -2.2291 -0.0738 -0.3617
   61MOL0     H 8390   4.129   7.371   7.033  0.4256 -0.8163  1.5120
   61MOL0     H 8391   4.090   7.521   7.110 -2.8298  1.4395 -3.0978
   61MOL0     H 8392   3.938   7.257   7.157 -1.1696  0.5400 -0.4596
   61MOL0     H 8393   3.902   7.420   7.226  1.3462  2.2582 -0.9408
   61MOL0     H 8394   4.108   7.418   7.350  0.4286  0.4944 -0.2466
   61MOL0     H 8395   4.183   7.279   7.272 -0.1382 -1.5823  0.8788
   61MOL0     H 8396   3.944   7.270   7.452  1.3622  3.5490  0.4156
   61MOL0     H 8397   4.100   7.233   7.507 -0.3949  2.5190  0.6755
   61MOL0     H 8398   3.882   7.472   6.335  0.7370  1.7946  2.4222
   61MOL0     H 8399   3.937   7.553   6.089  0.3310  1.2716 -1.3875
   61MOL0     H 8400   3.979   7.711   5.774 -2.6868  2.4711  0.7970
   61MOL0     H 8401   4.022   7.710   5.539 -0.3863  1.5276 -1.4899
   61MOL0     H 8402   4.975   8.641   5.840  2.9146  0.4665 -1.0843
   61MOL0     H 8403   4.940   8.869   5.944  0.6159 -0.8322 -0.3644
   61MOL0     H 8404   4.649   9.194   6.205 -0.9749 -0.1464 -1.0930
   61MOL0     H 8405   4.556   9.386   6.252 -2.2869  0.7961 -1.6807
   61MOL0     H 8406   4.371   9.613   6.148 -2.2513 -1.7324  5.9758
   61MOL0     H 8407   4.499   9.603   6.275 -1.9560  2.5459  1.4673
   61MOL0     H 8408   4.546   9.831   6.276 -0.0953  0.3812 -0.8024
   61MOL0     H 8409   4.394   9.811   6.320  2.5779  1.2453  1.4603
   61MOL0     H 8410   4.455   9.987   6.146 -3.1877  1.5574 -1.3309
   61MOL0     H 8411   4.460   9.851   6.025  0.1991 -1.2246  0.4373
   61MOL0     H 8412   4.218   9.937   6.188 -0.4701 -0.6271 -0.4495
   61MOL0     H 8413   4.210   9.823   6.052 -1.4065  1.0240 -0.8170
   61MOL0     H 8414   4.167  10.170   5.840  3.6319  1.0893 -0.8304
   61MOL0     H 8415   4.713   9.566   5.899 -2.0749  0.2990 -1.1661
   61MOL0     H 8416   4.852   9.452   5.750  1.7298 -0.5315 -0.3343
   61MOL0     H 8417   4.904   9.287   5.785 -0.8767 -1.3308  2.9333
   61MOL0     H 8418   4.763   9.307   5.696  3.1162 -2.0377 -0.1948
   62MOL0     O 8419   6.184   1.890   4.905 -0.1878 -0.6352  0.7569
   62MOL0     C 8420   6.247   1.922   5.003 -0.6629 -0.4235 -0.5076
   62MOL0     O 8421   6.194   1.918   5.134 -0.5397 -0.2297 -0.2772
   62MOL0     C 8422   6.062   1.872   5.151  0.5553 -0.3980  0.0201
   62MOL0     C 8423   6.014   1.751   5.093 -0.9265  0.5627  0.2008
   62MOL0     C 8424   5.886   1.696   5.129 -0.1554  0.3817  0.3690
   62MOL0     C 8425   5.821   1.762   5.223 -0.7204  0.0510  0.5410
   62MOL0     O 8426   5.696   1.716   5.235 -0.2236  0.2926 -1.0818
   62MOL0     C 8427   5.662   1.684   5.367 -0.3332 -0.3466 -0.0045
   62MOL0     C 8428   5.637   1.531   5.376 -0.2195  0.4814  0.8173
   62MOL0     C 8429   5.759   1.438   5.324  0.1958 -0.0126 -0.7591
   62MOL0     C 8430   5.746   1.294   5.384  0.2849 -0.2665 -0.4486
   62MOL0     C 8431   5.851   1.205   5.332  0.1313  0.8496  0.2976
   62MOL0     C 8432   5.803   1.056   5.361  0.5801 -0.5596 -0.6524
   62MOL0     C 8433   5.915   0.957   5.365  0.1204  0.4747 -0.1874
   62MOL0     C 8434   5.892   0.821   5.431 -0.2751  0.5119  1.1337
   62MOL0     N 8435   5.830   0.829   5.563 -0.0221 -0.3416 -1.1508
   62MOL0     C 8436   5.872   0.907   5.676  0.2348  0.1947 -0.2237
   62MOL0     C 8437   5.801   0.868   5.785  0.0543  1.1131 -0.5256
   62MOL0     C 8438   5.830   0.924   5.927 -0.4857  0.5315 -1.0022
   62MOL0     C 8439   5.983   0.894   5.970  0.1662  0.2745  0.8539
   62MOL0     C 8440   6.007   0.915   6.119 -0.1443 -0.3188  0.2354
   62MOL0     C 8441   6.147   0.873   6.147  0.1120 -0.5798  0.0769
   62MOL0     O 8442   6.178   0.929   6.276 -0.0236  0.4013 -0.3459
   62MOL0     C 8443   6.297   1.000   6.279 -0.2520 -0.2641  0.4413
   62MOL0     C 8444   6.357   0.995   6.406 -0.4541 -0.4299  0.2178
   62MOL0     C 8445   6.481   1.044   6.425  0.6476 -0.8080  0.2765
   62MOL0     C 8446   6.536   1.028   6.563 -0.7088 -0.8386  0.1722
   62MOL0     C 8447   6.552   1.104   6.318 -0.3079  0.4978 -0.2064
   62MOL0     C 8448   6.683   1.176   6.335  0.4830  0.2267  1.1577
   62MOL0     O 8449   6.772   1.189   6.233  0.2572  1.0702 -0.0127
   62MOL0     C 8450   6.892   1.248   6.268  0.4943  0.8082  0.1600
   62MOL0     C 8451   6.992   1.197   6.358  1.1221  0.3502 -0.0427
   62MOL0     C 8452   7.116   1.246   6.363 -0.1682 -0.6940 -0.1693
   62MOL0     C 8453   7.147   1.368   6.296  0.0699  1.2240  0.4621
   62MOL0     O 8454   7.278   1.411   6.312  0.0856  0.1326 -0.5649
   62MOL0     C 8455   7.319   1.540   6.264 -1.3543  0.4732 -0.1710
   62MOL0     C 8456   7.459   1.575   6.322  0.4756 -0.2142  0.4982
   62MOL0     C 8457   7.499   1.711   6.266 -0.0839  0.2443  0.5438
   62MOL0     C 8458   7.396   1.813   6.299 -1.2252 -0.3285  0.5751
   62MOL0     C 8459   7.455   1.955   6.268 -0.4451  0.5240  0.3342
   62MOL0     C 8460   7.379   2.062   6.339 -0.2221  0.2158 -0.7866
   62MOL0     C 8461   7.424   2.201   6.292  0.2541  0.0295  0.1193
   62MOL0     C 8462   7.343   2.241   6.172 -0.6151 -0.0783  0.6778
   62MOL0    Cl 8463   7.186   2.296   6.214  0.1478 -0.2915 -0.3955
   62MOL0     C 8464   7.049   1.429   6.230 -0.2679  0.0033  0.5107
   62MOL0     C 8465   6.917   1.369   6.217  0.7062  0.2108 -0.2541
   62MOL0     O 8466   6.698   1.230   6.441 -0.7518 -0.0935  0.2999
   62MOL0     C 8467   6.497   1.106   6.187  0.1172 -0.0363 -0.5369
   62MOL0     C 8468   6.363   1.061   6.171 -0.4122  0.6044 -0.7600
   62MOL0     N 8469   5.718   0.774   5.741 -0.9794  0.3350 -0.9416
   62MOL0     N 8470   5.739   0.739   5.616  0.1221  0.1990  0.7370
   62MOL0     C 8471   5.858   1.893   5.276  0.0040 -0.4159 -0.7072
   62MOL0     C 8472   5.983   1.946   5.245 -0.5140 -0.2894  1.2736
   62MOL0     C 8473   6.389   1.936   4.985  0.5076 -0.8041 -1.0289
   62MOL0     C 8474   6.457   1.823   4.937  0.2240 -0.0483  0.4440
   62MOL0     C 8475   6.591   1.838   4.923 -0.2477 -0.2884 -0.4915
   62MOL0     C 8476   6.664   1.948   4.953 -0.4810 -1.0215  0.3508
   62MOL0     O 8477   6.799   1.961   4.914 -0.1034  0.4429  0.2255
   62MOL0     C 8478   6.845   2.076   4.845 -0.1927 -0.1318 -0.3270
   62MOL0     C 8479   6.803   2.068   4.700 -0.8788 -0.0664 -0.6860
   62MOL0     C 8480   6.887   1.963   4.617  0.8062  0.5984  0.8259
   62MOL0     C 8481   7.037   1.986   4.597  0.1234  0.8566  0.3195
   62MOL0     C 8482   7.042   2.120   4.539  0.5037 -0.2238  0.2236
   62MOL0     C 8483   7.038   2.226   4.471 -1.2499  0.1773  0.0515
   62MOL0     C 8484   6.590   2.057   5.007 -0.4312 -0.6524 -1.2625
   62MOL0     C 8485   6.454   2.058   5.039 -1.0294  0.6178 -0.0585
   62MOL0     C 8486   6.401   2.184   5.107 -0.2873 -0.1019  0.1284
   62MOL0     H 8487   6.086   1.692   5.037 -0.7855 -1.7106  2.5856
   62MOL0     H 8488   5.854   1.607   5.076  1.0060  0.5772 -0.7392
   62MOL0     H 8489   5.574   1.747   5.386  1.4356  2.9916 -1.8273
   62MOL0     H 8490   5.736   1.727   5.436  3.3931  3.3347 -5.4459
   62MOL0     H 8491   5.621   1.499   5.479  2.0698  0.4556  1.2229
   62MOL0     H 8492   5.549   1.513   5.313  0.3245  2.1091 -0.5060
   62MOL0     H 8493   5.771   1.432   5.215  0.2339  3.8348 -1.1051
   62MOL0     H 8494   5.854   1.482   5.354 -1.1940  1.7160  1.3902
   62MOL0     H 8495   5.746   1.300   5.493  0.5502  0.6499 -0.4844
   62MOL0     H 8496   5.649   1.257   5.350  0.1272 -2.3442  2.0097
   62MOL0     H 8497   5.954   1.219   5.366  0.9861 -0.2063 -1.6951
   62MOL0     H 8498   5.860   1.230   5.226 -2.6097  1.8176  0.1917
   62MOL0     H 8499   5.748   1.067   5.454 -1.5619  2.5792 -2.1122
   62MOL0     H 8500   5.732   1.028   5.283  2.1057 -2.4957 -1.4402
   62MOL0     H 8501   5.996   1.008   5.418 -0.7020  0.9142  0.6737
   62MOL0     H 8502   5.950   0.941   5.262  0.2826  1.8691 -0.3803
   62MOL0     H 8503   5.826   0.771   5.359 -0.3094  3.6609 -1.2658
   62MOL0     H 8504   5.986   0.764   5.427 -0.2753  0.3490 -4.1417
   62MOL0     H 8505   5.946   0.984   5.660  1.1072  0.5179  4.0859
   62MOL0     H 8506   5.748   0.885   5.987 -1.0215  1.7590 -0.8926
   62MOL0     H 8507   5.814   1.033   5.932 -0.7191  0.4568  1.8752
   62MOL0     H 8508   6.008   0.791   5.941 -0.8775  0.1168  0.4680
   62MOL0     H 8509   6.056   0.953   5.914 -0.6230  2.2320  1.8225
   62MOL0     H 8510   5.990   1.022   6.136  1.2020  0.5314 -2.9408
   62MOL0     H 8511   5.940   0.858   6.183  1.0017  0.0599  1.8452
   62MOL0     H 8512   6.152   0.764   6.159 -3.0008 -0.5878  2.8734
   62MOL0     H 8513   6.204   0.902   6.059 -1.3063  4.3435  0.4680
   62MOL0     H 8514   6.323   0.934   6.490 -1.6190 -2.3434 -1.5394
   62MOL0     H 8515   6.642   1.000   6.561 -0.3427  0.4869 -0.2923
   62MOL0     H 8516   6.484   0.951   6.621  0.1023 -3.0288 -1.8396
   62MOL0     H 8517   6.532   1.117   6.627  1.9351 -0.5694  0.0658
   62MOL0     H 8518   6.970   1.102   6.404  1.2672 -0.2878 -1.2513
   62MOL0     H 8519   7.192   1.194   6.421  0.7211 -1.4351 -1.9191
   62MOL0     H 8520   7.316   1.535   6.155 -0.7623 -2.9558 -0.1365
   62MOL0     H 8521   7.242   1.608   6.302 -3.6866 -0.6236 -2.6254
   62MOL0     H 8522   7.451   1.577   6.431 -2.3867  2.0854  0.3859
   62MOL0     H 8523   7.528   1.494   6.297 -0.4183 -1.5212  2.0862
   62MOL0     H 8524   7.515   1.707   6.158 -1.5068 -3.0737  0.3420
   62MOL0     H 8525   7.591   1.732   6.320 -0.0873  2.4176 -0.1586
   62MOL0     H 8526   7.372   1.812   6.406  1.9090  1.3111  1.4300
   62MOL0     H 8527   7.307   1.803   6.236 -2.4962 -1.2518  2.4389
   62MOL0     H 8528   7.559   1.959   6.304 -0.1432  3.1745 -0.6472
   62MOL0     H 8529   7.446   1.974   6.161 -3.2758  0.4117  0.4914
   62MOL0     H 8530   7.408   2.062   6.444 -0.6019  0.0881 -0.6777
   62MOL0     H 8531   7.271   2.046   6.330 -0.4673  0.9957  0.5837
   62MOL0     H 8532   7.532   2.203   6.277  0.5583  1.4430  2.1214
   62MOL0     H 8533   7.399   2.281   6.363 -3.5018  0.3780 -1.3570
   62MOL0     H 8534   7.335   2.154   6.106 -1.4613 -0.6850  1.5641
   62MOL0     H 8535   7.404   2.320   6.126  1.2391 -0.6306  2.0547
   62MOL0     H 8536   7.069   1.523   6.179 -0.7936 -0.5992 -0.8270
   62MOL0     H 8537   6.841   1.394   6.143  1.4403  0.2152 -1.0182
   62MOL0     H 8538   6.546   1.155   6.104 -1.2826  0.3590 -1.1666
   62MOL0     H 8539   6.323   1.081   6.072 -0.3056  0.5196 -0.8206
   62MOL0     H 8540   5.790   1.943   5.344 -0.8433 -0.5431 -1.4463
   62MOL0     H 8541   6.026   2.038   5.285  2.0597 -0.5612 -0.5542
   62MOL0     H 8542   6.401   1.733   4.912 -0.2817  0.9988 -2.6359
   62MOL0     H 8543   6.645   1.749   4.894 -2.0219 -1.5617 -0.0463
   62MOL0     H 8544   6.798   2.165   4.887 -2.6834 -2.4739  2.1580
   62MOL0     H 8545   6.952   2.097   4.859 -0.3898  0.6802  0.0240
   62MOL0     H 8546   6.810   2.167   4.654  0.8021  0.4831  0.6421
   62MOL0     H 8547   6.699   2.037   4.715 -0.2068 -1.6173  1.2059
   62MOL0     H 8548   6.869   1.864   4.660  1.6959 -1.0893 -2.3368
   62MOL0     H 8549   6.845   1.962   4.516  2.5735 -0.6064  0.0398
   62MOL0     H 8550   7.100   1.910   4.550  2.3364  1.2025  2.5029
   62MOL0     H 8551   7.078   1.999   4.697 -1.8501  2.0377  1.0381
   62MOL0     H 8552   7.053   2.309   4.405 -0.9481  1.2875  1.4616
   62MOL0     H 8553   6.649   2.145   5.028 -0.9943 -1.0246  2.6554
   62MOL0     H 8554   6.478   2.260   5.126 -0.1055 -0.3219  0.2775
   62MOL0     H 8555   6.316   2.231   5.055  1.0146  1.8691 -0.3416
   62MOL0     H 8556   6.363   2.160   5.206 -0.1587 -0.1937  0.1559
   63MOL0     O 8557   9.534  10.088   2.157 -0.2043  0.1792  0.4594
   63MOL0     C 8558   9.431  10.020   2.120 -0.2636  0.7200 -0.8446
   63MOL0     O 8559   9.327  10.057   2.043  0.6919  0.0513 -0.0789
   63MOL0     C 8560   9.310  10.192   2.018  0.1736  0.7258  0.9683
   63MOL0     C 8561   9.182  10.250   2.015  0.6248  0.0648  0.1376
   63MOL0     C 8562   9.166  10.380   1.988  0.2392 -0.3998  0.4726
   63MOL0     C 8563   9.270  10.461   1.971  0.6127  0.0366 -0.1905
   63MOL0     O 8564   9.248  10.595   1.950 -0.7550 -0.9570 -0.0431
   63MOL0     C 8565   9.199  10.680   2.063  0.8971  0.6582  0.7610
   63MOL0     C 8566   9.316  10.727   2.146 -1.0854 -0.8741 -0.5203
   63MOL0     C 8567   9.289  10.840   2.253 -0.4943 -0.3270  0.0890
   63MOL0     C 8568   9.198  10.801   2.369  0.4065  0.2838  0.8018
   63MOL0     C 8569   9.120  10.917   2.436 -0.9367  0.2567  0.0080
   63MOL0     C 8570   9.029  10.878   2.557 -0.4668  0.3920  0.3364
   63MOL0     C 8571   8.936  10.749   2.539  0.1833  0.0349 -0.6056
   63MOL0     C 8572   8.827  10.714   2.640  0.1439 -0.5433  0.2176
   63MOL0     N 8573   8.754  10.593   2.603  0.3307 -0.1394  0.6304
   63MOL0     C 8574   8.788  10.473   2.633  0.8058  0.6838  0.3534
   63MOL0     C 8575   8.686  10.400   2.586  0.1447 -0.2121 -0.4327
   63MOL0     C 8576   8.687  10.244   2.579 -0.2389  0.4970 -0.5398
   63MOL0     C 8577   8.622  10.178   2.696  0.1051 -1.3660 -0.4066
   63MOL0     C 8578   8.692  10.201   2.830 -0.4742  0.0172 -0.3680
   63MOL0     C 8579   8.606  10.142   2.942 -0.0010  0.6974  0.2145
   63MOL0     O 8580   8.589   9.998   2.916  0.0008  0.0260 -0.1309
   63MOL0     C 8581   8.496   9.946   2.993 -0.0007 -0.5187 -0.5329
   63MOL0     C 8582   8.461   9.994   3.119 -0.8493  0.1319 -0.3520
   63MOL0     C 8583   8.353   9.923   3.178  0.2915 -0.5775  0.1993
   63MOL0     C 8584   8.312   9.987   3.309  0.1947 -0.1868  0.0563
   63MOL0     C 8585   8.299   9.807   3.125  1.6971 -0.0159  0.2703
   63MOL0     C 8586   8.186   9.732   3.190 -0.1463  1.2211  0.6753
   63MOL0     O 8587   8.106   9.653   3.106  0.4618 -0.0511  0.2294
   63MOL0     C 8588   8.005   9.584   3.164  0.1418  0.5185  0.3284
   63MOL0     C 8589   7.954   9.466   3.088 -0.7501 -0.9788  0.6451
   63MOL0     C 8590   7.843   9.390   3.122 -0.5616  0.9492  0.7498
   63MOL0     C 8591   7.775   9.415   3.244 -0.9243 -0.1375 -0.3632
   63MOL0     O 8592   7.671   9.333   3.280 -0.0906 -0.5067  0.1953
   63MOL0     C 8593   7.545   9.396   3.284  0.7354 -0.0693  0.7664
   63MOL0     C 8594   7.498   9.431   3.426  0.5687 -0.2605 -0.2018
   63MOL0     C 8595   7.348   9.477   3.430  0.4289 -0.3727 -0.3132
   63MOL0     C 8596   7.300   9.517   3.579 -0.1908  0.4184 -0.0215
   63MOL0     C 8597   7.150   9.550   3.579 -0.5995 -0.4484  0.4792
   63MOL0     C 8598   7.093   9.595   3.713  0.0374 -0.6774  0.0297
   63MOL0     C 8599   7.109   9.488   3.828  0.5510 -0.3503  1.3839
   63MOL0     C 8600   7.016   9.488   3.945 -0.1624 -0.6005  0.2125
   63MOL0    Cl 8601   6.849   9.444   3.911 -0.0047  0.1511 -0.2012
   63MOL0     C 8602   7.828   9.520   3.326 -0.2972 -0.5306 -0.3973
   63MOL0     C 8603   7.933   9.601   3.286  0.3422  0.0646 -0.2026
   63MOL0     O 8604   8.181   9.745   3.313  0.8186 -0.1494  0.3527
   63MOL0     C 8605   8.361   9.756   3.020  0.1483  0.4058  0.7127
   63MOL0     C 8606   8.454   9.830   2.946  0.8734  0.8389 -1.1515
   63MOL0     N 8607   8.587  10.479   2.543 -0.2120 -0.1824 -0.0786
   63MOL0     N 8608   8.626  10.601   2.556  0.1592  0.3906  0.5012
   63MOL0     C 8609   9.395  10.411   1.953  0.1481  0.7804 -0.1460
   63MOL0     C 8610   9.407  10.275   1.968  0.0994  0.6665 -0.4227
   63MOL0     C 8611   9.434   9.875   2.172  0.1648  0.8167  0.7775
   63MOL0     C 8612   9.557   9.808   2.162  0.9294 -1.2786 -0.1111
   63MOL0     C 8613   9.568   9.676   2.213  0.0016  0.6922 -0.3902
   63MOL0     C 8614   9.456   9.615   2.268 -0.0064 -0.3343 -0.6237
   63MOL0     O 8615   9.470   9.502   2.331 -0.3772  0.4241 -0.9092
   63MOL0     C 8616   9.485   9.509   2.473  0.6484  0.7300  0.3191
   63MOL0     C 8617   9.577   9.396   2.519  0.1950  0.1082 -0.1186
   63MOL0     C 8618   9.552   9.255   2.478 -0.1017 -0.3139 -0.0988
   63MOL0     C 8619   9.679   9.175   2.520 -0.3720  0.9488 -0.7459
   63MOL0     C 8620   9.691   9.042   2.450  0.1595 -0.0426  0.2416
   63MOL0     C 8621   9.720   8.950   2.372  0.1622  0.0848 -0.2526
   63MOL0     C 8622   9.330   9.676   2.260 -0.5615 -0.6535 -0.2869
   63MOL0     C 8623   9.324   9.813   2.228 -0.2067  0.2053  0.0987
   63MOL0     C 8624   9.196   9.875   2.262  0.7085 -1.1192 -0.4873
   63MOL0     H 8625   9.095  10.186   2.028  1.2280 -0.7771  0.0476
   63MOL0     H 8626   9.066  10.420   1.980 -1.1257 -3.5533  0.4932
   63MOL0     H 8627   9.127  10.634   2.131  1.4510 -2.5787 -0.6531
   63MOL0     H 8628   9.162  10.768   2.008  2.1189  0.5682 -0.2395
   63MOL0     H 8629   9.360  10.637   2.190 -0.0977 -1.7631 -3.1401
   63MOL0     H 8630   9.404  10.759   2.089  0.2921 -2.0445  0.8564
   63MOL0     H 8631   9.382  10.875   2.297 -0.9689 -1.7774  2.4369
   63MOL0     H 8632   9.237  10.922   2.203 -2.9905 -1.0213  1.3401
   63MOL0     H 8633   9.128  10.724   2.334  1.5127 -0.6106  0.5049
   63MOL0     H 8634   9.256  10.748   2.445 -1.3877 -0.0796  1.9961
   63MOL0     H 8635   9.055  10.970   2.365 -1.9134  2.3715  2.3415
   63MOL0     H 8636   9.191  10.998   2.455  0.4371  0.2475 -4.0584
   63MOL0     H 8637   9.099  10.863   2.640 -1.7554 -0.4358  1.3032
   63MOL0     H 8638   8.959  10.959   2.577 -2.0390 -1.1874  1.5644
   63MOL0     H 8639   8.998  10.658   2.544  1.3112  0.6990 -1.8381
   63MOL0     H 8640   8.904  10.749   2.435 -1.0240  1.1236 -0.2572
   63MOL0     H 8641   8.848  10.714   2.747 -2.3566 -0.6429  0.7745
   63MOL0     H 8642   8.758  10.797   2.626 -1.2747 -1.5472  1.0083
   63MOL0     H 8643   8.879  10.435   2.681  1.5503 -2.1374 -2.9034
   63MOL0     H 8644   8.786  10.204   2.555  0.4586  1.9818 -0.2313
   63MOL0     H 8645   8.625  10.218   2.493  0.5630 -0.5940 -0.8101
   63MOL0     H 8646   8.534  10.243   2.688  0.3899 -1.0916 -1.3239
   63MOL0     H 8647   8.601  10.072   2.678  1.1308 -1.8119  0.8345
   63MOL0     H 8648   8.790  10.153   2.832 -0.6126 -0.2470  1.6356
   63MOL0     H 8649   8.696  10.306   2.860  2.1462  0.2268 -1.2120
   63MOL0     H 8650   8.653  10.145   3.041 -3.0750 -3.1892  2.0604
   63MOL0     H 8651   8.515  10.201   2.951 -1.4728 -1.4376 -0.0177
   63MOL0     H 8652   8.509  10.075   3.171 -0.3378 -0.7148  0.5337
   63MOL0     H 8653   8.346   9.922   3.391  0.0473 -1.1743 -0.6508
   63MOL0     H 8654   8.203   9.999   3.310  0.2292  0.7614 -2.1814
   63MOL0     H 8655   8.354  10.088   3.318 -2.2073  0.8882  0.0542
   63MOL0     H 8656   7.989   9.439   2.989 -0.5890  0.1497  0.3700
   63MOL0     H 8657   7.809   9.310   3.057  0.1440 -0.4979  2.1047
   63MOL0     H 8658   7.566   9.488   3.230 -0.1432 -2.7173 -4.8208
   63MOL0     H 8659   7.473   9.338   3.225  1.2381 -1.6273  1.6209
   63MOL0     H 8660   7.513   9.342   3.488  2.1751  0.3256  0.3254
   63MOL0     H 8661   7.571   9.497   3.475  1.4887 -1.2747 -0.1625
   63MOL0     H 8662   7.275   9.410   3.383 -1.8705  1.3111  0.6565
   63MOL0     H 8663   7.349   9.565   3.365 -0.3727 -0.8806 -1.0338
   63MOL0     H 8664   7.356   9.605   3.612  1.0373  0.0158 -0.9284
   63MOL0     H 8665   7.327   9.428   3.637  0.9773  1.1688  0.6324
   63MOL0     H 8666   7.140   9.638   3.515 -0.7013  0.0955  1.2242
   63MOL0     H 8667   7.094   9.470   3.530  2.6285 -2.1718 -0.6211
   63MOL0     H 8668   6.988   9.617   3.690  0.3276  1.7348  0.7364
   63MOL0     H 8669   7.143   9.689   3.740 -1.4692 -0.1501  1.1096
   63MOL0     H 8670   7.206   9.508   3.874  0.1023 -0.5391  2.4424
   63MOL0     H 8671   7.110   9.389   3.782  1.2427 -0.3313  1.3542
   63MOL0     H 8672   7.027   9.589   3.986 -1.1684 -0.1072 -0.6982
   63MOL0     H 8673   7.041   9.407   4.015 -2.5112  0.6322  2.6522
   63MOL0     H 8674   7.792   9.542   3.426  1.8459 -1.0402  0.5435
   63MOL0     H 8675   7.950   9.675   3.363 -3.0430 -0.0640  0.7892
   63MOL0     H 8676   8.329   9.665   2.970 -1.1101  1.1455  0.1134
   63MOL0     H 8677   8.492   9.791   2.853 -2.7428  0.0616 -2.4494
   63MOL0     H 8678   9.488  10.466   1.940  0.6065  0.4780  1.6582
   63MOL0     H 8679   9.502  10.226   1.950 -0.0793  0.8578 -2.0237
   63MOL0     H 8680   9.647   9.862   2.133  0.9942 -0.5751  1.3378
   63MOL0     H 8681   9.672   9.644   2.221  0.8757  1.9056 -4.4551
   63MOL0     H 8682   9.521   9.609   2.498  1.3991  0.9215 -1.3859
   63MOL0     H 8683   9.386   9.491   2.516  0.2355  0.2374 -0.8172
   63MOL0     H 8684   9.585   9.410   2.628 -0.3487  0.7134 -0.1511
   63MOL0     H 8685   9.680   9.418   2.488  0.7115  0.0351  1.4315
   63MOL0     H 8686   9.470   9.222   2.541  0.6549 -1.6263  0.2417
   63MOL0     H 8687   9.528   9.236   2.373 -3.0837 -1.4420  0.6972
   63MOL0     H 8688   9.676   9.152   2.627  1.2073 -4.4935 -1.5494
   63MOL0     H 8689   9.770   9.222   2.480  0.5183 -1.8213 -2.2367
   63MOL0     H 8690   9.760   8.873   2.310  0.7889  2.2251 -2.6580
   63MOL0     H 8691   9.241   9.622   2.291 -1.0538  0.8767  1.0393
   63MOL0     H 8692   9.148   9.826   2.347  1.9539 -0.9932  0.3136
   63MOL0     H 8693   9.223   9.979   2.284 -0.6988 -0.7830 -0.2421
   63MOL0     H 8694   9.137   9.857   2.171 -0.9561 -2.9034  0.8828
   64MOL0     O 8695   4.941   9.045  10.184 -0.7547 -0.3473  0.2869
   64MOL0     C 8696   4.986   9.050  10.301  0.1650 -0.0644  0.0293
   64MOL0     O 8697   5.113   9.079  10.327 -0.3009  0.3894 -0.1508
   64MOL0     C 8698   5.188   9.128  10.223 -1.0677  0.0469  0.4907
   64MOL0     C 8699   5.142   9.228  10.132 -0.2590  0.0015  0.1753
   64MOL0     C 8700   5.227   9.279  10.032 -0.4652 -0.7863  0.5488
   64MOL0     C 8701   5.360   9.244  10.021  0.1248  0.7135  0.0555
   64MOL0     O 8702   5.433   9.306   9.924 -0.0770  0.0430 -0.4567
   64MOL0     C 8703   5.570   9.258   9.909  0.8704 -1.1754  0.5035
   64MOL0     C 8704   5.650   9.348   9.807 -0.1559 -0.5117  0.3757
   64MOL0     C 8705   5.780   9.269   9.762 -0.2719  1.1001 -0.4766
   64MOL0     C 8706   5.866   9.355   9.659 -0.5866 -0.3056 -0.5921
   64MOL0     C 8707   5.956   9.452   9.748 -0.4854  0.3817  0.1139
   64MOL0     C 8708   6.036   9.546   9.653  1.4279  0.7336 -0.3124
   64MOL0     C 8709   6.161   9.604   9.725  0.9396 -0.1607 -0.1968
   64MOL0     C 8710   6.252   9.646   9.621 -0.4604 -0.0245  0.8784
   64MOL0     N 8711   6.195   9.732   9.518 -0.5973  0.2373  0.5340
   64MOL0     C 8712   6.126   9.836   9.547  0.1252 -0.7451  0.7951
   64MOL0     C 8713   6.111   9.894   9.432  0.0338  0.4395 -0.2389
   64MOL0     C 8714   6.062  10.036   9.431 -0.2556 -0.5197  0.4588
   64MOL0     C 8715   6.038  10.089   9.294  0.8578  0.2575 -0.6020
   64MOL0     C 8716   5.906  10.036   9.212  0.7967 -0.5466 -0.3983
   64MOL0     C 8717   5.933  10.037   9.061 -0.3622 -1.2736 -0.0313
   64MOL0     O 8718   6.020  10.145   9.021 -0.6903 -0.3559  0.1811
   64MOL0     C 8719   6.107  10.121   8.921  0.3463  0.2358  0.3145
   64MOL0     C 8720   6.102  10.182   8.798 -0.5696  0.0836 -0.4227
   64MOL0     C 8721   6.185  10.143   8.698 -0.0767 -0.7518 -0.5271
   64MOL0     C 8722   6.146  10.210   8.564 -1.4233 -1.0285 -0.7719
   64MOL0     C 8723   6.287  10.042   8.718 -0.1347  0.1800 -0.2395
   64MOL0     C 8724   6.387   9.997   8.621 -1.5028  0.2370 -0.8463
   64MOL0     O 8725   6.491   9.921   8.666  0.9578  0.7514 -1.0395
   64MOL0     C 8726   6.601   9.918   8.590  0.0484 -1.1520 -1.0943
   64MOL0     C 8727   6.651   9.791   8.555  0.2381  0.4075  0.2823
   64MOL0     C 8728   6.768   9.779   8.468 -0.8660  0.8585 -0.2218
   64MOL0     C 8729   6.834   9.890   8.417 -0.5055  0.3769  0.1708
   64MOL0     O 8730   6.926   9.878   8.318 -0.7213  0.6333  0.1987
   64MOL0     C 8731   6.989   9.759   8.269  0.1301 -0.9842  0.1256
   64MOL0     C 8732   7.108   9.788   8.179 -0.9717 -0.4361 -0.6255
   64MOL0     C 8733   7.177   9.651   8.135 -0.1151  0.2988 -0.3153
   64MOL0     C 8734   7.109   9.580   8.022 -0.5876  0.5268  0.0813
   64MOL0     C 8735   7.191   9.480   7.944 -0.8304  0.4334  1.0133
   64MOL0     C 8736   7.253   9.362   8.034  0.1510 -0.7293 -0.6594
   64MOL0     C 8737   7.151   9.286   8.122  0.8642  0.0597 -0.2084
   64MOL0     C 8738   7.214   9.154   8.187  0.3976  0.5419  0.5417
   64MOL0    Cl 8739   7.099   9.093   8.307  0.0564 -0.2165 -0.1601
   64MOL0     C 8740   6.789  10.016   8.462 -0.1845  0.1238 -0.1718
   64MOL0     C 8741   6.674  10.035   8.548 -0.2574  0.1485 -0.1852
   64MOL0     O 8742   6.375  10.037   8.505 -0.8907 -0.1965  0.4098
   64MOL0     C 8743   6.281   9.978   8.844 -0.3517  0.0612  0.1344
   64MOL0     C 8744   6.198  10.018   8.944 -0.3746 -0.1392 -1.1382
   64MOL0     N 8745   6.171   9.820   9.326  0.2678 -0.3908 -0.5297
   64MOL0     N 8746   6.203   9.713   9.390 -1.2894  0.6626 -0.6572
   64MOL0     C 8747   5.404   9.141  10.117 -0.0093 -1.7098 -0.5284
   64MOL0     C 8748   5.325   9.086  10.214  0.6003 -0.6122  0.4074
   64MOL0     C 8749   4.894   9.010  10.410  0.1363 -0.3609  0.3237
   64MOL0     C 8750   4.951   8.991  10.540  0.4362  0.0756  0.1480
   64MOL0     C 8751   4.874   8.938  10.643  0.2802  0.0063 -0.1027
   64MOL0     C 8752   4.750   8.892  10.626 -0.4264  0.1604 -0.5870
   64MOL0     O 8753   4.682   8.839  10.730  0.0640  0.2741 -0.0528
   64MOL0     C 8754   4.754   8.757  10.823 -0.1447  1.1643 -0.1449
   64MOL0     C 8755   4.827   8.626  10.755  0.0939 -0.4416  0.3543
   64MOL0     C 8756   4.843   8.503  10.849  0.0828  0.2566 -0.0040
   64MOL0     C 8757   4.962   8.513  10.938  0.6668  0.5787  0.4004
   64MOL0     C 8758   5.080   8.488  10.864  0.3052  0.3282  0.3084
   64MOL0     C 8759   5.185   8.464  10.810 -0.0360 -0.6803 -1.0278
   64MOL0     C 8760   4.697   8.895  10.497  0.5064 -0.1178 -0.5435
   64MOL0     C 8761   4.762   8.955  10.389 -0.4654  0.3989  1.0510
   64MOL0     C 8762   4.681   8.967  10.261  0.5315 -0.8378  0.2051
   64MOL0     H 8763   5.038   9.257  10.139 -0.2553  0.0337  0.1079
   64MOL0     H 8764   5.192   9.351   9.958  0.1373 -2.0988 -1.0728
   64MOL0     H 8765   5.573   9.157   9.865  0.4687 -1.2026  0.5370
   64MOL0     H 8766   5.625   9.254  10.003 -1.1378  0.5425  1.8467
   64MOL0     H 8767   5.587   9.367   9.719 -0.2040  0.5426  0.6272
   64MOL0     H 8768   5.681   9.443   9.850 -1.2783  0.5545 -1.0556
   64MOL0     H 8769   5.847   9.237   9.842 -1.6789  0.3080  0.4142
   64MOL0     H 8770   5.745   9.182   9.707 -1.0938  1.4508 -0.5162
   64MOL0     H 8771   5.921   9.284   9.596 -0.8090 -2.9779  1.9846
   64MOL0     H 8772   5.804   9.408   9.587  1.6007 -0.5165 -2.7843
   64MOL0     H 8773   6.023   9.393   9.812 -1.2930  1.7344  2.3128
   64MOL0     H 8774   5.899   9.507   9.823  0.8090  0.2774  1.2146
   64MOL0     H 8775   6.068   9.493   9.563  2.6938  3.3085 -1.4923
   64MOL0     H 8776   5.965   9.617   9.611 -2.0383 -1.7123  0.9133
   64MOL0     H 8777   6.203   9.538   9.801  0.7624 -2.0107 -1.6326
   64MOL0     H 8778   6.113   9.686   9.781 -1.4148 -3.1045  2.5017
   64MOL0     H 8779   6.333   9.702   9.669 -0.4805  2.2968 -1.5743
   64MOL0     H 8780   6.288   9.556   9.571 -2.0471 -0.2514  0.1011
   64MOL0     H 8781   6.095   9.880   9.641 -0.7107 -1.3028  0.7926
   64MOL0     H 8782   6.143  10.086   9.483 -0.7241  1.1284 -0.3428
   64MOL0     H 8783   5.967  10.040   9.485  0.1140  2.0927  1.0074
   64MOL0     H 8784   6.021  10.197   9.295 -0.6653  0.0560 -1.5444
   64MOL0     H 8785   6.120  10.072   9.224  1.6074  2.0647 -0.2069
   64MOL0     H 8786   5.868   9.944   9.257  1.2061  0.7183  2.8628
   64MOL0     H 8787   5.834  10.119   9.214  3.2304  1.7109 -0.4832
   64MOL0     H 8788   5.975   9.937   9.047 -0.2310 -1.4298  1.3485
   64MOL0     H 8789   5.845  10.029   8.997  0.2574 -0.4069 -1.0328
   64MOL0     H 8790   6.036  10.267   8.781 -0.0245  1.0500  1.9194
   64MOL0     H 8791   6.079  10.296   8.574 -3.1171 -2.4046  0.2917
   64MOL0     H 8792   6.084  10.135   8.512  0.3189 -3.6909  0.7420
   64MOL0     H 8793   6.239  10.237   8.514 -1.7805  2.3945  0.1879
   64MOL0     H 8794   6.596   9.704   8.590 -2.0178  2.4279  2.1385
   64MOL0     H 8795   6.796   9.679   8.433 -0.8032  0.3518  1.2311
   64MOL0     H 8796   7.024   9.695   8.351  3.1193  0.7539  0.3319
   64MOL0     H 8797   6.911   9.708   8.212 -0.9269 -0.4548  1.0481
   64MOL0     H 8798   7.091   9.838   8.084 -0.8402  1.5370  0.3322
   64MOL0     H 8799   7.180   9.847   8.236  0.5559 -2.8284  0.0876
   64MOL0     H 8800   7.192   9.585   8.221 -1.4817  0.6993  0.2538
   64MOL0     H 8801   7.281   9.658   8.105  0.1135 -0.7693  0.1782
   64MOL0     H 8802   7.069   9.650   7.949 -1.3775 -1.4169 -1.4300
   64MOL0     H 8803   7.021   9.533   8.067 -0.1837 -0.7712 -0.4190
   64MOL0     H 8804   7.122   9.432   7.873 -1.9664  1.2892  1.5139
   64MOL0     H 8805   7.266   9.536   7.888 -0.5264  0.3000  1.2800
   64MOL0     H 8806   7.331   9.406   8.097 -0.8628 -0.6112  0.5255
   64MOL0     H 8807   7.309   9.293   7.969  1.7254 -1.1488  1.0336
   64MOL0     H 8808   7.058   9.264   8.070  2.1157  2.4158 -3.8252
   64MOL0     H 8809   7.120   9.355   8.201 -1.4992 -1.0829 -0.0417
   64MOL0     H 8810   7.313   9.174   8.230  0.0610 -2.7085  3.2231
   64MOL0     H 8811   7.235   9.071   8.120 -0.5540  1.5084 -1.0169
   64MOL0     H 8812   6.856  10.095   8.433  0.8755 -1.0942 -1.1465
   64MOL0     H 8813   6.636  10.136   8.564 -2.4255 -0.2483 -2.2318
   64MOL0     H 8814   6.345   9.893   8.864  0.1848 -0.2569 -2.5409
   64MOL0     H 8815   6.192   9.956   9.033 -2.6654 -0.0729 -1.1988
   64MOL0     H 8816   5.507   9.105  10.107 -0.0732 -2.0200 -0.1040
   64MOL0     H 8817   5.362   9.011  10.282  0.8710 -0.5388  0.3417
   64MOL0     H 8818   5.046   9.038  10.565 -0.2489  0.9318  1.1965
   64MOL0     H 8819   4.915   8.927  10.743 -0.6757 -0.9275  0.2083
   64MOL0     H 8820   4.827   8.821  10.873 -0.4646  3.7914 -2.7269
   64MOL0     H 8821   4.684   8.709  10.892  1.6228  0.7242  1.4326
   64MOL0     H 8822   4.926   8.650  10.714  0.5224  1.4033  2.2966
   64MOL0     H 8823   4.764   8.587  10.674  0.5933  2.0481 -1.3629
   64MOL0     H 8824   4.752   8.499  10.909  0.9883 -1.2023  1.3294
   64MOL0     H 8825   4.839   8.413  10.788 -2.0653 -0.2221  0.7378
   64MOL0     H 8826   4.952   8.440  11.018 -1.5528  0.8428  0.4236
   64MOL0     H 8827   4.951   8.616  10.973  1.1977  1.5221 -1.9837
   64MOL0     H 8828   5.270   8.442  10.748  0.5544 -0.7634 -0.2051
   64MOL0     H 8829   4.611   8.831  10.480  1.0027 -0.6724 -1.0037
   64MOL0     H 8830   4.728   8.911  10.180  2.7519 -1.2404  1.6839
   64MOL0     H 8831   4.574   8.947  10.267  0.7664 -1.6688  2.9435
   64MOL0     H 8832   4.686   9.072  10.232  1.6234 -1.5830 -2.6826
   65MOL0     O 8833  11.366   8.524  10.101  0.4553 -0.0352 -0.4269
   65MOL0     C 8834  11.397   8.464  10.207 -0.4675  0.3394 -0.2479
   65MOL0     O 8835  11.373   8.507  10.327  0.1741  0.4902  0.2149
   65MOL0     C 8836  11.341   8.636  10.348 -0.5266  0.0540 -0.4627
   65MOL0     C 8837  11.210   8.668  10.399  0.2188 -0.4767 -0.1384
   65MOL0     C 8838  11.180   8.793  10.451  0.1281  0.6850 -0.2246
   65MOL0     C 8839  11.280   8.890  10.446  0.1751 -0.9766  0.1224
   65MOL0     O 8840  11.248   9.019  10.486 -0.1690 -0.0639  0.1786
   65MOL0     C 8841  11.342   9.086  10.574 -0.1863  0.8759 -1.1602
   65MOL0     C 8842  11.416   9.196  10.510 -0.2642 -0.4706  0.5118
   65MOL0     C 8843  11.530   9.266  10.596 -0.2855  0.1147  0.3172
   65MOL0     C 8844  11.467   9.359  10.708 -0.4901 -0.9430  0.3433
   65MOL0     C 8845  11.440   9.269  10.838  0.0522  0.5740  0.9202
   65MOL0     C 8846  11.539   9.282  10.947 -0.5490 -0.1504  0.3862
   65MOL0     C 8847  11.684   9.237  10.909  0.9948 -0.8557 -0.3198
   65MOL0     C 8848  11.743   9.195  11.043  0.6682  0.3860  0.2461
   65MOL0     N 8849  11.887   9.232  11.037 -0.5461 -0.3983  0.8894
   65MOL0     C 8850  11.968   9.290  11.135  1.1736 -1.1105  0.2287
   65MOL0     C 8851  12.086   9.311  11.074 -0.5056 -0.8509  0.1756
   65MOL0     C 8852  12.215   9.380  11.109  0.0356 -0.7843 -0.4165
   65MOL0     C 8853  12.242   9.510  11.036 -0.8318 -0.3644 -0.0750
   65MOL0     C 8854  12.384   9.566  11.065 -0.1367  0.9134 -0.1967
   65MOL0     C 8855  12.424   9.678  10.977 -0.2725 -0.1323  0.6417
   65MOL0     O 8856  12.336   9.795  10.966 -0.1879 -0.2595  0.0993
   65MOL0     C 8857  12.281   9.848  11.077  0.3011  0.0585  0.4640
   65MOL0     C 8858  12.146   9.885  11.080  0.0351  0.3548  0.0650
   65MOL0     C 8859  12.081   9.941  11.194 -0.7766 -0.5378 -1.1516
   65MOL0     C 8860  11.929   9.966  11.190 -0.9567  0.0287 -0.2302
   65MOL0     C 8861  12.164   9.973  11.308 -0.4465  0.2753  0.6334
   65MOL0     C 8862  12.115  10.061  11.411  0.0555 -0.3851 -0.3892
   65MOL0     O 8863  12.145  10.014  11.532 -0.5603  0.5540  0.9111
   65MOL0     C 8864  12.219  10.088  11.624 -0.2902  0.2376 -0.6608
   65MOL0     C 8865  12.270  10.028  11.738  0.4277  0.4631  0.3272
   65MOL0     C 8866  12.351  10.101  11.826  0.0637  0.4650  0.7677
   65MOL0     C 8867  12.381  10.233  11.797  0.1039 -0.1451  0.8928
   65MOL0     O 8868  12.479  10.292  11.873 -0.1294  0.5927  0.1636
   65MOL0     C 8869  12.503  10.433  11.862 -0.6833 -0.9175 -0.0357
   65MOL0     C 8870  12.612  10.469  11.968 -0.3733  0.2366  0.3031
   65MOL0     C 8871  12.537  10.481  12.105 -0.1590 -0.3282 -0.2689
   65MOL0     C 8872  12.637  10.483  12.223 -0.0304 -0.2283 -0.2714
   65MOL0     C 8873  12.571  10.531  12.354 -0.2025  0.6488 -0.5251
   65MOL0     C 8874  12.683  10.524  12.466 -0.1483  0.0021 -0.4013
   65MOL0     C 8875  12.608  10.558  12.592  0.0193 -1.0297 -1.3550
   65MOL0     C 8876  12.690  10.541  12.707 -0.2623  0.4363 -0.2948
   65MOL0    Cl 8877  12.826  10.666  12.708  0.1434  0.4253  0.4631
   65MOL0     C 8878  12.329  10.289  11.683  0.9416  0.1005 -0.7135
   65MOL0     C 8879  12.262  10.215  11.591  0.3464  0.1231 -0.3418
   65MOL0     O 8880  12.044  10.153  11.385 -0.3866 -0.3068 -0.2286
   65MOL0     C 8881  12.301   9.939  11.303 -0.5353  0.3319 -0.3863
   65MOL0     C 8882  12.357   9.878  11.193 -0.1380 -0.9510  0.0445
   65MOL0     N 8883  12.080   9.243  10.960 -0.3808 -0.5328 -0.0362
   65MOL0     N 8884  11.963   9.203  10.925  0.2002 -0.8204  0.2759
   65MOL0     C 8885  11.408   8.857  10.397 -1.0480  0.0006 -0.1593
   65MOL0     C 8886  11.439   8.729  10.357 -0.4265  0.1907 -0.1249
   65MOL0     C 8887  11.481   8.340  10.182 -0.3323 -0.0658 -0.5636
   65MOL0     C 8888  11.474   8.294  10.055  0.9451  1.2259 -0.5082
   65MOL0     C 8889  11.529   8.173  10.021 -0.2322 -0.0852  1.0029
   65MOL0     C 8890  11.604   8.096  10.114  1.4211 -0.0247 -0.9032
   65MOL0     O 8891  11.650   7.978  10.073 -0.2338  0.1595 -0.5185
   65MOL0     C 8892  11.762   7.907  10.138  1.2005 -0.0243  0.3524
   65MOL0     C 8893  11.759   7.769  10.074  0.5361 -0.6608 -0.6428
   65MOL0     C 8894  11.789   7.662  10.173  0.0952  0.7048 -0.7166
   65MOL0     C 8895  11.848   7.535  10.107  0.7536  0.4641 -0.6871
   65MOL0     C 8896  11.739   7.452  10.045  0.2576 -0.6545  0.6179
   65MOL0     C 8897  11.668   7.390   9.979  1.0785  1.2154  0.0192
   65MOL0     C 8898  11.608   8.144  10.240  0.1196  0.4223 -0.6984
   65MOL0     C 8899  11.556   8.268  10.280  0.0619  0.2784 -0.4044
   65MOL0     C 8900  11.575   8.330  10.416  0.1958  0.0163 -0.7752
   65MOL0     H 8901  11.125   8.601  10.386 -0.2619  0.4353 -2.0321
   65MOL0     H 8902  11.085   8.806  10.501  0.9903 -0.1513  1.7187
   65MOL0     H 8903  11.416   9.024  10.625 -2.0234  1.5062  2.6706
   65MOL0     H 8904  11.269   9.120  10.649 -2.5334 -0.9834 -2.4519
   65MOL0     H 8905  11.456   9.171  10.411  0.2995 -0.6227  0.7730
   65MOL0     H 8906  11.344   9.276  10.486  0.5759  0.5102  1.1874
   65MOL0     H 8907  11.592   9.184  10.634 -0.4969  1.7167  4.6543
   65MOL0     H 8908  11.579   9.333  10.524  1.3540 -0.4236  0.8670
   65MOL0     H 8909  11.539   9.441  10.721 -2.7748  1.7536 -2.4034
   65MOL0     H 8910  11.380   9.417  10.679 -2.3052 -4.7745 -2.7295
   65MOL0     H 8911  11.438   9.164  10.808 -0.5093  0.5744  0.9425
   65MOL0     H 8912  11.344   9.301  10.880 -0.2643  3.5659 -1.7168
   65MOL0     H 8913  11.532   9.382  10.990  1.1364  0.1989 -0.1007
   65MOL0     H 8914  11.497   9.209  11.018  1.2977 -0.4994  1.1705
   65MOL0     H 8915  11.727   9.328  10.866 -1.0386 -0.1207 -0.8761
   65MOL0     H 8916  11.678   9.163  10.828  0.5308 -1.7094  0.4780
   65MOL0     H 8917  11.703   9.265  11.117  0.0592  0.2757  0.0282
   65MOL0     H 8918  11.736   9.089  11.066 -0.1190  0.1452 -1.0153
   65MOL0     H 8919  11.924   9.314  11.231  0.2721 -3.3911  0.4444
   65MOL0     H 8920  12.293   9.306  11.087 -0.6432 -1.3249 -1.0297
   65MOL0     H 8921  12.223   9.396  11.217  1.9419 -1.6903 -0.3812
   65MOL0     H 8922  12.229   9.504  10.928 -1.3093 -0.1817 -0.0284
   65MOL0     H 8923  12.161   9.574  11.074  0.3799  1.0833  0.1571
   65MOL0     H 8924  12.387   9.589  11.172  1.1278 -1.7615  0.4082
   65MOL0     H 8925  12.454   9.483  11.048 -1.3732 -0.3720  0.8241
   65MOL0     H 8926  12.526   9.706  11.007  1.8622 -4.0544 -2.0556
   65MOL0     H 8927  12.438   9.628  10.880  0.1960 -3.1822  2.1520
   65MOL0     H 8928  12.093   9.861  10.989 -1.4015 -2.1497  1.4323
   65MOL0     H 8929  11.890   9.926  11.096  2.5764  0.5582 -2.1309
   65MOL0     H 8930  11.911  10.074  11.188 -1.3309 -0.0257  0.1444
   65MOL0     H 8931  11.884   9.936  11.285 -0.9435 -2.5681 -0.9743
   65MOL0     H 8932  12.254   9.921  11.754  2.6609  0.1808  1.0567
   65MOL0     H 8933  12.397  10.058  11.914 -1.7125 -1.3615  0.8730
   65MOL0     H 8934  12.540  10.453  11.761 -4.0124 -2.7255 -1.7753
   65MOL0     H 8935  12.417  10.495  11.889  1.7016  1.8737  1.8720
   65MOL0     H 8936  12.688  10.391  11.966  1.2392  1.7460 -1.3885
   65MOL0     H 8937  12.651  10.571  11.956  1.1137  0.0649  3.0304
   65MOL0     H 8938  12.471  10.395  12.117  2.3766 -2.8515 -2.7016
   65MOL0     H 8939  12.490  10.579  12.104 -2.4108 -1.2111  3.2425
   65MOL0     H 8940  12.719  10.552  12.201 -0.7734  0.1011 -2.1815
   65MOL0     H 8941  12.667  10.380  12.241 -1.7634 -0.7251 -0.1177
   65MOL0     H 8942  12.544  10.634  12.328 -0.7727  0.3154 -1.2966
   65MOL0     H 8943  12.482  10.476  12.383 -0.2440  0.2468 -1.3664
   65MOL0     H 8944  12.772  10.585  12.448  0.8507 -1.8606 -2.3789
   65MOL0     H 8945  12.719  10.420  12.473 -1.7132 -0.4728  1.6258
   65MOL0     H 8946  12.527  10.486  12.601 -1.1739  0.3043 -1.0437
   65MOL0     H 8947  12.571  10.661  12.590 -0.5564 -1.1546  0.6307
   65MOL0     H 8948  12.729  10.439  12.703 -1.0281  0.1189  0.0932
   65MOL0     H 8949  12.631  10.562  12.797  0.2706  3.3404 -0.5078
   65MOL0     H 8950  12.350  10.395  11.673 -2.0548  0.6917 -1.6921
   65MOL0     H 8951  12.229  10.273  11.506  1.7559  2.6615  0.7454
   65MOL0     H 8952  12.368   9.965  11.384  2.0945 -1.5152 -1.8111
   65MOL0     H 8953  12.465   9.869  11.199 -0.1847 -1.2065  0.6367
   65MOL0     H 8954  11.474   8.942  10.382  1.0305 -1.1484  1.7373
   65MOL0     H 8955  11.534   8.710  10.309 -1.0271  2.0943 -2.2097
   65MOL0     H 8956  11.426   8.343   9.971 -0.4210 -0.1690 -0.5975
   65MOL0     H 8957  11.517   8.138   9.918 -2.7249  3.0295  0.0695
   65MOL0     H 8958  11.851   7.968  10.124 -1.7302  4.3220 -1.8573
   65MOL0     H 8959  11.742   7.886  10.243  0.6681  2.1412  0.7207
   65MOL0     H 8960  11.836   7.782   9.997 -0.5725 -0.5734 -1.7475
   65MOL0     H 8961  11.662   7.747  10.030 -0.8882 -1.1555  2.4592
   65MOL0     H 8962  11.863   7.707  10.240 -0.2445  0.7379 -0.3645
   65MOL0     H 8963  11.703   7.631  10.233 -0.2058 -0.3511 -1.6572
   65MOL0     H 8964  11.894   7.463  10.176  0.1484 -1.6324 -2.3518
   65MOL0     H 8965  11.934   7.551  10.041  0.5212  2.4021 -0.5569
   65MOL0     H 8966  11.614   7.329   9.909  3.2230 -0.6836 -0.0763
   65MOL0     H 8967  11.647   8.082  10.320  0.8620  1.9432  0.1646
   65MOL0     H 8968  11.475   8.330  10.462 -0.9101 -1.4649 -2.9660
   65MOL0     H 8969  11.649   8.273  10.473  2.4962  1.0362 -2.6190
   65MOL0     H 8970  11.603   8.435  10.403  2.5378 -0.3410  0.7770
   66MOL0     O 8971   9.537   6.855   7.802 -0.8376  0.0557  0.0702
   66MOL0     C 8972   9.457   6.853   7.704  0.1577  0.2935 -0.2678
   66MOL0     O 8973   9.479   6.909   7.579 -0.5984  0.2567  1.2351
   66MOL0     C 8974   9.622   6.916   7.548  0.4086  0.0305  0.0570
   66MOL0     C 8975   9.723   6.825   7.595  0.1333 -1.3418 -0.0642
   66MOL0     C 8976   9.852   6.839   7.531  0.5089  0.5033 -0.7755
   66MOL0     C 8977   9.890   6.943   7.444 -0.6937 -0.6034  0.5368
   66MOL0     O 8978  10.021   6.962   7.407 -0.3503 -0.6888  0.1911
   66MOL0     C 8979  10.076   7.091   7.407  0.3972 -0.7572  0.0586
   66MOL0     C 8980  10.088   7.144   7.260 -0.0981 -0.4323 -0.5529
   66MOL0     C 8981  10.201   7.094   7.166 -0.1990 -0.1038  0.0718
   66MOL0     C 8982  10.187   7.162   7.032 -0.1381  0.1964  0.5008
   66MOL0     C 8983  10.311   7.136   6.947 -0.0298  0.0917 -0.2962
   66MOL0     C 8984  10.354   6.986   6.925  0.1117  0.1163 -0.2762
   66MOL0     C 8985  10.447   6.958   6.799  0.3187 -0.0583  0.5110
   66MOL0     C 8986  10.481   6.807   6.796 -0.1199 -0.1368 -0.4886
   66MOL0     N 8987  10.378   6.720   6.738 -0.6166  0.1348  0.2847
   66MOL0     C 8988  10.323   6.719   6.606 -0.1540 -1.3257 -0.1507
   66MOL0     C 8989  10.210   6.667   6.612 -0.1681 -0.1040  0.0264
   66MOL0     C 8990  10.126   6.651   6.484 -0.2289  0.3647 -0.6123
   66MOL0     C 8991  10.166   6.535   6.403  0.3896  0.4965  0.0896
   66MOL0     C 8992  10.090   6.541   6.274  0.2083 -1.3549  0.2268
   66MOL0     C 8993  10.112   6.418   6.183  0.1864  0.2264  0.1230
   66MOL0     O 8994  10.011   6.412   6.077  0.0267 -0.2735  0.1069
   66MOL0     C 8995   9.884   6.378   6.114 -0.0228  0.4916  0.3816
   66MOL0     C 8996   9.853   6.306   6.231  0.4384 -0.2033 -0.3652
   66MOL0     C 8997   9.716   6.283   6.264  0.1284  0.4295  0.9146
   66MOL0     C 8998   9.695   6.219   6.394  0.5180 -0.2879 -0.2030
   66MOL0     C 8999   9.614   6.326   6.180  0.6053 -0.2646  0.4695
   66MOL0     C 9000   9.467   6.293   6.193 -0.8227 -0.3719 -0.3582
   66MOL0     O 9001   9.443   6.172   6.250 -0.2726  0.7138 -0.2077
   66MOL0     C 9002   9.319   6.118   6.263 -0.6885  0.4642 -0.0111
   66MOL0     C 9003   9.212   6.142   6.172  0.4167 -0.0277 -1.1316
   66MOL0     C 9004   9.078   6.095   6.191 -0.5996  0.1744  0.5085
   66MOL0     C 9005   9.063   6.017   6.309  1.1237  0.9823 -0.0901
   66MOL0     O 9006   8.942   5.974   6.354 -0.8206  0.4002 -0.5292
   66MOL0     C 9007   8.872   5.887   6.260  0.5155  0.1158  0.3643
   66MOL0     C 9008   8.744   5.821   6.304  0.8024  0.6371 -0.2914
   66MOL0     C 9009   8.781   5.687   6.378 -0.1824  0.0824  0.8865
   66MOL0     C 9010   8.673   5.663   6.491 -0.3406 -0.2679  0.2716
   66MOL0     C 9011   8.750   5.567   6.585 -0.4807  0.2153 -0.1799
   66MOL0     C 9012   8.659   5.548   6.714 -0.6852 -0.1945 -0.3579
   66MOL0     C 9013   8.719   5.482   6.840  0.5900  0.3611 -0.1339
   66MOL0     C 9014   8.776   5.347   6.823  1.1561  0.4265  0.4803
   66MOL0    Cl 9015   8.906   5.344   6.716 -0.1310 -0.0984  0.5198
   66MOL0     C 9016   9.167   5.985   6.397  0.4072 -0.5479 -0.0580
   66MOL0     C 9017   9.291   6.046   6.379 -0.2538  0.7932 -0.5296
   66MOL0     O 9018   9.394   6.366   6.135 -0.2317 -0.0271  0.2774
   66MOL0     C 9019   9.651   6.410   6.068  0.6163 -0.0239 -0.3155
   66MOL0     C 9020   9.783   6.416   6.036 -0.2832  0.3918  0.5773
   66MOL0     N 9021  10.189   6.632   6.743 -0.7622  0.1999  0.1652
   66MOL0     N 9022  10.287   6.669   6.822  0.9143  0.2136  0.7895
   66MOL0     C 9023   9.789   7.025   7.408  0.1068 -0.1695  0.2994
   66MOL0     C 9024   9.657   7.013   7.455 -0.0513  0.3805  0.5428
   66MOL0     C 9025   9.325   6.798   7.718 -0.3947 -0.9741  1.3752
   66MOL0     C 9026   9.289   6.674   7.665  0.3367  0.4877 -0.2356
   66MOL0     C 9027   9.156   6.628   7.684 -0.2832  1.2107  0.4750
   66MOL0     C 9028   9.077   6.694   7.771 -0.6152 -0.6768 -0.4651
   66MOL0     O 9029   8.957   6.653   7.819  0.1181  0.7176 -0.3501
   66MOL0     C 9030   8.922   6.509   7.828 -0.2128 -0.1770 -0.2051
   66MOL0     C 9031   8.842   6.487   7.959 -0.2568 -0.5667  0.3378
   66MOL0     C 9032   8.775   6.348   7.962  0.8396 -0.5629  0.4739
   66MOL0     C 9033   8.718   6.320   8.107  0.1432 -1.1648 -0.2787
   66MOL0     C 9034   8.824   6.292   8.201 -0.6345 -0.2461  0.2561
   66MOL0     C 9035   8.902   6.246   8.278 -0.7109 -0.1697 -0.2485
   66MOL0     C 9036   9.109   6.828   7.809  0.0964 -0.0663  0.4267
   66MOL0     C 9037   9.235   6.885   7.785  0.1131  0.3786  0.1340
   66MOL0     C 9038   9.263   7.024   7.830 -0.0139 -0.2334 -0.0163
   66MOL0     H 9039   9.715   6.745   7.669  0.7399 -0.9730  0.4057
   66MOL0     H 9040   9.935   6.778   7.565  0.9439  2.1070  1.2675
   66MOL0     H 9041  10.174   7.083   7.456  0.4394 -2.1304 -0.2028
   66MOL0     H 9042  10.022   7.157   7.474  0.3938 -1.8282  1.1424
   66MOL0     H 9043   9.999   7.103   7.212  0.6714 -3.4355  0.3293
   66MOL0     H 9044  10.097   7.253   7.270  2.1342 -0.4776 -1.4389
   66MOL0     H 9045  10.297   7.117   7.213  0.5627 -1.7863 -0.5874
   66MOL0     H 9046  10.199   6.986   7.155 -2.2085 -0.6417  4.0234
   66MOL0     H 9047  10.114   7.113   6.967  0.1987  2.4489 -1.7588
   66MOL0     H 9048  10.159   7.268   7.036  3.0136  1.2611 -1.7186
   66MOL0     H 9049  10.392   7.191   6.997 -1.6534  2.9853 -0.6038
   66MOL0     H 9050  10.306   7.175   6.845 -1.3255  0.4920 -0.0983
   66MOL0     H 9051  10.393   6.932   7.013  1.6064  1.8540  0.1891
   66MOL0     H 9052  10.259   6.936   6.907 -0.7567  1.1217  1.2682
   66MOL0     H 9053  10.540   7.014   6.808  1.1102 -1.0580 -1.0874
   66MOL0     H 9054  10.400   6.985   6.703  0.5586 -0.4540  0.2815
   66MOL0     H 9055  10.571   6.797   6.734 -0.9685  0.1032 -1.8131
   66MOL0     H 9056  10.498   6.775   6.899  1.3467  0.5486 -0.4844
   66MOL0     H 9057  10.355   6.755   6.508 -0.9952 -2.4899 -0.8754
   66MOL0     H 9058  10.135   6.736   6.416 -5.4888 -0.1048 -2.3945
   66MOL0     H 9059  10.018   6.645   6.505 -0.5389 -1.5485 -2.3940
   66MOL0     H 9060  10.274   6.534   6.384  0.1736 -0.6966 -1.2905
   66MOL0     H 9061  10.141   6.444   6.458  0.7031  0.3985  0.0686
   66MOL0     H 9062   9.984   6.562   6.292  0.6200 -0.4860  1.8471
   66MOL0     H 9063  10.141   6.627   6.230 -1.3252 -0.2324  0.5328
   66MOL0     H 9064  10.213   6.429   6.144 -0.3814  1.4251 -1.1008
   66MOL0     H 9065  10.110   6.325   6.240 -1.8265  0.3357  0.3050
   66MOL0     H 9066   9.928   6.279   6.304 -0.6898  4.5432  3.0981
   66MOL0     H 9067   9.781   6.246   6.456  1.2244 -0.4474 -1.1046
   66MOL0     H 9068   9.691   6.110   6.388  0.5083 -0.3467  0.7378
   66MOL0     H 9069   9.608   6.258   6.449 -0.3048 -0.8260 -1.0784
   66MOL0     H 9070   9.231   6.210   6.089  2.5573 -0.0699 -0.7181
   66MOL0     H 9071   8.996   6.118   6.123 -0.5419  1.8590  0.9549
   66MOL0     H 9072   8.824   5.956   6.189 -1.0930  0.5597  1.8152
   66MOL0     H 9073   8.932   5.814   6.204 -2.6042 -0.2812 -2.8162
   66MOL0     H 9074   8.679   5.891   6.358  0.7541  2.5032 -2.6132
   66MOL0     H 9075   8.693   5.793   6.212 -0.3201  0.0063  0.4955
   66MOL0     H 9076   8.885   5.701   6.408  0.3260  1.7172 -1.3043
   66MOL0     H 9077   8.781   5.599   6.313  0.7658  0.9161 -0.3000
   66MOL0     H 9078   8.579   5.622   6.452  0.0721 -0.6440 -0.3529
   66MOL0     H 9079   8.655   5.762   6.534 -3.5786 -1.2688  1.5253
   66MOL0     H 9080   8.769   5.475   6.529 -0.4613 -0.3011  0.6747
   66MOL0     H 9081   8.849   5.604   6.614  0.5632 -1.9501 -0.7698
   66MOL0     H 9082   8.573   5.493   6.676 -0.7629  1.4823 -2.8439
   66MOL0     H 9083   8.622   5.647   6.743 -1.2995 -0.6042  0.2726
   66MOL0     H 9084   8.640   5.474   6.915  1.4101 -1.8681  0.5763
   66MOL0     H 9085   8.807   5.535   6.877  0.8253 -1.1890  1.6898
   66MOL0     H 9086   8.699   5.274   6.794  3.8361 -2.0230 -1.0513
   66MOL0     H 9087   8.811   5.324   6.924  1.3849 -1.1347  0.0815
   66MOL0     H 9088   9.147   5.922   6.483  3.5616 -1.2139  0.3086
   66MOL0     H 9089   9.360   6.039   6.462  1.0829  2.4355 -1.4019
   66MOL0     H 9090   9.578   6.440   5.993 -1.1586 -0.5252  1.1206
   66MOL0     H 9091   9.806   6.460   5.940 -1.7869  0.7415  0.3602
   66MOL0     H 9092   9.813   7.097   7.331 -1.2727 -0.8320 -0.8024
   66MOL0     H 9093   9.580   7.068   7.401  0.8912  1.2874  0.0769
   66MOL0     H 9094   9.354   6.614   7.602 -0.6837 -0.0270 -0.8255
   66MOL0     H 9095   9.120   6.531   7.648 -1.7894  1.0861  2.1628
   66MOL0     H 9096   8.885   6.479   7.729  2.8492 -0.8632 -1.2579
   66MOL0     H 9097   9.017   6.455   7.837 -0.4867 -0.5285  0.6528
   66MOL0     H 9098   8.770   6.566   7.980 -0.2396 -0.1109 -1.1892
   66MOL0     H 9099   8.920   6.489   8.036  0.2609 -0.7064 -0.1743
   66MOL0     H 9100   8.693   6.350   7.890  0.5827 -1.0590  0.7484
   66MOL0     H 9101   8.856   6.281   7.931  0.2290 -1.2123  0.2581
   66MOL0     H 9102   8.659   6.230   8.086 -1.7155  0.3241 -1.9018
   66MOL0     H 9103   8.658   6.403   8.146  1.3328 -1.9002  3.6208
   66MOL0     H 9104   8.967   6.207   8.354 -1.1552 -4.2362 -1.6834
   66MOL0     H 9105   9.038   6.888   7.865  0.3957 -1.7449  2.7789
   66MOL0     H 9106   9.317   7.024   7.926 -0.7129 -0.3275  0.3860
   66MOL0     H 9107   9.312   7.076   7.747 -1.2515  0.9904 -0.0165
   66MOL0     H 9108   9.169   7.076   7.848 -1.9601 -3.6780  0.7234
   67MOL0     O 9109   3.982   5.447   0.220  0.4206  0.5679  0.2230
   67MOL0     C 9110   4.076   5.385   0.175 -0.0767  0.7680 -0.2644
   67MOL0     O 9111   4.067   5.260   0.113 -0.2313 -0.0321  0.2738
   67MOL0     C 9112   3.945   5.190   0.095 -0.8219  0.4153 -0.4420
   67MOL0     C 9113   3.925   5.123  -0.026  0.7731 -1.4108 -0.6665
   67MOL0     C 9114   3.811   5.031  -0.035 -0.0804 -0.3607  0.2417
   67MOL0     C 9115   3.734   5.007   0.083 -0.5170  0.3144  0.2904
   67MOL0     O 9116   3.643   4.904   0.069 -0.5239 -0.0499  0.0573
   67MOL0     C 9117   3.584   4.860   0.194  0.4311  0.8151  0.3662
   67MOL0     C 9118   3.443   4.918   0.219  0.1732  0.3725  0.8167
   67MOL0     C 9119   3.346   4.886   0.104 -0.4479  0.7356  0.2819
   67MOL0     C 9120   3.273   4.752   0.109  0.0543 -0.0024  0.2076
   67MOL0     C 9121   3.180   4.729  -0.009 -0.0047  0.1434  0.7038
   67MOL0     C 9122   3.276   4.707  -0.141  0.2469 -0.0831 -0.6755
   67MOL0     C 9123   3.192   4.626  -0.239  0.3822  0.0906 -0.7107
   67MOL0     C 9124   3.279   4.529  -0.326 -0.7380 -0.3857 -0.7524
   67MOL0     N 9125   3.356   4.429  -0.255  0.3292 -1.3153 -0.5531
   67MOL0     C 9126   3.301   4.330  -0.177 -0.0367 -0.6528 -0.1005
   67MOL0     C 9127   3.401   4.258  -0.133 -0.8060  1.3953 -0.7913
   67MOL0     C 9128   3.403   4.119  -0.064 -0.6159  0.0988 -0.4889
   67MOL0     C 9129   3.417   4.136   0.092 -0.3691  0.4365  0.5617
   67MOL0     C 9130   3.441   4.000   0.155 -0.5349  0.1999 -0.8576
   67MOL0     C 9131   3.385   4.012   0.297  0.3024 -1.4388  0.0067
   67MOL0     O 9132   3.405   3.896   0.372  0.1141  1.5156 -1.1921
   67MOL0     C 9133   3.299   3.835   0.435 -0.8268 -0.2374  0.8524
   67MOL0     C 9134   3.204   3.912   0.501  0.1776 -0.5980 -0.1541
   67MOL0     C 9135   3.084   3.853   0.548  0.0440  0.2262 -0.0470
   67MOL0     C 9136   3.002   3.964   0.606  0.5768  1.2596 -0.0317
   67MOL0     C 9137   3.075   3.709   0.553  0.7390  0.5312  0.3613
   67MOL0     C 9138   2.964   3.642   0.618  0.2358 -0.2524 -0.0319
   67MOL0     O 9139   3.000   3.534   0.692 -0.6373 -0.3909 -0.6138
   67MOL0     C 9140   2.906   3.495   0.784 -1.2728 -0.6221  0.2744
   67MOL0     C 9141   2.912   3.359   0.815 -0.2691  0.5342  0.2305
   67MOL0     C 9142   2.828   3.311   0.923 -0.5531  0.4509 -0.6689
   67MOL0     C 9143   2.760   3.399   1.012 -0.3782  0.9420  0.5272
   67MOL0     O 9144   2.691   3.350   1.112  0.4092 -0.4053  0.2323
   67MOL0     C 9145   2.553   3.335   1.075  0.4148 -0.3500 -0.1141
   67MOL0     C 9146   2.467   3.295   1.191 -0.3410  0.3635  0.7527
   67MOL0     C 9147   2.453   3.402   1.298 -0.0564 -0.9793 -0.2790
   67MOL0     C 9148   2.321   3.475   1.307  0.5923 -0.6294 -0.9551
   67MOL0     C 9149   2.218   3.387   1.376 -0.0189  0.7739  1.0028
   67MOL0     C 9150   2.256   3.340   1.523 -0.2302  0.0426 -0.4593
   67MOL0     C 9151   2.307   3.195   1.529  0.3542  0.0330 -0.3122
   67MOL0     C 9152   2.193   3.106   1.500  0.3364  1.2259  0.3129
   67MOL0    Cl 9153   2.065   3.092   1.628 -0.6121  0.3157 -0.5697
   67MOL0     C 9154   2.761   3.542   0.989 -1.1604 -0.6328  0.0420
   67MOL0     C 9155   2.840   3.580   0.878 -1.0139 -0.6144  0.4963
   67MOL0     O 9156   2.855   3.691   0.608  0.0363 -0.1056  0.1425
   67MOL0     C 9157   3.183   3.629   0.499 -0.1764 -0.2486 -0.4978
   67MOL0     C 9158   3.291   3.696   0.447 -0.3345 -0.0534  0.2413
   67MOL0     N 9159   3.516   4.313  -0.185 -0.9775 -0.0324  0.7957
   67MOL0     N 9160   3.493   4.414  -0.252 -0.4465 -0.7903 -0.5151
   67MOL0     C 9161   3.744   5.083   0.193 -0.4066 -0.4026 -0.0499
   67MOL0     C 9162   3.853   5.173   0.198  0.1288  0.0918 -1.4290
   67MOL0     C 9163   4.209   5.449   0.195 -0.6225  0.5210  0.2754
   67MOL0     C 9164   4.237   5.503   0.319  0.8549  0.6544  0.7930
   67MOL0     C 9165   4.355   5.563   0.347  0.1097  0.3031 -1.0701
   67MOL0     C 9166   4.462   5.569   0.266 -0.6047 -0.0914 -1.7989
   67MOL0     O 9167   4.567   5.638   0.322 -0.3895 -0.8527  0.1516
   67MOL0     C 9168   4.686   5.641   0.246 -1.0669  0.0806  0.2621
   67MOL0     C 9169   4.803   5.656   0.344 -0.6336  0.0045 -0.4346
   67MOL0     C 9170   4.906   5.535   0.332 -0.0666 -0.4119  0.1580
   67MOL0     C 9171   5.008   5.509   0.439 -0.1611  0.6809  0.4150
   67MOL0     C 9172   4.952   5.437   0.553  0.3354  1.0527  0.3760
   67MOL0     C 9173   4.923   5.372   0.655  0.6995 -0.0326  0.3872
   67MOL0     C 9174   4.444   5.510   0.138 -0.4990 -0.9304 -0.0125
   67MOL0     C 9175   4.323   5.447   0.101  0.4866 -0.0325  0.4745
   67MOL0     C 9176   4.329   5.363  -0.030 -0.7101  0.9703 -0.8742
   67MOL0     H 9177   4.007   5.135  -0.095 -0.0368  0.4442 -1.3550
   67MOL0     H 9178   3.784   4.978  -0.126 -2.0647  2.2703 -0.8679
   67MOL0     H 9179   3.648   4.866   0.283  0.2844  0.5905  0.4860
   67MOL0     H 9180   3.571   4.752   0.181  5.4656 -0.0506  0.3680
   67MOL0     H 9181   3.406   4.871   0.311  0.6746 -4.2131 -1.0263
   67MOL0     H 9182   3.460   5.025   0.234  0.2216  0.5380 -0.3822
   67MOL0     H 9183   3.259   4.953   0.101 -1.6465 -0.7837  0.0091
   67MOL0     H 9184   3.396   4.898   0.008 -3.3584  0.9577 -1.3183
   67MOL0     H 9185   3.351   4.676   0.116  0.3994  0.4895  2.3284
   67MOL0     H 9186   3.208   4.747   0.197  0.3649  2.3938  0.6334
   67MOL0     H 9187   3.112   4.813  -0.026 -1.2703 -0.5227  2.2232
   67MOL0     H 9188   3.118   4.642   0.012  1.0235 -1.0485 -0.8792
   67MOL0     H 9189   3.302   4.791  -0.206  1.0396 -1.6097 -2.4557
   67MOL0     H 9190   3.368   4.651  -0.119  0.6787 -0.0521 -2.2230
   67MOL0     H 9191   3.131   4.693  -0.301 -1.4751  1.6053  2.5259
   67MOL0     H 9192   3.118   4.560  -0.193  0.9325  0.8122  1.2818
   67MOL0     H 9193   3.203   4.486  -0.392 -0.8971  0.2468 -0.9887
   67MOL0     H 9194   3.358   4.571  -0.388  5.1889 -4.3679  3.1173
   67MOL0     H 9195   3.194   4.313  -0.164  0.2124 -1.4180  1.0825
   67MOL0     H 9196   3.482   4.056  -0.105  1.1333  1.1949  1.0617
   67MOL0     H 9197   3.317   4.060  -0.097  0.3723 -0.6707 -1.8224
   67MOL0     H 9198   3.505   4.200   0.103  0.8274 -1.0072 -0.2444
   67MOL0     H 9199   3.329   4.189   0.129  1.5173  2.5742  2.2873
   67MOL0     H 9200   3.389   3.923   0.097 -1.0873  1.0950 -1.5928
   67MOL0     H 9201   3.545   3.965   0.149 -0.5100  0.3141 -1.1223
   67MOL0     H 9202   3.432   4.097   0.348  0.1382 -0.4999 -1.3530
   67MOL0     H 9203   3.278   4.029   0.288  0.5334 -1.0433 -2.8835
   67MOL0     H 9204   3.206   4.020   0.510 -1.6178 -0.6273  1.1585
   67MOL0     H 9205   3.066   4.011   0.681 -1.4905  2.0512  1.3192
   67MOL0     H 9206   2.909   3.941   0.658 -0.2115  0.3323 -1.7706
   67MOL0     H 9207   2.980   4.032   0.523  3.9439  0.6175 -1.6181
   67MOL0     H 9208   2.978   3.289   0.766 -3.2156 -1.9030 -0.5381
   67MOL0     H 9209   2.816   3.204   0.935 -0.8260  0.7248  2.2550
   67MOL0     H 9210   2.515   3.423   1.023 -3.0845 -0.0951  2.5396
   67MOL0     H 9211   2.547   3.254   1.001 -3.7553  1.4189 -2.0501
   67MOL0     H 9212   2.365   3.271   1.158  0.1134 -1.2043  0.3730
   67MOL0     H 9213   2.513   3.204   1.231  0.4372 -1.4232 -3.6416
   67MOL0     H 9214   2.527   3.480   1.274  1.0292 -2.1631 -0.8759
   67MOL0     H 9215   2.484   3.352   1.390  0.6875 -1.4774 -0.7862
   67MOL0     H 9216   2.287   3.505   1.208 -0.6232  1.0710 -0.0657
   67MOL0     H 9217   2.339   3.563   1.368 -0.6547 -0.4606 -0.8218
   67MOL0     H 9218   2.127   3.447   1.373 -0.3171  0.4880  2.9475
   67MOL0     H 9219   2.214   3.300   1.309  2.6624  0.0884  1.5861
   67MOL0     H 9220   2.164   3.345   1.583 -0.3464  0.4211 -0.6664
   67MOL0     H 9221   2.326   3.413   1.565  1.4440 -0.8679 -1.5583
   67MOL0     H 9222   2.350   3.171   1.626 -0.4826  0.1915  0.1102
   67MOL0     H 9223   2.392   3.173   1.463  3.0376 -0.3529  3.0102
   67MOL0     H 9224   2.242   3.012   1.471  4.2239  3.0316  0.2831
   67MOL0     H 9225   2.137   3.135   1.411  1.4123  2.5374  0.0390
   67MOL0     H 9226   2.710   3.624   1.039  0.0320  1.5994 -2.1319
   67MOL0     H 9227   2.870   3.684   0.875 -0.5061 -0.7566  0.4416
   67MOL0     H 9228   3.174   3.520   0.499 -1.2674 -0.1896  0.7174
   67MOL0     H 9229   3.383   3.648   0.417  1.7904  3.1407  1.1596
   67MOL0     H 9230   3.682   5.078   0.282  4.0014  1.1134  3.5076
   67MOL0     H 9231   3.874   5.233   0.285  1.0780  0.8824 -2.1789
   67MOL0     H 9232   4.164   5.495   0.398 -1.8630 -0.9748 -1.7011
   67MOL0     H 9233   4.372   5.598   0.449 -0.6376 -0.7046 -0.5858
   67MOL0     H 9234   4.699   5.540   0.208  1.3194 -0.2584  1.7428
   67MOL0     H 9235   4.682   5.727   0.177  1.5271  2.8739  3.2408
   67MOL0     H 9236   4.774   5.663   0.450  2.1053 -2.8128  0.6634
   67MOL0     H 9237   4.851   5.747   0.308 -0.6799  0.3903  0.4493
   67MOL0     H 9238   4.842   5.446   0.332 -1.6447  0.6551 -1.5958
   67MOL0     H 9239   4.964   5.559   0.242  2.1723  2.5773  2.2048
   67MOL0     H 9240   5.054   5.602   0.475  2.5727 -1.3136  2.4311
   67MOL0     H 9241   5.078   5.437   0.396 -1.3432 -1.3315  1.7133
   67MOL0     H 9242   4.886   5.318   0.740  1.1381 -1.8652 -0.5438
   67MOL0     H 9243   4.524   5.512   0.065  0.9101 -2.2913  1.4063
   67MOL0     H 9244   4.429   5.376  -0.072  1.7127  2.4332  4.4735
   67MOL0     H 9245   4.335   5.256  -0.005 -0.8039  0.6629 -2.1094
   67MOL0     H 9246   4.244   5.386  -0.094  0.3611  1.4231 -2.1963
   68MOL0     O 9247   9.241  11.179   6.236  0.0906 -0.1056 -0.1215
   68MOL0     C 9248   9.260  11.181   6.360 -0.2888 -0.5195  0.6475
   68MOL0     O 9249   9.380  11.161   6.418 -0.4072 -0.5216 -0.0148
   68MOL0     C 9250   9.487  11.151   6.328 -0.5238  0.3688 -0.9780
   68MOL0     C 9251   9.521  11.264   6.255 -0.7838 -0.2109 -0.1135
   68MOL0     C 9252   9.632  11.262   6.173  0.2466 -0.6184 -1.3263
   68MOL0     C 9253   9.723  11.156   6.167  0.3498  0.7517 -0.0326
   68MOL0     O 9254   9.826  11.155   6.079 -0.3993  0.0869  0.4896
   68MOL0     C 9255   9.833  11.043   5.993  0.4073 -0.8525  0.2017
   68MOL0     C 9256   9.949  11.032   5.902 -0.5318 -0.1283 -0.3168
   68MOL0     C 9257  10.071  10.991   5.988 -0.5088 -0.2351  0.0592
   68MOL0     C 9258  10.192  10.989   5.899 -0.1333  0.2453  0.2382
   68MOL0     C 9259  10.297  10.874   5.925 -1.0317 -0.2334 -0.5846
   68MOL0     C 9260  10.406  10.869   5.820 -0.7707 -0.8861  0.3360
   68MOL0     C 9261  10.532  10.822   5.888 -0.1844 -0.1764  0.0719
   68MOL0     C 9262  10.639  10.800   5.782  0.5966  0.2191  0.1972
   68MOL0     N 9263  10.643  10.671   5.710  0.0742  0.8114  0.1463
   68MOL0     C 9264  10.550  10.632   5.616  0.3240  0.8436  0.0753
   68MOL0     C 9265  10.577  10.500   5.588 -0.8316 -1.0551 -0.8647
   68MOL0     C 9266  10.490  10.428   5.487 -0.1697  0.1129  0.0827
   68MOL0     C 9267  10.513  10.469   5.338 -0.2770  0.0307  0.6919
   68MOL0     C 9268  10.669  10.477   5.326  0.6778  0.2323  0.1893
   68MOL0     C 9269  10.701  10.545   5.192 -0.2029  0.0332 -0.6181
   68MOL0     O 9270  10.659  10.464   5.086 -0.7261  0.3765  0.0118
   68MOL0     C 9271  10.685  10.504   4.956 -0.0154 -0.6225  1.2800
   68MOL0     C 9272  10.761  10.610   4.902  0.3016 -0.3625  1.3856
   68MOL0     C 9273  10.778  10.654   4.764  0.1338 -0.4267  0.1500
   68MOL0     C 9274  10.864  10.782   4.742 -1.2498 -0.0147  0.2569
   68MOL0     C 9275  10.704  10.574   4.670 -0.2559  1.1465  0.4153
   68MOL0     C 9276  10.722  10.591   4.519  0.4185 -1.0032 -0.3591
   68MOL0     O 9277  10.699  10.477   4.445  1.1720 -0.2323 -0.3660
   68MOL0     C 9278  10.681  10.487   4.310  0.5702  0.8367 -0.2954
   68MOL0     C 9279  10.610  10.592   4.244 -0.4800  0.2067  0.1972
   68MOL0     C 9280  10.572  10.583   4.110 -0.5866 -0.1278 -0.1259
   68MOL0     C 9281  10.616  10.465   4.040 -0.2113 -1.0062 -0.2638
   68MOL0     O 9282  10.597  10.448   3.906  0.3243  0.3051  0.6162
   68MOL0     C 9283  10.573  10.566   3.830 -0.1357  0.2511  0.2455
   68MOL0     C 9284  10.627  10.560   3.685 -0.5344 -0.2528  0.0334
   68MOL0     C 9285  10.559  10.454   3.596  0.2451  0.0521 -1.0179
   68MOL0     C 9286  10.651  10.434   3.478  0.3200 -0.0334 -0.3594
   68MOL0     C 9287  10.585  10.339   3.381  0.4421 -0.1230 -0.4372
   68MOL0     C 9288  10.632  10.193   3.408 -0.7628  0.1504  0.8816
   68MOL0     C 9289  10.565  10.109   3.296  0.6950 -0.2353 -0.7655
   68MOL0     C 9290  10.581   9.956   3.322  0.6300  0.9220  0.2082
   68MOL0    Cl 9291  10.526   9.869   3.163 -0.0726  0.1200 -0.1490
   68MOL0     C 9292  10.697  10.365   4.095 -0.7122 -0.2205 -0.6418
   68MOL0     C 9293  10.713  10.375   4.232  0.1645  0.1843 -1.3640
   68MOL0     O 9294  10.746  10.703   4.472 -0.3093 -0.1742  0.1781
   68MOL0     C 9295  10.632  10.465   4.720  1.0069 -0.5671  0.0724
   68MOL0     C 9296  10.610  10.440   4.858 -0.4565  0.3532  0.1227
   68MOL0     N 9297  10.686  10.458   5.659 -0.4428 -0.0210  0.6529
   68MOL0     N 9298  10.718  10.558   5.734  0.3138 -0.6345  0.5813
   68MOL0     C 9299   9.682  11.036   6.241 -0.5845 -0.2344  0.2176
   68MOL0     C 9300   9.566  11.031   6.320 -0.3362  0.1144  0.3075
   68MOL0     C 9301   9.142  11.220   6.447  0.5677 -0.2910 -0.4612
   68MOL0     C 9302   9.165  11.251   6.577 -0.4234 -0.4766 -1.1594
   68MOL0     C 9303   9.070  11.310   6.661 -0.1888  0.1743  0.6676
   68MOL0     C 9304   8.937  11.326   6.618  0.2279  0.5279 -0.5582
   68MOL0     O 9305   8.832  11.370   6.695  0.2550  0.4022  0.1777
   68MOL0     C 9306   8.851  11.379   6.838 -0.4617  0.3335 -0.1492
   68MOL0     C 9307   8.708  11.387   6.896  0.1026  1.0474 -0.1211
   68MOL0     C 9308   8.665  11.533   6.887 -0.8001  0.6928 -0.3787
   68MOL0     C 9309   8.519  11.535   6.931  0.4358 -0.2441  0.2091
   68MOL0     C 9310   8.522  11.542   7.070  0.2774 -0.4942  0.0368
   68MOL0     C 9311   8.538  11.559   7.189  0.0385  1.0019  0.2484
   68MOL0     C 9312   8.908  11.276   6.489 -0.5654 -0.6030  0.9109
   68MOL0     C 9313   9.008  11.221   6.403  0.3977  0.7237 -0.1901
   68MOL0     C 9314   8.956  11.170   6.282 -0.2060  0.1222 -0.1762
   68MOL0     H 9315   9.458  11.352   6.260 -0.2472  0.4423 -3.0966
   68MOL0     H 9316   9.671  11.351   6.126 -0.0999 -0.8344 -2.0250
   68MOL0     H 9317   9.742  11.049   5.932  0.6720 -0.6308 -0.1753
   68MOL0     H 9318   9.838  10.948   6.048  1.7785 -0.1973  1.2639
   68MOL0     H 9319   9.932  10.949   5.833  3.0834 -1.7958  0.5050
   68MOL0     H 9320   9.971  11.116   5.835 -0.6636 -0.1851 -0.4291
   68MOL0     H 9321  10.084  11.064   6.069 -0.1480  1.6043 -1.5848
   68MOL0     H 9322  10.055  10.894   6.037  3.3140  0.2568  2.7100
   68MOL0     H 9323  10.168  10.978   5.793  1.7205 -1.0546 -0.1026
   68MOL0     H 9324  10.247  11.083   5.908 -0.0204  0.0656  1.7355
   68MOL0     H 9325  10.251  10.774   5.921  1.6202 -1.6305  1.1818
   68MOL0     H 9326  10.339  10.890   6.024 -0.9510 -3.7045  0.0587
   68MOL0     H 9327  10.386  10.790   5.746 -0.6570 -1.6045  1.0536
   68MOL0     H 9328  10.427  10.970   5.786 -2.8483 -0.9726 -1.4081
   68MOL0     H 9329  10.522  10.727   5.942  0.4431 -0.5109 -0.3910
   68MOL0     H 9330  10.559  10.901   5.959 -4.6561 -0.7025  2.7928
   68MOL0     H 9331  10.644  10.890   5.721 -1.6031  1.7962  2.1745
   68MOL0     H 9332  10.739  10.804   5.826  0.3939 -1.3592  0.8917
   68MOL0     H 9333  10.475  10.689   5.562  0.8532 -0.2698 -1.9596
   68MOL0     H 9334  10.382  10.421   5.505 -0.5483  0.1522 -1.9567
   68MOL0     H 9335  10.532  10.327   5.480 -0.5776 -0.3360  2.7150
   68MOL0     H 9336  10.461  10.406   5.265 -1.7240  1.6551  0.2358
   68MOL0     H 9337  10.467  10.568   5.332  1.4590  0.8213 -0.0113
   68MOL0     H 9338  10.724  10.532   5.404 -0.3224 -1.1065  1.8971
   68MOL0     H 9339  10.712  10.377   5.315  0.9213  0.4430 -0.8941
   68MOL0     H 9340  10.654  10.644   5.184  0.4878  0.3552 -0.8180
   68MOL0     H 9341  10.809  10.560   5.181 -0.2318 -0.1198 -1.1504
   68MOL0     H 9342  10.793  10.680   4.979  0.8367  1.8290 -0.7000
   68MOL0     H 9343  10.969  10.749   4.741 -0.9200  0.8326  2.1317
   68MOL0     H 9344  10.861  10.857   4.822  1.0581 -0.3223  0.7034
   68MOL0     H 9345  10.848  10.820   4.641  0.0463  0.6036  0.2678
   68MOL0     H 9346  10.558  10.666   4.304  0.2144 -0.1764  1.2912
   68MOL0     H 9347  10.520  10.664   4.060 -3.0044 -1.4251  0.1699
   68MOL0     H 9348  10.467  10.595   3.834  0.0738  0.9838  4.2254
   68MOL0     H 9349  10.630  10.654   3.862  1.8957 -1.2662  0.9397
   68MOL0     H 9350  10.606  10.650   3.627  0.5980 -1.4713 -2.4092
   68MOL0     H 9351  10.734  10.537   3.689 -0.2839  0.6444 -1.1103
   68MOL0     H 9352  10.456  10.489   3.583 -0.7670 -0.0540  4.3881
   68MOL0     H 9353  10.559  10.355   3.643  1.2602 -1.5045 -4.0281
   68MOL0     H 9354  10.746  10.388   3.505 -0.4850 -1.1098  0.7601
   68MOL0     H 9355  10.662  10.531   3.428  3.6798  0.3389  0.8495
   68MOL0     H 9356  10.478  10.362   3.371  1.0413  2.4438 -1.9947
   68MOL0     H 9357  10.637  10.346   3.285 -0.6092 -4.2202 -1.5305
   68MOL0     H 9358  10.603  10.155   3.507 -4.0093 -3.2701 -1.1519
   68MOL0     H 9359  10.740  10.202   3.392 -1.0407 -0.0054 -1.3228
   68MOL0     H 9360  10.611  10.149   3.205 -3.0898  3.1922 -1.4197
   68MOL0     H 9361  10.461  10.140   3.294  1.1563  2.0330  2.4979
   68MOL0     H 9362  10.537   9.921   3.416  0.7841  0.2703  0.0445
   68MOL0     H 9363  10.686   9.927   3.328  0.1090 -1.4880 -1.0506
   68MOL0     H 9364  10.732  10.288   4.027 -0.8861  0.1789 -1.1948
   68MOL0     H 9365  10.775  10.301   4.282 -0.8605 -0.4413 -0.9990
   68MOL0     H 9366  10.583  10.398   4.651  2.5161 -2.3450  0.6702
   68MOL0     H 9367  10.552  10.354   4.889  1.4427 -1.6247 -1.4942
   68MOL0     H 9368   9.739  10.943   6.249 -2.6747 -1.6479 -0.4212
   68MOL0     H 9369   9.546  10.943   6.380  2.1433  0.8730  2.4246
   68MOL0     H 9370   9.265  11.242   6.619 -1.5456 -0.6598  1.6925
   68MOL0     H 9371   9.096  11.334   6.764 -3.1639  1.3005  1.2456
   68MOL0     H 9372   8.905  11.293   6.878  2.6680  2.3236  0.2515
   68MOL0     H 9373   8.912  11.468   6.859 -0.0305 -0.0760  0.3526
   68MOL0     H 9374   8.704  11.358   7.001  2.0851 -1.1714 -0.5513
   68MOL0     H 9375   8.641  11.321   6.840  1.3709  1.4621 -2.2567
   68MOL0     H 9376   8.730  11.594   6.952 -0.8259  0.1819  0.1335
   68MOL0     H 9377   8.686  11.570   6.786  1.5243 -4.4261 -2.1303
   68MOL0     H 9378   8.465  11.445   6.899  0.0444  0.2373 -0.5184
   68MOL0     H 9379   8.471  11.626   6.894  2.9801  1.7296  1.4785
   68MOL0     H 9380   8.563  11.593   7.287 -0.1217  2.6064 -0.2386
   68MOL0     H 9381   8.815  11.318   6.451  0.4554  2.3057  1.3369
   68MOL0     H 9382   9.003  11.217   6.195  0.7426  0.2250  0.3779
   68MOL0     H 9383   8.971  11.062   6.278 -1.8666 -0.1033 -1.5039
   68MOL0     H 9384   8.849  11.186   6.270 -0.0608  1.8855  0.5751
   69MOL0     O 9385   2.859   0.359   8.980 -0.3054  0.2918  0.3259
   69MOL0     C 9386   2.869   0.240   8.947  0.5655 -1.5536  0.0811
   69MOL0     O 9387   2.982   0.179   8.910  0.0637  0.1628 -0.7929
   69MOL0     C 9388   3.105   0.243   8.916 -0.6675 -0.4000  0.2628
   69MOL0     C 9389   3.207   0.156   8.951  0.3058 -0.1069 -0.9309
   69MOL0     C 9390   3.338   0.206   8.965  0.3900  0.8332  0.3812
   69MOL0     C 9391   3.379   0.332   8.931  0.1117  0.0306 -0.3247
   69MOL0     O 9392   3.507   0.382   8.925 -0.0746 -0.3134 -0.2063
   69MOL0     C 9393   3.581   0.327   8.813 -0.6075 -0.3642 -0.2850
   69MOL0     C 9394   3.727   0.368   8.824 -0.2364 -0.0727 -0.0443
   69MOL0     C 9395   3.769   0.513   8.799  0.5397 -0.0762 -0.5482
   69MOL0     C 9396   3.916   0.527   8.802 -0.7381 -0.9442  0.5928
   69MOL0     C 9397   3.969   0.673   8.821 -0.3368  0.4781 -0.0204
   69MOL0     C 9398   3.971   0.730   8.961  0.1252  0.1602  0.7398
   69MOL0     C 9399   3.968   0.631   9.081  0.1642 -0.0141  0.5175
   69MOL0     C 9400   3.955   0.713   9.213  0.0133  0.2535  0.1841
   69MOL0     N 9401   3.904   0.635   9.330  0.4970  0.1121  0.3423
   69MOL0     C 9402   3.832   0.697   9.433 -0.5360  0.4922  0.7793
   69MOL0     C 9403   3.827   0.605   9.533 -0.9128 -0.2416  0.3489
   69MOL0     C 9404   3.746   0.616   9.662  0.3202  0.0079  0.0681
   69MOL0     C 9405   3.623   0.518   9.646 -0.5910 -1.2879  0.5475
   69MOL0     C 9406   3.552   0.511   9.779 -0.2187 -0.2758 -0.3664
   69MOL0     C 9407   3.450   0.396   9.776 -0.1446 -0.4379 -0.0214
   69MOL0     O 9408   3.341   0.444   9.695 -0.4343 -0.5219 -0.5039
   69MOL0     C 9409   3.274   0.341   9.642 -0.1852 -0.0916  1.5633
   69MOL0     C 9410   3.226   0.368   9.515  0.6299 -0.5039  0.3984
   69MOL0     C 9411   3.151   0.275   9.436 -0.0491 -0.0778 -0.4604
   69MOL0     C 9412   3.115   0.330   9.301  0.3548  0.4990  0.0481
   69MOL0     C 9413   3.137   0.147   9.484  0.2571  0.6460 -0.1710
   69MOL0     C 9414   3.074   0.036   9.396  0.1486 -0.0286  0.4948
   69MOL0     O 9415   3.013  -0.059   9.457 -0.6735  0.8000 -0.5617
   69MOL0     C 9416   2.945  -0.156   9.374  0.5148 -0.6169  0.3632
   69MOL0     C 9417   2.988  -0.230   9.264  0.9341 -0.3421  0.0441
   69MOL0     C 9418   2.901  -0.333   9.203 -0.5786 -1.0915 -1.0989
   69MOL0     C 9419   2.792  -0.372   9.279  0.0599 -0.6447  0.5277
   69MOL0     O 9420   2.692  -0.462   9.235  0.6440 -0.0128  0.5861
   69MOL0     C 9421   2.678  -0.492   9.093  0.4224  1.0396 -0.8303
   69MOL0     C 9422   2.542  -0.563   9.066 -0.2624 -0.4555 -0.0645
   69MOL0     C 9423   2.515  -0.693   9.141  0.5969 -0.6988  0.6040
   69MOL0     C 9424   2.397  -0.786   9.100 -0.9477  0.3541 -0.2664
   69MOL0     C 9425   2.390  -0.903   9.194 -0.0985 -0.2985 -0.3444
   69MOL0     C 9426   2.526  -0.985   9.202 -0.3750 -0.1169  0.8202
   69MOL0     C 9427   2.504  -1.134   9.218  0.2062  0.3038 -0.0683
   69MOL0     C 9428   2.600  -1.190   9.335  0.0721 -0.5406  0.5097
   69MOL0    Cl 9429   2.541  -1.122   9.486 -0.2517  0.6922  0.2115
   69MOL0     C 9430   2.754  -0.302   9.395  0.2730 -0.1740 -0.1280
   69MOL0     C 9431   2.821  -0.188   9.431  0.2345 -0.2306 -0.1852
   69MOL0     O 9432   3.088   0.042   9.275  0.0789  0.2739  0.3636
   69MOL0     C 9433   3.189   0.116   9.620  0.6844 -0.4409 -0.2524
   69MOL0     C 9434   3.262   0.210   9.690 -0.3682  0.0926  0.3527
   69MOL0     N 9435   3.889   0.489   9.481  0.7087  0.0685 -0.3530
   69MOL0     N 9436   3.941   0.508   9.359  0.1551 -1.0711  0.1621
   69MOL0     C 9437   3.272   0.425   8.902 -1.0554 -0.2353  0.3938
   69MOL0     C 9438   3.142   0.380   8.899  0.5736 -0.6298  0.2195
   69MOL0     C 9439   2.746   0.156   8.938  0.2737  0.1687  0.1582
   69MOL0     C 9440   2.745   0.025   8.996 -0.7951 -0.1426 -0.2760
   69MOL0     C 9441   2.633  -0.061   9.007  0.1825 -1.2098 -0.1944
   69MOL0     C 9442   2.509  -0.017   8.971  0.6192  0.8601  0.0298
   69MOL0     O 9443   2.392  -0.091   8.998 -0.2045 -0.2782 -0.1457
   69MOL0     C 9444   2.262  -0.036   8.979  0.9029 -1.0562 -0.1460
   69MOL0     C 9445   2.161  -0.149   8.967  0.9777 -1.1209 -0.6760
   69MOL0     C 9446   2.016  -0.103   8.930  0.4969  0.2344  0.1083
   69MOL0     C 9447   1.931  -0.041   9.055 -0.1428  0.2503  0.1828
   69MOL0     C 9448   1.906  -0.151   9.146 -0.1352  0.1927  1.3263
   69MOL0     C 9449   1.872  -0.250   9.204 -0.5931  0.3638  0.8593
   69MOL0     C 9450   2.504   0.107   8.911 -0.2117  0.9898 -0.1294
   69MOL0     C 9451   2.615   0.197   8.904 -0.9549 -0.4509  0.0949
   69MOL0     C 9452   2.582   0.337   8.851  0.5379  0.5860 -1.0304
   69MOL0     H 9453   3.185   0.055   8.984  1.0948  0.7774  2.7107
   69MOL0     H 9454   3.412   0.136   9.004  1.1889  0.7603 -1.1855
   69MOL0     H 9455   3.532   0.366   8.723 -1.1864 -0.2772  0.0615
   69MOL0     H 9456   3.560   0.220   8.807  0.5541 -0.5931 -0.4121
   69MOL0     H 9457   3.763   0.344   8.925 -0.5228 -1.0869 -0.1700
   69MOL0     H 9458   3.784   0.308   8.753  0.7564  0.8352 -0.0284
   69MOL0     H 9459   3.714   0.554   8.713 -2.8446 -1.1809  0.9215
   69MOL0     H 9460   3.737   0.566   8.889  4.1254 -0.5932  1.2128
   69MOL0     H 9461   3.963   0.473   8.885 -0.8477 -1.5450  0.2648
   69MOL0     H 9462   3.950   0.502   8.701 -0.9940  0.4003  0.1515
   69MOL0     H 9463   3.906   0.731   8.754 -3.6668 -2.3374  0.3768
   69MOL0     H 9464   4.073   0.672   8.788  0.8683  1.8788  3.2637
   69MOL0     H 9465   4.054   0.797   8.986 -1.5537  2.3970  0.5540
   69MOL0     H 9466   3.878   0.787   8.967 -0.5052 -0.2098 -3.1472
   69MOL0     H 9467   4.058   0.568   9.079  1.5709  1.7810  2.4505
   69MOL0     H 9468   3.886   0.559   9.082 -0.9798  1.2468  2.6686
   69MOL0     H 9469   4.053   0.753   9.241  0.0314  0.3750 -0.0447
   69MOL0     H 9470   3.886   0.797   9.196  2.2655  2.1492 -0.2351
   69MOL0     H 9471   3.785   0.795   9.434  0.2162  0.8895 -0.2458
   69MOL0     H 9472   3.712   0.717   9.686  1.4070  0.1965  0.8974
   69MOL0     H 9473   3.815   0.584   9.741  0.9034 -0.3682 -0.5757
   69MOL0     H 9474   3.548   0.551   9.574 -0.6964 -0.6268  0.9457
   69MOL0     H 9475   3.670   0.421   9.631  0.1481 -0.5740 -2.4215
   69MOL0     H 9476   3.614   0.490   9.867 -1.2109  0.5668  0.5584
   69MOL0     H 9477   3.510   0.608   9.806 -0.4507 -0.9599  1.9300
   69MOL0     H 9478   3.501   0.303   9.751  2.5667  0.7239  0.8013
   69MOL0     H 9479   3.414   0.375   9.877  0.5943 -2.2165 -0.0984
   69MOL0     H 9480   3.234   0.471   9.480 -1.0125  0.8111  3.5370
   69MOL0     H 9481   3.094   0.437   9.310 -5.4542 -0.3941  1.8623
   69MOL0     H 9482   3.023   0.281   9.266  1.8691 -0.5452 -2.7554
   69MOL0     H 9483   3.194   0.302   9.232 -0.6790 -1.0131 -0.5871
   69MOL0     H 9484   3.075  -0.210   9.203 -0.7241  0.9111 -2.0730
   69MOL0     H 9485   2.926  -0.367   9.103  1.5801  0.1879 -1.0618
   69MOL0     H 9486   2.702  -0.400   9.039  2.7017 -0.1267 -1.9565
   69MOL0     H 9487   2.757  -0.562   9.064 -1.0733 -2.8348  3.1616
   69MOL0     H 9488   2.464  -0.488   9.084 -0.1108  0.3409 -2.4373
   69MOL0     H 9489   2.538  -0.579   8.958 -3.6026 -0.8753  0.0032
   69MOL0     H 9490   2.504  -0.663   9.246 -2.7669  1.1748 -0.1316
   69MOL0     H 9491   2.609  -0.746   9.130  2.1699  1.8449  0.9411
   69MOL0     H 9492   2.420  -0.825   9.001  0.0902  1.4104 -0.4654
   69MOL0     H 9493   2.314  -0.715   9.095 -0.1855  1.2087 -1.2614
   69MOL0     H 9494   2.354  -0.877   9.294  3.8525 -2.1711  1.7994
   69MOL0     H 9495   2.310  -0.968   9.157 -2.4589 -0.8180  4.8004
   69MOL0     H 9496   2.581  -0.940   9.285  0.0485  1.1015 -0.0930
   69MOL0     H 9497   2.577  -0.960   9.109 -0.7329 -0.6362  0.4776
   69MOL0     H 9498   2.533  -1.180   9.123  0.6841 -2.1959  1.2167
   69MOL0     H 9499   2.400  -1.158   9.244  0.0616 -0.6448 -1.4368
   69MOL0     H 9500   2.693  -1.142   9.305 -0.6519 -1.4398 -3.7960
   69MOL0     H 9501   2.629  -1.296   9.336  0.4408 -0.4892 -1.2041
   69MOL0     H 9502   2.657  -0.317   9.440  0.0458  2.9887  0.6789
   69MOL0     H 9503   2.775  -0.132   9.513  1.4185 -0.5071  0.6952
   69MOL0     H 9504   3.173   0.017   9.663 -2.8377 -0.2253 -0.7383
   69MOL0     H 9505   3.309   0.177   9.782  0.1757  0.8344  0.3507
   69MOL0     H 9506   3.299   0.530   8.896 -0.5595 -0.4317 -1.3708
   69MOL0     H 9507   3.062   0.449   8.874  1.4200 -0.3449 -1.8605
   69MOL0     H 9508   2.843  -0.001   9.035  1.1668  3.4554 -2.2305
   69MOL0     H 9509   2.630  -0.156   9.060  0.0899 -0.1567  1.7847
   69MOL0     H 9510   2.233   0.007   9.076 -0.7652 -4.0035  0.7877
   69MOL0     H 9511   2.252   0.023   8.887 -0.0218 -0.3131  0.4097
   69MOL0     H 9512   2.161  -0.194   9.067  1.3430  1.2396  0.4537
   69MOL0     H 9513   2.196  -0.224   8.895 -1.9211 -2.9657 -0.3505
   69MOL0     H 9514   2.017  -0.027   8.852  0.5384  1.3527  1.1781
   69MOL0     H 9515   1.969  -0.197   8.899  1.4623  0.6037 -2.8501
   69MOL0     H 9516   1.840   0.008   9.021 -0.5060 -1.9046 -2.2601
   69MOL0     H 9517   1.998   0.023   9.114 -0.3804 -2.4960  3.8256
   69MOL0     H 9518   1.831  -0.344   9.234 -2.3693  0.8241  0.0144
   69MOL0     H 9519   2.408   0.131   8.867  0.8510 -0.2888 -3.5123
   69MOL0     H 9520   2.528   0.395   8.927 -0.1218  1.1694 -1.9085
   69MOL0     H 9521   2.670   0.390   8.814 -0.7872  2.0655 -2.2327
   69MOL0     H 9522   2.514   0.328   8.766  2.7812 -0.5025 -2.8196
   70MOL0     O 9523   0.749   1.603   0.107 -0.3533 -0.0465 -0.2021
   70MOL0     C 9524   0.665   1.640   0.193 -0.8267 -0.8093 -0.7310
   70MOL0     O 9525   0.650   1.585   0.323 -0.7188  0.1819 -0.4378
   70MOL0     C 9526   0.722   1.473   0.350 -0.7379  0.6787 -0.8700
   70MOL0     C 9527   0.658   1.347   0.333  0.2058  0.3400 -1.3011
   70MOL0     C 9528   0.727   1.231   0.352  0.4974  0.2619 -0.1857
   70MOL0     C 9529   0.860   1.236   0.399  0.4342 -1.3734  0.2815
   70MOL0     O 9530   0.915   1.116   0.429 -0.0277 -0.8239  0.5146
   70MOL0     C 9531   1.056   1.109   0.436 -0.2899 -0.4790  0.7057
   70MOL0     C 9532   1.107   0.981   0.367  0.0294 -0.0750  0.4904
   70MOL0     C 9533   1.099   0.988   0.216 -0.7260  0.4755 -0.3170
   70MOL0     C 9534   1.177   0.869   0.163  0.4448  0.0425  0.5092
   70MOL0     C 9535   1.172   0.867   0.006 -0.0331 -0.3151 -0.1088
   70MOL0     C 9536   1.251   0.983  -0.048 -0.0059 -0.4562 -0.4068
   70MOL0     C 9537   1.251   0.984  -0.199  0.2786  0.3487 -0.2761
   70MOL0     C 9538   1.359   0.889  -0.245  0.0779 -0.2187  0.6913
   70MOL0     N 9539   1.383   0.901  -0.387  0.2254  0.2648  0.2743
   70MOL0     C 9540   1.419   0.796  -0.468 -0.3478  0.9889 -0.1301
   70MOL0     C 9541   1.410   0.849  -0.597  0.3277  0.1221 -0.1138
   70MOL0     C 9542   1.466   0.772  -0.714  0.4380 -0.3572  0.0739
   70MOL0     C 9543   1.539   0.871  -0.814  0.0869 -0.3618  0.1515
   70MOL0     C 9544   1.673   0.912  -0.746 -0.9180  0.0938  0.2634
   70MOL0     C 9545   1.756   1.017  -0.828 -0.0115 -0.3910  0.7852
   70MOL0     O 9546   1.788   0.964  -0.962  0.4205 -0.1438  0.3892
   70MOL0     C 9547   1.889   1.019  -1.036  0.6675 -0.2338  0.1257
   70MOL0     C 9548   1.931   1.156  -1.020  1.2634  0.6207  0.4683
   70MOL0     C 9549   2.028   1.204  -1.110  0.2633  0.5921  1.2371
   70MOL0     C 9550   2.072   1.353  -1.083  0.2473 -0.1772 -0.2317
   70MOL0     C 9551   2.070   1.128  -1.222  0.8189  0.4115 -0.5330
   70MOL0     C 9552   2.162   1.166  -1.325  0.3795 -0.1734  1.2699
   70MOL0     O 9553   2.197   1.066  -1.421 -0.7277  0.5633  0.1190
   70MOL0     C 9554   2.297   1.106  -1.507  0.2677  0.3908 -0.0564
   70MOL0     C 9555   2.429   1.085  -1.470  0.0993 -0.5699  0.0458
   70MOL0     C 9556   2.535   1.114  -1.555  0.0786  0.0451 -0.2699
   70MOL0     C 9557   2.512   1.148  -1.693 -0.1526  0.0148  0.1499
   70MOL0     O 9558   2.604   1.149  -1.792 -0.5155 -0.0254  0.1499
   70MOL0     C 9559   2.724   1.086  -1.759  0.7687 -0.1625 -0.5559
   70MOL0     C 9560   2.803   1.066  -1.881 -0.3214 -0.4499 -0.4875
   70MOL0     C 9561   2.948   1.023  -1.847 -0.1528  0.1911  0.1023
   70MOL0     C 9562   3.020   0.968  -1.973 -0.1095  0.2925 -0.3324
   70MOL0     C 9563   3.164   0.945  -1.942  0.0866  0.4442  0.2053
   70MOL0     C 9564   3.230   0.833  -2.018  0.0281 -0.4537  0.0173
   70MOL0     C 9565   3.272   0.867  -2.166 -0.4244 -0.3156  0.8016
   70MOL0     C 9566   3.393   0.963  -2.182 -0.2793 -0.3703 -0.1603
   70MOL0    Cl 9567   3.522   0.911  -2.073 -0.2115 -0.0713 -0.0681
   70MOL0     C 9568   2.375   1.183  -1.725 -0.6318  0.2151  0.1776
   70MOL0     C 9569   2.268   1.149  -1.632 -0.6610  0.6041  0.8939
   70MOL0     O 9570   2.190   1.279  -1.335 -0.1640  0.2188  0.3777
   70MOL0     C 9571   2.033   0.992  -1.226  0.1606 -0.2214  1.0180
   70MOL0     C 9572   1.944   0.942  -1.133 -0.2888  0.8061  0.9070
   70MOL0     N 9573   1.367   0.980  -0.583 -0.9950 -0.1988 -0.0032
   70MOL0     N 9574   1.350   1.003  -0.463 -0.6137  0.3070 -1.0024
   70MOL0     C 9575   0.925   1.363   0.414  0.8694 -0.0646 -0.3939
   70MOL0     C 9576   0.855   1.483   0.391  0.3566  0.2084  0.7659
   70MOL0     C 9577   0.572   1.759   0.153  0.7840  1.6041  0.2659
   70MOL0     C 9578   0.505   1.818   0.259 -0.0733 -0.1519 -0.6541
   70MOL0     C 9579   0.431   1.935   0.250  0.8361  1.5895 -0.7410
   70MOL0     C 9580   0.406   1.989   0.123 -0.0135 -0.2291 -0.0172
   70MOL0     O 9581   0.329   2.102   0.101  0.3907 -0.5107 -0.5350
   70MOL0     C 9582   0.204   2.114   0.157  0.2067  0.3189 -0.2359
   70MOL0     C 9583   0.104   2.213   0.087 -0.2142  0.0767 -0.1513
   70MOL0     C 9584  -0.014   2.259   0.190  0.9624  0.5266 -0.5021
   70MOL0     C 9585  -0.133   2.338   0.128 -0.2116 -0.7969 -0.0620
   70MOL0     C 9586  -0.224   2.230   0.089 -0.3767  0.1784  0.1437
   70MOL0     C 9587  -0.277   2.130   0.070  0.0011 -0.6959 -0.6815
   70MOL0     C 9588   0.460   1.919   0.020  0.3366  0.1321  0.7829
   70MOL0     C 9589   0.540   1.806   0.027  0.7056  0.3953 -0.7454
   70MOL0     C 9590   0.572   1.737  -0.101 -0.2171 -0.1871 -0.0898
   70MOL0     H 9591   0.553   1.341   0.308  0.1671 -0.2733 -1.0143
   70MOL0     H 9592   0.683   1.136   0.323 -0.8773 -0.6688  4.1351
   70MOL0     H 9593   1.077   1.120   0.543 -2.7767  3.8848  0.9655
   70MOL0     H 9594   1.116   1.189   0.393  1.3953 -0.9964  2.0032
   70MOL0     H 9595   1.206   0.959   0.411  0.2542  0.8605  0.4780
   70MOL0     H 9596   1.035   0.908   0.405  1.0276  0.0219  2.8086
   70MOL0     H 9597   0.999   0.996   0.171 -1.7224  3.9318  2.1624
   70MOL0     H 9598   1.158   1.078   0.197 -1.3164  0.7467 -0.9354
   70MOL0     H 9599   1.272   0.856   0.215  0.5467  0.5132  0.4464
   70MOL0     H 9600   1.122   0.777   0.186 -2.8767  1.6896 -0.2115
   70MOL0     H 9601   1.070   0.868  -0.032 -0.1924  1.5032  0.2914
   70MOL0     H 9602   1.202   0.767  -0.026  1.2387 -0.3485  1.0932
   70MOL0     H 9603   1.196   1.076  -0.027  1.5002  0.7419 -1.5643
   70MOL0     H 9604   1.353   0.986  -0.009 -0.6954 -0.0142  1.4797
   70MOL0     H 9605   1.274   1.087  -0.229  2.2875 -0.8440 -3.1357
   70MOL0     H 9606   1.152   0.968  -0.243  0.3445  1.1524 -0.7337
   70MOL0     H 9607   1.455   0.907  -0.198  0.8423 -0.8508 -0.5647
   70MOL0     H 9608   1.323   0.787  -0.223 -3.4294  0.8988  0.8306
   70MOL0     H 9609   1.450   0.695  -0.441 -1.4844  0.6046 -0.2270
   70MOL0     H 9610   1.375   0.732  -0.759 -0.3503 -0.4321  1.6432
   70MOL0     H 9611   1.536   0.693  -0.683  0.1528  0.1305  2.1037
   70MOL0     H 9612   1.561   0.810  -0.902  1.6363  1.3434 -0.7241
   70MOL0     H 9613   1.486   0.960  -0.848  0.9425 -0.7412 -2.3542
   70MOL0     H 9614   1.651   0.941  -0.643  0.8902  3.5965 -0.1780
   70MOL0     H 9615   1.738   0.823  -0.750 -1.7038 -0.4996  0.4891
   70MOL0     H 9616   1.686   1.096  -0.857  1.5681 -0.4754 -4.0177
   70MOL0     H 9617   1.846   1.061  -0.783 -0.0256  0.8429 -0.3254
   70MOL0     H 9618   1.887   1.217  -0.942 -0.8561  0.6786 -0.7010
   70MOL0     H 9619   2.061   1.371  -0.975 -2.8491 -1.8895 -0.1570
   70MOL0     H 9620   2.008   1.423  -1.137  0.8847  0.3249 -0.3455
   70MOL0     H 9621   2.178   1.374  -1.100  0.7141 -1.2399  1.1843
   70MOL0     H 9622   2.435   1.048  -1.369 -0.9796 -0.1641  0.2715
   70MOL0     H 9623   2.634   1.095  -1.515  0.0093 -1.1212 -0.6058
   70MOL0     H 9624   2.771   1.155  -1.688 -1.4044  1.0323 -0.1761
   70MOL0     H 9625   2.703   0.988  -1.715 -3.9022  1.4537  1.4469
   70MOL0     H 9626   2.753   1.000  -1.952  0.4718 -2.7921  0.9985
   70MOL0     H 9627   2.822   1.159  -1.936  0.9964 -0.1587  0.4061
   70MOL0     H 9628   2.948   0.929  -1.791 -0.6501 -0.0469 -0.2895
   70MOL0     H 9629   3.000   1.106  -1.798  0.6234 -1.9586  3.1548
   70MOL0     H 9630   3.006   1.034  -2.059 -2.1943  1.5364  0.8914
   70MOL0     H 9631   2.984   0.868  -1.998 -2.0479  0.7548  0.4225
   70MOL0     H 9632   3.207   1.045  -1.956 -1.1325  0.9921  0.3173
   70MOL0     H 9633   3.163   0.924  -1.835 -2.2648 -3.0686 -0.3705
   70MOL0     H 9634   3.157   0.753  -2.032  1.9836 -2.1386 -1.2251
   70MOL0     H 9635   3.320   0.787  -1.976  0.7659  0.8908 -0.0593
   70MOL0     H 9636   3.194   0.915  -2.226  1.2895  1.7816  0.1162
   70MOL0     H 9637   3.306   0.774  -2.211  0.2131  1.2411 -2.2458
   70MOL0     H 9638   3.375   1.069  -2.166  2.7794  0.1767  0.1797
   70MOL0     H 9639   3.433   0.959  -2.284  0.1369  0.2248 -0.0198
   70MOL0     H 9640   2.349   1.220  -1.823  0.4113  1.5460  0.3735
   70MOL0     H 9641   2.163   1.153  -1.657 -0.2596  1.5610 -0.8075
   70MOL0     H 9642   2.051   0.921  -1.307  0.8339  1.5935 -0.4974
   70MOL0     H 9643   1.929   0.834  -1.140  2.6401  0.4176 -1.1796
   70MOL0     H 9644   1.023   1.371   0.459  0.3644  0.8254  0.6066
   70MOL0     H 9645   0.897   1.583   0.399 -0.2132  0.5533 -0.3645
   70MOL0     H 9646   0.510   1.779   0.360 -4.4992 -1.3854 -0.7004
   70MOL0     H 9647   0.389   1.971   0.343  3.4687  2.2652  0.2545
   70MOL0     H 9648   0.163   2.013   0.163 -0.5514  0.6428  0.1592
   70MOL0     H 9649   0.214   2.154   0.258 -0.0814 -2.0569  0.7904
   70MOL0     H 9650   0.070   2.162  -0.003  0.5820 -3.7033  1.5026
   70MOL0     H 9651   0.146   2.308   0.052  1.3766  1.1152  4.0060
   70MOL0     H 9652  -0.046   2.181   0.259  2.1722  1.1849  0.8626
   70MOL0     H 9653   0.047   2.322   0.256  4.5699 -0.4889 -2.5764
   70MOL0     H 9654  -0.107   2.403   0.044 -1.9639 -0.0369 -0.0470
   70MOL0     H 9655  -0.175   2.402   0.206  2.1327 -0.8709  1.3694
   70MOL0     H 9656  -0.342   2.044   0.067 -2.7730  1.2472 -0.0265
   70MOL0     H 9657   0.434   1.958  -0.078 -4.9589  1.3787  2.3670
   70MOL0     H 9658   0.529   1.636  -0.094 -1.4677  0.2328 -1.2931
   70MOL0     H 9659   0.530   1.775  -0.195 -0.4847  0.4821  0.2977
   70MOL0     H 9660   0.680   1.718  -0.108 -0.0673  0.3232  0.7237
   71MOL0     O 9661   7.473   4.108  10.956 -0.2030  0.3224 -0.1171
   71MOL0     C 9662   7.451   4.085  10.835 -0.0752  1.1285  0.5145
   71MOL0     O 9663   7.536   4.016  10.743 -0.7011 -0.2034 -0.5219
   71MOL0     C 9664   7.666   3.989  10.783 -0.4602 -0.2550  0.5471
   71MOL0     C 9665   7.719   3.967  10.914  0.2942 -0.2454 -0.0738
   71MOL0     C 9666   7.851   3.933  10.941 -0.8821  1.1915 -0.0967
   71MOL0     C 9667   7.945   3.927  10.843 -0.6149 -0.5334 -0.6029
   71MOL0     O 9668   8.077   3.901  10.874  0.0485 -0.6216 -0.3468
   71MOL0     C 9669   8.166   3.894  10.764 -0.1611  0.4922 -0.0365
   71MOL0     C 9670   8.312   3.877  10.818 -0.8996  0.2271 -0.3251
   71MOL0     C 9671   8.349   3.742  10.848  0.3679  0.9478  0.2284
   71MOL0     C 9672   8.497   3.727  10.874  0.3359  0.6902  0.0796
   71MOL0     C 9673   8.538   3.574  10.863 -0.6587  0.5041 -0.2011
   71MOL0     C 9674   8.453   3.489  10.965  0.4197 -0.9220  0.8550
   71MOL0     C 9675   8.461   3.540  11.113  0.7683 -0.6390 -0.5805
   71MOL0     C 9676   8.380   3.454  11.210 -0.8094 -0.3746  0.0109
   71MOL0     N 9677   8.237   3.459  11.201 -0.9916  0.0914  0.0945
   71MOL0     C 9678   8.157   3.568  11.208  0.0915 -0.6019  0.6149
   71MOL0     C 9679   8.035   3.520  11.229 -0.6460  0.4279  0.2904
   71MOL0     C 9680   7.913   3.602  11.249 -0.0761 -1.4052  0.3667
   71MOL0     C 9681   7.947   3.696  11.364 -0.2054 -0.6283  0.8916
   71MOL0     C 9682   7.824   3.765  11.418 -0.5616  0.1333  0.6694
   71MOL0     C 9683   7.857   3.878  11.520 -0.5566 -0.1569  0.3824
   71MOL0     O 9684   7.961   3.966  11.455  0.0956 -0.0585 -0.3453
   71MOL0     C 9685   7.921   4.086  11.404  0.3557 -0.4589  0.3394
   71MOL0     C 9686   7.814   4.095  11.316  0.6528  0.0849 -0.0228
   71MOL0     C 9687   7.774   4.215  11.248 -0.6123  0.1310  0.2724
   71MOL0     C 9688   7.663   4.230  11.149 -0.5987  0.5762 -0.2715
   71MOL0     C 9689   7.850   4.328  11.277 -1.3705 -0.4811  0.1732
   71MOL0     C 9690   7.843   4.461  11.226 -0.5752  0.7653  0.9854
   71MOL0     O 9691   7.844   4.574  11.307  0.3990  0.5548 -0.0790
   71MOL0     C 9692   7.793   4.686  11.246  0.2682 -0.1839  0.3050
   71MOL0     C 9693   7.694   4.756  11.308  0.1694  0.7527 -0.1594
   71MOL0     C 9694   7.653   4.875  11.255 -0.3873 -0.4260 -0.3668
   71MOL0     C 9695   7.708   4.932  11.140 -0.1486 -0.6181 -0.3144
   71MOL0     O 9696   7.672   5.062  11.113  1.1848 -0.3140  0.2190
   71MOL0     C 9697   7.684   5.102  10.978 -1.1386  0.0466  0.0939
   71MOL0     C 9698   7.628   5.237  10.975 -0.8129  0.3385  0.9078
   71MOL0     C 9699   7.495   5.261  11.047  0.2086 -0.3320  0.6418
   71MOL0     C 9700   7.435   5.388  10.989  0.3482 -1.0518  0.1955
   71MOL0     C 9701   7.297   5.405  11.041  0.8515  0.2766 -0.0655
   71MOL0     C 9702   7.192   5.326  10.957 -0.3036  0.5352 -0.3612
   71MOL0     C 9703   7.077   5.291  11.042  0.6587 -1.0105  0.3474
   71MOL0     C 9704   6.993   5.407  11.104 -0.4569 -0.5478 -0.5067
   71MOL0    Cl 9705   6.828   5.339  11.142 -0.0014 -0.2216  0.1836
   71MOL0     C 9706   7.813   4.863  11.077 -0.0168 -0.4708  0.8587
   71MOL0     C 9707   7.856   4.740  11.134 -0.3467  0.3725 -0.1220
   71MOL0     O 9708   7.801   4.463  11.107  0.1279  0.1122 -0.0034
   71MOL0     C 9709   7.951   4.322  11.371  0.0404  0.9942 -0.3754
   71MOL0     C 9710   7.988   4.203  11.442 -0.2629  0.3690 -0.3625
   71MOL0     N 9711   8.031   3.382  11.226  0.0710 -0.1037  0.7175
   71MOL0     N 9712   8.152   3.348  11.213 -0.0496  0.1128 -0.0864
   71MOL0     C 9713   7.901   3.930  10.703 -0.3018 -0.2630  0.2573
   71MOL0     C 9714   7.763   3.976  10.684  0.0220  1.0322  0.2456
   71MOL0     C 9715   7.322   4.113  10.757 -0.0438  0.2260  0.3261
   71MOL0     C 9716   7.299   4.051  10.636  0.2016 -0.0003  0.1052
   71MOL0     C 9717   7.175   4.085  10.573 -0.9632  0.3090 -0.9084
   71MOL0     C 9718   7.082   4.177  10.623  0.2116 -0.5660  0.8954
   71MOL0     O 9719   6.973   4.211  10.546  0.2087 -0.1766  0.7195
   71MOL0     C 9720   7.007   4.277  10.428  0.5422 -0.3150  0.6150
   71MOL0     C 9721   6.885   4.319  10.358 -0.1103 -0.6213  0.5837
   71MOL0     C 9722   6.786   4.412  10.426  0.2748  0.1489  0.0327
   71MOL0     C 9723   6.818   4.565  10.434 -0.6626 -1.2728 -0.5067
   71MOL0     C 9724   6.897   4.603  10.551  1.3980 -0.2572 -0.2354
   71MOL0     C 9725   6.972   4.626  10.648 -0.0800 -0.3062  0.3681
   71MOL0     C 9726   7.111   4.245  10.735  0.5304  0.0574  0.1347
   71MOL0     C 9727   7.231   4.216  10.806  0.0829 -0.3813  0.0342
   71MOL0     C 9728   7.266   4.321  10.914  0.0603  0.5882 -0.5976
   71MOL0     H 9729   7.654   3.967  11.002 -0.8533 -2.5099 -0.8397
   71MOL0     H 9730   7.884   3.910  11.042  3.1085  0.0275 -1.4738
   71MOL0     H 9731   8.157   3.982  10.700 -2.5993  0.5078  0.2446
   71MOL0     H 9732   8.142   3.811  10.696  2.6341 -2.2391  2.0100
   71MOL0     H 9733   8.362   3.908  10.726  2.0970 -1.2561  0.6639
   71MOL0     H 9734   8.338   3.927  10.911  2.8467  0.4803 -1.3327
   71MOL0     H 9735   8.285   3.705  10.928 -0.9450  1.9663 -0.3205
   71MOL0     H 9736   8.332   3.679  10.761 -0.2216  1.2751  0.1021
   71MOL0     H 9737   8.556   3.791  10.807 -0.0030  1.0545  0.1203
   71MOL0     H 9738   8.514   3.757  10.978  1.5919  4.2866 -0.9903
   71MOL0     H 9739   8.646   3.581  10.880  0.0134  2.1107 -4.1120
   71MOL0     H 9740   8.528   3.538  10.760  0.9583  0.0881 -0.2540
   71MOL0     H 9741   8.350   3.497  10.929 -0.2139 -2.3733  2.2257
   71MOL0     H 9742   8.478   3.383  10.958  1.4440 -0.6023 -0.8760
   71MOL0     H 9743   8.419   3.640  11.124  0.9763 -0.6793  0.7920
   71MOL0     H 9744   8.564   3.553  11.148  1.2402 -2.8018 -0.9898
   71MOL0     H 9745   8.419   3.353  11.201  0.7024  0.2096 -0.4174
   71MOL0     H 9746   8.397   3.485  11.313  0.8759  0.1117 -0.3780
   71MOL0     H 9747   8.169   3.676  11.211 -0.3064 -0.5597  0.7995
   71MOL0     H 9748   7.829   3.535  11.273  1.0611 -2.0495  2.8229
   71MOL0     H 9749   7.891   3.663  11.162  2.6331  2.1519  1.9436
   71MOL0     H 9750   8.000   3.636  11.438  1.5278  2.1188  2.0268
   71MOL0     H 9751   8.023   3.764  11.326  0.2741 -2.4873 -1.7440
   71MOL0     H 9752   7.766   3.809  11.337 -1.7754  1.3352  2.1158
   71MOL0     H 9753   7.766   3.687  11.467  0.0260 -0.4596  0.4368
   71MOL0     H 9754   7.767   3.936  11.541  0.2708  0.9241  1.0047
   71MOL0     H 9755   7.896   3.837  11.614 -0.5215 -3.2865 -0.8684
   71MOL0     H 9756   7.740   4.016  11.308  0.1175  0.2369  2.6003
   71MOL0     H 9757   7.687   4.247  11.044  0.7701 -0.4822 -0.1510
   71MOL0     H 9758   7.597   4.311  11.184 -1.7119 -0.6778  0.6016
   71MOL0     H 9759   7.604   4.138  11.151  0.0751  0.0421 -2.4452
   71MOL0     H 9760   7.652   4.724  11.402 -0.6523  0.8025 -0.5027
   71MOL0     H 9761   7.587   4.933  11.318 -2.5151 -2.4382 -0.5878
   71MOL0     H 9762   7.790   5.110  10.949 -1.3320 -1.3505 -1.1225
   71MOL0     H 9763   7.635   5.040  10.903 -1.9389  1.9904 -1.0708
   71MOL0     H 9764   7.700   5.303  11.024  0.1792 -0.9982  1.2893
   71MOL0     H 9765   7.625   5.251  10.867  0.8730  0.3227  0.8424
   71MOL0     H 9766   7.500   5.286  11.153 -2.1209 -2.2014  1.2716
   71MOL0     H 9767   7.428   5.175  11.033  0.3643 -0.6196  1.6044
   71MOL0     H 9768   7.437   5.389  10.880  3.5303 -3.4553  0.0881
   71MOL0     H 9769   7.488   5.481  11.010 -2.5980  0.4900  1.5042
   71MOL0     H 9770   7.286   5.383  11.147  0.8797  1.9918  0.3050
   71MOL0     H 9771   7.277   5.510  11.021  1.4170  0.6597  1.3226
   71MOL0     H 9772   7.225   5.231  10.916 -1.8540 -0.5880  0.8912
   71MOL0     H 9773   7.147   5.390  10.881 -2.1615 -0.9216 -0.5404
   71MOL0     H 9774   7.127   5.230  11.118 -1.0293 -3.8574 -0.6282
   71MOL0     H 9775   7.011   5.216  10.996 -0.0799  0.1698 -0.5510
   71MOL0     H 9776   6.993   5.493  11.036  4.1226 -1.2395 -1.6835
   71MOL0     H 9777   7.040   5.432  11.199  0.2715  0.2112 -1.0565
   71MOL0     H 9778   7.884   4.912  11.011  0.3489 -1.1446  0.7415
   71MOL0     H 9779   7.953   4.698  11.110 -0.5702 -2.8027  3.5334
   71MOL0     H 9780   8.000   4.412  11.407 -1.1741  0.6627  2.3451
   71MOL0     H 9781   8.052   4.191  11.530 -0.1417  0.6871 -0.4062
   71MOL0     H 9782   7.952   3.909  10.610  0.3123  1.1019  0.2788
   71MOL0     H 9783   7.737   3.989  10.579 -0.0146 -0.2379  0.0880
   71MOL0     H 9784   7.367   3.988  10.579  2.0357  2.3910 -0.5416
   71MOL0     H 9785   7.151   4.042  10.476 -2.8329  1.0687 -0.8139
   71MOL0     H 9786   7.058   4.371  10.452  1.1990 -0.9080  1.5787
   71MOL0     H 9787   7.053   4.220  10.347  0.5669  2.0542 -1.1465
   71MOL0     H 9788   6.826   4.232  10.330  0.3499 -0.3999 -1.2313
   71MOL0     H 9789   6.917   4.374  10.269  3.8003 -0.5756  1.7958
   71MOL0     H 9790   6.689   4.408  10.375 -1.2662  1.5490  2.6215
   71MOL0     H 9791   6.762   4.378  10.527  0.1621  0.9624  0.2948
   71MOL0     H 9792   6.729   4.628  10.425  0.1348  0.0855  0.7807
   71MOL0     H 9793   6.890   4.583  10.354 -2.3809 -0.3100 -1.9292
   71MOL0     H 9794   7.020   4.643  10.742 -0.4865 -3.3659  1.2237
   71MOL0     H 9795   7.038   4.320  10.763  0.5415 -0.1910  0.8600
   71MOL0     H 9796   7.369   4.356  10.903  0.5248  0.2540  2.0772
   71MOL0     H 9797   7.201   4.407  10.929  0.8160  0.7143  2.9811
   71MOL0     H 9798   7.266   4.260  11.005  0.4853  0.3022 -0.7807
   72MOL0     O 9799   2.624   2.643   2.575  0.6438 -0.0073 -0.9042
   72MOL0     C 9800   2.679   2.558   2.643 -0.9274  0.2801 -0.0860
   72MOL0     O 9801   2.815   2.536   2.641 -0.2663 -0.5253  0.5609
   72MOL0     C 9802   2.883   2.602   2.537  0.0801 -0.6104 -0.5603
   72MOL0     C 9803   2.930   2.735   2.544  0.4528 -1.0805 -0.1191
   72MOL0     C 9804   3.019   2.796   2.451 -0.5566  0.3213 -0.0779
   72MOL0     C 9805   3.064   2.717   2.348  1.1454  0.8085 -0.0836
   72MOL0     O 9806   3.137   2.746   2.234  0.4718  0.4192  0.7192
   72MOL0     C 9807   3.157   2.889   2.208 -0.2939  0.0551 -0.0636
   72MOL0     C 9808   3.215   2.912   2.062 -0.5327  0.4098  0.4694
   72MOL0     C 9809   3.366   2.889   2.064  0.0862 -0.7782  1.3388
   72MOL0     C 9810   3.402   2.744   2.082 -0.2633  0.6937  0.1701
   72MOL0     C 9811   3.549   2.704   2.048 -0.2486 -0.7255 -0.3344
   72MOL0     C 9812   3.634   2.762   2.157 -0.6269  1.1498 -0.0234
   72MOL0     C 9813   3.787   2.735   2.129 -0.3973  0.1536 -0.1630
   72MOL0     C 9814   3.834   2.582   2.128  0.9616 -1.0542 -0.2825
   72MOL0     N 9815   3.976   2.579   2.082 -0.5890  0.6090 -1.0495
   72MOL0     C 9816   4.085   2.594   2.161 -0.2041 -0.2277  0.3186
   72MOL0     C 9817   4.198   2.594   2.084 -0.0075 -0.9286  1.5947
   72MOL0     C 9818   4.337   2.638   2.132 -0.1844 -0.0675 -0.4442
   72MOL0     C 9819   4.336   2.790   2.157  0.5273 -0.2426 -0.8234
   72MOL0     C 9820   4.467   2.833   2.236  0.3026 -0.1827  0.3514
   72MOL0     C 9821   4.470   2.986   2.253 -0.2606 -0.4419 -0.1429
   72MOL0     O 9822   4.355   3.041   2.325  1.1767  0.2079 -0.0477
   72MOL0     C 9823   4.373   3.143   2.408 -0.7107 -0.9463 -0.0874
   72MOL0     C 9824   4.289   3.135   2.517  0.1974  0.1253  1.0329
   72MOL0     C 9825   4.296   3.237   2.605  0.2290 -0.4799  0.2418
   72MOL0     C 9826   4.209   3.235   2.728 -0.6290 -0.6916 -1.0270
   72MOL0     C 9827   4.367   3.355   2.585  0.6191  0.4063 -0.1953
   72MOL0     C 9828   4.372   3.467   2.677 -0.5370  0.2398 -0.3087
   72MOL0     O 9829   4.389   3.585   2.623 -0.2994  0.3812  0.7862
   72MOL0     C 9830   4.400   3.690   2.704  1.0030  0.0119  0.1366
   72MOL0     C 9831   4.314   3.719   2.804  0.6284 -0.6532 -0.3344
   72MOL0     C 9832   4.309   3.843   2.880  0.1163  1.1492 -0.8042
   72MOL0     C 9833   4.389   3.945   2.841 -0.0563 -0.1579 -0.2707
   72MOL0     O 9834   4.375   4.061   2.923 -1.0263  0.2420 -0.2400
   72MOL0     C 9835   4.462   4.167   2.891 -0.1843 -0.4605 -0.2203
   72MOL0     C 9836   4.607   4.144   2.940 -0.4737 -0.3527 -0.1211
   72MOL0     C 9837   4.597   4.118   3.096 -0.6832  0.5168 -0.6540
   72MOL0     C 9838   4.726   4.112   3.157  0.8098 -0.2485  0.5797
   72MOL0     C 9839   4.712   4.071   3.304  0.4222  0.1711 -0.7044
   72MOL0     C 9840   4.647   4.172   3.398  0.3767 -0.3990  0.0970
   72MOL0     C 9841   4.650   4.126   3.546 -0.5181  0.6997  0.5409
   72MOL0     C 9842   4.586   4.214   3.663  0.4579  0.1026  0.0109
   72MOL0    Cl 9843   4.622   4.395   3.654 -0.0971  0.2561 -0.4170
   72MOL0     C 9844   4.485   3.917   2.737  0.6110  0.0544 -0.6475
   72MOL0     C 9845   4.491   3.785   2.667 -1.3600 -1.4632  0.9116
   72MOL0     O 9846   4.378   3.449   2.806  0.2502 -0.6283  1.0513
   72MOL0     C 9847   4.456   3.364   2.478 -1.2024  0.5302  0.9525
   72MOL0     C 9848   4.458   3.256   2.385  0.0033  0.7363 -0.7276
   72MOL0     N 9849   4.158   2.590   1.956 -0.4628 -0.5331  0.6235
   72MOL0     N 9850   4.028   2.573   1.960  0.5478 -0.0046  0.2527
   72MOL0     C 9851   3.016   2.586   2.334  0.3350 -0.2818  0.1587
   72MOL0     C 9852   2.920   2.532   2.426 -0.1125  0.5233  0.2992
   72MOL0     C 9853   2.588   2.461   2.708 -0.6350 -0.3811 -0.4858
   72MOL0     C 9854   2.642   2.392   2.816  0.0813 -0.3655 -0.5126
   72MOL0     C 9855   2.579   2.297   2.895  0.6278  0.8472  0.0362
   72MOL0     C 9856   2.444   2.262   2.858 -0.3843 -0.1232  0.2285
   72MOL0     O 9857   2.383   2.164   2.936  0.9678 -0.5681  0.1841
   72MOL0     C 9858   2.244   2.138   2.915  0.1195  0.7224 -1.0912
   72MOL0     C 9859   2.198   2.026   3.005  0.2074  0.3464 -0.6259
   72MOL0     C 9860   2.230   2.031   3.148 -0.3575  0.3356 -0.1460
   72MOL0     C 9861   2.201   2.170   3.217  0.0612 -0.2680 -0.7104
   72MOL0     C 9862   2.054   2.195   3.231 -0.9988 -0.3434  0.5876
   72MOL0     C 9863   1.932   2.203   3.216  0.3390 -0.1297 -0.1246
   72MOL0     C 9864   2.390   2.315   2.738 -0.3784 -1.0358  0.0593
   72MOL0     C 9865   2.455   2.416   2.665  0.2509  0.5415  0.3972
   72MOL0     C 9866   2.378   2.482   2.555 -0.6342 -0.0299  0.4957
   72MOL0     H 9867   2.887   2.794   2.624  1.7548 -0.9200  0.4867
   72MOL0     H 9868   3.051   2.899   2.460 -3.0797  1.1845 -0.2501
   72MOL0     H 9869   3.227   2.921   2.286 -1.0362  0.9976  0.2411
   72MOL0     H 9870   3.065   2.948   2.215 -2.1635 -1.4106 -6.0766
   72MOL0     H 9871   3.158   2.859   1.985 -1.2628  0.2917  1.0781
   72MOL0     H 9872   3.200   3.016   2.032 -1.2179 -0.0151 -0.7242
   72MOL0     H 9873   3.422   2.922   1.977  0.4445  0.0957  1.8915
   72MOL0     H 9874   3.404   2.951   2.145  1.1101 -0.8846  0.9560
   72MOL0     H 9875   3.379   2.726   2.188  3.4378  3.4806  1.6735
   72MOL0     H 9876   3.332   2.688   2.020 -1.3565  2.6514 -0.4419
   72MOL0     H 9877   3.571   2.747   1.950 -0.7641 -1.7927 -0.9316
   72MOL0     H 9878   3.554   2.595   2.055 -4.9834 -1.1106  0.2403
   72MOL0     H 9879   3.618   2.870   2.165 -0.4079  1.0947  1.2656
   72MOL0     H 9880   3.608   2.726   2.257 -4.0528 -0.1872 -1.2350
   72MOL0     H 9881   3.856   2.787   2.195  2.2509 -2.2584 -0.8566
   72MOL0     H 9882   3.817   2.788   2.038 -0.8894  2.0722  0.7183
   72MOL0     H 9883   3.827   2.537   2.227  2.0101 -1.6356 -0.4545
   72MOL0     H 9884   3.770   2.527   2.059  0.0225 -1.6682  1.0358
   72MOL0     H 9885   4.091   2.609   2.269  0.9619  2.0030 -0.0110
   72MOL0     H 9886   4.416   2.607   2.063  0.8117 -1.6610  1.3482
   72MOL0     H 9887   4.361   2.571   2.214 -1.1088 -2.2774 -1.8899
   72MOL0     H 9888   4.316   2.855   2.072  0.4218  2.6777  1.2699
   72MOL0     H 9889   4.253   2.806   2.226  1.1940 -0.5852  0.0790
   72MOL0     H 9890   4.449   2.796   2.337 -1.3811  1.7485  0.8192
   72MOL0     H 9891   4.559   2.800   2.187  0.5851  0.9813  0.0557
   72MOL0     H 9892   4.564   3.025   2.295  0.2978  1.7808 -3.1622
   72MOL0     H 9893   4.472   3.038   2.157  0.2543 -0.5418 -0.1916
   72MOL0     H 9894   4.224   3.050   2.536 -1.4340  1.1041  0.0151
   72MOL0     H 9895   4.153   3.142   2.719  0.6406 -1.6933  0.7618
   72MOL0     H 9896   4.138   3.318   2.730 -0.8454 -0.8855 -0.2749
   72MOL0     H 9897   4.261   3.241   2.824  1.4441  2.9993 -2.1704
   72MOL0     H 9898   4.233   3.649   2.817  0.4284 -0.5422 -0.9785
   72MOL0     H 9899   4.221   3.851   2.943 -0.4781 -0.6162 -1.3538
   72MOL0     H 9900   4.469   4.192   2.785  0.4655  0.8897  0.1124
   72MOL0     H 9901   4.428   4.260   2.936  0.6681  0.9179 -2.2873
   72MOL0     H 9902   4.655   4.057   2.893  0.0836  1.3898 -3.0768
   72MOL0     H 9903   4.676   4.220   2.902 -0.6629 -1.6377 -3.4425
   72MOL0     H 9904   4.538   4.030   3.122 -2.1941  2.3125  2.6895
   72MOL0     H 9905   4.547   4.203   3.144  1.8912  1.3828  0.6794
   72MOL0     H 9906   4.778   4.208   3.156  0.8529 -0.2384 -1.4550
   72MOL0     H 9907   4.784   4.031   3.111  2.8188 -2.0236  5.5950
   72MOL0     H 9908   4.652   3.980   3.308 -2.4572  1.9939  0.6233
   72MOL0     H 9909   4.812   4.049   3.345  0.2487  1.1698  0.3072
   72MOL0     H 9910   4.542   4.175   3.368  1.0868 -0.1674 -2.5363
   72MOL0     H 9911   4.689   4.272   3.387 -1.6537  0.4418 -0.4440
   72MOL0     H 9912   4.755   4.104   3.568 -0.6247 -0.9517 -0.3717
   72MOL0     H 9913   4.585   4.038   3.551  0.9710 -0.3706  3.3570
   72MOL0     H 9914   4.620   4.177   3.760  1.7979  0.9278 -0.1179
   72MOL0     H 9915   4.478   4.194   3.662  0.6628 -2.0785  3.5413
   72MOL0     H 9916   4.546   3.994   2.689 -1.3977  0.7545 -2.1991
   72MOL0     H 9917   4.560   3.759   2.587 -0.5218  0.0185  1.1169
   72MOL0     H 9918   4.516   3.451   2.452  1.5718 -2.2976 -3.5486
   72MOL0     H 9919   4.520   3.267   2.296 -0.0798 -2.1601 -1.2384
   72MOL0     H 9920   3.031   2.523   2.247  0.4242 -3.2201  2.1620
   72MOL0     H 9921   2.884   2.433   2.400 -0.0605  0.7622 -0.7431
   72MOL0     H 9922   2.744   2.419   2.841 -0.4007 -0.1605  1.3682
   72MOL0     H 9923   2.632   2.247   2.975 -1.4604  0.6536  1.3648
   72MOL0     H 9924   2.189   2.229   2.940 -0.3599  0.3440 -0.7435
   72MOL0     H 9925   2.213   2.110   2.813  0.5345 -1.0302 -0.7766
   72MOL0     H 9926   2.224   1.934   2.953 -0.1056  1.3065 -2.5861
   72MOL0     H 9927   2.088   2.022   3.009 -0.0181  1.1421 -3.6624
   72MOL0     H 9928   2.175   1.948   3.193  0.4644 -0.4860 -0.6172
   72MOL0     H 9929   2.333   2.003   3.171 -0.1199  0.1923 -1.3237
   72MOL0     H 9930   2.246   2.248   3.156 -0.2942  1.0970  0.7189
   72MOL0     H 9931   2.234   2.177   3.321  3.2626  1.2377 -1.7061
   72MOL0     H 9932   1.828   2.221   3.201  0.4108  0.3950  0.0106
   72MOL0     H 9933   2.296   2.282   2.694 -0.1957 -0.1889 -0.9889
   72MOL0     H 9934   2.419   2.528   2.465 -2.3506  0.1431 -0.2456
   72MOL0     H 9935   2.309   2.403   2.524 -0.2581  0.9886 -3.5871
   72MOL0     H 9936   2.324   2.558   2.612 -0.0797 -0.4738  1.6392
   73MOL0     O 9937   2.617  10.138   5.537 -0.8164 -0.2388 -0.0694
   73MOL0     C 9938   2.608  10.043   5.618 -0.4037  0.0773  0.1907
   73MOL0     O 9939   2.587   9.910   5.585 -0.3752 -1.0740 -0.6920
   73MOL0     C 9940   2.613   9.854   5.463  0.0695 -0.2031 -0.9140
   73MOL0     C 9941   2.633   9.718   5.473 -0.3884 -0.2602 -0.2687
   73MOL0     C 9942   2.637   9.648   5.348 -0.2230 -0.4998  0.7557
   73MOL0     C 9943   2.617   9.706   5.223 -0.6818 -0.3342  0.1008
   73MOL0     O 9944   2.629   9.639   5.108  0.5272  0.6394  0.1415
   73MOL0     C 9945   2.622   9.495   5.104  0.3435 -0.0721 -0.0409
   73MOL0     C 9946   2.593   9.452   4.966  0.6599  0.0890 -0.0699
   73MOL0     C 9947   2.700   9.501   4.866 -0.5106 -0.3030 -0.0462
   73MOL0     C 9948   2.723   9.421   4.744  0.9646 -0.3276  0.2090
   73MOL0     C 9949   2.603   9.424   4.661  0.7939  0.1088  0.8656
   73MOL0     C 9950   2.626   9.346   4.525  0.0804 -0.5088  0.5689
   73MOL0     C 9951   2.537   9.409   4.421 -0.2423 -0.0438 -0.8484
   73MOL0     C 9952   2.549   9.348   4.287  0.2228 -0.0632 -0.0940
   73MOL0     N 9953   2.438   9.392   4.196 -1.0035  0.2034  0.4656
   73MOL0     C 9954   2.435   9.511   4.139  0.8073 -0.9384 -1.0396
   73MOL0     C 9955   2.307   9.517   4.097  0.1611  0.2331 -0.6500
   73MOL0     C 9956   2.231   9.651   4.082 -0.1755 -0.5666 -0.3306
   73MOL0     C 9957   2.229   9.686   3.934  0.8112 -0.0010 -1.3298
   73MOL0     C 9958   2.118   9.627   3.849  0.2570 -0.7024 -0.2421
   73MOL0     C 9959   2.157   9.654   3.702  0.3850 -0.8686  0.9109
   73MOL0     O 9960   2.279   9.590   3.672  0.0685 -0.9273  0.4284
   73MOL0     C 9961   2.308   9.575   3.540  0.8289 -0.0456  0.4473
   73MOL0     C 9962   2.424   9.503   3.516 -0.1857  1.7359  0.8515
   73MOL0     C 9963   2.458   9.443   3.387  0.4329  0.7579 -0.0777
   73MOL0     C 9964   2.604   9.386   3.366 -0.8396  0.3285  0.1351
   73MOL0     C 9965   2.363   9.447   3.281  0.8194  0.0077 -0.7323
   73MOL0     C 9966   2.382   9.389   3.145  0.4480  0.1994  0.8873
   73MOL0     O 9967   2.274   9.396   3.057 -0.8819 -0.4527  0.1624
   73MOL0     C 9968   2.269   9.309   2.954  0.5052  0.2369  0.2965
   73MOL0     C 9969   2.196   9.188   2.973  0.8523 -0.9183 -0.3900
   73MOL0     C 9970   2.195   9.097   2.871 -0.0455 -0.0381  0.0912
   73MOL0     C 9971   2.248   9.130   2.741 -0.6812  0.0372  0.4717
   73MOL0     O 9972   2.244   9.039   2.638  0.3231  1.0841  0.7679
   73MOL0     C 9973   2.349   8.935   2.646  0.8459 -0.7280  0.2183
   73MOL0     C 9974   2.289   8.798   2.624  0.2957  0.8027  0.0281
   73MOL0     C 9975   2.393   8.701   2.575 -0.9107 -1.0336  0.0943
   73MOL0     C 9976   2.386   8.560   2.637  0.1215  0.1204  0.6002
   73MOL0     C 9977   2.433   8.552   2.783  0.0645  0.6412 -0.6068
   73MOL0     C 9978   2.467   8.406   2.829  1.1840  0.5760  0.1082
   73MOL0     C 9979   2.533   8.405   2.964 -0.1802 -0.2391 -0.2756
   73MOL0     C 9980   2.576   8.257   2.996  1.1569 -0.2877 -0.7227
   73MOL0    Cl 9981   2.677   8.196   2.857 -0.3519 -0.1095  0.0919
   73MOL0     C 9982   2.301   9.263   2.714 -0.5842 -0.2367  0.2391
   73MOL0     C 9983   2.312   9.345   2.824  0.4921  0.8069 -0.2167
   73MOL0     O 9984   2.493   9.337   3.116  0.1528  0.0756 -0.7087
   73MOL0     C 9985   2.246   9.526   3.309  0.2147  0.0274 -0.7009
   73MOL0     C 9986   2.220   9.587   3.435 -0.2371  0.0138  0.3466
   73MOL0     N 9987   2.233   9.398   4.109  0.0971 -0.5605  0.0628
   73MOL0     N 9988   2.322   9.328   4.183 -0.1372 -0.3772  0.0681
   73MOL0     C 9989   2.597   9.845   5.225 -0.4055  0.6586  0.3320
   73MOL0     C 9990   2.592   9.918   5.341 -0.3491  0.2727 -0.1300
   73MOL0     C 9991   2.642  10.087   5.755 -0.1601 -0.3116  0.4050
   73MOL0     C 9992   2.647   9.983   5.849 -0.5580  0.8165  0.9360
   73MOL0     C 9993   2.669  10.007   5.989  0.5962  0.1459 -0.1561
   73MOL0     C 9994   2.700  10.135   6.042 -0.2873  0.8092  0.2610
   73MOL0     O 9995   2.733  10.140   6.173  0.1138  0.0108  0.1383
   73MOL0     C 9996   2.840  10.231   6.199  0.2619 -0.3204 -0.6778
   73MOL0     C 9997   2.918  10.230   6.328 -0.3888  1.4849  0.9208
   73MOL0     C 9998   2.969  10.083   6.347 -0.8418 -0.1749  0.5716
   73MOL0     C 9999   3.005  10.057   6.492 -0.2134 -0.4230 -0.2596
   73MOL0     C10000   3.123   9.973   6.503 -1.4698  0.0099  0.2357
   73MOL0     C10001   3.218   9.896   6.495 -0.0275  0.5217  0.2319
   73MOL0     C10002   2.688  10.243   5.949  0.1163 -0.2264 -0.1414
   73MOL0     C10003   2.665  10.219   5.809  0.1420 -0.5352 -0.4483
   73MOL0     C10004   2.643  10.344   5.736  0.6963  0.5040 -0.2915
   73MOL0     H10005   2.645   9.674   5.572 -2.2477  0.7560  0.4562
   73MOL0     H10006   2.687   9.552   5.359  1.2182  0.4835  4.0142
   73MOL0     H10007   2.539   9.461   5.166 -0.6427  0.8841 -0.7999
   73MOL0     H10008   2.708   9.442   5.145 -1.8132 -2.6123  1.5064
   73MOL0     H10009   2.578   9.345   4.949  3.8243 -0.4547 -0.0095
   73MOL0     H10010   2.492   9.489   4.942 -0.0069 -2.2329 -1.1466
   73MOL0     H10011   2.668   9.600   4.830 -1.3072  0.0827  1.6311
   73MOL0     H10012   2.796   9.506   4.917  0.4955 -2.5359 -1.5767
   73MOL0     H10013   2.813   9.443   4.685 -0.1794 -1.5663 -2.1517
   73MOL0     H10014   2.745   9.324   4.791  2.0017  1.0582  2.7890
   73MOL0     H10015   2.577   9.525   4.628  1.6932 -0.1429 -0.6809
   73MOL0     H10016   2.528   9.382   4.728 -0.8999 -2.0614 -2.1691
   73MOL0     H10017   2.732   9.346   4.497  0.5509 -1.9616  2.1656
   73MOL0     H10018   2.604   9.239   4.531 -0.3186 -0.5623 -1.2524
   73MOL0     H10019   2.571   9.512   4.405  3.3058 -1.1441 -1.2797
   73MOL0     H10020   2.434   9.411   4.458 -0.2328  2.3596 -0.8241
   73MOL0     H10021   2.650   9.357   4.246  2.0630 -1.4109  3.6704
   73MOL0     H10022   2.522   9.243   4.302  0.4749 -0.1610 -0.3092
   73MOL0     H10023   2.509   9.591   4.144  0.2493 -0.2535 -2.8923
   73MOL0     H10024   2.275   9.735   4.137  0.6531  0.0804 -1.9311
   73MOL0     H10025   2.129   9.645   4.121  0.4792  0.5240  1.7113
   73MOL0     H10026   2.226   9.796   3.939  1.5439 -0.0304  0.6913
   73MOL0     H10027   2.328   9.659   3.898  1.9039  2.7268 -0.6335
   73MOL0     H10028   2.093   9.522   3.866 -1.1430 -0.4214 -0.4327
   73MOL0     H10029   2.030   9.679   3.889 -0.0901 -2.2043  1.0384
   73MOL0     H10030   2.078   9.621   3.634  0.0084  3.1937 -0.9475
   73MOL0     H10031   2.171   9.761   3.682 -0.0483 -1.1984 -1.3308
   73MOL0     H10032   2.494   9.521   3.597 -3.1477  3.8425  3.1890
   73MOL0     H10033   2.659   9.377   3.461 -1.9162 -1.7743  0.6214
   73MOL0     H10034   2.660   9.460   3.308  1.6861 -0.7510  1.0512
   73MOL0     H10035   2.594   9.284   3.326 -1.6614 -0.0322  1.1959
   73MOL0     H10036   2.145   9.178   3.068 -1.3369 -0.8011 -1.4937
   73MOL0     H10037   2.166   8.995   2.895  3.1065 -1.2661 -0.8637
   73MOL0     H10038   2.409   8.958   2.557 -0.4242  1.4623 -0.1518
   73MOL0     H10039   2.407   8.943   2.738 -1.3605 -2.8196  1.9418
   73MOL0     H10040   2.243   8.763   2.718 -1.1243 -3.6250 -2.0500
   73MOL0     H10041   2.207   8.790   2.553 -1.8532 -0.8251  2.4735
   73MOL0     H10042   2.494   8.736   2.598 -1.6296  1.8420 -0.7654
   73MOL0     H10043   2.386   8.691   2.466  0.0897 -2.0004  0.0993
   73MOL0     H10044   2.447   8.497   2.571  0.4267  2.6393 -1.6765
   73MOL0     H10045   2.284   8.525   2.617  0.1968  0.6239 -0.7674
   73MOL0     H10046   2.522   8.615   2.786 -0.9342  2.3403 -2.9933
   73MOL0     H10047   2.359   8.590   2.854  0.6995  3.1160 -1.1581
   73MOL0     H10048   2.526   8.365   2.747 -0.7238 -0.9069 -0.5871
   73MOL0     H10049   2.376   8.346   2.837  1.9347 -0.3798  2.4204
   73MOL0     H10050   2.467   8.437   3.045  2.1220 -1.5508  2.2720
   73MOL0     H10051   2.621   8.469   2.959  0.6092 -1.0716  1.9906
   73MOL0     H10052   2.490   8.190   3.004  0.4252  0.6532 -0.6283
   73MOL0     H10053   2.641   8.253   3.084 -1.1723 -2.1302  1.0363
   73MOL0     H10054   2.331   9.288   2.612  1.4006 -2.7608  0.1211
   73MOL0     H10055   2.338   9.449   2.804 -0.3708  0.8836 -0.9965
   73MOL0     H10056   2.179   9.548   3.226  1.8423  0.9384 -1.8361
   73MOL0     H10057   2.126   9.640   3.431 -1.0001 -1.2022  1.5612
   73MOL0     H10058   2.574   9.888   5.129 -2.1999  1.2503  0.9930
   73MOL0     H10059   2.576  10.024   5.322  2.2220  0.7044 -0.3450
   73MOL0     H10060   2.625   9.882   5.819 -3.1908  1.5664  0.0520
   73MOL0     H10061   2.671   9.914   6.045 -0.9163 -0.3679 -0.8910
   73MOL0     H10062   2.917  10.207   6.125 -0.5508 -3.1725 -0.7330
   73MOL0     H10063   2.813  10.335   6.182  2.3300  0.4408  0.2800
   73MOL0     H10064   2.852  10.258   6.410 -2.5530  0.0304 -0.2147
   73MOL0     H10065   2.995  10.306   6.311  0.1830  0.6165 -0.5546
   73MOL0     H10066   2.887  10.015   6.322  0.2463 -0.7147 -1.7931
   73MOL0     H10067   3.054  10.071   6.280 -2.9528  0.1917 -2.3211
   73MOL0     H10068   2.920  10.019   6.550 -2.3421 -0.3095 -3.0771
   73MOL0     H10069   3.018  10.153   6.542 -1.0647 -0.2684 -0.3186
   73MOL0     H10070   3.294   9.822   6.482  0.7589  1.0379  1.7443
   73MOL0     H10071   2.706  10.345   5.983  0.6171 -0.2859 -0.2290
   73MOL0     H10072   2.554  10.337   5.672  1.0096  0.5674 -0.7454
   73MOL0     H10073   2.630  10.430   5.801  1.1746  2.1213 -2.2224
   73MOL0     H10074   2.715  10.358   5.654 -0.8608 -1.9286 -2.2474
   74MOL0     O10075   2.940   4.546   5.350 -0.0852  0.3923 -0.4161
   74MOL0     C10076   2.852   4.466   5.316 -0.2657  0.1261  0.1651
   74MOL0     O10077   2.863   4.385   5.207  0.7870 -0.3515 -0.4442
   74MOL0     C10078   2.984   4.323   5.177 -0.2277  0.3680 -0.1950
   74MOL0     C10079   3.006   4.312   5.043 -0.5054  0.0924 -0.3653
   74MOL0     C10080   3.123   4.249   4.986  0.4485 -0.3950 -0.6817
   74MOL0     C10081   3.228   4.228   5.072  0.8815  0.2587  0.2695
   74MOL0     O10082   3.346   4.184   5.017  0.3664  0.3505  0.2833
   74MOL0     C10083   3.469   4.228   5.077  0.3742  0.5498  0.4838
   74MOL0     C10084   3.509   4.370   5.018  0.2734  0.6916 -0.5334
   74MOL0     C10085   3.529   4.379   4.860 -0.4396 -0.4210 -0.6419
   74MOL0     C10086   3.648   4.290   4.796 -0.7886 -0.6534  0.9995
   74MOL0     C10087   3.639   4.303   4.643 -1.1352  0.8119 -0.1133
   74MOL0     C10088   3.712   4.183   4.582  0.2917  0.1906  0.1346
   74MOL0     C10089   3.707   4.194   4.425 -0.5758 -0.1360  0.3752
   74MOL0     C10090   3.764   4.073   4.356 -0.9849 -0.1130 -0.0024
   74MOL0     N10091   3.703   3.949   4.389  0.5600 -0.5600  0.0416
   74MOL0     C10092   3.776   3.830   4.392  0.0416 -1.0318  0.1271
   74MOL0     C10093   3.680   3.735   4.390  0.2345 -0.5844 -0.0857
   74MOL0     C10094   3.695   3.594   4.446  0.4888  0.2141  0.3934
   74MOL0     C10095   3.645   3.482   4.342  0.4467 -0.3437 -0.1970
   74MOL0     C10096   3.741   3.385   4.291  0.3779  0.4391  0.3767
   74MOL0     C10097   3.815   3.302   4.387 -0.6612 -0.2106  0.9871
   74MOL0     O10098   3.916   3.234   4.304 -0.0118  0.0806 -0.6129
   74MOL0     C10099   3.986   3.123   4.362 -1.4688 -0.1495  0.3357
   74MOL0     C10100   4.080   3.064   4.284  0.1135 -0.0313  0.8178
   74MOL0     C10101   4.171   2.970   4.332 -0.5859  0.1600  0.0822
   74MOL0     C10102   4.273   2.907   4.230 -0.3154  0.0105 -0.0945
   74MOL0     C10103   4.164   2.942   4.474 -0.3537  0.3913  1.0586
   74MOL0     C10104   4.246   2.844   4.539  0.0824  0.9426  0.2756
   74MOL0     O10105   4.357   2.806   4.461 -0.9090  0.0136  0.1915
   74MOL0     C10106   4.462   2.745   4.518 -0.1843  0.6351  0.0681
   74MOL0     C10107   4.449   2.631   4.598 -0.1125 -0.4199  1.4568
   74MOL0     C10108   4.563   2.573   4.638 -0.3174 -0.0941 -0.8642
   74MOL0     C10109   4.693   2.624   4.613  0.0303 -0.4509 -1.3020
   74MOL0     O10110   4.793   2.558   4.688  0.4947  0.2102  0.6358
   74MOL0     C10111   4.917   2.621   4.683 -0.4049  0.8744  0.0787
   74MOL0     C10112   5.022   2.545   4.769  0.3744 -0.3970 -0.4160
   74MOL0     C10113   5.153   2.539   4.696 -0.0629 -0.6492  0.2657
   74MOL0     C10114   5.240   2.442   4.774  0.3016 -0.1628 -0.8031
   74MOL0     C10115   5.371   2.421   4.709  0.5327 -0.5146  0.0964
   74MOL0     C10116   5.483   2.402   4.807 -0.4374 -0.1982  0.3128
   74MOL0     C10117   5.604   2.351   4.727  1.0141  0.0640 -0.7990
   74MOL0     C10118   5.678   2.456   4.652  0.3482 -0.7038  1.0346
   74MOL0    Cl10119   5.747   2.560   4.764 -0.6531  0.4359 -0.2287
   74MOL0     C10120   4.700   2.743   4.541  0.5848  0.0133 -0.6196
   74MOL0     C10121   4.583   2.801   4.488  1.1344 -0.4288 -0.8794
   74MOL0     O10122   4.214   2.788   4.647 -0.1681 -0.7603 -0.2948
   74MOL0     C10123   4.058   2.989   4.550 -0.0790  0.5106 -0.1585
   74MOL0     C10124   3.977   3.083   4.490 -0.4787 -0.3166  0.5074
   74MOL0     N10125   3.558   3.797   4.365  0.2791  0.2978 -0.3410
   74MOL0     N10126   3.573   3.921   4.380 -0.5746 -0.2828 -0.0825
   74MOL0     C10127   3.202   4.229   5.206  0.0073  0.2130  0.4753
   74MOL0     C10128   3.082   4.273   5.260  0.4429  0.3638 -0.4892
   74MOL0     C10129   2.721   4.457   5.387  0.4528  0.4857  0.3366
   74MOL0     C10130   2.606   4.403   5.316  0.1682 -0.0677 -0.1720
   74MOL0     C10131   2.476   4.417   5.363 -0.2916 -0.6883 -0.2870
   74MOL0     C10132   2.460   4.469   5.495 -0.7317  0.6941 -0.1501
   74MOL0     O10133   2.340   4.506   5.548 -0.2928 -0.2941 -0.3636
   74MOL0     C10134   2.223   4.420   5.531  0.4266  0.1805  0.0771
   74MOL0     C10135   2.102   4.472   5.595 -0.0622 -1.1584 -0.2007
   74MOL0     C10136   2.114   4.552   5.729 -0.3795  0.2346 -0.4568
   74MOL0     C10137   1.994   4.634   5.769 -0.1040  0.3991 -0.8210
   74MOL0     C10138   1.930   4.715   5.672 -0.5224  0.2617  0.0855
   74MOL0     C10139   1.874   4.785   5.587  0.0081 -0.5115  0.5932
   74MOL0     C10140   2.573   4.509   5.570  0.8881 -0.1650 -1.1555
   74MOL0     C10141   2.703   4.509   5.519  0.5713  0.4385  0.5116
   74MOL0     C10142   2.811   4.553   5.609  0.1585 -1.5249  0.0117
   74MOL0     H10143   2.924   4.346   4.980 -1.8392 -3.1895 -0.5940
   74MOL0     H10144   3.131   4.237   4.879 -1.2580 -0.2425 -0.8679
   74MOL0     H10145   3.542   4.156   5.040  0.2869  1.7525 -2.2109
   74MOL0     H10146   3.468   4.226   5.187  0.0788 -0.0614  0.4792
   74MOL0     H10147   3.422   4.432   5.038  0.1479  0.3657 -0.0452
   74MOL0     H10148   3.601   4.407   5.064  1.1190 -0.5314 -1.1787
   74MOL0     H10149   3.431   4.361   4.815 -0.1587  1.5039 -2.2044
   74MOL0     H10150   3.547   4.485   4.837 -2.4334 -0.4122 -2.5199
   74MOL0     H10151   3.754   4.302   4.822  0.0392 -1.7350 -1.5736
   74MOL0     H10152   3.626   4.187   4.828  0.0602 -1.1694 -0.0232
   74MOL0     H10153   3.682   4.394   4.601  1.3423 -0.4306 -0.4178
   74MOL0     H10154   3.535   4.309   4.609 -1.6053 -1.9769  0.6105
   74MOL0     H10155   3.818   4.191   4.606  1.0095  0.3365 -2.6827
   74MOL0     H10156   3.665   4.086   4.604  0.4439  0.5226  2.0484
   74MOL0     H10157   3.757   4.285   4.394 -3.1467  0.3074 -3.0375
   74MOL0     H10158   3.604   4.204   4.388 -0.1144  3.0842 -0.3026
   74MOL0     H10159   3.779   4.091   4.249  2.5937  1.5199  0.6482
   74MOL0     H10160   3.865   4.065   4.397 -1.4186 -0.2762  1.0681
   74MOL0     H10161   3.884   3.829   4.400  0.6467  0.4804 -4.7044
   74MOL0     H10162   3.637   3.581   4.538  0.1979 -0.3360  0.1382
   74MOL0     H10163   3.803   3.580   4.456  0.1478 -3.4137  0.2512
   74MOL0     H10164   3.572   3.418   4.391 -0.2693  0.3962 -0.2794
   74MOL0     H10165   3.582   3.527   4.266 -0.4076  0.6961  1.0738
   74MOL0     H10166   3.696   3.317   4.218  0.1564  0.6594  0.3068
   74MOL0     H10167   3.817   3.430   4.226  0.8814  0.2992  0.8671
   74MOL0     H10168   3.864   3.354   4.470 -0.3304  0.2839  0.4878
   74MOL0     H10169   3.750   3.230   4.437  1.9665 -4.5008 -1.2009
   74MOL0     H10170   4.096   3.088   4.179  4.6511 -1.9043  0.8714
   74MOL0     H10171   4.283   2.799   4.244  2.0210  0.3463  1.3230
   74MOL0     H10172   4.368   2.960   4.243 -1.5783  2.3556  0.2381
   74MOL0     H10173   4.226   2.921   4.132 -3.4065  4.5485  1.6530
   74MOL0     H10174   4.356   2.581   4.623 -1.1089  0.2839 -0.5970
   74MOL0     H10175   4.570   2.483   4.698  0.5296 -0.8426 -2.0526
   74MOL0     H10176   4.944   2.623   4.577 -2.3278  2.6412 -0.4412
   74MOL0     H10177   4.912   2.726   4.713 -0.4345  0.3290  2.1245
   74MOL0     H10178   5.037   2.577   4.872 -1.5639 -1.2986  0.2037
   74MOL0     H10179   4.986   2.442   4.780  1.6145 -0.5743  2.7083
   74MOL0     H10180   5.210   2.633   4.692  1.4754 -1.4042  2.7125
   74MOL0     H10181   5.144   2.497   4.595  3.2586 -0.9446 -0.0260
   74MOL0     H10182   5.180   2.352   4.788 -1.2085  0.4820 -2.6579
   74MOL0     H10183   5.259   2.472   4.877 -0.5394 -1.1475 -0.3498
   74MOL0     H10184   5.342   2.353   4.628 -3.3522 -0.0563  0.8981
   74MOL0     H10185   5.397   2.513   4.654 -2.5294  0.6645  0.4168
   74MOL0     H10186   5.459   2.330   4.886  3.3274 -0.7703  1.1059
   74MOL0     H10187   5.504   2.494   4.862 -4.6555 -0.1559  2.2478
   74MOL0     H10188   5.582   2.279   4.648  3.6808 -3.5901  1.4706
   74MOL0     H10189   5.670   2.302   4.799  1.6986  1.0309 -0.7564
   74MOL0     H10190   5.613   2.500   4.576  2.8587 -0.1452 -0.9479
   74MOL0     H10191   5.768   2.430   4.596 -0.6525  3.1659 -2.9442
   74MOL0     H10192   4.793   2.794   4.520  0.2732  0.3595 -1.1826
   74MOL0     H10193   4.592   2.891   4.428  1.8618  0.1748  0.1052
   74MOL0     H10194   4.031   2.954   4.650  1.9086  0.2912  0.3420
   74MOL0     H10195   3.910   3.133   4.559  0.6402  2.7230 -0.4782
   74MOL0     H10196   3.268   4.190   5.284 -1.2722 -3.0859  0.1010
   74MOL0     H10197   3.055   4.277   5.365  2.1370 -0.7723  0.0396
   74MOL0     H10198   2.613   4.379   5.210  0.0960  1.3058 -0.4961
   74MOL0     H10199   2.389   4.402   5.300  0.9616  1.7146 -2.7912
   74MOL0     H10200   2.195   4.402   5.426 -0.4821  2.3687 -0.1055
   74MOL0     H10201   2.247   4.322   5.573  3.0120  1.0277  0.7601
   74MOL0     H10202   2.041   4.382   5.611 -0.0077 -1.0963  0.3837
   74MOL0     H10203   2.050   4.533   5.520  1.9798 -2.7427 -3.0990
   74MOL0     H10204   2.139   4.480   5.807  2.0881  0.3913 -1.0039
   74MOL0     H10205   2.199   4.621   5.726  0.7877 -1.1848 -2.1129
   74MOL0     H10206   2.017   4.699   5.854 -1.9959 -0.1760  0.1836
   74MOL0     H10207   1.913   4.566   5.796  1.3296 -1.0648  0.0289
   74MOL0     H10208   1.852   4.831   5.492 -0.3149 -2.9047 -0.5753
   74MOL0     H10209   2.552   4.557   5.665 -1.3440 -2.5087 -0.3405
   74MOL0     H10210   2.878   4.471   5.634  0.7793 -1.2567 -0.7233
   74MOL0     H10211   2.875   4.629   5.563  1.7115 -1.3431  2.3196
   74MOL0     H10212   2.761   4.605   5.691  2.6309  1.5204 -0.2426
   75MOL0     O10213   1.933   6.899   3.215  0.1799 -0.7398 -0.6368
   75MOL0     C10214   1.917   6.860   3.098 -0.2674  0.2385 -0.1767
   75MOL0     O10215   1.900   6.732   3.056 -0.3156 -0.4945  0.3027
   75MOL0     C10216   1.894   6.619   3.138  0.4651 -0.8600  0.1606
   75MOL0     C10217   1.974   6.608   3.250 -0.3794  0.1855  0.3009
   75MOL0     C10218   1.957   6.501   3.337 -0.2169 -0.5096  0.1271
   75MOL0     C10219   1.858   6.405   3.321  0.1556  0.3811  0.0710
   75MOL0     O10220   1.836   6.310   3.418  0.4117 -0.5796 -0.2142
   75MOL0     C10221   1.699   6.291   3.450 -0.5337 -0.6343 -0.7187
   75MOL0     C10222   1.691   6.175   3.554  0.3490  0.5933 -0.2917
   75MOL0     C10223   1.769   6.206   3.679  0.6847  0.0311  0.3083
   75MOL0     C10224   1.768   6.108   3.793  0.3527 -0.0129  0.3599
   75MOL0     C10225   1.821   5.974   3.738  1.1251 -0.0991  0.5468
   75MOL0     C10226   1.858   5.884   3.843  0.8168  0.7461 -0.1556
   75MOL0     C10227   1.850   5.736   3.824 -0.6851 -0.5583  0.3528
   75MOL0     C10228   1.910   5.660   3.948  0.0467  0.0012 -1.2205
   75MOL0     N10229   1.929   5.515   3.937 -0.0596 -0.6667 -0.2903
   75MOL0     C10230   1.938   5.444   3.819 -0.1823 -0.0253 -0.8450
   75MOL0     C10231   1.924   5.320   3.859  0.4397 -0.5381  1.1028
   75MOL0     C10232   1.924   5.195   3.777 -0.4965 -0.9428  0.3861
   75MOL0     C10233   2.062   5.112   3.779  0.1902  0.7404  0.3794
   75MOL0     C10234   2.119   5.090   3.914  0.0865  0.3399 -0.5973
   75MOL0     C10235   2.250   5.002   3.927  0.2061 -0.3175 -0.2811
   75MOL0     O10236   2.351   5.058   3.856 -0.3695 -1.0381 -0.0343
   75MOL0     C10237   2.470   4.996   3.832 -0.1687  0.9218 -0.2652
   75MOL0     C10238   2.491   4.856   3.847 -0.3020 -0.5268 -1.0777
   75MOL0     C10239   2.625   4.802   3.825  0.6218  0.9171 -0.4042
   75MOL0     C10240   2.650   4.659   3.863  0.5632  0.1187  1.0305
   75MOL0     C10241   2.719   4.888   3.767  0.0320 -0.2853  0.2211
   75MOL0     C10242   2.854   4.858   3.731 -0.0750 -0.1086  0.8391
   75MOL0     O10243   2.936   4.968   3.712 -0.1349 -0.6425  0.2397
   75MOL0     C10244   3.071   4.949   3.727 -0.4898  0.2706 -0.4303
   75MOL0     C10245   3.163   5.018   3.644 -0.1723 -0.5049  0.0804
   75MOL0     C10246   3.299   5.013   3.688 -1.1524  0.8720 -0.5799
   75MOL0     C10247   3.357   4.929   3.784  0.1043  0.0241  0.1806
   75MOL0     O10248   3.488   4.935   3.829  0.3224 -0.7259 -0.4846
   75MOL0     C10249   3.579   4.928   3.727  0.1308 -0.5441  0.1903
   75MOL0     C10250   3.696   5.017   3.758 -0.2661  0.7220 -0.6981
   75MOL0     C10251   3.769   4.963   3.877  0.8565  0.4180 -0.2699
   75MOL0     C10252   3.870   5.061   3.944 -0.1222 -0.0734  0.5443
   75MOL0     C10253   3.987   5.099   3.858 -1.0962  0.0821 -0.7559
   75MOL0     C10254   3.983   5.208   3.752  0.9901 -0.2127 -0.4926
   75MOL0     C10255   4.131   5.239   3.701 -0.5960  0.1660 -0.3829
   75MOL0     C10256   4.159   5.218   3.551  0.1500 -0.6514 -0.0330
   75MOL0    Cl10257   4.130   5.044   3.509  0.2886 -0.0436  0.2825
   75MOL0     C10258   3.266   4.862   3.865 -0.5247  0.9217  0.5550
   75MOL0     C10259   3.127   4.880   3.841  0.9977 -1.2030  0.4662
   75MOL0     O10260   2.889   4.739   3.703  0.4586 -0.0192 -0.7826
   75MOL0     C10261   2.682   5.023   3.734  0.0048  0.1197  0.4435
   75MOL0     C10262   2.560   5.075   3.769  0.1451  0.0524 -0.0500
   75MOL0     N10263   1.911   5.315   3.997 -0.6095 -0.9569 -0.0107
   75MOL0     N10264   1.922   5.438   4.045  0.1136  0.4777  0.1114
   75MOL0     C10265   1.788   6.412   3.195 -0.3194  0.8682 -0.8330
   75MOL0     C10266   1.807   6.516   3.103 -0.5371  0.9049 -0.5506
   75MOL0     C10267   1.913   6.951   2.985  0.2466  0.3041  1.2990
   75MOL0     C10268   1.974   6.905   2.869 -0.0351 -0.1081  0.1835
   75MOL0     C10269   1.986   6.989   2.757 -0.4136  0.3632  0.5558
   75MOL0     C10270   1.932   7.119   2.756  0.5214  0.6561  0.6163
   75MOL0     O10271   1.935   7.193   2.638  0.5572 -0.0180 -0.1472
   75MOL0     C10272   2.033   7.158   2.533 -0.5956 -0.2438  0.2638
   75MOL0     C10273   1.976   7.074   2.419  0.7085  0.1798 -0.6236
   75MOL0     C10274   1.868   7.145   2.335 -0.0524 -0.6660  0.8795
   75MOL0     C10275   1.788   7.061   2.233 -0.3618 -1.3070 -0.1809
   75MOL0     C10276   1.716   6.967   2.313 -0.0596  1.1718  0.2496
   75MOL0     C10277   1.651   6.886   2.375 -0.8840 -0.2829  0.0003
   75MOL0     C10278   1.883   7.170   2.878 -0.4668  0.1687 -0.6182
   75MOL0     C10279   1.872   7.088   2.984 -0.1427  0.1587 -0.3543
   75MOL0     C10280   1.772   7.120   3.097 -0.6181 -0.4932  0.4636
   75MOL0     H10281   2.061   6.670   3.269 -0.7183  0.5082  0.8354
   75MOL0     H10282   2.023   6.498   3.423 -1.7074  0.8463  1.4182
   75MOL0     H10283   1.626   6.275   3.371 -2.0126  0.3615  0.3892
   75MOL0     H10284   1.655   6.384   3.489 -2.3054 -0.7196 -2.3768
   75MOL0     H10285   1.586   6.154   3.579 -1.1160  1.5556 -4.6242
   75MOL0     H10286   1.730   6.084   3.508  0.4788  0.4139  0.1654
   75MOL0     H10287   1.874   6.216   3.653 -0.0611  1.8031 -2.5061
   75MOL0     H10288   1.734   6.304   3.715  0.7671  0.3612 -0.4826
   75MOL0     H10289   1.834   6.134   3.876 -1.4883  1.8914  1.3354
   75MOL0     H10290   1.663   6.090   3.821  0.2357  1.2173  0.7454
   75MOL0     H10291   1.903   5.985   3.667  2.3831 -0.1659  1.9252
   75MOL0     H10292   1.736   5.936   3.682  2.2776  1.5326 -2.5507
   75MOL0     H10293   1.956   5.915   3.878  1.9696 -0.8677 -1.7903
   75MOL0     H10294   1.778   5.896   3.917  0.5334 -2.4341  0.2040
   75MOL0     H10295   1.893   5.701   3.729 -1.5803 -1.9759  0.4283
   75MOL0     H10296   1.744   5.710   3.812 -1.8821  3.4138  0.7980
   75MOL0     H10297   2.004   5.708   3.978 -0.1345  0.1423 -0.8663
   75MOL0     H10298   1.847   5.673   4.036  2.5316 -1.4205  0.9032
   75MOL0     H10299   1.955   5.477   3.716  1.5619  2.1144  0.0328
   75MOL0     H10300   1.892   5.210   3.674  2.9621  0.4238 -0.6387
   75MOL0     H10301   1.837   5.140   3.814  0.3815 -1.8138  1.2209
   75MOL0     H10302   2.052   5.017   3.726  2.2157 -0.9790  2.8068
   75MOL0     H10303   2.133   5.175   3.724 -0.6779  1.1048 -0.3442
   75MOL0     H10304   2.141   5.186   3.962 -0.0405 -0.7851  1.8743
   75MOL0     H10305   2.039   5.039   3.969  0.7222 -0.9736 -0.8412
   75MOL0     H10306   2.281   5.016   4.031  0.5338 -1.1878 -0.2500
   75MOL0     H10307   2.239   4.898   3.895  2.3637  0.3918 -3.8821
   75MOL0     H10308   2.416   4.786   3.883  1.6996 -2.3157 -0.1922
   75MOL0     H10309   2.557   4.601   3.870 -1.8907  3.3271 -1.8691
   75MOL0     H10310   2.718   4.633   3.945  1.4494 -1.5957 -0.1702
   75MOL0     H10311   2.694   4.608   3.776 -3.1198 -0.6045 -0.5754
   75MOL0     H10312   3.130   5.074   3.557 -2.0976  0.6084  1.4413
   75MOL0     H10313   3.360   5.071   3.620  1.3864 -2.8759 -1.7916
   75MOL0     H10314   3.617   4.826   3.713  1.3440  0.0858 -1.4362
   75MOL0     H10315   3.534   4.969   3.636 -0.9808  1.2466  1.4916
   75MOL0     H10316   3.764   5.018   3.672  0.8491  2.2529  0.1325
   75MOL0     H10317   3.663   5.120   3.777  3.0386  1.5863  1.4260
   75MOL0     H10318   3.841   4.889   3.840  1.2356  0.2490  0.7648
   75MOL0     H10319   3.702   4.925   3.955  0.3975  0.3649 -0.6861
   75MOL0     H10320   3.911   5.006   4.029  3.3494 -1.4411 -1.8167
   75MOL0     H10321   3.816   5.154   3.964 -1.9382 -1.1971  1.1119
   75MOL0     H10322   4.074   5.121   3.920 -1.2044  2.7258 -1.4181
   75MOL0     H10323   4.028   5.010   3.809  0.3145 -0.2847  0.9982
   75MOL0     H10324   3.935   5.293   3.801  2.0725  0.2970 -0.2747
   75MOL0     H10325   3.914   5.168   3.678  2.6059 -1.7419 -1.2772
   75MOL0     H10326   4.201   5.174   3.754 -1.8531 -2.1413 -1.4212
   75MOL0     H10327   4.147   5.344   3.728  2.4109 -0.5404  1.0222
   75MOL0     H10328   4.264   5.242   3.533  0.0140 -0.1842 -0.2347
   75MOL0     H10329   4.089   5.279   3.493 -2.2635 -4.5125 -1.5819
   75MOL0     H10330   3.302   4.804   3.949 -2.5774 -0.3930  0.6037
   75MOL0     H10331   3.051   4.838   3.906 -0.3049 -1.4435 -1.1498
   75MOL0     H10332   2.746   5.083   3.671 -1.5276 -0.2862 -1.6208
   75MOL0     H10333   2.533   5.179   3.753 -0.3317 -0.3210 -1.8926
   75MOL0     H10334   1.704   6.346   3.179  0.9910 -0.7516 -1.3529
   75MOL0     H10335   1.755   6.530   3.009 -0.1765 -0.9661 -1.0770
   75MOL0     H10336   2.026   6.809   2.867 -1.1670 -0.7727 -2.4574
   75MOL0     H10337   2.030   6.934   2.674 -0.0267  0.3182  0.7866
   75MOL0     H10338   2.055   7.253   2.484 -0.3068 -0.0484  0.7644
   75MOL0     H10339   2.117   7.112   2.584  0.5587  0.6461 -0.7694
   75MOL0     H10340   1.930   6.988   2.469  4.9348 -0.7280  2.2614
   75MOL0     H10341   2.052   7.030   2.354  0.9816 -0.4563  0.1020
   75MOL0     H10342   1.804   7.173   2.420  3.1270  1.4529  2.7542
   75MOL0     H10343   1.920   7.227   2.285 -0.5279 -3.0261 -4.1532
   75MOL0     H10344   1.857   7.014   2.162 -1.2883 -0.2156 -1.8640
   75MOL0     H10345   1.719   7.113   2.166 -1.5771 -2.5258  0.0954
   75MOL0     H10346   1.586   6.817   2.426 -1.7229  0.6124  0.1592
   75MOL0     H10347   1.833   7.266   2.892  2.7891  1.5541  4.2590
   75MOL0     H10348   1.831   7.150   3.184  1.2793  0.8809 -1.2247
   75MOL0     H10349   1.709   7.201   3.060  1.8181  0.3590 -2.1450
   75MOL0     H10350   1.700   7.042   3.124 -1.3434  0.8657  2.8483
   76MOL0     O10351   7.043  10.912   6.107  0.7834  0.2388  0.1026
   76MOL0     C10352   7.059  10.866   6.214 -0.1829  0.1472 -0.5613
   76MOL0     O10353   7.162  10.790   6.239  0.0604  0.0779  0.0309
   76MOL0     C10354   7.265  10.780   6.146 -0.3307 -0.0862 -0.5532
   76MOL0     C10355   7.384  10.839   6.180 -1.3198  0.2331 -0.2654
   76MOL0     C10356   7.486  10.847   6.084  0.0564 -0.0899 -0.0064
   76MOL0     C10357   7.479  10.785   5.965  0.8348  0.1083 -0.5143
   76MOL0     O10358   7.591  10.795   5.881  0.2032  0.0767 -0.1271
   76MOL0     C10359   7.577  10.841   5.745 -0.0564 -0.3539  0.2777
   76MOL0     C10360   7.721  10.884   5.702  0.2742 -0.2467  0.3728
   76MOL0     C10361   7.763  11.015   5.774  0.2027  0.0408  0.0034
   76MOL0     C10362   7.860  11.100   5.698  1.0629  0.5336  0.0938
   76MOL0     C10363   8.002  11.078   5.732  0.4357 -0.0684 -0.2882
   76MOL0     C10364   8.079  11.207   5.699 -0.2181  0.6167  0.2317
   76MOL0     C10365   8.068  11.260   5.553 -0.3254 -0.3086 -0.4192
   76MOL0     C10366   7.994  11.397   5.560 -0.6261 -0.0367 -0.4304
   76MOL0     N10367   7.968  11.446   5.431  0.3434 -0.5649  0.0244
   76MOL0     C10368   7.867  11.408   5.341  0.4916  0.7850 -0.7828
   76MOL0     C10369   7.908  11.458   5.223  0.6802  0.8559 -0.8368
   76MOL0     C10370   7.845  11.426   5.086 -1.0080  0.6992  0.2828
   76MOL0     C10371   7.962  11.394   4.986  1.1300  0.7882 -0.3916
   76MOL0     C10372   7.989  11.246   4.977 -1.1530  0.5068 -0.0989
   76MOL0     C10373   8.064  11.208   5.099 -1.0342  0.6579 -0.3945
   76MOL0     O10374   8.108  11.073   5.068  0.4010 -0.7758  0.5608
   76MOL0     C10375   8.151  11.018   5.185 -0.7931 -0.6141 -0.3211
   76MOL0     C10376   8.086  10.900   5.235 -0.0966 -0.9311  0.1310
   76MOL0     C10377   8.114  10.842   5.359 -0.8898 -0.3048 -0.0594
   76MOL0     C10378   8.036  10.724   5.407 -0.0952 -0.6749  1.3447
   76MOL0     C10379   8.222  10.891   5.436  0.5632 -0.2333  0.4987
   76MOL0     C10380   8.256  10.840   5.575 -0.2327 -0.3033  0.6241
   76MOL0     O10381   8.381  10.875   5.608 -0.2044 -0.8272 -0.0602
   76MOL0     C10382   8.433  10.827   5.726 -0.1915  0.6672  0.2180
   76MOL0     C10383   8.370  10.874   5.850  0.5257 -0.0037  0.1469
   76MOL0     C10384   8.415  10.823   5.972 -0.0222 -0.3623 -0.9404
   76MOL0     C10385   8.532  10.744   5.976  0.2526  0.0862  0.3882
   76MOL0     O10386   8.590  10.678   6.083  0.1529 -0.3845 -0.4865
   76MOL0     C10387   8.557  10.719   6.219  1.2565 -0.7249 -0.0419
   76MOL0     C10388   8.673  10.673   6.306  0.2075 -0.3815 -0.9989
   76MOL0     C10389   8.687  10.727   6.450  0.0336  0.6978  0.6544
   76MOL0     C10390   8.737  10.876   6.433 -0.5130  0.2138  0.0940
   76MOL0     C10391   8.726  10.951   6.564  0.0263 -0.3493 -0.1123
   76MOL0     C10392   8.576  10.958   6.601  0.2537 -0.7757  0.4078
   76MOL0     C10393   8.552  11.051   6.722  0.0648  0.3755  0.2381
   76MOL0     C10394   8.403  11.044   6.771 -0.3009 -0.7944 -0.6552
   76MOL0    Cl10395   8.382  11.179   6.889  0.4885  0.5402 -0.3819
   76MOL0     C10396   8.584  10.690   5.853  1.1875  0.8234 -0.6677
   76MOL0     C10397   8.531  10.733   5.729  0.6381  0.6330  0.3659
   76MOL0     O10398   8.171  10.783   5.641 -1.0074 -1.3750 -0.7489
   76MOL0     C10399   8.294  10.998   5.383  0.2619 -0.4150  0.4790
   76MOL0     C10400   8.261  11.068   5.260 -0.5680  0.4048 -1.7327
   76MOL0     N10401   8.012  11.538   5.242  0.4993 -0.0484  0.1801
   76MOL0     N10402   8.051  11.528   5.365 -0.4664  0.5032  0.2183
   76MOL0     C10403   7.360  10.720   5.925 -0.1059 -0.4770  0.5982
   76MOL0     C10404   7.255  10.723   6.016  0.6927  0.7357  0.0422
   76MOL0     C10405   6.947  10.868   6.324 -0.1758  0.0609 -0.3804
   76MOL0     C10406   6.973  10.780   6.436  0.8547 -0.7977  0.8559
   76MOL0     C10407   6.874  10.763   6.531 -0.2243  0.2863 -0.0141
   76MOL0     C10408   6.747  10.824   6.519 -0.9155 -0.2237 -0.7588
   76MOL0     O10409   6.635  10.810   6.598 -0.1899 -1.2027 -1.2237
   76MOL0     C10410   6.660  10.734   6.714  0.0405 -0.8089  0.0044
   76MOL0     C10411   6.519  10.700   6.768 -0.0120 -0.6114 -0.9820
   76MOL0     C10412   6.483  10.810   6.873 -0.1528  0.7231  0.1092
   76MOL0     C10413   6.358  10.769   6.941  0.1979 -0.0820 -0.3370
   76MOL0     C10414   6.328  10.870   7.034  0.2076  0.4716 -0.0799
   76MOL0     C10415   6.298  10.955   7.112 -0.9113 -0.6196 -0.2558
   76MOL0     C10416   6.726  10.907   6.413  0.7791 -0.1727 -0.0871
   76MOL0     C10417   6.824  10.928   6.316 -1.0436  0.4194 -0.7114
   76MOL0     C10418   6.784  11.028   6.208 -0.5358 -0.4201  0.7390
   76MOL0     H10419   7.411  10.888   6.273  2.5175  0.0012 -1.0976
   76MOL0     H10420   7.580  10.890   6.118 -1.3143  1.2785  2.2719
   76MOL0     H10421   7.503  10.921   5.735 -2.6237 -2.5246  0.7804
   76MOL0     H10422   7.555  10.759   5.676  0.6259  2.0851 -3.1216
   76MOL0     H10423   7.796  10.808   5.724 -0.1182 -1.3846 -1.8503
   76MOL0     H10424   7.720  10.904   5.594 -1.5390 -2.0531 -0.0061
   76MOL0     H10425   7.676  11.078   5.797 -0.3284 -0.0420 -1.6935
   76MOL0     H10426   7.806  10.997   5.873  0.2637  3.1887  0.6559
   76MOL0     H10427   7.835  11.100   5.592 -1.2285 -2.1705  0.4833
   76MOL0     H10428   7.833  11.201   5.731  3.4245  1.0930  0.4636
   76MOL0     H10429   8.034  10.992   5.672  0.5278 -3.1189  3.7138
   76MOL0     H10430   8.019  11.056   5.838  2.9382 -1.8984 -0.9594
   76MOL0     H10431   8.047  11.282   5.772 -2.9795  0.6071 -0.8593
   76MOL0     H10432   8.183  11.175   5.711 -1.1288 -4.5575 -2.4926
   76MOL0     H10433   8.017  11.184   5.492  1.5297 -1.5507 -0.4865
   76MOL0     H10434   8.167  11.268   5.508 -0.1373 -3.3075 -0.7501
   76MOL0     H10435   7.897  11.392   5.610  0.7809  0.9361  2.6821
   76MOL0     H10436   8.065  11.463   5.611 -0.6802 -0.6375  0.4360
   76MOL0     H10437   7.786  11.338   5.361  3.2020 -1.8199  2.1931
   76MOL0     H10438   7.776  11.498   5.041 -2.5544 -2.4082 -2.7547
   76MOL0     H10439   7.784  11.336   5.088 -0.2259  0.0826 -1.5207
   76MOL0     H10440   7.930  11.423   4.886  1.9895 -1.2472 -1.3056
   76MOL0     H10441   8.047  11.461   5.007  2.5005 -1.0781  0.3307
   76MOL0     H10442   7.897  11.188   4.983 -0.2019 -0.9857  1.1523
   76MOL0     H10443   8.037  11.216   4.884 -0.2807 -0.1996  0.5501
   76MOL0     H10444   8.132  11.289   5.125  1.9813 -1.5516 -0.8156
   76MOL0     H10445   8.000  11.206   5.188 -0.5667  3.2236  0.0605
   76MOL0     H10446   8.025  10.857   5.156  3.3966 -2.3852 -1.9714
   76MOL0     H10447   7.976  10.684   5.325 -0.7660 -1.5678  2.2400
   76MOL0     H10448   7.970  10.759   5.488 -1.4111  0.8326 -0.3001
   76MOL0     H10449   8.105  10.640   5.418  0.4345 -0.5968 -0.9340
   76MOL0     H10450   8.290  10.947   5.853 -0.0408 -0.6308  0.7760
   76MOL0     H10451   8.376  10.860   6.066  2.2101  3.4435 -1.2749
   76MOL0     H10452   8.531  10.826   6.217 -2.0752 -1.4512 -1.1860
   76MOL0     H10453   8.468  10.670   6.257 -0.3611  2.2711  0.3688
   76MOL0     H10454   8.652  10.567   6.324 -1.4262  0.0863 -0.0470
   76MOL0     H10455   8.771  10.698   6.263  1.1648  0.2554  1.3944
   76MOL0     H10456   8.749  10.652   6.500 -1.6892 -2.4760 -1.6329
   76MOL0     H10457   8.586  10.726   6.491  0.7008  0.0274  2.3801
   76MOL0     H10458   8.680  10.925   6.354  1.7416 -1.1092 -2.4974
   76MOL0     H10459   8.840  10.871   6.396 -0.3669 -1.3504  0.6368
   76MOL0     H10460   8.780  10.922   6.655 -0.3512  5.0028  2.1819
   76MOL0     H10461   8.756  11.049   6.528  1.4608 -1.1475 -1.2102
   76MOL0     H10462   8.541  10.859   6.633 -0.5798  0.1488  2.5165
   76MOL0     H10463   8.524  11.006   6.518  0.4643  2.3111  1.9258
   76MOL0     H10464   8.595  11.146   6.690 -2.6511  1.0399 -1.8604
   76MOL0     H10465   8.620  11.015   6.799  0.5614 -0.9162 -0.7811
   76MOL0     H10466   8.378  10.949   6.819  1.3883  0.0582  2.1656
   76MOL0     H10467   8.332  11.065   6.690 -0.3883  1.9431  0.0208
   76MOL0     H10468   8.662  10.615   5.838 -0.1919 -0.5209 -1.4237
   76MOL0     H10469   8.573  10.676   5.647  2.1230  0.9149  0.9037
   76MOL0     H10470   8.385  11.032   5.430  1.1846  3.5796 -3.5304
   76MOL0     H10471   8.316  11.154   5.222 -0.8321  0.9884 -0.8195
   76MOL0     H10472   7.372  10.667   5.831  0.1077  1.5624 -0.5737
   76MOL0     H10473   7.170  10.661   5.990  0.2642  1.9183 -1.4865
   76MOL0     H10474   7.074  10.744   6.451  0.8784 -0.6717  1.0048
   76MOL0     H10475   6.898  10.688   6.606 -0.4628 -0.9035 -1.0960
   76MOL0     H10476   6.716  10.646   6.681  1.7092  0.4515 -0.6099
   76MOL0     H10477   6.725  10.780   6.789 -1.5983  3.0690 -0.7493
   76MOL0     H10478   6.527  10.603   6.818 -0.9916  0.9934  2.6717
   76MOL0     H10479   6.444  10.699   6.689 -2.2086  1.7966  0.8893
   76MOL0     H10480   6.558  10.805   6.952 -0.6523 -0.0773  0.5490
   76MOL0     H10481   6.487  10.908   6.825  5.4557  0.5303 -0.4568
   76MOL0     H10482   6.371  10.676   6.997  2.1197  1.0408  1.2458
   76MOL0     H10483   6.282  10.766   6.863  0.0482 -0.3087 -0.1840
   76MOL0     H10484   6.256  11.010   7.194  0.3435 -1.2662  0.8792
   76MOL0     H10485   6.625  10.946   6.401  0.0380 -2.6956 -4.2128
   76MOL0     H10486   6.762  10.969   6.119  2.5253  2.1351 -2.0025
   76MOL0     H10487   6.702  11.089   6.245  1.6086  1.0146  3.5883
   76MOL0     H10488   6.857  11.109   6.200 -1.2831  0.5913  3.1599
   77MOL0     O10489   8.925   2.131   1.735 -0.0477  0.0545  0.6110
   77MOL0     C10490   9.018   2.134   1.655 -0.4243  0.1850 -0.0507
   77MOL0     O10491   9.117   2.225   1.658  0.1494  0.2139 -0.1752
   77MOL0     C10492   9.112   2.339   1.748 -0.0528 -0.3204  0.6503
   77MOL0     C10493   9.234   2.403   1.781 -1.0217 -0.0832  1.0810
   77MOL0     C10494   9.235   2.520   1.852  0.4732 -0.0852 -0.2895
   77MOL0     C10495   9.115   2.574   1.903 -0.1976  0.1718  0.3143
   77MOL0     O10496   9.116   2.689   1.981  0.4166 -0.0397 -0.2803
   77MOL0     C10497   9.149   2.676   2.120  0.0599  0.0529  1.2958
   77MOL0     C10498   9.217   2.797   2.176 -0.6391 -0.5627 -1.1524
   77MOL0     C10499   9.240   2.801   2.330  0.1571  0.0608  0.6559
   77MOL0     C10500   9.315   2.670   2.382 -0.4065 -0.0441  0.0374
   77MOL0     C10501   9.343   2.690   2.533  0.1452  0.6711 -0.0814
   77MOL0     C10502   9.233   2.647   2.631  0.3127  0.1311  0.6072
   77MOL0     C10503   9.278   2.661   2.776  0.2342  0.6003 -0.0692
   77MOL0     C10504   9.248   2.794   2.834  0.4540 -0.4709 -0.2999
   77MOL0     N10505   9.293   2.820   2.971 -0.0335 -0.3434  0.1010
   77MOL0     C10506   9.271   2.736   3.073 -0.4411  0.0631 -0.0702
   77MOL0     C10507   9.323   2.802   3.177 -0.9888 -1.0737 -0.4025
   77MOL0     C10508   9.339   2.750   3.310 -0.1915 -0.0405  0.1546
   77MOL0     C10509   9.475   2.678   3.337 -0.0464 -0.3001 -0.1415
   77MOL0     C10510   9.595   2.754   3.295  0.2787  0.6675 -0.0350
   77MOL0     C10511   9.717   2.673   3.344 -0.1106  0.7458  0.2374
   77MOL0     O10512   9.830   2.758   3.328 -0.0094 -0.2227 -0.0432
   77MOL0     C10513   9.956   2.706   3.334 -0.3748  0.0832  1.1152
   77MOL0     C10514  10.042   2.772   3.416  0.5197 -0.1700 -0.6909
   77MOL0     C10515  10.176   2.736   3.435  0.9580  0.0201  0.1199
   77MOL0     C10516  10.265   2.828   3.513 -0.1837 -0.5404 -0.3659
   77MOL0     C10517  10.229   2.626   3.366  0.2531 -0.1008  0.1005
   77MOL0     C10518  10.359   2.563   3.388 -0.1748 -0.8840 -0.4402
   77MOL0     O10519  10.425   2.578   3.508  0.3271 -0.9366 -0.1680
   77MOL0     C10520  10.530   2.500   3.535  0.0890 -0.5133 -0.2598
   77MOL0     C10521  10.509   2.375   3.589 -0.3332 -0.0127 -1.0448
   77MOL0     C10522  10.619   2.293   3.617 -0.1954 -0.4035 -0.3642
   77MOL0     C10523  10.749   2.334   3.589 -0.0378 -0.3503  0.4168
   77MOL0     O10524  10.855   2.252   3.616 -0.5479 -0.5726  0.4955
   77MOL0     C10525  10.836   2.115   3.609  0.5393 -0.8221  0.7340
   77MOL0     C10526  10.962   2.050   3.563 -1.3776  0.1623  1.6876
   77MOL0     C10527  11.055   2.124   3.462 -0.7772 -0.2289  0.6635
   77MOL0     C10528  11.159   2.224   3.539 -0.0389 -0.0577  0.6186
   77MOL0     C10529  11.255   2.280   3.432  0.1762  0.5096 -0.0892
   77MOL0     C10530  11.375   2.355   3.498 -0.0112  0.1170 -0.0644
   77MOL0     C10531  11.321   2.470   3.597  0.1761  0.0938  0.6633
   77MOL0     C10532  11.426   2.577   3.622 -0.0729 -0.0112  0.2538
   77MOL0    Cl10533  11.471   2.668   3.484  0.0342  0.1597 -0.3679
   77MOL0     C10534  10.772   2.461   3.524 -0.4729  1.1990 -0.4116
   77MOL0     C10535  10.662   2.545   3.506  0.2594  0.0696  0.2951
   77MOL0     O10536  10.402   2.487   3.295  0.5244 -0.1293 -0.1732
   77MOL0     C10537  10.136   2.551   3.289  0.4926  0.2916 -0.1400
   77MOL0     C10538  10.002   2.595   3.268 -0.5246 -0.0023  0.5425
   77MOL0     N10539   9.357   2.933   3.133  0.7638  0.4394 -0.6321
   77MOL0     N10540   9.348   2.940   3.003 -0.4179 -0.1492 -0.9253
   77MOL0     C10541   8.999   2.508   1.884 -0.1865  0.1266 -0.0769
   77MOL0     C10542   8.995   2.389   1.811 -0.5092  0.5389  0.0903
   77MOL0     C10543   9.041   2.011   1.562  0.1828  0.2333  0.0572
   77MOL0     C10544   9.167   1.999   1.498 -0.0768  0.0937  0.1996
   77MOL0     C10545   9.205   1.890   1.410 -0.2901  0.2671 -0.9514
   77MOL0     C10546   9.109   1.792   1.403 -0.1986 -0.5523  1.3070
   77MOL0     O10547   9.130   1.689   1.325  0.0759  0.7762 -0.2717
   77MOL0     C10548   9.075   1.692   1.193  0.7043 -0.1667  0.1895
   77MOL0     C10549   9.031   1.562   1.130  0.0471 -0.2614  0.0561
   77MOL0     C10550   8.895   1.509   1.191 -0.5359 -0.2664 -0.2127
   77MOL0     C10551   8.849   1.372   1.132 -0.1681  0.3091 -1.2347
   77MOL0     C10552   8.951   1.265   1.113  0.0130  0.2786 -0.4247
   77MOL0     C10553   9.042   1.185   1.116 -0.4707  1.0244 -0.2383
   77MOL0     C10554   8.989   1.809   1.465  0.1917 -0.2289  1.0045
   77MOL0     C10555   8.952   1.908   1.551 -0.5595 -0.3274 -1.0774
   77MOL0     C10556   8.822   1.902   1.624 -0.2170 -0.3658 -0.3069
   77MOL0     H10557   9.324   2.377   1.726 -0.6697 -0.7430  1.9459
   77MOL0     H10558   9.319   2.586   1.872 -0.8976  1.6329  0.0123
   77MOL0     H10559   9.219   2.591   2.126 -1.7623 -1.7147 -0.7119
   77MOL0     H10560   9.053   2.649   2.166 -0.7950 -1.7876 -1.3462
   77MOL0     H10561   9.317   2.799   2.131  0.4669  1.5698  1.1325
   77MOL0     H10562   9.166   2.889   2.147 -5.6040 -1.7205  2.6935
   77MOL0     H10563   9.292   2.892   2.362  2.0918 -1.0957  0.9592
   77MOL0     H10564   9.138   2.809   2.371 -0.7805  0.1132 -1.5736
   77MOL0     H10565   9.255   2.579   2.372  0.3200 -0.2876 -3.1653
   77MOL0     H10566   9.407   2.652   2.327  0.7541  1.3700  1.4386
   77MOL0     H10567   9.365   2.796   2.547  1.6791  0.9463 -3.3969
   77MOL0     H10568   9.434   2.632   2.549 -0.1061 -0.5011 -2.3477
   77MOL0     H10569   9.140   2.705   2.623 -1.0160 -2.1213 -3.9905
   77MOL0     H10570   9.215   2.542   2.607  0.5413  0.3304 -0.5171
   77MOL0     H10571   9.384   2.635   2.787  0.1011 -2.9409 -4.1050
   77MOL0     H10572   9.220   2.590   2.835 -3.0052  3.4718  0.4584
   77MOL0     H10573   9.289   2.873   2.771  1.9069 -0.1729  0.9620
   77MOL0     H10574   9.139   2.799   2.838  0.5273  3.8135  1.1317
   77MOL0     H10575   9.217   2.643   3.061 -2.6530  1.3738 -0.9312
   77MOL0     H10576   9.261   2.675   3.327 -4.1670  2.5008 -4.3471
   77MOL0     H10577   9.325   2.836   3.376 -1.8410 -0.0929 -0.0856
   77MOL0     H10578   9.480   2.676   3.447 -1.5256  2.2056  0.0378
   77MOL0     H10579   9.476   2.578   3.294 -3.3143 -0.7414  0.5684
   77MOL0     H10580   9.590   2.765   3.186  0.5884 -0.4348 -0.1695
   77MOL0     H10581   9.582   2.848   3.350  0.4853 -0.6868  2.4826
   77MOL0     H10582   9.723   2.636   3.447  1.9626 -2.4218 -0.8640
   77MOL0     H10583   9.719   2.585   3.279  0.6189  0.5281  0.5463
   77MOL0     H10584  10.002   2.860   3.465 -2.0421 -1.0988 -0.9660
   77MOL0     H10585  10.249   2.936   3.523  1.6624 -0.1661 -0.9808
   77MOL0     H10586  10.369   2.823   3.479  0.9352 -0.1417  2.6827
   77MOL0     H10587  10.284   2.797   3.616 -0.8692  3.8871  1.3230
   77MOL0     H10588  10.404   2.363   3.615  0.6481 -1.8195  2.7857
   77MOL0     H10589  10.600   2.204   3.677 -0.5401 -1.5310 -2.0906
   77MOL0     H10590  10.799   2.070   3.701 -2.9275 -4.6478 -2.1329
   77MOL0     H10591  10.762   2.098   3.530  1.3874 -1.5595  0.0755
   77MOL0     H10592  11.031   2.012   3.639  1.7374  0.4359 -0.7941
   77MOL0     H10593  10.935   1.952   3.522  0.7325 -0.3303  1.3321
   77MOL0     H10594  10.988   2.168   3.387  1.0136 -1.3075 -1.7227
   77MOL0     H10595  11.117   2.062   3.396  2.2119  1.1971  1.9436
   77MOL0     H10596  11.204   2.161   3.616 -0.9450 -2.0434 -0.3916
   77MOL0     H10597  11.098   2.298   3.591 -0.5217 -1.7052  2.5101
   77MOL0     H10598  11.294   2.205   3.364 -2.9237 -0.3747 -1.0818
   77MOL0     H10599  11.201   2.351   3.368  3.1778  1.2827 -1.9517
   77MOL0     H10600  11.442   2.398   3.423 -0.1910  1.5257  0.5501
   77MOL0     H10601  11.447   2.289   3.548  1.4352  1.4483 -0.3018
   77MOL0     H10602  11.292   2.422   3.691  1.2864  0.2735  1.1093
   77MOL0     H10603  11.230   2.514   3.554  0.0501  0.8070  1.6340
   77MOL0     H10604  11.512   2.531   3.671 -1.1742  0.7413  3.1292
   77MOL0     H10605  11.372   2.642   3.691  0.6107 -0.5771  1.3385
   77MOL0     H10606  10.872   2.482   3.487 -0.4496 -2.0052 -2.5783
   77MOL0     H10607  10.681   2.643   3.464 -0.9854  0.1176 -0.2125
   77MOL0     H10608  10.173   2.453   3.259  2.8025  1.5398 -1.6506
   77MOL0     H10609   9.935   2.547   3.196  1.7744  0.1113 -1.8164
   77MOL0     H10610   8.914   2.550   1.937 -0.2132  2.6967 -1.9727
   77MOL0     H10611   8.896   2.351   1.790 -0.2982 -0.5472  0.9935
   77MOL0     H10612   9.241   2.076   1.516  1.6094 -1.5718  0.8334
   77MOL0     H10613   9.299   1.880   1.355 -0.9977  1.2446 -2.4092
   77MOL0     H10614   8.991   1.760   1.206  3.9582  3.8697  2.6087
   77MOL0     H10615   9.155   1.735   1.133  0.6665  1.1862  1.0708
   77MOL0     H10616   9.105   1.483   1.142 -0.2184 -0.1688  2.9354
   77MOL0     H10617   9.016   1.582   1.023 -1.4039 -1.6884 -0.0471
   77MOL0     H10618   8.903   1.503   1.300 -1.6939  0.6899 -0.0578
   77MOL0     H10619   8.814   1.582   1.179 -1.2030 -1.0026 -0.2881
   77MOL0     H10620   8.800   1.391   1.036  0.8513 -2.1406 -2.3453
   77MOL0     H10621   8.767   1.321   1.183  1.3857 -1.2919 -0.2003
   77MOL0     H10622   9.127   1.119   1.116 -0.0923  1.4731  1.1788
   77MOL0     H10623   8.924   1.724   1.453  1.4258 -1.1277  0.4437
   77MOL0     H10624   8.756   1.978   1.581 -0.8868 -0.1085  1.1261
   77MOL0     H10625   8.778   1.805   1.599 -1.3320  0.7038 -2.9359
   77MOL0     H10626   8.832   1.900   1.733 -1.1283 -2.5989 -0.2039
   78MOL0     O10627   0.499   0.921   2.976 -0.1001  0.0778 -0.0264
   78MOL0     C10628   0.545   0.814   3.005  1.0342 -0.7239 -0.1786
   78MOL0     O10629   0.561   0.765   3.144  0.7068 -0.5639  0.8928
   78MOL0     C10630   0.532   0.850   3.252  0.0268  0.4371 -0.6614
   78MOL0     C10631   0.573   0.792   3.378 -0.3403  0.1544 -0.3805
   78MOL0     C10632   0.566   0.863   3.498  0.0262 -0.6266  0.1502
   78MOL0     C10633   0.494   0.990   3.505  0.2890  0.3452  0.2291
   78MOL0     O10634   0.461   1.052   3.630 -0.3802 -0.9453  0.0593
   78MOL0     C10635   0.379   1.174   3.632 -0.2990  0.4803 -0.1221
   78MOL0     C10636   0.441   1.304   3.597 -0.9696 -0.4740 -0.2123
   78MOL0     C10637   0.552   1.323   3.697 -0.4488  0.6702  1.0429
   78MOL0     C10638   0.504   1.390   3.837  0.0900  0.6723  0.7199
   78MOL0     C10639   0.461   1.541   3.829  0.0532  0.1866 -0.9544
   78MOL0     C10640   0.332   1.554   3.899 -0.9101  0.1637 -0.0159
   78MOL0     C10641   0.248   1.682   3.870 -1.2126  0.2522  0.4521
   78MOL0     C10642   0.180   1.677   3.732  0.4200  0.1398  0.6156
   78MOL0     N10643   0.087   1.570   3.721  0.2592  0.2035  0.5860
   78MOL0     C10644  -0.045   1.590   3.750 -0.5435  0.1228 -0.2123
   78MOL0     C10645  -0.096   1.462   3.739 -0.1701  0.6169 -0.8678
   78MOL0     C10646  -0.240   1.422   3.756 -0.7942 -0.6463  0.1160
   78MOL0     C10647  -0.290   1.399   3.907 -0.8049  0.0331 -0.1237
   78MOL0     C10648  -0.219   1.279   3.966  0.2765 -0.0644 -0.5736
   78MOL0     C10649  -0.284   1.241   4.102 -0.4062  0.6688 -0.6466
   78MOL0     O10650  -0.414   1.182   4.077  0.0246 -0.2364 -0.1908
   78MOL0     C10651  -0.467   1.098   4.176 -0.2180 -0.0205  0.8692
   78MOL0     C10652  -0.596   1.044   4.160 -0.1679 -0.5584 -0.6482
   78MOL0     C10653  -0.656   0.959   4.255  0.5621  0.9763  0.5908
   78MOL0     C10654  -0.786   0.884   4.216 -0.2946 -0.3309 -0.1826
   78MOL0     C10655  -0.581   0.929   4.369  0.3668  1.2990 -0.8876
   78MOL0     C10656  -0.636   0.840   4.471  0.4238  0.9314 -0.1124
   78MOL0     O10657  -0.584   0.860   4.592 -0.1578 -0.1452 -0.2091
   78MOL0     C10658  -0.635   0.784   4.703 -1.0091 -0.3340  0.3690
   78MOL0     C10659  -0.684   0.870   4.802  0.4590  0.2814 -0.7553
   78MOL0     C10660  -0.730   0.814   4.927  0.5889  0.3359 -0.4486
   78MOL0     C10661  -0.746   0.675   4.937 -0.2887  1.4589 -0.7448
   78MOL0     O10662  -0.809   0.612   5.043  0.9510 -0.3806 -0.3285
   78MOL0     C10663  -0.883   0.689   5.149 -0.8352 -0.1650 -0.2345
   78MOL0     C10664  -0.952   0.579   5.230 -0.1082 -0.6533 -0.4109
   78MOL0     C10665  -1.070   0.504   5.169 -0.1056 -0.7027 -0.1126
   78MOL0     C10666  -1.126   0.396   5.258  0.9432  0.2576  0.0043
   78MOL0     C10667  -1.257   0.325   5.216  0.4073  0.6774 -0.4735
   78MOL0     C10668  -1.297   0.191   5.292 -1.0086 -0.7922 -0.5732
   78MOL0     C10669  -1.378   0.098   5.196 -0.3901 -0.6062 -0.6467
   78MOL0     C10670  -1.416  -0.039   5.267 -0.6620 -0.8063  0.6244
   78MOL0    Cl10671  -1.279  -0.154   5.268 -0.1079 -0.4996  0.2050
   78MOL0     C10672  -0.705   0.586   4.829  0.1548 -0.7386  0.8044
   78MOL0     C10673  -0.648   0.647   4.714  0.7379 -0.0462 -0.4108
   78MOL0     O10674  -0.703   0.745   4.436  0.3843  0.4083  0.3335
   78MOL0     C10675  -0.457   0.996   4.396 -0.3700 -0.2234 -1.0036
   78MOL0     C10676  -0.399   1.076   4.303  0.1582 -0.3517  0.2143
   78MOL0     N10677  -0.007   1.384   3.675 -0.2273  0.7214 -0.2660
   78MOL0     N10678   0.110   1.447   3.674  0.1666  0.5797 -0.4365
   78MOL0     C10679   0.460   1.044   3.380  0.2324  0.0765 -0.5300
   78MOL0     C10680   0.481   0.979   3.265  0.7904  0.3026  0.6093
   78MOL0     C10681   0.573   0.730   2.891  0.1872 -0.3143  0.0160
   78MOL0     C10682   0.514   0.765   2.759 -0.5779  0.6480 -0.9771
   78MOL0     C10683   0.529   0.682   2.652 -0.3166 -0.5416  0.5185
   78MOL0     C10684   0.592   0.562   2.660 -0.1055  0.9360 -0.8532
   78MOL0     O10685   0.594   0.483   2.550  0.5442  0.4368 -0.2692
   78MOL0     C10686   0.626   0.339   2.553 -0.0361 -0.0794 -0.6193
   78MOL0     C10687   0.586   0.285   2.410  0.1446  0.8867  0.7013
   78MOL0     C10688   0.561   0.138   2.408  0.6841  0.2803  0.5508
   78MOL0     C10689   0.405   0.110   2.405  0.0901  0.1399 -0.1058
   78MOL0     C10690   0.340   0.165   2.292 -1.1734 -0.2793  0.2376
   78MOL0     C10691   0.301   0.208   2.186  0.5135  0.2986  0.0791
   78MOL0     C10692   0.648   0.527   2.788 -0.0182 -0.0497  0.2137
   78MOL0     C10693   0.651   0.609   2.898 -0.0282 -0.2686 -0.3958
   78MOL0     C10694   0.722   0.579   3.024 -0.2655  0.0675  0.2844
   78MOL0     H10695   0.605   0.689   3.367  1.0091  0.7225 -2.2261
   78MOL0     H10696   0.593   0.821   3.595 -0.8255  0.2513  0.7895
   78MOL0     H10697   0.344   1.172   3.736  1.2573  1.7007  0.4546
   78MOL0     H10698   0.288   1.155   3.574 -1.2579  2.0044  0.8062
   78MOL0     H10699   0.484   1.301   3.497  2.0615  1.3979  0.8908
   78MOL0     H10700   0.378   1.393   3.600  0.5978  0.7333 -1.3613
   78MOL0     H10701   0.598   1.225   3.712 -1.3089  0.2678  1.1444
   78MOL0     H10702   0.629   1.392   3.662 -1.3572  1.8053  1.2227
   78MOL0     H10703   0.431   1.318   3.875 -1.2674  1.8512  0.4364
   78MOL0     H10704   0.585   1.396   3.910 -0.8734  0.1669  1.8529
   78MOL0     H10705   0.449   1.567   3.724 -2.8588 -1.6749 -1.1792
   78MOL0     H10706   0.536   1.606   3.875  0.5492  0.8322 -2.6149
   78MOL0     H10707   0.265   1.468   3.884 -2.6309  1.1255  1.6779
   78MOL0     H10708   0.359   1.562   4.005  1.1101  2.3678 -0.6221
   78MOL0     H10709   0.297   1.777   3.894  1.8389 -1.3227  1.0412
   78MOL0     H10710   0.169   1.677   3.945 -0.5573  0.2248  1.1586
   78MOL0     H10711   0.133   1.774   3.715 -1.1457  0.0594  3.7958
   78MOL0     H10712   0.248   1.652   3.650  2.1940  2.7594  1.1667
   78MOL0     H10713  -0.087   1.680   3.794  0.1887  0.3429  0.0464
   78MOL0     H10714  -0.267   1.342   3.687 -0.8037  0.2644 -0.9682
   78MOL0     H10715  -0.292   1.511   3.718  2.4128  0.4474 -2.1605
   78MOL0     H10716  -0.262   1.490   3.962 -0.3627  1.0800 -1.9732
   78MOL0     H10717  -0.399   1.395   3.909 -0.8402  0.4529 -0.8119
   78MOL0     H10718  -0.224   1.188   3.905 -0.0524 -0.6078  0.2439
   78MOL0     H10719  -0.115   1.310   3.977  1.4518 -2.6899 -2.9818
   78MOL0     H10720  -0.206   1.182   4.150 -0.5817  0.6151 -0.4271
   78MOL0     H10721  -0.296   1.328   4.167  0.7721  0.6633 -0.4050
   78MOL0     H10722  -0.641   1.047   4.061  1.9256  0.8802 -1.6252
   78MOL0     H10723  -0.848   0.935   4.142  0.1800  0.8494  0.2155
   78MOL0     H10724  -0.845   0.882   4.309  0.0631  4.4994  0.3883
   78MOL0     H10725  -0.748   0.793   4.168  3.8338  1.3700 -0.5300
   78MOL0     H10726  -0.696   0.974   4.773  1.0505  0.1494 -1.5224
   78MOL0     H10727  -0.756   0.876   5.012  0.3725  0.3125 -0.4973
   78MOL0     H10728  -0.811   0.744   5.210 -1.0469 -1.5571  1.3573
   78MOL0     H10729  -0.956   0.761   5.113 -1.8926 -0.3037  1.5356
   78MOL0     H10730  -0.878   0.501   5.249 -1.5304 -2.2419 -1.1751
   78MOL0     H10731  -0.984   0.616   5.328 -0.0105  1.9131 -1.2621
   78MOL0     H10732  -1.036   0.448   5.081 -0.5999  0.7180 -1.2520
   78MOL0     H10733  -1.152   0.572   5.142  1.2614  1.1376  0.1764
   78MOL0     H10734  -1.148   0.444   5.354  0.5204 -0.5936  0.3449
   78MOL0     H10735  -1.045   0.324   5.278  1.8027  1.2101  0.0178
   78MOL0     H10736  -1.337   0.396   5.237 -1.7905 -2.0315  0.9761
   78MOL0     H10737  -1.251   0.321   5.107  1.7615  4.8408 -0.7442
   78MOL0     H10738  -1.343   0.207   5.390  1.1856 -1.5237  0.6342
   78MOL0     H10739  -1.217   0.123   5.321 -1.6278 -0.3779  2.4431
   78MOL0     H10740  -1.314   0.087   5.108 -0.4801  2.7603 -1.2623
   78MOL0     H10741  -1.473   0.152   5.185 -1.6543 -2.0251  2.1772
   78MOL0     H10742  -1.495  -0.091   5.213  0.6183  0.1265 -2.3827
   78MOL0     H10743  -1.437  -0.019   5.373  0.5913  3.4076  0.2703
   78MOL0     H10744  -0.718   0.479   4.839  0.4212 -1.4652 -4.1052
   78MOL0     H10745  -0.609   0.584   4.635  1.0038 -1.6004  0.8980
   78MOL0     H10746  -0.394   0.984   4.484  3.0777  3.7574 -2.6100
   78MOL0     H10747  -0.295   1.106   4.312  0.3753 -0.8282 -0.6110
   78MOL0     H10748   0.416   1.144   3.375  3.6369  1.7529 -0.2350
   78MOL0     H10749   0.450   1.032   3.175 -0.7620  2.2217  2.1680
   78MOL0     H10750   0.446   0.849   2.753 -0.4736  0.6185 -3.8416
   78MOL0     H10751   0.482   0.713   2.559 -0.6279  0.4042  0.9810
   78MOL0     H10752   0.728   0.321   2.589 -1.2216  0.7018  3.7083
   78MOL0     H10753   0.556   0.297   2.625 -1.9980 -0.9708 -2.9177
   78MOL0     H10754   0.661   0.298   2.332  2.0319 -2.5555  1.7406
   78MOL0     H10755   0.500   0.341   2.371  1.9628  1.1985 -3.3060
   78MOL0     H10756   0.612   0.084   2.328  2.6431  1.9210  0.6163
   78MOL0     H10757   0.599   0.090   2.499 -0.4385  0.4448  1.1208
   78MOL0     H10758   0.362   0.138   2.502 -0.3477  0.2437 -0.3237
   78MOL0     H10759   0.399   0.001   2.395  3.7039 -0.0361 -1.9425
   78MOL0     H10760   0.284   0.239   2.085 -0.8154 -0.5767  0.0006
   78MOL0     H10761   0.694   0.428   2.796 -0.7178 -0.3952  0.0329
   78MOL0     H10762   0.803   0.506   3.014  0.9571  0.9746  2.7304
   78MOL0     H10763   0.766   0.674   3.052  1.4242 -0.8675  0.9621
   78MOL0     H10764   0.645   0.544   3.093  0.2593 -0.1271  0.7817
   79MOL0     O10765   2.651   4.976   9.900  0.1142  0.0228  0.1822
   79MOL0     C10766   2.738   5.040   9.956 -0.1309  0.6325  0.1110
   79MOL0     O10767   2.843   4.986  10.030 -0.8957  0.3664  0.1531
   79MOL0     C10768   2.835   4.855  10.074  0.3364  0.3818  0.3819
   79MOL0     C10769   2.729   4.796  10.141  0.5522 -0.6117 -0.0006
   79MOL0     C10770   2.718   4.662  10.172 -0.3259  0.2779  0.7218
   79MOL0     C10771   2.816   4.574  10.119 -0.3278 -0.3734 -0.2793
   79MOL0     O10772   2.825   4.441  10.134 -0.9231  0.0225 -0.7745
   79MOL0     C10773   2.706   4.383  10.187  0.1733  0.6633 -0.4330
   79MOL0     C10774   2.744   4.229  10.188  0.0047 -0.8184  0.6474
   79MOL0     C10775   2.712   4.172  10.049 -0.3195 -0.0739 -0.5687
   79MOL0     C10776   2.761   4.027  10.038 -0.0115  0.0360  0.0059
   79MOL0     C10777   2.705   3.943   9.922 -0.3984 -0.0104  0.0322
   79MOL0     C10778   2.753   3.796   9.930 -0.9658 -0.5560  0.2228
   79MOL0     C10779   2.685   3.719   9.812  0.0010 -0.5856 -0.5492
   79MOL0     C10780   2.753   3.733   9.673  0.2387  0.0698 -0.0319
   79MOL0     N10781   2.892   3.678   9.667  0.2739 -0.5757  0.9580
   79MOL0     C10782   2.939   3.553   9.697 -0.7237 -0.0886 -0.8461
   79MOL0     C10783   3.077   3.568   9.700  1.2806 -0.4717  1.2198
   79MOL0     C10784   3.188   3.472   9.729 -0.0693 -0.8479 -0.1894
   79MOL0     C10785   3.225   3.498   9.885  0.3611  0.9174 -0.0838
   79MOL0     C10786   3.345   3.405   9.912 -1.2797  0.4457  0.6936
   79MOL0     C10787   3.329   3.313  10.033 -0.2735  1.4988  0.0055
   79MOL0     O10788   3.456   3.258  10.074  0.5549 -0.4485 -0.7787
   79MOL0     C10789   3.469   3.284  10.212 -0.0954 -0.0421 -0.2600
   79MOL0     C10790   3.459   3.182  10.307  0.0518  0.7371 -0.2288
   79MOL0     C10791   3.455   3.198  10.449 -0.3496 -1.4721  0.8160
   79MOL0     C10792   3.416   3.076  10.529  0.8001  0.1035  0.5658
   79MOL0     C10793   3.468   3.333  10.496  0.6422 -0.1505  0.2116
   79MOL0     C10794   3.440   3.370  10.631 -0.7163 -0.8567 -0.3971
   79MOL0     O10795   3.485   3.496  10.663  1.0634 -0.9365  0.0479
   79MOL0     C10796   3.438   3.548  10.786  0.3828  0.5221  0.4816
   79MOL0     C10797   3.387   3.679  10.797 -0.9492 -0.1537 -0.6535
   79MOL0     C10798   3.358   3.740  10.923 -0.0396  0.5966 -0.4082
   79MOL0     C10799   3.379   3.670  11.037  0.0656 -0.3055 -0.0587
   79MOL0     O10800   3.341   3.735  11.157  0.2515 -0.3026 -0.2407
   79MOL0     C10801   3.444   3.799  11.228 -1.2923  0.8344 -0.3191
   79MOL0     C10802   3.515   3.716  11.336  0.2308  0.4731 -0.5472
   79MOL0     C10803   3.421   3.652  11.445 -1.0545 -0.0086  0.3302
   79MOL0     C10804   3.502   3.606  11.562  0.0606  0.5751  0.2237
   79MOL0     C10805   3.420   3.587  11.683  0.6185  0.4884 -1.0811
   79MOL0     C10806   3.331   3.459  11.681 -0.4438 -0.6462  0.1691
   79MOL0     C10807   3.350   3.372  11.805 -0.4994  0.2326  1.6068
   79MOL0     C10808   3.268   3.241  11.797  0.2213  0.6811 -0.7205
   79MOL0    Cl10809   3.298   3.148  11.660 -0.8068  0.2958 -0.1878
   79MOL0     C10810   3.447   3.551  11.031 -0.7141  1.6632 -0.5567
   79MOL0     C10811   3.474   3.490  10.912 -0.8726 -0.5181  1.0400
   79MOL0     O10812   3.400   3.291  10.712 -0.5874  0.5771 -0.5810
   79MOL0     C10813   3.497   3.431  10.389  0.5435  0.3941 -0.5528
   79MOL0     C10814   3.498   3.410  10.251  0.6350  0.8325 -0.2546
   79MOL0     N10815   3.101   3.694   9.655 -0.6539  0.2876  0.2279
   79MOL0     N10816   2.993   3.761   9.642 -0.2303 -0.4111 -0.0984
   79MOL0     C10817   2.936   4.625  10.073  0.6911 -0.6450  0.2632
   79MOL0     C10818   2.949   4.763  10.052  0.4602  0.0012  0.1165
   79MOL0     C10819   2.707   5.189   9.968 -0.1353  1.3475  0.8631
   79MOL0     C10820   2.749   5.247  10.089  1.1035  0.6003 -0.3026
   79MOL0     C10821   2.729   5.383  10.112  0.5330  0.3351 -1.6976
   79MOL0     C10822   2.655   5.461  10.028 -0.4519 -0.7792  0.2868
   79MOL0     O10823   2.630   5.585  10.083 -0.4796 -0.7198 -0.3230
   79MOL0     C10824   2.541   5.691  10.023 -0.1194 -0.1803 -1.0229
   79MOL0     C10825   2.403   5.683  10.100  0.0087 -0.2861 -0.3645
   79MOL0     C10826   2.328   5.563  10.059  0.8670 -0.2853 -0.1719
   79MOL0     C10827   2.186   5.565  10.106  1.1116 -0.2996 -0.5659
   79MOL0     C10828   2.096   5.663  10.030 -0.6942 -0.0234  0.7348
   79MOL0     C10829   2.033   5.748   9.957 -0.7555 -0.1685  0.1838
   79MOL0     C10830   2.603   5.409   9.903 -0.3016  0.7059 -0.1749
   79MOL0     C10831   2.629   5.273   9.882 -0.7257 -0.2017  0.1491
   79MOL0     C10832   2.592   5.234   9.735 -0.3543 -0.1665 -0.5714
   79MOL0     H10833   2.654   4.872  10.161  0.4866 -0.5429 -0.4997
   79MOL0     H10834   2.639   4.612  10.228 -1.4378 -0.9709 -1.7953
   79MOL0     H10835   2.608   4.409  10.144 -0.3094  1.8464  1.2692
   79MOL0     H10836   2.706   4.420  10.290  0.0547  2.7264 -1.1204
   79MOL0     H10837   2.847   4.226  10.226 -0.3202  3.8770  2.6402
   79MOL0     H10838   2.689   4.175  10.266  1.1223  0.5346  2.4650
   79MOL0     H10839   2.603   4.166  10.038 -0.6147 -0.9409  2.1956
   79MOL0     H10840   2.754   4.227   9.964 -1.4796  0.2719 -0.9351
   79MOL0     H10841   2.869   4.024  10.022 -0.0252  1.3031 -0.4541
   79MOL0     H10842   2.762   3.975  10.135  1.1623  0.5223  0.2760
   79MOL0     H10843   2.735   3.981   9.824  3.0989 -2.0133  0.1539
   79MOL0     H10844   2.596   3.945   9.933 -0.4983  1.6717 -0.8261
   79MOL0     H10845   2.862   3.794   9.922 -1.0530  1.5022 -3.3651
   79MOL0     H10846   2.728   3.754  10.028  1.7152 -0.3783  1.0773
   79MOL0     H10847   2.577   3.736   9.806 -0.2082 -1.5422  0.2702
   79MOL0     H10848   2.685   3.615   9.845  0.4605 -0.9737 -1.7438
   79MOL0     H10849   2.691   3.675   9.604  0.5423  0.7120 -0.8624
   79MOL0     H10850   2.756   3.841   9.661  0.9486 -0.0493 -1.1053
   79MOL0     H10851   2.887   3.460   9.714  1.8504 -1.3733  0.5203
   79MOL0     H10852   3.266   3.504   9.660  1.3531 -1.3326  1.1443
   79MOL0     H10853   3.143   3.374   9.711 -0.6749 -0.7792  0.8018
   79MOL0     H10854   3.246   3.604   9.901 -2.7458  1.2852  2.5552
   79MOL0     H10855   3.148   3.466   9.955  2.2699  2.2667  2.8115
   79MOL0     H10856   3.363   3.346   9.822 -2.5767  2.3639 -0.8951
   79MOL0     H10857   3.440   3.455   9.930 -0.9576 -0.0818  0.4757
   79MOL0     H10858   3.286   3.365  10.119  1.3552  1.6726  0.7514
   79MOL0     H10859   3.267   3.227  10.007  0.9774 -0.5561  3.1651
   79MOL0     H10860   3.434   3.086  10.262  0.9431  0.8096 -0.9012
   79MOL0     H10861   3.342   3.022  10.469  0.7923  0.3456  0.3574
   79MOL0     H10862   3.372   3.096  10.627  0.7753  2.7420  0.0885
   79MOL0     H10863   3.497   3.005  10.549 -1.0109 -2.0717  0.6446
   79MOL0     H10864   3.369   3.738  10.708 -0.0311 -0.3183 -0.9594
   79MOL0     H10865   3.308   3.836  10.913  1.1121  1.4417  1.4938
   79MOL0     H10866   3.525   3.837  11.166  0.2375  1.1633  1.7574
   79MOL0     H10867   3.407   3.891  11.274  0.5294 -0.0898  3.3815
   79MOL0     H10868   3.571   3.640  11.281 -0.0359  0.6277 -1.0484
   79MOL0     H10869   3.585   3.781  11.388 -0.9888  0.5337  1.0988
   79MOL0     H10870   3.371   3.569  11.395  1.6369 -1.1974 -0.5660
   79MOL0     H10871   3.353   3.736  11.460  0.2069  1.2187 -0.5036
   79MOL0     H10872   3.575   3.682  11.593 -0.0868  1.1614 -0.7970
   79MOL0     H10873   3.547   3.513  11.526 -2.3829 -0.1660 -1.1529
   79MOL0     H10874   3.490   3.580  11.766  1.9734  2.8464 -1.9181
   79MOL0     H10875   3.362   3.675  11.713  0.5146  1.2567 -3.2938
   79MOL0     H10876   3.361   3.402  11.592 -0.2297  0.6776 -0.6296
   79MOL0     H10877   3.230   3.499  11.670  0.1930  0.6122 -1.4449
   79MOL0     H10878   3.332   3.426  11.898 -0.3139 -1.0400  2.4039
   79MOL0     H10879   3.452   3.334  11.801 -0.8495 -0.6034 -0.2378
   79MOL0     H10880   3.165   3.273  11.816  0.6288  1.7293 -0.1701
   79MOL0     H10881   3.298   3.180  11.883 -1.4948  3.5862  2.1648
   79MOL0     H10882   3.477   3.507  11.125 -1.1837  1.1755 -0.6280
   79MOL0     H10883   3.511   3.388  10.922 -2.6658 -1.1245  1.7368
   79MOL0     H10884   3.501   3.532  10.427  0.6301  2.0452 -4.4906
   79MOL0     H10885   3.495   3.503  10.195 -0.0612  1.1348  0.2693
   79MOL0     H10886   3.017   4.554  10.059  0.9139 -0.2354 -0.5788
   79MOL0     H10887   3.044   4.803  10.017  1.8901 -0.3831  3.1939
   79MOL0     H10888   2.806   5.200  10.168  3.7288  0.8343 -1.9484
   79MOL0     H10889   2.763   5.428  10.205 -0.2243 -1.1240 -0.6633
   79MOL0     H10890   2.581   5.790  10.044 -0.5987  0.1155 -1.4773
   79MOL0     H10891   2.533   5.679   9.914 -0.9707 -2.9003 -0.7504
   79MOL0     H10892   2.345   5.772  10.073  2.2880  1.3597 -0.1183
   79MOL0     H10893   2.401   5.681  10.209  0.2776  0.8488 -0.3238
   79MOL0     H10894   2.324   5.545   9.951 -0.7108 -1.7237  0.0854
   79MOL0     H10895   2.372   5.473  10.103  1.4869 -0.4363 -1.0765
   79MOL0     H10896   2.172   5.589  10.212 -3.5712 -2.6372 -0.3741
   79MOL0     H10897   2.141   5.465  10.100 -3.0646  1.4358 -1.7098
   79MOL0     H10898   1.984   5.828   9.905  0.9047  1.6399  1.2845
   79MOL0     H10899   2.563   5.468   9.821  1.3012 -2.0191 -3.1576
   79MOL0     H10900   2.514   5.162   9.762 -0.4686  0.9968  2.5059
   79MOL0     H10901   2.559   5.322   9.680 -3.3212 -1.5290 -1.1936
   79MOL0     H10902   2.679   5.189   9.686 -0.3234  0.3434 -0.9923
   80MOL0     O10903   0.967   8.885   2.121 -0.2163  0.0541 -0.3597
   80MOL0     C10904   0.991   8.951   2.226  0.4415  1.1757  0.8600
   80MOL0     O10905   1.095   9.035   2.240  0.0451  0.5113  0.6244
   80MOL0     C10906   1.204   9.045   2.153 -0.7612 -0.4045  0.2144
   80MOL0     C10907   1.211   9.002   2.016 -1.0705  0.1728 -0.6051
   80MOL0     C10908   1.330   9.017   1.944 -1.1199  0.4388 -0.7949
   80MOL0     C10909   1.449   9.066   2.002  0.3148  0.1705  0.5295
   80MOL0     O10910   1.567   9.083   1.936  1.2061  0.4087  0.7813
   80MOL0     C10911   1.676   9.011   1.994 -0.5469 -0.4848  0.7210
   80MOL0     C10912   1.781   8.982   1.879 -0.9614  0.0685  0.0841
   80MOL0     C10913   1.886   8.884   1.922  0.4210 -0.6253 -0.2433
   80MOL0     C10914   1.981   8.844   1.809  0.2163  0.1461  0.7632
   80MOL0     C10915   2.076   8.749   1.852 -0.7860  0.1636 -0.5265
   80MOL0     C10916   2.154   8.693   1.727  0.4273 -0.8393 -0.3060
   80MOL0     C10917   2.225   8.562   1.763  0.5583 -0.6588  0.0883
   80MOL0     C10918   2.293   8.495   1.645  0.6388 -0.4179 -0.1327
   80MOL0     N10919   2.430   8.516   1.606  0.2971 -0.2666  0.2577
   80MOL0     C10920   2.536   8.441   1.644 -0.8454 -0.0860 -0.0154
   80MOL0     C10921   2.658   8.501   1.611  0.5379 -0.5823 -0.1970
   80MOL0     C10922   2.787   8.433   1.654 -0.5927  0.0561  0.0499
   80MOL0     C10923   2.924   8.477   1.585  0.9017 -0.3216  0.0146
   80MOL0     C10924   2.967   8.616   1.601 -0.2767  0.3354  0.4236
   80MOL0     C10925   3.090   8.630   1.691 -0.6236  0.1543 -0.6253
   80MOL0     O10926   3.103   8.769   1.719  0.0329  0.0647  0.1396
   80MOL0     C10927   3.214   8.815   1.792 -0.5090 -0.1058  0.5388
   80MOL0     C10928   3.277   8.939   1.762  0.4894  0.6479 -0.3977
   80MOL0     C10929   3.391   8.979   1.830 -0.9679  0.2322 -0.3312
   80MOL0     C10930   3.467   9.097   1.775  0.5221 -0.7262 -0.2603
   80MOL0     C10931   3.442   8.909   1.944 -0.2362 -0.4892 -0.4173
   80MOL0     C10932   3.571   8.950   2.025  0.6524  0.4265 -0.5282
   80MOL0     O10933   3.639   9.059   1.980 -0.2085  0.6099 -0.5213
   80MOL0     C10934   3.752   9.089   2.051 -0.4473  0.3201 -1.1669
   80MOL0     C10935   3.788   9.221   2.077 -0.0495 -0.5437 -0.0875
   80MOL0     C10936   3.898   9.257   2.149 -0.1099 -0.3700 -0.3319
   80MOL0     C10937   3.992   9.158   2.183 -0.5082 -0.7504 -0.8090
   80MOL0     O10938   4.098   9.178   2.269 -0.6539 -0.5915  0.4642
   80MOL0     C10939   4.171   9.305   2.262  0.0341 -0.0646  0.4315
   80MOL0     C10940   4.280   9.310   2.363  0.7514 -0.1819 -0.2476
   80MOL0     C10941   4.241   9.277   2.505  0.6496  0.6176  0.2375
   80MOL0     C10942   4.374   9.282   2.590 -0.7750  0.9860 -0.0292
   80MOL0     C10943   4.344   9.262   2.734 -0.3427  0.6794 -0.0689
   80MOL0     C10944   4.459   9.306   2.818  0.2438 -0.9583 -0.4711
   80MOL0     C10945   4.551   9.186   2.837  0.3716  0.6271 -0.6574
   80MOL0     C10946   4.670   9.230   2.928  0.0407 -0.0929  0.6091
   80MOL0    Cl10947   4.762   9.366   2.855  0.0627 -0.1147  0.4643
   80MOL0     C10948   3.957   9.031   2.166  0.0476  0.4729 -0.2058
   80MOL0     C10949   3.849   8.989   2.089 -0.2787  0.3255 -0.5918
   80MOL0     O10950   3.600   8.881   2.124 -0.0587  0.4830 -0.7592
   80MOL0     C10951   3.369   8.792   1.981  0.4223  0.9067  0.8052
   80MOL0     C10952   3.262   8.742   1.901 -0.2950  0.1741  0.3752
   80MOL0     N10953   2.619   8.626   1.556  0.3943  0.0687  0.1794
   80MOL0     N10954   2.487   8.635   1.574 -0.1148  0.1936  0.3385
   80MOL0     C10955   1.442   9.116   2.131  0.0258 -0.5157  1.0602
   80MOL0     C10956   1.319   9.114   2.198  0.3591  0.3305 -0.0690
   80MOL0     C10957   0.883   8.942   2.325  0.2130  0.7820 -0.0478
   80MOL0     C10958   0.778   8.855   2.305  0.6325 -0.1364 -0.2478
   80MOL0     C10959   0.676   8.831   2.398 -0.6145 -0.7803 -0.5944
   80MOL0     C10960   0.663   8.918   2.513 -0.2925  0.3901 -0.1236
   80MOL0     O10961   0.571   8.905   2.618 -0.0322 -0.0275  0.0576
   80MOL0     C10962   0.494   8.785   2.613  0.3458 -0.2806 -0.5148
   80MOL0     C10963   0.383   8.766   2.713  0.0463  0.0909  0.5015
   80MOL0     C10964   0.318   8.626   2.693 -0.6728 -0.4177  0.1607
   80MOL0     C10965   0.216   8.596   2.810  0.2341 -0.0438  0.0574
   80MOL0     C10966   0.168   8.463   2.799  0.4577  0.9214  0.2330
   80MOL0     C10967   0.109   8.356   2.776  0.2016  1.1911 -0.0864
   80MOL0     C10968   0.760   9.020   2.524  0.4448 -0.7593 -0.3298
   80MOL0     C10969   0.877   9.029   2.441 -0.5418  0.6534 -0.6493
   80MOL0     C10970   0.988   9.131   2.486 -0.2530  0.4911 -0.0920
   80MOL0     H10971   1.119   8.965   1.970 -3.4126  3.1927  1.2498
   80MOL0     H10972   1.345   9.006   1.837  0.5822  3.4395 -0.9938
   80MOL0     H10973   1.637   8.913   2.024 -1.3085 -0.7578 -1.0412
   80MOL0     H10974   1.726   9.064   2.075  0.3302 -1.0114  0.5338
   80MOL0     H10975   1.733   8.948   1.787  0.5406  2.1247 -1.5556
   80MOL0     H10976   1.828   9.078   1.857 -0.0803 -0.4588 -0.4081
   80MOL0     H10977   1.938   8.918   2.012 -3.6631  0.1488  2.0457
   80MOL0     H10978   1.828   8.795   1.949 -0.4790  0.3907  1.3323
   80MOL0     H10979   1.918   8.791   1.736 -1.7374 -0.4963  2.7981
   80MOL0     H10980   2.027   8.928   1.757 -0.3803 -0.6831 -1.2263
   80MOL0     H10981   2.024   8.668   1.904 -2.2605  2.1521  1.3072
   80MOL0     H10982   2.143   8.797   1.924  2.2938 -1.9878 -1.7660
   80MOL0     H10983   2.081   8.664   1.652 -0.8404  2.0314 -0.3254
   80MOL0     H10984   2.221   8.771   1.690  0.1994  0.7135  2.2991
   80MOL0     H10985   2.148   8.494   1.800  0.0722  0.3497  0.9885
   80MOL0     H10986   2.298   8.591   1.839  2.9973 -2.8413 -1.2715
   80MOL0     H10987   2.289   8.386   1.653  4.6053 -0.5823  2.6899
   80MOL0     H10988   2.229   8.510   1.558  2.0282  1.8739 -0.8403
   80MOL0     H10989   2.524   8.353   1.706  2.2059 -1.2795 -0.9388
   80MOL0     H10990   2.785   8.325   1.637  1.1832  0.3884 -3.0951
   80MOL0     H10991   2.787   8.435   1.763 -3.1164 -2.1666  0.1647
   80MOL0     H10992   3.004   8.410   1.616  0.6624 -1.5657 -1.8593
   80MOL0     H10993   2.924   8.450   1.478  0.5184 -1.5106  0.2997
   80MOL0     H10994   2.985   8.658   1.502 -1.9718  1.6181  0.6217
   80MOL0     H10995   2.883   8.668   1.648 -1.4224 -3.5239  3.2051
   80MOL0     H10996   3.077   8.558   1.773 -2.5339 -0.3845 -1.3416
   80MOL0     H10997   3.170   8.599   1.624 -0.8550  0.8763 -1.2472
   80MOL0     H10998   3.244   8.996   1.675 -0.5226  2.0800  0.8775
   80MOL0     H10999   3.569   9.067   1.748 -0.7645 -2.2976 -4.0512
   80MOL0     H11000   3.467   9.179   1.848 -0.4011 -1.4533  0.5913
   80MOL0     H11001   3.422   9.123   1.679  1.5871  2.5725  0.0281
   80MOL0     H11002   3.725   9.302   2.042  0.4970 -0.1104 -0.0665
   80MOL0     H11003   3.912   9.360   2.179  2.4593  0.1568 -2.9133
   80MOL0     H11004   4.226   9.308   2.167  3.2399 -2.3654  2.0062
   80MOL0     H11005   4.112   9.397   2.265  1.7555  1.0690  0.8955
   80MOL0     H11006   4.351   9.228   2.347 -1.2608 -1.8458 -1.1019
   80MOL0     H11007   4.328   9.408   2.357  0.3585  0.3646  3.3682
   80MOL0     H11008   4.196   9.178   2.511  2.3222 -0.1048  2.1875
   80MOL0     H11009   4.157   9.341   2.532  0.1392 -0.2449  0.7553
   80MOL0     H11010   4.422   9.377   2.567  1.8037  0.6885  3.3478
   80MOL0     H11011   4.433   9.191   2.570  0.2492  1.7105 -0.3751
   80MOL0     H11012   4.251   9.315   2.757 -1.5729 -1.9137  1.3644
   80MOL0     H11013   4.310   9.161   2.757  0.7171  0.6553  1.5288
   80MOL0     H11014   4.426   9.348   2.913  0.2512 -1.4377 -0.2533
   80MOL0     H11015   4.511   9.393   2.775 -0.2316 -0.6766 -0.4716
   80MOL0     H11016   4.589   9.148   2.741  4.1587  1.3340  0.3869
   80MOL0     H11017   4.503   9.105   2.892  0.3071  2.0539  1.4802
   80MOL0     H11018   4.734   9.147   2.957  0.0761 -0.3566 -0.1903
   80MOL0     H11019   4.637   9.247   3.030  1.6211 -2.5553  1.6197
   80MOL0     H11020   4.025   8.951   2.192 -0.1755 -0.6980 -2.8382
   80MOL0     H11021   3.837   8.882   2.072 -2.3678  0.5754 -0.8640
   80MOL0     H11022   3.409   8.719   2.051 -1.0172  0.6159  1.3535
   80MOL0     H11023   3.214   8.649   1.928  0.1077  0.1292  0.9445
   80MOL0     H11024   1.532   9.168   2.164  0.3856  0.9431 -1.8780
   80MOL0     H11025   1.324   9.148   2.301  2.4538 -2.1568  0.7717
   80MOL0     H11026   0.786   8.790   2.219  0.5846  0.0914 -0.4251
   80MOL0     H11027   0.615   8.742   2.409  0.3333 -1.1726  2.9136
   80MOL0     H11028   0.451   8.788   2.513  1.0258  2.2892 -0.8109
   80MOL0     H11029   0.562   8.701   2.626 -1.8627 -1.8102  2.6102
   80MOL0     H11030   0.304   8.841   2.722 -1.2899 -1.5848  4.6400
   80MOL0     H11031   0.427   8.777   2.812 -0.8114  1.3777  0.7628
   80MOL0     H11032   0.284   8.624   2.589  3.4017  6.7774 -2.0225
   80MOL0     H11033   0.399   8.554   2.708  1.1010  1.1845 -1.2703
   80MOL0     H11034   0.120   8.648   2.808 -0.0905 -0.6542 -0.5658
   80MOL0     H11035   0.265   8.606   2.908  3.5921 -0.5822 -1.4405
   80MOL0     H11036   0.046   8.273   2.750 -0.6696  1.9844 -0.5694
   80MOL0     H11037   0.738   9.084   2.610 -2.1091  0.4870 -1.7836
   80MOL0     H11038   1.028   9.090   2.580  0.9935 -2.7329 -1.8838
   80MOL0     H11039   1.079   9.142   2.426  0.1144  4.4095  0.9211
   80MOL0     H11040   0.951   9.233   2.501  2.4658  1.3944  1.2670
   81MOL0     O11041   5.242   4.662   8.914 -0.2006  0.3695  0.3225
   81MOL0     C11042   5.216   4.580   8.827  0.6885 -0.1368  0.6433
   81MOL0     O11043   5.240   4.596   8.689  0.0490  0.2746 -0.6083
   81MOL0     C11044   5.224   4.715   8.628  0.8997  0.7468 -0.8000
   81MOL0     C11045   5.142   4.814   8.682 -0.2163 -0.3767  0.0542
   81MOL0     C11046   5.126   4.938   8.620  0.0826  0.9466  0.7527
   81MOL0     C11047   5.184   4.958   8.495  0.4946 -0.3491  1.0077
   81MOL0     O11048   5.185   5.071   8.418  0.6726  0.3180  0.9791
   81MOL0     C11049   5.090   5.176   8.462  0.1053 -0.4687 -0.9948
   81MOL0     C11050   5.089   5.291   8.363  0.7424 -0.2159  0.2163
   81MOL0     C11051   4.988   5.400   8.422  0.1426 -0.5555 -0.1683
   81MOL0     C11052   4.985   5.531   8.348 -0.0813 -0.0723  0.1924
   81MOL0     C11053   4.878   5.626   8.399 -0.4532 -0.2971 -0.0379
   81MOL0     C11054   4.740   5.565   8.379  0.1031  0.1147  0.8143
   81MOL0     C11055   4.626   5.673   8.390  0.2671  0.4216  0.8102
   81MOL0     C11056   4.629   5.765   8.262  0.1326  0.4517  0.0978
   81MOL0     N11057   4.509   5.738   8.186  0.4104 -0.2512 -0.2984
   81MOL0     C11058   4.475   5.646   8.095  0.2892 -0.1151  1.0180
   81MOL0     C11059   4.347   5.665   8.071 -0.4309 -0.1264  0.3038
   81MOL0     C11060   4.270   5.569   7.975  0.2667  0.0040  0.3824
   81MOL0     C11061   4.300   5.604   7.827  0.1995 -0.0246  0.8236
   81MOL0     C11062   4.408   5.519   7.772 -0.1945  0.5341 -0.7562
   81MOL0     C11063   4.444   5.538   7.622 -0.4213 -0.1016  0.4528
   81MOL0     O11064   4.492   5.673   7.600 -0.3726 -0.6796 -1.0861
   81MOL0     C11065   4.482   5.736   7.477  0.0262  0.8386  0.6449
   81MOL0     C11066   4.515   5.875   7.482 -0.7578 -0.0380 -0.2461
   81MOL0     C11067   4.510   5.950   7.367 -0.6705  0.0039  0.2930
   81MOL0     C11068   4.516   6.108   7.375  1.3144  0.2494 -0.0456
   81MOL0     C11069   4.484   5.885   7.245  1.1527  0.2496 -0.8073
   81MOL0     C11070   4.472   5.954   7.116  0.7194 -0.3218  0.6297
   81MOL0     O11071   4.352   5.943   7.048  0.4479 -0.0605  0.4683
   81MOL0     C11072   4.319   6.031   6.952  1.4592 -0.2835  0.1623
   81MOL0     C11073   4.241   5.969   6.854  0.5942  0.7012 -0.0489
   81MOL0     C11074   4.194   6.054   6.754 -0.1881  0.2211 -1.5083
   81MOL0     C11075   4.224   6.189   6.747  0.2743 -0.0364 -0.9057
   81MOL0     O11076   4.179   6.268   6.640  0.1523  0.1793 -0.1820
   81MOL0     C11077   4.052   6.228   6.568  0.3521 -0.1930  0.3548
   81MOL0     C11078   4.090   6.143   6.443 -0.0735  0.1748 -0.8556
   81MOL0     C11079   4.088   6.222   6.320 -0.3163 -0.0734  0.5275
   81MOL0     C11080   4.161   6.135   6.211  0.4890  0.3492  0.0005
   81MOL0     C11081   4.121   6.172   6.067  0.5412  0.1338 -0.3356
   81MOL0     C11082   3.970   6.152   6.026 -0.4726 -0.1156 -0.5015
   81MOL0     C11083   3.945   6.178   5.874 -0.7285 -0.0124 -0.6504
   81MOL0     C11084   3.805   6.131   5.835 -0.1055 -0.3353 -0.2247
   81MOL0    Cl11085   3.662   6.203   5.929  0.3223  0.5792  0.0344
   81MOL0     C11086   4.294   6.254   6.851  0.2726 -0.4242 -0.3953
   81MOL0     C11087   4.333   6.174   6.959  1.0320 -1.0064 -0.2823
   81MOL0     O11088   4.564   6.028   7.089 -0.1385 -0.0408  0.4518
   81MOL0     C11089   4.443   5.750   7.240  0.3837  0.2708 -0.0425
   81MOL0     C11090   4.448   5.668   7.359 -0.6282 -0.6001 -0.5685
   81MOL0     N11091   4.296   5.764   8.155 -0.0994 -0.6258  0.6472
   81MOL0     N11092   4.396   5.812   8.216 -0.5957 -0.2357  0.8398
   81MOL0     C11093   5.253   4.850   8.435 -0.1444  0.5948 -0.5878
   81MOL0     C11094   5.260   4.728   8.493  0.2469  0.2373  0.4302
   81MOL0     C11095   5.164   4.452   8.885  0.9245  0.5415 -0.5161
   81MOL0     C11096   5.122   4.444   9.024 -0.5209 -0.5415 -0.7216
   81MOL0     C11097   5.071   4.319   9.074  0.5099 -0.2688  0.8230
   81MOL0     C11098   5.048   4.215   8.991 -0.0206  0.3202  0.4200
   81MOL0     O11099   4.995   4.098   9.029 -0.1325  0.5650 -0.0716
   81MOL0     C11100   4.995   4.045   9.172  0.9900  0.5054  0.9049
   81MOL0     C11101   4.874   4.091   9.246  0.2422 -0.1832 -0.4763
   81MOL0     C11102   4.747   4.069   9.165  0.0810  0.1508 -0.1634
   81MOL0     C11103   4.650   3.963   9.218 -0.8292 -0.2240  0.3687
   81MOL0     C11104   4.706   3.831   9.208  0.3843  0.2477  0.2212
   81MOL0     C11105   4.767   3.723   9.209  0.2018 -0.2569  0.9211
   81MOL0     C11106   5.077   4.222   8.861 -0.0705  1.1327  0.8867
   81MOL0     C11107   5.145   4.331   8.808  0.3644 -0.4546 -0.3343
   81MOL0     C11108   5.211   4.314   8.670 -0.2036 -0.5662  0.0066
   81MOL0     H11109   5.103   4.804   8.783 -0.3564  0.9930  0.1524
   81MOL0     H11110   5.079   5.019   8.674  1.2798  0.4842  2.5641
   81MOL0     H11111   5.126   5.221   8.555  0.4665 -1.6012 -0.5727
   81MOL0     H11112   4.988   5.140   8.472 -0.3821  1.2431  0.8467
   81MOL0     H11113   5.183   5.343   8.348 -0.0299  0.4243 -3.0699
   81MOL0     H11114   5.056   5.256   8.265  0.5322  3.1447 -1.0474
   81MOL0     H11115   4.889   5.355   8.424  0.6314 -1.6473  1.5563
   81MOL0     H11116   5.009   5.420   8.527 -3.9868 -3.4892  1.4759
   81MOL0     H11117   5.083   5.581   8.350  1.4995 -2.7690  4.2292
   81MOL0     H11118   4.964   5.518   8.242 -1.7305  0.4486  0.4211
   81MOL0     H11119   4.873   5.716   8.337  1.9491 -1.5136 -2.1843
   81MOL0     H11120   4.890   5.641   8.507 -2.5388 -0.7993  0.3196
   81MOL0     H11121   4.738   5.513   8.283  0.7330  0.7809  0.4245
   81MOL0     H11122   4.716   5.502   8.465  0.0256  0.1847  0.8439
   81MOL0     H11123   4.634   5.745   8.471 -0.3264 -0.2290  1.4563
   81MOL0     H11124   4.535   5.613   8.399  2.0950 -3.2970 -2.4101
   81MOL0     H11125   4.646   5.872   8.276  1.2044  0.3270 -0.1574
   81MOL0     H11126   4.716   5.739   8.201  1.6605  1.9043  1.5214
   81MOL0     H11127   4.543   5.576   8.048 -0.0920  2.0158 -3.2687
   81MOL0     H11128   4.167   5.599   7.995  0.2049 -1.1620  1.9820
   81MOL0     H11129   4.275   5.463   8.001  3.2236  0.2964  1.4007
   81MOL0     H11130   4.206   5.599   7.770 -0.0620  0.4111  1.2076
   81MOL0     H11131   4.341   5.705   7.819 -0.3085  0.4264  3.1103
   81MOL0     H11132   4.502   5.526   7.826  0.2127 -2.0410 -1.0040
   81MOL0     H11133   4.375   5.415   7.779  0.3551  0.1318 -3.1170
   81MOL0     H11134   4.523   5.463   7.609  1.2118  1.2497  2.0317
   81MOL0     H11135   4.359   5.522   7.556 -0.4352 -0.2564  0.5073
   81MOL0     H11136   4.527   5.909   7.584  1.1933 -0.8452 -0.1648
   81MOL0     H11137   4.416   6.145   7.352  0.4659 -1.8477  0.0531
   81MOL0     H11138   4.588   6.156   7.308  2.6869 -2.0035 -0.2899
   81MOL0     H11139   4.535   6.141   7.478  0.6543 -0.7790  0.4201
   81MOL0     H11140   4.215   5.864   6.851 -0.7999  1.0386 -1.4959
   81MOL0     H11141   4.133   6.017   6.673 -2.7687  3.3999 -1.2118
   81MOL0     H11142   3.990   6.170   6.637 -1.3838 -0.2515 -1.1649
   81MOL0     H11143   4.002   6.324   6.550  4.3807  2.0609  0.0305
   81MOL0     H11144   4.190   6.098   6.452  0.1953  0.4776 -2.1148
   81MOL0     H11145   4.018   6.061   6.444 -0.4750  0.2092  4.8939
   81MOL0     H11146   4.150   6.309   6.342  2.7215 -1.5166 -1.7002
   81MOL0     H11147   3.987   6.256   6.294 -0.7946 -1.7510  0.0917
   81MOL0     H11148   4.148   6.027   6.221 -2.0847  0.7384  2.2382
   81MOL0     H11149   4.269   6.142   6.225  0.6363 -1.5975 -0.0016
   81MOL0     H11150   4.146   6.276   6.045  1.7441 -0.5873 -2.6941
   81MOL0     H11151   4.182   6.108   6.003  0.0610 -0.7100  0.0348
   81MOL0     H11152   3.911   6.222   6.087  0.7277 -0.5551  1.2049
   81MOL0     H11153   3.944   6.047   6.041  2.1351 -0.5922  1.3354
   81MOL0     H11154   4.016   6.115   5.820 -1.9594 -0.9330 -1.2592
   81MOL0     H11155   3.963   6.283   5.853  2.5524 -0.3844 -0.2383
   81MOL0     H11156   3.799   6.022   5.828 -4.0170 -0.5334  2.7284
   81MOL0     H11157   3.783   6.159   5.732  0.1524 -2.9728 -1.0624
   81MOL0     H11158   4.314   6.361   6.853  0.6911 -0.5132  1.0105
   81MOL0     H11159   4.395   6.210   7.039 -0.2577 -0.8051  0.6552
   81MOL0     H11160   4.397   5.709   7.151 -0.6390  0.0726  0.5613
   81MOL0     H11161   4.439   5.561   7.348  1.3826 -0.9283  0.5751
   81MOL0     H11162   5.305   4.879   8.344  0.7479  0.9225  0.0145
   81MOL0     H11163   5.312   4.655   8.432 -2.8263 -1.9498  0.1977
   81MOL0     H11164   5.135   4.530   9.088  1.9993 -1.6633  0.3938
   81MOL0     H11165   5.050   4.310   9.180  0.4440 -2.9814  0.6342
   81MOL0     H11166   4.988   3.936   9.168 -1.6177  0.6450 -1.2523
   81MOL0     H11167   5.087   4.070   9.226  1.6528  1.5562 -0.6608
   81MOL0     H11168   4.876   4.199   9.266  0.2584 -0.1646 -0.5810
   81MOL0     H11169   4.867   4.033   9.339 -0.2948 -1.7570 -1.4661
   81MOL0     H11170   4.689   4.162   9.160  4.4756  3.4413  2.0212
   81MOL0     H11171   4.768   4.040   9.061 -2.7953 -0.3564 -0.6684
   81MOL0     H11172   4.559   3.968   9.157  0.0596 -3.7705 -1.5136
   81MOL0     H11173   4.617   3.978   9.322 -0.0933 -0.1607  0.5951
   81MOL0     H11174   4.819   3.630   9.198 -1.1352 -0.8436 -1.1019
   81MOL0     H11175   5.075   4.135   8.796 -2.6167  0.2789  1.9899
   81MOL0     H11176   5.162   4.376   8.594 -1.2349 -0.6379  0.5954
   81MOL0     H11177   5.317   4.328   8.689  0.2636 -0.4316 -2.3638
   81MOL0     H11178   5.202   4.211   8.634  1.1663  0.1048 -2.5268
   82MOL0     O11179   3.971   6.370   5.476 -0.8961  0.4813 -0.0438
   82MOL0     C11180   3.927   6.289   5.393 -0.4917 -0.2086  0.4022
   82MOL0     O11181   3.820   6.315   5.313 -0.3805 -0.5853  0.8173
   82MOL0     C11182   3.776   6.447   5.299 -0.6991  0.9628  0.4428
   82MOL0     C11183   3.767   6.494   5.174  0.4127 -0.8639  1.2259
   82MOL0     C11184   3.731   6.626   5.144 -0.0992 -0.1263 -0.4541
   82MOL0     C11185   3.680   6.708   5.249  0.0556 -0.5343  0.0135
   82MOL0     O11186   3.630   6.838   5.241  0.0913  0.8491 -0.5195
   82MOL0     C11187   3.643   6.918   5.123 -0.2833  0.3972 -0.2955
   82MOL0     C11188   3.793   6.944   5.095  0.3309  0.3924  0.2956
   82MOL0     C11189   3.856   7.010   5.225 -0.0070 -0.3181  0.6205
   82MOL0     C11190   3.823   7.157   5.231  0.1870  0.0850  0.0106
   82MOL0     C11191   3.864   7.208   5.367 -0.3739 -0.5956  0.4693
   82MOL0     C11192   3.859   7.357   5.392  0.5841  0.2544  1.7026
   82MOL0     C11193   3.885   7.395   5.538  0.1304 -0.2903 -0.0643
   82MOL0     C11194   4.008   7.329   5.619 -0.6602  1.0153  0.4241
   82MOL0     N11195   4.145   7.360   5.557 -0.0591  0.7119 -0.7641
   82MOL0     C11196   4.235   7.264   5.511  0.1048  0.1072 -0.8560
   82MOL0     C11197   4.348   7.340   5.489 -0.2053  0.2508  0.0724
   82MOL0     C11198   4.466   7.276   5.443 -0.1982 -0.5266 -0.0027
   82MOL0     C11199   4.482   7.279   5.292  0.7940 -0.6189  0.0459
   82MOL0     C11200   4.384   7.188   5.208  0.3823  1.1413  0.2937
   82MOL0     C11201   4.263   7.260   5.148 -0.0045 -0.6539  0.1198
   82MOL0     O11202   4.306   7.351   5.050  0.9359  0.2648 -0.4866
   82MOL0     C11203   4.204   7.394   4.972  0.0950  0.1323  1.2344
   82MOL0     C11204   4.075   7.428   5.014 -0.7638 -0.3163 -0.0095
   82MOL0     C11205   3.977   7.484   4.927 -0.4099  0.3253  0.7248
   82MOL0     C11206   3.867   7.562   4.979  0.7051 -0.7157 -0.4852
   82MOL0     C11207   3.994   7.472   4.784  0.9128  0.5061  0.3051
   82MOL0     C11208   3.889   7.497   4.685  0.0111 -0.3786  0.4295
   82MOL0     O11209   3.860   7.633   4.682 -0.6045 -0.6037 -0.4951
   82MOL0     C11210   3.764   7.673   4.590 -0.1875 -0.0957 -0.4291
   82MOL0     C11211   3.804   7.764   4.485  0.1882  0.8190 -0.4229
   82MOL0     C11212   3.702   7.797   4.391 -0.6301 -0.8829  0.3528
   82MOL0     C11213   3.573   7.741   4.388  0.7162 -0.6151  0.4698
   82MOL0     O11214   3.469   7.791   4.307  0.3162 -0.4456  0.5535
   82MOL0     C11215   3.481   7.742   4.170  0.4602 -0.7459 -0.1448
   82MOL0     C11216   3.480   7.870   4.076  0.0525  0.5692 -0.8951
   82MOL0     C11217   3.333   7.921   4.078 -0.2229 -0.6997 -0.0908
   82MOL0     C11218   3.261   7.890   3.942 -0.8317 -0.4671  0.2610
   82MOL0     C11219   3.111   7.888   3.937 -0.9062  0.2929  1.2453
   82MOL0     C11220   3.053   8.033   3.943  0.3165  0.2654 -0.0420
   82MOL0     C11221   2.909   8.048   3.895 -0.1888  0.3075  0.2460
   82MOL0     C11222   2.808   8.016   4.003 -0.5571  0.5507  0.8423
   82MOL0    Cl11223   2.828   8.130   4.148 -0.1739  0.0103 -0.1044
   82MOL0     C11224   3.537   7.656   4.491  0.5449  0.6276  0.2882
   82MOL0     C11225   3.626   7.623   4.593  0.0183  0.8531 -0.1125
   82MOL0     O11226   3.865   7.408   4.606  0.0740  0.5526  0.3391
   82MOL0     C11227   4.113   7.421   4.737  0.5239  0.3014 -0.0376
   82MOL0     C11228   4.218   7.398   4.828 -0.6827 -0.1425 -0.2682
   82MOL0     N11229   4.322   7.476   5.510  0.0033  0.3960 -0.1570
   82MOL0     N11230   4.195   7.485   5.542  0.2955  0.1879  0.1611
   82MOL0     C11231   3.678   6.651   5.377  0.2358  0.3334 -1.1436
   82MOL0     C11232   3.730   6.525   5.404 -0.1852 -0.4181 -0.7876
   82MOL0     C11233   3.987   6.158   5.378  0.0201  0.8340  0.5004
   82MOL0     C11234   3.900   6.050   5.324  0.2696  0.5885  0.5339
   82MOL0     C11235   3.950   5.930   5.287  0.2739  0.4949  0.6544
   82MOL0     C11236   4.085   5.899   5.324  0.0619  0.2995  0.2201
   82MOL0     O11237   4.123   5.767   5.291 -0.1695  0.0423 -0.1367
   82MOL0     C11238   4.190   5.684   5.374 -0.6913  0.0867 -0.2135
   82MOL0     C11239   4.343   5.705   5.379 -0.5119  1.2324 -0.5377
   82MOL0     C11240   4.419   5.601   5.471  0.1357 -0.8839 -0.3184
   82MOL0     C11241   4.562   5.585   5.416 -0.9364  0.4650  0.4449
   82MOL0     C11242   4.629   5.710   5.416 -0.2287  0.7051  0.3166
   82MOL0     C11243   4.687   5.815   5.405  0.2561  0.1396  0.2309
   82MOL0     C11244   4.164   5.996   5.386 -0.7491  1.5490  1.1255
   82MOL0     C11245   4.122   6.123   5.398  0.6202  0.1116  0.2043
   82MOL0     C11246   4.219   6.222   5.442  0.3860  0.3837 -0.6328
   82MOL0     H11247   3.797   6.440   5.084  0.0201  2.1020 -0.8547
   82MOL0     H11248   3.731   6.648   5.038  3.3451 -1.1644 -0.7934
   82MOL0     H11249   3.590   7.012   5.140 -1.1346 -0.4164  1.8122
   82MOL0     H11250   3.604   6.873   5.031  0.2949  0.5670 -0.6317
   82MOL0     H11251   3.849   6.859   5.055 -0.4332  0.6477 -1.3677
   82MOL0     H11252   3.791   7.022   5.019 -0.9080  1.4336  1.3406
   82MOL0     H11253   3.831   6.960   5.319  0.0388 -0.0741  0.7653
   82MOL0     H11254   3.965   7.011   5.214  0.0730  3.4037  0.1791
   82MOL0     H11255   3.864   7.211   5.146 -2.0717  0.2608 -1.0244
   82MOL0     H11256   3.714   7.162   5.219 -0.4740 -4.0052  2.3779
   82MOL0     H11257   3.969   7.181   5.381 -0.6241 -2.7124 -1.1711
   82MOL0     H11258   3.796   7.160   5.438  0.2991 -3.1352 -0.4960
   82MOL0     H11259   3.916   7.418   5.322 -0.5714 -0.4055  0.1279
   82MOL0     H11260   3.757   7.386   5.365  0.9727 -0.7276 -1.1247
   82MOL0     H11261   3.798   7.368   5.598 -1.6750  2.0956 -1.4489
   82MOL0     H11262   3.908   7.502   5.549 -0.0507 -0.4249  2.1903
   82MOL0     H11263   4.013   7.352   5.725  1.3931 -0.8792  0.8343
   82MOL0     H11264   3.995   7.220   5.612  1.7828  0.6655  0.0777
   82MOL0     H11265   4.213   7.159   5.492  3.3503 -0.6413 -0.9745
   82MOL0     H11266   4.455   7.170   5.468 -3.4695 -0.0880  0.8947
   82MOL0     H11267   4.553   7.314   5.497 -1.4114  2.0612  0.2566
   82MOL0     H11268   4.455   7.379   5.258 -1.8353 -0.5607  1.9790
   82MOL0     H11269   4.588   7.261   5.269  0.8763  0.3155 -0.3530
   82MOL0     H11270   4.424   7.154   5.113  0.7000 -0.5652  0.9994
   82MOL0     H11271   4.353   7.108   5.276  0.5172 -0.2662 -1.2369
   82MOL0     H11272   4.192   7.185   5.113 -0.1803  0.2681 -1.6253
   82MOL0     H11273   4.214   7.324   5.222  0.2086  0.0459 -0.3271
   82MOL0     H11274   4.050   7.432   5.119 -0.1623  0.4299  0.1195
   82MOL0     H11275   3.768   7.535   4.941  1.8093 -0.7416 -3.5808
   82MOL0     H11276   3.884   7.665   4.944 -3.5405  0.4831  0.3301
   82MOL0     H11277   3.876   7.565   5.088  0.2194  1.1819 -0.4573
   82MOL0     H11278   3.906   7.801   4.475  0.7178 -0.4943 -0.2199
   82MOL0     H11279   3.739   7.857   4.309  2.0951  0.1439  2.2047
   82MOL0     H11280   3.560   7.675   4.134  0.8286  0.3401 -1.4726
   82MOL0     H11281   3.386   7.692   4.151 -0.4972  1.8081 -3.0047
   82MOL0     H11282   3.548   7.935   4.131 -1.2982  0.7080  0.7160
   82MOL0     H11283   3.511   7.835   3.977  0.6476 -1.2904 -0.0979
   82MOL0     H11284   3.327   8.030   4.092  1.1399 -0.5182 -0.6745
   82MOL0     H11285   3.269   7.885   4.159 -0.8173  2.8160  1.1762
   82MOL0     H11286   3.290   7.786   3.924 -1.0326 -0.9840  2.6399
   82MOL0     H11287   3.309   7.948   3.863 -1.1786 -2.0032 -1.1406
   82MOL0     H11288   3.084   7.859   3.835  1.6069  1.3955  0.1618
   82MOL0     H11289   3.071   7.816   4.008 -1.5502 -1.6598 -0.9913
   82MOL0     H11290   3.120   8.096   3.884  1.0401  0.2585  0.7467
   82MOL0     H11291   3.061   8.064   4.048 -0.5320  0.2787  0.0202
   82MOL0     H11292   2.886   7.991   3.805 -2.5045  1.6768 -0.1057
   82MOL0     H11293   2.900   8.156   3.879 -1.4753  0.6019  2.5955
   82MOL0     H11294   2.821   7.909   4.017  1.9611  0.4109 -1.6619
   82MOL0     H11295   2.705   8.018   3.967  0.4826  0.8041 -2.4711
   82MOL0     H11296   3.442   7.608   4.470  1.1907 -0.2756 -0.6246
   82MOL0     H11297   3.585   7.554   4.666  1.7077 -1.3761 -1.1374
   82MOL0     H11298   4.127   7.419   4.630 -2.7396  1.2653 -0.5667
   82MOL0     H11299   4.323   7.378   4.807  1.6810  2.8786  6.0586
   82MOL0     H11300   3.646   6.704   5.466  2.5813 -4.2237  2.9106
   82MOL0     H11301   3.721   6.480   5.502  1.4397 -0.7379 -0.7600
   82MOL0     H11302   3.794   6.064   5.303  0.1861 -1.2732 -0.5139
   82MOL0     H11303   3.897   5.846   5.243  3.0670 -1.3319  0.5821
   82MOL0     H11304   4.152   5.688   5.477  1.6446  0.5361  0.6987
   82MOL0     H11305   4.182   5.584   5.330  1.8272 -0.7073  0.9622
   82MOL0     H11306   4.378   5.804   5.412  1.7022  1.3720 -2.9862
   82MOL0     H11307   4.384   5.682   5.280 -1.1537 -3.9921  0.1315
   82MOL0     H11308   4.421   5.647   5.570 -2.1941  1.2673 -1.1656
   82MOL0     H11309   4.361   5.508   5.478  0.6167 -1.0824  1.9492
   82MOL0     H11310   4.548   5.554   5.312  1.3349  1.9177 -0.3695
   82MOL0     H11311   4.622   5.510   5.470 -2.6513  0.2159  2.1003
   82MOL0     H11312   4.737   5.909   5.394  0.1261 -0.0917 -3.2820
   82MOL0     H11313   4.268   5.973   5.409 -1.7723 -1.7887  3.2195
   82MOL0     H11314   4.224   6.302   5.367  0.4700  1.6068  0.6271
   82MOL0     H11315   4.199   6.262   5.541 -0.1773 -0.8594 -0.2311
   82MOL0     H11316   4.325   6.196   5.437  1.2860  3.6076 -0.7861
   83MOL0     O11317   4.704   0.874   5.764  0.7761  0.3751  0.3779
   83MOL0     C11318   4.597   0.812   5.770  0.1601  0.2219 -0.5796
   83MOL0     O11319   4.481   0.838   5.711 -0.1178  0.7788 -0.6236
   83MOL0     C11320   4.460   0.948   5.641 -0.6093 -0.3385  0.4232
   83MOL0     C11321   4.374   0.935   5.527 -0.2679  0.0451 -0.8535
   83MOL0     C11322   4.344   1.049   5.453  0.0405  0.2615 -0.2052
   83MOL0     C11323   4.398   1.172   5.488  0.6422 -0.2555  1.0829
   83MOL0     O11324   4.373   1.294   5.425  0.2741  0.5123  0.6804
   83MOL0     C11325   4.282   1.299   5.313 -0.3577 -0.4165  1.0487
   83MOL0     C11326   4.142   1.314   5.364 -0.0324  0.7319 -1.0269
   83MOL0     C11327   4.042   1.322   5.245 -0.3119  0.2923  0.3083
   83MOL0     C11328   3.897   1.330   5.305  0.0869 -0.5484  0.2597
   83MOL0     C11329   3.800   1.372   5.191  0.0633  0.3554 -0.8029
   83MOL0     C11330   3.803   1.524   5.150 -0.8552  1.0676  0.1469
   83MOL0     C11331   3.705   1.603   5.239  0.1940  0.6987  0.4687
   83MOL0     C11332   3.723   1.757   5.222  0.3725  0.7127 -0.1239
   83MOL0     N11333   3.658   1.826   5.112  0.1333  0.3943  0.7089
   83MOL0     C11334   3.521   1.831   5.083  0.1918  0.0749  0.4457
   83MOL0     C11335   3.521   1.844   4.947 -0.8817 -0.0689 -0.2521
   83MOL0     C11336   3.414   1.866   4.841  0.2097  1.1557 -0.5849
   83MOL0     C11337   3.387   2.020   4.837 -0.2012 -0.3034 -0.2024
   83MOL0     C11338   3.295   2.059   4.714 -0.2362  0.3914  0.0315
   83MOL0     C11339   3.281   2.199   4.681  1.4722  0.4628  0.6193
   83MOL0     O11340   3.268   2.292   4.786 -0.3662 -0.1220 -0.7566
   83MOL0     C11341   3.267   2.427   4.753  0.0124  0.2542 -0.0295
   83MOL0     C11342   3.372   2.499   4.815  0.5077 -0.4060  0.5535
   83MOL0     C11343   3.377   2.635   4.816 -0.1652 -0.0011 -0.5601
   83MOL0     C11344   3.490   2.710   4.890 -0.1125  0.9641  0.4605
   83MOL0     C11345   3.285   2.705   4.729  0.5789 -0.1441 -0.4490
   83MOL0     C11346   3.272   2.856   4.723 -1.4847  1.5307 -0.0800
   83MOL0     O11347   3.208   2.907   4.610 -0.4285  0.3360 -0.0820
   83MOL0     C11348   3.145   3.025   4.632 -0.3129  0.5910  0.5870
   83MOL0     C11349   3.135   3.110   4.518 -0.4247  0.1354 -0.4154
   83MOL0     C11350   3.052   3.224   4.517  0.8365  0.2267  0.4410
   83MOL0     C11351   2.981   3.257   4.634 -1.0420  0.9613  0.1668
   83MOL0     O11352   2.895   3.368   4.637 -0.2108 -0.7418 -0.2296
   83MOL0     C11353   2.783   3.344   4.548 -0.2573 -0.0904  0.2791
   83MOL0     C11354   2.685   3.244   4.613  0.8225  0.1252 -0.1946
   83MOL0     C11355   2.555   3.221   4.520 -0.2937  1.2315 -0.1461
   83MOL0     C11356   2.455   3.344   4.534 -0.7316 -0.1091  1.2230
   83MOL0     C11357   2.316   3.308   4.478 -0.4796 -0.9747 -0.7448
   83MOL0     C11358   2.215   3.422   4.509  0.5211 -0.2856  0.6929
   83MOL0     C11359   2.072   3.376   4.473 -0.8238 -1.0399 -0.7801
   83MOL0     C11360   1.973   3.493   4.477 -0.2001  0.3903 -0.6866
   83MOL0    Cl11361   1.807   3.423   4.441  0.2871  0.3092 -0.1426
   83MOL0     C11362   2.991   3.174   4.746 -0.5471 -1.0707  0.1044
   83MOL0     C11363   3.066   3.057   4.743  0.3843  0.0527 -0.2474
   83MOL0     O11364   3.325   2.929   4.814 -0.0615  0.2929  0.2230
   83MOL0     C11365   3.204   2.630   4.641 -0.2209 -0.4647  0.1454
   83MOL0     C11366   3.189   2.491   4.652  0.4543  0.4880  0.6634
   83MOL0     N11367   3.647   1.867   4.901  0.8211 -0.3264 -0.7231
   83MOL0     N11368   3.731   1.846   5.003  0.8671  0.2779  0.2666
   83MOL0     C11369   4.481   1.180   5.601 -0.5574  0.5245  0.2356
   83MOL0     C11370   4.507   1.068   5.678  0.8241 -0.2849  0.2248
   83MOL0     C11371   4.607   0.677   5.852 -0.0297  0.0230 -0.1412
   83MOL0     C11372   4.695   0.667   5.960  0.2889  0.0871  0.2663
   83MOL0     C11373   4.693   0.566   6.051 -0.2317  0.0626  0.3939
   83MOL0     C11374   4.623   0.455   6.022 -0.4355  0.9286 -0.8151
   83MOL0     O11375   4.622   0.351   6.111  0.0745  0.5571  0.6205
   83MOL0     C11376   4.543   0.370   6.226  0.0703 -0.0337  0.3782
   83MOL0     C11377   4.499   0.233   6.289  0.0733 -0.2849 -0.9199
   83MOL0     C11378   4.620   0.146   6.341 -0.4643  0.1976  0.1121
   83MOL0     C11379   4.662   0.048   6.229 -1.4189 -0.1616 -0.3805
   83MOL0     C11380   4.569  -0.067   6.262  0.5605  0.0289 -0.1517
   83MOL0     C11381   4.507  -0.151   6.313 -0.0221 -0.3398 -0.3098
   83MOL0     C11382   4.550   0.456   5.909  0.4760 -0.0741  1.2317
   83MOL0     C11383   4.543   0.561   5.820 -0.8688 -1.3040  0.1428
   83MOL0     C11384   4.488   0.546   5.676 -0.0491  0.4378 -0.7205
   83MOL0     H11385   4.336   0.836   5.505  0.0754 -0.7406  1.7158
   83MOL0     H11386   4.282   1.038   5.365  1.5317 -2.1795 -1.0497
   83MOL0     H11387   4.283   1.220   5.238 -2.1593  0.1265  0.3919
   83MOL0     H11388   4.312   1.384   5.251  0.4669 -0.0580  1.9081
   83MOL0     H11389   4.121   1.228   5.427 -0.3542  0.5695 -1.3553
   83MOL0     H11390   4.132   1.401   5.430  1.2266  0.5135 -0.5157
   83MOL0     H11391   4.057   1.399   5.169 -2.2347 -0.2708 -0.6994
   83MOL0     H11392   4.065   1.236   5.180  2.7108  0.7670  0.5677
   83MOL0     H11393   3.869   1.236   5.353  0.0438  0.6261  2.6726
   83MOL0     H11394   3.883   1.407   5.382 -1.3733 -0.0887 -0.4322
   83MOL0     H11395   3.703   1.347   5.236  1.2627  0.0765  1.7554
   83MOL0     H11396   3.817   1.303   5.107  1.0224 -1.2967  0.6835
   83MOL0     H11397   3.906   1.558   5.143  0.5145 -2.9304 -5.7824
   83MOL0     H11398   3.781   1.529   5.043  1.6908  1.1068 -0.4180
   83MOL0     H11399   3.736   1.601   5.344 -0.5012  1.5546  0.7037
   83MOL0     H11400   3.606   1.556   5.236  0.6290 -0.2264  0.0320
   83MOL0     H11401   3.697   1.801   5.318 -2.0061 -3.7323  1.5667
   83MOL0     H11402   3.827   1.775   5.195  0.5264 -1.8571 -1.6183
   83MOL0     H11403   3.448   1.810   5.161  1.0260 -3.5442  0.4122
   83MOL0     H11404   3.322   1.812   4.865  0.5108  1.1833  0.7305
   83MOL0     H11405   3.439   1.835   4.739 -1.2640 -0.8588 -0.4064
   83MOL0     H11406   3.343   2.062   4.928 -0.0014 -1.0533  0.2467
   83MOL0     H11407   3.486   2.063   4.824 -0.0188 -1.0671 -1.5255
   83MOL0     H11408   3.315   1.998   4.625 -2.4930 -0.1881 -0.1470
   83MOL0     H11409   3.197   2.022   4.744  0.7003 -3.9882 -1.4965
   83MOL0     H11410   3.359   2.225   4.609 -0.3599  4.5428 -0.1806
   83MOL0     H11411   3.189   2.210   4.623  2.5522  1.3875 -0.9864
   83MOL0     H11412   3.441   2.452   4.884 -0.9415  0.4472  2.6955
   83MOL0     H11413   3.536   2.787   4.827  0.0073  0.4250 -0.1127
   83MOL0     H11414   3.568   2.638   4.917 -1.9882 -0.8396  1.3800
   83MOL0     H11415   3.460   2.757   4.985 -1.5532  0.9798  0.0260
   83MOL0     H11416   3.187   3.092   4.425  0.0634 -2.9271  0.3612
   83MOL0     H11417   3.058   3.276   4.423  1.8885  1.7765  1.3185
   83MOL0     H11418   2.729   3.435   4.519  0.0566  0.4673  1.3745
   83MOL0     H11419   2.817   3.297   4.455  0.2355  0.2495  0.2809
   83MOL0     H11420   2.737   3.147   4.616  1.6781  0.3451 -3.7505
   83MOL0     H11421   2.656   3.283   4.711  3.2955 -0.3880  0.8343
   83MOL0     H11422   2.514   3.126   4.557 -3.2903  2.7101  0.6418
   83MOL0     H11423   2.590   3.199   4.419  0.6143 -0.4110  0.4922
   83MOL0     H11424   2.485   3.433   4.479 -2.8546  0.0423  0.2045
   83MOL0     H11425   2.451   3.384   4.636 -0.9405  1.0906  0.7625
   83MOL0     H11426   2.324   3.292   4.371 -2.0314  1.3380 -1.2831
   83MOL0     H11427   2.282   3.211   4.516 -3.4121 -0.0692 -0.7670
   83MOL0     H11428   2.234   3.519   4.463 -0.7032  0.4877  1.7744
   83MOL0     H11429   2.232   3.444   4.614  0.9960 -0.3488  0.6336
   83MOL0     H11430   2.037   3.306   4.549  0.7175 -0.6622  0.3280
   83MOL0     H11431   2.067   3.335   4.372  1.9246 -0.2628 -1.3311
   83MOL0     H11432   2.005   3.568   4.403  0.0997 -1.1006 -2.1194
   83MOL0     H11433   1.976   3.536   4.578 -1.2904  1.0244 -0.9001
   83MOL0     H11434   2.943   3.192   4.842  0.5204 -3.4640  1.1626
   83MOL0     H11435   3.059   2.986   4.825  2.2445 -3.2048 -2.6420
   83MOL0     H11436   3.175   2.684   4.552  1.8462 -0.2549 -0.4509
   83MOL0     H11437   3.133   2.434   4.579  1.5743 -1.0796  0.9944
   83MOL0     H11438   4.534   1.268   5.636  2.6513 -0.8124 -0.7895
   83MOL0     H11439   4.574   1.076   5.763  1.0789 -1.7134  0.1881
   83MOL0     H11440   4.763   0.749   5.981  0.2177 -0.0200  0.9297
   83MOL0     H11441   4.767   0.552   6.129 -0.0323  0.0228  0.1982
   83MOL0     H11442   4.602   0.426   6.300  1.6946  0.5414 -1.2919
   83MOL0     H11443   4.454   0.427   6.197  0.4525 -1.0776 -3.2878
   83MOL0     H11444   4.433   0.174   6.225 -3.2195 -0.1273  2.0082
   83MOL0     H11445   4.443   0.254   6.381  1.0781 -0.7115 -0.1840
   83MOL0     H11446   4.700   0.215   6.372 -1.1866  1.2441 -0.2991
   83MOL0     H11447   4.574   0.098   6.428 -3.2536 -0.1693 -1.4549
   83MOL0     H11448   4.759   0.002   6.249 -0.8300  1.9044  1.9441
   83MOL0     H11449   4.664   0.080   6.124  0.6733 -2.7297 -1.2293
   83MOL0     H11450   4.464  -0.238   6.358  1.7518 -2.0178 -1.6979
   83MOL0     H11451   4.484   0.374   5.882 -2.7272  2.1363  1.8651
   83MOL0     H11452   4.486   0.442   5.642 -1.2505 -0.9461  3.0861
   83MOL0     H11453   4.386   0.584   5.681 -0.2803 -0.0147 -1.7315
   83MOL0     H11454   4.548   0.609   5.609  2.6556 -0.9371  0.2521
   84MOL0     O11455  11.069   6.549   4.916  0.2547  0.5384  0.3020
   84MOL0     C11456  11.043   6.435   4.963 -0.1381  0.5616  0.1604
   84MOL0     O11457  11.051   6.407   5.096  0.2760  0.1585  0.2122
   84MOL0     C11458  10.983   6.483   5.182  0.3915  0.7640 -0.1524
   84MOL0     C11459  10.843   6.472   5.197  0.2102  0.4466 -1.0913
   84MOL0     C11460  10.779   6.548   5.297 -0.2502 -0.1628  0.1635
   84MOL0     C11461  10.852   6.622   5.383  0.5069  1.3383  0.8067
   84MOL0     O11462  10.803   6.714   5.473  0.2315  0.5419  0.6857
   84MOL0     C11463  10.667   6.713   5.489  0.6345 -0.4579 -0.1675
   84MOL0     C11464  10.643   6.798   5.616 -1.0209 -0.4459  0.2465
   84MOL0     C11465  10.491   6.816   5.640 -0.2072 -0.3130  0.6917
   84MOL0     C11466  10.382   6.703   5.622  0.9612 -0.3079  0.0252
   84MOL0     C11467  10.260   6.735   5.707  0.0101 -0.5326  0.0327
   84MOL0     C11468  10.183   6.598   5.743  0.9605 -0.5952  0.5561
   84MOL0     C11469  10.052   6.635   5.814  0.6787 -0.1569  0.4780
   84MOL0     C11470   9.925   6.683   5.727 -0.5666  0.0448  0.2216
   84MOL0     N11471   9.921   6.600   5.601 -0.0802 -0.1159  0.5075
   84MOL0     C11472   9.881   6.469   5.602 -0.9213  1.0884 -0.1681
   84MOL0     C11473   9.853   6.441   5.471 -0.5968  0.0081 -0.7419
   84MOL0     C11474   9.822   6.302   5.423 -0.1635 -0.0074  0.1259
   84MOL0     C11475   9.681   6.295   5.362 -0.0456  0.2752 -0.5567
   84MOL0     C11476   9.667   6.173   5.273 -0.0782  0.1279 -0.6534
   84MOL0     C11477   9.519   6.152   5.236  0.0033 -0.4329 -0.5484
   84MOL0     O11478   9.493   6.056   5.129 -0.3442  0.0191 -0.4562
   84MOL0     C11479   9.444   6.075   5.005  0.1176 -0.4551 -0.7854
   84MOL0     C11480   9.454   5.980   4.907 -0.1233 -0.1676  0.1988
   84MOL0     C11481   9.415   5.995   4.778 -0.1643  0.2193 -0.4024
   84MOL0     C11482   9.420   5.874   4.688  0.6193  0.0941 -0.3413
   84MOL0     C11483   9.337   6.108   4.740  0.0252  0.3880  0.4671
   84MOL0     C11484   9.270   6.126   4.612 -0.4127 -0.9555  0.5028
   84MOL0     O11485   9.300   6.247   4.547  0.1573 -0.7307  0.8316
   84MOL0     C11486   9.278   6.267   4.411  0.0085  0.6299  0.0019
   84MOL0     C11487   9.240   6.389   4.355 -0.4100 -0.6433 -0.7678
   84MOL0     C11488   9.211   6.398   4.217  0.0141  0.6224 -0.5053
   84MOL0     C11489   9.229   6.288   4.131 -0.1682 -0.7744 -0.5568
   84MOL0     O11490   9.203   6.296   3.990  0.0702 -0.0686 -0.1122
   84MOL0     C11491   9.248   6.419   3.925  0.0493 -0.3254 -0.7975
   84MOL0     C11492   9.403   6.435   3.925 -0.9988 -0.1737 -0.0940
   84MOL0     C11493   9.474   6.323   3.845 -0.6252  0.1991  0.5497
   84MOL0     C11494   9.619   6.352   3.828  0.2301 -0.0171 -0.2441
   84MOL0     C11495   9.661   6.388   3.690  0.4551 -0.1572 -0.5617
   84MOL0     C11496   9.801   6.410   3.667 -0.3188 -0.3170  0.0822
   84MOL0     C11497   9.833   6.468   3.528 -1.5617  0.4063  0.7260
   84MOL0     C11498   9.788   6.376   3.420 -0.1350 -0.4164 -0.6424
   84MOL0    Cl11499   9.838   6.450   3.268 -0.0814  0.0090  0.5731
   84MOL0     C11500   9.276   6.169   4.182  0.4327  0.2852 -0.8918
   84MOL0     C11501   9.299   6.155   4.326  0.4675 -1.0558  0.7547
   84MOL0     O11502   9.185   6.048   4.574 -0.9940  0.1134  0.2473
   84MOL0     C11503   9.347   6.220   4.832 -0.1222  1.2553 -0.7843
   84MOL0     C11504   9.403   6.203   4.959 -0.2631  0.2792 -0.0622
   84MOL0     N11505   9.894   6.550   5.402 -0.2946 -0.1267 -0.1796
   84MOL0     N11506   9.927   6.646   5.479  0.1961 -0.5429 -0.3381
   84MOL0     C11507  10.992   6.622   5.373 -0.1070 -0.3546  0.4787
   84MOL0     C11508  11.054   6.554   5.269 -0.2059 -0.8622 -0.5966
   84MOL0     C11509  11.046   6.327   4.869  1.3128  0.4942 -0.3050
   84MOL0     C11510  10.996   6.199   4.907  0.5765  1.2357 -0.7922
   84MOL0     C11511  11.000   6.081   4.829  0.3471  0.0060 -0.8880
   84MOL0     C11512  11.077   6.079   4.707 -0.4531 -0.3031 -0.9515
   84MOL0     O11513  11.110   5.954   4.663  0.3046 -0.7022  0.2598
   84MOL0     C11514  11.216   5.914   4.564  0.1804  0.0272 -0.8731
   84MOL0     C11515  11.234   5.770   4.570  0.5255  0.7933  0.5794
   84MOL0     C11516  11.355   5.710   4.499  0.9681  0.1050  0.0346
   84MOL0     C11517  11.322   5.662   4.358  0.4907 -0.3340 -0.4394
   84MOL0     C11518  11.314   5.778   4.271  0.5494 -0.3396  0.2545
   84MOL0     C11519  11.296   5.878   4.202  0.9853 -0.8725  0.6812
   84MOL0     C11520  11.131   6.201   4.667  0.7225 -0.2414  0.4763
   84MOL0     C11521  11.110   6.320   4.734 -0.1585 -0.8045 -0.2002
   84MOL0     C11522  11.149   6.444   4.664  0.0868 -0.2039 -0.2764
   84MOL0     H11523  10.775   6.421   5.129 -2.5334 -0.8463  2.2745
   84MOL0     H11524  10.673   6.549   5.273 -0.0057  4.1494 -1.7272
   84MOL0     H11525  10.612   6.620   5.508 -1.3910  1.0734  2.1955
   84MOL0     H11526  10.619   6.760   5.403 -1.0838 -0.1888  0.8893
   84MOL0     H11527  10.695   6.751   5.700  0.8912  1.7327  0.3654
   84MOL0     H11528  10.692   6.895   5.620  0.1468 -0.9264 -1.4662
   84MOL0     H11529  10.479   6.875   5.731  1.2070 -0.3006  0.8964
   84MOL0     H11530  10.465   6.895   5.569 -2.9114  2.0202  3.9730
   84MOL0     H11531  10.357   6.696   5.516  1.1042  0.3329 -0.0556
   84MOL0     H11532  10.426   6.605   5.648 -2.3952 -1.1446  3.5017
   84MOL0     H11533  10.192   6.807   5.662 -0.8667 -1.5648 -0.3385
   84MOL0     H11534  10.292   6.790   5.796  0.7297  0.3357 -0.7429
   84MOL0     H11535  10.158   6.542   5.653  2.9970 -0.0717 -0.3869
   84MOL0     H11536  10.247   6.536   5.808  3.7886  2.5193  1.0224
   84MOL0     H11537  10.074   6.705   5.895 -2.5533 -0.2300  1.5381
   84MOL0     H11538  10.022   6.539   5.857  0.6305 -0.5737 -0.4564
   84MOL0     H11539   9.837   6.657   5.787  0.3369  2.6797  2.9563
   84MOL0     H11540   9.924   6.789   5.700  0.2463  0.8636  3.1038
   84MOL0     H11541   9.885   6.404   5.689 -0.1322 -1.5494 -2.0707
   84MOL0     H11542   9.839   6.231   5.504 -1.5191 -0.2384  0.2300
   84MOL0     H11543   9.898   6.263   5.355  2.8229 -1.4753  3.9646
   84MOL0     H11544   9.608   6.296   5.444 -0.8265  1.5060 -1.2287
   84MOL0     H11545   9.660   6.384   5.301  1.0477 -0.8365 -2.6720
   84MOL0     H11546   9.718   6.190   5.178  0.3362 -3.0154 -1.0947
   84MOL0     H11547   9.702   6.080   5.319 -3.2916 -0.6250  0.5498
   84MOL0     H11548   9.456   6.127   5.322  1.0532  0.4624  0.5212
   84MOL0     H11549   9.481   6.251   5.208 -2.5852 -2.0348 -3.2063
   84MOL0     H11550   9.499   5.887   4.941 -0.8294 -0.1702  1.1761
   84MOL0     H11551   9.425   5.907   4.584 -1.4117  2.7706  0.3100
   84MOL0     H11552   9.323   5.825   4.701  0.5620  0.5515  1.1591
   84MOL0     H11553   9.509   5.815   4.714  0.3862 -0.1753 -0.1419
   84MOL0     H11554   9.232   6.476   4.420 -1.9769  0.3110 -2.1655
   84MOL0     H11555   9.183   6.497   4.183 -0.8176  1.9488  3.5391
   84MOL0     H11556   9.205   6.421   3.825 -1.3544 -2.0012 -0.2780
   84MOL0     H11557   9.205   6.511   3.964  0.6990 -0.3746  0.0650
   84MOL0     H11558   9.434   6.526   3.874  0.0150 -0.8158 -0.6723
   84MOL0     H11559   9.442   6.446   4.027 -1.2623 -1.7040  0.2020
   84MOL0     H11560   9.428   6.315   3.746 -0.7237 -0.8971  0.6680
   84MOL0     H11561   9.456   6.232   3.903  0.9611 -0.6623 -0.2545
   84MOL0     H11562   9.671   6.261   3.861 -0.6275  0.1261  1.6627
   84MOL0     H11563   9.644   6.435   3.896 -0.7321  0.0305  0.0720
   84MOL0     H11564   9.624   6.324   3.609  1.4036  2.1936 -3.0353
   84MOL0     H11565   9.605   6.481   3.674 -5.9751 -3.2207  1.0337
   84MOL0     H11566   9.854   6.315   3.682 -1.3621 -0.6974  1.6771
   84MOL0     H11567   9.834   6.483   3.742 -1.1324  0.1795 -0.0340
   84MOL0     H11568   9.939   6.492   3.517 -1.2155 -1.1677  0.4212
   84MOL0     H11569   9.784   6.565   3.517  2.5835  3.0638  2.9384
   84MOL0     H11570   9.679   6.371   3.433  0.2062  0.1763  4.0269
   84MOL0     H11571   9.823   6.273   3.432 -3.8827 -2.0220 -1.7483
   84MOL0     H11572   9.284   6.088   4.110 -1.0597  0.4709 -1.3108
   84MOL0     H11573   9.327   6.063   4.377 -0.8120 -0.8769  1.8317
   84MOL0     H11574   9.317   6.319   4.800  0.0440  0.8218 -2.3797
   84MOL0     H11575   9.410   6.291   5.023 -3.4445  0.7822 -0.2152
   84MOL0     H11576  11.041   6.692   5.439 -3.8314  2.2045  0.7925
   84MOL0     H11577  11.160   6.577   5.266 -0.5081  1.3767  1.9011
   84MOL0     H11578  10.921   6.186   4.985  0.5791 -3.0013 -1.2665
   84MOL0     H11579  10.960   5.984   4.856  0.7592  0.1558  0.3508
   84MOL0     H11580  11.190   5.946   4.462  0.7266  2.4584 -0.3158
   84MOL0     H11581  11.310   5.962   4.592  1.9631 -1.8244 -3.2942
   84MOL0     H11582  11.144   5.715   4.541 -0.1063  1.3220  1.4904
   84MOL0     H11583  11.260   5.752   4.675  2.8122 -2.1924 -0.3549
   84MOL0     H11584  11.425   5.794   4.494 -3.3871  4.1021 -1.0658
   84MOL0     H11585  11.391   5.622   4.554 -0.6456 -1.1150 -0.7813
   84MOL0     H11586  11.227   5.608   4.365  0.6973 -0.5096  2.2379
   84MOL0     H11587  11.391   5.586   4.323 -1.2216 -1.2388 -1.9765
   84MOL0     H11588  11.265   5.961   4.143 -1.2817 -0.3889  2.4094
   84MOL0     H11589  11.179   6.197   4.570  0.9162  0.1469  0.5567
   84MOL0     H11590  11.076   6.525   4.662  0.5165  0.2226  0.5032
   84MOL0     H11591  11.237   6.487   4.712 -0.1251 -0.1534  0.0695
   84MOL0     H11592  11.178   6.419   4.562 -2.1532  1.7581 -1.4930
   85MOL0     O11593   9.822  11.366  10.936  0.3204  0.6180  0.0146
   85MOL0     C11594   9.873  11.403  11.041  0.4883  0.1576 -0.7107
   85MOL0     O11595   9.934  11.526  11.065 -0.0924 -0.2293  0.5296
   85MOL0     C11596   9.864  11.640  11.032 -1.0140  0.4188  0.0279
   85MOL0     C11597   9.951  11.752  11.021 -0.4264  0.4741 -0.7669
   85MOL0     C11598   9.883  11.880  11.015  0.1298  0.5794 -1.0090
   85MOL0     C11599   9.743  11.894  11.024  0.4800  0.3022  0.4853
   85MOL0     O11600   9.697  12.020  11.022 -0.0884 -0.4946  0.0308
   85MOL0     C11601   9.553  12.042  11.022  0.1878  0.1444 -0.4683
   85MOL0     C11602   9.523  12.149  10.934  0.7639  0.2933 -0.8488
   85MOL0     C11603   9.589  12.281  10.991  0.2670 -0.1053  0.6563
   85MOL0     C11604   9.548  12.407  10.910  0.0215 -0.1594 -0.8037
   85MOL0     C11605   9.627  12.531  10.942  0.1021 -0.3335 -0.7521
   85MOL0     C11606   9.779  12.523  10.885  0.7874 -0.5497  0.0477
   85MOL0     C11607   9.847  12.665  10.901 -0.2686  1.3364  1.0372
   85MOL0     C11608   9.999  12.646  10.899 -1.2856 -1.1017 -0.6710
   85MOL0     N11609  10.061  12.778  10.883 -0.4854  0.2602 -0.4508
   85MOL0     C11610  10.044  12.874  10.782  0.2303 -0.4039 -0.0836
   85MOL0     C11611  10.155  12.961  10.799 -0.3081 -0.0893  0.4695
   85MOL0     C11612  10.204  13.081  10.723 -0.6773 -0.0414  0.0785
   85MOL0     C11613  10.123  13.203  10.769  0.3544 -0.0253 -0.6091
   85MOL0     C11614  10.197  13.334  10.767  0.4239  1.2346  0.1183
   85MOL0     C11615  10.117  13.429  10.859 -0.6818 -0.8025 -0.5251
   85MOL0     O11616  10.151  13.570  10.845 -0.0993 -0.2240 -0.5938
   85MOL0     C11617  10.266  13.618  10.894  0.2711 -0.2088  0.4789
   85MOL0     C11618  10.287  13.748  10.860  1.2203  0.4901  1.2234
   85MOL0     C11619  10.406  13.816  10.907 -0.3930  0.7524 -0.0327
   85MOL0     C11620  10.443  13.955  10.854  0.2091  0.7449 -0.4750
   85MOL0     C11621  10.502  13.744  10.989 -0.6049  1.0469  0.2004
   85MOL0     C11622  10.638  13.812  11.034 -0.1844  0.9834 -1.5403
   85MOL0     O11623  10.732  13.842  10.943 -0.1730 -0.5168  0.2585
   85MOL0     C11624  10.860  13.875  10.986  0.8755  1.1440 -1.7743
   85MOL0     C11625  10.951  13.778  11.040  0.8825 -0.3702  0.2658
   85MOL0     C11626  11.086  13.805  11.055 -0.0965  0.7338 -0.1601
   85MOL0     C11627  11.146  13.929  11.017 -0.0487  0.0238 -1.1518
   85MOL0     O11628  11.275  13.973  11.038  0.7815 -0.7234  0.6305
   85MOL0     C11629  11.373  13.873  11.084  0.3258  0.4708  0.8682
   85MOL0     C11630  11.394  13.907  11.233  0.4062 -0.4399  0.2733
   85MOL0     C11631  11.519  13.843  11.297 -0.8713 -0.1698  0.6565
   85MOL0     C11632  11.492  13.694  11.334 -0.9923  0.1452  0.5555
   85MOL0     C11633  11.621  13.609  11.332 -0.3587 -0.6282 -0.4200
   85MOL0     C11634  11.588  13.478  11.403  0.0651  0.1261 -1.0638
   85MOL0     C11635  11.711  13.390  11.406  0.8800  0.4650  0.1377
   85MOL0     C11636  11.700  13.278  11.513 -0.2534  0.4777 -0.2392
   85MOL0    Cl11637  11.545  13.202  11.531 -0.1319  0.0709 -0.0778
   85MOL0     C11638  11.056  14.026  10.972  0.9274  0.2304 -0.8181
   85MOL0     C11639  10.920  13.996  10.951  0.2766  0.0891 -0.3636
   85MOL0     O11640  10.659  13.815  11.153  0.1609 -0.0112  0.1403
   85MOL0     C11641  10.478  13.611  11.023 -0.8520  0.3226 -0.5978
   85MOL0     C11642  10.368  13.547  10.969 -0.5182  0.0926 -0.5073
   85MOL0     N11643  10.222  12.920  10.911  0.3004 -0.5990 -0.0810
   85MOL0     N11644  10.176  12.808  10.946  0.1698 -0.2551  0.2257
   85MOL0     C11645   9.667  11.773  11.029 -0.1486 -0.6321  0.7755
   85MOL0     C11646   9.726  11.645  11.037  0.1691 -1.1055 -0.0932
   85MOL0     C11647   9.888  11.308  11.151  0.3745  0.0967  0.2556
   85MOL0     C11648   9.969  11.348  11.263  0.1765 -0.1816 -0.0985
   85MOL0     C11649  10.003  11.261  11.364 -0.9390  0.7877  0.5217
   85MOL0     C11650   9.946  11.135  11.366 -0.8120  0.3947 -0.0462
   85MOL0     O11651   9.972  11.031  11.463  0.1721 -0.6523  0.2155
   85MOL0     C11652  10.052  11.071  11.584 -1.5093  0.4565  1.3568
   85MOL0     C11653  10.027  10.965  11.688 -0.5501  0.4196  0.4371
   85MOL0     C11654  10.092  10.838  11.635  0.0344  0.6657 -0.7216
   85MOL0     C11655  10.004  10.708  11.662  0.3207  0.1055 -0.5709
   85MOL0     C11656  10.037  10.591  11.585  0.6052  0.0795  0.0317
   85MOL0     C11657  10.076  10.481  11.537  0.2551 -0.1427 -0.3134
   85MOL0     C11658   9.861  11.099  11.264  0.8884  0.8329 -0.0162
   85MOL0     C11659   9.822  11.182  11.164 -0.0598  0.5117  0.2724
   85MOL0     C11660   9.729  11.124  11.059 -0.6787  0.3935 -0.5700
   85MOL0     H11661  10.059  11.746  11.016 -0.2954  1.1561  0.8179
   85MOL0     H11662   9.951  11.965  11.017  1.0082 -0.0288  3.2591
   85MOL0     H11663   9.516  12.058  11.123  1.3086  0.0367 -0.0331
   85MOL0     H11664   9.494  11.961  10.978 -0.8895  2.3173 -3.4156
   85MOL0     H11665   9.559  12.134  10.831 -1.6104  0.2088 -1.7123
   85MOL0     H11666   9.415  12.159  10.923  0.2667 -1.7082  1.5342
   85MOL0     H11667   9.545  12.297  11.090 -2.2368 -3.1463  0.1813
   85MOL0     H11668   9.698  12.274  10.999  0.4704  0.6178 -1.0323
   85MOL0     H11669   9.562  12.392  10.802 -1.9616  1.0558 -1.2771
   85MOL0     H11670   9.446  12.439  10.931  1.0929  2.3068  1.1009
   85MOL0     H11671   9.641  12.532  11.051  0.5628 -1.6252 -0.7850
   85MOL0     H11672   9.564  12.612  10.903 -0.7210 -1.8938 -2.8516
   85MOL0     H11673   9.838  12.441  10.926  0.0327 -0.9201  0.4133
   85MOL0     H11674   9.763  12.514  10.777 -3.4266  1.4945  0.3005
   85MOL0     H11675   9.818  12.720  10.991 -4.7650  0.4985  0.3386
   85MOL0     H11676   9.803  12.717  10.815 -4.8303 -1.9689  1.0396
   85MOL0     H11677  10.031  12.609  10.996 -0.8763  0.7671 -0.0456
   85MOL0     H11678  10.035  12.578  10.821 -1.2619 -1.5007 -0.3122
   85MOL0     H11679   9.967  12.894  10.709 -0.3449 -0.2104  0.5706
   85MOL0     H11680  10.210  13.071  10.614  0.9772  2.8972 -0.1981
   85MOL0     H11681  10.308  13.096  10.753  0.2396  0.2445 -2.9132
   85MOL0     H11682  10.030  13.208  10.712 -0.0067 -2.4640 -0.3657
   85MOL0     H11683  10.087  13.201  10.872  2.7793  1.8596  0.3723
   85MOL0     H11684  10.294  13.317  10.813  0.4651 -3.7146 -1.2213
   85MOL0     H11685  10.200  13.376  10.665 -0.4940  0.2821 -0.3166
   85MOL0     H11686  10.011  13.411  10.839 -1.0839  2.2279 -1.6944
   85MOL0     H11687  10.140  13.411  10.964  2.1816 -1.0889 -1.1293
   85MOL0     H11688  10.219  13.793  10.789  2.7021  4.2425  1.9111
   85MOL0     H11689  10.350  14.008  10.834  0.5276  1.1300 -0.9629
   85MOL0     H11690  10.505  13.959  10.764 -0.1077 -2.8270 -0.9839
   85MOL0     H11691  10.475  14.020  10.936 -3.1176  3.1170 -0.8625
   85MOL0     H11692  10.910  13.691  11.091 -0.9338 -0.1418 -0.7092
   85MOL0     H11693  11.143  13.727  11.104  1.0498  0.4860 -1.7992
   85MOL0     H11694  11.339  13.770  11.080 -0.8390  0.8787 -2.0330
   85MOL0     H11695  11.467  13.879  11.029  0.6470  1.5377  1.4825
   85MOL0     H11696  11.413  14.015  11.227  0.6640 -0.5625 -3.1554
   85MOL0     H11697  11.311  13.901  11.303  0.5183 -1.1598  0.3565
   85MOL0     H11698  11.536  13.908  11.383  1.1704 -0.1106  0.2657
   85MOL0     H11699  11.606  13.847  11.231 -2.3057  0.9736 -1.2516
   85MOL0     H11700  11.426  13.646  11.261 -0.0317 -0.8839  0.3392
   85MOL0     H11701  11.444  13.690  11.432 -1.6730  0.9321  0.2717
   85MOL0     H11702  11.669  13.592  11.235 -1.5673 -4.8332 -0.4789
   85MOL0     H11703  11.698  13.662  11.388  1.0610 -1.8045 -1.1855
   85MOL0     H11704  11.515  13.427  11.340  1.3108 -0.8316 -1.7579
   85MOL0     H11705  11.544  13.494  11.503  1.0419 -1.1030 -0.4198
   85MOL0     H11706  11.804  13.446  11.423 -0.3646  2.7987 -0.4158
   85MOL0     H11707  11.712  13.349  11.304  1.2045  1.8251 -0.4178
   85MOL0     H11708  11.720  13.328  11.608 -1.5775  2.4595 -0.9364
   85MOL0     H11709  11.762  13.193  11.484 -0.4553 -0.5512  2.1207
   85MOL0     H11710  11.092  14.127  10.954  1.1321  0.2077 -0.5473
   85MOL0     H11711  10.861  14.080  10.916 -1.5205  0.1917  2.6388
   85MOL0     H11712  10.551  13.561  11.086  0.7312  4.1070  0.8510
   85MOL0     H11713  10.363  13.439  10.983 -1.6906  0.0574 -1.0764
   85MOL0     H11714   9.561  11.786  11.015  0.2786  0.5771 -1.9927
   85MOL0     H11715   9.672  11.555  11.062 -0.7785 -1.0302 -1.7883
   85MOL0     H11716  10.041  11.430  11.264  1.8478 -1.3245  5.3531
   85MOL0     H11717  10.072  11.306  11.435  2.8624  0.5993 -2.6763
   85MOL0     H11718  10.161  11.081  11.575 -1.1822 -0.3844  3.7061
   85MOL0     H11719  10.007  11.164  11.619  1.4454  1.8801  1.7030
   85MOL0     H11720   9.922  10.941  11.710 -2.0074  0.4519 -4.9158
   85MOL0     H11721  10.076  10.990  11.782  0.2727 -1.7239  0.6260
   85MOL0     H11722  10.123  10.839  11.530 -1.5120  1.0613 -1.2036
   85MOL0     H11723  10.176  10.831  11.705 -2.4847  3.8618  3.1019
   85MOL0     H11724   9.897  10.724  11.643  0.0647  0.8004  1.2594
   85MOL0     H11725  10.020  10.687  11.768 -0.6540  1.0300 -0.2232
   85MOL0     H11726  10.088  10.398  11.470 -1.8413 -0.2770 -0.5902
   85MOL0     H11727   9.833  10.994  11.257  0.0786  1.1375 -2.9105
   85MOL0     H11728   9.793  11.082  10.981 -0.5810  0.6317 -0.6189
   85MOL0     H11729   9.665  11.046  11.102  0.6567  1.2162  3.4377
   85MOL0     H11730   9.663  11.202  11.022 -0.5607 -0.7990 -3.5830
   86MOL0     O11731   8.872   2.886   9.568 -0.8116  0.1435  0.1788
   86MOL0     C11732   8.822   2.829   9.660 -0.5469 -0.4212  0.8581
   86MOL0     O11733   8.850   2.697   9.690  0.2133 -0.1286 -0.1345
   86MOL0     C11734   8.949   2.621   9.627  1.5881  0.6905  0.0722
   86MOL0     C11735   8.907   2.527   9.542  0.3514  0.1115  0.3946
   86MOL0     C11736   9.011   2.469   9.472  0.9885  0.2811  0.1603
   86MOL0     C11737   9.143   2.498   9.485 -0.0251  0.8494  0.0056
   86MOL0     O11738   9.234   2.442   9.397 -0.1310  0.3432 -0.6400
   86MOL0     C11739   9.205   2.424   9.260  0.3506 -0.0328  0.2553
   86MOL0     C11740   9.333   2.400   9.189 -0.7574  0.1612  0.2784
   86MOL0     C11741   9.311   2.361   9.046  0.1525  1.0942 -0.4760
   86MOL0     C11742   9.418   2.274   8.987 -0.6446  0.4147  0.0287
   86MOL0     C11743   9.539   2.360   8.943 -0.1755  0.5230  0.2987
   86MOL0     C11744   9.671   2.277   8.909  0.5816 -0.0573 -0.4323
   86MOL0     C11745   9.656   2.197   8.782  0.1103  0.7145 -0.8483
   86MOL0     C11746   9.792   2.149   8.749  0.0430 -0.2417  0.7189
   86MOL0     N11747   9.876   2.243   8.668  0.0426  0.2749 -0.1523
   86MOL0     C11748   9.958   2.345   8.710  0.2705  0.2300 -0.3141
   86MOL0     C11749  10.036   2.370   8.602 -0.4536  0.4578  0.0148
   86MOL0     C11750  10.144   2.476   8.583  0.4772 -0.4412 -0.4601
   86MOL0     C11751  10.092   2.618   8.536 -0.9957 -0.0203 -0.2691
   86MOL0     C11752  10.004   2.619   8.412 -0.5169 -0.3106 -0.4584
   86MOL0     C11753  10.068   2.563   8.272 -0.9154 -0.0166 -0.0148
   86MOL0     O11754  10.152   2.663   8.208 -0.8144 -0.8911  0.2148
   86MOL0     C11755  10.283   2.685   8.255  0.1913 -0.5660  0.2288
   86MOL0     C11756  10.331   2.816   8.258  0.0412 -0.2629 -0.3520
   86MOL0     C11757  10.451   2.839   8.335  0.6505 -0.8203 -0.6595
   86MOL0     C11758  10.496   2.987   8.351  0.3685  0.1834 -0.3518
   86MOL0     C11759  10.533   2.728   8.375 -0.5019 -0.7255  0.1710
   86MOL0     C11760  10.669   2.744   8.436 -0.1206 -0.9541 -0.0883
   86MOL0     O11761  10.753   2.634   8.435 -0.1250 -0.1297  0.4520
   86MOL0     C11762  10.884   2.649   8.488  0.9340  0.6250 -0.6390
   86MOL0     C11763  10.947   2.532   8.513 -0.0896  0.4099  0.1705
   86MOL0     C11764  11.083   2.517   8.547  0.2638 -0.9112  0.8893
   86MOL0     C11765  11.160   2.631   8.528 -0.9911 -0.0209 -0.7838
   86MOL0     O11766  11.295   2.636   8.552 -0.3685  0.5400 -0.4369
   86MOL0     C11767  11.344   2.548   8.654  0.9097  1.0846 -0.1191
   86MOL0     C11768  11.455   2.626   8.730 -0.8923  0.4413  0.7578
   86MOL0     C11769  11.534   2.534   8.830  0.1111  0.8714  0.8995
   86MOL0     C11770  11.626   2.609   8.910  0.2665 -0.6493  0.2892
   86MOL0     C11771  11.724   2.524   8.993 -1.0759  0.5849  0.2463
   86MOL0     C11772  11.840   2.462   8.910  0.7001  0.2007  0.2415
   86MOL0     C11773  11.983   2.476   8.959  0.1831  0.1944 -0.5672
   86MOL0     C11774  12.033   2.418   9.099 -0.3191 -1.2125 -0.0355
   86MOL0    Cl11775  12.045   2.249   9.081 -0.2051 -0.5792  0.8032
   86MOL0     C11776  11.101   2.754   8.505 -1.2310  0.4291 -0.3144
   86MOL0     C11777  10.968   2.760   8.480 -0.6499 -0.8860 -0.4253
   86MOL0     O11778  10.687   2.845   8.495  0.0552  0.0989 -0.9633
   86MOL0     C11779  10.487   2.603   8.353 -0.7378 -1.0759  0.2053
   86MOL0     C11780  10.369   2.581   8.300 -0.5547 -0.6366 -0.4397
   86MOL0     N11781  10.016   2.272   8.507  0.1209  0.0088 -0.9594
   86MOL0     N11782   9.910   2.215   8.540  0.0083  0.1219 -0.1914
   86MOL0     C11783   9.181   2.597   9.574  0.0406  0.0545 -0.8303
   86MOL0     C11784   9.080   2.668   9.640 -0.1863  0.3884 -0.7285
   86MOL0     C11785   8.734   2.906   9.750  0.3304  0.5376  0.1279
   86MOL0     C11786   8.639   2.831   9.837 -0.1927  0.6432 -0.0289
   86MOL0     C11787   8.553   2.901   9.927  0.3649  0.3618 -0.4872
   86MOL0     C11788   8.551   3.044   9.937 -0.4148  0.1252  1.1020
   86MOL0     O11789   8.447   3.080  10.017  0.7731  0.3258 -0.2086
   86MOL0     C11790   8.421   3.225   9.999 -1.2941 -0.6827 -0.5171
   86MOL0     C11791   8.305   3.265  10.081  0.3355  0.2293  0.2090
   86MOL0     C11792   8.283   3.421  10.068 -0.4291  0.8493  0.0019
   86MOL0     C11793   8.398   3.504  10.138  0.0617  0.0742 -0.1842
   86MOL0     C11794   8.417   3.643  10.083 -0.6982  0.2679 -0.9636
   86MOL0     C11795   8.420   3.756  10.036  0.2231 -0.7813 -0.4198
   86MOL0     C11796   8.649   3.109   9.860  1.2299  0.9405  0.5130
   86MOL0     C11797   8.741   3.047   9.770 -0.7652 -0.1240 -0.2487
   86MOL0     C11798   8.831   3.149   9.703 -0.8346  0.3019 -0.7203
   86MOL0     H11799   8.802   2.502   9.533  0.7504 -0.7730 -4.2199
   86MOL0     H11800   8.981   2.399   9.394 -2.4667  2.7257 -0.9619
   86MOL0     H11801   9.154   2.516   9.231 -2.7922 -1.9328 -0.6873
   86MOL0     H11802   9.143   2.334   9.252  0.9215 -0.4267  0.1611
   86MOL0     H11803   9.389   2.493   9.185 -1.5186  0.7068  1.6965
   86MOL0     H11804   9.376   2.318   9.247 -2.7084 -1.2107 -0.1095
   86MOL0     H11805   9.219   2.303   9.056  0.4280  0.7451  0.1160
   86MOL0     H11806   9.290   2.451   8.987 -3.7826 -0.4241 -1.7288
   86MOL0     H11807   9.450   2.197   9.058  2.3725 -0.7366 -2.3610
   86MOL0     H11808   9.368   2.220   8.907 -1.8022  1.2196  0.1894
   86MOL0     H11809   9.574   2.435   9.015  0.1694  1.0591 -0.4225
   86MOL0     H11810   9.522   2.422   8.855 -0.3732  1.8283  1.2295
   86MOL0     H11811   9.747   2.356   8.906 -0.2419  1.0230  2.8835
   86MOL0     H11812   9.695   2.213   8.994 -0.0818  1.3370  0.8390
   86MOL0     H11813   9.628   2.271   8.706  1.6275  3.6734  1.2602
   86MOL0     H11814   9.585   2.119   8.810  1.2088  0.5940  1.7973
   86MOL0     H11815   9.843   2.136   8.844  0.8553  0.0837  0.3336
   86MOL0     H11816   9.784   2.051   8.701  1.2340 -1.4348  2.8247
   86MOL0     H11817   9.946   2.407   8.798 -1.2226  0.8828 -0.9384
   86MOL0     H11818  10.207   2.420   8.514  0.6101 -1.2792  0.3144
   86MOL0     H11819  10.208   2.492   8.671 -0.2479 -2.4134  0.4845
   86MOL0     H11820  10.029   2.657   8.616 -1.6866  0.4726 -1.0331
   86MOL0     H11821  10.173   2.689   8.518 -3.2163  2.3467 -1.7714
   86MOL0     H11822   9.916   2.556   8.433 -0.3361  0.6026  3.8378
   86MOL0     H11823   9.977   2.725   8.407  1.9573  0.3533 -1.2673
   86MOL0     H11824  10.127   2.471   8.273  0.8705  1.0663 -0.2867
   86MOL0     H11825   9.987   2.527   8.208 -2.3040 -0.1890  1.7844
   86MOL0     H11826  10.261   2.891   8.221 -2.0264 -1.8635  0.1282
   86MOL0     H11827  10.415   3.053   8.320  0.6577  0.2245 -1.0447
   86MOL0     H11828  10.584   3.023   8.297 -0.6813  1.7579 -1.0829
   86MOL0     H11829  10.520   2.996   8.457 -1.7484 -2.4777  0.4654
   86MOL0     H11830  10.884   2.443   8.508 -2.3900  1.9463  0.5538
   86MOL0     H11831  11.125   2.420   8.574 -0.2406 -0.5508  3.1472
   86MOL0     H11832  11.263   2.518   8.720 -0.9456 -0.1423 -2.7776
   86MOL0     H11833  11.386   2.460   8.603  0.4946  0.7163  0.1634
   86MOL0     H11834  11.525   2.667   8.656  0.4042 -2.4666  0.2297
   86MOL0     H11835  11.430   2.720   8.779 -0.5768  0.9386 -0.0077
   86MOL0     H11836  11.586   2.463   8.766 -2.4009 -0.3897  0.0988
   86MOL0     H11837  11.464   2.484   8.897  0.2389 -2.0149 -0.9588
   86MOL0     H11838  11.568   2.664   8.984  0.3689 -0.9523  0.6027
   86MOL0     H11839  11.678   2.683   8.848  0.0641 -3.6040 -3.8220
   86MOL0     H11840  11.769   2.588   9.069 -2.0543  0.0970  1.2701
   86MOL0     H11841  11.672   2.438   9.035 -0.1560  0.0840  0.3876
   86MOL0     H11842  11.828   2.513   8.814 -0.1357 -1.1026 -0.3792
   86MOL0     H11843  11.810   2.361   8.880  0.6992  0.6881 -1.5136
   86MOL0     H11844  12.003   2.584   8.965 -2.3288  0.7918 -1.5538
   86MOL0     H11845  12.043   2.444   8.873 -1.2854  1.6054 -2.2017
   86MOL0     H11846  11.968   2.439   9.185 -1.5606 -0.0883 -1.2059
   86MOL0     H11847  12.136   2.453   9.113  0.3382 -3.3190  0.8167
   86MOL0     H11848  11.164   2.843   8.502  0.4424 -0.5801  1.8937
   86MOL0     H11849  10.935   2.860   8.453  0.4255  0.4738  2.7735
   86MOL0     H11850  10.537   2.510   8.379 -0.2716 -1.0871 -0.7035
   86MOL0     H11851  10.350   2.474   8.296  0.2101 -0.7830 -0.1737
   86MOL0     H11852   9.285   2.624   9.589 -0.1267 -0.1763  0.9372
   86MOL0     H11853   9.111   2.747   9.707 -0.4755 -0.0583 -0.0599
   86MOL0     H11854   8.628   2.723   9.827 -0.4200  0.7298 -0.7863
   86MOL0     H11855   8.482   2.846   9.987 -1.3071  2.3770 -0.5031
   86MOL0     H11856   8.507   3.275  10.044 -1.2208 -1.5925  0.3893
   86MOL0     H11857   8.411   3.256   9.894  4.2064 -1.9635 -1.7505
   86MOL0     H11858   8.324   3.228  10.182  1.3426  2.1065  0.7590
   86MOL0     H11859   8.211   3.213  10.062 -1.3325  2.3687  1.9912
   86MOL0     H11860   8.265   3.454   9.965  3.3118  1.4716 -0.6123
   86MOL0     H11861   8.190   3.436  10.123  0.7503 -0.1451  2.3902
   86MOL0     H11862   8.489   3.446  10.154 -0.9510 -1.7258 -0.6125
   86MOL0     H11863   8.361   3.517  10.240  1.1939 -1.4362  0.4657
   86MOL0     H11864   8.430   3.861  10.016  4.4731 -1.1115 -0.9542
   86MOL0     H11865   8.647   3.216   9.874 -1.3410  1.1318 -0.6853
   86MOL0     H11866   8.931   3.110   9.722 -0.2255  1.4549 -1.4823
   86MOL0     H11867   8.803   3.171   9.600 -0.5654  1.9700 -0.4545
   86MOL0     H11868   8.819   3.243   9.756 -0.8107  2.1896 -3.8121
   87MOL0     O11869   2.804   0.825  11.508  0.6418 -0.3004 -0.6767
   87MOL0     C11870   2.697   0.815  11.576 -0.4753  0.1549  0.1388
   87MOL0     O11871   2.673   0.720  11.673 -0.3470 -0.4659  0.8105
   87MOL0     C11872   2.776   0.630  11.696  0.6172  0.4078  1.0399
   87MOL0     C11873   2.811   0.612  11.829  0.5292 -0.5381 -0.1224
   87MOL0     C11874   2.912   0.514  11.859  0.3157  0.8728  0.8054
   87MOL0     C11875   2.984   0.453  11.757  0.5689  0.3970 -0.7169
   87MOL0     O11876   3.079   0.359  11.798 -0.7280  0.4078  0.1579
   87MOL0     C11877   3.160   0.277  11.702  0.0555  0.2654  0.5953
   87MOL0     C11878   3.292   0.241  11.758 -0.1526 -0.5395 -1.3592
   87MOL0     C11879   3.264   0.152  11.888  0.4661 -0.6636 -0.2151
   87MOL0     C11880   3.392   0.156  11.969 -0.0103  0.4527  0.2371
   87MOL0     C11881   3.389   0.061  12.094 -0.5002 -0.1566  0.0220
   87MOL0     C11882   3.520   0.080  12.185  0.8784 -0.6083  0.1189
   87MOL0     C11883   3.540   0.218  12.243 -0.4924  0.0662 -0.2105
   87MOL0     C11884   3.682   0.212  12.302  0.4591  0.2583  0.2779
   87MOL0     N11885   3.709   0.342  12.376  0.4263  0.7611 -0.7859
   87MOL0     C11886   3.732   0.459  12.314 -1.2333  0.4264 -0.1722
   87MOL0     C11887   3.755   0.538  12.418 -0.5026 -0.0090  0.0029
   87MOL0     C11888   3.782   0.690  12.409 -0.0723  0.5963  0.1424
   87MOL0     C11889   3.652   0.762  12.427 -0.9539  0.1548 -0.0489
   87MOL0     C11890   3.658   0.894  12.346 -0.5707  0.3991 -0.4751
   87MOL0     C11891   3.523   0.963  12.339 -0.2329  0.2737  0.0768
   87MOL0     O11892   3.533   1.072  12.254 -0.8833  0.0681 -0.2092
   87MOL0     C11893   3.446   1.175  12.275  0.1089  0.2272 -0.0277
   87MOL0     C11894   3.311   1.145  12.303  1.4155 -0.0798  0.4076
   87MOL0     C11895   3.228   1.260  12.314 -0.9026  0.5410  0.3373
   87MOL0     C11896   3.078   1.249  12.331  0.0900 -0.2248  0.2168
   87MOL0     C11897   3.284   1.389  12.319  0.1705 -1.7910  0.8837
   87MOL0     C11898   3.215   1.521  12.305  0.6221  0.6371  0.1020
   87MOL0     O11899   3.295   1.632  12.336  0.3787 -0.4349 -0.3355
   87MOL0     C11900   3.247   1.735  12.415 -0.2968 -1.3129  0.2366
   87MOL0     C11901   3.338   1.835  12.461 -0.4940  0.6158 -0.0241
   87MOL0     C11902   3.303   1.937  12.543  0.6014 -0.9138  0.6240
   87MOL0     C11903   3.159   1.946  12.593 -0.0129  0.2138  0.0424
   87MOL0     O11904   3.101   2.048  12.669 -0.3423  0.2769 -0.0855
   87MOL0     C11905   3.193   2.136  12.722  0.6075  0.4027  0.2702
   87MOL0     C11906   3.113   2.222  12.819 -0.6147  0.7213 -0.5879
   87MOL0     C11907   3.197   2.327  12.895 -0.3493 -0.0432 -0.4077
   87MOL0     C11908   3.099   2.439  12.949 -0.1962 -0.2559 -0.4613
   87MOL0     C11909   3.175   2.538  13.042  0.7202 -0.4555 -0.2849
   87MOL0     C11910   3.087   2.662  13.075 -0.3726 -0.2821 -0.4036
   87MOL0     C11911   3.165   2.772  13.142  0.4442 -1.0422  0.2029
   87MOL0     C11912   3.080   2.903  13.148 -0.5026 -0.7846  0.4169
   87MOL0    Cl11913   3.176   3.018  13.241 -0.5323 -0.6396 -0.0411
   87MOL0     C11914   3.075   1.858  12.533  0.4251  0.5530 -0.0428
   87MOL0     C11915   3.115   1.751  12.455 -0.0946 -1.0345 -0.1964
   87MOL0     O11916   3.101   1.524  12.260 -0.1229 -0.2351 -0.0547
   87MOL0     C11917   3.412   1.410  12.276  0.3926  0.3198  0.9774
   87MOL0     C11918   3.496   1.303  12.255  0.8943  0.4589 -0.6618
   87MOL0     N11919   3.755   0.472  12.536 -0.5123 -0.6628 -0.5691
   87MOL0     N11920   3.710   0.357  12.506  0.3120  0.7194  0.0979
   87MOL0     C11921   2.940   0.459  11.619 -1.1919  0.0347 -0.7531
   87MOL0     C11922   2.831   0.542  11.592 -0.4168  0.2383  0.2794
   87MOL0     C11923   2.584   0.916  11.550 -0.2095  0.1841 -0.6158
   87MOL0     C11924   2.486   0.918  11.646 -0.0445  0.5826 -0.3073
   87MOL0     C11925   2.367   1.004  11.637 -0.3423  0.7466 -0.2993
   87MOL0     C11926   2.357   1.084  11.519 -0.1964 -0.0726 -0.0357
   87MOL0     O11927   2.234   1.140  11.512 -0.0843  0.2239 -0.1259
   87MOL0     C11928   2.179   1.179  11.390 -0.1871 -0.5235  0.4681
   87MOL0     C11929   2.047   1.249  11.402 -0.7398  0.1531 -0.3144
   87MOL0     C11930   2.015   1.360  11.313  0.5751  0.8704 -0.5277
   87MOL0     C11931   1.888   1.446  11.355 -0.5486  0.0539  0.5802
   87MOL0     C11932   1.873   1.479  11.496  0.3586  0.2878 -0.1769
   87MOL0     C11933   1.854   1.501  11.617  0.1322 -0.5272 -0.0265
   87MOL0     C11934   2.466   1.095  11.430  0.2984 -0.6747 -0.1885
   87MOL0     C11935   2.576   1.014  11.444 -0.4458 -0.4959  0.6411
   87MOL0     C11936   2.686   1.022  11.333 -0.1045  0.4185  0.3355
   87MOL0     H11937   2.784   0.675  11.913  1.9896  0.9151 -0.6844
   87MOL0     H11938   2.928   0.489  11.963 -1.5333  0.6426  1.0740
   87MOL0     H11939   3.167   0.335  11.610  0.3965 -3.2243 -1.7904
   87MOL0     H11940   3.118   0.178  11.683 -0.4388  0.6286 -0.2532
   87MOL0     H11941   3.352   0.174  11.696  1.4877 -1.1873  0.8091
   87MOL0     H11942   3.354   0.329  11.777 -0.0616 -1.2088  2.0151
   87MOL0     H11943   3.187   0.199  11.949  1.2787 -0.7849  0.9387
   87MOL0     H11944   3.239   0.048  11.862 -1.1721 -1.5128  4.0390
   87MOL0     H11945   3.475   0.120  11.907  0.4730  0.5351  0.8146
   87MOL0     H11946   3.428   0.259  11.979 -1.8254  1.2431 -0.9956
   87MOL0     H11947   3.391  -0.041  12.054  3.3924 -1.5334  3.0733
   87MOL0     H11948   3.305   0.077  12.163 -1.3904 -1.5566 -0.6927
   87MOL0     H11949   3.503   0.008  12.266 -0.3618  0.5776  0.9673
   87MOL0     H11950   3.609   0.043  12.133  0.8341  1.7483 -1.8021
   87MOL0     H11951   3.459   0.241  12.313  0.1342 -0.2860  0.6445
   87MOL0     H11952   3.548   0.306  12.179 -0.3173  3.0351  3.5714
   87MOL0     H11953   3.695   0.130  12.373  1.7671 -1.1958 -1.5294
   87MOL0     H11954   3.763   0.197  12.230  0.7218  2.6508 -0.0045
   87MOL0     H11955   3.740   0.478  12.207  0.6152  1.1964  0.0722
   87MOL0     H11956   3.820   0.721  12.312 -1.3221  3.8167  0.5367
   87MOL0     H11957   3.858   0.717  12.483  1.0324  1.1522 -1.1646
   87MOL0     H11958   3.572   0.691  12.405  0.0284 -1.8419  2.2410
   87MOL0     H11959   3.640   0.777  12.535 -1.2670 -1.0855  0.1012
   87MOL0     H11960   3.728   0.962  12.395 -0.4352 -1.1607  1.6412
   87MOL0     H11961   3.691   0.872  12.245  3.0594 -3.3041  1.2357
   87MOL0     H11962   3.446   0.895  12.302 -0.1583  1.7566 -3.1403
   87MOL0     H11963   3.495   0.997  12.440 -1.9594  0.1275 -0.3207
   87MOL0     H11964   3.262   1.049  12.313  0.6235  0.3975  1.3391
   87MOL0     H11965   3.032   1.275  12.236  0.2893 -0.7726 -0.0321
   87MOL0     H11966   3.028   1.324  12.393 -2.0058  0.2111 -1.8496
   87MOL0     H11967   3.052   1.150  12.370 -1.9320  0.0349 -0.3704
   87MOL0     H11968   3.431   1.820  12.408 -1.3884 -1.5096 -1.1550
   87MOL0     H11969   3.379   2.012  12.563  1.0271 -1.5691  1.5079
   87MOL0     H11970   3.268   2.081  12.780  1.5682  0.0470 -1.2651
   87MOL0     H11971   3.248   2.190  12.645  1.3343 -3.5208 -2.2406
   87MOL0     H11972   3.029   2.271  12.768 -0.6114  1.9560  0.5439
   87MOL0     H11973   3.059   2.153  12.884  0.4117 -1.1995 -1.6876
   87MOL0     H11974   3.262   2.370  12.818  1.3796 -4.8958 -2.0422
   87MOL0     H11975   3.245   2.284  12.983 -2.1734 -1.0215  0.1625
   87MOL0     H11976   3.028   2.381  13.008 -0.8890 -0.4209 -1.4204
   87MOL0     H11977   3.053   2.493  12.865  0.4000  0.8188 -0.1260
   87MOL0     H11978   3.194   2.485  13.136 -1.1002  0.1252  0.4593
   87MOL0     H11979   3.270   2.574  13.000  0.5181 -0.6117 -0.8858
   87MOL0     H11980   3.006   2.632  13.143 -0.3887  0.3307 -0.1466
   87MOL0     H11981   3.045   2.708  12.985 -1.6302  0.5674  0.5753
   87MOL0     H11982   3.246   2.800  13.074  0.9504  0.9069  1.5037
   87MOL0     H11983   3.194   2.739  13.242 -0.1809  2.2958  1.6398
   87MOL0     H11984   2.994   2.880  13.213 -1.3632 -1.0626 -0.7823
   87MOL0     H11985   3.055   2.932  13.045  2.9506 -0.3791 -0.4066
   87MOL0     H11986   2.969   1.867  12.556  0.6276  2.0604  0.4272
   87MOL0     H11987   3.044   1.680  12.414 -1.3730  1.1577 -1.9975
   87MOL0     H11988   3.466   1.500  12.248  0.4677 -0.5341 -1.8639
   87MOL0     H11989   3.598   1.320  12.221 -0.2718  3.1270 -3.2696
   87MOL0     H11990   2.997   0.402  11.546 -1.2651 -0.7833 -0.1855
   87MOL0     H11991   2.774   0.550  11.500 -2.0907  1.5509  1.3702
   87MOL0     H11992   2.479   0.852  11.732 -0.6983 -0.2136 -0.9604
   87MOL0     H11993   2.299   1.004  11.722 -1.1022  1.8074 -0.8901
   87MOL0     H11994   2.246   1.247  11.336 -1.4490  0.7446  0.4201
   87MOL0     H11995   2.170   1.087  11.333  1.8920 -1.2712  1.2602
   87MOL0     H11996   2.044   1.287  11.505  0.8146 -2.0454  0.6166
   87MOL0     H11997   1.970   1.172  11.390  0.5161 -1.1227 -0.4751
   87MOL0     H11998   2.105   1.421  11.297  0.5575  0.6399 -1.5935
   87MOL0     H11999   1.994   1.321  11.213  0.0285  1.1380 -0.5202
   87MOL0     H12000   1.808   1.391  11.305  0.8193 -0.6360 -0.9800
   87MOL0     H12001   1.880   1.542  11.303 -1.3579  0.0493  0.6850
   87MOL0     H12002   1.856   1.497  11.724  0.4406  0.4726  0.0091
   87MOL0     H12003   2.467   1.164  11.347 -0.0270 -2.0088 -1.3313
   87MOL0     H12004   2.712   0.920  11.302 -3.3576 -0.4576  0.1563
   87MOL0     H12005   2.633   1.072  11.252  1.8093 -1.2003 -2.0362
   87MOL0     H12006   2.772   1.080  11.369 -0.2160  0.2907  0.8132
   88MOL0     O12007   2.097   7.470   7.268 -0.1607  0.1657 -0.0213
   88MOL0     C12008   2.215   7.477   7.222 -0.5139  0.1416 -0.0481
   88MOL0     O12009   2.283   7.598   7.221  0.1000  0.1485  0.8159
   88MOL0     C12010   2.226   7.717   7.250 -0.4101  1.2883  0.0006
   88MOL0     C12011   2.170   7.745   7.374 -0.1410  0.2084 -0.1174
   88MOL0     C12012   2.122   7.869   7.409  0.6622  0.0758 -0.0133
   88MOL0     C12013   2.120   7.966   7.317  1.2568  0.6789 -0.0576
   88MOL0     O12014   2.053   8.087   7.338  0.5948 -0.2596  0.1473
   88MOL0     C12015   2.065   8.162   7.462  0.9470  0.4840 -0.0054
   88MOL0     C12016   1.920   8.186   7.514 -0.2647 -0.4711  0.8445
   88MOL0     C12017   1.912   8.269   7.636  0.2466 -0.9896  0.8466
   88MOL0     C12018   2.015   8.241   7.745  0.7100  0.7593  0.6553
   88MOL0     C12019   1.982   8.098   7.799  0.6241 -0.2786 -0.4843
   88MOL0     C12020   2.075   8.059   7.924 -0.2748 -0.1289  0.3016
   88MOL0     C12021   2.044   7.917   7.982 -0.3149 -0.9787  1.0539
   88MOL0     C12022   2.125   7.807   7.928 -0.8279 -0.1875  0.0470
   88MOL0     N12023   2.267   7.825   7.956 -0.7099 -0.4467  0.2171
   88MOL0     C12024   2.316   7.819   8.086 -0.4082  0.7933 -0.1970
   88MOL0     C12025   2.444   7.813   8.088  0.0300  0.3543 -0.3093
   88MOL0     C12026   2.530   7.808   8.208 -0.2136 -0.4537  0.2339
   88MOL0     C12027   2.534   7.932   8.288 -0.1441 -0.5521 -0.4393
   88MOL0     C12028   2.648   7.958   8.384 -0.6220 -0.1172 -0.5708
   88MOL0     C12029   2.627   8.082   8.462  0.2015  0.2564  0.3802
   88MOL0     O12030   2.715   8.077   8.569 -0.6152  0.8145 -0.3757
   88MOL0     C12031   2.691   8.132   8.698 -0.0468 -0.7986  0.4507
   88MOL0     C12032   2.791   8.137   8.794  0.2659 -0.6283 -0.0266
   88MOL0     C12033   2.784   8.203   8.911  0.4498  0.0760 -1.5870
   88MOL0     C12034   2.903   8.196   9.011 -0.5561  0.3355  0.5035
   88MOL0     C12035   2.657   8.247   8.955 -0.7786 -0.3689 -0.3173
   88MOL0     C12036   2.632   8.317   9.084 -0.6167 -0.5019  0.0219
   88MOL0     O12037   2.507   8.375   9.099 -0.7770  0.4943 -0.2745
   88MOL0     C12038   2.500   8.486   9.174  0.2155  0.5654  1.5780
   88MOL0     C12039   2.606   8.575   9.195  0.3436  0.5042  0.2843
   88MOL0     C12040   2.593   8.705   9.251  0.2486  0.8977  0.5220
   88MOL0     C12041   2.470   8.744   9.281 -0.7667 -0.8031  0.3134
   88MOL0     O12042   2.449   8.874   9.337 -0.0954 -0.3921 -0.1291
   88MOL0     C12043   2.386   8.879   9.467 -0.2909 -0.3404  0.3667
   88MOL0     C12044   2.422   9.000   9.546 -0.4145 -0.2619  0.6383
   88MOL0     C12045   2.350   9.028   9.681 -0.3653 -0.6106 -0.0998
   88MOL0     C12046   2.437   9.123   9.775 -0.0748  0.5939 -0.0723
   88MOL0     C12047   2.376   9.184   9.899 -0.2414 -0.4981  0.4165
   88MOL0     C12048   2.227   9.234   9.884 -0.4028 -0.8900 -0.0901
   88MOL0     C12049   2.192   9.295  10.019  0.6045  0.0689 -0.1256
   88MOL0     C12050   2.186   9.201  10.146  0.1020 -0.9177 -0.3205
   88MOL0    Cl12051   2.094   9.282  10.266 -0.2835  0.0022  0.1333
   88MOL0     C12052   2.363   8.659   9.266 -0.2562 -0.1809  0.3402
   88MOL0     C12053   2.379   8.534   9.213  0.8555  1.5623  0.8137
   88MOL0     O12054   2.709   8.304   9.179 -0.0770 -0.1944 -0.7458
   88MOL0     C12055   2.555   8.256   8.854  0.8661  0.0412  0.8019
   88MOL0     C12056   2.571   8.211   8.724  0.2281 -0.2110  0.8291
   88MOL0     N12057   2.475   7.823   7.955 -0.1630 -0.4949 -0.5853
   88MOL0     N12058   2.370   7.829   7.873  0.2623  0.1698 -0.1236
   88MOL0     C12059   2.166   7.939   7.190  0.4482 -0.4838 -0.4480
   88MOL0     C12060   2.227   7.824   7.157  0.7132  0.5566  0.4666
   88MOL0     C12061   2.301   7.361   7.202  0.1527  0.5155  0.0268
   88MOL0     C12062   2.445   7.376   7.206  0.8451  0.1844 -1.0133
   88MOL0     C12063   2.548   7.274   7.196 -0.6718  0.5857  0.2952
   88MOL0     C12064   2.497   7.147   7.162  0.0904 -0.4156 -0.8812
   88MOL0     O12065   2.575   7.039   7.130  0.3810 -0.1639  0.2217
   88MOL0     C12066   2.711   7.042   7.100  0.7810  0.4023  0.2271
   88MOL0     C12067   2.762   6.895   7.074  0.5517  0.4059  0.1680
   88MOL0     C12068   2.700   6.828   6.947  0.2991 -0.4294  0.0160
   88MOL0     C12069   2.775   6.697   6.904  0.6235  0.0743  0.2808
   88MOL0     C12070   2.802   6.608   7.016 -0.8899  0.2926 -0.3158
   88MOL0     C12071   2.853   6.527   7.095 -0.2319  0.7695  0.7020
   88MOL0     C12072   2.357   7.120   7.155 -0.5433 -1.0139 -0.1769
   88MOL0     C12073   2.261   7.226   7.166  0.7293  0.3398  1.2098
   88MOL0     C12074   2.112   7.189   7.147 -0.3257 -0.3734 -0.4899
   88MOL0     H12075   2.175   7.663   7.445  3.6882  0.4511  0.0825
   88MOL0     H12076   2.079   7.888   7.507  2.6102  1.9278  0.5600
   88MOL0     H12077   2.116   8.257   7.443  0.0371  0.9415 -0.2324
   88MOL0     H12078   2.121   8.111   7.540  2.0536  3.3897  1.2666
   88MOL0     H12079   1.861   8.242   7.441  1.9715 -0.3711 -1.0225
   88MOL0     H12080   1.885   8.084   7.530  0.7430 -0.9980 -0.1392
   88MOL0     H12081   1.937   8.371   7.606  1.0941 -1.6593 -0.9066
   88MOL0     H12082   1.808   8.269   7.669  0.1320 -1.2794  0.4922
   88MOL0     H12083   2.117   8.232   7.705 -0.2905  1.5499 -2.3777
   88MOL0     H12084   2.017   8.321   7.820  0.3982  1.1230  0.2818
   88MOL0     H12085   1.988   8.034   7.710  1.0911  0.1497 -0.7678
   88MOL0     H12086   1.878   8.080   7.824  0.8446  0.0738  0.7157
   88MOL0     H12087   2.181   8.065   7.897 -0.6508 -1.2494 -1.6116
   88MOL0     H12088   2.060   8.122   8.012  3.2958 -1.2655  1.9107
   88MOL0     H12089   1.940   7.895   7.956 -1.0616  3.2534 -0.3025
   88MOL0     H12090   2.066   7.923   8.089 -1.2168 -1.8314  1.2981
   88MOL0     H12091   2.094   7.714   7.978  1.1155  0.1568  2.0335
   88MOL0     H12092   2.117   7.798   7.819  1.3204 -0.1735 -0.1608
   88MOL0     H12093   2.257   7.809   8.177  1.5983 -0.1119  1.0760
   88MOL0     H12094   2.633   7.810   8.172 -1.1510 -0.2843 -2.6938
   88MOL0     H12095   2.498   7.720   8.264 -1.4764 -0.8383 -1.0222
   88MOL0     H12096   2.541   8.015   8.218 -1.9310  0.8072  0.8601
   88MOL0     H12097   2.440   7.949   8.343  0.9806  1.0327  1.1138
   88MOL0     H12098   2.667   7.870   8.446 -2.4089 -0.9394 -1.0975
   88MOL0     H12099   2.732   7.971   8.315 -0.2937 -4.5055 -1.2974
   88MOL0     H12100   2.638   8.173   8.403 -0.5015  0.5328  0.6723
   88MOL0     H12101   2.524   8.087   8.497 -1.0681  3.1257 -3.0719
   88MOL0     H12102   2.882   8.087   8.766 -0.3365 -0.8005 -1.7483
   88MOL0     H12103   2.871   8.145   9.102 -0.2206  1.1906  1.1191
   88MOL0     H12104   2.934   8.299   9.033 -2.7266  1.6541 -1.9812
   88MOL0     H12105   2.987   8.138   8.970 -1.9908 -2.3165  1.1210
   88MOL0     H12106   2.702   8.548   9.152  0.6696  1.2934  0.4796
   88MOL0     H12107   2.682   8.762   9.272  2.7779 -1.8998 -1.6083
   88MOL0     H12108   2.279   8.886   9.447 -0.5848 -1.4516  1.4431
   88MOL0     H12109   2.407   8.787   9.523  4.3221 -1.6631 -2.9332
   88MOL0     H12110   2.530   8.987   9.554 -0.5816 -2.4789 -0.1642
   88MOL0     H12111   2.397   9.091   9.490 -0.0467 -0.1189  0.7082
   88MOL0     H12112   2.356   8.935   9.737  0.1248  0.9691  2.6730
   88MOL0     H12113   2.248   9.069   9.677  0.2937  1.4035  1.7117
   88MOL0     H12114   2.462   9.206   9.709 -1.2083  0.0542 -1.2177
   88MOL0     H12115   2.532   9.077   9.802  0.3330  1.6650  0.4008
   88MOL0     H12116   2.385   9.108   9.977  0.6344 -1.7117 -0.8376
   88MOL0     H12117   2.440   9.268   9.929 -1.3685  0.7412 -0.5313
   88MOL0     H12118   2.153   9.163   9.846 -1.4560  1.1249 -2.0355
   88MOL0     H12119   2.211   9.317   9.815  2.8210 -2.2029 -2.7104
   88MOL0     H12120   2.090   9.334  10.007  0.5580 -0.2542 -0.8709
   88MOL0     H12121   2.255   9.381  10.042  1.0850 -0.1964 -0.4491
   88MOL0     H12122   2.287   9.180  10.183 -0.1906 -0.7962  0.5520
   88MOL0     H12123   2.136   9.108  10.120 -0.4100 -0.6648 -0.2565
   88MOL0     H12124   2.267   8.700   9.295  0.5917  1.6618  0.6662
   88MOL0     H12125   2.289   8.474   9.211  1.4422  0.6592  0.9444
   88MOL0     H12126   2.457   8.297   8.875 -0.6150 -0.8504 -3.3628
   88MOL0     H12127   2.490   8.236   8.655  0.4405  3.8140  1.7725
   88MOL0     H12128   2.163   8.018   7.116 -0.0756 -0.1009 -0.0260
   88MOL0     H12129   2.260   7.808   7.055 -2.7496 -2.0459 -0.4348
   88MOL0     H12130   2.475   7.480   7.221  1.5545 -0.3466  1.9223
   88MOL0     H12131   2.654   7.296   7.190  0.8535 -4.6650  2.5552
   88MOL0     H12132   2.726   7.102   7.010 -0.4498 -1.5921 -1.4163
   88MOL0     H12133   2.760   7.084   7.188  1.5884 -1.6322  0.7872
   88MOL0     H12134   2.737   6.831   7.159  0.8418  0.4548  0.2926
   88MOL0     H12135   2.870   6.909   7.061  0.1666  4.7722  0.1582
   88MOL0     H12136   2.596   6.807   6.971  0.7099 -0.3405  2.0887
   88MOL0     H12137   2.696   6.903   6.867 -1.2596 -1.5449 -0.9978
   88MOL0     H12138   2.862   6.719   6.841  1.5416 -0.2855  1.4052
   88MOL0     H12139   2.715   6.638   6.834  0.0335  1.1823 -0.1817
   88MOL0     H12140   2.900   6.453   7.158 -1.7663  0.5223  1.6094
   88MOL0     H12141   2.330   7.017   7.138 -0.9102 -0.9697  0.1201
   88MOL0     H12142   2.070   7.259   7.075  0.5264 -0.6288 -1.2548
   88MOL0     H12143   2.099   7.087   7.112 -2.4018 -0.1607 -0.4247
   88MOL0     H12144   2.066   7.203   7.245  2.5649  2.1645  0.6798
   89MOL0     O12145   7.694   2.647  10.514  0.6789 -0.0922  0.2462
   89MOL0     C12146   7.807   2.614  10.556  0.3632  0.3857  0.4854
   89MOL0     O12147   7.840   2.565  10.679 -0.6955 -0.3791  0.4994
   89MOL0     C12148   7.968   2.528  10.704  0.1654 -0.1687 -0.6454
   89MOL0     C12149   7.994   2.398  10.726  0.4413  0.5853 -0.2131
   89MOL0     C12150   8.126   2.367  10.751  0.7726 -0.5033 -0.6952
   89MOL0     C12151   8.225   2.462  10.764  0.0442 -0.5700 -0.0259
   89MOL0     O12152   8.351   2.410  10.777  0.0503  0.6500  0.1345
   89MOL0     C12153   8.449   2.499  10.827 -0.9550  0.6370  0.8472
   89MOL0     C12154   8.587   2.434  10.820  0.7150  0.2745 -0.8795
   89MOL0     C12155   8.667   2.463  10.959  1.1418  0.4492 -0.6530
   89MOL0     C12156   8.713   2.611  10.962  0.7552  0.3176  0.5848
   89MOL0     C12157   8.760   2.648  11.103 -1.1491  0.0443 -0.2449
   89MOL0     C12158   8.812   2.788  11.109  1.0292  0.1264 -0.7226
   89MOL0     C12159   8.946   2.809  11.054 -0.7046 -0.8908  0.5454
   89MOL0     C12160   9.063   2.744  11.132 -0.3429  0.6935 -0.3669
   89MOL0     N12161   9.061   2.760  11.282 -0.0830  0.5530 -0.3738
   89MOL0     C12162   8.999   2.676  11.368  0.2235 -0.0069  0.2179
   89MOL0     C12163   9.048   2.721  11.488 -0.2284 -0.0032 -1.2323
   89MOL0     C12164   9.002   2.665  11.617 -0.9578  0.5576  0.2318
   89MOL0     C12165   8.845   2.630  11.628  0.2644 -0.6564  0.2379
   89MOL0     C12166   8.815   2.471  11.620 -0.7256 -1.1227  0.7963
   89MOL0     C12167   8.724   2.425  11.742  0.5008 -0.1359  0.4924
   89MOL0     O12168   8.589   2.441  11.718  0.1233 -0.4581 -0.4458
   89MOL0     C12169   8.499   2.405  11.823 -0.3384 -0.4397  0.0879
   89MOL0     C12170   8.367   2.395  11.785 -0.5606 -0.1001  0.2053
   89MOL0     C12171   8.266   2.345  11.868  0.7671 -0.6500  0.3291
   89MOL0     C12172   8.127   2.331  11.811 -0.5981  0.2561  0.7583
   89MOL0     C12173   8.304   2.306  12.002 -1.2843  1.0143  0.1123
   89MOL0     C12174   8.217   2.253  12.098  0.4237  0.9061 -0.1245
   89MOL0     O12175   8.098   2.194  12.052 -0.8363 -0.2495  0.3261
   89MOL0     C12176   8.012   2.132  12.141 -0.5059  0.5333  0.8210
   89MOL0     C12177   8.059   2.042  12.238  0.4034  0.0755 -0.1346
   89MOL0     C12178   7.969   1.981  12.329 -0.0830 -0.4594  0.7531
   89MOL0     C12179   7.827   2.005  12.309 -0.7208  0.6239 -0.8202
   89MOL0     O12180   7.729   1.952  12.397  0.2388 -0.5525 -0.3695
   89MOL0     C12181   7.765   1.918  12.537 -0.7001  0.4834  0.2751
   89MOL0     C12182   7.799   2.035  12.629  0.6857 -0.0130 -0.6335
   89MOL0     C12183   7.686   2.150  12.620 -0.9126  0.5118 -0.6635
   89MOL0     C12184   7.550   2.108  12.658 -0.1614  0.4317  0.1564
   89MOL0     C12185   7.440   2.216  12.666 -0.3620 -0.1381  0.4147
   89MOL0     C12186   7.403   2.265  12.522 -0.2705 -0.4548 -1.1696
   89MOL0     C12187   7.424   2.171  12.409 -0.7290  0.1075  0.9768
   89MOL0     C12188   7.330   2.053  12.417 -0.2279 -0.6631 -0.0172
   89MOL0    Cl12189   7.183   2.105  12.335 -0.1536 -0.1799  0.3353
   89MOL0     C12190   7.781   2.087  12.205  0.1054  0.5067  0.0125
   89MOL0     C12191   7.875   2.146  12.115  0.3013 -0.7187  0.3323
   89MOL0     O12192   8.249   2.261  12.211  0.1831 -0.3166  0.2269
   89MOL0     C12193   8.438   2.320  12.038 -0.4696  0.2245 -0.3162
   89MOL0     C12194   8.532   2.374  11.951 -0.7916  0.6728 -1.1023
   89MOL0     N12195   9.133   2.830  11.479 -0.0764  0.4744  0.7297
   89MOL0     N12196   9.147   2.853  11.353  0.1063 -0.1904 -0.9041
   89MOL0     C12197   8.197   2.599  10.758  0.9022 -0.7312  0.6745
   89MOL0     C12198   8.059   2.633  10.732 -0.1119 -0.4520 -0.2053
   89MOL0     C12199   7.904   2.631  10.442  0.8850 -0.1913  0.8263
   89MOL0     C12200   7.936   2.515  10.375  0.5554  0.0645  0.7718
   89MOL0     C12201   8.010   2.512  10.259  0.5518  0.6789 -0.4177
   89MOL0     C12202   8.065   2.625  10.205  0.7441 -0.2024  0.6231
   89MOL0     O12203   8.134   2.639  10.087  0.4213 -0.0237  1.2932
   89MOL0     C12204   8.184   2.522  10.017  0.8463  0.2306  0.0854
   89MOL0     C12205   8.300   2.453  10.100 -0.6926  0.4917 -0.6827
   89MOL0     C12206   8.424   2.539  10.112  0.2097 -0.8718 -0.3594
   89MOL0     C12207   8.541   2.488  10.199  0.0699  0.0790  0.7958
   89MOL0     C12208   8.502   2.456  10.336  0.1311 -0.8909 -0.4461
   89MOL0     C12209   8.478   2.421  10.447 -0.0218 -0.4588 -0.4543
   89MOL0     C12210   8.042   2.748  10.283 -0.1403  0.4678  0.4912
   89MOL0     C12211   7.967   2.745  10.397  0.0005 -0.5992 -1.0732
   89MOL0     C12212   7.946   2.874  10.472 -0.2893 -0.7270 -0.2813
   89MOL0     H12213   7.924   2.315  10.716 -0.4921  1.4875 -1.6557
   89MOL0     H12214   8.150   2.262  10.769 -0.9608 -0.9286 -0.6556
   89MOL0     H12215   8.439   2.526  10.932  0.4067 -2.0102  1.7428
   89MOL0     H12216   8.456   2.590  10.767 -1.4931  0.1766  0.0680
   89MOL0     H12217   8.568   2.327  10.812 -3.9797  0.9510 -1.7328
   89MOL0     H12218   8.627   2.465  10.723  2.3361 -1.0168 -0.6588
   89MOL0     H12219   8.600   2.431  11.039 -0.3497 -1.3626 -2.5164
   89MOL0     H12220   8.748   2.390  10.974 -2.7967 -3.9263  1.8845
   89MOL0     H12221   8.795   2.629  10.892  1.6862  1.4046  1.8831
   89MOL0     H12222   8.630   2.674  10.929 -0.1431 -0.6983  0.8754
   89MOL0     H12223   8.840   2.580  11.136 -1.8317 -1.6206 -1.8711
   89MOL0     H12224   8.679   2.638  11.176 -0.0809 -0.1265  0.9536
   89MOL0     H12225   8.749   2.858  11.054  1.6807 -0.6747 -2.5444
   89MOL0     H12226   8.800   2.829  11.210 -1.6827  1.8305 -1.6479
   89MOL0     H12227   8.954   2.917  11.038  1.4804 -1.3791 -2.5157
   89MOL0     H12228   8.962   2.765  10.955  4.1588 -0.7086  0.9966
   89MOL0     H12229   9.054   2.637  11.109  1.7229 -0.1768  2.3747
   89MOL0     H12230   9.163   2.775  11.101  1.9979 -6.6947 -2.2905
   89MOL0     H12231   8.927   2.596  11.358 -0.8833  0.9490  0.2137
   89MOL0     H12232   9.019   2.744  11.692 -1.0363  0.8230 -0.0289
   89MOL0     H12233   9.070   2.584  11.646  1.9084  2.0039 -1.9621
   89MOL0     H12234   8.815   2.662  11.728 -0.4099  0.4964 -0.3144
   89MOL0     H12235   8.795   2.686  11.549  1.0459 -2.1705 -1.4041
   89MOL0     H12236   8.750   2.463  11.533 -1.8810 -1.2725  1.6430
   89MOL0     H12237   8.905   2.410  11.616  0.4680  0.4681  1.8876
   89MOL0     H12238   8.743   2.317  11.752  1.7942 -0.0163 -0.4430
   89MOL0     H12239   8.757   2.473  11.834 -1.4367  1.2908  0.5057
   89MOL0     H12240   8.338   2.427  11.686 -4.2107  1.3844  1.5867
   89MOL0     H12241   8.139   2.343  11.703 -0.9528  0.0103  0.6892
   89MOL0     H12242   8.064   2.401  11.866 -1.4490 -0.9144  1.3193
   89MOL0     H12243   8.097   2.226  11.804  2.3881 -0.6122 -1.1772
   89MOL0     H12244   8.160   2.014  12.266 -1.0485 -3.1031  2.6212
   89MOL0     H12245   8.019   1.917  12.402 -0.6425 -0.3642  1.2312
   89MOL0     H12246   7.677   1.886  12.594  1.2769  1.4687  4.2186
   89MOL0     H12247   7.841   1.840  12.540  0.6279  1.7693  1.1526
   89MOL0     H12248   7.817   2.000  12.731 -1.1936  0.0857 -0.2345
   89MOL0     H12249   7.892   2.075  12.586 -0.0025  1.9268 -0.4438
   89MOL0     H12250   7.691   2.200  12.523 -2.1430 -0.0995 -1.0569
   89MOL0     H12251   7.720   2.229  12.688 -1.6619  1.5376 -1.4448
   89MOL0     H12252   7.551   2.068  12.759 -3.6288 -0.4960 -0.0553
   89MOL0     H12253   7.520   2.018  12.602 -0.2463 -0.0962  1.0386
   89MOL0     H12254   7.350   2.171  12.710 -0.1428 -0.5627  0.4311
   89MOL0     H12255   7.477   2.298  12.729  0.8706 -0.7587  0.5143
   89MOL0     H12256   7.466   2.352  12.502  2.9749 -2.0399  1.1927
   89MOL0     H12257   7.309   2.322  12.518  0.9612  2.5124  3.3943
   89MOL0     H12258   7.528   2.138  12.402 -1.1633 -1.0690 -0.3647
   89MOL0     H12259   7.407   2.224  12.315 -1.9288 -1.5067  0.2479
   89MOL0     H12260   7.306   2.027  12.521  0.1310  0.1813  0.2832
   89MOL0     H12261   7.354   1.964  12.359 -6.3135 -2.4424 -0.5183
   89MOL0     H12262   7.676   2.116  12.209 -0.3530 -0.7889 -1.6294
   89MOL0     H12263   7.853   2.196  12.021  0.6591 -0.4768  0.3736
   89MOL0     H12264   8.475   2.292  12.136  1.1890  1.4091 -0.5684
   89MOL0     H12265   8.635   2.375  11.985 -0.9337 -2.3012 -0.3530
   89MOL0     H12266   8.270   2.677  10.776 -1.2548  1.9117 -1.3168
   89MOL0     H12267   8.021   2.734  10.734 -2.2130 -1.1998  2.2838
   89MOL0     H12268   7.891   2.422  10.408  0.1519  0.8308  2.4624
   89MOL0     H12269   8.008   2.421  10.201  0.1747  1.3165 -1.4456
   89MOL0     H12270   8.105   2.448   9.998  0.3488  0.3154  1.6972
   89MOL0     H12271   8.238   2.561   9.930  2.6449  0.4745  1.2701
   89MOL0     H12272   8.333   2.373  10.034 -1.4305  0.8212 -1.4770
   89MOL0     H12273   8.259   2.429  10.198  2.3186  1.1514  0.8714
   89MOL0     H12274   8.467   2.554  10.013  0.0882 -1.6193 -0.5341
   89MOL0     H12275   8.390   2.633  10.156 -1.8914 -1.4563 -0.5986
   89MOL0     H12276   8.613   2.570  10.202 -1.4860  1.6043 -0.5194
   89MOL0     H12277   8.580   2.402  10.143 -0.6839 -1.0989  2.0183
   89MOL0     H12278   8.461   2.387  10.547  0.9481  0.9781  0.2318
   89MOL0     H12279   8.087   2.840  10.247 -1.6687  0.9419 -0.2888
   89MOL0     H12280   7.957   2.961  10.406  2.3578  0.9088  2.0835
   89MOL0     H12281   7.844   2.891  10.510 -1.3258 -2.2150 -2.2150
   89MOL0     H12282   8.013   2.894  10.556 -0.5849 -0.2353 -0.1589
   90MOL0     O12283   7.116  10.395   3.749  0.8635  0.8159 -0.4830
   90MOL0     C12284   7.013  10.369   3.815  0.2996  1.1019  0.4374
   90MOL0     O12285   7.008  10.368   3.947 -0.0416 -0.4091 -0.2314
   90MOL0     C12286   7.100  10.434   4.023  0.0404 -0.9732 -0.7240
   90MOL0     C12287   7.068  10.567   4.079 -0.7370 -0.4719  0.5995
   90MOL0     C12288   7.148  10.629   4.179 -0.8230 -0.0576 -0.8456
   90MOL0     C12289   7.272  10.562   4.219 -0.9532 -0.4288 -0.9194
   90MOL0     O12290   7.347  10.626   4.319  0.5589  0.0454 -0.6106
   90MOL0     C12291   7.477  10.571   4.359 -0.3331  1.2984  0.5513
   90MOL0     C12292   7.447  10.466   4.462  0.2017  0.5323 -0.3449
   90MOL0     C12293   7.384  10.525   4.592 -1.1179  0.7544  1.0523
   90MOL0     C12294   7.388  10.426   4.722 -0.3044 -0.7121  0.2502
   90MOL0     C12295   7.266  10.431   4.811 -0.5381  0.6518  0.5218
   90MOL0     C12296   7.253  10.567   4.883 -0.8367 -0.1711  0.4597
   90MOL0     C12297   7.142  10.558   4.989 -0.5426  0.3319 -0.0612
   90MOL0     C12298   7.081  10.697   5.025  0.0541  0.6604 -0.0146
   90MOL0     N12299   6.991  10.684   5.140  1.0267  0.6043  0.4637
   90MOL0     C12300   6.886  10.603   5.132 -0.3197  0.7130  0.2419
   90MOL0     C12301   6.820  10.619   5.243 -0.3342  0.7036  0.2927
   90MOL0     C12302   6.705  10.531   5.278 -0.0823  0.3327 -0.1921
   90MOL0     C12303   6.573  10.582   5.200 -1.1175  0.0669  0.0786
   90MOL0     C12304   6.453  10.497   5.245 -0.0516 -0.6431 -0.2877
   90MOL0     C12305   6.318  10.521   5.175 -0.3824 -0.0261 -0.4190
   90MOL0     O12306   6.341  10.522   5.033  0.6124  0.7064  0.5996
   90MOL0     C12307   6.231  10.552   4.953  0.9840  0.5834  0.7846
   90MOL0     C12308   6.137  10.658   4.982 -0.1490 -0.4098  0.2239
   90MOL0     C12309   6.035  10.688   4.901  0.0234  0.4002 -0.0121
   90MOL0     C12310   5.942  10.807   4.951  0.2495  0.3317 -0.2751
   90MOL0     C12311   6.017  10.625   4.773  0.4274  0.0662  0.1176
   90MOL0     C12312   5.900  10.656   4.686  0.0160 -0.7171 -0.2282
   90MOL0     O12313   5.880  10.555   4.593 -0.4057 -0.4512  0.9417
   90MOL0     C12314   5.797  10.592   4.487  0.0730 -0.0275  1.0452
   90MOL0     C12315   5.784  10.720   4.421  0.1403  0.4487 -0.2087
   90MOL0     C12316   5.698  10.739   4.320  0.8407 -0.2362 -0.2354
   90MOL0     C12317   5.616  10.636   4.274 -0.2698 -0.6486 -0.3727
   90MOL0     O12318   5.553  10.650   4.160 -0.1947 -0.2135 -0.2910
   90MOL0     C12319   5.418  10.596   4.173 -0.0937  0.3047 -0.3384
   90MOL0     C12320   5.315  10.697   4.116 -0.4986  0.5851 -0.4991
   90MOL0     C12321   5.181  10.636   4.098  0.0267 -0.4096 -0.4032
   90MOL0     C12322   5.139  10.597   3.953 -0.0686 -1.3853 -0.2261
   90MOL0     C12323   4.995  10.565   3.942  0.3512 -0.2200 -0.1563
   90MOL0     C12324   4.953  10.544   3.786  1.3136 -1.3331 -0.4021
   90MOL0     C12325   5.031  10.438   3.702 -0.0533 -0.4808 -1.3189
   90MOL0     C12326   4.998  10.434   3.543  0.3165 -0.3710 -0.3575
   90MOL0    Cl12327   4.812  10.395   3.532  0.1585 -0.4473 -0.3518
   90MOL0     C12328   5.631  10.509   4.344  0.6409 -1.1165  0.3197
   90MOL0     C12329   5.719  10.488   4.446  0.1449 -0.1758 -0.7755
   90MOL0     O12330   5.844  10.769   4.689 -0.2977 -0.3253  1.1211
   90MOL0     C12331   6.104  10.529   4.739  0.9775  0.8919  0.0171
   90MOL0     C12332   6.220  10.494   4.825  0.1961 -0.1601  0.3049
   90MOL0     N12333   6.883  10.718   5.320 -0.1741 -0.1765 -0.4936
   90MOL0     N12334   6.987  10.759   5.253  0.4509  0.1376  0.6140
   90MOL0     C12335   7.298  10.435   4.167  0.5435 -1.0817  1.1848
   90MOL0     C12336   7.206  10.375   4.076  0.7179  0.7088 -0.1348
   90MOL0     C12337   6.884  10.328   3.738  0.3258 -0.2402  0.8698
   90MOL0     C12338   6.755  10.342   3.801  0.1451 -1.2139  0.1549
   90MOL0     C12339   6.637  10.300   3.737  0.1744  0.1850  0.1842
   90MOL0     C12340   6.640  10.250   3.609  0.6831 -0.8452 -0.0503
   90MOL0     O12341   6.527  10.203   3.548  0.3756 -0.1913 -0.5237
   90MOL0     C12342   6.495  10.186   3.408 -0.5981 -0.2058 -0.1431
   90MOL0     C12343   6.343  10.171   3.404  0.0218 -0.4093 -0.2286
   90MOL0     C12344   6.300  10.022   3.427 -0.2182  0.3560  0.0315
   90MOL0     C12345   6.166   9.988   3.361  1.0762  1.3587  0.7443
   90MOL0     C12346   6.113   9.864   3.419  0.1132 -0.0761 -0.1902
   90MOL0     C12347   6.076   9.769   3.476  0.4874  0.5664 -0.3554
   90MOL0     C12348   6.764  10.244   3.541  0.7644  0.9355 -0.2523
   90MOL0     C12349   6.891  10.270   3.608 -0.1578  0.3641  0.1293
   90MOL0     C12350   7.011  10.256   3.521 -0.7837 -0.1965 -0.4111
   90MOL0     H12351   6.981  10.620   4.040 -1.3845 -0.3427  2.1107
   90MOL0     H12352   7.110  10.714   4.235  0.1220  1.2035 -2.0677
   90MOL0     H12353   7.539  10.659   4.381  2.3414 -0.6481  1.2429
   90MOL0     H12354   7.518  10.507   4.281 -1.1748 -0.2885  1.3688
   90MOL0     H12355   7.377  10.392   4.421  0.5887 -0.1060  0.1139
   90MOL0     H12356   7.540  10.418   4.494  1.0740  2.4623  0.1203
   90MOL0     H12357   7.421  10.624   4.618  1.9245 -0.4252  1.5583
   90MOL0     H12358   7.279  10.546   4.570 -1.2064 -2.6339 -3.2620
   90MOL0     H12359   7.383  10.323   4.684  0.5011 -1.3213  1.7023
   90MOL0     H12360   7.485  10.439   4.771  0.2232 -2.1470 -0.3627
   90MOL0     H12361   7.263  10.345   4.879  3.1929  0.2670  0.3887
   90MOL0     H12362   7.184  10.413   4.741  0.5017 -1.2845 -0.2842
   90MOL0     H12363   7.351  10.594   4.924 -2.3034  3.8674  1.7444
   90MOL0     H12364   7.224  10.647   4.815 -1.0497 -0.0521  0.6879
   90MOL0     H12365   7.183  10.518   5.083  0.7805  1.2266 -0.2439
   90MOL0     H12366   7.059  10.497   4.950 -0.9877  1.3003 -0.6538
   90MOL0     H12367   7.159  10.765   5.060 -1.6045  1.9679  1.2977
   90MOL0     H12368   7.019  10.727   4.940 -0.7543 -2.0288 -0.4754
   90MOL0     H12369   6.877  10.537   5.046 -1.5200  1.5913 -0.3363
   90MOL0     H12370   6.688  10.544   5.385  1.3368 -1.0003  0.2311
   90MOL0     H12371   6.728  10.425   5.261 -1.4234 -0.3344  1.7910
   90MOL0     H12372   6.546  10.686   5.216 -3.6493 -0.2515 -1.6482
   90MOL0     H12373   6.593  10.563   5.094 -0.9044 -0.0209  0.1326
   90MOL0     H12374   6.480  10.392   5.226  2.2875 -0.4919  1.7352
   90MOL0     H12375   6.442  10.510   5.353  0.5739 -0.7832 -0.2054
   90MOL0     H12376   6.256  10.432   5.194  3.6520 -2.7671  1.4589
   90MOL0     H12377   6.271  10.609   5.219 -2.5712 -0.0189 -2.5738
   90MOL0     H12378   6.166  10.718   5.067 -2.6116 -0.3913  1.1409
   90MOL0     H12379   5.925  10.892   4.884 -1.6203  1.0292  1.0042
   90MOL0     H12380   5.984  10.860   5.036  3.3543 -0.8707 -0.9254
   90MOL0     H12381   5.848  10.753   4.965  0.6179 -0.7566 -1.7003
   90MOL0     H12382   5.867  10.781   4.455  0.9202 -0.0629 -1.1690
   90MOL0     H12383   5.721  10.830   4.265  4.3664 -1.4548 -1.0317
   90MOL0     H12384   5.410  10.508   4.110  0.5574 -0.1001  0.1357
   90MOL0     H12385   5.378  10.562   4.269 -1.3037 -0.3399 -1.0434
   90MOL0     H12386   5.319  10.781   4.185 -2.2699 -0.2036  0.6245
   90MOL0     H12387   5.350  10.731   4.018  3.0183 -0.6612  0.1483
   90MOL0     H12388   5.104  10.706   4.131  1.1357  0.2309  0.9526
   90MOL0     H12389   5.167  10.552   4.167 -0.9966  1.9675  2.5315
   90MOL0     H12390   5.198  10.513   3.913  2.3603  1.7445 -3.9544
   90MOL0     H12391   5.163  10.679   3.885  1.8948 -1.8021 -0.1048
   90MOL0     H12392   4.980  10.483   4.013  0.3288 -0.7594 -0.7710
   90MOL0     H12393   4.938  10.647   3.987 -1.4927 -1.7511  0.4168
   90MOL0     H12394   4.944  10.635   3.727 -0.5430 -0.2952  1.3590
   90MOL0     H12395   4.851  10.504   3.790 -0.8841  3.6033 -0.3541
   90MOL0     H12396   5.028  10.341   3.752  3.1356  0.6131  1.3636
   90MOL0     H12397   5.135  10.473   3.707 -0.0968 -0.4221 -0.7371
   90MOL0     H12398   5.059  10.366   3.483  0.0574 -0.1210 -0.9123
   90MOL0     H12399   5.014  10.525   3.485  0.1649 -1.3566 -2.0264
   90MOL0     H12400   5.579  10.416   4.322  0.5691 -1.5689  2.2145
   90MOL0     H12401   5.734  10.394   4.498 -0.0328  0.7306  0.9812
   90MOL0     H12402   6.096  10.481   4.641 -0.8508  1.7414 -0.2931
   90MOL0     H12403   6.278  10.408   4.793  0.3140  0.2649 -0.6598
   90MOL0     H12404   7.394  10.384   4.174  2.3076  2.1548  2.4534
   90MOL0     H12405   7.232  10.278   4.036  1.3024  0.2129  1.3650
   90MOL0     H12406   6.755  10.403   3.890  2.7687 -1.2405  0.2405
   90MOL0     H12407   6.538  10.321   3.776 -0.6767  0.3896 -1.9568
   90MOL0     H12408   6.526  10.277   3.356 -1.4824 -0.3581 -0.9569
   90MOL0     H12409   6.542  10.093   3.375 -2.0966 -1.2455  0.5484
   90MOL0     H12410   6.315  10.208   3.305  2.4111 -0.0648 -0.8438
   90MOL0     H12411   6.279  10.231   3.469 -0.5737 -1.5694  0.2735
   90MOL0     H12412   6.372   9.963   3.370 -1.5562 -0.5833 -0.7533
   90MOL0     H12413   6.301   9.993   3.533 -0.7946  1.2770  0.2979
   90MOL0     H12414   6.169   9.977   3.253  1.6927  0.5189  0.8327
   90MOL0     H12415   6.103  10.071   3.391  1.5838  1.3024  2.0605
   90MOL0     H12416   6.038   9.687   3.534  2.1443 -0.8323 -1.1578
   90MOL0     H12417   6.771  10.206   3.439 -4.1288 -0.1325 -0.4426
   90MOL0     H12418   7.048  10.358   3.507 -1.3095  0.4320  2.2557
   90MOL0     H12419   7.078  10.189   3.576 -1.9741 -1.2320 -0.1765
   90MOL0     H12420   6.980  10.221   3.422 -0.2279  1.9162 -1.3947
   91MOL0     O12421   4.814   8.598   3.688 -0.0914 -0.3029  0.2542
   91MOL0     C12422   4.816   8.684   3.769 -1.4462  0.0119 -0.0042
   91MOL0     O12423   4.913   8.708   3.856  0.2429  0.2497 -0.3788
   91MOL0     C12424   4.984   8.607   3.920  0.2534 -0.7200 -0.1050
   91MOL0     C12425   5.061   8.649   4.021 -0.2666  0.1907  0.4332
   91MOL0     C12426   5.120   8.554   4.112  0.5139  0.3772 -0.5596
   91MOL0     C12427   5.099   8.414   4.095 -0.0710  0.2448 -0.7113
   91MOL0     O12428   5.148   8.315   4.172  0.5520 -1.0146  0.0874
   91MOL0     C12429   5.252   8.343   4.266 -0.5039 -0.4574 -0.7541
   91MOL0     C12430   5.209   8.370   4.418  0.7665  0.3998 -0.3670
   91MOL0     C12431   5.108   8.250   4.450 -0.0135  0.3388  0.1092
   91MOL0     C12432   5.083   8.238   4.603  0.0265 -0.2736  0.0788
   91MOL0     C12433   4.996   8.122   4.643  0.1804 -0.5955 -0.6311
   91MOL0     C12434   4.848   8.160   4.635 -0.0708  0.7302  0.9607
   91MOL0     C12435   4.771   8.036   4.657 -0.5725 -0.3887 -0.8746
   91MOL0     C12436   4.621   8.042   4.616 -0.3340  0.1157 -0.4353
   91MOL0     N12437   4.534   8.137   4.684 -0.0617 -0.0706  0.7116
   91MOL0     C12438   4.544   8.155   4.817  0.4656 -0.3394  0.2611
   91MOL0     C12439   4.431   8.220   4.859  0.2645 -0.3871 -0.7738
   91MOL0     C12440   4.382   8.256   4.996 -0.2508 -0.5468 -0.1722
   91MOL0     C12441   4.236   8.220   5.016 -0.2773 -0.0619 -0.6723
   91MOL0     C12442   4.195   8.289   5.159 -0.0509 -0.5518  0.6966
   91MOL0     C12443   4.172   8.433   5.143  0.6725 -0.1134 -0.2024
   91MOL0     O12444   4.269   8.521   5.213 -0.4211 -0.4730  0.1065
   91MOL0     C12445   4.234   8.652   5.209  0.8863  0.0399  0.1615
   91MOL0     C12446   4.102   8.697   5.188  0.7665 -0.2106  0.0523
   91MOL0     C12447   4.065   8.831   5.179  0.3111  0.4276  0.4876
   91MOL0     C12448   3.925   8.865   5.133  0.1124 -0.2264 -0.0212
   91MOL0     C12449   4.169   8.921   5.208  0.1756 -0.2603  0.2200
   91MOL0     C12450   4.143   9.064   5.194 -0.4976 -0.2525 -0.2228
   91MOL0     O12451   4.204   9.156   5.282 -0.1065  0.2435 -0.4442
   91MOL0     C12452   4.161   9.283   5.289 -0.5199 -0.7877  0.2444
   91MOL0     C12453   4.035   9.329   5.333  0.6585  0.3599 -0.0695
   91MOL0     C12454   4.002   9.461   5.309 -0.4704  0.2800 -0.2365
   91MOL0     C12455   4.090   9.560   5.263  0.1316 -0.8351  0.6354
   91MOL0     O12456   4.067   9.694   5.235  1.2863 -0.8047 -0.7426
   91MOL0     C12457   3.938   9.741   5.278  0.0061  0.0792  0.7679
   91MOL0     C12458   3.906   9.889   5.244 -0.5200  0.5125 -0.8988
   91MOL0     C12459   3.917   9.907   5.088 -0.1892 -0.1638 -0.6914
   91MOL0     C12460   3.880  10.044   5.058 -0.2370 -0.9954 -0.8407
   91MOL0     C12461   3.900  10.065   4.911  0.4105 -0.0168 -0.7449
   91MOL0     C12462   3.886  10.212   4.883  0.2618 -0.0075  0.2808
   91MOL0     C12463   3.884  10.256   4.735  0.5763  0.7220 -1.0343
   91MOL0     C12464   4.014  10.233   4.655 -0.3514  0.2892  0.2355
   91MOL0    Cl12465   4.138  10.352   4.716 -0.0913 -0.1710  0.3101
   91MOL0     C12466   4.214   9.510   5.223 -0.0840 -0.0365 -0.5016
   91MOL0     C12467   4.253   9.374   5.237 -0.1966 -0.4124 -0.7611
   91MOL0     O12468   4.075   9.097   5.098  0.1282 -0.4459  0.3741
   91MOL0     C12469   4.302   8.878   5.248  0.0065  0.7768 -0.1966
   91MOL0     C12470   4.332   8.741   5.246  0.4829 -0.2010  0.4168
   91MOL0     N12471   4.357   8.252   4.739  0.8313  0.6826 -1.2968
   91MOL0     N12472   4.418   8.199   4.647 -0.9650  0.1278 -0.0602
   91MOL0     C12473   5.007   8.376   4.003  0.4075 -0.2186  0.5524
   91MOL0     C12474   4.947   8.471   3.921  0.4984 -0.3252  0.1543
   91MOL0     C12475   4.717   8.786   3.759 -0.2489  0.6519 -0.1025
   91MOL0     C12476   4.725   8.895   3.855  0.1386 -0.2931 -0.3782
   91MOL0     C12477   4.645   9.015   3.848  0.1529 -0.4082 -0.3174
   91MOL0     C12478   4.553   9.020   3.755 -0.2867 -0.6792  0.2213
   91MOL0     O12479   4.467   9.131   3.727 -0.3044  0.3404 -0.2371
   91MOL0     C12480   4.331   9.110   3.778 -0.6016  0.5792 -0.8810
   91MOL0     C12481   4.246   9.235   3.793  0.2832 -0.4615  0.1632
   91MOL0     C12482   4.096   9.193   3.816 -0.2990  0.5718 -0.6672
   91MOL0     C12483   4.008   9.316   3.823 -0.4065 -0.1061  0.5599
   91MOL0     C12484   3.882   9.284   3.892 -0.4725 -0.3610  0.3307
   91MOL0     C12485   3.784   9.264   3.958 -0.0134  0.6561  0.7188
   91MOL0     C12486   4.547   8.915   3.659  0.2970  0.4061 -0.4485
   91MOL0     C12487   4.609   8.793   3.670 -0.5435 -0.3372  0.7963
   91MOL0     C12488   4.580   8.691   3.562 -0.2072 -0.7762 -0.3738
   91MOL0     H12489   5.096   8.749   4.045  2.2163 -0.4638 -0.1778
   91MOL0     H12490   5.183   8.598   4.189  2.1690 -2.5207 -0.0789
   91MOL0     H12491   5.332   8.415   4.244  1.2350 -1.3651  2.0339
   91MOL0     H12492   5.306   8.250   4.284  1.7680  1.0691  1.0631
   91MOL0     H12493   5.288   8.373   4.494  1.4620  2.3903 -1.0909
   91MOL0     H12494   5.156   8.460   4.448  2.1352  0.5995  1.6349
   91MOL0     H12495   5.017   8.277   4.395  0.6912  0.5178 -1.0094
   91MOL0     H12496   5.142   8.150   4.422 -5.9673 -1.6810 -1.4647
   91MOL0     H12497   5.180   8.218   4.647 -0.6751 -2.3013  0.8167
   91MOL0     H12498   5.039   8.328   4.646 -1.2154 -0.7284 -0.1701
   91MOL0     H12499   5.017   8.098   4.748  3.1682 -0.9533 -1.2225
   91MOL0     H12500   5.019   8.034   4.583 -1.0402 -1.0158 -0.5051
   91MOL0     H12501   4.841   8.231   4.718  1.5422  2.7811 -0.5543
   91MOL0     H12502   4.810   8.203   4.542 -1.8952 -3.1191 -0.2860
   91MOL0     H12503   4.781   8.003   4.761 -0.6250  2.8367  0.2601
   91MOL0     H12504   4.818   7.953   4.604  2.1669 -1.3681  2.7401
   91MOL0     H12505   4.610   8.049   4.508  1.1133  0.7813 -0.5564
   91MOL0     H12506   4.569   7.957   4.662 -0.2367  1.7647  3.0984
   91MOL0     H12507   4.625   8.125   4.882  0.3884  1.7927  1.4574
   91MOL0     H12508   4.404   8.362   5.011  2.2559 -0.9700 -0.4580
   91MOL0     H12509   4.443   8.206   5.071 -0.5692 -0.5522  0.0831
   91MOL0     H12510   4.179   8.264   4.933 -0.6195  0.4306 -0.1809
   91MOL0     H12511   4.218   8.112   5.014 -6.0044  0.5904 -0.2500
   91MOL0     H12512   4.099   8.243   5.184 -0.9637  1.1120  0.3701
   91MOL0     H12513   4.261   8.266   5.243  4.8186  1.6853 -2.0669
   91MOL0     H12514   4.150   8.450   5.037  0.6017 -2.4491 -0.6156
   91MOL0     H12515   4.082   8.449   5.203  0.1434 -0.4481 -0.8876
   91MOL0     H12516   4.035   8.621   5.149  1.7563  0.1922 -2.6203
   91MOL0     H12517   3.860   8.778   5.145  2.5061 -1.8755  1.6293
   91MOL0     H12518   3.922   8.897   5.028  1.7191  0.6767  0.1858
   91MOL0     H12519   3.871   8.940   5.193 -1.1840 -1.7407  0.7961
   91MOL0     H12520   3.961   9.265   5.379  1.9615 -0.1221  1.4389
   91MOL0     H12521   3.904   9.494   5.343  0.0029  0.3832  1.0625
   91MOL0     H12522   3.858   9.679   5.239 -1.4060  1.5088  1.2450
   91MOL0     H12523   3.931   9.727   5.387  1.8507 -0.2087  0.8809
   91MOL0     H12524   3.809   9.912   5.289  0.5310  1.8839  0.7677
   91MOL0     H12525   3.975   9.952   5.300 -1.1150  1.1359 -0.8597
   91MOL0     H12526   3.854   9.833   5.038  3.3791 -2.3560 -2.3522
   91MOL0     H12527   4.018   9.889   5.048 -1.6917 -1.9667 -4.1135
   91MOL0     H12528   3.942  10.116   5.111  0.7319 -0.8026 -2.1859
   91MOL0     H12529   3.775  10.065   5.080  0.0197 -1.3250  0.8371
   91MOL0     H12530   3.997  10.034   4.871 -0.7289 -1.4528 -2.5777
   91MOL0     H12531   3.815  10.022   4.858 -2.1276 -0.9914  3.6440
   91MOL0     H12532   3.972  10.258   4.932  0.0573 -0.8538  1.4627
   91MOL0     H12533   3.790  10.245   4.921 -0.3156 -1.6251  0.2962
   91MOL0     H12534   3.864  10.364   4.730 -0.4658  0.4892 -2.4103
   91MOL0     H12535   3.800  10.214   4.679  0.8178  0.6994 -1.3873
   91MOL0     H12536   3.992  10.249   4.549 -2.6117 -0.8770  0.4715
   91MOL0     H12537   4.049  10.131   4.668  2.9697  1.1794 -0.7618
   91MOL0     H12538   4.284   9.582   5.182 -0.4761 -0.0932 -1.2870
   91MOL0     H12539   4.351   9.353   5.197  0.5196  2.6277 -0.8531
   91MOL0     H12540   4.367   8.948   5.298  0.5485  1.0599 -1.2748
   91MOL0     H12541   4.430   8.709   5.280  1.6981  1.0236 -1.6628
   91MOL0     H12542   4.983   8.271   3.992  2.8082 -0.7192 -0.6112
   91MOL0     H12543   4.872   8.438   3.849 -1.8328 -0.4213  2.4599
   91MOL0     H12544   4.794   8.910   3.937 -0.9516 -0.0491  0.5209
   91MOL0     H12545   4.667   9.088   3.925 -2.3490  0.0809  0.0163
   91MOL0     H12546   4.281   9.040   3.711  1.2593 -0.0945 -1.6398
   91MOL0     H12547   4.333   9.066   3.878  0.6389  3.4396  0.4744
   91MOL0     H12548   4.251   9.293   3.701 -2.1800  1.2251  0.9942
   91MOL0     H12549   4.273   9.307   3.871  0.6288 -2.0476  1.5606
   91MOL0     H12550   4.071   9.123   3.735 -1.1410 -1.3196  1.1424
   91MOL0     H12551   4.083   9.137   3.909 -0.6513  1.9635  0.1431
   91MOL0     H12552   3.995   9.350   3.720  1.2444 -4.3637 -1.2832
   91MOL0     H12553   4.064   9.390   3.881 -2.0321  2.4528 -0.9495
   91MOL0     H12554   3.700   9.243   4.021 -1.3170  0.7726 -0.9120
   91MOL0     H12555   4.481   8.922   3.573  0.4460  3.0272 -0.4251
   91MOL0     H12556   4.555   8.595   3.607 -2.6552  0.7795  1.8749
   91MOL0     H12557   4.501   8.735   3.500  1.7865  3.1834 -0.4546
   91MOL0     H12558   4.671   8.675   3.503 -0.6497  0.9212 -1.6172
   92MOL0     O12559   5.877   2.196   6.236  0.4096 -0.2077 -0.4914
   92MOL0     C12560   5.967   2.246   6.301  0.1067  0.7920 -0.4998
   92MOL0     O12561   5.983   2.233   6.440  0.0656  0.1936  0.5853
   92MOL0     C12562   5.881   2.183   6.517  0.9013  0.1968 -0.3373
   92MOL0     C12563   5.753   2.139   6.482 -0.0516  0.8573 -0.3287
   92MOL0     C12564   5.666   2.090   6.577  0.1237  0.1553  0.0002
   92MOL0     C12565   5.692   2.109   6.711 -0.2077  0.9511  0.3204
   92MOL0     O12566   5.609   2.083   6.813  0.7049  0.0397  0.1696
   92MOL0     C12567   5.477   2.023   6.781 -1.4030 -0.0717  0.1650
   92MOL0     C12568   5.415   1.958   6.904 -0.4252  0.0561 -0.3717
   92MOL0     C12569   5.282   1.883   6.869 -0.4774 -0.4206  0.0167
   92MOL0     C12570   5.250   1.785   6.984  0.5282 -0.2133 -0.6983
   92MOL0     C12571   5.108   1.712   6.972  0.0413 -0.1267 -0.5425
   92MOL0     C12572   4.988   1.811   6.962 -0.3875 -0.4757 -0.4914
   92MOL0     C12573   4.855   1.758   6.901  0.3883  0.4862 -0.1931
   92MOL0     C12574   4.859   1.714   6.756  0.6251 -0.1539  0.0647
   92MOL0     N12575   4.884   1.824   6.659 -0.1197 -0.5526  0.1398
   92MOL0     C12576   5.010   1.846   6.599  0.2890  0.2986  0.0388
   92MOL0     C12577   4.990   1.934   6.501  0.0872  0.2540  0.0144
   92MOL0     C12578   5.105   1.981   6.411  0.8913 -0.1084 -0.3374
   92MOL0     C12579   5.205   2.067   6.482 -0.2821  0.4780  0.1713
   92MOL0     C12580   5.140   2.185   6.545 -0.0984 -0.4232  0.6647
   92MOL0     C12581   5.236   2.306   6.582 -0.4483 -0.9280 -1.0979
   92MOL0     O12582   5.299   2.356   6.460 -0.3168  0.5038 -0.0362
   92MOL0     C12583   5.420   2.406   6.461  0.9403 -0.0532 -1.1207
   92MOL0     C12584   5.479   2.458   6.580 -0.1966  0.6935 -0.9688
   92MOL0     C12585   5.610   2.497   6.582 -0.5148 -0.1143  0.8562
   92MOL0     C12586   5.664   2.558   6.708 -0.4477  0.0064 -0.2074
   92MOL0     C12587   5.688   2.496   6.461  0.0487 -0.1237  0.0554
   92MOL0     C12588   5.826   2.531   6.455 -0.1972  0.0469  0.1608
   92MOL0     O12589   5.897   2.522   6.566 -0.9988  0.3093  0.1512
   92MOL0     C12590   6.036   2.560   6.579  0.3168  0.4407  0.4199
   92MOL0     C12591   6.090   2.524   6.705 -0.3139  0.7260  0.3632
   92MOL0     C12592   6.219   2.563   6.743  0.2059  1.2472 -0.8464
   92MOL0     C12593   6.303   2.614   6.644 -0.4669 -0.4696 -0.5887
   92MOL0     O12594   6.424   2.671   6.685  0.0947  0.3984 -0.1439
   92MOL0     C12595   6.554   2.601   6.647  0.3142  0.5822  0.8799
   92MOL0     C12596   6.600   2.593   6.499 -1.0029 -0.5504 -0.2399
   92MOL0     C12597   6.742   2.559   6.487 -0.2484 -0.1644  0.8043
   92MOL0     C12598   6.771   2.414   6.536  0.1435 -0.3721 -0.4184
   92MOL0     C12599   6.908   2.384   6.520  0.5374 -0.3506  1.1085
   92MOL0     C12600   6.946   2.248   6.573 -0.0398 -0.2768 -0.0319
   92MOL0     C12601   6.920   2.241   6.725  0.6800  0.1251  0.2371
   92MOL0     C12602   6.972   2.109   6.792  0.3112  0.2269 -0.6978
   92MOL0    Cl12603   6.894   2.070   6.957  0.0632  0.1173  0.6313
   92MOL0     C12604   6.261   2.640   6.520 -0.1428  0.3086  0.6636
   92MOL0     C12605   6.128   2.615   6.487 -0.3749 -0.0060 -0.7067
   92MOL0     O12606   5.873   2.553   6.339  0.3131 -0.4804 -0.4008
   92MOL0     C12607   5.625   2.452   6.339 -0.3657  0.1344  1.2643
   92MOL0     C12608   5.489   2.411   6.343 -1.1117 -0.9930  0.3199
   92MOL0     N12609   4.855   1.977   6.509  0.2422 -0.5265 -0.0220
   92MOL0     N12610   4.795   1.912   6.607  0.5587  0.8455  0.5229
   92MOL0     C12611   5.812   2.160   6.752  1.2812 -0.7958 -0.0246
   92MOL0     C12612   5.910   2.194   6.661 -1.0292 -0.0830 -0.1944
   92MOL0     C12613   6.070   2.333   6.232 -1.0853  0.3281 -0.5861
   92MOL0     C12614   6.192   2.351   6.306  0.4933 -0.4381 -1.0024
   92MOL0     C12615   6.289   2.437   6.261  0.2706 -0.3228 -0.2692
   92MOL0     C12616   6.269   2.514   6.147  0.1281 -0.6045  0.4562
   92MOL0     O12617   6.363   2.612   6.125 -0.4342  0.1569 -0.4637
   92MOL0     C12618   6.336   2.713   6.024 -0.1674 -0.3532 -0.2280
   92MOL0     C12619   6.433   2.831   6.017  0.2521 -0.1998 -0.0851
   92MOL0     C12620   6.436   2.898   6.153  0.3286  0.7692  0.1103
   92MOL0     C12621   6.542   3.003   6.170  0.4011  0.0106 -0.5136
   92MOL0     C12622   6.655   2.953   6.256 -0.3332  0.5878  1.0122
   92MOL0     C12623   6.748   2.907   6.315 -0.2175 -0.8310 -0.9495
   92MOL0     C12624   6.148   2.507   6.071  0.5896  1.1851 -0.3683
   92MOL0     C12625   6.047   2.411   6.112 -0.4055  0.6561  0.1320
   92MOL0     C12626   5.914   2.407   6.033 -0.9802 -0.5074 -0.3872
   92MOL0     H12627   5.714   2.123   6.381 -0.7826  1.0329 -0.0828
   92MOL0     H12628   5.572   2.048   6.545 -2.3776  3.6723  2.0796
   92MOL0     H12629   5.484   1.946   6.704  1.9229 -0.3745  0.6425
   92MOL0     H12630   5.414   2.109   6.756 -0.9851  0.8860  2.1554
   92MOL0     H12631   5.484   1.883   6.943 -0.4937 -1.5406 -3.0370
   92MOL0     H12632   5.398   2.030   6.984 -3.5853 -1.1499  0.1818
   92MOL0     H12633   5.208   1.963   6.857  0.6676  0.9320  1.5761
   92MOL0     H12634   5.283   1.827   6.775 -2.4168  2.0072 -1.5855
   92MOL0     H12635   5.328   1.710   7.001 -0.2044 -0.7269  0.6258
   92MOL0     H12636   5.266   1.833   7.081 -0.7393 -0.3284 -0.4076
   92MOL0     H12637   5.100   1.651   7.062 -2.4597 -0.7235 -1.0888
   92MOL0     H12638   5.107   1.647   6.884  2.1203 -0.8057 -0.1370
   92MOL0     H12639   4.961   1.859   7.056 -0.2126 -0.0864 -0.6355
   92MOL0     H12640   5.017   1.893   6.895  0.1618  0.6233  1.0328
   92MOL0     H12641   4.784   1.841   6.903  0.9898  1.0596 -1.5400
   92MOL0     H12642   4.810   1.683   6.967 -0.5635  2.1060  1.0754
   92MOL0     H12643   4.935   1.637   6.737 -0.3304 -0.9148 -0.7796
   92MOL0     H12644   4.760   1.672   6.737 -0.1084  0.3532  2.4580
   92MOL0     H12645   5.109   1.812   6.627  0.6636  3.0251  2.5524
   92MOL0     H12646   5.067   2.024   6.318  0.3613  1.2895  0.4941
   92MOL0     H12647   5.155   1.889   6.381 -3.6547 -2.3509 -1.9534
   92MOL0     H12648   5.267   2.016   6.556 -4.0325 -0.5278  2.9508
   92MOL0     H12649   5.275   2.105   6.407 -1.8601  0.0940 -1.5851
   92MOL0     H12650   5.075   2.229   6.469  0.9207 -1.3467 -0.7908
   92MOL0     H12651   5.084   2.162   6.636  1.2945 -0.5653  1.5224
   92MOL0     H12652   5.191   2.389   6.638  1.8380 -0.7734  0.6684
   92MOL0     H12653   5.301   2.260   6.657 -2.0291  0.0742  0.9814
   92MOL0     H12654   5.424   2.452   6.673  0.5354  0.9283 -0.5062
   92MOL0     H12655   5.584   2.587   6.776  0.4246 -0.2237  0.9459
   92MOL0     H12656   5.721   2.644   6.670  0.9493 -0.4280  0.8423
   92MOL0     H12657   5.735   2.491   6.758 -0.8525 -0.4563 -0.2455
   92MOL0     H12658   6.014   2.491   6.775 -1.0425  2.0516  0.2254
   92MOL0     H12659   6.265   2.553   6.841  0.5892 -0.5930 -1.1763
   92MOL0     H12660   6.630   2.647   6.710  1.0950 -0.0910  0.4608
   92MOL0     H12661   6.537   2.501   6.690 -0.5254 -0.4209 -1.5759
   92MOL0     H12662   6.539   2.527   6.436  0.7416 -1.2430 -1.2747
   92MOL0     H12663   6.587   2.693   6.458  0.2434  0.1402  0.9624
   92MOL0     H12664   6.797   2.635   6.543 -0.4542  0.2665  0.4266
   92MOL0     H12665   6.756   2.580   6.381 -0.3417  0.5484  0.9306
   92MOL0     H12666   6.715   2.341   6.477 -0.8567  0.7363 -0.8807
   92MOL0     H12667   6.736   2.410   6.640  0.5088 -0.3132 -0.2932
   92MOL0     H12668   6.931   2.394   6.414  5.3653  1.0224  2.0488
   92MOL0     H12669   6.974   2.455   6.570 -0.2427  1.7790 -0.7136
   92MOL0     H12670   7.052   2.234   6.553  0.0766  2.9035 -2.6748
   92MOL0     H12671   6.890   2.172   6.517 -2.3308  2.5352 -1.8874
   92MOL0     H12672   6.813   2.238   6.744  0.0952  2.1463 -2.1664
   92MOL0     H12673   6.961   2.325   6.783 -0.4642 -0.4265  1.9138
   92MOL0     H12674   7.079   2.107   6.812  0.7820 -1.6626 -3.0096
   92MOL0     H12675   6.944   2.022   6.731 -2.6058 -0.6522  1.6427
   92MOL0     H12676   6.332   2.685   6.450  1.1419 -3.2980 -0.6001
   92MOL0     H12677   6.096   2.646   6.388 -3.0426 -1.6305 -0.4585
   92MOL0     H12678   5.669   2.448   6.240 -0.8091  3.3123  0.8433
   92MOL0     H12679   5.449   2.386   6.245 -0.1162  0.1256 -0.3841
   92MOL0     H12680   5.856   2.172   6.850  1.9303 -1.4214 -0.2329
   92MOL0     H12681   6.006   2.243   6.675  0.0827 -2.1563 -0.1238
   92MOL0     H12682   6.218   2.292   6.393 -1.9945  0.9194  0.7951
   92MOL0     H12683   6.378   2.452   6.322  0.2407  2.3426 -0.7591
   92MOL0     H12684   6.331   2.670   5.924 -0.4655  0.6166 -0.6453
   92MOL0     H12685   6.237   2.750   6.050 -0.4706 -0.3053 -1.3890
   92MOL0     H12686   6.399   2.900   5.939 -2.0415  1.2505  2.0558
   92MOL0     H12687   6.534   2.788   6.006  0.9689  1.4308 -0.0961
   92MOL0     H12688   6.337   2.940   6.171  0.4932  0.1894  2.8810
   92MOL0     H12689   6.445   2.823   6.233 -2.0636  0.7811  0.4575
   92MOL0     H12690   6.486   3.088   6.209 -1.3635 -0.1463 -2.4704
   92MOL0     H12691   6.567   3.040   6.070 -2.3192 -3.7011 -2.8434
   92MOL0     H12692   6.830   2.878   6.377  3.0056  0.4548 -4.2429
   92MOL0     H12693   6.128   2.562   5.980 -0.1404 -1.8535 -2.2034
   92MOL0     H12694   5.830   2.403   6.103 -0.3918  2.8131  0.6912
   92MOL0     H12695   5.905   2.498   5.972  1.3441  1.1094  1.5145
   92MOL0     H12696   5.931   2.325   5.962  0.6088  1.3666 -2.2974
   93MOL0     O12697   1.993   5.712   2.993 -0.3243  0.2858 -0.3688
   93MOL0     C12698   1.886   5.697   2.926 -0.1921  0.4735 -1.3765
   93MOL0     O12699   1.866   5.742   2.799  0.5745 -0.6065 -0.1563
   93MOL0     C12700   1.953   5.828   2.737  0.0140  0.3716  0.0029
   93MOL0     C12701   1.971   5.809   2.605  0.3144  0.4145  0.0221
   93MOL0     C12702   2.061   5.899   2.536  0.0104 -0.2474  0.1358
   93MOL0     C12703   2.131   6.002   2.599  0.8748 -0.2974  0.5955
   93MOL0     O12704   2.228   6.070   2.529  1.2939  0.0724  0.5664
   93MOL0     C12705   2.258   6.208   2.560 -0.1911 -0.4347  0.2563
   93MOL0     C12706   2.373   6.244   2.462 -0.6340  0.2422 -0.0352
   93MOL0     C12707   2.353   6.210   2.313  0.0510 -0.7862  1.6649
   93MOL0     C12708   2.284   6.328   2.241 -0.8931  0.0435 -0.6842
   93MOL0     C12709   2.274   6.296   2.090  0.8683  0.4196  0.3356
   93MOL0     C12710   2.326   6.410   1.998  0.0559  1.1178  0.1070
   93MOL0     C12711   2.475   6.446   2.011 -0.2351 -0.4959  0.1742
   93MOL0     C12712   2.497   6.567   1.920  0.3067 -0.5878 -0.0617
   93MOL0     N12713   2.628   6.626   1.941 -0.6045  0.2051 -0.6257
   93MOL0     C12714   2.720   6.631   2.048 -0.6278 -0.7935 -0.3685
   93MOL0     C12715   2.834   6.680   1.991 -0.5758 -0.1115 -0.4715
   93MOL0     C12716   2.967   6.689   2.062  0.0860  0.0365  0.4110
   93MOL0     C12717   3.047   6.820   2.055  0.3873  0.4687 -0.2423
   93MOL0     C12718   3.188   6.815   1.987 -0.2765  0.2959 -0.1637
   93MOL0     C12719   3.286   6.732   2.074  0.6071 -0.5892 -0.1667
   93MOL0     O12720   3.392   6.691   1.986 -0.7043  0.6088  0.1671
   93MOL0     C12721   3.450   6.569   2.001 -1.0777  0.1126  0.0652
   93MOL0     C12722   3.514   6.529   1.888 -0.5788  0.2229 -0.8983
   93MOL0     C12723   3.589   6.411   1.880  0.1151 -0.4109 -0.6055
   93MOL0     C12724   3.679   6.403   1.753 -0.6571 -0.1507 -0.6714
   93MOL0     C12725   3.595   6.320   1.984  0.4532  0.0637  0.0449
   93MOL0     C12726   3.666   6.203   1.986 -0.3274  0.7270 -0.1465
   93MOL0     O12727   3.638   6.120   2.089 -0.2433 -0.3941  0.8577
   93MOL0     C12728   3.667   5.988   2.093 -0.5623  0.6846  0.6523
   93MOL0     C12729   3.703   5.912   1.987 -0.6111  0.3118  1.0810
   93MOL0     C12730   3.722   5.778   2.005 -0.1924  0.1784  0.0535
   93MOL0     C12731   3.711   5.701   2.122 -0.7035 -0.0450  0.0876
   93MOL0     O12732   3.744   5.567   2.130 -0.1268 -0.2717  0.2339
   93MOL0     C12733   3.735   5.493   2.259  0.2321  1.0910 -0.3272
   93MOL0     C12734   3.785   5.350   2.238  0.3748  0.6507 -0.8951
   93MOL0     C12735   3.934   5.340   2.239 -0.4581 -0.6996 -0.0875
   93MOL0     C12736   3.971   5.193   2.259  0.0974 -1.0079  0.1067
   93MOL0     C12737   4.121   5.172   2.232  0.1722 -0.0587  0.4559
   93MOL0     C12738   4.217   5.207   2.347 -1.0529 -0.3882  1.2386
   93MOL0     C12739   4.369   5.198   2.305  0.7164  0.0660 -0.3617
   93MOL0     C12740   4.423   5.058   2.314  0.8757 -0.6617 -0.6288
   93MOL0    Cl12741   4.580   5.016   2.235  0.3638  0.3528  0.6124
   93MOL0     C12742   3.666   5.775   2.234 -0.3951 -0.0794  0.1885
   93MOL0     C12743   3.647   5.914   2.212  0.1656 -0.4714  0.2525
   93MOL0     O12744   3.764   6.190   1.913 -0.5711 -0.6220  0.2993
   93MOL0     C12745   3.523   6.356   2.096 -0.6143  0.0685  0.8162
   93MOL0     C12746   3.449   6.473   2.105 -0.2127  0.1093 -0.2548
   93MOL0     N12747   2.815   6.719   1.858  0.6609 -0.7690 -1.2731
   93MOL0     N12748   2.695   6.675   1.830 -0.2348  0.2390  1.0449
   93MOL0     C12749   2.104   6.019   2.741 -0.0346  0.0234  0.0326
   93MOL0     C12750   2.013   5.935   2.803 -0.5690  0.3666  0.6213
   93MOL0     C12751   1.763   5.633   2.988 -1.0945 -0.4920  0.0047
   93MOL0     C12752   1.786   5.556   3.104 -0.4888  0.3769 -0.6821
   93MOL0     C12753   1.695   5.475   3.172 -0.9257  0.2744  0.3258
   93MOL0     C12754   1.562   5.480   3.135 -0.0999 -0.6759  0.5486
   93MOL0     O12755   1.472   5.398   3.196  1.2616 -0.4307 -0.3131
   93MOL0     C12756   1.338   5.375   3.132  0.9120  0.0536  0.1917
   93MOL0     C12757   1.261   5.265   3.204  0.5458  0.1683 -0.3881
   93MOL0     C12758   1.348   5.134   3.208 -0.1784 -0.6295  0.3017
   93MOL0     C12759   1.262   5.018   3.254 -0.0374  0.3102  0.0692
   93MOL0     C12760   1.217   5.040   3.388  0.6620  0.8682 -0.1377
   93MOL0     C12761   1.182   5.056   3.500 -0.5912  0.9726  0.0621
   93MOL0     C12762   1.529   5.573   3.027  0.4927  1.2438 -0.7121
   93MOL0     C12763   1.622   5.646   2.956 -0.4861  0.2874  0.1867
   93MOL0     C12764   1.576   5.735   2.844  0.1840 -0.4950  0.2862
   93MOL0     H12765   1.941   5.717   2.556 -0.2229  0.5813  0.0355
   93MOL0     H12766   2.079   5.879   2.430 -1.2105 -1.9120  0.1896
   93MOL0     H12767   2.286   6.233   2.662 -2.4398  0.8634  0.6293
   93MOL0     H12768   2.165   6.262   2.539  0.8043  1.0783 -0.4544
   93MOL0     H12769   2.381   6.353   2.471  1.8458 -0.0371  2.7295
   93MOL0     H12770   2.464   6.205   2.509 -0.3846 -1.5995 -1.8979
   93MOL0     H12771   2.456   6.192   2.282  0.3659  1.5212  1.1969
   93MOL0     H12772   2.290   6.124   2.289 -3.7979  2.4053 -1.0791
   93MOL0     H12773   2.179   6.337   2.271 -0.3685  4.1389  0.4750
   93MOL0     H12774   2.323   6.428   2.262 -2.8847  0.7933 -0.3084
   93MOL0     H12775   2.166   6.285   2.076  1.4142 -2.8615 -2.8785
   93MOL0     H12776   2.311   6.195   2.071 -2.4872 -0.7734 -0.4024
   93MOL0     H12777   2.298   6.397   1.893  1.9714  0.3154 -0.3387
   93MOL0     H12778   2.280   6.502   2.037 -0.9525 -0.1796  2.1694
   93MOL0     H12779   2.527   6.360   1.969 -2.4778 -1.9013  0.1233
   93MOL0     H12780   2.503   6.473   2.113 -0.9135 -0.9813  0.4935
   93MOL0     H12781   2.466   6.528   1.823 -1.1184  1.8303 -0.6567
   93MOL0     H12782   2.422   6.642   1.946  1.4473  1.3237 -2.0195
   93MOL0     H12783   2.719   6.595   2.150  0.0903 -1.0245 -0.4338
   93MOL0     H12784   3.040   6.612   2.037  1.2612  1.0271  0.6843
   93MOL0     H12785   2.940   6.673   2.167 -1.2048  2.6331  0.5689
   93MOL0     H12786   2.988   6.890   1.995 -0.8903 -0.3182  0.0661
   93MOL0     H12787   3.058   6.857   2.158  2.8930 -2.0475  0.5272
   93MOL0     H12788   3.191   6.780   1.883  1.5441 -0.0833 -0.0157
   93MOL0     H12789   3.230   6.915   1.976 -0.4659  0.1954 -2.0484
   93MOL0     H12790   3.337   6.792   2.150  0.6450 -2.2350  1.1714
   93MOL0     H12791   3.248   6.640   2.120  2.8135 -1.7282 -0.4811
   93MOL0     H12792   3.518   6.606   1.811 -0.0622 -1.4080 -2.5597
   93MOL0     H12793   3.786   6.415   1.770 -0.3736 -0.8941 -1.8079
   93MOL0     H12794   3.660   6.482   1.681  1.1980 -1.4809 -2.7531
   93MOL0     H12795   3.687   6.307   1.700  4.7098 -0.9648  0.9614
   93MOL0     H12796   3.725   5.949   1.887 -0.3241  1.7013  1.6261
   93MOL0     H12797   3.755   5.720   1.919  1.7195 -1.8787  2.0335
   93MOL0     H12798   3.808   5.539   2.325 -0.3987  0.9817  0.4600
   93MOL0     H12799   3.632   5.486   2.296  0.0380 -3.0828 -1.1126
   93MOL0     H12800   3.741   5.286   2.316 -2.8089  0.6157 -2.5646
   93MOL0     H12801   3.741   5.310   2.147 -1.0205 -2.9909  1.1636
   93MOL0     H12802   3.981   5.391   2.324  3.2861  1.5378 -3.1479
   93MOL0     H12803   3.985   5.390   2.156  0.2808 -2.2306 -0.5903
   93MOL0     H12804   3.925   5.125   2.187  0.8202 -3.6814  1.9958
   93MOL0     H12805   3.943   5.166   2.362 -0.5454 -1.7886 -0.2608
   93MOL0     H12806   4.144   5.066   2.215 -0.1134  0.2019 -1.9129
   93MOL0     H12807   4.151   5.218   2.137 -2.6231 -2.6738 -1.9422
   93MOL0     H12808   4.203   5.160   2.445  2.5221  1.0562  2.6104
   93MOL0     H12809   4.213   5.314   2.371 -0.2664  0.5056 -2.0434
   93MOL0     H12810   4.423   5.257   2.379 -2.0307  1.3082  0.8110
   93MOL0     H12811   4.388   5.235   2.204 -2.0034 -2.2155 -1.8575
   93MOL0     H12812   4.342   4.992   2.282 -0.2656  0.6464 -0.5478
   93MOL0     H12813   4.429   5.042   2.422  1.2189 -3.3671 -0.9776
   93MOL0     H12814   3.657   5.724   2.329  0.5149 -1.3059 -0.3536
   93MOL0     H12815   3.593   5.972   2.287 -0.9588  1.6754 -2.0363
   93MOL0     H12816   3.515   6.313   2.195  1.6786  3.0874  2.4798
   93MOL0     H12817   3.401   6.491   2.201  0.0210  5.0438 -0.8023
   93MOL0     H12818   2.150   6.109   2.781 -0.0792  0.0817 -0.0463
   93MOL0     H12819   1.994   5.949   2.908  1.2097  0.3013  0.9906
   93MOL0     H12820   1.888   5.556   3.142 -0.4956  0.3838 -0.6636
   93MOL0     H12821   1.733   5.406   3.248 -0.0510 -1.8707 -1.9218
   93MOL0     H12822   1.294   5.474   3.149 -1.8260 -0.6999 -1.9393
   93MOL0     H12823   1.346   5.356   3.025 -1.1903 -3.1811  0.4939
   93MOL0     H12824   1.170   5.252   3.145  2.2111  2.1095 -3.6956
   93MOL0     H12825   1.242   5.294   3.308  2.2338 -0.6397  0.1903
   93MOL0     H12826   1.376   5.111   3.104 -1.1071 -0.7591  0.0694
   93MOL0     H12827   1.435   5.155   3.271 -0.2580  2.9435 -0.5898
   93MOL0     H12828   1.331   4.934   3.239 -0.7156 -0.0423 -1.2410
   93MOL0     H12829   1.176   5.003   3.189  0.6726  0.5238 -0.9445
   93MOL0     H12830   1.142   5.060   3.599  0.8410  0.8478  0.6667
   93MOL0     H12831   1.428   5.572   2.985 -0.8940 -4.9193  1.6305
   93MOL0     H12832   1.636   5.822   2.819 -1.9425  0.8368 -0.4741
   93MOL0     H12833   1.566   5.676   2.753  1.6750  0.9597 -0.8656
   93MOL0     H12834   1.485   5.780   2.886  0.0756 -1.0619  0.6632
   94MOL0     O12835   1.041   5.689   8.932 -1.3412 -0.7362 -0.9999
   94MOL0     C12836   0.930   5.643   8.942  0.0792  0.1147 -1.4287
   94MOL0     O12837   0.830   5.691   8.868  0.4116  0.2571  0.0495
   94MOL0     C12838   0.836   5.800   8.781 -0.0355  0.6400  0.4206
   94MOL0     C12839   0.726   5.814   8.697 -0.3182  0.1097  0.9347
   94MOL0     C12840   0.710   5.906   8.591  0.5869 -0.7086 -0.4333
   94MOL0     C12841   0.807   6.007   8.573 -0.4498 -0.2408  0.8698
   94MOL0     O12842   0.798   6.108   8.479  0.2144  0.1525  0.2566
   94MOL0     C12843   0.678   6.107   8.397  0.8465 -0.2466  0.2951
   94MOL0     C12844   0.676   6.219   8.291  0.4023 -0.6176  0.7685
   94MOL0     C12845   0.738   6.170   8.164 -0.1311 -0.5108  0.0829
   94MOL0     C12846   0.700   6.267   8.046 -0.3958 -0.3978 -0.6798
   94MOL0     C12847   0.767   6.223   7.914  0.0315 -0.1439  0.0097
   94MOL0     C12848   0.761   6.327   7.793 -0.1440  0.6656  0.3351
   94MOL0     C12849   0.885   6.308   7.698  1.1097 -0.0293 -0.2136
   94MOL0     C12850   0.895   6.431   7.605  0.8524 -0.4592 -0.1236
   94MOL0     N12851   0.969   6.396   7.485 -0.7216 -0.8521 -0.0986
   94MOL0     C12852   0.924   6.340   7.372  0.3258 -0.8962 -0.3558
   94MOL0     C12853   1.029   6.334   7.286 -0.1954  0.3261  1.0223
   94MOL0     C12854   1.020   6.287   7.140  1.0415  0.9429 -1.4261
   94MOL0     C12855   1.066   6.141   7.121  0.4002  0.3554  0.2330
   94MOL0     C12856   1.108   6.138   6.966  0.1772 -0.1546 -0.5297
   94MOL0     C12857   1.233   6.207   6.919  0.6519 -0.2464  1.2195
   94MOL0     O12858   1.224   6.230   6.777 -0.6442  0.4139  0.2130
   94MOL0     C12859   1.288   6.138   6.698  0.5329 -0.3962 -0.0324
   94MOL0     C12860   1.216   6.029   6.660  0.6931  0.1662 -0.6702
   94MOL0     C12861   1.281   5.938   6.574  0.5657  0.8820 -0.5855
   94MOL0     C12862   1.200   5.828   6.516  0.5646  0.3912 -0.5759
   94MOL0     C12863   1.417   5.957   6.531 -0.3083  0.6136 -1.3863
   94MOL0     C12864   1.486   5.881   6.423  0.1824  0.3079  0.8841
   94MOL0     O12865   1.442   5.882   6.293 -0.7473  0.2190 -0.2809
   94MOL0     C12866   1.418   6.012   6.247  0.6798  0.1415  0.2576
   94MOL0     C12867   1.291   6.057   6.234 -0.0333  1.1721  0.2233
   94MOL0     C12868   1.262   6.179   6.176 -0.0924  0.4257  0.3446
   94MOL0     C12869   1.370   6.252   6.128  0.9040  1.7793  0.8154
   94MOL0     O12870   1.359   6.365   6.055  0.4805  0.7822 -0.3052
   94MOL0     C12871   1.225   6.405   6.009  1.1324 -0.4157  0.2936
   94MOL0     C12872   1.243   6.520   5.894 -1.0938 -0.4664 -0.3897
   94MOL0     C12873   1.348   6.620   5.954 -0.0637 -0.4272 -0.4337
   94MOL0     C12874   1.350   6.748   5.876 -0.1965  0.1660 -0.1426
   94MOL0     C12875   1.456   6.847   5.929  0.4334  0.3787 -0.3508
   94MOL0     C12876   1.498   6.946   5.825 -0.1564 -0.6354 -0.0387
   94MOL0     C12877   1.592   7.057   5.888 -0.4168 -0.4889  0.8877
   94MOL0     C12878   1.631   7.155   5.783 -0.6867  0.0089  0.8930
   94MOL0    Cl12879   1.732   7.263   5.886 -0.1475 -0.1865  0.4295
   94MOL0     C12880   1.495   6.205   6.152 -0.4822  0.2443  0.1765
   94MOL0     C12881   1.522   6.085   6.209  0.4570  0.3176  0.2035
   94MOL0     O12882   1.581   5.817   6.456 -0.6648  1.0670 -0.0527
   94MOL0     C12883   1.482   6.063   6.573  0.0332 -0.4419 -0.7157
   94MOL0     C12884   1.426   6.157   6.664  1.2428  0.5683 -0.9961
   94MOL0     N12885   1.136   6.395   7.345  0.1435  0.1113 -0.6599
   94MOL0     N12886   1.101   6.430   7.463 -0.1462 -0.3991  0.1480
   94MOL0     C12887   0.922   5.999   8.662  0.0199 -0.1794  0.4503
   94MOL0     C12888   0.939   5.902   8.762 -0.2251  0.0983  0.6082
   94MOL0     C12889   0.904   5.540   9.037  0.6577 -0.7316 -0.1422
   94MOL0     C12890   1.003   5.441   9.052  0.5517  0.5198 -0.6720
   94MOL0     C12891   0.980   5.341   9.142  0.0393  0.6835  0.2027
   94MOL0     C12892   0.867   5.328   9.214  1.0065  0.1480  0.0448
   94MOL0     O12893   0.864   5.229   9.303 -0.0537 -0.3468  0.2092
   94MOL0     C12894   0.745   5.168   9.349 -0.2960 -0.8525 -0.5781
   94MOL0     C12895   0.770   5.078   9.469  0.4531 -0.6619  0.1608
   94MOL0     C12896   0.872   4.961   9.447  0.0220 -0.4651  0.0037
   94MOL0     C12897   0.819   4.847   9.357 -0.6816  0.1996 -0.2248
   94MOL0     C12898   0.739   4.755   9.436 -0.0411 -0.2097 -0.2470
   94MOL0     C12899   0.680   4.705   9.527 -0.1792  0.4980 -0.1200
   94MOL0     C12900   0.760   5.418   9.194 -1.0345  0.5835  0.8165
   94MOL0     C12901   0.777   5.522   9.100  0.3508  0.1919  0.2538
   94MOL0     C12902   0.667   5.620   9.089  0.7838 -0.0275  0.7398
   94MOL0     H12903   0.649   5.746   8.732  0.7167 -1.8694 -0.4076
   94MOL0     H12904   0.620   5.891   8.533  0.6273 -1.5395 -0.2956
   94MOL0     H12905   0.591   6.135   8.457 -0.0370  1.1870 -1.5755
   94MOL0     H12906   0.649   6.011   8.355 -1.0257  0.6796 -0.6496
   94MOL0     H12907   0.570   6.235   8.269  0.5224 -0.0679  0.5764
   94MOL0     H12908   0.727   6.309   8.328  2.9402 -1.6256 -0.0311
   94MOL0     H12909   0.847   6.169   8.171  0.1416 -1.0668 -2.8747
   94MOL0     H12910   0.700   6.071   8.137  0.8624 -0.7644 -0.4112
   94MOL0     H12911   0.592   6.277   8.036 -0.5314 -0.7853  0.2486
   94MOL0     H12912   0.738   6.367   8.068  1.5614 -0.9094 -1.5189
   94MOL0     H12913   0.742   6.120   7.887  0.0010 -0.8191  2.3850
   94MOL0     H12914   0.872   6.212   7.943  0.9051  0.3635 -2.7067
   94MOL0     H12915   0.666   6.321   7.738 -0.0478  1.7790  0.0197
   94MOL0     H12916   0.767   6.427   7.837  0.4215  1.1121 -0.7245
   94MOL0     H12917   0.877   6.211   7.648  0.5001  0.4648 -1.0998
   94MOL0     H12918   0.981   6.303   7.751  1.0564 -0.3210 -0.1424
   94MOL0     H12919   0.792   6.442   7.569 -0.0633 -4.6622  0.6693
   94MOL0     H12920   0.935   6.518   7.657 -3.0640  2.2650 -1.2603
   94MOL0     H12921   0.822   6.324   7.340  0.9476 -3.1144 -1.5174
   94MOL0     H12922   1.085   6.358   7.088  4.3135  0.3326  1.4547
   94MOL0     H12923   0.920   6.310   7.101 -0.4936 -0.3948  1.4438
   94MOL0     H12924   1.142   6.114   7.195  1.6592  0.4519 -0.9747
   94MOL0     H12925   0.975   6.085   7.144  1.5910 -1.0765  1.6813
   94MOL0     H12926   1.115   6.035   6.930  1.2631  0.0647 -0.9993
   94MOL0     H12927   1.029   6.177   6.902  1.3520 -0.6025 -2.3338
   94MOL0     H12928   1.232   6.306   6.965 -0.9935  0.5148 -0.3541
   94MOL0     H12929   1.332   6.168   6.945  1.4120  2.3420  2.5602
   94MOL0     H12930   1.111   6.022   6.688  1.0749  0.2914  0.8860
   94MOL0     H12931   1.183   5.741   6.581  0.2442  0.2133 -0.8901
   94MOL0     H12932   1.238   5.794   6.419  0.5576  1.4104 -0.9432
   94MOL0     H12933   1.100   5.868   6.497 -0.0015 -1.6265 -2.2969
   94MOL0     H12934   1.214   5.989   6.268  0.1400 -0.4557 -2.3766
   94MOL0     H12935   1.163   6.224   6.174  0.2443  1.2210 -1.9436
   94MOL0     H12936   1.159   6.324   5.976 -1.3833  1.5634  0.1300
   94MOL0     H12937   1.163   6.451   6.087 -1.1640 -0.3719 -1.4499
   94MOL0     H12938   1.288   6.487   5.801 -0.0576  0.5197 -0.2510
   94MOL0     H12939   1.143   6.565   5.888 -0.0730  2.2463  1.2075
   94MOL0     H12940   1.446   6.572   5.955 -0.4632 -1.2863 -1.1863
   94MOL0     H12941   1.322   6.655   6.054 -0.4446  2.8181 -1.5454
   94MOL0     H12942   1.257   6.804   5.869  0.6593  1.8310  1.0457
   94MOL0     H12943   1.383   6.715   5.776  1.2684  3.1592 -0.7753
   94MOL0     H12944   1.413   6.905   6.012 -0.1307 -0.0664 -0.3250
   94MOL0     H12945   1.544   6.794   5.966 -0.1578  0.8553  1.8996
   94MOL0     H12946   1.409   7.001   5.790 -0.2374 -1.2463 -0.8118
   94MOL0     H12947   1.544   6.893   5.741  2.2034 -2.2279  2.1203
   94MOL0     H12948   1.687   7.014   5.918  1.2009  2.0193 -0.3203
   94MOL0     H12949   1.545   7.114   5.969 -2.0100  2.9367 -2.1432
   94MOL0     H12950   1.541   7.203   5.743 -0.8534 -1.2704 -0.3849
   94MOL0     H12951   1.691   7.119   5.698  0.7434  0.5762  1.6401
   94MOL0     H12952   1.576   6.252   6.097 -1.5082 -0.5047 -2.1111
   94MOL0     H12953   1.626   6.053   6.214  0.7229  0.9490 -0.8518
   94MOL0     H12954   1.577   6.088   6.526 -1.4487  0.2345 -3.5588
   94MOL0     H12955   1.485   6.246   6.688 -0.5535  0.5346  5.3597
   94MOL0     H12956   0.999   6.071   8.636 -4.1590  4.4677 -0.7295
   94MOL0     H12957   1.030   5.895   8.822 -0.1848 -0.8408  0.4629
   94MOL0     H12958   1.093   5.452   8.993  1.7211 -0.0865  0.9157
   94MOL0     H12959   1.038   5.249   9.138 -1.4506 -0.2625 -0.4644
   94MOL0     H12960   0.668   5.234   9.391 -2.9540 -4.6085  0.9831
   94MOL0     H12961   0.703   5.116   9.263 -0.3235 -1.4914 -0.1795
   94MOL0     H12962   0.678   5.030   9.502 -0.5252 -1.4166 -3.2615
   94MOL0     H12963   0.810   5.144   9.547  0.2880  0.6140 -0.8032
   94MOL0     H12964   0.966   5.006   9.413  0.0586  0.6228  1.4380
   94MOL0     H12965   0.892   4.924   9.548  1.5716  0.3080  0.0177
   94MOL0     H12966   0.900   4.791   9.310 -0.1860 -0.1752  1.0320
   94MOL0     H12967   0.767   4.899   9.276 -0.0811 -0.6246 -1.1651
   94MOL0     H12968   0.648   4.650   9.613  0.1713 -2.9122 -2.0224
   94MOL0     H12969   0.672   5.410   9.257 -1.7824  1.7728 -0.0177
   94MOL0     H12970   0.636   5.622   8.984 -0.8705  1.2487  1.1992
   94MOL0     H12971   0.581   5.594   9.151  2.1831 -2.3506  1.8080
   94MOL0     H12972   0.697   5.723   9.111 -0.2796  0.0672  1.8681
   95MOL0     O12973   2.155   2.578   4.789  0.7113 -0.7960 -0.0859
   95MOL0     C12974   2.182   2.493   4.868  0.2495  0.2663 -0.2723
   95MOL0     O12975   2.292   2.415   4.865  0.0090  0.0293  0.3928
   95MOL0     C12976   2.404   2.434   4.789  0.5686 -1.0431 -0.1536
   95MOL0     C12977   2.390   2.412   4.650  0.9856  0.3264 -0.2396
   95MOL0     C12978   2.498   2.426   4.566  0.2114 -0.1468 -0.3105
   95MOL0     C12979   2.627   2.435   4.620  0.5606 -0.2708 -0.2742
   95MOL0     O12980   2.742   2.434   4.550  0.3896 -0.1767  0.3038
   95MOL0     C12981   2.745   2.348   4.440 -0.0033  0.5368 -0.0334
   95MOL0     C12982   2.893   2.344   4.384  0.6071  0.0417  0.1362
   95MOL0     C12983   2.930   2.201   4.405 -0.2306 -1.1915  0.2594
   95MOL0     C12984   3.062   2.166   4.346  0.2891  0.0942  0.7199
   95MOL0     C12985   3.107   2.036   4.403  0.5854 -0.5847  0.1029
   95MOL0     C12986   3.235   1.988   4.334 -0.1160 -0.5209 -0.4180
   95MOL0     C12987   3.273   1.841   4.385 -0.3687 -0.6916 -0.8100
   95MOL0     C12988   3.365   1.764   4.285 -0.4652  0.5295  0.7551
   95MOL0     N12989   3.433   1.659   4.358 -0.8039  0.3011 -0.6934
   95MOL0     C12990   3.570   1.654   4.398  0.7020 -0.2629 -0.2917
   95MOL0     C12991   3.578   1.529   4.464  0.2855 -0.1609  0.3077
   95MOL0     C12992   3.697   1.463   4.509 -0.5605 -1.3319 -0.0708
   95MOL0     C12993   3.710   1.443   4.666 -0.2994  0.0275 -0.0662
   95MOL0     C12994   3.854   1.388   4.682 -0.1196  1.4069 -0.0887
   95MOL0     C12995   3.880   1.355   4.832 -0.5597 -0.4677 -0.7220
   95MOL0     O12996   3.914   1.215   4.848 -0.8140  0.3481  0.0879
   95MOL0     C12997   4.043   1.169   4.842  0.0022  0.4930 -0.1614
   95MOL0     C12998   4.156   1.252   4.840 -0.0106 -0.0927 -0.1145
   95MOL0     C12999   4.275   1.184   4.855 -0.3660 -0.5691  0.6782
   95MOL0     C13000   4.401   1.266   4.850 -0.5664 -0.3870  0.5825
   95MOL0     C13001   4.294   1.042   4.867 -0.4905  0.1335 -0.0379
   95MOL0     C13002   4.423   0.965   4.895  0.2799 -0.8754 -0.6702
   95MOL0     O13003   4.419   0.837   4.870 -0.4551  0.0141  0.0439
   95MOL0     C13004   4.531   0.780   4.809  0.2241  0.3672 -1.2443
   95MOL0     C13005   4.535   0.759   4.671  0.2988  0.6017 -0.2765
   95MOL0     C13006   4.649   0.699   4.618  0.2376 -0.1425  0.5309
   95MOL0     C13007   4.765   0.667   4.695  0.1973 -1.0094  0.4969
   95MOL0     O13008   4.880   0.628   4.634 -0.0812  0.5233  0.0628
   95MOL0     C13009   4.934   0.508   4.678  0.3219 -0.1939 -0.2823
   95MOL0     C13010   5.085   0.526   4.715 -0.2723  0.0777  0.1898
   95MOL0     C13011   5.168   0.390   4.704 -0.4776 -0.1402  0.5854
   95MOL0     C13012   5.320   0.389   4.730 -0.2446 -0.7897 -1.2073
   95MOL0     C13013   5.388   0.254   4.733 -1.2381  0.6936  0.3522
   95MOL0     C13014   5.394   0.194   4.586 -0.9528  0.5354 -0.2397
   95MOL0     C13015   5.472   0.056   4.576  0.5203  1.0228  0.1092
   95MOL0     C13016   5.545   0.044   4.449  1.3284 -0.0423  0.2429
   95MOL0    Cl13017   5.431  -0.015   4.323 -0.0385  0.0079 -0.3414
   95MOL0     C13018   4.758   0.693   4.834 -0.1055 -0.1365 -0.1450
   95MOL0     C13019   4.644   0.743   4.889 -0.1036 -0.2119 -0.4142
   95MOL0     O13020   4.522   1.027   4.934 -0.0652 -0.3936  0.1174
   95MOL0     C13021   4.174   0.969   4.865 -0.0723 -0.5975  0.2572
   95MOL0     C13022   4.053   1.032   4.852  0.5998 -0.5092 -0.3429
   95MOL0     N13023   3.456   1.466   4.464  0.3530  0.0088 -0.2856
   95MOL0     N13024   3.379   1.545   4.398 -0.2454 -0.2349  0.7188
   95MOL0     C13025   2.636   2.465   4.763 -1.1225  0.1786  0.8471
   95MOL0     C13026   2.532   2.464   4.843  0.6819  0.2313  0.5612
   95MOL0     C13027   2.098   2.474   4.996 -0.4282 -0.0389  0.3609
   95MOL0     C13028   2.163   2.404   5.103 -0.1480  0.6498 -0.4866
   95MOL0     C13029   2.082   2.364   5.214  0.2503  0.5363  0.7740
   95MOL0     C13030   1.950   2.406   5.229  0.2634  0.2221  1.1063
   95MOL0     O13031   1.865   2.371   5.332 -0.9893 -0.3816 -0.6580
   95MOL0     C13032   1.910   2.273   5.426  0.2507  0.0230 -0.2179
   95MOL0     C13033   1.809   2.247   5.539 -0.1226  0.4093  0.5014
   95MOL0     C13034   1.703   2.140   5.494 -0.6618  0.1675 -0.5682
   95MOL0     C13035   1.607   2.108   5.617  0.5340  0.1982  0.5312
   95MOL0     C13036   1.532   1.994   5.580  1.0266 -0.3661  0.7631
   95MOL0     C13037   1.454   1.906   5.550 -1.3713  0.5565  0.2760
   95MOL0     C13038   1.885   2.476   5.125 -1.0602  0.2627 -0.0665
   95MOL0     C13039   1.963   2.509   5.015  0.4433  0.4305 -0.4128
   95MOL0     C13040   1.888   2.593   4.920  0.6866  0.4617  0.2181
   95MOL0     H13041   2.287   2.395   4.622  1.5769 -0.0973 -2.2751
   95MOL0     H13042   2.482   2.396   4.464 -0.5175  0.3360 -0.3452
   95MOL0     H13043   2.675   2.376   4.361 -0.7129 -3.0203 -0.8264
   95MOL0     H13044   2.705   2.250   4.469  0.0848  0.4554 -0.1821
   95MOL0     H13045   2.894   2.372   4.278 -3.4841  0.8782  0.1555
   95MOL0     H13046   2.952   2.418   4.439  1.3575  1.1090 -1.9840
   95MOL0     H13047   2.937   2.198   4.514 -3.5145  0.4940  0.6598
   95MOL0     H13048   2.854   2.129   4.371 -1.9440 -0.1373  1.6601
   95MOL0     H13049   3.066   2.167   4.237  1.1165 -0.4701  0.7332
   95MOL0     H13050   3.123   2.243   4.393 -0.9430  0.5229  1.6528
   95MOL0     H13051   3.029   1.965   4.373  0.9530 -0.1203 -2.1274
   95MOL0     H13052   3.118   2.038   4.512  0.6661  1.5216  0.0994
   95MOL0     H13053   3.218   1.992   4.226 -3.5083 -1.9339 -0.0380
   95MOL0     H13054   3.326   2.045   4.357  0.5385 -2.5935  2.7869
   95MOL0     H13055   3.181   1.787   4.412 -1.4536  1.3754 -0.1443
   95MOL0     H13056   3.340   1.845   4.471  0.6318  0.8598 -1.6123
   95MOL0     H13057   3.296   1.718   4.214 -1.2002  0.8439  1.2646
   95MOL0     H13058   3.441   1.833   4.247 -0.9052  1.1811  1.0473
   95MOL0     H13059   3.653   1.719   4.371 -0.2073  1.3920  0.7383
   95MOL0     H13060   3.787   1.513   4.472 -0.6082 -1.8272 -0.8792
   95MOL0     H13061   3.692   1.365   4.459  1.2499 -2.5808  2.0171
   95MOL0     H13062   3.698   1.536   4.722  3.0388  1.0077 -0.7557
   95MOL0     H13063   3.630   1.383   4.710  2.3234 -2.0990  2.1892
   95MOL0     H13064   3.862   1.303   4.615  0.7404  2.0640 -0.8358
   95MOL0     H13065   3.931   1.463   4.659 -1.2691  3.2973  1.7519
   95MOL0     H13066   3.961   1.418   4.870  0.8921 -2.4050 -0.4572
   95MOL0     H13067   3.790   1.384   4.887 -0.1651 -1.2495  0.3735
   95MOL0     H13068   4.151   1.358   4.821 -0.8124 -0.0105  0.4933
   95MOL0     H13069   4.426   1.312   4.946  1.9956  1.7116 -0.9780
   95MOL0     H13070   4.386   1.351   4.784  1.6905  1.7790  2.6581
   95MOL0     H13071   4.479   1.206   4.803 -0.6353  1.0307 -1.4570
   95MOL0     H13072   4.465   0.784   4.592  0.4603  0.4712 -0.4628
   95MOL0     H13073   4.648   0.677   4.511 -1.0136 -2.8979  1.0339
   95MOL0     H13074   4.868   0.456   4.747  0.6844 -2.7958 -1.7652
   95MOL0     H13075   4.925   0.434   4.598 -1.1429 -2.0767  1.4864
   95MOL0     H13076   5.117   0.609   4.651 -0.6235 -0.1483 -0.2790
   95MOL0     H13077   5.093   0.564   4.817  2.2889 -0.4844  0.2774
   95MOL0     H13078   5.154   0.349   4.604  3.3482 -0.0176 -0.1622
   95MOL0     H13079   5.124   0.336   4.788  1.4707 -0.8231  1.2351
   95MOL0     H13080   5.341   0.439   4.825 -1.2877 -0.7495 -0.9897
   95MOL0     H13081   5.357   0.460   4.655  1.3232  1.6560  1.6497
   95MOL0     H13082   5.483   0.269   4.785  0.3089  1.7307 -2.5372
   95MOL0     H13083   5.321   0.185   4.786 -3.0213  1.9080 -0.1965
   95MOL0     H13084   5.446   0.267   4.523 -2.0482  0.6684 -1.0247
   95MOL0     H13085   5.293   0.187   4.546 -0.4693  2.3842 -1.9832
   95MOL0     H13086   5.415  -0.034   4.599  0.3184  1.1802  0.2311
   95MOL0     H13087   5.551   0.073   4.650  0.3774 -0.0070  0.4986
   95MOL0     H13088   5.630  -0.025   4.453  0.4314 -1.1889  0.0444
   95MOL0     H13089   5.576   0.141   4.409  0.6345 -0.5940 -1.7735
   95MOL0     H13090   4.851   0.678   4.888 -0.4358  1.4590  0.9039
   95MOL0     H13091   4.644   0.759   4.997 -2.4691  0.1349 -0.4250
   95MOL0     H13092   4.181   0.861   4.870  4.9248 -0.5434  0.1028
   95MOL0     H13093   3.969   0.964   4.863  1.1086 -1.6495 -2.6545
   95MOL0     H13094   2.737   2.475   4.799  0.3153 -1.6483 -2.2379
   95MOL0     H13095   2.549   2.492   4.946  1.3302  1.3437  0.1644
   95MOL0     H13096   2.266   2.372   5.111 -0.1963  0.9795  2.0713
   95MOL0     H13097   2.144   2.311   5.285  0.2501 -0.2696  0.1897
   95MOL0     H13098   1.943   2.179   5.382  0.2043 -0.3803  0.5874
   95MOL0     H13099   2.008   2.298   5.466  1.8464 -3.4244 -1.6167
   95MOL0     H13100   1.773   2.342   5.580 -2.6847 -0.9518  1.6389
   95MOL0     H13101   1.859   2.201   5.625  0.0787  2.8258  1.7666
   95MOL0     H13102   1.645   2.170   5.406  2.5575 -1.5541 -3.5543
   95MOL0     H13103   1.765   2.053   5.474  0.7077  0.8995  0.3202
   95MOL0     H13104   1.552   2.196   5.651 -1.8701 -0.8221 -0.4682
   95MOL0     H13105   1.667   2.079   5.704 -1.4724 -0.2021  1.8489
   95MOL0     H13106   1.399   1.816   5.534 -1.2068  0.4441  0.3390
   95MOL0     H13107   1.783   2.507   5.145 -1.2938  0.5127 -1.5741
   95MOL0     H13108   1.916   2.699   4.926 -3.2456  1.6225  0.6938
   95MOL0     H13109   1.912   2.562   4.818  1.3672  2.3142 -0.2152
   95MOL0     H13110   1.781   2.586   4.942  1.1355 -0.6598  2.3301
   96MOL0     O13111   6.657  10.693   1.323 -0.2090  0.0412  0.8771
   96MOL0     C13112   6.755  10.676   1.393 -1.1545  0.8631 -0.6097
   96MOL0     O13113   6.830  10.563   1.399 -0.0332 -0.0889 -0.7525
   96MOL0     C13114   6.827  10.476   1.294 -0.6316 -0.5514  0.4141
   96MOL0     C13115   6.915  10.483   1.180 -0.2273 -0.0231 -0.3302
   96MOL0     C13116   6.900  10.380   1.080 -0.6538 -0.9952  0.0792
   96MOL0     C13117   6.792  10.280   1.091 -0.0891 -0.4925 -0.6443
   96MOL0     O13118   6.780  10.185   0.995  0.1052 -0.4490  0.0588
   96MOL0     C13119   6.737  10.236   0.862 -0.1203 -0.5074  0.5701
   96MOL0     C13120   6.848  10.245   0.754  0.7402  0.7064 -0.2717
   96MOL0     C13121   6.913  10.111   0.716  0.2036  0.8703  0.1639
   96MOL0     C13122   6.938  10.074   0.568 -0.1356  0.1656  0.3833
   96MOL0     C13123   6.963   9.928   0.555  1.1496  0.7317  0.2531
   96MOL0     C13124   7.038   9.883   0.424 -0.8066 -0.3226 -0.2439
   96MOL0     C13125   7.090   9.740   0.434  0.1004 -0.2501 -0.4273
   96MOL0     C13126   6.981   9.633   0.467 -0.6489  0.0478  0.3759
   96MOL0     N13127   6.879   9.633   0.369 -0.6613 -0.0888  0.5383
   96MOL0     C13128   6.748   9.654   0.380  0.4105  0.6631 -0.1470
   96MOL0     C13129   6.694   9.635   0.255 -0.8131  0.4573 -0.2403
   96MOL0     C13130   6.543   9.642   0.224  0.4189  0.6382 -0.2062
   96MOL0     C13131   6.440   9.637   0.337 -0.2829  0.6739  0.2226
   96MOL0     C13132   6.301   9.638   0.286 -0.1730  0.3569 -1.0232
   96MOL0     C13133   6.269   9.602   0.147 -0.6909 -0.3898  0.6741
   96MOL0     O13134   6.129   9.600   0.145  0.2864 -0.2647 -0.6631
   96MOL0     C13135   6.048   9.592   0.036 -0.3952  0.1945 -0.2600
   96MOL0     C13136   6.092   9.568  -0.090 -0.2767 -0.1130  0.1710
   96MOL0     C13137   5.991   9.561  -0.192 -0.7754 -0.9767 -0.5410
   96MOL0     C13138   6.026   9.507  -0.326 -0.1006  0.8321  0.8319
   96MOL0     C13139   5.858   9.614  -0.159 -1.1613 -0.2512 -0.4366
   96MOL0     C13140   5.752   9.615  -0.257  0.2951 -0.0160  0.0769
   96MOL0     O13141   5.762   9.684  -0.378 -0.1184  0.1274  0.5232
   96MOL0     C13142   5.642   9.700  -0.450  0.7335 -0.1997  0.7057
   96MOL0     C13143   5.629   9.666  -0.582 -1.2678 -0.2281 -0.4870
   96MOL0     C13144   5.514   9.695  -0.656  1.3342  0.0091  0.6764
   96MOL0     C13145   5.398   9.751  -0.599  0.0196  0.5156  0.0448
   96MOL0     O13146   5.272   9.775  -0.659  0.0828  0.2978  0.3472
   96MOL0     C13147   5.281   9.832  -0.794 -0.3501  0.0469 -0.3609
   96MOL0     C13148   5.150   9.915  -0.841 -0.5405 -0.8042  0.2858
   96MOL0     C13149   5.156   9.926  -1.001  0.5107 -0.8363 -0.7086
   96MOL0     C13150   5.280   9.983  -1.059 -0.4768  0.1030 -0.4043
   96MOL0     C13151   5.249   9.994  -1.211 -0.1779 -1.0091  0.0023
   96MOL0     C13152   5.369  10.032  -1.299 -0.1009 -0.5886 -0.1874
   96MOL0     C13153   5.425  10.178  -1.254 -0.7412 -0.7853 -0.3806
   96MOL0     C13154   5.516  10.256  -1.357  0.0129  0.1190  0.3971
   96MOL0    Cl13155   5.621  10.139  -1.440 -0.0893 -0.2415  0.6935
   96MOL0     C13156   5.403   9.781  -0.461 -0.9314 -1.1221  0.1551
   96MOL0     C13157   5.522   9.758  -0.386  0.1939  0.3885  0.3142
   96MOL0     O13158   5.651   9.565  -0.219  0.6329 -0.3032 -0.8459
   96MOL0     C13159   5.828   9.637  -0.024 -0.0877 -0.9368  0.3238
   96MOL0     C13160   5.921   9.617   0.072 -0.7818  0.7232 -1.5609
   96MOL0     N13161   6.794   9.607   0.166 -0.6146  0.0603 -0.1033
   96MOL0     N13162   6.901   9.594   0.240  0.0706  0.0215  0.7245
   96MOL0     C13163   6.718  10.276   1.208  0.0244 -0.0856 -0.4772
   96MOL0     C13164   6.738  10.369   1.317  0.9418  0.4591  1.1831
   96MOL0     C13165   6.797  10.782   1.487  0.2691 -0.2721 -0.4956
   96MOL0     C13166   6.696  10.868   1.531  0.2346 -0.3980  0.0819
   96MOL0     C13167   6.713  10.979   1.603  0.7978  0.1328 -0.4941
   96MOL0     C13168   6.843  11.007   1.645  0.1584 -0.0060  0.6657
   96MOL0     O13169   6.873  11.120   1.713  0.7523  0.2422  0.3295
   96MOL0     C13170   6.768  11.191   1.766  0.1824 -0.1422 -0.4417
   96MOL0     C13171   6.686  11.134   1.885  0.1212 -0.2093 -0.0515
   96MOL0     C13172   6.568  11.212   1.945 -1.8037  0.4429  0.8189
   96MOL0     C13173   6.614  11.357   1.963  0.8787 -0.3406  0.2230
   96MOL0     C13174   6.485  11.425   2.018  0.6693 -0.3361  0.3790
   96MOL0     C13175   6.394  11.479   2.079 -0.0553 -0.2392 -0.7920
   96MOL0     C13176   6.951  10.922   1.617  0.5044  0.1112  0.4706
   96MOL0     C13177   6.929  10.805   1.537 -0.4278 -0.3482  0.9621
   96MOL0     C13178   7.046  10.722   1.508 -0.0439 -0.0277  0.0733
   96MOL0     H13179   6.990  10.561   1.169 -0.4497  0.6993  2.4999
   96MOL0     H13180   6.961  10.387   0.990  0.7475  0.6447  1.1211
   96MOL0     H13181   6.697  10.337   0.873  1.6191  0.1959  0.8448
   96MOL0     H13182   6.659  10.176   0.814 -0.3253 -0.5181  0.9129
   96MOL0     H13183   6.793  10.290   0.671  1.9233  0.8143 -1.0236
   96MOL0     H13184   6.929  10.313   0.781  1.0815 -0.0821  0.7467
   96MOL0     H13185   7.010  10.108   0.767  1.2742  3.4541 -1.4783
   96MOL0     H13186   6.845  10.034   0.754  3.2409 -2.1696 -0.0968
   96MOL0     H13187   6.854  10.102   0.505 -0.4184  2.9445  1.8443
   96MOL0     H13188   7.028  10.121   0.528  0.2390 -1.4736 -0.7691
   96MOL0     H13189   6.873   9.868   0.571  0.8099  1.7519  2.6623
   96MOL0     H13190   7.019   9.878   0.635 -1.3745  0.4049  1.9519
   96MOL0     H13191   6.975   9.887   0.335 -0.8511 -0.1446 -0.2045
   96MOL0     H13192   7.128   9.944   0.413 -0.7402  0.4011  3.2114
   96MOL0     H13193   7.159   9.739   0.518 -2.2375 -5.7558  1.8973
   96MOL0     H13194   7.138   9.712   0.340  0.3361 -0.5214 -0.2256
   96MOL0     H13195   7.027   9.533   0.470 -2.1616 -0.7720 -1.6301
   96MOL0     H13196   6.937   9.646   0.566 -1.2772 -1.9674  0.4116
   96MOL0     H13197   6.702   9.666   0.478  3.2742 -2.4475  1.8049
   96MOL0     H13198   6.539   9.547   0.168  0.0672  0.7298 -0.3370
   96MOL0     H13199   6.516   9.729   0.164  1.0424  1.5380  0.7918
   96MOL0     H13200   6.464   9.549   0.398  0.3073 -0.7606 -1.9397
   96MOL0     H13201   6.441   9.716   0.413  2.4302  0.0495  0.9348
   96MOL0     H13202   6.243   9.572   0.351 -1.1084  2.8135  0.7920
   96MOL0     H13203   6.248   9.729   0.318  0.3413 -0.2457  1.8386
   96MOL0     H13204   6.311   9.676   0.079 -2.3031 -0.4631 -0.4438
   96MOL0     H13205   6.318   9.510   0.113  0.9237  1.1409 -1.4310
   96MOL0     H13206   6.188   9.523  -0.115 -0.0862  1.4261 -2.1496
   96MOL0     H13207   6.114   9.443  -0.339 -0.6767  0.5926 -2.8452
   96MOL0     H13208   6.044   9.584  -0.402  0.5284 -1.2983 -1.2829
   96MOL0     H13209   5.953   9.433  -0.358  1.7582  0.2066 -2.3730
   96MOL0     H13210   5.722   9.631  -0.625  1.3700  2.7379  2.2296
   96MOL0     H13211   5.511   9.669  -0.761 -2.2155 -0.9350  0.8983
   96MOL0     H13212   5.366   9.900  -0.805 -0.3630 -0.2965 -3.2514
   96MOL0     H13213   5.290   9.750  -0.865  0.4498 -1.6511  1.6158
   96MOL0     H13214   5.057   9.861  -0.821 -1.2433 -0.2139 -1.2277
   96MOL0     H13215   5.144  10.008  -0.784 -0.5626  1.0110 -2.4581
   96MOL0     H13216   5.066   9.980  -1.031  1.2363  0.7510 -0.1001
   96MOL0     H13217   5.145   9.825  -1.044 -1.4978 -0.8744 -0.2019
   96MOL0     H13218   5.365   9.915  -1.047 -1.0540 -0.4140  0.9326
   96MOL0     H13219   5.309  10.076  -1.008 -0.0435 -0.9038  1.2677
   96MOL0     H13220   5.204   9.902  -1.250 -1.5860  1.0545 -3.7984
   96MOL0     H13221   5.172  10.070  -1.223  0.5631 -0.4707 -1.7415
   96MOL0     H13222   5.339  10.035  -1.404  0.9692 -0.9901 -0.5182
   96MOL0     H13223   5.444   9.954  -1.283 -0.2387 -0.7509 -0.3363
   96MOL0     H13224   5.485  10.179  -1.163 -1.2086 -1.2662 -0.0600
   96MOL0     H13225   5.337  10.239  -1.229  1.4278  2.2951  0.3128
   96MOL0     H13226   5.583  10.331  -1.313  1.9368 -2.0490  1.4028
   96MOL0     H13227   5.450  10.304  -1.430 -2.0658 -0.2850  1.9330
   96MOL0     H13228   5.337   9.810  -0.380  1.7436 -3.3232  3.3959
   96MOL0     H13229   5.526   9.767  -0.277 -2.7115 -1.8739  0.7224
   96MOL0     H13230   5.727   9.671  -0.003 -0.9674 -3.3834  0.3472
   96MOL0     H13231   5.886   9.629   0.174  2.2290  0.5224 -0.4055
   96MOL0     H13232   6.652  10.191   1.215  1.4264 -1.3177 -1.4859
   96MOL0     H13233   6.677  10.356   1.406  0.1485 -1.5371  0.3992
   96MOL0     H13234   6.591  10.861   1.504 -0.2000 -0.1076  1.5686
   96MOL0     H13235   6.622  11.030   1.635  0.5114 -0.9827  0.5209
   96MOL0     H13236   6.803  11.286   1.805  0.3209 -1.3275  2.6020
   96MOL0     H13237   6.708  11.225   1.681  1.8826  3.3697 -0.4022
   96MOL0     H13238   6.769  11.123   1.955 -0.6408  0.9670  1.0739
   96MOL0     H13239   6.645  11.036   1.858 -0.4176  0.4644 -1.8458
   96MOL0     H13240   6.495  11.203   1.864  0.9322 -1.3426 -1.6400
   96MOL0     H13241   6.539  11.170   2.041 -0.9506 -1.6650  0.2019
   96MOL0     H13242   6.642  11.408   1.871 -1.3716 -1.0534 -0.9367
   96MOL0     H13243   6.692  11.356   2.040 -0.4153 -0.4413  1.5868
   96MOL0     H13244   6.321  11.521   2.145 -0.3489  0.6443 -1.6566
   96MOL0     H13245   7.040  10.950   1.672  1.2547 -0.3558 -0.4766
   96MOL0     H13246   7.067  10.730   1.401 -0.4997 -0.1187 -0.0244
   96MOL0     H13247   7.136  10.756   1.561  0.7197  0.3310 -1.3803
   96MOL0     H13248   7.026  10.617   1.530 -0.1750 -0.6718 -2.7689
   97MOL0     O13249   8.825   1.501   1.697  0.2168 -0.3054  0.1144
   97MOL0     C13250   8.857   1.397   1.651  0.8397 -0.0379 -0.0500
   97MOL0     O13251   8.976   1.328   1.679 -0.1610 -0.0628  0.1904
   97MOL0     C13252   9.079   1.398   1.726  0.1927  0.0092  0.1481
   97MOL0     C13253   9.153   1.334   1.823  0.3974 -0.5926 -0.6260
   97MOL0     C13254   9.264   1.395   1.873  0.2822  0.2195  0.1895
   97MOL0     C13255   9.296   1.521   1.838 -0.7753  0.1710 -0.5816
   97MOL0     O13256   9.398   1.592   1.883  0.1411 -0.5179 -0.2085
   97MOL0     C13257   9.422   1.580   2.029  0.6489  0.0024  0.2471
   97MOL0     C13258   9.572   1.560   2.055  0.0584 -0.2430  0.7897
   97MOL0     C13259   9.611   1.600   2.196 -0.5184 -0.1802  0.2786
   97MOL0     C13260   9.533   1.526   2.308  0.1742 -1.1601 -0.7288
   97MOL0     C13261   9.560   1.378   2.309  0.3971 -0.1958  0.0976
   97MOL0     C13262   9.472   1.316   2.426 -0.8097  0.2709 -0.6598
   97MOL0     C13263   9.486   1.165   2.412 -1.1666  0.4178 -0.4456
   97MOL0     C13264   9.417   1.079   2.517 -0.2330 -0.8653  0.0894
   97MOL0     N13265   9.424   0.936   2.511 -1.0265 -0.5964 -0.0376
   97MOL0     C13266   9.496   0.861   2.431 -0.1334  1.2608  0.4221
   97MOL0     C13267   9.440   0.738   2.431  0.6559 -0.3514 -0.4245
   97MOL0     C13268   9.503   0.616   2.394 -0.4947 -0.3366  0.7783
   97MOL0     C13269   9.637   0.589   2.462  0.1332  0.5072  0.3740
   97MOL0     C13270   9.698   0.449   2.435  0.2416  0.5661 -0.7949
   97MOL0     C13271   9.657   0.354   2.536 -0.5464 -0.1794  0.3773
   97MOL0     O13272   9.689   0.219   2.504  0.6703 -0.1555 -0.0509
   97MOL0     C13273   9.653   0.166   2.382  0.4429 -0.6183 -0.4394
   97MOL0     C13274   9.744   0.087   2.318 -0.4425  0.6760 -0.1508
   97MOL0     C13275   9.723   0.000   2.208  0.7217  0.3846 -0.1301
   97MOL0     C13276   9.833  -0.096   2.166 -0.5990 -0.0633 -0.4736
   97MOL0     C13277   9.587  -0.009   2.159  0.0683 -0.6070  0.4656
   97MOL0     C13278   9.546  -0.096   2.041 -0.3309  0.2045 -0.1090
   97MOL0     O13279   9.412  -0.120   2.046 -0.0568 -1.1429  0.1843
   97MOL0     C13280   9.383  -0.219   1.967  0.7361 -0.3112 -0.4370
   97MOL0     C13281   9.409  -0.355   2.005  0.5089  0.7398  0.6549
   97MOL0     C13282   9.390  -0.465   1.911 -0.1006  0.8966  0.5769
   97MOL0     C13283   9.343  -0.436   1.780 -1.6049 -0.1218 -0.2225
   97MOL0     O13284   9.318  -0.531   1.681 -0.7125 -0.1490 -0.1529
   97MOL0     C13285   9.352  -0.666   1.719  0.2575 -0.0734  1.1261
   97MOL0     C13286   9.328  -0.755   1.590  0.0737  0.4018  0.3262
   97MOL0     C13287   9.231  -0.883   1.620  0.0205  0.2841  0.4406
   97MOL0     C13288   9.241  -0.970   1.503 -0.0118  0.5269 -0.5930
   97MOL0     C13289   9.173  -1.106   1.530  0.7363 -0.3260 -0.4578
   97MOL0     C13290   9.022  -1.097   1.584 -0.6083  0.6899 -1.1417
   97MOL0     C13291   8.977  -1.246   1.595  0.3508 -1.2694  0.3278
   97MOL0     C13292   8.839  -1.257   1.654 -1.1890  0.4104  0.6549
   97MOL0    Cl13293   8.858  -1.202   1.824 -0.6518 -0.0922 -0.2541
   97MOL0     C13294   9.319  -0.301   1.748 -0.1905 -0.6302  0.0228
   97MOL0     C13295   9.334  -0.194   1.840  0.2107  0.1524 -0.1428
   97MOL0     O13296   9.624  -0.136   1.954  0.9221  0.2598  0.9700
   97MOL0     C13297   9.496   0.069   2.222 -0.1790  1.0035 -0.1571
   97MOL0     C13298   9.524   0.155   2.327 -1.0893 -0.6827 -0.8482
   97MOL0     N13299   9.352   0.733   2.534  0.1793  0.2354 -0.5747
   97MOL0     N13300   9.339   0.857   2.580  1.0601  0.2326  0.2203
   97MOL0     C13301   9.235   1.571   1.726 -1.0916  0.4526  0.0138
   97MOL0     C13302   9.124   1.516   1.674  0.7282  0.2406 -0.3544
   97MOL0     C13303   8.760   1.330   1.564  0.0598 -0.5329  0.2899
   97MOL0     C13304   8.662   1.411   1.500 -0.2337 -0.7708  0.1915
   97MOL0     C13305   8.577   1.359   1.405 -0.9973  0.0954 -0.1875
   97MOL0     C13306   8.577   1.226   1.374 -0.3575  0.1074  0.6485
   97MOL0     O13307   8.479   1.187   1.292  0.1601 -0.8906  0.3051
   97MOL0     C13308   8.357   1.187   1.367 -0.0623  0.7143 -0.0204
   97MOL0     C13309   8.294   1.052   1.345  1.0563 -0.4554  0.1314
   97MOL0     C13310   8.307   0.964   1.469 -0.2273  0.3278  0.3513
   97MOL0     C13311   8.281   0.822   1.433  0.4487  0.5765  0.7792
   97MOL0     C13312   8.309   0.735   1.536 -0.0149  0.5460 -0.6686
   97MOL0     C13313   8.346   0.686   1.637 -0.2848  0.5095  0.3321
   97MOL0     C13314   8.667   1.136   1.435 -0.3812  0.3215  0.2273
   97MOL0     C13315   8.757   1.194   1.528 -0.5858  0.6943 -0.4748
   97MOL0     C13316   8.848   1.089   1.595  0.4153  0.7114  0.2183
   97MOL0     H13317   9.131   1.234   1.858 -0.6197 -0.1839 -0.0303
   97MOL0     H13318   9.326   1.343   1.946 -0.0897 -0.3868  0.0757
   97MOL0     H13319   9.362   1.511   2.090  0.4499 -1.1247 -1.1863
   97MOL0     H13320   9.395   1.677   2.073  0.2086  0.3713 -0.7937
   97MOL0     H13321   9.612   1.458   2.052 -1.7442 -0.9986  1.2368
   97MOL0     H13322   9.624   1.614   1.976 -0.8653 -1.9560 -1.0786
   97MOL0     H13323   9.717   1.578   2.208 -0.3897 -1.0501 -2.0960
   97MOL0     H13324   9.584   1.706   2.201 -1.5359 -0.2446 -2.4321
   97MOL0     H13325   9.564   1.568   2.404 -0.8034 -0.9344 -0.5024
   97MOL0     H13326   9.428   1.551   2.294  0.7367  0.5242 -2.5627
   97MOL0     H13327   9.667   1.363   2.327  0.8797  3.3146  0.8047
   97MOL0     H13328   9.527   1.329   2.217 -0.2735  0.8965 -0.2677
   97MOL0     H13329   9.512   1.345   2.523  0.8153 -2.7476 -0.3101
   97MOL0     H13330   9.368   1.349   2.418 -0.6013  0.6444 -2.2380
   97MOL0     H13331   9.590   1.133   2.396 -0.4076  2.2926  0.4415
   97MOL0     H13332   9.434   1.134   2.320  0.4432  0.8793 -1.5573
   97MOL0     H13333   9.440   1.112   2.619  0.2779 -0.6803 -0.0853
   97MOL0     H13334   9.315   1.120   2.519  0.2247  0.2730  0.9446
   97MOL0     H13335   9.581   0.894   2.372 -1.5633  1.0454 -1.8939
   97MOL0     H13336   9.531   0.623   2.288  1.7749 -5.6989  0.7199
   97MOL0     H13337   9.433   0.534   2.407 -1.3631  0.2719  0.0810
   97MOL0     H13338   9.718   0.658   2.437 -0.3092  0.8947 -0.0141
   97MOL0     H13339   9.622   0.596   2.570  2.7276 -1.1283  0.9348
   97MOL0     H13340   9.659   0.420   2.336 -1.8351  2.1557 -0.5245
   97MOL0     H13341   9.807   0.453   2.436  0.5419 -2.7347  3.1263
   97MOL0     H13342   9.714   0.382   2.625 -1.4860  0.4478  0.7892
   97MOL0     H13343   9.552   0.366   2.562 -0.6127  1.3891 -0.4836
   97MOL0     H13344   9.839   0.088   2.370 -0.2372  0.6128 -0.5231
   97MOL0     H13345   9.926  -0.039   2.158  0.1813 -0.5272  3.4804
   97MOL0     H13346   9.820  -0.145   2.068 -2.0525  0.2752 -0.4711
   97MOL0     H13347   9.853  -0.177   2.237 -1.3073 -0.3960 -0.6436
   97MOL0     H13348   9.434  -0.378   2.108  0.5366 -1.9994  0.0967
   97MOL0     H13349   9.397  -0.568   1.945 -1.3346  1.1179  1.5939
   97MOL0     H13350   9.458  -0.669   1.743  0.4782  0.2732  0.2552
   97MOL0     H13351   9.299  -0.713   1.803 -2.9963  2.9327  0.9815
   97MOL0     H13352   9.288  -0.686   1.515  0.7665  1.7863  1.1918
   97MOL0     H13353   9.426  -0.786   1.553  1.3646  3.0082  1.3719
   97MOL0     H13354   9.125  -0.859   1.633  0.6253  1.5655  4.5540
   97MOL0     H13355   9.256  -0.933   1.714 -0.8245  0.5778  0.8354
   97MOL0     H13356   9.345  -0.986   1.474  0.4978  4.0362 -1.1103
   97MOL0     H13357   9.196  -0.935   1.410  0.0584 -1.3895 -1.3958
   97MOL0     H13358   9.174  -1.170   1.442  0.5995 -3.1789  1.4564
   97MOL0     H13359   9.239  -1.158   1.601 -1.1516 -0.9314  0.9546
   97MOL0     H13360   8.966  -1.038   1.512  1.4371  3.2303 -0.8038
   97MOL0     H13361   9.026  -1.046   1.681  0.0790 -0.0322 -0.7829
   97MOL0     H13362   9.060  -1.283   1.655  1.5288 -0.7988 -0.9367
   97MOL0     H13363   8.982  -1.294   1.497  0.7465 -1.6342  0.5251
   97MOL0     H13364   8.805  -1.361   1.662 -3.4104  1.2353  3.6858
   97MOL0     H13365   8.764  -1.186   1.620 -1.3206  0.7610  1.6362
   97MOL0     H13366   9.302  -0.282   1.643  3.4726 -0.8554 -0.7400
   97MOL0     H13367   9.325  -0.094   1.800 -0.3560  0.4843  0.7751
   97MOL0     H13368   9.394   0.046   2.193  0.4391 -1.5997 -0.4618
   97MOL0     H13369   9.438   0.192   2.380 -0.3285  2.4709 -1.6297
   97MOL0     H13370   9.267   1.662   1.677 -1.9279  0.1915 -1.0701
   97MOL0     H13371   9.077   1.559   1.586 -2.1181 -0.9644  0.4297
   97MOL0     H13372   8.633   1.514   1.521 -1.4217 -1.0557  0.0250
   97MOL0     H13373   8.509   1.430   1.360 -0.9738  0.1871 -0.0789
   97MOL0     H13374   8.357   1.207   1.475  1.5897  1.6816 -0.1672
   97MOL0     H13375   8.291   1.258   1.316  0.8107 -1.9862 -5.5658
   97MOL0     H13376   8.327   1.016   1.247 -0.7722  1.6088 -1.3279
   97MOL0     H13377   8.186   1.056   1.326  1.1418  3.2024 -0.1567
   97MOL0     H13378   8.408   0.982   1.507  0.0949  0.4418 -0.5249
   97MOL0     H13379   8.227   0.981   1.541 -0.6089  0.0231  0.0039
   97MOL0     H13380   8.330   0.787   1.342 -3.2401 -3.1680 -0.0650
   97MOL0     H13381   8.174   0.818   1.409 -0.1418  0.2868  3.2088
   97MOL0     H13382   8.385   0.640   1.726  1.3825  0.4890 -0.3680
   97MOL0     H13383   8.668   1.031   1.405  0.9777 -0.0576  1.4599
   97MOL0     H13384   8.948   1.104   1.553 -0.9875  1.7457 -2.9964
   97MOL0     H13385   8.845   1.105   1.704 -2.7426  0.5272  0.2327
   97MOL0     H13386   8.817   0.987   1.574  2.5825  0.5513 -2.7196
   98MOL0     O13387   8.520   6.602   8.003  0.2580  0.4372  0.1330
   98MOL0     C13388   8.434   6.694   8.008 -0.6858  0.4097 -0.0542
   98MOL0     O13389   8.468   6.826   8.042  0.8101 -1.1237 -0.5906
   98MOL0     C13390   8.602   6.859   8.063 -0.4719  0.1166  0.2056
   98MOL0     C13391   8.638   6.983   7.999 -0.2682  0.0433  0.2501
   98MOL0     C13392   8.772   7.027   8.014  0.5076  0.6283  0.8109
   98MOL0     C13393   8.870   6.958   8.087 -0.4301  0.6997  0.2102
   98MOL0     O13394   8.991   7.024   8.109 -0.0845 -0.6755 -0.0432
   98MOL0     C13395   9.082   6.984   8.220 -0.7995 -0.3588 -0.1320
   98MOL0     C13396   9.180   7.109   8.246  0.2947  0.0926 -0.4567
   98MOL0     C13397   9.330   7.073   8.246 -0.4405  0.7395 -0.6970
   98MOL0     C13398   9.375   7.010   8.387  0.3468 -0.3417  0.4041
   98MOL0     C13399   9.528   6.995   8.408  0.2336  0.1348 -0.6505
   98MOL0     C13400   9.612   7.116   8.360  0.6795 -0.0563 -0.8063
   98MOL0     C13401   9.755   7.117   8.411  0.0632  0.2369  0.2416
   98MOL0     C13402   9.835   6.993   8.368  0.2945  0.5044  0.7894
   98MOL0     N13403   9.981   7.004   8.411 -0.7175 -0.1378 -0.2002
   98MOL0     C13404  10.043   6.940   8.524  0.0980 -0.0981  0.5997
   98MOL0     C13405  10.171   6.995   8.518 -0.1829 -0.3108  0.7477
   98MOL0     C13406  10.289   6.955   8.608  0.0473 -0.4007 -0.2230
   98MOL0     C13407  10.274   7.030   8.746  0.1817  0.0510 -0.1270
   98MOL0     C13408  10.408   7.081   8.809 -0.5300  0.4208 -0.3241
   98MOL0     C13409  10.410   7.215   8.885 -0.3000  0.1694 -0.5319
   98MOL0     O13410  10.367   7.182   9.016 -0.1079  0.5814  0.5215
   98MOL0     C13411  10.254   7.237   9.062 -0.1792  0.6019 -0.1271
   98MOL0     C13412  10.242   7.363   9.116 -0.3912  1.0202 -0.4506
   98MOL0     C13413  10.125   7.405   9.183  0.3759  0.5183  1.3110
   98MOL0     C13414  10.133   7.543   9.248  0.4954  0.9301  0.4095
   98MOL0     C13415  10.007   7.331   9.173 -0.2996  0.5295 -0.9413
   98MOL0     C13416   9.878   7.387   9.211 -0.9929  0.3082  0.1859
   98MOL0     O13417   9.859   7.527   9.210  0.0224 -0.3036  0.3672
   98MOL0     C13418   9.721   7.547   9.199 -0.1355 -0.2757  0.3045
   98MOL0     C13419   9.659   7.519   9.079 -0.5938 -0.0093 -0.7383
   98MOL0     C13420   9.530   7.549   9.051 -0.2819  0.1160 -0.0816
   98MOL0     C13421   9.452   7.616   9.153  0.1430 -0.2319  0.3925
   98MOL0     O13422   9.318   7.643   9.145 -0.7525 -0.1536  0.5258
   98MOL0     C13423   9.240   7.553   9.062 -0.3832 -0.5591 -0.1981
   98MOL0     C13424   9.205   7.613   8.923  0.2588 -0.5838 -0.1216
   98MOL0     C13425   9.085   7.542   8.853  0.7780 -0.0131  0.8059
   98MOL0     C13426   9.019   7.632   8.753  0.7399  0.4346  0.5639
   98MOL0     C13427   8.960   7.540   8.631 -0.8323 -0.9572 -0.2154
   98MOL0     C13428   8.853   7.445   8.677 -0.5475  0.1855  1.1947
   98MOL0     C13429   8.781   7.357   8.567 -0.4237 -0.1973  0.1318
   98MOL0     C13430   8.875   7.285   8.462 -0.0883 -0.6918  0.5817
   98MOL0    Cl13431   8.776   7.172   8.374  0.1394 -0.2327 -0.2274
   98MOL0     C13432   9.508   7.630   9.282 -1.0704  0.0477 -0.1604
   98MOL0     C13433   9.647   7.608   9.301  0.3733  0.1342 -0.1064
   98MOL0     O13434   9.795   7.300   9.234  0.2450 -0.2352 -0.5646
   98MOL0     C13435  10.024   7.191   9.136  0.3282  0.0697  0.6139
   98MOL0     C13436  10.146   7.152   9.082 -0.6858  0.2499  1.0668
   98MOL0     N13437  10.177   7.091   8.418 -0.1865 -0.4932  0.5709
   98MOL0     N13438  10.061   7.112   8.372 -1.0329  1.0802  0.1708
   98MOL0     C13439   8.836   6.835   8.144  0.3005  0.5504 -0.2624
   98MOL0     C13440   8.700   6.788   8.140 -0.3928 -0.1899  0.4123
   98MOL0     C13441   8.297   6.668   7.973  0.2659  0.2947 -0.0968
   98MOL0     C13442   8.184   6.719   8.053 -0.1129  0.8991  0.6761
   98MOL0     C13443   8.058   6.698   8.021  0.1824 -0.1726 -0.2708
   98MOL0     C13444   8.028   6.628   7.902 -0.0804  0.7987  0.4805
   98MOL0     O13445   7.899   6.615   7.865 -0.5344 -0.1036 -0.1799
   98MOL0     C13446   7.856   6.682   7.740  0.8894 -0.4257 -0.2959
   98MOL0     C13447   7.710   6.646   7.715 -0.5367 -0.1881 -0.6601
   98MOL0     C13448   7.617   6.697   7.829 -0.1186  0.1062  0.1652
   98MOL0     C13449   7.463   6.683   7.795  0.6227  0.6333 -0.3393
   98MOL0     C13450   7.383   6.766   7.889  0.2590  0.3109  0.1194
   98MOL0     C13451   7.320   6.838   7.965  0.6724  0.2564 -0.1528
   98MOL0     C13452   8.134   6.572   7.822  0.0032  0.3357  0.2251
   98MOL0     C13453   8.269   6.596   7.851  0.5150  0.7023  0.3803
   98MOL0     C13454   8.372   6.527   7.770  0.5806  0.1024 -0.0810
   98MOL0     H13455   8.572   7.041   7.936 -0.4905 -1.0725 -0.5629
   98MOL0     H13456   8.803   7.128   7.987 -0.7334  0.2569 -2.5895
   98MOL0     H13457   9.141   6.893   8.212 -1.3939 -0.8133  0.5302
   98MOL0     H13458   9.031   6.971   8.316  0.4351 -0.3045  0.5561
   98MOL0     H13459   9.169   7.189   8.171  3.7626  1.8102  0.6393
   98MOL0     H13460   9.161   7.157   8.342  1.6765  2.0300 -1.0818
   98MOL0     H13461   9.352   6.999   8.168 -3.8003 -3.1652  1.6312
   98MOL0     H13462   9.384   7.167   8.232  2.0368 -0.5601 -0.6091
   98MOL0     H13463   9.342   7.075   8.469  0.3373  0.5568 -0.2939
   98MOL0     H13464   9.319   6.917   8.399 -1.1038  0.6306  1.4864
   98MOL0     H13465   9.555   6.907   8.348  0.0197 -0.5083  0.1735
   98MOL0     H13466   9.550   6.980   8.514 -1.2904 -3.2854 -0.6776
   98MOL0     H13467   9.601   7.121   8.251  1.1443 -3.5119 -1.1024
   98MOL0     H13468   9.577   7.209   8.407 -1.0507 -1.3020  0.5251
   98MOL0     H13469   9.744   7.125   8.520  0.3176  0.4665  0.2520
   98MOL0     H13470   9.812   7.205   8.379 -0.5724  0.3660 -0.5438
   98MOL0     H13471   9.787   6.910   8.421 -1.4406  1.5746  0.9575
   98MOL0     H13472   9.832   6.978   8.259 -1.0327  1.9956  0.5958
   98MOL0     H13473   9.998   6.866   8.589 -2.0545  1.1018  0.5879
   98MOL0     H13474  10.378   6.998   8.562  1.2683 -2.5246  0.0316
   98MOL0     H13475  10.309   6.851   8.634 -2.5604 -1.0427 -0.4530
   98MOL0     H13476  10.199   7.109   8.738  1.3913  1.1392 -1.3387
   98MOL0     H13477  10.232   6.956   8.814  3.4858 -0.7795  1.2217
   98MOL0     H13478  10.448   7.007   8.878 -2.5423  2.9345  3.9196
   98MOL0     H13479  10.481   7.089   8.728 -1.8288 -2.6563 -1.9649
   98MOL0     H13480  10.515   7.241   8.897  0.0043  0.2402 -2.8112
   98MOL0     H13481  10.357   7.297   8.836  0.5423  1.0326 -0.0315
   98MOL0     H13482  10.333   7.421   9.114  1.2302 -1.3682 -0.0798
   98MOL0     H13483  10.238   7.557   9.274  0.4228  1.5850  0.3658
   98MOL0     H13484  10.075   7.559   9.340  2.5008  0.2614  1.8646
   98MOL0     H13485  10.110   7.617   9.171 -0.5884 -2.3351 -2.6595
   98MOL0     H13486   9.727   7.469   9.010 -1.3605 -2.7995  0.3706
   98MOL0     H13487   9.494   7.509   8.957 -0.1184  0.0665 -0.1244
   98MOL0     H13488   9.290   7.460   9.037  1.1598  0.6734 -1.9001
   98MOL0     H13489   9.151   7.523   9.119  0.6583  0.1720  1.9213
   98MOL0     H13490   9.197   7.722   8.930 -3.2277 -0.8251  2.2672
   98MOL0     H13491   9.294   7.593   8.862  0.4750  4.5552 -1.9611
   98MOL0     H13492   9.007   7.513   8.924  1.0078 -1.2545  0.5570
   98MOL0     H13493   9.105   7.447   8.804  0.6294 -0.2712  1.2444
   98MOL0     H13494   9.097   7.701   8.720  0.4439  0.9374  0.8960
   98MOL0     H13495   8.945   7.683   8.816  1.9740 -0.3594  2.7570
   98MOL0     H13496   8.917   7.605   8.554  0.1119  0.0968  0.1201
   98MOL0     H13497   9.039   7.485   8.580 -1.7473 -3.5648  0.9852
   98MOL0     H13498   8.773   7.511   8.711 -1.5659  1.8997 -3.6910
   98MOL0     H13499   8.884   7.383   8.761  1.3074 -1.5442 -0.6484
   98MOL0     H13500   8.698   7.410   8.519 -0.2302  0.3190  0.3586
   98MOL0     H13501   8.736   7.277   8.626 -0.6372  0.5125  0.9478
   98MOL0     H13502   8.959   7.229   8.504  1.6439  0.1267 -1.5880
   98MOL0     H13503   8.917   7.358   8.392 -1.2387 -2.9005 -2.7134
   98MOL0     H13504   9.441   7.667   9.359 -2.6216 -2.4430 -0.1833
   98MOL0     H13505   9.690   7.629   9.399 -2.6768  0.1377  1.3419
   98MOL0     H13506   9.958   7.106   9.148  1.3582 -0.5507  2.1445
   98MOL0     H13507  10.153   7.048   9.051 -0.1807 -0.0715  2.2028
   98MOL0     H13508   8.910   6.796   8.213 -1.9065  2.8303  3.7715
   98MOL0     H13509   8.661   6.696   8.183 -2.7178  0.0612 -0.9787
   98MOL0     H13510   8.207   6.764   8.149  1.8762  4.0786 -1.0857
   98MOL0     H13511   7.983   6.723   8.095  1.5644  2.1303  0.4584
   98MOL0     H13512   7.856   6.791   7.740  0.5708 -0.4128 -1.5292
   98MOL0     H13513   7.910   6.661   7.647  1.2761  4.3936 -1.4187
   98MOL0     H13514   7.690   6.539   7.707 -2.4877 -0.0635  1.4991
   98MOL0     H13515   7.679   6.688   7.619  0.5024  0.1632 -0.8585
   98MOL0     H13516   7.640   6.643   7.921  0.5965  2.2550  1.3221
   98MOL0     H13517   7.640   6.801   7.856  2.6596 -0.0498 -1.3394
   98MOL0     H13518   7.440   6.576   7.786 -0.7100  0.8989 -0.1934
   98MOL0     H13519   7.438   6.727   7.698 -4.1369  0.7884  0.7330
   98MOL0     H13520   7.272   6.904   8.034  2.1376  0.6195  0.5473
   98MOL0     H13521   8.103   6.508   7.740  2.0686 -0.9473  0.3736
   98MOL0     H13522   8.337   6.526   7.666  2.3889  1.1443 -0.7346
   98MOL0     H13523   8.473   6.564   7.754  0.2360  0.5860 -1.2915
   98MOL0     H13524   8.368   6.426   7.813  0.1862  1.5007  3.4770
   99MOL0     O13525   9.822   5.788   6.518 -0.5372 -0.1235 -0.4559
   99MOL0     C13526   9.743   5.698   6.555  0.3345 -0.1005  0.3925
   99MOL0     O13527   9.758   5.615   6.667 -0.2029  0.1156 -0.2816
   99MOL0     C13528   9.854   5.658   6.754  0.3754 -1.4283 -0.8878
   99MOL0     C13529   9.984   5.623   6.733  0.3243 -0.0037 -0.1175
   99MOL0     C13530  10.087   5.676   6.807 -0.2325  0.4832 -1.2057
   99MOL0     C13531  10.059   5.757   6.917 -0.6557 -0.5769  0.2336
   99MOL0     O13532  10.159   5.803   6.999 -0.0847 -0.6879 -0.8325
   99MOL0     C13533  10.233   5.908   6.944  0.4241 -0.1478 -0.6508
   99MOL0     C13534  10.319   5.966   7.061 -0.3501 -0.1380  1.1239
   99MOL0     C13535  10.222   6.042   7.158  0.2037  0.5264 -1.0356
   99MOL0     C13536  10.301   6.102   7.271  0.1110  0.6679 -0.5512
   99MOL0     C13537  10.194   6.156   7.370  0.0607  0.5839 -0.0839
   99MOL0     C13538  10.252   6.169   7.509 -0.1053  0.0480  0.9108
   99MOL0     C13539  10.363   6.268   7.502  0.2176 -0.9351 -1.2485
   99MOL0     C13540  10.378   6.331   7.647  0.1729  0.9543  0.1197
   99MOL0     N13541  10.379   6.231   7.759 -0.0518  0.1789  0.2780
   99MOL0     C13542  10.266   6.201   7.842  0.5717 -0.8944 -0.8048
   99MOL0     C13543  10.323   6.140   7.949  0.7640  0.0073  0.1284
   99MOL0     C13544  10.248   6.082   8.069  0.8480 -0.3002  0.1863
   99MOL0     C13545  10.223   5.927   8.060 -0.4788 -1.2187 -0.0580
   99MOL0     C13546  10.174   5.874   7.932  0.0985 -0.5978  0.2132
   99MOL0     C13547  10.047   5.954   7.878 -0.5865 -0.3939 -0.6838
   99MOL0     O13548  10.033   5.923   7.739 -0.1412 -0.0943  0.4829
   99MOL0     C13549   9.918   5.959   7.676 -0.0797 -0.6711  0.6543
   99MOL0     C13550   9.870   5.875   7.573  1.1749 -0.0032  0.9856
   99MOL0     C13551   9.746   5.898   7.505  0.2980  0.2068  0.1302
   99MOL0     C13552   9.691   5.781   7.423 -0.0171 -0.4308 -0.1705
   99MOL0     C13553   9.683   6.023   7.526 -0.5421  0.9077  0.1524
   99MOL0     C13554   9.556   6.054   7.463  0.5585 -0.2853 -0.2658
   99MOL0     O13555   9.515   5.988   7.355 -0.2031  0.8901  0.5020
   99MOL0     C13556   9.393   6.021   7.296 -0.6256 -0.2024 -0.6794
   99MOL0     C13557   9.289   5.922   7.312 -0.3203  0.2203  0.4193
   99MOL0     C13558   9.163   5.936   7.259  0.0514  0.1239 -1.6599
   99MOL0     C13559   9.141   6.047   7.177  0.1928 -0.3731  0.1664
   99MOL0     O13560   9.016   6.070   7.118  0.2655 -0.1871  0.5962
   99MOL0     C13561   8.980   6.196   7.056 -0.6881  0.8143  0.0147
   99MOL0     C13562   8.826   6.211   7.039  0.2931  0.1118  0.0693
   99MOL0     C13563   8.745   6.195   7.167  0.1659  0.8578 -1.3918
   99MOL0     C13564   8.597   6.201   7.135  1.3911  0.1988 -0.2492
   99MOL0     C13565   8.529   6.076   7.178  0.2801  0.0616 -0.4712
   99MOL0     C13566   8.376   6.076   7.174  0.0460  0.6946  0.1101
   99MOL0     C13567   8.322   5.945   7.229 -0.2955 -1.2307  0.8627
   99MOL0     C13568   8.174   5.944   7.215 -0.1326 -0.2255 -0.1438
   99MOL0    Cl13569   8.098   6.061   7.315  0.0199 -0.3981  0.5221
   99MOL0     C13570   9.244   6.147   7.168  0.9974 -1.3097 -0.4585
   99MOL0     C13571   9.369   6.138   7.230  0.6852  0.5255 -0.1718
   99MOL0     O13572   9.483   6.130   7.524 -0.3850 -0.7278 -0.4196
   99MOL0     C13573   9.733   6.112   7.618 -0.1917  0.2178 -0.5037
   99MOL0     C13574   9.847   6.083   7.693 -0.8369 -0.1648 -0.7909
   99MOL0     N13575  10.461   6.122   7.929 -0.1858 -1.2067  0.7466
   99MOL0     N13576  10.489   6.185   7.819 -0.4169  1.0420 -0.2660
   99MOL0     C13577   9.926   5.777   6.958 -0.3053 -0.1518 -0.5336
   99MOL0     C13578   9.830   5.721   6.881  0.2457  0.3104 -0.0993
   99MOL0     C13579   9.615   5.690   6.475  0.6655 -0.8181  0.1978
   99MOL0     C13580   9.592   5.774   6.358 -0.4889 -0.4120  0.8715
   99MOL0     C13581   9.479   5.780   6.282 -0.8575 -0.4443  1.0473
   99MOL0     C13582   9.371   5.701   6.324 -0.9502  0.2261  0.2346
   99MOL0     O13583   9.255   5.692   6.255  0.3938 -0.2534 -0.6915
   99MOL0     C13584   9.259   5.709   6.109  0.2970  1.0619 -0.7396
   99MOL0     C13585   9.148   5.651   6.041  0.0474  0.1527  0.5128
   99MOL0     C13586   9.153   5.700   5.895 -0.3408 -0.1524  0.2821
   99MOL0     C13587   9.025   5.663   5.823  0.2814  0.4033 -1.1437
   99MOL0     C13588   8.900   5.730   5.867 -0.6599  0.2176  0.2958
   99MOL0     C13589   8.797   5.786   5.888 -0.6376  0.1272 -0.3212
   99MOL0     C13590   9.378   5.625   6.437  0.0765 -0.4118 -0.9444
   99MOL0     C13591   9.494   5.621   6.522  0.1264 -0.4649  0.0815
   99MOL0     C13592   9.493   5.518   6.637  1.0598 -0.3455 -1.1289
   99MOL0     H13593  10.009   5.570   6.642  3.9591  2.5596 -0.8360
   99MOL0     H13594  10.180   5.651   6.758  0.4857  0.1728  0.2719
   99MOL0     H13595  10.172   5.985   6.896  2.0816 -0.2260 -3.0845
   99MOL0     H13596  10.299   5.855   6.874  3.2967 -0.1819  1.8949
   99MOL0     H13597  10.373   5.879   7.099  0.3616  0.0426  0.5444
   99MOL0     H13598  10.396   6.035   7.027  0.2728 -1.7265 -0.8450
   99MOL0     H13599  10.177   6.124   7.101 -0.1123  1.1171  0.0432
   99MOL0     H13600  10.150   5.970   7.198  2.4275  0.7397  4.2712
   99MOL0     H13601  10.370   6.030   7.315  2.0734  2.8673  0.1473
   99MOL0     H13602  10.366   6.184   7.241  1.7794 -0.0675  0.8883
   99MOL0     H13603  10.109   6.088   7.373  0.6243 -0.1397 -0.1354
   99MOL0     H13604  10.154   6.250   7.333  0.3340  0.3271 -1.0714
   99MOL0     H13605  10.164   6.210   7.560 -0.7424  0.3016 -0.3614
   99MOL0     H13606  10.280   6.070   7.547 -0.3899 -0.1348  0.6424
   99MOL0     H13607  10.359   6.348   7.427  0.4902  0.9404  0.6271
   99MOL0     H13608  10.448   6.206   7.475  0.3762 -1.5338  0.5021
   99MOL0     H13609  10.480   6.370   7.656  2.2050 -3.8335  1.5692
   99MOL0     H13610  10.301   6.406   7.666 -0.8319  0.6932 -2.4889
   99MOL0     H13611  10.162   6.230   7.826  0.7592 -0.2258 -0.8432
   99MOL0     H13612  10.156   6.139   8.084  2.0282  1.7626 -0.0193
   99MOL0     H13613  10.310   6.117   8.151  0.4334  3.2858 -0.8778
   99MOL0     H13614  10.308   5.874   8.104  1.0868  1.8475  0.8621
   99MOL0     H13615  10.135   5.912   8.123 -1.2872  0.1228 -0.8193
   99MOL0     H13616  10.255   5.882   7.859  0.4857  0.3941  0.7331
   99MOL0     H13617  10.150   5.767   7.936  1.0141 -0.7790  1.0992
   99MOL0     H13618   9.958   5.921   7.932 -1.8565  3.6093  0.0119
   99MOL0     H13619  10.048   6.062   7.894 -0.2753 -0.4495 -0.3250
   99MOL0     H13620   9.935   5.790   7.558  0.5411 -0.5612  1.3565
   99MOL0     H13621   9.591   5.761   7.461 -0.4988  0.7791 -0.7499
   99MOL0     H13622   9.747   5.688   7.439  1.7846  0.8770  1.5968
   99MOL0     H13623   9.689   5.807   7.316 -0.9997 -0.8403 -0.2593
   99MOL0     H13624   9.324   5.833   7.363 -0.7966 -0.5830 -0.6431
   99MOL0     H13625   9.088   5.858   7.273 -0.7378  1.3186  1.7539
   99MOL0     H13626   9.015   6.270   7.129  1.2505  1.8026 -1.7931
   99MOL0     H13627   9.030   6.204   6.959 -2.2682 -1.1113 -1.0314
   99MOL0     H13628   8.805   6.309   6.995  0.6774 -1.1266 -3.1365
   99MOL0     H13629   8.800   6.142   6.958 -0.9520 -0.1851  0.6943
   99MOL0     H13630   8.778   6.277   7.231 -0.6096 -0.5070  0.8846
   99MOL0     H13631   8.768   6.102   7.220 -0.3075  0.5797 -1.6656
   99MOL0     H13632   8.574   6.217   7.029 -1.7039  3.0396  0.7161
   99MOL0     H13633   8.544   6.277   7.192  1.7431  0.0323  0.3134
   99MOL0     H13634   8.565   5.999   7.109 -2.9880 -1.7166 -0.3976
   99MOL0     H13635   8.555   6.044   7.279 -0.1318 -3.3762 -1.3175
   99MOL0     H13636   8.347   6.092   7.070  1.9568 -1.4034 -0.8289
   99MOL0     H13637   8.329   6.158   7.230 -2.6219  1.4645 -2.9694
   99MOL0     H13638   8.344   5.940   7.336 -0.3869 -0.7685  0.9083
   99MOL0     H13639   8.363   5.854   7.186 -0.1004 -1.9196  2.4690
   99MOL0     H13640   8.149   5.846   7.254  0.3517 -0.8214 -1.2759
   99MOL0     H13641   8.141   5.941   7.111 -1.8627 -1.5747  0.4186
   99MOL0     H13642   9.237   6.238   7.109  0.6295  2.1739  4.4063
   99MOL0     H13643   9.440   6.217   7.212  2.3472 -0.4941  1.4798
   99MOL0     H13644   9.695   6.214   7.620 -0.4984  0.1008 -0.3097
   99MOL0     H13645   9.893   6.159   7.755  1.3750  0.3690 -2.8892
   99MOL0     H13646   9.906   5.839   7.045  0.9962 -0.0276 -0.3063
   99MOL0     H13647   9.725   5.718   6.908  0.8253 -3.4315  2.6076
   99MOL0     H13648   9.678   5.829   6.320 -0.8132 -1.0850 -0.9660
   99MOL0     H13649   9.491   5.834   6.189  2.0550 -3.2969 -0.4096
   99MOL0     H13650   9.267   5.816   6.087  0.6982  1.5324  1.3845
   99MOL0     H13651   9.349   5.660   6.071  0.6079  0.6105  0.5263
   99MOL0     H13652   9.049   5.676   6.080 -1.7903 -1.9190 -2.4019
   99MOL0     H13653   9.160   5.543   6.030 -2.5016  0.0366 -3.9889
   99MOL0     H13654   9.170   5.808   5.886 -1.5048  0.0357  0.1181
   99MOL0     H13655   9.238   5.651   5.848 -0.0782 -2.7809  3.1592
   99MOL0     H13656   8.999   5.559   5.804 -1.7463  0.4070  1.2031
   99MOL0     H13657   9.034   5.711   5.725  1.0785 -0.7261 -1.6459
   99MOL0     H13658   8.704   5.838   5.885 -0.8171 -0.2458 -2.6274
   99MOL0     H13659   9.286   5.577   6.470 -1.7636  1.3886 -3.1316
   99MOL0     H13660   9.564   5.437   6.613 -0.0202 -1.1340 -1.7546
   99MOL0     H13661   9.514   5.577   6.726 -0.6061 -0.0265 -0.9206
   99MOL0     H13662   9.400   5.462   6.645  1.1330 -0.2857  0.4870
  100MOL0     O13663   2.792   9.313   9.572 -0.2697 -0.1804  0.3597
  100MOL0     C13664   2.702   9.305   9.491 -0.6552  0.1662 -0.4091
  100MOL0     O13665   2.574   9.363   9.504  0.4000 -0.1346  0.3162
  100MOL0     C13666   2.536   9.455   9.603 -0.2350 -0.6215 -0.1899
  100MOL0     C13667   2.446   9.558   9.569 -0.0757 -0.4800  1.1815
  100MOL0     C13668   2.402   9.644   9.671 -0.2041  0.5989  0.7215
  100MOL0     C13669   2.435   9.625   9.804  0.1587  0.1863  0.2821
  100MOL0     O13670   2.377   9.715   9.897 -0.4131  0.0798  0.6880
  100MOL0     C13671   2.392   9.700  10.040  0.1647 -0.8297  0.7867
  100MOL0     C13672   2.299   9.795  10.112 -0.3784 -0.1477 -0.3977
  100MOL0     C13673   2.163   9.754  10.110 -0.0174 -0.7497 -0.2078
  100MOL0     C13674   2.128   9.629  10.198  1.1157 -0.1829 -0.7047
  100MOL0     C13675   1.975   9.618  10.234 -0.9916  0.2064 -0.7200
  100MOL0     C13676   1.881   9.647  10.127  1.0231 -0.3486 -0.5265
  100MOL0     C13677   1.738   9.605  10.169 -0.6130 -0.8422  0.3125
  100MOL0     C13678   1.622   9.643  10.064 -0.7568 -1.1609 -0.4024
  100MOL0     N13679   1.487   9.596  10.098  0.0617  0.1291 -0.1181
  100MOL0     C13680   1.434   9.469  10.061 -0.4131  0.4258 -0.5738
  100MOL0     C13681   1.306   9.472  10.109 -0.8405  0.1907 -0.3195
  100MOL0     C13682   1.216   9.350  10.121  0.4911 -0.0862  0.5084
  100MOL0     C13683   1.311   9.237  10.145  0.3623 -0.0487 -0.6849
  100MOL0     C13684   1.227   9.111  10.205 -1.3908  0.6898  0.0823
  100MOL0     C13685   1.118   9.056  10.109  0.5229 -0.6018  0.3211
  100MOL0     O13686   1.156   9.078   9.978  0.0373  1.0844  0.2566
  100MOL0     C13687   1.072   9.029   9.890  0.4117 -0.3628  0.7051
  100MOL0     C13688   1.086   8.902   9.857  1.3867  0.7870  1.1579
  100MOL0     C13689   1.021   8.834   9.746  0.2807 -0.7855 -0.3503
  100MOL0     C13690   1.052   8.691   9.722  0.5531  0.8303  0.5825
  100MOL0     C13691   0.926   8.915   9.666  0.6874 -0.3235 -0.2859
  100MOL0     C13692   0.851   8.860   9.543  0.0562 -0.9133 -0.1618
  100MOL0     O13693   0.789   8.953   9.456 -0.0356  0.0444  0.1902
  100MOL0     C13694   0.695   8.904   9.365 -0.3058 -0.7338  0.4511
  100MOL0     C13695   0.694   8.948   9.235  0.5907  0.7179 -1.1979
  100MOL0     C13696   0.603   8.898   9.145 -0.0429  0.5336 -0.5309
  100MOL0     C13697   0.526   8.782   9.174 -0.5699 -0.2687 -0.4228
  100MOL0     O13698   0.447   8.733   9.074 -1.2696  0.0869 -0.3777
  100MOL0     C13699   0.357   8.623   9.110  0.3608  0.0720  0.6414
  100MOL0     C13700   0.318   8.537   8.980 -1.1557 -1.2167 -0.2223
  100MOL0     C13701   0.185   8.477   9.005 -0.1392  0.0969 -0.5238
  100MOL0     C13702   0.141   8.417   8.863  0.1116  0.5176 -0.6243
  100MOL0     C13703   0.019   8.332   8.860 -0.7349 -0.5217 -0.3170
  100MOL0     C13704   0.043   8.194   8.935 -0.4456 -0.3666  0.5784
  100MOL0     C13705  -0.089   8.113   8.918 -1.2476 -1.4370  0.2960
  100MOL0     C13706  -0.098   7.972   8.957 -0.2084  0.1052 -0.1911
  100MOL0    Cl13707  -0.261   7.898   8.899  0.3363 -0.1549 -0.3079
  100MOL0     C13708   0.523   8.744   9.311  0.7094 -0.1844  1.4557
  100MOL0     C13709   0.602   8.805   9.404  0.2435 -0.2360 -1.2707
  100MOL0     O13710   0.857   8.740   9.523 -0.2941  0.6780  0.0627
  100MOL0     C13711   0.903   9.054   9.709 -0.4669  0.5860  0.3592
  100MOL0     C13712   0.983   9.110   9.818  0.5026 -0.4748  0.0230
  100MOL0     N13713   1.274   9.598  10.144 -0.6447  0.9368 -0.7464
  100MOL0     N13714   1.383   9.672  10.143 -0.1391 -0.0455 -0.0928
  100MOL0     C13715   2.524   9.526   9.837 -0.6170 -0.2207  0.2670
  100MOL0     C13716   2.578   9.442   9.735  0.1986  0.0156 -0.6862
  100MOL0     C13717   2.719   9.234   9.367  0.0834  0.8777 -0.2303
  100MOL0     C13718   2.610   9.175   9.301  0.1678  0.8742 -0.7720
  100MOL0     C13719   2.615   9.097   9.192 -0.4237 -0.2716  0.4221
  100MOL0     C13720   2.742   9.076   9.131  0.7752  0.5794 -0.3638
  100MOL0     O13721   2.730   8.999   9.024  0.4966  0.3319  0.1796
  100MOL0     C13722   2.826   9.026   8.918  0.3123  0.3673  0.1325
  100MOL0     C13723   2.929   8.914   8.903 -0.2505 -0.2066  0.1216
  100MOL0     C13724   2.891   8.799   8.805  0.5203 -0.3468  0.0091
  100MOL0     C13725   2.788   8.707   8.874  0.3138 -0.3658 -0.1325
  100MOL0     C13726   2.783   8.591   8.789 -0.3492 -0.3399 -0.4370
  100MOL0     C13727   2.777   8.497   8.711  0.2992 -0.0167 -0.2570
  100MOL0     C13728   2.856   9.108   9.203  0.2447 -0.1448  0.6354
  100MOL0     C13729   2.840   9.204   9.299  0.5688  0.4230 -0.7296
  100MOL0     C13730   2.973   9.244   9.362  0.5010 -0.4113 -0.3154
  100MOL0     H13731   2.400   9.565   9.471  0.4719 -0.9887  0.8804
  100MOL0     H13732   2.330   9.718   9.638 -0.9782 -1.2993 -2.1838
  100MOL0     H13733   2.492   9.739  10.064 -0.0592  4.4223 -4.3864
  100MOL0     H13734   2.380   9.594  10.062 -3.2058 -0.8101 -0.3715
  100MOL0     H13735   2.328   9.817  10.215  1.2884  1.7360 -1.2022
  100MOL0     H13736   2.316   9.887  10.056  3.7234 -0.2167  0.3855
  100MOL0     H13737   2.101   9.841  10.135  2.8696  1.1652  0.8208
  100MOL0     H13738   2.131   9.748  10.005  3.2607 -2.6731 -1.2332
  100MOL0     H13739   2.147   9.534  10.147 -2.8011 -0.7659 -1.3988
  100MOL0     H13740   2.183   9.628  10.292 -1.3463  1.8384  0.8965
  100MOL0     H13741   1.961   9.696  10.309  1.4657  1.7630 -1.7658
  100MOL0     H13742   1.962   9.524  10.288  0.9010  0.9831  1.2738
  100MOL0     H13743   1.890   9.752  10.099 -3.3188  0.4296  0.3366
  100MOL0     H13744   1.909   9.581  10.045  2.3373  0.4952 -0.7957
  100MOL0     H13745   1.712   9.651  10.264  0.1971 -2.9763  1.6319
  100MOL0     H13746   1.732   9.498  10.191 -1.1596 -0.7070  0.8299
  100MOL0     H13747   1.607   9.751  10.064 -4.1181 -1.4957 -1.1780
  100MOL0     H13748   1.648   9.601   9.967 -2.0074  0.8603 -1.6663
  100MOL0     H13749   1.495   9.384  10.034 -2.7384 -1.0597 -1.4796
  100MOL0     H13750   1.158   9.322  10.032  2.7312 -1.0055 -0.7552
  100MOL0     H13751   1.155   9.372  10.209  0.7308  2.2153  0.1856
  100MOL0     H13752   1.362   9.191  10.060 -1.4635 -1.2848 -1.1869
  100MOL0     H13753   1.390   9.269  10.213 -1.7249 -0.2921  1.9964
  100MOL0     H13754   1.297   9.028  10.214 -2.0429  0.0732 -0.4859
  100MOL0     H13755   1.195   9.141  10.305  1.1214  1.2103  0.8142
  100MOL0     H13756   1.084   8.955  10.134 -1.3880  0.2638  1.4038
  100MOL0     H13757   1.026   9.115  10.118 -1.1005 -2.7190 -1.3540
  100MOL0     H13758   1.140   8.838   9.927  0.9448  0.0971  0.8837
  100MOL0     H13759   0.967   8.628   9.749  2.5552 -2.6694 -0.6820
  100MOL0     H13760   1.133   8.643   9.776  1.0039  1.5042  0.5186
  100MOL0     H13761   1.070   8.679   9.614  2.4913  3.7148  0.4802
  100MOL0     H13762   0.758   9.028   9.200 -2.4950  2.3451 -3.5949
  100MOL0     H13763   0.597   8.927   9.041  0.7860  2.3623 -0.0986
  100MOL0     H13764   0.404   8.556   9.182  1.0643  2.1118  2.2011
  100MOL0     H13765   0.271   8.654   9.169 -0.5778 -1.6683  0.2520
  100MOL0     H13766   0.304   8.604   8.895  0.1870  1.7107  1.6955
  100MOL0     H13767   0.393   8.462   8.954  0.9057 -0.2376  2.4203
  100MOL0     H13768   0.112   8.553   9.033 -0.1497 -0.0761 -0.0696
  100MOL0     H13769   0.189   8.405   9.088  1.5889  1.4578  0.6661
  100MOL0     H13770   0.224   8.353   8.831 -0.2555 -1.6803  2.3786
  100MOL0     H13771   0.120   8.498   8.792 -3.1874 -0.3757 -0.8690
  100MOL0     H13772  -0.057   8.387   8.916  0.3965  0.5011  0.2766
  100MOL0     H13773  -0.012   8.305   8.759 -2.1431  3.9659 -1.3075
  100MOL0     H13774   0.044   8.216   9.042 -0.9090 -2.0874  0.9614
  100MOL0     H13775   0.134   8.143   8.903  1.3681  1.4934  2.4476
  100MOL0     H13776  -0.117   8.118   8.813 -0.5227  0.1624  0.1527
  100MOL0     H13777  -0.172   8.162   8.971  0.8743 -0.3522  2.8469
  100MOL0     H13778  -0.088   7.967   9.065 -0.6109 -3.5238 -0.2204
  100MOL0     H13779  -0.014   7.915   8.917 -0.2915  0.8671 -1.5260
  100MOL0     H13780   0.445   8.673   9.338 -0.8084  0.4044 -1.0410
  100MOL0     H13781   0.611   8.771   9.507  4.5509 -2.8004 -2.2326
  100MOL0     H13782   0.834   9.116   9.654 -1.2178 -0.9448 -0.5087
  100MOL0     H13783   0.966   9.213   9.847 -4.4419 -1.6677  2.4659
  100MOL0     H13784   2.545   9.503   9.941  1.3561 -1.1795 -0.2879
  100MOL0     H13785   2.640   9.361   9.771 -1.1958 -0.2997  1.1238
  100MOL0     H13786   2.510   9.191   9.339  0.5088  2.4408 -0.4941
  100MOL0     H13787   2.523   9.053   9.156  0.0828 -2.4945  1.6056
  100MOL0     H13788   2.772   9.039   8.824 -0.9113 -1.1069  0.5709
  100MOL0     H13789   2.867   9.125   8.937 -2.7855  1.7863  0.0736
  100MOL0     H13790   2.961   8.872   8.998  3.8836 -0.4580 -1.2087
  100MOL0     H13791   3.012   8.967   8.856  1.2207 -2.5764 -0.1127
  100MOL0     H13792   2.861   8.837   8.707  4.9267  0.8877 -1.0843
  100MOL0     H13793   2.976   8.735   8.781 -0.0622 -0.6291 -1.4188
  100MOL0     H13794   2.689   8.753   8.880  0.5764  0.4750 -1.6628
  100MOL0     H13795   2.829   8.679   8.972  0.7596 -2.5089 -0.8675
  100MOL0     H13796   2.759   8.422   8.637 -0.7161  2.4967 -2.7523
  100MOL0     H13797   2.956   9.085   9.167  0.3879  0.2779  0.7661
  100MOL0     H13798   2.983   9.186   9.454 -0.6166  0.0412  0.1128
  100MOL0     H13799   3.057   9.216   9.298  1.5901  1.3909  0.2478
  100MOL0     H13800   2.982   9.352   9.381  3.8368 -0.3158 -1.6959
  101MOL0     O13801   0.567   2.627   7.098  0.1288  0.0679  0.0121
  101MOL0     C13802   0.679   2.576   7.079  0.0970 -0.2824 -0.8854
  101MOL0     O13803   0.781   2.580   7.174  0.4955 -0.5812  0.9026
  101MOL0     C13804   0.743   2.633   7.291  0.0061 -0.5058 -0.0080
  101MOL0     C13805   0.753   2.772   7.310 -0.0118  0.1393 -1.3360
  101MOL0     C13806   0.710   2.829   7.435 -0.9757 -0.2356  0.3893
  101MOL0     C13807   0.683   2.756   7.543 -0.3156  0.1689 -0.5676
  101MOL0     O13808   0.643   2.816   7.657  0.1005  0.1290 -0.5240
  101MOL0     C13809   0.549   2.919   7.655 -0.6009  0.5689  0.4144
  101MOL0     C13810   0.611   3.038   7.728  0.8990  0.3973  0.1911
  101MOL0     C13811   0.504   3.138   7.750 -0.2658 -0.2697  0.3855
  101MOL0     C13812   0.546   3.238   7.844  0.0948 -0.0132  0.8371
  101MOL0     C13813   0.440   3.335   7.907 -0.8697 -0.3310 -0.4728
  101MOL0     C13814   0.358   3.395   7.785 -0.5014 -0.1330  0.6681
  101MOL0     C13815   0.256   3.497   7.844  0.7617  1.3759  0.5597
  101MOL0     C13816   0.321   3.636   7.857  1.3472  0.8128 -0.0755
  101MOL0     N13817   0.221   3.728   7.915 -0.1923 -0.3477 -0.7948
  101MOL0     C13818   0.187   3.856   7.864 -0.3835  0.3094 -1.8276
  101MOL0     C13819   0.071   3.899   7.917  0.5865  1.3344 -1.1207
  101MOL0     C13820   0.001   4.026   7.884  0.3366  0.0624  0.0005
  101MOL0     C13821   0.087   4.147   7.879 -0.2090 -0.4798  0.1066
  101MOL0     C13822   0.038   4.263   7.803  0.0318  0.9617  0.8477
  101MOL0     C13823   0.006   4.249   7.651  0.6114  0.2794 -0.1741
  101MOL0     O13824  -0.014   4.382   7.604  0.1823 -0.3013 -0.0589
  101MOL0     C13825  -0.038   4.398   7.472 -0.4117 -0.7267  0.3518
  101MOL0     C13826  -0.007   4.521   7.411  0.7118  0.0522 -0.1036
  101MOL0     C13827  -0.030   4.547   7.275  0.8607 -0.1534  0.2657
  101MOL0     C13828   0.027   4.679   7.221  0.3591  0.1703  0.1383
  101MOL0     C13829  -0.109   4.461   7.202 -0.7572  0.3853  0.3694
  101MOL0     C13830  -0.160   4.479   7.061 -0.5549 -0.0939 -0.2655
  101MOL0     O13831  -0.246   4.376   7.010 -0.5218 -0.5495  0.7329
  101MOL0     C13832  -0.329   4.392   6.909  0.0060 -0.5769  0.7462
  101MOL0     C13833  -0.331   4.315   6.788 -0.7539 -0.0803 -0.0810
  101MOL0     C13834  -0.417   4.343   6.678  0.6233  0.5410 -0.1631
  101MOL0     C13835  -0.524   4.437   6.697 -0.5037 -0.2703  0.0335
  101MOL0     O13836  -0.611   4.476   6.589 -0.0307  0.2209 -0.1006
  101MOL0     C13837  -0.598   4.401   6.461  0.2183  0.5389  0.0819
  101MOL0     C13838  -0.709   4.426   6.363 -0.1908  0.4084  0.2667
  101MOL0     C13839  -0.678   4.318   6.251 -0.0759 -0.5130  0.3464
  101MOL0     C13840  -0.769   4.341   6.136 -0.9723  0.3626  0.3654
  101MOL0     C13841  -0.744   4.464   6.046  0.3292  0.5252 -0.1950
  101MOL0     C13842  -0.829   4.461   5.924 -0.7246 -1.2328  0.1382
  101MOL0     C13843  -0.764   4.561   5.818 -0.4294  0.1110 -0.8348
  101MOL0     C13844  -0.852   4.547   5.684  0.0941 -0.1979 -0.0938
  101MOL0    Cl13845  -1.009   4.626   5.721  0.2349 -0.0617  0.0928
  101MOL0     C13846  -0.542   4.498   6.818 -0.7381 -0.6304 -0.0134
  101MOL0     C13847  -0.445   4.477   6.921  0.3176 -0.4817 -0.3098
  101MOL0     O13848  -0.134   4.583   7.000  0.2190  0.0811 -0.6370
  101MOL0     C13849  -0.159   4.346   7.268 -0.6619  0.6507 -0.0927
  101MOL0     C13850  -0.111   4.311   7.390 -1.1061  0.9961  0.0545
  101MOL0     N13851   0.033   3.790   8.011  0.6066 -0.5379 -0.9641
  101MOL0     N13852   0.122   3.692   8.000  0.5886  0.4826 -0.4210
  101MOL0     C13853   0.697   2.621   7.533 -0.1993 -0.0064  0.4556
  101MOL0     C13854   0.713   2.555   7.404 -0.7050 -0.2803 -0.4859
  101MOL0     C13855   0.707   2.514   6.935  0.8409 -0.5199  0.6133
  101MOL0     C13856   0.842   2.482   6.920  0.0458  1.0270  0.0250
  101MOL0     C13857   0.899   2.432   6.799 -0.6756  0.1791 -0.9379
  101MOL0     C13858   0.821   2.439   6.678  0.0882 -0.6267 -0.5570
  101MOL0     O13859   0.876   2.399   6.556  0.3908  0.2176  0.0004
  101MOL0     C13860   0.986   2.478   6.506 -0.3416 -0.0353  0.5190
  101MOL0     C13861   0.939   2.575   6.410 -0.3076 -0.3437  0.6096
  101MOL0     C13862   0.856   2.531   6.290 -0.5496 -0.3706  0.4349
  101MOL0     C13863   0.843   2.641   6.179  0.5988  0.7078  0.1694
  101MOL0     C13864   0.783   2.762   6.214  0.4667 -0.3189 -0.7037
  101MOL0     C13865   0.730   2.868   6.225  0.1802  0.7755 -0.3437
  101MOL0     C13866   0.687   2.494   6.691 -0.8379  0.3005  0.0567
  101MOL0     C13867   0.633   2.529   6.817  0.6556 -0.5974 -0.3309
  101MOL0     C13868   0.487   2.582   6.822  0.0199 -0.4862  0.1093
  101MOL0     H13869   0.773   2.831   7.221 -0.4685  0.5677 -1.1581
  101MOL0     H13870   0.705   2.937   7.434 -0.8226 -0.2283  0.3002
  101MOL0     H13871   0.460   2.876   7.702 -0.3119 -1.7254 -0.9575
  101MOL0     H13872   0.524   2.955   7.555 -3.1834 -2.7246 -0.3141
  101MOL0     H13873   0.644   3.003   7.826 -1.6770  0.5934  1.2246
  101MOL0     H13874   0.699   3.077   7.677  0.8500 -0.1472 -0.3316
  101MOL0     H13875   0.477   3.174   7.650  0.0821 -3.4664 -0.9928
  101MOL0     H13876   0.417   3.085   7.790  1.6479 -3.1061  1.1205
  101MOL0     H13877   0.604   3.195   7.926 -0.0362 -0.1988  0.8318
  101MOL0     H13878   0.609   3.304   7.783  1.2132  1.2256  3.2194
  101MOL0     H13879   0.488   3.418   7.961 -5.0186  2.3606 -0.5108
  101MOL0     H13880   0.378   3.269   7.968  1.0809 -1.1022  0.7692
  101MOL0     H13881   0.416   3.437   7.702 -1.6775  3.2178  1.3830
  101MOL0     H13882   0.309   3.308   7.741  1.0503  0.8030 -3.3522
  101MOL0     H13883   0.214   3.467   7.940  1.7495  4.1495  1.9374
  101MOL0     H13884   0.175   3.499   7.770  1.2383  2.1269  0.0403
  101MOL0     H13885   0.404   3.629   7.928 -1.1677 -3.6294  2.9058
  101MOL0     H13886   0.362   3.671   7.761  2.6029  1.1471  0.5583
  101MOL0     H13887   0.254   3.916   7.802  1.0705  0.9136  0.2020
  101MOL0     H13888  -0.065   4.041   7.970  0.7539  0.6814  0.2188
  101MOL0     H13889  -0.060   4.035   7.794  0.2801 -2.3442 -0.2580
  101MOL0     H13890   0.117   4.172   7.981 -3.2353 -2.8564  1.7446
  101MOL0     H13891   0.183   4.122   7.832 -0.3425 -0.3453 -0.2378
  101MOL0     H13892  -0.059   4.288   7.846 -0.2493  1.7022 -0.2128
  101MOL0     H13893   0.093   4.354   7.828  2.3791  0.1290 -0.9765
  101MOL0     H13894   0.078   4.192   7.591  0.8375 -0.3259  0.6527
  101MOL0     H13895  -0.089   4.195   7.648  0.7162 -0.1498  2.2387
  101MOL0     H13896   0.052   4.594   7.465  1.7099 -0.4641 -0.4817
  101MOL0     H13897   0.077   4.746   7.292 -0.2228  0.9492 -0.1727
  101MOL0     H13898  -0.044   4.735   7.160  1.0002  0.5465 -0.2711
  101MOL0     H13899   0.096   4.642   7.145  0.5616  0.2745  0.2694
  101MOL0     H13900  -0.257   4.235   6.791 -1.4472 -0.7533 -0.5226
  101MOL0     H13901  -0.387   4.311   6.578  1.1846  0.1048  0.1341
  101MOL0     H13902  -0.500   4.425   6.418  0.7529  0.3474  1.1675
  101MOL0     H13903  -0.598   4.295   6.488  1.5086  0.5050  0.0128
  101MOL0     H13904  -0.799   4.402   6.420 -0.5393 -2.5269 -1.2782
  101MOL0     H13905  -0.701   4.527   6.323 -1.3388  0.2320 -0.4367
  101MOL0     H13906  -0.697   4.217   6.288  2.5830  0.4008  5.0764
  101MOL0     H13907  -0.576   4.318   6.209  1.4681 -2.2303  3.7431
  101MOL0     H13908  -0.873   4.339   6.170 -0.6113  1.4890  1.6449
  101MOL0     H13909  -0.756   4.251   6.076 -0.1751  0.4244  0.4293
  101MOL0     H13910  -0.749   4.561   6.096  1.3084  1.8339 -2.4805
  101MOL0     H13911  -0.639   4.465   6.015  0.2590 -0.3867 -0.4911
  101MOL0     H13912  -0.929   4.483   5.962 -1.5251 -2.8631 -0.9248
  101MOL0     H13913  -0.838   4.363   5.876 -1.6121 -1.7454  1.3176
  101MOL0     H13914  -0.661   4.537   5.791 -0.6678  0.1093 -1.7735
  101MOL0     H13915  -0.761   4.659   5.866  0.2106 -2.0308  4.0805
  101MOL0     H13916  -0.845   4.444   5.649  4.0607  0.8294 -3.0601
  101MOL0     H13917  -0.812   4.619   5.612 -2.0666 -0.2499 -1.4083
  101MOL0     H13918  -0.624   4.569   6.826 -1.6381 -1.2649 -2.6855
  101MOL0     H13919  -0.462   4.530   7.014  1.3668 -2.8425  1.3269
  101MOL0     H13920  -0.225   4.272   7.224  2.4296 -1.0334 -2.3526
  101MOL0     H13921  -0.154   4.218   7.424 -2.7987  1.2804 -1.1056
  101MOL0     H13922   0.687   2.555   7.619  3.0436  0.5923  1.3927
  101MOL0     H13923   0.714   2.446   7.410 -3.6207 -0.3375  0.9683
  101MOL0     H13924   0.907   2.504   7.004 -1.6850  2.9293  0.9551
  101MOL0     H13925   1.003   2.401   6.804 -0.6955  0.1274 -0.8590
  101MOL0     H13926   1.025   2.533   6.592  0.4131 -0.3829  0.4124
  101MOL0     H13927   1.067   2.421   6.459 -0.8872  1.5471 -2.5677
  101MOL0     H13928   1.020   2.637   6.371 -2.7104  1.8727 -1.2951
  101MOL0     H13929   0.871   2.649   6.455 -0.3954  2.5808 -3.7276
  101MOL0     H13930   0.894   2.438   6.247 -0.0136  0.9765 -2.2110
  101MOL0     H13931   0.757   2.508   6.329 -1.3544  0.0905 -1.2325
  101MOL0     H13932   0.772   2.603   6.104  1.3070  1.8436 -1.1217
  101MOL0     H13933   0.942   2.667   6.141 -0.2690  2.9209 -0.7466
  101MOL0     H13934   0.683   2.963   6.239  0.2367  0.4973  2.4806
  101MOL0     H13935   0.641   2.516   6.596  1.5038  3.1908 -0.5583
  101MOL0     H13936   0.429   2.566   6.913  1.3811  1.0914  1.3176
  101MOL0     H13937   0.501   2.690   6.828 -0.1298 -0.5191  1.2612
  101MOL0     H13938   0.428   2.559   6.733  1.6479  0.4619 -1.2703
  102MOL0     O13939  10.625   1.382   7.652  0.1113  0.6063  0.4706
  102MOL0     C13940  10.650   1.275   7.592 -0.2872  0.5455 -0.2225
  102MOL0     O13941  10.770   1.235   7.539  0.2808  0.0461 -0.2377
  102MOL0     C13942  10.873   1.321   7.554 -0.3170 -0.6974  0.5739
  102MOL0     C13943  10.933   1.378   7.441 -0.6531  1.4989  0.4852
  102MOL0     C13944  11.047   1.460   7.451  0.2058 -0.4460 -0.6999
  102MOL0     C13945  11.120   1.478   7.569  0.4410 -0.0307 -0.2288
  102MOL0     O13946  11.240   1.552   7.567 -0.3547 -0.7168 -0.2148
  102MOL0     C13947  11.214   1.691   7.513  0.3082 -0.1956  0.3139
  102MOL0     C13948  11.321   1.793   7.563 -0.0367 -0.5189 -0.0331
  102MOL0     C13949  11.452   1.813   7.490 -0.1190 -0.4542  0.1007
  102MOL0     C13950  11.463   1.781   7.350  0.0908  0.6136  0.6800
  102MOL0     C13951  11.363   1.866   7.264 -0.5582  0.3856 -0.6246
  102MOL0     C13952  11.439   1.971   7.183 -0.7066 -0.8036  0.1669
  102MOL0     C13953  11.362   2.102   7.192  0.5704  0.0463 -0.0164
  102MOL0     C13954  11.365   2.171   7.325  0.8187 -0.2364  0.0232
  102MOL0     N13955  11.238   2.239   7.345 -0.1703 -0.2036 -0.6072
  102MOL0     C13956  11.110   2.187   7.350 -0.3235 -0.3474  0.5488
  102MOL0     C13957  11.029   2.301   7.344 -0.1479  0.6594  0.1774
  102MOL0     C13958  10.881   2.296   7.359  0.5903 -0.0051 -0.3899
  102MOL0     C13959  10.823   2.209   7.249 -0.2264 -0.2731  0.6037
  102MOL0     C13960  10.669   2.241   7.254  0.0570 -1.1083  0.6309
  102MOL0     C13961  10.583   2.179   7.146 -0.4074 -0.9872 -0.0805
  102MOL0     O13962  10.458   2.258   7.132 -0.0569 -0.1509 -0.5741
  102MOL0     C13963  10.394   2.258   7.009  0.7396 -0.5951  0.1141
  102MOL0     C13964  10.401   2.156   6.916 -0.3597 -0.4154  0.3502
  102MOL0     C13965  10.334   2.160   6.800 -0.6931 -0.5144  1.4185
  102MOL0     C13966  10.374   2.055   6.700  0.3831 -0.3606 -0.3027
  102MOL0     C13967  10.239   2.262   6.774 -0.0585  0.2934  0.8172
  102MOL0     C13968  10.164   2.269   6.637 -0.6072  0.3050 -0.1308
  102MOL0     O13969  10.134   2.158   6.570  0.1993  0.1258 -0.0025
  102MOL0     C13970  10.075   2.176   6.446 -1.7346 -0.0630 -0.4392
  102MOL0     C13971  10.121   2.087   6.346 -0.1243 -0.0264  0.2359
  102MOL0     C13972  10.063   2.092   6.217 -0.6570  0.2569  0.1513
  102MOL0     C13973   9.956   2.170   6.187 -0.4687  0.6273  0.4021
  102MOL0     O13974   9.901   2.169   6.061 -0.5404 -0.1198  0.2537
  102MOL0     C13975   9.970   2.250   5.961  0.7704 -0.2203 -0.3028
  102MOL0     C13976   9.961   2.167   5.837 -0.3125  1.1051 -0.9507
  102MOL0     C13977  10.026   2.228   5.721 -0.2426 -0.6332  0.2823
  102MOL0     C13978  10.050   2.118   5.614  0.8065  0.7310 -0.3897
  102MOL0     C13979  10.097   2.174   5.485 -0.2581 -0.4041  0.3856
  102MOL0     C13980  10.156   2.076   5.388 -0.4380  0.3361  0.1873
  102MOL0     C13981  10.047   1.980   5.333 -0.4515 -0.8331  0.0755
  102MOL0     C13982  10.105   1.870   5.242  0.0647  0.6575 -0.1679
  102MOL0    Cl13983  10.190   1.927   5.099  0.3827  0.2453  0.0347
  102MOL0     C13984   9.911   2.256   6.283 -0.0166  0.0835  0.5143
  102MOL0     C13985   9.962   2.257   6.413  0.8299 -0.4089 -0.4777
  102MOL0     O13986  10.119   2.384   6.620 -0.2809  1.0655  0.7388
  102MOL0     C13987  10.228   2.368   6.861 -0.0587  0.2753  0.0915
  102MOL0     C13988  10.305   2.367   6.980  0.4242 -0.5014  0.0674
  102MOL0     N13989  11.111   2.406   7.348 -0.2341  0.4667  0.2923
  102MOL0     N13990  11.238   2.373   7.343  0.1157 -0.1325  0.5026
  102MOL0     C13991  11.056   1.419   7.682  0.0747  0.7200 -0.2051
  102MOL0     C13992  10.935   1.343   7.678 -0.0513 -0.3148  0.5978
  102MOL0     C13993  10.537   1.176   7.568 -0.0727 -0.2903  0.0973
  102MOL0     C13994  10.414   1.188   7.647 -0.0980 -0.3962  0.7799
  102MOL0     C13995  10.306   1.096   7.625 -0.4720 -0.2626  0.0847
  102MOL0     C13996  10.316   0.992   7.530 -0.2458 -0.8965 -0.1239
  102MOL0     O13997  10.216   0.911   7.490 -0.2004 -0.2201  0.2015
  102MOL0     C13998  10.119   0.872   7.588  0.2679 -0.0223 -0.1312
  102MOL0     C13999  10.180   0.790   7.706  0.1292  0.9498 -0.5935
  102MOL0     C14000  10.085   0.689   7.778 -0.1650 -0.5761  0.5928
  102MOL0     C14001  10.093   0.555   7.708  0.5992  0.0061 -0.1394
  102MOL0     C14002  10.224   0.495   7.745  0.9218  0.6258 -0.4039
  102MOL0     C14003  10.320   0.430   7.779 -0.5612  0.6943  0.6912
  102MOL0     C14004  10.434   0.983   7.463  0.2201  1.1420  0.3412
  102MOL0     C14005  10.533   1.081   7.463 -1.0638 -0.3225 -0.1038
  102MOL0     C14006  10.643   1.083   7.353  0.9497  0.6766 -0.1545
  102MOL0     H14007  10.903   1.341   7.343  1.4096  3.6321 -1.0768
  102MOL0     H14008  11.077   1.510   7.360 -1.9112  0.7668 -0.7883
  102MOL0     H14009  11.112   1.726   7.533 -0.2468 -0.5406 -1.7157
  102MOL0     H14010  11.222   1.690   7.404 -1.0268  0.3547  0.1959
  102MOL0     H14011  11.261   1.883   7.547 -2.0209 -1.7160  0.2186
  102MOL0     H14012  11.342   1.785   7.670  1.0466 -0.8795 -0.2679
  102MOL0     H14013  11.477   1.919   7.500 -1.8824  0.0112  0.0391
  102MOL0     H14014  11.523   1.754   7.549 -1.1059 -0.1021  1.7136
  102MOL0     H14015  11.563   1.811   7.317  1.4846 -0.3798  3.6032
  102MOL0     H14016  11.449   1.675   7.328  2.7946  0.4150 -0.5090
  102MOL0     H14017  11.279   1.905   7.323  0.5093 -0.2460  1.4003
  102MOL0     H14018  11.318   1.806   7.183 -0.8609  1.2374 -1.1078
  102MOL0     H14019  11.539   1.991   7.224 -1.9261 -0.9675  3.4870
  102MOL0     H14020  11.456   1.932   7.082  3.4374 -1.8265  1.0626
  102MOL0     H14021  11.257   2.085   7.166  0.1603  1.6116  0.5257
  102MOL0     H14022  11.410   2.163   7.116  3.4682 -0.2923  1.4183
  102MOL0     H14023  11.365   2.094   7.403  1.6695  0.2935  0.5646
  102MOL0     H14024  11.456   2.231   7.340  0.2564  0.3255  1.3425
  102MOL0     H14025  11.082   2.082   7.358  2.6112 -1.1496  1.3945
  102MOL0     H14026  10.846   2.400   7.357  0.1916  0.0012  2.4585
  102MOL0     H14027  10.868   2.248   7.457 -2.0524 -2.6123 -1.8670
  102MOL0     H14028  10.865   2.232   7.150 -0.4815  3.6058  1.2319
  102MOL0     H14029  10.849   2.104   7.264  3.7064  0.5310  0.6951
  102MOL0     H14030  10.633   2.210   7.352 -0.0754 -1.4055  0.4886
  102MOL0     H14031  10.665   2.350   7.240 -0.0974 -1.2343 -0.3864
  102MOL0     H14032  10.640   2.175   7.052  3.1351 -0.9005  1.8891
  102MOL0     H14033  10.555   2.076   7.169 -0.6819 -0.8183  0.3425
  102MOL0     H14034  10.468   2.072   6.933  3.1772  1.7288 -1.8086
  102MOL0     H14035  10.381   2.107   6.604 -2.0801  2.1469  0.7223
  102MOL0     H14036  10.289   1.985   6.700 -2.2507  2.5969 -1.6831
  102MOL0     H14037  10.466   2.006   6.733 -0.1065 -0.2007  1.3899
  102MOL0     H14038  10.203   2.019   6.369  2.0018  0.4950 -4.6583
  102MOL0     H14039  10.079   2.023   6.135  0.8850 -0.0727  0.6908
  102MOL0     H14040   9.909   2.341   5.956 -0.5891 -1.0492  0.5262
  102MOL0     H14041  10.072   2.281   5.986  0.9471 -2.3425  2.0834
  102MOL0     H14042   9.996   2.067   5.862  1.6527  2.4588  2.4535
  102MOL0     H14043   9.854   2.151   5.819 -0.1750 -0.3215 -0.5836
  102MOL0     H14044  10.126   2.257   5.753 -0.1557 -0.9359  0.2939
  102MOL0     H14045   9.963   2.310   5.684  0.5505  0.5456  1.4757
  102MOL0     H14046   9.953   2.068   5.603  0.8124  0.3772  0.9671
  102MOL0     H14047  10.119   2.042   5.653 -0.7526 -1.2492 -1.3142
  102MOL0     H14048  10.012   2.222   5.435  0.2753 -0.8091 -0.9565
  102MOL0     H14049  10.176   2.250   5.494  1.3144 -1.8465 -0.5604
  102MOL0     H14050  10.230   2.015   5.440 -0.0922  0.4900 -0.1174
  102MOL0     H14051  10.201   2.129   5.304 -1.4884  2.9531  1.1392
  102MOL0     H14052   9.969   2.032   5.277 -1.0671 -0.5462  1.1727
  102MOL0     H14053  10.002   1.936   5.422 -2.1591  1.4379  0.4277
  102MOL0     H14054  10.017   1.816   5.206 -0.5529  1.2668  0.3994
  102MOL0     H14055  10.164   1.795   5.295 -1.6090 -1.4004 -1.0501
  102MOL0     H14056   9.828   2.322   6.263  0.1975 -0.1169 -1.1313
  102MOL0     H14057   9.908   2.318   6.486  2.8949  0.1810  0.6320
  102MOL0     H14058  10.162   2.451   6.834 -2.0519 -1.9992 -2.6275
  102MOL0     H14059  10.296   2.456   7.042  0.8238  0.2655 -0.9312
  102MOL0     H14060  11.100   1.409   7.781  3.3272  1.4297 -1.4362
  102MOL0     H14061  10.891   1.318   7.774 -0.2342  3.1010  1.5297
  102MOL0     H14062  10.408   1.267   7.721 -0.2922  3.2707 -2.8233
  102MOL0     H14063  10.216   1.104   7.685 -0.6384  1.5666 -0.3521
  102MOL0     H14064  10.040   0.944   7.610  0.1998  0.1912 -1.0186
  102MOL0     H14065  10.071   0.800   7.520 -0.0919  1.0753 -1.0638
  102MOL0     H14066  10.212   0.866   7.778  2.1412  0.5441 -0.9781
  102MOL0     H14067  10.273   0.751   7.663  1.8192  4.1091 -0.0516
  102MOL0     H14068  10.103   0.686   7.886  1.5643 -0.1245  0.3507
  102MOL0     H14069   9.988   0.738   7.780  1.9112  4.0074 -0.1092
  102MOL0     H14070  10.085   0.562   7.599 -0.5255 -0.9733 -0.1365
  102MOL0     H14071  10.007   0.496   7.740  0.1745  0.7139  0.0406
  102MOL0     H14072  10.416   0.387   7.797  0.4363  1.2101 -2.7731
  102MOL0     H14073  10.441   0.903   7.390 -0.1680 -1.8497  3.3455
  102MOL0     H14074  10.674   1.177   7.306  0.1914 -0.3954 -3.0736
  102MOL0     H14075  10.728   1.040   7.407 -0.8571 -0.3868  1.9644
  102MOL0     H14076  10.607   1.032   7.263 -1.1177 -1.0176  1.5271
  103MOL0     O14077  11.058   2.316   8.229  0.2113 -0.5525  0.1445
  103MOL0     C14078  11.099   2.255   8.131  0.1657  0.0354  0.9473
  103MOL0     O14079  11.030   2.159   8.052  0.0976 -0.1200 -0.3496
  103MOL0     C14080  10.895   2.168   8.054  0.2995  0.6537  0.4835
  103MOL0     C14081  10.827   2.280   7.983 -0.5717 -0.1183 -0.2862
  103MOL0     C14082  10.692   2.312   8.007  0.0131 -0.2768 -0.2504
  103MOL0     C14083  10.606   2.224   8.083 -0.4741 -0.6397 -0.6579
  103MOL0     O14084  10.473   2.258   8.090  0.7198 -0.3766 -0.5939
  103MOL0     C14085  10.372   2.150   8.082 -0.2972 -0.6553  1.1304
  103MOL0     C14086  10.357   2.092   7.941  0.0588  0.3105 -0.6013
  103MOL0     C14087  10.473   2.022   7.875 -0.8440 -0.0371  0.3199
  103MOL0     C14088  10.425   1.931   7.760  0.1771 -0.2812 -0.7942
  103MOL0     C14089  10.540   1.867   7.684  0.3878 -0.3805 -0.0013
  103MOL0     C14090  10.480   1.789   7.561  1.1877 -0.0954 -0.1857
  103MOL0     C14091  10.571   1.783   7.430 -0.2214 -0.5520 -0.9198
  103MOL0     C14092  10.708   1.712   7.454 -0.5290 -0.5462  0.5443
  103MOL0     N14093  10.794   1.715   7.330 -0.9301 -0.4983 -0.9871
  103MOL0     C14094  10.818   1.612   7.241  0.4812 -0.1304 -0.5943
  103MOL0     C14095  10.923   1.647   7.166  0.3283  0.1703  0.2593
  103MOL0     C14096  10.983   1.564   7.050  0.0591  0.4237 -1.3472
  103MOL0     C14097  11.081   1.645   6.973 -0.2007  1.3613 -0.3655
  103MOL0     C14098  11.106   1.608   6.821 -0.1756  0.8393 -0.1557
  103MOL0     C14099  10.986   1.619   6.726  0.3194  1.2048 -0.5152
  103MOL0     O14100  11.028   1.652   6.589  0.3151 -0.4973 -0.3302
  103MOL0     C14101  10.923   1.662   6.497 -0.2271  0.1602 -0.1556
  103MOL0     C14102  10.844   1.777   6.491 -0.7074 -0.6071 -0.9086
  103MOL0     C14103  10.722   1.777   6.419 -0.0478  1.1918  0.7249
  103MOL0     C14104  10.645   1.905   6.443 -0.2677 -0.4665  0.0218
  103MOL0     C14105  10.690   1.667   6.339  0.5650  0.4514  0.3319
  103MOL0     C14106  10.575   1.669   6.249 -0.4188  1.0815  0.5483
  103MOL0     O14107  10.582   1.577   6.148  0.9633 -0.2312 -0.3536
  103MOL0     C14108  10.472   1.539   6.081  0.5914  0.3588  1.5052
  103MOL0     C14109  10.353   1.499   6.134 -0.8730  0.5274  0.1562
  103MOL0     C14110  10.251   1.439   6.057  0.3441  0.5868  0.8015
  103MOL0     C14111  10.269   1.420   5.917 -0.2257 -0.3381 -0.4258
  103MOL0     O14112  10.186   1.335   5.835  0.2177  0.2420  0.1974
  103MOL0     C14113  10.199   1.335   5.688 -0.8085  0.1432 -0.0774
  103MOL0     C14114  10.092   1.245   5.640  0.3516  0.1163  0.4418
  103MOL0     C14115   9.947   1.307   5.664 -0.6673  0.0810 -0.2797
  103MOL0     C14116   9.843   1.219   5.596 -0.0361  0.5206 -0.5011
  103MOL0     C14117   9.710   1.283   5.622 -0.5350 -0.1863  0.0764
  103MOL0     C14118   9.601   1.206   5.570  0.0745 -0.0092  0.1976
  103MOL0     C14119   9.471   1.263   5.612 -0.6039  0.2817  0.3630
  103MOL0     C14120   9.351   1.219   5.529 -0.6749 -0.1729 -0.1416
  103MOL0    Cl14121   9.366   1.304   5.380  0.0734  0.0216 -0.4084
  103MOL0     C14122  10.399   1.452   5.859 -0.2376  0.4875 -0.4196
  103MOL0     C14123  10.502   1.522   5.935 -0.2263  1.3797 -0.8819
  103MOL0     O14124  10.477   1.736   6.280 -0.3196 -0.0339  0.2765
  103MOL0     C14125  10.776   1.557   6.342 -0.0802 -0.4955  0.1497
  103MOL0     C14126  10.887   1.553   6.426  0.6744 -0.0907 -0.0989
  103MOL0     N14127  10.968   1.770   7.211  0.0938 -0.4842 -0.2016
  103MOL0     N14128  10.882   1.817   7.300 -0.0737  0.0123 -0.3920
  103MOL0     C14129  10.660   2.104   8.134  0.2553 -1.0429 -0.8862
  103MOL0     C14130  10.797   2.083   8.121 -0.2980  0.2967 -0.1731
  103MOL0     C14131  11.245   2.279   8.110 -1.1083 -1.1976  0.3912
  103MOL0     C14132  11.331   2.166   8.117 -0.8869  0.5925  0.3234
  103MOL0     C14133  11.473   2.170   8.114  0.1024  0.1412  1.3356
  103MOL0     C14134  11.529   2.296   8.090 -0.4623 -0.9088 -1.0045
  103MOL0     O14135  11.667   2.297   8.088 -0.6715  0.5329 -0.2805
  103MOL0     C14136  11.754   2.414   8.083  0.5271  0.4045 -0.0273
  103MOL0     C14137  11.899   2.369   8.053  0.6371 -0.3949 -0.2722
  103MOL0     C14138  11.916   2.323   7.912  0.0936 -0.0130  0.6338
  103MOL0     C14139  12.062   2.315   7.885 -0.4584  0.8006  0.5351
  103MOL0     C14140  12.098   2.270   7.746  0.4826 -0.2728  0.1660
  103MOL0     C14141  12.142   2.238   7.630  0.9431 -0.0913 -0.4750
  103MOL0     C14142  11.452   2.412   8.093 -0.0301  0.6425  0.3317
  103MOL0     C14143  11.314   2.408   8.102  0.8957 -0.0704  1.0184
  103MOL0     C14144  11.234   2.540   8.086 -0.0478 -0.3175 -0.9251
  103MOL0     H14145  10.888   2.359   7.939  0.2898  0.0234  1.1249
  103MOL0     H14146  10.638   2.391   7.955  0.8350 -0.1195 -0.9000
  103MOL0     H14147  10.282   2.208   8.104  0.0020 -0.8521  2.9704
  103MOL0     H14148  10.379   2.074   8.159 -0.1761 -0.9764  0.8052
  103MOL0     H14149  10.276   2.019   7.947 -0.3696  0.8703  1.8820
  103MOL0     H14150  10.335   2.176   7.875  1.1763  0.6334 -0.5799
  103MOL0     H14151  10.533   2.100   7.827  1.3613  0.4183  3.5061
  103MOL0     H14152  10.538   1.961   7.939 -0.3495  0.6742  0.5109
  103MOL0     H14153  10.370   1.841   7.792 -0.5856  0.5067  0.1776
  103MOL0     H14154  10.360   1.992   7.697  0.6802 -1.2578 -2.3234
  103MOL0     H14155  10.600   1.802   7.749 -1.1087 -2.5635 -0.6795
  103MOL0     H14156  10.610   1.946   7.655  2.2032 -2.3428 -1.3444
  103MOL0     H14157  10.454   1.690   7.598 -0.6716  1.0596  1.8885
  103MOL0     H14158  10.380   1.825   7.534  1.8334  2.4252  0.5183
  103MOL0     H14159  10.596   1.885   7.399 -1.6133 -0.2881 -1.2294
  103MOL0     H14160  10.510   1.740   7.350 -2.6790 -1.6183  1.3895
  103MOL0     H14161  10.760   1.752   7.541 -3.7408  1.1545  1.8350
  103MOL0     H14162  10.677   1.609   7.473 -3.1874  0.2611  1.0118
  103MOL0     H14163  10.750   1.528   7.239  0.5776 -0.3070  1.5121
  103MOL0     H14164  10.887   1.546   7.000 -1.2502  2.5950  0.2050
  103MOL0     H14165  11.031   1.472   7.085  0.3716  0.4057 -1.8132
  103MOL0     H14166  11.043   1.747   6.972 -3.2029  0.3632 -0.2493
  103MOL0     H14167  11.179   1.639   7.021 -0.4876 -1.2234  0.0599
  103MOL0     H14168  11.177   1.677   6.775 -0.9588  0.4399 -2.0848
  103MOL0     H14169  11.161   1.514   6.809  1.1141  1.3089  1.6379
  103MOL0     H14170  10.927   1.527   6.729 -0.7527  1.8950  0.1828
  103MOL0     H14171  10.918   1.699   6.758 -2.7589 -2.3727  3.0025
  103MOL0     H14172  10.872   1.858   6.557 -0.5333 -1.0573 -0.4251
  103MOL0     H14173  10.673   1.943   6.542 -2.6438  0.2376  0.4751
  103MOL0     H14174  10.537   1.895   6.454 -0.5179  2.0842  0.4204
  103MOL0     H14175  10.673   1.984   6.374  1.3351 -0.9091  0.1172
  103MOL0     H14176  10.337   1.499   6.241 -1.3483 -0.2482  0.0875
  103MOL0     H14177  10.160   1.396   6.096 -0.5532 -0.6439 -2.3320
  103MOL0     H14178  10.183   1.433   5.641 -1.3653 -0.3103 -0.8507
  103MOL0     H14179  10.292   1.303   5.641 -0.4190 -1.1976  1.5372
  103MOL0     H14180  10.114   1.239   5.533 -0.2136  1.0881  0.2632
  103MOL0     H14181  10.104   1.145   5.682 -3.1310 -1.3528 -1.6908
  103MOL0     H14182   9.960   1.411   5.632  1.8071 -0.0547  0.0737
  103MOL0     H14183   9.926   1.296   5.771 -1.1762 -1.5816 -0.5280
  103MOL0     H14184   9.849   1.114   5.627  0.3930  0.3275 -1.2051
  103MOL0     H14185   9.859   1.235   5.489  1.8317  5.6304  0.2520
  103MOL0     H14186   9.692   1.281   5.730 -2.8298 -2.8928 -0.2437
  103MOL0     H14187   9.722   1.383   5.580  4.0746  0.2479  1.8612
  103MOL0     H14188   9.599   1.102   5.603 -1.4737 -1.5114 -4.0316
  103MOL0     H14189   9.588   1.204   5.461 -1.6051  2.1877  0.2624
  103MOL0     H14190   9.464   1.372   5.610  0.0372  0.3212 -0.8288
  103MOL0     H14191   9.454   1.219   5.711  1.5863 -2.9642 -0.5363
  103MOL0     H14192   9.256   1.248   5.574 -0.1897  0.9769  0.1707
  103MOL0     H14193   9.348   1.110   5.531 -2.5691 -0.2055  3.1785
  103MOL0     H14194  10.410   1.420   5.756 -0.6101 -0.6552 -0.1268
  103MOL0     H14195  10.598   1.555   5.897 -1.8545  3.5398 -3.4398
  103MOL0     H14196  10.755   1.478   6.270 -0.6807 -0.7507  0.5950
  103MOL0     H14197  10.953   1.467   6.434 -0.7694 -1.3310 -0.8912
  103MOL0     H14198  10.597   2.024   8.173 -0.0425 -1.2504 -1.7746
  103MOL0     H14199  10.825   1.987   8.163 -2.4391  0.7061  2.4996
  103MOL0     H14200  11.283   2.070   8.124 -2.3194  1.2611 -0.0213
  103MOL0     H14201  11.541   2.086   8.107  1.4992  1.3615 -1.0235
  103MOL0     H14202  11.717   2.493   8.017 -0.0829  2.2857  2.4073
  103MOL0     H14203  11.740   2.461   8.180 -0.0880  3.2535 -1.3926
  103MOL0     H14204  11.938   2.307   8.134  1.8449  2.4180  1.4469
  103MOL0     H14205  11.960   2.459   8.065 -1.6837  1.6196 -2.4134
  103MOL0     H14206  11.877   2.223   7.891  1.2159  0.0179 -1.9800
  103MOL0     H14207  11.870   2.393   7.841  1.5495  2.1864  1.7642
  103MOL0     H14208  12.113   2.237   7.942  0.8600  1.4107  0.2157
  103MOL0     H14209  12.109   2.411   7.908 -2.4296  2.7666 -2.8880
  103MOL0     H14210  12.177   2.211   7.532 -2.5770 -1.1002 -1.6458
  103MOL0     H14211  11.500   2.509   8.087  0.5935  0.2861 -0.8968
  103MOL0     H14212  11.308   2.618   8.106  2.0700 -2.1482 -1.2496
  103MOL0     H14213  11.204   2.552   7.982  0.2402 -1.1032 -1.1113
  103MOL0     H14214  11.151   2.542   8.157  0.6342 -0.3173 -0.0976
  104MOL0     O14215   1.516  10.262   1.599  0.1800  0.5535 -0.1945
  104MOL0     C14216   1.525  10.333   1.697  0.2585  0.3960  0.2625
  104MOL0     O14217   1.425  10.392   1.764  0.2491  0.8360 -0.0610
  104MOL0     C14218   1.299  10.394   1.706 -0.1245 -0.6459 -0.0255
  104MOL0     C14219   1.268  10.378   1.569  0.1245  0.7571 -0.9788
  104MOL0     C14220   1.134  10.375   1.532  0.4944  0.5745  0.7447
  104MOL0     C14221   1.022  10.401   1.623 -1.2219 -0.2074 -1.1473
  104MOL0     O14222   0.897  10.401   1.583  0.3364 -0.4412  0.5186
  104MOL0     C14223   0.831  10.282   1.548  0.1665  0.6580  0.4520
  104MOL0     C14224   0.742  10.241   1.667  0.5466  0.7410 -0.2318
  104MOL0     C14225   0.595  10.242   1.630 -1.1390 -0.0530  0.1305
  104MOL0     C14226   0.514  10.236   1.760 -0.2923  0.1547  0.8136
  104MOL0     C14227   0.368  10.275   1.740  0.0415  0.7404 -0.4224
  104MOL0     C14228   0.312  10.198   1.628  0.4595  0.3645  0.1254
  104MOL0     C14229   0.162  10.224   1.614 -0.2536 -0.7856  0.7857
  104MOL0     C14230   0.110  10.113   1.527 -0.9294  0.0496  0.2641
  104MOL0     N14231  -0.027  10.140   1.475 -0.4708 -0.5151  0.5455
  104MOL0     C14232  -0.137  10.179   1.556  0.0426  0.7866 -1.1417
  104MOL0     C14233  -0.239  10.198   1.468  0.6157  1.8214 -0.2178
  104MOL0     C14234  -0.385  10.213   1.498  0.5066  0.0341  0.3288
  104MOL0     C14235  -0.424  10.333   1.407  0.6469 -0.5733  0.0815
  104MOL0     C14236  -0.563  10.396   1.446 -0.2755  1.3808  0.2523
  104MOL0     C14237  -0.677  10.286   1.437 -0.2253 -0.4756 -0.1278
  104MOL0     O14238  -0.674  10.257   1.293  0.3982  0.6307  1.4714
  104MOL0     C14239  -0.762  10.152   1.242  0.1802 -0.7001  0.0593
  104MOL0     C14240  -0.751  10.113   1.102  0.5783 -0.4841 -1.1199
  104MOL0     C14241  -0.831  10.006   1.060 -0.2409  0.4546 -0.5852
  104MOL0     C14242  -0.801   9.943   0.931 -0.9581  0.3952 -0.0331
  104MOL0     C14243  -0.919   9.940   1.146  1.2140  0.8113 -0.5821
  104MOL0     C14244  -1.007   9.825   1.111  1.0312  0.3708 -0.2573
  104MOL0     O14245  -1.003   9.729   1.202 -0.2912 -0.1637 -0.1606
  104MOL0     C14246  -1.021   9.602   1.181  0.1671  0.3789 -0.5020
  104MOL0     C14247  -0.965   9.517   1.081 -0.2229 -1.1194  0.4965
  104MOL0     C14248  -1.005   9.384   1.054 -0.3020  0.0652 -0.1779
  104MOL0     C14249  -1.107   9.332   1.137  0.0005 -0.3334  0.7403
  104MOL0     O14250  -1.159   9.208   1.096 -0.0444  0.2914  0.0672
  104MOL0     C14251  -1.114   9.096   1.174 -0.5866 -0.4490  0.7204
  104MOL0     C14252  -1.177   8.976   1.112  0.8213 -0.4270 -1.0370
  104MOL0     C14253  -1.111   8.931   0.983 -0.0281 -0.3790  0.1534
  104MOL0     C14254  -1.183   8.815   0.913  0.2296 -0.6144 -0.5065
  104MOL0     C14255  -1.118   8.779   0.774 -0.5647 -0.7784 -0.4868
  104MOL0     C14256  -1.188   8.649   0.716  0.7653 -0.1751  0.2573
  104MOL0     C14257  -1.334   8.658   0.671 -0.2344  0.0476 -1.0089
  104MOL0     C14258  -1.356   8.567   0.547  0.3395 -0.9426 -0.8320
  104MOL0    Cl14259  -1.259   8.623   0.423  0.8720  0.3315  0.0757
  104MOL0     C14260  -1.149   9.395   1.248 -0.1953 -0.7219 -0.2237
  104MOL0     C14261  -1.114   9.535   1.265 -0.8923  0.3363 -0.6283
  104MOL0     O14262  -1.066   9.812   1.002 -0.0025  0.3954  0.3834
  104MOL0     C14263  -0.921   9.975   1.277 -0.3269  0.2581 -0.5521
  104MOL0     C14264  -0.846  10.081   1.322  0.2368 -0.1548 -1.2823
  104MOL0     N14265  -0.192  10.170   1.342  0.9681 -0.1480  0.1991
  104MOL0     N14266  -0.060  10.145   1.349  0.1718  0.0413  0.3604
  104MOL0     C14267   1.058  10.408   1.756 -0.1314 -0.0168  0.4085
  104MOL0     C14268   1.194  10.404   1.797 -0.0520  0.3535  0.8955
  104MOL0     C14269   1.666  10.338   1.756  0.6246  0.6160 -0.5260
  104MOL0     C14270   1.684  10.430   1.863  0.2377 -0.5885  0.4983
  104MOL0     C14271   1.814  10.470   1.898 -1.0478  0.0979  0.2377
  104MOL0     C14272   1.933  10.421   1.833 -0.6633  0.0760  0.4479
  104MOL0     O14273   2.063  10.475   1.858  0.6869  0.6303  0.0982
  104MOL0     C14274   2.063  10.559   1.979  0.7300  0.1697 -0.6829
  104MOL0     C14275   2.207  10.589   2.017  0.4889 -0.2236  0.1698
  104MOL0     C14276   2.303  10.465   2.018  1.2374  0.3701  0.3615
  104MOL0     C14277   2.447  10.515   2.021 -0.5985 -0.1706  1.1574
  104MOL0     C14278   2.541  10.401   2.014 -0.5581  1.1170 -0.3633
  104MOL0     C14279   2.618  10.312   2.005 -0.6010  0.0223 -0.5171
  104MOL0     C14280   1.909  10.324   1.736 -0.2947 -0.1806  1.1135
  104MOL0     C14281   1.781  10.280   1.692  0.7170 -0.4739 -0.0348
  104MOL0     C14282   1.795  10.189   1.568  0.5269  1.3889  0.1165
  104MOL0     H14283   1.335  10.355   1.487 -1.4507 -2.2707 -1.5663
  104MOL0     H14284   1.117  10.348   1.428 -3.2471 -3.5520  2.1430
  104MOL0     H14285   0.908  10.207   1.531  1.7698  2.0891  1.1756
  104MOL0     H14286   0.766  10.310   1.465 -4.1660  1.3436  3.6964
  104MOL0     H14287   0.773  10.147   1.714 -0.9924  0.0941 -0.4345
  104MOL0     H14288   0.762  10.321   1.739  1.8594 -0.7299  1.1181
  104MOL0     H14289   0.576  10.337   1.579  3.5658  1.8813  1.3742
  104MOL0     H14290   0.581  10.162   1.557 -1.8957  1.0870 -1.0077
  104MOL0     H14291   0.516  10.127   1.770  1.7630 -0.1200 -1.5795
  104MOL0     H14292   0.562  10.292   1.841  0.8024 -3.1493  2.6363
  104MOL0     H14293   0.373  10.381   1.712 -1.4975  0.8930 -0.2308
  104MOL0     H14294   0.320  10.250   1.835 -1.1899  3.5626 -0.1799
  104MOL0     H14295   0.375  10.222   1.541 -0.5009  0.6203 -0.5114
  104MOL0     H14296   0.322  10.089   1.640  1.5340  0.6855  2.5930
  104MOL0     H14297   0.152  10.322   1.567 -1.5223  0.2095  2.9711
  104MOL0     H14298   0.107  10.212   1.707 -1.0036 -1.6810  0.2403
  104MOL0     H14299   0.176  10.112   1.439  0.8953 -0.3759  1.5899
  104MOL0     H14300   0.107  10.013   1.572  1.8330  0.8885  2.5857
  104MOL0     H14301  -0.140  10.200   1.662 -1.5492 -0.0345 -1.0032
  104MOL0     H14302  -0.406  10.226   1.605 -0.0624 -0.9249  0.3405
  104MOL0     H14303  -0.436  10.122   1.466  2.5929 -0.6606 -1.2439
  104MOL0     H14304  -0.350  10.413   1.410 -0.1701  0.2348 -0.5089
  104MOL0     H14305  -0.442  10.299   1.305 -2.3362 -1.9109  0.9381
  104MOL0     H14306  -0.562  10.442   1.545 -3.2773  0.6077  0.7302
  104MOL0     H14307  -0.581  10.476   1.374  2.0256  1.4559 -0.3330
  104MOL0     H14308  -0.660  10.190   1.488 -3.4360 -0.3031  1.5762
  104MOL0     H14309  -0.776  10.319   1.469  0.3233  0.5416  0.5830
  104MOL0     H14310  -0.670  10.151   1.041 -0.7144 -0.5771 -2.9762
  104MOL0     H14311  -0.750  10.007   0.859 -1.2406 -1.1506 -1.7012
  104MOL0     H14312  -0.896   9.925   0.879  0.1812  0.8786 -2.4002
  104MOL0     H14313  -0.749   9.847   0.929 -0.6893  0.5167  0.7171
  104MOL0     H14314  -0.889   9.556   1.014 -1.3950 -0.1521 -0.3196
  104MOL0     H14315  -0.964   9.321   0.976  1.7333 -0.3192  1.1202
  104MOL0     H14316  -1.005   9.088   1.171 -0.6371 -1.1775 -3.1153
  104MOL0     H14317  -1.143   9.113   1.279  0.1595 -1.0401  1.0333
  104MOL0     H14318  -1.184   8.893   1.184 -1.5743 -0.3929 -1.1512
  104MOL0     H14319  -1.282   9.004   1.094  0.1911  0.9502  3.3544
  104MOL0     H14320  -1.008   8.900   1.002  0.3453  1.0666  0.6634
  104MOL0     H14321  -1.108   9.015   0.913  4.6280 -0.3417  0.1209
  104MOL0     H14322  -1.289   8.837   0.895 -0.0219  0.4458  1.9011
  104MOL0     H14323  -1.190   8.728   0.979 -2.3907  1.2763  1.9586
  104MOL0     H14324  -1.123   8.864   0.705  1.1340 -0.0815  0.2089
  104MOL0     H14325  -1.012   8.754   0.782  0.5197  3.0305 -1.0922
  104MOL0     H14326  -1.185   8.587   0.806  2.0323  0.9049  0.9884
  104MOL0     H14327  -1.127   8.596   0.642  1.0233  0.1140  0.2629
  104MOL0     H14328  -1.354   8.759   0.634  1.2424  1.5446  1.8855
  104MOL0     H14329  -1.405   8.629   0.749 -1.2603  0.2224 -1.8549
  104MOL0     H14330  -1.461   8.574   0.516 -0.2873 -0.2384  1.2758
  104MOL0     H14331  -1.329   8.465   0.575 -1.4408 -1.6819 -1.6317
  104MOL0     H14332  -1.223   9.344   1.308 -2.0776  0.7109 -1.2189
  104MOL0     H14333  -1.157   9.582   1.353 -0.9122  1.8840 -1.4217
  104MOL0     H14334  -0.999   9.929   1.338  0.8736 -4.4615 -2.0895
  104MOL0     H14335  -0.850  10.095   1.429  1.4325 -3.0564 -0.7578
  104MOL0     H14336   0.979  10.429   1.827 -0.7615 -3.1771  0.8060
  104MOL0     H14337   1.220  10.414   1.902  3.1564  1.8687  0.0640
  104MOL0     H14338   1.598  10.473   1.914  0.0976 -4.0419  3.6214
  104MOL0     H14339   1.821  10.540   1.981  1.4996  0.9783 -0.6284
  104MOL0     H14340   2.011  10.654   1.963  2.6039  1.2746 -0.4076
  104MOL0     H14341   2.015  10.496   2.055 -0.4458  2.9052  0.9737
  104MOL0     H14342   2.202  10.635   2.116 -3.5303 -1.0262  0.4953
  104MOL0     H14343   2.246  10.655   1.940 -3.1032  0.7081 -1.0333
  104MOL0     H14344   2.289  10.399   2.105 -1.5501  1.0867  0.5703
  104MOL0     H14345   2.277  10.398   1.935 -2.1619  0.7035  0.9922
  104MOL0     H14346   2.479  10.575   2.107  1.7236  1.2431 -0.5677
  104MOL0     H14347   2.466  10.573   1.930  0.1403 -0.7790  0.9084
  104MOL0     H14348   2.686  10.229   2.010  1.2247  1.4570 -0.5961
  104MOL0     H14349   1.998  10.284   1.688  1.2797  1.4115  2.5521
  104MOL0     H14350   1.810  10.087   1.606 -1.0330  1.7814  1.9529
  104MOL0     H14351   1.699  10.187   1.516  0.3318 -2.3573  0.3208
  104MOL0     H14352   1.876  10.205   1.496  0.0092 -1.7747 -1.3728
  105MOL0     O14353   3.598   7.411   0.631  0.4516 -0.1054  0.4141
  105MOL0     C14354   3.570   7.412   0.506 -0.0752 -0.3537  0.5027
  105MOL0     O14355   3.660   7.405   0.406  0.0003 -0.6877  0.2513
  105MOL0     C14356   3.791   7.379   0.445 -0.0751 -0.3041  0.0123
  105MOL0     C14357   3.821   7.244   0.473 -0.0821  1.1718 -0.6677
  105MOL0     C14358   3.948   7.207   0.515 -0.1464 -0.3031  0.6837
  105MOL0     C14359   4.053   7.309   0.522  1.0362  0.6015  0.5218
  105MOL0     O14360   4.176   7.275   0.560  0.2140 -0.4949 -0.4184
  105MOL0     C14361   4.246   7.176   0.485 -0.0810 -0.7159 -0.5205
  105MOL0     C14362   4.331   7.237   0.377  0.3237  0.4124  0.2783
  105MOL0     C14363   4.437   7.323   0.447 -0.8006 -1.2202  0.4387
  105MOL0     C14364   4.574   7.342   0.367  0.4849 -0.6458 -0.2192
  105MOL0     C14365   4.672   7.440   0.424  0.0218  1.3408 -0.1917
  105MOL0     C14366   4.789   7.482   0.327  0.5470  0.4965 -0.2959
  105MOL0     C14367   4.905   7.374   0.297 -0.4640  0.6696  0.4630
  105MOL0     C14368   5.004   7.345   0.416  0.8572 -0.1244  0.2645
  105MOL0     N14369   5.077   7.462   0.464  0.4434  0.4472 -0.5790
  105MOL0     C14370   5.111   7.493   0.588  0.5024  0.8968 -0.5656
  105MOL0     C14371   5.168   7.607   0.581  0.6065 -0.3463 -0.3107
  105MOL0     C14372   5.243   7.651   0.703 -0.0217  0.4697 -0.1745
  105MOL0     C14373   5.378   7.715   0.644 -0.2457  0.1835  0.0040
  105MOL0     C14374   5.489   7.742   0.748 -0.1455  0.3215  0.6685
  105MOL0     C14375   5.443   7.845   0.848  0.0450 -0.0883 -0.4041
  105MOL0     O14376   5.561   7.875   0.941 -0.0359  0.5756  0.4264
  105MOL0     C14377   5.537   7.982   1.026  0.2013 -0.1488  0.8454
  105MOL0     C14378   5.412   8.022   1.078 -0.5611 -0.3921 -0.3961
  105MOL0     C14379   5.407   8.118   1.182  0.7127  0.2009  0.2164
  105MOL0     C14380   5.272   8.167   1.218 -0.1292 -0.6180  1.0087
  105MOL0     C14381   5.522   8.175   1.248  0.1511  0.1806  0.2247
  105MOL0     C14382   5.535   8.290   1.336 -0.2741 -0.6393  0.2550
  105MOL0     O14383   5.662   8.333   1.366  0.2844  0.0961  0.1082
  105MOL0     C14384   5.664   8.459   1.427 -0.0176  0.6467  0.0589
  105MOL0     C14385   5.727   8.562   1.355 -0.1270  0.2451 -0.7494
  105MOL0     C14386   5.738   8.683   1.419 -0.5038 -0.6803 -0.2071
  105MOL0     C14387   5.696   8.704   1.551  0.1161 -0.3037 -0.2633
  105MOL0     O14388   5.706   8.827   1.611  0.1384 -0.1424 -0.4085
  105MOL0     C14389   5.688   8.859   1.750 -0.2249  1.1196 -0.9233
  105MOL0     C14390   5.723   9.005   1.800 -0.2054  1.4247  0.4202
  105MOL0     C14391   5.870   9.029   1.755 -0.1430  1.0068  0.8367
  105MOL0     C14392   5.922   9.158   1.816  0.2189  0.8424 -0.4084
  105MOL0     C14393   5.946   9.156   1.975 -1.2308  0.2877 -0.7934
  105MOL0     C14394   6.007   9.293   2.033 -0.1642  0.5278  0.4735
  105MOL0     C14395   6.123   9.349   1.951  1.0208 -0.6907  0.3884
  105MOL0     C14396   6.163   9.488   1.983 -0.0491  0.1779  0.2126
  105MOL0    Cl14397   6.244   9.506   2.142  0.3396  0.1160 -0.3863
  105MOL0     C14398   5.654   8.585   1.628  0.5265 -0.1465  0.0540
  105MOL0     C14399   5.617   8.465   1.554  0.0625  0.1298 -0.5535
  105MOL0     O14400   5.424   8.350   1.372 -0.2319  0.7610  0.7355
  105MOL0     C14401   5.647   8.127   1.195  0.5044  0.5727 -0.5980
  105MOL0     C14402   5.650   8.039   1.084  0.3715  0.0137 -0.0020
  105MOL0     N14403   5.186   7.649   0.452  0.4299  0.4243  0.4042
  105MOL0     N14404   5.130   7.557   0.377 -0.2880 -0.1122 -0.5931
  105MOL0     C14405   4.030   7.443   0.483  0.5630  0.4562 -0.7566
  105MOL0     C14406   3.898   7.482   0.447 -0.0558 -0.7080  0.4233
  105MOL0     C14407   3.430   7.423   0.478 -1.5768 -0.9948  0.3366
  105MOL0     C14408   3.336   7.483   0.558 -0.8227  0.4392  0.2931
  105MOL0     C14409   3.207   7.508   0.529  0.9364  0.5423  0.9733
  105MOL0     C14410   3.137   7.464   0.407 -0.6305  0.3418 -0.3400
  105MOL0     O14411   3.007   7.471   0.374  0.1082  0.2359 -1.0239
  105MOL0     C14412   2.910   7.481   0.483 -0.1013 -0.3579  0.4575
  105MOL0     C14413   2.830   7.615   0.490 -0.6501  0.6236 -0.3889
  105MOL0     C14414   2.761   7.647   0.359 -0.2942  0.3472  0.4296
  105MOL0     C14415   2.716   7.793   0.341  0.2713  0.0585 -0.3479
  105MOL0     C14416   2.612   7.827   0.441  1.0753 -0.1015  0.4750
  105MOL0     C14417   2.522   7.836   0.531  0.0589  0.5179  0.4013
  105MOL0     C14418   3.228   7.392   0.329 -0.2665  0.0863  0.4880
  105MOL0     C14419   3.367   7.379   0.351 -0.9541 -0.1875  0.0313
  105MOL0     C14420   3.445   7.310   0.235  0.2415 -0.1343 -0.4276
  105MOL0     H14421   3.743   7.168   0.470  1.0103 -0.0024 -0.4118
  105MOL0     H14422   3.972   7.108   0.551  0.3156 -0.1972  0.6834
  105MOL0     H14423   4.178   7.103   0.440  1.1673 -1.8565 -0.5958
  105MOL0     H14424   4.318   7.126   0.550 -2.1132 -0.9594  1.6743
  105MOL0     H14425   4.365   7.147   0.325 -2.7356 -0.1996 -0.8463
  105MOL0     H14426   4.271   7.307   0.319  0.7842  1.5001  1.0902
  105MOL0     H14427   4.396   7.423   0.460 -2.1342 -1.2282 -2.7971
  105MOL0     H14428   4.467   7.279   0.542  3.8641 -1.7238 -1.0264
  105MOL0     H14429   4.619   7.245   0.344 -1.3085 -0.9843 -2.6982
  105MOL0     H14430   4.557   7.364   0.261 -3.2758 -1.1982  0.1189
  105MOL0     H14431   4.702   7.392   0.518  2.2956 -3.6591 -3.0355
  105MOL0     H14432   4.615   7.532   0.439 -0.8597  0.5836  1.3157
  105MOL0     H14433   4.752   7.488   0.224  1.4171 -2.1243 -0.8525
  105MOL0     H14434   4.834   7.574   0.364  3.4555 -0.7249 -0.5355
  105MOL0     H14435   4.956   7.412   0.208 -1.0899  0.9687  0.2262
  105MOL0     H14436   4.864   7.279   0.264  2.6135 -0.2319 -1.1707
  105MOL0     H14437   4.955   7.292   0.499  1.3121 -2.9248 -1.1437
  105MOL0     H14438   5.086   7.287   0.374  0.0380 -0.2457 -1.2288
  105MOL0     H14439   5.086   7.427   0.671  1.0686 -0.1688 -1.2084
  105MOL0     H14440   5.264   7.579   0.782 -0.0672  2.5485  1.8129
  105MOL0     H14441   5.178   7.728   0.744 -0.8326  0.1999 -0.9156
  105MOL0     H14442   5.424   7.650   0.569 -0.2628 -0.1090  0.2413
  105MOL0     H14443   5.345   7.803   0.588 -2.3235 -2.6164 -3.5998
  105MOL0     H14444   5.517   7.646   0.794  0.2333  0.1060 -0.0021
  105MOL0     H14445   5.580   7.780   0.702 -0.6240  2.1894  1.1836
  105MOL0     H14446   5.427   7.938   0.793 -0.6949 -0.2503 -0.4694
  105MOL0     H14447   5.355   7.807   0.901 -0.2564  0.2993 -0.6205
  105MOL0     H14448   5.315   7.984   1.046  0.9114 -1.5509 -4.0008
  105MOL0     H14449   5.192   8.102   1.182  0.2162 -0.9458  0.8131
  105MOL0     H14450   5.267   8.267   1.175 -3.7116 -1.3477 -0.6069
  105MOL0     H14451   5.262   8.171   1.327 -0.0502 -0.6594  1.0176
  105MOL0     H14452   5.762   8.554   1.252  1.5894 -0.6905 -0.1274
  105MOL0     H14453   5.789   8.774   1.389 -1.3859 -0.9456 -2.7111
  105MOL0     H14454   5.581   8.850   1.770 -1.0729 -1.4255 -5.2497
  105MOL0     H14455   5.745   8.790   1.814  1.7768  1.9014 -1.7664
  105MOL0     H14456   5.656   9.078   1.754  2.4352  4.9614  1.7016
  105MOL0     H14457   5.719   8.998   1.909  0.1497 -0.7336  0.3328
  105MOL0     H14458   5.879   9.031   1.646  0.9632 -0.1918  0.8793
  105MOL0     H14459   5.937   8.948   1.784  0.9691  1.1580 -1.1390
  105MOL0     H14460   5.858   9.237   1.777 -0.9441 -0.5728 -1.4748
  105MOL0     H14461   6.020   9.167   1.768  1.2419 -0.3345  1.3448
  105MOL0     H14462   5.856   9.146   2.037  0.9106 -1.4194  2.3477
  105MOL0     H14463   6.008   9.068   1.999 -2.9421 -0.2161  2.3737
  105MOL0     H14464   6.030   9.287   2.140  2.7488  0.6105 -0.0677
  105MOL0     H14465   5.924   9.365   2.031 -2.5858 -2.0812  0.3216
  105MOL0     H14466   6.091   9.350   1.847  0.4460  0.9248  0.5520
  105MOL0     H14467   6.212   9.287   1.965 -0.4300 -2.3395  3.2868
  105MOL0     H14468   6.076   9.554   1.985  0.5743  1.0028  1.6846
  105MOL0     H14469   6.223   9.531   1.903 -1.7692 -0.1878 -1.3558
  105MOL0     H14470   5.635   8.592   1.734  2.0397 -2.1620  0.5193
  105MOL0     H14471   5.585   8.375   1.605  1.2412  0.2959  0.5284
  105MOL0     H14472   5.741   8.167   1.232  0.3072 -0.3124  0.9617
  105MOL0     H14473   5.749   8.013   1.048 -0.2910 -1.2046 -1.0036
  105MOL0     H14474   4.103   7.522   0.484 -2.0881  3.0959  1.0248
  105MOL0     H14475   3.881   7.589   0.434  3.4382  0.1626  1.6985
  105MOL0     H14476   3.357   7.517   0.659  0.2648 -3.1367  1.4270
  105MOL0     H14477   3.149   7.557   0.606 -2.8040 -3.9576  1.5291
  105MOL0     H14478   2.836   7.401   0.480 -2.0950  1.3098  1.9713
  105MOL0     H14479   2.961   7.470   0.579  1.4779 -0.6716 -0.3795
  105MOL0     H14480   2.895   7.697   0.523  1.0800 -0.6115 -0.5788
  105MOL0     H14481   2.751   7.603   0.564  0.7890  1.6474  1.4056
  105MOL0     H14482   2.826   7.615   0.277  2.2272  2.2724  1.5256
  105MOL0     H14483   2.675   7.580   0.353  0.2725 -0.4681  1.1687
  105MOL0     H14484   2.675   7.811   0.241 -0.8675  0.6801  0.2151
  105MOL0     H14485   2.795   7.863   0.367  1.3782 -2.5315  4.5154
  105MOL0     H14486   2.440   7.856   0.597  0.1209 -0.9310  0.9449
  105MOL0     H14487   3.182   7.360   0.236 -0.0610  2.1820 -0.4061
  105MOL0     H14488   3.511   7.232   0.275 -0.4339  0.5358  2.1772
  105MOL0     H14489   3.368   7.263   0.173 -0.6829  3.0815 -1.8677
  105MOL0     H14490   3.499   7.386   0.178 -1.8217  3.1955  1.7230
  106MOL0     O14491   5.412   1.801   7.566 -0.8173 -0.3072 -0.3465
  106MOL0     C14492   5.407   1.866   7.461  0.7393  0.0682 -0.5849
  106MOL0     O14493   5.304   1.861   7.376 -0.3482 -0.4530 -0.1234
  106MOL0     C14494   5.199   1.769   7.376 -0.8221  0.3730 -0.3978
  106MOL0     C14495   5.079   1.826   7.341 -0.1367  0.1449 -0.2116
  106MOL0     C14496   4.968   1.748   7.339  0.7180 -0.1384  0.1380
  106MOL0     C14497   4.971   1.613   7.383 -0.6249  0.1565  0.4019
  106MOL0     O14498   4.866   1.528   7.351  0.4294 -0.5400  0.4750
  106MOL0     C14499   4.734   1.589   7.371  0.0653 -0.2026 -1.0521
  106MOL0     C14500   4.631   1.493   7.439  0.9076  0.1045 -0.7651
  106MOL0     C14501   4.661   1.489   7.590 -0.2703  0.4572  0.6553
  106MOL0     C14502   4.551   1.417   7.661  0.2035  0.4117 -0.3235
  106MOL0     C14503   4.529   1.266   7.630 -0.8986  0.2036 -0.3450
  106MOL0     C14504   4.386   1.219   7.644  0.2914  1.0003  0.4919
  106MOL0     C14505   4.389   1.059   7.613 -0.1998  0.3460 -0.2682
  106MOL0     C14506   4.256   1.003   7.661 -0.2179  1.0245 -0.1048
  106MOL0     N14507   4.251   0.862   7.614  0.3831  1.3137 -0.2692
  106MOL0     C14508   4.208   0.743   7.687  0.1094  0.1177 -0.3597
  106MOL0     C14509   4.153   0.664   7.596 -0.3088 -0.1304  0.4883
  106MOL0     C14510   4.108   0.524   7.619 -0.9231 -0.2374 -0.0499
  106MOL0     C14511   3.963   0.505   7.602 -0.1843 -0.6860  0.3008
  106MOL0     C14512   3.879   0.590   7.701  0.2382 -0.2348 -0.3882
  106MOL0     C14513   3.720   0.562   7.676 -0.2138  0.1399 -0.8246
  106MOL0     O14514   3.677   0.605   7.548  0.1039 -0.6266  0.0258
  106MOL0     C14515   3.552   0.572   7.498  0.6358  1.0658 -0.5870
  106MOL0     C14516   3.462   0.477   7.556 -0.0638  0.4689  0.4552
  106MOL0     C14517   3.340   0.444   7.494 -1.1845  0.3941  0.4592
  106MOL0     C14518   3.250   0.360   7.577  1.2167 -1.2797  0.4244
  106MOL0     C14519   3.303   0.506   7.371  0.3715  0.9188  0.7360
  106MOL0     C14520   3.170   0.485   7.295 -0.4412  0.7956  0.3040
  106MOL0     O14521   3.155   0.559   7.183  0.2494  0.0589 -0.2430
  106MOL0     C14522   3.025   0.559   7.141 -0.6857 -0.2226  0.0176
  106MOL0     C14523   2.922   0.620   7.198 -0.2648 -0.9033 -0.1592
  106MOL0     C14524   2.802   0.649   7.121  0.4776  0.0213 -0.6441
  106MOL0     C14525   2.779   0.602   6.991  0.0929  0.2198  0.2431
  106MOL0     O14526   2.663   0.588   6.917 -0.1811 -0.2066 -0.3198
  106MOL0     C14527   2.568   0.679   6.971  0.5372  0.3098  0.1433
  106MOL0     C14528   2.473   0.723   6.865  0.4440 -0.2371 -0.9302
  106MOL0     C14529   2.320   0.724   6.908  0.1109 -0.3939 -0.5038
  106MOL0     C14530   2.235   0.761   6.787  1.1071 -0.5359  0.1797
  106MOL0     C14531   2.085   0.754   6.815 -0.3608  0.0532  0.0093
  106MOL0     C14532   2.016   0.786   6.677  0.1862 -0.9165  0.1366
  106MOL0     C14533   1.881   0.722   6.661 -0.0148  0.8274  0.5880
  106MOL0     C14534   1.785   0.789   6.561 -0.4758 -0.5343  0.0769
  106MOL0    Cl14535   1.784   0.968   6.583  0.4052  0.1159  0.4586
  106MOL0     C14536   2.888   0.534   6.937 -0.9391 -0.1070 -0.0319
  106MOL0     C14537   3.010   0.511   7.008  0.0803 -0.5411  0.3546
  106MOL0     O14538   3.095   0.396   7.340  0.8290 -0.3270  0.1471
  106MOL0     C14539   3.398   0.603   7.318  0.6324  0.1111 -0.0214
  106MOL0     C14540   3.513   0.634   7.385  0.4299 -1.0802 -0.4870
  106MOL0     N14541   4.178   0.710   7.468  0.4089 -1.1385  0.1785
  106MOL0     N14542   4.231   0.826   7.482 -0.3889 -0.5249 -1.0381
  106MOL0     C14543   5.093   1.570   7.433  0.3685  1.2708 -0.2068
  106MOL0     C14544   5.214   1.633   7.415  0.0510  0.3385 -0.8937
  106MOL0     C14545   5.532   1.934   7.416  0.5450  0.3356  0.7838
  106MOL0     C14546   5.555   1.949   7.274  0.4082 -0.0582  0.6337
  106MOL0     C14547   5.670   2.009   7.216  0.2620 -0.6679  0.3949
  106MOL0     C14548   5.759   2.064   7.298  0.2474  0.4018  0.4600
  106MOL0     O14549   5.865   2.129   7.238 -0.1245  1.2632  0.1311
  106MOL0     C14550   5.974   2.035   7.193 -0.4243 -0.1374 -0.1238
  106MOL0     C14551   6.072   2.013   7.304 -0.6364  0.4592 -0.5454
  106MOL0     C14552   6.176   1.898   7.291  0.9373  0.4087  0.2552
  106MOL0     C14553   6.108   1.758   7.266  0.6574  0.6800  0.9421
  106MOL0     C14554   6.007   1.726   7.369  0.8358 -0.3166 -0.4084
  106MOL0     C14555   5.941   1.684   7.465 -0.2026  0.1828  0.1130
  106MOL0     C14556   5.739   2.063   7.438  0.4203 -0.2500 -0.2727
  106MOL0     C14557   5.632   1.984   7.491  0.3855 -1.0267 -0.8126
  106MOL0     C14558   5.639   1.972   7.639  0.0751  0.2088 -0.1849
  106MOL0     H14559   5.078   1.929   7.307 -4.3881  0.4564  0.3266
  106MOL0     H14560   4.884   1.793   7.287 -0.6794  0.2451  2.6245
  106MOL0     H14561   4.699   1.616   7.271  1.4388 -0.4953 -1.6287
  106MOL0     H14562   4.737   1.682   7.429 -0.2783 -0.3328 -0.8234
  106MOL0     H14563   4.530   1.526   7.413  1.7275  0.7549 -3.4718
  106MOL0     H14564   4.650   1.399   7.387  0.7890  1.1759 -2.8517
  106MOL0     H14565   4.758   1.441   7.602  0.7515  1.4347 -2.5636
  106MOL0     H14566   4.664   1.589   7.634 -1.7007  0.3956  0.9494
  106MOL0     H14567   4.570   1.431   7.768  0.6402 -1.2217 -0.1573
  106MOL0     H14568   4.465   1.476   7.627  1.4164  2.7192  0.4023
  106MOL0     H14569   4.590   1.208   7.700 -1.2579  0.9907  0.6437
  106MOL0     H14570   4.556   1.248   7.526  0.5037  3.6348 -0.6778
  106MOL0     H14571   4.340   1.233   7.742 -0.6766 -3.6267  0.9133
  106MOL0     H14572   4.333   1.270   7.563  0.1403  0.3975  0.2076
  106MOL0     H14573   4.474   1.018   7.669 -0.1868 -0.9452 -1.1786
  106MOL0     H14574   4.401   1.048   7.504 -1.0121 -1.7215 -0.1924
  106MOL0     H14575   4.257   1.013   7.770 -2.4167 -1.2463  0.2240
  106MOL0     H14576   4.169   1.061   7.629 -0.4952  0.7849  0.2114
  106MOL0     H14577   4.203   0.745   7.795 -1.8768  3.6304 -0.3727
  106MOL0     H14578   4.140   0.503   7.722 -2.9557  0.8057  0.8597
  106MOL0     H14579   4.154   0.456   7.547 -0.8901  1.5015 -1.7602
  106MOL0     H14580   3.937   0.547   7.504 -1.0954  0.5497  1.0548
  106MOL0     H14581   3.950   0.399   7.623 -0.4004 -0.2272  2.7772
  106MOL0     H14582   3.896   0.572   7.807  1.0477  0.7684 -0.3304
  106MOL0     H14583   3.902   0.694   7.674 -2.2195  0.4611 -0.0594
  106MOL0     H14584   3.695   0.457   7.691 -3.6278  1.0160  0.7372
  106MOL0     H14585   3.662   0.621   7.749 -1.8213 -1.4543 -0.7558
  106MOL0     H14586   3.482   0.423   7.648 -0.0594 -0.3761 -0.0263
  106MOL0     H14587   3.151   0.405   7.585  1.2834 -1.3257  1.6383
  106MOL0     H14588   3.290   0.338   7.676 -1.7386 -2.9297  1.3665
  106MOL0     H14589   3.246   0.266   7.521  0.0499 -1.0077  0.0376
  106MOL0     H14590   2.937   0.663   7.296 -2.0534 -0.8400  0.1143
  106MOL0     H14591   2.718   0.699   7.167  1.5738 -0.6950  2.3533
  106MOL0     H14592   2.497   0.624   7.034  0.1365  0.6500 -0.0076
  106MOL0     H14593   2.599   0.764   7.031  0.0763 -0.6137  1.7506
  106MOL0     H14594   2.490   0.823   6.825  2.2300 -0.4897 -0.8921
  106MOL0     H14595   2.485   0.669   6.771 -0.4655 -0.0456 -1.1685
  106MOL0     H14596   2.308   0.803   6.983 -0.0330 -0.5106 -0.4035
  106MOL0     H14597   2.288   0.624   6.941 -4.0122  0.6818 -0.6523
  106MOL0     H14598   2.254   0.690   6.706 -2.7785  2.0849 -3.4671
  106MOL0     H14599   2.254   0.863   6.751 -3.4794  0.6997  0.6738
  106MOL0     H14600   2.074   0.648   6.841 -1.1443 -0.7135 -3.0134
  106MOL0     H14601   2.061   0.822   6.897  2.2401 -0.5682  1.3976
  106MOL0     H14602   2.079   0.741   6.600  1.9548  1.3583  0.1380
  106MOL0     H14603   2.009   0.896   6.678 -3.6324 -1.0029  1.9010
  106MOL0     H14604   1.823   0.735   6.753 -1.2639 -1.5974  0.2431
  106MOL0     H14605   1.889   0.619   6.625 -3.1204  1.7638 -3.5492
  106MOL0     H14606   1.688   0.738   6.564  0.3904 -2.2510  0.2783
  106MOL0     H14607   1.825   0.774   6.460  0.1259 -1.1156  0.3972
  106MOL0     H14608   2.884   0.502   6.833  1.2910  1.4841 -0.6827
  106MOL0     H14609   3.096   0.481   6.949  0.3160 -1.3583  1.0797
  106MOL0     H14610   3.369   0.648   7.223  0.7551 -0.8662 -0.5407
  106MOL0     H14611   3.588   0.706   7.354 -1.5068  2.7768  2.7957
  106MOL0     H14612   5.106   1.473   7.479  0.1695 -0.0113 -2.6956
  106MOL0     H14613   5.314   1.596   7.436  0.3586  1.7528  0.3301
  106MOL0     H14614   5.486   1.906   7.202  0.6735 -2.4486  1.6831
  106MOL0     H14615   5.690   2.013   7.110  1.7094 -1.8730  0.5925
  106MOL0     H14616   5.937   1.946   7.142  3.4170 -1.6406 -0.6842
  106MOL0     H14617   6.016   2.091   7.110 -1.6356  1.0507  0.0388
  106MOL0     H14618   6.027   1.991   7.401 -0.8815 -1.7581 -1.1121
  106MOL0     H14619   6.123   2.110   7.305  2.1871 -0.7546 -4.1852
  106MOL0     H14620   6.244   1.921   7.208  1.9209 -1.8929  0.3542
  106MOL0     H14621   6.243   1.876   7.375 -1.0728 -4.4919  0.8640
  106MOL0     H14622   6.177   1.673   7.263 -2.2852 -1.8372 -0.2926
  106MOL0     H14623   6.054   1.748   7.171 -1.3928  0.3731  2.0795
  106MOL0     H14624   5.892   1.639   7.549  1.8314  1.3212  2.0083
  106MOL0     H14625   5.809   2.128   7.489 -0.0159 -0.4565  0.6119
  106MOL0     H14626   5.728   2.023   7.677 -1.3637  0.2333  3.5748
  106MOL0     H14627   5.547   1.991   7.695 -0.8985  2.7199 -2.3821
  106MOL0     H14628   5.679   1.874   7.666  4.1734  1.3994 -1.2249
  107MOL0     O14629   8.602   9.796  10.053 -0.2586  1.3108  0.1748
  107MOL0     C14630   8.586   9.674  10.014 -1.3579 -0.0163 -0.4784
  107MOL0     O14631   8.605   9.638   9.882 -0.5548  0.0659  0.5840
  107MOL0     C14632   8.534   9.535   9.822  0.2910 -0.4066 -0.2945
  107MOL0     C14633   8.619   9.458   9.742 -0.2970  0.1719  0.9067
  107MOL0     C14634   8.561   9.363   9.656  0.6928 -0.5453  0.4662
  107MOL0     C14635   8.417   9.337   9.652 -1.3501 -0.1040 -0.3647
  107MOL0     O14636   8.349   9.253   9.569 -0.6108  0.4949 -0.2050
  107MOL0     C14637   8.421   9.159   9.486 -1.0040  0.1910  0.0385
  107MOL0     C14638   8.485   9.207   9.352 -1.2959 -0.9486  0.4734
  107MOL0     C14639   8.380   9.225   9.254 -0.1563  0.1115  0.1243
  107MOL0     C14640   8.420   9.324   9.143  0.3715  0.9581 -0.5004
  107MOL0     C14641   8.302   9.339   9.050 -0.3272  0.4537 -0.0297
  107MOL0     C14642   8.348   9.423   8.923 -1.1250  0.9654  0.4291
  107MOL0     C14643   8.245   9.400   8.813 -0.3095 -0.3322 -0.0453
  107MOL0     C14644   8.286   9.268   8.735 -0.0901 -0.4646 -0.4860
  107MOL0     N14645   8.419   9.265   8.671 -0.7128  0.3212  0.4123
  107MOL0     C14646   8.510   9.163   8.677 -0.3275 -0.5768  0.2027
  107MOL0     C14647   8.628   9.215   8.636  0.7911 -0.6449  0.0709
  107MOL0     C14648   8.756   9.145   8.619 -0.0297 -0.4642 -0.9238
  107MOL0     C14649   8.836   9.135   8.746  0.1501 -0.5278 -0.6765
  107MOL0     C14650   8.848   9.268   8.817 -0.1081  0.1908  0.1984
  107MOL0     C14651   8.960   9.268   8.914  1.3909  0.0175  0.6889
  107MOL0     O14652   9.082   9.264   8.844  0.2901 -0.1721  0.6813
  107MOL0     C14653   9.166   9.369   8.857  0.2602  0.0976  0.7249
  107MOL0     C14654   9.240   9.407   8.748  0.3616  0.0992 -0.4347
  107MOL0     C14655   9.315   9.518   8.747 -0.4864  0.8498  0.0455
  107MOL0     C14656   9.399   9.551   8.628  0.5745  0.3170 -0.1593
  107MOL0     C14657   9.307   9.610   8.860 -0.6617  0.4110 -0.5697
  107MOL0     C14658   9.339   9.751   8.859  0.2952  0.2019  0.9277
  107MOL0     O14659   9.389   9.790   8.747  0.0425 -0.4648 -0.9693
  107MOL0     C14660   9.469   9.902   8.749  0.8224  0.2935 -0.8641
  107MOL0     C14661   9.410  10.024   8.732  0.4861  0.1151 -0.2304
  107MOL0     C14662   9.495  10.143   8.713 -0.4815  0.2460  0.4278
  107MOL0     C14663   9.635  10.128   8.730 -0.6340  0.7579  0.0133
  107MOL0     O14664   9.731  10.227   8.710  0.2635  0.8535 -0.7357
  107MOL0     C14665   9.722  10.279   8.579 -0.0286  0.2005 -0.1399
  107MOL0     C14666   9.786  10.423   8.583 -0.2779  0.2705 -0.0789
  107MOL0     C14667   9.800  10.480   8.443  0.5069  0.2822 -1.0386
  107MOL0     C14668   9.824  10.633   8.458  0.8520 -0.3015  0.6966
  107MOL0     C14669   9.799  10.699   8.320 -0.2764 -0.2885  0.3872
  107MOL0     C14670   9.828  10.849   8.315  0.0177  0.6675  1.3059
  107MOL0     C14671   9.961  10.889   8.389 -0.1655  0.3107  0.1184
  107MOL0     C14672  10.003  11.031   8.369  0.1472 -0.0084  0.0685
  107MOL0    Cl14673   9.886  11.138   8.439 -0.2547 -0.2006 -0.4401
  107MOL0     C14674   9.685  10.001   8.761 -0.6913 -0.0600  0.5616
  107MOL0     C14675   9.609   9.884   8.773  0.6506  0.3589  0.1491
  107MOL0     O14676   9.338   9.817   8.962 -0.0135  0.3325 -0.1681
  107MOL0     C14677   9.244   9.563   8.977 -0.4903  0.0053  0.1785
  107MOL0     C14678   9.181   9.441   8.976  0.3129 -0.0371 -0.5725
  107MOL0     N14679   8.607   9.348   8.600 -0.1963  0.3345 -0.5142
  107MOL0     N14680   8.478   9.379   8.619 -0.2012  0.4942  0.0193
  107MOL0     C14681   8.340   9.413   9.737  0.1286  0.2313 -0.0663
  107MOL0     C14682   8.396   9.515   9.823 -0.3628  0.2975  0.0427
  107MOL0     C14683   8.545   9.580  10.116 -0.3802  0.0688 -0.8964
  107MOL0     C14684   8.616   9.459  10.125 -0.1554 -0.0449 -0.8347
  107MOL0     C14685   8.589   9.374  10.231 -0.3855 -0.2411 -0.2113
  107MOL0     C14686   8.471   9.381  10.299  0.5495  0.1072 -0.3026
  107MOL0     O14687   8.438   9.300  10.403  0.3984 -0.5962 -0.1232
  107MOL0     C14688   8.498   9.172  10.444 -0.0834 -0.2613  0.2350
  107MOL0     C14689   8.398   9.065  10.472  1.4771  0.4435  0.0226
  107MOL0     C14690   8.268   9.088  10.382  0.8059 -0.7379 -0.6823
  107MOL0     C14691   8.160   8.979  10.426  0.1609  0.6070 -0.9395
  107MOL0     C14692   8.124   8.883  10.315 -0.2848 -0.3846  0.1100
  107MOL0     C14693   8.107   8.811  10.217 -0.3840  0.5363  0.4636
  107MOL0     C14694   8.386   9.496  10.279  0.8246 -0.4563  0.1184
  107MOL0     C14695   8.430   9.592  10.189 -0.8053 -0.5078 -1.0671
  107MOL0     C14696   8.344   9.710  10.174 -0.7409  0.9001  0.2974
  107MOL0     H14697   8.727   9.461   9.749 -0.2104  1.0811 -0.5280
  107MOL0     H14698   8.638   9.313   9.597 -0.2286 -0.0082 -1.2765
  107MOL0     H14699   8.360   9.071   9.466 -3.3367  2.3144 -3.3840
  107MOL0     H14700   8.508   9.122   9.542 -0.6374  0.2627 -0.4774
  107MOL0     H14701   8.552   9.292   9.369 -1.1613 -1.0865  0.6518
  107MOL0     H14702   8.557   9.130   9.325  1.5897  0.9792  2.1589
  107MOL0     H14703   8.362   9.131   9.202  0.1227  0.1924 -0.1212
  107MOL0     H14704   8.289   9.267   9.299  0.0316  0.5145  0.1371
  107MOL0     H14705   8.442   9.426   9.174  1.5648  0.1889  1.3785
  107MOL0     H14706   8.510   9.280   9.099  0.7398 -0.7024  1.7135
  107MOL0     H14707   8.221   9.387   9.106  0.6253  0.4681  1.3981
  107MOL0     H14708   8.280   9.240   9.011  1.9530  0.3188 -1.1764
  107MOL0     H14709   8.350   9.529   8.951 -0.7220  1.0020  0.2704
  107MOL0     H14710   8.447   9.395   8.886 -1.3800 -1.5281  1.4139
  107MOL0     H14711   8.249   9.486   8.746 -3.1234  0.6752  0.9487
  107MOL0     H14712   8.143   9.399   8.852 -0.4064  0.7367 -0.2620
  107MOL0     H14713   8.279   9.176   8.795  1.8237 -2.0483 -2.5193
  107MOL0     H14714   8.210   9.260   8.657 -0.2256  1.3609 -0.5810
  107MOL0     H14715   8.496   9.061   8.710  1.5987 -0.0928  2.8240
  107MOL0     H14716   8.800   9.194   8.531 -2.0931 -0.5718 -2.0692
  107MOL0     H14717   8.739   9.039   8.597  2.1355 -1.0141 -0.1844
  107MOL0     H14718   8.785   9.064   8.812  1.6662 -2.1988 -1.2308
  107MOL0     H14719   8.936   9.094   8.727  0.2449 -0.4866 -0.2754
  107MOL0     H14720   8.865   9.349   8.745 -1.3614  0.1914 -0.1231
  107MOL0     H14721   8.758   9.296   8.873  1.5508  4.9364  0.9426
  107MOL0     H14722   8.938   9.353   8.979 -2.0268  0.3835 -0.7264
  107MOL0     H14723   8.950   9.178   8.976  2.0292  0.3752  1.3210
  107MOL0     H14724   9.228   9.357   8.653 -1.2258  1.6490 -1.0988
  107MOL0     H14725   9.497   9.581   8.663 -0.0609  2.4665 -0.1217
  107MOL0     H14726   9.349   9.632   8.575 -2.0924 -1.2069 -0.1839
  107MOL0     H14727   9.400   9.462   8.564 -2.4513 -0.8819  1.2488
  107MOL0     H14728   9.303  10.040   8.737  0.4084  0.3624 -2.1109
  107MOL0     H14729   9.456  10.244   8.700 -2.9021 -0.7054 -0.0837
  107MOL0     H14730   9.777  10.214   8.510 -1.2070  0.1196 -1.0380
  107MOL0     H14731   9.618  10.300   8.555 -0.1969  0.7459  1.0164
  107MOL0     H14732   9.714  10.488   8.633  0.1710  2.2228 -1.8145
  107MOL0     H14733   9.878  10.406   8.642  0.2815 -2.6273 -1.6039
  107MOL0     H14734   9.716  10.460   8.376  1.0748  0.5142 -1.8320
  107MOL0     H14735   9.880  10.426   8.392 -0.0417 -1.1671 -0.4105
  107MOL0     H14736   9.926  10.646   8.493  0.7288 -0.9256  1.3187
  107MOL0     H14737   9.752  10.672   8.530 -1.6270 -2.4829 -0.4080
  107MOL0     H14738   9.875  10.650   8.257  0.8248  0.3704  1.1733
  107MOL0     H14739   9.700  10.679   8.279  0.0914 -0.6831 -0.3355
  107MOL0     H14740   9.739  10.893   8.362 -1.1643 -1.6760  1.3866
  107MOL0     H14741   9.817  10.865   8.207 -3.0022 -2.3304  1.0131
  107MOL0     H14742  10.033  10.819   8.344  0.2861 -0.4844  1.9911
  107MOL0     H14743   9.954  10.864   8.495 -1.8815 -3.9863 -0.7812
  107MOL0     H14744  10.007  11.048   8.261 -0.6513 -2.4930 -0.4216
  107MOL0     H14745  10.104  11.052   8.405 -0.4200 -1.7494  3.0590
  107MOL0     H14746   9.789   9.978   8.781 -0.5838 -0.8371 -0.8017
  107MOL0     H14747   9.656   9.787   8.785 -0.5411 -0.1309  1.0243
  107MOL0     H14748   9.233   9.629   9.063  1.7055  1.3633 -0.5130
  107MOL0     H14749   9.121   9.417   9.064 -0.7550  0.8272 -1.0446
  107MOL0     H14750   8.234   9.402   9.718  0.2677  0.2342 -0.9026
  107MOL0     H14751   8.336   9.584   9.882 -0.8231  1.6799 -1.9433
  107MOL0     H14752   8.701   9.434  10.063 -0.8466 -1.5558 -1.2235
  107MOL0     H14753   8.656   9.290  10.248  0.8169  0.5605 -0.8496
  107MOL0     H14754   8.551   9.135  10.356 -0.4529  0.5633 -0.3478
  107MOL0     H14755   8.573   9.191  10.522 -2.1338  2.2339  1.7481
  107MOL0     H14756   8.374   9.082  10.577  2.3336 -0.1098  0.3138
  107MOL0     H14757   8.438   8.964  10.463 -2.5919 -1.4507  0.7352
  107MOL0     H14758   8.214   9.181  10.403 -1.5407 -2.0223 -0.7656
  107MOL0     H14759   8.283   9.077  10.274 -0.2505  2.4522 -1.2443
  107MOL0     H14760   8.068   9.030  10.455  0.6663  1.0557 -0.0856
  107MOL0     H14761   8.198   8.915  10.507 -2.4306 -0.6512 -0.5900
  107MOL0     H14762   8.087   8.753  10.129  0.9228 -0.2763  0.6698
  107MOL0     H14763   8.295   9.511  10.336 -0.5879 -2.7595 -1.3737
  107MOL0     H14764   8.260   9.695  10.242  0.3960 -1.2435  1.3262
  107MOL0     H14765   8.387   9.799  10.220  2.1013 -0.1591 -0.0952
  107MOL0     H14766   8.309   9.718  10.070  1.9070  1.9436 -0.5804
  108MOL0     O14767   9.023   2.366  11.378  0.4082  0.4358 -0.4507
  108MOL0     C14768   9.029   2.339  11.261  0.3639 -0.3008 -0.1246
  108MOL0     O14769   8.936   2.265  11.196 -0.0413  0.2938 -0.2873
  108MOL0     C14770   8.836   2.209  11.269  0.3618 -0.9424 -0.7984
  108MOL0     C14771   8.829   2.069  11.272  0.0406 -1.0446 -0.4091
  108MOL0     C14772   8.734   2.012  11.349 -0.0686 -0.4380 -0.5882
  108MOL0     C14773   8.634   2.079  11.418  0.4759 -0.8754  0.1427
  108MOL0     O14774   8.557   2.011  11.510 -0.4679 -0.2549  0.3295
  108MOL0     C14775   8.449   2.083  11.571 -0.0044 -0.2765 -0.7653
  108MOL0     C14776   8.356   1.991  11.640  0.1785 -0.2409 -1.0132
  108MOL0     C14777   8.287   1.902  11.539  0.4648  0.0884  0.1643
  108MOL0     C14778   8.201   1.806  11.616 -0.6551  0.2586  0.1524
  108MOL0     C14779   8.096   1.743  11.524 -1.0393 -0.0028 -0.5858
  108MOL0     C14780   8.152   1.648  11.426  0.3890  0.7402  0.1258
  108MOL0     C14781   8.037   1.577  11.356  0.6748  0.2052 -1.0750
  108MOL0     C14782   8.085   1.480  11.246  0.4535  0.0781  0.5796
  108MOL0     N14783   7.977   1.439  11.159 -0.0609 -0.6424 -0.0768
  108MOL0     C14784   7.874   1.363  11.203  0.7968  0.0208  0.7811
  108MOL0     C14785   7.784   1.369  11.101  0.6034 -0.7786 -0.0751
  108MOL0     C14786   7.643   1.305  11.115 -0.4826 -0.3517 -0.6674
  108MOL0     C14787   7.577   1.287  10.979 -0.1223  0.3549 -0.4280
  108MOL0     C14788   7.640   1.162  10.910  0.2405  0.5898 -0.0271
  108MOL0     C14789   7.564   1.138  10.781 -0.0498  0.2482 -0.1726
  108MOL0     O14790   7.431   1.093  10.812 -0.6072 -0.3791 -0.2953
  108MOL0     C14791   7.328   1.094  10.715 -0.9307  0.1593 -0.4078
  108MOL0     C14792   7.331   1.156  10.588 -0.2861  0.1351  0.6377
  108MOL0     C14793   7.231   1.139  10.490  0.0590  0.9554 -1.5057
  108MOL0     C14794   7.258   1.198  10.354 -0.0895 -0.0393 -0.5725
  108MOL0     C14795   7.117   1.059  10.516 -0.0199 -0.6018  0.2799
  108MOL0     C14796   6.989   1.059  10.434 -0.6100  1.5945  0.3501
  108MOL0     O14797   6.875   1.037  10.506  1.0359  0.0250  0.0299
  108MOL0     C14798   6.749   1.054  10.454 -0.3841  0.3503 -1.0368
  108MOL0     C14799   6.714   1.132  10.351 -0.3854 -0.4783 -1.1492
  108MOL0     C14800   6.579   1.148  10.303  0.3499  0.6145 -0.5844
  108MOL0     C14801   6.484   1.058  10.364  0.2551  0.4853  0.5654
  108MOL0     O14802   6.358   1.055  10.314 -0.2771  0.0967 -0.0146
  108MOL0     C14803   6.244   1.055  10.401 -0.9829 -0.2904 -0.2910
  108MOL0     C14804   6.224   1.184  10.487  0.6587  0.0627  0.2389
  108MOL0     C14805   6.294   1.182  10.617  0.0407  0.1587  0.1249
  108MOL0     C14806   6.246   1.299  10.714 -0.6093  0.2763  0.1845
  108MOL0     C14807   6.354   1.414  10.724 -1.0652 -0.7273  0.8013
  108MOL0     C14808   6.356   1.488  10.588 -1.2779  0.5808  0.2640
  108MOL0     C14809   6.222   1.527  10.530 -0.0738  1.0057  0.3944
  108MOL0     C14810   6.124   1.623  10.595  0.0288  0.1917 -0.1597
  108MOL0    Cl14811   6.198   1.786  10.604  0.3121 -0.1619  0.0528
  108MOL0     C14812   6.522   0.964  10.455 -0.5072 -0.7142 -0.8647
  108MOL0     C14813   6.644   0.973  10.514 -1.2637 -0.1803  0.0857
  108MOL0     O14814   7.007   1.054  10.308 -0.2437  0.1884  0.0087
  108MOL0     C14815   7.112   1.002  10.644 -0.0164  0.3127  1.1515
  108MOL0     C14816   7.211   1.016  10.740 -0.3879 -0.2377 -0.2201
  108MOL0     N14817   7.822   1.462  11.002 -0.3368  0.1845  0.7517
  108MOL0     N14818   7.940   1.499  11.046  0.2019 -0.1436 -0.0820
  108MOL0     C14819   8.632   2.223  11.407  0.0131 -0.5217  0.2124
  108MOL0     C14820   8.733   2.290  11.331  0.3958  0.1693  0.5594
  108MOL0     C14821   9.146   2.387  11.172 -0.0650 -0.4670 -0.3791
  108MOL0     C14822   9.132   2.376  11.041  0.1081  0.1402  0.8449
  108MOL0     C14823   9.223   2.418  10.941 -0.3396 -0.2479  0.1623
  108MOL0     C14824   9.346   2.475  10.982 -0.5073 -0.4429  0.2203
  108MOL0     O14825   9.432   2.518  10.881 -0.6952  0.0086  0.0010
  108MOL0     C14826   9.566   2.478  10.910  0.1531  0.7870  0.5763
  108MOL0     C14827   9.658   2.502  10.794 -0.7598 -0.4030  0.4334
  108MOL0     C14828   9.675   2.649  10.773 -0.3401  0.2940 -0.2279
  108MOL0     C14829   9.740   2.676  10.641  0.2948  0.7209 -1.0665
  108MOL0     C14830   9.776   2.820  10.610 -0.2466  0.0213 -0.0040
  108MOL0     C14831   9.805   2.938  10.585  1.1466  0.6132  0.0737
  108MOL0     C14832   9.362   2.494  11.118  0.8656 -1.2627  0.8724
  108MOL0     C14833   9.264   2.442  11.214 -0.2758 -0.7356 -0.1972
  108MOL0     C14834   9.290   2.469  11.363 -1.2597 -0.1903  0.1018
  108MOL0     H14835   8.906   2.002  11.237  1.7453  1.1548 -1.1400
  108MOL0     H14836   8.745   1.907  11.376 -2.0742  0.0644  2.8492
  108MOL0     H14837   8.388   2.142  11.502  0.5930  1.7428  0.3509
  108MOL0     H14838   8.485   2.156  11.644 -0.0398 -1.3668  0.3611
  108MOL0     H14839   8.418   1.934  11.709 -2.4188  2.0894  3.7610
  108MOL0     H14840   8.300   2.057  11.706  0.0057 -1.7649  0.4406
  108MOL0     H14841   8.232   1.973  11.477  2.2338  0.4238 -1.0914
  108MOL0     H14842   8.367   1.852  11.483 -0.1180  1.8130 -2.3924
  108MOL0     H14843   8.253   1.729  11.673 -2.9522 -0.6945  1.1185
  108MOL0     H14844   8.149   1.870  11.688 -1.5896  0.3577 -0.5793
  108MOL0     H14845   8.044   1.816  11.462 -4.3937 -0.5472  1.3514
  108MOL0     H14846   8.024   1.692  11.589 -0.8882  3.1021  2.3085
  108MOL0     H14847   8.214   1.687  11.344  0.0341 -0.6848 -0.8681
  108MOL0     H14848   8.209   1.565  11.470  0.3387 -0.4725 -1.9588
  108MOL0     H14849   7.972   1.658  11.320 -3.5333 -1.6514  1.5969
  108MOL0     H14850   7.972   1.537  11.433  0.4211  4.8221  1.5112
  108MOL0     H14851   8.163   1.529  11.187  2.7887 -0.4779  2.9974
  108MOL0     H14852   8.127   1.395  11.301 -0.2566  0.2017  1.3263
  108MOL0     H14853   7.863   1.302  11.292 -3.2976 -3.0375 -1.4678
  108MOL0     H14854   7.581   1.379  11.166 -1.5311 -0.3239 -1.9447
  108MOL0     H14855   7.654   1.211  11.169 -0.9526 -1.3738 -2.2720
  108MOL0     H14856   7.470   1.286  11.002 -0.2995 -0.2930 -1.2460
  108MOL0     H14857   7.602   1.370  10.911  0.8033  2.8424  2.7122
  108MOL0     H14858   7.749   1.173  10.904  0.1485  0.6423 -3.4224
  108MOL0     H14859   7.628   1.075  10.975  2.6943  0.0750 -0.1728
  108MOL0     H14860   7.568   1.233  10.727  1.2904  0.3813  0.1257
  108MOL0     H14861   7.611   1.060  10.719 -4.1863 -0.7876 -2.3388
  108MOL0     H14862   7.405   1.231  10.559 -0.0324 -1.0335 -2.0984
  108MOL0     H14863   7.159   1.224  10.316 -1.0749 -0.1177  1.8106
  108MOL0     H14864   7.327   1.136  10.296  3.4026  2.5938  0.4187
  108MOL0     H14865   7.311   1.293  10.363 -4.0114  2.2891  0.4042
  108MOL0     H14866   6.780   1.205  10.304 -1.1604 -1.8552 -4.7007
  108MOL0     H14867   6.563   1.227  10.229 -2.5436  1.6215  0.9251
  108MOL0     H14868   6.158   1.048  10.333 -2.6719  1.0805  1.5790
  108MOL0     H14869   6.245   0.968  10.467  3.1548 -0.0121  0.2362
  108MOL0     H14870   6.251   1.271  10.426  0.4183  0.5134  0.7646
  108MOL0     H14871   6.116   1.185  10.508  1.0944 -0.8727  2.8447
  108MOL0     H14872   6.400   1.198  10.596  0.0273 -0.2283 -0.2712
  108MOL0     H14873   6.278   1.082  10.660 -1.0505 -0.6610 -2.0157
  108MOL0     H14874   6.242   1.254  10.813  0.9211 -0.0744  0.1102
  108MOL0     H14875   6.143   1.328  10.690 -1.5006 -2.4617  0.3829
  108MOL0     H14876   6.315   1.475  10.806 -1.4873  0.6513 -0.3873
  108MOL0     H14877   6.456   1.388  10.755  0.7454  2.1579 -2.0647
  108MOL0     H14878   6.408   1.419  10.522 -0.2789  2.7004 -1.2755
  108MOL0     H14879   6.420   1.576  10.601 -0.1581 -0.4348  1.9509
  108MOL0     H14880   6.160   1.437  10.520 -2.8771  2.5556  2.5146
  108MOL0     H14881   6.248   1.568  10.431 -0.0956 -3.6859 -1.8181
  108MOL0     H14882   6.097   1.612  10.700  0.4245  0.2278 -0.0532
  108MOL0     H14883   6.036   1.606  10.533 -0.1302  1.8347 -0.4364
  108MOL0     H14884   6.450   0.897  10.501 -0.3526 -0.2057  0.1571
  108MOL0     H14885   6.679   0.919  10.601 -0.2517 -0.1085 -0.2625
  108MOL0     H14886   7.034   0.936  10.681  0.2772 -0.6903  0.0382
  108MOL0     H14887   7.186   0.988  10.841  0.3148  3.9886  1.3463
  108MOL0     H14888   8.560   2.274  11.470 -2.6192 -4.1780  0.4719
  108MOL0     H14889   8.736   2.398  11.328  1.0693  0.2600  2.8856
  108MOL0     H14890   9.041   2.333  11.001  0.2909 -2.4897  2.9358
  108MOL0     H14891   9.214   2.405  10.834 -0.6398  0.6651  0.0693
  108MOL0     H14892   9.605   2.532  10.996 -0.4626  0.9706  0.7396
  108MOL0     H14893   9.566   2.371  10.933 -0.7977  0.5050 -0.6212
  108MOL0     H14894   9.621   2.446  10.707  0.7049 -1.0677  0.2148
  108MOL0     H14895   9.755   2.457  10.816  0.2339 -0.4627 -3.3172
  108MOL0     H14896   9.572   2.687  10.774 -0.5350  0.0004  3.5173
  108MOL0     H14897   9.734   2.687  10.856 -1.5049  2.2531 -0.2422
  108MOL0     H14898   9.681   2.632  10.560  0.5072 -0.0824 -0.7865
  108MOL0     H14899   9.832   2.618  10.654 -1.2590 -1.4582  1.2246
  108MOL0     H14900   9.848   3.023  10.535  2.0646  0.9718  1.4065
  108MOL0     H14901   9.445   2.557  11.150  1.6326 -1.0215 -1.4220
  108MOL0     H14902   9.227   2.548  11.405 -0.9354 -1.0983  2.4183
  108MOL0     H14903   9.276   2.388  11.435 -0.1461  2.2813  3.3244
  108MOL0     H14904   9.395   2.495  11.375 -1.2681  0.7617 -1.5685
  109MOL0     O14905   0.197   2.682   9.440  0.4253 -0.0614 -0.1467
  109MOL0     C14906   0.205   2.753   9.343 -1.3545 -0.0325 -0.1152
  109MOL0     O14907   0.323   2.801   9.288  0.2883  1.2179  0.1042
  109MOL0     C14908   0.426   2.799   9.381  0.4002  0.2812 -0.1952
  109MOL0     C14909   0.490   2.675   9.403  0.0243 -0.5804 -0.1148
  109MOL0     C14910   0.589   2.676   9.502 -0.2622 -0.0865 -0.0912
  109MOL0     C14911   0.619   2.794   9.589 -0.1445 -0.6612 -0.1316
  109MOL0     O14912   0.720   2.789   9.689 -0.3710  0.4534 -0.3991
  109MOL0     C14913   0.803   2.899   9.722 -0.6142 -0.7700 -0.0043
  109MOL0     C14914   0.930   2.837   9.779  0.0306 -1.1882  0.9488
  109MOL0     C14915   1.027   2.964   9.811 -0.0376 -0.3449  0.3352
  109MOL0     C14916   1.000   3.026   9.950 -0.0686 -0.9942 -0.1935
  109MOL0     C14917   1.105   3.129  10.006 -0.1791  0.2652 -0.1439
  109MOL0     C14918   1.077   3.184  10.145  0.2210 -0.2547  0.6619
  109MOL0     C14919   1.204   3.239  10.220 -0.1033 -0.9320  1.3612
  109MOL0     C14920   1.319   3.147  10.236  0.3686  0.5364 -0.4756
  109MOL0     N14921   1.430   3.216  10.295  0.4047 -0.8793  0.7686
  109MOL0     C14922   1.434   3.256  10.427  0.8290  0.3276 -0.0683
  109MOL0     C14923   1.543   3.337  10.442 -0.0734 -0.7968 -0.4781
  109MOL0     C14924   1.568   3.392  10.578 -0.1187 -0.7702 -0.6737
  109MOL0     C14925   1.454   3.490  10.617  0.8468 -0.5323  0.3163
  109MOL0     C14926   1.445   3.521  10.763 -0.1900  0.1449  0.6978
  109MOL0     C14927   1.345   3.635  10.784  0.4806 -0.2437 -0.6364
  109MOL0     O14928   1.336   3.655  10.927 -0.0824  0.9357 -0.0594
  109MOL0     C14929   1.414   3.743  11.001 -1.2534  0.2391  0.9114
  109MOL0     C14930   1.515   3.825  10.945 -1.3080 -0.6197 -0.0604
  109MOL0     C14931   1.606   3.903  11.024 -0.0196 -0.4331  0.2759
  109MOL0     C14932   1.728   3.959  10.952  0.5152 -0.1388 -0.4749
  109MOL0     C14933   1.589   3.910  11.172  0.7238  0.8767  0.7316
  109MOL0     C14934   1.666   3.987  11.269 -0.9475 -0.8277  0.3942
  109MOL0     O14935   1.621   3.991  11.397 -0.2506  0.5461 -0.1964
  109MOL0     C14936   1.715   3.987  11.506  1.2597 -0.0185  0.4239
  109MOL0     C14937   1.860   3.989  11.505 -0.0826 -0.3308 -0.2875
  109MOL0     C14938   1.924   3.989  11.630 -0.3113 -0.6292  0.4593
  109MOL0     C14939   1.856   3.963  11.748  0.5570  0.5717  0.3935
  109MOL0     O14940   1.913   3.945  11.868  0.4312  0.3249  0.1211
  109MOL0     C14941   2.055   3.960  11.895  0.1025  0.0050  0.0088
  109MOL0     C14942   2.082   3.901  12.032  0.4718 -0.2677 -0.0381
  109MOL0     C14943   2.103   4.011  12.144 -0.9306 -0.2260 -0.5315
  109MOL0     C14944   2.107   3.971  12.287  0.3174 -0.6663 -1.3611
  109MOL0     C14945   2.199   3.856  12.311 -1.4862  0.7424 -0.0476
  109MOL0     C14946   2.277   3.865  12.448  0.0904  0.0679 -0.6175
  109MOL0     C14947   2.381   3.757  12.480  0.0039 -0.4987  0.1260
  109MOL0     C14948   2.521   3.782  12.415 -0.9176 -0.0113 -0.5284
  109MOL0    Cl14949   2.610   3.896  12.508  0.7062  0.2528  0.0107
  109MOL0     C14950   1.717   3.954  11.749  0.5516 -0.9619  1.1415
  109MOL0     C14951   1.649   3.974  11.629 -0.5590  0.3447 -0.1155
  109MOL0     O14952   1.771   4.039  11.226  0.0165 -0.3710 -0.9453
  109MOL0     C14953   1.481   3.833  11.222  0.6658  0.1914 -0.8912
  109MOL0     C14954   1.399   3.749  11.140 -0.7555  0.1116 -0.2926
  109MOL0     N14955   1.613   3.337  10.324  0.6251 -0.4660  1.3589
  109MOL0     N14956   1.542   3.272  10.235 -0.2797  0.2759 -1.3184
  109MOL0     C14957   0.559   2.915   9.549 -0.2029 -0.0975 -0.5077
  109MOL0     C14958   0.455   2.919   9.447 -0.3386 -0.8889 -0.1427
  109MOL0     C14959   0.086   2.795   9.262  0.3978  0.6168 -0.2721
  109MOL0     C14960   0.095   2.880   9.146  0.5041  0.6201  0.0809
  109MOL0     C14961  -0.013   2.927   9.071  1.2715 -0.0231 -0.0105
  109MOL0     C14962  -0.136   2.886   9.112  0.6647 -0.2605  0.7199
  109MOL0     O14963  -0.246   2.911   9.036 -0.0047 -0.1721 -0.0618
  109MOL0     C14964  -0.244   2.976   8.915 -1.3161  0.0919  0.5195
  109MOL0     C14965  -0.385   2.974   8.848  0.2879 -0.6996 -0.5875
  109MOL0     C14966  -0.507   3.020   8.933  0.0704  1.4782  0.0337
  109MOL0     C14967  -0.645   3.026   8.856  0.1622 -0.5207  0.0647
  109MOL0     C14968  -0.648   3.114   8.739  0.5123  0.0647 -0.3146
  109MOL0     C14969  -0.637   3.170   8.631 -0.0969 -0.7940  0.1610
  109MOL0     C14970  -0.154   2.798   9.213 -0.3809  0.1414 -0.2874
  109MOL0     C14971  -0.047   2.754   9.296  0.0552  0.4855  0.6323
  109MOL0     C14972  -0.087   2.651   9.406  0.2222 -0.5317 -0.4927
  109MOL0     H14973   0.456   2.590   9.346 -1.6687 -0.5385  0.7801
  109MOL0     H14974   0.638   2.583   9.529 -1.3027 -0.4191  0.7498
  109MOL0     H14975   0.754   2.941   9.810 -2.3471 -1.4897 -0.5755
  109MOL0     H14976   0.828   2.967   9.640 -0.3804 -2.1309 -1.0972
  109MOL0     H14977   0.906   2.774   9.865  0.3392 -1.8451  0.5669
  109MOL0     H14978   0.983   2.772   9.709  0.5224 -0.9612  1.1049
  109MOL0     H14979   1.129   2.925   9.821 -1.0654 -2.9340  2.0043
  109MOL0     H14980   1.017   3.038   9.731  2.0168  0.2407  0.5539
  109MOL0     H14981   0.906   3.081   9.951 -0.5889 -1.8387 -0.8965
  109MOL0     H14982   1.019   2.950  10.027  1.6365 -0.5627 -0.1479
  109MOL0     H14983   1.120   3.206   9.929  4.6985 -0.7501 -0.4879
  109MOL0     H14984   1.197   3.071  10.013  0.3621  1.0582 -0.5337
  109MOL0     H14985   0.995   3.256  10.148  1.0908  0.7814  0.5343
  109MOL0     H14986   1.032   3.104  10.203 -3.2180  1.2237  0.2455
  109MOL0     H14987   1.174   3.272  10.320 -0.1566 -0.4598  1.1890
  109MOL0     H14988   1.237   3.326  10.163  1.2297  0.2044  3.7254
  109MOL0     H14989   1.289   3.073  10.311 -3.6705  1.4718 -0.9356
  109MOL0     H14990   1.357   3.106  10.142 -2.1479 -0.2381 -1.2194
  109MOL0     H14991   1.364   3.228  10.505 -1.6405  0.0938 -2.2132
  109MOL0     H14992   1.666   3.441  10.579 -2.1264  3.7436  0.9144
  109MOL0     H14993   1.567   3.308  10.649  1.7018 -1.1241 -1.0183
  109MOL0     H14994   1.485   3.585  10.572 -2.4227  1.0175  1.0346
  109MOL0     H14995   1.361   3.457  10.570  1.6909 -2.5384 -0.0285
  109MOL0     H14996   1.420   3.429  10.816  1.2265 -2.1544 -2.3524
  109MOL0     H14997   1.540   3.564  10.796  1.0741 -3.5595  2.4296
  109MOL0     H14998   1.364   3.721  10.718  0.4499 -0.3852 -0.8295
  109MOL0     H14999   1.243   3.608  10.757 -0.5392 -1.0073  3.3663
  109MOL0     H15000   1.525   3.822  10.837 -3.4699  0.6573 -0.3515
  109MOL0     H15001   1.821   3.951  11.009  0.1646  0.0290  0.1297
  109MOL0     H15002   1.721   4.066  10.929  1.4692 -0.3956 -2.1370
  109MOL0     H15003   1.745   3.908  10.856  2.4484 -4.0126  1.6684
  109MOL0     H15004   1.934   3.993  11.426  2.5418  2.8065  2.0812
  109MOL0     H15005   2.032   3.991  11.642 -0.4145 -2.2430  2.1146
  109MOL0     H15006   2.119   3.921  11.815  5.1747  4.8032  1.0786
  109MOL0     H15007   2.083   4.066  11.896  0.5519 -0.0687  3.0186
  109MOL0     H15008   1.999   3.836  12.063  0.2405 -1.2369 -2.4596
  109MOL0     H15009   2.170   3.836  12.028 -0.0764 -1.3482  3.0100
  109MOL0     H15010   2.027   4.088  12.127 -1.6549 -1.4096 -3.1587
  109MOL0     H15011   2.198   4.057  12.115  0.0389 -3.3352 -2.8052
  109MOL0     H15012   2.001   3.961  12.315  0.0494  2.1937 -1.0625
  109MOL0     H15013   2.137   4.060  12.342 -0.1339 -1.0077 -0.5402
  109MOL0     H15014   2.139   3.765  12.308 -3.1763  1.7085  1.7939
  109MOL0     H15015   2.272   3.840  12.232  0.1988  1.8551  1.2184
  109MOL0     H15016   2.197   3.839  12.518 -1.6514 -3.5108 -3.5817
  109MOL0     H15017   2.320   3.963  12.468  0.5259  0.5069 -3.2573
  109MOL0     H15018   2.330   3.666  12.448 -1.1048 -0.2323  1.0664
  109MOL0     H15019   2.389   3.761  12.589  1.9208 -0.4063  0.0178
  109MOL0     H15020   2.509   3.823  12.314  0.0483 -0.3138 -0.7752
  109MOL0     H15021   2.579   3.689  12.413  0.7552  0.8537  2.2697
  109MOL0     H15022   1.658   3.945  11.839 -1.3457  0.8166  0.1760
  109MOL0     H15023   1.540   3.973  11.634 -0.6546  1.2021 -1.4701
  109MOL0     H15024   1.461   3.825  11.329 -3.5214  1.8425 -1.3472
  109MOL0     H15025   1.327   3.691  11.197  1.9976 -1.5272  1.8164
  109MOL0     H15026   0.586   3.004   9.604  2.3229 -2.4858  2.5428
  109MOL0     H15027   0.408   3.013   9.421 -0.0464 -0.7113 -0.0267
  109MOL0     H15028   0.189   2.906   9.098  0.2245  2.1477  0.3291
  109MOL0     H15029  -0.003   2.985   8.980 -1.9438 -2.0164 -1.8144
  109MOL0     H15030  -0.205   3.078   8.927  1.9150 -1.2649  3.3887
  109MOL0     H15031  -0.182   2.922   8.843  0.7079 -0.3467  2.4800
  109MOL0     H15032  -0.414   2.872   8.822  1.1401 -0.1633 -4.0306
  109MOL0     H15033  -0.389   3.035   8.757 -2.3090 -1.1956 -0.9077
  109MOL0     H15034  -0.513   2.939   9.006 -1.2383  1.5907  0.0652
  109MOL0     H15035  -0.491   3.117   8.981 -1.8784  2.0604 -0.4056
  109MOL0     H15036  -0.734   3.058   8.912 -0.6207  0.6044 -1.7053
  109MOL0     H15037  -0.660   2.923   8.821 -0.1844 -0.8300  1.1114
  109MOL0     H15038  -0.629   3.219   8.536  0.6078 -1.8717 -0.3509
  109MOL0     H15039  -0.250   2.749   9.229  1.5596 -4.6464 -1.3400
  109MOL0     H15040  -0.191   2.659   9.439  0.2045 -2.8175  0.1506
  109MOL0     H15041  -0.085   2.558   9.348 -2.4337 -1.1503  0.2850
  109MOL0     H15042  -0.024   2.639   9.494 -2.2531  0.3613  1.5207
  110MOL0     O15043   4.629   0.888   3.794  0.1344  0.9432  0.0102
  110MOL0     C15044   4.570   0.787   3.751 -0.2507 -0.2513 -0.7329
  110MOL0     O15045   4.620   0.661   3.724  0.5033 -0.0609 -0.6173
  110MOL0     C15046   4.750   0.619   3.729 -0.0796  0.8475  0.6617
  110MOL0     C15047   4.763   0.483   3.685  0.1738 -0.5153  0.8911
  110MOL0     C15048   4.885   0.416   3.678  0.2770 -0.8380 -0.6019
  110MOL0     C15049   4.995   0.491   3.708  0.1147  0.1691 -0.2249
  110MOL0     O15050   5.120   0.424   3.705  0.8213  0.5640  0.3622
  110MOL0     C15051   5.219   0.470   3.800  0.4419 -0.3353  0.9027
  110MOL0     C15052   5.305   0.361   3.866 -0.1528 -0.2058  0.5804
  110MOL0     C15053   5.409   0.416   3.962  0.1980 -0.3736  0.4084
  110MOL0     C15054   5.433   0.328   4.081 -0.0953 -0.0694  0.4694
  110MOL0     C15055   5.535   0.393   4.178  0.6201 -0.3305 -0.2532
  110MOL0     C15056   5.484   0.519   4.243 -0.7408 -0.7897 -1.5476
  110MOL0     C15057   5.553   0.535   4.384  1.1134 -0.4157 -0.1086
  110MOL0     C15058   5.490   0.649   4.466 -0.6300  0.1718  0.3180
  110MOL0     N15059   5.546   0.778   4.416 -0.7225  0.8714  0.0352
  110MOL0     C15060   5.490   0.878   4.341  0.3370 -0.5128  0.4780
  110MOL0     C15061   5.591   0.959   4.303  0.5230 -0.2374  0.0547
  110MOL0     C15062   5.598   1.074   4.206  0.3978 -0.9911 -0.3901
  110MOL0     C15063   5.466   1.086   4.143  0.1538  0.0754 -0.9551
  110MOL0     C15064   5.454   1.193   4.041 -0.6055 -0.6815 -0.0956
  110MOL0     C15065   5.323   1.191   3.959 -0.7495  0.3710  0.5485
  110MOL0     O15066   5.296   1.320   3.893  0.5341  0.3372  0.4653
  110MOL0     C15067   5.391   1.355   3.796  0.0882 -0.2715 -0.3104
  110MOL0     C15068   5.491   1.451   3.814 -0.2514 -0.6189  0.7819
  110MOL0     C15069   5.565   1.504   3.706  0.5218  0.9946 -0.3124
  110MOL0     C15070   5.667   1.613   3.748 -0.0547 -0.1076 -0.0578
  110MOL0     C15071   5.539   1.450   3.573 -1.1137 -0.0335 -0.2041
  110MOL0     C15072   5.606   1.504   3.454 -0.1246 -1.1004  0.8926
  110MOL0     O15073   5.560   1.443   3.337  0.1041 -0.1950 -0.3327
  110MOL0     C15074   5.603   1.483   3.211  0.0150 -0.0671  0.3309
  110MOL0     C15075   5.742   1.489   3.181  0.3629  0.4616  0.3510
  110MOL0     C15076   5.787   1.515   3.049  0.0463 -0.5924 -0.3393
  110MOL0     C15077   5.693   1.558   2.947  0.7271 -0.9549  0.3785
  110MOL0     O15078   5.714   1.584   2.818 -1.3420 -0.0048  0.1006
  110MOL0     C15079   5.846   1.539   2.777  0.0011 -0.1829  0.2161
  110MOL0     C15080   5.841   1.523   2.630  0.8232  0.5263  0.1321
  110MOL0     C15081   5.983   1.545   2.572 -0.1811  0.4887  0.0424
  110MOL0     C15082   5.987   1.537   2.418 -0.0409 -0.3866 -0.0746
  110MOL0     C15083   6.136   1.559   2.376  0.1111 -0.4431  0.6447
  110MOL0     C15084   6.153   1.588   2.230 -0.2121  0.9973  1.0547
  110MOL0     C15085   6.290   1.658   2.190  0.1552 -0.6150 -0.0468
  110MOL0     C15086   6.311   1.672   2.039 -0.0384  0.1247  0.0463
  110MOL0    Cl15087   6.199   1.780   1.965  0.1273 -0.4738 -0.3676
  110MOL0     C15088   5.555   1.556   2.980  0.6744  0.4740  0.9624
  110MOL0     C15089   5.511   1.514   3.109 -0.5156 -0.1156  0.7985
  110MOL0     O15090   5.693   1.593   3.454  0.3741 -0.2436 -0.4943
  110MOL0     C15091   5.444   1.351   3.559 -1.1624  0.3880  0.1407
  110MOL0     C15092   5.378   1.310   3.675 -0.0538  0.8680  0.3940
  110MOL0     N15093   5.700   0.917   4.376  0.1221  0.4221 -0.7743
  110MOL0     N15094   5.675   0.817   4.454  0.2173  0.3346  0.7021
  110MOL0     C15095   4.987   0.628   3.752  0.5292  0.3288  0.8934
  110MOL0     C15096   4.863   0.692   3.759  0.5295  0.0711 -0.3263
  110MOL0     C15097   4.432   0.807   3.706  0.8533  0.0363 -0.5721
  110MOL0     C15098   4.399   0.938   3.658  0.3864  0.3087  0.4438
  110MOL0     C15099   4.265   0.974   3.616  0.1509  0.8803  0.1259
  110MOL0     C15100   4.161   0.878   3.625 -0.4044 -0.2231  0.3141
  110MOL0     O15101   4.026   0.894   3.604 -0.1333 -0.2540  0.0656
  110MOL0     C15102   3.988   1.032   3.572  0.3080  0.4700  0.0645
  110MOL0     C15103   3.835   1.027   3.569  0.1557  0.4750  0.5037
  110MOL0     C15104   3.770   1.019   3.709 -0.1569 -0.1590  0.4956
  110MOL0     C15105   3.620   0.971   3.714 -0.1627 -0.3605  0.0634
  110MOL0     C15106   3.585   0.944   3.858  1.3467 -1.0770 -0.3978
  110MOL0     C15107   3.548   0.910   3.968 -0.5772  0.1989 -1.0296
  110MOL0     C15108   4.202   0.752   3.668 -0.2047  0.0931 -0.4604
  110MOL0     C15109   4.330   0.713   3.701 -0.1274  0.3460  0.8058
  110MOL0     C15110   4.350   0.574   3.748  0.2751  0.2319  0.1038
  110MOL0     H15111   4.673   0.434   3.649  0.1167 -1.7863  2.6052
  110MOL0     H15112   4.904   0.324   3.624  2.2361  0.5092 -2.3985
  110MOL0     H15113   5.161   0.511   3.883  2.4353  0.7062  1.8487
  110MOL0     H15114   5.264   0.551   3.742 -1.2412 -1.3388 -1.9532
  110MOL0     H15115   5.247   0.296   3.932  1.2155  0.0891  2.1427
  110MOL0     H15116   5.341   0.285   3.797  1.3811 -1.5783  2.7553
  110MOL0     H15117   5.505   0.416   3.909 -0.9996  1.0890 -1.9256
  110MOL0     H15118   5.395   0.520   3.995  3.7757  0.4389 -0.1827
  110MOL0     H15119   5.343   0.317   4.141  0.5934 -1.6291  1.2957
  110MOL0     H15120   5.479   0.233   4.051  0.3346  0.9892 -2.5095
  110MOL0     H15121   5.638   0.414   4.145  0.7424  0.9944  0.8533
  110MOL0     H15122   5.539   0.325   4.263  0.0298 -0.6003 -0.4376
  110MOL0     H15123   5.528   0.602   4.188  1.5796 -0.8989  0.0355
  110MOL0     H15124   5.374   0.517   4.247 -0.9509  2.9570 -1.1927
  110MOL0     H15125   5.660   0.552   4.364  1.4733  0.0834  1.9561
  110MOL0     H15126   5.539   0.444   4.444 -1.4542 -0.5259 -0.7759
  110MOL0     H15127   5.382   0.658   4.449 -0.3526  2.7264 -0.5828
  110MOL0     H15128   5.506   0.635   4.573 -0.2256  2.4312  0.5964
  110MOL0     H15129   5.395   0.873   4.288  0.5268 -1.7685  0.2361
  110MOL0     H15130   5.671   1.069   4.125 -1.1681 -2.5930 -1.7871
  110MOL0     H15131   5.618   1.164   4.266 -1.8883  0.1238 -1.2144
  110MOL0     H15132   5.435   0.992   4.097 -0.5297 -0.4560  0.5267
  110MOL0     H15133   5.387   1.107   4.216 -0.4125  0.5177 -1.6810
  110MOL0     H15134   5.474   1.288   4.093 -0.9175 -0.7102  0.0778
  110MOL0     H15135   5.534   1.180   3.967  0.7045  3.8159  0.2314
  110MOL0     H15136   5.335   1.110   3.887  3.3622  2.9023 -2.0139
  110MOL0     H15137   5.244   1.168   4.031 -0.7944 -2.0350 -0.1769
  110MOL0     H15138   5.504   1.485   3.916  1.9691 -0.5640  0.5259
  110MOL0     H15139   5.684   1.694   3.677  5.1656 -0.7152  0.1614
  110MOL0     H15140   5.765   1.568   3.763  0.3078  0.7405  0.1491
  110MOL0     H15141   5.624   1.660   3.838  0.7369 -0.2483  0.3978
  110MOL0     H15142   5.810   1.456   3.259 -0.9718  0.2736  1.4850
  110MOL0     H15143   5.895   1.526   3.043  0.1541  2.3158  3.3108
  110MOL0     H15144   5.921   1.612   2.806 -0.3187  1.6851 -3.2188
  110MOL0     H15145   5.878   1.448   2.830  2.6692  0.9522  0.7000
  110MOL0     H15146   5.810   1.422   2.601  0.1262  1.4543 -2.6962
  110MOL0     H15147   5.777   1.598   2.583  1.8689  1.1155 -0.3729
  110MOL0     H15148   6.060   1.475   2.606 -0.1666  0.6629  0.3683
  110MOL0     H15149   6.013   1.642   2.613 -4.0102  2.6972 -1.7927
  110MOL0     H15150   5.924   1.610   2.366  0.2524  0.1665  0.3333
  110MOL0     H15151   5.954   1.436   2.393 -0.0756  0.3440 -3.3799
  110MOL0     H15152   6.182   1.635   2.439  1.7429 -0.5480 -0.3560
  110MOL0     H15153   6.199   1.472   2.401  3.3301  1.6698  0.4607
  110MOL0     H15154   6.077   1.659   2.195 -0.0826 -0.7657 -3.3960
  110MOL0     H15155   6.136   1.491   2.182  1.7536  1.0669  0.1581
  110MOL0     H15156   6.371   1.592   2.221  0.9838 -1.2490 -3.1541
  110MOL0     H15157   6.292   1.754   2.242 -1.6886 -1.9147  2.6315
  110MOL0     H15158   6.303   1.579   1.981  0.3561  0.3014 -0.2998
  110MOL0     H15159   6.412   1.714   2.032  0.9815 -1.8925  1.5645
  110MOL0     H15160   5.480   1.577   2.904  3.1537  1.3439 -1.4068
  110MOL0     H15161   5.407   1.501   3.139 -1.0224  2.3270  0.3009
  110MOL0     H15162   5.421   1.294   3.469 -1.4999 -2.1132  1.7028
  110MOL0     H15163   5.302   1.234   3.657 -2.8214  3.5024  0.0196
  110MOL0     H15164   5.073   0.684   3.789  0.6888  0.6637  0.0239
  110MOL0     H15165   4.854   0.789   3.805 -3.8356 -1.3552  2.5061
  110MOL0     H15166   4.469   1.019   3.675 -0.6976  1.1789  0.8966
  110MOL0     H15167   4.250   1.078   3.589 -0.3600  0.1726 -2.5897
  110MOL0     H15168   4.027   1.102   3.647  0.7828  0.9343 -0.5935
  110MOL0     H15169   4.019   1.069   3.473 -3.1803  4.8100  0.2464
  110MOL0     H15170   3.804   0.944   3.505 -1.9596  0.7061  1.1468
  110MOL0     H15171   3.808   1.119   3.518  1.9897  1.0009  0.4109
  110MOL0     H15172   3.831   0.957   3.776 -1.5680 -0.8543  1.1745
  110MOL0     H15173   3.761   1.120   3.750 -0.8766  1.0603 -2.4082
  110MOL0     H15174   3.601   0.874   3.667  0.2640 -2.6593  4.1305
  110MOL0     H15175   3.562   1.039   3.651  3.2819  2.1061 -0.7186
  110MOL0     H15176   3.530   0.890   4.072  2.2655 -0.6977 -0.6234
  110MOL0     H15177   4.126   0.674   3.672  0.2130 -0.2816  3.0499
  110MOL0     H15178   4.416   0.511   3.688 -2.3057 -1.6142 -0.9987
  110MOL0     H15179   4.398   0.582   3.846  1.9181  4.6211 -0.8386
  110MOL0     H15180   4.252   0.526   3.758  0.7426 -0.5298  1.2156
  111MOL0     O15181   2.564   4.814   2.370 -0.0496 -0.8891 -0.0706
  111MOL0     C15182   2.621   4.840   2.474 -0.8983  0.6110 -1.1094
  111MOL0     O15183   2.630   4.967   2.533  0.6939  0.5822  0.2761
  111MOL0     C15184   2.568   5.072   2.466  0.9822 -0.4714 -1.0018
  111MOL0     C15185   2.648   5.144   2.377  0.0371  0.3423 -0.0452
  111MOL0     C15186   2.601   5.251   2.310  0.2584 -0.3897  0.3428
  111MOL0     C15187   2.478   5.308   2.342  0.7656 -0.3000 -0.4954
  111MOL0     O15188   2.424   5.420   2.284  0.4601 -0.4942 -0.3087
  111MOL0     C15189   2.514   5.531   2.270  0.1469 -0.0786  0.7464
  111MOL0     C15190   2.447   5.658   2.220  0.1066  0.9726  1.4618
  111MOL0     C15191   2.533   5.756   2.137 -1.1303  0.5755 -0.0946
  111MOL0     C15192   2.463   5.887   2.102  0.3403  0.1182 -0.2852
  111MOL0     C15193   2.534   5.963   1.985  0.4946 -0.1317 -0.2723
  111MOL0     C15194   2.537   5.901   1.848 -0.8853 -0.7230  0.1202
  111MOL0     C15195   2.398   5.880   1.794 -0.6180  0.6648 -0.2948
  111MOL0     C15196   2.405   5.840   1.645  0.5152  0.0918 -0.1544
  111MOL0     N15197   2.465   5.710   1.615 -1.4746  0.2867 -0.5024
  111MOL0     C15198   2.414   5.593   1.666  0.8518  0.6533  0.5251
  111MOL0     C15199   2.511   5.507   1.657  1.0931  0.2001  0.6187
  111MOL0     C15200   2.515   5.365   1.708  0.3699 -0.1120  0.8461
  111MOL0     C15201   2.571   5.259   1.602  1.1188  0.2084  1.4527
  111MOL0     C15202   2.535   5.115   1.622  0.3551  0.3683 -0.3676
  111MOL0     C15203   2.385   5.074   1.602 -0.2215 -0.4429 -0.6121
  111MOL0     O15204   2.331   5.121   1.474  0.8145  0.7431  0.1690
  111MOL0     C15205   2.199   5.094   1.433  0.5133  0.3394  0.1568
  111MOL0     C15206   2.144   5.150   1.322 -0.0283  0.5606 -0.3063
  111MOL0     C15207   2.011   5.118   1.273 -0.0250  0.6349  0.8284
  111MOL0     C15208   1.974   5.178   1.143  0.1896  0.1083  0.3697
  111MOL0     C15209   1.932   5.032   1.354  0.8949  0.0662  0.4597
  111MOL0     C15210   1.805   4.972   1.310  0.9365 -0.2455 -0.0098
  111MOL0     O15211   1.767   4.856   1.380  0.1574 -0.3182 -0.7662
  111MOL0     C15212   1.658   4.794   1.334 -0.1355  0.1817 -0.6056
  111MOL0     C15213   1.639   4.761   1.202 -0.7810 -0.2390 -0.3561
  111MOL0     C15214   1.515   4.687   1.175 -0.6685 -0.7796  0.5936
  111MOL0     C15215   1.416   4.658   1.266 -0.4212 -0.5826 -0.1343
  111MOL0     O15216   1.301   4.581   1.249  0.1462  1.4529 -0.0424
  111MOL0     C15217   1.278   4.509   1.121  0.4824  0.5344  0.3422
  111MOL0     C15218   1.372   4.392   1.112  0.2816  0.3298  0.1150
  111MOL0     C15219   1.329   4.305   0.990 -0.4816  0.9181  0.2250
  111MOL0     C15220   1.387   4.164   1.001  0.5079 -0.4880 -0.1191
  111MOL0     C15221   1.323   4.063   0.915 -0.4013 -0.1225  0.2585
  111MOL0     C15222   1.404   3.935   0.911 -0.3098  0.8419 -0.2026
  111MOL0     C15223   1.324   3.806   0.890 -0.4731  1.0967 -0.6819
  111MOL0     C15224   1.406   3.681   0.932  0.8631  0.2041 -0.3691
  111MOL0    Cl15225   1.291   3.544   0.909  0.0911 -0.0957  0.3899
  111MOL0     C15226   1.447   4.684   1.400  0.6116 -0.7049 -0.1323
  111MOL0     C15227   1.574   4.752   1.431  0.1490 -0.5691 -0.3343
  111MOL0     O15228   1.733   5.038   1.237 -0.1750  0.3161  0.2695
  111MOL0     C15229   1.983   4.978   1.472 -0.4978  0.4302  0.2984
  111MOL0     C15230   2.111   5.013   1.514 -0.2238 -0.0060 -0.1332
  111MOL0     N15231   2.622   5.565   1.593  1.1091  0.0922  0.6286
  111MOL0     N15232   2.593   5.686   1.577  0.7513  0.4232 -0.4086
  111MOL0     C15233   2.388   5.229   2.411  0.5430 -0.4906  0.0585
  111MOL0     C15234   2.436   5.115   2.486  0.1529  0.0098 -0.2101
  111MOL0     C15235   2.672   4.723   2.551  0.3141 -0.7386  0.0236
  111MOL0     C15236   2.683   4.743   2.690 -0.8368  0.1361  0.0510
  111MOL0     C15237   2.730   4.643   2.777  0.4769 -0.1993 -0.2441
  111MOL0     C15238   2.744   4.513   2.716  1.8598  0.1840 -0.2962
  111MOL0     O15239   2.771   4.400   2.794 -0.0559  0.0062 -0.4303
  111MOL0     C15240   2.842   4.410   2.922 -0.2343  1.2978 -0.5716
  111MOL0     C15241   2.744   4.441   3.049  0.7024  0.1825  0.2528
  111MOL0     C15242   2.650   4.326   3.062  0.8476 -0.2369 -0.8781
  111MOL0     C15243   2.591   4.332   3.211  0.0895  0.4427 -0.0293
  111MOL0     C15244   2.501   4.213   3.224  0.3482 -0.0586 -0.4785
  111MOL0     C15245   2.429   4.120   3.244 -1.1083  0.0468  0.0793
  111MOL0     C15246   2.718   4.485   2.581  0.5595  0.1129  0.7902
  111MOL0     C15247   2.690   4.592   2.498  0.4460 -0.3045 -0.0506
  111MOL0     C15248   2.684   4.561   2.348  0.0837  0.3763 -1.0237
  111MOL0     H15249   2.744   5.094   2.372 -0.9978 -1.8907  0.8109
  111MOL0     H15250   2.659   5.284   2.224 -3.4067  0.4031 -2.0674
  111MOL0     H15251   2.588   5.502   2.195 -2.4672 -0.1578 -1.9899
  111MOL0     H15252   2.557   5.556   2.367 -0.8631  2.1884  0.6697
  111MOL0     H15253   2.373   5.628   2.145 -0.1609  0.0894  2.0626
  111MOL0     H15254   2.399   5.697   2.310  2.0604  2.3003  1.9858
  111MOL0     H15255   2.630   5.762   2.186 -0.9236 -2.4592  0.0471
  111MOL0     H15256   2.544   5.701   2.043  1.1155 -1.8584  1.4788
  111MOL0     H15257   2.360   5.863   2.074 -0.1565  0.8015  0.9103
  111MOL0     H15258   2.455   5.951   2.190  0.8675 -0.9538  0.5614
  111MOL0     H15259   2.634   5.991   2.019 -0.0316  0.8223  0.5562
  111MOL0     H15260   2.483   6.059   1.974  1.7480  0.8249  1.6108
  111MOL0     H15261   2.585   5.974   1.782  2.2893 -1.2389  1.6487
  111MOL0     H15262   2.600   5.811   1.854 -0.6247 -0.5134  0.6024
  111MOL0     H15263   2.329   5.963   1.809 -4.8514 -2.2629 -1.8582
  111MOL0     H15264   2.348   5.802   1.851 -1.2951  1.8310  0.7647
  111MOL0     H15265   2.301   5.829   1.613  1.1673  0.4607 -2.5557
  111MOL0     H15266   2.455   5.918   1.588 -0.6527  0.9219 -0.0687
  111MOL0     H15267   2.314   5.575   1.702  1.1717  2.1795  2.2872
  111MOL0     H15268   2.420   5.322   1.739 -0.0271 -0.2812 -0.5601
  111MOL0     H15269   2.578   5.362   1.798  1.8198 -2.7621 -0.1446
  111MOL0     H15270   2.537   5.286   1.501  1.3103  0.8927  1.5690
  111MOL0     H15271   2.677   5.277   1.583  0.8265  1.7404  1.1148
  111MOL0     H15272   2.591   5.057   1.548 -2.4691 -3.2227  0.0859
  111MOL0     H15273   2.567   5.097   1.725 -3.6611 -2.8152  0.5686
  111MOL0     H15274   2.386   4.966   1.621  1.0514 -0.0413  2.0950
  111MOL0     H15275   2.313   5.109   1.677  0.3570 -1.5022  0.4624
  111MOL0     H15276   2.214   5.220   1.278 -0.9362  0.5851 -1.7761
  111MOL0     H15277   1.913   5.269   1.147 -1.6183 -1.1088  2.1754
  111MOL0     H15278   1.917   5.100   1.092 -2.4584 -1.0040  4.5241
  111MOL0     H15279   2.063   5.194   1.081  0.7556  0.6897  1.3053
  111MOL0     H15280   1.716   4.787   1.130  1.9170 -0.6983  2.1674
  111MOL0     H15281   1.499   4.673   1.068 -0.5312 -1.2513  0.6353
  111MOL0     H15282   1.175   4.470   1.119 -0.0866  1.9652 -2.2907
  111MOL0     H15283   1.281   4.581   1.039  1.2823  1.5642  1.2394
  111MOL0     H15284   1.475   4.428   1.105  0.6058 -0.7947 -1.7081
  111MOL0     H15285   1.363   4.327   1.199 -1.2039 -0.6460 -0.7302
  111MOL0     H15286   1.358   4.360   0.900 -1.1470  2.9970  1.2206
  111MOL0     H15287   1.220   4.305   0.982 -0.4487 -0.8012 -0.7313
  111MOL0     H15288   1.376   4.131   1.105  0.3401  0.1365  0.0694
  111MOL0     H15289   1.494   4.175   0.983  0.4112 -1.4474 -1.3273
  111MOL0     H15290   1.221   4.044   0.950  0.2909 -1.7089  1.5823
  111MOL0     H15291   1.309   4.101   0.813 -0.4336 -0.9735 -0.0677
  111MOL0     H15292   1.439   3.922   1.014  0.7651  0.4000 -0.6054
  111MOL0     H15293   1.484   3.941   0.836 -1.2240  2.1976 -1.1213
  111MOL0     H15294   1.314   3.797   0.781  2.0788  2.5455 -1.1172
  111MOL0     H15295   1.224   3.814   0.933 -0.1671 -0.7726  0.5208
  111MOL0     H15296   1.428   3.696   1.038 -0.8743  1.7014 -0.1639
  111MOL0     H15297   1.489   3.687   0.861 -0.3185 -2.0505 -2.0739
  111MOL0     H15298   1.376   4.650   1.475 -1.7489  1.9016 -1.0134
  111MOL0     H15299   1.583   4.791   1.532 -2.8218  1.0563 -0.5612
  111MOL0     H15300   1.926   4.912   1.536 -0.3346 -0.5145 -0.5079
  111MOL0     H15301   2.132   4.988   1.618  0.4949  2.6702  0.4498
  111MOL0     H15302   2.286   5.266   2.421  0.2795 -1.5553  1.7129
  111MOL0     H15303   2.375   5.068   2.563 -1.5774 -1.2801 -2.2683
  111MOL0     H15304   2.646   4.832   2.740  0.7199  0.2263  1.1411
  111MOL0     H15305   2.748   4.675   2.879  2.3908 -0.2221 -0.5466
  111MOL0     H15306   2.888   4.311   2.933  1.1408  1.7592 -1.9389
  111MOL0     H15307   2.921   4.484   2.911  0.1938  1.2206  1.5717
  111MOL0     H15308   2.685   4.532   3.032  1.4891  0.5890 -0.3674
  111MOL0     H15309   2.804   4.452   3.139  0.3372  1.7095  0.3454
  111MOL0     H15310   2.566   4.336   2.993  0.2752 -2.1553 -0.5150
  111MOL0     H15311   2.694   4.229   3.038 -0.9744 -0.4712 -3.7214
  111MOL0     H15312   2.539   4.425   3.235 -0.1746  0.3695 -0.3156
  111MOL0     H15313   2.675   4.319   3.280 -0.2966 -2.7303 -0.0021
  111MOL0     H15314   2.374   4.028   3.252  3.3987 -2.9451  0.7029
  111MOL0     H15315   2.722   4.382   2.545 -0.8548  0.5247 -0.6674
  111MOL0     H15316   2.578   4.575   2.328  0.0358  1.2481 -0.1910
  111MOL0     H15317   2.759   4.621   2.296  1.2643 -0.2074 -0.0481
  111MOL0     H15318   2.695   4.453   2.333 -0.7366 -0.5383  3.5216
  112MOL0     O15319   4.232   7.928   0.866  0.4665  0.2009 -0.0766
  112MOL0     C15320   4.181   7.822   0.841  0.4148 -0.4684 -0.2237
  112MOL0     O15321   4.107   7.788   0.733 -0.9889  0.0012  0.1609
  112MOL0     C15322   4.120   7.863   0.623  0.3285  0.4419 -0.2213
  112MOL0     C15323   4.239   7.935   0.573 -0.4173 -0.1091 -0.1930
  112MOL0     C15324   4.229   7.996   0.452 -0.2273 -0.0148  0.7072
  112MOL0     C15325   4.112   8.002   0.376  0.6273 -0.3844  0.4692
  112MOL0     O15326   4.125   8.072   0.248 -0.4713  0.4243 -0.5216
  112MOL0     C15327   4.025   8.166   0.245  0.1783  0.3485 -0.2027
  112MOL0     C15328   4.061   8.286   0.154 -0.0181  0.4151  0.0148
  112MOL0     C15329   3.929   8.367   0.144 -1.1290 -0.1201  0.7500
  112MOL0     C15330   3.855   8.422   0.261  0.2124 -1.1335 -0.6981
  112MOL0     C15331   3.718   8.480   0.225 -0.0783  0.0830  0.8361
  112MOL0     C15332   3.675   8.582   0.328  0.1608 -0.5101  0.1838
  112MOL0     C15333   3.522   8.611   0.350 -0.1013  0.8466  0.7227
  112MOL0     C15334   3.497   8.720   0.446 -0.5858  0.4971 -0.2590
  112MOL0     N15335   3.355   8.746   0.459  0.4457  0.0883  0.1281
  112MOL0     C15336   3.255   8.652   0.477  1.1708 -0.4530 -0.1136
  112MOL0     C15337   3.138   8.733   0.493 -1.3077  0.1771  0.6530
  112MOL0     C15338   3.003   8.671   0.514 -0.2505 -0.1485  0.1393
  112MOL0     C15339   2.905   8.743   0.613  0.2488 -0.2839  0.3883
  112MOL0     C15340   2.777   8.660   0.629  0.1002  0.2770  0.1357
  112MOL0     C15341   2.693   8.702   0.752  0.1401 -0.5229  0.3290
  112MOL0     O15342   2.662   8.840   0.733 -0.3925 -0.9905  0.4961
  112MOL0     C15343   2.610   8.910   0.838 -1.0565  0.6460 -0.0941
  112MOL0     C15344   2.571   8.849   0.959  0.1315  0.6480  1.0390
  112MOL0     C15345   2.529   8.914   1.074  0.0351  0.2874  0.6028
  112MOL0     C15346   2.476   8.820   1.187 -0.6682  0.3819  0.2999
  112MOL0     C15347   2.523   9.057   1.070  1.3124  0.5586  0.1406
  112MOL0     C15348   2.462   9.130   1.175  0.2303  0.2957 -1.0978
  112MOL0     O15349   2.482   9.094   1.308  0.3315 -0.4374  0.7184
  112MOL0     C15350   2.428   9.135   1.432  1.0931  0.1453  0.4774
  112MOL0     C15351   2.349   9.244   1.447 -0.6448 -0.9599 -0.6303
  112MOL0     C15352   2.295   9.273   1.570  0.9950  0.8305 -0.2042
  112MOL0     C15353   2.319   9.187   1.681  1.0245 -0.1572  0.8323
  112MOL0     O15354   2.261   9.216   1.804  0.0186 -0.3460 -0.2102
  112MOL0     C15355   2.285   9.341   1.868 -0.9974 -0.5822 -0.1099
  112MOL0     C15356   2.177   9.385   1.960 -1.9140  0.0240  0.4708
  112MOL0     C15357   2.037   9.368   1.904 -0.7757 -0.3355  0.9044
  112MOL0     C15358   1.929   9.421   1.988 -0.1140  0.0443  0.5414
  112MOL0     C15359   1.794   9.380   1.933 -0.1819 -0.7549  0.1237
  112MOL0     C15360   1.687   9.493   1.919 -0.1550 -0.9776  0.2432
  112MOL0     C15361   1.651   9.561   2.050 -0.1965 -0.8962  0.5617
  112MOL0     C15362   1.530   9.651   2.034  0.0684 -0.5955  0.5113
  112MOL0    Cl15363   1.532   9.791   2.155 -0.3822  0.1449 -0.1664
  112MOL0     C15364   2.383   9.068   1.667 -0.1397  0.6388  0.6597
  112MOL0     C15365   2.448   9.043   1.546 -0.9309  0.3022  1.5869
  112MOL0     O15366   2.405   9.227   1.142  1.0262  0.7486 -1.2191
  112MOL0     C15367   2.566   9.121   0.953  0.4011  0.0971  2.1491
  112MOL0     C15368   2.614   9.047   0.843  1.6397  0.2187  0.5574
  112MOL0     N15369   3.177   8.864   0.467 -0.4316 -0.3530 -0.2816
  112MOL0     N15370   3.307   8.869   0.439  0.0784 -0.0200 -0.3402
  112MOL0     C15371   3.993   7.943   0.427 -0.0892 -0.4847  0.4388
  112MOL0     C15372   4.002   7.875   0.548 -0.2155 -0.7217  0.1309
  112MOL0     C15373   4.177   7.727   0.953 -0.4606 -0.3490  0.8285
  112MOL0     C15374   4.065   7.648   0.961  0.4774 -0.1547 -0.4302
  112MOL0     C15375   4.061   7.544   1.049 -0.7478  0.2200 -0.3995
  112MOL0     C15376   4.182   7.501   1.106  0.6773  0.6095  0.4099
  112MOL0     O15377   4.177   7.384   1.183 -0.2889  0.2654  0.6105
  112MOL0     C15378   4.246   7.271   1.138  0.4729 -0.2440  0.0544
  112MOL0     C15379   4.200   7.210   1.006  1.0049  0.3466  0.4072
  112MOL0     C15380   4.065   7.133   1.028  0.5796  0.6013  0.7309
  112MOL0     C15381   4.018   7.038   0.917  0.1355 -0.1297  0.5823
  112MOL0     C15382   4.130   6.985   0.851  0.1334 -0.0426  0.6995
  112MOL0     C15383   4.224   6.957   0.786 -0.2841  1.0338  0.3871
  112MOL0     C15384   4.298   7.584   1.104 -0.4298  0.3354  0.4138
  112MOL0     C15385   4.293   7.705   1.034 -0.2087 -0.6178 -0.7911
  112MOL0     C15386   4.428   7.771   1.039  0.5705 -0.8393  0.2355
  112MOL0     H15387   4.335   7.938   0.624 -0.3173 -1.3511 -0.2831
  112MOL0     H15388   4.319   8.046   0.419  0.0591 -1.5241 -0.9895
  112MOL0     H15389   4.011   8.207   0.346 -0.4253 -3.3563  1.4091
  112MOL0     H15390   3.929   8.121   0.217 -0.2173  2.4615 -2.5734
  112MOL0     H15391   4.131   8.352   0.205  0.8422 -0.8452  0.5167
  112MOL0     H15392   4.107   8.260   0.059  1.4255 -2.3240  1.3486
  112MOL0     H15393   3.964   8.452   0.085 -1.3765 -0.5939 -0.0986
  112MOL0     H15394   3.858   8.314   0.080 -0.9311  1.8468 -1.2164
  112MOL0     H15395   3.856   8.349   0.342 -2.5478  2.7301  3.3068
  112MOL0     H15396   3.907   8.509   0.302  0.2893 -1.6253  0.2728
  112MOL0     H15397   3.640   8.408   0.199  0.0352 -0.1199  1.0492
  112MOL0     H15398   3.724   8.539   0.134 -0.9796 -1.5250 -0.3219
  112MOL0     H15399   3.715   8.551   0.425 -0.8198 -2.6162 -0.0341
  112MOL0     H15400   3.729   8.675   0.308  1.4186 -1.3659 -0.5853
  112MOL0     H15401   3.476   8.520   0.390 -0.9537  0.0379 -1.8952
  112MOL0     H15402   3.458   8.630   0.263 -1.5724 -1.4423  1.2413
  112MOL0     H15403   3.545   8.698   0.542  0.1710 -0.1183 -0.7691
  112MOL0     H15404   3.540   8.815   0.413 -1.1635  0.0684 -2.3553
  112MOL0     H15405   3.261   8.543   0.481  0.0422 -0.5352 -0.2710
  112MOL0     H15406   3.018   8.570   0.556 -0.9005 -0.7858 -1.1109
  112MOL0     H15407   2.968   8.645   0.414 -1.0039  2.2630 -0.2814
  112MOL0     H15408   2.955   8.762   0.709 -2.2782  0.2787  1.7027
  112MOL0     H15409   2.885   8.839   0.563  1.0078  0.7115  1.8989
  112MOL0     H15410   2.709   8.665   0.544 -3.7723  1.0707  3.0232
  112MOL0     H15411   2.803   8.554   0.637 -4.1842 -0.9644  0.3185
  112MOL0     H15412   2.605   8.638   0.765  0.1594 -0.5729  0.2177
  112MOL0     H15413   2.752   8.675   0.840 -0.0687  0.4992  0.7915
  112MOL0     H15414   2.582   8.742   0.976 -0.1718  0.5195  0.4465
  112MOL0     H15415   2.371   8.847   1.196 -0.5872  0.8040  0.0080
  112MOL0     H15416   2.534   8.839   1.278 -0.9282  0.1637  0.5131
  112MOL0     H15417   2.476   8.713   1.165  0.9221 -0.1100  2.3698
  112MOL0     H15418   2.322   9.306   1.362  1.1859  1.1652  0.2491
  112MOL0     H15419   2.247   9.370   1.583 -0.2044  0.3397 -0.8823
  112MOL0     H15420   2.382   9.330   1.917 -0.1761  1.8117 -1.0383
  112MOL0     H15421   2.306   9.417   1.792 -1.3142  0.1513  0.5278
  112MOL0     H15422   2.188   9.316   2.044  1.4236 -0.5533 -0.3038
  112MOL0     H15423   2.189   9.487   1.998 -1.2639 -0.9269  3.0273
  112MOL0     H15424   2.022   9.260   1.892 -0.1907 -0.5169  1.7231
  112MOL0     H15425   2.037   9.417   1.807  2.2226  3.0155  2.3882
  112MOL0     H15426   1.945   9.529   1.996  1.1184 -0.1056  0.2647
  112MOL0     H15427   1.929   9.371   2.085 -0.0066 -2.3330 -0.6090
  112MOL0     H15428   1.819   9.341   1.834  4.4972  0.0064  0.7714
  112MOL0     H15429   1.749   9.312   2.005 -0.8524  1.0790  1.4958
  112MOL0     H15430   1.600   9.441   1.879  0.6349 -0.4895 -2.2293
  112MOL0     H15431   1.700   9.567   1.840  1.6861  0.8932  2.1376
  112MOL0     H15432   1.734   9.627   2.080  0.3810 -1.6583  0.6772
  112MOL0     H15433   1.620   9.483   2.119 -1.9853 -0.0760  0.7191
  112MOL0     H15434   1.437   9.593   2.034 -0.2191 -0.2764 -2.0143
  112MOL0     H15435   1.528   9.684   1.930 -3.4860 -3.2470 -0.4856
  112MOL0     H15436   2.390   8.990   1.743 -1.1143  2.0221  2.2363
  112MOL0     H15437   2.498   8.948   1.531 -0.9361  0.8168 -3.4717
  112MOL0     H15438   2.576   9.226   0.929  2.0563 -0.8342 -2.3826
  112MOL0     H15439   2.664   9.092   0.758  2.6411  1.1516  1.5973
  112MOL0     H15440   3.900   7.948   0.370  0.1053 -2.4030 -0.1242
  112MOL0     H15441   3.908   7.826   0.573 -0.2292 -1.6036 -1.5175
  112MOL0     H15442   3.971   7.660   0.908  1.5513  2.3745 -1.9860
  112MOL0     H15443   3.973   7.483   1.069  1.7013 -3.4324  0.2835
  112MOL0     H15444   4.348   7.302   1.115 -0.0119  0.9294 -0.5804
  112MOL0     H15445   4.246   7.197   1.218 -0.5617  2.5642  2.8564
  112MOL0     H15446   4.274   7.136   0.976 -1.2018 -1.7522 -0.1348
  112MOL0     H15447   4.193   7.293   0.935 -0.9089 -0.7966 -0.8087
  112MOL0     H15448   4.076   7.070   1.117  0.6731 -2.1255 -1.0964
  112MOL0     H15449   3.984   7.205   1.042  0.8776  1.4757 -1.6792
  112MOL0     H15450   3.972   7.096   0.836 -0.3901 -1.0169  0.2281
  112MOL0     H15451   3.941   6.969   0.955  1.7253 -2.3447  0.0002
  112MOL0     H15452   4.298   6.909   0.726 -0.9072  3.4905 -2.5812
  112MOL0     H15453   4.390   7.541   1.144 -0.5900  0.0681  0.4979
  112MOL0     H15454   4.438   7.853   0.967 -0.1925 -1.3050 -0.4042
  112MOL0     H15455   4.443   7.822   1.135 -0.1426  2.3373 -1.2066
  112MOL0     H15456   4.508   7.698   1.024  0.8736 -0.7830  1.4499
  113MOL0     O15457  11.471   9.889  10.805 -0.0313  0.0412  0.5442
  113MOL0     C15458  11.401   9.790  10.785  0.1386  0.7900 -0.1017
  113MOL0     O15459  11.425   9.671  10.857  0.1818 -0.0379 -0.2057
  113MOL0     C15460  11.528   9.661  10.943 -0.0605 -0.3437  0.7687
  113MOL0     C15461  11.660   9.625  10.900  1.2252 -0.4068  0.2159
  113MOL0     C15462  11.758   9.593  10.992  0.2327 -0.3978 -0.3770
  113MOL0     C15463  11.732   9.612  11.135  1.0490 -0.8298 -0.0707
  113MOL0     O15464  11.836   9.578  11.209 -0.1737 -1.2481 -0.4964
  113MOL0     C15465  11.818   9.595  11.356 -0.5896 -0.0456 -0.7233
  113MOL0     C15466  11.948   9.569  11.434 -0.1794  0.1802 -0.5239
  113MOL0     C15467  11.921   9.569  11.587 -0.8349  0.2711  0.0034
  113MOL0     C15468  11.905   9.714  11.651  0.2750 -0.4404  1.0867
  113MOL0     C15469  11.926   9.723  11.808  0.3033 -0.3205 -0.3602
  113MOL0     C15470  11.942   9.863  11.871 -0.1535 -0.5607  1.1969
  113MOL0     C15471  11.872   9.979  11.785 -0.1781 -0.0787  0.4398
  113MOL0     C15472  11.726   9.967  11.813  0.8655 -0.8415 -0.9313
  113MOL0     N15473  11.655  10.086  11.775  0.0789 -0.4772 -0.4347
  113MOL0     C15474  11.671  10.164  11.662 -0.2143  0.2374  0.4745
  113MOL0     C15475  11.580  10.259  11.686 -0.1236 -0.5025  0.7057
  113MOL0     C15476  11.582  10.394  11.608  0.0865  0.2754  0.4784
  113MOL0     C15477  11.475  10.396  11.490 -0.1028  0.0111 -0.2328
  113MOL0     C15478  11.469  10.532  11.420  0.1793  0.2444 -0.5707
  113MOL0     C15479  11.422  10.516  11.275 -0.3632  0.3980  0.0545
  113MOL0     O15480  11.298  10.456  11.268  0.5942  0.3461 -0.2230
  113MOL0     C15481  11.187  10.524  11.258  0.2672 -0.0056  0.1519
  113MOL0     C15482  11.143  10.602  11.360 -0.2386 -0.1114 -0.0096
  113MOL0     C15483  11.020  10.664  11.355 -0.8617 -0.0089  0.1215
  113MOL0     C15484  10.971  10.730  11.485  0.2476 -0.2102  0.7295
  113MOL0     C15485  10.938  10.639  11.243  0.7973  0.0514  0.2361
  113MOL0     C15486  10.797  10.683  11.239  0.0237  0.2363 -0.1989
  113MOL0     O15487  10.714  10.601  11.173 -0.0964 -0.3947  0.2604
  113MOL0     C15488  10.582  10.640  11.157 -0.3724  0.7665  0.7592
  113MOL0     C15489  10.539  10.763  11.100  0.0106 -0.1764 -0.2612
  113MOL0     C15490  10.399  10.794  11.106 -0.2216 -0.2599  0.8514
  113MOL0     C15491  10.302  10.700  11.150 -0.3685  0.0309  0.0893
  113MOL0     O15492  10.165  10.736  11.138 -0.6562 -0.2458 -0.4291
  113MOL0     C15493  10.063  10.641  11.164  0.0301 -0.3475  0.6365
  113MOL0     C15494   9.919  10.704  11.146 -0.4576 -0.5136  0.4647
  113MOL0     C15495   9.812  10.597  11.136 -0.1482 -0.1823 -0.0762
  113MOL0     C15496   9.680  10.654  11.092 -0.5939  0.2016 -0.6296
  113MOL0     C15497   9.612  10.562  10.989 -0.4392  1.0195  0.4951
  113MOL0     C15498   9.463  10.558  10.976 -0.6087 -0.3315 -0.1487
  113MOL0     C15499   9.399  10.504  10.849  0.5750 -0.6023  0.5763
  113MOL0     C15500   9.255  10.483  10.872  0.1421  0.6402 -0.6684
  113MOL0    Cl15501   9.242  10.328  10.934  0.5386 -0.1679 -0.3443
  113MOL0     C15502  10.354  10.577  11.200  0.2629 -0.6287  0.1444
  113MOL0     C15503  10.489  10.551  11.207 -0.7605  0.2109  1.3236
  113MOL0     O15504  10.766  10.804  11.272  0.1126 -0.5181 -0.0890
  113MOL0     C15505  10.982  10.557  11.141 -0.0203 -1.0045 -0.0248
  113MOL0     C15506  11.110  10.507  11.140 -0.1688 -0.2039  0.1213
  113MOL0     N15507  11.498  10.228  11.796  0.2913  0.8728  0.3110
  113MOL0     N15508  11.550  10.132  11.848 -0.5232 -1.1579 -0.0819
  113MOL0     C15509  11.597   9.656  11.172 -0.0190  0.8278 -0.4586
  113MOL0     C15510  11.506   9.673  11.071  0.2403  0.2070 -1.2855
  113MOL0     C15511  11.292   9.794  10.685  0.8788  0.3016 -0.8037
  113MOL0     C15512  11.172   9.709  10.707  0.3367 -0.3217  0.6182
  113MOL0     C15513  11.073   9.701  10.613  0.5699  0.3981  0.4094
  113MOL0     C15514  11.070   9.796  10.513  0.3217 -0.0810  1.3484
  113MOL0     O15515  10.962   9.798  10.427 -0.4529 -0.2524  0.1045
  113MOL0     C15516  10.876   9.910  10.463 -0.0886 -0.2876 -0.3379
  113MOL0     C15517  10.833   9.909  10.612  1.1288  0.3619  0.1654
  113MOL0     C15518  10.731   9.790  10.635 -0.3326 -0.4518  0.5450
  113MOL0     C15519  10.612   9.816  10.724 -0.8178 -0.5313  0.2087
  113MOL0     C15520  10.531   9.690  10.742  0.0511  0.5326 -0.5171
  113MOL0     C15521  10.475   9.580  10.764  0.3701  0.0185 -0.5631
  113MOL0     C15522  11.177   9.882  10.493  1.1319 -0.4485 -0.6719
  113MOL0     C15523  11.291   9.877  10.570 -0.4887  1.1097  0.2584
  113MOL0     C15524  11.419   9.948  10.520 -0.3503 -0.0293 -0.4207
  113MOL0     H15525  11.678   9.613  10.794  2.2207  2.9470 -0.1281
  113MOL0     H15526  11.850   9.552  10.954 -1.9101 -3.5514 -2.6764
  113MOL0     H15527  11.750   9.514  11.383  0.6623  0.3319  4.4830
  113MOL0     H15528  11.784   9.695  11.386  2.8559  0.6214  1.4553
  113MOL0     H15529  11.986   9.471  11.402 -1.8535 -1.3724  1.9083
  113MOL0     H15530  12.017   9.648  11.404  0.4850 -0.0904  0.2359
  113MOL0     H15531  11.830   9.514  11.613 -0.2487 -0.1755  1.1821
  113MOL0     H15532  11.993   9.519  11.653 -1.6140  0.6724  1.1912
  113MOL0     H15533  11.976   9.779  11.599 -2.3066  1.1221 -0.6790
  113MOL0     H15534  11.807   9.757  11.628  0.5444 -0.2683  0.2020
  113MOL0     H15535  12.008   9.659  11.841  0.3884 -0.1893 -0.3204
  113MOL0     H15536  11.843   9.684  11.867 -0.5503  0.5039 -0.9796
  113MOL0     H15537  11.902   9.871  11.972 -1.5497  1.3110  0.5615
  113MOL0     H15538  12.046   9.896  11.877 -0.2602 -0.1387  0.8306
  113MOL0     H15539  11.894   9.980  11.677 -0.0709 -1.4425  0.4353
  113MOL0     H15540  11.910  10.069  11.834  3.0255 -1.7309  1.2904
  113MOL0     H15541  11.684   9.880  11.761  1.1369 -1.0371 -0.8248
  113MOL0     H15542  11.721   9.945  11.920  4.6304 -0.0998 -0.4859
  113MOL0     H15543  11.750  10.172  11.588  0.5867 -1.2384  1.1427
  113MOL0     H15544  11.684  10.423  11.580 -0.0064 -0.0347 -0.2139
  113MOL0     H15545  11.548  10.470  11.679  2.6660  0.1482  1.9688
  113MOL0     H15546  11.492  10.318  11.415  0.2159  1.5374 -1.8340
  113MOL0     H15547  11.379  10.378  11.538  0.6755  1.1426  1.8805
  113MOL0     H15548  11.409  10.598  11.484  0.1368  0.7315 -1.0946
  113MOL0     H15549  11.570  10.574  11.407  0.2363  0.0879 -0.6298
  113MOL0     H15550  11.413  10.620  11.242 -3.8231  0.2415  0.0990
  113MOL0     H15551  11.502  10.467  11.219 -2.4656 -2.2376 -0.8448
  113MOL0     H15552  11.185  10.604  11.460 -2.7548 -0.3800  1.1275
  113MOL0     H15553  10.882  10.692  11.538 -1.9189  1.4098 -1.5210
  113MOL0     H15554  10.975  10.837  11.463  5.3510 -0.3260 -0.0151
  113MOL0     H15555  11.056  10.716  11.553  0.0220 -3.3499  0.5273
  113MOL0     H15556  10.603  10.838  11.055  0.7503 -0.2262  0.6937
  113MOL0     H15557  10.371  10.890  11.064  0.3761 -0.1032  0.8095
  113MOL0     H15558  10.068  10.561  11.089 -2.7952 -1.6260  1.6756
  113MOL0     H15559  10.077  10.599  11.265 -0.7025 -1.6768  0.2163
  113MOL0     H15560   9.910  10.763  11.238 -0.2904  0.1354  0.0697
  113MOL0     H15561   9.924  10.766  11.057 -3.8518 -0.0161  0.5172
  113MOL0     H15562   9.810  10.537  11.227  2.5404 -2.8012 -1.5618
  113MOL0     H15563   9.837  10.522  11.060 -0.1183 -0.2227 -0.0258
  113MOL0     H15564   9.705  10.757  11.063  1.4218 -0.3105 -0.8323
  113MOL0     H15565   9.613  10.664  11.178 -1.4825  0.5629 -1.3442
  113MOL0     H15566   9.647  10.595  10.890 -1.5403  0.6435 -0.0347
  113MOL0     H15567   9.651  10.459  10.995 -1.1108  0.7545  0.3387
  113MOL0     H15568   9.437  10.664  10.969 -1.6468 -0.6686 -4.3283
  113MOL0     H15569   9.410  10.523  11.065 -1.3181 -0.6139 -0.6682
  113MOL0     H15570   9.445  10.412  10.814 -1.7315 -0.4267 -3.5141
  113MOL0     H15571   9.404  10.572  10.764  3.7130 -1.4790 -0.0538
  113MOL0     H15572   9.198  10.493  10.779 -1.7512  1.0951  0.4857
  113MOL0     H15573   9.204  10.544  10.948  1.4790 -1.8641  2.4990
  113MOL0     H15574  10.294  10.489  11.219 -1.6618  0.4751 -0.4745
  113MOL0     H15575  10.523  10.457  11.249  0.1794  0.4614  1.1336
  113MOL0     H15576  10.918  10.541  11.056  0.0852  2.4651 -0.9299
  113MOL0     H15577  11.154  10.453  11.057 -0.1887  1.2298 -0.8695
  113MOL0     H15578  11.566   9.664  11.276 -0.4057  2.6252 -0.6754
  113MOL0     H15579  11.403   9.694  11.101  0.4436 -0.0800 -0.3503
  113MOL0     H15580  11.164   9.662  10.805 -0.5223  3.9175  2.8236
  113MOL0     H15581  10.989   9.633  10.620 -0.1899  1.2003 -0.6240
  113MOL0     H15582  10.931  10.003  10.450 -2.6650  1.7909  2.2964
  113MOL0     H15583  10.785   9.915  10.404 -1.0340 -3.9011  0.5352
  113MOL0     H15584  10.792  10.010  10.627  0.5748  0.3794 -1.2779
  113MOL0     H15585  10.924   9.902  10.671  1.7861  1.1104 -0.7212
  113MOL0     H15586  10.695   9.770  10.533  1.2302 -2.3390  0.3110
  113MOL0     H15587  10.779   9.694  10.654 -0.2061 -0.3870  0.5522
  113MOL0     H15588  10.546   9.892  10.681 -2.6927 -2.6502 -0.8915
  113MOL0     H15589  10.653   9.855  10.817 -0.3052 -2.1783  0.7099
  113MOL0     H15590  10.441   9.482  10.790 -2.1215  0.5945 -1.3721
  113MOL0     H15591  11.167   9.955  10.413 -0.1446  0.5675  0.3648
  113MOL0     H15592  11.437  10.037  10.582  1.8944  0.3113 -1.4798
  113MOL0     H15593  11.492   9.872  10.546  0.3290  1.0002  0.7986
  113MOL0     H15594  11.424   9.974  10.414  0.7194  0.7229 -0.2011
  114MOL0     O15595   4.448   9.967   4.917 -0.9609  1.1271  0.6868
  114MOL0     C15596   4.383   9.877   4.959 -0.1743  0.3658  0.5562
  114MOL0     O15597   4.290   9.893   5.048 -0.0697  0.3365 -0.0848
  114MOL0     C15598   4.268  10.016   5.103  1.0397 -0.2111  0.5954
  114MOL0     C15599   4.277  10.027   5.243  0.7406 -0.1767 -0.2695
  114MOL0     C15600   4.264  10.158   5.301  0.4171  0.2070 -0.1090
  114MOL0     C15601   4.223  10.277   5.227 -1.0923  1.7562  0.5751
  114MOL0     O15602   4.201  10.402   5.288 -1.0929 -0.5072  0.1511
  114MOL0     C15603   4.130  10.516   5.227 -0.5982  1.1581 -0.5814
  114MOL0     C15604   4.147  10.644   5.314  0.3611 -1.5877  0.4929
  114MOL0     C15605   4.283  10.714   5.287  0.3188 -0.2219 -0.6601
  114MOL0     C15606   4.309  10.842   5.370  0.2779 -0.8097  0.1041
  114MOL0     C15607   4.420  10.799   5.469 -0.0677 -0.5456  0.8363
  114MOL0     C15608   4.454  10.905   5.575  0.1415  0.7829  0.1430
  114MOL0     C15609   4.578  10.990   5.539 -0.6261 -0.3406 -0.4754
  114MOL0     C15610   4.640  11.067   5.662  0.2558 -0.3062  0.5226
  114MOL0     N15611   4.703  11.198   5.606  0.2948  0.4653 -1.0405
  114MOL0     C15612   4.648  11.321   5.629  0.2739  0.1740 -0.9051
  114MOL0     C15613   4.748  11.407   5.617  0.3749  0.7345 -0.4045
  114MOL0     C15614   4.740  11.563   5.617  0.0425 -0.2251  0.2638
  114MOL0     C15615   4.689  11.607   5.759 -0.6432 -0.8661 -0.1242
  114MOL0     C15616   4.808  11.616   5.851 -0.2195 -0.7318  0.5085
  114MOL0     C15617   4.878  11.485   5.892 -0.7066  1.2555  0.0713
  114MOL0     O15618   4.776  11.402   5.954 -0.9661  0.0912  0.5171
  114MOL0     C15619   4.808  11.271   5.973  0.0875 -0.9899 -0.5134
  114MOL0     C15620   4.729  11.214   6.065 -0.0477 -0.0430 -1.7212
  114MOL0     C15621   4.728  11.085   6.107 -0.1458 -0.1495  1.0451
  114MOL0     C15622   4.645  11.051   6.234  0.4378 -0.7480  0.1536
  114MOL0     C15623   4.795  10.997   6.021 -1.3438 -0.0832  0.9236
  114MOL0     C15624   4.777  10.845   6.032 -0.2704  0.0347  0.6260
  114MOL0     O15625   4.862  10.767   5.968  0.3437  0.4202 -0.6216
  114MOL0     C15626   4.857  10.633   5.962 -0.8057  0.4390 -0.1304
  114MOL0     C15627   4.972  10.568   5.940  0.4864 -0.1159  0.8309
  114MOL0     C15628   4.973  10.431   5.918  0.8724 -0.1271  0.8745
  114MOL0     C15629   4.846  10.364   5.888 -0.0428  0.1374  0.1817
  114MOL0     O15630   4.825  10.233   5.842 -0.4222  0.1717  0.1270
  114MOL0     C15631   4.902  10.131   5.903 -0.3409 -0.4289 -0.6208
  114MOL0     C15632   4.809  10.053   5.988 -0.0031  0.3806  1.0527
  114MOL0     C15633   4.738   9.948   5.909 -0.0691 -0.1061 -0.3751
  114MOL0     C15634   4.822   9.860   5.802 -0.1134  0.0623 -0.6508
  114MOL0     C15635   4.945   9.803   5.873 -0.7691 -0.6241 -0.2658
  114MOL0     C15636   5.039   9.741   5.773  0.1662 -1.2684 -1.2441
  114MOL0     C15637   5.129   9.643   5.855  0.2360  0.3053  0.4355
  114MOL0     C15638   5.203   9.536   5.766 -0.2896  0.3604  0.1843
  114MOL0    Cl15639   5.316   9.631   5.664  0.2726 -0.0138 -0.1967
  114MOL0     C15640   4.733  10.431   5.899  0.0470 -1.6162  1.3310
  114MOL0     C15641   4.738  10.566   5.942  0.2516  0.1277 -0.3496
  114MOL0     O15642   4.692  10.809   6.115 -0.2717  0.5443  0.0126
  114MOL0     C15643   4.891  11.045   5.931 -0.2607  0.0822 -0.2556
  114MOL0     C15644   4.899  11.187   5.909  0.1675  0.6322  0.6767
  114MOL0     N15645   4.857  11.341   5.572 -0.1163 -0.5350 -0.4325
  114MOL0     N15646   4.835  11.215   5.584  0.4238 -0.1229 -1.1469
  114MOL0     C15647   4.205  10.255   5.094 -0.2003 -0.1696  0.0098
  114MOL0     C15648   4.228  10.130   5.031  0.4507  0.2545 -0.3636
  114MOL0     C15649   4.416   9.739   4.901  1.0071  0.2436 -0.7739
  114MOL0     C15650   4.318   9.638   4.914  0.0459 -0.1081  0.6192
  114MOL0     C15651   4.333   9.505   4.858 -0.8949  0.0493 -0.0263
  114MOL0     C15652   4.456   9.463   4.801  1.0743  0.5322 -0.2855
  114MOL0     O15653   4.471   9.335   4.780 -0.3949  0.2833 -0.4220
  114MOL0     C15654   4.534   9.304   4.654  0.2836 -1.0821 -0.3543
  114MOL0     C15655   4.500   9.160   4.628  0.0237 -0.8949  0.0295
  114MOL0     C15656   4.617   9.072   4.673 -0.3076 -1.0184  0.1827
  114MOL0     C15657   4.580   8.944   4.739 -0.7144  0.6545  0.2758
  114MOL0     C15658   4.492   8.972   4.853 -0.7872 -0.1130 -1.4492
  114MOL0     C15659   4.415   9.010   4.935 -0.2378  0.0778 -0.7446
  114MOL0     C15660   4.559   9.560   4.791  0.0745 -0.2105 -0.4040
  114MOL0     C15661   4.537   9.695   4.835  0.3452  0.6289  0.8069
  114MOL0     C15662   4.654   9.788   4.833 -0.4471  0.3108  0.9566
  114MOL0     H15663   4.308   9.936   5.293  2.2686 -1.2162 -2.8997
  114MOL0     H15664   4.280  10.175   5.407  2.0865 -0.0862 -0.2856
  114MOL0     H15665   4.022  10.499   5.238 -0.6814  2.1477  0.3299
  114MOL0     H15666   4.170  10.536   5.127  0.4125  1.3531 -0.1476
  114MOL0     H15667   4.071  10.718   5.287 -1.4289 -2.8657  1.8414
  114MOL0     H15668   4.129  10.625   5.420  1.2250  0.9831  1.1766
  114MOL0     H15669   4.364  10.641   5.292  1.0167  0.5370 -0.6177
  114MOL0     H15670   4.280  10.746   5.183  1.0170  1.1898 -0.2641
  114MOL0     H15671   4.347  10.924   5.310  1.5963 -0.3239  1.5396
  114MOL0     H15672   4.213  10.873   5.412 -0.0866 -2.2373  0.3889
  114MOL0     H15673   4.511  10.781   5.410  1.5243  1.9049  2.3867
  114MOL0     H15674   4.395  10.706   5.521 -0.6604 -2.2716 -2.2964
  114MOL0     H15675   4.364  10.965   5.590  1.1574  1.7694  2.9333
  114MOL0     H15676   4.478  10.856   5.670 -0.3527  0.2053 -0.0217
  114MOL0     H15677   4.545  11.070   5.472  2.6542  0.9133 -0.7548
  114MOL0     H15678   4.657  10.935   5.488  1.6295  0.1609  2.2419
  114MOL0     H15679   4.564  11.092   5.736  0.7453  0.6741  0.7153
  114MOL0     H15680   4.715  11.003   5.710  0.2828  1.5902  3.2103
  114MOL0     H15681   4.546  11.339   5.660  0.6557  0.2221  0.3819
  114MOL0     H15682   4.662  11.593   5.546 -2.7251  0.1124  3.1663
  114MOL0     H15683   4.833  11.603   5.578 -0.5415  1.7604  0.7580
  114MOL0     H15684   4.636  11.703   5.752 -1.9271 -1.3925  1.4999
  114MOL0     H15685   4.610  11.541   5.799 -0.2059 -0.6941  1.0613
  114MOL0     H15686   4.886  11.679   5.808  2.0532 -2.8793  1.2539
  114MOL0     H15687   4.777  11.657   5.948 -2.1296 -1.7179  0.3552
  114MOL0     H15688   4.923  11.442   5.802 -1.1050 -0.0868  0.4810
  114MOL0     H15689   4.959  11.509   5.962 -1.5251 -1.1270  1.9785
  114MOL0     H15690   4.660  11.287   6.105  1.1761  0.0744  0.2808
  114MOL0     H15691   4.548  11.011   6.201  1.1214 -1.8627 -0.5489
  114MOL0     H15692   4.632  11.141   6.295  1.5389 -0.7360  0.3784
  114MOL0     H15693   4.706  10.987   6.298  0.9080  0.6795  1.2032
  114MOL0     H15694   5.061  10.628   5.956  0.4658  1.2353 -3.1041
  114MOL0     H15695   5.065  10.374   5.916  1.4317  0.7724  0.0719
  114MOL0     H15696   4.942  10.068   5.824 -0.2083  1.8611 -2.5059
  114MOL0     H15697   4.988  10.164   5.962 -3.2853  1.9867  2.8129
  114MOL0     H15698   4.872  10.007   6.065 -3.2957 -1.2237  2.9892
  114MOL0     H15699   4.745  10.125   6.040  1.3503  4.4937 -2.3631
  114MOL0     H15700   4.645   9.997   5.879 -1.0868 -1.3594  0.5758
  114MOL0     H15701   4.710   9.870   5.981  0.5120 -0.5867 -0.6605
  114MOL0     H15702   4.870   9.907   5.715 -0.1103  2.2278  0.4595
  114MOL0     H15703   4.754   9.786   5.759  0.0914 -0.5645  0.0984
  114MOL0     H15704   5.012   9.884   5.905  0.5405 -1.8990  0.2843
  114MOL0     H15705   4.921   9.734   5.953  1.0229 -1.8884 -0.7514
  114MOL0     H15706   5.098   9.818   5.722  0.6580  0.6477  1.9324
  114MOL0     H15707   4.983   9.684   5.699 -0.4566 -0.1412 -1.6564
  114MOL0     H15708   5.072   9.584   5.927 -1.5056  2.2366  0.7342
  114MOL0     H15709   5.206   9.693   5.914 -0.9133  1.5092  0.9726
  114MOL0     H15710   5.141   9.488   5.690 -0.2772  3.5127 -2.0476
  114MOL0     H15711   5.261   9.466   5.826 -2.1412 -0.1913  1.4112
  114MOL0     H15712   4.635  10.390   5.877 -1.0872  0.7016  1.7114
  114MOL0     H15713   4.648  10.626   5.944 -0.9825 -1.6158  2.2985
  114MOL0     H15714   4.959  10.974   5.885  1.6868 -0.5483  3.2118
  114MOL0     H15715   4.960  11.240   5.836  1.1820  0.9026  1.6850
  114MOL0     H15716   4.174  10.333   5.026 -1.9026 -1.0089 -0.2586
  114MOL0     H15717   4.201  10.121   4.926 -1.5575 -1.5682  0.2334
  114MOL0     H15718   4.225   9.682   4.945  1.7692  4.0366  0.5189
  114MOL0     H15719   4.246   9.444   4.878  0.2125 -0.6103  3.2929
  114MOL0     H15720   4.492   9.375   4.582 -2.2575 -2.3439 -0.1906
  114MOL0     H15721   4.643   9.300   4.646  0.3265 -2.1267  0.5898
  114MOL0     H15722   4.476   9.144   4.523 -2.3951 -0.7327  0.4834
  114MOL0     H15723   4.404   9.143   4.678 -1.7359  0.0872 -2.7787
  114MOL0     H15724   4.675   9.058   4.581  0.5723  1.0368  0.3804
  114MOL0     H15725   4.677   9.111   4.755  0.0511 -2.4743  0.6546
  114MOL0     H15726   4.661   8.877   4.769  1.6026  3.9537  2.0219
  114MOL0     H15727   4.519   8.876   4.678  1.5773 -2.1257  0.8815
  114MOL0     H15728   4.345   9.044   5.008  1.8901  0.0825  1.4171
  114MOL0     H15729   4.651   9.522   4.748  1.6439  0.2407  2.3524
  114MOL0     H15730   4.638   9.843   4.740 -0.8556 -1.6086 -0.1497
  114MOL0     H15731   4.676   9.852   4.919  2.2672 -0.0294  0.6100
  114MOL0     H15732   4.743   9.725   4.819  1.3512  3.2880 -2.9144
  115MOL0     O15733   7.075   7.314   3.617 -0.6552 -0.3550 -0.1893
  115MOL0     C15734   7.165   7.382   3.567 -0.1632  1.2034 -0.4495
  115MOL0     O15735   7.207   7.368   3.449 -0.5948  0.2072 -0.2144
  115MOL0     C15736   7.162   7.281   3.350  0.1506  0.4361 -0.2974
  115MOL0     C15737   7.249   7.204   3.274  0.0745  0.3510 -1.1781
  115MOL0     C15738   7.203   7.128   3.164  0.2138  0.0410  0.7036
  115MOL0     C15739   7.064   7.123   3.133  0.7076  0.0130 -1.1934
  115MOL0     O15740   7.024   7.047   3.031  0.0924  0.0399  0.5900
  115MOL0     C15741   6.918   7.086   2.948  0.7106 -0.4220  0.3748
  115MOL0     C15742   6.787   6.998   2.972 -0.9902 -1.1034  1.0370
  115MOL0     C15743   6.675   7.023   2.872  0.1703 -1.0120  0.8465
  115MOL0     C15744   6.572   6.908   2.884 -0.8836 -1.0444  0.1144
  115MOL0     C15745   6.481   6.926   3.000  0.2401  0.5662 -1.3057
  115MOL0     C15746   6.391   7.055   2.998  0.1685 -0.2985 -0.1625
  115MOL0     C15747   6.285   7.065   3.115 -0.3335 -0.4862 -0.4560
  115MOL0     C15748   6.341   7.104   3.256  0.1139  1.3087  0.6031
  115MOL0     N15749   6.235   7.130   3.354 -0.7519  0.7348 -0.1236
  115MOL0     C15750   6.202   7.252   3.411 -0.7040 -0.3895  0.2525
  115MOL0     C15751   6.092   7.227   3.475 -0.1762  0.1432 -0.0807
  115MOL0     C15752   6.036   7.337   3.565 -0.2430  0.1683  0.7394
  115MOL0     C15753   5.885   7.332   3.592 -0.1273  0.4014 -0.4817
  115MOL0     C15754   5.837   7.469   3.645  0.9961  0.1982 -1.0449
  115MOL0     C15755   5.883   7.517   3.788  0.7669 -0.2029 -0.7265
  115MOL0     O15756   5.843   7.650   3.808 -0.7724 -0.9882 -0.2450
  115MOL0     C15757   5.882   7.707   3.932  0.5156  0.3372 -1.0497
  115MOL0     C15758   5.896   7.845   3.949  0.0021 -0.1500 -0.6338
  115MOL0     C15759   5.945   7.906   4.061  0.7771 -0.3682 -0.4888
  115MOL0     C15760   5.976   8.059   4.058  0.3764 -1.2550  1.1093
  115MOL0     C15761   5.960   7.831   4.184  0.5835  0.0910  0.1787
  115MOL0     C15762   6.026   7.887   4.306  0.2877 -0.6672 -0.3098
  115MOL0     O15763   6.098   7.806   4.376 -0.1845  0.2164 -0.1197
  115MOL0     C15764   6.164   7.857   4.486 -0.0142  0.2395 -0.1711
  115MOL0     C15765   6.144   7.963   4.583  0.7192  0.0425  0.1067
  115MOL0     C15766   6.224   7.978   4.697 -0.0963 -0.4870 -0.1331
  115MOL0     C15767   6.337   7.899   4.709 -0.4309  0.0658  0.9015
  115MOL0     O15768   6.421   7.921   4.813  0.1313 -0.4566 -0.5327
  115MOL0     C15769   6.356   7.937   4.945 -0.5097 -0.3090  0.3265
  115MOL0     C15770   6.451   7.920   5.063 -0.4313 -0.2811 -0.1969
  115MOL0     C15771   6.582   7.986   5.046 -0.0067 -0.1885 -0.8959
  115MOL0     C15772   6.671   7.992   5.179  0.2870  0.6396 -0.4786
  115MOL0     C15773   6.802   8.071   5.157  0.7050  0.3091 -0.4418
  115MOL0     C15774   6.899   8.049   5.277  0.3648  1.0078 -0.3977
  115MOL0     C15775   7.003   7.941   5.249  0.3165  0.1934  0.4569
  115MOL0     C15776   6.964   7.802   5.210  0.6240  0.5230 -0.1060
  115MOL0    Cl15777   6.864   7.739   5.341  0.3398  0.3751  0.4874
  115MOL0     C15778   6.366   7.800   4.615 -0.7767  0.6810  0.3032
  115MOL0     C15779   6.278   7.774   4.506  0.9205 -0.3102  0.7381
  115MOL0     O15780   5.997   8.005   4.332  0.1266 -0.5876  0.1268
  115MOL0     C15781   5.945   7.687   4.177  0.1614 -1.4643  0.7919
  115MOL0     C15782   5.901   7.630   4.049 -0.5652 -0.3840 -1.2195
  115MOL0     N15783   6.059   7.095   3.472  0.4354 -0.5201 -1.1040
  115MOL0     N15784   6.159   7.037   3.409 -0.7610  0.1056 -0.3308
  115MOL0     C15785   6.979   7.198   3.214  0.1933  0.5232 -0.0871
  115MOL0     C15786   7.029   7.288   3.308 -0.0740 -0.4985 -0.3095
  115MOL0     C15787   7.233   7.479   3.656 -0.2441  0.2364 -0.0427
  115MOL0     C15788   7.173   7.507   3.784  0.5282  0.0882  1.4263
  115MOL0     C15789   7.228   7.593   3.873  0.5150  0.3059  0.7233
  115MOL0     C15790   7.353   7.643   3.845  0.5001 -0.8839 -0.5470
  115MOL0     O15791   7.395   7.736   3.944 -0.9012 -0.2953  0.2035
  115MOL0     C15792   7.500   7.831   3.931  0.5067  0.0230 -0.3973
  115MOL0     C15793   7.495   7.947   4.033 -0.7632  0.4483 -0.5347
  115MOL0     C15794   7.546   7.917   4.172  0.1823  1.0889  1.0033
  115MOL0     C15795   7.586   8.043   4.246  0.4064  0.1278  1.3880
  115MOL0     C15796   7.456   8.089   4.302 -0.9488 -0.3441 -0.3772
  115MOL0     C15797   7.365   8.138   4.359  0.1908 -0.4835 -0.0565
  115MOL0     C15798   7.421   7.616   3.726 -0.2185 -0.2240  0.2246
  115MOL0     C15799   7.358   7.531   3.631  1.3859 -0.2517 -0.1251
  115MOL0     C15800   7.434   7.531   3.501 -0.9943  0.6932  0.5356
  115MOL0     H15801   7.357   7.207   3.283  0.2602  2.8469 -3.1466
  115MOL0     H15802   7.259   7.070   3.091 -2.2567 -1.0111 -0.4435
  115MOL0     H15803   6.948   7.080   2.843 -1.3479 -0.2776 -0.2715
  115MOL0     H15804   6.895   7.193   2.958  4.5305  0.7070 -1.1502
  115MOL0     H15805   6.821   6.896   2.952 -0.9537 -1.4461  2.7064
  115MOL0     H15806   6.761   6.999   3.078 -0.9434 -1.8980  1.0621
  115MOL0     H15807   6.625   7.119   2.891 -0.2225 -0.7737 -1.1798
  115MOL0     H15808   6.723   7.027   2.774 -0.1194 -0.5062  0.7212
  115MOL0     H15809   6.514   6.907   2.791  0.3016  2.8172 -0.8884
  115MOL0     H15810   6.629   6.815   2.891  0.8207  0.0748  2.4200
  115MOL0     H15811   6.533   6.922   3.097 -1.0330  0.5146 -0.6083
  115MOL0     H15812   6.418   6.837   2.999  1.1326 -0.0837 -2.8657
  115MOL0     H15813   6.460   7.139   3.014  0.8590 -0.8371 -0.2600
  115MOL0     H15814   6.353   7.069   2.897 -1.1750 -2.2285  0.0249
  115MOL0     H15815   6.220   6.978   3.097  1.0212 -1.2799 -1.7162
  115MOL0     H15816   6.215   7.147   3.095 -2.5333 -1.9013  1.0309
  115MOL0     H15817   6.398   7.015   3.283 -2.0310 -0.1812  0.5268
  115MOL0     H15818   6.414   7.184   3.261  0.1898  1.1787  2.1055
  115MOL0     H15819   6.262   7.342   3.400 -0.0247 -0.3947  3.0930
  115MOL0     H15820   6.052   7.432   3.512  2.0866  0.6428  2.1730
  115MOL0     H15821   6.088   7.333   3.661 -0.0460  1.9225  0.7319
  115MOL0     H15822   5.824   7.297   3.508  0.4696 -1.9634  0.0026
  115MOL0     H15823   5.855   7.264   3.672 -1.2530 -0.8443 -1.8978
  115MOL0     H15824   5.862   7.556   3.583  0.2107  0.9417 -0.3561
  115MOL0     H15825   5.728   7.472   3.651  1.0209  2.0582 -0.9622
  115MOL0     H15826   5.842   7.459   3.871  1.1747  0.1960 -0.2442
  115MOL0     H15827   5.992   7.524   3.780  0.7199  0.1401 -1.0982
  115MOL0     H15828   5.886   7.918   3.869  3.3777 -1.2246 -2.2342
  115MOL0     H15829   6.050   8.088   4.133 -0.3973  3.4043  0.3971
  115MOL0     H15830   5.893   8.126   4.082 -1.1235 -1.7436 -2.1650
  115MOL0     H15831   6.007   8.096   3.960 -1.2451 -0.2778  0.9297
  115MOL0     H15832   6.057   8.027   4.581 -0.2535 -1.0613  2.9173
  115MOL0     H15833   6.200   8.056   4.768 -2.5451  0.7409 -2.1085
  115MOL0     H15834   6.325   8.041   4.956 -5.0332 -1.4875  0.6879
  115MOL0     H15835   6.262   7.884   4.960  0.2700 -1.2587  2.1703
  115MOL0     H15836   6.409   7.967   5.153  0.6372 -2.6761  1.7017
  115MOL0     H15837   6.465   7.812   5.079 -0.9998 -0.1962  0.9967
  115MOL0     H15838   6.571   8.084   5.000 -0.5134 -0.4764 -1.4064
  115MOL0     H15839   6.626   7.923   4.969 -0.5109 -0.2190 -1.1619
  115MOL0     H15840   6.696   7.888   5.200 -2.7315  0.1738  1.4730
  115MOL0     H15841   6.608   8.031   5.259  0.3806  1.8682 -0.9840
  115MOL0     H15842   6.830   8.023   5.063 -3.0513 -0.6569 -1.2318
  115MOL0     H15843   6.789   8.179   5.152  1.0444  0.3921  0.2688
  115MOL0     H15844   6.845   8.023   5.367  2.1873  1.9007  1.0385
  115MOL0     H15845   6.950   8.144   5.298 -0.1565  1.7574 -2.3020
  115MOL0     H15846   7.072   7.927   5.333 -1.0794  0.6980  1.7531
  115MOL0     H15847   7.070   7.977   5.170 -1.4782 -1.5505 -1.9779
  115MOL0     H15848   7.050   7.734   5.208 -0.3158 -0.7151  0.2163
  115MOL0     H15849   6.907   7.811   5.117 -0.5904  0.5277  0.6229
  115MOL0     H15850   6.458   7.743   4.624 -2.4767 -2.2502  0.0650
  115MOL0     H15851   6.306   7.683   4.454  0.1419  0.5705 -1.3353
  115MOL0     H15852   5.960   7.623   4.263  0.6220 -0.2983  1.6065
  115MOL0     H15853   5.877   7.524   4.060  3.1385 -1.1408  1.4782
  115MOL0     H15854   6.874   7.213   3.189 -0.5487 -0.4041  2.2187
  115MOL0     H15855   6.961   7.367   3.337 -0.8540 -0.3658 -2.3025
  115MOL0     H15856   7.072   7.475   3.807  0.0624  1.6241  1.6427
  115MOL0     H15857   7.182   7.630   3.964  0.5229  1.3337  0.3154
  115MOL0     H15858   7.604   7.796   3.936  0.4707 -0.1756 -0.9071
  115MOL0     H15859   7.490   7.865   3.827  1.8498 -0.9793 -0.9005
  115MOL0     H15860   7.392   7.982   4.048 -1.5466 -2.2083  0.9457
  115MOL0     H15861   7.560   8.025   3.992  0.5306  0.4899  1.4862
  115MOL0     H15862   7.469   7.863   4.228 -2.4353  1.0492 -2.3373
  115MOL0     H15863   7.629   7.846   4.176 -0.3541  0.4818  1.5178
  115MOL0     H15864   7.645   8.113   4.185 -0.5718  0.0770  0.3425
  115MOL0     H15865   7.653   8.028   4.330 -0.1409 -3.9957  1.2594
  115MOL0     H15866   7.272   8.176   4.396  0.1418  1.2180 -1.7721
  115MOL0     H15867   7.523   7.649   3.709  0.0412 -0.3171  1.4768
  115MOL0     H15868   7.472   7.431   3.479 -3.6109 -0.6888  1.8120
  115MOL0     H15869   7.370   7.572   3.423 -1.4810 -0.2045  0.4465
  115MOL0     H15870   7.518   7.601   3.506  0.3575 -0.7751 -0.7250
  116MOL0     O15871   7.322   5.421   3.997  0.5357 -0.6045  0.2352
  116MOL0     C15872   7.353   5.460   3.887 -0.1545 -0.1593  0.0159
  116MOL0     O15873   7.363   5.591   3.854  0.3071  0.2550 -0.8574
  116MOL0     C15874   7.402   5.686   3.941  0.3548  0.4519 -0.8183
  116MOL0     C15875   7.344   5.811   3.924  0.5361 -0.3573  0.9277
  116MOL0     C15876   7.355   5.916   4.014 -0.1859  0.9980 -0.2914
  116MOL0     C15877   7.430   5.892   4.129  0.3177  0.0082 -0.6040
  116MOL0     O15878   7.452   5.997   4.213 -0.4292 -0.1906 -0.7069
  116MOL0     C15879   7.533   5.987   4.332 -0.4789  0.3614 -0.6120
  116MOL0     C15880   7.471   6.090   4.442  0.2649  0.5627  0.5426
  116MOL0     C15881   7.457   6.230   4.396 -0.2855  0.0311  0.3264
  116MOL0     C15882   7.502   6.330   4.509  0.3927 -0.2834  0.3213
  116MOL0     C15883   7.510   6.485   4.476 -0.6683 -0.3896 -0.1510
  116MOL0     C15884   7.403   6.545   4.389 -0.2991  0.6522  0.0820
  116MOL0     C15885   7.363   6.695   4.408  0.1236  0.0923 -0.1233
  116MOL0     C15886   7.487   6.787   4.371  0.3308 -0.1257  1.1250
  116MOL0     N15887   7.431   6.923   4.362 -0.3001  0.1392  0.8529
  116MOL0     C15888   7.350   6.976   4.263  0.1872  0.9250  0.0124
  116MOL0     C15889   7.325   7.103   4.301  1.3310 -0.2601 -0.8283
  116MOL0     C15890   7.230   7.193   4.232  0.4047  1.0360 -0.6951
  116MOL0     C15891   7.205   7.322   4.307  0.0948  0.3996 -0.0890
  116MOL0     C15892   7.121   7.427   4.216 -0.0759  0.6241 -0.6727
  116MOL0     C15893   7.119   7.559   4.274 -0.5530  0.0834  0.4896
  116MOL0     O15894   7.055   7.556   4.400  0.1831 -0.4468 -0.0578
  116MOL0     C15895   7.058   7.665   4.474 -0.0146 -0.0772  0.0627
  116MOL0     C15896   6.981   7.665   4.590 -0.4979  0.4118 -0.0673
  116MOL0     C15897   6.976   7.768   4.685  0.6299  0.2827 -0.6937
  116MOL0     C15898   6.888   7.744   4.808  0.7766 -0.1765  0.3359
  116MOL0     C15899   7.055   7.876   4.655 -0.2724 -0.4448 -0.0536
  116MOL0     C15900   7.053   7.992   4.752  0.5284  0.1046  0.8177
  116MOL0     O15901   7.103   8.105   4.701  0.0575 -0.2023 -0.6431
  116MOL0     C15902   7.120   8.208   4.785 -0.6318 -0.1720  0.4060
  116MOL0     C15903   7.245   8.264   4.811  0.1232  0.6647  0.3501
  116MOL0     C15904   7.253   8.370   4.904 -0.7047 -0.5464  0.4375
  116MOL0     C15905   7.143   8.443   4.951 -0.7880  0.4256  0.1243
  116MOL0     O15906   7.149   8.552   5.024  0.2675 -0.1018 -0.6357
  116MOL0     C15907   7.266   8.633   5.007  0.4891 -0.3627  0.3396
  116MOL0     C15908   7.237   8.776   5.038 -0.7208  0.0687 -1.7014
  116MOL0     C15909   7.362   8.859   5.072  0.8607  0.1435  0.2794
  116MOL0     C15910   7.301   8.998   5.088 -0.1219  0.0899  0.2618
  116MOL0     C15911   7.402   9.102   5.092 -0.2017 -0.6321 -0.3849
  116MOL0     C15912   7.486   9.107   5.219  0.0452 -0.3393 -0.9761
  116MOL0     C15913   7.381   9.149   5.330 -0.4374 -0.6485 -0.0591
  116MOL0     C15914   7.444   9.204   5.456 -0.2254  0.1366  0.7825
  116MOL0    Cl15915   7.534   9.062   5.522  0.3421  0.0477  0.4750
  116MOL0     C15916   7.022   8.389   4.926  0.1780  0.1211 -0.9020
  116MOL0     C15917   7.018   8.273   4.855  0.5542 -0.3338  0.2622
  116MOL0     O15918   7.034   7.978   4.870  0.8741  0.2221  0.5229
  116MOL0     C15919   7.134   7.884   4.538 -0.2716  0.0292 -0.1866
  116MOL0     C15920   7.139   7.777   4.447  0.2764  0.4825 -0.3136
  116MOL0     N15921   7.391   7.126   4.421 -0.4365 -0.4161  0.2375
  116MOL0     N15922   7.459   7.024   4.450  0.3314  0.5914  0.7835
  116MOL0     C15923   7.494   5.770   4.155 -0.1747 -0.2323  0.4175
  116MOL0     C15924   7.471   5.665   4.062  0.6312 -0.1969  0.0511
  116MOL0     C15925   7.372   5.361   3.767 -0.3471 -0.9336  0.0541
  116MOL0     C15926   7.395   5.426   3.646  0.9831 -0.2522 -0.2213
  116MOL0     C15927   7.425   5.358   3.531 -0.0104  0.2462 -0.1387
  116MOL0     C15928   7.439   5.214   3.533  0.8620  1.2386  0.6169
  116MOL0     O15929   7.461   5.146   3.418 -0.6689 -0.7186 -0.0287
  116MOL0     C15930   7.413   5.012   3.397  0.9222 -0.1042 -0.7365
  116MOL0     C15931   7.364   4.981   3.256 -0.7586 -0.1214  0.3239
  116MOL0     C15932   7.305   4.838   3.259  0.3617  0.3335 -0.1217
  116MOL0     C15933   7.394   4.714   3.263  0.0941 -0.6578  0.6992
  116MOL0     C15934   7.409   4.670   3.406 -0.6306  0.4318  0.1390
  116MOL0     C15935   7.417   4.623   3.512 -0.1422  0.3813 -0.4639
  116MOL0     C15936   7.423   5.150   3.659  0.6606 -0.7652 -0.0797
  116MOL0     C15937   7.391   5.219   3.775 -0.2580  0.7368  0.2230
  116MOL0     C15938   7.378   5.133   3.903  0.2429  0.4285 -0.0522
  116MOL0     H15939   7.286   5.828   3.834  0.0300 -2.0585  0.8986
  116MOL0     H15940   7.305   6.012   4.007 -1.0332  0.7800  2.0699
  116MOL0     H15941   7.637   6.011   4.309 -0.3776  1.4468  0.8116
  116MOL0     H15942   7.525   5.885   4.368 -1.0806  0.0614 -1.5553
  116MOL0     H15943   7.368   6.065   4.466 -0.3059  1.9148 -0.4143
  116MOL0     H15944   7.529   6.089   4.535  2.4786  0.3634 -0.7656
  116MOL0     H15945   7.515   6.263   4.309  2.7795 -1.8858  1.4788
  116MOL0     H15946   7.353   6.252   4.372  0.0393  4.1906  1.9172
  116MOL0     H15947   7.427   6.327   4.589 -1.2915  2.4776 -0.9796
  116MOL0     H15948   7.598   6.292   4.544 -0.2432 -2.1467  0.1553
  116MOL0     H15949   7.604   6.500   4.422 -1.9038  0.1004 -2.2862
  116MOL0     H15950   7.521   6.538   4.571 -0.6555  1.4297 -1.1102
  116MOL0     H15951   7.416   6.526   4.282  2.4409  2.5639 -0.0429
  116MOL0     H15952   7.314   6.484   4.409 -0.1623 -0.3258 -2.0850
  116MOL0     H15953   7.328   6.706   4.511  0.8322 -1.0446  0.2655
  116MOL0     H15954   7.283   6.722   4.339  0.2114  0.4802 -0.0759
  116MOL0     H15955   7.571   6.777   4.441  1.4391 -2.4434 -0.3980
  116MOL0     H15956   7.523   6.752   4.273 -2.9714 -1.6450  0.2872
  116MOL0     H15957   7.319   6.922   4.174 -2.4897  2.5258 -0.1767
  116MOL0     H15958   7.143   7.126   4.233  1.4182 -0.3701  1.1975
  116MOL0     H15959   7.264   7.219   4.131  0.1638  0.6222 -0.8823
  116MOL0     H15960   7.163   7.302   4.406  3.0994  2.4956  1.7956
  116MOL0     H15961   7.300   7.371   4.332 -0.9449  1.5732  1.7769
  116MOL0     H15962   7.156   7.421   4.112  2.1667 -0.8406  0.0950
  116MOL0     H15963   7.019   7.388   4.217 -0.7940  2.3185 -2.4630
  116MOL0     H15964   7.224   7.587   4.285 -1.0106  1.4234  1.7453
  116MOL0     H15965   7.076   7.626   4.199  1.1355  1.1568  0.4130
  116MOL0     H15966   6.926   7.572   4.602 -1.6285  1.2452  1.7381
  116MOL0     H15967   6.947   7.709   4.892  1.4991  1.1592  0.4132
  116MOL0     H15968   6.807   7.672   4.790 -1.6628  2.5743 -0.6657
  116MOL0     H15969   6.838   7.837   4.836  0.2701 -0.5815  0.7924
  116MOL0     H15970   7.337   8.235   4.760 -0.0684 -1.6782  1.1994
  116MOL0     H15971   7.352   8.404   4.932 -0.8860  0.7093 -0.4101
  116MOL0     H15972   7.342   8.600   5.078 -0.8458 -1.8747  1.1295
  116MOL0     H15973   7.311   8.639   4.907  0.6362 -1.2155  0.3414
  116MOL0     H15974   7.164   8.814   4.966 -4.1327 -2.5259  0.0874
  116MOL0     H15975   7.174   8.779   5.127 -0.2964  1.9815 -1.4243
  116MOL0     H15976   7.450   8.856   5.008  2.1811  3.5146  1.6847
  116MOL0     H15977   7.396   8.828   5.171  2.2022  4.2043  1.2732
  116MOL0     H15978   7.235   8.995   5.175 -0.4220  0.0081  0.0321
  116MOL0     H15979   7.242   9.027   5.000 -0.3906 -0.1663  0.3557
  116MOL0     H15980   7.472   9.089   5.009 -0.1779  2.3287 -0.9318
  116MOL0     H15981   7.342   9.188   5.063 -0.9810 -1.4324 -1.2270
  116MOL0     H15982   7.567   9.180   5.209 -1.8844  2.1720  0.5129
  116MOL0     H15983   7.530   9.010   5.243 -0.6840 -0.1393  1.4364
  116MOL0     H15984   7.330   9.058   5.363  2.1961 -2.8531 -1.6440
  116MOL0     H15985   7.313   9.225   5.290  0.3379 -0.0061 -0.1665
  116MOL0     H15986   7.363   9.240   5.519  0.4077 -0.0926  1.7532
  116MOL0     H15987   7.514   9.286   5.434 -0.5468  0.0249 -0.7962
  116MOL0     H15988   6.929   8.434   4.959  0.5847  1.8826 -2.0424
  116MOL0     H15989   6.918   8.235   4.838  1.0132 -0.9386 -1.2408
  116MOL0     H15990   7.189   7.977   4.525 -1.4172  0.3475 -3.8707
  116MOL0     H15991   7.202   7.788   4.359  0.4741  1.6430 -0.0523
  116MOL0     H15992   7.535   5.737   4.249 -1.3716 -2.0083  0.3605
  116MOL0     H15993   7.517   5.569   4.085 -3.9300 -3.3301 -2.2757
  116MOL0     H15994   7.373   5.532   3.645  0.2943 -0.3906 -1.4236
  116MOL0     H15995   7.451   5.415   3.443 -0.6915 -0.1853 -0.6244
  116MOL0     H15996   7.507   4.956   3.406  0.9995  0.3201  1.5521
  116MOL0     H15997   7.340   4.979   3.471 -3.5598  3.0920 -3.2165
  116MOL0     H15998   7.445   4.986   3.182 -1.3915  2.3034 -0.3049
  116MOL0     H15999   7.286   5.055   3.238  1.2267  1.9356 -0.4304
  116MOL0     H16000   7.228   4.839   3.337 -0.8321  1.4758 -1.2475
  116MOL0     H16001   7.253   4.831   3.162  1.0632 -0.6068 -0.4461
  116MOL0     H16002   7.493   4.728   3.219 -1.3257 -4.0137 -4.4266
  116MOL0     H16003   7.353   4.639   3.195 -1.6723  2.7571 -2.3704
  116MOL0     H16004   7.427   4.600   3.617 -1.4414  1.9480  0.0411
  116MOL0     H16005   7.434   5.042   3.660 -0.5206 -0.9047 -0.2536
  116MOL0     H16006   7.271   5.118   3.923  0.3878 -0.3653  0.1821
  116MOL0     H16007   7.418   5.031   3.897 -1.5059 -0.2795 -0.3044
  116MOL0     H16008   7.421   5.186   3.989 -1.0033 -0.0397  0.9002
  117MOL0     O16009   5.017   3.515   0.184 -0.3237  0.0919 -0.5470
  117MOL0     C16010   4.937   3.514   0.097 -0.0364  0.2511  0.3461
  117MOL0     O16011   4.887   3.620   0.029  0.1554 -0.0917  0.0736
  117MOL0     C16012   4.931   3.757   0.060 -0.3612  0.3962 -0.3301
  117MOL0     C16013   4.831   3.853   0.040  0.0249  0.0031 -0.5223
  117MOL0     C16014   4.850   3.992   0.045  0.0664 -0.7066  0.0000
  117MOL0     C16015   4.980   4.040   0.065  0.2234 -0.6389  0.0138
  117MOL0     O16016   4.998   4.175   0.060 -0.2324  0.0348 -0.0031
  117MOL0     C16017   5.104   4.237   0.140  0.6493  0.2539  0.5737
  117MOL0     C16018   5.236   4.265   0.055 -0.1381 -0.5833  0.8640
  117MOL0     C16019   5.220   4.362  -0.056  0.2920 -0.2965 -0.3114
  117MOL0     C16020   5.332   4.394  -0.152  0.2749  0.8547  0.4327
  117MOL0     C16021   5.299   4.449  -0.290 -0.8668 -0.9238 -0.0337
  117MOL0     C16022   5.246   4.347  -0.396  0.5894  0.3499  0.1990
  117MOL0     C16023   5.224   4.415  -0.525  0.2660 -1.0430 -0.8025
  117MOL0     C16024   5.165   4.326  -0.628 -0.1869  0.7049 -0.4849
  117MOL0     N16025   5.083   4.389  -0.733  0.1922 -0.5431 -0.7640
  117MOL0     C16026   5.086   4.516  -0.784 -0.1306  0.2852  0.3865
  117MOL0     C16027   4.976   4.523  -0.860  0.1129 -0.4209 -0.5940
  117MOL0     C16028   4.930   4.638  -0.936  0.0752  0.1408  0.6244
  117MOL0     C16029   4.825   4.613  -1.050  0.3556  0.4281 -0.0057
  117MOL0     C16030   4.686   4.593  -0.985 -0.6127  0.5616  0.4783
  117MOL0     C16031   4.630   4.722  -0.910 -0.4818 -0.5325  1.0261
  117MOL0     O16032   4.636   4.850  -0.982 -0.1892  0.2217 -0.4329
  117MOL0     C16033   4.554   4.873  -1.087 -0.6040  1.0360 -0.2416
  117MOL0     C16034   4.610   4.911  -1.209 -0.3911  0.1416 -0.1661
  117MOL0     C16035   4.538   4.923  -1.336  0.9000 -0.6652 -0.1305
  117MOL0     C16036   4.622   4.958  -1.453  0.3023  0.4570  0.2755
  117MOL0     C16037   4.393   4.907  -1.330 -0.4462  0.0338  0.2563
  117MOL0     C16038   4.291   4.925  -1.438 -0.2386 -0.8621  0.0833
  117MOL0     O16039   4.164   4.885  -1.396 -0.7916  0.4819  0.0688
  117MOL0     C16040   4.062   4.858  -1.488 -0.3516 -0.3501 -0.1969
  117MOL0     C16041   3.936   4.865  -1.439  0.4343  0.2679  0.3878
  117MOL0     C16042   3.824   4.852  -1.518  0.2488 -0.1816 -0.1738
  117MOL0     C16043   3.829   4.830  -1.657  0.1787 -0.0568 -0.4375
  117MOL0     O16044   3.701   4.807  -1.717  0.4810  0.1366  0.0953
  117MOL0     C16045   3.684   4.776  -1.852 -0.5475  0.1679  0.4057
  117MOL0     C16046   3.540   4.740  -1.886 -0.6982  0.8795  0.1706
  117MOL0     C16047   3.480   4.613  -1.819  0.3621 -0.4280  0.5723
  117MOL0     C16048   3.327   4.621  -1.820 -0.7266  1.0931  0.3596
  117MOL0     C16049   3.250   4.490  -1.801  0.1516  0.4928  0.2692
  117MOL0     C16050   3.286   4.420  -1.673  0.9807 -0.8155 -0.2079
  117MOL0     C16051   3.171   4.320  -1.655  0.0413 -0.1730  0.8629
  117MOL0     C16052   3.235   4.178  -1.622 -0.9644  0.2199 -0.1480
  117MOL0    Cl16053   3.133   4.032  -1.581 -0.2168 -0.3349 -0.2548
  117MOL0     C16054   3.965   4.819  -1.711 -0.9082 -0.2002  0.3793
  117MOL0     C16055   4.079   4.832  -1.624  0.0334  0.1876 -0.3271
  117MOL0     O16056   4.321   4.974  -1.549 -0.2160  0.6223 -0.2385
  117MOL0     C16057   4.336   4.863  -1.207 -0.2028 -0.4844 -0.6339
  117MOL0     C16058   4.421   4.842  -1.093  0.2449 -0.7365 -0.1743
  117MOL0     N16059   4.911   4.397  -0.846 -0.3005  0.0964 -0.3124
  117MOL0     N16060   4.979   4.318  -0.783  0.4248  0.1154  0.0740
  117MOL0     C16061   5.087   3.953   0.078 -0.3732  0.8417 -0.0856
  117MOL0     C16062   5.056   3.816   0.088 -0.4012  0.5677  0.2878
  117MOL0     C16063   4.882   3.377   0.071  0.2315 -0.3160 -0.2509
  117MOL0     C16064   4.978   3.275   0.072 -0.0470  0.4750 -0.6512
  117MOL0     C16065   4.928   3.144   0.064  0.1939 -0.7523  0.1377
  117MOL0     C16066   4.792   3.117   0.036 -0.0760  1.0600  0.5579
  117MOL0     O16067   4.742   2.985   0.037  0.0784 -0.0135 -1.3635
  117MOL0     C16068   4.838   2.887   0.003 -0.0464  0.2766  0.8469
  117MOL0     C16069   4.770   2.751   0.010  0.9302 -0.5045 -0.3349
  117MOL0     C16070   4.682   2.706   0.137  0.5525  0.2934  0.6200
  117MOL0     C16071   4.751   2.730   0.266 -0.1242  0.0416 -1.0269
  117MOL0     C16072   4.879   2.663   0.270  1.4254 -0.2503 -1.1867
  117MOL0     C16073   4.993   2.626   0.280  0.0644  0.0882 -0.5184
  117MOL0     C16074   4.708   3.216   0.022  0.0419 -0.5510 -0.5566
  117MOL0     C16075   4.751   3.348   0.041 -0.2415 -0.0693  0.5110
  117MOL0     C16076   4.649   3.467   0.012 -0.5878  0.5781  0.8182
  117MOL0     H16077   4.739   3.812  -0.000  0.0754 -2.3901  1.5317
  117MOL0     H16078   4.764   4.053   0.021 -0.4226 -2.2121 -2.3653
  117MOL0     H16079   5.136   4.177   0.226  0.1885 -1.9232 -0.7125
  117MOL0     H16080   5.059   4.333   0.167 -2.5640 -0.8902 -0.2643
  117MOL0     H16081   5.315   4.292   0.125 -0.9202  0.6205  1.3061
  117MOL0     H16082   5.281   4.174   0.014  0.9779 -1.2905  3.4559
  117MOL0     H16083   5.141   4.308  -0.110 -0.7519 -0.3943  1.2386
  117MOL0     H16084   5.171   4.451  -0.015 -0.3377 -0.9179  0.3338
  117MOL0     H16085   5.409   4.461  -0.116  0.9236  2.5547 -3.5737
  117MOL0     H16086   5.373   4.294  -0.167 -1.4402  0.3330 -1.2729
  117MOL0     H16087   5.386   4.497  -0.335 -2.9508  0.6147 -2.7149
  117MOL0     H16088   5.222   4.526  -0.278 -1.6815 -1.0553 -3.4482
  117MOL0     H16089   5.309   4.260  -0.412 -0.1685 -0.2064  0.1961
  117MOL0     H16090   5.154   4.304  -0.356  1.5758 -1.9681  0.1203
  117MOL0     H16091   5.321   4.446  -0.565 -0.5146 -0.3313 -2.1924
  117MOL0     H16092   5.155   4.496  -0.502 -0.0063 -0.8940 -2.0720
  117MOL0     H16093   5.249   4.266  -0.665  2.2683  3.1311  0.7662
  117MOL0     H16094   5.103   4.256  -0.571  2.2513  1.0962  2.9981
  117MOL0     H16095   5.156   4.596  -0.760  1.8247 -0.9816 -0.7862
  117MOL0     H16096   5.016   4.695  -0.973 -0.5433  2.3297  2.3387
  117MOL0     H16097   4.892   4.709  -0.862 -1.1739  0.0410  0.0963
  117MOL0     H16098   4.819   4.697  -1.119 -1.4710  0.7903  0.5475
  117MOL0     H16099   4.851   4.527  -1.112 -2.8538 -0.3190 -0.5259
  117MOL0     H16100   4.613   4.572  -1.064  0.2568  1.2640 -0.5433
  117MOL0     H16101   4.686   4.502  -0.924 -0.0329  0.3902  0.2236
  117MOL0     H16102   4.524   4.711  -0.883 -0.7194 -0.9945 -0.0370
  117MOL0     H16103   4.693   4.735  -0.822 -0.4695 -2.4232  1.3505
  117MOL0     H16104   4.718   4.913  -1.223 -0.2060 -1.1726  0.8991
  117MOL0     H16105   4.648   5.064  -1.452  2.1511  0.0322 -0.1908
  117MOL0     H16106   4.561   4.939  -1.541 -0.6212  1.3091  0.7138
  117MOL0     H16107   4.710   4.896  -1.467 -0.8764 -0.8099 -2.1569
  117MOL0     H16108   3.909   4.879  -1.335 -0.6244 -2.5448  0.5799
  117MOL0     H16109   3.728   4.849  -1.468 -0.1495  2.5874 -0.6480
  117MOL0     H16110   3.722   4.860  -1.911  3.6124 -0.6186  1.6118
  117MOL0     H16111   3.759   4.699  -1.872 -0.2612  1.0183 -2.2068
  117MOL0     H16112   3.484   4.829  -1.857 -1.0643 -0.0851  2.6572
  117MOL0     H16113   3.542   4.723  -1.994 -1.0430  0.1760  0.2773
  117MOL0     H16114   3.511   4.594  -1.715 -1.6726 -2.1431  0.9383
  117MOL0     H16115   3.506   4.525  -1.880  1.6831  1.2509 -1.4268
  117MOL0     H16116   3.298   4.655  -1.920 -4.1340 -2.7453 -0.2192
  117MOL0     H16117   3.302   4.691  -1.740 -3.4580  0.9924 -0.3243
  117MOL0     H16118   3.147   4.524  -1.787  0.1539 -0.1243  2.0790
  117MOL0     H16119   3.252   4.422  -1.887 -3.5668  0.0958  0.3211
  117MOL0     H16120   3.292   4.495  -1.594  2.0670 -1.4357  0.3208
  117MOL0     H16121   3.387   4.380  -1.689  1.4170 -0.0811  0.6371
  117MOL0     H16122   3.109   4.312  -1.744  2.6046  2.8170 -1.3981
  117MOL0     H16123   3.111   4.354  -1.570  0.5400  1.1875  0.7011
  117MOL0     H16124   3.315   4.192  -1.548 -0.7701  2.4812 -0.6931
  117MOL0     H16125   3.287   4.146  -1.713  1.7106 -2.4035  2.0709
  117MOL0     H16126   3.991   4.785  -1.810 -1.2369 -0.6170  0.4357
  117MOL0     H16127   4.169   4.802  -1.677 -0.6977  0.0432 -1.5263
  117MOL0     H16128   4.236   4.830  -1.182  0.7652 -0.2430  4.9287
  117MOL0     H16129   4.372   4.805  -1.004 -0.6966 -0.4186 -0.5431
  117MOL0     H16130   5.187   3.990   0.098 -0.8327  1.2573  1.5926
  117MOL0     H16131   5.139   3.748   0.107 -0.0298  1.2094  1.0217
  117MOL0     H16132   5.085   3.288   0.085 -0.0205  0.4531 -0.8479
  117MOL0     H16133   5.004   3.068   0.077  1.7421 -0.0503 -3.7061
  117MOL0     H16134   4.876   2.912  -0.096 -0.8139 -0.2990  0.3989
  117MOL0     H16135   4.918   2.890   0.078  0.0578  0.0680  0.7425
  117MOL0     H16136   4.847   2.675  -0.001 -0.1678 -1.8720  0.8849
  117MOL0     H16137   4.699   2.745  -0.073  0.6394 -0.2555 -0.1081
  117MOL0     H16138   4.588   2.761   0.133 -0.3603 -1.2164 -3.2201
  117MOL0     H16139   4.654   2.601   0.137 -2.4832  1.0029  0.8071
  117MOL0     H16140   4.685   2.699   0.348  3.4842 -1.8583  1.3910
  117MOL0     H16141   4.775   2.836   0.277 -2.5695  0.4833  1.1562
  117MOL0     H16142   5.094   2.594   0.264  0.7867  2.5914 -1.4044
  117MOL0     H16143   4.604   3.197  -0.001 -1.4138  1.0236  3.7552
  117MOL0     H16144   4.660   3.553   0.079  2.5836  2.7739 -2.1924
  117MOL0     H16145   4.674   3.509  -0.085 -4.0885  2.5977  0.6350
  117MOL0     H16146   4.550   3.421   0.016 -0.3005 -0.9323 -3.7545
  118MOL0     O16147  10.213   2.231   2.947 -0.0693 -0.0639 -0.0229
  118MOL0     C16148  10.234   2.118   2.906  0.3629  0.5215 -1.1336
  118MOL0     O16149  10.192   2.074   2.786  0.3156  0.3878  0.5784
  118MOL0     C16150  10.133   2.159   2.697  0.4945  0.6277  0.5927
  118MOL0     C16151  10.197   2.244   2.602 -0.4918 -0.4183 -0.8380
  118MOL0     C16152  10.127   2.338   2.530  1.0833 -0.2638 -0.0698
  118MOL0     C16153   9.983   2.353   2.546 -0.2217  0.0435 -0.2421
  118MOL0     O16154   9.922   2.461   2.475  0.2230 -0.0982  0.0244
  118MOL0     C16155   9.779   2.458   2.468 -0.0375 -0.1501  0.1734
  118MOL0     C16156   9.737   2.580   2.376 -1.3105  0.3689  0.0174
  118MOL0     C16157   9.727   2.528   2.234  0.3503  0.2084 -0.2197
  118MOL0     C16158   9.677   2.636   2.134  1.0115 -0.1583  0.2872
  118MOL0     C16159   9.671   2.582   1.987 -0.0792 -0.6203 -0.6066
  118MOL0     C16160   9.639   2.680   1.876  0.4630  0.2500 -0.3170
  118MOL0     C16161   9.615   2.610   1.740  0.0723  0.2755 -0.1200
  118MOL0     C16162   9.725   2.544   1.657  0.0458 -0.6325  0.1487
  118MOL0     N16163   9.833   2.641   1.617 -0.0892 -0.0884 -0.0370
  118MOL0     C16164   9.814   2.769   1.564  0.0315  0.9232  0.0431
  118MOL0     C16165   9.937   2.806   1.541 -0.0638 -0.2460 -0.3109
  118MOL0     C16166   9.975   2.932   1.468  0.8659 -0.7621  0.5217
  118MOL0     C16167  10.032   3.040   1.561 -1.1262 -0.4391 -0.1732
  118MOL0     C16168  10.029   3.177   1.497 -0.2029  0.2347 -0.4426
  118MOL0     C16169  10.081   3.276   1.596 -0.8697  0.2845 -0.0065
  118MOL0     O16170  10.062   3.407   1.537  0.1840 -0.8733  0.1612
  118MOL0     C16171  10.109   3.516   1.605  0.1904  0.1489  0.4388
  118MOL0     C16172  10.075   3.644   1.558 -0.5303 -0.3167  0.6104
  118MOL0     C16173  10.098   3.760   1.634 -0.3726 -2.2850  0.1660
  118MOL0     C16174  10.085   3.905   1.576  0.6392 -0.5518  0.3586
  118MOL0     C16175  10.168   3.745   1.759  0.8149 -0.4223 -0.5291
  118MOL0     C16176  10.226   3.860   1.838  0.7120  0.6331 -1.0427
  118MOL0     O16177  10.349   3.841   1.885  0.6176  0.2905  0.0780
  118MOL0     C16178  10.413   3.946   1.952  0.2602  0.2518  0.1888
  118MOL0     C16179  10.407   3.947   2.097 -0.5459 -1.3984  1.4300
  118MOL0     C16180  10.466   4.059   2.166  0.3360 -0.0848  0.9663
  118MOL0     C16181  10.529   4.163   2.099 -0.6701 -0.4632 -0.1528
  118MOL0     O16182  10.579   4.264   2.175  0.3134 -0.0525 -0.0197
  118MOL0     C16183  10.658   4.366   2.104 -0.0823  0.4736  0.1272
  118MOL0     C16184  10.697   4.477   2.208  0.2213 -0.5808  0.6858
  118MOL0     C16185  10.739   4.612   2.143  0.3724  0.3426  0.7038
  118MOL0     C16186  10.613   4.698   2.106 -0.6722  0.2930  0.3425
  118MOL0     C16187  10.650   4.815   2.007  0.1941  0.7601 -0.5399
  118MOL0     C16188  10.530   4.903   1.975  0.1204  0.2421  0.1878
  118MOL0     C16189  10.413   4.805   1.917 -0.5060 -1.0800 -1.0826
  118MOL0     C16190  10.325   4.891   1.823 -0.6158  0.0843  0.0139
  118MOL0    Cl16191  10.356   4.877   1.649 -0.8250 -0.2117 -0.1653
  118MOL0     C16192  10.538   4.154   1.954  0.5210 -0.0447 -0.3140
  118MOL0     C16193  10.475   4.056   1.884  0.5903 -0.0269 -0.3652
  118MOL0     O16194  10.163   3.959   1.847 -0.8310 -0.0101  0.2257
  118MOL0     C16195  10.206   3.619   1.799  0.0308  0.3806  0.0661
  118MOL0     C16196  10.186   3.506   1.725  0.6454  0.6212  0.1026
  118MOL0     N16197  10.029   2.716   1.579 -0.0131  0.5355  0.8319
  118MOL0     N16198   9.967   2.613   1.629  0.1871  0.0871 -0.2441
  118MOL0     C16199   9.914   2.267   2.632 -0.2147 -0.1397 -0.5679
  118MOL0     C16200   9.989   2.161   2.703  0.0146 -0.6267 -0.0901
  118MOL0     C16201  10.272   2.010   3.010 -0.3091 -0.1784  0.6398
  118MOL0     C16202  10.294   1.880   2.959  0.4350  0.0133  0.0224
  118MOL0     C16203  10.333   1.773   3.043 -0.1359 -0.9783  0.3200
  118MOL0     C16204  10.350   1.798   3.181 -0.3986  0.2934  0.1676
  118MOL0     O16205  10.400   1.700   3.263  0.9898 -0.2118 -0.4245
  118MOL0     C16206  10.326   1.569   3.272 -0.7398 -0.5067  0.2018
  118MOL0     C16207  10.209   1.575   3.379  0.6259 -0.5409  0.3066
  118MOL0     C16208  10.218   1.473   3.479 -0.6031 -0.6926 -0.6692
  118MOL0     C16209  10.331   1.512   3.583  0.3306 -0.4120  0.4969
  118MOL0     C16210  10.373   1.397   3.664  0.6145  0.7419  0.2818
  118MOL0     C16211  10.390   1.302   3.732  0.6683  1.2696  0.2295
  118MOL0     C16212  10.336   1.924   3.235 -0.6015  0.0688 -0.1432
  118MOL0     C16213  10.295   2.030   3.151  0.8034  0.2283 -0.8732
  118MOL0     C16214  10.313   2.165   3.214  0.4875  0.8543 -0.3516
  118MOL0     H16215  10.304   2.256   2.599 -0.5692  0.3686 -0.7050
  118MOL0     H16216  10.188   2.423   2.503 -1.8611  3.4294  3.5002
  118MOL0     H16217   9.743   2.484   2.568 -0.9198  2.0190 -0.6515
  118MOL0     H16218   9.735   2.364   2.431 -0.5479  1.6626 -4.5359
  118MOL0     H16219   9.641   2.617   2.411 -4.5118 -5.1896 -1.6686
  118MOL0     H16220   9.806   2.663   2.392 -2.4099  1.3067  0.0319
  118MOL0     H16221   9.829   2.494   2.216  0.2666 -1.1314  1.5821
  118MOL0     H16222   9.652   2.448   2.226 -1.1988  1.7084 -1.3696
  118MOL0     H16223   9.575   2.651   2.171  0.5064 -3.6466  0.6764
  118MOL0     H16224   9.738   2.726   2.150  3.9681 -1.9524 -0.2345
  118MOL0     H16225   9.599   2.500   1.985  0.3358 -1.2177  2.9826
  118MOL0     H16226   9.761   2.525   1.963  0.6283 -0.0733  0.6518
  118MOL0     H16227   9.547   2.736   1.896 -0.9572 -1.5718 -1.4240
  118MOL0     H16228   9.714   2.760   1.873  0.3004  0.4993  1.3282
  118MOL0     H16229   9.576   2.693   1.681  0.3899  0.3136 -0.2784
  118MOL0     H16230   9.531   2.540   1.746  1.4378 -1.9493 -3.6304
  118MOL0     H16231   9.777   2.466   1.713  1.4847  0.3805  0.2641
  118MOL0     H16232   9.681   2.507   1.564 -1.5919  1.1426  0.1641
  118MOL0     H16233   9.721   2.815   1.535 -0.9608 -1.1552 -0.2614
  118MOL0     H16234   9.881   2.962   1.419  0.5657 -3.8334 -0.9745
  118MOL0     H16235  10.037   2.905   1.382  1.6292 -1.6924  1.3550
  118MOL0     H16236   9.973   3.047   1.653 -1.5735  2.4896 -0.6043
  118MOL0     H16237  10.138   3.014   1.570 -0.7951  0.3665 -1.4785
  118MOL0     H16238  10.087   3.159   1.406 -1.6462 -0.8553 -1.2023
  118MOL0     H16239   9.929   3.202   1.458 -2.8707 -2.8693  3.5372
  118MOL0     H16240  10.031   3.268   1.694  2.2454  2.6761  1.9943
  118MOL0     H16241  10.182   3.238   1.612 -1.4410 -0.7121  1.4095
  118MOL0     H16242  10.036   3.651   1.457  1.1545 -3.0111 -0.3231
  118MOL0     H16243  10.179   3.959   1.587  0.2464  0.1371  0.4078
  118MOL0     H16244  10.014   3.964   1.634  0.3500  0.7672 -1.2429
  118MOL0     H16245  10.042   3.903   1.475 -4.8241  2.2546  2.2132
  118MOL0     H16246  10.381   3.862   2.159 -1.1658 -0.6755  2.1838
  118MOL0     H16247  10.447   4.070   2.273 -1.7093  0.5967  0.5905
  118MOL0     H16248  10.748   4.324   2.058  0.1609  2.2718 -1.1446
  118MOL0     H16249  10.606   4.408   2.018  0.5436  0.5934 -0.1990
  118MOL0     H16250  10.614   4.490   2.278 -3.0994  1.5787 -3.2233
  118MOL0     H16251  10.782   4.425   2.254 -0.0090 -0.7415  0.9326
  118MOL0     H16252  10.796   4.588   2.053 -0.8736  0.1392 -0.0632
  118MOL0     H16253  10.791   4.676   2.215 -0.5511 -1.0611  2.7212
  118MOL0     H16254  10.590   4.739   2.205  3.7342  1.5264  1.0637
  118MOL0     H16255  10.538   4.629   2.065  0.1071 -1.7641  2.1427
  118MOL0     H16256  10.731   4.863   2.062  1.7720 -3.0199  0.7471
  118MOL0     H16257  10.681   4.765   1.915 -0.4111  0.5081 -0.6151
  118MOL0     H16258  10.563   4.976   1.900 -1.8301  0.7060 -0.2640
  118MOL0     H16259  10.490   4.971   2.050  2.8691  0.7909  1.2956
  118MOL0     H16260  10.353   4.774   2.003  0.4954  1.1430  0.5358
  118MOL0     H16261  10.444   4.712   1.870 -2.4116 -1.9990 -0.6150
  118MOL0     H16262  10.318   4.997   1.851  1.9886  0.4678 -0.5727
  118MOL0     H16263  10.221   4.857   1.833  0.6273 -3.4828  2.5040
  118MOL0     H16264  10.568   4.233   1.886 -1.6263  0.0805 -1.2070
  118MOL0     H16265  10.480   4.062   1.776  2.0428 -3.4187 -0.6166
  118MOL0     H16266  10.265   3.624   1.890  2.4652  3.1059 -1.4776
  118MOL0     H16267  10.206   3.410   1.771  3.0080 -0.6037 -3.0962
  118MOL0     H16268   9.810   2.288   2.651  0.1669  2.2696 -0.8538
  118MOL0     H16269   9.937   2.093   2.769 -1.8202  2.1588  1.5761
  118MOL0     H16270  10.295   1.857   2.853 -2.2654 -0.5420  0.0376
  118MOL0     H16271  10.360   1.684   2.986 -0.9607  0.4683 -2.5123
  118MOL0     H16272  10.286   1.545   3.173  0.2531  0.0774 -0.3555
  118MOL0     H16273  10.404   1.496   3.298  0.3866  0.2695 -0.8815
  118MOL0     H16274  10.113   1.564   3.327  0.9143 -0.4334 -0.2495
  118MOL0     H16275  10.202   1.667   3.438 -1.4631 -2.0698  2.6814
  118MOL0     H16276  10.130   1.472   3.545 -1.2579 -1.9282 -1.5226
  118MOL0     H16277  10.247   1.377   3.434  1.7465  1.1865 -3.5391
  118MOL0     H16278  10.290   1.575   3.662  2.7144  0.5446  1.0666
  118MOL0     H16279  10.424   1.555   3.545 -1.4055  3.4833  0.2004
  118MOL0     H16280  10.405   1.208   3.781  2.2523  0.5693 -1.4929
  118MOL0     H16281  10.372   1.944   3.336  1.8002 -0.0553 -0.9041
  118MOL0     H16282  10.219   2.213   3.241 -0.5619  0.4523 -3.0223
  118MOL0     H16283  10.378   2.153   3.301  1.6220  1.2725 -1.1111
  118MOL0     H16284  10.381   2.226   3.153  2.2096 -2.7012 -2.2858
  119MOL0     O16285   1.909   4.960   4.791  0.0941 -0.5897 -0.4510
  119MOL0     C16286   1.890   4.980   4.910  0.8992 -0.1245 -0.5910
  119MOL0     O16287   1.960   4.921   5.007  0.6081 -0.8758 -1.2367
  119MOL0     C16288   2.067   4.839   4.986  0.3428  1.1139 -0.1092
  119MOL0     C16289   2.155   4.859   4.877 -0.5133  0.5297  0.0529
  119MOL0     C16290   2.255   4.763   4.854 -0.8547  0.0233  0.8360
  119MOL0     C16291   2.263   4.647   4.928  0.4197  0.5446 -0.9964
  119MOL0     O16292   2.338   4.544   4.893 -0.4841 -0.4164  0.4423
  119MOL0     C16293   2.482   4.563   4.897 -0.6071  1.1732  0.0941
  119MOL0     C16294   2.566   4.511   4.777  0.7008  0.1981  0.7801
  119MOL0     C16295   2.583   4.621   4.669 -0.2624 -0.7074 -0.4183
  119MOL0     C16296   2.490   4.599   4.552  0.7044  0.6747 -0.1872
  119MOL0     C16297   2.477   4.735   4.480 -0.7307 -0.4004  0.0477
  119MOL0     C16298   2.466   4.732   4.319 -1.0003 -0.0713 -0.6980
  119MOL0     C16299   2.340   4.657   4.274  0.1170  0.6189  0.3398
  119MOL0     C16300   2.212   4.687   4.346  1.0782 -0.2802 -0.7706
  119MOL0     N16301   2.145   4.806   4.289 -0.3262 -0.6870 -0.2199
  119MOL0     C16302   2.165   4.932   4.339  0.2500  0.2701 -1.2350
  119MOL0     C16303   2.068   5.010   4.285  0.0937  0.1871  0.0270
  119MOL0     C16304   2.036   5.156   4.313 -0.2181 -0.0574 -0.0365
  119MOL0     C16305   1.910   5.179   4.387  0.4129 -1.3169 -0.8634
  119MOL0     C16306   1.898   5.331   4.399  0.7052 -0.5729 -0.7648
  119MOL0     C16307   1.794   5.376   4.498  0.4084 -0.6109  0.7968
  119MOL0     O16308   1.776   5.521   4.485  0.7760  0.2044  0.7280
  119MOL0     C16309   1.706   5.572   4.371  0.0294 -0.2829  0.3075
  119MOL0     C16310   1.718   5.717   4.351 -0.3500  0.8184 -0.5566
  119MOL0     C16311   1.656   5.782   4.244  0.3492  0.6707  0.4870
  119MOL0     C16312   1.696   5.929   4.242 -0.8175 -0.6485  0.2353
  119MOL0     C16313   1.569   5.712   4.153 -0.1894 -0.6102 -0.0873
  119MOL0     C16314   1.499   5.778   4.044 -0.6776 -0.8297 -0.1313
  119MOL0     O16315   1.413   5.689   3.994  0.5738 -0.5190  0.5770
  119MOL0     C16316   1.328   5.740   3.900  0.6166  0.5437 -0.5507
  119MOL0     C16317   1.371   5.780   3.772  0.0763 -0.2338 -1.1753
  119MOL0     C16318   1.287   5.815   3.668  0.6682 -0.6296 -0.2953
  119MOL0     C16319   1.150   5.808   3.679  0.5751  0.2506  0.4057
  119MOL0     O16320   1.056   5.840   3.586  0.0705 -0.2929  0.0164
  119MOL0     C16321   1.111   5.928   3.481  0.1758  0.0836 -0.3081
  119MOL0     C16322   1.006   5.987   3.385  0.3682 -0.4981 -1.0333
  119MOL0     C16323   1.063   6.086   3.273 -0.2824  0.6029 -0.9448
  119MOL0     C16324   1.118   6.213   3.334  0.1976  0.4866 -0.7296
  119MOL0     C16325   1.107   6.334   3.239 -1.0850 -0.3499  0.4650
  119MOL0     C16326   1.176   6.314   3.096  0.8472  0.0034 -0.9127
  119MOL0     C16327   1.144   6.432   3.008  0.3870 -0.2345  0.3120
  119MOL0     C16328   1.259   6.517   2.974 -0.4898  0.7419 -0.5681
  119MOL0    Cl16329   1.389   6.431   2.875 -0.6447  0.4937 -0.0594
  119MOL0     C16330   1.108   5.758   3.807  0.6328  0.3252  0.0746
  119MOL0     C16331   1.196   5.714   3.908  0.5074 -0.2479 -0.0482
  119MOL0     O16332   1.534   5.893   4.003  0.1199  0.8518 -0.2746
  119MOL0     C16333   1.567   5.564   4.179 -0.9060  0.1120  0.1318
  119MOL0     C16334   1.643   5.497   4.279 -0.3984 -0.9587  0.3663
  119MOL0     N16335   1.990   4.927   4.205 -0.4164  1.1583 -0.0648
  119MOL0     N16336   2.031   4.801   4.205  0.4641  0.5668 -1.0609
  119MOL0     C16337   2.170   4.638   5.033  0.5402  0.1986  0.3863
  119MOL0     C16338   2.073   4.727   5.063 -0.6012 -0.3074 -0.8440
  119MOL0     C16339   1.824   5.108   4.955  0.3077 -0.7725  0.1711
  119MOL0     C16340   1.857   5.155   5.083  0.2647  0.1686  0.2033
  119MOL0     C16341   1.804   5.273   5.134 -0.2564  0.1741  0.3307
  119MOL0     C16342   1.724   5.349   5.060  0.5857 -0.5149 -0.6361
  119MOL0     O16343   1.686   5.467   5.125 -0.1394  0.1586  0.6683
  119MOL0     C16344   1.644   5.581   5.038  0.1015 -0.1901 -0.7770
  119MOL0     C16345   1.636   5.698   5.143  0.1810 -0.0423  0.0829
  119MOL0     C16346   1.594   5.829   5.077 -0.3370 -0.2861 -0.6362
  119MOL0     C16347   1.461   5.828   5.008 -0.2791 -0.2191 -0.6627
  119MOL0     C16348   1.405   5.964   4.998  0.4834 -0.6355 -0.5928
  119MOL0     C16349   1.341   6.073   5.010 -0.0585 -0.2430  0.5340
  119MOL0     C16350   1.683   5.301   4.935  0.5098  0.4019  0.3844
  119MOL0     C16351   1.728   5.179   4.879  0.5108 -0.5375  0.5747
  119MOL0     C16352   1.668   5.125   4.752 -0.0603 -0.2404  0.5269
  119MOL0     H16353   2.157   4.935   4.799  3.7604  0.8022  0.1781
  119MOL0     H16354   2.327   4.785   4.775 -0.4529 -3.3559  0.1049
  119MOL0     H16355   2.520   4.512   4.986 -1.4230  0.5253  0.0788
  119MOL0     H16356   2.510   4.669   4.906 -1.5653  1.4156  0.2444
  119MOL0     H16357   2.659   4.465   4.810  0.0094 -0.0027  2.5639
  119MOL0     H16358   2.503   4.433   4.732 -1.3339  1.3502  1.4876
  119MOL0     H16359   2.550   4.716   4.713  1.0051  0.6886 -2.3629
  119MOL0     H16360   2.690   4.619   4.646  0.8355  0.2514  3.7093
  119MOL0     H16361   2.532   4.522   4.487 -0.2108 -0.2491  0.2797
  119MOL0     H16362   2.395   4.564   4.594  1.2238  1.0756  1.3906
  119MOL0     H16363   2.565   4.800   4.492 -0.7145 -0.4140  0.0074
  119MOL0     H16364   2.396   4.793   4.525  2.0540  1.8196  2.6135
  119MOL0     H16365   2.465   4.835   4.283 -1.7761 -0.3337 -1.4520
  119MOL0     H16366   2.541   4.676   4.262 -1.6497 -1.1901 -0.4794
  119MOL0     H16367   2.362   4.550   4.288  2.0342  1.1168  1.4894
  119MOL0     H16368   2.328   4.673   4.167  2.4341  1.2466  0.1291
  119MOL0     H16369   2.156   4.593   4.339  1.8472 -0.6065 -3.7953
  119MOL0     H16370   2.227   4.707   4.453 -1.6081  1.2319 -0.5958
  119MOL0     H16371   2.241   4.962   4.411 -0.2918  1.0889 -0.9897
  119MOL0     H16372   2.029   5.219   4.224 -1.4962  0.0988  0.1522
  119MOL0     H16373   2.119   5.194   4.373  0.6339 -0.1023 -1.1577
  119MOL0     H16374   1.817   5.158   4.333  0.1419  0.0055 -0.9269
  119MOL0     H16375   1.906   5.134   4.487  1.5987  0.8629  0.2225
  119MOL0     H16376   1.998   5.373   4.411 -0.3779  1.4641  2.5526
  119MOL0     H16377   1.866   5.364   4.299  0.9415 -1.8743 -1.2926
  119MOL0     H16378   1.703   5.330   4.457  1.5434  0.8114 -4.0023
  119MOL0     H16379   1.824   5.342   4.597 -0.2031  0.1098  1.2424
  119MOL0     H16380   1.779   5.752   4.434 -0.6015 -2.5314  1.2598
  119MOL0     H16381   1.768   5.940   4.324  0.8710 -1.4821 -1.0597
  119MOL0     H16382   1.620   6.006   4.256 -1.5876 -1.4837  0.8188
  119MOL0     H16383   1.745   5.952   4.147 -1.5258  0.1426  0.0508
  119MOL0     H16384   1.479   5.781   3.765  0.0098 -0.2911 -2.3371
  119MOL0     H16385   1.326   5.861   3.578 -1.5957  3.5197  0.5752
  119MOL0     H16386   1.168   6.010   3.525 -1.6338  1.9347 -1.2907
  119MOL0     H16387   1.187   5.879   3.419  0.7761 -0.7332  1.0064
  119MOL0     H16388   0.952   5.909   3.330 -1.4738 -0.5387  0.7430
  119MOL0     H16389   0.927   6.037   3.441  1.4539  1.3361 -1.0651
  119MOL0     H16390   0.985   6.114   3.202  0.4052  0.3860 -1.8065
  119MOL0     H16391   1.143   6.032   3.220  0.1174  0.7816 -0.5322
  119MOL0     H16392   1.224   6.195   3.357 -0.3759 -0.9068  1.1518
  119MOL0     H16393   1.078   6.242   3.432  0.2202 -0.2853 -0.4834
  119MOL0     H16394   1.004   6.367   3.226 -0.2307  3.3913  1.9903
  119MOL0     H16395   1.154   6.422   3.283  0.8307 -2.2130  2.4014
  119MOL0     H16396   1.128   6.229   3.048  0.7059 -0.6240  0.3179
  119MOL0     H16397   1.283   6.293   3.103  1.0954  0.8706 -1.8449
  119MOL0     H16398   1.063   6.494   3.048 -0.2893 -0.1455 -1.1250
  119MOL0     H16399   1.114   6.381   2.915  1.4176  3.3440 -2.1778
  119MOL0     H16400   1.302   6.545   3.071  0.2015 -2.5639  0.1899
  119MOL0     H16401   1.222   6.601   2.914 -1.9665 -0.0534 -0.8121
  119MOL0     H16402   1.001   5.750   3.820  0.8527 -2.0956  0.8660
  119MOL0     H16403   1.154   5.671   3.999 -1.5462  2.3534  0.3291
  119MOL0     H16404   1.506   5.506   4.110 -2.0904  0.8864  0.5065
  119MOL0     H16405   1.630   5.390   4.290 -2.3044 -0.5977  2.2929
  119MOL0     H16406   2.176   4.557   5.106  2.6162 -0.5261 -0.5079
  119MOL0     H16407   2.009   4.706   5.149 -1.3616 -0.9476 -1.5473
  119MOL0     H16408   1.925   5.097   5.145 -2.6882 -2.9306  0.8655
  119MOL0     H16409   1.834   5.304   5.233  0.4142 -0.5380  0.3680
  119MOL0     H16410   1.713   5.607   4.957  0.3711 -0.9543 -0.8038
  119MOL0     H16411   1.546   5.571   4.989  0.6504  1.1788 -2.2250
  119MOL0     H16412   1.736   5.723   5.181  1.1347  1.0362 -2.8281
  119MOL0     H16413   1.562   5.681   5.221 -1.4329 -0.0295 -1.3850
  119MOL0     H16414   1.598   5.913   5.147 -1.0163 -0.9299  0.1988
  119MOL0     H16415   1.673   5.854   5.006 -0.1009  2.5445  0.5003
  119MOL0     H16416   1.392   5.767   5.067  0.2475 -1.1631 -1.0084
  119MOL0     H16417   1.465   5.784   4.908 -2.2452 -1.6555 -0.1599
  119MOL0     H16418   1.286   6.164   5.021 -1.7000 -1.3676  2.2018
  119MOL0     H16419   1.603   5.343   4.874 -0.8055  0.7010  2.2312
  119MOL0     H16420   1.630   5.026   4.780  1.0389 -0.3601  1.6769
  119MOL0     H16421   1.585   5.181   4.708  0.2062 -0.8407 -0.7735
  119MOL0     H16422   1.750   5.108   4.682 -0.6254 -1.8495  0.1935
  120MOL0     O16423   0.731   4.547   4.418 -0.0995 -0.2806  0.8768
  120MOL0     C16424   0.620   4.557   4.480 -0.4987 -0.0581  1.1741
  120MOL0     O16425   0.566   4.461   4.558  0.1488  0.4558 -0.0665
  120MOL0     C16426   0.617   4.339   4.533  0.1507 -0.9590  0.1057
  120MOL0     C16427   0.630   4.285   4.409  0.1693  1.4713  0.0716
  120MOL0     C16428   0.669   4.151   4.398 -0.5594  0.8174  0.6051
  120MOL0     C16429   0.671   4.070   4.512  1.2218 -0.0198  0.4141
  120MOL0     O16430   0.714   3.943   4.512  0.8183 -0.0689  0.3201
  120MOL0     C16431   0.647   3.864   4.410  0.1736 -0.0163 -0.1473
  120MOL0     C16432   0.748   3.802   4.313  0.4314  0.3256 -0.6532
  120MOL0     C16433   0.842   3.707   4.386 -0.7903  0.6130  0.3524
  120MOL0     C16434   0.919   3.621   4.281  0.3545  0.1825 -0.3507
  120MOL0     C16435   0.933   3.473   4.326  0.1008  1.1996 -0.3499
  120MOL0     C16436   1.041   3.399   4.258  0.1573  0.5577 -0.6726
  120MOL0     C16437   1.039   3.415   4.105  1.3806  0.3134 -0.4233
  120MOL0     C16438   1.153   3.340   4.035 -0.0108  0.2044 -0.2915
  120MOL0     N16439   1.146   3.325   3.885  0.5765 -0.1053 -0.1589
  120MOL0     C16440   1.086   3.219   3.823  0.5333  0.7225  0.1383
  120MOL0     C16441   1.081   3.248   3.695 -0.1061 -0.4151  1.7452
  120MOL0     C16442   0.995   3.172   3.591 -0.1874  0.5215 -0.0206
  120MOL0     C16443   1.025   3.021   3.576  0.0983 -1.0187 -0.2898
  120MOL0     C16444   0.917   2.951   3.486  0.2293 -0.2182 -0.0013
  120MOL0     C16445   0.951   2.808   3.465 -0.3765 -0.6519 -0.0963
  120MOL0     O16446   0.841   2.752   3.384  0.0473 -1.2219 -0.0284
  120MOL0     C16447   0.874   2.724   3.255  0.6133  0.1496 -0.3453
  120MOL0     C16448   0.985   2.645   3.221 -0.2893 -0.4933 -1.1238
  120MOL0     C16449   1.037   2.643   3.093 -0.0544  0.2121 -0.1592
  120MOL0     C16450   1.172   2.568   3.062 -0.6880 -0.7968 -0.1509
  120MOL0     C16451   0.955   2.701   2.987 -0.1462 -0.0846 -0.8109
  120MOL0     C16452   0.997   2.704   2.845  0.3177 -0.1837  1.2455
  120MOL0     O16453   0.904   2.748   2.750  0.5074  0.2679  0.5300
  120MOL0     C16454   0.917   2.721   2.615  0.0352 -0.6869 -0.0853
  120MOL0     C16455   0.873   2.813   2.522  0.2848 -0.2347  0.9648
  120MOL0     C16456   0.874   2.771   2.385 -1.0259 -0.8159 -0.2040
  120MOL0     C16457   0.912   2.654   2.333  0.6224  0.9262 -0.3908
  120MOL0     O16458   0.911   2.620   2.204 -0.4450 -0.1377 -0.4704
  120MOL0     C16459   0.823   2.673   2.107 -0.5738 -0.3724  0.1891
  120MOL0     C16460   0.789   2.587   1.974 -0.0517  1.1895 -0.3960
  120MOL0     C16461   0.720   2.464   2.028  0.0263 -0.3241 -0.1229
  120MOL0     C16462   0.648   2.376   1.925  0.1740  0.3476 -0.0319
  120MOL0     C16463   0.508   2.428   1.898  0.0496 -0.5349  0.3754
  120MOL0     C16464   0.454   2.368   1.770  0.4500  0.7490 -0.0972
  120MOL0     C16465   0.415   2.220   1.784 -0.2002  0.1929  0.5835
  120MOL0     C16466   0.295   2.173   1.877  0.1213 -0.8022  0.7598
  120MOL0    Cl16467   0.141   2.204   1.797 -0.1657  0.5677 -0.4108
  120MOL0     C16468   0.977   2.570   2.429  0.8481  0.0328 -0.8392
  120MOL0     C16469   0.970   2.594   2.566 -0.0807  1.2606 -0.3035
  120MOL0     O16470   1.114   2.680   2.820  0.3079  0.3214  0.7497
  120MOL0     C16471   0.835   2.762   3.018  0.2183  1.1494  0.4506
  120MOL0     C16472   0.787   2.773   3.145  0.5160 -0.6423  0.4998
  120MOL0     N16473   1.156   3.366   3.685  0.7945  0.2221  0.3151
  120MOL0     N16474   1.196   3.413   3.797 -0.1640 -0.5053  0.7528
  120MOL0     C16475   0.671   4.136   4.639 -0.6520  0.2387 -0.2631
  120MOL0     C16476   0.640   4.273   4.647 -0.1603 -0.6785 -0.5041
  120MOL0     C16477   0.577   4.698   4.504  1.0799  0.6099  1.0998
  120MOL0     C16478   0.541   4.742   4.639 -1.3637  0.0007  0.2344
  120MOL0     C16479   0.506   4.874   4.657  0.4525 -0.3592  0.1968
  120MOL0     C16480   0.486   4.971   4.555 -0.5060 -0.5163  0.6601
  120MOL0     O16481   0.452   5.094   4.591 -0.8566  0.0903  0.1071
  120MOL0     C16482   0.387   5.185   4.505 -0.0870  1.5790 -0.3411
  120MOL0     C16483   0.341   5.305   4.589  0.6782 -0.5886  0.0763
  120MOL0     C16484   0.298   5.421   4.497 -1.1413 -0.2947  0.9252
  120MOL0     C16485   0.235   5.535   4.581  0.8154  0.4766  0.5585
  120MOL0     C16486   0.119   5.489   4.662 -0.5703 -0.3670 -0.6151
  120MOL0     C16487   0.027   5.473   4.737  0.0467  0.6161 -0.4023
  120MOL0     C16488   0.534   4.937   4.425 -0.4878  0.2023 -0.1889
  120MOL0     C16489   0.574   4.799   4.399  1.0196  0.4481  0.0137
  120MOL0     C16490   0.625   4.764   4.264 -0.1584  1.3925  0.3281
  120MOL0     H16491   0.630   4.347   4.320  0.3279  0.5827 -0.5715
  120MOL0     H16492   0.675   4.110   4.298 -0.5539 -0.5890  1.1560
  120MOL0     H16493   0.568   3.915   4.353  0.2340  0.7043  0.3885
  120MOL0     H16494   0.589   3.782   4.454 -1.0812 -1.1479 -3.5771
  120MOL0     H16495   0.695   3.747   4.235 -2.0876  1.4210  0.1901
  120MOL0     H16496   0.815   3.869   4.258  1.5038 -0.2358 -0.0534
  120MOL0     H16497   0.921   3.759   4.442 -0.3373 -1.3399  1.6307
  120MOL0     H16498   0.794   3.638   4.455  0.9323  0.8444  1.8445
  120MOL0     H16499   0.857   3.622   4.191  1.0184  2.0564 -0.8172
  120MOL0     H16500   1.017   3.660   4.254  2.2559 -3.7417  0.1633
  120MOL0     H16501   0.841   3.415   4.312  1.9810 -1.9344 -0.7730
  120MOL0     H16502   0.966   3.466   4.431  2.0605 -0.2133 -1.0030
  120MOL0     H16503   1.145   3.430   4.274 -0.1787  1.7426 -0.7072
  120MOL0     H16504   1.037   3.293   4.285  0.6055  0.7644  0.2379
  120MOL0     H16505   1.032   3.522   4.082 -3.1041 -0.0948 -1.7809
  120MOL0     H16506   0.949   3.368   4.066  2.1045 -1.1643 -0.3768
  120MOL0     H16507   1.247   3.393   4.058  0.1408 -0.5110  0.7875
  120MOL0     H16508   1.151   3.242   4.082  3.4050  1.7639  3.8895
  120MOL0     H16509   1.020   3.140   3.856 -0.0116  1.0828 -0.0686
  120MOL0     H16510   1.010   3.227   3.498  2.7969 -1.7734 -1.0584
  120MOL0     H16511   0.891   3.165   3.622  0.5651 -1.9952  2.3289
  120MOL0     H16512   1.129   3.011   3.544  0.1346 -1.1812 -0.1227
  120MOL0     H16513   1.023   2.980   3.677  1.7219 -3.5679 -1.2131
  120MOL0     H16514   0.816   2.945   3.526 -0.4202 -0.8806 -1.6175
  120MOL0     H16515   0.906   3.014   3.397  0.8611 -1.7626 -1.2208
  120MOL0     H16516   1.042   2.794   3.406 -0.2979 -1.4809  0.2115
  120MOL0     H16517   0.955   2.745   3.554  0.5647 -0.6135 -0.1024
  120MOL0     H16518   1.038   2.598   3.304  0.1066  3.0620  0.8622
  120MOL0     H16519   1.244   2.624   3.001 -0.7191 -1.3240 -0.6826
  120MOL0     H16520   1.145   2.483   2.999  0.4120 -0.1352 -1.5669
  120MOL0     H16521   1.221   2.520   3.147 -0.3471 -1.2035 -0.5715
  120MOL0     H16522   0.837   2.910   2.552 -4.4008 -1.6129  0.5235
  120MOL0     H16523   0.835   2.838   2.309 -1.0701 -0.4936  0.1030
  120MOL0     H16524   0.728   2.696   2.156 -1.1365  3.2841 -2.2191
  120MOL0     H16525   0.868   2.764   2.065  0.7757 -0.9098  0.4295
  120MOL0     H16526   0.719   2.646   1.914 -0.5675  1.3858  0.3796
  120MOL0     H16527   0.881   2.561   1.922  1.0444  1.0558  1.5258
  120MOL0     H16528   0.653   2.493   2.109 -0.0298  1.6597 -0.8224
  120MOL0     H16529   0.797   2.400   2.072  1.7602  1.6774 -0.1164
  120MOL0     H16530   0.630   2.275   1.963 -2.7626  0.9569  0.4328
  120MOL0     H16531   0.704   2.368   1.831  0.5162  0.7978  0.1289
  120MOL0     H16532   0.450   2.422   1.991  2.8079 -0.4129  2.2130
  120MOL0     H16533   0.530   2.533   1.877 -2.0838 -0.3391 -1.1723
  120MOL0     H16534   0.532   2.374   1.694  1.4408  2.4064  0.9858
  120MOL0     H16535   0.371   2.431   1.737 -1.3707 -0.5529  1.7015
  120MOL0     H16536   0.503   2.161   1.812  0.7001  1.7831  1.2447
  120MOL0     H16537   0.393   2.187   1.682  2.7077 -0.2820  0.0155
  120MOL0     H16538   0.296   2.229   1.971  2.1640 -1.3598  1.1099
  120MOL0     H16539   0.302   2.065   1.891  0.9980 -1.0868 -1.4452
  120MOL0     H16540   1.013   2.473   2.397 -1.7867 -1.5077  0.5012
  120MOL0     H16541   1.002   2.510   2.628 -1.9232 -1.4252 -2.7347
  120MOL0     H16542   0.767   2.799   2.942  1.1842 -0.9357 -1.5457
  120MOL0     H16543   0.695   2.823   3.175 -0.4817 -2.4966  0.7419
  120MOL0     H16544   0.703   4.087   4.731 -0.9268  0.9360  0.2183
  120MOL0     H16545   0.637   4.327   4.741 -0.9667  2.1067 -2.0282
  120MOL0     H16546   0.527   4.676   4.724 -2.1660  2.4734  2.1355
  120MOL0     H16547   0.464   4.910   4.751  4.1000  0.0263  1.8167
  120MOL0     H16548   0.473   5.212   4.444 -0.5480 -0.1650 -1.8640
  120MOL0     H16549   0.304   5.141   4.448  0.5025 -1.8369  1.2112
  120MOL0     H16550   0.423   5.346   4.648  0.3539 -1.5133  1.2141
  120MOL0     H16551   0.257   5.276   4.652  0.2394 -0.3183 -0.3785
  120MOL0     H16552   0.379   5.477   4.450 -4.5713  1.7332 -3.2361
  120MOL0     H16553   0.232   5.381   4.420 -0.4055 -0.8714  0.5844
  120MOL0     H16554   0.195   5.611   4.513  0.5782 -0.2412 -0.1320
  120MOL0     H16555   0.317   5.580   4.637  1.0228  2.1937 -1.0060
  120MOL0     H16556  -0.072   5.454   4.773  0.0851  0.0941 -0.5645
  120MOL0     H16557   0.540   5.001   4.337 -0.8810 -1.2630 -1.3218
  120MOL0     H16558   0.584   4.834   4.190 -0.0794 -1.7524 -3.0145
  120MOL0     H16559   0.734   4.753   4.262 -0.4269 -2.7404 -1.6481
  120MOL0     H16560   0.578   4.667   4.245  2.4103  0.2514 -0.5919
  121MOL0     O16561   0.184   4.775   9.084  0.6232  0.3864 -0.1020
  121MOL0     C16562   0.101   4.714   9.145  1.3660  0.0237  0.0877
  121MOL0     O16563  -0.025   4.671   9.101  0.0170 -0.6216 -0.6408
  121MOL0     C16564  -0.063   4.729   8.986 -0.5234  0.7293 -0.2896
  121MOL0     C16565  -0.181   4.816   8.980 -0.8938  0.1417 -0.5999
  121MOL0     C16566  -0.222   4.874   8.854 -0.4874  1.5523 -1.3960
  121MOL0     C16567  -0.142   4.851   8.739  0.4063 -0.3298 -0.3251
  121MOL0     O16568  -0.175   4.893   8.613  0.1695  0.9470  0.5271
  121MOL0     C16569  -0.078   4.969   8.545  0.2205 -0.3838 -0.1052
  121MOL0     C16570  -0.056   4.931   8.399 -0.5092 -0.1063 -0.0119
  121MOL0     C16571   0.026   4.796   8.392  0.8844 -0.3528 -0.5716
  121MOL0     C16572   0.038   4.768   8.238  0.0468  0.7108 -0.5698
  121MOL0     C16573   0.124   4.633   8.220  0.2085 -0.3762 -0.0208
  121MOL0     C16574   0.116   4.597   8.077 -0.9385 -0.5508  0.0600
  121MOL0     C16575   0.229   4.659   7.983  0.1579  0.5164 -0.0792
  121MOL0     C16576   0.376   4.640   8.036 -0.2591 -0.0386  0.5813
  121MOL0     N16577   0.398   4.496   8.042  0.1818 -0.2616 -0.3271
  121MOL0     C16578   0.443   4.429   8.153 -0.5906 -0.0444 -0.6412
  121MOL0     C16579   0.417   4.296   8.131  0.4584 -1.5511  0.2921
  121MOL0     C16580   0.475   4.185   8.221  0.8124  0.5429  0.4145
  121MOL0     C16581   0.628   4.195   8.201 -1.1512  0.0084 -1.0743
  121MOL0     C16582   0.711   4.133   8.319  0.2740  0.4660  0.5377
  121MOL0     C16583   0.864   4.129   8.298 -0.2424 -0.9969  0.4346
  121MOL0     O16584   0.888   4.038   8.191  0.3378 -0.1736 -0.6411
  121MOL0     C16585   1.019   4.017   8.154  0.3610  0.9395  0.6313
  121MOL0     C16586   1.127   4.099   8.178 -0.5173 -0.8137  0.7393
  121MOL0     C16587   1.249   4.063   8.126 -0.6224 -0.7698  0.2032
  121MOL0     C16588   1.363   4.155   8.155 -0.5213  0.8268  0.6469
  121MOL0     C16589   1.259   3.955   8.030 -0.1813  0.1768 -0.2785
  121MOL0     C16590   1.392   3.912   7.978 -0.0853 -0.3642 -0.3993
  121MOL0     O16591   1.388   3.848   7.867 -0.6329 -0.3851 -0.6573
  121MOL0     C16592   1.503   3.802   7.810  0.6522 -0.5407 -0.5349
  121MOL0     C16593   1.552   3.877   7.717  0.1163 -0.2510  0.2848
  121MOL0     C16594   1.674   3.832   7.657 -0.8230  0.4789 -0.5623
  121MOL0     C16595   1.740   3.712   7.705 -0.2580 -0.6917  0.1734
  121MOL0     O16596   1.868   3.697   7.651 -0.4457  0.3778 -0.1579
  121MOL0     C16597   1.939   3.577   7.699 -0.0798 -0.4091 -0.4713
  121MOL0     C16598   2.089   3.588   7.664  0.0023 -0.2993 -0.5932
  121MOL0     C16599   2.160   3.723   7.713 -0.6150 -0.0520  0.9597
  121MOL0     C16600   2.212   3.709   7.857  0.1587  0.2937 -0.7365
  121MOL0     C16601   2.338   3.624   7.869 -0.1899 -0.0096 -0.0529
  121MOL0     C16602   2.390   3.604   8.010  0.6119 -0.1087  0.2680
  121MOL0     C16603   2.302   3.485   8.075  0.6985  0.0026  0.8483
  121MOL0     C16604   2.367   3.421   8.201 -0.1015  0.8272  0.0349
  121MOL0    Cl16605   2.369   3.531   8.352 -0.1101  0.1263 -0.0316
  121MOL0     C16606   1.681   3.634   7.801 -0.9946 -1.1321 -0.1002
  121MOL0     C16607   1.564   3.684   7.861  0.2997 -0.0922 -0.1480
  121MOL0     O16608   1.503   3.926   8.042  0.5137  0.2712 -0.5767
  121MOL0     C16609   1.150   3.886   8.001  1.1112 -0.1929  0.2534
  121MOL0     C16610   1.029   3.912   8.058  0.3570  0.3550  0.3402
  121MOL0     N16611   0.355   4.285   8.014 -0.1956  0.2500  0.0258
  121MOL0     N16612   0.352   4.405   7.954 -0.1051 -0.2932  0.8182
  121MOL0     C16613  -0.032   4.771   8.746 -0.5905  0.4036 -0.4757
  121MOL0     C16614   0.009   4.711   8.867 -0.3331 -0.1372  0.9146
  121MOL0     C16615   0.140   4.644   9.267 -0.0237  0.4778 -0.1978
  121MOL0     C16616   0.075   4.528   9.297  0.1091  0.2091  0.0288
  121MOL0     C16617   0.091   4.450   9.406 -0.0965  0.7918 -0.2628
  121MOL0     C16618   0.192   4.486   9.489  0.7258  0.3024  0.8456
  121MOL0     O16619   0.212   4.411   9.609  0.2880  0.2944  0.2264
  121MOL0     C16620   0.301   4.306   9.594 -0.3757 -0.1458  0.1968
  121MOL0     C16621   0.356   4.240   9.716 -0.6413 -0.1792 -1.1027
  121MOL0     C16622   0.436   4.361   9.783 -0.2177 -0.0778  0.2218
  121MOL0     C16623   0.519   4.321   9.902  0.2658  0.7391  0.3025
  121MOL0     C16624   0.618   4.427   9.933 -0.8986 -0.5959  0.6848
  121MOL0     C16625   0.703   4.519   9.944  0.2232 -1.1277  0.3226
  121MOL0     C16626   0.265   4.615   9.465  0.0125  0.9870  0.2003
  121MOL0     C16627   0.236   4.694   9.355  0.0571  0.2322 -1.3835
  121MOL0     C16628   0.328   4.813   9.343 -0.0596  0.6272 -0.3596
  121MOL0     H16629  -0.241   4.829   9.069  0.6667 -3.0253  1.0846
  121MOL0     H16630  -0.301   4.948   8.854 -1.8080  0.1950 -1.4967
  121MOL0     H16631   0.018   4.967   8.597  0.4939  1.0434 -0.5025
  121MOL0     H16632  -0.113   5.073   8.550  1.6157  0.0744  0.9530
  121MOL0     H16633  -0.135   4.939   8.323  2.2859  3.6219 -2.9677
  121MOL0     H16634   0.009   5.012   8.364  3.2784 -3.3206 -1.1041
  121MOL0     H16635   0.122   4.811   8.443  1.2164 -0.4986 -1.1421
  121MOL0     H16636  -0.028   4.713   8.439 -0.6656  0.9984  0.1376
  121MOL0     H16637  -0.059   4.760   8.188 -0.1984 -3.2418  0.2193
  121MOL0     H16638   0.090   4.847   8.183  0.5749  0.0381 -1.0546
  121MOL0     H16639   0.073   4.554   8.274  1.9386 -0.8929  0.9304
  121MOL0     H16640   0.223   4.639   8.265  2.3899 -1.4154 -4.1404
  121MOL0     H16641   0.115   4.487   8.077  0.1687 -0.5801 -0.2678
  121MOL0     H16642   0.022   4.629   8.032 -1.2833 -2.4818 -0.6824
  121MOL0     H16643   0.215   4.768   7.982  0.2735  0.5676  1.7225
  121MOL0     H16644   0.220   4.631   7.878 -3.2256  0.9568 -0.0166
  121MOL0     H16645   0.439   4.696   7.967 -0.8744 -0.0086  0.0327
  121MOL0     H16646   0.381   4.683   8.137  0.5033 -1.0039  0.9627
  121MOL0     H16647   0.498   4.465   8.239 -3.5655 -0.1929  1.4419
  121MOL0     H16648   0.442   4.084   8.194  1.2371  1.1100 -2.5166
  121MOL0     H16649   0.449   4.205   8.326  0.0064 -4.5794  1.4581
  121MOL0     H16650   0.664   4.136   8.116 -0.5815 -2.3944  0.7287
  121MOL0     H16651   0.654   4.300   8.188 -1.1209  0.0399 -0.7668
  121MOL0     H16652   0.688   4.193   8.408 -0.3260  2.6589 -1.0294
  121MOL0     H16653   0.673   4.033   8.339  0.4159 -0.1055 -1.8380
  121MOL0     H16654   0.902   4.230   8.276  2.1543 -1.9364  0.0020
  121MOL0     H16655   0.928   4.091   8.379  0.1900 -3.8065 -1.1200
  121MOL0     H16656   1.123   4.188   8.240  0.6742 -1.1114  1.2775
  121MOL0     H16657   1.404   4.183   8.057  0.9895  1.5700  1.4473
  121MOL0     H16658   1.455   4.108   8.192  0.0025 -1.8202 -3.4436
  121MOL0     H16659   1.328   4.236   8.220 -2.1987  0.2403  0.5184
  121MOL0     H16660   1.515   3.967   7.669  1.7948 -0.5585 -1.7589
  121MOL0     H16661   1.728   3.894   7.586  0.5533  0.4707  0.4445
  121MOL0     H16662   1.929   3.568   7.807 -3.6602  0.2376 -0.6213
  121MOL0     H16663   1.904   3.484   7.653  0.3502 -0.2036 -1.2409
  121MOL0     H16664   2.144   3.504   7.708  2.1761  1.8308  1.0805
  121MOL0     H16665   2.109   3.582   7.556  3.7556 -2.1901  0.0274
  121MOL0     H16666   2.082   3.799   7.726 -0.9671 -0.3519  0.6056
  121MOL0     H16667   2.244   3.750   7.647 -0.8728 -2.3581 -0.4071
  121MOL0     H16668   2.133   3.656   7.909 -1.5216 -2.2954 -5.3669
  121MOL0     H16669   2.230   3.809   7.900  0.0662  0.7092 -1.6445
  121MOL0     H16670   2.335   3.526   7.820  1.8234 -0.1067 -0.0483
  121MOL0     H16671   2.417   3.679   7.817  0.6558  0.5935  1.7771
  121MOL0     H16672   2.369   3.698   8.062 -0.1746  0.8132 -1.6244
  121MOL0     H16673   2.496   3.578   8.002  0.4292 -0.3174 -2.3431
  121MOL0     H16674   2.284   3.409   7.998 -0.5677  2.9502 -2.0021
  121MOL0     H16675   2.203   3.527   8.098  0.9577  1.2281 -0.1728
  121MOL0     H16676   2.473   3.409   8.176  0.2292  1.9825  0.7913
  121MOL0     H16677   2.319   3.326   8.227 -0.9405  1.9080  2.7982
  121MOL0     H16678   1.724   3.543   7.841  1.8935  0.9496  1.9357
  121MOL0     H16679   1.512   3.623   7.935 -2.6437  2.4109  0.0568
  121MOL0     H16680   1.156   3.796   7.940  5.1330 -0.9981  1.5515
  121MOL0     H16681   0.953   3.839   8.031  1.5679 -1.6724  2.0608
  121MOL0     H16682   0.022   4.752   8.653 -0.2886  1.1671 -0.4623
  121MOL0     H16683   0.103   4.656   8.864 -0.0669  0.3635 -1.0517
  121MOL0     H16684  -0.014   4.503   9.239  0.4951  2.2462 -1.5746
  121MOL0     H16685   0.023   4.366   9.411  2.0793 -1.2932 -2.5403
  121MOL0     H16686   0.266   4.235   9.517 -1.9129  1.0504 -0.2580
  121MOL0     H16687   0.381   4.356   9.538  0.3901 -1.5050  0.0217
  121MOL0     H16688   0.418   4.154   9.689  1.2229  1.3739 -2.0240
  121MOL0     H16689   0.276   4.192   9.774 -0.5883  2.9497  1.8177
  121MOL0     H16690   0.501   4.410   9.710 -1.6855  0.8953 -0.4924
  121MOL0     H16691   0.365   4.443   9.804  1.2601  1.8075 -1.7169
  121MOL0     H16692   0.559   4.221   9.886 -1.5141  0.4744 -3.3094
  121MOL0     H16693   0.459   4.309   9.993  0.5369  2.0815  0.6861
  121MOL0     H16694   0.781   4.592   9.943  0.8776 -1.8023  0.8355
  121MOL0     H16695   0.337   4.654   9.537  0.4236  0.9361 -0.1775
  121MOL0     H16696   0.309   4.872   9.253 -1.5416  1.4153  0.4194
  121MOL0     H16697   0.321   4.884   9.426 -3.4855 -0.3857  0.4074
  121MOL0     H16698   0.431   4.781   9.331  0.7210  2.5007  0.8184
  122MOL0     O16699   8.419   9.982   7.786  0.1567  0.4319 -0.7939
  122MOL0     C16700   8.495  10.004   7.692 -0.2524 -0.2913  0.1810
  122MOL0     O16701   8.458  10.013   7.565  0.9858 -0.5356 -0.1630
  122MOL0     C16702   8.330   9.986   7.528 -0.0036  1.3264  0.0353
  122MOL0     C16703   8.270  10.068   7.424 -0.2121 -0.1358 -0.0380
  122MOL0     C16704   8.136  10.049   7.380  0.0011  0.2238 -0.4550
  122MOL0     C16705   8.058   9.943   7.438  0.5305  0.3026 -0.4272
  122MOL0     O16706   7.941   9.911   7.378 -0.2507  0.1516  0.3295
  122MOL0     C16707   7.856   9.799   7.418 -0.4801 -0.6978 -0.2883
  122MOL0     C16708   7.751   9.765   7.310  0.5463 -0.4396  0.1172
  122MOL0     C16709   7.677   9.636   7.367  0.2187  0.1145  0.1355
  122MOL0     C16710   7.555   9.594   7.281  0.2721 -0.4948 -0.2871
  122MOL0     C16711   7.504   9.460   7.342  0.5801  0.8770  0.1782
  122MOL0     C16712   7.419   9.385   7.239 -0.8507  0.2298  0.2156
  122MOL0     C16713   7.357   9.258   7.294  0.4454  0.2032 -0.2173
  122MOL0     C16714   7.446   9.141   7.315 -0.5621  0.6873  0.5565
  122MOL0     N16715   7.375   9.021   7.307 -0.6474  1.1881  0.4874
  122MOL0     C16716   7.355   8.945   7.420  0.1305  0.0776  0.2369
  122MOL0     C16717   7.316   8.817   7.388  0.4339 -0.1365  0.1489
  122MOL0     C16718   7.272   8.704   7.466  0.2441  0.2311  0.1570
  122MOL0     C16719   7.186   8.606   7.381  0.0756 -0.6915 -0.1098
  122MOL0     C16720   7.052   8.654   7.326  0.2761 -0.5789 -0.0643
  122MOL0     C16721   6.947   8.693   7.430 -0.1818  0.1959 -0.8965
  122MOL0     O16722   6.916   8.581   7.511  0.4779  0.1890  0.7001
  122MOL0     C16723   6.802   8.503   7.488 -0.2622 -0.6213 -0.0764
  122MOL0     C16724   6.712   8.522   7.383 -0.6034 -0.6532  0.3108
  122MOL0     C16725   6.611   8.431   7.358 -0.8516 -0.7724  0.3140
  122MOL0     C16726   6.520   8.468   7.243 -0.7159 -0.1498 -0.8680
  122MOL0     C16727   6.593   8.324   7.454  0.3390 -0.2128  0.0681
  122MOL0     C16728   6.485   8.216   7.445 -0.8899  0.5733 -0.3075
  122MOL0     O16729   6.516   8.098   7.503  0.6422  0.2653 -0.7705
  122MOL0     C16730   6.532   7.994   7.422  0.4238 -0.5752  0.2496
  122MOL0     C16731   6.454   7.875   7.425 -0.7726  0.0864 -0.1705
  122MOL0     C16732   6.478   7.762   7.345 -1.5862  0.3308 -0.6821
  122MOL0     C16733   6.588   7.761   7.251  0.9155  0.2817 -0.5898
  122MOL0     O16734   6.627   7.645   7.196  0.1093  1.2863  0.3333
  122MOL0     C16735   6.587   7.637   7.056  0.5653 -1.3067  0.2027
  122MOL0     C16736   6.602   7.499   6.997 -0.7003  0.0319 -0.5938
  122MOL0     C16737   6.620   7.491   6.847  0.1419  0.0207  0.6241
  122MOL0     C16738   6.627   7.341   6.797 -0.1002 -0.5606  0.0709
  122MOL0     C16739   6.739   7.315   6.688  0.1703  0.6826  0.2239
  122MOL0     C16740   6.687   7.339   6.546  0.1661  0.6745 -0.6435
  122MOL0     C16741   6.808   7.320   6.461 -0.6677 -0.3752 -0.0233
  122MOL0     C16742   6.773   7.295   6.314 -1.7430  0.2629  0.1925
  122MOL0    Cl16743   6.696   7.433   6.241  0.1236  0.2174  0.3813
  122MOL0     C16744   6.665   7.877   7.253  0.4140 -0.5869  0.3871
  122MOL0     C16745   6.641   7.992   7.330  0.2101  1.1016 -0.1113
  122MOL0     O16746   6.398   8.224   7.361  0.8659  0.3300  0.8201
  122MOL0     C16747   6.686   8.311   7.558  0.1092  0.2681  0.0225
  122MOL0     C16748   6.784   8.400   7.577 -0.2263 -0.1132  0.4180
  122MOL0     N16749   7.350   8.814   7.253 -0.0657  0.3585  0.8284
  122MOL0     N16750   7.383   8.927   7.208 -0.1262 -1.2120 -0.3791
  122MOL0     C16751   8.111   9.868   7.540  0.4000  0.0233 -0.0242
  122MOL0     C16752   8.239   9.893   7.587 -0.5508  0.2242 -0.4876
  122MOL0     C16753   8.636  10.034   7.720  0.6788  0.1016  0.1916
  122MOL0     C16754   8.687  10.097   7.847  0.6109 -0.7869  0.4425
  122MOL0     C16755   8.819  10.116   7.877 -0.7661 -0.2762  0.3899
  122MOL0     C16756   8.909  10.070   7.784  0.6053  0.1598 -0.3435
  122MOL0     O16757   9.045  10.069   7.808  0.9332 -0.2404  0.3322
  122MOL0     C16758   9.109  10.126   7.923 -0.8185  0.0970 -1.3473
  122MOL0     C16759   9.255  10.074   7.923  0.1756  0.0467 -0.2292
  122MOL0     C16760   9.346  10.101   7.800 -0.1033  0.2877 -0.2400
  122MOL0     C16761   9.306  10.209   7.706  1.4108 -0.1420 -0.9891
  122MOL0     C16762   9.408  10.236   7.604  0.4937  0.3758 -0.3769
  122MOL0     C16763   9.511  10.246   7.534 -0.8689  0.8841  0.0574
  122MOL0     C16764   8.868  10.017   7.662 -0.2040  0.8796  0.6552
  122MOL0     C16765   8.738   9.993   7.631 -0.0452  0.5051  0.5098
  122MOL0     C16766   8.709   9.914   7.506 -0.1942 -0.0965 -0.6427
  122MOL0     H16767   8.332  10.146   7.381 -1.0872  2.5273  3.0585
  122MOL0     H16768   8.107  10.108   7.295 -1.3692  0.5407  0.2151
  122MOL0     H16769   7.808   9.827   7.512 -1.4789  4.0047 -1.9429
  122MOL0     H16770   7.911   9.709   7.450 -1.7690 -0.3367  3.3750
  122MOL0     H16771   7.682   9.848   7.295  0.5489 -0.3668  0.4896
  122MOL0     H16772   7.805   9.735   7.220  3.2033 -3.3340  2.4421
  122MOL0     H16773   7.744   9.550   7.378  0.0259  0.0862  1.2472
  122MOL0     H16774   7.647   9.647   7.472  1.9468 -1.8602  0.9160
  122MOL0     H16775   7.481   9.673   7.296  1.1186  0.4336 -0.8853
  122MOL0     H16776   7.575   9.588   7.173 -0.8365 -3.2526 -0.4105
  122MOL0     H16777   7.427   9.484   7.416 -2.4364 -0.5157 -2.2807
  122MOL0     H16778   7.575   9.386   7.379  1.0092  0.7565 -0.8583
  122MOL0     H16779   7.335   9.441   7.198 -2.0937 -1.8334 -0.1956
  122MOL0     H16780   7.474   9.353   7.150 -0.2755 -2.1446  1.3384
  122MOL0     H16781   7.276   9.238   7.223  0.3316  0.1608 -0.0751
  122MOL0     H16782   7.298   9.280   7.383  0.1001 -1.0840 -0.1108
  122MOL0     H16783   7.518   9.127   7.233 -1.1255  0.2873  0.1282
  122MOL0     H16784   7.501   9.160   7.408  2.2836  1.4595 -1.1591
  122MOL0     H16785   7.357   8.982   7.522  3.6190 -2.2297  1.2100
  122MOL0     H16786   7.227   8.730   7.562 -0.2539 -0.4348  0.1160
  122MOL0     H16787   7.358   8.639   7.481 -1.3300 -1.6157  1.8203
  122MOL0     H16788   7.247   8.583   7.293  0.4390  0.1957 -0.0975
  122MOL0     H16789   7.156   8.519   7.441 -3.4644  1.9265  2.3653
  122MOL0     H16790   7.071   8.737   7.258  2.5441 -1.3408 -0.4465
  122MOL0     H16791   7.018   8.569   7.266  4.2397 -1.3616 -1.5333
  122MOL0     H16792   6.973   8.773   7.500 -0.4706  0.1608 -0.7464
  122MOL0     H16793   6.859   8.733   7.379 -0.8242 -0.2691 -0.1825
  122MOL0     H16794   6.728   8.594   7.303  0.4546 -0.5693  0.5904
  122MOL0     H16795   6.554   8.548   7.176  1.0969 -1.6382 -1.8166
  122MOL0     H16796   6.419   8.494   7.275 -0.5656  1.5872 -1.6816
  122MOL0     H16797   6.514   8.380   7.179  1.7052  0.2080 -1.6917
  122MOL0     H16798   6.379   7.886   7.502  0.8989 -0.1478  1.5689
  122MOL0     H16799   6.423   7.669   7.348 -1.1217 -0.0047 -2.0557
  122MOL0     H16800   6.481   7.665   7.050  0.1502 -2.4308  1.7743
  122MOL0     H16801   6.650   7.710   7.004 -0.8933  0.1767  0.4332
  122MOL0     H16802   6.688   7.454   7.047 -1.7598 -0.8319  0.5092
  122MOL0     H16803   6.526   7.426   7.024 -0.0737 -0.5028 -0.2453
  122MOL0     H16804   6.708   7.545   6.813 -0.2941 -0.0295 -0.6480
  122MOL0     H16805   6.538   7.532   6.787 -0.2134 -2.1777 -0.5011
  122MOL0     H16806   6.529   7.316   6.755  1.0081 -4.4740 -0.5912
  122MOL0     H16807   6.643   7.277   6.884  2.2379 -0.4383 -0.1855
  122MOL0     H16808   6.823   7.380   6.715 -0.0165  2.0009 -2.0853
  122MOL0     H16809   6.780   7.214   6.699  1.0602  1.1403  1.3757
  122MOL0     H16810   6.642   7.437   6.532 -0.0767  0.5627 -0.6451
  122MOL0     H16811   6.611   7.270   6.508 -1.4782  4.4442 -5.1703
  122MOL0     H16812   6.860   7.229   6.492 -0.9047 -0.3355  0.4971
  122MOL0     H16813   6.879   7.403   6.471 -2.3922  1.1273  0.3529
  122MOL0     H16814   6.698   7.217   6.298  1.3897 -3.2363  1.3811
  122MOL0     H16815   6.865   7.273   6.260 -1.6808 -0.2102  0.4896
  122MOL0     H16816   6.756   7.881   7.193  0.7579 -3.6931  0.5091
  122MOL0     H16817   6.712   8.071   7.310  0.1414  0.9050 -1.1839
  122MOL0     H16818   6.677   8.229   7.628 -2.7122  0.5920  0.1523
  122MOL0     H16819   6.849   8.390   7.664  1.2536  0.6041 -0.5589
  122MOL0     H16820   8.068   9.774   7.573  1.4938  0.0173  1.4582
  122MOL0     H16821   8.269   9.838   7.675  3.4379  3.2881  0.3872
  122MOL0     H16822   8.610  10.131   7.915 -2.0870 -1.5649 -2.0377
  122MOL0     H16823   8.854  10.164   7.968 -1.0544  0.3132  0.1962
  122MOL0     H16824   9.100  10.234   7.934 -3.3189 -0.2681  1.5829
  122MOL0     H16825   9.061  10.076   8.008  2.4302 -1.6300 -0.3346
  122MOL0     H16826   9.255   9.965   7.931  1.2378 -0.1148 -1.9734
  122MOL0     H16827   9.302  10.109   8.016 -0.2102 -0.0431  0.0059
  122MOL0     H16828   9.447  10.112   7.840  0.5419  2.1710 -2.1693
  122MOL0     H16829   9.332  10.015   7.734 -1.8716 -0.0289  0.4709
  122MOL0     H16830   9.311  10.296   7.772  1.5847  0.9507 -2.3875
  122MOL0     H16831   9.208  10.183   7.664  0.7457 -1.5849  1.2472
  122MOL0     H16832   9.604  10.245   7.481 -1.2269 -4.0451 -1.0501
  122MOL0     H16833   8.948   9.986   7.595 -0.1083  4.6434 -1.2206
  122MOL0     H16834   8.800   9.876   7.458  0.8951 -0.3378  1.4925
  122MOL0     H16835   8.638   9.834   7.527  2.1799 -2.1107  0.2687
  122MOL0     H16836   8.668   9.979   7.428  2.1552  0.0599 -1.8357
  123MOL0     O16837   0.749   0.278   5.073  0.6812 -0.2582 -1.0327
  123MOL0     C16838   0.816   0.271   4.973  0.0682 -0.6110  0.4195
  123MOL0     O16839   0.946   0.291   4.965 -0.3461 -0.1155  0.4332
  123MOL0     C16840   1.014   0.309   5.085  0.6377  0.9344  0.4848
  123MOL0     C16841   1.092   0.201   5.123  0.7111 -0.1889  0.2284
  123MOL0     C16842   1.165   0.210   5.238 -0.1131  1.1858 -0.0111
  123MOL0     C16843   1.161   0.316   5.331 -0.1483 -0.1519  0.8414
  123MOL0     O16844   1.221   0.322   5.448 -0.3274 -0.3027 -0.7605
  123MOL0     C16845   1.354   0.382   5.461  1.1312  0.3185  0.1956
  123MOL0     C16846   1.443   0.304   5.555  0.1526 -0.8018 -0.3189
  123MOL0     C16847   1.471   0.164   5.490  0.1129  0.2453  0.0494
  123MOL0     C16848   1.537   0.082   5.597 -0.2273  0.1890 -0.7844
  123MOL0     C16849   1.659   0.141   5.663 -0.4991  0.6426  0.7160
  123MOL0     C16850   1.756   0.191   5.550  0.6410 -0.3713 -0.0031
  123MOL0     C16851   1.791   0.073   5.471 -0.1332 -0.4124  0.9127
  123MOL0     C16852   1.908   0.085   5.379 -0.6320 -0.4376 -0.5565
  123MOL0     N16853   2.029   0.027   5.444 -0.6540  0.4477 -0.3448
  123MOL0     C16854   2.065   0.050   5.575  0.8984  0.1611  0.0646
  123MOL0     C16855   2.178  -0.018   5.591 -0.0718 -0.4350 -0.8500
  123MOL0     C16856   2.250  -0.033   5.726 -0.2430  0.5347  0.5739
  123MOL0     C16857   2.337  -0.162   5.726 -0.0306 -0.9377 -0.2951
  123MOL0     C16858   2.374  -0.192   5.878 -0.4485 -0.2932 -0.0332
  123MOL0     C16859   2.422  -0.065   5.959 -0.5369  0.5242 -0.0382
  123MOL0     O16860   2.555  -0.021   5.939  0.0910  0.0590 -0.1833
  123MOL0     C16861   2.571   0.093   6.009 -0.2033 -1.0483 -0.5481
  123MOL0     C16862   2.595   0.089   6.148 -0.2153  0.2273 -0.0081
  123MOL0     C16863   2.588   0.209   6.226  0.7015 -0.8576 -0.5970
  123MOL0     C16864   2.605   0.191   6.380 -0.3401 -0.9635  0.1340
  123MOL0     C16865   2.584   0.337   6.159 -1.1511 -0.4277 -0.4908
  123MOL0     C16866   2.582   0.472   6.230 -0.3541  0.4487 -0.8458
  123MOL0     O16867   2.587   0.481   6.369  0.3419 -0.1961 -0.6529
  123MOL0     C16868   2.597   0.601   6.426  0.2457 -0.9817 -0.2198
  123MOL0     C16869   2.717   0.633   6.489 -0.2962  0.4588 -0.3238
  123MOL0     C16870   2.735   0.752   6.559  0.1569 -0.0722  0.2570
  123MOL0     C16871   2.626   0.846   6.569  0.4526 -0.2007  0.1550
  123MOL0     O16872   2.629   0.957   6.647 -0.4195  0.7652  0.0944
  123MOL0     C16873   2.725   0.969   6.753  0.7787  0.2877 -0.1150
  123MOL0     C16874   2.671   1.088   6.824 -0.7929 -0.2492  0.5176
  123MOL0     C16875   2.649   1.225   6.751  0.3100 -0.2869  0.9165
  123MOL0     C16876   2.632   1.346   6.844 -0.6887 -0.0872 -0.8008
  123MOL0     C16877   2.764   1.396   6.909 -0.0127  0.4466 -0.4088
  123MOL0     C16878   2.724   1.523   6.988  0.5465  1.2435 -0.0672
  123MOL0     C16879   2.634   1.492   7.107 -0.7688 -0.3465 -0.5175
  123MOL0     C16880   2.641   1.605   7.203  0.2236  0.5000  0.3982
  123MOL0    Cl16881   2.490   1.616   7.313  0.0757 -0.6415  0.2229
  123MOL0     C16882   2.509   0.815   6.495  0.0024  0.3038  0.2701
  123MOL0     C16883   2.486   0.695   6.418 -0.1053 -0.5026 -0.5659
  123MOL0     O16884   2.585   0.569   6.159 -0.7288 -0.6657  0.0610
  123MOL0     C16885   2.550   0.340   6.024  0.4714  0.0313  0.4875
  123MOL0     C16886   2.548   0.221   5.951 -0.0636 -0.1801  0.1302
  123MOL0     N16887   2.212  -0.085   5.472 -0.3946  0.0922 -0.0315
  123MOL0     N16888   2.129  -0.040   5.385  0.1054  0.3296  0.6500
  123MOL0     C16889   1.084   0.423   5.285 -0.1595 -0.1084  0.1570
  123MOL0     C16890   1.011   0.418   5.166 -0.7491 -1.6345  0.1988
  123MOL0     C16891   0.761   0.263   4.826 -0.9900 -0.9851 -0.6304
  123MOL0     C16892   0.851   0.288   4.716 -0.6553  0.2067  0.0399
  123MOL0     C16893   0.812   0.273   4.583 -0.2521  0.4881  0.2450
  123MOL0     C16894   0.681   0.234   4.550  0.1460  0.0850 -0.3122
  123MOL0     O16895   0.624   0.238   4.428  0.0602 -0.2706 -0.8414
  123MOL0     C16896   0.699   0.252   4.304  0.1036  0.4454 -0.3016
  123MOL0     C16897   0.597   0.229   4.192 -0.3788  0.1496  0.1876
  123MOL0     C16898   0.649   0.249   4.048 -0.3930  0.1993 -0.7103
  123MOL0     C16899   0.702   0.389   4.017  0.2056 -0.0010  0.1849
  123MOL0     C16900   0.719   0.399   3.872 -0.5367 -0.2075 -0.0864
  123MOL0     C16901   0.743   0.420   3.753  0.4377  0.3160 -1.5430
  123MOL0     C16902   0.598   0.216   4.657  0.4482  0.1969  0.7811
  123MOL0     C16903   0.628   0.215   4.790 -0.6782 -0.6119 -0.0031
  123MOL0     C16904   0.531   0.174   4.892  0.3114  0.2559  0.7099
  123MOL0     H16905   1.106   0.111   5.065  2.5251  0.2639 -0.1125
  123MOL0     H16906   1.224   0.122   5.265 -1.2326 -0.0925 -1.5888
  123MOL0     H16907   1.342   0.482   5.502 -1.4460  0.9530 -1.8908
  123MOL0     H16908   1.406   0.391   5.364 -0.1260 -1.2193 -0.6771
  123MOL0     H16909   1.523   0.378   5.563 -2.8145  2.5839  0.7001
  123MOL0     H16910   1.389   0.295   5.650 -0.0096 -3.8706 -0.5947
  123MOL0     H16911   1.381   0.114   5.452  0.7222  0.1084 -1.2949
  123MOL0     H16912   1.532   0.178   5.400 -1.0621 -0.5341 -0.9053
  123MOL0     H16913   1.467   0.055   5.676 -1.2628  1.7547 -1.1043
  123MOL0     H16914   1.559  -0.020   5.565 -1.7701 -0.7163  0.8761
  123MOL0     H16915   1.701   0.066   5.731  1.7596 -0.3783 -1.6110
  123MOL0     H16916   1.623   0.225   5.723 -0.7841  1.1908 -0.1919
  123MOL0     H16917   1.711   0.270   5.488  1.4686  1.2523  1.3742
  123MOL0     H16918   1.845   0.229   5.601 -0.3515  0.9350  0.8578
  123MOL0     H16919   1.704   0.036   5.415 -0.9319  0.7666  1.3354
  123MOL0     H16920   1.819  -0.007   5.540  1.5583  1.3336  2.3783
  123MOL0     H16921   1.906   0.030   5.285  2.4968  1.0420 -1.6324
  123MOL0     H16922   1.939   0.189   5.362  2.3789 -1.3577 -1.3720
  123MOL0     H16923   2.023   0.112   5.653  1.2692 -0.2450  0.5896
  123MOL0     H16924   2.166  -0.048   5.795 -0.9342 -0.8317 -0.4951
  123MOL0     H16925   2.306   0.059   5.740  0.1233  0.5459 -0.8019
  123MOL0     H16926   2.271  -0.242   5.692 -0.9591 -2.3983  4.2154
  123MOL0     H16927   2.425  -0.157   5.661 -0.8378 -0.8882 -1.4084
  123MOL0     H16928   2.293  -0.243   5.931  0.2439  0.0285  1.3978
  123MOL0     H16929   2.463  -0.256   5.879 -0.2786 -0.0797  1.8192
  123MOL0     H16930   2.347   0.014   5.949 -1.7145 -0.7304 -1.6168
  123MOL0     H16931   2.420  -0.091   6.065 -1.0448 -0.4695 -0.2781
  123MOL0     H16932   2.607  -0.008   6.194  2.5777  1.3747  1.9869
  123MOL0     H16933   2.613   0.085   6.407  1.3564 -1.1547 -1.0192
  123MOL0     H16934   2.513   0.226   6.427 -2.5583 -1.6188 -3.3521
  123MOL0     H16935   2.696   0.246   6.407 -1.5423  0.7795  0.8227
  123MOL0     H16936   2.806   0.570   6.481  0.8373  1.9273  0.1854
  123MOL0     H16937   2.831   0.782   6.599 -0.9511 -0.0249  3.1086
  123MOL0     H16938   2.719   0.875   6.809 -3.7202 -1.1008 -2.4327
  123MOL0     H16939   2.822   0.991   6.707  1.1950 -3.9189 -1.7583
  123MOL0     H16940   2.572   1.055   6.856 -1.8640 -1.2177 -3.2693
  123MOL0     H16941   2.740   1.118   6.904 -1.3901  4.5062 -0.4257
  123MOL0     H16942   2.555   1.209   6.698  0.6974 -5.1415  1.2395
  123MOL0     H16943   2.730   1.239   6.678 -0.0489  0.8876  0.7278
  123MOL0     H16944   2.540   1.336   6.902 -0.8926 -0.0512 -1.1158
  123MOL0     H16945   2.612   1.429   6.776  1.5712  3.6541  2.6679
  123MOL0     H16946   2.803   1.319   6.977 -2.0451 -0.9445 -0.7274
  123MOL0     H16947   2.834   1.425   6.830  0.5253  0.8944  0.2257
  123MOL0     H16948   2.672   1.593   6.921 -0.7622 -0.7248 -1.2335
  123MOL0     H16949   2.816   1.577   7.011  1.9465 -0.4004 -1.5574
  123MOL0     H16950   2.669   1.396   7.147  0.2637 -0.0104 -0.5878
  123MOL0     H16951   2.531   1.471   7.080 -0.5650 -1.8870 -0.1712
  123MOL0     H16952   2.650   1.693   7.139  0.8258 -0.9665 -1.6297
  123MOL0     H16953   2.732   1.595   7.262 -0.5076 -1.4611  1.2895
  123MOL0     H16954   2.432   0.891   6.506 -1.0299 -0.8690  1.3939
  123MOL0     H16955   2.398   0.669   6.361 -0.9329 -0.5823  0.7099
  123MOL0     H16956   2.522   0.430   5.971  0.1899  0.1700  0.8680
  123MOL0     H16957   2.524   0.233   5.846 -1.6350  1.4655  0.6374
  123MOL0     H16958   1.070   0.514   5.343  0.8184 -0.1255  0.4325
  123MOL0     H16959   0.959   0.508   5.135 -1.0609 -1.7684  0.3292
  123MOL0     H16960   0.958   0.311   4.715 -0.9247  1.7256 -2.3259
  123MOL0     H16961   0.888   0.283   4.506 -0.8319  2.5503 -0.1306
  123MOL0     H16962   0.733   0.355   4.295  2.1194  0.0517  1.8740
  123MOL0     H16963   0.782   0.183   4.290  0.2193  0.8595 -1.8771
  123MOL0     H16964   0.511   0.297   4.203  0.7389  1.3391  2.2590
  123MOL0     H16965   0.554   0.128   4.196 -1.3793  0.5774  0.8970
  123MOL0     H16966   0.735   0.183   4.033  2.6448  3.4188  1.0810
  123MOL0     H16967   0.564   0.230   3.982 -1.5893 -1.1424  1.1162
  123MOL0     H16968   0.792   0.407   4.077 -0.4667 -0.0951  1.2633
  123MOL0     H16969   0.625   0.462   4.046  0.0425 -0.7253  1.7180
  123MOL0     H16970   0.768   0.430   3.650  0.6040  0.5631 -1.4803
  123MOL0     H16971   0.494   0.195   4.632  0.9089 -0.5093 -0.6466
  123MOL0     H16972   0.512   0.256   4.962  0.0207 -0.0331  0.9704
  123MOL0     H16973   0.436   0.155   4.842  0.3584  1.4886  0.1260
  123MOL0     H16974   0.557   0.081   4.943  1.1643 -1.0958 -2.0063
  124MOL0     O16975   1.227   3.121   9.324 -0.2782  0.1256 -0.8375
  124MOL0     C16976   1.228   3.043   9.420  0.1112  0.7251  1.2497
  124MOL0     O16977   1.177   2.921   9.414 -0.3731  0.3706  0.2013
  124MOL0     C16978   1.079   2.892   9.319  0.3297  0.4461 -0.0145
  124MOL0     C16979   0.966   2.833   9.364  0.8167 -0.3526 -0.6919
  124MOL0     C16980   0.865   2.788   9.280  0.2300  0.6135  1.0645
  124MOL0     C16981   0.875   2.798   9.141 -0.9527 -0.7988  0.6395
  124MOL0     O16982   0.774   2.737   9.071 -0.1728 -0.0246  0.3865
  124MOL0     C16983   0.714   2.810   8.973 -0.8791 -0.2950 -0.0232
  124MOL0     C16984   0.595   2.883   9.033 -0.8219  0.1483 -0.1372
  124MOL0     C16985   0.615   3.020   9.090  0.5975  0.9604 -0.3597
  124MOL0     C16986   0.504   3.107   9.096 -0.1532  0.3136 -0.5917
  124MOL0     C16987   0.543   3.259   9.125  0.5494 -0.5745 -0.0930
  124MOL0     C16988   0.437   3.363   9.104  0.0736 -0.6751 -0.9899
  124MOL0     C16989   0.348   3.407   9.230  0.5750 -0.2332 -0.3910
  124MOL0     C16990   0.419   3.489   9.329  0.4463 -0.1592  0.7692
  124MOL0     N16991   0.399   3.433   9.463  0.0058  0.0186 -0.5602
  124MOL0     C16992   0.382   3.511   9.569 -0.3777 -0.0291  0.0242
  124MOL0     C16993   0.396   3.423   9.678 -0.9964 -1.0358 -0.6123
  124MOL0     C16994   0.397   3.457   9.824  0.5085  0.9900  0.4676
  124MOL0     C16995   0.547   3.490   9.863 -0.1336  1.0570 -0.5059
  124MOL0     C16996   0.574   3.471  10.019 -0.6931 -0.0727 -0.6761
  124MOL0     C16997   0.509   3.584  10.096  1.7524  0.2063  0.3003
  124MOL0     O16998   0.536   3.587  10.237 -0.2858 -0.4604  0.1857
  124MOL0     C16999   0.672   3.622  10.280  0.1424  0.0478  0.4486
  124MOL0     C17000   0.705   3.562  10.408 -0.0119  0.0127  0.6195
  124MOL0     C17001   0.836   3.576  10.461  0.0774  0.4315  0.0474
  124MOL0     C17002   0.862   3.519  10.597 -0.2724 -1.1432 -0.8122
  124MOL0     C17003   0.934   3.652  10.385  0.5061  0.1762 -1.0585
  124MOL0     C17004   1.070   3.691  10.428 -0.4730  0.1003 -0.4762
  124MOL0     O17005   1.121   3.813  10.391 -0.1334 -0.3227 -0.0046
  124MOL0     C17006   1.255   3.825  10.434  0.1170 -0.4956 -0.1626
  124MOL0     C17007   1.285   3.910  10.544 -0.2361  0.3294 -0.4891
  124MOL0     C17008   1.411   3.939  10.588 -0.8525 -0.5639 -0.1254
  124MOL0     C17009   1.523   3.886  10.522  0.6009  0.3851 -0.5522
  124MOL0     O17010   1.650   3.900  10.573 -0.3727  0.7872  0.3165
  124MOL0     C17011   1.683   4.034  10.615 -0.0776 -0.9970 -0.2889
  124MOL0     C17012   1.663   4.141  10.501 -0.7052 -0.3625 -0.2114
  124MOL0     C17013   1.731   4.117  10.372 -0.3977 -0.0986 -0.2516
  124MOL0     C17014   1.883   4.154  10.373 -0.4172  0.4710  0.1110
  124MOL0     C17015   1.930   4.147  10.228 -1.1986  0.0175 -0.3197
  124MOL0     C17016   2.082   4.132  10.228 -0.6585  0.4038  0.1823
  124MOL0     C17017   2.137   4.125  10.082  0.0013  0.3093 -1.0871
  124MOL0     C17018   2.285   4.098  10.085  0.2355 -0.1520  0.3749
  124MOL0    Cl17019   2.380   4.243  10.140  0.1452 -0.2466 -0.1772
  124MOL0     C17020   1.496   3.795  10.419 -0.5697 -0.4485 -0.9134
  124MOL0     C17021   1.367   3.754  10.382 -0.6463  0.8059  0.0723
  124MOL0     O17022   1.133   3.591  10.471  0.4331 -0.2133  0.1431
  124MOL0     C17023   0.902   3.707  10.260 -0.0397  0.2081 -0.5340
  124MOL0     C17024   0.777   3.685  10.201  0.0011  0.0327  0.4566
  124MOL0     N17025   0.435   3.298   9.626 -1.1692  1.2615 -0.2612
  124MOL0     N17026   0.420   3.298   9.498  0.3270  0.5030  1.1205
  124MOL0     C17027   1.007   2.836   9.091 -0.5663 -0.5922 -0.8522
  124MOL0     C17028   1.102   2.891   9.182 -0.1685 -0.5076  0.3417
  124MOL0     C17029   1.300   3.067   9.549 -0.7332 -1.2824 -0.1840
  124MOL0     C17030   1.332   2.962   9.634 -0.3883  0.2401 -0.4428
  124MOL0     C17031   1.388   2.990   9.766 -0.5295  0.7729 -0.4603
  124MOL0     C17032   1.430   3.116   9.805  0.8611  0.5022 -0.5386
  124MOL0     O17033   1.489   3.149   9.919 -0.6552 -0.4858  0.0548
  124MOL0     C17034   1.626   3.100   9.944  0.1491 -0.0371 -0.3043
  124MOL0     C17035   1.737   3.184   9.870  0.8755  0.2828  1.0037
  124MOL0     C17036   1.754   3.331   9.902  0.0355 -0.1053  0.2702
  124MOL0     C17037   1.884   3.394   9.873 -0.5862 -0.3846 -0.1491
  124MOL0     C17038   1.880   3.533   9.933  0.4074 -0.1721 -0.1440
  124MOL0     C17039   1.849   3.643   9.965 -0.6503 -0.2932 -0.4998
  124MOL0     C17040   1.417   3.211   9.707  0.3349  0.5556 -0.1750
  124MOL0     C17041   1.352   3.195   9.586 -0.4515  0.6085  0.4870
  124MOL0     C17042   1.340   3.327   9.507  0.3737 -0.1076 -0.4706
  124MOL0     H17043   0.956   2.814   9.470 -2.0868 -1.8037 -1.1183
  124MOL0     H17044   0.769   2.751   9.316  0.2832 -1.2970 -0.5720
  124MOL0     H17045   0.675   2.742   8.896  0.2496  0.0564 -0.9547
  124MOL0     H17046   0.784   2.884   8.932  0.0841 -0.9348  0.4095
  124MOL0     H17047   0.514   2.880   8.959  1.4642 -0.1593 -2.8188
  124MOL0     H17048   0.554   2.818   9.111  0.4589 -2.6862 -1.6664
  124MOL0     H17049   0.660   3.011   9.189  1.6201 -1.0534 -0.9414
  124MOL0     H17050   0.685   3.070   9.023 -0.0551 -0.8777 -2.5556
  124MOL0     H17051   0.439   3.099   9.009 -2.4438 -1.9364  1.1532
  124MOL0     H17052   0.445   3.077   9.184  0.5863 -1.8887 -0.8076
  124MOL0     H17053   0.637   3.281   9.073  0.4587 -3.4003 -1.6463
  124MOL0     H17054   0.568   3.262   9.231 -1.6055  0.8299  0.4470
  124MOL0     H17055   0.470   3.454   9.054  0.9623 -0.8803 -0.7878
  124MOL0     H17056   0.368   3.321   9.030 -0.6940  1.9193 -1.8385
  124MOL0     H17057   0.326   3.311   9.279 -0.0123 -0.2387 -0.6641
  124MOL0     H17058   0.256   3.462   9.210  2.3749  3.7449  1.0818
  124MOL0     H17059   0.526   3.482   9.306 -0.2097 -0.6633 -2.6683
  124MOL0     H17060   0.380   3.592   9.335 -1.0325 -0.5575 -1.1404
  124MOL0     H17061   0.350   3.615   9.577 -2.2072 -0.3423 -2.2251
  124MOL0     H17062   0.353   3.381   9.889 -4.5146  3.4080  0.3859
  124MOL0     H17063   0.327   3.540   9.838 -2.9378 -1.1931 -2.2924
  124MOL0     H17064   0.614   3.416   9.819  3.6027  0.9889  4.4452
  124MOL0     H17065   0.574   3.591   9.831  4.0500 -0.2797 -1.8557
  124MOL0     H17066   0.542   3.373  10.055 -2.5745  0.8949  0.4099
  124MOL0     H17067   0.682   3.488  10.031 -0.6900  2.3848 -3.1685
  124MOL0     H17068   0.532   3.684  10.060  1.4283  0.9052  1.9509
  124MOL0     H17069   0.402   3.561  10.089  1.7722  0.3766 -0.6756
  124MOL0     H17070   0.619   3.520  10.459 -1.3155  0.5580 -1.0347
  124MOL0     H17071   0.869   3.602  10.669  0.1053  0.7439 -2.9289
  124MOL0     H17072   0.954   3.461  10.597 -0.8237 -2.0414 -0.6551
  124MOL0     H17073   0.784   3.452  10.636  3.3361 -4.9892  0.5911
  124MOL0     H17074   1.208   3.960  10.602  0.8424  0.4877  0.8554
  124MOL0     H17075   1.432   3.996  10.677 -2.8894 -0.3291  0.2439
  124MOL0     H17076   1.623   4.068  10.700 -0.9977  2.0976 -1.9742
  124MOL0     H17077   1.787   4.051  10.644 -0.1565 -1.2840  0.1497
  124MOL0     H17078   1.560   4.166  10.476 -0.5503 -0.5861 -1.0789
  124MOL0     H17079   1.700   4.231  10.553  0.6516 -3.0418  3.9706
  124MOL0     H17080   1.680   4.186  10.304 -1.0880 -0.1925  0.1610
  124MOL0     H17081   1.706   4.016  10.338 -0.2280  0.9407 -3.9533
  124MOL0     H17082   1.941   4.085  10.436  0.0763  0.8931  0.1234
  124MOL0     H17083   1.889   4.257  10.408 -3.4011  0.7000  0.2555
  124MOL0     H17084   1.884   4.069  10.169 -0.8567  0.1357 -0.7460
  124MOL0     H17085   1.900   4.243  10.184 -0.4549 -0.3136 -1.5883
  124MOL0     H17086   2.118   4.054  10.296  1.4447  0.0672 -1.1991
  124MOL0     H17087   2.116   4.224  10.276 -0.8414  0.2851  0.5427
  124MOL0     H17088   2.116   4.217  10.027  0.2421  0.8539 -0.2855
  124MOL0     H17089   2.081   4.041  10.039  1.6926 -2.1648  1.2196
  124MOL0     H17090   2.319   4.066   9.986  1.3922 -0.2904  0.8076
  124MOL0     H17091   2.317   4.012  10.144 -0.9552  0.2466  1.6620
  124MOL0     H17092   1.588   3.754  10.379  2.2718  1.0552  3.3800
  124MOL0     H17093   1.342   3.670  10.318 -2.6615 -0.9283  2.8906
  124MOL0     H17094   0.981   3.760  10.208  0.3164  2.5049  2.1178
  124MOL0     H17095   0.750   3.730  10.106  1.3485 -0.0834  0.0110
  124MOL0     H17096   1.035   2.816   8.988  4.1854  0.3027 -0.0112
  124MOL0     H17097   1.205   2.912   9.152 -0.0901 -0.4215  0.6747
  124MOL0     H17098   1.293   2.864   9.609 -0.9884  0.5057 -0.5632
  124MOL0     H17099   1.389   2.916   9.845 -0.2388  1.2720  0.0134
  124MOL0     H17100   1.636   3.116  10.052  1.5204  4.1592 -0.8681
  124MOL0     H17101   1.630   2.993   9.924  2.9844  0.3894 -2.7181
  124MOL0     H17102   1.698   3.162   9.770 -4.7915 -0.8581  3.1225
  124MOL0     H17103   1.836   3.138   9.880  1.8619  2.5192  2.1391
  124MOL0     H17104   1.684   3.378   9.833  2.1467 -0.7197 -2.4613
  124MOL0     H17105   1.722   3.353  10.005  2.7096  0.7254  1.0189
  124MOL0     H17106   1.888   3.403   9.765 -2.8111  0.3606 -0.2129
  124MOL0     H17107   1.963   3.333   9.918 -1.9798 -2.8685 -0.9115
  124MOL0     H17108   1.815   3.739   9.998  0.3933  0.4331 -1.4840
  124MOL0     H17109   1.472   3.300   9.736  0.6757  0.8280 -1.6085
  124MOL0     H17110   1.392   3.318   9.411  0.5793 -1.2539 -0.2597
  124MOL0     H17111   1.235   3.353   9.487  0.4361 -1.5100 -3.1104
  124MOL0     H17112   1.384   3.406   9.568 -0.0257  1.8365 -2.5182
  125MOL0     O17113   0.225   8.803  10.924  0.2917 -0.2176 -0.1338
  125MOL0     C17114   0.199   8.790  10.805  0.3474  0.2138 -0.2809
  125MOL0     O17115   0.075   8.751  10.759  1.1055  0.2287  0.1558
  125MOL0     C17116  -0.041   8.769  10.832  0.0431  0.4900  0.2116
  125MOL0     C17117  -0.148   8.681  10.816  0.8460 -0.5490  0.2780
  125MOL0     C17118  -0.267   8.693  10.889  0.0055 -0.8874 -0.4633
  125MOL0     C17119  -0.290   8.810  10.953  0.9269 -1.0378  0.0789
  125MOL0     O17120  -0.418   8.839  11.002 -0.2038 -0.6144  0.0122
  125MOL0     C17121  -0.468   8.973  10.990  0.6412 -0.6680 -0.4640
  125MOL0     C17122  -0.611   8.978  11.041  0.2034 -0.1385  0.3688
  125MOL0     C17123  -0.694   8.903  10.921 -0.3971 -0.2157 -0.1308
  125MOL0     C17124  -0.835   8.893  10.970  0.5557 -1.3441  1.1645
  125MOL0     C17125  -0.913   9.028  10.973 -1.1035  0.2300  1.1119
  125MOL0     C17126  -1.068   8.998  11.004 -0.4102 -0.4211 -0.7189
  125MOL0     C17127  -1.139   9.128  11.004 -0.4981  0.0879  0.9575
  125MOL0     C17128  -1.286   9.119  11.011  0.2021  0.6151 -0.0046
  125MOL0     N17129  -1.333   9.262  11.029 -0.8525  0.4712 -0.3553
  125MOL0     C17130  -1.429   9.288  11.116 -0.1355 -0.3414 -0.0637
  125MOL0     C17131  -1.477   9.414  11.093 -0.5192  0.4503  0.6858
  125MOL0     C17132  -1.593   9.483  11.155  0.1900 -0.1167 -0.0268
  125MOL0     C17133  -1.655   9.427  11.290  0.5281  0.3144  1.0325
  125MOL0     C17134  -1.753   9.525  11.361 -0.0246  0.8129  0.0335
  125MOL0     C17135  -1.896   9.539  11.302 -0.5863  0.6079  0.6153
  125MOL0     O17136  -1.963   9.650  11.371  1.2159 -0.6106  0.3068
  125MOL0     C17137  -2.046   9.623  11.476 -0.3593 -0.3401 -0.8430
  125MOL0     C17138  -2.119   9.740  11.513 -0.3707 -0.1601  0.1328
  125MOL0     C17139  -2.214   9.751  11.615 -2.0184  0.1752 -0.2354
  125MOL0     C17140  -2.293   9.872  11.634  0.7225  0.5550 -0.5421
  125MOL0     C17141  -2.235   9.624  11.681 -0.4858 -0.0564  0.4304
  125MOL0     C17142  -2.354   9.602  11.771 -0.6347 -1.0803 -0.6677
  125MOL0     O17143  -2.366   9.686  11.881 -0.1841  0.2217 -0.3526
  125MOL0     C17144  -2.472   9.672  11.971  0.1142  0.1961 -0.0625
  125MOL0     C17145  -2.482   9.772  12.070  0.1890  0.6044  0.3888
  125MOL0     C17146  -2.577   9.761  12.174 -0.7063  0.6980 -0.6808
  125MOL0     C17147  -2.671   9.666  12.177  0.8078  0.4360 -0.1814
  125MOL0     O17148  -2.773   9.649  12.276  0.4093 -0.0128  0.1679
  125MOL0     C17149  -2.789   9.764  12.358  0.9351  0.3879 -0.5988
  125MOL0     C17150  -2.923   9.727  12.435 -0.4531 -0.7324 -0.0672
  125MOL0     C17151  -2.963   9.846  12.528  0.9168  1.4054 -0.6936
  125MOL0     C17152  -2.870   9.868  12.646  0.6969  0.9906 -0.2123
  125MOL0     C17153  -2.941   9.974  12.732 -0.1472  0.5538  0.6068
  125MOL0     C17154  -2.863  10.002  12.854  1.2015 -0.7547 -0.1109
  125MOL0     C17155  -2.723  10.038  12.838 -0.0274 -0.4088  0.5509
  125MOL0     C17156  -2.705  10.170  12.771 -0.4880 -0.0749 -0.6728
  125MOL0    Cl17157  -2.547  10.254  12.814 -0.0629 -0.3606 -0.0078
  125MOL0     C17158  -2.669   9.565  12.079 -0.3706 -0.2418  0.2145
  125MOL0     C17159  -2.563   9.567  11.980  0.9285 -0.3100  0.7672
  125MOL0     O17160  -2.423   9.512  11.747 -0.1124  0.2131 -0.1415
  125MOL0     C17161  -2.156   9.514  11.653  0.0948 -0.2886  0.8832
  125MOL0     C17162  -2.061   9.512  11.553 -0.8179 -0.3643  0.0910
  125MOL0     N17163  -1.396   9.464  10.989  1.4474  0.1535 -0.0982
  125MOL0     N17164  -1.321   9.369  10.941 -0.1468 -0.3292 -0.2492
  125MOL0     C17165  -0.185   8.899  10.978 -0.9447  0.3943  0.7557
  125MOL0     C17166  -0.063   8.879  10.922 -0.5845 -0.6136  0.0004
  125MOL0     C17167   0.308   8.768  10.707 -0.7833 -0.5026  0.6887
  125MOL0     C17168   0.286   8.662  10.614  0.1214  0.3077 -0.2148
  125MOL0     C17169   0.386   8.628  10.525  0.1154 -0.4518 -0.0946
  125MOL0     C17170   0.515   8.680  10.532  0.6447 -0.2206 -0.1824
  125MOL0     O17171   0.623   8.622  10.464 -0.3495  0.1459 -0.6996
  125MOL0     C17172   0.721   8.712  10.414 -0.1679  0.5180 -0.1680
  125MOL0     C17173   0.818   8.650  10.305  0.1311 -0.7265 -0.4433
  125MOL0     C17174   0.938   8.564  10.354  1.1421 -0.3775 -0.0125
  125MOL0     C17175   0.915   8.485  10.483  1.2593 -0.2841  0.5157
  125MOL0     C17176   1.037   8.417  10.527 -0.8055 -0.3444  0.1977
  125MOL0     C17177   1.134   8.364  10.562  0.6855  1.2154 -1.1645
  125MOL0     C17178   0.530   8.792  10.619  1.1903  0.2668  0.4793
  125MOL0     C17179   0.433   8.842  10.707  0.4425 -0.5612  0.4217
  125MOL0     C17180   0.461   8.953  10.801 -0.7219 -0.6353  0.0820
  125MOL0     H17181  -0.129   8.595  10.752 -2.3913 -2.1101  1.1530
  125MOL0     H17182  -0.356   8.633  10.875 -2.1695  2.3751 -1.5335
  125MOL0     H17183  -0.443   8.992  10.885  2.4978 -0.8824 -0.0949
  125MOL0     H17184  -0.411   9.047  11.047  2.3157 -2.4920  0.3508
  125MOL0     H17185  -0.625   8.921  11.133 -2.6285 -0.1367  0.0385
  125MOL0     H17186  -0.646   9.079  11.063 -0.4242 -0.1507 -0.5171
  125MOL0     H17187  -0.676   8.966  10.834  1.6265  0.9149  1.0357
  125MOL0     H17188  -0.643   8.811  10.891  0.9507  1.0120 -1.8227
  125MOL0     H17189  -0.898   8.827  10.909  1.8268 -1.1464 -0.4331
  125MOL0     H17190  -0.841   8.854  11.072 -1.5653  1.7061  2.3611
  125MOL0     H17191  -0.904   9.069  10.872 -1.8994  1.2485  1.4344
  125MOL0     H17192  -0.871   9.098  11.046  1.0487  0.3638 -0.1794
  125MOL0     H17193  -1.119   8.930  10.935 -0.8740 -3.7102  2.5463
  125MOL0     H17194  -1.069   8.953  11.103 -0.4147 -3.6075 -2.0275
  125MOL0     H17195  -1.098   9.175  10.914  1.7776 -0.8293  1.4485
  125MOL0     H17196  -1.103   9.181  11.092  1.6082 -1.8267  1.3372
  125MOL0     H17197  -1.321   9.078  10.916 -0.0977  0.4876  0.1582
  125MOL0     H17198  -1.325   9.059  11.094 -0.1791  1.8024  0.7032
  125MOL0     H17199  -1.474   9.221  11.188 -0.1848  0.8751  1.0989
  125MOL0     H17200  -1.666   9.473  11.075 -0.0824 -0.5662  0.2752
  125MOL0     H17201  -1.557   9.584  11.180 -0.4692 -0.6293  3.6054
  125MOL0     H17202  -1.712   9.336  11.267  1.4817  0.2258 -1.3130
  125MOL0     H17203  -1.579   9.404  11.365 -0.1452  0.1557  1.6807
  125MOL0     H17204  -1.763   9.479  11.459 -1.2017 -1.0081 -0.8937
  125MOL0     H17205  -1.699   9.620  11.371  1.7387 -0.3542  2.4645
  125MOL0     H17206  -1.887   9.556  11.194  1.6479  0.0798  0.6610
  125MOL0     H17207  -1.951   9.444  11.307  1.3381 -0.6622 -0.6951
  125MOL0     H17208  -2.104   9.824  11.447  1.9961  0.4425  1.3416
  125MOL0     H17209  -2.322   9.877  11.739 -1.3587 -3.2737 -0.7375
  125MOL0     H17210  -2.388   9.857  11.581 -0.2231  0.2049  1.1535
  125MOL0     H17211  -2.241   9.956  11.589  1.2349 -0.7148 -2.4515
  125MOL0     H17212  -2.423   9.863  12.079  0.3691  0.3649  1.8997
  125MOL0     H17213  -2.575   9.842  12.246 -4.2225  0.0745  0.3034
  125MOL0     H17214  -2.701   9.774  12.422  2.7317 -0.8582 -2.6906
  125MOL0     H17215  -2.797   9.857  12.302 -0.5685  0.5383 -0.1711
  125MOL0     H17216  -3.005   9.717  12.363  0.6521  0.5035 -1.5911
  125MOL0     H17217  -2.919   9.633  12.491 -1.0850 -1.3073 -0.9640
  125MOL0     H17218  -3.066   9.839  12.563  0.9079  1.0088 -0.7842
  125MOL0     H17219  -2.966   9.944  12.479 -4.8438  2.3625  0.7944
  125MOL0     H17220  -2.769   9.901  12.618  2.4801 -1.6785  2.4231
  125MOL0     H17221  -2.875   9.779  12.709  1.3348  0.3383 -1.0538
  125MOL0     H17222  -2.940  10.065  12.672  0.8997  0.1723  0.0168
  125MOL0     H17223  -3.047   9.962  12.755 -0.8876  1.3653 -2.0404
  125MOL0     H17224  -2.867   9.913  12.917  4.1217 -0.3775  0.7560
  125MOL0     H17225  -2.919  10.079  12.909  1.0836 -0.1122 -1.1148
  125MOL0     H17226  -2.657   9.964  12.791 -0.2460  1.5071 -3.0726
  125MOL0     H17227  -2.694  10.052  12.943 -0.6948  4.2590  0.3455
  125MOL0     H17228  -2.787  10.239  12.794  0.2530  0.9390 -0.9830
  125MOL0     H17229  -2.726  10.152  12.665 -1.1423 -0.1383 -0.5371
  125MOL0     H17230  -2.733   9.478  12.087 -0.3362 -0.0648  4.6877
  125MOL0     H17231  -2.547   9.474  11.926  0.9064  0.5398 -0.7340
  125MOL0     H17232  -2.178   9.417  11.697 -1.0778 -0.4298  0.0217
  125MOL0     H17233  -1.997   9.425  11.542  3.7612  2.6902 -0.6208
  125MOL0     H17234  -0.202   8.987  11.039  2.1084  1.5291  0.1791
  125MOL0     H17235   0.014   8.952  10.946 -2.7610  2.1432 -0.8929
  125MOL0     H17236   0.194   8.605  10.621  0.6241 -0.3061  2.7634
  125MOL0     H17237   0.363   8.540  10.465 -0.8630 -2.8561  3.5095
  125MOL0     H17238   0.673   8.796  10.363 -1.1970  0.0042 -0.0801
  125MOL0     H17239   0.784   8.750  10.494  0.5173 -0.2634 -0.3220
  125MOL0     H17240   0.868   8.723  10.241 -0.5489  1.1945  1.0988
  125MOL0     H17241   0.742   8.592  10.252 -2.1471  0.4106  1.3474
  125MOL0     H17242   0.959   8.489  10.277 -0.7464 -1.1699  0.1855
  125MOL0     H17243   1.026   8.628  10.362  0.0943  1.2523 -0.8770
  125MOL0     H17244   0.834   8.415  10.462  1.3123 -0.0488 -0.5174
  125MOL0     H17245   0.878   8.536  10.572  2.1831  0.1387  0.6753
  125MOL0     H17246   1.226   8.324  10.601  1.4238  0.0804 -3.7583
  125MOL0     H17247   0.622   8.850  10.626  2.0093 -1.0132  0.7963
  125MOL0     H17248   0.386   8.959  10.880  0.0283 -2.5651  0.9879
  125MOL0     H17249   0.553   8.935  10.857  0.4469  2.5440 -0.5791
  125MOL0     H17250   0.473   9.051  10.754 -2.2638  0.5718  2.0546
  126MOL0     O17251   3.162   6.899   9.702 -0.6984 -0.6730  0.4752
  126MOL0     C17252   3.218   6.993   9.639 -0.2152  0.3099 -0.8648
  126MOL0     O17253   3.276   7.110   9.692  0.0541 -0.5767 -0.6998
  126MOL0     C17254   3.253   7.138   9.827 -0.8967  0.8934  0.1526
  126MOL0     C17255   3.152   7.224   9.865  0.2599  0.3056  0.2746
  126MOL0     C17256   3.144   7.248  10.004  0.4520  0.5991 -0.3233
  126MOL0     C17257   3.213   7.183  10.103  0.9845 -0.0777 -0.8646
  126MOL0     O17258   3.167   7.214  10.228  0.1735  0.0003  0.3930
  126MOL0     C17259   3.265   7.271  10.313  0.7018 -0.0942 -0.0974
  126MOL0     C17260   3.183   7.341  10.421 -0.7922  0.0056  1.2064
  126MOL0     C17261   3.275   7.381  10.538  0.8154  0.2939  0.2775
  126MOL0     C17262   3.239   7.301  10.661  0.1112 -0.4929 -0.0662
  126MOL0     C17263   3.312   7.356  10.784 -0.5637  0.4172 -0.2193
  126MOL0     C17264   3.242   7.284  10.905 -0.2370  0.3150  0.0702
  126MOL0     C17265   3.304   7.308  11.037  0.0615  0.0188 -0.4211
  126MOL0     C17266   3.388   7.429  11.064 -0.2565  0.3974  0.0859
  126MOL0     N17267   3.309   7.556  11.077 -0.8254 -0.5129 -0.2222
  126MOL0     C17268   3.174   7.567  11.034  0.3758  0.1725 -0.1070
  126MOL0     C17269   3.149   7.700  11.038 -0.2429 -0.1117  0.5127
  126MOL0     C17270   3.028   7.777  11.003 -0.8581 -0.6952 -0.0163
  126MOL0     C17271   3.037   7.868  10.877 -1.4849 -0.0030  0.3220
  126MOL0     C17272   3.091   7.787  10.752 -0.1503 -0.5874 -0.5969
  126MOL0     C17273   3.245   7.768  10.739 -0.2821 -0.7702 -0.0166
  126MOL0     O17274   3.281   7.721  10.609  0.3934 -0.5764  0.4037
  126MOL0     C17275   3.403   7.739  10.553 -0.6727 -1.1774  0.8574
  126MOL0     C17276   3.439   7.666  10.439 -0.4515  0.3927 -0.4514
  126MOL0     C17277   3.570   7.673  10.391 -0.0258 -0.7508 -0.2765
  126MOL0     C17278   3.591   7.584  10.275 -1.3498 -0.3884 -0.5467
  126MOL0     C17279   3.673   7.743  10.462 -0.2329 -0.3487 -1.2975
  126MOL0     C17280   3.812   7.773  10.405 -0.1254 -0.2812 -0.9075
  126MOL0     O17281   3.926   7.784  10.491  0.2954 -0.4380  0.3880
  126MOL0     C17282   4.056   7.774  10.445 -0.2363 -0.7958 -0.9668
  126MOL0     C17283   4.157   7.721  10.530 -0.0522 -0.0533  0.1831
  126MOL0     C17284   4.292   7.701  10.495  0.6586 -0.3363 -0.7133
  126MOL0     C17285   4.331   7.742  10.372 -0.7666  0.6029 -0.4256
  126MOL0     O17286   4.464   7.727  10.350 -0.3242 -0.3454 -0.3983
  126MOL0     C17287   4.531   7.847  10.297 -0.2468  0.0530  0.2322
  126MOL0     C17288   4.667   7.856  10.376  0.3539  0.6595  0.8126
  126MOL0     C17289   4.641   7.927  10.509 -0.2863  0.9399  0.5188
  126MOL0     C17290   4.757   7.892  10.608 -0.0188 -0.2645 -0.4076
  126MOL0     C17291   4.721   7.908  10.757 -0.6476 -0.0170 -0.7467
  126MOL0     C17292   4.718   8.054  10.797 -0.3131 -0.9437  0.1294
  126MOL0     C17293   4.664   8.057  10.938  1.2875  0.6778  0.0373
  126MOL0     C17294   4.671   8.179  11.014 -0.0083 -0.2821  0.2652
  126MOL0    Cl17295   4.614   8.116  11.163  0.0151  0.1273  0.0597
  126MOL0     C17296   4.234   7.798  10.283  0.3756  0.4284 -0.0472
  126MOL0     C17297   4.103   7.814  10.324  0.3702 -0.2203  0.7170
  126MOL0     O17298   3.811   7.814  10.291  0.5240  0.5715  0.5503
  126MOL0     C17299   3.638   7.813  10.577  0.1945  0.3237 -0.4690
  126MOL0     C17300   3.501   7.813  10.618 -0.0106 -0.1737 -0.0988
  126MOL0     N17301   3.262   7.769  11.083  0.3534  0.0065 -0.0274
  126MOL0     N17302   3.353   7.678  11.120  0.4668  0.0470 -0.3925
  126MOL0     C17303   3.318   7.102  10.070 -0.1073  0.9008  0.3125
  126MOL0     C17304   3.338   7.077   9.926  0.3760  0.7237 -0.9268
  126MOL0     C17305   3.204   6.984   9.495  0.5212  0.1056  0.1293
  126MOL0     C17306   3.082   6.994   9.430  1.0037  0.2410 -0.0277
  126MOL0     C17307   3.073   6.980   9.289 -0.2892 -0.3314 -0.9258
  126MOL0     C17308   3.183   6.970   9.211  1.0512  1.0167  1.1756
  126MOL0     O17309   3.168   6.960   9.073  0.0224  0.0055  0.6110
  126MOL0     C17310   3.285   6.958   8.991 -0.8838  0.0631 -1.1825
  126MOL0     C17311   3.262   6.931   8.849  0.3591 -0.4301 -0.0112
  126MOL0     C17312   3.384   6.882   8.774 -1.2694  0.8999 -0.1517
  126MOL0     C17313   3.356   6.888   8.620  0.3849  0.0683 -0.3605
  126MOL0     C17314   3.458   6.823   8.539  0.6957  0.3984  0.1821
  126MOL0     C17315   3.532   6.784   8.450 -0.2430 -0.1885 -0.4910
  126MOL0     C17316   3.308   6.989   9.274  1.1424 -0.2445  0.1234
  126MOL0     C17317   3.316   6.983   9.417 -0.4459 -0.6041 -0.6967
  126MOL0     C17318   3.459   6.992   9.463 -0.2083  0.1506 -0.0400
  126MOL0     H17319   3.080   7.269   9.798  0.7406 -0.5758 -0.8588
  126MOL0     H17320   3.061   7.308  10.040 -2.2427 -1.5870 -2.5318
  126MOL0     H17321   3.308   7.348  10.248 -4.0606  2.6010 -0.5275
  126MOL0     H17322   3.332   7.197  10.358  0.2029  0.5088  1.7136
  126MOL0     H17323   3.140   7.425  10.366 -4.4455 -2.7780 -0.6595
  126MOL0     H17324   3.110   7.266  10.452 -0.0773 -2.2786 -2.1048
  126MOL0     H17325   3.383   7.371  10.523  0.9839 -2.1672  2.3900
  126MOL0     H17326   3.262   7.488  10.553  0.9490  0.4840 -0.8744
  126MOL0     H17327   3.130   7.306  10.670  0.0694  1.5464 -1.1680
  126MOL0     H17328   3.260   7.194  10.650  0.4561 -0.7184  2.2746
  126MOL0     H17329   3.292   7.464  10.788 -1.3982  0.3385 -1.4611
  126MOL0     H17330   3.417   7.326  10.791 -1.4883 -2.8670  5.3251
  126MOL0     H17331   3.136   7.311  10.905 -0.1775  0.6536 -1.4978
  126MOL0     H17332   3.244   7.176  10.887 -0.7399  0.7472 -3.1993
  126MOL0     H17333   3.364   7.220  11.065  0.1537  0.2470  0.1125
  126MOL0     H17334   3.231   7.313  11.119 -0.0495  1.5172 -0.5918
  126MOL0     H17335   3.461   7.421  11.145  1.4663  1.0980 -1.3352
  126MOL0     H17336   3.460   7.449  10.984  1.8714  1.3564  2.1579
  126MOL0     H17337   3.110   7.486  11.002  1.8939 -0.5450 -1.4684
  126MOL0     H17338   3.002   7.835  11.093  1.6885 -1.6437  1.4292
  126MOL0     H17339   2.947   7.705  10.987  0.5671 -2.7161  1.3856
  126MOL0     H17340   2.937   7.908  10.858 -2.4003 -1.7117  1.2680
  126MOL0     H17341   3.109   7.949  10.892  1.7836 -2.1251 -2.2243
  126MOL0     H17342   3.046   7.687  10.753  0.0483 -0.6916  0.9683
  126MOL0     H17343   3.057   7.848  10.668 -3.2834 -0.1905  0.8460
  126MOL0     H17344   3.295   7.862  10.767  0.0813 -0.0088 -2.9391
  126MOL0     H17345   3.285   7.694  10.810  3.0113  1.0480  0.2681
  126MOL0     H17346   3.363   7.608  10.388  0.0055  1.0142 -1.8782
  126MOL0     H17347   3.581   7.480  10.306 -1.7422 -0.7844 -1.9071
  126MOL0     H17348   3.693   7.598  10.239 -0.5657 -1.6936  1.0504
  126MOL0     H17349   3.526   7.607  10.190 -1.6048 -2.6531 -1.0195
  126MOL0     H17350   4.126   7.680  10.626 -0.2938 -2.8935 -1.0073
  126MOL0     H17351   4.368   7.667  10.565  0.3636 -0.9190 -0.6697
  126MOL0     H17352   4.550   7.829  10.190  0.5481  1.8148  0.0436
  126MOL0     H17353   4.469   7.934  10.319  1.6054  1.9384 -1.4815
  126MOL0     H17354   4.699   7.754  10.397 -1.4608  0.3871  2.5863
  126MOL0     H17355   4.746   7.903  10.316  0.6899 -0.7817  0.0835
  126MOL0     H17356   4.542   7.901  10.548 -0.0116  0.6078  1.0118
  126MOL0     H17357   4.636   8.036  10.502  0.1817  0.9110 -0.4605
  126MOL0     H17358   4.849   7.944  10.582 -1.3157  0.9546 -2.8770
  126MOL0     H17359   4.784   7.788  10.584 -1.1036 -0.5045 -0.6444
  126MOL0     H17360   4.621   7.868  10.775 -0.4570  0.3253  1.3065
  126MOL0     H17361   4.800   7.868  10.822 -1.2463  4.2690  3.1168
  126MOL0     H17362   4.651   8.108  10.730  0.3771 -0.8705 -0.5173
  126MOL0     H17363   4.821   8.089  10.781  1.0124 -2.4971  4.0328
  126MOL0     H17364   4.721   7.983  10.994 -1.5600  0.7402  3.4299
  126MOL0     H17365   4.561   8.018  10.940  1.4126  0.0423  4.5917
  126MOL0     H17366   4.604   8.258  10.980  0.9992  0.6568  0.4005
  126MOL0     H17367   4.771   8.222  11.024  0.4194 -0.9526 -0.9151
  126MOL0     H17368   4.272   7.831  10.187  2.6744  0.3349  0.7696
  126MOL0     H17369   4.028   7.851  10.254  0.9040 -2.6950 -1.3129
  126MOL0     H17370   3.717   7.873  10.620  0.5734  0.5117 -1.4153
  126MOL0     H17371   3.478   7.858  10.714  0.9634 -2.4785  1.3012
  126MOL0     H17372   3.379   7.063  10.151 -0.4254 -1.5469 -0.5444
  126MOL0     H17373   3.421   7.013   9.899  1.3670  1.4728  0.2750
  126MOL0     H17374   2.985   7.003   9.478  3.0195  0.8790  4.5076
  126MOL0     H17375   2.977   6.988   9.239 -0.0939 -1.4675 -1.5188
  126MOL0     H17376   3.335   7.055   9.002 -1.1895  0.3383 -2.1240
  126MOL0     H17377   3.353   6.878   9.023 -0.9398  0.9231  1.2743
  126MOL0     H17378   3.238   7.029   8.806  0.4686 -0.3132  0.1968
  126MOL0     H17379   3.187   6.854   8.832  1.3744 -1.5171  0.3162
  126MOL0     H17380   3.475   6.939   8.793 -1.9773  1.6522  1.1572
  126MOL0     H17381   3.396   6.774   8.791 -1.3609  0.7504 -1.0253
  126MOL0     H17382   3.355   6.994   8.591  2.5475 -0.1742 -1.5499
  126MOL0     H17383   3.255   6.855   8.593 -0.1002  0.8078  0.4875
  126MOL0     H17384   3.606   6.754   8.379 -0.4677  0.5696 -1.0463
  126MOL0     H17385   3.393   7.016   9.212  1.2825  2.9066  1.4944
  126MOL0     H17386   3.504   7.089   9.443  2.8592 -1.3133 -0.7429
  126MOL0     H17387   3.466   6.971   9.570  1.0557  0.7804  0.0120
  126MOL0     H17388   3.530   6.929   9.408  0.1366  1.2529 -0.8883
  127MOL0     O17389   6.190  11.130  10.700  0.7012 -0.2501  0.6200
  127MOL0     C17390   6.122  11.165  10.597  0.2546 -0.3073  0.0627
  127MOL0     O17391   6.047  11.280  10.590  0.3501 -0.7113  0.4001
  127MOL0     C17392   6.041  11.371  10.699 -0.2425  0.2431  1.0990
  127MOL0     C17393   5.919  11.449  10.715 -0.0657 -1.1520  0.6016
  127MOL0     C17394   5.895  11.532  10.826 -0.2562 -0.6258  0.6421
  127MOL0     C17395   5.993  11.548  10.923 -0.1159  0.3075  0.4630
  127MOL0     O17396   5.971  11.612  11.039  0.3066 -0.4031 -0.4198
  127MOL0     C17397   6.045  11.732  11.063 -0.0360 -0.4747 -0.0987
  127MOL0     C17398   6.179  11.701  11.133  0.2260  0.2423 -0.4732
  127MOL0     C17399   6.156  11.629  11.273 -0.0774 -0.7294 -0.2437
  127MOL0     C17400   6.098  11.737  11.371 -0.1033  0.3956  0.2563
  127MOL0     C17401   6.095  11.696  11.520  0.1535 -1.3952  0.2281
  127MOL0     C17402   5.981  11.767  11.598 -0.2212 -0.6084 -0.0035
  127MOL0     C17403   5.989  11.927  11.581  0.8128  0.3052  0.3908
  127MOL0     C17404   6.104  11.973  11.670  0.0183 -0.4735 -0.4040
  127MOL0     N17405   6.168  12.095  11.613 -0.0867 -1.0891 -0.7989
  127MOL0     C17406   6.111  12.224  11.627 -0.5294 -0.4497 -0.0096
  127MOL0     C17407   6.196  12.304  11.557 -0.3682  0.2805  0.7092
  127MOL0     C17408   6.169  12.447  11.528  0.1350 -0.5272 -0.3466
  127MOL0     C17409   6.182  12.536  11.654 -0.0824  0.2289 -0.3895
  127MOL0     C17410   6.325  12.554  11.705 -0.7733  0.2982  0.8759
  127MOL0     C17411   6.341  12.559  11.859 -0.0070  0.0847 -0.4910
  127MOL0     O17412   6.333  12.422  11.911  0.0147 -0.1353 -0.5901
  127MOL0     C17413   6.238  12.393  12.004 -0.5458  0.2407 -0.2922
  127MOL0     C17414   6.151  12.293  11.995  0.7153  0.1462  0.4816
  127MOL0     C17415   6.047  12.272  12.081  0.2062 -0.7102  0.1869
  127MOL0     C17416   5.956  12.158  12.055 -0.2409 -0.1997 -0.1519
  127MOL0     C17417   6.032  12.356  12.194 -0.2920  0.4064 -0.0416
  127MOL0     C17418   5.924  12.344  12.298 -0.1396  0.7165  0.0202
  127MOL0     O17419   5.894  12.217  12.343 -0.6972  0.5225  0.6272
  127MOL0     C17420   5.785  12.211  12.432 -0.9085  0.1291  0.4426
  127MOL0     C17421   5.803  12.191  12.563  0.0441 -0.0859 -0.8717
  127MOL0     C17422   5.695  12.171  12.654  0.0663  0.1541  0.4956
  127MOL0     C17423   5.564  12.166  12.609 -0.2823  0.2251  0.3631
  127MOL0     O17424   5.470  12.120  12.703  0.1201  0.0586 -0.1907
  127MOL0     C17425   5.331  12.098  12.669  0.0390  0.0762  0.2113
  127MOL0     C17426   5.247  12.227  12.674 -0.5556  0.3793 -0.5229
  127MOL0     C17427   5.101  12.197  12.717  0.5408  0.9521  0.5930
  127MOL0     C17428   5.019  12.131  12.600 -0.0019 -0.2530  0.4216
  127MOL0     C17429   4.894  12.065  12.665 -0.4388  0.0464 -0.3397
  127MOL0     C17430   4.811  12.005  12.554 -1.0991 -0.3407 -0.5487
  127MOL0     C17431   4.685  11.942  12.608 -0.4918  0.1560  0.3386
  127MOL0     C17432   4.598  11.856  12.511  0.7603  0.6570 -0.5847
  127MOL0    Cl17433   4.672  11.700  12.464  0.2872  0.2127  0.0674
  127MOL0     C17434   5.538  12.183  12.474 -0.0354 -1.0252 -0.1425
  127MOL0     C17435   5.653  12.205  12.390 -0.2453  0.4886  0.0116
  127MOL0     O17436   5.882  12.450  12.344  0.0830  0.1521  0.1691
  127MOL0     C17437   6.109  12.474  12.193  0.1393  0.2169 -0.0605
  127MOL0     C17438   6.212  12.492  12.099  0.0294  0.7592  1.0131
  127MOL0     N17439   6.286  12.222  11.489  0.3029 -0.5119  0.0393
  127MOL0     N17440   6.274  12.102  11.521  0.0180  0.1250  0.2021
  127MOL0     C17441   6.112  11.469  10.908 -0.0653 -1.4189  0.3235
  127MOL0     C17442   6.141  11.392  10.794  0.3025  1.2860  1.3180
  127MOL0     C17443   6.129  11.095  10.470 -0.1023  0.8016  0.2958
  127MOL0     C17444   6.158  11.177  10.358  0.2709  0.2011 -0.6114
  127MOL0     C17445   6.164  11.115  10.230 -0.8946  0.3732 -0.6845
  127MOL0     C17446   6.153  10.978  10.217  0.4233 -0.4502  0.8135
  127MOL0     O17447   6.168  10.918  10.097  0.6629  0.3272  0.9213
  127MOL0     C17448   6.300  10.863  10.102 -0.9251  0.7594  0.6632
  127MOL0     C17449   6.332  10.788   9.975 -0.5738 -0.4951  0.3973
  127MOL0     C17450   6.239  10.689   9.919  1.0476 -0.2279 -0.1256
  127MOL0     C17451   6.234  10.558  10.006 -0.8157  0.5970 -0.1669
  127MOL0     C17452   6.357  10.469   9.996 -0.2286  0.6474 -0.2578
  127MOL0     C17453   6.460  10.407   9.975  0.2521 -0.1463 -0.2305
  127MOL0     C17454   6.120  10.900  10.324  0.3005  0.1441  0.0824
  127MOL0     C17455   6.101  10.957  10.452  0.2010 -0.6820  0.2120
  127MOL0     C17456   6.060  10.852  10.561  0.4434 -1.3775 -0.6569
  127MOL0     H17457   5.847  11.436  10.636  1.9270 -0.7050 -1.3914
  127MOL0     H17458   5.795  11.572  10.835 -0.0159 -0.0723  0.8975
  127MOL0     H17459   5.987  11.793  11.133  0.3090  0.7504 -0.8444
  127MOL0     H17460   6.065  11.779  10.966 -2.4026 -1.8750 -1.3700
  127MOL0     H17461   6.245  11.641  11.069  0.8947  0.6770 -0.1999
  127MOL0     H17462   6.242  11.789  11.149  3.2415 -1.3692 -2.3463
  127MOL0     H17463   6.084  11.548  11.257 -0.7874  0.0234 -0.9297
  127MOL0     H17464   6.252  11.587  11.304 -0.4972 -1.9192 -0.5011
  127MOL0     H17465   6.157  11.828  11.361  1.8867 -0.8888 -0.3222
  127MOL0     H17466   5.994  11.758  11.344  0.3350 -0.0837 -2.0241
  127MOL0     H17467   6.188  11.733  11.564 -0.1280 -0.0388 -0.2526
  127MOL0     H17468   6.103  11.588  11.535  1.0816 -1.2364  0.9806
  127MOL0     H17469   5.888  11.733  11.553  1.3223 -3.4428 -1.2860
  127MOL0     H17470   5.990  11.732  11.701  2.4469 -1.2359 -0.3610
  127MOL0     H17471   5.892  11.969  11.610 -0.2950 -3.1172  2.2370
  127MOL0     H17472   6.008  11.954  11.477  0.8618 -1.6244 -0.1300
  127MOL0     H17473   6.071  11.990  11.773 -1.5431 -1.5566 -0.6845
  127MOL0     H17474   6.182  11.899  11.691  1.0860 -0.6418 -4.1344
  127MOL0     H17475   6.024  12.262  11.679  0.3286  0.7297  0.6197
  127MOL0     H17476   6.070  12.466  11.488  0.7035  0.9856 -1.0940
  127MOL0     H17477   6.241  12.470  11.449 -0.3385  3.3170  0.1568
  127MOL0     H17478   6.148  12.637  11.630  1.1522  0.7922  0.1941
  127MOL0     H17479   6.128  12.488  11.736 -0.6123  1.3194 -0.0819
  127MOL0     H17480   6.391  12.478  11.661  1.4119  0.8719  2.9165
  127MOL0     H17481   6.367  12.649  11.671  0.3722 -1.2112 -2.3509
  127MOL0     H17482   6.441  12.598  11.880 -1.1277  2.1173  1.4920
  127MOL0     H17483   6.271  12.627  11.908  2.4371  1.3490  1.5167
  127MOL0     H17484   6.153  12.224  11.911 -0.4607 -2.8733  2.7501
  127MOL0     H17485   6.002  12.063  12.085  0.2935  0.2589  0.5072
  127MOL0     H17486   5.932  12.154  11.949  1.8043 -1.9420 -0.6228
  127MOL0     H17487   5.862  12.180  12.107 -0.8098 -0.4923 -1.0471
  127MOL0     H17488   5.907  12.195  12.593 -0.0667  0.5067 -0.5566
  127MOL0     H17489   5.709  12.126  12.751 -3.4664 -3.9617 -0.5749
  127MOL0     H17490   5.316  12.043  12.575  1.7884 -1.9756  1.0533
  127MOL0     H17491   5.307  12.026  12.747 -0.4924  0.8403  0.7572
  127MOL0     H17492   5.281  12.305  12.743 -1.2914  0.8202 -0.6427
  127MOL0     H17493   5.247  12.270  12.573 -0.3179 -1.3587 -1.2947
  127MOL0     H17494   5.047  12.286  12.749 -1.7309 -0.6474  1.4714
  127MOL0     H17495   5.105  12.141  12.810  0.0350 -0.8334 -0.4101
  127MOL0     H17496   5.068  12.043  12.558 -0.1370 -1.1731  2.1012
  127MOL0     H17497   4.986  12.213  12.536  1.0396  1.9262  2.4903
  127MOL0     H17498   4.923  11.983  12.730  1.1284  1.7683  1.2552
  127MOL0     H17499   4.836  12.133  12.729 -0.1077 -0.0438  0.0594
  127MOL0     H17500   4.879  11.943  12.495  2.5332  1.7677  1.0366
  127MOL0     H17501   4.781  12.086  12.487  2.4552 -0.0905 -2.0494
  127MOL0     H17502   4.621  12.021  12.648  0.1337  0.8475 -0.0122
  127MOL0     H17503   4.713  11.875  12.690  2.0857  1.4330  0.6202
  127MOL0     H17504   4.581  11.916  12.421  1.3101  0.3972 -0.8668
  127MOL0     H17505   4.499  11.850  12.558  2.0867  4.1736  3.3059
  127MOL0     H17506   5.445  12.163  12.421 -1.7727  0.7832  2.0123
  127MOL0     H17507   5.631  12.209  12.284  1.0504  1.6006 -0.2418
  127MOL0     H17508   6.092  12.550  12.269 -1.6032  0.8612 -1.0308
  127MOL0     H17509   6.274  12.581  12.097  1.4354 -0.1553 -2.0281
  127MOL0     H17510   6.188  11.467  10.985 -1.0987  2.7750  1.7318
  127MOL0     H17511   6.241  11.350  10.784  0.2590  1.7361 -3.4345
  127MOL0     H17512   6.173  11.284  10.374 -3.3789  1.1942 -2.6240
  127MOL0     H17513   6.190  11.178  10.145 -0.3482 -0.8529 -1.4422
  127MOL0     H17514   6.370  10.944  10.124 -0.7100  0.5633  0.6994
  127MOL0     H17515   6.305  10.791  10.183 -1.1365  0.3597  0.3246
  127MOL0     H17516   6.421  10.729  10.000 -0.7040 -0.1180  1.8036
  127MOL0     H17517   6.358  10.865   9.902 -2.8244  1.2778  1.3400
  127MOL0     H17518   6.139  10.732   9.904  0.4686 -2.4173 -3.9567
  127MOL0     H17519   6.270  10.654   9.820  0.0433 -1.6651  0.0291
  127MOL0     H17520   6.144  10.501   9.982 -0.6197  0.5073 -0.6997
  127MOL0     H17521   6.216  10.588  10.110  1.3305 -2.0872  1.1286
  127MOL0     H17522   6.524  10.322   9.962  2.3198  0.3199  4.7814
  127MOL0     H17523   6.097  10.796  10.301  0.8289 -0.0281  0.3440
  127MOL0     H17524   6.009  10.918  10.633  2.0808 -0.6122 -0.1426
  127MOL0     H17525   5.993  10.783  10.510 -2.9924  1.7617 -0.8017
  127MOL0     H17526   6.146  10.811  10.616  0.7160 -0.8993 -0.7225
  128MOL0     O17527   9.725   2.175   5.092 -0.2280  1.1237  0.8598
  128MOL0     C17528   9.658   2.237   5.010  0.5549  0.2877 -0.6440
  128MOL0     O17529   9.649   2.212   4.875 -0.2103  0.5860  0.1854
  128MOL0     C17530   9.711   2.095   4.826 -1.3680 -1.0751  0.1968
  128MOL0     C17531   9.638   2.010   4.746 -0.9455  0.4701  0.2388
  128MOL0     C17532   9.709   1.917   4.673  0.3199  1.2331 -0.5950
  128MOL0     C17533   9.849   1.903   4.679 -0.5291 -1.2361 -0.2997
  128MOL0     O17534   9.905   1.798   4.613 -0.5809  0.3774  0.5991
  128MOL0     C17535  10.029   1.835   4.538  1.2911 -0.1240  0.9704
  128MOL0     C17536   9.990   1.937   4.435 -1.1279  0.2697 -0.3485
  128MOL0     C17537  10.118   1.974   4.353 -0.3807  1.0170 -0.5764
  128MOL0     C17538  10.107   2.102   4.264 -0.0805  0.6840 -0.8139
  128MOL0     C17539  10.215   2.101   4.163 -0.5141  0.1645  0.5113
  128MOL0     C17540  10.353   2.133   4.218  0.5541  0.7271 -0.3309
  128MOL0     C17541  10.437   2.196   4.114 -0.6497  0.0073  0.4693
  128MOL0     C17542  10.589   2.213   4.164 -0.1884 -0.5435 -0.7556
  128MOL0     N17543  10.595   2.279   4.297  1.0189 -0.3730 -0.5056
  128MOL0     C17544  10.531   2.395   4.342  0.2171  0.0409  0.2889
  128MOL0     C17545  10.515   2.383   4.473 -0.3817 -0.4108 -0.5631
  128MOL0     C17546  10.443   2.470   4.569 -0.6784 -0.2570 -0.3336
  128MOL0     C17547  10.354   2.584   4.517 -0.3150  0.4351 -0.2466
  128MOL0     C17548  10.291   2.637   4.639 -0.1426  0.1901  0.5205
  128MOL0     C17549  10.186   2.753   4.615 -0.7672  0.2480  0.5770
  128MOL0     O17550  10.237   2.874   4.548 -0.0933  0.2743 -0.2701
  128MOL0     C17551  10.196   3.001   4.569  0.1445  0.6982 -0.5393
  128MOL0     C17552  10.259   3.103   4.498  0.1098  0.4792  0.1825
  128MOL0     C17553  10.230   3.238   4.515 -1.2041 -0.0203  0.1613
  128MOL0     C17554  10.348   3.319   4.456  0.8954  0.6254 -0.1180
  128MOL0     C17555  10.116   3.273   4.595 -0.4693  0.1580 -1.2297
  128MOL0     C17556  10.086   3.417   4.639  0.7363 -0.0972  1.0124
  128MOL0     O17557   9.961   3.434   4.699  0.1689 -0.9567 -0.4446
  128MOL0     C17558   9.923   3.559   4.754 -0.6600  0.7282 -0.6921
  128MOL0     C17559   9.861   3.565   4.883 -0.3922 -0.4101  0.6908
  128MOL0     C17560   9.815   3.685   4.939  1.2439 -0.2343  0.0052
  128MOL0     C17561   9.825   3.799   4.862  0.0822  0.2096  0.2926
  128MOL0     O17562   9.778   3.920   4.899 -0.3075 -0.2109 -0.0551
  128MOL0     C17563   9.637   3.930   4.914 -0.3901 -0.2032 -0.4994
  128MOL0     C17564   9.600   4.040   4.814  0.0777 -0.8587 -0.4424
  128MOL0     C17565   9.670   4.177   4.822 -0.2835 -0.5206  0.4046
  128MOL0     C17566   9.602   4.274   4.716  0.1348 -0.8177 -1.0104
  128MOL0     C17567   9.664   4.410   4.715  0.5832  0.3660  0.4786
  128MOL0     C17568   9.546   4.508   4.700  0.4131 -0.0826 -0.3875
  128MOL0     C17569   9.454   4.510   4.833  0.0605 -0.5994  0.7488
  128MOL0     C17570   9.366   4.627   4.829  0.1931  0.3289  0.4476
  128MOL0    Cl17571   9.477   4.768   4.857 -0.3984 -0.0262  0.5399
  128MOL0     C17572   9.897   3.789   4.742  0.3649 -0.7019  0.8268
  128MOL0     C17573   9.947   3.669   4.681  0.2195 -0.8987  0.0613
  128MOL0     O17574  10.174   3.504   4.631 -0.2902  0.6892  0.0007
  128MOL0     C17575  10.037   3.166   4.648  0.7763 -0.3287  0.2539
  128MOL0     C17576  10.083   3.036   4.644 -0.4313 -0.7881 -0.3650
  128MOL0     N17577  10.563   2.262   4.515  0.3862 -0.1072 -0.2444
  128MOL0     N17578  10.597   2.200   4.411 -0.4101 -0.3827  1.0358
  128MOL0     C17579   9.918   1.988   4.764 -0.4092  0.5911  0.0460
  128MOL0     C17580   9.851   2.080   4.846  0.5399  0.3089  1.1814
  128MOL0     C17581   9.587   2.362   5.054  0.9845 -0.5923  0.8929
  128MOL0     C17582   9.480   2.411   4.975  0.3188 -0.7439  0.6126
  128MOL0     C17583   9.406   2.525   5.016 -0.4558  0.0136  0.9206
  128MOL0     C17584   9.432   2.587   5.138 -0.9013  0.8415  0.0652
  128MOL0     O17585   9.382   2.707   5.179  0.1762 -0.5658  1.0165
  128MOL0     C17586   9.294   2.773   5.081 -1.2174  1.0141 -0.2543
  128MOL0     C17587   9.246   2.893   5.169  0.2997  1.0914  0.0173
  128MOL0     C17588   9.120   2.869   5.250 -0.3051  0.1395  0.1426
  128MOL0     C17589   9.063   2.996   5.307 -0.2764 -0.3537 -0.3402
  128MOL0     C17590   8.948   2.962   5.392 -0.0911  0.4328 -0.5945
  128MOL0     C17591   8.854   2.950   5.469 -0.1107  0.1878 -0.3850
  128MOL0     C17592   9.543   2.542   5.210 -0.4963  0.8169  0.8745
  128MOL0     C17593   9.615   2.422   5.179 -0.5602 -0.1290 -0.2026
  128MOL0     C17594   9.725   2.387   5.277  0.2565  0.8093  0.0232
  128MOL0     H17595   9.530   2.015   4.736 -0.8758 -1.5649 -2.9676
  128MOL0     H17596   9.671   1.839   4.607  1.3519  0.4452 -0.2982
  128MOL0     H17597  10.045   1.740   4.486  0.3823 -0.9960  2.2014
  128MOL0     H17598  10.120   1.860   4.593  0.5719  0.9500  1.7015
  128MOL0     H17599   9.909   1.892   4.377 -1.0577 -0.7058  0.2944
  128MOL0     H17600   9.949   2.029   4.478  0.3005 -0.2902  2.4948
  128MOL0     H17601  10.200   1.983   4.425  0.6301 -0.1879 -1.5340
  128MOL0     H17602  10.135   1.885   4.292  1.5537  1.7068 -1.0965
  128MOL0     H17603  10.011   2.107   4.212 -1.0810 -1.8585  0.5862
  128MOL0     H17604  10.109   2.195   4.322 -1.3579  0.0302  0.3547
  128MOL0     H17605  10.191   2.179   4.090  1.2942  0.8044  0.5620
  128MOL0     H17606  10.213   2.005   4.110  0.1528 -0.7788  2.1304
  128MOL0     H17607  10.348   2.212   4.293  3.9458  0.0812  0.7642
  128MOL0     H17608  10.404   2.043   4.254 -0.9155 -1.6758 -3.7323
  128MOL0     H17609  10.405   2.295   4.079  3.2798  0.1572 -3.6151
  128MOL0     H17610  10.442   2.136   4.023  0.9651  0.8582 -0.0387
  128MOL0     H17611  10.640   2.117   4.176  1.0482 -0.1377 -2.4971
  128MOL0     H17612  10.652   2.270   4.096  2.1918  0.8121  2.3317
  128MOL0     H17613  10.490   2.479   4.286 -1.2299  0.2075  1.5147
  128MOL0     H17614  10.533   2.505   4.618  0.5758 -2.1452 -1.1546
  128MOL0     H17615  10.394   2.398   4.636  1.0692 -0.8591  0.3307
  128MOL0     H17616  10.419   2.656   4.465  0.5745  0.2910  0.6256
  128MOL0     H17617  10.274   2.546   4.454 -0.6863 -2.5705  1.8077
  128MOL0     H17618  10.244   2.557   4.697 -2.5011  0.1752 -1.2660
  128MOL0     H17619  10.365   2.692   4.698 -0.2296 -0.1701  0.9754
  128MOL0     H17620  10.107   2.703   4.557 -0.3960  0.1681  0.1362
  128MOL0     H17621  10.139   2.776   4.711 -1.0025 -0.2191  0.5762
  128MOL0     H17622  10.350   3.065   4.452 -1.2653 -3.3053  0.2348
  128MOL0     H17623  10.378   3.265   4.366  0.4073  0.7795 -0.3754
  128MOL0     H17624  10.432   3.326   4.525  3.5477  0.6803 -3.1210
  128MOL0     H17625  10.312   3.419   4.430 -1.7336  0.3160  1.8897
  128MOL0     H17626   9.854   3.484   4.954  1.6040  0.5076  2.0297
  128MOL0     H17627   9.775   3.675   5.039  2.6475  0.8727  0.7015
  128MOL0     H17628   9.577   3.842   4.889 -2.0208  1.2928 -2.1506
  128MOL0     H17629   9.614   3.956   5.018 -1.1551 -1.5594 -0.3043
  128MOL0     H17630   9.607   3.987   4.718 -0.3661 -2.4131  0.3477
  128MOL0     H17631   9.494   4.063   4.826 -0.7935 -2.8911 -3.0474
  128MOL0     H17632   9.773   4.153   4.795 -0.2605  0.7600 -0.8055
  128MOL0     H17633   9.657   4.226   4.919 -1.2826  1.3664 -0.6272
  128MOL0     H17634   9.495   4.279   4.735  0.3986 -1.8696  1.1164
  128MOL0     H17635   9.614   4.235   4.615 -1.0474  0.1535 -1.5456
  128MOL0     H17636   9.724   4.426   4.806  3.1294 -0.7047 -0.9001
  128MOL0     H17637   9.732   4.422   4.630 -0.2441 -1.0432 -0.4135
  128MOL0     H17638   9.477   4.488   4.617 -0.1821  2.1925 -0.5016
  128MOL0     H17639   9.578   4.612   4.685 -3.0214  0.9616 -1.4274
  128MOL0     H17640   9.520   4.511   4.920  1.4528  1.7800 -0.2487
  128MOL0     H17641   9.384   4.427   4.841  1.0877 -1.7127 -0.8833
  128MOL0     H17642   9.298   4.619   4.914 -2.7926 -0.8286 -1.8690
  128MOL0     H17643   9.307   4.622   4.737 -0.3615 -2.3106  0.8713
  128MOL0     H17644   9.928   3.879   4.689  0.2561 -0.8407  0.5233
  128MOL0     H17645  10.005   3.670   4.589 -0.2578  0.6139 -0.2463
  128MOL0     H17646   9.948   3.179   4.709  1.5708 -0.6852  1.5128
  128MOL0     H17647  10.025   2.967   4.704 -0.8143 -0.0575  0.1093
  128MOL0     H17648  10.026   1.979   4.769 -0.5379 -0.7146  1.0242
  128MOL0     H17649   9.902   2.152   4.909  1.1859  1.5608 -0.6923
  128MOL0     H17650   9.443   2.352   4.892 -1.9562  0.8901  0.3681
  128MOL0     H17651   9.321   2.550   4.954 -2.0275 -2.0510  2.1293
  128MOL0     H17652   9.358   2.796   4.996  0.5489  1.5483  1.1692
  128MOL0     H17653   9.200   2.723   5.053 -1.4503  1.1002  0.3442
  128MOL0     H17654   9.218   2.974   5.102  0.7366 -0.0482 -1.5984
  128MOL0     H17655   9.325   2.924   5.239  1.5108  0.1738 -0.8903
  128MOL0     H17656   9.040   2.842   5.180  0.3728  3.9499 -2.4135
  128MOL0     H17657   9.133   2.791   5.326 -1.7171 -1.0230 -0.7659
  128MOL0     H17658   9.037   3.063   5.224 -2.9977 -0.3681  0.4288
  128MOL0     H17659   9.136   3.052   5.366  2.0029 -3.8720  0.4994
  128MOL0     H17660   8.778   2.940   5.544  2.0806 -1.0015  1.8056
  128MOL0     H17661   9.551   2.596   5.303 -0.1493 -0.1358  1.4118
  128MOL0     H17662   9.687   2.334   5.365 -0.6257  0.8853 -0.2961
  128MOL0     H17663   9.807   2.327   5.236 -1.1526 -0.1487 -1.5441
  128MOL0     H17664   9.774   2.479   5.311  2.6655 -0.6743  0.8030
  129MOL0     O17665   5.036  10.072  11.284 -0.0558 -0.3437 -0.5326
  129MOL0     C17666   5.045  10.077  11.412  1.4250 -0.0264 -0.4993
  129MOL0     O17667   5.001  10.176  11.488 -0.4145  0.1421 -0.3545
  129MOL0     C17668   4.918  10.256  11.420 -0.2337  0.5525  0.0228
  129MOL0     C17669   4.968  10.350  11.332  0.0224  1.3564 -0.8007
  129MOL0     C17670   4.875  10.432  11.258 -0.2036 -1.0035 -0.4753
  129MOL0     C17671   4.741  10.416  11.249  0.0802 -0.7848 -1.1892
  129MOL0     O17672   4.662  10.503  11.171 -0.8689 -0.1477 -0.2366
  129MOL0     C17673   4.533  10.447  11.153  1.1031 -0.4278  0.2826
  129MOL0     C17674   4.462  10.507  11.027  1.2141 -0.8709  0.0572
  129MOL0     C17675   4.559  10.491  10.899 -0.0113 -0.2899 -0.3922
  129MOL0     C17676   4.487  10.590  10.801  0.0564  0.7096  0.3576
  129MOL0     C17677   4.541  10.566  10.654  0.0276 -0.0122 -0.2759
  129MOL0     C17678   4.687  10.607  10.630  0.0196 -0.2879 -0.0893
  129MOL0     C17679   4.710  10.606  10.475 -0.7649  0.3845  1.0169
  129MOL0     C17680   4.852  10.662  10.444 -0.1052 -0.1546  0.3572
  129MOL0     N17681   4.889  10.636  10.307  0.1944 -0.2649 -0.7436
  129MOL0     C17682   4.999  10.697  10.243  0.3948 -0.4996  0.3629
  129MOL0     C17683   4.990  10.642  10.118 -0.3328 -0.5792  0.5947
  129MOL0     C17684   5.082  10.668   9.995  0.3197  0.0688  0.7532
  129MOL0     C17685   4.982  10.678   9.879  0.5611  0.5925  0.0834
  129MOL0     C17686   5.057  10.744   9.758  0.5272  0.4591  0.2816
  129MOL0     C17687   4.986  10.732   9.632 -0.2949  0.4512 -0.2521
  129MOL0     O17688   4.862  10.798   9.639 -0.1019 -0.0244 -0.3986
  129MOL0     C17689   4.787  10.805   9.523  0.4973 -0.4973  0.2011
  129MOL0     C17690   4.831  10.740   9.400  0.1468  0.0424 -0.0216
  129MOL0     C17691   4.767  10.743   9.276 -0.3531  0.1845 -0.3549
  129MOL0     C17692   4.836  10.672   9.157 -0.5160  0.4892  0.1070
  129MOL0     C17693   4.637  10.803   9.265  0.0162  0.2563 -0.5101
  129MOL0     C17694   4.562  10.784   9.132 -0.4644 -0.5018 -0.0956
  129MOL0     O17695   4.434  10.731   9.136 -0.7685 -0.3766 -0.4288
  129MOL0     C17696   4.362  10.720   9.016  0.3375  0.4270  0.4832
  129MOL0     C17697   4.279  10.813   8.977 -0.3745 -0.0793 -0.1569
  129MOL0     C17698   4.220  10.812   8.849 -0.3905 -0.3287  0.3262
  129MOL0     C17699   4.231  10.694   8.774  0.1383 -0.7830 -0.1015
  129MOL0     O17700   4.138  10.672   8.669 -0.6454  0.2789  0.2399
  129MOL0     C17701   4.177  10.609   8.542 -0.5563 -0.3727 -0.2040
  129MOL0     C17702   4.265  10.713   8.466 -0.2196 -0.1002 -0.4498
  129MOL0     C17703   4.305  10.680   8.325  0.1352 -0.1428  0.3940
  129MOL0     C17704   4.426  10.762   8.274 -0.3238 -0.1207  0.4792
  129MOL0     C17705   4.564  10.702   8.320 -0.2373 -0.1050  0.0585
  129MOL0     C17706   4.670  10.754   8.221  0.2248 -0.0089 -0.3840
  129MOL0     C17707   4.724  10.890   8.266  0.0893 -0.1815 -0.9028
  129MOL0     C17708   4.787  10.971   8.144 -0.8885 -0.9386  0.2618
  129MOL0    Cl17709   4.945  10.918   8.083  0.5489  0.1735 -0.0898
  129MOL0     C17710   4.312  10.589   8.818 -0.7438 -0.3903  0.1154
  129MOL0     C17711   4.382  10.608   8.939 -0.2384 -0.0434 -0.3932
  129MOL0     O17712   4.613  10.838   9.032  0.4194  1.0252  0.2914
  129MOL0     C17713   4.589  10.865   9.385  0.1747  0.4009  0.3216
  129MOL0     C17714   4.662  10.868   9.507 -0.1637 -0.4695 -0.2719
  129MOL0     N17715   4.878  10.562  10.113  0.1894  0.0938  0.0451
  129MOL0     N17716   4.814  10.573  10.220  0.2245 -0.0350  0.5036
  129MOL0     C17717   4.694  10.312  11.335 -0.5313  0.2189 -0.3428
  129MOL0     C17718   4.785  10.238  11.424 -0.3985 -0.8123 -0.8148
  129MOL0     C17719   5.120   9.972  11.484  0.4720 -0.2489  0.6885
  129MOL0     C17720   5.253   9.960  11.444 -0.1302  0.1082  0.2075
  129MOL0     C17721   5.342   9.866  11.507 -0.3230  0.0644  1.1103
  129MOL0     C17722   5.297   9.788  11.615  0.5060 -0.6134  1.0783
  129MOL0     O17723   5.392   9.713  11.679  0.9009  0.3341  0.2553
  129MOL0     C17724   5.353   9.599  11.751 -0.4124 -0.9327  0.1827
  129MOL0     C17725   5.392   9.470  11.681  0.3105 -0.5499 -0.3906
  129MOL0     C17726   5.532   9.426  11.716 -0.7913 -0.4841 -0.0421
  129MOL0     C17727   5.563   9.315  11.621  0.1884 -0.3464  0.6768
  129MOL0     C17728   5.680   9.244  11.663 -0.3927 -0.7994  0.3572
  129MOL0     C17729   5.763   9.186  11.731 -0.1025 -0.5943  1.1288
  129MOL0     C17730   5.164   9.798  11.647  0.3459 -0.1037  0.7876
  129MOL0     C17731   5.076   9.892  11.591 -0.3564  0.1324 -0.1237
  129MOL0     C17732   4.936   9.904  11.637 -0.6682  0.6480 -0.5346
  129MOL0     H17733   5.075  10.354  11.351  0.3361 -3.7583 -0.1801
  129MOL0     H17734   4.915  10.513  11.198 -1.6649 -0.4617 -0.7800
  129MOL0     H17735   4.467  10.459  11.239  2.3343 -2.6227  1.6357
  129MOL0     H17736   4.524  10.341  11.127  2.6677  0.4131 -4.8713
  129MOL0     H17737   4.374  10.452  10.992 -0.1516  0.4146  1.3228
  129MOL0     H17738   4.424  10.609  11.038 -4.4991 -2.5289 -1.0013
  129MOL0     H17739   4.654  10.544  10.913  0.0590 -0.3295 -0.7103
  129MOL0     H17740   4.560  10.385  10.869 -1.9438 -0.1597 -1.0636
  129MOL0     H17741   4.384  10.555  10.797 -0.6163  2.0814  3.1384
  129MOL0     H17742   4.499  10.692  10.838  2.2604 -0.6373  3.8712
  129MOL0     H17743   4.485  10.641  10.597  0.5545  0.4079 -0.2450
  129MOL0     H17744   4.514  10.475  10.599 -3.6964  0.1256  1.0495
  129MOL0     H17745   4.703  10.707  10.671 -2.3279  0.4998 -0.9166
  129MOL0     H17746   4.748  10.531  10.679 -2.6464 -2.4690  0.0759
  129MOL0     H17747   4.641  10.674  10.424 -1.2277 -0.7552  0.0797
  129MOL0     H17748   4.709  10.507  10.430 -0.1729  1.9065 -2.6770
  129MOL0     H17749   4.845  10.770  10.461 -1.1635 -0.4490  2.0741
  129MOL0     H17750   4.917  10.611  10.515 -1.9345 -1.0167  1.5067
  129MOL0     H17751   5.069  10.773  10.278  0.2334 -0.5186  0.7328
  129MOL0     H17752   5.161  10.593   9.981 -0.0188 -0.0917 -0.4115
  129MOL0     H17753   5.136  10.762  10.004  0.9814  0.1954 -3.0516
  129MOL0     H17754   4.935  10.580   9.864  3.5819 -1.7652  4.0241
  129MOL0     H17755   4.911  10.755   9.910 -0.8899 -0.4334 -0.5817
  129MOL0     H17756   5.069  10.851   9.775 -4.2569  1.3350 -0.6076
  129MOL0     H17757   5.156  10.700   9.742  1.0281  1.3443  0.8704
  129MOL0     H17758   5.050  10.776   9.555 -0.0471  3.8602  1.7371
  129MOL0     H17759   4.970  10.627   9.605  0.9276  0.2190 -0.1438
  129MOL0     H17760   4.921  10.680   9.389 -0.4617 -0.6430 -1.4464
  129MOL0     H17761   4.858  10.738   9.072 -0.4126 -0.5710 -0.7042
  129MOL0     H17762   4.776  10.590   9.116 -0.7493 -0.5346  2.3552
  129MOL0     H17763   4.918  10.605   9.184 -0.8353 -1.3646 -3.0262
  129MOL0     H17764   4.267  10.899   9.042  3.3398 -1.2581  2.4433
  129MOL0     H17765   4.151  10.891   8.821 -0.6149 -1.0173 -1.1191
  129MOL0     H17766   4.238  10.519   8.556 -2.8450 -2.0618 -0.5065
  129MOL0     H17767   4.088  10.586   8.483  0.7156 -2.0377 -1.5797
  129MOL0     H17768   4.223  10.814   8.473 -0.2129  0.0361 -2.0615
  129MOL0     H17769   4.358  10.720   8.523 -0.6206  0.2096  0.1841
  129MOL0     H17770   4.231  10.701   8.247  3.7322  3.2744 -2.5412
  129MOL0     H17771   4.341  10.577   8.323 -1.5484 -0.7596 -0.7536
  129MOL0     H17772   4.414  10.867   8.299 -0.2718  0.4479 -1.6518
  129MOL0     H17773   4.411  10.757   8.166  1.0134  2.2389  0.1242
  129MOL0     H17774   4.588  10.717   8.426 -1.4136 -3.9073  1.0381
  129MOL0     H17775   4.557  10.594   8.300 -0.7110 -0.5314  2.2305
  129MOL0     H17776   4.628  10.766   8.120  0.4522  1.2972 -0.3461
  129MOL0     H17777   4.750  10.680   8.218  0.6189  0.3902  0.2337
  129MOL0     H17778   4.799  10.867   8.343 -1.6717  3.1189  2.0881
  129MOL0     H17779   4.647  10.956   8.307  1.4156  0.0196  1.4610
  129MOL0     H17780   4.806  11.075   8.172 -3.8776 -0.7084  1.9331
  129MOL0     H17781   4.704  10.972   8.073 -1.7293  1.3513  1.1866
  129MOL0     H17782   4.315  10.495   8.764 -1.7500 -0.0189 -0.6081
  129MOL0     H17783   4.456  10.539   8.979 -0.2085  0.1764 -0.0659
  129MOL0     H17784   4.488  10.903   9.386 -0.8352 -2.0289 -0.7647
  129MOL0     H17785   4.617  10.930   9.584 -1.9358  0.5358 -2.0092
  129MOL0     H17786   4.588  10.290  11.334 -0.7398  1.1477 -2.0915
  129MOL0     H17787   4.746  10.157  11.486  0.8004  0.3364  1.5903
  129MOL0     H17788   5.291  10.025  11.365 -2.3172  0.4695 -0.6134
  129MOL0     H17789   5.446   9.862  11.477 -0.9414 -0.7883 -1.1260
  129MOL0     H17790   5.399   9.612  11.850  2.9984  3.5010 -1.7012
  129MOL0     H17791   5.245   9.601  11.772 -0.5913  0.8818 -0.8104
  129MOL0     H17792   5.365   9.481  11.575 -0.3524 -0.0669 -0.1803
  129MOL0     H17793   5.323   9.401  11.729 -0.4858  0.3219 -0.2512
  129MOL0     H17794   5.597   9.512  11.698 -0.2194 -1.2169 -1.6936
  129MOL0     H17795   5.554   9.385  11.815 -0.1495  1.2294  0.5667
  129MOL0     H17796   5.573   9.357  11.521 -0.7738 -3.0385 -0.6473
  129MOL0     H17797   5.480   9.244  11.612 -0.1893  0.1089  0.5807
  129MOL0     H17798   5.830   9.127  11.790  0.6882  0.5705  1.4286
  129MOL0     H17799   5.120   9.734  11.724 -1.8071 -1.9296 -1.7660
  129MOL0     H17800   4.916   9.837  11.722 -0.2953 -0.2057 -1.1057
  129MOL0     H17801   4.934  10.001  11.687 -1.7460  0.5887 -0.4267
  129MOL0     H17802   4.866   9.903  11.553 -0.5966  0.5012 -0.5929
  130MOL0     O17803   4.409   1.776   8.417  0.3907  0.1715 -0.1330
  130MOL0     C17804   4.504   1.855   8.411 -0.3777  0.8558  0.5877
  130MOL0     O17805   4.540   1.936   8.516 -0.1005  0.3601 -0.8821
  130MOL0     C17806   4.461   1.942   8.627  0.6432 -0.1094  1.1984
  130MOL0     C17807   4.476   1.883   8.747  0.6227  0.4526 -0.0997
  130MOL0     C17808   4.390   1.912   8.853  0.4782 -0.4693 -0.4782
  130MOL0     C17809   4.284   2.004   8.844  0.6068 -0.1411  0.8307
  130MOL0     O17810   4.198   2.038   8.941  1.1666 -0.4938  0.3751
  130MOL0     C17811   4.164   1.945   9.048 -0.4325 -0.7070 -0.4806
  130MOL0     C17812   4.014   1.927   9.036 -0.1269  0.8823 -0.2605
  130MOL0     C17813   3.950   1.851   9.157  0.2980  0.0643 -1.0450
  130MOL0     C17814   4.005   1.708   9.186 -0.0163 -1.3132  0.7953
  130MOL0     C17815   3.956   1.669   9.324 -0.2024  0.5138 -0.2752
  130MOL0     C17816   4.006   1.532   9.358  0.7946  0.0350  1.3264
  130MOL0     C17817   3.957   1.497   9.497 -0.1589  0.4511  0.4560
  130MOL0     C17818   3.954   1.345   9.537 -1.8419  0.0483 -0.9237
  130MOL0     N17819   3.906   1.320   9.670  0.4695 -0.1851  0.0197
  130MOL0     C17820   3.882   1.417   9.765  0.8059 -0.2365  0.1192
  130MOL0     C17821   3.800   1.370   9.861 -0.7686  0.5888  0.0579
  130MOL0     C17822   3.733   1.443   9.969  0.3243 -0.1138  0.8820
  130MOL0     C17823   3.648   1.567   9.914  0.2015  0.4670  1.0651
  130MOL0     C17824   3.527   1.587   9.996 -0.6161  1.0397  1.0341
  130MOL0     C17825   3.443   1.719   9.970 -0.3335  0.2866 -0.8653
  130MOL0     O17826   3.372   1.708   9.848 -0.7734  0.8575  0.4579
  130MOL0     C17827   3.426   1.776   9.746 -0.5894 -0.5505  0.5802
  130MOL0     C17828   3.462   1.710   9.637 -0.0538  0.6365  0.0925
  130MOL0     C17829   3.504   1.766   9.516  0.4656 -0.2950 -0.1649
  130MOL0     C17830   3.550   1.665   9.413  0.1499 -0.2988  0.4876
  130MOL0     C17831   3.479   1.899   9.492 -0.0942  0.1884 -0.4757
  130MOL0     C17832   3.498   1.974   9.363 -0.5415  0.4618  1.1050
  130MOL0     O17833   3.415   2.075   9.350  0.6728  0.4277 -0.8466
  130MOL0     C17834   3.445   2.166   9.253  0.4083 -0.1593 -0.5342
  130MOL0     C17835   3.573   2.219   9.224 -0.1566  0.3432 -0.5806
  130MOL0     C17836   3.586   2.311   9.127 -1.2844  0.1581 -0.2477
  130MOL0     C17837   3.477   2.349   9.048  0.1320 -0.3381 -0.4161
  130MOL0     O17838   3.482   2.440   8.940 -0.0636  0.6478  0.3401
  130MOL0     C17839   3.615   2.479   8.905  1.3077 -0.4905  0.1900
  130MOL0     C17840   3.603   2.589   8.795 -0.4514 -0.0321 -1.3330
  130MOL0     C17841   3.516   2.553   8.673 -0.3456  0.3441 -0.3289
  130MOL0     C17842   3.534   2.660   8.562 -0.7445 -0.0427  0.9874
  130MOL0     C17843   3.408   2.679   8.475 -0.2533 -0.5143 -0.3878
  130MOL0     C17844   3.330   2.806   8.507 -0.1847 -0.2145 -0.5867
  130MOL0     C17845   3.231   2.844   8.394 -0.0646 -0.1782 -0.3980
  130MOL0     C17846   3.145   2.953   8.445 -0.1441 -0.4701  0.4478
  130MOL0    Cl17847   3.014   2.998   8.322 -0.3132  0.4513 -0.0961
  130MOL0     C17848   3.357   2.289   9.076 -0.4985 -0.5438  0.6457
  130MOL0     C17849   3.338   2.207   9.186 -0.2714 -0.1338  0.6664
  130MOL0     O17850   3.585   1.935   9.276  0.5655 -0.0251 -0.3238
  130MOL0     C17851   3.437   1.972   9.608  0.3272 -0.3580 -0.9476
  130MOL0     C17852   3.418   1.915   9.741  0.6143  0.1740  0.7174
  130MOL0     N17853   3.767   1.243   9.816 -0.1343 -0.0500  0.1195
  130MOL0     N17854   3.812   1.232   9.697 -0.1628 -0.2846 -0.6208
  130MOL0     C17855   4.271   2.061   8.723  0.2313  0.3184  0.3759
  130MOL0     C17856   4.356   2.029   8.610  0.7535  0.5741 -0.0349
  130MOL0     C17857   4.587   1.852   8.287  0.6341  0.8994  0.9113
  130MOL0     C17858   4.563   1.749   8.181  0.1685 -0.3632 -0.8436
  130MOL0     C17859   4.636   1.737   8.070 -0.0557  0.5524 -0.2699
  130MOL0     C17860   4.738   1.832   8.051  0.1828 -0.0146 -0.1804
  130MOL0     O17861   4.819   1.841   7.938 -0.3158 -0.3758 -1.0103
  130MOL0     C17862   4.764   1.801   7.810 -0.4758 -0.6641 -0.3101
  130MOL0     C17863   4.841   1.859   7.683  0.2259  0.9393  0.1193
  130MOL0     C17864   4.866   2.008   7.700 -0.4681  0.3271 -0.8303
  130MOL0     C17865   4.936   2.066   7.580 -0.0907 -0.1836  1.2303
  130MOL0     C17866   4.969   2.208   7.614 -0.2304  0.5605 -0.5873
  130MOL0     C17867   4.984   2.320   7.659 -0.3866 -0.8242  0.7445
  130MOL0     C17868   4.765   1.928   8.143 -0.1559  0.1971 -0.6762
  130MOL0     C17869   4.695   1.942   8.265 -0.1577 -0.0961  0.3064
  130MOL0     C17870   4.746   2.045   8.370  0.4425 -0.1093  0.0092
  130MOL0     H17871   4.569   1.828   8.761  2.3444  1.6812 -4.6843
  130MOL0     H17872   4.411   1.855   8.943 -2.0639 -2.4599 -1.0409
  130MOL0     H17873   4.179   1.998   9.142 -0.1381  0.6750 -1.2756
  130MOL0     H17874   4.217   1.850   9.056  1.2139  0.2133 -0.1826
  130MOL0     H17875   3.965   2.024   9.033 -1.8048  0.0707 -0.3268
  130MOL0     H17876   3.990   1.866   8.948 -0.3738  1.9944 -0.9816
  130MOL0     H17877   3.961   1.905   9.252  2.8774 -2.7700  0.4493
  130MOL0     H17878   3.841   1.860   9.145  0.1925  3.1792  0.8919
  130MOL0     H17879   3.967   1.649   9.102  0.2256  0.5435 -0.6935
  130MOL0     H17880   4.114   1.705   9.188  0.1783  2.1630  3.1764
  130MOL0     H17881   3.847   1.659   9.328 -0.0733 -0.7770  1.2883
  130MOL0     H17882   3.987   1.741   9.401  0.6872 -2.2859  2.1609
  130MOL0     H17883   3.977   1.465   9.276 -1.0587  0.8515  1.2606
  130MOL0     H17884   4.115   1.531   9.358  0.9030  2.1338 -0.7739
  130MOL0     H17885   3.850   1.517   9.508 -0.7648 -1.9135 -0.4316
  130MOL0     H17886   4.009   1.552   9.576  1.6433  0.7113 -0.8644
  130MOL0     H17887   3.894   1.293   9.462 -1.3239 -0.4632 -0.9924
  130MOL0     H17888   4.059   1.312   9.537 -1.2029  1.9821 -0.9477
  130MOL0     H17889   3.914   1.520   9.768  0.1784  0.0434 -1.6168
  130MOL0     H17890   3.807   1.485  10.038  0.3598  2.0755 -0.4008
  130MOL0     H17891   3.672   1.364  10.013  0.1211 -0.7766 -0.5237
  130MOL0     H17892   3.714   1.653   9.930 -0.0094  0.7139  0.6379
  130MOL0     H17893   3.612   1.553   9.811  3.2696  0.4190 -0.1032
  130MOL0     H17894   3.459   1.501   9.990 -1.2755  1.6555 -1.0041
  130MOL0     H17895   3.556   1.595  10.101  0.8253 -1.0872  0.8614
  130MOL0     H17896   3.375   1.720  10.056  0.1499  1.1591 -0.4836
  130MOL0     H17897   3.507   1.808   9.978 -1.8451  1.4184 -1.0167
  130MOL0     H17898   3.473   1.602   9.641 -3.0131  0.2808  1.6794
  130MOL0     H17899   3.462   1.653   9.350 -0.6473  2.2242  1.0249
  130MOL0     H17900   3.572   1.567   9.456 -2.1902 -1.5830 -1.0131
  130MOL0     H17901   3.633   1.706   9.355 -0.0920 -0.4178  0.0538
  130MOL0     H17902   3.667   2.189   9.270 -0.3620 -1.7366 -1.3956
  130MOL0     H17903   3.688   2.342   9.107 -1.1192  1.2475  1.9369
  130MOL0     H17904   3.681   2.518   8.982  3.0899 -1.8629 -0.5675
  130MOL0     H17905   3.654   2.387   8.861 -3.5269 -3.1326  0.6825
  130MOL0     H17906   3.580   2.692   8.823  0.8265  0.6183 -2.5546
  130MOL0     H17907   3.702   2.596   8.749  1.1001  2.4862  2.0075
  130MOL0     H17908   3.414   2.537   8.710  0.1121 -0.6198  0.5454
  130MOL0     H17909   3.553   2.453   8.648 -1.5895 -0.5658  1.2674
  130MOL0     H17910   3.601   2.609   8.492 -3.1962 -0.7279 -0.9914
  130MOL0     H17911   3.577   2.760   8.578 -1.1654  0.4795 -0.9202
  130MOL0     H17912   3.431   2.691   8.368  0.3457  0.1481 -0.1912
  130MOL0     H17913   3.346   2.589   8.471 -2.0457  0.6810 -0.4027
  130MOL0     H17914   3.396   2.886   8.541  0.9674 -1.4142  0.0801
  130MOL0     H17915   3.277   2.786   8.601  1.0775 -1.3531 -0.0821
  130MOL0     H17916   3.169   2.756   8.374 -0.5321 -0.3805  1.7154
  130MOL0     H17917   3.283   2.865   8.300 -0.4200 -1.1629 -0.8255
  130MOL0     H17918   3.201   3.042   8.477  0.4925 -1.0821  1.0863
  130MOL0     H17919   3.099   2.923   8.540  0.0438 -1.0286  0.3620
  130MOL0     H17920   3.273   2.323   9.016  0.6472 -0.1810 -0.8035
  130MOL0     H17921   3.247   2.152   9.210 -0.4081 -0.5003 -0.6500
  130MOL0     H17922   3.413   2.078   9.611 -5.6140 -1.2491  4.1733
  130MOL0     H17923   3.379   1.976   9.822 -1.3388 -0.1149  0.0479
  130MOL0     H17924   4.196   2.135   8.699 -2.8373 -2.1400  1.6545
  130MOL0     H17925   4.332   2.067   8.512 -1.8660  1.1584  0.7434
  130MOL0     H17926   4.483   1.679   8.203  0.8310 -0.7894  0.2578
  130MOL0     H17927   4.607   1.652   8.010 -0.6549  1.0837 -0.7304
  130MOL0     H17928   4.768   1.692   7.807  1.2232 -0.6589  0.3697
  130MOL0     H17929   4.657   1.821   7.801 -0.5667 -1.4003 -1.0276
  130MOL0     H17930   4.786   1.854   7.588  0.8857 -0.0901 -0.2219
  130MOL0     H17931   4.928   1.798   7.659  0.6546  0.4255  2.7147
  130MOL0     H17932   4.766   2.049   7.716  0.8866  3.7720 -0.2929
  130MOL0     H17933   4.918   2.012   7.797 -1.2666 -3.6282 -0.0621
  130MOL0     H17934   4.871   2.070   7.492 -2.2797 -0.3624  2.7462
  130MOL0     H17935   5.028   2.012   7.558 -0.1719 -0.9751  2.7432
  130MOL0     H17936   5.008   2.421   7.683  2.1694 -1.1523 -0.0796
  130MOL0     H17937   4.848   1.995   8.122  0.1878  0.2901  0.8480
  130MOL0     H17938   4.824   2.107   8.325 -0.6233 -0.1161 -1.9504
  130MOL0     H17939   4.661   2.113   8.386  1.9403  1.5627  1.2512
  130MOL0     H17940   4.790   1.990   8.453  2.2317  0.5091 -0.4813
  131MOL0     O17941  11.432   4.590  11.039 -0.1583  0.5545 -0.3385
  131MOL0     C17942  11.518   4.514  11.094  0.2694  0.3846 -0.3049
  131MOL0     O17943  11.639   4.481  11.040  0.3489 -0.4948 -0.6611
  131MOL0     C17944  11.696   4.574  10.964  0.9741 -0.5740 -0.1265
  131MOL0     C17945  11.662   4.595  10.830 -1.3399 -0.2427 -0.1766
  131MOL0     C17946  11.704   4.705  10.766 -0.0274  0.0261  0.0145
  131MOL0     C17947  11.778   4.802  10.833 -0.2035 -0.8722  0.5080
  131MOL0     O17948  11.793   4.926  10.786 -0.3051  0.3286 -0.2906
  131MOL0     C17949  11.909   4.954  10.714 -0.1203 -0.7195  0.3365
  131MOL0     C17950  11.939   5.107  10.699  0.7236  0.4323 -0.0486
  131MOL0     C17951  11.915   5.190  10.825 -0.5728 -0.6261 -0.3855
  131MOL0     C17952  12.015   5.314  10.822 -0.2370 -0.1761 -0.3899
  131MOL0     C17953  11.991   5.423  10.926 -0.1255 -0.2399 -1.0889
  131MOL0     C17954  11.860   5.502  10.905 -0.1953 -0.0698  0.7166
  131MOL0     C17955  11.874   5.635  10.973  0.0433 -0.0124  0.6298
  131MOL0     C17956  11.881   5.632  11.128 -0.2174  0.1655  0.9571
  131MOL0     N17957  11.856   5.771  11.183  0.0588  0.4749 -0.1915
  131MOL0     C17958  11.733   5.828  11.195 -1.2259  1.5160  0.0529
  131MOL0     C17959  11.746   5.946  11.255 -0.2254  0.2600 -0.0706
  131MOL0     C17960  11.634   6.040  11.291  0.9360  0.3684 -0.5548
  131MOL0     C17961  11.600   6.154  11.198  1.0158 -0.4777 -0.0783
  131MOL0     C17962  11.565   6.107  11.055 -0.3352  0.4255  0.4261
  131MOL0     C17963  11.442   6.011  11.039 -0.8231  0.2861 -0.6978
  131MOL0     O17964  11.318   6.074  11.051  0.2768  0.3527 -0.0948
  131MOL0     C17965  11.190   6.016  11.039  0.4391 -0.7444  1.4624
  131MOL0     C17966  11.085   6.093  11.068  0.8288 -0.4784  0.6298
  131MOL0     C17967  10.952   6.045  11.063 -0.3408  0.6273 -0.4013
  131MOL0     C17968  10.848   6.143  11.089  0.6695 -0.3450 -0.5286
  131MOL0     C17969  10.933   5.911  11.022 -0.1187  0.1605 -0.0963
  131MOL0     C17970  10.801   5.846  11.005 -0.7659 -0.5240  0.2169
  131MOL0     O17971  10.808   5.724  10.938 -0.1248  0.4294  0.4220
  131MOL0     C17972  10.702   5.637  10.941 -0.3000 -0.2325  0.3412
  131MOL0     C17973  10.701   5.533  10.843 -0.0114  0.2339  0.1284
  131MOL0     C17974  10.605   5.434  10.843  1.4285 -0.3547 -1.3125
  131MOL0     C17975  10.514   5.439  10.946 -0.3168  0.9641  0.7449
  131MOL0     O17976  10.429   5.334  10.947  0.5556 -0.0216  0.0416
  131MOL0     C17977  10.307   5.333  11.026  0.3146  1.1716 -0.8734
  131MOL0     C17978  10.337   5.248  11.159 -0.1579 -0.2635 -0.1272
  131MOL0     C17979  10.201   5.221  11.222  0.5802  0.0046 -0.6808
  131MOL0     C17980  10.118   5.106  11.168  0.1334 -0.8661  0.0229
  131MOL0     C17981   9.967   5.130  11.163  0.3968  0.0844  0.1000
  131MOL0     C17982   9.924   5.262  11.092 -0.1847  1.0928  0.1716
  131MOL0     C17983   9.777   5.273  11.067  0.2005 -0.0745 -0.4123
  131MOL0     C17984   9.722   5.378  10.966 -1.2692 -0.3593  0.0870
  131MOL0    Cl17985   9.734   5.548  11.029  0.0794 -0.9130 -0.5068
  131MOL0     C17986  10.507   5.546  11.035 -0.6947 -0.4473 -0.5334
  131MOL0     C17987  10.612   5.637  11.042 -0.7356  0.3346 -0.0686
  131MOL0     O17988  10.693   5.905  11.024 -0.4753  0.6387  0.6144
  131MOL0     C17989  11.047   5.843  10.972  0.5193 -1.7364  0.0664
  131MOL0     C17990  11.174   5.894  10.986  0.1044  0.0911  0.4652
  131MOL0     N17991  11.878   5.971  11.272 -0.0862 -0.1462 -0.4610
  131MOL0     N17992  11.941   5.860  11.235 -0.0683 -1.0563  0.4956
  131MOL0     C17993  11.822   4.780  10.962 -0.0123  0.0871 -0.5278
  131MOL0     C17994  11.776   4.667  11.026 -0.9395 -0.0692 -0.1084
  131MOL0     C17995  11.454   4.427  11.195  0.4946 -0.4994  0.5594
  131MOL0     C17996  11.350   4.492  11.271 -0.3332 -0.0092  0.5111
  131MOL0     C17997  11.292   4.411  11.371 -0.2521  0.2120  0.0170
  131MOL0     C17998  11.329   4.281  11.402  0.2487  0.6735  0.2642
  131MOL0     O17999  11.264   4.215  11.502  0.7867  0.5347  0.1778
  131MOL0     C18000  11.321   4.115  11.591  0.7405  0.0869 -0.1594
  131MOL0     C18001  11.204   4.053  11.678  0.3119  0.0651  0.0994
  131MOL0     C18002  11.247   3.936  11.769 -0.4595 -0.1701  0.4146
  131MOL0     C18003  11.385   3.937  11.849  0.3206 -0.6134  0.1395
  131MOL0     C18004  11.397   4.069  11.916  0.2533  0.2730 -0.0268
  131MOL0     C18005  11.393   4.160  11.995  0.3143 -0.0369 -0.2273
  131MOL0     C18006  11.424   4.215  11.320  0.1494  0.3379  0.2192
  131MOL0     C18007  11.490   4.289  11.215 -0.0803  0.0846 -0.1440
  131MOL0     C18008  11.607   4.218  11.153  0.9110 -0.1586  0.6520
  131MOL0     H18009  11.593   4.522  10.791  0.5621 -4.2414  3.1512
  131MOL0     H18010  11.665   4.720  10.666 -1.3500  1.4896  0.7202
  131MOL0     H18011  11.914   4.906  10.615  2.8864 -2.0339  0.9928
  131MOL0     H18012  11.992   4.905  10.765 -3.4407 -4.2231  2.8931
  131MOL0     H18013  12.039   5.114  10.656  0.6831  1.3807 -0.0026
  131MOL0     H18014  11.861   5.139  10.628  2.3559  0.7196 -1.7974
  131MOL0     H18015  11.813   5.228  10.838 -0.0248  0.9881 -0.6212
  131MOL0     H18016  11.944   5.127  10.910  1.3361  2.7922  1.7637
  131MOL0     H18017  12.118   5.279  10.833  0.1323  1.0163  0.0702
  131MOL0     H18018  11.997   5.370  10.730 -3.2309  4.2193  2.5058
  131MOL0     H18019  12.070   5.497  10.908  2.3236 -2.4169  0.0683
  131MOL0     H18020  12.000   5.379  11.025 -3.1756  3.3640  1.0848
  131MOL0     H18021  11.839   5.524  10.800 -2.1765  0.2711  1.1464
  131MOL0     H18022  11.772   5.452  10.946 -2.1580  0.5420 -2.4748
  131MOL0     H18023  11.800   5.708  10.939  1.4510  0.1840 -2.3571
  131MOL0     H18024  11.962   5.691  10.942  0.6174  0.7114  3.2838
  131MOL0     H18025  11.804   5.564  11.165  0.0168  0.5910  2.2913
  131MOL0     H18026  11.975   5.591  11.163  1.5754  0.9752 -2.4767
  131MOL0     H18027  11.640   5.784  11.158 -1.1165  2.0306 -0.8637
  131MOL0     H18028  11.660   6.080  11.390 -2.2381  1.4184 -0.0264
  131MOL0     H18029  11.540   5.985  11.298  0.7010  0.6506 -1.3122
  131MOL0     H18030  11.509   6.191  11.246  1.7186  1.8075 -0.4093
  131MOL0     H18031  11.678   6.230  11.204 -0.6195  1.2444  0.5709
  131MOL0     H18032  11.548   6.198  10.996 -2.7695 -1.0228 -1.2667
  131MOL0     H18033  11.655   6.061  11.012  1.0486  2.5005  0.9321
  131MOL0     H18034  11.454   5.977  10.936 -2.5783 -1.0282 -0.5067
  131MOL0     H18035  11.450   5.926  11.107 -1.8281  0.4011 -0.4237
  131MOL0     H18036  11.115   6.193  11.096 -0.7377 -0.1370  1.1848
  131MOL0     H18037  10.763   6.091  11.135  0.5101 -1.1254 -1.6677
  131MOL0     H18038  10.813   6.178  10.991  2.7843 -1.8937 -1.9163
  131MOL0     H18039  10.883   6.215  11.164  0.2334 -0.1183 -0.5383
  131MOL0     H18040  10.762   5.524  10.753 -1.0733  2.9284 -0.9385
  131MOL0     H18041  10.610   5.357  10.768 -0.9745 -2.8240  0.8511
  131MOL0     H18042  10.267   5.425  11.070 -1.5510 -1.6240  4.2528
  131MOL0     H18043  10.230   5.281  10.968  0.1261 -0.4900  0.7496
  131MOL0     H18044  10.380   5.154  11.122 -1.6199 -3.5263  5.2165
  131MOL0     H18045  10.411   5.296  11.224 -0.7887 -1.2619  1.3855
  131MOL0     H18046  10.139   5.311  11.212 -2.6580 -1.8740  1.0016
  131MOL0     H18047  10.219   5.207  11.329  1.4932  2.4473 -0.4605
  131MOL0     H18048  10.124   5.018  11.232 -2.9624  0.4172  2.2771
  131MOL0     H18049  10.150   5.095  11.063 -1.0224 -0.6945 -0.3595
  131MOL0     H18050   9.916   5.050  11.110  1.7920 -0.8349  0.0947
  131MOL0     H18051   9.946   5.126  11.271  2.7910  1.0479  0.6822
  131MOL0     H18052   9.971   5.271  10.993 -1.9743 -1.1815 -1.0011
  131MOL0     H18053   9.950   5.344  11.159  0.7932 -1.3561  3.0097
  131MOL0     H18054   9.731   5.290  11.165 -0.5223 -0.2492 -0.7099
  131MOL0     H18055   9.744   5.173  11.037 -2.6141  0.4463  0.6317
  131MOL0     H18056   9.622   5.358  10.927 -1.4766 -1.6367  1.1951
  131MOL0     H18057   9.791   5.372  10.880  0.1034  1.3603  1.0146
  131MOL0     H18058  10.441   5.535  11.120 -0.4212  6.4692  1.1753
  131MOL0     H18059  10.620   5.698  11.131  1.0276 -2.3198  1.7391
  131MOL0     H18060  11.027   5.743  10.936 -1.5689 -1.3543 -0.0060
  131MOL0     H18061  11.262   5.845  10.945  1.9843  2.0927  1.8647
  131MOL0     H18062  11.892   4.841  11.018  4.1218 -1.7932 -3.1901
  131MOL0     H18063  11.784   4.650  11.133 -1.0167 -1.6970 -0.3405
  131MOL0     H18064  11.314   4.592  11.254 -0.9925 -0.1222  1.1812
  131MOL0     H18065  11.216   4.460  11.432 -1.4897  1.8276 -2.6149
  131MOL0     H18066  11.367   4.032  11.534 -0.3204  1.3557 -3.0789
  131MOL0     H18067  11.393   4.164  11.656  1.3139 -0.8991 -0.0294
  131MOL0     H18068  11.120   4.020  11.616 -0.0242  2.6075 -0.8903
  131MOL0     H18069  11.174   4.138  11.738  1.4226  3.1112 -3.2864
  131MOL0     H18070  11.171   3.915  11.845  1.4823 -2.5327  1.8254
  131MOL0     H18071  11.242   3.853  11.697 -3.0887  1.4671 -1.5053
  131MOL0     H18072  11.468   3.923  11.779 -0.9594 -3.0405 -1.0190
  131MOL0     H18073  11.377   3.864  11.930 -2.4806 -0.8322 -0.2412
  131MOL0     H18074  11.401   4.243  12.062 -0.8812  2.5244 -3.0312
  131MOL0     H18075  11.466   4.120  11.350  1.0654  1.2326  1.9429
  131MOL0     H18076  11.590   4.110  11.158  0.2632 -0.1329 -0.6068
  131MOL0     H18077  11.597   4.241  11.046 -3.1232 -0.8875  0.7199
  131MOL0     H18078  11.697   4.248  11.207  1.3447 -1.1488  0.4973
  132MOL0     O18079   9.903   1.766   5.606  1.3696  0.8557  0.0288
  132MOL0     C18080   9.790   1.819   5.619  0.5879 -0.4611 -0.6763
  132MOL0     O18081   9.687   1.833   5.522 -1.0354 -1.2489  0.3227
  132MOL0     C18082   9.707   1.767   5.407  0.8770  0.1448 -0.2862
  132MOL0     C18083   9.695   1.628   5.389 -0.2040  1.5338  0.3102
  132MOL0     C18084   9.713   1.572   5.260 -0.1316 -0.3683  0.8799
  132MOL0     C18085   9.707   1.645   5.146 -0.0918 -0.2844 -1.1324
  132MOL0     O18086   9.722   1.590   5.026  0.4220  0.1821  0.5015
  132MOL0     C18087   9.853   1.582   4.970 -0.0990  0.3482 -0.0935
  132MOL0     C18088   9.848   1.546   4.828 -0.4016 -0.3852  0.4463
  132MOL0     C18089   9.767   1.421   4.790 -1.7729  0.2426 -0.5057
  132MOL0     C18090   9.762   1.408   4.633 -0.7904  0.6566  0.9059
  132MOL0     C18091   9.687   1.280   4.589 -0.5443 -0.0781  0.7218
  132MOL0     C18092   9.687   1.255   4.435 -0.2146 -0.3636  0.9741
  132MOL0     C18093   9.808   1.276   4.347  0.0369 -0.0453 -0.1273
  132MOL0     C18094   9.793   1.247   4.196 -0.3786 -0.3167 -0.2515
  132MOL0     N18095   9.667   1.317   4.150  0.3937 -0.7578 -0.3748
  132MOL0     C18096   9.544   1.257   4.135 -0.4854  0.1165 -0.2280
  132MOL0     C18097   9.463   1.346   4.061 -0.6000  0.1617  0.1725
  132MOL0     C18098   9.319   1.338   4.031  0.3384 -0.4501 -0.3867
  132MOL0     C18099   9.257   1.201   4.012  0.2059  0.4245  0.9039
  132MOL0     C18100   9.099   1.204   4.001  1.0990  0.0346 -1.3576
  132MOL0     C18101   9.055   1.059   3.967  0.3312  0.5133 -0.1123
  132MOL0     O18102   8.916   1.043   4.007 -0.3094  0.1501  0.1587
  132MOL0     C18103   8.817   1.123   3.938  0.2291  0.1115 -0.8412
  132MOL0     C18104   8.788   1.110   3.803  0.4104 -0.6117 -0.3522
  132MOL0     C18105   8.718   1.208   3.734  0.1523 -0.6513  0.6020
  132MOL0     C18106   8.697   1.176   3.588 -0.7340  0.6115 -0.5457
  132MOL0     C18107   8.678   1.328   3.805  0.0688 -0.5918 -0.2796
  132MOL0     C18108   8.596   1.438   3.745  1.1808 -0.3834  0.1868
  132MOL0     O18109   8.555   1.534   3.834 -0.0254 -0.0670  0.1240
  132MOL0     C18110   8.490   1.647   3.793 -0.0907 -0.7258  0.5698
  132MOL0     C18111   8.350   1.663   3.793 -0.1627  0.5460 -0.1385
  132MOL0     C18112   8.304   1.786   3.755  0.3034 -0.0430 -0.6648
  132MOL0     C18113   8.381   1.890   3.714  0.1527 -0.7099  0.6671
  132MOL0     O18114   8.339   2.015   3.696  0.6244 -0.3417  0.6848
  132MOL0     C18115   8.226   2.030   3.606  0.0064  0.0861 -0.8241
  132MOL0     C18116   8.180   2.176   3.591 -0.9501  0.5718 -0.3140
  132MOL0     C18117   8.062   2.183   3.509 -0.0337 -0.5533 -1.3090
  132MOL0     C18118   8.019   2.328   3.490  0.0894  0.1405  0.0087
  132MOL0     C18119   7.899   2.344   3.389  1.2564 -0.6872  0.3733
  132MOL0     C18120   7.831   2.483   3.377 -0.4850 -0.6071 -0.0253
  132MOL0     C18121   7.915   2.581   3.294 -1.1320  0.3361  0.2444
  132MOL0     C18122   7.817   2.662   3.205  0.2368  0.1265  0.8913
  132MOL0    Cl18123   7.770   2.529   3.081 -0.2062 -0.2135  0.2900
  132MOL0     C18124   8.516   1.869   3.692 -0.0365 -0.2932 -0.2622
  132MOL0     C18125   8.569   1.754   3.734 -0.8067  0.4944  0.5708
  132MOL0     O18126   8.573   1.442   3.628  0.2861  0.4496  0.3357
  132MOL0     C18127   8.706   1.338   3.946  0.4010  0.9647 -0.3579
  132MOL0     C18128   8.776   1.230   4.004  0.4322 -0.5329 -0.8132
  132MOL0     N18129   9.542   1.450   4.024 -0.0382  1.0555 -0.8905
  132MOL0     N18130   9.661   1.434   4.082  0.0054  0.2830  0.2841
  132MOL0     C18131   9.714   1.787   5.163 -0.4517  0.1172 -0.5003
  132MOL0     C18132   9.714   1.846   5.292  0.5954 -0.6263  0.5771
  132MOL0     C18133   9.760   1.873   5.760 -0.3340 -0.1161 -0.2344
  132MOL0     C18134   9.640   1.937   5.777 -1.2489 -0.4351  0.6196
  132MOL0     C18135   9.621   1.992   5.900 -0.7800 -0.2105 -0.0190
  132MOL0     C18136   9.697   1.957   6.019 -0.3376  0.2416 -0.5566
  132MOL0     O18137   9.644   1.985   6.150  0.1046 -0.4501  0.3131
  132MOL0     C18138   9.699   1.925   6.262 -0.4767 -0.0190 -0.9842
  132MOL0     C18139   9.620   1.971   6.384  0.2249  0.2407 -0.4047
  132MOL0     C18140   9.667   1.911   6.513  0.3080  0.3514  0.0768
  132MOL0     C18141   9.799   1.956   6.560 -0.1325 -0.2452  1.1720
  132MOL0     C18142   9.853   1.863   6.653  0.1464  0.1739  0.1966
  132MOL0     C18143   9.905   1.797   6.740 -0.9404 -0.6421 -0.8529
  132MOL0     C18144   9.814   1.884   6.006 -0.5859 -0.4723 -0.0789
  132MOL0     C18145   9.854   1.845   5.876 -0.6347 -0.4824  0.3251
  132MOL0     C18146   9.994   1.783   5.869  0.2302 -0.7709 -0.1919
  132MOL0     H18147   9.659   1.564   5.469  1.1083  1.7987  1.1450
  132MOL0     H18148   9.701   1.465   5.244  3.9055 -0.5076 -3.5310
  132MOL0     H18149   9.911   1.508   5.025  1.2659 -1.8760 -4.1123
  132MOL0     H18150   9.902   1.679   4.982 -1.8730  1.7544 -3.0178
  132MOL0     H18151   9.794   1.633   4.787 -1.0634 -0.6159  0.8163
  132MOL0     H18152   9.950   1.533   4.791 -0.1930 -0.3656  1.0054
  132MOL0     H18153   9.817   1.339   4.843 -0.6020  2.1813  1.5790
  132MOL0     H18154   9.670   1.437   4.839  0.1207  3.1014  2.7708
  132MOL0     H18155   9.727   1.506   4.598 -2.4166  0.2760  1.3950
  132MOL0     H18156   9.859   1.412   4.582 -2.0439  2.2708 -1.5558
  132MOL0     H18157   9.581   1.291   4.615 -1.3104 -2.4019 -1.0341
  132MOL0     H18158   9.722   1.193   4.645 -1.6378  0.9872  3.1884
  132MOL0     H18159   9.662   1.149   4.419  0.1106 -0.4697  1.1484
  132MOL0     H18160   9.607   1.319   4.396  3.2941  3.3033 -0.8841
  132MOL0     H18161   9.889   1.210   4.382 -0.8320 -1.0684  0.0075
  132MOL0     H18162   9.845   1.379   4.354 -0.9296  0.2923  0.0825
  132MOL0     H18163   9.875   1.290   4.139  0.1118 -1.9340 -0.8108
  132MOL0     H18164   9.786   1.138   4.190  1.3589 -0.4469 -0.4169
  132MOL0     H18165   9.501   1.163   4.169 -3.3406  0.5456 -2.3428
  132MOL0     H18166   9.298   1.402   3.944  1.0107 -1.7266 -1.5340
  132MOL0     H18167   9.270   1.390   4.113 -0.5875  0.0362 -1.2368
  132MOL0     H18168   9.306   1.155   3.926 -0.9743  1.4634 -0.3643
  132MOL0     H18169   9.285   1.143   4.101  0.8273  0.6347  0.8473
  132MOL0     H18170   9.046   1.244   4.088 -0.8640  1.2229 -2.9859
  132MOL0     H18171   9.068   1.279   3.927  0.5076  0.1955 -0.9510
  132MOL0     H18172   9.065   1.030   3.862 -0.0836 -0.4265  0.1043
  132MOL0     H18173   9.115   0.990   4.026 -1.4337  1.3035  2.8199
  132MOL0     H18174   8.835   1.026   3.753  1.0443 -0.8730  0.6552
  132MOL0     H18175   8.741   1.248   3.518  2.1093 -1.5525 -1.1335
  132MOL0     H18176   8.590   1.157   3.575 -1.1682 -0.0778  3.1399
  132MOL0     H18177   8.755   1.087   3.562  1.3453  1.6335  0.3696
  132MOL0     H18178   8.286   1.584   3.830  1.3679 -0.9181 -0.5302
  132MOL0     H18179   8.202   1.798   3.791  0.9470  2.3359  0.5992
  132MOL0     H18180   8.244   1.983   3.509 -1.3952 -1.5133 -0.3751
  132MOL0     H18181   8.136   1.981   3.645 -0.2013 -0.9180 -2.4624
  132MOL0     H18182   8.171   2.222   3.689  0.5281 -1.9439  1.0987
  132MOL0     H18183   8.263   2.221   3.536 -0.0296 -1.9465 -1.1608
  132MOL0     H18184   7.985   2.128   3.565  1.2792  0.4026  1.6259
  132MOL0     H18185   8.074   2.137   3.410  1.0159  0.8569 -1.8669
  132MOL0     H18186   8.105   2.379   3.445  1.1031  0.7152  2.4503
  132MOL0     H18187   8.000   2.379   3.585 -1.3650 -0.3455  0.0058
  132MOL0     H18188   7.935   2.319   3.289 -0.2291  2.2011 -1.0122
  132MOL0     H18189   7.824   2.271   3.419 -0.1776  0.4143 -0.4105
  132MOL0     H18190   7.812   2.528   3.475 -1.3654 -1.1380  0.0644
  132MOL0     H18191   7.738   2.473   3.320 -0.5343  0.0244 -0.0621
  132MOL0     H18192   7.996   2.523   3.249  0.3419  0.2115  2.8640
  132MOL0     H18193   7.968   2.652   3.358 -0.0544  0.2232 -0.5033
  132MOL0     H18194   7.870   2.747   3.161  0.2252 -0.7198 -0.8517
  132MOL0     H18195   7.736   2.703   3.267  1.0591  0.5424  1.7050
  132MOL0     H18196   8.580   1.954   3.671 -2.2011  1.7568  1.0694
  132MOL0     H18197   8.677   1.760   3.735 -0.7072 -0.0414 -1.5937
  132MOL0     H18198   8.684   1.431   3.997  0.5172  0.6873  0.2107
  132MOL0     H18199   8.793   1.249   4.109 -3.7511  1.0664 -0.2291
  132MOL0     H18200   9.729   1.846   5.074 -3.8306  2.9792  0.6222
  132MOL0     H18201   9.745   1.950   5.297 -1.1064 -0.1324  1.9049
  132MOL0     H18202   9.567   1.942   5.696 -2.4389  0.3560  1.7001
  132MOL0     H18203   9.527   2.047   5.903 -2.1852 -2.5679  2.3244
  132MOL0     H18204   9.695   1.816   6.256  1.4540 -0.4058  2.3144
  132MOL0     H18205   9.803   1.956   6.272 -0.5510 -0.2346  0.7696
  132MOL0     H18206   9.513   1.957   6.368  0.6402  0.2249 -4.2583
  132MOL0     H18207   9.626   2.080   6.397 -0.9360 -0.0680  5.0437
  132MOL0     H18208   9.592   1.927   6.592  1.8438 -0.0938  1.6790
  132MOL0     H18209   9.664   1.804   6.491 -1.9447  0.3638  0.0182
  132MOL0     H18210   9.792   2.056   6.604  2.5540  1.0548 -1.0545
  132MOL0     H18211   9.867   1.977   6.478 -0.3082  1.8638  1.4836
  132MOL0     H18212   9.958   1.757   6.824 -0.0618 -0.7863 -1.4679
  132MOL0     H18213   9.880   1.880   6.092  0.8000  0.0784 -1.0735
  132MOL0     H18214  10.054   1.797   5.959  2.9246 -2.5243 -1.5809
  132MOL0     H18215   9.985   1.676   5.852  0.7001 -0.5568 -2.0289
  132MOL0     H18216  10.059   1.833   5.797 -1.5564 -0.0806 -1.4138
  133MOL0     O18217   0.618   3.740   6.807  0.1661 -0.2372  0.2807
  133MOL0     C18218   0.555   3.650   6.743 -0.9457 -0.4373 -0.8662
  133MOL0     O18219   0.478   3.669   6.630 -0.0095 -0.2214  0.0830
  133MOL0     C18220   0.480   3.787   6.562  0.3665 -0.4789  1.3109
  133MOL0     C18221   0.595   3.865   6.541  0.4878 -0.1575 -0.6863
  133MOL0     C18222   0.585   3.984   6.478  0.5808 -0.8603  0.1311
  133MOL0     C18223   0.460   4.031   6.428 -1.1550  0.4315 -0.2978
  133MOL0     O18224   0.450   4.150   6.364  0.3863 -0.3174 -0.2611
  133MOL0     C18225   0.321   4.222   6.355 -0.4139  0.0638 -0.5184
  133MOL0     C18226   0.335   4.365   6.334  0.3288 -0.2070  0.0028
  133MOL0     C18227   0.201   4.437   6.365 -0.2439  0.2753  0.0049
  133MOL0     C18228   0.233   4.592   6.333  0.3723 -0.0540  0.6361
  133MOL0     C18229   0.174   4.631   6.195  0.1233 -0.7952 -0.3859
  133MOL0     C18230   0.224   4.759   6.135 -0.6026 -0.0339  0.9395
  133MOL0     C18231   0.172   4.799   5.997 -0.5902 -0.7034  0.9268
  133MOL0     C18232   0.239   4.916   5.927  0.3056  0.0497 -0.4578
  133MOL0     N18233   0.180   5.050   5.953  0.4980  0.8963 -0.3683
  133MOL0     C18234   0.085   5.094   5.875 -0.2460 -0.6266 -0.0664
  133MOL0     C18235   0.081   5.231   5.888 -0.2715 -0.4653  0.1733
  133MOL0     C18236  -0.003   5.336   5.821 -0.3810  0.5683 -0.2354
  133MOL0     C18237   0.074   5.449   5.753  0.3602 -1.0261 -0.4929
  133MOL0     C18238   0.146   5.429   5.617 -0.0680  0.2883  0.3192
  133MOL0     C18239   0.273   5.343   5.631 -0.1228 -0.0364  0.4154
  133MOL0     O18240   0.243   5.203   5.614 -0.1378 -0.5875  0.2790
  133MOL0     C18241   0.350   5.117   5.629  0.2927  0.8218  0.1022
  133MOL0     C18242   0.465   5.147   5.693  0.1027  0.3331  0.5577
  133MOL0     C18243   0.563   5.051   5.723 -0.1883 -0.3413 -0.3922
  133MOL0     C18244   0.687   5.107   5.799  1.5165 -0.1141 -0.2831
  133MOL0     C18245   0.531   4.912   5.699 -0.1750  0.4707  0.0042
  133MOL0     C18246   0.608   4.798   5.742 -0.2449  0.5453 -1.1467
  133MOL0     O18247   0.669   4.795   5.867 -0.6767 -0.0393 -0.0003
  133MOL0     C18248   0.712   4.679   5.910  0.4390 -0.5865 -0.3419
  133MOL0     C18249   0.631   4.568   5.907  0.0175  0.4699 -0.1525
  133MOL0     C18250   0.665   4.450   5.979 -0.5187 -0.3192  0.5573
  133MOL0     C18251   0.782   4.435   6.049  0.0128 -0.3715 -0.8500
  133MOL0     O18252   0.818   4.310   6.100  0.7129 -0.9932  0.2514
  133MOL0     C18253   0.901   4.306   6.218  0.1729  0.2669  0.0166
  133MOL0     C18254   0.901   4.162   6.283  0.4197 -0.0158  0.1138
  133MOL0     C18255   0.989   4.141   6.396  0.2008  0.6100 -0.3500
  133MOL0     C18256   1.018   3.995   6.427  0.6896  0.4905 -0.0954
  133MOL0     C18257   1.092   3.969   6.552 -0.7386 -0.0487 -0.3035
  133MOL0     C18258   1.028   3.871   6.643 -0.4287  0.5693 -0.1460
  133MOL0     C18259   0.999   3.726   6.590 -0.7696 -0.1107  0.7218
  133MOL0     C18260   0.926   3.637   6.688 -0.1602 -0.2971  0.6567
  133MOL0    Cl18261   0.949   3.465   6.642  0.2574 -0.1346 -0.6470
  133MOL0     C18262   0.862   4.555   6.062  0.6980 -0.2421  1.2040
  133MOL0     C18263   0.828   4.676   5.990  0.5752 -0.4041  0.3257
  133MOL0     O18264   0.634   4.718   5.649 -0.6661  0.4575  0.1514
  133MOL0     C18265   0.418   4.877   5.636  1.4503 -0.0115  0.4347
  133MOL0     C18266   0.333   4.980   5.601  0.4518 -0.1692 -0.0857
  133MOL0     N18267   0.190   5.268   5.959 -0.5916 -0.4349 -0.1299
  133MOL0     N18268   0.237   5.160   6.015  0.7114  0.1786  0.0712
  133MOL0     C18269   0.349   3.946   6.452  0.3370  0.7001  0.0788
  133MOL0     C18270   0.360   3.824   6.511 -0.1205  0.0604  0.0702
  133MOL0     C18271   0.587   3.519   6.804  0.4966  0.9859  0.7302
  133MOL0     C18272   0.657   3.429   6.716  0.6579 -0.6256 -0.4651
  133MOL0     C18273   0.663   3.298   6.762 -0.9188 -0.4881  0.0428
  133MOL0     C18274   0.627   3.253   6.890 -0.0202  0.5054  0.0379
  133MOL0     O18275   0.612   3.121   6.922 -0.6195 -0.5133  0.2594
  133MOL0     C18276   0.719   3.078   7.009  0.0165 -0.8173 -0.6931
  133MOL0     C18277   0.825   3.019   6.916  0.5511  0.7409  0.5008
  133MOL0     C18278   0.774   2.890   6.841  0.3209  0.4122 -0.4581
  133MOL0     C18279   0.744   2.906   6.688 -0.4228  0.1099 -0.1873
  133MOL0     C18280   0.855   2.958   6.615 -0.4822  0.1452 -0.4615
  133MOL0     C18281   0.940   3.000   6.537  0.4806 -0.3283 -0.2311
  133MOL0     C18282   0.561   3.343   6.968 -0.3865 -0.2010 -0.6238
  133MOL0     C18283   0.534   3.472   6.927 -0.0417 -0.0693 -0.1554
  133MOL0     C18284   0.445   3.556   7.021 -0.9993  0.8036  0.3610
  133MOL0     H18285   0.693   3.837   6.579  0.6075  0.5281 -0.4659
  133MOL0     H18286   0.672   4.048   6.472  0.0441 -0.1824 -0.7612
  133MOL0     H18287   0.274   4.198   6.450  0.4943 -1.5350 -0.4310
  133MOL0     H18288   0.257   4.190   6.272  0.4613 -0.7273 -0.9170
  133MOL0     H18289   0.424   4.409   6.382 -0.0838  0.4635  0.1779
  133MOL0     H18290   0.346   4.381   6.227  0.7979 -0.9156 -0.0586
  133MOL0     H18291   0.124   4.390   6.303 -2.2108  0.8629  1.8820
  133MOL0     H18292   0.189   4.426   6.473  2.9751 -0.2537  0.4241
  133MOL0     H18293   0.194   4.658   6.411 -2.7332 -2.2726  1.1497
  133MOL0     H18294   0.340   4.611   6.331  0.3609  0.5877 -3.3049
  133MOL0     H18295   0.066   4.626   6.208  0.2167 -3.3368 -0.0168
  133MOL0     H18296   0.187   4.562   6.112  0.0039 -1.6460  0.2910
  133MOL0     H18297   0.217   4.854   6.191  0.5151  1.2414 -0.9802
  133MOL0     H18298   0.331   4.747   6.120 -0.2550  1.7661  1.6812
  133MOL0     H18299   0.069   4.831   6.014  0.1410  0.5228  3.4984
  133MOL0     H18300   0.180   4.707   5.938 -2.2246  0.2973 -0.9821
  133MOL0     H18301   0.348   4.922   5.941  0.3553 -1.8039  0.1555
  133MOL0     H18302   0.222   4.895   5.821  1.2519  1.6694 -0.9661
  133MOL0     H18303   0.022   5.033   5.811 -0.6346 -4.1557  3.3275
  133MOL0     H18304  -0.074   5.381   5.891  0.9929  1.3744  0.6890
  133MOL0     H18305  -0.065   5.280   5.750  1.4088 -1.1435 -0.5351
  133MOL0     H18306  -0.002   5.525   5.732 -0.0421 -1.2332  0.1671
  133MOL0     H18307   0.137   5.490   5.832 -0.4136  4.3223 -2.2243
  133MOL0     H18308   0.079   5.399   5.536  0.3038  2.7906 -0.9816
  133MOL0     H18309   0.173   5.532   5.596 -1.0360  0.8318  1.5914
  133MOL0     H18310   0.343   5.358   5.548 -3.3235  1.5375 -2.1972
  133MOL0     H18311   0.327   5.367   5.724 -0.1422  0.3470  0.3298
  133MOL0     H18312   0.485   5.241   5.744 -1.3333 -0.6128  3.0076
  133MOL0     H18313   0.730   5.052   5.883 -1.4738  2.2946  3.1515
  133MOL0     H18314   0.646   5.197   5.846 -1.8793 -0.6628 -1.9069
  133MOL0     H18315   0.767   5.122   5.725  2.2386  0.6765  0.6248
  133MOL0     H18316   0.531   4.578   5.866 -0.7145 -2.7908  0.5544
  133MOL0     H18317   0.598   4.365   5.969  0.6131 -1.1263 -0.3199
  133MOL0     H18318   1.004   4.317   6.184 -0.2847  0.0683 -1.5236
  133MOL0     H18319   0.891   4.385   6.292  0.8540  1.0350 -0.7028
  133MOL0     H18320   0.806   4.147   6.336  0.6565 -1.0140  0.2829
  133MOL0     H18321   0.922   4.086   6.207 -2.3841  0.9445 -1.7919
  133MOL0     H18322   0.952   4.187   6.488  0.8631 -0.6257  0.5599
  133MOL0     H18323   1.084   4.193   6.379 -0.8388  2.9725  0.5089
  133MOL0     H18324   1.083   3.951   6.351 -0.5209 -1.1693 -0.2252
  133MOL0     H18325   0.924   3.948   6.457  3.9426 -4.5303  3.9767
  133MOL0     H18326   1.193   3.934   6.532  0.4132  2.1611  1.1709
  133MOL0     H18327   1.093   4.063   6.609 -2.2473 -0.8249  1.1080
  133MOL0     H18328   0.951   3.915   6.706 -0.3641 -0.8136  0.9629
  133MOL0     H18329   1.113   3.841   6.706 -0.8068 -0.5333 -0.1322
  133MOL0     H18330   1.095   3.684   6.559 -0.0397  2.1782 -0.3951
  133MOL0     H18331   0.940   3.740   6.498  2.4968  1.5943 -1.3414
  133MOL0     H18332   0.822   3.669   6.699 -0.4490 -0.2449 -1.6528
  133MOL0     H18333   0.977   3.646   6.784  0.8572  2.5914 -0.0697
  133MOL0     H18334   0.945   4.560   6.131  1.7605 -0.1453 -0.0540
  133MOL0     H18335   0.898   4.758   5.982  0.4893 -0.0940  2.2934
  133MOL0     H18336   0.389   4.776   5.609  1.9867 -0.2979  0.8971
  133MOL0     H18337   0.237   4.962   5.555 -0.5819 -0.7744  2.2233
  133MOL0     H18338   0.252   3.983   6.420 -1.0533 -2.8812 -0.2798
  133MOL0     H18339   0.268   3.766   6.514 -1.4409  2.1025  0.5640
  133MOL0     H18340   0.693   3.453   6.617  2.9173  1.1795  0.7055
  133MOL0     H18341   0.689   3.213   6.700  2.8695  2.0851 -2.3228
  133MOL0     H18342   0.747   3.160   7.076  0.3848 -1.3400 -0.2009
  133MOL0     H18343   0.669   2.997   7.063 -0.4375 -0.7717 -1.0328
  133MOL0     H18344   0.918   2.989   6.966 -1.1967 -2.0247  2.4004
  133MOL0     H18345   0.856   3.087   6.837 -2.4664  1.1458 -0.4641
  133MOL0     H18346   0.848   2.811   6.851  1.7332  1.4183 -2.3614
  133MOL0     H18347   0.676   2.857   6.877  0.3209  2.4925  1.7414
  133MOL0     H18348   0.647   2.956   6.680 -0.1301  0.6792 -0.1765
  133MOL0     H18349   0.733   2.802   6.656  2.7139 -0.6321  0.7841
  133MOL0     H18350   1.016   3.049   6.478 -0.5879 -1.3599 -2.6061
  133MOL0     H18351   0.533   3.320   7.071  0.0254  3.3178  0.3856
  133MOL0     H18352   0.364   3.606   6.967 -1.4515  2.4846  2.4649
  133MOL0     H18353   0.392   3.497   7.096 -2.4225  0.5383 -0.8123
  133MOL0     H18354   0.504   3.633   7.072  3.6984 -1.6500 -0.7717
  134MOL0     O18355   1.453  11.371   9.196 -0.2839  0.4063  0.7201
  134MOL0     C18356   1.495  11.337   9.086  0.0074  0.2348  0.2342
  134MOL0     O18357   1.506  11.206   9.047 -0.1189  0.0393 -0.0920
  134MOL0     C18358   1.504  11.103   9.139 -0.4067 -0.9709  0.6807
  134MOL0     C18359   1.439  10.987   9.102  0.2485  0.0593 -0.3342
  134MOL0     C18360   1.448  10.873   9.182 -0.7676  0.0224 -1.0647
  134MOL0     C18361   1.520  10.866   9.302 -0.5035 -0.0360 -0.2625
  134MOL0     O18362   1.508  10.744   9.360  0.2248 -0.3327 -0.0999
  134MOL0     C18363   1.560  10.750   9.491 -0.5862  0.2220 -1.0977
  134MOL0     C18364   1.542  10.603   9.544 -1.1544 -0.4085 -0.4048
  134MOL0     C18365   1.610  10.489   9.464  0.2108  1.0474  0.2266
  134MOL0     C18366   1.554  10.349   9.514 -0.2732 -0.2262 -0.1845
  134MOL0     C18367   1.631  10.230   9.469  0.5389  0.1920  0.6189
  134MOL0     C18368   1.769  10.224   9.537  0.2781 -0.6178 -0.6347
  134MOL0     C18369   1.871  10.156   9.448  0.4224  1.3768  0.1167
  134MOL0     C18370   1.850  10.000   9.428 -0.0867 -0.6455 -0.4574
  134MOL0     N18371   1.919   9.942   9.313  0.4025  0.3980  0.4820
  134MOL0     C18372   1.912   9.983   9.182 -0.4097  0.1366  0.7570
  134MOL0     C18373   2.020   9.919   9.121 -0.1744  0.5913 -0.2359
  134MOL0     C18374   2.052   9.924   8.979 -0.3044  0.0970  0.0621
  134MOL0     C18375   2.016   9.790   8.903  0.2611  0.4008  0.0083
  134MOL0     C18376   1.865   9.762   8.911  0.1180 -1.0862  0.1179
  134MOL0     C18377   1.805   9.742   8.771 -0.5845 -0.7429  0.0422
  134MOL0     O18378   1.827   9.854   8.686  0.8818  0.4499 -0.3503
  134MOL0     C18379   1.738   9.956   8.680  0.7553  0.1580 -0.1419
  134MOL0     C18380   1.770  10.060   8.596  0.1329  0.4607  0.6208
  134MOL0     C18381   1.688  10.166   8.578  0.6404  0.6422  0.1023
  134MOL0     C18382   1.735  10.286   8.512 -0.2562 -0.1939 -0.7572
  134MOL0     C18383   1.550  10.160   8.622  0.0918  0.7610  0.5477
  134MOL0     C18384   1.453  10.261   8.581 -0.1880  1.0281 -0.3382
  134MOL0     O18385   1.358  10.293   8.670 -0.1389  0.0472  0.1830
  134MOL0     C18386   1.253  10.377   8.653  0.1800 -0.4744  0.6598
  134MOL0     C18387   1.244  10.484   8.569  0.8515 -0.5137  0.6846
  134MOL0     C18388   1.139  10.569   8.563 -0.3867  0.3644 -0.6081
  134MOL0     C18389   1.026  10.549   8.633 -0.5288  0.4432 -0.3479
  134MOL0     O18390   0.928  10.645   8.620  1.2033  0.8988  0.6633
  134MOL0     C18391   0.784  10.609   8.630 -0.1029  0.4675  0.0437
  134MOL0     C18392   0.721  10.611   8.489 -0.3102  0.3993 -0.9052
  134MOL0     C18393   0.723  10.746   8.434 -0.3571 -0.1301  0.8832
  134MOL0     C18394   0.651  10.759   8.298 -0.3023  0.5041 -0.5418
  134MOL0     C18395   0.654  10.900   8.243 -0.0003 -0.3462 -0.1454
  134MOL0     C18396   0.577  11.009   8.326 -0.3814 -0.4108 -0.2304
  134MOL0     C18397   0.570  11.135   8.242 -0.0707 -0.0101  0.2041
  134MOL0     C18398   0.484  11.233   8.317  0.0835  0.0677 -0.7845
  134MOL0    Cl18399   0.459  11.378   8.231 -0.1184  0.2322  0.1744
  134MOL0     C18400   1.025  10.442   8.722 -0.7568  0.1257  0.1654
  134MOL0     C18401   1.142  10.359   8.731  0.0949  0.0287 -1.3526
  134MOL0     O18402   1.457  10.302   8.466  0.3320  0.3486  0.0633
  134MOL0     C18403   1.518  10.057   8.702  0.7029 -0.6534 -0.4337
  134MOL0     C18404   1.615   9.959   8.739  0.5280  0.2176  0.6529
  134MOL0     N18405   2.075   9.830   9.212  0.7666  1.2973  0.2595
  134MOL0     N18406   2.000   9.838   9.316 -0.6833 -0.3447 -0.2222
  134MOL0     C18407   1.579  10.993   9.352  0.6431  0.3513 -0.2046
  134MOL0     C18408   1.569  11.105   9.261  0.7833 -0.8605 -1.2724
  134MOL0     C18409   1.538  11.438   8.993  0.4468 -0.8701  0.8053
  134MOL0     C18410   1.561  11.399   8.856  0.2126  0.4588  0.2272
  134MOL0     C18411   1.576  11.493   8.755 -0.0088  0.8652  0.4311
  134MOL0     C18412   1.579  11.628   8.774 -0.3244 -0.0081 -0.6770
  134MOL0     O18413   1.605  11.710   8.667  0.4129  0.2779  0.3621
  134MOL0     C18414   1.680  11.830   8.692 -0.2338  0.2960  1.2629
  134MOL0     C18415   1.606  11.971   8.679  1.4330  0.2319 -0.1634
  134MOL0     C18416   1.694  12.085   8.731  0.1355 -0.1186  0.2377
  134MOL0     C18417   1.612  12.212   8.694 -0.8493  0.0988  0.5358
  134MOL0     C18418   1.655  12.265   8.561  0.1245 -0.1266 -0.9214
  134MOL0     C18419   1.699  12.318   8.462 -0.1727 -0.6161  0.5626
  134MOL0     C18420   1.562  11.671   8.909 -0.7451  0.6063  1.0028
  134MOL0     C18421   1.547  11.579   9.019 -0.2987 -0.1489 -0.5919
  134MOL0     C18422   1.524  11.655   9.159  0.7432  0.6380  0.4815
  134MOL0     H18423   1.391  10.971   9.006  0.8708 -0.8876 -0.4962
  134MOL0     H18424   1.389  10.786   9.153  0.4678 -0.6302 -1.6868
  134MOL0     H18425   1.501  10.822   9.547 -1.8566  0.4441 -2.6392
  134MOL0     H18426   1.663  10.786   9.496 -0.8235  1.0877 -1.9434
  134MOL0     H18427   1.579  10.607   9.647  1.4603 -0.4291 -1.2816
  134MOL0     H18428   1.436  10.575   9.547 -0.5912 -2.7193  1.2907
  134MOL0     H18429   1.589  10.513   9.359  0.5074  0.3625  0.0030
  134MOL0     H18430   1.719  10.496   9.466  0.2910 -0.1214  0.8798
  134MOL0     H18431   1.542  10.350   9.623  2.3184  2.7334  0.2351
  134MOL0     H18432   1.459  10.346   9.461  1.7900  1.6789 -4.4979
  134MOL0     H18433   1.640  10.234   9.360 -1.6173 -1.5747  0.3069
  134MOL0     H18434   1.591  10.130   9.485 -0.4841  0.1362 -1.7473
  134MOL0     H18435   1.805  10.326   9.552 -1.5093 -0.0728  0.2884
  134MOL0     H18436   1.757  10.176   9.635  0.9863  0.9819  0.2946
  134MOL0     H18437   1.969  10.182   9.489 -0.2971  0.2991  2.7107
  134MOL0     H18438   1.870  10.194   9.345  1.9577  0.8489 -0.1202
  134MOL0     H18439   1.891   9.944   9.513  0.1856 -2.0996 -1.4971
  134MOL0     H18440   1.742   9.985   9.419 -1.2588  4.7727  0.9721
  134MOL0     H18441   1.843  10.056   9.141  0.9694  0.3328 -1.3409
  134MOL0     H18442   2.160   9.938   8.969 -0.0716 -1.3858  0.3331
  134MOL0     H18443   2.005  10.005   8.923  1.0252  1.5066  0.9058
  134MOL0     H18444   2.039   9.812   8.798 -1.0230 -3.2745 -1.1772
  134MOL0     H18445   2.080   9.705   8.930  2.7239  1.3380 -2.4219
  134MOL0     H18446   1.865   9.662   8.954  0.4863 -0.9274  0.4908
  134MOL0     H18447   1.807   9.830   8.974 -0.3750 -1.7065  0.3425
  134MOL0     H18448   1.848   9.657   8.717 -4.0270 -1.3729 -1.9657
  134MOL0     H18449   1.705   9.703   8.791 -1.9531  3.4635  2.7379
  134MOL0     H18450   1.864  10.048   8.542 -1.3479 -0.2336 -1.9946
  134MOL0     H18451   1.844  10.283   8.511 -0.1397  2.1692 -0.9919
  134MOL0     H18452   1.710  10.370   8.578  0.7227 -0.5622  0.1137
  134MOL0     H18453   1.708  10.294   8.407 -2.1338 -2.2437 -0.4898
  134MOL0     H18454   1.325  10.505   8.500 -0.1317 -1.4236 -0.8046
  134MOL0     H18455   1.156  10.665   8.515  2.8401 -0.6164 -1.6391
  134MOL0     H18456   0.760  10.508   8.663 -2.6825  1.0993  0.2901
  134MOL0     H18457   0.732  10.660   8.711  2.2468  2.7216  0.2573
  134MOL0     H18458   0.768  10.540   8.420  1.7549  0.8211  0.0008
  134MOL0     H18459   0.614  10.596   8.504 -0.0675 -0.1451  0.4862
  134MOL0     H18460   0.817  10.793   8.404 -2.4488  3.3404 -1.0173
  134MOL0     H18461   0.672  10.803   8.513  0.2709  3.3961 -1.0612
  134MOL0     H18462   0.550  10.736   8.333  0.5823 -0.2004  1.7434
  134MOL0     H18463   0.687  10.680   8.232 -0.6007 -0.1419  0.0514
  134MOL0     H18464   0.759  10.928   8.235 -0.2775  0.4674 -1.1340
  134MOL0     H18465   0.602  10.904   8.147 -2.4342 -0.6042  1.0842
  134MOL0     H18466   0.629  11.033   8.419 -2.6668  4.9907  0.0003
  134MOL0     H18467   0.478  10.979   8.363 -0.2235  0.3479  0.8524
  134MOL0     H18468   0.523  11.110   8.146 -1.0353  0.2285  0.6046
  134MOL0     H18469   0.674  11.162   8.219  0.9993 -2.2779  1.9780
  134MOL0     H18470   0.539  11.255   8.410 -1.2933 -0.7387  0.2582
  134MOL0     H18471   0.381  11.204   8.335 -0.9978  2.7151 -2.1389
  134MOL0     H18472   0.945  10.435   8.795 -0.0949  1.5513  1.0818
  134MOL0     H18473   1.126  10.268   8.788 -0.3836  1.4555  0.9337
  134MOL0     H18474   1.427  10.036   8.757  0.7491 -2.0314 -0.8397
  134MOL0     H18475   1.583   9.881   8.806 -2.2528  2.3594  2.0454
  134MOL0     H18476   1.615  11.007   9.453  3.1621  4.4150 -1.4165
  134MOL0     H18477   1.613  11.198   9.295 -3.4957  0.4703  1.4857
  134MOL0     H18478   1.570  11.295   8.826 -1.1582  0.0613  1.0877
  134MOL0     H18479   1.604  11.452   8.658  2.3067 -1.5535  1.9771
  134MOL0     H18480   1.732  11.833   8.788 -0.5518  0.6202  1.4237
  134MOL0     H18481   1.745  11.824   8.604 -1.7115  0.8836  0.0770
  134MOL0     H18482   1.511  11.969   8.733  0.1219 -0.6885 -2.3831
  134MOL0     H18483   1.569  11.986   8.577  1.9189  0.7783 -0.2603
  134MOL0     H18484   1.704  12.073   8.839 -1.7410 -0.9670  0.3642
  134MOL0     H18485   1.790  12.093   8.681 -0.9212  1.6149 -1.6467
  134MOL0     H18486   1.630  12.281   8.777  0.7642  0.8022 -0.3638
  134MOL0     H18487   1.505  12.189   8.697 -1.5016  2.7779  0.1349
  134MOL0     H18488   1.753  12.351   8.376 -1.9868 -2.6769 -1.4803
  134MOL0     H18489   1.571  11.778   8.924 -1.4335  1.0506 -1.2703
  134MOL0     H18490   1.562  11.756   9.171 -2.9044  1.8244  4.6491
  134MOL0     H18491   1.416  11.665   9.175  0.5307  4.0727 -1.9956
  134MOL0     H18492   1.561  11.597   9.244  0.4312  0.2259  0.3432
  135MOL0     O18493   2.057   5.534   5.059  0.3744 -0.7210  0.6253
  135MOL0     C18494   2.136   5.444   5.021 -1.1717 -0.3775 -0.1967
  135MOL0     O18495   2.222   5.440   4.909 -0.7412 -0.2116 -0.5361
  135MOL0     C18496   2.206   5.524   4.806  0.1588 -0.3102  0.3647
  135MOL0     C18497   2.084   5.589   4.770  0.1810  0.1982 -1.1621
  135MOL0     C18498   2.083   5.686   4.662 -0.4652 -0.1608 -0.6600
  135MOL0     C18499   2.201   5.720   4.597  0.2537 -0.2594  0.5892
  135MOL0     O18500   2.205   5.811   4.486  0.1792  0.3706 -0.7147
  135MOL0     C18501   2.114   5.770   4.386 -0.1872 -0.9046 -0.0815
  135MOL0     C18502   2.172   5.818   4.259 -0.3672  0.0740  0.1838
  135MOL0     C18503   2.178   5.963   4.240  0.2241 -0.4422  0.1924
  135MOL0     C18504   2.194   5.980   4.093 -0.2042  0.4175  0.0376
  135MOL0     C18505   2.190   6.130   4.060 -0.3490 -0.7026 -0.1384
  135MOL0     C18506   2.052   6.188   4.053 -0.2579 -0.4158 -0.3470
  135MOL0     C18507   2.039   6.340   4.102  0.8642 -0.4497 -0.6997
  135MOL0     C18508   2.069   6.381   4.248 -0.0101  0.3243 -0.3061
  135MOL0     N18509   1.965   6.349   4.347  0.0944  0.3195  0.2023
  135MOL0     C18510   1.959   6.236   4.421 -0.3410 -0.1982 -0.5375
  135MOL0     C18511   1.843   6.237   4.492  0.5088  0.0765  0.5591
  135MOL0     C18512   1.787   6.117   4.571  0.4392 -0.2791 -0.4038
  135MOL0     C18513   1.637   6.107   4.554 -0.4077 -0.2816  0.5324
  135MOL0     C18514   1.560   6.148   4.680  0.2699 -0.4238  0.9752
  135MOL0     C18515   1.420   6.202   4.637 -0.1912 -0.2041  0.1305
  135MOL0     O18516   1.345   6.081   4.613  0.0684 -0.0127 -0.0970
  135MOL0     C18517   1.207   6.091   4.577 -0.4885 -0.0434 -0.8177
  135MOL0     C18518   1.157   6.219   4.541 -0.1777 -0.0127  0.0060
  135MOL0     C18519   1.025   6.248   4.520  0.2373 -0.0750 -0.1485
  135MOL0     C18520   0.990   6.386   4.502  0.2822 -0.5958  0.3180
  135MOL0     C18521   0.935   6.140   4.526 -0.0611 -0.3867  0.5376
  135MOL0     C18522   0.797   6.153   4.479 -0.2883  0.3990  0.0692
  135MOL0     O18523   0.690   6.086   4.531  0.0244 -0.5743 -0.1118
  135MOL0     C18524   0.576   6.071   4.450 -0.4291 -0.0215 -0.3038
  135MOL0     C18525   0.588   6.018   4.313  0.2631 -0.7341  0.0279
  135MOL0     C18526   0.471   6.009   4.236  1.5540  0.5858 -0.8441
  135MOL0     C18527   0.347   6.048   4.287 -0.4516  0.2798  0.2883
  135MOL0     O18528   0.226   6.018   4.219 -0.7736 -0.2540  0.2657
  135MOL0     C18529   0.185   5.877   4.243 -0.2340  0.1438 -0.0205
  135MOL0     C18530   0.126   5.829   4.108 -0.9342  0.2418 -0.4814
  135MOL0     C18531   0.249   5.809   4.007 -0.2199  0.4182  0.2353
  135MOL0     C18532   0.217   5.729   3.883  0.0465 -0.1052  0.3887
  135MOL0     C18533   0.344   5.697   3.804  0.2932  0.3643 -0.3872
  135MOL0     C18534   0.311   5.631   3.663 -0.1452  1.1698 -0.1375
  135MOL0     C18535   0.219   5.510   3.668 -0.1331 -1.0249  0.1145
  135MOL0     C18536   0.199   5.460   3.522  0.1114  0.0444 -0.2412
  135MOL0    Cl18537   0.365   5.414   3.441  0.5333 -0.0481  0.1124
  135MOL0     C18538   0.338   6.073   4.423  0.0113  0.5736  0.2980
  135MOL0     C18539   0.449   6.085   4.510 -0.2919 -1.5751 -0.1173
  135MOL0     O18540   0.789   6.217   4.378 -0.1995 -0.7142 -0.0745
  135MOL0     C18541   0.988   6.010   4.559 -0.8441 -0.0773 -0.5435
  135MOL0     C18542   1.123   5.984   4.582  0.8768  0.2645 -0.7308
  135MOL0     N18543   1.799   6.365   4.482  0.2835 -0.2319 -0.0424
  135MOL0     N18544   1.867   6.427   4.396  0.2812  0.6640 -0.1389
  135MOL0     C18545   2.324   5.658   4.632 -0.0203 -0.7878  0.2723
  135MOL0     C18546   2.323   5.559   4.736 -0.0206 -0.1690  0.8048
  135MOL0     C18547   2.159   5.331   5.114  0.0740  0.3285  0.2217
  135MOL0     C18548   2.223   5.213   5.064 -0.3516 -0.4632  0.5995
  135MOL0     C18549   2.269   5.114   5.135  1.0281 -0.3606  0.7616
  135MOL0     C18550   2.242   5.114   5.273 -0.5863 -0.8991 -0.5901
  135MOL0     O18551   2.292   5.025   5.365 -0.3906  0.7320  0.7875
  135MOL0     C18552   2.356   4.902   5.312 -0.7877  0.7829  1.0297
  135MOL0     C18553   2.381   4.805   5.431 -0.6228 -0.1457  0.4283
  135MOL0     C18554   2.476   4.845   5.537 -0.7178  0.3734  0.2389
  135MOL0     C18555   2.612   4.856   5.477  0.0414 -0.1505  0.9016
  135MOL0     C18556   2.711   4.870   5.579  0.5891  0.1365 -0.3799
  135MOL0     C18557   2.785   4.884   5.667 -0.1278 -0.2357 -0.7619
  135MOL0     C18558   2.177   5.225   5.333  0.2936  0.6824  0.5788
  135MOL0     C18559   2.143   5.331   5.256  0.0046 -0.0352  0.0839
  135MOL0     C18560   2.072   5.452   5.331 -0.8255 -0.1343 -0.3154
  135MOL0     H18561   1.992   5.562   4.820 -0.7622  0.5495 -2.6447
  135MOL0     H18562   1.991   5.741   4.642 -0.6483 -0.6791 -1.2972
  135MOL0     H18563   2.019   5.822   4.398  0.7475  0.7695  0.2361
  135MOL0     H18564   2.102   5.661   4.380 -0.9584 -0.7819 -1.0307
  135MOL0     H18565   2.279   5.795   4.257 -0.3086  0.3978 -0.6719
  135MOL0     H18566   2.119   5.760   4.183 -0.6151 -0.9735  1.1255
  135MOL0     H18567   2.077   5.997   4.262 -0.8940 -1.2693 -3.0888
  135MOL0     H18568   2.262   6.016   4.286  1.4518  1.1020 -3.4364
  135MOL0     H18569   2.293   5.941   4.070 -0.2292 -0.0482  0.6902
  135MOL0     H18570   2.130   5.917   4.030  0.7524  0.3767 -0.9078
  135MOL0     H18571   2.251   6.152   3.972  1.1038  0.6294  1.1575
  135MOL0     H18572   2.247   6.188   4.133  0.5515  1.4098 -2.3719
  135MOL0     H18573   2.034   6.195   3.945 -0.5534 -0.6509 -0.3122
  135MOL0     H18574   1.969   6.134   4.099 -0.4151  1.3664  1.5942
  135MOL0     H18575   1.934   6.369   4.088 -0.1426 -2.1956  2.3221
  135MOL0     H18576   2.098   6.406   4.038  0.2238  0.2781 -0.5599
  135MOL0     H18577   2.167   6.345   4.280  0.2962  3.6933  3.2519
  135MOL0     H18578   2.091   6.488   4.258  0.4963  0.1988 -0.0407
  135MOL0     H18579   2.035   6.158   4.416  0.9125  0.7637  1.7795
  135MOL0     H18580   1.807   6.138   4.676 -0.0671 -0.0808 -0.3433
  135MOL0     H18581   1.850   6.033   4.541 -0.1076 -0.6038 -0.6662
  135MOL0     H18582   1.603   6.154   4.461 -0.2185  1.6356  1.3700
  135MOL0     H18583   1.616   6.001   4.541  0.7923 -0.5713  0.8270
  135MOL0     H18584   1.559   6.069   4.756  1.9448 -2.1874 -0.7050
  135MOL0     H18585   1.607   6.230   4.736  1.0662 -0.5505  0.5133
  135MOL0     H18586   1.371   6.268   4.708  0.1065 -0.4038  0.5255
  135MOL0     H18587   1.431   6.263   4.547  1.9483  2.0333  1.7711
  135MOL0     H18588   1.219   6.306   4.519 -1.8923  1.8741  2.1627
  135MOL0     H18589   1.079   6.447   4.485  0.0803 -0.1493  0.8606
  135MOL0     H18590   0.957   6.411   4.603  0.5387  1.4487 -0.0747
  135MOL0     H18591   0.924   6.405   4.417 -0.8981  1.7948  1.6830
  135MOL0     H18592   0.684   5.986   4.274  0.8580 -0.2624  1.0819
  135MOL0     H18593   0.464   5.972   4.135 -2.5509  2.4884 -1.4580
  135MOL0     H18594   0.267   5.812   4.274 -1.3749 -2.3517 -1.8852
  135MOL0     H18595   0.105   5.877   4.318 -2.0777 -1.8516 -1.8731
  135MOL0     H18596   0.068   5.737   4.122 -0.7588 -0.0614 -1.6200
  135MOL0     H18597   0.053   5.899   4.068 -2.1863 -2.4927 -3.5111
  135MOL0     H18598   0.331   5.747   4.043  0.0999 -0.1327 -1.3601
  135MOL0     H18599   0.302   5.900   3.979  3.3204 -0.8391  2.2272
  135MOL0     H18600   0.144   5.782   3.821 -0.4080  1.4421  2.1456
  135MOL0     H18601   0.169   5.636   3.915  0.2714 -0.7726 -1.1220
  135MOL0     H18602   0.414   5.778   3.785  0.4498  0.7610  1.6103
  135MOL0     H18603   0.410   5.630   3.861 -0.2113 -0.8999 -1.2445
  135MOL0     H18604   0.408   5.597   3.626  0.7870  2.5565  0.9282
  135MOL0     H18605   0.275   5.705   3.592 -3.2361  0.7690  0.8788
  135MOL0     H18606   0.120   5.528   3.710  1.0217  1.2984  2.1284
  135MOL0     H18607   0.269   5.440   3.735  2.6910  0.4117 -0.3538
  135MOL0     H18608   0.139   5.537   3.474 -0.5756  0.2957  0.9724
  135MOL0     H18609   0.128   5.377   3.519 -1.5408  1.4045 -0.1880
  135MOL0     H18610   0.241   6.104   4.461 -0.6331 -2.6582  1.6300
  135MOL0     H18611   0.444   6.131   4.608  3.2592  2.5925 -1.5683
  135MOL0     H18612   0.922   5.924   4.562 -1.8070  0.6118  2.9187
  135MOL0     H18613   1.161   5.885   4.606  0.5738  0.3771  0.2522
  135MOL0     H18614   2.420   5.677   4.585  0.7148 -1.6814  1.3642
  135MOL0     H18615   2.412   5.504   4.763  0.8572  1.1543  0.6638
  135MOL0     H18616   2.216   5.194   4.957 -0.0888 -0.7921  0.6378
  135MOL0     H18617   2.318   5.034   5.082 -1.7023 -2.4402  1.1376
  135MOL0     H18618   2.284   4.856   5.242  0.9462 -2.6392  1.2774
  135MOL0     H18619   2.449   4.925   5.260  1.3888 -3.1711  2.7355
  135MOL0     H18620   2.429   4.714   5.396  0.0714 -0.3604  1.8508
  135MOL0     H18621   2.279   4.802   5.471 -0.8832 -2.3372 -0.3017
  135MOL0     H18622   2.445   4.939   5.584 -0.6063  0.4548  0.1508
  135MOL0     H18623   2.480   4.774   5.621  0.4748 -0.3343 -0.3838
  135MOL0     H18624   2.615   4.937   5.403 -0.4370 -2.0655 -1.3135
  135MOL0     H18625   2.646   4.768   5.423  2.4805  1.0796  0.2689
  135MOL0     H18626   2.854   4.908   5.746 -1.8764  1.9464  0.2125
  135MOL0     H18627   2.158   5.215   5.439  1.1510  0.7033  0.7413
  135MOL0     H18628   1.977   5.481   5.284 -0.3845  0.8743 -0.6184
  135MOL0     H18629   2.049   5.426   5.435 -1.8806 -5.4842 -1.5894
  135MOL0     H18630   2.142   5.536   5.331 -0.6421 -0.2599 -1.5858
  136MOL0     O18631   5.564   4.256  10.741  0.1872  1.1098  0.5796
  136MOL0     C18632   5.621   4.366  10.771  0.6543 -0.4821  0.1456
  136MOL0     O18633   5.652   4.469  10.687 -0.9632  0.4050  0.5247
  136MOL0     C18634   5.627   4.461  10.545  1.2234 -0.0935  0.5576
  136MOL0     C18635   5.716   4.505  10.448  0.7795  0.3875  0.0706
  136MOL0     C18636   5.687   4.514  10.317  0.1714 -0.3464  0.7800
  136MOL0     C18637   5.555   4.493  10.265 -0.6889 -0.7708 -0.6053
  136MOL0     O18638   5.527   4.512  10.134  0.0397  0.5940 -0.5303
  136MOL0     C18639   5.406   4.582  10.099  0.1149  0.3049 -0.1008
  136MOL0     C18640   5.429   4.717  10.043  0.2320  0.4550  0.8525
  136MOL0     C18641   5.522   4.811  10.112 -0.0937 -0.5024  0.0807
  136MOL0     C18642   5.494   4.824  10.269 -0.0253 -0.5253  0.6134
  136MOL0     C18643   5.586   4.931  10.336 -0.0832 -0.2072 -0.2281
  136MOL0     C18644   5.727   4.895  10.388 -0.6566  0.0012  0.8710
  136MOL0     C18645   5.782   4.971  10.511  0.0251 -0.2801  0.5839
  136MOL0     C18646   5.931   4.938  10.544  0.3495 -0.0120  0.0021
  136MOL0     N18647   5.950   4.829  10.644 -0.5187  0.5810  0.3935
  136MOL0     C18648   6.068   4.820  10.720  0.1023  0.5096  0.0070
  136MOL0     C18649   6.076   4.691  10.761  0.4174 -0.3445 -0.7133
  136MOL0     C18650   6.210   4.630  10.802  0.0013 -1.2620 -0.3143
  136MOL0     C18651   6.309   4.620  10.690  0.2364  0.6748  0.0832
  136MOL0     C18652   6.446   4.553  10.733  0.1928  0.0219  0.2080
  136MOL0     C18653   6.450   4.438  10.828 -0.7068  0.2669  0.0587
  136MOL0     O18654   6.582   4.383  10.843 -0.2081  0.1596 -0.0379
  136MOL0     C18655   6.616   4.284  10.759  0.2502  0.1314 -0.2078
  136MOL0     C18656   6.551   4.251  10.648 -0.2199  0.0990 -0.4914
  136MOL0     C18657   6.587   4.132  10.576  0.0429  0.0788  0.3464
  136MOL0     C18658   6.489   4.097  10.463 -0.8508 -0.0688  0.0783
  136MOL0     C18659   6.697   4.050  10.609 -0.0595  0.4887  0.6879
  136MOL0     C18660   6.753   3.929  10.545  0.8159 -0.8128 -0.5945
  136MOL0     O18661   6.755   3.933  10.407 -0.4814 -0.4980  0.1244
  136MOL0     C18662   6.824   3.833  10.345 -0.4497  0.5044 -0.2030
  136MOL0     C18663   6.946   3.850  10.304 -0.0731  0.5403 -0.2889
  136MOL0     C18664   7.029   3.750  10.254  0.3327 -0.4643  0.5035
  136MOL0     C18665   6.970   3.622  10.230 -0.4710 -0.7901  0.0979
  136MOL0     O18666   7.040   3.506  10.201  0.1022 -0.1754 -0.3139
  136MOL0     C18667   7.181   3.491  10.200  0.5723  0.9021  0.6242
  136MOL0     C18668   7.226   3.410  10.079  0.7368 -1.0214  0.5462
  136MOL0     C18669   7.371   3.452  10.045  0.1994 -0.2663  0.4394
  136MOL0     C18670   7.478   3.356  10.116  0.7992 -0.1233 -0.2918
  136MOL0     C18671   7.617   3.421  10.112 -1.2120 -0.4750 -0.1613
  136MOL0     C18672   7.707   3.349  10.209 -0.1608  0.4349 -0.1552
  136MOL0     C18673   7.853   3.405  10.209 -1.3178  0.0928  0.1296
  136MOL0     C18674   7.951   3.299  10.266  0.7201 -0.4282 -0.5817
  136MOL0    Cl18675   7.913   3.294  10.449  0.8290  0.3670 -0.2714
  136MOL0     C18676   6.829   3.596  10.258 -0.7053  0.0985 -0.1395
  136MOL0     C18677   6.766   3.709  10.319  0.9201 -0.2436  0.3540
  136MOL0     O18678   6.797   3.845  10.616 -0.1643  0.8143  0.0610
  136MOL0     C18679   6.765   4.100  10.731  0.7766 -0.1462 -0.0051
  136MOL0     C18680   6.715   4.201  10.801  0.7726 -0.4882 -1.0803
  136MOL0     N18681   5.960   4.627  10.725  0.0363 -0.0843 -0.4946
  136MOL0     N18682   5.883   4.713  10.661 -0.0301  0.3424  0.1923
  136MOL0     C18683   5.464   4.458  10.360  0.4950 -0.2396 -0.7888
  136MOL0     C18684   5.491   4.449  10.499  0.0633 -0.2247  0.2095
  136MOL0     C18685   5.647   4.384  10.922 -0.9143 -0.3068 -0.1142
  136MOL0     C18686   5.713   4.506  10.961  0.6875 -0.2579  0.2041
  136MOL0     C18687   5.743   4.523  11.097 -0.1241 -0.4963  0.1629
  136MOL0     C18688   5.705   4.436  11.193 -0.8484  0.5081  0.2273
  136MOL0     O18689   5.723   4.458  11.327  0.1821  0.0928 -1.1718
  136MOL0     C18690   5.813   4.560  11.371 -0.4448 -0.5064 -0.9749
  136MOL0     C18691   5.853   4.534  11.518  0.7963  0.0038 -0.5738
  136MOL0     C18692   5.753   4.604  11.620  0.0540  0.6773  0.5016
  136MOL0     C18693   5.645   4.504  11.678 -0.2423  0.1734 -0.7229
  136MOL0     C18694   5.708   4.402  11.761  0.5111  0.1397 -0.2011
  136MOL0     C18695   5.764   4.319  11.827  0.7657 -0.1598  0.7723
  136MOL0     C18696   5.654   4.318  11.146  0.9417  0.8112 -0.0170
  136MOL0     C18697   5.628   4.287  11.019  1.1456  0.1665  0.0024
  136MOL0     C18698   5.557   4.155  10.989 -0.6758  0.7924 -0.3161
  136MOL0     H18699   5.808   4.532  10.499 -0.2576  2.0012  1.1748
  136MOL0     H18700   5.756   4.548  10.241  0.8839 -1.8900  0.6899
  136MOL0     H18701   5.333   4.592  10.180 -0.2367  0.4257 -0.4315
  136MOL0     H18702   5.370   4.520  10.017  1.3040 -0.9278  0.2622
  136MOL0     H18703   5.477   4.698   9.947  2.4232  1.4484  1.6833
  136MOL0     H18704   5.331   4.760  10.021 -0.3298 -0.8119  0.7932
  136MOL0     H18705   5.629   4.788  10.117  0.1429  0.7543  1.7615
  136MOL0     H18706   5.516   4.913  10.073  0.6483 -1.1001 -1.7097
  136MOL0     H18707   5.388   4.849  10.275 -0.0641 -0.4847 -0.1438
  136MOL0     H18708   5.498   4.735  10.333 -2.1531 -1.4313 -0.4186
  136MOL0     H18709   5.537   4.954  10.431 -1.6315 -2.8290 -0.3095
  136MOL0     H18710   5.588   5.017  10.268  0.7257 -1.2157 -1.5363
  136MOL0     H18711   5.733   4.790  10.416  2.6030 -0.0474  0.4857
  136MOL0     H18712   5.800   4.916  10.308 -1.2248  2.2334  0.8631
  136MOL0     H18713   5.707   4.959  10.590  0.4003  1.1833  1.1993
  136MOL0     H18714   5.774   5.076  10.480 -1.2210 -0.1362  1.3466
  136MOL0     H18715   5.988   4.933  10.451 -0.3079  2.4379 -0.6010
  136MOL0     H18716   5.973   5.023  10.599  1.4484 -1.7485  2.0139
  136MOL0     H18717   6.149   4.891  10.730 -0.9091  1.6574  0.3383
  136MOL0     H18718   6.205   4.531  10.850  2.6307 -1.3198  0.0033
  136MOL0     H18719   6.267   4.693  10.871 -0.6584 -1.1569  0.1414
  136MOL0     H18720   6.262   4.554  10.618  1.3339 -2.2387  1.8449
  136MOL0     H18721   6.326   4.719  10.647 -0.3952  0.9447  0.4356
  136MOL0     H18722   6.480   4.529  10.632  2.9356 -1.5459  1.3796
  136MOL0     H18723   6.525   4.619  10.771 -1.2570  2.2109 -0.4221
  136MOL0     H18724   6.430   4.462  10.933  3.2915  0.2859  0.9922
  136MOL0     H18725   6.393   4.352  10.793  2.9713 -1.9622 -1.0009
  136MOL0     H18726   6.470   4.315  10.616 -0.1710 -0.0085 -0.8372
  136MOL0     H18727   6.513   4.128  10.361  0.3401 -1.2043 -0.0182
  136MOL0     H18728   6.397   4.152  10.481 -0.2378  1.8388 -2.2582
  136MOL0     H18729   6.457   3.993  10.453  1.0557 -0.5892 -1.1991
  136MOL0     H18730   6.983   3.946  10.338  2.1311 -0.6515  0.8912
  136MOL0     H18731   7.135   3.755  10.231 -0.1591  2.4904 -1.6967
  136MOL0     H18732   7.227   3.591  10.197  3.2840 -0.2507  1.0340
  136MOL0     H18733   7.227   3.432  10.279  6.2469 -0.9622 -3.4095
  136MOL0     H18734   7.213   3.304  10.104  0.4872 -1.7302 -2.2198
  136MOL0     H18735   7.176   3.430   9.984  2.0983 -3.8453 -0.8940
  136MOL0     H18736   7.397   3.555  10.070  2.3271 -0.6366  0.0212
  136MOL0     H18737   7.387   3.428   9.939 -3.5038  0.1143 -0.3215
  136MOL0     H18738   7.483   3.257  10.070 -0.5185  0.4527 -1.7525
  136MOL0     H18739   7.453   3.336  10.220  1.1566  1.6901  0.1807
  136MOL0     H18740   7.662   3.403  10.014  0.9240  2.0223  0.2622
  136MOL0     H18741   7.624   3.525  10.145 -0.6222  0.1061 -1.9771
  136MOL0     H18742   7.705   3.247  10.170  1.8233 -0.0747  0.9433
  136MOL0     H18743   7.660   3.351  10.307 -0.3102  2.5708 -0.2036
  136MOL0     H18744   7.858   3.495  10.272 -0.4618 -0.1042  0.3470
  136MOL0     H18745   7.901   3.437  10.117 -1.2986 -0.8562 -0.1973
  136MOL0     H18746   8.057   3.322  10.253  0.4526 -0.0238 -2.2548
  136MOL0     H18747   7.918   3.201  10.228 -1.5266 -0.0599  0.2518
  136MOL0     H18748   6.780   3.502  10.233 -3.7167  1.5948 -0.2548
  136MOL0     H18749   6.660   3.711  10.345  0.7779  2.1986 -0.1756
  136MOL0     H18750   6.852   4.048  10.770  0.7852 -0.4212 -0.3877
  136MOL0     H18751   6.771   4.205  10.894  0.5875  0.1243 -0.9942
  136MOL0     H18752   5.364   4.434  10.324  0.6090  1.3575 -2.3307
  136MOL0     H18753   5.423   4.401  10.569 -0.0969 -1.5505 -0.8077
  136MOL0     H18754   5.737   4.593  10.900 -1.1362  0.1393 -0.0097
  136MOL0     H18755   5.797   4.616  11.112 -0.6131  0.0572 -1.3683
  136MOL0     H18756   5.911   4.557  11.322  1.2009  0.5440  1.9518
  136MOL0     H18757   5.763   4.658  11.369 -4.6875 -1.9617  4.9708
  136MOL0     H18758   5.948   4.586  11.534  1.6999 -2.3147  2.4346
  136MOL0     H18759   5.873   4.431  11.548  1.5736 -0.2570 -1.9093
  136MOL0     H18760   5.818   4.639  11.701  0.9690  0.2163 -0.0239
  136MOL0     H18761   5.714   4.695  11.574  0.8450  0.2853 -0.9803
  136MOL0     H18762   5.592   4.459  11.593 -0.9074  1.9290 -1.2859
  136MOL0     H18763   5.569   4.569  11.724 -1.0404  0.6383 -2.5917
  136MOL0     H18764   5.821   4.237  11.867  0.4678 -0.5023  0.4928
  136MOL0     H18765   5.647   4.252  11.232 -0.6176 -1.3789 -1.7356
  136MOL0     H18766   5.620   4.094  10.923 -0.8360  0.8998 -0.5724
  136MOL0     H18767   5.560   4.096  11.081  3.8311 -1.1405 -1.4357
  136MOL0     H18768   5.454   4.159  10.952 -0.5760 -0.4372 -0.7796
  137MOL0     O18769   9.123   7.422   3.751  0.7363 -0.0989  0.2191
  137MOL0     C18770   9.204   7.416   3.849 -0.4246 -1.3187 -0.0898
  137MOL0     O18771   9.210   7.312   3.930 -0.3602 -0.9472 -1.1832
  137MOL0     C18772   9.137   7.196   3.917 -0.7670 -0.7903  1.7690
  137MOL0     C18773   9.074   7.153   4.031  0.4712  0.1990 -0.7589
  137MOL0     C18774   9.003   7.033   4.033 -0.4255  0.4468 -0.5749
  137MOL0     C18775   9.010   6.943   3.928 -0.0278  0.5713 -0.3906
  137MOL0     O18776   8.953   6.820   3.915  0.7927 -0.0822 -0.2308
  137MOL0     C18777   8.854   6.790   4.014 -0.0859 -0.5565 -0.4452
  137MOL0     C18778   8.771   6.669   3.967  0.4759 -0.7938 -0.0239
  137MOL0     C18779   8.854   6.548   3.928 -0.2571  0.0265 -1.1997
  137MOL0     C18780   8.760   6.417   3.909 -0.6316 -0.9396 -1.0395
  137MOL0     C18781   8.828   6.301   3.987 -0.1153 -0.8920 -0.6699
  137MOL0     C18782   8.752   6.173   3.963 -0.8447  0.6110  0.7191
  137MOL0     C18783   8.787   6.068   4.069 -0.0343  0.6020  0.3996
  137MOL0     C18784   8.936   6.047   4.075  0.0646  0.6077 -0.1779
  137MOL0     N18785   8.982   5.933   4.156  0.1284  0.5123  0.5212
  137MOL0     C18786   8.955   5.897   4.282  0.6757  0.1485 -0.3429
  137MOL0     C18787   9.051   5.815   4.327  0.4287  0.2973 -0.1818
  137MOL0     C18788   9.078   5.756   4.460  0.3109 -0.0334  0.7739
  137MOL0     C18789   8.999   5.623   4.486  0.1120 -0.5183 -0.1298
  137MOL0     C18790   8.992   5.607   4.637  0.5114  0.0920  0.0603
  137MOL0     C18791   9.112   5.516   4.689  0.3406 -0.1446 -0.3365
  137MOL0     O18792   9.157   5.539   4.829 -0.2589  0.4520 -0.3412
  137MOL0     C18793   9.070   5.514   4.936  0.3216 -0.4348  0.2642
  137MOL0     C18794   8.937   5.560   4.958  0.4130  0.7797 -0.3730
  137MOL0     C18795   8.859   5.518   5.068  0.0053  0.2010  0.5947
  137MOL0     C18796   8.706   5.546   5.078  0.4374 -0.8815  0.6623
  137MOL0     C18797   8.923   5.453   5.174 -0.3856  0.1422  0.2430
  137MOL0     C18798   8.861   5.406   5.296 -0.1211  1.4892 -0.1334
  137MOL0     O18799   8.791   5.496   5.377 -0.4398  0.0453 -0.4636
  137MOL0     C18800   8.745   5.454   5.496 -0.7216  0.0226 -1.0560
  137MOL0     C18801   8.610   5.442   5.519 -0.3327 -0.6205 -0.7644
  137MOL0     C18802   8.564   5.389   5.639  0.7593 -0.4031 -0.5879
  137MOL0     C18803   8.640   5.333   5.732 -0.8914  0.2097  0.2358
  137MOL0     O18804   8.591   5.243   5.825  0.0644  0.2590  0.2305
  137MOL0     C18805   8.498   5.143   5.779 -0.1308 -0.3419  0.1724
  137MOL0     C18806   8.455   5.052   5.893 -0.5128 -0.5569  0.1958
  137MOL0     C18807   8.343   5.107   5.975 -0.0520  0.6718  0.6822
  137MOL0     C18808   8.301   5.014   6.089 -0.0890 -0.0572 -0.1523
  137MOL0     C18809   8.205   5.091   6.189 -0.6597  0.1828 -1.0174
  137MOL0     C18810   8.095   5.146   6.109  0.4716 -0.2681  1.0865
  137MOL0     C18811   7.988   5.165   6.218 -0.5648 -0.1899 -0.4255
  137MOL0     C18812   7.859   5.235   6.177 -0.3940 -1.1062 -0.6601
  137MOL0    Cl18813   7.811   5.166   6.027 -0.2616 -0.2418  0.6187
  137MOL0     C18814   8.783   5.357   5.712  0.0577  0.4035  0.2867
  137MOL0     C18815   8.834   5.403   5.592  0.6176 -0.1643  0.3518
  137MOL0     O18816   8.894   5.288   5.331  0.1981  0.2730  0.6969
  137MOL0     C18817   9.065   5.431   5.164  0.4531 -0.4444  0.4632
  137MOL0     C18818   9.129   5.455   5.044 -0.4009  0.6771  0.5789
  137MOL0     N18819   9.136   5.794   4.217 -0.5599  0.2402 -0.5537
  137MOL0     N18820   9.096   5.870   4.121  0.7230 -0.8027  0.4646
  137MOL0     C18821   9.070   6.987   3.812  0.3890  0.4755  0.5809
  137MOL0     C18822   9.125   7.115   3.802  0.3555 -0.3567  0.1456
  137MOL0     C18823   9.312   7.516   3.884  0.4315 -0.2657 -0.0271
  137MOL0     C18824   9.389   7.505   3.998  0.5291  0.7018  0.0979
  137MOL0     C18825   9.506   7.568   4.020 -0.0999 -0.0350  0.1788
  137MOL0     C18826   9.562   7.646   3.914 -0.2090 -1.0676 -0.7560
  137MOL0     O18827   9.683   7.723   3.936  0.0718  0.0824  1.4240
  137MOL0     C18828   9.747   7.775   3.819 -0.6479 -0.5527 -0.5819
  137MOL0     C18829   9.895   7.798   3.853 -0.6749  0.2683 -0.7155
  137MOL0     C18830   9.936   7.874   3.976  0.3129 -0.3248  0.2772
  137MOL0     C18831   9.850   8.001   3.987  0.2574  0.6335 -0.3222
  137MOL0     C18832   9.891   8.095   3.887  0.0560 -0.2155  1.2171
  137MOL0     C18833   9.931   8.183   3.804  0.4676 -0.1961  0.1433
  137MOL0     C18834   9.471   7.672   3.812 -0.0572 -0.2680 -0.2491
  137MOL0     C18835   9.346   7.613   3.784  0.2066 -0.1261 -0.3999
  137MOL0     C18836   9.275   7.659   3.666  0.1805  0.2736  0.0172
  137MOL0     H18837   9.070   7.221   4.116  1.7059 -0.7852  0.1169
  137MOL0     H18838   8.952   7.016   4.127  1.0255 -1.3339 -0.0564
  137MOL0     H18839   8.794   6.877   4.041  1.7064  0.0062  2.0444
  137MOL0     H18840   8.909   6.777   4.108 -1.2637  3.0010  0.9036
  137MOL0     H18841   8.703   6.649   4.050 -1.6224  1.9851 -0.8931
  137MOL0     H18842   8.712   6.696   3.878  2.4149  2.9915 -0.3812
  137MOL0     H18843   8.896   6.569   3.829  0.7708  3.1063 -0.1966
  137MOL0     H18844   8.943   6.531   3.989  1.6309  1.2688 -3.4564
  137MOL0     H18845   8.663   6.435   3.955  0.0832 -3.0160  1.4843
  137MOL0     H18846   8.770   6.395   3.802  1.3989  2.5849 -1.7371
  137MOL0     H18847   8.819   6.323   4.093 -1.0841 -4.7783  0.1880
  137MOL0     H18848   8.931   6.297   3.950  0.3655 -0.2995  0.5602
  137MOL0     H18849   8.647   6.199   3.980 -1.3504 -0.2609 -0.8817
  137MOL0     H18850   8.761   6.124   3.866  1.5767 -1.0618  1.6761
  137MOL0     H18851   8.735   5.974   4.047 -6.0686  3.3780  0.6540
  137MOL0     H18852   8.754   6.100   4.168 -1.8382  0.0105  0.0267
  137MOL0     H18853   8.979   6.032   3.975  0.7715 -4.4671  0.6153
  137MOL0     H18854   8.975   6.135   4.126 -0.9752  0.8080  0.2872
  137MOL0     H18855   8.879   5.955   4.333  0.6194  0.5967 -0.9247
  137MOL0     H18856   9.052   5.838   4.528 -0.2210  1.9309 -1.6406
  137MOL0     H18857   9.184   5.730   4.459 -0.3138 -2.9594 -0.6483
  137MOL0     H18858   8.897   5.632   4.448 -0.5690 -2.8010  0.9627
  137MOL0     H18859   9.061   5.553   4.428  0.1985  1.7885 -3.0567
  137MOL0     H18860   9.006   5.701   4.690  2.2794 -1.7915  3.2619
  137MOL0     H18861   8.896   5.561   4.661  0.5180  1.2105  2.3987
  137MOL0     H18862   9.092   5.410   4.674  2.0666 -0.6827  0.8815
  137MOL0     H18863   9.203   5.537   4.631  0.5568  2.1380  0.6889
  137MOL0     H18864   8.891   5.612   4.875 -0.5193  0.7839  0.1334
  137MOL0     H18865   8.681   5.625   5.006  1.0658 -0.4368  0.9266
  137MOL0     H18866   8.686   5.584   5.179  0.0317  1.9708 -0.4193
  137MOL0     H18867   8.657   5.449   5.066 -0.0558 -0.6242  0.5556
  137MOL0     H18868   8.536   5.494   5.459  0.1277  1.7240  0.5674
  137MOL0     H18869   8.459   5.384   5.666  0.6988  2.2743 -0.0433
  137MOL0     H18870   8.407   5.195   5.748  1.6192  2.8151 -0.0827
  137MOL0     H18871   8.536   5.079   5.698  0.2957 -2.7351  2.1663
  137MOL0     H18872   8.434   4.950   5.861  3.6019 -2.0853  1.6410
  137MOL0     H18873   8.540   5.041   5.961 -0.5812 -0.1884  0.3455
  137MOL0     H18874   8.252   5.118   5.915 -1.2378 -0.1788  2.2480
  137MOL0     H18875   8.365   5.204   6.019 -2.6856  0.7510  2.0066
  137MOL0     H18876   8.395   4.986   6.136  1.2414  0.6509 -2.2252
  137MOL0     H18877   8.245   4.927   6.052 -1.9996  1.8363 -2.0206
  137MOL0     H18878   8.175   5.018   6.265 -0.5089 -2.3861 -3.2793
  137MOL0     H18879   8.261   5.171   6.238 -0.0427 -1.1686  0.6031
  137MOL0     H18880   8.056   5.064   6.048  1.2162 -1.7761  2.5477
  137MOL0     H18881   8.113   5.235   6.049 -1.4621 -2.7126 -3.6339
  137MOL0     H18882   8.020   5.222   6.306  1.5713 -0.1535 -1.1740
  137MOL0     H18883   7.952   5.066   6.248 -3.2566 -0.0449 -2.7061
  137MOL0     H18884   7.875   5.342   6.164 -1.7534 -0.7714  0.1921
  137MOL0     H18885   7.776   5.230   6.249  2.3415 -0.8167  2.7963
  137MOL0     H18886   8.856   5.328   5.786 -0.3238  1.1291  0.9621
  137MOL0     H18887   8.938   5.431   5.578 -0.2269  3.3702  0.2184
  137MOL0     H18888   9.127   5.383   5.239 -2.3623 -1.0055  2.6197
  137MOL0     H18889   9.236   5.450   5.030 -0.2845  3.9095 -0.3933
  137MOL0     H18890   9.077   6.923   3.725  2.6997  4.0999 -2.1884
  137MOL0     H18891   9.165   7.139   3.703 -3.5296 -0.3659 -1.6138
  137MOL0     H18892   9.356   7.440   4.078 -1.5903  0.4850 -0.9006
  137MOL0     H18893   9.565   7.567   4.111 -0.9657 -2.4312  0.7822
  137MOL0     H18894   9.736   7.710   3.731  3.0771 -2.1635 -0.0545
  137MOL0     H18895   9.689   7.862   3.788 -1.5960 -0.8130  0.3930
  137MOL0     H18896   9.941   7.854   3.771  0.9430  1.6883  1.0832
  137MOL0     H18897   9.955   7.706   3.858 -3.0332 -1.4283 -1.7348
  137MOL0     H18898   9.908   7.819   4.067  2.2990 -2.6764 -0.4327
  137MOL0     H18899  10.043   7.892   3.964  0.3626 -1.8993 -2.2638
  137MOL0     H18900   9.867   8.041   4.087 -2.8960 -0.1639  0.6703
  137MOL0     H18901   9.742   7.984   3.977  0.6253 -0.6733 -3.0400
  137MOL0     H18902   9.962   8.266   3.745  0.8865 -0.0153  0.6097
  137MOL0     H18903   9.502   7.743   3.735 -2.0163  1.0637  0.1116
  137MOL0     H18904   9.345   7.722   3.610  2.8796 -0.8128  1.9082
  137MOL0     H18905   9.240   7.575   3.605 -4.1594  0.4129  1.9221
  137MOL0     H18906   9.189   7.716   3.701  0.5349  0.1697  1.1135
  138MOL0     O18907   7.313   5.893   4.861  0.3894  0.2784  0.0324
  138MOL0     C18908   7.287   5.777   4.813  0.3990 -1.2158 -0.5338
  138MOL0     O18909   7.161   5.719   4.830 -0.5253  0.1799  0.1780
  138MOL0     C18910   7.068   5.795   4.898  0.2329 -0.0882  0.0442
  138MOL0     C18911   6.961   5.871   4.836  0.6824 -0.5357 -0.3808
  138MOL0     C18912   6.868   5.947   4.908 -0.0414  0.7042  0.9800
  138MOL0     C18913   6.882   5.956   5.046 -0.3294 -1.1398  0.0968
  138MOL0     O18914   6.819   6.049   5.131 -0.8097  0.1897 -0.0174
  138MOL0     C18915   6.676   6.084   5.106  0.4020  0.3324 -1.0099
  138MOL0     C18916   6.638   6.214   5.176 -0.5436 -0.5085  0.3259
  138MOL0     C18917   6.728   6.329   5.110 -0.4001 -0.8954 -0.1420
  138MOL0     C18918   6.662   6.455   5.163  0.4624 -0.9288 -0.2420
  138MOL0     C18919   6.733   6.598   5.125 -0.0839 -0.3267 -0.4838
  138MOL0     C18920   6.864   6.604   5.196  1.3199 -1.0476 -0.1447
  138MOL0     C18921   6.909   6.750   5.210 -0.4628 -0.4019 -0.4103
  138MOL0     C18922   7.062   6.757   5.238  0.3028  0.4556 -0.1923
  138MOL0     N18923   7.106   6.701   5.366 -0.4404 -0.1407  0.3837
  138MOL0     C18924   7.139   6.574   5.386 -0.1678 -0.9776  0.2790
  138MOL0     C18925   7.163   6.573   5.524 -0.2814  0.3023  0.0681
  138MOL0     C18926   7.216   6.448   5.605  0.6789 -0.5895  0.1865
  138MOL0     C18927   7.107   6.344   5.643 -0.4326  0.0612  0.0331
  138MOL0     C18928   7.060   6.241   5.541 -0.0984  0.2874 -0.1142
  138MOL0     C18929   6.946   6.156   5.600 -0.3480  0.8309 -0.8153
  138MOL0     O18930   6.916   6.050   5.510 -0.3216  0.3264 -0.5557
  138MOL0     C18931   6.785   6.008   5.499  0.1985  0.6147  0.0659
  138MOL0     C18932   6.664   6.078   5.540 -0.5549 -0.3857  0.4985
  138MOL0     C18933   6.537   6.041   5.519  0.5656 -0.7302  0.0491
  138MOL0     C18934   6.423   6.108   5.577 -0.8987 -0.3136 -0.3059
  138MOL0     C18935   6.516   5.919   5.446  0.6942  0.2833 -0.0617
  138MOL0     C18936   6.388   5.869   5.392 -0.7207  0.0119 -0.1990
  138MOL0     O18937   6.277   5.886   5.460 -0.8813 -0.6295 -0.6099
  138MOL0     C18938   6.151   5.892   5.402  0.0407 -0.7879  1.1377
  138MOL0     C18939   6.121   5.981   5.296 -0.7257  0.7683 -0.2124
  138MOL0     C18940   6.003   5.970   5.235 -0.1496  0.0448  0.5031
  138MOL0     C18941   5.898   5.882   5.281 -0.3138  0.4402  0.3370
  138MOL0     O18942   5.780   5.878   5.217 -0.6291 -0.3659  0.0859
  138MOL0     C18943   5.661   5.846   5.297  0.0839  0.8742 -1.1965
  138MOL0     C18944   5.545   5.869   5.196  0.0661  0.1259 -0.4749
  138MOL0     C18945   5.415   5.781   5.213  0.4259 -0.4013  0.4508
  138MOL0     C18946   5.382   5.743   5.366  0.2994  0.2949 -0.3343
  138MOL0     C18947   5.256   5.661   5.397  0.1807 -0.1382  0.7991
  138MOL0     C18948   5.255   5.518   5.336  0.2314 -0.2737  0.0107
  138MOL0     C18949   5.139   5.435   5.382 -0.0873  0.4537 -0.2462
  138MOL0     C18950   5.188   5.290   5.355 -0.6215 -0.1484  0.4709
  138MOL0    Cl18951   5.187   5.224   5.200  0.7723 -0.1686 -0.3102
  138MOL0     C18952   5.924   5.795   5.394 -0.0185  0.0343  1.7400
  138MOL0     C18953   6.056   5.803   5.451  0.4792  0.6060  0.5577
  138MOL0     O18954   6.390   5.811   5.285  0.0181  0.0307 -0.3343
  138MOL0     C18955   6.631   5.853   5.400 -1.1054 -0.0673  0.7404
  138MOL0     C18956   6.764   5.888   5.424  0.1974 -0.0372  0.2959
  138MOL0     N18957   7.154   6.699   5.576  0.3232  0.6680 -0.2911
  138MOL0     N18958   7.114   6.772   5.484 -0.0301 -0.4465 -0.1456
  138MOL0     C18959   6.983   5.873   5.103  0.6751 -0.3182  0.1846
  138MOL0     C18960   7.074   5.799   5.035  0.5044  0.6936  0.9508
  138MOL0     C18961   7.386   5.720   4.724 -1.2460 -0.1664  0.0865
  138MOL0     C18962   7.341   5.664   4.606  0.1835  0.0321  0.6546
  138MOL0     C18963   7.431   5.629   4.509 -0.2611 -0.1644 -0.6921
  138MOL0     C18964   7.571   5.625   4.524  0.5435 -0.0987  0.3745
  138MOL0     O18965   7.648   5.576   4.413 -0.5111  0.1109  0.1851
  138MOL0     C18966   7.794   5.582   4.428 -0.7618 -0.1508  0.4226
  138MOL0     C18967   7.859   5.523   4.305 -0.4028 -0.0878  0.4718
  138MOL0     C18968   7.844   5.631   4.193 -0.0020  0.1852  0.4346
  138MOL0     C18969   7.971   5.726   4.180  0.0166 -0.0263 -0.6245
  138MOL0     C18970   7.936   5.849   4.101 -0.7603  0.0465  0.8527
  138MOL0     C18971   7.897   5.942   4.036  0.3493 -0.3566 -0.1756
  138MOL0     C18972   7.619   5.673   4.648 -0.7142 -0.2698 -0.0574
  138MOL0     C18973   7.526   5.731   4.747  0.1029 -1.1515  0.8233
  138MOL0     C18974   7.580   5.792   4.873  0.5480  0.0823 -0.7583
  138MOL0     H18975   6.955   5.883   4.728 -0.9329  4.1446  0.0010
  138MOL0     H18976   6.781   5.982   4.854 -0.2190  2.0961  2.0931
  138MOL0     H18977   6.609   6.001   5.130 -1.1602  0.8628 -3.2255
  138MOL0     H18978   6.655   6.101   5.000 -1.1409  1.4743 -0.5609
  138MOL0     H18979   6.531   6.224   5.160 -0.8984 -2.5037  1.1321
  138MOL0     H18980   6.658   6.210   5.284  1.1042 -2.1596  0.0244
  138MOL0     H18981   6.833   6.324   5.141 -0.6305 -2.5601  0.4593
  138MOL0     H18982   6.735   6.338   5.001  1.4528  0.4651  0.0395
  138MOL0     H18983   6.560   6.447   5.124  2.1706  0.2105 -5.7810
  138MOL0     H18984   6.645   6.450   5.271 -1.3062  2.0133 -0.2917
  138MOL0     H18985   6.676   6.683   5.164  0.0318 -0.8961  0.9563
  138MOL0     H18986   6.738   6.626   5.019 -0.8318 -0.4274 -0.5514
  138MOL0     H18987   6.847   6.566   5.298 -2.8657  2.2728  0.6797
  138MOL0     H18988   6.925   6.535   5.137  1.7236  0.4454 -1.5235
  138MOL0     H18989   6.849   6.800   5.287  2.3098  0.8416  1.0731
  138MOL0     H18990   6.880   6.809   5.122 -4.2497  1.4670  1.8050
  138MOL0     H18991   7.109   6.700   5.157  0.0450 -0.7656  0.4797
  138MOL0     H18992   7.095   6.861   5.231  2.9312 -0.4233 -2.4723
  138MOL0     H18993   7.139   6.495   5.312 -0.1521 -1.1872  0.4998
  138MOL0     H18994   7.269   6.490   5.690 -0.0065  1.2187 -0.2380
  138MOL0     H18995   7.290   6.409   5.534  0.5667  0.5181 -0.5736
  138MOL0     H18996   7.150   6.299   5.733 -0.0626 -0.3720 -0.3551
  138MOL0     H18997   7.014   6.390   5.679 -0.5017 -1.0650  1.4111
  138MOL0     H18998   7.019   6.286   5.450 -0.0579  1.7236  0.5607
  138MOL0     H18999   7.147   6.181   5.515  0.7749  2.1683 -1.7671
  138MOL0     H19000   6.979   6.115   5.696 -0.9287 -0.8382 -1.2898
  138MOL0     H19001   6.872   6.235   5.612  1.0176  2.0112  0.3108
  138MOL0     H19002   6.671   6.174   5.589  0.9324  0.1444 -0.6702
  138MOL0     H19003   6.335   6.108   5.512  0.2607 -1.0173 -1.9328
  138MOL0     H19004   6.438   6.213   5.601  0.0490 -0.2345 -1.1914
  138MOL0     H19005   6.391   6.058   5.669 -2.2630 -0.2210 -0.7020
  138MOL0     H19006   6.202   6.042   5.259  1.3571 -0.5713  1.8019
  138MOL0     H19007   6.001   6.041   5.153 -1.2290  0.0282  0.5058
  138MOL0     H19008   5.661   5.742   5.334 -1.4613  1.4411  0.5538
  138MOL0     H19009   5.660   5.918   5.379 -2.9608 -0.9820  0.5686
  138MOL0     H19010   5.518   5.975   5.210  0.4853  0.0682  0.9878
  138MOL0     H19011   5.589   5.853   5.098  0.7015 -1.0335 -0.0133
  138MOL0     H19012   5.430   5.685   5.163  1.8887 -0.1158  0.3016
  138MOL0     H19013   5.324   5.819   5.166  0.6035 -2.1595 -1.4706
  138MOL0     H19014   5.373   5.839   5.418 -2.1223  0.3785 -0.8023
  138MOL0     H19015   5.470   5.696   5.411  0.7518 -1.0824 -2.4873
  138MOL0     H19016   5.249   5.646   5.505  1.6077  0.1687  0.9556
  138MOL0     H19017   5.164   5.712   5.367  0.0547  0.6744  2.4281
  138MOL0     H19018   5.353   5.477   5.362  1.7730  2.7891 -0.4956
  138MOL0     H19019   5.248   5.529   5.228 -0.7581  2.1522  0.2354
  138MOL0     H19020   5.045   5.457   5.330 -1.4344  1.0604  2.2844
  138MOL0     H19021   5.122   5.447   5.489  0.5294 -1.7648  0.1314
  138MOL0     H19022   5.120   5.229   5.415 -0.8581 -0.4863 -0.1342
  138MOL0     H19023   5.284   5.277   5.405 -0.4751 -1.2462 -0.0811
  138MOL0     H19024   5.859   5.714   5.426  0.7593 -0.5238  1.9312
  138MOL0     H19025   6.077   5.744   5.540  1.2758  1.6342  1.0734
  138MOL0     H19026   6.621   5.765   5.336  2.6578 -2.8123  3.4444
  138MOL0     H19027   6.834   5.836   5.359 -1.0270 -0.5196 -0.6817
  138MOL0     H19028   6.995   5.880   5.211  1.6358 -3.0412  0.3267
  138MOL0     H19029   7.164   5.767   5.085 -0.1186  0.3410  1.8712
  138MOL0     H19030   7.235   5.657   4.583  0.1960  2.3833 -0.3984
  138MOL0     H19031   7.372   5.594   4.426 -3.0111  2.7014 -0.1494
  138MOL0     H19032   7.821   5.688   4.430 -0.4221 -0.1521 -1.5610
  138MOL0     H19033   7.826   5.529   4.518  1.0898 -0.4972 -0.3896
  138MOL0     H19034   7.814   5.425   4.284  3.1414 -2.0321  1.1389
  138MOL0     H19035   7.966   5.511   4.327  0.1146  2.2470 -0.4237
  138MOL0     H19036   7.840   5.592   4.091  1.2049  0.2421  0.3522
  138MOL0     H19037   7.751   5.686   4.209  0.0378 -0.2314  2.2643
  138MOL0     H19038   8.037   5.664   4.120 -0.2669 -1.2079  0.2392
  138MOL0     H19039   8.021   5.753   4.273 -0.0358  0.8190 -0.8256
  138MOL0     H19040   7.852   6.020   3.977  1.7544  0.6862  0.0801
  138MOL0     H19041   7.726   5.679   4.665 -0.6531 -1.1956 -0.0729
  138MOL0     H19042   7.689   5.784   4.871  0.6945  1.6441 -0.1949
  138MOL0     H19043   7.553   5.897   4.884 -1.6907 -0.5793  0.9472
  138MOL0     H19044   7.541   5.746   4.965  1.3573  2.5782  0.9307
  139MOL0     O19045   3.545   7.266   7.076 -0.1375 -0.0875 -0.3180
  139MOL0     C19046   3.572   7.368   7.138 -0.1882 -0.2499  0.0467
  139MOL0     O19047   3.537   7.493   7.102 -0.1310  0.0236 -0.4208
  139MOL0     C19048   3.494   7.525   6.978 -0.0891  0.1033  0.0656
  139MOL0     C19049   3.524   7.447   6.860  0.1703 -0.2469 -0.5242
  139MOL0     C19050   3.471   7.486   6.739 -0.2274 -0.1819  0.2665
  139MOL0     C19051   3.396   7.597   6.728  0.4845 -0.5950  1.5337
  139MOL0     O19052   3.362   7.624   6.610 -0.3667  0.5410  0.3748
  139MOL0     C19053   3.446   7.712   6.531 -0.0200 -0.2167 -0.3090
  139MOL0     C19054   3.351   7.795   6.442  0.4350 -0.1365  0.0240
  139MOL0     C19055   3.427   7.859   6.330  0.3177  0.6598 -0.4567
  139MOL0     C19056   3.481   7.756   6.223 -0.0746  0.1501 -0.3220
  139MOL0     C19057   3.478   7.814   6.091  0.4639  0.4014  0.8669
  139MOL0     C19058   3.542   7.708   6.005  0.4601 -0.2198 -1.8244
  139MOL0     C19059   3.557   7.755   5.858  0.4308  0.1464 -0.3610
  139MOL0     C19060   3.636   7.647   5.788 -1.2954 -0.2998 -0.3035
  139MOL0     N19061   3.639   7.659   5.642  0.2187  0.7552 -0.6369
  139MOL0     C19062   3.693   7.769   5.581 -0.4414  0.3034  0.1815
  139MOL0     C19063   3.657   7.765   5.452 -0.4161 -0.3162  0.7374
  139MOL0     C19064   3.662   7.864   5.338  0.2658  0.0244 -0.2101
  139MOL0     C19065   3.809   7.891   5.298 -0.3199  0.1987 -0.1825
  139MOL0     C19066   3.815   7.995   5.185 -0.2932 -0.0807 -0.0691
  139MOL0     C19067   3.935   7.966   5.087  0.0717 -0.5364  0.0780
  139MOL0     O19068   3.891   7.974   4.949 -0.5907  0.0260 -0.5191
  139MOL0     C19069   3.989   7.957   4.853  0.5239 -0.5908  0.8231
  139MOL0     C19070   4.108   7.886   4.865 -0.3509  0.2034  0.2536
  139MOL0     C19071   4.198   7.884   4.756 -0.2622  0.7519 -0.0130
  139MOL0     C19072   4.335   7.819   4.798  0.3031  0.0257  0.7661
  139MOL0     C19073   4.165   7.930   4.629 -0.1303 -0.3311 -0.1216
  139MOL0     C19074   4.251   7.922   4.499 -0.6034  0.0974  0.5247
  139MOL0     O19075   4.183   7.944   4.383 -0.6367  0.1090 -0.0568
  139MOL0     C19076   4.239   7.900   4.273  0.6481  0.6579  0.1009
  139MOL0     C19077   4.269   7.994   4.173  0.5479 -0.9395 -0.3186
  139MOL0     C19078   4.305   7.960   4.047 -0.5440  0.1509  0.6714
  139MOL0     C19079   4.319   7.826   4.009 -0.1967 -0.3698 -0.1792
  139MOL0     O19080   4.351   7.797   3.876  0.5200 -0.5768 -1.1803
  139MOL0     C19081   4.379   7.667   3.838 -0.0623  1.1128 -0.3773
  139MOL0     C19082   4.249   7.580   3.810 -0.6329  0.3299  0.1692
  139MOL0     C19083   4.275   7.429   3.779 -0.0042  1.0413  0.1331
  139MOL0     C19084   4.320   7.416   3.638  0.0906 -0.7429 -0.0555
  139MOL0     C19085   4.343   7.268   3.610 -0.4160  0.0544  0.5778
  139MOL0     C19086   4.424   7.237   3.479  0.0123  0.4570 -0.9526
  139MOL0     C19087   4.445   7.090   3.468  1.0990 -0.0502  0.6821
  139MOL0     C19088   4.548   7.048   3.371  0.6184  0.0356  0.3072
  139MOL0    Cl19089   4.539   6.866   3.366 -0.3133 -0.0424  0.0111
  139MOL0     C19090   4.299   7.728   4.111  0.5375  0.1914 -0.5361
  139MOL0     C19091   4.252   7.766   4.239  0.0928 -0.3015  0.2530
  139MOL0     O19092   4.371   7.891   4.502 -0.3517 -0.4394  0.2636
  139MOL0     C19093   4.039   7.984   4.612  0.2730 -0.4818 -0.3429
  139MOL0     C19094   3.953   8.000   4.721 -0.8559 -0.4360 -0.3046
  139MOL0     N19095   3.578   7.653   5.441 -0.7680 -1.0598 -0.9436
  139MOL0     N19096   3.553   7.596   5.554 -0.0961  0.0156 -0.1247
  139MOL0     C19097   3.366   7.680   6.836  0.1416  1.4530 -0.8858
  139MOL0     C19098   3.422   7.644   6.963  0.1917  0.4006  0.6722
  139MOL0     C19099   3.609   7.335   7.278  0.4682  0.0041  0.3950
  139MOL0     C19100   3.603   7.441   7.364 -0.2916  0.6159  0.1771
  139MOL0     C19101   3.643   7.425   7.498  0.0623 -0.5335 -0.1734
  139MOL0     C19102   3.686   7.299   7.550 -0.6479 -1.0784 -0.0417
  139MOL0     O19103   3.708   7.275   7.687  0.3879 -0.7195 -0.1493
  139MOL0     C19104   3.647   7.165   7.754 -0.9951 -1.2566  1.0923
  139MOL0     C19105   3.494   7.169   7.766 -0.2438 -0.2769  0.0417
  139MOL0     C19106   3.429   7.292   7.832 -0.7324 -0.2447  0.5793
  139MOL0     C19107   3.444   7.300   7.986 -0.8697  0.8998 -0.1900
  139MOL0     C19108   3.476   7.438   8.023 -0.0082 -0.4345 -0.3379
  139MOL0     C19109   3.498   7.557   8.054 -0.0471  0.3562 -0.7369
  139MOL0     C19110   3.701   7.192   7.456  0.8358  0.5726  0.3082
  139MOL0     C19111   3.659   7.209   7.322 -0.3124 -0.0862 -0.1199
  139MOL0     C19112   3.675   7.078   7.237  0.0578 -0.5647  1.1903
  139MOL0     H19113   3.586   7.359   6.853 -2.9058 -2.5285 -1.3043
  139MOL0     H19114   3.501   7.437   6.646  1.2712 -0.8246  1.0515
  139MOL0     H19115   3.516   7.652   6.472 -0.8731  0.2200 -1.8206
  139MOL0     H19116   3.494   7.791   6.589 -0.0288 -0.2615 -0.2404
  139MOL0     H19117   3.278   7.727   6.396  0.2742  0.6002 -0.8356
  139MOL0     H19118   3.305   7.872   6.505  0.8944 -1.1424  1.6536
  139MOL0     H19119   3.359   7.930   6.283 -0.9605 -0.1143  0.1721
  139MOL0     H19120   3.510   7.918   6.370  1.7360 -1.4091 -0.1667
  139MOL0     H19121   3.588   7.739   6.235  0.8500  2.5192 -3.8047
  139MOL0     H19122   3.439   7.657   6.241 -0.4687  0.7244  2.4843
  139MOL0     H19123   3.530   7.905   6.060 -0.2283  0.4048 -0.3447
  139MOL0     H19124   3.373   7.827   6.061  0.5894  0.4005  0.4312
  139MOL0     H19125   3.634   7.668   6.050  2.0646 -0.7059 -5.1758
  139MOL0     H19126   3.471   7.624   6.001 -0.5433  0.3671  1.3302
  139MOL0     H19127   3.612   7.848   5.845  2.4967 -1.1536 -1.3129
  139MOL0     H19128   3.455   7.772   5.821 -0.4771 -0.0814  1.8553
  139MOL0     H19129   3.737   7.628   5.826 -0.9355  1.5654 -0.2363
  139MOL0     H19130   3.578   7.555   5.798 -0.9850 -0.4165  0.4652
  139MOL0     H19131   3.753   7.842   5.635  2.9624 -3.3431  1.7977
  139MOL0     H19132   3.613   7.961   5.352  0.8467  0.0628  1.9655
  139MOL0     H19133   3.606   7.809   5.262 -4.3377  2.1191  1.3183
  139MOL0     H19134   3.872   7.913   5.385 -2.2958  0.1613  1.3426
  139MOL0     H19135   3.851   7.802   5.250 -2.2509 -0.2555 -1.1480
  139MOL0     H19136   3.721   8.002   5.129 -1.6404 -0.7043  1.9764
  139MOL0     H19137   3.835   8.094   5.227 -1.1529 -0.9759  2.6672
  139MOL0     H19138   4.005   8.049   5.097 -1.1429  0.3766  1.4529
  139MOL0     H19139   3.987   7.873   5.113  1.8515  0.8233  1.6281
  139MOL0     H19140   4.119   7.825   4.954  0.7803 -0.0732 -0.0594
  139MOL0     H19141   4.390   7.881   4.870  2.5106 -1.5327  0.5050
  139MOL0     H19142   4.403   7.786   4.719  0.7488 -0.7945  1.4677
  139MOL0     H19143   4.313   7.720   4.839 -0.2291  0.3240  1.2213
  139MOL0     H19144   4.261   8.100   4.196 -0.5857 -0.4867 -2.5905
  139MOL0     H19145   4.319   8.032   3.967  1.5880 -0.9044  0.0198
  139MOL0     H19146   4.456   7.659   3.761  0.3080  0.4668  0.0477
  139MOL0     H19147   4.421   7.613   3.923 -4.8473 -0.0186  1.6155
  139MOL0     H19148   4.194   7.578   3.905 -1.9484  0.8808 -0.5546
  139MOL0     H19149   4.185   7.625   3.734 -0.7485  0.8118  0.5478
  139MOL0     H19150   4.182   7.373   3.788  0.0805  1.1151  1.6404
  139MOL0     H19151   4.341   7.392   3.858 -0.1820  3.3487  1.4441
  139MOL0     H19152   4.414   7.471   3.638 -0.8905  1.1590  2.5755
  139MOL0     H19153   4.242   7.466   3.579  2.3792  0.6857 -2.0803
  139MOL0     H19154   4.391   7.221   3.696  1.5575  0.6416 -0.1497
  139MOL0     H19155   4.245   7.226   3.589  0.4769 -0.6941 -2.6198
  139MOL0     H19156   4.519   7.291   3.487  0.6210 -0.6033 -0.9022
  139MOL0     H19157   4.377   7.278   3.389 -1.7844  0.3893 -0.0698
  139MOL0     H19158   4.354   7.035   3.445  1.0597  0.6271 -0.8851
  139MOL0     H19159   4.481   7.064   3.569  3.1989  0.5986  0.1578
  139MOL0     H19160   4.644   7.083   3.409 -1.6322  2.5976  4.2921
  139MOL0     H19161   4.533   7.082   3.268 -2.1392 -0.0445  0.5871
  139MOL0     H19162   4.310   7.621   4.098  2.9130 -0.5303  4.8326
  139MOL0     H19163   4.220   7.685   4.304 -0.9116 -0.4864 -0.4581
  139MOL0     H19164   3.988   8.007   4.518 -3.1796 -2.2621  0.8899
  139MOL0     H19165   3.851   8.035   4.702 -0.4264 -0.3314 -2.7268
  139MOL0     H19166   3.306   7.770   6.831  1.0314  2.0389 -1.3094
  139MOL0     H19167   3.402   7.715   7.042 -1.4138  1.0630 -0.2825
  139MOL0     H19168   3.578   7.542   7.332  2.0276  1.2523  0.1974
  139MOL0     H19169   3.630   7.497   7.579 -1.2338 -1.5128  0.5479
  139MOL0     H19170   3.677   7.071   7.706  0.7500 -1.0189  1.6534
  139MOL0     H19171   3.685   7.152   7.856 -0.8519 -0.3103  1.1713
  139MOL0     H19172   3.467   7.086   7.832  0.4917  1.0872  2.1591
  139MOL0     H19173   3.446   7.139   7.672  2.4462 -0.9040 -1.2072
  139MOL0     H19174   3.484   7.375   7.785  1.5498 -2.4591 -0.9245
  139MOL0     H19175   3.323   7.299   7.809 -0.2944 -0.2406 -1.6778
  139MOL0     H19176   3.527   7.234   8.013 -1.2726 -0.3144 -1.7635
  139MOL0     H19177   3.357   7.264   8.042  0.5491  0.2580  1.7162
  139MOL0     H19178   3.540   7.655   8.063 -1.5461  0.8007  3.7483
  139MOL0     H19179   3.736   7.099   7.500  0.8578  1.4628  2.2577
  139MOL0     H19180   3.716   7.104   7.139 -2.9595  1.5560  0.3653
  139MOL0     H19181   3.752   7.015   7.283  1.8030  1.1270  0.7388
  139MOL0     H19182   3.587   7.016   7.221  0.3475 -0.6300 -0.2360
  140MOL0     O19183   8.753  10.737   8.585 -0.4956  0.4645 -0.7334
  140MOL0     C19184   8.665  10.655   8.628 -1.0144  0.5965 -0.0071
  140MOL0     O19185   8.619  10.542   8.555  0.1116 -0.2884 -0.0006
  140MOL0     C19186   8.653  10.532   8.425  0.7171 -0.1987  0.7861
  140MOL0     C19187   8.768  10.475   8.384 -0.5408  0.6699 -0.7564
  140MOL0     C19188   8.806  10.451   8.252  0.4816  0.4627  0.0854
  140MOL0     C19189   8.711  10.486   8.155 -0.5704 -0.7411  0.5636
  140MOL0     O19190   8.749  10.467   8.023 -0.2276  0.2167 -0.4068
  140MOL0     C19191   8.823  10.565   7.953  0.7100 -0.7800  0.3482
  140MOL0     C19192   8.914  10.499   7.841  0.3128  0.3867  0.5171
  140MOL0     C19193   8.948  10.609   7.747  0.1513 -1.0182  0.4632
  140MOL0     C19194   9.059  10.568   7.646 -0.5010 -0.4569 -0.3590
  140MOL0     C19195   9.118  10.677   7.559  1.1530  0.3118 -0.0845
  140MOL0     C19196   8.998  10.717   7.463  0.6065  0.2408 -0.1053
  140MOL0     C19197   9.017  10.856   7.402 -0.3268  0.2995  0.2568
  140MOL0     C19198   8.966  10.866   7.255  0.3269 -0.1875 -0.0922
  140MOL0     N19199   8.978  11.008   7.202 -0.3765  0.2278  0.3616
  140MOL0     C19200   9.096  11.072   7.180 -0.8128  0.7201  1.0736
  140MOL0     C19201   9.056  11.194   7.149  0.8415 -0.3493 -0.5494
  140MOL0     C19202   9.146  11.311   7.131  0.2670  0.3216 -0.7778
  140MOL0     C19203   9.226  11.335   7.260  1.3096  0.9886 -0.1979
  140MOL0     C19204   9.221  11.478   7.304  0.0842 -0.0194 -0.4628
  140MOL0     C19205   9.305  11.583   7.229 -0.0468  0.4451 -0.6898
  140MOL0     O19206   9.429  11.523   7.215 -0.8439  0.4668  0.1996
  140MOL0     C19207   9.514  11.589   7.129 -0.2679 -0.5083 -0.2443
  140MOL0     C19208   9.481  11.718   7.068 -0.0151  0.0632  0.1553
  140MOL0     C19209   9.577  11.775   6.983  0.2127 -0.1473  0.8555
  140MOL0     C19210   9.548  11.906   6.925  0.1604  0.0441  0.3185
  140MOL0     C19211   9.702  11.711   6.966 -0.3691  0.2179  0.6279
  140MOL0     C19212   9.808  11.754   6.873  0.0799 -0.5953  0.2492
  140MOL0     O19213   9.883  11.651   6.814  0.0280  0.0076  0.4712
  140MOL0     C19214  10.019  11.678   6.785  0.1174 -0.6664 -0.4236
  140MOL0     C19215  10.070  11.626   6.665 -0.3478 -0.0140  0.6281
  140MOL0     C19216  10.203  11.645   6.637  0.4388 -0.0078  0.5321
  140MOL0     C19217  10.285  11.717   6.727 -0.2484 -0.4210 -0.5352
  140MOL0     O19218  10.416  11.715   6.698 -0.0625 -0.5004 -0.5291
  140MOL0     C19219  10.515  11.775   6.782 -0.1832  0.1568 -0.4339
  140MOL0     C19220  10.657  11.738   6.745  0.3828 -0.5034  0.4843
  140MOL0     C19221  10.660  11.597   6.735  0.8120 -0.1532  0.5604
  140MOL0     C19222  10.803  11.545   6.707  0.2454 -0.4494  0.2969
  140MOL0     C19223  10.805  11.398   6.739 -0.0057  0.0526 -1.1951
  140MOL0     C19224  10.938  11.333   6.712  0.5481 -0.0237  0.5039
  140MOL0     C19225  10.945  11.188   6.758 -0.2415  0.5875  0.0690
  140MOL0     C19226  11.079  11.125   6.715  0.3089  0.2102  0.7549
  140MOL0    Cl19227  11.055  11.080   6.539  0.3358 -0.3654 -0.1143
  140MOL0     C19228  10.234  11.768   6.845  0.7943  1.9105 -0.1320
  140MOL0     C19229  10.102  11.731   6.882 -0.3447  0.1401  0.2345
  140MOL0     O19230   9.829  11.873   6.850  0.3785  0.7328  0.0326
  140MOL0     C19231   9.728  11.586   7.025 -0.6589  0.3582  0.1421
  140MOL0     C19232   9.635  11.526   7.110 -0.0644 -0.4251  0.2726
  140MOL0     N19233   8.918  11.204   7.137  0.0063 -0.0782 -0.3313
  140MOL0     N19234   8.874  11.084   7.174 -0.8707  1.2275 -0.6424
  140MOL0     C19235   8.589  10.540   8.189 -0.0764  0.0130 -0.0928
  140MOL0     C19236   8.563  10.561   8.326  0.6249  0.2290  0.1459
  140MOL0     C19237   8.638  10.650   8.778 -0.3638 -0.2061  0.2865
  140MOL0     C19238   8.593  10.527   8.837  0.2919 -0.5872  0.2943
  140MOL0     C19239   8.571  10.512   8.976  0.4540  0.5127 -0.9003
  140MOL0     C19240   8.598  10.623   9.064  0.0430 -0.3630 -0.4355
  140MOL0     O19241   8.577  10.617   9.202  0.2288 -0.9149  0.3583
  140MOL0     C19242   8.549  10.494   9.259  0.2818  0.1604  0.3939
  140MOL0     C19243   8.671  10.402   9.248  0.3170 -0.0213  0.3586
  140MOL0     C19244   8.652  10.266   9.319 -0.2502 -0.0040 -0.2683
  140MOL0     C19245   8.775  10.185   9.356 -0.0105 -0.0979  0.4208
  140MOL0     C19246   8.744  10.092   9.462  1.2689  0.0569 -0.1668
  140MOL0     C19247   8.744   9.997   9.533  0.9693 -0.1114  0.8152
  140MOL0     C19248   8.638  10.742   9.002 -0.5987  0.9742 -0.3456
  140MOL0     C19249   8.662  10.755   8.866  0.4391 -0.0540  1.1565
  140MOL0     C19250   8.701  10.898   8.817  0.8890  0.8060 -0.0461
  140MOL0     H19251   8.838  10.440   8.459  0.6418  1.8995 -1.2398
  140MOL0     H19252   8.890  10.391   8.222 -0.8868 -2.8254  2.2687
  140MOL0     H19253   8.886  10.629   8.016  2.3086 -0.9909 -0.9588
  140MOL0     H19254   8.749  10.629   7.905 -1.0465 -1.4716  1.9734
  140MOL0     H19255   9.001  10.444   7.878 -0.0505  0.2825  1.2274
  140MOL0     H19256   8.871  10.419   7.781  1.8709 -1.5400  1.8359
  140MOL0     H19257   8.854  10.626   7.694 -0.0755 -0.9239  0.8966
  140MOL0     H19258   8.970  10.702   7.799 -1.7139 -0.2440 -0.0812
  140MOL0     H19259   9.147  10.529   7.699 -0.6621 -1.6017 -0.9028
  140MOL0     H19260   9.020  10.482   7.590  2.7807 -2.8395  0.7020
  140MOL0     H19261   9.193  10.626   7.498  0.1477 -0.1201 -0.9924
  140MOL0     H19262   9.164  10.755   7.621 -0.7505 -1.0139  3.2159
  140MOL0     H19263   9.003  10.640   7.385  1.0025  2.6337 -2.5958
  140MOL0     H19264   8.904  10.714   7.518  0.8585  1.6819  0.4555
  140MOL0     H19265   9.125  10.867   7.400 -0.3068  0.0986 -1.6076
  140MOL0     H19266   8.974  10.930   7.471 -1.0531  0.9865 -0.8879
  140MOL0     H19267   9.010  10.789   7.192 -1.9791 -2.1013  0.5038
  140MOL0     H19268   8.857  10.858   7.259  0.3535 -0.2574  0.9693
  140MOL0     H19269   9.200  11.039   7.185 -0.2964  1.7992 -1.2144
  140MOL0     H19270   9.085  11.400   7.114  1.8325  0.9510 -3.8807
  140MOL0     H19271   9.206  11.291   7.042  2.8235  2.2384  0.4020
  140MOL0     H19272   9.188  11.275   7.343  1.1754  2.0559  0.5308
  140MOL0     H19273   9.326  11.293   7.243  0.2441 -1.4851 -0.7164
  140MOL0     H19274   9.119  11.512   7.287 -0.4122 -1.3734 -0.3389
  140MOL0     H19275   9.255  11.481   7.409 -1.2813  2.5421 -0.0263
  140MOL0     H19276   9.260  11.594   7.129 -1.5098 -0.5027 -0.1792
  140MOL0     H19277   9.308  11.682   7.274 -1.6803 -0.1057  0.7401
  140MOL0     H19278   9.393  11.781   7.080  0.7951  1.0600  0.9297
  140MOL0     H19279   9.625  11.979   6.950  0.4817  0.3452 -1.4243
  140MOL0     H19280   9.453  11.945   6.962 -0.5337  0.3858 -1.7436
  140MOL0     H19281   9.537  11.895   6.817 -2.3076 -0.8067  0.5965
  140MOL0     H19282   9.999  11.574   6.603  0.4299  1.0848 -1.2703
  140MOL0     H19283  10.241  11.611   6.541 -1.5885 -0.1329 -0.2614
  140MOL0     H19284  10.502  11.883   6.767 -2.6349  0.1029  0.8232
  140MOL0     H19285  10.492  11.764   6.888 -3.1879  0.2780 -0.9917
  140MOL0     H19286  10.680  11.788   6.651  0.7606  0.5151  1.1034
  140MOL0     H19287  10.730  11.761   6.823  3.0434  0.1199 -1.9865
  140MOL0     H19288  10.597  11.565   6.652 -0.6559 -0.8563  1.8888
  140MOL0     H19289  10.626  11.541   6.823  0.6991 -5.5114 -2.4413
  140MOL0     H19290  10.866  11.605   6.773 -0.6283 -0.4421  1.1491
  140MOL0     H19291  10.838  11.573   6.607  0.1894 -1.1612  0.0714
  140MOL0     H19292  10.779  11.382   6.844 -2.1313  2.7139 -1.2034
  140MOL0     H19293  10.718  11.348   6.695 -0.9895 -0.3761  1.0428
  140MOL0     H19294  10.999  11.396   6.778 -3.5493  4.9087  0.2331
  140MOL0     H19295  10.966  11.339   6.606  1.6408  1.6765  0.8545
  140MOL0     H19296  10.855  11.134   6.728  0.8030 -1.1447 -0.1020
  140MOL0     H19297  10.954  11.184   6.867  1.4029 -3.1325 -0.0451
  140MOL0     H19298  11.116  11.037   6.769  1.0497  1.3746  2.2303
  140MOL0     H19299  11.160  11.199   6.727  1.4835 -0.9625  0.3474
  140MOL0     H19300  10.298  11.808   6.923  0.6976 -2.5052  2.5534
  140MOL0     H19301  10.061  11.758   6.979  1.1445 -0.9474  1.2076
  140MOL0     H19302   9.828  11.544   7.018 -0.2482  1.5247 -2.0397
  140MOL0     H19303   9.661  11.437   7.166 -1.2018  0.8765  3.0747
  140MOL0     H19304   8.519  10.561   8.109  1.2622 -0.1626 -1.3446
  140MOL0     H19305   8.461  10.586   8.353  0.7705  0.9638  0.0424
  140MOL0     H19306   8.584  10.443   8.770 -1.0685 -1.6554  1.7704
  140MOL0     H19307   8.530  10.413   8.995  1.7222 -0.9250 -4.7092
  140MOL0     H19308   8.525  10.513   9.364 -4.5362  0.2126 -0.4811
  140MOL0     H19309   8.455  10.450   9.222  0.2319 -2.3411  3.1049
  140MOL0     H19310   8.761  10.448   9.289  0.7740  0.4198 -1.0781
  140MOL0     H19311   8.712  10.378   9.150  1.0249  1.9907  0.1132
  140MOL0     H19312   8.597  10.293   9.409  1.8932  1.3265  0.7047
  140MOL0     H19313   8.582  10.212   9.253  2.4894 -4.2429 -0.1162
  140MOL0     H19314   8.849  10.263   9.379 -0.6101  1.3614 -2.1750
  140MOL0     H19315   8.808  10.129   9.268 -0.9122  1.3770 -0.9164
  140MOL0     H19316   8.714   9.917   9.598 -0.5715  0.3649  0.7348
  140MOL0     H19317   8.679  10.824   9.061  0.6814  0.5670 -0.6556
  140MOL0     H19318   8.796  10.897   8.763  2.8474 -0.8355  3.1150
  140MOL0     H19319   8.612  10.946   8.776 -0.2728  2.9421  4.2626
  140MOL0     H19320   8.731  10.954   8.907 -1.6249 -2.5278  3.1371
  141MOL0     O19321  11.209   9.609   2.987 -1.1698 -0.1505 -0.5214
  141MOL0     C19322  11.244   9.729   3.005  0.5052  0.4311 -0.5831
  141MOL0     O19323  11.234   9.796   3.123 -0.4946  0.1274  0.0658
  141MOL0     C19324  11.178   9.746   3.238  0.0696 -0.4614 -0.7097
  141MOL0     C19325  11.251   9.749   3.359 -0.1335 -0.0436 -0.2524
  141MOL0     C19326  11.179   9.710   3.474  0.2140 -0.2661 -0.7074
  141MOL0     C19327  11.050   9.660   3.475 -0.9609  0.3146 -0.5290
  141MOL0     O19328  10.997   9.624   3.594 -0.5361 -0.5019 -0.0983
  141MOL0     C19329  10.871   9.565   3.599  0.1751  0.5911 -0.0314
  141MOL0     C19330  10.814   9.550   3.737  0.1139  0.5664  0.3957
  141MOL0     C19331  10.840   9.417   3.804  0.8339 -1.1711 -0.4005
  141MOL0     C19332  10.717   9.320   3.801  0.4984  0.7165 -0.5370
  141MOL0     C19333  10.767   9.187   3.875  0.5854  0.7277  0.0583
  141MOL0     C19334  10.763   9.200   4.026  0.0140  0.9372 -0.5624
  141MOL0     C19335  10.815   9.072   4.106 -1.0812  0.0888 -0.2600
  141MOL0     C19336  10.783   8.933   4.062  0.8156  0.5360 -0.5540
  141MOL0     N19337  10.825   8.818   4.159 -0.8876  0.4390  1.4612
  141MOL0     C19338  10.809   8.823   4.294  0.2776  0.2470 -0.1843
  141MOL0     C19339  10.871   8.715   4.339 -0.5890  1.2511 -0.7304
  141MOL0     C19340  10.873   8.673   4.485 -0.0935 -0.9967  0.0483
  141MOL0     C19341  11.006   8.606   4.525 -0.6065  0.1534  0.8325
  141MOL0     C19342  10.995   8.528   4.654 -0.9512 -0.8988 -0.3413
  141MOL0     C19343  11.130   8.486   4.714 -0.5561  0.3269  0.0064
  141MOL0     O19344  11.117   8.431   4.851 -0.4095 -0.0010 -0.6331
  141MOL0     C19345  11.237   8.417   4.921 -0.3958  0.5722 -0.5100
  141MOL0     C19346  11.282   8.507   5.012  0.2295  0.1109  0.0011
  141MOL0     C19347  11.408   8.484   5.085 -0.7902  0.6014 -0.7846
  141MOL0     C19348  11.457   8.595   5.162  0.0645  0.2651  0.8053
  141MOL0     C19349  11.478   8.366   5.057 -0.9425 -1.0733  1.1941
  141MOL0     C19350  11.614   8.340   5.106 -0.4478  0.4306 -0.2834
  141MOL0     O19351  11.660   8.214   5.080 -0.5177  0.5752  0.1067
  141MOL0     C19352  11.793   8.169   5.109 -0.0036 -0.1810 -0.4631
  141MOL0     C19353  11.791   8.032   5.147 -0.4390  0.0775  0.3997
  141MOL0     C19354  11.911   7.979   5.196  0.2513 -0.0806  0.3670
  141MOL0     C19355  12.029   8.061   5.203  0.4622  0.3190  0.2199
  141MOL0     O19356  12.149   8.029   5.269 -1.2777 -0.2966 -0.1702
  141MOL0     C19357  12.142   7.926   5.367 -0.4924 -1.0840  0.2206
  141MOL0     C19358  12.279   7.932   5.431  0.7350  0.1233 -0.5264
  141MOL0     C19359  12.294   7.799   5.508 -0.3615 -0.3349 -0.1102
  141MOL0     C19360  12.422   7.790   5.589 -0.5834 -0.8058  0.0883
  141MOL0     C19361  12.437   7.654   5.644 -0.6854 -0.3276 -0.1089
  141MOL0     C19362  12.558   7.647   5.744 -0.2038  0.3486 -0.2888
  141MOL0     C19363  12.559   7.745   5.864 -1.1064 -0.1941 -0.6073
  141MOL0     C19364  12.689   7.738   5.948 -0.3047  0.2725  0.0275
  141MOL0    Cl19365  12.835   7.786   5.850 -0.1727 -0.1970 -0.0461
  141MOL0     C19366  12.023   8.186   5.146  0.4625  0.4476  0.0208
  141MOL0     C19367  11.906   8.248   5.098 -0.0130  0.5965 -0.7262
  141MOL0     O19368  11.668   8.424   5.176 -0.7041 -0.3476 -0.1746
  141MOL0     C19369  11.431   8.275   4.956 -0.7714 -0.1450 -0.6636
  141MOL0     C19370  11.319   8.305   4.888  0.4239  0.1024 -0.4232
  141MOL0     N19371  10.926   8.646   4.225 -0.2477 -0.1759 -0.1848
  141MOL0     N19372  10.903   8.715   4.119  0.8210  0.7986 -0.0334
  141MOL0     C19373  10.985   9.660   3.355  0.7885 -0.2730  0.0850
  141MOL0     C19374  11.043   9.709   3.239 -0.7619  0.6168 -0.5544
  141MOL0     C19375  11.297   9.804   2.899 -0.7327  0.3129 -0.1588
  141MOL0     C19376  11.408   9.884   2.934  0.6874 -0.3800 -0.0894
  141MOL0     C19377  11.474   9.959   2.842  0.8068 -0.1155  0.5122
  141MOL0     C19378  11.428   9.962   2.714 -0.8136 -0.9215 -0.2134
  141MOL0     O19379  11.497  10.056   2.637  0.1410  0.2424 -0.0120
  141MOL0     C19380  11.585   9.990   2.540 -0.1575 -0.1954  0.0414
  141MOL0     C19381  11.509   9.951   2.414  0.1662 -0.5153  1.1767
  141MOL0     C19382  11.471  10.070   2.330  0.3794  0.0242 -0.5587
  141MOL0     C19383  11.413  10.029   2.194 -0.5361 -0.5302  0.0310
  141MOL0     C19384  11.467  10.118   2.092  0.4177  0.7026 -0.2499
  141MOL0     C19385  11.502  10.197   2.017  0.2028 -0.8927 -0.5525
  141MOL0     C19386  11.315   9.893   2.679  0.4843  0.3264  0.5145
  141MOL0     C19387  11.251   9.804   2.766 -0.5120  0.2119  0.5260
  141MOL0     C19388  11.122   9.738   2.728 -0.1026 -1.0389  0.1243
  141MOL0     H19389  11.356   9.774   3.373 -0.4177  0.3649  1.4373
  141MOL0     H19390  11.230   9.718   3.569  0.1649  0.2029 -0.7173
  141MOL0     H19391  10.874   9.473   3.542 -2.1841  1.5827 -1.9555
  141MOL0     H19392  10.806   9.641   3.555 -0.1469  2.2334  2.9851
  141MOL0     H19393  10.864   9.627   3.796 -0.7335  0.6296  1.0331
  141MOL0     H19394  10.706   9.564   3.737 -0.0645  0.1381 -3.1343
  141MOL0     H19395  10.925   9.359   3.765  1.5263 -2.1153  2.2808
  141MOL0     H19396  10.875   9.435   3.906 -1.5388  1.9771 -0.0023
  141MOL0     H19397  10.641   9.364   3.867 -1.6037 -3.4806  0.1559
  141MOL0     H19398  10.676   9.299   3.702  2.5239  0.2271 -1.3277
  141MOL0     H19399  10.864   9.148   3.841 -0.6739 -3.3764  0.5453
  141MOL0     H19400  10.690   9.112   3.855 -1.8502  2.5637  1.9162
  141MOL0     H19401  10.825   9.284   4.058  0.8878  0.1265 -0.0549
  141MOL0     H19402  10.658   9.218   4.052 -0.5063  0.4186 -2.2072
  141MOL0     H19403  10.788   9.088   4.211 -1.1882  4.5440 -0.7633
  141MOL0     H19404  10.922   9.077   4.085 -0.9935  0.3700  0.2535
  141MOL0     H19405  10.675   8.920   4.048  0.7562 -1.2835  1.0981
  141MOL0     H19406  10.827   8.907   3.966  0.0130 -3.0860 -0.0794
  141MOL0     H19407  10.748   8.901   4.339  0.2493  1.0080 -1.5053
  141MOL0     H19408  10.789   8.611   4.519 -0.8275  0.9903  2.0710
  141MOL0     H19409  10.854   8.760   4.548 -4.8689 -2.6405  1.3279
  141MOL0     H19410  11.015   8.531   4.446 -0.0591  0.8276  0.2388
  141MOL0     H19411  11.096   8.669   4.530 -0.8931  0.7115 -0.6008
  141MOL0     H19412  10.946   8.603   4.718 -3.3108  3.5917 -6.4053
  141MOL0     H19413  10.923   8.446   4.643 -0.8336 -1.5720  2.8556
  141MOL0     H19414  11.185   8.429   4.639  1.7496  3.1349 -0.6313
  141MOL0     H19415  11.193   8.575   4.723  0.4470 -0.5478  3.1053
  141MOL0     H19416  11.221   8.594   5.032  0.5935  0.4619 -0.4027
  141MOL0     H19417  11.548   8.637   5.119  1.7216 -4.2830 -0.6696
  141MOL0     H19418  11.485   8.550   5.258  1.7027 -3.5853 -1.2342
  141MOL0     H19419  11.371   8.662   5.175 -2.1671 -1.5005 -2.9974
  141MOL0     H19420  11.702   7.971   5.139 -0.1089 -0.0872 -4.0367
  141MOL0     H19421  11.906   7.881   5.242  2.3274 -0.2639  0.3066
  141MOL0     H19422  12.070   7.945   5.447  0.6063  4.6517  0.2713
  141MOL0     H19423  12.120   7.830   5.318 -0.1321 -0.4108 -1.3216
  141MOL0     H19424  12.355   7.927   5.352 -2.0683 -0.6258 -3.3625
  141MOL0     H19425  12.288   8.026   5.486  2.7464  2.3064 -4.1944
  141MOL0     H19426  12.300   7.713   5.441  0.5420 -0.1338 -0.2993
  141MOL0     H19427  12.204   7.793   5.571 -0.1875  2.7809  0.6260
  141MOL0     H19428  12.419   7.873   5.660  1.5000  0.4358 -1.1597
  141MOL0     H19429  12.503   7.814   5.520 -2.0835 -0.5243 -1.6446
  141MOL0     H19430  12.349   7.628   5.702 -0.4480 -1.0230 -0.0443
  141MOL0     H19431  12.450   7.580   5.564 -3.2319 -1.6020  0.5771
  141MOL0     H19432  12.650   7.679   5.694  0.7095  2.2575  2.3643
  141MOL0     H19433  12.578   7.547   5.784 -0.6921  0.4750  0.2819
  141MOL0     H19434  12.477   7.730   5.934  1.8252  0.4472  3.3243
  141MOL0     H19435  12.551   7.842   5.815 -0.2036 -0.7712 -1.9485
  141MOL0     H19436  12.715   7.643   5.995  1.8943 -0.0227 -1.5865
  141MOL0     H19437  12.678   7.814   6.026 -0.2321  1.5459 -1.1556
  141MOL0     H19438  12.112   8.248   5.140  0.4646  0.5192  0.6632
  141MOL0     H19439  11.900   8.353   5.070  0.5689  1.0062  0.5964
  141MOL0     H19440  11.478   8.180   4.932 -1.2799 -0.8222  0.9067
  141MOL0     H19441  11.303   8.251   4.796 -0.9321 -0.4826  0.1335
  141MOL0     H19442  10.882   9.624   3.346  0.7930 -0.2240 -0.1515
  141MOL0     H19443  10.991   9.726   3.145 -0.8137  3.2898 -0.1123
  141MOL0     H19444  11.439   9.877   3.037 -1.8287 -3.3392  0.6391
  141MOL0     H19445  11.566  10.010   2.869 -0.0826  0.1760  3.2836
  141MOL0     H19446  11.668  10.045   2.497 -2.1185  0.4400 -3.3159
  141MOL0     H19447  11.624   9.898   2.584  1.7074  0.8672  0.6883
  141MOL0     H19448  11.430   9.878   2.437 -1.6365  1.1162  0.4542
  141MOL0     H19449  11.576   9.883   2.361 -0.9376 -0.9934  0.3447
  141MOL0     H19450  11.409  10.147   2.376 -0.7836 -0.6427 -0.9650
  141MOL0     H19451  11.565  10.122   2.310  1.3543 -1.2013  0.6849
  141MOL0     H19452  11.304  10.028   2.186 -0.4226 -2.0126 -2.3015
  141MOL0     H19453  11.440   9.925   2.175  1.8175 -0.0182  0.2240
  141MOL0     H19454  11.543  10.279   1.963  2.7224 -0.9888  0.9991
  141MOL0     H19455  11.276   9.901   2.579  1.3869 -4.8262 -0.5666
  141MOL0     H19456  11.133   9.653   2.661 -0.6662 -0.1242 -1.1759
  141MOL0     H19457  11.071   9.709   2.820 -0.1270  2.6492  1.4438
  141MOL0     H19458  11.049   9.803   2.678 -1.7786 -0.8609  2.6019
  142MOL0     O19459   0.700   7.337   8.305  0.0413  0.1953 -0.4075
  142MOL0     C19460   0.655   7.340   8.422  0.4016  0.6483  0.6358
  142MOL0     O19461   0.702   7.257   8.529 -0.2508  0.4030 -0.0906
  142MOL0     C19462   0.805   7.182   8.500 -0.2286  0.9685  0.4597
  142MOL0     C19463   0.790   7.044   8.505  1.4437 -0.0757 -0.6363
  142MOL0     C19464   0.897   6.951   8.488 -0.7177  0.6437  1.2824
  142MOL0     C19465   1.018   7.005   8.456 -1.2263 -0.3859 -0.1243
  142MOL0     O19466   1.129   6.931   8.435  0.0539  0.1486  1.0147
  142MOL0     C19467   1.115   6.804   8.376 -0.4052  0.8898  0.9907
  142MOL0     C19468   1.247   6.749   8.312  0.0195 -0.4255 -0.9389
  142MOL0     C19469   1.373   6.765   8.398 -0.1489 -0.1296  0.7531
  142MOL0     C19470   1.485   6.653   8.355  0.5746  0.4039  0.5265
  142MOL0     C19471   1.613   6.666   8.434 -0.4210 -0.6180 -0.2574
  142MOL0     C19472   1.709   6.554   8.396  0.2561 -0.2435  0.9959
  142MOL0     C19473   1.849   6.598   8.438 -0.3982  0.1074 -0.5928
  142MOL0     C19474   1.938   6.490   8.379 -0.4184  0.0591 -0.4971
  142MOL0     N19475   2.074   6.506   8.427  0.2724  0.0933 -0.3713
  142MOL0     C19476   2.149   6.444   8.518 -0.7484  0.4482 -0.3327
  142MOL0     C19477   2.263   6.503   8.528 -0.0580 -1.0335  0.2464
  142MOL0     C19478   2.364   6.479   8.630 -1.4308  0.4526 -0.3053
  142MOL0     C19479   2.502   6.469   8.563  0.0413 -0.3336  0.3700
  142MOL0     C19480   2.578   6.335   8.592 -0.3005 -0.1896  0.8973
  142MOL0     C19481   2.614   6.311   8.733 -0.0146  0.3385  0.2364
  142MOL0     O19482   2.744   6.260   8.766  0.6690 -0.2774  0.5465
  142MOL0     C19483   2.770   6.223   8.901  1.2674 -0.1319 -0.2246
  142MOL0     C19484   2.687   6.222   9.011  0.2095  0.1758 -0.9572
  142MOL0     C19485   2.716   6.166   9.135  0.4730 -0.1071 -0.2326
  142MOL0     C19486   2.609   6.150   9.241 -0.1825 -0.6358 -0.3954
  142MOL0     C19487   2.854   6.128   9.156 -0.1827  0.3711 -0.2038
  142MOL0     C19488   2.915   6.071   9.286  0.4323  0.3056 -0.1433
  142MOL0     O19489   3.025   5.999   9.282  0.3520 -0.0032  0.2073
  142MOL0     C19490   3.095   5.967   9.403  0.0756 -0.2907  0.0857
  142MOL0     C19491   3.123   6.063   9.504 -0.3805 -0.0670 -0.1404
  142MOL0     C19492   3.191   6.022   9.621 -0.7746  0.3324  0.1956
  142MOL0     C19493   3.240   5.896   9.636  0.4179 -0.3591 -0.6159
  142MOL0     O19494   3.307   5.858   9.752  0.0659 -0.1608 -0.5585
  142MOL0     C19495   3.386   5.740   9.757  0.2602  0.6843  0.3556
  142MOL0     C19496   3.456   5.718   9.874  0.2769  1.1324 -0.2944
  142MOL0     C19497   3.500   5.566   9.887  0.6062  0.1359 -0.2182
  142MOL0     C19498   3.567   5.530  10.022  0.3575  0.1781  0.5808
  142MOL0     C19499   3.571   5.381  10.057 -0.3462  0.1758  0.2940
  142MOL0     C19500   3.628   5.297   9.939  0.3916 -0.4209 -1.0963
  142MOL0     C19501   3.619   5.150   9.992 -0.6151 -0.4893 -0.5781
  142MOL0     C19502   3.487   5.093   9.972  0.1345  0.8133  0.3102
  142MOL0    Cl19503   3.442   5.087   9.797 -0.1303  0.2227 -0.1826
  142MOL0     C19504   3.208   5.801   9.535  0.0671  0.0214 -0.6009
  142MOL0     C19505   3.142   5.834   9.421 -1.1254 -0.7743  0.1525
  142MOL0     O19506   2.859   6.101   9.392 -0.2813 -0.2746 -0.6504
  142MOL0     C19507   2.943   6.134   9.042  0.4273 -0.1400  0.3946
  142MOL0     C19508   2.892   6.168   8.917  0.3554 -1.0912  0.0599
  142MOL0     N19509   2.271   6.598   8.425  0.4478 -0.1427  0.3586
  142MOL0     N19510   2.149   6.604   8.378  0.1286  0.1124  1.3708
  142MOL0     C19511   1.031   7.139   8.456 -0.0307 -1.6022  0.5750
  142MOL0     C19512   0.931   7.226   8.486  0.6413 -0.3893 -0.0396
  142MOL0     C19513   0.564   7.456   8.439  0.0299 -0.5245  0.0240
  142MOL0     C19514   0.554   7.515   8.572  0.7276  0.2146  0.0047
  142MOL0     C19515   0.472   7.626   8.598 -0.1753 -0.3573 -0.4192
  142MOL0     C19516   0.406   7.687   8.500 -0.5382 -0.9852  0.3659
  142MOL0     O19517   0.315   7.792   8.514  0.6349  0.3489 -0.4797
  142MOL0     C19518   0.196   7.752   8.591 -0.0856 -0.0422  0.7932
  142MOL0     C19519   0.129   7.884   8.633 -0.0257  0.4453  0.6265
  142MOL0     C19520   0.059   7.963   8.517 -0.7699  0.6330  0.2881
  142MOL0     C19521  -0.019   8.084   8.564 -0.2561 -0.6306 -0.3915
  142MOL0     C19522  -0.041   8.192   8.469 -0.0071 -0.7084 -0.2158
  142MOL0     C19523  -0.042   8.271   8.378  1.1176 -0.0324 -1.1377
  142MOL0     C19524   0.414   7.629   8.371 -0.3425 -0.6636 -0.4034
  142MOL0     C19525   0.480   7.508   8.341  0.3606  0.0881  0.0812
  142MOL0     C19526   0.467   7.439   8.203 -0.4898 -1.0768 -1.1026
  142MOL0     H19527   0.686   7.018   8.525  1.0052  1.2691 -1.0303
  142MOL0     H19528   0.889   6.844   8.502 -0.1773  0.5082  0.6445
  142MOL0     H19529   1.049   6.804   8.288  1.4283 -0.5208 -0.4740
  142MOL0     H19530   1.067   6.736   8.447  1.3886 -2.4263 -0.6954
  142MOL0     H19531   1.236   6.649   8.270  0.9626 -0.2282 -1.6924
  142MOL0     H19532   1.264   6.812   8.224  0.4660  0.5278 -0.1951
  142MOL0     H19533   1.422   6.858   8.367  0.1161  0.7447  3.5871
  142MOL0     H19534   1.351   6.750   8.504  1.6225 -1.4526  0.9912
  142MOL0     H19535   1.441   6.556   8.377 -2.3657  1.4924 -0.1118
  142MOL0     H19536   1.498   6.666   8.247 -1.2724 -0.7691  0.1203
  142MOL0     H19537   1.591   6.673   8.541  2.1134 -2.6061  0.4972
  142MOL0     H19538   1.651   6.764   8.404 -0.8258  0.7514  3.2315
  142MOL0     H19539   1.678   6.463   8.447 -1.8207 -0.5104 -0.5783
  142MOL0     H19540   1.704   6.534   8.288  1.9933 -0.3038  0.9000
  142MOL0     H19541   1.851   6.603   8.547 -0.3298  0.5533 -0.6143
  142MOL0     H19542   1.880   6.691   8.389  3.1173  0.5844  2.1472
  142MOL0     H19543   1.901   6.395   8.417 -2.8572  1.7454  1.6135
  142MOL0     H19544   1.943   6.500   8.270 -2.2553  2.6015 -0.4437
  142MOL0     H19545   2.129   6.365   8.589 -0.3766  0.4412 -0.2346
  142MOL0     H19546   2.335   6.390   8.687  2.4899 -0.0718  1.2081
  142MOL0     H19547   2.361   6.562   8.701 -2.6711 -1.9650  2.7107
  142MOL0     H19548   2.505   6.491   8.456 -0.0347 -0.1929  0.3964
  142MOL0     H19549   2.568   6.547   8.603  0.5027 -0.4331 -0.1781
  142MOL0     H19550   2.528   6.243   8.559  0.5105 -1.5156  3.1422
  142MOL0     H19551   2.668   6.359   8.534 -0.1328 -0.9149  0.8422
  142MOL0     H19552   2.610   6.407   8.786 -2.6702  2.6997 -3.6925
  142MOL0     H19553   2.548   6.244   8.787  2.1082 -2.5653 -0.5120
  142MOL0     H19554   2.589   6.268   9.018  0.5793  0.7866  0.7181
  142MOL0     H19555   2.586   6.247   9.286  0.0929  1.2186 -3.8979
  142MOL0     H19556   2.633   6.076   9.318 -0.4739  1.1385  1.5175
  142MOL0     H19557   2.520   6.121   9.186 -1.7996  1.1782  1.0743
  142MOL0     H19558   3.100   6.168   9.516  1.7044  0.4929 -0.7000
  142MOL0     H19559   3.233   6.104   9.678 -1.2501  0.2273  0.7023
  142MOL0     H19560   3.318   5.655   9.748  0.0361  0.9866 -1.0782
  142MOL0     H19561   3.454   5.737   9.671 -3.3046 -2.4563 -2.7220
  142MOL0     H19562   3.538   5.790   9.891 -0.8134  1.5060  4.9884
  142MOL0     H19563   3.392   5.747   9.957  2.1367  3.4617  0.4420
  142MOL0     H19564   3.561   5.543   9.799 -3.8610 -1.3071 -3.2751
  142MOL0     H19565   3.410   5.505   9.871  0.9679 -0.0581 -1.6507
  142MOL0     H19566   3.524   5.590  10.102  0.4026  1.2820 -0.2069
  142MOL0     H19567   3.668   5.573  10.026 -0.8435  3.2299  0.6587
  142MOL0     H19568   3.627   5.378  10.150 -1.4242 -1.3194  0.9369
  142MOL0     H19569   3.467   5.354  10.076 -0.7553  0.9579 -0.7364
  142MOL0     H19570   3.732   5.325   9.922  1.8045 -3.4903  1.4395
  142MOL0     H19571   3.567   5.310   9.849  2.2090  1.4328 -2.1332
  142MOL0     H19572   3.640   5.148  10.099 -1.0942  3.2014 -0.2801
  142MOL0     H19573   3.699   5.093   9.943 -0.6704 -4.2568  3.1237
  142MOL0     H19574   3.412   5.153  10.025  0.7996  0.4677  1.6827
  142MOL0     H19575   3.494   4.994  10.019  1.4669  0.9087  0.3526
  142MOL0     H19576   3.234   5.696   9.545  1.8798  0.4612 -0.3037
  142MOL0     H19577   3.117   5.765   9.341  1.4219  0.9642 -2.3283
  142MOL0     H19578   3.045   6.097   9.049 -0.1491 -1.5323  2.1696
  142MOL0     H19579   2.954   6.163   8.829  0.8830  0.0410  0.3415
  142MOL0     H19580   1.129   7.185   8.449 -1.1184  0.7299 -1.2004
  142MOL0     H19581   0.949   7.333   8.493 -0.7764  0.1231 -2.6384
  142MOL0     H19582   0.621   7.489   8.655 -2.8483  2.4657  4.0060
  142MOL0     H19583   0.468   7.677   8.693 -1.8391  2.4461 -1.8723
  142MOL0     H19584   0.139   7.687   8.524  3.5310 -0.0658 -2.5899
  142MOL0     H19585   0.214   7.687   8.677 -3.1778 -2.0849  0.0878
  142MOL0     H19586   0.201   7.953   8.678 -0.7147  2.1253 -0.6976
  142MOL0     H19587   0.051   7.858   8.705  1.4786  1.4666  2.7253
  142MOL0     H19588   0.136   8.004   8.450 -1.0525  3.2471  1.4084
  142MOL0     H19589  -0.003   7.893   8.461 -0.8734 -1.6564  3.0396
  142MOL0     H19590   0.049   8.130   8.636  0.6808  0.4198 -1.8850
  142MOL0     H19591  -0.112   8.045   8.608 -0.9485 -0.6030 -1.7676
  142MOL0     H19592  -0.060   8.327   8.289  2.0036 -2.2989 -2.8319
  142MOL0     H19593   0.353   7.680   8.297  1.1507  0.9558 -0.5925
  142MOL0     H19594   0.563   7.450   8.150  0.0084 -0.7238 -0.1538
  142MOL0     H19595   0.445   7.332   8.206 -0.3205 -1.1019 -0.7228
  142MOL0     H19596   0.406   7.503   8.139 -1.9491 -0.2430  1.0240
  143MOL0     O19597   2.588   9.403   6.015  0.1041 -0.3576 -0.4632
  143MOL0     C19598   2.559   9.448   6.126 -0.1308 -0.0030 -0.0812
  143MOL0     O19599   2.598   9.392   6.252  0.4844  0.4784  0.3266
  143MOL0     C19600   2.669   9.274   6.247  0.2149  1.0856 -0.9056
  143MOL0     C19601   2.665   9.165   6.151 -0.4765 -0.1031  0.6050
  143MOL0     C19602   2.739   9.043   6.177  0.5113 -0.2506 -0.1113
  143MOL0     C19603   2.813   9.029   6.293  0.1783  0.2262 -0.0969
  143MOL0     O19604   2.874   8.906   6.299  0.6980  0.0109 -0.7454
  143MOL0     C19605   2.972   8.880   6.402  0.6999 -0.9553 -0.2291
  143MOL0     C19606   3.002   8.739   6.429  0.5380 -0.4891 -0.9339
  143MOL0     C19607   2.875   8.664   6.484 -0.6050 -0.4968  0.3704
  143MOL0     C19608   2.916   8.524   6.534 -0.6028  0.4991  0.1569
  143MOL0     C19609   2.807   8.467   6.624  0.5484  0.6799 -0.2773
  143MOL0     C19610   2.680   8.428   6.535  0.5235  0.1578  0.0483
  143MOL0     C19611   2.589   8.342   6.628  0.2227 -0.2918  0.2829
  143MOL0     C19612   2.502   8.419   6.735  0.3223  0.0027  0.5024
  143MOL0     N19613   2.407   8.522   6.697 -0.0720 -0.3796  0.4304
  143MOL0     C19614   2.328   8.535   6.583 -0.2868 -0.2924  0.1836
  143MOL0     C19615   2.268   8.661   6.592  1.3525 -0.6054  0.2134
  143MOL0     C19616   2.181   8.737   6.484  0.1117  0.7172 -0.1137
  143MOL0     C19617   2.224   8.882   6.455  0.4813  0.2281  0.2789
  143MOL0     C19618   2.369   8.896   6.412 -0.8775  0.3476  0.1423
  143MOL0     C19619   2.387   8.821   6.276 -0.9331  0.1456 -1.4461
  143MOL0     O19620   2.299   8.848   6.177 -0.1365 -1.0933 -0.6413
  143MOL0     C19621   2.318   8.775   6.060 -0.1701  0.3641  0.5369
  143MOL0     C19622   2.429   8.691   6.027  0.2258  0.5313  0.0181
  143MOL0     C19623   2.434   8.621   5.902  0.8315 -0.0760 -0.3209
  143MOL0     C19624   2.556   8.537   5.876 -0.6280  0.4046 -1.3017
  143MOL0     C19625   2.320   8.624   5.814  0.3749 -0.3255 -1.0033
  143MOL0     C19626   2.314   8.542   5.687  0.4457  0.2313  0.6966
  143MOL0     O19627   2.198   8.496   5.638  0.1323  0.6607  0.1513
  143MOL0     C19628   2.197   8.425   5.512  0.3731  0.6818  0.4499
  143MOL0     C19629   2.069   8.461   5.453 -1.0515 -0.9306  0.5133
  143MOL0     C19630   2.035   8.404   5.334 -0.5108  0.5576  0.2348
  143MOL0     C19631   2.123   8.312   5.279  0.3005 -0.6814 -0.5373
  143MOL0     O19632   2.077   8.245   5.176 -0.4986 -0.3044 -0.1960
  143MOL0     C19633   1.974   8.299   5.088 -0.7677 -0.3571  0.6013
  143MOL0     C19634   1.981   8.219   4.956 -0.6465 -0.1887 -0.3395
  143MOL0     C19635   1.844   8.244   4.877 -0.8695 -0.0317 -0.5226
  143MOL0     C19636   1.878   8.265   4.725  0.5633 -0.4630 -0.4524
  143MOL0     C19637   1.744   8.249   4.647 -0.0464 -0.5575 -0.3343
  143MOL0     C19638   1.673   8.388   4.644 -1.4677 -0.1909 -0.4074
  143MOL0     C19639   1.553   8.393   4.549  0.3752 -0.2100  0.7522
  143MOL0     C19640   1.579   8.418   4.405 -1.2660  0.0533 -0.6126
  143MOL0    Cl19641   1.417   8.426   4.325 -0.0687  0.5853 -0.1807
  143MOL0     C19642   2.242   8.277   5.332 -0.1201 -0.8180  0.0640
  143MOL0     C19643   2.284   8.328   5.460  0.6386 -0.5902 -0.2486
  143MOL0     O19644   2.424   8.531   5.631 -0.0241 -0.5681  0.4958
  143MOL0     C19645   2.210   8.702   5.864 -1.1795  0.3089 -0.4922
  143MOL0     C19646   2.215   8.786   5.972 -0.1783 -0.2222  1.4441
  143MOL0     N19647   2.293   8.714   6.711 -0.2863 -1.5382  0.3292
  143MOL0     N19648   2.385   8.643   6.757  0.7724  1.0817 -0.8786
  143MOL0     C19649   2.811   9.131   6.392  0.2678 -0.0351 -0.3470
  143MOL0     C19650   2.730   9.246   6.366 -1.0628  0.2006 -0.4949
  143MOL0     C19651   2.463   9.563   6.136  0.0573 -0.0090  0.4453
  143MOL0     C19652   2.401   9.590   6.265 -1.2157  0.3357  0.1647
  143MOL0     C19653   2.328   9.706   6.292 -0.6353 -0.2609  0.5296
  143MOL0     C19654   2.307   9.789   6.182  0.0960  0.0688  0.0831
  143MOL0     O19655   2.229   9.904   6.196 -0.1818  0.5168  0.5354
  143MOL0     C19656   2.137   9.922   6.314  0.0005 -0.1892  0.8523
  143MOL0     C19657   2.013   9.827   6.302 -0.4150  0.4391  0.2350
  143MOL0     C19658   1.913   9.851   6.186  0.5231  0.1159 -0.4249
  143MOL0     C19659   1.871   9.997   6.162 -0.1338 -1.0202 -0.4088
  143MOL0     C19660   1.831  10.071   6.288 -0.1615 -0.3151 -1.1683
  143MOL0     C19661   1.802  10.144   6.382  0.3842 -0.4725  0.9355
  143MOL0     C19662   2.352   9.765   6.054  0.5555  0.5717  0.0333
  143MOL0     C19663   2.423   9.645   6.025  0.4517 -0.2622 -1.1398
  143MOL0     C19664   2.481   9.639   5.881 -0.3357 -0.7204 -0.2532
  143MOL0     H19665   2.619   9.178   6.054  0.5831  0.9512  0.2315
  143MOL0     H19666   2.741   8.956   6.112 -0.3549  0.6029 -1.3203
  143MOL0     H19667   2.935   8.916   6.498  0.5499 -1.4693 -0.0870
  143MOL0     H19668   3.063   8.935   6.378  1.2516 -0.7811  2.0242
  143MOL0     H19669   3.049   8.696   6.340  0.3709 -0.2040 -1.1605
  143MOL0     H19670   3.072   8.738   6.513 -1.9171 -1.3049  1.2329
  143MOL0     H19671   2.836   8.722   6.568  0.8912  0.4049  0.4787
  143MOL0     H19672   2.804   8.659   6.401  0.7465  0.9901 -0.9414
  143MOL0     H19673   2.923   8.477   6.435  1.6050  2.0738 -0.4969
  143MOL0     H19674   3.000   8.504   6.600 -3.0174  1.7926  4.0057
  143MOL0     H19675   2.774   8.522   6.712 -4.2115 -2.7120  0.4783
  143MOL0     H19676   2.854   8.378   6.667  2.9878  0.0810 -3.7469
  143MOL0     H19677   2.636   8.523   6.505  0.8932  0.4899  0.5477
  143MOL0     H19678   2.711   8.377   6.443 -2.2028 -0.3751 -0.6645
  143MOL0     H19679   2.636   8.262   6.685 -2.3178 -0.1529  2.7998
  143MOL0     H19680   2.518   8.281   6.571 -0.3591  0.0057  0.6752
  143MOL0     H19681   2.454   8.344   6.799  0.0087 -0.9399 -0.7881
  143MOL0     H19682   2.566   8.467   6.810 -3.8006  3.7149  2.0885
  143MOL0     H19683   2.320   8.456   6.509  1.2049 -1.1397  0.8621
  143MOL0     H19684   2.073   8.727   6.497  0.4640 -3.6609  1.0074
  143MOL0     H19685   2.192   8.679   6.392  1.7173 -1.2329  1.2134
  143MOL0     H19686   2.154   8.918   6.378  1.3678  2.4053  0.4290
  143MOL0     H19687   2.217   8.932   6.552  0.7521 -0.9030  0.8985
  143MOL0     H19688   2.386   9.001   6.388 -2.2862  0.2840 -1.2589
  143MOL0     H19689   2.441   8.867   6.490  0.2306 -1.5713 -1.5062
  143MOL0     H19690   2.486   8.857   6.246 -1.8292  3.3514 -0.9315
  143MOL0     H19691   2.382   8.713   6.288  1.1590 -0.0302 -1.8493
  143MOL0     H19692   2.519   8.682   6.088  1.2734 -4.2647 -1.8272
  143MOL0     H19693   2.608   8.576   5.788 -3.1505  1.8219 -2.2779
  143MOL0     H19694   2.541   8.431   5.855  1.8031 -0.1552 -0.5169
  143MOL0     H19695   2.627   8.533   5.960 -2.5619  3.9684  0.7951
  143MOL0     H19696   1.991   8.518   5.502 -3.1674 -1.7306 -1.7481
  143MOL0     H19697   1.941   8.419   5.282  0.8271  2.2668 -1.8447
  143MOL0     H19698   1.881   8.267   5.135 -1.5163 -1.0052 -1.2076
  143MOL0     H19699   1.986   8.405   5.065  0.2224 -0.4510  0.6244
  143MOL0     H19700   2.073   8.250   4.906  0.2030 -1.2146  0.5297
  143MOL0     H19701   1.977   8.114   4.987 -1.3561 -0.8582 -2.4946
  143MOL0     H19702   1.798   8.335   4.916  1.5696  1.1789 -0.2986
  143MOL0     H19703   1.791   8.148   4.881  2.0631 -1.7576  0.4706
  143MOL0     H19704   1.944   8.185   4.691  0.9430  0.5273 -2.1509
  143MOL0     H19705   1.918   8.364   4.702 -1.9305  0.7225 -0.0307
  143MOL0     H19706   1.773   8.228   4.544  3.6119  2.8578 -0.2310
  143MOL0     H19707   1.682   8.163   4.673  1.5267 -1.3865  0.9054
  143MOL0     H19708   1.736   8.473   4.614 -2.6143  0.6494 -0.5241
  143MOL0     H19709   1.637   8.402   4.746 -0.9372  0.5621 -0.3105
  143MOL0     H19710   1.478   8.463   4.585  2.8916  3.2473 -0.2123
  143MOL0     H19711   1.507   8.294   4.560  0.4200 -0.2489  0.5998
  143MOL0     H19712   1.640   8.339   4.360  1.6994  2.8201 -1.9119
  143MOL0     H19713   1.637   8.510   4.393  1.0219 -1.0850  0.8822
  143MOL0     H19714   2.312   8.211   5.280  1.7360  2.4247 -1.8884
  143MOL0     H19715   2.369   8.313   5.526  0.0507  1.4024  1.0264
  143MOL0     H19716   2.115   8.693   5.813 -2.2775  0.3442  1.4585
  143MOL0     H19717   2.127   8.843   6.001  1.3602  4.9413 -2.3777
  143MOL0     H19718   2.848   9.107   6.492 -0.2670 -0.9051 -0.3434
  143MOL0     H19719   2.729   9.323   6.443 -1.1591 -0.8299  0.5562
  143MOL0     H19720   2.412   9.517   6.345 -1.2578  0.6041  0.4130
  143MOL0     H19721   2.289   9.724   6.392 -0.4965 -2.6681  1.0770
  143MOL0     H19722   2.183   9.900   6.411  0.9843  1.3657  0.7828
  143MOL0     H19723   2.110  10.028   6.322  2.5294  0.5433  0.6783
  143MOL0     H19724   1.970   9.865   6.395  0.3696 -1.3727  1.4137
  143MOL0     H19725   2.044   9.722   6.310  0.2882  0.2808 -3.0046
  143MOL0     H19726   1.958   9.812   6.094  0.0478 -1.8151  0.1226
  143MOL0     H19727   1.822   9.795   6.209  1.3868 -2.2880 -2.4312
  143MOL0     H19728   1.791  10.001   6.087 -2.2127  2.9355  1.6565
  143MOL0     H19729   1.959  10.048   6.120 -1.6134  0.6733 -1.6525
  143MOL0     H19730   1.790  10.190   6.478  1.1513  1.2308  0.2524
  143MOL0     H19731   2.327   9.836   5.977 -2.3177 -1.0995 -0.7185
  143MOL0     H19732   2.589   9.644   5.897 -0.6013 -1.6588  2.2690
  143MOL0     H19733   2.458   9.548   5.825  3.4716 -1.4428 -0.9491
  143MOL0     H19734   2.455   9.729   5.825  0.2223  0.1842  0.8993
  144MOL0     O19735   0.315   1.786   8.444 -0.5076  0.5934 -0.5193
  144MOL0     C19736   0.400   1.766   8.523  0.1279 -0.4696 -0.6054
  144MOL0     O19737   0.383   1.699   8.645  0.3945 -0.1740  0.5733
  144MOL0     C19738   0.264   1.645   8.706 -0.4030  0.1527  0.5928
  144MOL0     C19739   0.269   1.608   8.843  0.4549 -0.4131 -0.1958
  144MOL0     C19740   0.162   1.539   8.899  0.9877 -1.2179 -0.3199
  144MOL0     C19741   0.037   1.523   8.830 -0.2704 -0.4833 -0.1036
  144MOL0     O19742  -0.063   1.467   8.906  0.2081 -0.0316  0.0703
  144MOL0     C19743  -0.195   1.473   8.862  0.4718 -0.3705  0.2208
  144MOL0     C19744  -0.221   1.356   8.778 -1.1787 -0.1274 -0.7979
  144MOL0     C19745  -0.358   1.351   8.699 -0.4292  0.3699  0.6090
  144MOL0     C19746  -0.356   1.293   8.558 -0.0104 -0.5475  0.1381
  144MOL0     C19747  -0.279   1.366   8.450  0.6687  0.2106 -0.4082
  144MOL0     C19748  -0.228   1.275   8.340 -0.3770  0.9713 -0.4673
  144MOL0     C19749  -0.163   1.356   8.232 -0.5127  0.0439 -0.1641
  144MOL0     C19750  -0.254   1.444   8.149 -0.2696 -0.1354  0.2991
  144MOL0     N19751  -0.176   1.509   8.039 -0.3445  0.0518 -0.6581
  144MOL0     C19752  -0.112   1.632   8.044 -0.2003  0.7382 -0.2476
  144MOL0     C19753  -0.032   1.632   7.939  0.1857  0.7359 -0.3868
  144MOL0     C19754   0.060   1.750   7.916  0.3540  0.9417 -0.2005
  144MOL0     C19755   0.199   1.694   7.884 -0.3632  0.2336  0.0287
  144MOL0     C19756   0.298   1.811   7.892 -0.1167  0.0569  0.3330
  144MOL0     C19757   0.270   1.928   7.797 -0.0554 -0.0534 -0.6020
  144MOL0     O19758   0.242   1.884   7.660 -0.0135  0.0820 -0.1184
  144MOL0     C19759   0.337   1.803   7.607 -0.7925  0.0328  0.6978
  144MOL0     C19760   0.468   1.841   7.593 -0.1691  0.3088 -0.5811
  144MOL0     C19761   0.572   1.755   7.553 -0.9510 -1.4552  0.9132
  144MOL0     C19762   0.713   1.812   7.568 -0.3177 -0.5805 -0.5065
  144MOL0     C19763   0.544   1.628   7.514 -0.3091  0.3076  0.4252
  144MOL0     C19764   0.648   1.534   7.468 -0.6566 -0.1790  0.3230
  144MOL0     O19765   0.600   1.437   7.381  0.9037 -1.3462  0.5177
  144MOL0     C19766   0.675   1.364   7.287  0.3536  0.0428 -0.6170
  144MOL0     C19767   0.809   1.360   7.285 -0.0347  0.6471  1.1972
  144MOL0     C19768   0.872   1.263   7.203 -0.1798 -0.1789 -0.3622
  144MOL0     C19769   0.799   1.178   7.117  1.1636 -0.3126  0.2749
  144MOL0     O19770   0.865   1.104   7.026 -0.2700 -0.3627 -0.0194
  144MOL0     C19771   0.790   1.038   6.916  0.7306 -0.6353  0.3486
  144MOL0     C19772   0.893   0.997   6.810  0.4157  0.4369 -0.1014
  144MOL0     C19773   0.976   1.117   6.748 -0.5194 -0.1063 -1.2311
  144MOL0     C19774   1.073   1.075   6.640 -0.6857  0.9858  0.8439
  144MOL0     C19775   1.178   1.172   6.629 -0.7649  0.5431  0.3462
  144MOL0     C19776   1.311   1.123   6.551  0.3545 -0.3632 -0.6947
  144MOL0     C19777   1.285   1.088   6.402  0.2673 -0.3714  0.3423
  144MOL0     C19778   1.409   1.021   6.360 -0.5656  0.5222 -0.0287
  144MOL0    Cl19779   1.391   0.943   6.205 -0.3739 -0.0352 -0.0156
  144MOL0     C19780   0.658   1.186   7.127 -1.5763  0.4390  0.2364
  144MOL0     C19781   0.600   1.275   7.203  0.0319 -0.2459 -0.1739
  144MOL0     O19782   0.753   1.524   7.533 -0.7298  0.3732 -0.5952
  144MOL0     C19783   0.405   1.585   7.514  0.1117  0.1123  0.8081
  144MOL0     C19784   0.304   1.668   7.563 -0.3845 -1.0737  0.0528
  144MOL0     N19785  -0.069   1.520   7.861  0.1308  0.1948 -0.2411
  144MOL0     N19786  -0.158   1.452   7.915  0.4404  0.6324 -0.0703
  144MOL0     C19787   0.033   1.576   8.701  0.2568  0.0276 -0.0539
  144MOL0     C19788   0.144   1.631   8.628 -0.5245 -0.0975 -0.3853
  144MOL0     C19789   0.536   1.817   8.484  0.5586 -0.2403  0.1235
  144MOL0     C19790   0.642   1.770   8.567  0.9525 -0.1634  0.7877
  144MOL0     C19791   0.779   1.802   8.534 -0.1320 -0.1770 -0.1605
  144MOL0     C19792   0.807   1.890   8.431  1.1282  0.3330  0.1112
  144MOL0     O19793   0.927   1.939   8.398 -0.0832 -0.3318 -0.5506
  144MOL0     C19794   1.055   1.881   8.439  0.1140  0.6429  0.4814
  144MOL0     C19795   1.094   1.760   8.354  1.2281  0.7468 -0.2785
  144MOL0     C19796   1.055   1.766   8.206  0.1171 -0.6166  0.5133
  144MOL0     C19797   1.062   1.624   8.133 -0.6103  0.6276 -0.2109
  144MOL0     C19798   0.999   1.609   7.999 -0.6971  0.9173 -0.1831
  144MOL0     C19799   0.949   1.609   7.887  0.6362 -0.6205 -0.1529
  144MOL0     C19800   0.701   1.936   8.357  0.5476 -0.0317  0.1532
  144MOL0     C19801   0.565   1.912   8.374 -0.8081  0.7424 -0.9297
  144MOL0     C19802   0.467   1.967   8.273  0.1343  0.1061  0.2555
  144MOL0     H19803   0.353   1.625   8.910 -0.3431  1.4973  0.3816
  144MOL0     H19804   0.150   1.498   8.999  1.4346 -2.1821 -0.6419
  144MOL0     H19805  -0.196   1.561   8.797  1.2585  0.0806  0.8076
  144MOL0     H19806  -0.268   1.478   8.943  2.4902  1.6562  2.0509
  144MOL0     H19807  -0.129   1.332   8.724 -0.3619 -0.8574  0.8660
  144MOL0     H19808  -0.237   1.268   8.840 -0.0625 -1.8903 -2.8692
  144MOL0     H19809  -0.430   1.288   8.752 -1.7960 -0.2315 -1.7860
  144MOL0     H19810  -0.388   1.455   8.680 -2.5865 -0.0481  1.4965
  144MOL0     H19811  -0.327   1.188   8.558 -0.3750 -0.6526  0.4205
  144MOL0     H19812  -0.460   1.281   8.524  0.7002 -3.4325 -1.3540
  144MOL0     H19813  -0.198   1.424   8.495  1.0353 -0.1553 -0.5804
  144MOL0     H19814  -0.345   1.440   8.406  0.3699  2.8211  3.9248
  144MOL0     H19815  -0.158   1.203   8.384  2.2169  2.5104 -1.7955
  144MOL0     H19816  -0.319   1.221   8.313 -0.6349  2.6049 -3.3001
  144MOL0     H19817  -0.102   1.292   8.169  1.8382  2.5953 -0.6474
  144MOL0     H19818  -0.093   1.423   8.283 -0.2126  0.1777 -0.7546
  144MOL0     H19819  -0.328   1.381   8.098 -0.3768  1.0044 -0.9944
  144MOL0     H19820  -0.316   1.516   8.203 -0.3434  1.4080 -1.7661
  144MOL0     H19821  -0.090   1.702   8.124  0.5809  0.1246  0.0987
  144MOL0     H19822   0.057   1.810   8.008  2.3361 -0.0941  0.6106
  144MOL0     H19823   0.035   1.807   7.827  3.1510  1.7514 -0.5697
  144MOL0     H19824   0.222   1.613   7.953 -5.1827 -0.6924  0.9183
  144MOL0     H19825   0.194   1.641   7.788 -1.4393  1.9809 -0.9524
  144MOL0     H19826   0.301   1.843   7.997 -2.8286  1.5963  0.0246
  144MOL0     H19827   0.395   1.767   7.870  1.2114  0.5865  4.2775
  144MOL0     H19828   0.187   1.990   7.833  0.2681  0.1006 -0.1074
  144MOL0     H19829   0.353   1.998   7.789 -1.1277  1.1843 -1.2717
  144MOL0     H19830   0.495   1.937   7.635  1.4437 -0.3289 -0.0927
  144MOL0     H19831   0.775   1.805   7.479  1.5569 -2.5237  0.8598
  144MOL0     H19832   0.755   1.757   7.653 -1.2296 -1.7482 -0.7798
  144MOL0     H19833   0.707   1.915   7.603 -0.0080 -1.0311  0.9717
  144MOL0     H19834   0.867   1.438   7.333  0.6785  0.3916  0.7649
  144MOL0     H19835   0.980   1.248   7.207 -0.4678 -2.4566  1.9202
  144MOL0     H19836   0.726   0.954   6.944 -2.5074  0.5352 -2.7462
  144MOL0     H19837   0.729   1.113   6.864  0.4974  0.2221  1.7873
  144MOL0     H19838   0.961   0.927   6.858 -0.0042  1.3055  1.8542
  144MOL0     H19839   0.851   0.939   6.728  3.5651  0.0757 -1.6078
  144MOL0     H19840   1.027   1.143   6.841 -2.6080 -3.2820  0.9981
  144MOL0     H19841   0.914   1.201   6.715  0.4142  0.4422 -1.6358
  144MOL0     H19842   1.006   1.047   6.558 -0.9921  0.3722  1.2919
  144MOL0     H19843   1.121   0.983   6.673  0.4444  2.0877  2.4146
  144MOL0     H19844   1.143   1.264   6.581 -2.5611 -0.6760 -0.8071
  144MOL0     H19845   1.207   1.196   6.732  1.0269  0.7285 -0.1631
  144MOL0     H19846   1.350   1.042   6.613  0.5552  1.7229  2.1444
  144MOL0     H19847   1.389   1.200   6.555  3.3056 -3.1722  0.2696
  144MOL0     H19848   1.265   1.180   6.347  0.7296  0.4872  1.5655
  144MOL0     H19849   1.193   1.030   6.396 -0.5986  0.9124  0.8625
  144MOL0     H19850   1.422   0.933   6.423 -0.3406 -0.6197 -1.5999
  144MOL0     H19851   1.497   1.086   6.356  1.3129 -1.8956 -3.4553
  144MOL0     H19852   0.603   1.108   7.074  0.1435 -0.2527 -0.6022
  144MOL0     H19853   0.492   1.281   7.199 -0.0497 -1.3267  0.1965
  144MOL0     H19854   0.370   1.487   7.482  0.3519 -1.4986  4.9250
  144MOL0     H19855   0.202   1.634   7.549 -0.1108 -3.5264  2.9173
  144MOL0     H19856  -0.052   1.562   8.635  0.3462  1.0012 -0.3953
  144MOL0     H19857   0.142   1.657   8.523 -2.5408 -1.0025 -0.6113
  144MOL0     H19858   0.628   1.681   8.627 -0.3344 -0.9011 -0.5210
  144MOL0     H19859   0.855   1.748   8.590 -0.6302 -0.5311  0.1694
  144MOL0     H19860   1.141   1.947   8.431  3.5025 -2.6300  5.0559
  144MOL0     H19861   1.030   1.864   8.544 -3.1448  2.2129  0.0923
  144MOL0     H19862   1.034   1.676   8.390  2.6972  0.3409  1.3730
  144MOL0     H19863   1.201   1.741   8.366  0.6423 -2.4613  1.1850
  144MOL0     H19864   0.953   1.805   8.205  0.9800  1.8239 -0.2531
  144MOL0     H19865   1.114   1.839   8.150  1.1492  0.2018  2.5936
  144MOL0     H19866   1.028   1.559   8.213 -0.1173  1.3322  0.5830
  144MOL0     H19867   1.167   1.601   8.116 -1.1160 -1.6982 -0.5187
  144MOL0     H19868   0.887   1.598   7.800 -3.0316  0.4554  2.1147
  144MOL0     H19869   0.729   2.002   8.275  0.6505 -0.0745  0.1538
  144MOL0     H19870   0.377   2.005   8.321  2.2698  2.8072  2.4745
  144MOL0     H19871   0.506   2.041   8.202 -0.6393 -1.0385 -1.4425
  144MOL0     H19872   0.444   1.885   8.204  3.5658  0.5333 -1.6955
  145MOL0     O19873   3.199   7.957   7.209 -0.9091  0.7989 -0.2988
  145MOL0     C19874   3.313   7.998   7.175 -0.7713 -0.2549  0.9322
  145MOL0     O19875   3.428   7.988   7.249  0.0287  0.5975 -0.3411
  145MOL0     C19876   3.408   7.914   7.370  0.0208 -0.2971 -0.0323
  145MOL0     C19877   3.387   7.980   7.492  0.0005 -0.3741 -1.0945
  145MOL0     C19878   3.363   7.897   7.605 -0.6549 -1.0569  0.5121
  145MOL0     C19879   3.353   7.758   7.596 -0.0148 -1.6189  0.8812
  145MOL0     O19880   3.318   7.699   7.713 -0.2440  0.1345 -0.1523
  145MOL0     C19881   3.252   7.579   7.712  0.2903  0.3676 -0.0627
  145MOL0     C19882   3.173   7.569   7.841 -0.1326  0.3321 -0.0099
  145MOL0     C19883   3.062   7.672   7.856 -1.1244 -0.5003  0.8160
  145MOL0     C19884   2.941   7.669   7.756 -0.8631  0.3812 -0.3177
  145MOL0     C19885   2.836   7.775   7.798 -0.2745 -0.0200 -0.0672
  145MOL0     C19886   2.877   7.920   7.805  0.1887  0.1626 -0.0297
  145MOL0     C19887   2.935   7.986   7.680  0.1518  0.2667 -0.1971
  145MOL0     C19888   2.965   8.138   7.676 -0.0578  0.0822  0.0083
  145MOL0     N19889   3.077   8.186   7.758 -0.2029  0.3842 -0.1701
  145MOL0     C19890   3.087   8.318   7.801 -0.6455 -0.4097  0.1007
  145MOL0     C19891   3.206   8.326   7.857  0.0325  0.2950  0.0075
  145MOL0     C19892   3.283   8.447   7.910 -0.0576  0.4018 -0.4589
  145MOL0     C19893   3.292   8.431   8.062 -0.3417  0.7662  0.3803
  145MOL0     C19894   3.335   8.561   8.131  0.1138 -0.1407 -0.7442
  145MOL0     C19895   3.295   8.549   8.281  0.2338 -0.0772 -0.3955
  145MOL0     O19896   3.398   8.467   8.344 -0.3694  0.4725 -0.9116
  145MOL0     C19897   3.394   8.462   8.488  1.2014 -0.3776  0.2151
  145MOL0     C19898   3.283   8.447   8.564 -0.2092  0.0481  0.3627
  145MOL0     C19899   3.284   8.464   8.700  0.6895 -1.1162 -0.1988
  145MOL0     C19900   3.158   8.455   8.773  0.0166 -0.2720 -0.5049
  145MOL0     C19901   3.401   8.495   8.771  0.0905  0.1636  0.6366
  145MOL0     C19902   3.424   8.520   8.914  0.2103  0.5742  1.0939
  145MOL0     O19903   3.548   8.496   8.959 -0.0340 -0.2067 -0.1985
  145MOL0     C19904   3.565   8.494   9.093 -0.7229 -0.0954 -0.2044
  145MOL0     C19905   3.571   8.380   9.171  1.2180 -0.1087  0.0170
  145MOL0     C19906   3.604   8.387   9.310  1.0933  0.3787  0.7133
  145MOL0     C19907   3.648   8.505   9.366 -0.0878 -0.6660  1.2708
  145MOL0     O19908   3.699   8.514   9.494 -0.0676  1.2047  0.0384
  145MOL0     C19909   3.613   8.569   9.590 -0.2570 -0.3534 -1.0182
  145MOL0     C19910   3.672   8.546   9.732  0.1831 -1.2149  0.3571
  145MOL0     C19911   3.806   8.607   9.772  1.5840  0.8446 -0.3528
  145MOL0     C19912   3.865   8.582   9.909  0.7356  0.2308  0.0483
  145MOL0     C19913   4.014   8.622   9.893  0.0588 -0.2891 -0.4369
  145MOL0     C19914   4.086   8.630  10.027  0.4698  0.5631 -0.3819
  145MOL0     C19915   4.227   8.680  10.001  0.1368 -0.3605  0.3798
  145MOL0     C19916   4.279   8.719  10.134  0.7551 -0.8586 -0.0567
  145MOL0    Cl19917   4.416   8.605  10.176 -0.2990  0.0174 -0.0836
  145MOL0     C19918   3.658   8.612   9.276 -0.2733  0.1772  0.1316
  145MOL0     C19919   3.620   8.611   9.146  0.0290  0.4526 -0.0631
  145MOL0     O19920   3.334   8.551   8.984  0.1065 -0.0724  0.8816
  145MOL0     C19921   3.519   8.499   8.690  0.4266 -0.7843  0.8844
  145MOL0     C19922   3.512   8.491   8.555  0.3001 -0.6454 -0.4534
  145MOL0     N19923   3.266   8.199   7.849  0.0799  0.8609  0.9838
  145MOL0     N19924   3.185   8.109   7.776  0.1549 -0.1568 -0.3455
  145MOL0     C19925   3.378   7.694   7.469  0.4571  0.1271 -0.7782
  145MOL0     C19926   3.410   7.771   7.356 -0.0776  0.8221 -0.9116
  145MOL0     C19927   3.328   8.044   7.024 -0.9205 -0.3618 -0.4413
  145MOL0     C19928   3.457   8.078   6.985 -0.2512  0.0372  0.1105
  145MOL0     C19929   3.492   8.125   6.861  0.1707  0.1105  0.0723
  145MOL0     C19930   3.396   8.144   6.762  0.5590  0.2086  0.0747
  145MOL0     O19931   3.432   8.168   6.630  0.4534  0.5063  0.0413
  145MOL0     C19932   3.560   8.141   6.574 -0.7869 -0.0234 -0.1368
  145MOL0     C19933   3.657   8.262   6.593 -0.3871 -0.1841  0.2872
  145MOL0     C19934   3.810   8.217   6.570  0.7365  0.2053  0.8384
  145MOL0     C19935   3.863   8.140   6.690 -0.1850 -0.0201 -0.2534
  145MOL0     C19936   4.001   8.106   6.672 -0.0805  1.0929 -0.3859
  145MOL0     C19937   4.119   8.073   6.661  0.2555  0.9922  0.3227
  145MOL0     C19938   3.260   8.109   6.797 -0.4386 -0.2763 -0.5178
  145MOL0     C19939   3.227   8.071   6.930  0.3048 -1.3112  0.3083
  145MOL0     C19940   3.080   8.042   6.960  0.1615  0.2038 -0.8127
  145MOL0     H19941   3.390   8.085   7.518  0.1360 -0.9501  1.5007
  145MOL0     H19942   3.356   7.959   7.694 -2.2372  1.1537 -1.0446
  145MOL0     H19943   3.326   7.499   7.698  0.7720  1.0401 -1.6471
  145MOL0     H19944   3.183   7.587   7.627  0.7693 -0.8401 -0.5910
  145MOL0     H19945   3.127   7.470   7.841  0.8273 -0.1475 -1.4276
  145MOL0     H19946   3.237   7.579   7.929 -1.5617  1.7241  0.9210
  145MOL0     H19947   3.017   7.658   7.955 -4.0083 -0.9916 -0.4568
  145MOL0     H19948   3.103   7.773   7.857 -0.6549 -0.6538 -0.6693
  145MOL0     H19949   2.970   7.690   7.652  4.8647 -1.1169  0.6086
  145MOL0     H19950   2.896   7.569   7.758 -1.6247  0.6726  3.3296
  145MOL0     H19951   2.777   7.753   7.888 -0.2799 -1.4451 -0.3850
  145MOL0     H19952   2.757   7.768   7.722 -0.3965 -1.9914  0.1762
  145MOL0     H19953   2.787   7.974   7.836 -2.3334 -1.5844 -3.6789
  145MOL0     H19954   2.959   7.925   7.877  1.9374 -5.1817 -1.1950
  145MOL0     H19955   2.865   7.969   7.598 -1.0549  2.1021  0.3950
  145MOL0     H19956   3.020   7.925   7.647 -0.3125 -0.6916  0.3371
  145MOL0     H19957   2.982   8.162   7.570 -1.2086 -1.2442 -0.5058
  145MOL0     H19958   2.878   8.200   7.702  0.7443  0.9776  0.6394
  145MOL0     H19959   3.019   8.403   7.797  0.5563  0.6090  0.5999
  145MOL0     H19960   3.223   8.536   7.890 -1.4903 -0.2577  0.6893
  145MOL0     H19961   3.387   8.443   7.876  1.5270 -2.9340  3.7976
  145MOL0     H19962   3.192   8.406   8.100  1.1454 -2.7679  2.4621
  145MOL0     H19963   3.359   8.348   8.085  0.6712  0.7505 -2.3017
  145MOL0     H19964   3.440   8.589   8.121  0.2407  0.0618  0.9404
  145MOL0     H19965   3.282   8.651   8.097 -1.4231 -0.8197 -0.2205
  145MOL0     H19966   3.283   8.650   8.320 -0.7218 -0.6004  0.7593
  145MOL0     H19967   3.203   8.492   8.300 -0.5267  1.2408  0.0222
  145MOL0     H19968   3.193   8.416   8.511  1.0869 -0.4324 -1.6558
  145MOL0     H19969   3.179   8.386   8.855  3.0555  0.4653 -0.5580
  145MOL0     H19970   3.076   8.423   8.708 -1.7228 -2.2703  2.4175
  145MOL0     H19971   3.131   8.546   8.827 -3.1942 -0.2341 -1.9338
  145MOL0     H19972   3.545   8.285   9.127 -2.2997  1.8628 -2.7034
  145MOL0     H19973   3.606   8.295   9.368  1.1554 -0.1343 -0.0879
  145MOL0     H19974   3.604   8.674   9.562 -1.6596 -0.9197 -2.8964
  145MOL0     H19975   3.515   8.521   9.600  0.9253 -2.4992  4.6446
  145MOL0     H19976   3.596   8.592   9.796 -0.4022  0.1836 -1.2825
  145MOL0     H19977   3.681   8.438   9.751  0.0249 -1.3523 -0.3348
  145MOL0     H19978   3.793   8.716   9.768 -1.5278  0.5536 -2.7265
  145MOL0     H19979   3.870   8.582   9.687  1.5653  6.4341 -2.3985
  145MOL0     H19980   3.852   8.478   9.943 -1.9176  0.6239  0.4772
  145MOL0     H19981   3.809   8.645   9.978 -1.0087 -0.3290 -0.7698
  145MOL0     H19982   4.059   8.531   9.852 -2.5601 -2.9084  1.9918
  145MOL0     H19983   4.022   8.706   9.823 -1.4796 -0.3174 -0.6900
  145MOL0     H19984   4.089   8.536  10.083  1.1204  0.1170 -1.1328
  145MOL0     H19985   4.032   8.699  10.093 -0.2546 -0.1813 -0.1868
  145MOL0     H19986   4.233   8.760   9.926 -1.3865  1.6801  2.2816
  145MOL0     H19987   4.292   8.596   9.974 -0.3879 -0.5884 -0.1842
  145MOL0     H19988   4.207   8.713  10.216  0.9192 -0.9194  0.0845
  145MOL0     H19989   4.314   8.823  10.130 -0.8167 -0.1116  2.8438
  145MOL0     H19990   3.707   8.701   9.314  0.0359  0.6996 -1.4314
  145MOL0     H19991   3.629   8.704   9.092 -0.8044  0.2766 -0.5283
  145MOL0     H19992   3.615   8.522   8.736  1.0538 -2.2931  0.3743
  145MOL0     H19993   3.603   8.507   8.498 -0.4840 -1.4287 -1.9858
  145MOL0     H19994   3.368   7.586   7.468  1.3698 -0.0002 -3.3605
  145MOL0     H19995   3.400   7.719   7.261  0.3058  1.5786 -1.3686
  145MOL0     H19996   3.541   8.064   7.053 -0.5498 -4.4226 -0.1676
  145MOL0     H19997   3.595   8.158   6.848  0.1707  1.3378  2.5927
  145MOL0     H19998   3.598   8.051   6.624 -1.4337 -0.7829 -0.9750
  145MOL0     H19999   3.553   8.110   6.469 -2.1773 -2.8347  0.6656
  145MOL0     H20000   3.654   8.302   6.695 -0.3885  0.4875  0.0227
  145MOL0     H20001   3.644   8.336   6.515 -3.0483 -2.8298 -2.0197
  145MOL0     H20002   3.812   8.147   6.486 -1.1433 -1.3541  2.0172
  145MOL0     H20003   3.875   8.303   6.553  1.2098 -0.3774 -0.4645
  145MOL0     H20004   3.813   8.043   6.700 -0.6539  0.2618  0.1852
  145MOL0     H20005   3.858   8.193   6.786 -0.1464 -0.1148 -0.1979
  145MOL0     H20006   4.221   8.043   6.651  0.2025  0.8997  0.0515
  145MOL0     H20007   3.178   8.107   6.725 -0.8474 -2.3205 -0.0818
  145MOL0     H20008   3.024   8.104   6.889 -0.9763  0.1656  0.0331
  145MOL0     H20009   3.062   7.937   6.936 -3.2717  0.9747 -2.3064
  145MOL0     H20010   3.050   8.070   7.061  2.0167  3.2871 -1.0056
  146MOL0     O20011   4.084   2.902   8.451 -0.4830 -0.0425 -0.3242
  146MOL0     C20012   3.962   2.899   8.451  1.6052  0.2212  0.0915
  146MOL0     O20013   3.874   2.905   8.563  0.0725  0.2492 -0.0552
  146MOL0     C20014   3.925   2.980   8.665  0.3381 -0.1077  1.1634
  146MOL0     C20015   4.000   2.924   8.758  0.6438 -0.3667  0.1450
  146MOL0     C20016   4.050   3.000   8.858 -0.1107  0.0612  0.2285
  146MOL0     C20017   4.011   3.129   8.875  0.2136 -0.5557 -0.1703
  146MOL0     O20018   4.071   3.199   8.976  0.8777 -0.0750 -0.1344
  146MOL0     C20019   4.032   3.333   8.997 -0.1631  0.3812 -0.2112
  146MOL0     C20020   4.085   3.395   9.121 -0.7931 -0.5518  0.5293
  146MOL0     C20021   4.086   3.305   9.241  0.6544 -0.0581  0.0853
  146MOL0     C20022   4.149   3.361   9.373  0.4519 -0.0050 -0.0744
  146MOL0     C20023   4.165   3.252   9.471 -0.6597 -0.4995  0.8279
  146MOL0     C20024   4.232   3.300   9.601 -0.7470  0.2644  0.2237
  146MOL0     C20025   4.272   3.198   9.707 -0.5427  0.8342 -0.1697
  146MOL0     C20026   4.154   3.174   9.807  0.3619  0.0466 -0.1028
  146MOL0     N20027   4.214   3.100   9.920  0.6986 -0.5279 -0.1107
  146MOL0     C20028   4.241   3.156  10.051 -0.0378 -0.1046  0.1514
  146MOL0     C20029   4.296   3.056  10.121 -0.3435  1.2931 -0.1833
  146MOL0     C20030   4.375   3.064  10.250  0.3428  0.5242  0.4648
  146MOL0     C20031   4.289   3.039  10.373  0.1505  0.3634  0.5739
  146MOL0     C20032   4.199   2.911  10.369  0.0577 -0.6876 -0.5560
  146MOL0     C20033   4.298   2.785  10.362  0.0397  1.2187 -0.4055
  146MOL0     O20034   4.413   2.800  10.449  0.4043  0.1478 -0.3046
  146MOL0     C20035   4.485   2.699  10.489 -0.3798  0.1225 -0.7502
  146MOL0     C20036   4.577   2.737  10.584  1.1286 -0.7839  0.6636
  146MOL0     C20037   4.655   2.642  10.645 -0.6423 -0.3028  0.2514
  146MOL0     C20038   4.744   2.696  10.747  0.6249 -0.5617 -0.0683
  146MOL0     C20039   4.663   2.506  10.592 -0.0724 -0.6246 -0.2216
  146MOL0     C20040   4.748   2.397  10.644 -1.1937 -0.3018 -0.3088
  146MOL0     O20041   4.787   2.398  10.775 -0.2429  0.0201  0.4888
  146MOL0     C20042   4.850   2.294  10.824 -0.2345  0.8866  0.4884
  146MOL0     C20043   4.822   2.154  10.803 -0.1775  0.6723 -0.1538
  146MOL0     C20044   4.880   2.056  10.889  0.1033 -1.0162 -0.7104
  146MOL0     C20045   4.964   2.101  10.993 -0.0902 -0.1326 -0.2047
  146MOL0     O20046   5.039   2.022  11.078 -0.1939  0.4977 -0.0072
  146MOL0     C20047   5.068   1.889  11.041 -0.0634  0.6189 -0.4669
  146MOL0     C20048   5.174   1.885  10.931 -0.7948  0.5628  0.1092
  146MOL0     C20049   5.306   1.823  10.966 -1.0500 -0.2638 -0.3868
  146MOL0     C20050   5.309   1.668  10.942  0.0854 -0.6983 -0.3751
  146MOL0     C20051   5.438   1.606  10.996 -0.2666 -0.0774 -0.4342
  146MOL0     C20052   5.572   1.619  10.919  1.1231 -1.0784 -0.4338
  146MOL0     C20053   5.694   1.598  11.019  0.9556  1.1251  0.8899
  146MOL0     C20054   5.826   1.632  10.960  0.3526  0.0222  0.3981
  146MOL0    Cl20055   5.873   1.551  10.800  0.0701  0.3645  0.1074
  146MOL0     C20056   4.989   2.233  11.007  0.7329  0.1728  0.0323
  146MOL0     C20057   4.931   2.327  10.928  0.3127 -0.2436 -0.3897
  146MOL0     O20058   4.786   2.320  10.557  1.0137  0.6872  0.2431
  146MOL0     C20059   4.569   2.481  10.488 -0.0461  0.4047  0.1359
  146MOL0     C20060   4.481   2.577  10.437 -0.4663  0.6836 -0.5488
  146MOL0     N20061   4.299   2.939  10.033  0.2139 -0.0567 -0.7330
  146MOL0     N20062   4.246   2.970   9.924 -0.3848 -0.2258  0.3981
  146MOL0     C20063   3.936   3.190   8.770 -0.2749  0.1012  1.0065
  146MOL0     C20064   3.897   3.114   8.663 -0.2757 -0.5980  0.3590
  146MOL0     C20065   3.887   2.865   8.320 -0.5411 -0.1401  0.0802
  146MOL0     C20066   3.745   2.853   8.325  0.1359  1.3458  0.1371
  146MOL0     C20067   3.670   2.811   8.214 -0.5410 -0.3359 -0.5385
  146MOL0     C20068   3.740   2.804   8.090 -0.4200 -0.4005 -0.0333
  146MOL0     O20069   3.680   2.778   7.968  0.7671 -0.4450  0.0071
  146MOL0     C20070   3.662   2.641   7.919 -0.5970 -0.4437 -0.1047
  146MOL0     C20071   3.582   2.629   7.789 -0.2596  0.4992  0.3022
  146MOL0     C20072   3.442   2.692   7.810  0.5720  0.4260  0.2350
  146MOL0     C20073   3.357   2.656   7.681  0.5991 -0.8668 -0.0197
  146MOL0     C20074   3.247   2.753   7.691  1.3665 -0.7695  0.0308
  146MOL0     C20075   3.151   2.836   7.689 -0.1106  0.2434 -0.1181
  146MOL0     C20076   3.869   2.826   8.084 -0.2468  0.0145 -0.7444
  146MOL0     C20077   3.953   2.849   8.193 -0.7169 -0.6215  0.0260
  146MOL0     C20078   4.107   2.861   8.165  0.1451 -0.5484  1.1457
  146MOL0     H20079   4.035   2.822   8.745 -0.3072 -0.8803  1.3174
  146MOL0     H20080   4.134   2.957   8.913  0.4674  0.1732 -0.5541
  146MOL0     H20081   3.924   3.350   9.001 -0.4876 -1.1800  4.7794
  146MOL0     H20082   4.084   3.394   8.923  1.4395  0.0417  0.5873
  146MOL0     H20083   4.181   3.442   9.098 -1.1652  1.1596  2.1509
  146MOL0     H20084   4.032   3.488   9.146  1.5058  0.6114  1.4113
  146MOL0     H20085   3.981   3.283   9.263  0.1828 -1.0595 -2.8038
  146MOL0     H20086   4.150   3.218   9.224 -0.3325 -0.2913 -2.9750
  146MOL0     H20087   4.252   3.392   9.353  0.4240  0.7811  0.8958
  146MOL0     H20088   4.093   3.447   9.412  0.8339  0.5353 -0.7001
  146MOL0     H20089   4.239   3.185   9.426 -0.2487 -1.7643  3.2321
  146MOL0     H20090   4.069   3.206   9.492 -1.2475  1.0229  1.6432
  146MOL0     H20091   4.326   3.342   9.564 -1.3589 -1.6097 -4.0631
  146MOL0     H20092   4.175   3.380   9.649  1.7451  3.1264 -1.2216
  146MOL0     H20093   4.354   3.228   9.774  0.5793 -1.5448 -0.3881
  146MOL0     H20094   4.319   3.110   9.662  0.2672  0.0354  2.0709
  146MOL0     H20095   4.101   3.259   9.850  0.2650 -0.5705  1.0239
  146MOL0     H20096   4.081   3.108   9.759 -0.1759  1.4442 -1.2555
  146MOL0     H20097   4.241   3.262  10.076  1.4931  0.9652 -3.6538
  146MOL0     H20098   4.436   3.154  10.262  0.4762  0.6994 -1.3009
  146MOL0     H20099   4.430   2.970  10.257 -1.0222 -0.1848  2.5903
  146MOL0     H20100   4.346   3.031  10.467  0.1980 -0.8924  0.4459
  146MOL0     H20101   4.235   3.134  10.375  1.3927  1.1466 -0.7993
  146MOL0     H20102   4.142   2.914  10.462  0.2476  0.0142 -0.4579
  146MOL0     H20103   4.130   2.908  10.284 -1.5554  2.5974  0.4610
  146MOL0     H20104   4.242   2.698  10.396  0.4323  0.7760 -0.8699
  146MOL0     H20105   4.327   2.761  10.259  0.3027 -3.3310  0.5224
  146MOL0     H20106   4.587   2.844  10.603 -2.7390 -0.6551  3.1990
  146MOL0     H20107   4.750   2.621  10.826  1.4941  1.9128  2.3671
  146MOL0     H20108   4.694   2.783  10.790  1.5373  0.7614 -1.5702
  146MOL0     H20109   4.847   2.717  10.717  1.1113 -1.4583  0.9264
  146MOL0     H20110   4.742   2.118  10.738  2.2299 -1.6970 -1.9983
  146MOL0     H20111   4.838   1.957  10.873 -6.1791  1.1004  0.0230
  146MOL0     H20112   5.095   1.843  11.136 -0.5274  2.5775  0.6634
  146MOL0     H20113   4.976   1.837  11.012 -1.1200  3.1550 -2.0190
  146MOL0     H20114   5.138   1.843  10.836 -0.9690 -1.0730  0.8753
  146MOL0     H20115   5.202   1.988  10.904  0.9837  0.4956  1.5889
  146MOL0     H20116   5.323   1.851  11.070  0.8784  0.7704 -0.9284
  146MOL0     H20117   5.385   1.865  10.904  1.4908 -2.1322  1.3927
  146MOL0     H20118   5.312   1.650  10.834  1.1254  1.8696 -0.8547
  146MOL0     H20119   5.224   1.623  10.993  0.5391  0.0000  1.0516
  146MOL0     H20120   5.454   1.635  11.100 -1.4714  1.5059 -0.6573
  146MOL0     H20121   5.437   1.496  10.998  3.6400 -0.2287  1.5844
  146MOL0     H20122   5.588   1.722  10.886  1.8696 -0.8258  0.6735
  146MOL0     H20123   5.583   1.559  10.828  2.8952 -1.5073  0.0140
  146MOL0     H20124   5.691   1.492  11.048  2.9332  0.2923 -1.5722
  146MOL0     H20125   5.671   1.659  11.107 -1.0623 -2.4708  3.1347
  146MOL0     H20126   5.898   1.595  11.034 -3.0204 -2.1939  2.8928
  146MOL0     H20127   5.845   1.739  10.954 -0.7327  0.2544  0.7899
  146MOL0     H20128   5.066   2.275  11.071  2.4039  0.0617 -1.8039
  146MOL0     H20129   4.959   2.428  10.956 -0.0346 -0.3365  0.3157
  146MOL0     H20130   4.562   2.376  10.462  2.5909  0.5396 -1.4819
  146MOL0     H20131   4.418   2.545  10.354  1.1868  1.4511 -2.1800
  146MOL0     H20132   3.923   3.297   8.769  2.4737  0.5268  0.0386
  146MOL0     H20133   3.843   3.148   8.575  2.0920  3.0349  0.0839
  146MOL0     H20134   3.683   2.863   8.414  1.5025 -1.4168  1.5361
  146MOL0     H20135   3.562   2.800   8.210 -0.9434  1.9097  1.9520
  146MOL0     H20136   3.757   2.588   7.908 -0.7485 -0.3800 -1.9046
  146MOL0     H20137   3.599   2.592   7.994 -2.4983  1.0862 -0.6345
  146MOL0     H20138   3.573   2.522   7.767  2.9577 -0.3370  2.4174
  146MOL0     H20139   3.629   2.677   7.703 -1.0254  2.8257  1.1155
  146MOL0     H20140   3.394   2.650   7.899  0.2114  3.6269  1.6579
  146MOL0     H20141   3.454   2.800   7.820  0.7503  0.5625 -1.1834
  146MOL0     H20142   3.310   2.558   7.680 -0.0967 -0.5354 -1.0786
  146MOL0     H20143   3.416   2.664   7.589  1.5246 -1.2672  0.5171
  146MOL0     H20144   3.081   2.916   7.676  0.6147  1.2496  1.8406
  146MOL0     H20145   3.899   2.842   7.981 -0.1821  5.2057 -0.1731
  146MOL0     H20146   4.124   2.860   8.057 -0.0475  1.1909  1.0773
  146MOL0     H20147   4.152   2.951   8.209 -0.6802 -0.6691  2.2724
  146MOL0     H20148   4.169   2.783   8.210  4.0792  1.6653  0.0092
  147MOL0     O20149   1.163   7.506   8.447  0.3216 -0.1610  0.7696
  147MOL0     C20150   1.158   7.504   8.328  0.3841 -0.8893  0.1748
  147MOL0     O20151   1.090   7.587   8.250 -0.7379 -0.0942 -0.0469
  147MOL0     C20152   1.005   7.682   8.317  0.0735 -0.0820 -0.0235
  147MOL0     C20153   1.056   7.812   8.349  0.0324 -1.0769  0.6291
  147MOL0     C20154   0.985   7.900   8.436 -0.9400 -0.2190 -0.4437
  147MOL0     C20155   0.875   7.856   8.507 -0.2773  0.2858 -0.2335
  147MOL0     O20156   0.796   7.942   8.577 -0.3083 -0.3315 -0.6389
  147MOL0     C20157   0.865   8.026   8.664 -0.2350 -0.3098  0.3360
  147MOL0     C20158   0.902   8.177   8.614  0.2270  0.7980  0.5692
  147MOL0     C20159   1.007   8.258   8.698  0.4700  0.8001 -0.4513
  147MOL0     C20160   0.961   8.397   8.706  0.4787 -0.7783  0.0286
  147MOL0     C20161   1.051   8.486   8.803 -0.3008  0.2460  0.3607
  147MOL0     C20162   0.996   8.629   8.790 -0.1104  0.9953  1.3480
  147MOL0     C20163   0.848   8.664   8.827 -1.5343 -0.7797 -1.0630
  147MOL0     C20164   0.815   8.808   8.782  0.6587 -0.4067  0.9777
  147MOL0     N20165   0.910   8.913   8.834  0.0169  0.3660 -0.5399
  147MOL0     C20166   0.940   8.948   8.964  0.9079 -0.6208  0.8479
  147MOL0     C20167   0.972   9.081   8.960 -0.0848 -0.7400  0.9430
  147MOL0     C20168   1.011   9.180   9.072  0.4639 -0.1269 -0.3542
  147MOL0     C20169   0.916   9.303   9.083  0.2255  0.5992 -0.9604
  147MOL0     C20170   0.949   9.408   9.192 -0.1289  1.0206  0.1831
  147MOL0     C20171   0.980   9.347   9.338 -0.5669 -0.5730 -0.6689
  147MOL0     O20172   0.864   9.280   9.392  0.1985  0.4072 -0.3263
  147MOL0     C20173   0.769   9.361   9.444  0.1099  0.2335  0.6938
  147MOL0     C20174   0.648   9.294   9.459  0.4807 -0.8847  0.7973
  147MOL0     C20175   0.531   9.348   9.527 -0.2570 -0.3450  0.5790
  147MOL0     C20176   0.418   9.265   9.548  0.0427 -0.4183  0.0711
  147MOL0     C20177   0.534   9.479   9.564 -0.8865 -0.2997  0.4442
  147MOL0     C20178   0.407   9.554   9.594  0.1088 -0.2396  0.2625
  147MOL0     O20179   0.407   9.629   9.706 -0.4038 -0.2466 -0.4099
  147MOL0     C20180   0.300   9.716   9.714  0.1904 -0.4961 -0.0850
  147MOL0     C20181   0.223   9.707   9.825  0.4151  0.1068  0.0765
  147MOL0     C20182   0.109   9.786   9.832  0.2412 -0.3806  0.6825
  147MOL0     C20183   0.078   9.889   9.743 -0.7060 -0.3270  0.2679
  147MOL0     O20184  -0.028   9.973   9.763 -0.3062  1.0300  0.3244
  147MOL0     C20185  -0.089  10.040   9.654  0.2501  0.0868 -0.0005
  147MOL0     C20186  -0.202  10.120   9.729 -1.0610  0.1384  0.9483
  147MOL0     C20187  -0.327  10.036   9.767 -0.1261 -0.0723  0.9336
  147MOL0     C20188  -0.294   9.927   9.865  0.6203 -0.1382  0.3178
  147MOL0     C20189  -0.421   9.875   9.937  1.2514 -0.2319 -0.0565
  147MOL0     C20190  -0.525   9.805   9.846  0.3305  0.1227  0.1685
  147MOL0     C20191  -0.660   9.778   9.905  0.0120  0.5789  0.1399
  147MOL0     C20192  -0.663   9.711  10.034  0.3912  0.4278 -0.7187
  147MOL0    Cl20193  -0.547   9.574  10.036  0.1775  0.1576 -0.4463
  147MOL0     C20194   0.157   9.891   9.626 -0.3096  0.1192  0.0432
  147MOL0     C20195   0.269   9.810   9.619 -0.2032 -0.4116  0.2975
  147MOL0     O20196   0.314   9.539   9.513 -0.7234  0.1970 -0.3527
  147MOL0     C20197   0.656   9.554   9.542 -0.5702 -0.6475  0.9409
  147MOL0     C20198   0.769   9.490   9.478 -0.4646 -0.7718  0.2131
  147MOL0     N20199   0.969   9.119   8.825  0.6744  0.1160 -0.8525
  147MOL0     N20200   0.932   9.019   8.757  0.2555 -0.2028  0.2510
  147MOL0     C20201   0.820   7.733   8.463  0.7423 -0.3335 -0.2566
  147MOL0     C20202   0.885   7.647   8.367  0.2643  0.5872  0.7482
  147MOL0     C20203   1.239   7.399   8.267 -0.6218  0.3388  0.5816
  147MOL0     C20204   1.179   7.318   8.169  0.1445 -0.1748 -1.0712
  147MOL0     C20205   1.246   7.212   8.109  0.4167  0.4158 -0.5632
  147MOL0     C20206   1.373   7.176   8.146 -0.1549  0.0425 -0.6752
  147MOL0     O20207   1.430   7.055   8.102  0.5674 -0.2239  0.8714
  147MOL0     C20208   1.359   6.981   7.996  0.2168 -0.0299  0.1142
  147MOL0     C20209   1.445   6.867   7.948 -0.3673 -1.5009  0.4282
  147MOL0     C20210   1.362   6.783   7.851 -1.2494  0.0412 -0.3009
  147MOL0     C20211   1.438   6.660   7.798  0.3198  0.7376 -1.0230
  147MOL0     C20212   1.442   6.555   7.903  0.8675 -0.2775  0.3022
  147MOL0     C20213   1.447   6.464   7.985  0.4324 -0.1072  0.7008
  147MOL0     C20214   1.434   7.254   8.247  0.0249  0.3777  0.0888
  147MOL0     C20215   1.370   7.364   8.300 -0.5127  0.0484 -0.4532
  147MOL0     C20216   1.446   7.463   8.385 -0.1258 -0.3531 -0.1301
  147MOL0     H20217   1.143   7.857   8.303 -1.2288 -1.8498 -2.7996
  147MOL0     H20218   1.016   8.004   8.443 -3.1565  0.4787 -0.1600
  147MOL0     H20219   0.966   7.991   8.691  1.4255  2.8489 -1.2850
  147MOL0     H20220   0.810   8.022   8.759 -0.7006  1.4820  0.1610
  147MOL0     H20221   0.949   8.178   8.516 -0.9022  2.1337  0.0036
  147MOL0     H20222   0.799   8.212   8.604 -0.6657 -1.2403  1.8644
  147MOL0     H20223   1.020   8.212   8.796  0.4482 -0.3724 -0.9839
  147MOL0     H20224   1.102   8.246   8.645  0.2830 -1.1054 -0.4455
  147MOL0     H20225   0.967   8.447   8.609 -1.3960  0.8751  0.7026
  147MOL0     H20226   0.854   8.387   8.726  0.3545 -1.0151 -0.7247
  147MOL0     H20227   1.153   8.476   8.763 -0.6102 -0.2678 -0.3310
  147MOL0     H20228   1.051   8.461   8.909 -1.0599  3.0852  1.1080
  147MOL0     H20229   1.065   8.700   8.836  0.1906  1.2878  0.4753
  147MOL0     H20230   0.998   8.653   8.683 -1.8914  0.4726  1.1733
  147MOL0     H20231   0.842   8.641   8.934  0.7712 -1.6840 -1.0508
  147MOL0     H20232   0.788   8.591   8.772  0.6768 -0.8631 -3.5308
  147MOL0     H20233   0.806   8.824   8.674 -1.6312  3.7278  1.5605
  147MOL0     H20234   0.719   8.837   8.827  0.3428 -1.0121  0.7020
  147MOL0     H20235   0.923   8.894   9.057  0.2214  1.2402  1.8669
  147MOL0     H20236   1.115   9.214   9.068  0.7714 -1.1083 -1.2523
  147MOL0     H20237   1.001   9.114   9.159  2.1621 -1.2001 -0.9403
  147MOL0     H20238   0.907   9.362   8.991 -0.2292 -1.7998 -2.5453
  147MOL0     H20239   0.811   9.275   9.095  0.3845 -0.2081 -1.4136
  147MOL0     H20240   1.035   9.466   9.158 -1.1976  3.2475  1.0810
  147MOL0     H20241   0.865   9.478   9.199  1.2931  2.9004 -0.7449
  147MOL0     H20242   1.056   9.271   9.321 -0.3376 -0.1203 -1.8085
  147MOL0     H20243   1.011   9.432   9.399 -3.0394 -0.8390  1.1032
  147MOL0     H20244   0.636   9.189   9.437 -2.6769 -0.6313  0.7199
  147MOL0     H20245   0.447   9.159   9.546  1.4403 -0.1077  1.9634
  147MOL0     H20246   0.329   9.285   9.486  0.9831  0.8685 -0.9234
  147MOL0     H20247   0.381   9.290   9.647  1.1862  1.5439  0.0418
  147MOL0     H20248   0.239   9.632   9.902 -0.9512 -1.2479 -0.8981
  147MOL0     H20249   0.052   9.781   9.924 -0.4872 -1.3688  0.1967
  147MOL0     H20250  -0.007  10.097   9.610 -1.0600  0.7174 -1.7683
  147MOL0     H20251  -0.137   9.975   9.579  1.3652 -0.7809  0.0032
  147MOL0     H20252  -0.171  10.166   9.823 -1.5106 -0.4775  1.4081
  147MOL0     H20253  -0.238  10.191   9.654  0.3141 -0.7289 -0.6064
  147MOL0     H20254  -0.378   9.992   9.681 -3.6476 -0.1038  2.8832
  147MOL0     H20255  -0.397  10.112   9.802 -1.3824  0.3509 -2.1670
  147MOL0     H20256  -0.224   9.967   9.939  2.2150 -1.8234 -0.2139
  147MOL0     H20257  -0.238   9.848   9.814  2.9907  1.3495  0.4652
  147MOL0     H20258  -0.390   9.809  10.019  0.5615 -0.0490  0.3674
  147MOL0     H20259  -0.470   9.962   9.981 -2.0817 -1.8909 -0.1508
  147MOL0     H20260  -0.504   9.710   9.795 -0.4577 -1.1294  2.0644
  147MOL0     H20261  -0.557   9.875   9.768 -1.4392 -1.5089 -0.6653
  147MOL0     H20262  -0.714   9.719   9.830  0.7852 -0.9703  0.7429
  147MOL0     H20263  -0.702   9.877   9.926  0.6933  0.7784  0.5959
  147MOL0     H20264  -0.765   9.686  10.065  1.1072 -0.2403  1.2329
  147MOL0     H20265  -0.641   9.782  10.114  0.9372 -0.3977 -0.1145
  147MOL0     H20266   0.156   9.959   9.542  0.6476  2.2600  1.6907
  147MOL0     H20267   0.334   9.831   9.535 -1.1974 -1.2834 -0.7196
  147MOL0     H20268   0.665   9.659   9.567 -0.9738  0.6629 -3.5942
  147MOL0     H20269   0.851   9.555   9.449 -2.0080  0.8580 -0.7547
  147MOL0     H20270   0.724   7.706   8.508  1.1789 -0.2457  0.7636
  147MOL0     H20271   0.856   7.544   8.351  0.8923  0.7065 -1.5322
  147MOL0     H20272   1.077   7.336   8.137 -0.5413 -0.5470  0.7690
  147MOL0     H20273   1.191   7.161   8.031 -2.6055  3.6103 -0.8128
  147MOL0     H20274   1.263   6.951   8.040  1.5506  0.0421  3.3436
  147MOL0     H20275   1.327   7.040   7.909 -0.1587 -3.8717 -2.6141
  147MOL0     H20276   1.488   6.814   8.034  3.9871 -0.4465 -0.8432
  147MOL0     H20277   1.524   6.913   7.889 -1.1655 -3.0525 -1.9751
  147MOL0     H20278   1.280   6.749   7.915  1.0223 -0.8361  2.3468
  147MOL0     H20279   1.347   6.855   7.770  2.0284  0.0640 -1.0229
  147MOL0     H20280   1.540   6.673   7.763  0.6047 -1.6583 -1.2924
  147MOL0     H20281   1.377   6.621   7.716  0.6521 -1.5722 -0.2711
  147MOL0     H20282   1.439   6.376   8.046  0.8346 -0.7201 -0.1180
  147MOL0     H20283   1.526   7.209   8.284 -0.8417 -2.6314 -1.1253
  147MOL0     H20284   1.442   7.565   8.346  0.5442  0.2636  1.3149
  147MOL0     H20285   1.408   7.470   8.488  0.3790 -0.6950  0.0852
  147MOL0     H20286   1.546   7.427   8.411  0.4812 -0.2716 -2.1942
  148MOL0     O20287   4.527  10.141   0.159 -0.4003  0.9552 -0.3778
  148MOL0     C20288   4.424  10.201   0.136 -0.2125 -0.5277 -0.9090
  148MOL0     O20289   4.374  10.305   0.221  0.7498  0.6084  0.4868
  148MOL0     C20290   4.438  10.307   0.346  1.1967  0.2143 -1.7403
  148MOL0     C20291   4.511  10.420   0.378  0.6251  0.3974  0.4278
  148MOL0     C20292   4.562  10.443   0.511 -0.3874 -0.0915  1.0431
  148MOL0     C20293   4.527  10.355   0.612 -0.6459 -0.6493  0.0335
  148MOL0     O20294   4.575  10.359   0.742  0.2276 -0.1241 -0.1132
  148MOL0     C20295   4.698  10.443   0.762  0.0662 -0.0625  0.7854
  148MOL0     C20296   4.753  10.380   0.880  0.7522 -0.2622 -0.6708
  148MOL0     C20297   4.874  10.454   0.939 -0.6001  0.1976  0.0859
  148MOL0     C20298   4.979  10.480   0.827 -0.5007 -0.5962  0.3188
  148MOL0     C20299   5.113  10.543   0.860  0.6040 -0.3382  0.2118
  148MOL0     C20300   5.183  10.488   0.986  1.1349  0.5040  0.4486
  148MOL0     C20301   5.211  10.341   0.960 -0.3373 -0.1200  0.1935
  148MOL0     C20302   5.344  10.309   0.888  0.7845 -0.5263  0.3622
  148MOL0     N20303   5.418  10.197   0.940 -0.0676 -0.0767  0.2716
  148MOL0     C20304   5.371  10.072   0.961 -0.4655 -0.5504  0.3625
  148MOL0     C20305   5.473  10.002   1.019 -0.3017 -1.5553 -0.4095
  148MOL0     C20306   5.487   9.857   1.054 -0.2215  0.6019 -0.4154
  148MOL0     C20307   5.441   9.768   0.938  0.7140  0.5775  0.1418
  148MOL0     C20308   5.500   9.798   0.800  0.7618  0.8968  0.2629
  148MOL0     C20309   5.426   9.710   0.697 -0.8611  0.2235 -1.1522
  148MOL0     O20310   5.358   9.777   0.598 -0.7447 -0.0815  0.5299
  148MOL0     C20311   5.430   9.829   0.497  0.4202  0.2445 -0.1767
  148MOL0     C20312   5.358   9.904   0.405 -0.0118  0.4915  0.1380
  148MOL0     C20313   5.431   9.978   0.316 -0.5102 -0.1365 -0.1102
  148MOL0     C20314   5.346  10.076   0.235 -0.1405  0.1154  1.0537
  148MOL0     C20315   5.574   9.975   0.315  1.4203 -0.5299  0.8139
  148MOL0     C20316   5.653  10.044   0.213 -0.4304  0.0965  0.3252
  148MOL0     O20317   5.748   9.965   0.157  0.0370  0.4830 -0.4012
  148MOL0     C20318   5.796   9.991   0.033 -0.7004  0.0846  0.3643
  148MOL0     C20319   5.712  10.008  -0.074 -0.3316 -0.7621  1.4878
  148MOL0     C20320   5.762  10.004  -0.203 -1.0181  0.6664  0.0638
  148MOL0     C20321   5.884   9.975  -0.237  0.1950 -0.1266  0.5143
  148MOL0     O20322   5.923   9.986  -0.370  0.3216 -0.7587 -0.4441
  148MOL0     C20323   6.059   9.970  -0.410  0.4869  0.1624 -0.3229
  148MOL0     C20324   6.092   9.932  -0.547 -0.4370  0.0481  0.4943
  148MOL0     C20325   6.057  10.030  -0.658 -0.4751  0.9475  0.1269
  148MOL0     C20326   5.899  10.041  -0.679 -0.7313  0.0999  0.3359
  148MOL0     C20327   5.827   9.921  -0.750 -0.0301 -0.8916  0.4610
  148MOL0     C20328   5.907   9.859  -0.861  0.1920 -0.0825  0.2549
  148MOL0     C20329   5.837   9.779  -0.967  0.3568 -0.3789 -0.3060
  148MOL0     C20330   5.949   9.730  -1.063  0.7691  1.0765  0.3984
  148MOL0    Cl20331   5.983   9.855  -1.184  0.3224 -0.2540 -0.0402
  148MOL0     C20332   5.972   9.961  -0.129 -1.0707  0.5963  0.4485
  148MOL0     C20333   5.932   9.956   0.006 -0.4871 -1.1446  1.0309
  148MOL0     O20334   5.620  10.164   0.188  0.5115 -0.2028  0.1415
  148MOL0     C20335   5.645   9.895   0.404  0.4320 -0.5624  0.6518
  148MOL0     C20336   5.569   9.820   0.491 -0.6738 -0.5050 -0.5045
  148MOL0     N20337   5.586  10.086   1.018 -0.3567  0.2212  0.3381
  148MOL0     N20338   5.551  10.202   0.974 -0.3563 -0.6561  0.2848
  148MOL0     C20339   4.435  10.256   0.588 -0.6985 -0.8494 -0.0403
  148MOL0     C20340   4.391  10.226   0.453  0.4738 -0.1231  0.1503
  148MOL0     C20341   4.362  10.176  -0.001 -0.1857 -0.4841  0.0263
  148MOL0     C20342   4.306  10.285  -0.087 -0.4513 -0.4038 -0.4656
  148MOL0     C20343   4.247  10.251  -0.202  0.5122  0.6578 -0.9802
  148MOL0     C20344   4.223  10.123  -0.254 -0.0051 -0.1213  0.8511
  148MOL0     O20345   4.165  10.110  -0.384 -0.0217 -0.4220 -0.2960
  148MOL0     C20346   4.140  10.221  -0.472 -0.1029  0.7593  0.2759
  148MOL0     C20347   4.153  10.175  -0.615  0.0791  0.5330  0.5917
  148MOL0     C20348   4.294  10.142  -0.668 -0.9176  0.7278 -0.7181
  148MOL0     C20349   4.316  10.169  -0.820  0.3347 -0.3326 -0.0094
  148MOL0     C20350   4.207  10.138  -0.915 -0.3640 -0.6951  0.2636
  148MOL0     C20351   4.116  10.121  -1.003 -0.4125 -0.5335 -0.1691
  148MOL0     C20352   4.285  10.026  -0.177  0.6623  0.8134  0.3274
  148MOL0     C20353   4.355  10.044  -0.059  0.1710  0.4092  0.5895
  148MOL0     C20354   4.384   9.933   0.029 -0.5991 -0.5736 -1.1692
  148MOL0     H20355   4.541  10.499   0.310  0.9074  0.1025  0.2105
  148MOL0     H20356   4.629  10.526   0.532 -0.0145  0.2125 -1.1243
  148MOL0     H20357   4.666  10.545   0.784 -0.0889 -0.8578  5.0680
  148MOL0     H20358   4.765  10.441   0.676 -1.5793  3.3545 -0.7717
  148MOL0     H20359   4.671  10.370   0.952  1.7545  0.2516  0.5762
  148MOL0     H20360   4.798  10.283   0.855  2.3017 -0.2439  1.7207
  148MOL0     H20361   4.850  10.549   0.987  2.2428 -0.0079  2.1515
  148MOL0     H20362   4.919  10.394   1.019  1.0268  1.2538  0.0039
  148MOL0     H20363   4.993  10.385   0.774  1.2194 -1.0207  1.4889
  148MOL0     H20364   4.939  10.548   0.750  0.7098  2.8111  2.4765
  148MOL0     H20365   5.097  10.648   0.888  1.0618 -0.6497  1.7332
  148MOL0     H20366   5.177  10.537   0.772 -1.1375 -1.3111 -1.0563
  148MOL0     H20367   5.277  10.542   1.003  1.5856 -1.0389  3.5489
  148MOL0     H20368   5.119  10.493   1.075  0.5053 -0.8243  0.0936
  148MOL0     H20369   5.137  10.289   0.899 -0.8589  0.3333  0.4272
  148MOL0     H20370   5.214  10.298   1.060  0.1978 -2.7414 -0.8787
  148MOL0     H20371   5.321  10.296   0.781  1.2452  2.1386 -0.1350
  148MOL0     H20372   5.404  10.401   0.884  0.3142 -0.1739  1.3156
  148MOL0     H20373   5.272  10.036   0.932 -0.1129  0.0805 -1.7977
  148MOL0     H20374   5.435   9.839   1.148  3.5852 -2.4268  1.3842
  148MOL0     H20375   5.590   9.835   1.084 -0.2481  2.8903  1.6476
  148MOL0     H20376   5.459   9.662   0.958 -0.7432  0.2952  0.0836
  148MOL0     H20377   5.333   9.790   0.941  1.3038  4.3859  3.4651
  148MOL0     H20378   5.480   9.903   0.778  1.4131  0.9816  0.0604
  148MOL0     H20379   5.607   9.778   0.804  0.7753  1.1349  1.2888
  148MOL0     H20380   5.496   9.638   0.654 -0.8078 -0.5163  0.1345
  148MOL0     H20381   5.359   9.649   0.759  0.8814 -1.7308 -1.0997
  148MOL0     H20382   5.252   9.908   0.426  0.1355  1.4071  0.7997
  148MOL0     H20383   5.320  10.163   0.297  0.9544  1.8793 -0.8419
  148MOL0     H20384   5.248  10.038   0.205  0.9118  0.9037 -4.4542
  148MOL0     H20385   5.384  10.105   0.137 -3.5367 -1.3960 -0.8791
  148MOL0     H20386   5.606  10.029  -0.075 -0.4518 -0.7011 -3.1531
  148MOL0     H20387   5.686  10.028  -0.277 -0.6582  1.6669  0.0110
  148MOL0     H20388   6.111  10.064  -0.390  2.6488 -1.1890  0.8799
  148MOL0     H20389   6.115   9.905  -0.342 -2.6165 -0.1301  2.1829
  148MOL0     H20390   6.201   9.922  -0.547 -0.5291 -1.0987 -0.2521
  148MOL0     H20391   6.053   9.830  -0.560 -1.6665  0.3285  1.6881
  148MOL0     H20392   6.111   9.985  -0.742  1.5394 -0.2148  1.9419
  148MOL0     H20393   6.101  10.126  -0.629  0.5604  0.8016 -0.8822
  148MOL0     H20394   5.875  10.132  -0.735 -4.9994  0.2137  1.9833
  148MOL0     H20395   5.854  10.072  -0.585  1.1794  0.7698  1.0947
  148MOL0     H20396   5.797   9.859  -0.664 -0.9777 -1.4864 -0.2767
  148MOL0     H20397   5.731   9.946  -0.797  0.4297 -1.8522 -1.0360
  148MOL0     H20398   5.969   9.793  -0.800 -2.7031 -0.2299  3.3319
  148MOL0     H20399   5.968   9.930  -0.918 -0.7438  0.0106 -0.6722
  148MOL0     H20400   5.756   9.839  -1.008  0.3580  0.1848  0.4860
  148MOL0     H20401   5.788   9.701  -0.909 -0.6467  0.7735  0.4344
  148MOL0     H20402   5.918   9.649  -1.129  2.5858 -1.6918  2.6950
  148MOL0     H20403   6.040   9.697  -1.012  1.3877 -0.3205 -1.4926
  148MOL0     H20404   6.074   9.962  -0.166 -1.3454  0.6853 -0.3350
  148MOL0     H20405   6.014   9.940   0.074 -0.0895 -1.6673  0.4461
  148MOL0     H20406   5.753   9.881   0.398  0.4534 -0.8782  1.5318
  148MOL0     H20407   5.628   9.757   0.558 -0.6028 -2.0058 -1.9221
  148MOL0     H20408   4.407  10.186   0.666  0.0814 -0.8861  0.2200
  148MOL0     H20409   4.319  10.148   0.431  0.0220 -0.4406  2.4966
  148MOL0     H20410   4.313  10.387  -0.051  0.3844 -1.2408  1.9829
  148MOL0     H20411   4.194  10.332  -0.251 -0.9422  0.8859  0.8612
  148MOL0     H20412   4.043  10.265  -0.446  0.6014  3.0406 -0.6801
  148MOL0     H20413   4.221  10.290  -0.445  1.2684 -2.0097  3.9947
  148MOL0     H20414   4.110  10.260  -0.668 -1.0712 -0.4546 -0.0902
  148MOL0     H20415   4.085  10.090  -0.624 -1.1717  1.4883  0.7310
  148MOL0     H20416   4.371  10.202  -0.618  1.2638 -0.7792 -2.0985
  148MOL0     H20417   4.311  10.038  -0.642 -0.2104  0.5936 -1.6564
  148MOL0     H20418   4.411  10.121  -0.846  0.6245  0.7846 -1.0953
  148MOL0     H20419   4.348  10.273  -0.826  0.8318 -0.4331  0.7694
  148MOL0     H20420   4.026  10.105  -1.059 -1.8782  0.0552  1.9117
  148MOL0     H20421   4.273   9.929  -0.225  0.2544 -1.0561  3.9090
  148MOL0     H20422   4.350   9.840  -0.016 -2.5661 -1.2239  1.4000
  148MOL0     H20423   4.493   9.930   0.034 -0.3249  4.1182  0.3490
  148MOL0     H20424   4.328   9.933   0.124 -0.6943  0.3432 -1.2196
  149MOL0     O20425   1.016   4.823   5.732 -0.6816 -0.0057 -0.7959
  149MOL0     C20426   0.977   4.801   5.622 -0.6798  0.2862  0.5974
  149MOL0     O20427   0.940   4.683   5.562  0.2411  0.3608  0.0858
  149MOL0     C20428   0.986   4.569   5.623 -0.4878  0.9032  1.4226
  149MOL0     C20429   0.910   4.497   5.720 -1.1455  0.5329  0.6244
  149MOL0     C20430   0.951   4.375   5.773 -0.0385  0.4533  0.5632
  149MOL0     C20431   1.073   4.322   5.731 -0.1592 -0.3108  0.5092
  149MOL0     O20432   1.116   4.209   5.786 -0.7281  0.2204  0.0633
  149MOL0     C20433   1.030   4.096   5.775  0.9222 -0.4988 -0.7072
  149MOL0     C20434   1.065   3.995   5.879 -0.7329  0.0748 -0.7262
  149MOL0     C20435   0.973   3.873   5.889  0.0525 -0.7551 -0.2781
  149MOL0     C20436   0.930   3.860   6.040  0.9480  0.0705 -0.7184
  149MOL0     C20437   0.799   3.932   6.076  0.3288  1.3981  0.8056
  149MOL0     C20438   0.687   3.854   6.011 -1.0407 -0.0086 -0.8382
  149MOL0     C20439   0.549   3.883   6.082  0.1114 -0.3111  0.1578
  149MOL0     C20440   0.514   4.030   6.055  0.4745 -0.9704 -0.0785
  149MOL0     N20441   0.495   4.058   5.911 -0.2533 -0.2169  0.5259
  149MOL0     C20442   0.590   4.070   5.808  0.3151 -0.6109 -0.4629
  149MOL0     C20443   0.520   4.109   5.699 -0.3368 -0.1260  0.7572
  149MOL0     C20444   0.597   4.171   5.580 -0.5063 -0.1100  0.2295
  149MOL0     C20445   0.521   4.290   5.528  0.1462  0.7451  0.4814
  149MOL0     C20446   0.587   4.359   5.413 -0.1570 -0.8450 -0.1051
  149MOL0     C20447   0.510   4.478   5.369  0.7854  0.4867 -0.1270
  149MOL0     O20448   0.375   4.442   5.337  0.6440 -0.2981 -0.5208
  149MOL0     C20449   0.274   4.530   5.303  0.5732 -1.1077  0.3313
  149MOL0     C20450   0.293   4.665   5.287 -0.7534 -0.5441  0.3424
  149MOL0     C20451   0.192   4.764   5.247 -0.6586  0.7964  0.7181
  149MOL0     C20452   0.242   4.910   5.229 -0.3530 -0.3327 -1.3665
  149MOL0     C20453   0.059   4.717   5.243 -0.0925  0.4257  0.1387
  149MOL0     C20454  -0.049   4.805   5.207  0.2486 -0.0111  0.2807
  149MOL0     O20455  -0.167   4.746   5.208 -0.0061  0.0663  0.0954
  149MOL0     C20456  -0.267   4.814   5.146  0.0511  0.3572 -0.3814
  149MOL0     C20457  -0.310   4.762   5.021  0.6611 -0.2665 -0.7756
  149MOL0     C20458  -0.433   4.816   4.963 -0.9605 -0.0618  0.4261
  149MOL0     C20459  -0.516   4.907   5.030 -0.4078  0.7049 -0.1767
  149MOL0     O20460  -0.638   4.937   4.975  0.4521 -0.2924 -0.0151
  149MOL0     C20461  -0.746   4.902   5.061 -0.4959  0.2618 -0.1499
  149MOL0     C20462  -0.823   5.021   5.089 -0.1267  0.7754  0.5069
  149MOL0     C20463  -0.969   4.987   5.085 -0.2741 -0.5884  0.4263
  149MOL0     C20464  -1.042   5.052   4.958  0.8547 -0.1155  0.3236
  149MOL0     C20465  -1.194   5.053   4.951  1.0398  0.7407 -0.2534
  149MOL0     C20466  -1.250   5.090   4.807  0.9709 -0.5745  0.6678
  149MOL0     C20467  -1.232   5.248   4.780 -0.6711  0.3812 -0.1114
  149MOL0     C20468  -1.325   5.288   4.665  0.7171 -0.6482 -0.0164
  149MOL0    Cl20469  -1.297   5.457   4.615  0.1714  0.2325  0.2072
  149MOL0     C20470  -0.467   4.959   5.151 -0.0086  0.6859  0.3389
  149MOL0     C20471  -0.346   4.908   5.214 -0.6014  0.4741 -0.2492
  149MOL0     O20472  -0.033   4.919   5.170 -0.2793 -0.7166  0.1624
  149MOL0     C20473   0.037   4.578   5.249 -0.3685 -0.6395  0.7072
  149MOL0     C20474   0.143   4.487   5.277 -0.0628  1.0358  0.1830
  149MOL0     N20475   0.386   4.125   5.733  0.2192 -0.5623  0.1756
  149MOL0     N20476   0.376   4.084   5.854 -0.1913  0.2500 -0.0709
  149MOL0     C20477   1.140   4.389   5.624 -0.1163  0.3469  0.3900
  149MOL0     C20478   1.100   4.506   5.568  0.2297 -0.2831  0.3229
  149MOL0     C20479   0.964   4.912   5.538 -0.4927 -1.0893 -0.2563
  149MOL0     C20480   0.839   4.925   5.466  0.4657 -0.4838 -0.7808
  149MOL0     C20481   0.815   5.035   5.385 -0.2448  0.6402  0.1241
  149MOL0     C20482   0.915   5.135   5.364  0.1197 -0.2597  0.5551
  149MOL0     O20483   0.900   5.242   5.279  0.4489  0.0784 -0.4415
  149MOL0     C20484   0.799   5.337   5.324  0.4662  0.2719 -0.6703
  149MOL0     C20485   0.849   5.425   5.447  0.3667  0.2318 -0.4741
  149MOL0     C20486   0.738   5.419   5.560  1.1257  0.0285  0.5893
  149MOL0     C20487   0.778   5.504   5.684  0.8052  0.8001 -0.4895
  149MOL0     C20488   0.729   5.483   5.821 -0.8127 -0.1539  0.9454
  149MOL0     C20489   0.688   5.466   5.936 -0.2981 -0.0543 -0.4867
  149MOL0     C20490   1.031   5.124   5.436  0.6024  0.3484 -0.1234
  149MOL0     C20491   1.061   5.016   5.521 -0.4920  0.8452 -0.0082
  149MOL0     C20492   1.205   5.003   5.567  0.0808 -1.0817  0.0275
  149MOL0     H20493   0.811   4.535   5.742 -1.3885 -0.1218  0.6890
  149MOL0     H20494   0.897   4.310   5.841  0.4675 -2.5012 -1.6268
  149MOL0     H20495   1.051   4.032   5.689 -0.7376 -0.6865 -0.9965
  149MOL0     H20496   0.923   4.117   5.775  1.1919  1.1724 -2.1223
  149MOL0     H20497   1.167   3.959   5.863 -0.8792 -0.4528 -0.4841
  149MOL0     H20498   1.064   4.058   5.968  1.1616  1.5668 -1.6787
  149MOL0     H20499   0.882   3.899   5.835 -1.0991  2.0059  2.6235
  149MOL0     H20500   1.015   3.775   5.866  0.4281 -0.5276 -0.5854
  149MOL0     H20501   0.921   3.755   6.069 -0.1259  0.3091 -0.1569
  149MOL0     H20502   1.015   3.896   6.098 -0.0281  3.4722 -1.1726
  149MOL0     H20503   0.800   4.037   6.045  1.6834  1.9189  2.4355
  149MOL0     H20504   0.788   3.930   6.185  0.4298  2.6549  0.8618
  149MOL0     H20505   0.678   3.873   5.904 -1.0053  2.2346 -0.4953
  149MOL0     H20506   0.698   3.746   6.029 -2.3678  0.1215  1.1121
  149MOL0     H20507   0.561   3.871   6.190 -3.1566  3.4525  1.1556
  149MOL0     H20508   0.481   3.808   6.040 -1.1685  2.0305 -2.2072
  149MOL0     H20509   0.415   4.042   6.100 -0.4011 -1.4330 -1.8241
  149MOL0     H20510   0.585   4.102   6.097  1.7500 -0.8692 -2.2647
  149MOL0     H20511   0.698   4.067   5.811  0.3892  1.0308  2.7105
  149MOL0     H20512   0.616   4.107   5.494  1.0481 -0.7381  0.9815
  149MOL0     H20513   0.693   4.207   5.621 -1.2099  2.8783 -0.4873
  149MOL0     H20514   0.423   4.250   5.503  0.4056  1.3749 -1.7893
  149MOL0     H20515   0.521   4.361   5.611  2.2530  0.1254  1.0899
  149MOL0     H20516   0.686   4.397   5.438 -1.1260  1.6178  0.2806
  149MOL0     H20517   0.587   4.285   5.333 -1.1913 -1.6940  0.6517
  149MOL0     H20518   0.506   4.565   5.435  2.3559  2.5893 -2.5922
  149MOL0     H20519   0.570   4.513   5.285  1.6677  3.8001  1.7263
  149MOL0     H20520   0.399   4.689   5.290  0.5000 -5.1642  2.5629
  149MOL0     H20521   0.223   4.932   5.124 -2.4791  1.3549 -0.7123
  149MOL0     H20522   0.350   4.906   5.244 -0.6150 -2.1720  0.4938
  149MOL0     H20523   0.182   4.975   5.295  0.8717 -0.9443  0.4304
  149MOL0     H20524  -0.266   4.670   4.984  0.3888 -1.0059  0.6501
  149MOL0     H20525  -0.473   4.763   4.876  0.2135  1.1533 -0.8890
  149MOL0     H20526  -0.813   4.831   5.012 -0.2228  1.2096 -1.9654
  149MOL0     H20527  -0.716   4.869   5.161 -2.1356 -1.3810 -0.1459
  149MOL0     H20528  -0.798   5.060   5.188 -0.6914  1.1267  0.5172
  149MOL0     H20529  -0.797   5.096   5.013 -1.3076 -0.0600 -0.7593
  149MOL0     H20530  -1.011   5.023   5.180  4.2273  2.9783  1.3901
  149MOL0     H20531  -0.978   4.879   5.069  3.2759 -0.4923 -3.8727
  149MOL0     H20532  -1.022   4.983   4.876 -1.8395 -1.8179  0.9792
  149MOL0     H20533  -1.003   5.153   4.948  0.7583 -0.1458 -0.3905
  149MOL0     H20534  -1.224   4.951   4.977  0.4087  1.2488  1.1297
  149MOL0     H20535  -1.238   5.124   5.023 -0.5664  3.4704 -3.6308
  149MOL0     H20536  -1.357   5.069   4.800  0.4455  1.7378  1.1114
  149MOL0     H20537  -1.195   5.041   4.726  0.5102  0.2289 -0.1611
  149MOL0     H20538  -1.131   5.278   4.749 -0.9191 -1.1869 -2.7400
  149MOL0     H20539  -1.256   5.313   4.865 -1.5663 -0.5782  0.3964
  149MOL0     H20540  -1.425   5.273   4.706  2.5585  0.5704  5.8208
  149MOL0     H20541  -1.314   5.229   4.573  0.7475  0.0360 -0.4601
  149MOL0     H20542  -0.513   5.041   5.206 -0.6538  1.2008 -0.9254
  149MOL0     H20543  -0.322   4.940   5.315 -4.0688  1.9377  0.2665
  149MOL0     H20544  -0.060   4.534   5.226 -0.5853 -0.2579  0.8929
  149MOL0     H20545   0.117   4.382   5.287  0.4676  1.1240  4.1620
  149MOL0     H20546   1.236   4.352   5.589  1.3243  3.8972  0.1873
  149MOL0     H20547   1.163   4.559   5.497  1.3759 -0.2677  1.3234
  149MOL0     H20548   0.763   4.851   5.489  2.0867 -2.5183 -1.6183
  149MOL0     H20549   0.716   5.043   5.340 -0.7087 -2.0831  0.5352
  149MOL0     H20550   0.776   5.403   5.240  0.7118  2.1252  0.6532
  149MOL0     H20551   0.703   5.293   5.355  1.0862 -0.1790  0.7203
  149MOL0     H20552   0.874   5.530   5.429  1.1158  0.1471  0.0456
  149MOL0     H20553   0.937   5.380   5.493 -1.4225 -0.6412  2.3456
  149MOL0     H20554   0.659   5.459   5.496  0.4842 -2.0057  0.0292
  149MOL0     H20555   0.712   5.316   5.587  0.4132  0.3788  1.3037
  149MOL0     H20556   0.763   5.611   5.669  3.2639  1.2433 -0.2782
  149MOL0     H20557   0.885   5.489   5.700  0.4182  1.0814  3.0715
  149MOL0     H20558   0.666   5.449   6.040  2.0416 -0.1943  0.0566
  149MOL0     H20559   1.104   5.203   5.426  0.0429  1.0090  0.8396
  149MOL0     H20560   1.272   5.074   5.517  0.5851 -0.0136  2.0894
  149MOL0     H20561   1.211   5.021   5.675 -1.7824  0.9074 -0.1390
  149MOL0     H20562   1.251   4.906   5.544 -0.5873 -0.5820 -4.3883
  150MOL0     O20563   8.812   6.939   2.432 -0.4303 -0.2396 -0.7067
  150MOL0     C20564   8.754   6.841   2.476 -0.0951 -0.0606 -0.0517
  150MOL0     O20565   8.807   6.746   2.551  0.0728  0.5168  0.2988
  150MOL0     C20566   8.952   6.730   2.555  0.7097  0.9168 -0.2815
  150MOL0     C20567   9.035   6.801   2.644  0.4529 -0.1776  0.6548
  150MOL0     C20568   9.168   6.770   2.655  0.0879  0.4690 -0.1262
  150MOL0     C20569   9.223   6.668   2.585  0.5639  0.8877 -0.1980
  150MOL0     O20570   9.360   6.645   2.613 -0.2131 -0.3652  0.2989
  150MOL0     C20571   9.410   6.509   2.598 -0.2356  0.5425 -0.5494
  150MOL0     C20572   9.489   6.486   2.473 -0.2805  0.6664 -0.5071
  150MOL0     C20573   9.583   6.360   2.455 -0.2306  0.0127 -0.3294
  150MOL0     C20574   9.708   6.346   2.548  0.2445  0.7048  0.2685
  150MOL0     C20575   9.809   6.457   2.525 -0.0330 -0.6581 -0.1415
  150MOL0     C20576   9.863   6.462   2.386 -0.2517 -0.6390  0.1279
  150MOL0     C20577   9.962   6.576   2.374 -0.6817 -0.1502 -0.2178
  150MOL0     C20578  10.037   6.566   2.240 -0.1643 -0.2293 -1.2701
  150MOL0     N20579  10.113   6.687   2.215  0.9367  0.4987 -0.0294
  150MOL0     C20580  10.223   6.739   2.290  0.6015  0.9407  0.4376
  150MOL0     C20581  10.260   6.852   2.227  0.1655  0.2592  0.2246
  150MOL0     C20582  10.343   6.968   2.280  0.2185  0.9391  0.5236
  150MOL0     C20583  10.348   7.090   2.196 -0.3133 -0.4995  0.7715
  150MOL0     C20584  10.442   7.078   2.075  0.4728  0.1819 -0.9362
  150MOL0     C20585  10.406   7.187   1.979 -0.9694 -0.4485  0.3581
  150MOL0     O20586  10.425   7.148   1.840  0.2297 -1.1252  0.8548
  150MOL0     C20587  10.320   7.085   1.777 -0.0100 -0.5658 -1.0841
  150MOL0     C20588  10.349   7.065   1.643 -0.2168  0.3848  0.6305
  150MOL0     C20589  10.257   6.998   1.558 -0.3421 -0.4732  0.8972
  150MOL0     C20590  10.281   7.011   1.396  0.1038 -0.1914  0.5094
  150MOL0     C20591  10.142   6.938   1.604  0.5657 -0.1461  0.2790
  150MOL0     C20592  10.042   6.861   1.518  0.1514 -0.1379  0.2104
  150MOL0     O20593   9.924   6.843   1.583  0.4070 -0.1899  0.0433
  150MOL0     C20594   9.828   6.767   1.519  1.0273  0.4988  0.0377
  150MOL0     C20595   9.705   6.822   1.475  0.0843  0.4296  0.2869
  150MOL0     C20596   9.621   6.756   1.389 -0.3073 -0.3991  0.0437
  150MOL0     C20597   9.648   6.622   1.362  0.1859 -0.7789  0.0217
  150MOL0     O20598   9.571   6.566   1.263 -0.1893 -0.9545 -0.5180
  150MOL0     C20599   9.639   6.541   1.133 -0.7041 -0.1057  0.4278
  150MOL0     C20600   9.556   6.457   1.038 -0.5818 -0.3407  0.2461
  150MOL0     C20601   9.479   6.341   1.111 -0.2100  0.1047  0.6597
  150MOL0     C20602   9.568   6.261   1.198 -0.6369  0.1593 -0.7497
  150MOL0     C20603   9.522   6.119   1.226 -0.4211 -0.4428  1.0281
  150MOL0     C20604   9.424   6.109   1.330  0.3422  0.2159  0.0177
  150MOL0     C20605   9.378   5.972   1.383 -0.3725  0.6522  1.2047
  150MOL0     C20606   9.255   5.971   1.472  0.2208  0.3254 -0.7397
  150MOL0    Cl20607   9.249   6.129   1.593  0.3121  0.4251  0.2775
  150MOL0     C20608   9.758   6.561   1.418 -0.1727 -0.9135  0.9607
  150MOL0     C20609   9.852   6.631   1.500  0.9730 -0.4822  0.4347
  150MOL0     O20610  10.066   6.833   1.405 -0.4632  0.6059  0.3849
  150MOL0     C20611  10.108   6.965   1.747 -0.2851  0.6740 -0.5351
  150MOL0     C20612  10.194   7.047   1.824 -0.4349  0.5620 -0.1488
  150MOL0     N20613  10.184   6.860   2.110  1.2665 -0.2216  0.0889
  150MOL0     N20614  10.105   6.765   2.097 -0.1559  0.0367  0.0322
  150MOL0     C20615   9.143   6.603   2.489  0.8762  0.3425 -0.4539
  150MOL0     C20616   9.006   6.627   2.483 -0.7244 -0.4796 -0.1876
  150MOL0     C20617   8.600   6.826   2.448  0.5748 -0.0087 -0.4555
  150MOL0     C20618   8.534   6.730   2.528  0.0073 -0.2093  0.0790
  150MOL0     C20619   8.396   6.713   2.526  0.2982 -0.6409 -0.0635
  150MOL0     C20620   8.315   6.787   2.437 -0.3059 -0.0012  0.2682
  150MOL0     O20621   8.180   6.766   2.432  0.2887 -0.3716  0.4325
  150MOL0     C20622   8.101   6.692   2.524  0.5696 -0.1324  0.6512
  150MOL0     C20623   7.952   6.687   2.497  1.3570  0.0194 -0.4827
  150MOL0     C20624   7.927   6.613   2.371  0.6718  0.0310  0.3761
  150MOL0     C20625   7.772   6.596   2.322 -0.7506 -0.8323  0.3122
  150MOL0     C20626   7.777   6.527   2.190 -0.1035 -1.2258 -0.7171
  150MOL0     C20627   7.776   6.477   2.079  0.8173  0.4632  0.3221
  150MOL0     C20628   8.379   6.883   2.359 -0.2135  0.5424  0.2656
  150MOL0     C20629   8.518   6.899   2.348 -0.3071  0.4232  0.1172
  150MOL0     C20630   8.589   6.994   2.246 -0.5633 -0.2358 -0.9013
  150MOL0     H20631   8.987   6.878   2.704  0.9953  2.6297 -2.2751
  150MOL0     H20632   9.216   6.814   2.742 -0.1685  1.2838 -0.3884
  150MOL0     H20633   9.327   6.440   2.619 -2.2850  3.5660  2.5336
  150MOL0     H20634   9.484   6.494   2.677 -3.0979 -0.3709  2.1765
  150MOL0     H20635   9.412   6.478   2.396  0.7868  1.0034 -1.6403
  150MOL0     H20636   9.541   6.579   2.450 -1.6505  2.1597  2.0347
  150MOL0     H20637   9.529   6.265   2.461  0.5744 -0.3815  0.8969
  150MOL0     H20638   9.603   6.364   2.347 -3.4645 -1.9034 -1.1536
  150MOL0     H20639   9.674   6.354   2.651  0.7587  3.8513  0.2669
  150MOL0     H20640   9.758   6.250   2.529  0.9530  0.3492  3.4774
  150MOL0     H20641   9.898   6.442   2.586  1.0363  1.7817 -0.9656
  150MOL0     H20642   9.765   6.554   2.549 -1.2778 -1.3532  0.4770
  150MOL0     H20643   9.912   6.374   2.343  0.6385  0.7146 -1.7856
  150MOL0     H20644   9.782   6.477   2.314  1.9937 -3.1839 -3.2735
  150MOL0     H20645  10.032   6.575   2.458  0.3250 -2.3085 -0.9907
  150MOL0     H20646   9.910   6.672   2.378  0.1384  0.2978 -0.2042
  150MOL0     H20647  10.102   6.478   2.246  1.7488  1.1678 -0.5091
  150MOL0     H20648   9.970   6.547   2.156  1.2886 -4.4122 -1.7118
  150MOL0     H20649  10.266   6.700   2.382  1.6062  4.6008  1.7029
  150MOL0     H20650  10.442   6.928   2.306 -1.1802 -1.8990  2.0481
  150MOL0     H20651  10.301   6.991   2.379 -2.2980 -5.3373  1.4425
  150MOL0     H20652  10.248   7.122   2.166  0.9002  4.4418  1.1420
  150MOL0     H20653  10.384   7.173   2.257 -2.7447 -0.6680  2.6048
  150MOL0     H20654  10.545   7.097   2.108  1.5922  1.3949 -4.6181
  150MOL0     H20655  10.437   6.985   2.019  0.7345  0.9368 -2.2530
  150MOL0     H20656  10.305   7.229   1.982  0.5707  3.7859  0.0590
  150MOL0     H20657  10.462   7.276   2.009 -1.8081 -0.7228  2.9223
  150MOL0     H20658  10.437   7.098   1.588 -0.1075 -0.6970  0.1342
  150MOL0     H20659  10.194   7.061   1.354  0.8744  1.1824  0.5150
  150MOL0     H20660  10.286   6.914   1.346 -2.9757 -0.0612 -0.2610
  150MOL0     H20661  10.372   7.066   1.372  0.9695 -0.1347  3.4941
  150MOL0     H20662   9.695   6.930   1.489  3.3329  0.9876 -0.9212
  150MOL0     H20663   9.535   6.805   1.346  0.3904  2.5066  1.6833
  150MOL0     H20664   9.671   6.638   1.095 -0.6355  0.1092  1.0102
  150MOL0     H20665   9.730   6.486   1.159  0.4054  0.7082 -1.5454
  150MOL0     H20666   9.487   6.525   0.987 -0.3027 -0.4203 -0.2498
  150MOL0     H20667   9.626   6.414   0.965 -0.8989 -2.2949  1.0502
  150MOL0     H20668   9.433   6.286   1.029 -1.3354  1.2725  0.4670
  150MOL0     H20669   9.389   6.369   1.166 -3.2832 -2.7496 -2.4696
  150MOL0     H20670   9.600   6.320   1.284  1.6514 -0.8981 -0.7984
  150MOL0     H20671   9.666   6.258   1.149 -0.9091 -0.6922 -1.2792
  150MOL0     H20672   9.474   6.083   1.134 -0.5129  0.5934  0.6558
  150MOL0     H20673   9.612   6.062   1.251  1.4756  1.4983 -0.9736
  150MOL0     H20674   9.334   6.163   1.298  0.3338  0.8501  1.0483
  150MOL0     H20675   9.461   6.169   1.414  0.6121  1.4345 -0.9276
  150MOL0     H20676   9.472   5.937   1.427 -0.1546 -0.2279  0.0897
  150MOL0     H20677   9.363   5.906   1.297  1.0084  1.9852 -0.1307
  150MOL0     H20678   9.244   5.884   1.538  0.4999  2.4846  2.3724
  150MOL0     H20679   9.160   5.966   1.418  0.4588  2.2769 -1.4120
  150MOL0     H20680   9.774   6.457   1.390 -2.3618 -0.5710 -2.2355
  150MOL0     H20681   9.937   6.583   1.547  0.7708 -1.2294  0.0424
  150MOL0     H20682  10.016   6.922   1.785  0.2360 -0.4677 -0.5185
  150MOL0     H20683  10.163   7.082   1.922 -0.1961  2.2761 -0.6468
  150MOL0     H20684   9.193   6.534   2.421  0.3551  0.6688 -1.1758
  150MOL0     H20685   8.948   6.576   2.406 -1.9351  1.4159 -0.5931
  150MOL0     H20686   8.596   6.672   2.595  3.1781  4.1148  1.3177
  150MOL0     H20687   8.338   6.639   2.580 -2.0240 -1.0944 -2.8954
  150MOL0     H20688   8.126   6.587   2.538 -6.3251 -2.1763  1.7145
  150MOL0     H20689   8.107   6.742   2.621 -0.3698 -0.5957  0.9692
  150MOL0     H20690   7.913   6.789   2.483  2.1410  0.3545 -0.3123
  150MOL0     H20691   7.893   6.646   2.579 -0.6659 -0.7780 -2.2549
  150MOL0     H20692   7.976   6.657   2.284  3.7413 -0.5705  1.6603
  150MOL0     H20693   7.974   6.515   2.381 -0.9707 -0.8491 -0.1066
  150MOL0     H20694   7.738   6.699   2.310  4.2398  1.1484  0.5790
  150MOL0     H20695   7.717   6.539   2.398  0.8194 -1.1567  1.2520
  150MOL0     H20696   7.769   6.429   1.983  0.1197 -1.2759  1.1982
  150MOL0     H20697   8.319   6.949   2.297  0.0472  0.4640 -0.0742
  150MOL0     H20698   8.626   7.082   2.299 -4.0745  0.6329  0.4024
  150MOL0     H20699   8.677   6.954   2.196 -0.4714  1.0672 -1.8475
  150MOL0     H20700   8.516   7.012   2.166 -1.4018 -1.0431 -0.3395
  151MOL0     O20701   5.368   8.556  10.556 -0.3591 -0.2495 -0.1113
  151MOL0     C20702   5.450   8.635  10.508  0.5841 -0.3817  0.0773
  151MOL0     O20703   5.443   8.691  10.385  0.0774 -0.6608 -0.0813
  151MOL0     C20704   5.326   8.661  10.318 -0.1077 -0.4214  0.8119
  151MOL0     C20705   5.200   8.722  10.342  0.2538 -0.1455 -0.5010
  151MOL0     C20706   5.088   8.696  10.267  0.1506  0.3634  1.1761
  151MOL0     C20707   5.090   8.623  10.152  0.5905  0.3230  0.4284
  151MOL0     O20708   4.985   8.587  10.066  1.6400  0.5945 -0.3966
  151MOL0     C20709   4.855   8.652  10.073  0.0291  0.1121  0.0151
  151MOL0     C20710   4.762   8.569   9.984  0.4686 -0.4876  0.2559
  151MOL0     C20711   4.672   8.658   9.888  0.3144 -0.5191  0.1410
  151MOL0     C20712   4.541   8.585   9.839 -0.3266  0.3675 -0.3100
  151MOL0     C20713   4.570   8.474   9.738  0.3277 -0.1448  0.1511
  151MOL0     C20714   4.476   8.351   9.757  0.0387 -0.0459  0.4717
  151MOL0     C20715   4.518   8.229   9.672 -0.5845  0.8161  0.6253
  151MOL0     C20716   4.477   8.092   9.704  0.3011 -0.1556 -0.8621
  151MOL0     N20717   4.556   8.057   9.826  0.4869  0.7510  0.4612
  151MOL0     C20718   4.685   8.003   9.819 -0.1110  0.5115 -0.0560
  151MOL0     C20719   4.730   8.002   9.952 -0.0502 -0.3257 -0.0432
  151MOL0     C20720   4.871   7.963  10.001 -0.4935 -0.4210  1.0768
  151MOL0     C20721   4.972   8.073  10.039  0.2286  0.5874 -0.3863
  151MOL0     C20722   5.002   8.176   9.928 -1.2840  0.5559 -0.5517
  151MOL0     C20723   5.139   8.243   9.956  1.1353 -0.5403 -0.3794
  151MOL0     O20724   5.256   8.154   9.940 -0.2788 -0.2404  0.4436
  151MOL0     C20725   5.373   8.220   9.955 -1.1381 -0.4927 -0.2059
  151MOL0     C20726   5.446   8.276   9.850  0.1015 -0.2167 -0.9586
  151MOL0     C20727   5.582   8.316   9.869  0.1433 -0.6143  1.0665
  151MOL0     C20728   5.670   8.361   9.745  0.3245  1.1201  0.9208
  151MOL0     C20729   5.621   8.335  10.007  0.1128  0.3887 -0.0794
  151MOL0     C20730   5.758   8.363  10.043  0.0756 -0.5310  0.5424
  151MOL0     O20731   5.856   8.285  10.002 -0.2276  0.0697  0.6958
  151MOL0     C20732   5.986   8.338   9.987  0.3317  0.6686  0.0944
  151MOL0     C20733   6.084   8.258  10.042 -0.7823  0.1651 -0.0375
  151MOL0     C20734   6.224   8.287  10.011  0.2762 -0.1301  0.6777
  151MOL0     C20735   6.258   8.405   9.939 -0.6830  0.0515  0.4479
  151MOL0     O20736   6.392   8.409   9.897  0.6643  0.4097 -0.4500
  151MOL0     C20737   6.421   8.462   9.760  0.6824 -0.5131  0.0601
  151MOL0     C20738   6.541   8.394   9.699  0.2492  0.4611  0.6377
  151MOL0     C20739   6.561   8.428   9.554  0.1594 -0.4575 -0.5826
  151MOL0     C20740   6.699   8.389   9.498  0.2172 -0.1995  0.7787
  151MOL0     C20741   6.719   8.418   9.349  0.0627 -0.3471  0.0536
  151MOL0     C20742   6.832   8.341   9.290  0.9489 -0.0229  0.3974
  151MOL0     C20743   6.970   8.355   9.347  0.7421 -0.1562 -0.5178
  151MOL0     C20744   7.085   8.292   9.258 -0.5135  0.1293 -0.3136
  151MOL0    Cl20745   7.229   8.359   9.331  0.2394 -0.5067 -0.4760
  151MOL0     C20746   6.159   8.497   9.908  0.6223 -0.8246 -0.8883
  151MOL0     C20747   6.018   8.457   9.925 -0.8850  0.1345  0.3674
  151MOL0     O20748   5.768   8.472  10.094  0.2022 -0.1911 -0.6144
  151MOL0     C20749   5.533   8.305  10.110  0.3219  0.0605 -0.4188
  151MOL0     C20750   5.414   8.237  10.086  0.3956 -0.7865  0.5175
  151MOL0     N20751   4.629   8.045  10.028 -0.0043 -0.6689 -0.0695
  151MOL0     N20752   4.530   8.091   9.960  0.6980 -0.1317  0.6233
  151MOL0     C20753   5.226   8.575  10.113  1.4837  0.1036 -0.4022
  151MOL0     C20754   5.337   8.594  10.196  0.4439  1.0279 -0.0210
  151MOL0     C20755   5.562   8.666  10.601 -0.0702 -0.8374 -0.2814
  151MOL0     C20756   5.533   8.694  10.735  0.2443  0.6397 -0.2640
  151MOL0     C20757   5.634   8.737  10.823 -0.0458 -0.2209  1.2168
  151MOL0     C20758   5.767   8.739  10.770  0.5980  0.1997  0.1629
  151MOL0     O20759   5.868   8.760  10.858 -0.0760 -0.3898  0.1482
  151MOL0     C20760   6.006   8.753  10.807  0.7453  0.2737 -0.3414
  151MOL0     C20761   6.109   8.828  10.893 -0.4359  0.2447 -1.1176
  151MOL0     C20762   6.247   8.837  10.832  1.3009  0.4004 -1.5742
  151MOL0     C20763   6.361   8.880  10.921 -0.1169 -0.0972 -0.3047
  151MOL0     C20764   6.378   9.029  10.915  0.0525 -0.9687  0.6595
  151MOL0     C20765   6.386   9.149  10.928  0.0695 -0.4160  0.4490
  151MOL0     C20766   5.796   8.710  10.637 -0.7687  0.5465  0.1792
  151MOL0     C20767   5.693   8.672  10.553 -0.9795  0.4558  0.5128
  151MOL0     C20768   5.722   8.647  10.412 -0.2970  0.2979  0.6193
  151MOL0     H20769   5.196   8.765  10.442  4.4566  2.1422 -1.0536
  151MOL0     H20770   4.991   8.734  10.297 -0.5200 -1.3906  1.3643
  151MOL0     H20771   4.857   8.747  10.018 -1.9167 -1.5959 -3.3892
  151MOL0     H20772   4.820   8.683  10.172  0.9478 -0.5511  0.5647
  151MOL0     H20773   4.810   8.504   9.911  0.2846 -1.6748  1.1581
  151MOL0     H20774   4.700   8.503  10.046 -0.2225  0.9045  1.1172
  151MOL0     H20775   4.647   8.749   9.943  2.0128  0.7468 -1.0821
  151MOL0     H20776   4.729   8.682   9.798  0.0285 -1.5428 -0.3314
  151MOL0     H20777   4.488   8.538   9.922 -0.1222  0.5515 -0.0750
  151MOL0     H20778   4.471   8.661   9.803  3.2511  4.9237  1.3936
  151MOL0     H20779   4.673   8.437   9.752 -0.1806 -1.0691  1.6989
  151MOL0     H20780   4.561   8.519   9.638  1.5305  2.5167  1.1565
  151MOL0     H20781   4.491   8.319   9.860 -0.1238 -2.8560 -0.2862
  151MOL0     H20782   4.377   8.391   9.732 -0.4058 -1.1516  0.4033
  151MOL0     H20783   4.626   8.216   9.662 -0.2326  3.8298 -0.5033
  151MOL0     H20784   4.474   8.245   9.574 -1.9912 -2.8937  0.4763
  151MOL0     H20785   4.369   8.100   9.717  0.6007 -0.5556  3.2945
  151MOL0     H20786   4.500   8.021   9.624  2.9693  0.3322 -0.6102
  151MOL0     H20787   4.738   7.968   9.732 -0.5716 -1.0579  0.2662
  151MOL0     H20788   4.918   7.923   9.911 -0.6051  2.5958 -0.4587
  151MOL0     H20789   4.867   7.892  10.084  0.6089  0.7617  2.1811
  151MOL0     H20790   4.913   8.121  10.118  0.1166  2.4365 -1.5189
  151MOL0     H20791   5.063   8.034  10.084  1.1933  3.5364  0.4507
  151MOL0     H20792   4.992   8.137   9.826  0.0255 -5.0312  1.1186
  151MOL0     H20793   4.934   8.261   9.941  0.2697  1.8125 -0.4548
  151MOL0     H20794   5.142   8.340   9.906 -4.2688  1.4632  2.4212
  151MOL0     H20795   5.138   8.264  10.063 -1.2916  0.1425 -0.4864
  151MOL0     H20796   5.420   8.272   9.745  1.8517 -0.9127 -1.3929
  151MOL0     H20797   5.634   8.317   9.652 -0.6226 -0.1847  1.8638
  151MOL0     H20798   5.773   8.324   9.750 -0.9596 -3.1071 -0.4419
  151MOL0     H20799   5.668   8.469   9.726 -0.3051  1.2443  1.6782
  151MOL0     H20800   6.053   8.167  10.091  1.0553 -1.9555 -2.5265
  151MOL0     H20801   6.303   8.216  10.036 -0.8593 -1.9418 -0.6447
  151MOL0     H20802   6.336   8.437   9.695  0.9130 -0.4394 -0.2646
  151MOL0     H20803   6.433   8.570   9.757  2.6524 -0.7004  0.1735
  151MOL0     H20804   6.630   8.427   9.754  1.1432 -0.7415 -0.0395
  151MOL0     H20805   6.525   8.286   9.710 -1.8231  0.5135 -1.1723
  151MOL0     H20806   6.544   8.536   9.548 -2.2871 -0.6932  0.9979
  151MOL0     H20807   6.483   8.378   9.495  2.4588 -2.4599 -2.1403
  151MOL0     H20808   6.712   8.283   9.521  1.1862 -0.3437 -0.3431
  151MOL0     H20809   6.772   8.458   9.542  0.6585  0.9102 -1.5733
  151MOL0     H20810   6.629   8.393   9.292  0.8036  1.5689 -2.0551
  151MOL0     H20811   6.741   8.522   9.326  5.2966 -1.4494 -1.0828
  151MOL0     H20812   6.841   8.378   9.187 -1.6048 -2.0385 -0.6801
  151MOL0     H20813   6.792   8.239   9.284  0.3260  0.2587 -0.5009
  151MOL0     H20814   6.968   8.305   9.444 -2.7426 -0.6129 -0.7255
  151MOL0     H20815   6.988   8.462   9.364 -2.1268  0.5649 -1.4421
  151MOL0     H20816   7.089   8.326   9.154  1.0519  0.7278 -0.0892
  151MOL0     H20817   7.089   8.183   9.256  2.8470  0.1274  0.9276
  151MOL0     H20818   6.168   8.600   9.876  2.1477 -1.1016 -1.4244
  151MOL0     H20819   5.954   8.534   9.881  0.1755  0.2320 -1.0724
  151MOL0     H20820   5.575   8.311  10.210  3.3237 -1.9806 -1.4032
  151MOL0     H20821   5.341   8.218  10.164 -1.5032  1.1903 -0.6611
  151MOL0     H20822   5.240   8.518  10.022  2.8540 -1.9564  1.0203
  151MOL0     H20823   5.433   8.555  10.166  0.2287  0.2654  0.2491
  151MOL0     H20824   5.431   8.694  10.770  0.7960  2.5481  1.5414
  151MOL0     H20825   5.610   8.758  10.927 -2.9368  1.3375  0.3416
  151MOL0     H20826   6.030   8.647  10.796  0.0514  0.1634 -0.8286
  151MOL0     H20827   6.007   8.796  10.707 -1.0767  2.1625  0.3790
  151MOL0     H20828   6.125   8.777  10.988  0.6249  0.2459 -1.2791
  151MOL0     H20829   6.074   8.931  10.906 -1.9075 -0.0236 -2.6311
  151MOL0     H20830   6.266   8.732  10.809 -3.3906 -0.8360 -0.7792
  151MOL0     H20831   6.221   8.887  10.738 -1.7724  0.6215 -0.7009
  151MOL0     H20832   6.449   8.817  10.907 -0.4494 -0.6558  0.0723
  151MOL0     H20833   6.335   8.854  11.025 -0.4721 -1.4053 -0.7039
  151MOL0     H20834   6.398   9.256  10.932  2.1399 -0.6316  1.0132
  151MOL0     H20835   5.895   8.694  10.596 -0.9071 -2.6205  0.8311
  151MOL0     H20836   5.670   8.725  10.357 -0.2916 -1.9276 -2.9035
  151MOL0     H20837   5.827   8.649  10.384 -0.6653 -2.1623 -1.2650
  151MOL0     H20838   5.682   8.551  10.376 -4.4668  1.8833  0.4982
  152MOL0     O20839  11.086   4.396   7.591 -0.3774 -0.0719  0.3434
  152MOL0     C20840  11.155   4.463   7.668  0.3421  0.0526  0.0586
  152MOL0     O20841  11.163   4.443   7.810 -0.8899 -0.2323  0.3503
  152MOL0     C20842  11.091   4.337   7.863 -0.0257 -0.6337 -0.1408
  152MOL0     C20843  11.134   4.203   7.865 -1.2317 -1.1626  0.9060
  152MOL0     C20844  11.067   4.098   7.916  1.2603 -0.0401 -0.6992
  152MOL0     C20845  10.963   4.129   8.006 -0.3814 -0.4453  0.0619
  152MOL0     O20846  10.905   4.013   8.057  0.3711 -0.2851  0.0575
  152MOL0     C20847  10.788   4.020   8.135  0.0896 -0.2282 -1.0952
  152MOL0     C20848  10.677   4.011   8.030  0.1851  0.7840  0.5118
  152MOL0     C20849  10.538   4.005   8.094 -0.2792  1.1008  0.2319
  152MOL0     C20850  10.469   3.885   8.025 -0.1715 -0.1646 -0.2086
  152MOL0     C20851  10.318   3.894   8.058 -0.5764 -0.0662 -0.4007
  152MOL0     C20852  10.243   3.805   7.953  0.4452  0.6711 -0.8844
  152MOL0     C20853  10.215   3.871   7.823 -0.1845 -0.6994  0.7916
  152MOL0     C20854  10.120   3.797   7.722  1.0436  1.3199  0.2860
  152MOL0     N20855  10.046   3.874   7.625  0.6544  0.0827 -0.5853
  152MOL0     C20856  10.093   3.945   7.514  0.7922  0.5702 -0.3196
  152MOL0     C20857   9.994   4.012   7.455  0.4611  0.8800 -0.0600
  152MOL0     C20858   9.994   4.095   7.333 -0.0818  0.7468 -0.9024
  152MOL0     C20859   9.874   4.200   7.325 -0.0064 -0.0754  0.2580
  152MOL0     C20860   9.879   4.293   7.206  0.0336 -0.1683  0.5902
  152MOL0     C20861   9.834   4.438   7.230  0.0423 -0.0917  0.4103
  152MOL0     O20862   9.696   4.424   7.268 -0.1768 -0.2050 -0.4016
  152MOL0     C20863   9.618   4.528   7.217  0.2896 -0.1301 -0.4739
  152MOL0     C20864   9.660   4.654   7.167 -0.1231  0.0600  0.1976
  152MOL0     C20865   9.572   4.727   7.085 -0.2993 -0.0150 -0.8849
  152MOL0     C20866   9.634   4.844   7.026  0.1717  0.2436  0.5946
  152MOL0     C20867   9.435   4.685   7.067  0.5938  0.2791 -0.0529
  152MOL0     C20868   9.322   4.764   6.990  0.4577 -0.3428  0.1961
  152MOL0     O20869   9.205   4.700   6.966  0.7511 -0.5525  0.1353
  152MOL0     C20870   9.117   4.778   6.897 -0.0512  0.5163  0.2561
  152MOL0     C20871   9.061   4.902   6.946 -0.7989  0.3897 -0.1030
  152MOL0     C20872   8.967   4.967   6.868  0.1483 -0.2675  0.2995
  152MOL0     C20873   8.928   4.919   6.741 -0.5425  0.5919  1.0792
  152MOL0     O20874   8.835   4.997   6.671  0.8179  0.4340  0.1189
  152MOL0     C20875   8.770   4.934   6.556  0.1132  0.3943  0.5327
  152MOL0     C20876   8.640   5.013   6.519 -0.7983 -0.1545  1.1201
  152MOL0     C20877   8.541   4.989   6.630  0.0846 -0.4814  0.4406
  152MOL0     C20878   8.400   5.060   6.596  0.2470  0.2565 -0.0942
  152MOL0     C20879   8.301   5.033   6.718 -0.4026  0.1658 -0.5547
  152MOL0     C20880   8.160   5.089   6.716 -1.0399 -0.3726 -0.0476
  152MOL0     C20881   8.145   5.238   6.681  0.5869  0.2958  0.2708
  152MOL0     C20882   8.031   5.315   6.735 -0.7250  0.6317 -0.5070
  152MOL0    Cl20883   7.863   5.233   6.723  0.0997  0.4056 -0.1764
  152MOL0     C20884   8.991   4.805   6.690  0.0891 -0.6049 -0.1554
  152MOL0     C20885   9.086   4.748   6.765  0.3615  1.3138  0.3900
  152MOL0     O20886   9.356   4.871   6.943  0.2727  0.2242 -0.5314
  152MOL0     C20887   9.395   4.573   7.134  0.4086 -0.1059  0.4578
  152MOL0     C20888   9.484   4.493   7.196 -0.2742  0.8364 -0.6626
  152MOL0     N20889   9.888   3.992   7.536  0.3485  0.0608  1.3017
  152MOL0     N20890   9.913   3.912   7.633 -0.3543  0.2878  0.9979
  152MOL0     C20891  10.917   4.259   8.017 -0.1507 -0.5491  0.2474
  152MOL0     C20892  10.993   4.370   7.955  0.5058  0.5888 -0.0326
  152MOL0     C20893  11.224   4.584   7.617 -0.4494 -1.3320  0.8166
  152MOL0     C20894  11.168   4.649   7.508 -0.2034  0.0350 -0.3652
  152MOL0     C20895  11.227   4.766   7.458  0.2966 -0.4939 -0.0451
  152MOL0     C20896  11.335   4.820   7.514  0.8865  0.0050  0.7588
  152MOL0     O20897  11.375   4.944   7.466 -0.1653 -0.3383  0.5760
  152MOL0     C20898  11.383   5.044   7.570  0.0707  0.3333 -0.6814
  152MOL0     C20899  11.407   5.184   7.496  0.2312 -0.2675 -0.5683
  152MOL0     C20900  11.415   5.287   7.607 -0.6021 -0.5925 -0.7333
  152MOL0     C20901  11.520   5.393   7.580 -1.7551  0.4607 -1.1447
  152MOL0     C20902  11.660   5.335   7.605  0.2229 -0.2904 -0.7870
  152MOL0     C20903  11.770   5.279   7.621 -0.2657  0.2418  0.7879
  152MOL0     C20904  11.391   4.754   7.624  0.5409 -1.3123 -0.8391
  152MOL0     C20905  11.338   4.640   7.675 -0.2573  0.2774 -0.4407
  152MOL0     C20906  11.415   4.583   7.793  0.4786 -0.4957  0.0993
  152MOL0     H20907  11.229   4.188   7.816 -0.8365 -0.1187  1.3274
  152MOL0     H20908  11.098   3.995   7.933  1.4128  0.0743 -0.2692
  152MOL0     H20909  10.791   4.103   8.206 -1.0811 -1.6433  0.6995
  152MOL0     H20910  10.776   3.932   8.199  0.0851 -0.0582 -0.8573
  152MOL0     H20911  10.661   4.105   7.976 -1.2750 -0.2192 -0.9064
  152MOL0     H20912  10.689   3.934   7.953  0.4612  0.7907  0.5439
  152MOL0     H20913  10.541   3.985   8.201  1.3409  1.7586  0.3406
  152MOL0     H20914  10.480   4.098   8.089  1.2640  2.1400  0.8493
  152MOL0     H20915  10.501   3.877   7.920  0.2688 -1.4514  0.0062
  152MOL0     H20916  10.507   3.794   8.072 -0.1456 -0.4878 -0.8451
  152MOL0     H20917  10.289   3.999   8.062  3.1815  1.1297  2.8986
  152MOL0     H20918  10.294   3.856   8.158  1.8575  0.9448  0.6736
  152MOL0     H20919  10.286   3.704   7.946 -0.6337  0.1603 -0.3262
  152MOL0     H20920  10.144   3.788   7.996 -1.0742  1.1573 -3.8671
  152MOL0     H20921  10.316   3.879   7.781 -0.5811  0.5062  0.0359
  152MOL0     H20922  10.172   3.970   7.837  0.4277 -0.2614 -0.3266
  152MOL0     H20923  10.169   3.717   7.667 -0.5434  0.4635  0.0519
  152MOL0     H20924  10.037   3.757   7.781 -1.3265  1.9231 -2.4055
  152MOL0     H20925  10.198   3.935   7.487 -0.1349 -3.3154 -3.5227
  152MOL0     H20926   9.989   4.033   7.243  1.3925  0.1425 -0.5975
  152MOL0     H20927  10.093   4.141   7.322  0.8202 -0.5779  1.1312
  152MOL0     H20928   9.778   4.148   7.322 -0.0014 -0.2056  1.5038
  152MOL0     H20929   9.874   4.264   7.415 -0.0754 -2.9846  2.4787
  152MOL0     H20930   9.979   4.307   7.166 -0.6545  2.7462 -0.3351
  152MOL0     H20931   9.813   4.237   7.139 -1.5737 -1.0616  2.7792
  152MOL0     H20932   9.895   4.476   7.313  1.3709 -2.9605  0.9011
  152MOL0     H20933   9.850   4.502   7.143  1.1619 -0.3452  0.4140
  152MOL0     H20934   9.762   4.691   7.168  0.3574 -1.0896 -1.2766
  152MOL0     H20935   9.614   4.920   7.103 -1.9539 -0.9039  1.2599
  152MOL0     H20936   9.592   4.883   6.933 -4.2126 -1.2254  1.6930
  152MOL0     H20937   9.742   4.835   7.012  0.0008 -2.9099  0.6446
  152MOL0     H20938   9.091   4.942   7.042  1.3694 -0.9929 -0.1464
  152MOL0     H20939   8.924   5.060   6.904 -1.6122 -1.7285  2.2164
  152MOL0     H20940   8.840   4.905   6.477  1.4102 -2.7435  2.6495
  152MOL0     H20941   8.735   4.837   6.592 -2.2651  1.3154  0.8961
  152MOL0     H20942   8.665   5.120   6.517 -0.3192 -0.2584 -0.5815
  152MOL0     H20943   8.610   4.990   6.416 -0.6562  2.3774  0.4372
  152MOL0     H20944   8.575   5.034   6.724 -0.3533 -0.7278  0.7242
  152MOL0     H20945   8.521   4.884   6.653 -1.9923  0.1201  1.7146
  152MOL0     H20946   8.350   5.019   6.508 -2.4171  2.5260  0.2378
  152MOL0     H20947   8.405   5.168   6.584 -3.7774  0.8643  1.7421
  152MOL0     H20948   8.297   4.924   6.718 -1.5575  0.2029  0.1021
  152MOL0     H20949   8.353   5.077   6.803 -0.0418  0.2756 -0.8262
  152MOL0     H20950   8.119   5.070   6.815 -0.2044  1.3675  0.6725
  152MOL0     H20951   8.106   5.026   6.644 -2.7144 -0.9949  1.6783
  152MOL0     H20952   8.119   5.233   6.575  3.0125  3.0342 -0.5968
  152MOL0     H20953   8.242   5.288   6.693 -0.3299  1.8667  1.5507
  152MOL0     H20954   8.028   5.413   6.687  5.0268  1.4037  0.0180
  152MOL0     H20955   8.055   5.327   6.841  1.1136 -1.0717 -0.6682
  152MOL0     H20956   8.975   4.772   6.588  3.9420 -2.3303 -0.3887
  152MOL0     H20957   9.118   4.653   6.723  1.6370  1.4634  0.9824
  152MOL0     H20958   9.289   4.555   7.145  0.4189 -0.7577 -0.4162
  152MOL0     H20959   9.453   4.404   7.249  3.3446  0.2461  0.7536
  152MOL0     H20960  10.837   4.277   8.089  1.2077 -0.9116  1.9306
  152MOL0     H20961  10.982   4.478   7.965  0.2542  0.4272  1.9031
  152MOL0     H20962  11.070   4.630   7.468 -0.6253  2.9380 -0.9258
  152MOL0     H20963  11.173   4.828   7.387  0.4553 -0.0767  0.1924
  152MOL0     H20964  11.280   5.044   7.606  0.1748 -0.3195 -0.3824
  152MOL0     H20965  11.457   5.026   7.649 -1.0343  3.5622  1.3189
  152MOL0     H20966  11.323   5.231   7.444  0.7423 -1.2594 -2.3629
  152MOL0     H20967  11.500   5.180   7.438  3.3314  1.7746  3.6681
  152MOL0     H20968  11.316   5.331   7.621 -1.1756 -2.2384  0.8189
  152MOL0     H20969  11.448   5.249   7.704 -0.1913  0.5755 -0.3962
  152MOL0     H20970  11.499   5.464   7.661  2.3853  0.7382 -0.0964
  152MOL0     H20971  11.513   5.443   7.483  2.1410  2.1557 -0.7313
  152MOL0     H20972  11.869   5.243   7.635  1.1569  1.2640 -4.5281
  152MOL0     H20973  11.489   4.788   7.656 -0.5390 -1.2276  2.7049
  152MOL0     H20974  11.520   4.613   7.783  0.5400 -0.3266  1.1153
  152MOL0     H20975  11.391   4.630   7.889  1.9553  0.2524  0.1311
  152MOL0     H20976  11.393   4.478   7.817 -2.0420  0.6228  3.5329
  153MOL0     O20977   3.126   9.046   3.103 -0.0368  0.0757  1.0582
  153MOL0     C20978   3.217   8.969   3.132 -0.6469  0.1931 -1.1194
  153MOL0     O20979   3.337   9.010   3.171  0.1377  0.6413  0.4898
  153MOL0     C20980   3.364   9.137   3.124  0.5138 -0.8723  0.4933
  153MOL0     C20981   3.442   9.155   3.003  0.2708  0.2168 -0.2536
  153MOL0     C20982   3.480   9.284   2.976 -0.2296 -0.6157 -0.3276
  153MOL0     C20983   3.447   9.392   3.065  0.2671  0.1524  1.0268
  153MOL0     O20984   3.510   9.513   3.043 -0.2170  0.0407  0.6571
  153MOL0     C20985   3.433   9.631   3.049 -0.3255  0.1252  0.4615
  153MOL0     C20986   3.381   9.671   2.905  0.9094 -0.7345 -0.3965
  153MOL0     C20987   3.510   9.690   2.827 -0.2991 -1.0421 -0.6385
  153MOL0     C20988   3.484   9.801   2.714  0.9077  0.1706 -0.4132
  153MOL0     C20989   3.372   9.759   2.610 -0.5571  0.1278 -0.3644
  153MOL0     C20990   3.389   9.629   2.534 -1.4284  0.3561  0.4503
  153MOL0     C20991   3.523   9.622   2.460  0.3959 -0.3857 -0.1655
  153MOL0     C20992   3.536   9.512   2.349 -0.7716  0.6566  0.2452
  153MOL0     N20993   3.655   9.546   2.268  0.1178 -0.1067  1.1839
  153MOL0     C20994   3.660   9.592   2.137 -0.9768 -0.4542 -0.8860
  153MOL0     C20995   3.786   9.630   2.116 -1.1301  0.1271  0.2229
  153MOL0     C20996   3.843   9.682   1.983 -0.1560 -1.1808  0.0654
  153MOL0     C20997   3.971   9.608   1.933 -0.3426 -1.3143  0.4053
  153MOL0     C20998   4.041   9.649   1.800  0.0566  0.2286 -0.6725
  153MOL0     C20999   4.087   9.791   1.786  0.8700 -0.0862 -0.1437
  153MOL0     O21000   4.121   9.827   1.652 -0.5493  0.4942 -0.4416
  153MOL0     C21001   4.226   9.919   1.641 -0.2560 -0.3179 -0.4759
  153MOL0     C21002   4.358   9.881   1.668 -0.0024  0.1510  0.3922
  153MOL0     C21003   4.467   9.966   1.643 -0.5193 -0.6434  0.4480
  153MOL0     C21004   4.610   9.913   1.657 -0.0820  0.7072  0.4028
  153MOL0     C21005   4.438  10.090   1.590 -0.5880  0.2440  0.4932
  153MOL0     C21006   4.540  10.192   1.551  0.4755 -0.3328 -0.4204
  153MOL0     O21007   4.642  10.196   1.628  0.3335 -0.2721  0.1241
  153MOL0     C21008   4.757  10.242   1.571 -0.0823 -0.5277  0.0210
  153MOL0     C21009   4.798  10.246   1.435 -0.3020  0.5609 -0.3896
  153MOL0     C21010   4.920  10.301   1.407 -1.6445  0.6160  0.1223
  153MOL0     C21011   5.014  10.360   1.497  0.3035  0.0816 -0.6974
  153MOL0     O21012   5.121  10.424   1.445  0.0331  0.5072  0.0413
  153MOL0     C21013   5.192  10.515   1.533 -0.6224  0.3109 -0.1850
  153MOL0     C21014   5.277  10.612   1.462 -0.6432 -0.4467 -0.2757
  153MOL0     C21015   5.245  10.654   1.321 -0.1647 -0.2887  0.4826
  153MOL0     C21016   5.111  10.730   1.316 -0.9659  0.3787 -0.0598
  153MOL0     C21017   5.111  10.809   1.184 -0.9463  0.0087 -0.4743
  153MOL0     C21018   4.971  10.844   1.149  0.0265  0.2870  0.2914
  153MOL0     C21019   4.985  10.954   1.054 -0.4654 -0.1662  0.5852
  153MOL0     C21020   4.847  10.971   0.989 -0.4634 -0.0188  0.0195
  153MOL0    Cl21021   4.879  11.081   0.849  0.2560 -0.2653  0.0960
  153MOL0     C21022   4.970  10.347   1.626 -0.8078 -0.1503 -0.7159
  153MOL0     C21023   4.845  10.292   1.665  0.7892 -0.4100  0.8656
  153MOL0     O21024   4.524  10.263   1.451 -0.0314  0.1178  0.5521
  153MOL0     C21025   4.298  10.125   1.560 -1.1306 -0.5092 -0.2140
  153MOL0     C21026   4.196  10.047   1.587  0.3308  0.3012  0.1706
  153MOL0     N21027   3.874   9.597   2.217  1.0579  0.2176  0.1975
  153MOL0     N21028   3.792   9.547   2.306 -0.0193 -0.4343  0.1499
  153MOL0     C21029   3.372   9.362   3.178  0.3277  0.2514  0.8089
  153MOL0     C21030   3.346   9.238   3.215  0.0330  0.2149  0.5952
  153MOL0     C21031   3.177   8.824   3.126 -0.3555  0.4555  0.4601
  153MOL0     C21032   3.069   8.779   3.045 -0.8216 -0.0038 -0.3586
  153MOL0     C21033   3.016   8.646   3.046  0.2458 -0.1662 -0.1678
  153MOL0     C21034   3.074   8.551   3.128  1.1756 -0.3705  0.4529
  153MOL0     O21035   3.046   8.421   3.110  0.9977  0.1574 -0.5196
  153MOL0     C21036   3.105   8.317   3.181  0.9810 -0.8882 -1.1486
  153MOL0     C21037   3.060   8.181   3.155  1.4503  1.0340 -0.4541
  153MOL0     C21038   3.056   8.137   3.015 -0.8899  0.0131 -0.7419
  153MOL0     C21039   2.974   8.003   3.020  0.0291 -0.0848  0.2915
  153MOL0     C21040   3.074   7.900   3.056  0.0419 -0.4255  0.3363
  153MOL0     C21041   3.141   7.811   3.101 -0.8369  0.4804  0.5241
  153MOL0     C21042   3.181   8.599   3.210 -0.3609  0.2315  0.3890
  153MOL0     C21043   3.235   8.730   3.213  0.3233 -0.0546  0.4553
  153MOL0     C21044   3.358   8.746   3.311 -0.1345 -0.4011  0.4539
  153MOL0     H21045   3.476   9.059   2.965  3.6954  0.0402  2.7504
  153MOL0     H21046   3.550   9.295   2.893  0.4389 -2.7061 -0.0928
  153MOL0     H21047   3.506   9.702   3.087  0.7628 -1.1683  0.8503
  153MOL0     H21048   3.342   9.633   3.110 -0.3153  1.3538  0.4507
  153MOL0     H21049   3.327   9.596   2.847 -1.3781 -0.8865  1.7280
  153MOL0     H21050   3.327   9.766   2.916  0.4881 -1.1305  1.2594
  153MOL0     H21051   3.597   9.715   2.889 -1.0478  1.1613 -0.3922
  153MOL0     H21052   3.550   9.600   2.781  2.7256 -1.4791  2.4470
  153MOL0     H21053   3.440   9.885   2.768 -0.1634 -1.0087  0.6222
  153MOL0     H21054   3.571   9.825   2.653  0.5771 -1.2109 -1.4856
  153MOL0     H21055   3.354   9.845   2.546 -1.2721 -0.3083 -0.7584
  153MOL0     H21056   3.277   9.740   2.662 -0.5841  0.2519 -0.3683
  153MOL0     H21057   3.379   9.540   2.596  0.9830 -1.2336 -1.2554
  153MOL0     H21058   3.309   9.626   2.459 -2.8255  3.5183  1.6288
  153MOL0     H21059   3.606   9.613   2.531  0.1467  0.7349  0.2873
  153MOL0     H21060   3.535   9.724   2.422 -0.1082  0.7449  2.5336
  153MOL0     H21061   3.552   9.414   2.396 -0.4674  1.1651  1.2167
  153MOL0     H21062   3.443   9.517   2.291  0.9186 -1.3661 -2.9310
  153MOL0     H21063   3.572   9.599   2.074 -0.7846  1.4582 -0.9945
  153MOL0     H21064   3.867   9.789   1.989  1.0633 -1.4823  1.2940
  153MOL0     H21065   3.766   9.665   1.907  1.9366 -1.7130 -2.0466
  153MOL0     H21066   4.044   9.609   2.014 -0.0772 -0.5147  0.1723
  153MOL0     H21067   3.937   9.505   1.921 -1.3926 -0.7986 -1.5843
  153MOL0     H21068   4.131   9.588   1.796 -1.3808 -2.6007  3.3865
  153MOL0     H21069   3.987   9.616   1.711 -2.6644 -0.9572  1.2941
  153MOL0     H21070   4.000   9.854   1.812  1.4835  1.2728 -1.2306
  153MOL0     H21071   4.170   9.811   1.854  2.7835 -0.0235 -2.3813
  153MOL0     H21072   4.364   9.778   1.700  0.1887  0.6909  2.2595
  153MOL0     H21073   4.669   9.923   1.565 -2.3993 -2.6495 -1.6716
  153MOL0     H21074   4.617   9.808   1.687  1.1183  0.2493 -1.3571
  153MOL0     H21075   4.659   9.980   1.728  2.9247 -0.3589 -0.5440
  153MOL0     H21076   4.744  10.193   1.357  5.6074 -1.2821 -3.9081
  153MOL0     H21077   4.939  10.295   1.300 -1.3904  0.3963  0.1793
  153MOL0     H21078   5.120  10.566   1.596 -2.1381 -2.1316  0.1807
  153MOL0     H21079   5.249  10.455   1.604 -1.1107 -0.5904 -0.5453
  153MOL0     H21080   5.291  10.700   1.525 -1.3840 -0.5175  0.0052
  153MOL0     H21081   5.379  10.574   1.454 -1.0178 -1.9995  1.6859
  153MOL0     H21082   5.232  10.566   1.256 -2.6934  0.3844 -0.0510
  153MOL0     H21083   5.327  10.715   1.283  0.9685 -2.9001 -1.5869
  153MOL0     H21084   5.110  10.804   1.396  0.6397  0.9842 -0.5617
  153MOL0     H21085   5.029  10.657   1.323 -0.5940 -0.2640 -1.8529
  153MOL0     H21086   5.175  10.891   1.216 -0.9762  0.7873 -2.2947
  153MOL0     H21087   5.155  10.761   1.096  1.0543  1.4631 -0.3414
  153MOL0     H21088   4.922  10.883   1.239  2.5677  1.8001  1.1324
  153MOL0     H21089   4.924  10.755   1.109  0.2371  1.2670 -2.3268
  153MOL0     H21090   5.067  10.947   0.982 -2.5712  1.1104 -2.1308
  153MOL0     H21091   5.023  11.046   1.098  3.2196 -1.2330 -0.0755
  153MOL0     H21092   4.772  11.007   1.059  0.3134 -0.6748  1.2209
  153MOL0     H21093   4.810  10.871   0.964  1.2569 -0.8510  0.6404
  153MOL0     H21094   5.025  10.395   1.707 -1.6472  1.7252 -1.2108
  153MOL0     H21095   4.809  10.291   1.767 -0.7806  1.4152  0.4057
  153MOL0     H21096   4.271  10.211   1.499  0.6743 -0.2240 -0.6673
  153MOL0     H21097   4.100  10.083   1.552  1.4359  2.9636 -0.3588
  153MOL0     H21098   3.356   9.450   3.240 -2.4739  0.3769  0.0320
  153MOL0     H21099   3.312   9.205   3.312  0.0711 -0.0965  0.5021
  153MOL0     H21100   3.022   8.858   2.986  0.1939  2.9415  2.4648
  153MOL0     H21101   2.932   8.619   2.983  0.1649  0.8173 -0.5042
  153MOL0     H21102   3.209   8.320   3.150  1.1534  0.4277 -0.4951
  153MOL0     H21103   3.091   8.324   3.289  1.4961  1.8231 -1.2134
  153MOL0     H21104   2.958   8.172   3.195  1.4789  0.0416 -0.5728
  153MOL0     H21105   3.120   8.102   3.201 -0.0200  0.1981  0.0849
  153MOL0     H21106   2.999   8.204   2.949  1.2039 -1.7646 -4.7207
  153MOL0     H21107   3.146   8.135   2.953  1.0876 -2.3630  1.9315
  153MOL0     H21108   2.943   7.982   2.918  2.5970 -1.7038 -0.2362
  153MOL0     H21109   2.893   8.007   3.093 -1.4935  0.6064 -1.3647
  153MOL0     H21110   3.215   7.740   3.133  1.8345  2.6782 -0.3106
  153MOL0     H21111   3.205   8.527   3.287 -1.8661  1.4383  2.0652
  153MOL0     H21112   3.354   8.847   3.353  4.5522  0.6465 -1.0370
  153MOL0     H21113   3.352   8.673   3.393  0.9809 -2.4990 -1.2273
  153MOL0     H21114   3.451   8.742   3.255 -2.4278 -0.1079 -3.7654
  154MOL0     O21115   7.303   4.406   3.094 -0.6106  0.5505 -0.1702
  154MOL0     C21116   7.214   4.325   3.059  0.3095 -0.4054 -1.0015
  154MOL0     O21117   7.120   4.345   2.974 -0.1136  0.5573  0.0937
  154MOL0     C21118   7.104   4.462   2.921 -0.6784 -1.2226  0.0753
  154MOL0     C21119   7.022   4.570   2.964  0.7255  0.3503  0.3834
  154MOL0     C21120   7.001   4.684   2.875 -0.8619  0.0280 -0.7328
  154MOL0     C21121   7.063   4.692   2.753 -1.0016 -0.4949  0.2124
  154MOL0     O21122   7.017   4.788   2.669 -0.2999  0.0899  1.1297
  154MOL0     C21123   6.964   4.737   2.541 -0.3818 -0.2011 -0.2554
  154MOL0     C21124   7.045   4.778   2.416  0.6382  1.4187 -0.4891
  154MOL0     C21125   7.057   4.933   2.420  0.3948 -0.8568  0.3226
  154MOL0     C21126   7.108   4.965   2.276  0.4490  0.2938  0.3347
  154MOL0     C21127   7.100   5.122   2.243 -0.6783  0.4313 -0.5365
  154MOL0     C21128   7.149   5.216   2.354  0.2652 -0.3702  0.1078
  154MOL0     C21129   7.154   5.352   2.291  0.0693 -0.3105  0.0024
  154MOL0     C21130   7.041   5.447   2.318 -0.4284 -0.8859 -0.2285
  154MOL0     N21131   6.918   5.393   2.274  0.9411  0.3920  0.7792
  154MOL0     C21132   6.847   5.434   2.165 -0.4383  0.3841 -0.0536
  154MOL0     C21133   6.739   5.358   2.173 -0.3455  0.1726  0.6036
  154MOL0     C21134   6.632   5.368   2.079  0.3824  0.3222  0.1061
  154MOL0     C21135   6.577   5.517   2.078 -0.0306 -1.0784  0.1450
  154MOL0     C21136   6.645   5.621   1.986 -0.7214 -0.1459  0.0420
  154MOL0     C21137   6.632   5.765   2.041  0.6802  0.0282 -0.0139
  154MOL0     O21138   6.711   5.856   1.966 -0.3995  1.2290  0.1802
  154MOL0     C21139   6.813   5.901   2.040 -1.1951  0.4039  0.4654
  154MOL0     C21140   6.942   5.846   2.029 -1.2821 -0.0398 -0.7351
  154MOL0     C21141   7.048   5.910   2.096 -0.0166  0.1203  0.0996
  154MOL0     C21142   7.190   5.866   2.066  0.0968  0.0427  0.5779
  154MOL0     C21143   7.026   6.028   2.172 -0.8440 -0.4578 -0.5505
  154MOL0     C21144   7.137   6.092   2.248  0.6929  0.2119 -0.4893
  154MOL0     O21145   7.236   6.011   2.299 -0.2465  1.0192 -0.0839
  154MOL0     C21146   7.343   6.060   2.369 -0.4131 -0.0651 -0.2545
  154MOL0     C21147   7.460   6.084   2.303 -0.3990  0.8624  0.4767
  154MOL0     C21148   7.580   6.122   2.367 -0.2517 -0.7096 -0.5657
  154MOL0     C21149   7.589   6.107   2.508 -0.1616 -0.1418  0.9220
  154MOL0     O21150   7.702   6.143   2.573  0.1736  0.9423  0.0055
  154MOL0     C21151   7.674   6.215   2.695 -0.2988 -0.2041 -1.0076
  154MOL0     C21152   7.755   6.349   2.696  0.5702 -0.7038  0.6831
  154MOL0     C21153   7.904   6.329   2.722  0.3812 -0.7819 -0.1626
  154MOL0     C21154   7.966   6.432   2.828 -0.7745  0.9982 -0.5524
  154MOL0     C21155   8.114   6.416   2.822 -0.3653  0.2230  0.1698
  154MOL0     C21156   8.192   6.541   2.868  0.3124  0.8328 -1.0204
  154MOL0     C21157   8.332   6.516   2.906  0.9916  0.1117 -0.2089
  154MOL0     C21158   8.389   6.646   2.963 -0.0951  0.0202 -1.1492
  154MOL0    Cl21159   8.408   6.774   2.844 -0.0129 -0.3739  0.0096
  154MOL0     C21160   7.479   6.068   2.571 -0.3861 -0.0610 -0.1315
  154MOL0     C21161   7.351   6.059   2.507  0.3209  0.4224 -0.9594
  154MOL0     O21162   7.134   6.206   2.265  0.4543  0.2643  0.1247
  154MOL0     C21163   6.902   6.093   2.166 -0.0014  0.3770  1.1754
  154MOL0     C21164   6.794   6.018   2.115  0.4482  0.1095 -0.0738
  154MOL0     N21165   6.728   5.286   2.290  0.1553  0.8060 -0.2961
  154MOL0     N21166   6.844   5.308   2.348  0.1047  0.1952  0.3780
  154MOL0     C21167   7.147   4.588   2.713  0.1492 -0.4830 -0.6205
  154MOL0     C21168   7.170   4.482   2.795 -0.3984  0.2439  0.0992
  154MOL0     C21169   7.232   4.179   3.092  0.3106 -0.5936 -0.1153
  154MOL0     C21170   7.148   4.086   3.024  0.4440  0.3348  0.1587
  154MOL0     C21171   7.161   3.947   3.040  0.3683  0.5483  0.0363
  154MOL0     C21172   7.256   3.900   3.128 -0.5608  0.5635 -0.2620
  154MOL0     O21173   7.286   3.767   3.146 -0.3568  0.2590  0.0890
  154MOL0     C21174   7.230   3.667   3.055  1.4096  0.4469  0.1520
  154MOL0     C21175   7.089   3.622   3.098 -0.1561  0.0980  0.8760
  154MOL0     C21176   7.095   3.560   3.232  0.1037 -0.0555 -0.3454
  154MOL0     C21177   6.980   3.481   3.275 -0.1283  0.6137 -0.2343
  154MOL0     C21178   6.868   3.566   3.316 -0.3604 -0.0251  0.3618
  154MOL0     C21179   6.777   3.647   3.334 -0.7757  0.3732 -1.2239
  154MOL0     C21180   7.341   3.982   3.197  0.1277  0.0269  0.7840
  154MOL0     C21181   7.325   4.120   3.193 -0.0747  0.0185 -0.1191
  154MOL0     C21182   7.420   4.190   3.289 -0.4302  0.5693 -1.0604
  154MOL0     H21183   6.967   4.556   3.057 -1.1568  0.9660 -0.5765
  154MOL0     H21184   6.932   4.762   2.904  1.3851  1.3950  1.3109
  154MOL0     H21185   6.869   4.790   2.527 -0.5438  0.6214  3.1344
  154MOL0     H21186   6.945   4.630   2.539 -6.1362  0.5277 -2.0895
  154MOL0     H21187   7.140   4.728   2.435  1.4344  2.5354 -1.3660
  154MOL0     H21188   7.005   4.738   2.322 -0.2024 -2.1523  1.2180
  154MOL0     H21189   6.960   4.980   2.439  0.1890 -0.1987 -2.0743
  154MOL0     H21190   7.132   4.954   2.497  1.1885 -1.2338 -0.3369
  154MOL0     H21191   7.215   4.941   2.267  0.1710 -2.3549  2.7209
  154MOL0     H21192   7.040   4.911   2.209 -3.7012  1.3688  3.3226
  154MOL0     H21193   7.006   5.159   2.201  0.3835 -1.1722 -4.8914
  154MOL0     H21194   7.184   5.136   2.175  1.2500  2.2801  2.0384
  154MOL0     H21195   7.090   5.202   2.445 -1.5083 -3.3867 -1.3542
  154MOL0     H21196   7.252   5.187   2.376  1.1800  2.0373 -0.7139
  154MOL0     H21197   7.158   5.337   2.183 -4.7092 -1.0244 -0.2631
  154MOL0     H21198   7.250   5.394   2.325  0.2497 -0.4096 -0.3782
  154MOL0     H21199   7.044   5.487   2.420  1.2279 -0.3242 -0.4510
  154MOL0     H21200   7.072   5.530   2.253  3.1891 -1.3982  0.6183
  154MOL0     H21201   6.879   5.510   2.094  3.1264 -0.3209  0.5754
  154MOL0     H21202   6.547   5.305   2.108 -0.3863  1.1261 -0.3273
  154MOL0     H21203   6.661   5.333   1.980  2.4368  1.5262  0.2244
  154MOL0     H21204   6.472   5.523   2.048 -0.5225  2.3942  2.0633
  154MOL0     H21205   6.578   5.558   2.179  0.5871  0.1675 -0.3512
  154MOL0     H21206   6.750   5.594   1.982 -0.4286  0.5797  1.6822
  154MOL0     H21207   6.598   5.618   1.887  3.1381  2.5500 -2.1312
  154MOL0     H21208   6.531   5.807   2.037  1.3465  1.7857  0.6338
  154MOL0     H21209   6.643   5.759   2.149 -0.8761  0.1897  0.1705
  154MOL0     H21210   6.969   5.759   1.970 -0.0147  0.9267 -1.6070
  154MOL0     H21211   7.256   5.946   2.030 -0.9039 -0.2371 -2.0796
  154MOL0     H21212   7.189   5.800   1.979  0.1543  2.7520 -1.6176
  154MOL0     H21213   7.236   5.813   2.150 -1.3567  0.5789  1.7517
  154MOL0     H21214   7.454   6.100   2.196  3.3585 -1.0187 -0.1751
  154MOL0     H21215   7.666   6.148   2.307 -0.6956 -0.2617 -1.0106
  154MOL0     H21216   7.572   6.252   2.705  0.2595  1.0056  0.7610
  154MOL0     H21217   7.707   6.149   2.777  0.7069 -0.1086 -1.3136
  154MOL0     H21218   7.745   6.399   2.599 -0.3278  1.1751  1.7018
  154MOL0     H21219   7.716   6.415   2.774  3.0720 -0.2878  1.6429
  154MOL0     H21220   7.951   6.342   2.624 -0.2287 -0.0788 -0.3761
  154MOL0     H21221   7.918   6.224   2.749  2.0082 -0.4242  0.5048
  154MOL0     H21222   7.941   6.392   2.927  0.6555 -1.6004 -1.1510
  154MOL0     H21223   7.949   6.539   2.818 -2.5140  1.1213  2.5517
  154MOL0     H21224   8.151   6.321   2.862  0.4687 -0.0344 -1.1470
  154MOL0     H21225   8.134   6.407   2.715 -1.6354 -1.2483  0.0147
  154MOL0     H21226   8.139   6.581   2.955  0.8975  0.2243 -0.3741
  154MOL0     H21227   8.187   6.622   2.795 -1.5649  1.4182 -0.3015
  154MOL0     H21228   8.386   6.478   2.819 -1.4604  0.3694 -1.9437
  154MOL0     H21229   8.333   6.446   2.990 -1.1649  2.5587  2.0684
  154MOL0     H21230   8.488   6.613   2.996 -1.3634 -1.8685  1.0612
  154MOL0     H21231   8.345   6.666   3.061 -1.2448  0.3573 -1.7140
  154MOL0     H21232   7.482   6.063   2.680  0.4068 -3.0975 -0.2082
  154MOL0     H21233   7.268   6.033   2.572  0.0929 -3.0446 -2.4630
  154MOL0     H21234   6.871   6.186   2.212 -1.2714  0.3288  0.4841
  154MOL0     H21235   6.689   6.048   2.117 -0.1119 -1.5429 -2.0720
  154MOL0     H21236   7.190   4.582   2.613 -1.6810 -1.5398 -1.4093
  154MOL0     H21237   7.231   4.401   2.758 -0.0716  0.5630 -0.0698
  154MOL0     H21238   7.070   4.123   2.958  0.2252  0.3766  0.4401
  154MOL0     H21239   7.109   3.872   2.982  1.1360 -0.5710  0.7529
  154MOL0     H21240   7.235   3.701   2.951 -0.0102 -1.8641 -0.7359
  154MOL0     H21241   7.290   3.576   3.060  0.3154 -0.2829  0.1866
  154MOL0     H21242   7.057   3.546   3.026  0.9294 -0.5384  1.0482
  154MOL0     H21243   7.010   3.696   3.085  1.2600  1.2819 -1.9010
  154MOL0     H21244   7.190   3.508   3.249 -0.0596  0.0546  0.9679
  154MOL0     H21245   7.101   3.629   3.317 -0.0585 -1.4444  0.8319
  154MOL0     H21246   7.006   3.415   3.358  1.1772  2.7433  1.1534
  154MOL0     H21247   6.945   3.422   3.190 -0.3151  1.0672 -0.4784
  154MOL0     H21248   6.695   3.709   3.363 -0.5534  2.0543 -3.8616
  154MOL0     H21249   7.415   3.946   3.268  0.7934 -0.4704 -0.1398
  154MOL0     H21250   7.457   4.122   3.367  4.1681  2.3545 -1.4049
  154MOL0     H21251   7.508   4.230   3.240  0.7664  0.0234  0.5393
  154MOL0     H21252   7.374   4.277   3.337  0.5117 -0.1802  1.3736
  155MOL0     O21253   2.545  11.002   1.461  0.7242  0.6245 -0.0246
  155MOL0     C21254   2.483  10.925   1.538  0.5387 -0.6493  0.4658
  155MOL0     O21255   2.474  10.936   1.670 -0.0325  0.2307  0.3031
  155MOL0     C21256   2.554  11.030   1.731  0.4437  0.4319  0.5686
  155MOL0     C21257   2.527  11.164   1.713  0.0185 -0.0947  0.0623
  155MOL0     C21258   2.599  11.255   1.775  0.8238  0.2556 -0.7757
  155MOL0     C21259   2.711  11.222   1.863  0.9282 -0.6305  0.1144
  155MOL0     O21260   2.799  11.313   1.924  1.0387 -0.5857 -0.1623
  155MOL0     C21261   2.794  11.437   1.862 -0.5446 -0.4705  0.1933
  155MOL0     C21262   2.912  11.525   1.902 -0.1112  1.2320 -0.8126
  155MOL0     C21263   2.939  11.526   2.051  0.7610  1.4782  0.6539
  155MOL0     C21264   2.970  11.662   2.120 -0.0581 -1.4789  0.1894
  155MOL0     C21265   2.945  11.647   2.273  0.3396 -0.2603  0.9477
  155MOL0     C21266   3.024  11.760   2.343  0.8023  0.2090 -0.7861
  155MOL0     C21267   2.994  11.752   2.490 -0.1779  0.0598 -0.2866
  155MOL0     C21268   2.933  11.879   2.543  0.3291  0.6078  0.3818
  155MOL0     N21269   2.781  11.874   2.540  0.3854  0.0801 -0.0150
  155MOL0     C21270   2.691  11.896   2.437  0.0114  0.5909 -0.5851
  155MOL0     C21271   2.567  11.866   2.485  0.7280  0.4941 -0.7363
  155MOL0     C21272   2.428  11.878   2.421  0.2939 -0.9992  0.0564
  155MOL0     C21273   2.440  11.781   2.307 -0.0356  0.0960  0.8167
  155MOL0     C21274   2.321  11.785   2.221  0.1414  1.3773  0.6448
  155MOL0     C21275   2.338  11.676   2.105  0.3941  0.1249 -0.5087
  155MOL0     O21276   2.423  11.742   2.003 -0.0952  0.2789 -0.1006
  155MOL0     C21277   2.465  11.694   1.886  0.1587  0.3935  0.3336
  155MOL0     C21278   2.370  11.633   1.801 -0.4843  0.4318  0.5619
  155MOL0     C21279   2.413  11.585   1.670  0.1931 -1.1096  0.1333
  155MOL0     C21280   2.303  11.526   1.581 -0.3255 -1.0807  0.0455
  155MOL0     C21281   2.553  11.607   1.630  0.5294  0.1244  0.6362
  155MOL0     C21282   2.603  11.554   1.493 -0.3926 -0.2632  0.3241
  155MOL0     O21283   2.570  11.428   1.445  0.5471 -0.6215  0.2858
  155MOL0     C21284   2.596  11.397   1.310  0.2314  0.3799 -0.7343
  155MOL0     C21285   2.616  11.262   1.298 -0.2913  1.5611 -0.9168
  155MOL0     C21286   2.627  11.207   1.165 -0.0641  0.7604 -0.6817
  155MOL0     C21287   2.608  11.285   1.050 -0.4644 -0.3562 -0.9652
  155MOL0     O21288   2.626  11.228   0.928 -0.0094  0.7983  0.0183
  155MOL0     C21289   2.662  11.307   0.813 -0.5439  0.2372 -0.7522
  155MOL0     C21290   2.711  11.207   0.709  0.3084 -0.0287 -0.2206
  155MOL0     C21291   2.843  11.146   0.748 -0.3318 -0.6409  1.4877
  155MOL0     C21292   2.897  11.024   0.673 -0.3593 -0.1623  0.3376
  155MOL0     C21293   3.047  10.991   0.700  0.1521  0.8955 -0.4779
  155MOL0     C21294   3.075  10.839   0.700 -0.2004  0.0445  0.2216
  155MOL0     C21295   3.044  10.785   0.560  0.5977  0.5908 -0.2738
  155MOL0     C21296   3.126  10.664   0.524  0.4220  0.1025 -0.3570
  155MOL0    Cl21297   3.141  10.541   0.662 -0.1125  0.0439  0.0506
  155MOL0     C21298   2.579  11.427   1.071 -0.1476  0.9764 -0.1745
  155MOL0     C21299   2.576  11.484   1.197  0.1946 -0.1152  0.7438
  155MOL0     O21300   2.673  11.634   1.430  0.8118  0.6325 -0.2820
  155MOL0     C21301   2.635  11.684   1.715  0.1735 -0.3173  0.5855
  155MOL0     C21302   2.589  11.727   1.839 -0.5351 -0.2204 -0.3911
  155MOL0     N21303   2.584  11.837   2.619 -0.7311  0.0265  0.5848
  155MOL0     N21304   2.709  11.829   2.645  0.7628  0.2895  0.4949
  155MOL0     C21305   2.740  11.087   1.885 -0.0444  0.3777  0.5456
  155MOL0     C21306   2.658  10.991   1.822  0.3254  0.1667  0.0204
  155MOL0     C21307   2.418  10.812   1.481 -0.1185  0.9755 -0.6586
  155MOL0     C21308   2.334  10.736   1.562  0.2118  0.7168  0.0869
  155MOL0     C21309   2.256  10.625   1.521 -0.2278  0.2562 -0.2663
  155MOL0     C21310   2.273  10.565   1.405  0.2235 -0.9490  1.0909
  155MOL0     O21311   2.220  10.441   1.379  0.2288  0.2589 -1.3713
  155MOL0     C21312   2.298  10.332   1.322  0.6850 -0.6801  0.4375
  155MOL0     C21313   2.407  10.300   1.421  0.0507  0.2991 -0.0800
  155MOL0     C21314   2.366  10.290   1.566  0.3521  0.4675  0.8021
  155MOL0     C21315   2.474  10.275   1.670  0.1440 -0.9063 -1.1713
  155MOL0     C21316   2.585  10.185   1.628  0.1578  0.9352  1.0389
  155MOL0     C21317   2.689  10.119   1.610  0.0163 -0.5287  0.7064
  155MOL0     C21318   2.362  10.627   1.323  0.2345  0.9946  0.4522
  155MOL0     C21319   2.436  10.746   1.352 -0.0346  0.6099 -0.3701
  155MOL0     C21320   2.537  10.801   1.252 -0.0877 -0.5972 -0.6748
  155MOL0     H21321   2.443  11.193   1.651  1.3120  0.0357 -1.7222
  155MOL0     H21322   2.560  11.357   1.774 -1.7770 -0.6712 -2.7695
  155MOL0     H21323   2.700  11.485   1.891  0.1597  0.6260  0.7351
  155MOL0     H21324   2.794  11.426   1.754 -0.3330  1.2679 -0.0169
  155MOL0     H21325   3.010  11.498   1.861  2.3397 -1.2238  5.3344
  155MOL0     H21326   2.899  11.631   1.880 -1.2082  2.1732  3.4814
  155MOL0     H21327   2.853  11.487   2.107  2.2698  0.4524  2.3525
  155MOL0     H21328   3.021  11.456   2.070  0.2179  0.5486 -0.2909
  155MOL0     H21329   3.075  11.689   2.104 -0.0897  0.1110  2.2080
  155MOL0     H21330   2.904  11.742   2.085  1.5018 -0.3485 -0.2848
  155MOL0     H21331   2.972  11.554   2.324 -3.0833 -0.6510  2.3290
  155MOL0     H21332   2.839  11.656   2.296 -0.0844 -1.8540 -0.2488
  155MOL0     H21333   3.131  11.758   2.323  0.7108 -1.2944 -1.2435
  155MOL0     H21334   2.991  11.852   2.292 -2.0599 -1.2535 -1.8136
  155MOL0     H21335   3.090  11.737   2.541  1.1651  3.8751 -1.3541
  155MOL0     H21336   2.930  11.671   2.525 -3.2314  3.6214  3.3164
  155MOL0     H21337   2.946  11.881   2.652 -1.9794  1.0899  0.7121
  155MOL0     H21338   2.986  11.967   2.505  0.4026  1.7378  2.8826
  155MOL0     H21339   2.717  11.933   2.339  4.9897 -1.6595 -0.4773
  155MOL0     H21340   2.426  11.980   2.381  1.0868 -0.8133  0.4727
  155MOL0     H21341   2.351  11.849   2.493 -0.3210  1.3432  0.4311
  155MOL0     H21342   2.534  11.798   2.253 -0.0207 -1.2722  0.3785
  155MOL0     H21343   2.449  11.678   2.343 -0.4877 -0.5072 -0.7037
  155MOL0     H21344   2.235  11.766   2.286  1.6202 -3.1383  1.6619
  155MOL0     H21345   2.297  11.883   2.179 -4.2771  1.2063  2.2529
  155MOL0     H21346   2.383  11.579   2.130 -2.3972 -1.6669 -1.9679
  155MOL0     H21347   2.236  11.658   2.071 -1.0220  1.9988  2.3196
  155MOL0     H21348   2.267  11.629   1.837 -1.2585  1.5939 -1.3771
  155MOL0     H21349   2.263  11.431   1.620 -2.2014 -0.3318  0.0802
  155MOL0     H21350   2.338  11.521   1.478  1.9325 -0.6777  0.7438
  155MOL0     H21351   2.214  11.590   1.574 -0.2262 -1.1488 -4.1036
  155MOL0     H21352   2.642  11.219   1.394 -0.0771  1.8513 -0.8390
  155MOL0     H21353   2.650  11.103   1.147 -0.3983  0.5607  0.0345
  155MOL0     H21354   2.579  11.367   0.775  0.1191  1.4791 -0.2951
  155MOL0     H21355   2.744  11.367   0.853 -0.3484 -1.2861  1.3414
  155MOL0     H21356   2.641  11.124   0.718  0.1973  0.2169  1.5149
  155MOL0     H21357   2.704  11.248   0.607 -2.3382 -2.0735 -0.9734
  155MOL0     H21358   2.842  11.111   0.852 -1.2277 -1.3160  1.2685
  155MOL0     H21359   2.920  11.221   0.732  2.0010 -2.9094  1.3816
  155MOL0     H21360   2.893  11.050   0.566 -1.4132  0.3065  0.4787
  155MOL0     H21361   2.830  10.940   0.697  2.2925 -1.6885  3.0841
  155MOL0     H21362   3.098  11.046   0.620 -1.8562  1.6119 -1.3239
  155MOL0     H21363   3.074  11.038   0.795 -2.1888 -0.0578  0.7350
  155MOL0     H21364   3.009  10.795   0.776 -2.2326  0.4405 -1.2292
  155MOL0     H21365   3.180  10.812   0.716 -1.0263 -2.4901  1.9502
  155MOL0     H21366   3.062  10.857   0.480 -1.0425  1.3157 -0.0157
  155MOL0     H21367   2.937  10.765   0.549  0.5091  1.7947 -2.1116
  155MOL0     H21368   3.221  10.702   0.485  0.4606  1.4301  0.9435
  155MOL0     H21369   3.072  10.619   0.440  0.5111 -0.6048 -0.0364
  155MOL0     H21370   2.572  11.491   0.984  1.9703  0.4449 -0.8054
  155MOL0     H21371   2.562  11.591   1.205 -5.2154 -0.3032 -1.7542
  155MOL0     H21372   2.737  11.708   1.684  0.1524  1.1348  1.5562
  155MOL0     H21373   2.650  11.794   1.899 -1.3270  1.2089 -1.1365
  155MOL0     H21374   2.828  11.049   1.936  0.2151  0.6831  0.3271
  155MOL0     H21375   2.676  10.883   1.822 -1.1188 -0.0873 -0.1534
  155MOL0     H21376   2.321  10.773   1.663 -2.3846 -0.7125  0.3681
  155MOL0     H21377   2.186  10.573   1.586  2.1809 -1.6558  0.9271
  155MOL0     H21378   2.231  10.247   1.308  1.3689 -0.7784 -3.2769
  155MOL0     H21379   2.330  10.351   1.219  0.0004  0.2426  0.3818
  155MOL0     H21380   2.472  10.388   1.420  1.5185 -0.7197 -1.8695
  155MOL0     H21381   2.467  10.216   1.385  1.0141 -0.2595  2.5861
  155MOL0     H21382   2.303  10.376   1.589 -2.9851 -1.6719  0.4077
  155MOL0     H21383   2.289  10.213   1.573  0.3901  0.2211 -1.0229
  155MOL0     H21384   2.444  10.244   1.771  1.3444  0.3278 -0.4127
  155MOL0     H21385   2.513  10.377   1.680 -2.9394  0.1948  1.5296
  155MOL0     H21386   2.766  10.047   1.590  0.0963 -0.3929  0.5257
  155MOL0     H21387   2.377  10.592   1.221 -0.5491  0.5572  0.4742
  155MOL0     H21388   2.631  10.826   1.303 -0.5938  2.0019 -0.8747
  155MOL0     H21389   2.555  10.748   1.158 -1.0646 -0.0307 -1.1948
  155MOL0     H21390   2.509  10.902   1.223  2.5770 -0.0167 -1.4935
  156MOL0     O21391   1.772   0.311   4.083  0.0215  0.2255 -0.0128
  156MOL0     C21392   1.877   0.366   4.079  0.9941  0.3418  0.7756
  156MOL0     O21393   1.918   0.440   3.972  0.0468  0.2143 -0.2795
  156MOL0     C21394   1.830   0.471   3.875  1.2450  0.7289  0.7275
  156MOL0     C21395   1.780   0.602   3.856  0.3014  0.3401  0.6367
  156MOL0     C21396   1.693   0.635   3.756  0.7173 -0.4410  1.2540
  156MOL0     C21397   1.641   0.540   3.670 -0.8004 -0.5042  0.7324
  156MOL0     O21398   1.562   0.556   3.559 -0.1704  0.2089  1.0149
  156MOL0     C21399   1.532   0.689   3.507 -0.0086 -0.4517  0.3922
  156MOL0     C21400   1.421   0.747   3.597  0.0797 -0.0719  0.2192
  156MOL0     C21401   1.420   0.898   3.570 -0.8982 -0.7108  0.7296
  156MOL0     C21402   1.362   0.990   3.683  0.6223 -0.1363 -0.9739
  156MOL0     C21403   1.415   1.129   3.684  0.2565 -0.7038 -0.4781
  156MOL0     C21404   1.333   1.213   3.784 -0.2969 -0.2486 -0.0787
  156MOL0     C21405   1.378   1.364   3.806  0.0871 -0.9363 -0.2616
  156MOL0     C21406   1.504   1.388   3.890 -0.6516 -0.2477 -0.7350
  156MOL0     N21407   1.514   1.534   3.913 -0.2190  0.5832 -0.6722
  156MOL0     C21408   1.489   1.597   4.026  0.1257 -0.2055  0.0883
  156MOL0     C21409   1.492   1.732   3.996  0.2624 -0.7606 -0.0253
  156MOL0     C21410   1.483   1.851   4.099  0.2406 -0.2723 -0.5900
  156MOL0     C21411   1.355   1.938   4.073 -0.2036  0.0685  0.3683
  156MOL0     C21412   1.376   2.086   4.097 -0.1104  0.0241 -0.4101
  156MOL0     C21413   1.391   2.119   4.250 -1.1125  0.5116 -0.7109
  156MOL0     O21414   1.421   2.255   4.286  0.1807 -0.3721 -0.1453
  156MOL0     C21415   1.549   2.302   4.278  0.5008  0.7452 -0.1828
  156MOL0     C21416   1.662   2.226   4.260  1.0666  0.5305 -0.1988
  156MOL0     C21417   1.792   2.283   4.270  1.0996 -0.2990  0.8705
  156MOL0     C21418   1.905   2.189   4.252 -0.8288 -0.3663 -0.1113
  156MOL0     C21419   1.801   2.430   4.283 -0.7244  0.1670 -1.4628
  156MOL0     C21420   1.931   2.504   4.306 -0.7435 -0.7481  0.1549
  156MOL0     O21421   2.048   2.431   4.297  0.1633  0.2309 -0.2379
  156MOL0     C21422   2.163   2.508   4.305  0.1131  0.2463 -0.7478
  156MOL0     C21423   2.268   2.501   4.206 -0.2088  0.1840 -0.3461
  156MOL0     C21424   2.400   2.568   4.220  0.1495  0.7841 -0.3447
  156MOL0     C21425   2.426   2.652   4.335  0.4720 -0.2660  0.5746
  156MOL0     O21426   2.554   2.689   4.364  0.4049  0.5504  0.8262
  156MOL0     C21427   2.591   2.754   4.483  0.8756 -0.0475  0.7574
  156MOL0     C21428   2.738   2.801   4.493 -0.0053 -1.1350  0.8834
  156MOL0     C21429   2.794   2.871   4.369  0.1243  0.7517  0.0562
  156MOL0     C21430   2.829   2.767   4.255 -0.4007  0.3117 -0.3784
  156MOL0     C21431   2.893   2.828   4.126  0.1734  0.4442 -0.0473
  156MOL0     C21432   2.889   2.732   4.009  0.1221 -0.1911 -0.1251
  156MOL0     C21433   2.970   2.605   4.042  0.2631 -1.4863  0.0464
  156MOL0     C21434   3.030   2.542   3.910 -0.8380  0.4974  0.2101
  156MOL0    Cl21435   3.130   2.391   3.967  0.2937  0.2853  0.0499
  156MOL0     C21436   2.315   2.662   4.430 -0.1114  0.4199  0.5399
  156MOL0     C21437   2.193   2.594   4.415 -0.3279 -0.2209 -0.8980
  156MOL0     O21438   1.922   2.628   4.313  0.1567  0.6495  0.2009
  156MOL0     C21439   1.685   2.501   4.299  0.8250  0.3469 -0.1390
  156MOL0     C21440   1.564   2.437   4.296  0.3241  0.0010  0.1062
  156MOL0     N21441   1.534   1.740   3.868 -0.5202 -0.3508  0.1932
  156MOL0     N21442   1.523   1.619   3.813  0.0215 -0.6484  0.1135
  156MOL0     C21443   1.677   0.411   3.700  0.5655  0.8775  0.5193
  156MOL0     C21444   1.779   0.372   3.790 -0.4063 -0.3720 -0.9154
  156MOL0     C21445   1.962   0.367   4.205 -1.2378 -0.4046 -0.5073
  156MOL0     C21446   2.089   0.433   4.206  0.5356 -0.0171 -0.2198
  156MOL0     C21447   2.168   0.446   4.317  0.5149 -0.7652  1.1006
  156MOL0     C21448   2.138   0.369   4.433  0.0365  0.8753 -0.0451
  156MOL0     O21449   2.215   0.368   4.544 -0.6046 -0.3046 -0.1720
  156MOL0     C21450   2.345   0.436   4.529  1.0532  0.2446 -0.1516
  156MOL0     C21451   2.426   0.391   4.646 -1.0306 -0.3465  0.1839
  156MOL0     C21452   2.579   0.410   4.619 -0.4147 -0.0733 -0.4317
  156MOL0     C21453   2.651   0.448   4.746  0.4613  0.2702  0.0304
  156MOL0     C21454   2.609   0.570   4.823  0.0852 -0.2372 -0.3278
  156MOL0     C21455   2.581   0.657   4.913  1.0084 -0.5989  1.0130
  156MOL0     C21456   2.013   0.306   4.440  0.1712 -0.7402 -0.0829
  156MOL0     C21457   1.925   0.296   4.325  0.3368 -0.5800 -0.6482
  156MOL0     C21458   1.785   0.227   4.361  0.8715  0.9179 -0.3889
  156MOL0     H21459   1.813   0.681   3.922 -3.3308  0.6572  2.2837
  156MOL0     H21460   1.650   0.735   3.748 -0.8872 -1.2376 -3.1526
  156MOL0     H21461   1.506   0.661   3.404 -0.6743  0.3224  0.3393
  156MOL0     H21462   1.617   0.758   3.511  0.9984 -1.7104  2.3073
  156MOL0     H21463   1.325   0.709   3.561 -0.8683  0.4969  1.9814
  156MOL0     H21464   1.427   0.708   3.700 -0.0037 -4.0962 -1.1201
  156MOL0     H21465   1.518   0.944   3.549 -1.2366  0.6968  2.0768
  156MOL0     H21466   1.362   0.912   3.478  3.5751  1.3315 -2.1594
  156MOL0     H21467   1.254   0.984   3.666 -0.2923  2.6186  2.6202
  156MOL0     H21468   1.379   0.943   3.779 -1.5365  1.4037  0.2511
  156MOL0     H21469   1.409   1.168   3.582  3.0773 -0.3797 -0.5972
  156MOL0     H21470   1.518   1.127   3.720 -0.2372  3.9323  2.0457
  156MOL0     H21471   1.229   1.220   3.748 -0.0003  0.5107 -0.8319
  156MOL0     H21472   1.344   1.169   3.883 -0.3700 -2.5664 -1.0371
  156MOL0     H21473   1.290   1.407   3.854 -0.1118 -1.8249  0.1825
  156MOL0     H21474   1.388   1.413   3.709 -2.5564  2.6377  1.0795
  156MOL0     H21475   1.496   1.335   3.986  3.7971 -0.8712 -0.5041
  156MOL0     H21476   1.593   1.362   3.832  0.6520  1.2184  0.5103
  156MOL0     H21477   1.485   1.558   4.127 -2.0087  0.1299  0.1853
  156MOL0     H21478   1.582   1.897   4.097  1.0129 -1.8711 -1.0334
  156MOL0     H21479   1.465   1.810   4.199  2.3118  0.4350  0.1294
  156MOL0     H21480   1.323   1.926   3.969  2.7934 -1.6852 -0.4786
  156MOL0     H21481   1.275   1.890   4.130  0.3268 -1.3315 -0.0316
  156MOL0     H21482   1.471   2.112   4.050  0.5975  0.3001  1.1238
  156MOL0     H21483   1.285   2.137   4.062  0.4911  1.0885 -0.4606
  156MOL0     H21484   1.299   2.085   4.300  0.2009  0.3804  1.7877
  156MOL0     H21485   1.465   2.051   4.292 -3.4733 -1.8155 -0.0075
  156MOL0     H21486   1.645   2.121   4.242  0.3851  0.7479 -0.8714
  156MOL0     H21487   1.989   2.222   4.192 -1.5157 -1.1607 -1.5563
  156MOL0     H21488   1.872   2.101   4.195  1.7910 -1.9507  0.6810
  156MOL0     H21489   1.942   2.149   4.347 -1.6451 -4.2389 -1.2464
  156MOL0     H21490   2.241   2.432   4.128 -0.2675 -1.6521  1.2345
  156MOL0     H21491   2.479   2.544   4.150 -1.7750 -4.8131 -1.1668
  156MOL0     H21492   2.530   2.845   4.490 -0.8674 -0.8307 -2.5595
  156MOL0     H21493   2.563   2.686   4.564  0.6262 -1.4437 -0.4507
  156MOL0     H21494   2.738   2.874   4.574 -4.2783 -0.8109  0.7799
  156MOL0     H21495   2.810   2.723   4.522  2.6194  0.7048 -0.2365
  156MOL0     H21496   2.886   2.920   4.400  1.3450  0.0476 -2.2699
  156MOL0     H21497   2.727   2.946   4.327  3.2061  3.1869 -0.8359
  156MOL0     H21498   2.739   2.731   4.205 -0.2662 -0.6239  0.0342
  156MOL0     H21499   2.889   2.688   4.301  0.1179 -0.5485 -2.4103
  156MOL0     H21500   2.835   2.913   4.090 -3.2960 -1.5234  0.4960
  156MOL0     H21501   2.996   2.862   4.140  0.6342  0.4165 -2.8228
  156MOL0     H21502   2.924   2.779   3.916 -3.1592 -0.1089 -1.4678
  156MOL0     H21503   2.789   2.698   3.980 -0.1182  2.2317 -2.5724
  156MOL0     H21504   2.897   2.540   4.090 -2.1894  1.2222  0.2577
  156MOL0     H21505   3.059   2.620   4.105  1.4188  0.5896 -1.8994
  156MOL0     H21506   3.090   2.612   3.851  1.7487 -1.1589  0.7137
  156MOL0     H21507   2.961   2.505   3.834 -0.8398 -0.2251  0.5570
  156MOL0     H21508   2.340   2.704   4.526  4.2253 -2.2770  0.8422
  156MOL0     H21509   2.118   2.612   4.491 -0.0972  0.9195 -0.9169
  156MOL0     H21510   1.682   2.610   4.298 -2.1092  0.3478 -0.4668
  156MOL0     H21511   1.477   2.499   4.314  2.0661  2.3450  0.9422
  156MOL0     H21512   1.632   0.345   3.626 -1.2820  0.1775  2.2016
  156MOL0     H21513   1.802   0.267   3.790 -4.6108 -1.4965 -0.2249
  156MOL0     H21514   2.117   0.487   4.116 -0.2286  0.7262 -0.0163
  156MOL0     H21515   2.241   0.527   4.312 -0.5049  0.1357 -2.5395
  156MOL0     H21516   2.395   0.412   4.435 -1.9172 -1.4780 -1.4566
  156MOL0     H21517   2.328   0.544   4.534 -0.6590  0.0358 -0.8391
  156MOL0     H21518   2.403   0.284   4.649 -0.5202 -0.5242 -1.3425
  156MOL0     H21519   2.388   0.446   4.733 -1.6591 -0.0242 -0.2890
  156MOL0     H21520   2.618   0.319   4.571 -2.1099 -0.4948 -1.0934
  156MOL0     H21521   2.597   0.481   4.538  1.2768 -2.5857 -2.4477
  156MOL0     H21522   2.758   0.466   4.733  0.7498  2.3659  3.8187
  156MOL0     H21523   2.621   0.371   4.817  2.4200  1.6878  2.5892
  156MOL0     H21524   2.564   0.720   4.998 -2.3760  2.0818 -1.3604
  156MOL0     H21525   1.987   0.257   4.533 -1.7307 -1.9806 -1.1992
  156MOL0     H21526   1.758   0.157   4.282  3.6760 -1.0585  0.2710
  156MOL0     H21527   1.802   0.155   4.442  0.8180  1.5108  0.1579
  156MOL0     H21528   1.703   0.296   4.383 -0.2355 -0.6750  0.7148
  157MOL0     O21529   2.199  11.523   4.733 -0.1150 -0.0474  0.0091
  157MOL0     C21530   2.293  11.437   4.723 -0.2341 -0.5960 -0.4188
  157MOL0     O21531   2.316  11.327   4.805  0.1452 -0.4131  0.1379
  157MOL0     C21532   2.248  11.300   4.920 -0.3335  0.4126  0.2988
  157MOL0     C21533   2.180  11.389   4.999  0.7362 -0.0477 -0.5522
  157MOL0     C21534   2.094  11.350   5.107 -0.2042  0.1824  0.0072
  157MOL0     C21535   2.087  11.212   5.133  0.4315  0.5245  0.1947
  157MOL0     O21536   2.014  11.157   5.241 -0.4367 -0.1673  0.5755
  157MOL0     C21537   2.050  11.207   5.373  0.2710 -0.3555  0.4382
  157MOL0     C21538   1.980  11.124   5.482 -1.0208  0.2043 -0.4892
  157MOL0     C21539   1.992  11.184   5.618 -0.4646  0.1320  0.9738
  157MOL0     C21540   1.889  11.105   5.706 -0.3833 -0.0344 -0.3092
  157MOL0     C21541   1.795  11.194   5.791  0.8235 -0.2025 -0.0198
  157MOL0     C21542   1.709  11.281   5.709 -0.1919 -0.6156  0.1451
  157MOL0     C21543   1.582  11.202   5.658 -0.3906 -0.2857 -1.1053
  157MOL0     C21544   1.483  11.252   5.562  0.3493 -0.8139  0.0796
  157MOL0     N21545   1.553  11.308   5.447 -0.8730  1.0699  0.5689
  157MOL0     C21546   1.490  11.385   5.349 -0.3177  0.0863  0.4260
  157MOL0     C21547   1.595  11.424   5.266 -0.1321 -0.6293 -0.5967
  157MOL0     C21548   1.601  11.508   5.142  0.7511 -0.3885 -0.4786
  157MOL0     C21549   1.467  11.529   5.076 -0.5221 -0.3355  0.6837
  157MOL0     C21550   1.450  11.423   4.962 -0.0708 -0.2275  0.1996
  157MOL0     C21551   1.324  11.463   4.890  0.8022  1.0009  0.6766
  157MOL0     O21552   1.356  11.570   4.795 -0.3056 -0.1869 -0.9905
  157MOL0     C21553   1.275  11.604   4.689 -0.8166  0.5706 -0.3077
  157MOL0     C21554   1.338  11.677   4.578 -0.0648  0.1053 -0.3793
  157MOL0     C21555   1.261  11.712   4.467 -0.4065 -0.7630  1.1689
  157MOL0     C21556   1.333  11.818   4.372  0.1796  0.6438  0.4838
  157MOL0     C21557   1.136  11.656   4.451  0.0160 -0.0016  0.7573
  157MOL0     C21558   1.063  11.678   4.326 -0.4402 -0.0017  0.7551
  157MOL0     O21559   1.031  11.568   4.255 -0.2233  0.5914  0.3027
  157MOL0     C21560   0.995  11.576   4.122  0.9260 -0.2030  1.0960
  157MOL0     C21561   0.912  11.476   4.066  0.1487 -1.1795  0.2768
  157MOL0     C21562   0.870  11.468   3.929  0.4314  0.6567 -0.2727
  157MOL0     C21563   0.916  11.556   3.833 -1.0671 -0.3105 -0.0416
  157MOL0     O21564   0.888  11.537   3.704 -0.2616  1.0795 -0.1732
  157MOL0     C21565   0.780  11.618   3.655  0.6456  0.3309 -0.4802
  157MOL0     C21566   0.744  11.580   3.514  0.0311 -0.3056  0.8221
  157MOL0     C21567   0.738  11.427   3.481 -0.3835 -0.6915 -0.3369
  157MOL0     C21568   0.755  11.382   3.333 -0.3661  0.3267 -0.7274
  157MOL0     C21569   0.750  11.232   3.308  0.3842 -0.1267 -0.5328
  157MOL0     C21570   0.772  11.199   3.157  0.1056 -0.0037  0.3808
  157MOL0     C21571   0.644  11.200   3.077  0.5950 -0.4708 -0.5296
  157MOL0     C21572   0.666  11.145   2.930 -0.4512  0.1952 -1.3961
  157MOL0    Cl21573   0.548  11.222   2.815  0.0078  0.7806 -0.1041
  157MOL0     C21574   1.007  11.659   3.881 -0.7242 -0.1577 -0.0537
  157MOL0     C21575   1.035  11.672   4.020 -0.1429 -0.0352  0.3629
  157MOL0     O21576   1.024  11.797   4.301  0.0868  0.1153 -0.2539
  157MOL0     C21577   1.076  11.590   4.552 -0.7705  0.3369 -0.9362
  157MOL0     C21578   1.139  11.565   4.675 -0.3893  0.1277  0.0702
  157MOL0     N21579   1.710  11.355   5.307 -0.2003  0.0820 -0.2806
  157MOL0     N21580   1.681  11.276   5.408  0.5824  0.3561  0.7255
  157MOL0     C21581   2.148  11.120   5.051  1.0029  1.0945 -0.4909
  157MOL0     C21582   2.235  11.163   4.948 -0.1190 -0.1812  0.1035
  157MOL0     C21583   2.404  11.455   4.629 -0.2082  0.3016 -0.0932
  157MOL0     C21584   2.537  11.440   4.678 -0.1695 -0.7351 -0.0451
  157MOL0     C21585   2.653  11.478   4.613  0.1633 -0.4941  0.2404
  157MOL0     C21586   2.650  11.519   4.483 -0.0382  0.0896 -1.2624
  157MOL0     O21587   2.769  11.563   4.427  0.2276 -0.0320 -0.0100
  157MOL0     C21588   2.804  11.534   4.289  0.5808 -0.9461  0.8633
  157MOL0     C21589   2.944  11.478   4.285  0.0639  0.3171  0.1869
  157MOL0     C21590   2.976  11.421   4.132  0.5725  0.6594 -0.7115
  157MOL0     C21591   2.971  11.530   4.026 -0.2055  0.1157  0.4296
  157MOL0     C21592   2.847  11.543   3.951  0.2472 -0.1440 -0.5957
  157MOL0     C21593   2.736  11.541   3.891 -0.8530  0.4667 -0.1175
  157MOL0     C21594   2.523  11.534   4.427 -0.6632 -0.6765 -0.2623
  157MOL0     C21595   2.404  11.503   4.497  0.2614  0.0829  0.3162
  157MOL0     C21596   2.273  11.529   4.426 -0.1311  0.5038  0.4478
  157MOL0     H21597   2.222  11.489   4.985  0.0047  0.3110 -0.2376
  157MOL0     H21598   2.063  11.421   5.182  0.7696 -0.0855  0.6783
  157MOL0     H21599   2.015  11.310   5.380 -2.7991 -1.1794 -0.8910
  157MOL0     H21600   2.158  11.197   5.384  0.1564 -1.7836  0.4982
  157MOL0     H21601   1.877  11.123   5.445 -0.1543 -0.5714 -3.1048
  157MOL0     H21602   2.016  11.021   5.486  1.4234  1.0333  1.2510
  157MOL0     H21603   2.098  11.178   5.645 -0.2251  0.5801  0.1620
  157MOL0     H21604   1.983  11.293   5.611 -0.4375  0.0741 -4.1063
  157MOL0     H21605   1.825  11.050   5.637 -1.9215  1.6499 -0.3066
  157MOL0     H21606   1.944  11.041   5.775  1.6072  1.8829 -0.0200
  157MOL0     H21607   1.855  11.248   5.864 -1.7459 -0.3338  2.3620
  157MOL0     H21608   1.741  11.117   5.847  2.1083 -2.2246 -1.4087
  157MOL0     H21609   1.678  11.367   5.770  0.4115  0.2410 -0.7364
  157MOL0     H21610   1.775  11.334   5.641  1.1536 -1.4412  0.7776
  157MOL0     H21611   1.524  11.168   5.745  2.1372 -2.2682 -0.0427
  157MOL0     H21612   1.624  11.117   5.604 -0.1349  0.3492 -1.9184
  157MOL0     H21613   1.411  11.176   5.531 -1.8040  1.0533  0.1482
  157MOL0     H21614   1.432  11.333   5.616  4.8788  2.6476 -0.2462
  157MOL0     H21615   1.387  11.410   5.326  0.1599  2.0704  0.2516
  157MOL0     H21616   1.672  11.468   5.070 -0.1542  0.1737 -1.7237
  157MOL0     H21617   1.647  11.603   5.171  0.2579 -0.7459  1.6395
  157MOL0     H21618   1.388  11.536   5.151  0.9229 -0.0384  2.2415
  157MOL0     H21619   1.465  11.624   5.023  4.1900 -1.2975 -1.7888
  157MOL0     H21620   1.538  11.430   4.897 -1.3661 -2.7143 -2.0554
  157MOL0     H21621   1.454  11.320   5.000 -1.1863 -0.4373 -0.1867
  157MOL0     H21622   1.284  11.373   4.844  0.2305  2.0215 -0.8978
  157MOL0     H21623   1.250  11.497   4.963 -0.9283  0.4742 -0.7591
  157MOL0     H21624   1.444  11.689   4.599 -0.3511 -0.2092  1.3562
  157MOL0     H21625   1.259  11.877   4.317  0.4795  0.0913 -0.5283
  157MOL0     H21626   1.380  11.761   4.292  0.7933  3.6497 -1.4311
  157MOL0     H21627   1.401  11.880   4.430  2.4911 -0.6271 -0.7482
  157MOL0     H21628   0.875  11.395   4.127 -0.4452 -0.0708  1.4261
  157MOL0     H21629   0.817  11.384   3.885  1.9716  0.7993 -2.5280
  157MOL0     H21630   0.696  11.600   3.722  0.4664  1.9210 -0.2330
  157MOL0     H21631   0.809  11.724   3.655 -1.9364  1.1282 -2.0267
  157MOL0     H21632   0.652  11.630   3.483  2.5279  3.3790 -1.4319
  157MOL0     H21633   0.817  11.623   3.445 -1.6441  0.1566 -0.7527
  157MOL0     H21634   0.642  11.388   3.515  0.8889 -0.2330  4.4845
  157MOL0     H21635   0.816  11.385   3.545  0.8067  0.2134 -1.1537
  157MOL0     H21636   0.854  11.412   3.296  1.3883 -1.0872  2.3902
  157MOL0     H21637   0.682  11.440   3.276  2.2004  2.5067 -2.0311
  157MOL0     H21638   0.820  11.170   3.365 -1.3083 -1.9668 -0.3428
  157MOL0     H21639   0.652  11.200   3.344  0.4571  2.2181  2.1716
  157MOL0     H21640   0.796  11.093   3.147  2.5359  0.6314 -1.7535
  157MOL0     H21641   0.857  11.246   3.106  0.7777 -1.6770 -0.1039
  157MOL0     H21642   0.610  11.303   3.070  0.8889 -0.1841  1.6630
  157MOL0     H21643   0.565  11.137   3.119  1.4844 -1.3720 -0.1419
  157MOL0     H21644   0.663  11.036   2.920 -2.5823  0.1405 -0.7406
  157MOL0     H21645   0.763  11.182   2.895  0.6997  1.1705  2.2815
  157MOL0     H21646   1.044  11.739   3.818 -2.4263  2.0815  1.6312
  157MOL0     H21647   1.098  11.754   4.052  1.1210 -1.0024  0.4530
  157MOL0     H21648   0.970  11.568   4.540 -0.9208 -1.3162  2.2624
  157MOL0     H21649   1.091  11.509   4.755  0.4466 -0.6340  0.0575
  157MOL0     H21650   2.128  11.015   5.066 -0.2958  1.3715 -0.1614
  157MOL0     H21651   2.293  11.091   4.891 -4.7588 -1.3485 -3.8495
  157MOL0     H21652   2.561  11.408   4.778 -3.6481  0.6690  1.3949
  157MOL0     H21653   2.747  11.465   4.666  1.7508  0.5776 -2.1243
  157MOL0     H21654   2.727  11.466   4.250  1.4478 -0.9721 -0.8809
  157MOL0     H21655   2.806  11.630   4.238  2.8495 -0.9344  0.8989
  157MOL0     H21656   2.949  11.390   4.350 -2.1538 -2.7174 -3.3725
  157MOL0     H21657   3.022  11.551   4.305  0.1914 -0.3558  2.5401
  157MOL0     H21658   3.075  11.375   4.128  0.0044 -0.6795  0.1306
  157MOL0     H21659   2.918  11.330   4.118  1.8292 -1.0340  3.5814
  157MOL0     H21660   3.050  11.503   3.956 -1.2220  0.1400 -0.7539
  157MOL0     H21661   2.994  11.630   4.066 -0.4744  0.3186  0.0875
  157MOL0     H21662   2.653  11.528   3.824  2.3088 -0.1896 -4.4285
  157MOL0     H21663   2.521  11.567   4.323  0.3026  2.0150  0.4963
  157MOL0     H21664   2.239  11.632   4.443  0.7340  1.1956 -1.6597
  157MOL0     H21665   2.272  11.500   4.320 -2.7536  0.4706  0.4071
  157MOL0     H21666   2.191  11.480   4.479  0.0115  1.1710  1.3033
  158MOL0     O21667   8.996   0.076   0.542 -0.3112  0.1764  0.5408
  158MOL0     C21668   8.991  -0.047   0.513 -0.4420  0.4661 -0.3234
  158MOL0     O21669   8.957  -0.093   0.390  0.3716 -0.4358 -1.1186
  158MOL0     C21670   8.896  -0.004   0.304 -0.1185  0.4678 -0.0873
  158MOL0     C21671   8.786   0.067   0.339 -0.3417 -0.0266 -0.0697
  158MOL0     C21672   8.720   0.157   0.256  0.5971  0.1562  1.1961
  158MOL0     C21673   8.766   0.175   0.125 -0.3843  0.0030  0.8814
  158MOL0     O21674   8.708   0.262   0.044  0.2955 -0.6768  1.0592
  158MOL0     C21675   8.787   0.305  -0.075 -0.3976 -0.5016  0.0707
  158MOL0     C21676   8.715   0.429  -0.135 -0.9412 -0.7107  0.0301
  158MOL0     C21677   8.740   0.550  -0.034 -1.0419  0.0246 -0.0364
  158MOL0     C21678   8.679   0.681  -0.090  0.1775 -0.2471  1.2313
  158MOL0     C21679   8.550   0.740  -0.027  0.5101  0.8090 -0.0420
  158MOL0     C21680   8.571   0.823   0.102  0.3569 -0.1990 -0.4085
  158MOL0     C21681   8.434   0.846   0.179  0.2781 -0.4109  0.1729
  158MOL0     C21682   8.434   0.904   0.319 -0.0971  0.5731  0.3262
  158MOL0     N21683   8.304   0.893   0.389  0.6111  0.4430  0.8274
  158MOL0     C21684   8.285   0.815   0.495 -0.2292  0.6164  0.5032
  158MOL0     C21685   8.152   0.824   0.526 -0.0600  1.2064  0.3545
  158MOL0     C21686   8.106   0.765   0.661 -0.7706 -0.4040 -0.2040
  158MOL0     C21687   8.042   0.626   0.644 -0.0236  0.2717 -0.6153
  158MOL0     C21688   8.028   0.546   0.769  0.4923  0.1370 -0.5713
  158MOL0     C21689   7.928   0.614   0.873 -0.8579  0.7677  0.3138
  158MOL0     O21690   7.919   0.516   0.986  0.4523 -0.0054  0.2964
  158MOL0     C21691   7.794   0.499   1.042 -0.3500 -0.5804 -0.2170
  158MOL0     C21692   7.781   0.387   1.118  0.3445  0.3707 -0.0777
  158MOL0     C21693   7.660   0.347   1.180 -0.2750 -0.3444 -0.3662
  158MOL0     C21694   7.666   0.210   1.262 -0.0459  0.7230  0.4019
  158MOL0     C21695   7.545   0.437   1.173 -0.2931  0.9716  0.0777
  158MOL0     C21696   7.419   0.417   1.246  0.2084 -0.2579 -0.7653
  158MOL0     O21697   7.325   0.515   1.242 -0.3070 -0.3601  0.4004
  158MOL0     C21698   7.201   0.476   1.283 -0.0649 -0.5335  0.0979
  158MOL0     C21699   7.171   0.509   1.414 -0.5300  0.1722  0.4657
  158MOL0     C21700   7.043   0.479   1.473  0.0876  0.0931  0.1400
  158MOL0     C21701   6.951   0.405   1.391 -0.2205  0.1807 -0.2815
  158MOL0     O21702   6.828   0.387   1.455 -0.0313 -0.1625  0.7418
  158MOL0     C21703   6.719   0.390   1.366  0.1503  1.0557 -0.0482
  158MOL0     C21704   6.589   0.418   1.422  1.1035 -1.2132 -0.9668
  158MOL0     C21705   6.560   0.567   1.463 -0.2892 -0.5117 -0.5663
  158MOL0     C21706   6.416   0.626   1.447 -1.0198 -0.6778  0.3851
  158MOL0     C21707   6.332   0.570   1.570 -0.1995 -0.2807 -0.0676
  158MOL0     C21708   6.180   0.579   1.547 -0.1858 -0.5191 -0.2188
  158MOL0     C21709   6.113   0.562   1.411 -0.3770  0.1983 -0.6834
  158MOL0     C21710   5.968   0.560   1.422  1.0748 -1.4891 -0.6783
  158MOL0    Cl21711   5.909   0.725   1.456 -0.2397 -0.0597 -0.1376
  158MOL0     C21712   6.982   0.370   1.255 -0.1124 -0.6645  0.4762
  158MOL0     C21713   7.113   0.405   1.202 -0.4422  0.2024 -0.1672
  158MOL0     O21714   7.402   0.314   1.312 -0.5863 -0.1371  0.2260
  158MOL0     C21715   7.567   0.561   1.098 -0.1814  1.4220  0.3306
  158MOL0     C21716   7.685   0.586   1.035 -0.8597  0.4397 -0.4912
  158MOL0     N21717   8.089   0.907   0.434 -1.2572 -0.8133 -0.4553
  158MOL0     N21718   8.179   0.957   0.357 -0.7050 -0.5903 -0.0822
  158MOL0     C21719   8.872   0.089   0.081 -0.5810  0.2282 -0.4675
  158MOL0     C21720   8.932  -0.008   0.159  0.3518  0.6154  0.3574
  158MOL0     C21721   9.004  -0.141   0.629 -0.3069 -0.8460 -0.9234
  158MOL0     C21722   9.039  -0.092   0.757 -0.1576 -0.4754 -0.3628
  158MOL0     C21723   9.069  -0.184   0.862  0.5588 -0.7742 -0.1589
  158MOL0     C21724   9.069  -0.328   0.842  0.2467 -0.0227  0.3332
  158MOL0     O21725   9.104  -0.417   0.938  0.1606  0.0649 -0.2313
  158MOL0     C21726   8.992  -0.495   0.971 -0.1231 -0.1152  0.0917
  158MOL0     C21727   8.971  -0.505   1.126  1.1754 -0.0950 -0.1979
  158MOL0     C21728   8.861  -0.417   1.193  0.3448 -0.1536 -0.2624
  158MOL0     C21729   8.890  -0.273   1.175  0.0235  0.3564  0.8250
  158MOL0     C21730   8.807  -0.200   1.275 -0.5660  0.7547 -0.4617
  158MOL0     C21731   8.752  -0.142   1.362 -0.6193 -0.1718 -0.0854
  158MOL0     C21732   9.033  -0.367   0.717  0.2706  0.2734 -0.2882
  158MOL0     C21733   8.989  -0.281   0.614 -0.6013  0.6384  0.5116
  158MOL0     C21734   8.949  -0.351   0.484  0.9561  0.0212 -1.2920
  158MOL0     H21735   8.742   0.055   0.437  1.5275  1.2256  0.9825
  158MOL0     H21736   8.628   0.202   0.293  0.9277  0.2447  1.9287
  158MOL0     H21737   8.786   0.219  -0.142  0.8206 -2.7163  2.6819
  158MOL0     H21738   8.886   0.334  -0.038 -1.5432  1.3548  1.9109
  158MOL0     H21739   8.758   0.447  -0.234 -0.3666 -0.8430  0.2527
  158MOL0     H21740   8.608   0.422  -0.155 -0.3585 -3.2229 -2.8892
  158MOL0     H21741   8.681   0.528   0.056 -0.1836 -1.3052  0.2343
  158MOL0     H21742   8.843   0.552   0.003 -1.3784 -4.0447  1.6809
  158MOL0     H21743   8.749   0.765  -0.076 -1.2902  1.2475  0.0217
  158MOL0     H21744   8.655   0.656  -0.194 -3.4028  0.2539  1.8257
  158MOL0     H21745   8.488   0.654   0.002  0.1229  1.6544  1.7855
  158MOL0     H21746   8.487   0.789  -0.102 -0.7556  0.1169  0.5330
  158MOL0     H21747   8.643   0.773   0.167 -0.4918 -1.3120 -0.2844
  158MOL0     H21748   8.616   0.918   0.071 -1.5536  0.8922 -0.0031
  158MOL0     H21749   8.380   0.751   0.182 -2.0327  0.7799 -1.4496
  158MOL0     H21750   8.366   0.910   0.122 -0.3532 -2.2965 -1.2958
  158MOL0     H21751   8.499   0.835   0.373 -1.4462 -1.7787 -0.8959
  158MOL0     H21752   8.469   1.008   0.317  0.4177  0.3992  0.2969
  158MOL0     H21753   8.366   0.770   0.551 -0.3597  1.6163  1.5205
  158MOL0     H21754   8.032   0.832   0.706  0.7609  0.6278  0.8583
  158MOL0     H21755   8.198   0.748   0.717 -1.2575 -0.6569  0.5242
  158MOL0     H21756   7.941   0.625   0.603 -0.2258  0.1690 -0.1198
  158MOL0     H21757   8.109   0.570   0.578  1.4313  0.4152  0.6861
  158MOL0     H21758   7.982   0.448   0.751 -0.8222  0.6043  0.0693
  158MOL0     H21759   8.128   0.518   0.802 -0.1329 -0.6283  0.7749
  158MOL0     H21760   7.972   0.709   0.902  0.4405 -0.0435  1.0985
  158MOL0     H21761   7.834   0.633   0.820  0.7151 -0.7347 -3.3264
  158MOL0     H21762   7.868   0.325   1.138  0.2041 -0.2049 -1.1472
  158MOL0     H21763   7.677   0.236   1.368  1.8334 -0.3981  0.5165
  158MOL0     H21764   7.748   0.150   1.223  0.7828  0.0875  2.9489
  158MOL0     H21765   7.576   0.148   1.249  0.6444  0.0653 -1.6456
  158MOL0     H21766   7.245   0.560   1.475 -0.6043 -0.7717  1.3857
  158MOL0     H21767   7.018   0.501   1.577  1.8082  2.2888  0.1781
  158MOL0     H21768   6.727   0.462   1.284 -2.6586  1.4528 -0.0807
  158MOL0     H21769   6.707   0.293   1.317 -1.5761  0.7449  0.9343
  158MOL0     H21770   6.507   0.399   1.352 -2.0434  0.7979  1.8688
  158MOL0     H21771   6.563   0.354   1.507 -1.8257  0.2725 -0.6282
  158MOL0     H21772   6.605   0.621   1.379 -0.1397 -0.4254 -0.4305
  158MOL0     H21773   6.599   0.597   1.561 -3.5882  2.3628  0.0658
  158MOL0     H21774   6.380   0.597   1.348 -1.6514 -4.2173  1.5135
  158MOL0     H21775   6.425   0.735   1.451 -0.5569 -0.7524  1.8396
  158MOL0     H21776   6.370   0.467   1.568  1.8693  0.4328  0.2955
  158MOL0     H21777   6.360   0.626   1.659  0.4695  4.2517 -2.8012
  158MOL0     H21778   6.153   0.673   1.597 -0.0929 -2.1391  3.1713
  158MOL0     H21779   6.144   0.501   1.615  1.9563 -0.7844  0.7110
  158MOL0     H21780   6.136   0.463   1.368 -2.2862 -0.9124  0.6689
  158MOL0     H21781   6.143   0.632   1.332  0.1303 -0.3443 -0.9819
  158MOL0     H21782   5.938   0.494   1.504  0.6844 -1.0575 -0.4689
  158MOL0     H21783   5.930   0.516   1.329 -0.3920 -1.4071 -0.1336
  158MOL0     H21784   6.914   0.306   1.201  0.2579 -0.6592 -0.0084
  158MOL0     H21785   7.157   0.366   1.111  0.1585 -1.1785  0.6810
  158MOL0     H21786   7.490   0.631   1.067 -0.7227  1.7638  2.2905
  158MOL0     H21787   7.686   0.686   0.995  1.2275  0.9543  0.6515
  158MOL0     H21788   8.914   0.094  -0.019  0.1414 -1.2335 -0.2640
  158MOL0     H21789   9.007  -0.078   0.124  1.1705  1.8333 -0.4058
  158MOL0     H21790   9.051   0.016   0.770 -0.6757 -0.0990 -2.6962
  158MOL0     H21791   9.098  -0.156   0.963  2.1436 -0.8057 -0.5773
  158MOL0     H21792   8.896  -0.459   0.931 -1.5799 -4.3095 -0.7208
  158MOL0     H21793   9.006  -0.597   0.935 -0.7143  0.0989 -0.7719
  158MOL0     H21794   9.066  -0.478   1.175  1.9628 -0.0521 -1.7012
  158MOL0     H21795   8.937  -0.607   1.140  1.1720 -0.2960 -1.5536
  158MOL0     H21796   8.761  -0.453   1.169  0.0641 -0.8943  1.8012
  158MOL0     H21797   8.868  -0.440   1.300  2.0442  1.6007  0.0634
  158MOL0     H21798   8.863  -0.242   1.073  2.2491  1.7681  0.5961
  158MOL0     H21799   8.996  -0.249   1.186  0.5240  0.6685 -3.2163
  158MOL0     H21800   8.701  -0.098   1.446 -0.3506  1.0316 -0.5350
  158MOL0     H21801   9.025  -0.475   0.709 -4.8340  0.2712  1.1736
  158MOL0     H21802   9.032  -0.340   0.414  2.4171 -0.0317  0.3608
  158MOL0     H21803   8.936  -0.458   0.505  1.7624  0.0580 -0.5145
  158MOL0     H21804   8.854  -0.313   0.446 -1.8428 -3.3577  1.5923
  159MOL0     O21805   6.110   3.066   7.038  0.8016 -1.3549  0.0970
  159MOL0     C21806   5.998   3.020   7.065  0.7719  0.0272 -0.3955
  159MOL0     O21807   5.959   3.001   7.194 -0.0424 -0.2467  0.6983
  159MOL0     C21808   6.042   3.005   7.297 -0.1875  1.0404 -0.3875
  159MOL0     C21809   5.996   2.915   7.401  0.4967 -0.4545  0.3800
  159MOL0     C21810   6.065   2.905   7.515 -0.5670  1.2781  0.1937
  159MOL0     C21811   6.191   2.969   7.527 -0.6331 -0.8536 -0.3478
  159MOL0     O21812   6.278   2.948   7.628  0.0954 -0.4269 -0.2642
  159MOL0     C21813   6.257   2.852   7.730  0.3681  0.4383 -0.9802
  159MOL0     C21814   6.397   2.846   7.812 -0.2567 -0.7199 -0.1291
  159MOL0     C21815   6.415   2.962   7.916 -0.3451  0.5634 -0.1753
  159MOL0     C21816   6.496   2.923   8.048  0.3024  0.8698  0.0742
  159MOL0     C21817   6.537   3.045   8.134 -0.3298 -1.1444  0.6762
  159MOL0     C21818   6.535   3.014   8.285  0.1647  0.0921  0.5597
  159MOL0     C21819   6.629   3.109   8.372 -0.1916  0.7436  0.1741
  159MOL0     C21820   6.605   3.258   8.356 -0.9242  0.5197  0.2658
  159MOL0     N21821   6.496   3.296   8.449 -1.0709 -0.1593  0.0917
  159MOL0     C21822   6.507   3.329   8.581 -0.6475 -0.1411 -1.2074
  159MOL0     C21823   6.404   3.410   8.605 -0.1587  0.2689 -0.2872
  159MOL0     C21824   6.359   3.491   8.721  0.8561  0.3134 -0.0346
  159MOL0     C21825   6.247   3.434   8.806 -0.1333  0.6773  0.6874
  159MOL0     C21826   6.256   3.279   8.855 -0.2509  0.0365 -0.2641
  159MOL0     C21827   6.128   3.217   8.891  0.3187  0.2695  0.1781
  159MOL0     O21828   6.056   3.192   8.769  0.2243 -0.4288  0.3152
  159MOL0     C21829   5.921   3.231   8.759 -0.4387  0.4387  0.7589
  159MOL0     C21830   5.827   3.192   8.853 -0.2193  1.0724 -0.6845
  159MOL0     C21831   5.705   3.249   8.861  0.9775 -0.3520  1.0764
  159MOL0     C21832   5.613   3.204   8.975 -0.7187 -0.5822 -0.2623
  159MOL0     C21833   5.666   3.359   8.763 -0.8199  0.8049 -0.3537
  159MOL0     C21834   5.535   3.423   8.763  0.1840  0.1399 -0.1242
  159MOL0     O21835   5.424   3.375   8.841 -0.4322 -0.0896  0.0993
  159MOL0     C21836   5.304   3.432   8.840 -0.3537  0.7611  0.8974
  159MOL0     C21837   5.237   3.454   8.964 -0.1452 -0.0427  0.2920
  159MOL0     C21838   5.118   3.522   8.966 -0.4997 -0.3146  0.5356
  159MOL0     C21839   5.070   3.586   8.848 -0.4543 -0.4286 -0.0927
  159MOL0     O21840   4.952   3.648   8.866  1.1577  0.0414  0.2879
  159MOL0     C21841   4.939   3.789   8.850  0.2371 -0.7190  0.2831
  159MOL0     C21842   4.821   3.805   8.765  0.1035 -0.2047  0.2531
  159MOL0     C21843   4.805   3.944   8.716 -1.5873 -0.1492 -0.1600
  159MOL0     C21844   4.660   3.988   8.716 -0.4460 -0.5993 -0.6084
  159MOL0     C21845   4.636   4.136   8.690  0.1616 -0.1371 -0.4597
  159MOL0     C21846   4.706   4.226   8.797  0.6056  0.4274  0.0606
  159MOL0     C21847   4.667   4.376   8.782  0.2570 -0.1793 -0.0923
  159MOL0     C21848   4.716   4.465   8.898  0.8423 -0.3807  0.3803
  159MOL0    Cl21849   4.731   4.641   8.862 -0.1225  0.0584 -0.1349
  159MOL0     C21850   5.128   3.567   8.730 -0.1042 -0.7476  0.3634
  159MOL0     C21851   5.237   3.480   8.717  0.5513 -0.9535 -0.0448
  159MOL0     O21852   5.537   3.514   8.684  0.7862  0.3365 -0.9918
  159MOL0     C21853   5.764   3.382   8.668  0.3558  0.8935 -0.8081
  159MOL0     C21854   5.884   3.311   8.656  0.7334 -0.5703  1.0823
  159MOL0     N21855   6.332   3.428   8.491  0.3809  0.4828  0.4568
  159MOL0     N21856   6.381   3.350   8.391  0.4086  0.1280  0.1141
  159MOL0     C21857   6.233   3.064   7.430  0.6676 -0.6271  0.2969
  159MOL0     C21858   6.155   3.093   7.321 -0.4114  0.1085  0.3142
  159MOL0     C21859   5.904   2.986   6.958 -0.0443 -0.0049 -0.5133
  159MOL0     C21860   5.774   2.931   6.988  0.1133  0.7253  0.0060
  159MOL0     C21861   5.678   2.919   6.888 -0.4497  0.3263 -1.3582
  159MOL0     C21862   5.707   2.937   6.753 -0.4921 -0.4773  0.3393
  159MOL0     O21863   5.591   2.913   6.668 -0.7657  0.5458 -0.0215
  159MOL0     C21864   5.628   2.894   6.530 -0.0695  0.2726 -0.3623
  159MOL0     C21865   5.494   2.862   6.450 -0.2188  0.0100 -0.3264
  159MOL0     C21866   5.491   2.782   6.326 -0.1736 -0.1932  0.0329
  159MOL0     C21867   5.612   2.806   6.236  0.4262 -0.4911 -0.1004
  159MOL0     C21868   5.582   2.730   6.113 -1.0940  0.0550  0.2510
  159MOL0     C21869   5.572   2.678   6.000 -0.1172 -0.0955  0.4702
  159MOL0     C21870   5.832   2.981   6.716 -0.4023  0.4847  0.0416
  159MOL0     C21871   5.932   3.004   6.816 -0.7719 -0.7172 -0.5985
  159MOL0     C21872   6.070   3.062   6.760 -1.1328 -0.9130  0.5298
  159MOL0     H21873   5.904   2.861   7.384 -0.1351  0.9637 -1.0199
  159MOL0     H21874   6.046   2.827   7.588  3.8064  1.2232  1.5537
  159MOL0     H21875   6.246   2.749   7.695  2.3295  0.5404 -2.0330
  159MOL0     H21876   6.177   2.879   7.799  0.7052  0.1899 -0.4817
  159MOL0     H21877   6.400   2.757   7.875 -1.7572 -1.0315 -0.4733
  159MOL0     H21878   6.480   2.840   7.741 -0.6699 -1.7222 -0.5477
  159MOL0     H21879   6.460   3.045   7.861  0.9937  1.1336  1.6961
  159MOL0     H21880   6.315   2.996   7.944 -1.5035  0.1867 -3.4327
  159MOL0     H21881   6.421   2.873   8.111  2.1901 -1.7555  0.4292
  159MOL0     H21882   6.577   2.850   8.039 -2.6938 -2.7497 -0.4718
  159MOL0     H21883   6.456   3.115   8.112 -1.6460 -2.5563  0.8857
  159MOL0     H21884   6.627   3.092   8.094  1.9642 -3.0630  3.2366
  159MOL0     H21885   6.435   3.039   8.323 -0.9442  0.8618 -2.5981
  159MOL0     H21886   6.561   2.911   8.310 -2.5290 -0.6110  0.8107
  159MOL0     H21887   6.732   3.084   8.342 -0.6928 -0.6042 -0.5319
  159MOL0     H21888   6.622   3.083   8.478  1.8584  3.3212  1.0550
  159MOL0     H21889   6.692   3.320   8.376  0.2445 -0.5478 -1.2216
  159MOL0     H21890   6.584   3.271   8.249  0.5458 -1.6911 -0.3811
  159MOL0     H21891   6.581   3.302   8.656 -2.6226  1.0725  1.3499
  159MOL0     H21892   6.320   3.587   8.686 -0.2394  0.6269  1.9517
  159MOL0     H21893   6.448   3.524   8.774 -1.3661  2.1079  2.8984
  159MOL0     H21894   6.234   3.493   8.897  0.9834 -3.5559  3.8923
  159MOL0     H21895   6.152   3.437   8.752  0.0477 -2.2599  0.0420
  159MOL0     H21896   6.306   3.216   8.781  0.9853  2.0155 -1.1882
  159MOL0     H21897   6.317   3.285   8.945  1.5067 -0.0397 -1.4017
  159MOL0     H21898   6.139   3.118   8.936  0.9897 -0.8392 -2.2708
  159MOL0     H21899   6.074   3.277   8.964 -0.6249  0.7523 -0.8905
  159MOL0     H21900   5.857   3.126   8.934 -3.1088  1.8239  1.1603
  159MOL0     H21901   5.674   3.137   9.038  0.5345 -0.1243 -0.9509
  159MOL0     H21902   5.523   3.161   8.930 -1.9352  2.9869 -1.5802
  159MOL0     H21903   5.595   3.290   9.039 -1.8877 -1.4993  0.6969
  159MOL0     H21904   5.283   3.410   9.052 -0.8923 -0.8910  0.2650
  159MOL0     H21905   5.058   3.528   9.056  1.3202 -0.4339  1.8141
  159MOL0     H21906   4.937   3.846   8.944  1.7711  3.4162 -1.8901
  159MOL0     H21907   5.022   3.828   8.789  1.5453 -2.5560  0.8181
  159MOL0     H21908   4.829   3.740   8.677 -1.4996 -0.4003  0.2236
  159MOL0     H21909   4.730   3.778   8.820 -0.1419  1.0570  0.4903
  159MOL0     H21910   4.843   3.949   8.614  2.3763  1.1946  1.2012
  159MOL0     H21911   4.862   4.013   8.779 -2.2512 -0.5957  0.9728
  159MOL0     H21912   4.629   3.983   8.821 -0.3857  1.4451 -0.4513
  159MOL0     H21913   4.590   3.931   8.654 -2.6433 -2.6708  3.3620
  159MOL0     H21914   4.665   4.160   8.587 -0.8361 -1.7755 -1.1758
  159MOL0     H21915   4.529   4.154   8.706  0.9034  4.0428  0.9219
  159MOL0     H21916   4.811   4.224   8.768  0.5294  2.8395 -0.5826
  159MOL0     H21917   4.695   4.188   8.899 -1.0060  1.3038  0.2444
  159MOL0     H21918   4.559   4.384   8.765  0.3735 -0.9766 -1.2886
  159MOL0     H21919   4.706   4.417   8.689 -1.8853 -0.7199 -1.3038
  159MOL0     H21920   4.816   4.427   8.922  0.1869 -2.4942  0.0064
  159MOL0     H21921   4.655   4.448   8.987 -0.1435  3.7057  0.6866
  159MOL0     H21922   5.088   3.617   8.642  3.1335  3.7308  1.0360
  159MOL0     H21923   5.276   3.459   8.618  1.6773 -3.4933  0.8482
  159MOL0     H21924   5.747   3.441   8.578  2.8032  1.2886 -1.0939
  159MOL0     H21925   5.950   3.353   8.581  1.2396  1.3257  2.4771
  159MOL0     H21926   6.327   3.118   7.440  1.8336 -2.6515  0.8839
  159MOL0     H21927   6.174   3.176   7.254 -0.3265  0.9647  1.3734
  159MOL0     H21928   5.742   2.900   7.086 -1.1473 -1.3558 -0.9866
  159MOL0     H21929   5.588   2.878   6.933  0.1873  0.3532 -0.0396
  159MOL0     H21930   5.673   2.978   6.476 -0.2743 -0.9486 -2.5555
  159MOL0     H21931   5.701   2.815   6.510  0.6401  1.1699 -1.3964
  159MOL0     H21932   5.431   2.951   6.437 -0.9216 -0.5071 -0.5117
  159MOL0     H21933   5.450   2.790   6.520  0.0638  1.6533  1.6483
  159MOL0     H21934   5.489   2.675   6.348 -1.3779 -0.3369 -0.6735
  159MOL0     H21935   5.400   2.801   6.268 -1.8049 -1.2316  2.1302
  159MOL0     H21936   5.702   2.774   6.289 -0.7250  0.0101  2.3219
  159MOL0     H21937   5.621   2.913   6.216  3.4894 -1.0918 -2.8188
  159MOL0     H21938   5.556   2.659   5.895 -1.2807 -2.0954  0.9517
  159MOL0     H21939   5.849   3.020   6.616 -2.4394 -1.0851 -0.9770
  159MOL0     H21940   6.054   3.170   6.769 -1.9366 -0.9908  0.1330
  159MOL0     H21941   6.149   3.015   6.820 -0.9249  0.3930  1.3150
  159MOL0     H21942   6.086   3.048   6.653  0.8574  0.4435  0.5873
  160MOL0     O21943   0.343   8.304   1.464  0.6675 -0.8167 -0.3047
  160MOL0     C21944   0.335   8.239   1.366 -0.5042  0.6127 -0.0576
  160MOL0     O21945   0.395   8.274   1.244 -0.6695 -0.1525 -0.7408
  160MOL0     C21946   0.430   8.407   1.231 -0.3100  0.1523 -1.0134
  160MOL0     C21947   0.376   8.479   1.127  0.7618 -0.1019 -0.6252
  160MOL0     C21948   0.410   8.610   1.105  0.4187  0.1126  0.2888
  160MOL0     C21949   0.502   8.679   1.186 -0.5452 -0.2101 -0.1038
  160MOL0     O21950   0.536   8.814   1.163 -0.1983  0.9432 -0.6682
  160MOL0     C21951   0.552   8.855   1.027  0.1225 -0.7761 -0.1519
  160MOL0     C21952   0.653   8.973   1.022  0.0131  0.5351 -0.2004
  160MOL0     C21953   0.803   8.930   1.062 -1.2811  0.6817 -0.5198
  160MOL0     C21954   0.907   8.945   0.949  0.6161 -0.4968 -0.0999
  160MOL0     C21955   1.047   8.932   1.001  0.5724 -0.0340  0.0175
  160MOL0     C21956   1.161   8.943   0.889  1.1110  0.5727  0.1298
  160MOL0     C21957   1.164   8.816   0.793  0.0141 -0.6898  0.4283
  160MOL0     C21958   1.274   8.836   0.675 -0.5912 -1.4041 -0.5180
  160MOL0     N21959   1.257   8.965   0.608  0.2487 -0.6162  0.2438
  160MOL0     C21960   1.333   9.083   0.642 -0.5402 -0.0981  0.0058
  160MOL0     C21961   1.315   9.168   0.537  0.4402  0.6689  0.7939
  160MOL0     C21962   1.381   9.301   0.497  0.9957  0.0626  0.5234
  160MOL0     C21963   1.416   9.315   0.343  0.7513 -0.1287  0.3304
  160MOL0     C21964   1.470   9.450   0.305 -0.4997 -0.2471 -0.3396
  160MOL0     C21965   1.465   9.457   0.159 -0.0765  0.1020  0.1628
  160MOL0     O21966   1.471   9.596   0.121  0.3757 -0.0603 -0.5477
  160MOL0     C21967   1.414   9.626   0.006 -0.0119  0.9163  0.7431
  160MOL0     C21968   1.284   9.671   0.012  0.7821 -1.2581  0.8011
  160MOL0     C21969   1.218   9.738  -0.100 -0.5910 -0.2544  0.2493
  160MOL0     C21970   1.084   9.815  -0.071 -1.0216 -0.7198 -0.3314
  160MOL0     C21971   1.285   9.728  -0.224  0.1988  0.6730  0.4198
  160MOL0     C21972   1.226   9.786  -0.349 -0.1229  0.3435 -0.2870
  160MOL0     O21973   1.313   9.851  -0.430 -1.3872 -0.3725 -0.1931
  160MOL0     C21974   1.267   9.891  -0.545  0.2097  0.4794 -0.3383
  160MOL0     C21975   1.310   9.824  -0.657  0.5533  0.5123  0.4188
  160MOL0     C21976   1.238   9.848  -0.778  0.9861 -0.1004 -0.0529
  160MOL0     C21977   1.138   9.943  -0.788  0.7487 -0.2254 -0.3618
  160MOL0     O21978   1.073   9.953  -0.907  0.0927 -0.1323  0.3561
  160MOL0     C21979   0.937   9.992  -0.902  0.4432  0.0095 -0.2735
  160MOL0     C21980   0.870   9.918  -1.013  0.1185  0.5748 -0.0110
  160MOL0     C21981   0.870   9.773  -0.966  0.0406 -0.2588  0.2402
  160MOL0     C21982   0.917   9.680  -1.077 -0.9547 -0.7005 -1.0282
  160MOL0     C21983   0.825   9.679  -1.196  0.2458  0.2921 -0.1826
  160MOL0     C21984   0.857   9.567  -1.297 -0.3157  1.2564  0.7211
  160MOL0     C21985   0.726   9.547  -1.380 -0.0525 -0.6265 -1.1925
  160MOL0     C21986   0.746   9.466  -1.508  0.3409  0.3392 -0.5635
  160MOL0    Cl21987   0.792   9.297  -1.472  0.8108 -0.1916  0.2587
  160MOL0     C21988   1.104  10.023  -0.673  0.0135  0.8586 -1.1789
  160MOL0     C21989   1.171   9.990  -0.551  0.6037  0.5028 -0.1202
  160MOL0     O21990   1.102   9.776  -0.367 -0.0716 -0.2831 -0.3763
  160MOL0     C21991   1.421   9.695  -0.227 -0.5908  1.4684 -0.0694
  160MOL0     C21992   1.484   9.643  -0.115 -0.6342  0.6269 -0.0961
  160MOL0     N21993   1.210   9.111   0.462 -0.7558 -0.2726 -0.6324
  160MOL0     N21994   1.173   8.997   0.507 -0.3535  0.9819 -0.5650
  160MOL0     C21995   0.557   8.607   1.296 -0.6521  0.1869 -0.0247
  160MOL0     C21996   0.522   8.473   1.317  0.5583 -0.2892  0.7225
  160MOL0     C21997   0.289   8.107   1.364 -1.5224  0.6916 -0.6586
  160MOL0     C21998   0.296   8.032   1.244  0.3083  0.2144  0.3797
  160MOL0     C21999   0.240   7.904   1.238 -0.0350  0.4133 -0.1719
  160MOL0     C22000   0.200   7.832   1.351 -0.9141  0.3723  0.0662
  160MOL0     O22001   0.139   7.711   1.362  0.8402  0.3811  0.0975
  160MOL0     C22002   0.109   7.630   1.241  0.0250  0.1256 -1.4764
  160MOL0     C22003   0.084   7.489   1.278  0.1362  0.0129 -0.8863
  160MOL0     C22004   0.204   7.388   1.306  0.4692 -0.6486  0.5078
  160MOL0     C22005   0.348   7.442   1.315  0.3585 -0.1348 -0.1248
  160MOL0     C22006   0.359   7.525   1.439 -0.6382 -0.4659  0.3924
  160MOL0     C22007   0.371   7.585   1.545 -1.0710 -0.0658  0.7166
  160MOL0     C22008   0.203   7.900   1.474  0.2832 -0.8152  0.0984
  160MOL0     C22009   0.234   8.043   1.486 -0.0159  0.2262 -0.9787
  160MOL0     C22010   0.214   8.105   1.625  1.0263  0.9454 -0.6305
  160MOL0     H22011   0.298   8.444   1.060  1.8982 -1.8536 -1.0939
  160MOL0     H22012   0.364   8.661   1.021  2.1961  0.1844 -0.7017
  160MOL0     H22013   0.458   8.890   0.985  0.9422 -1.0495 -2.3670
  160MOL0     H22014   0.594   8.779   0.960  1.7652  0.4501 -0.5764
  160MOL0     H22015   0.660   9.009   0.919 -1.8749  0.6162 -0.3418
  160MOL0     H22016   0.622   9.052   1.092 -0.3053  0.6546 -0.4749
  160MOL0     H22017   0.841   9.001   1.136  0.8282 -0.1188 -0.7804
  160MOL0     H22018   0.803   8.834   1.114 -0.2627  0.5221 -0.7993
  160MOL0     H22019   0.883   8.861   0.883  1.9210 -0.1606 -1.0529
  160MOL0     H22020   0.896   9.042   0.898 -3.5725 -1.4539 -1.4588
  160MOL0     H22021   1.057   8.839   1.056  1.5123  0.4193  0.6544
  160MOL0     H22022   1.076   9.007   1.076  1.3283 -0.9127  0.6208
  160MOL0     H22023   1.136   9.028   0.824  0.9068  0.7416  0.4218
  160MOL0     H22024   1.258   8.955   0.938  1.6135 -1.2308 -0.3790
  160MOL0     H22025   1.065   8.821   0.748 -0.3456  1.2902  1.3034
  160MOL0     H22026   1.182   8.724   0.848  0.6403 -0.8883 -0.0967
  160MOL0     H22027   1.377   8.836   0.711 -0.9761  1.3845  0.8303
  160MOL0     H22028   1.267   8.761   0.595  2.0627  1.5800 -3.8827
  160MOL0     H22029   1.407   9.104   0.718 -0.6424  0.0060  0.0765
  160MOL0     H22030   1.476   9.317   0.549 -0.2497  1.7012  2.4405
  160MOL0     H22031   1.301   9.374   0.515 -1.7528 -2.3122 -1.1438
  160MOL0     H22032   1.488   9.237   0.316 -1.1649 -1.4455 -1.2630
  160MOL0     H22033   1.324   9.291   0.288  0.7628 -1.9337  1.0210
  160MOL0     H22034   1.424   9.526   0.369  0.8149  0.2400  0.0642
  160MOL0     H22035   1.576   9.459   0.331  0.9410  0.4534 -5.3958
  160MOL0     H22036   1.556   9.413   0.117  0.2753  0.2489  0.7484
  160MOL0     H22037   1.380   9.397   0.125  1.3541 -1.1242 -1.4104
  160MOL0     H22038   1.235   9.679   0.108  2.1160  0.7995  1.3798
  160MOL0     H22039   1.107   9.907  -0.017  0.8663 -1.7258  0.6970
  160MOL0     H22040   1.018   9.758  -0.006 -0.8027 -0.5613  0.0321
  160MOL0     H22041   1.025   9.843  -0.159 -0.4749  2.1114  0.1120
  160MOL0     H22042   1.382   9.743  -0.651 -0.7540 -0.7921 -0.7255
  160MOL0     H22043   1.261   9.779  -0.859 -2.0071  0.4650 -1.5185
  160MOL0     H22044   0.874   9.979  -0.814 -1.5718  1.5270 -1.4048
  160MOL0     H22045   0.939  10.099  -0.925  1.3049 -0.6243 -3.6471
  160MOL0     H22046   0.769   9.960  -1.016  0.3361  1.0781 -0.3851
  160MOL0     H22047   0.924   9.926  -1.108  1.8065 -1.8225  0.6421
  160MOL0     H22048   0.773   9.745  -0.922  1.3001 -3.6202  1.1811
  160MOL0     H22049   0.927   9.750  -0.876 -0.3386 -0.1578  0.5105
  160MOL0     H22050   0.920   9.577  -1.041 -2.1324 -1.3793 -2.7241
  160MOL0     H22051   1.018   9.716  -1.098 -1.6726  2.4307  0.3895
  160MOL0     H22052   0.718   9.675  -1.175  0.0661 -0.8250 -1.1851
  160MOL0     H22053   0.839   9.772  -1.252 -0.3519  1.7747  2.0188
  160MOL0     H22054   0.874   9.467  -1.255 -4.0463 -1.0010 -2.4144
  160MOL0     H22055   0.944   9.597  -1.357  0.5781  0.7125  1.7097
  160MOL0     H22056   0.696   9.647  -1.414 -0.2117  0.7081  2.4857
  160MOL0     H22057   0.639   9.520  -1.319  0.1472  2.3720  0.6321
  160MOL0     H22058   0.839   9.495  -1.558  0.7207  0.4117  0.1592
  160MOL0     H22059   0.665   9.490  -1.577 -0.1140  2.6776  0.6613
  160MOL0     H22060   1.035  10.108  -0.677 -1.1547 -0.1044 -2.3266
  160MOL0     H22061   1.135  10.037  -0.460 -0.8826 -0.0950 -0.3691
  160MOL0     H22062   1.486   9.696  -0.314 -1.8556 -2.1566 -1.2131
  160MOL0     H22063   1.583   9.599  -0.124 -0.8952 -0.4796  1.8955
  160MOL0     H22064   0.631   8.657   1.357 -1.4541 -0.4558  1.5271
  160MOL0     H22065   0.552   8.406   1.396 -0.7242 -2.8989 -0.8567
  160MOL0     H22066   0.331   8.062   1.146 -2.4692 -2.8562 -1.7887
  160MOL0     H22067   0.248   7.847   1.146 -1.8781 -0.1293 -0.0336
  160MOL0     H22068   0.026   7.670   1.182 -2.1700 -1.9519  0.0363
  160MOL0     H22069   0.193   7.619   1.171 -0.7978 -2.1687 -2.1769
  160MOL0     H22070   0.033   7.449   1.189 -1.5325 -0.4259  0.2160
  160MOL0     H22071   0.015   7.496   1.362 -0.7033 -3.3242 -1.1542
  160MOL0     H22072   0.186   7.324   1.393  0.9754  1.1126  1.9589
  160MOL0     H22073   0.211   7.319   1.222  2.2766  0.8173 -0.6076
  160MOL0     H22074   0.371   7.520   1.241 -4.3769  4.9889  2.9937
  160MOL0     H22075   0.423   7.363   1.307 -0.0431 -0.4051 -1.3767
  160MOL0     H22076   0.367   7.628   1.643  0.0353 -3.6374  2.5037
  160MOL0     H22077   0.178   7.854   1.569  0.7313  0.1841  0.7168
  160MOL0     H22078   0.157   8.044   1.696 -0.1796  1.0536 -1.4677
  160MOL0     H22079   0.297   8.162   1.668  0.2080  1.4199  0.3839
  160MOL0     H22080   0.143   8.188   1.623  0.4080  0.4868  0.7228
  161MOL0     O22081   8.963  10.886   3.969 -0.2262 -0.1653 -0.1333
  161MOL0     C22082   8.969  10.860   3.848 -0.1687 -1.1105 -0.6192
  161MOL0     O22083   9.011  10.954   3.752  0.0910  0.0338  0.2794
  161MOL0     C22084   9.029  11.085   3.792  0.6328  1.1082 -0.6721
  161MOL0     C22085   8.933  11.172   3.759  0.8953 -0.3397  0.4689
  161MOL0     C22086   8.947  11.303   3.799  0.5120  0.4174  0.2885
  161MOL0     C22087   9.049  11.355   3.856  0.6342  0.1689  0.7196
  161MOL0     O22088   9.064  11.486   3.892 -0.2013  0.3827  0.0179
  161MOL0     C22089   9.129  11.568   3.801 -0.2926 -0.5910  0.7042
  161MOL0     C22090   9.066  11.704   3.796 -0.5222 -0.4594  0.3544
  161MOL0     C22091   9.089  11.786   3.923 -0.5163  0.6903  0.6913
  161MOL0     C22092   9.081  11.933   3.895  0.0900  0.9132  0.2024
  161MOL0     C22093   9.146  12.040   3.989 -0.4412  0.1228 -0.0575
  161MOL0     C22094   9.084  12.177   3.979  0.8481  0.6427 -0.5285
  161MOL0     C22095   9.112  12.243   3.840 -1.3482  0.5341  0.3372
  161MOL0     C22096   8.990  12.308   3.775 -0.2305 -0.1528  0.2781
  161MOL0     N22097   9.017  12.393   3.666  0.4636 -0.1392  0.0823
  161MOL0     C22098   8.942  12.407   3.556  0.8007 -0.1211 -0.0703
  161MOL0     C22099   9.015  12.491   3.476 -0.8337 -0.4678 -0.3666
  161MOL0     C22100   8.963  12.536   3.340  0.0379  0.6497 -0.1508
  161MOL0     C22101   9.076  12.570   3.238 -0.8285 -0.1241 -0.2164
  161MOL0     C22102   9.033  12.598   3.098 -0.4176  0.0837  0.1122
  161MOL0     C22103   8.941  12.494   3.027  0.1615 -0.6390 -0.4407
  161MOL0     O22104   8.987  12.364   3.039 -0.2704  0.9049  0.2466
  161MOL0     C22105   8.914  12.264   2.974  0.9837  1.0424  0.0764
  161MOL0     C22106   8.808  12.282   2.880 -0.0486  0.3513  0.2455
  161MOL0     C22107   8.751  12.169   2.811  0.5344  0.6932  0.0631
  161MOL0     C22108   8.643  12.205   2.698  0.3404  0.0300 -0.8854
  161MOL0     C22109   8.797  12.036   2.838 -0.9614  0.3563 -1.1249
  161MOL0     C22110   8.735  11.921   2.765  0.7020  0.4928 -0.6292
  161MOL0     O22111   8.612  11.926   2.692  0.3866  0.1691 -1.4112
  161MOL0     C22112   8.556  11.819   2.628 -0.3545 -1.3980 -0.7243
  161MOL0     C22113   8.633  11.725   2.566 -0.0020  0.1302  0.3437
  161MOL0     C22114   8.576  11.612   2.508  0.0685 -0.2447 -0.0745
  161MOL0     C22115   8.446  11.588   2.498 -0.2248 -0.2993 -0.6621
  161MOL0     O22116   8.401  11.474   2.443  0.5526  0.0096 -0.2485
  161MOL0     C22117   8.295  11.463   2.342  0.0083 -0.2608 -0.6883
  161MOL0     C22118   8.348  11.453   2.201 -0.7833  0.0684 -1.0563
  161MOL0     C22119   8.243  11.429   2.095  0.3119  0.0988 -0.3083
  161MOL0     C22120   8.162  11.288   2.100  0.0524  1.1346 -0.4033
  161MOL0     C22121   8.046  11.281   2.003  0.1852  0.1116 -0.5187
  161MOL0     C22122   8.081  11.315   1.855 -0.3111  0.0649  0.5933
  161MOL0     C22123   7.966  11.269   1.772 -0.4635 -0.1717  0.1514
  161MOL0     C22124   7.993  11.299   1.617  0.0098  0.1054  0.2425
  161MOL0    Cl22125   7.870  11.201   1.541  0.5102  0.3047  0.3734
  161MOL0     C22126   8.361  11.689   2.549  0.5160  0.6086 -0.0101
  161MOL0     C22127   8.418  11.797   2.608 -0.1000  0.4330  0.4636
  161MOL0     O22128   8.791  11.814   2.794  0.1365 -0.0551  0.8002
  161MOL0     C22129   8.901  12.020   2.936  0.2166  0.0684  0.0462
  161MOL0     C22130   8.955  12.135   2.997  0.2531 -0.2982  0.8718
  161MOL0     N22131   9.136  12.521   3.540  0.7263 -0.0446  0.6174
  161MOL0     N22132   9.135  12.456   3.653 -1.3890 -0.3179  0.1412
  161MOL0     C22133   9.155  11.269   3.895 -0.0927  0.1622  0.8090
  161MOL0     C22134   9.144  11.132   3.861 -0.6708 -0.0399 -0.1838
  161MOL0     C22135   8.952  10.726   3.816  0.5321  0.2036  0.5056
  161MOL0     C22136   8.874  10.642   3.904  0.4948 -0.5546  0.8323
  161MOL0     C22137   8.867  10.505   3.887  0.2428  0.6555 -0.2002
  161MOL0     C22138   8.927  10.448   3.777 -0.8413  0.4192 -0.4139
  161MOL0     O22139   8.913  10.316   3.743 -0.4253 -0.3885  0.5666
  161MOL0     C22140   8.972  10.219   3.835  0.7715 -0.5286  0.5945
  161MOL0     C22141   9.106  10.188   3.781 -0.5066  0.1351 -0.0854
  161MOL0     C22142   9.201  10.113   3.881 -1.7937 -0.2089  0.1435
  161MOL0     C22143   9.340  10.095   3.818  0.5825 -0.3090 -0.2473
  161MOL0     C22144   9.411  10.222   3.800  0.2498 -0.1933  0.1253
  161MOL0     C22145   9.452  10.342   3.786  0.6757  0.4943 -0.8716
  161MOL0     C22146   9.017  10.522   3.693  0.4539 -0.0621 -0.5695
  161MOL0     C22147   9.028  10.664   3.711  1.0084  0.7005  0.2380
  161MOL0     C22148   9.114  10.742   3.615  0.7249 -0.8283  0.4399
  161MOL0     H22149   8.845  11.130   3.711  0.0536 -0.7357  2.2460
  161MOL0     H22150   8.863  11.369   3.777 -0.1742 -0.7798 -0.7927
  161MOL0     H22151   9.134  11.525   3.701 -0.2233  1.0419 -0.0141
  161MOL0     H22152   9.231  11.581   3.838  0.1863 -0.0442 -0.7701
  161MOL0     H22153   9.098  11.753   3.703 -0.0310 -0.3532  0.5791
  161MOL0     H22154   8.957  11.694   3.782 -0.5702  0.2488  0.1799
  161MOL0     H22155   9.015  11.765   4.001  0.9395  1.8702  2.4815
  161MOL0     H22156   9.183  11.754   3.968 -1.6260  0.1048  2.6902
  161MOL0     H22157   9.124  11.944   3.794 -0.2490 -0.8096 -0.1680
  161MOL0     H22158   8.973  11.943   3.880 -0.3900 -2.9609  0.1154
  161MOL0     H22159   9.254  12.048   3.973  0.1496 -2.7629  1.6374
  161MOL0     H22160   9.144  12.000   4.091 -0.0467  2.5215  0.9584
  161MOL0     H22161   8.977  12.155   3.987  1.1290 -1.3673 -1.6656
  161MOL0     H22162   9.116  12.242   4.061 -0.4965  2.4351 -1.3681
  161MOL0     H22163   9.144  12.170   3.766 -2.9172  1.2184 -1.0670
  161MOL0     H22164   9.201  12.302   3.863 -0.6140 -1.4205  2.9951
  161MOL0     H22165   8.924  12.225   3.746  0.9273 -0.1627 -2.7037
  161MOL0     H22166   8.934  12.370   3.845 -1.5915 -2.5079  1.4342
  161MOL0     H22167   8.841  12.371   3.545  0.4365  0.4126  1.3054
  161MOL0     H22168   8.909  12.630   3.352  0.6085  0.7700  1.8909
  161MOL0     H22169   8.911  12.447   3.303 -0.8171  0.7623  0.7583
  161MOL0     H22170   9.142  12.651   3.269 -1.2643 -0.3682  1.4797
  161MOL0     H22171   9.149  12.489   3.233 -1.6359 -1.0191  1.5671
  161MOL0     H22172   8.978  12.692   3.105 -0.1489  0.4499 -1.9128
  161MOL0     H22173   9.112  12.625   3.027 -1.9074  1.2350 -1.1711
  161MOL0     H22174   8.839  12.509   3.064  0.6654  1.4195  0.2440
  161MOL0     H22175   8.948  12.528   2.923  2.5995  2.0778  0.4783
  161MOL0     H22176   8.762  12.375   2.849 -1.0380 -0.3090 -0.3329
  161MOL0     H22177   8.545  12.158   2.712  0.2661  0.3258 -0.4058
  161MOL0     H22178   8.666  12.157   2.602 -0.5316  0.7929 -1.5007
  161MOL0     H22179   8.640  12.311   2.670 -0.2514 -0.1488 -1.5429
  161MOL0     H22180   8.740  11.738   2.558 -0.1192  0.4980 -0.7715
  161MOL0     H22181   8.639  11.527   2.486 -2.6806 -2.1111 -1.1920
  161MOL0     H22182   8.226  11.384   2.371 -1.5769  1.9323  1.9718
  161MOL0     H22183   8.237  11.556   2.351  1.1072  0.5354 -1.5421
  161MOL0     H22184   8.398  11.545   2.169 -1.7066  0.4821 -1.3597
  161MOL0     H22185   8.423  11.374   2.195  0.7477  1.5025 -1.4630
  161MOL0     H22186   8.293  11.427   1.998 -0.8698  0.2940 -0.9506
  161MOL0     H22187   8.175  11.515   2.089  2.7641  2.1026 -0.9898
  161MOL0     H22188   8.124  11.267   2.200  1.7179  2.0360  0.4771
  161MOL0     H22189   8.239  11.215   2.074 -1.0715 -0.4286  0.5032
  161MOL0     H22190   8.007  11.179   2.010 -3.5779  1.4464  0.5486
  161MOL0     H22191   7.976  11.355   2.042  0.5097 -0.7402  1.8367
  161MOL0     H22192   8.171  11.254   1.838 -0.5895 -0.9468  2.4499
  161MOL0     H22193   8.107  11.418   1.831 -0.6308 -0.2426 -1.2984
  161MOL0     H22194   7.877  11.327   1.799  2.6876  4.2254  2.0815
  161MOL0     H22195   7.960  11.160   1.775  1.7448 -0.3636 -0.8679
  161MOL0     H22196   8.087  11.259   1.578 -0.6563  0.0867 -1.4459
  161MOL0     H22197   7.988  11.403   1.584  1.2091 -0.1145 -0.7097
  161MOL0     H22198   8.253  11.675   2.550  0.8120 -3.2780 -1.6481
  161MOL0     H22199   8.356  11.881   2.640  2.7990  2.0649  2.3091
  161MOL0     H22200   8.941  11.924   2.967 -2.1121 -1.2719 -0.8509
  161MOL0     H22201   9.030  12.117   3.073 -0.1370 -1.7787  0.9314
  161MOL0     H22202   9.228  11.317   3.959  0.2150  1.6940 -0.6304
  161MOL0     H22203   9.226  11.065   3.886 -0.2873  1.8277  4.6513
  161MOL0     H22204   8.825  10.680   3.992  0.5967 -0.4423  0.8411
  161MOL0     H22205   8.803  10.439   3.945 -0.4165  0.8264 -0.7237
  161MOL0     H22206   8.994  10.261   3.934  1.4100 -2.7506  1.4396
  161MOL0     H22207   8.909  10.130   3.843 -1.3687  0.7115 -1.2138
  161MOL0     H22208   9.151  10.284   3.754  3.0029 -1.7500 -1.6857
  161MOL0     H22209   9.098  10.134   3.686 -2.6532 -0.8986  0.6411
  161MOL0     H22210   9.215  10.181   3.965  1.4634 -0.6203  0.0358
  161MOL0     H22211   9.179  10.013   3.922  2.4658 -1.1227  0.6296
  161MOL0     H22212   9.344  10.046   3.720  1.3667 -0.0895 -0.3326
  161MOL0     H22213   9.386  10.022   3.886  1.2515 -0.0734 -0.4339
  161MOL0     H22214   9.478  10.446   3.784 -2.7369  1.5349 -4.0443
  161MOL0     H22215   9.048  10.463   3.607 -1.8693  0.1714 -1.6582
  161MOL0     H22216   9.055  10.808   3.552 -2.1003 -3.6537 -0.1294
  161MOL0     H22217   9.194  10.797   3.667  0.9351 -0.7396  0.0243
  161MOL0     H22218   9.165  10.675   3.545  1.6160 -2.2176  2.3291
  162MOL0     O22219   3.363  10.719   5.168 -0.5134 -0.0941 -0.2213
  162MOL0     C22220   3.340  10.600   5.199  0.5881  0.4580 -0.2126
  162MOL0     O22221   3.219  10.541   5.202 -0.4047 -0.0201 -0.0030
  162MOL0     C22222   3.112  10.608   5.160  1.2009  0.7865 -0.6413
  162MOL0     C22223   3.060  10.706   5.233  0.3566 -0.4053  0.0210
  162MOL0     C22224   2.950  10.781   5.201  0.5917 -0.4717  1.0126
  162MOL0     C22225   2.873  10.740   5.090  0.6714 -0.2069  1.0135
  162MOL0     O22226   2.767  10.818   5.030  0.5540 -0.1592  0.0283
  162MOL0     C22227   2.746  10.950   5.069  0.2840 -0.0354 -0.2095
  162MOL0     C22228   2.609  11.015   5.057  0.0651 -0.4409 -0.5041
  162MOL0     C22229   2.523  10.983   5.180  0.2505  0.4190  0.7146
  162MOL0     C22230   2.583  11.019   5.322  0.5419  1.0997 -0.1342
  162MOL0     C22231   2.472  11.050   5.417 -0.3074 -0.2658  0.2901
  162MOL0     C22232   2.509  11.120   5.538  0.1187  0.1934 -0.3405
  162MOL0     C22233   2.566  11.023   5.643 -0.3479 -0.5990  0.5181
  162MOL0     C22234   2.454  10.951   5.723 -0.2140 -0.1895 -0.3517
  162MOL0     N22235   2.492  10.858   5.825 -0.2716 -0.8258 -0.1293
  162MOL0     C22236   2.585  10.869   5.930 -0.5487 -0.4193 -0.7384
  162MOL0     C22237   2.594  10.741   5.977  0.3448 -1.1504  0.7023
  162MOL0     C22238   2.691  10.696   6.083  0.6432  0.1087  0.2577
  162MOL0     C22239   2.828  10.628   6.030 -0.1681 -0.2439  0.1444
  162MOL0     C22240   2.922  10.591   6.152 -0.0791  0.9081 -0.8443
  162MOL0     C22241   2.994  10.700   6.235  0.3211  0.3121  0.2717
  162MOL0     O22242   3.081  10.769   6.143 -0.1433  0.3844 -0.8712
  162MOL0     C22243   3.145  10.887   6.181 -0.2473 -0.6936 -0.5765
  162MOL0     C22244   3.244  10.938   6.100  0.1205  0.2786  0.3303
  162MOL0     C22245   3.318  11.055   6.124  0.3582 -0.0680  0.6934
  162MOL0     C22246   3.416  11.102   6.016 -0.3714 -0.3915 -0.1211
  162MOL0     C22247   3.292  11.127   6.238  0.4090 -0.7884 -1.1164
  162MOL0     C22248   3.371  11.240   6.292  0.3831  0.2926 -0.0805
  162MOL0     O22249   3.329  11.302   6.414  0.5555  0.5383  0.0010
  162MOL0     C22250   3.415  11.394   6.470 -0.1931 -0.5953  0.8825
  162MOL0     C22251   3.371  11.525   6.488  0.5993 -0.0428 -0.0752
  162MOL0     C22252   3.457  11.621   6.553 -0.4392  0.2532  0.5249
  162MOL0     C22253   3.586  11.587   6.583 -0.6672  0.8685  0.2273
  162MOL0     O22254   3.674  11.682   6.600 -0.4214 -0.3361 -0.4884
  162MOL0     C22255   3.734  11.679   6.730  0.7767  0.6906 -1.0701
  162MOL0     C22256   3.816  11.808   6.757 -0.9766 -1.0014  1.0236
  162MOL0     C22257   3.927  11.838   6.648  1.2342  1.2254  0.0926
  162MOL0     C22258   4.006  11.947   6.704 -0.0328  0.6206  0.1090
  162MOL0     C22259   4.116  11.989   6.610 -0.0768  0.1229 -0.1895
  162MOL0     C22260   4.207  12.058   6.715  0.0519 -0.2541  1.4438
  162MOL0     C22261   4.315  12.155   6.670  0.5112  0.1793  0.8199
  162MOL0     C22262   4.396  12.109   6.551  0.6100 -0.2222 -1.1182
  162MOL0    Cl22263   4.504  11.980   6.604  0.4732 -0.2069 -0.3133
  162MOL0     C22264   3.627  11.444   6.577 -0.4264  0.2654  0.4898
  162MOL0     C22265   3.533  11.360   6.528 -0.0092  0.1463  1.3807
  162MOL0     O22266   3.470  11.275   6.230  0.4375 -0.4032  0.0767
  162MOL0     C22267   3.188  11.087   6.325 -0.0837  0.6807 -0.5059
  162MOL0     C22268   3.111  10.972   6.297  0.1553 -0.4112  0.4996
  162MOL0     N22269   2.499  10.666   5.919  0.2983  0.1014 -0.4604
  162MOL0     N22270   2.445  10.732   5.826 -0.4529 -0.4564 -0.1309
  162MOL0     C22271   2.918  10.620   5.016  0.5316  0.9072 -0.2015
  162MOL0     C22272   3.035  10.559   5.055 -0.0825 -0.0792 -0.5167
  162MOL0     C22273   3.458  10.529   5.277 -0.1167 -0.2355 -0.1330
  162MOL0     C22274   3.588  10.574   5.244  0.8922 -0.4882 -0.3233
  162MOL0     C22275   3.700  10.526   5.313  0.6729 -0.0424  0.6058
  162MOL0     C22276   3.691  10.425   5.407  0.4886  0.3042  0.0875
  162MOL0     O22277   3.807  10.381   5.458  0.5318 -0.5252  0.1350
  162MOL0     C22278   3.805  10.259   5.526 -0.6318 -0.3103 -0.3813
  162MOL0     C22279   3.949  10.225   5.575 -0.3415  0.7983  0.7791
  162MOL0     C22280   4.019  10.328   5.658 -0.1043 -0.1894  0.8696
  162MOL0     C22281   3.964  10.363   5.794 -1.3240  0.4204 -0.0383
  162MOL0     C22282   4.044  10.467   5.864  0.4673 -0.4976  0.7055
  162MOL0     C22283   4.114  10.543   5.932 -0.3398 -1.0555 -0.3689
  162MOL0     C22284   3.566  10.375   5.431 -0.6340  0.7442  0.4701
  162MOL0     C22285   3.446  10.428   5.379 -0.1002 -1.3288 -0.0908
  162MOL0     C22286   3.318  10.383   5.454 -0.9812 -0.6316  0.1056
  162MOL0     H22287   3.112  10.745   5.320  2.2561  1.2288 -1.7407
  162MOL0     H22288   2.916  10.866   5.258  0.1176  2.2404 -2.9320
  162MOL0     H22289   2.807  10.999   4.993 -1.1608  2.2264 -0.0214
  162MOL0     H22290   2.783  10.965   5.171  0.0866  0.1384 -0.1623
  162MOL0     H22291   2.618  11.124   5.059  1.4970 -0.4965 -1.8934
  162MOL0     H22292   2.549  11.003   4.967 -0.5571  0.2630 -0.1966
  162MOL0     H22293   2.429  11.037   5.164  1.7049  2.6700 -0.9577
  162MOL0     H22294   2.515  10.874   5.185  0.3665  0.2580 -1.4933
  162MOL0     H22295   2.623  10.926   5.364 -0.9910  1.7371  3.0401
  162MOL0     H22296   2.648  11.106   5.309 -0.7201  2.0037 -0.4958
  162MOL0     H22297   2.411  10.964   5.448  0.1078 -0.3630  0.8572
  162MOL0     H22298   2.402  11.116   5.364 -0.4685  0.0934  0.9427
  162MOL0     H22299   2.581  11.196   5.508  1.5055 -1.4207 -1.2172
  162MOL0     H22300   2.425  11.178   5.578  0.6154 -1.1342  2.9429
  162MOL0     H22301   2.612  11.081   5.723  0.2655 -0.1778 -0.1206
  162MOL0     H22302   2.646  10.956   5.610  1.4518  1.5959  0.1708
  162MOL0     H22303   2.399  11.032   5.772 -0.7228 -0.4265 -0.5363
  162MOL0     H22304   2.406  10.892   5.644  0.6689 -1.5485  0.0915
  162MOL0     H22305   2.652  10.948   5.962  0.0265 -1.0283 -0.3997
  162MOL0     H22306   2.636  10.639   6.159 -1.2168  1.5680  0.0803
  162MOL0     H22307   2.726  10.786   6.134  1.1590  0.5174 -0.7925
  162MOL0     H22308   2.799  10.538   5.976 -1.5296 -0.6389  1.4578
  162MOL0     H22309   2.870  10.691   5.951 -2.1907 -1.9037 -2.4117
  162MOL0     H22310   2.867  10.524   6.219 -0.4580  2.1492  0.1150
  162MOL0     H22311   3.002  10.535   6.103  2.2504  3.5272 -0.2837
  162MOL0     H22312   2.916  10.772   6.259 -1.7852 -0.2827 -3.8282
  162MOL0     H22313   3.045  10.653   6.320 -1.5504 -1.5728  0.4413
  162MOL0     H22314   3.263  10.877   6.013 -0.9068 -0.5730  0.6890
  162MOL0     H22315   3.518  11.076   6.046  0.2357  0.9169 -0.9713
  162MOL0     H22316   3.423  11.209   5.996  1.7194 -0.6717 -1.1683
  162MOL0     H22317   3.398  11.050   5.922 -0.4667 -5.3029  2.3090
  162MOL0     H22318   3.268  11.545   6.459  0.0403  0.4105  2.0455
  162MOL0     H22319   3.425  11.722   6.576  2.4510  2.3522 -3.4543
  162MOL0     H22320   3.664  11.674   6.814  0.1134  0.4408 -1.6300
  162MOL0     H22321   3.802  11.594   6.740  2.9651  2.4966  0.4661
  162MOL0     H22322   3.742  11.885   6.735  0.0214 -0.0111  1.0696
  162MOL0     H22323   3.852  11.818   6.860 -0.4251  1.1709  0.6652
  162MOL0     H22324   3.869  11.872   6.562 -0.6979 -0.6524  0.5654
  162MOL0     H22325   3.976  11.740   6.639 -1.2929 -0.3356  1.7410
  162MOL0     H22326   4.036  11.916   6.804 -0.4749  5.3124  1.9739
  162MOL0     H22327   3.938  12.030   6.727 -0.0490  0.5071  0.4791
  162MOL0     H22328   4.184  11.913   6.569  0.4532  1.4001 -1.7628
  162MOL0     H22329   4.087  12.060   6.532  1.4951 -0.4777 -1.3900
  162MOL0     H22330   4.239  11.986   6.791 -0.7577 -0.2803  1.7790
  162MOL0     H22331   4.146  12.127   6.774 -0.4627 -0.1289  0.7718
  162MOL0     H22332   4.381  12.176   6.754  2.1697 -0.1706 -0.3463
  162MOL0     H22333   4.271  12.249   6.635  0.7747 -0.2581 -0.7856
  162MOL0     H22334   4.459  12.194   6.522  0.6378  1.4506  3.1257
  162MOL0     H22335   4.333  12.070   6.471 -2.8188  1.8152  0.3694
  162MOL0     H22336   3.729  11.418   6.605  0.6949  0.3082 -3.0234
  162MOL0     H22337   3.544  11.252   6.533 -1.5093 -0.1539 -0.6664
  162MOL0     H22338   3.156  11.131   6.419  3.3020 -1.6178  1.9425
  162MOL0     H22339   3.018  10.965   6.351 -0.5427  4.0991  0.2236
  162MOL0     H22340   2.864  10.579   4.932  1.0542  0.0481 -0.1298
  162MOL0     H22341   3.069  10.465   5.011 -3.1184 -0.8235 -1.4662
  162MOL0     H22342   3.607  10.644   5.163  1.8915 -0.9104 -0.4581
  162MOL0     H22343   3.795  10.573   5.292 -0.3688  1.9622  0.1342
  162MOL0     H22344   3.740  10.256   5.614  2.2170 -0.6413  1.8930
  162MOL0     H22345   3.778  10.175   5.461  1.0735 -0.3214 -1.1379
  162MOL0     H22346   4.004  10.189   5.488  0.9867 -1.3139  2.4099
  162MOL0     H22347   3.941  10.137   5.639 -0.1127 -0.9413 -1.4626
  162MOL0     H22348   4.125  10.303   5.670  0.9806  3.6451  0.9165
  162MOL0     H22349   4.013  10.417   5.594  1.4935 -0.9456 -0.3864
  162MOL0     H22350   3.964  10.271   5.852  1.3545 -1.5354 -2.8345
  162MOL0     H22351   3.862  10.399   5.778 -1.4701  0.9059  1.7905
  162MOL0     H22352   4.162  10.602   6.007 -1.6654  0.9548 -1.0299
  162MOL0     H22353   3.560  10.297   5.506  2.1749 -1.7086 -1.5939
  162MOL0     H22354   3.343  10.369   5.559  0.1593  2.0619  0.2741
  162MOL0     H22355   3.238  10.459   5.452 -0.7592 -0.3870  0.5032
  162MOL0     H22356   3.275  10.302   5.394  0.1389  1.2682 -3.5830
  163MOL0     O22357   9.323   6.867   5.468  0.5107  0.0735 -1.0496
  163MOL0     C22358   9.215   6.835   5.419 -1.2723  0.1298  1.1570
  163MOL0     O22359   9.111   6.796   5.484  0.0744 -0.2173 -0.0605
  163MOL0     C22360   9.125   6.779   5.616 -0.7752  0.0229  0.3049
  163MOL0     C22361   9.040   6.850   5.694 -0.4336 -1.4162  0.3248
  163MOL0     C22362   9.035   6.831   5.834 -0.3697 -0.2178  0.1638
  163MOL0     C22363   9.117   6.743   5.898 -0.5258 -0.4553  0.2027
  163MOL0     O22364   9.099   6.744   6.036 -0.0401  0.0792  0.3707
  163MOL0     C22365   9.165   6.638   6.111  0.1023  1.3160 -0.2075
  163MOL0     C22366   9.101   6.642   6.247 -0.2161  0.0556  0.7882
  163MOL0     C22367   8.951   6.649   6.249  1.0226  0.5477 -0.1366
  163MOL0     C22368   8.894   6.502   6.249 -0.1538 -0.8937 -0.1608
  163MOL0     C22369   8.748   6.503   6.242 -0.0734  0.9655  0.2540
  163MOL0     C22370   8.686   6.357   6.238 -0.1209  0.3074  0.0771
  163MOL0     C22371   8.538   6.375   6.268 -0.3557  0.8902 -0.2188
  163MOL0     C22372   8.460   6.251   6.302  0.5523  0.4462  0.3260
  163MOL0     N22373   8.448   6.157   6.189 -0.3665  0.1937 -0.3882
  163MOL0     C22374   8.339   6.150   6.107  0.2199  0.4276  0.1783
  163MOL0     C22375   8.379   6.059   6.017  0.1486  0.7271 -1.2105
  163MOL0     C22376   8.268   6.013   5.912 -0.6844  0.3052  0.4150
  163MOL0     C22377   8.275   5.856   5.905 -0.9592 -0.5782 -0.7449
  163MOL0     C22378   8.267   5.793   6.052 -0.0361  0.4950 -0.0854
  163MOL0     C22379   8.206   5.652   6.049  0.6327 -0.7441 -0.0504
  163MOL0     O22380   8.291   5.555   5.984  0.0221  0.1837  0.3502
  163MOL0     C22381   8.418   5.537   6.034 -0.6956 -0.4201  0.3363
  163MOL0     C22382   8.429   5.461   6.145  0.7531 -0.0122 -0.5933
  163MOL0     C22383   8.558   5.418   6.200 -0.2712 -0.5112 -0.2577
  163MOL0     C22384   8.559   5.339   6.324  0.4912 -0.2807  0.0582
  163MOL0     C22385   8.675   5.449   6.119  0.1751  0.1337 -0.6652
  163MOL0     C22386   8.810   5.389   6.135  0.3525  0.6272 -0.1978
  163MOL0     O22387   8.830   5.314   6.243  0.1003 -0.2103 -0.0995
  163MOL0     C22388   8.959   5.277   6.283 -0.2312 -0.0546  0.3101
  163MOL0     C22389   8.982   5.149   6.323 -0.3294 -0.5588  1.7123
  163MOL0     C22390   9.112   5.109   6.366  0.7625  0.3136 -0.3771
  163MOL0     C22391   9.217   5.202   6.375  0.7107 -0.2479  1.0218
  163MOL0     O22392   9.343   5.185   6.423  1.0927 -0.0517 -0.1216
  163MOL0     C22393   9.370   5.061   6.502  0.2839 -0.3705  0.5754
  163MOL0     C22394   9.303   5.067   6.639  0.7918  0.4677  0.0668
  163MOL0     C22395   9.340   5.190   6.710  0.2245 -0.9827  0.1467
  163MOL0     C22396   9.337   5.177   6.859  1.2763 -0.0632 -0.6936
  163MOL0     C22397   9.328   5.325   6.913 -0.5248 -0.1236 -0.7609
  163MOL0     C22398   9.330   5.328   7.065 -0.5345  0.4893 -0.6018
  163MOL0     C22399   9.358   5.473   7.107  0.3238  0.2652  0.0836
  163MOL0     C22400   9.352   5.480   7.262 -0.8870 -0.8614  0.8725
  163MOL0    Cl22401   9.505   5.393   7.318 -0.1456 -0.0523 -0.6486
  163MOL0     C22402   9.193   5.326   6.332  0.1262 -0.2147  1.5479
  163MOL0     C22403   9.068   5.360   6.279 -0.5398  0.6471 -0.5689
  163MOL0     O22404   8.890   5.414   6.047 -0.4359 -0.1599 -0.3534
  163MOL0     C22405   8.647   5.503   5.994  0.7600 -0.5435  0.4314
  163MOL0     C22406   8.523   5.553   5.951 -0.9658 -0.2417 -1.0173
  163MOL0     N22407   8.505   6.008   6.052  0.0774 -0.0401 -0.8499
  163MOL0     N22408   8.542   6.062   6.159  1.2549 -0.1784  0.3239
  163MOL0     C22409   9.209   6.677   5.818 -0.3570 -0.1312  0.5906
  163MOL0     C22410   9.213   6.686   5.680 -0.2483 -0.0144  1.1047
  163MOL0     C22411   9.203   6.846   5.271 -0.3913 -0.1490  0.1616
  163MOL0     C22412   9.070   6.815   5.218  0.0638 -0.1433  0.1239
  163MOL0     C22413   9.038   6.831   5.082 -0.3123  0.0173 -0.1352
  163MOL0     C22414   9.129   6.890   4.993 -0.5171  0.7458  0.5806
  163MOL0     O22415   9.111   6.911   4.857  0.5063  0.0923  0.4861
  163MOL0     C22416   9.008   7.008   4.843  0.2024 -0.3635 -0.1704
  163MOL0     C22417   8.998   7.061   4.707 -0.1324 -0.9756 -0.3217
  163MOL0     C22418   9.009   6.951   4.598  0.1090  0.0496 -0.5816
  163MOL0     C22419   8.879   6.856   4.595 -0.1663  0.1693 -0.2824
  163MOL0     C22420   8.882   6.765   4.486 -0.4829  0.7325  0.4984
  163MOL0     C22421   8.907   6.701   4.390 -0.1659  0.0007  0.4990
  163MOL0     C22422   9.259   6.903   5.037 -0.5556  0.8449  0.3588
  163MOL0     C22423   9.302   6.875   5.172 -0.0448 -0.8411  0.3241
  163MOL0     C22424   9.448   6.904   5.205 -0.4191  1.0098 -0.8115
  163MOL0     H22425   8.979   6.919   5.637  0.3377 -1.4232 -0.5262
  163MOL0     H22426   8.966   6.895   5.889 -0.4813  2.5907 -2.8798
  163MOL0     H22427   9.272   6.652   6.127  0.5507 -0.8104 -1.0684
  163MOL0     H22428   9.138   6.539   6.073  1.8055  0.3913  0.8644
  163MOL0     H22429   9.128   6.554   6.306  0.7012  0.2693  0.6881
  163MOL0     H22430   9.131   6.735   6.296  0.9275 -0.4862  1.1416
  163MOL0     H22431   8.922   6.694   6.344 -0.2752  2.7582 -1.5035
  163MOL0     H22432   8.914   6.718   6.173  2.2044  1.3332 -0.0367
  163MOL0     H22433   8.939   6.436   6.174  1.1546 -0.3409  0.1128
  163MOL0     H22434   8.929   6.459   6.344  0.1417  1.3109  0.7839
  163MOL0     H22435   8.731   6.557   6.148 -1.4686  0.5681  0.2436
  163MOL0     H22436   8.712   6.570   6.321  2.2974  1.0295  1.3578
  163MOL0     H22437   8.686   6.328   6.132 -1.4101  2.3130 -0.5253
  163MOL0     H22438   8.738   6.272   6.283 -1.6321 -0.8140 -0.2409
  163MOL0     H22439   8.499   6.424   6.179 -2.5385  1.3915  0.9392
  163MOL0     H22440   8.530   6.456   6.340  2.9762  2.1435 -1.0551
  163MOL0     H22441   8.507   6.205   6.389 -2.7282 -0.1050  1.9817
  163MOL0     H22442   8.360   6.281   6.333 -0.4516 -0.6650 -1.5775
  163MOL0     H22443   8.244   6.201   6.116  0.0644 -0.1969  3.7152
  163MOL0     H22444   8.314   6.043   5.817  1.8923 -3.6247  0.1939
  163MOL0     H22445   8.166   6.041   5.940  0.0744  0.0146  3.9552
  163MOL0     H22446   8.200   5.811   5.840  1.4272 -0.8191 -3.5584
  163MOL0     H22447   8.372   5.825   5.863 -1.2232 -2.2535 -0.2182
  163MOL0     H22448   8.361   5.783   6.108  0.6558  0.0890 -1.2797
  163MOL0     H22449   8.200   5.847   6.119 -1.4223 -1.1818 -0.0464
  163MOL0     H22450   8.199   5.615   6.152  1.9524 -1.2711 -0.1208
  163MOL0     H22451   8.113   5.669   5.995  0.3944 -0.1751  0.5326
  163MOL0     H22452   8.335   5.421   6.182  1.1932 -1.4788 -1.0174
  163MOL0     H22453   8.644   5.358   6.391 -0.3480 -1.8255  1.6578
  163MOL0     H22454   8.564   5.232   6.302  2.1153 -0.7178  2.1860
  163MOL0     H22455   8.471   5.362   6.385  1.7686 -0.2270  1.9614
  163MOL0     H22456   8.898   5.080   6.315 -1.6775  1.2090 -1.0231
  163MOL0     H22457   9.120   5.006   6.399 -0.8845  0.6647  1.2943
  163MOL0     H22458   9.334   4.970   6.454  0.1394 -0.2015  0.3642
  163MOL0     H22459   9.479   5.057   6.505  0.3226 -1.6142 -1.1449
  163MOL0     H22460   9.195   5.055   6.638  0.8432 -0.5350  1.7638
  163MOL0     H22461   9.337   4.978   6.693 -1.4918  0.0509  0.9128
  163MOL0     H22462   9.270   5.266   6.673 -0.5497 -1.9583 -0.4621
  163MOL0     H22463   9.437   5.231   6.680 -1.1694  4.2828  1.7913
  163MOL0     H22464   9.430   5.139   6.904  1.2152  1.3549  0.7090
  163MOL0     H22465   9.247   5.124   6.891  0.0007  1.9177 -0.8501
  163MOL0     H22466   9.409   5.385   6.871  1.5875 -2.9896 -1.1203
  163MOL0     H22467   9.231   5.369   6.887 -2.5011 -1.8630  2.9185
  163MOL0     H22468   9.399   5.254   7.106 -0.6482  0.5734 -0.2580
  163MOL0     H22469   9.230   5.305   7.103 -0.0116  0.1920  0.6256
  163MOL0     H22470   9.277   5.536   7.069 -1.7358 -2.7162 -0.8295
  163MOL0     H22471   9.450   5.499   7.054  0.8460 -0.0846  0.7988
  163MOL0     H22472   9.262   5.435   7.304 -0.7882  0.0256  2.1015
  163MOL0     H22473   9.346   5.587   7.283 -0.3535 -0.5713 -0.3489
  163MOL0     H22474   9.267   5.405   6.326  0.7392 -0.8669 -1.2198
  163MOL0     H22475   9.076   5.459   6.235  0.0715  0.1259 -1.6925
  163MOL0     H22476   8.728   5.512   5.922 -0.9264 -0.7134 -1.5831
  163MOL0     H22477   8.521   5.597   5.852  1.5835  3.3888  0.3271
  163MOL0     H22478   9.277   6.609   5.870  0.8068  2.6371  2.9920
  163MOL0     H22479   9.287   6.629   5.625 -0.2683  1.7289 -0.8271
  163MOL0     H22480   9.001   6.771   5.289  0.4710 -0.1779  0.5077
  163MOL0     H22481   8.939   6.805   5.044 -0.1039 -0.7005 -0.2102
  163MOL0     H22482   8.908   6.977   4.876 -1.1126  2.5600 -1.0533
  163MOL0     H22483   9.034   7.095   4.904 -1.5011  0.5120 -0.6289
  163MOL0     H22484   9.080   7.133   4.698 -0.4270 -0.0374  3.1126
  163MOL0     H22485   8.905   7.116   4.691 -0.8364 -1.0982  2.6466
  163MOL0     H22486   9.010   7.006   4.504  0.6996 -0.9580 -1.1756
  163MOL0     H22487   9.099   6.889   4.596  0.2475  0.2635 -1.6124
  163MOL0     H22488   8.794   6.924   4.593  0.3253  0.9304  1.7513
  163MOL0     H22489   8.862   6.799   4.687  3.7672 -1.4313 -0.3515
  163MOL0     H22490   8.947   6.645   4.308 -0.1271  0.3761  0.2564
  163MOL0     H22491   9.325   6.932   4.955 -2.0063 -0.0847 -1.2058
  163MOL0     H22492   9.506   6.879   5.116 -1.2347 -2.1852 -0.5853
  163MOL0     H22493   9.466   7.001   5.252 -3.0155  0.3284  1.9221
  163MOL0     H22494   9.481   6.830   5.279 -2.2014  1.0795  0.1053
  164MOL0     O22495   8.088   7.530  10.130 -0.2035  0.9690  0.3342
  164MOL0     C22496   8.075   7.656  10.136  0.6405 -0.0478  0.1776
  164MOL0     O22497   8.134   7.741  10.052  0.1249  0.1268  0.5531
  164MOL0     C22498   8.233   7.716   9.961 -0.1151  0.1557 -0.3493
  164MOL0     C22499   8.325   7.608   9.974 -1.5915 -0.5884 -0.6349
  164MOL0     C22500   8.451   7.608   9.899  0.1177  0.5927  0.1514
  164MOL0     C22501   8.460   7.706   9.793  0.4615  0.3138 -0.2131
  164MOL0     O22502   8.558   7.707   9.701 -0.3251  0.1369  0.5853
  164MOL0     C22503   8.639   7.594   9.666 -0.1166  0.5851  0.4457
  164MOL0     C22504   8.702   7.613   9.528  0.1761  0.8928 -0.3030
  164MOL0     C22505   8.601   7.640   9.410  0.1436  0.6039  0.9028
  164MOL0     C22506   8.530   7.511   9.372 -0.2553 -0.1514 -0.1373
  164MOL0     C22507   8.399   7.540   9.293 -0.2290 -0.0960 -0.0373
  164MOL0     C22508   8.278   7.599   9.374 -0.6632  0.8827 -0.1704
  164MOL0     C22509   8.242   7.501   9.496 -0.1825 -0.0586  0.0465
  164MOL0     C22510   8.105   7.524   9.549  0.2075  1.1681  0.4069
  164MOL0     N22511   8.013   7.426   9.496 -0.2085 -0.4547  0.1705
  164MOL0     C22512   8.028   7.293   9.503  0.6163 -0.1133 -0.4581
  164MOL0     C22513   7.936   7.230   9.415 -0.6004 -0.2263  0.2985
  164MOL0     C22514   7.902   7.092   9.405  0.0542  0.9527  0.1468
  164MOL0     C22515   8.030   7.020   9.352  0.8862 -1.7631 -0.3939
  164MOL0     C22516   8.061   7.062   9.204 -0.2630 -0.1477 -0.5417
  164MOL0     C22517   8.188   6.986   9.157  0.5100  0.3639  0.8332
  164MOL0     O22518   8.165   6.843   9.173  0.3674 -0.5599 -0.3815
  164MOL0     C22519   8.268   6.757   9.188 -0.7793  0.4219 -0.0866
  164MOL0     C22520   8.231   6.621   9.214  0.0798  0.5301  0.2453
  164MOL0     C22521   8.325   6.520   9.232  0.4365 -0.4677  0.3612
  164MOL0     C22522   8.262   6.391   9.275 -0.5059 -0.3894  0.8576
  164MOL0     C22523   8.468   6.545   9.220 -0.5716 -0.2852  0.2460
  164MOL0     C22524   8.581   6.445   9.248 -0.2534 -0.1126  0.8552
  164MOL0     O22525   8.712   6.502   9.255  0.9875 -0.3355  0.5742
  164MOL0     C22526   8.826   6.424   9.257 -0.3814  0.0230  0.4765
  164MOL0     C22527   8.940   6.491   9.297  0.4608  0.2256  0.5753
  164MOL0     C22528   9.066   6.422   9.304 -0.0962  0.2905  1.3283
  164MOL0     C22529   9.076   6.287   9.260 -0.9283  0.1840 -0.4161
  164MOL0     O22530   9.184   6.211   9.281 -0.0943 -0.8409 -0.2648
  164MOL0     C22531   9.311   6.257   9.239  0.2777 -0.4133  0.4288
  164MOL0     C22532   9.387   6.265   9.361  0.3830  0.6837 -0.1228
  164MOL0     C22533   9.500   6.365   9.357 -0.0327  0.0515 -0.5776
  164MOL0     C22534   9.540   6.397   9.506  0.1758  0.6839  0.1986
  164MOL0     C22535   9.448   6.511   9.559  1.0619  0.2594 -0.1256
  164MOL0     C22536   9.493   6.561   9.698  0.4079 -0.1239 -0.3394
  164MOL0     C22537   9.639   6.543   9.732 -0.7186 -0.2318 -0.6786
  164MOL0     C22538   9.649   6.622   9.862  0.0169 -1.1737 -0.0029
  164MOL0    Cl22539   9.605   6.799   9.841 -0.3294  0.0415 -0.2303
  164MOL0     C22540   8.964   6.225   9.216  0.3117  1.3140 -0.0304
  164MOL0     C22541   8.840   6.296   9.211  0.2799  0.6358  0.4872
  164MOL0     O22542   8.559   6.323   9.240  0.8870  1.1445 -0.4737
  164MOL0     C22543   8.497   6.675   9.179 -0.5321 -0.4890  0.2108
  164MOL0     C22544   8.401   6.774   9.155 -0.6794  0.3443 -0.5659
  164MOL0     N22545   7.886   7.337   9.345  0.2049 -0.6874 -0.3674
  164MOL0     N22546   7.920   7.450   9.405  0.5440  1.2470  0.6565
  164MOL0     C22547   8.358   7.807   9.777 -0.3839  0.4492 -1.2322
  164MOL0     C22548   8.253   7.814   9.868  0.1245 -0.7062  1.1580
  164MOL0     C22549   7.987   7.714  10.241 -0.7936 -0.3674 -0.3720
  164MOL0     C22550   7.873   7.781  10.205 -0.2861  0.0102 -0.2907
  164MOL0     C22551   7.780   7.819  10.302 -0.6495 -0.5782  0.0123
  164MOL0     C22552   7.800   7.793  10.443 -0.3554  0.1287  0.6229
  164MOL0     O22553   7.709   7.817  10.541  0.0761 -0.1924  0.0801
  164MOL0     C22554   7.691   7.946  10.599 -0.6220  0.2235  0.7487
  164MOL0     C22555   7.828   7.993  10.668 -0.9877  0.2241  0.3735
  164MOL0     C22556   7.790   8.115  10.761 -0.1407  0.5834  0.4354
  164MOL0     C22557   7.909   8.204  10.784  0.1054  0.5510 -1.0402
  164MOL0     C22558   8.001   8.178  10.892  0.0054  0.3546 -0.1896
  164MOL0     C22559   8.072   8.157  10.986  0.3983 -0.1979  0.1765
  164MOL0     C22560   7.909   7.719  10.475 -1.5568 -0.6393 -0.3079
  164MOL0     C22561   8.009   7.684  10.379 -0.2824  1.3392  0.0964
  164MOL0     C22562   8.124   7.595  10.433 -1.5158 -0.5683  0.8423
  164MOL0     H22563   8.318   7.526  10.045  0.7595 -1.1331 -0.9622
  164MOL0     H22564   8.528   7.533   9.905 -0.1608  0.3280  0.4268
  164MOL0     H22565   8.581   7.502   9.673  1.1369 -0.2242  0.3998
  164MOL0     H22566   8.719   7.589   9.740 -0.2476 -1.2747  0.5095
  164MOL0     H22567   8.767   7.700   9.534  1.9388 -0.3877  0.0645
  164MOL0     H22568   8.769   7.530   9.504 -0.8555  0.1158 -0.6002
  164MOL0     H22569   8.517   7.705   9.438 -1.9218 -1.2770 -0.5556
  164MOL0     H22570   8.660   7.686   9.330  0.2934  0.1115  0.7284
  164MOL0     H22571   8.601   7.450   9.317  2.0071  3.0269 -1.0175
  164MOL0     H22572   8.500   7.457   9.463  1.9324  4.3574  3.7181
  164MOL0     H22573   8.369   7.443   9.252 -2.0631  1.4077 -2.5638
  164MOL0     H22574   8.426   7.603   9.208  4.2166 -0.3294  0.9723
  164MOL0     H22575   8.284   7.695   9.426  3.7255 -1.0513  3.6210
  164MOL0     H22576   8.192   7.609   9.307 -1.3431 -0.1121  0.5230
  164MOL0     H22577   8.310   7.537   9.574 -0.6089 -1.5637  1.1619
  164MOL0     H22578   8.261   7.395   9.472 -1.3064  0.4994 -3.9106
  164MOL0     H22579   8.105   7.504   9.657  2.5120 -2.9196 -0.1536
  164MOL0     H22580   8.086   7.630   9.532  2.1718  1.4916 -0.0503
  164MOL0     H22581   8.077   7.236   9.581 -2.3712 -2.3424 -0.0341
  164MOL0     H22582   7.817   7.073   9.338 -1.4974  0.7359  2.1004
  164MOL0     H22583   7.872   7.053   9.502 -2.9663  2.0407 -0.2415
  164MOL0     H22584   8.120   7.032   9.412  0.5487  2.4929 -0.4229
  164MOL0     H22585   8.019   6.912   9.355  0.1999 -1.6816  0.6013
  164MOL0     H22586   7.981   7.043   9.132 -0.4056 -4.3618  0.4945
  164MOL0     H22587   8.083   7.170   9.209  0.2953 -0.2923  0.4895
  164MOL0     H22588   8.210   6.998   9.051  1.3674 -0.7972  0.8573
  164MOL0     H22589   8.270   7.016   9.222  1.8406 -2.6647  0.7457
  164MOL0     H22590   8.124   6.613   9.231  0.2835  3.7216  5.0611
  164MOL0     H22591   8.156   6.397   9.251  0.0499 -0.6778 -1.9853
  164MOL0     H22592   8.278   6.391   9.383 -0.3810 -0.4622  0.8393
  164MOL0     H22593   8.306   6.303   9.226 -2.2808 -1.5585  1.2838
  164MOL0     H22594   8.928   6.595   9.324 -3.6754  0.8631 -2.6545
  164MOL0     H22595   9.150   6.486   9.331 -1.0838  1.9856  0.5628
  164MOL0     H22596   9.348   6.198   9.155 -1.1331  0.2082 -0.6790
  164MOL0     H22597   9.301   6.358   9.199 -0.8619 -0.5028  0.4399
  164MOL0     H22598   9.320   6.275   9.447 -0.0510 -2.0958 -0.0324
  164MOL0     H22599   9.437   6.170   9.383  0.7810  1.1620  1.1085
  164MOL0     H22600   9.471   6.461   9.313 -1.6672 -1.0722 -2.0912
  164MOL0     H22601   9.583   6.330   9.296 -1.0247 -1.6378 -1.0189
  164MOL0     H22602   9.645   6.428   9.501  1.5350 -2.7426  2.6947
  164MOL0     H22603   9.542   6.311   9.575 -1.3235  1.3322  1.0931
  164MOL0     H22604   9.456   6.590   9.484 -1.4581  1.0287  0.3036
  164MOL0     H22605   9.343   6.478   9.557  1.1336  0.0544 -1.2445
  164MOL0     H22606   9.440   6.503   9.774  0.9707  1.7614  1.5822
  164MOL0     H22607   9.472   6.668   9.704  0.5750 -0.1512  1.0272
  164MOL0     H22608   9.711   6.594   9.667  1.2190 -1.0126  0.7684
  164MOL0     H22609   9.660   6.439   9.756 -2.1396  0.0506  2.1969
  164MOL0     H22610   9.757   6.621   9.883  0.0709 -1.6839 -0.3048
  164MOL0     H22611   9.601   6.572   9.946  0.1441  0.3431  1.0266
  164MOL0     H22612   8.972   6.121   9.185  3.6523  0.4066  3.2028
  164MOL0     H22613   8.762   6.237   9.165  2.5748 -0.8611 -1.7305
  164MOL0     H22614   8.600   6.707   9.166 -0.7006 -0.0957 -0.2024
  164MOL0     H22615   8.435   6.871   9.120 -1.6581  2.2877  3.3040
  164MOL0     H22616   8.366   7.888   9.704 -0.0715  0.1804 -1.4969
  164MOL0     H22617   8.197   7.907   9.862  2.1889  0.7553  2.8675
  164MOL0     H22618   7.843   7.792  10.101  2.1438  0.5723 -0.9922
  164MOL0     H22619   7.687   7.861  10.265 -1.8544 -1.0114  2.3695
  164MOL0     H22620   7.667   8.017  10.519 -1.3455 -1.0737 -0.2398
  164MOL0     H22621   7.615   7.962  10.676 -1.6945  1.2965 -0.4680
  164MOL0     H22622   7.888   8.035  10.587  0.3754  3.7525  2.9871
  164MOL0     H22623   7.888   7.918  10.720  2.5283  0.5121 -2.8138
  164MOL0     H22624   7.710   8.181  10.726  1.0223  3.9860  3.5458
  164MOL0     H22625   7.761   8.074  10.859 -0.7153  0.9133  0.4114
  164MOL0     H22626   7.867   8.304  10.797  0.1684  0.5934 -1.1645
  164MOL0     H22627   7.974   8.205  10.695 -1.0523 -1.2179 -1.9781
  164MOL0     H22628   8.129   8.156  11.077  1.7500 -1.0511 -0.6622
  164MOL0     H22629   7.928   7.692  10.578  1.0525 -1.3992 -0.9096
  164MOL0     H22630   8.217   7.638  10.396 -2.4970  0.6893 -0.2648
  164MOL0     H22631   8.120   7.592  10.542 -0.1931 -1.0111  0.8922
  164MOL0     H22632   8.123   7.495  10.388  0.7723 -0.9545  1.5101
  165MOL0     O22633   2.348   0.321   3.553  0.5956 -0.0363 -0.0370
  165MOL0     C22634   2.273   0.398   3.601  0.3006  0.6404 -0.5086
  165MOL0     O22635   2.135   0.395   3.589 -0.3846  0.1443  0.5522
  165MOL0     C22636   2.070   0.297   3.523  0.1367  0.3546  0.1225
  165MOL0     C22637   1.948   0.336   3.471  0.5051  0.7916 -0.0339
  165MOL0     C22638   1.859   0.244   3.399 -0.1119 -0.4800 -0.5511
  165MOL0     C22639   1.911   0.122   3.360 -0.1815  0.0980 -0.1057
  165MOL0     O22640   1.817   0.057   3.288  1.0406 -0.6152 -0.0696
  165MOL0     C22641   1.838  -0.084   3.288  0.3875 -0.0749 -0.7791
  165MOL0     C22642   1.883  -0.117   3.150  0.0377 -0.5554  0.6343
  165MOL0     C22643   1.947  -0.255   3.127  0.5112 -0.1990 -0.2198
  165MOL0     C22644   2.083  -0.259   3.211 -0.1827 -0.1498 -0.0083
  165MOL0     C22645   2.184  -0.365   3.168  0.0760  0.4981  0.2199
  165MOL0     C22646   2.321  -0.344   3.243 -0.1382  0.1835 -0.4408
  165MOL0     C22647   2.433  -0.440   3.187  0.1047 -0.1841 -0.0971
  165MOL0     C22648   2.542  -0.438   3.302  0.4951  0.0312 -0.2415
  165MOL0     N22649   2.658  -0.524   3.269 -0.0259 -0.1903  0.1576
  165MOL0     C22650   2.692  -0.641   3.330 -0.0421  0.5276 -0.1916
  165MOL0     C22651   2.803  -0.675   3.256 -1.1165  0.2357  0.4866
  165MOL0     C22652   2.878  -0.802   3.278  0.4312 -0.1385  0.3673
  165MOL0     C22653   3.011  -0.771   3.345  0.1098  0.1638  0.4139
  165MOL0     C22654   2.992  -0.781   3.499 -0.6328 -0.1991  0.3948
  165MOL0     C22655   3.085  -0.888   3.558  0.1711  0.7943  0.0894
  165MOL0     O22656   3.045  -0.932   3.689 -0.2971  0.0913 -0.0668
  165MOL0     C22657   3.135  -0.985   3.779 -0.2688  0.4579 -0.3014
  165MOL0     C22658   3.243  -1.056   3.734 -0.2434 -0.3152 -0.0242
  165MOL0     C22659   3.334  -1.110   3.818 -0.3817 -0.0875 -1.1664
  165MOL0     C22660   3.456  -1.174   3.748  0.5778  0.5464  0.1093
  165MOL0     C22661   3.326  -1.076   3.958  0.2142  0.6937  0.3689
  165MOL0     C22662   3.425  -1.141   4.043  0.5231 -0.2493 -0.7669
  165MOL0     O22663   3.444  -1.274   4.031 -0.0808 -0.1980 -0.2464
  165MOL0     C22664   3.538  -1.338   4.107  0.2669 -0.2135  0.1950
  165MOL0     C22665   3.512  -1.473   4.137 -0.2297  0.1963  0.1090
  165MOL0     C22666   3.605  -1.552   4.209 -0.1216 -0.8942 -0.2151
  165MOL0     C22667   3.728  -1.499   4.255  0.1992  0.3422 -0.0286
  165MOL0     O22668   3.815  -1.584   4.315 -0.1448 -0.0303  0.1347
  165MOL0     C22669   3.783  -1.640   4.441  0.5813  0.9998 -0.5140
  165MOL0     C22670   3.674  -1.751   4.431  0.1379  0.3030 -0.0875
  165MOL0     C22671   3.695  -1.853   4.543  0.0290 -0.3719  0.1564
  165MOL0     C22672   3.601  -1.969   4.541 -0.0440 -0.8549 -0.9236
  165MOL0     C22673   3.558  -2.013   4.681  0.7923 -0.7903  0.0442
  165MOL0     C22674   3.673  -2.026   4.787  0.5947 -0.8032  0.0819
  165MOL0     C22675   3.773  -2.140   4.759 -0.2068  0.6360  0.6079
  165MOL0     C22676   3.863  -2.193   4.866  0.7799 -0.2330  0.3094
  165MOL0    Cl22677   3.954  -2.055   4.926 -0.2261  0.3253 -0.1969
  165MOL0     C22678   3.750  -1.362   4.236 -0.6501 -0.2258 -0.1377
  165MOL0     C22679   3.654  -1.285   4.169 -1.3128 -0.0137  0.3818
  165MOL0     O22680   3.454  -1.080   4.144  0.1317 -0.8230  0.6025
  165MOL0     C22681   3.219  -1.003   4.009 -0.4491 -0.2514 -0.2647
  165MOL0     C22682   3.122  -0.963   3.912  0.2012  0.2554 -0.6766
  165MOL0     N22683   2.821  -0.593   3.150 -0.0532 -0.0304  0.0523
  165MOL0     N22684   2.734  -0.495   3.160 -0.8816 -0.5195  0.6761
  165MOL0     C22685   2.046   0.090   3.393  0.4667 -0.0352  0.1274
  165MOL0     C22686   2.112   0.168   3.486 -0.0403 -0.9903 -0.1773
  165MOL0     C22687   2.329   0.520   3.672 -0.2007  0.0212 -0.1315
  165MOL0     C22688   2.466   0.546   3.642  0.2382 -0.4975 -0.8053
  165MOL0     C22689   2.530   0.660   3.697 -0.4050 -0.3926 -0.0141
  165MOL0     C22690   2.463   0.751   3.784  0.6211  0.7993  0.3580
  165MOL0     O22691   2.516   0.850   3.858  0.0318 -0.4687  0.0071
  165MOL0     C22692   2.659   0.857   3.860  0.6813  0.1283 -0.1271
  165MOL0     C22693   2.727   0.753   3.950  0.7062 -0.2184  1.0227
  165MOL0     C22694   2.879   0.791   3.960  0.4242  0.0614  0.5199
  165MOL0     C22695   2.935   0.808   4.099  0.4736 -0.5537  1.1337
  165MOL0     C22696   2.883   0.916   4.176  0.0789 -0.0730 -0.8690
  165MOL0     C22697   2.830   0.992   4.258 -0.4624  0.4824  0.8735
  165MOL0     C22698   2.341   0.710   3.821  0.2438 -0.6415  0.1612
  165MOL0     C22699   2.270   0.604   3.762 -0.0308  0.3555  0.3940
  165MOL0     C22700   2.129   0.579   3.794  1.0105  0.3122 -0.4201
  165MOL0     H22701   1.932   0.443   3.475  0.9262  0.8294  2.0294
  165MOL0     H22702   1.769   0.289   3.359 -0.5709  1.5028  2.4014
  165MOL0     H22703   1.745  -0.133   3.320  1.5341 -0.1442  2.8686
  165MOL0     H22704   1.912  -0.112   3.364  0.1379  2.0520  0.3098
  165MOL0     H22705   1.795  -0.109   3.085  0.8858 -0.0948 -0.5065
  165MOL0     H22706   1.958  -0.041   3.124 -0.9753 -0.2740 -1.7544
  165MOL0     H22707   1.882  -0.332   3.170  3.6515 -2.1180  1.4771
  165MOL0     H22708   1.959  -0.281   3.021  1.3725 -0.5674 -0.0422
  165MOL0     H22709   2.130  -0.164   3.187 -1.2209  0.6809  1.1488
  165MOL0     H22710   2.061  -0.270   3.318 -1.0342 -2.7593 -0.3743
  165MOL0     H22711   2.201  -0.347   3.062  1.1546  1.3149  0.5146
  165MOL0     H22712   2.149  -0.468   3.179 -0.2182  0.1780 -2.7661
  165MOL0     H22713   2.355  -0.243   3.266 -1.8943  0.4897  1.0173
  165MOL0     H22714   2.300  -0.378   3.345  1.5286  0.1724 -0.0793
  165MOL0     H22715   2.476  -0.383   3.103  2.3107  1.4545  1.9848
  165MOL0     H22716   2.394  -0.536   3.152 -0.8874  1.2611 -3.3289
  165MOL0     H22717   2.561  -0.331   3.314 -0.7055  0.3018 -0.5620
  165MOL0     H22718   2.511  -0.472   3.401  0.2657  1.9458  0.3931
  165MOL0     H22719   2.650  -0.689   3.417 -0.3702  0.1004 -0.5820
  165MOL0     H22720   2.906  -0.825   3.175  3.0103  1.9323  0.4836
  165MOL0     H22721   2.809  -0.874   3.322 -1.3873  0.0949 -1.9062
  165MOL0     H22722   3.093  -0.833   3.310  0.2617  0.5688  0.0478
  165MOL0     H22723   3.051  -0.676   3.310 -0.2110 -1.0156 -3.5986
  165MOL0     H22724   3.032  -0.690   3.544 -0.3038  0.2133 -0.6992
  165MOL0     H22725   2.886  -0.796   3.521 -0.2014 -0.9022  2.1527
  165MOL0     H22726   3.086  -0.979   3.498 -3.2035 -1.1394  2.5794
  165MOL0     H22727   3.189  -0.854   3.565 -0.4743  2.8696  0.3278
  165MOL0     H22728   3.236  -1.089   3.630 -1.8168  2.3127 -0.8461
  165MOL0     H22729   3.541  -1.186   3.816 -0.5280 -0.9249  1.2929
  165MOL0     H22730   3.495  -1.125   3.658  2.2853  0.4883  0.7715
  165MOL0     H22731   3.432  -1.275   3.714 -1.0042  1.4156 -1.5041
  165MOL0     H22732   3.421  -1.519   4.100 -1.5219  2.0998  0.7630
  165MOL0     H22733   3.585  -1.658   4.216 -1.7012 -0.5314  1.6849
  165MOL0     H22734   3.871  -1.683   4.489  0.9666  0.1593 -1.9165
  165MOL0     H22735   3.740  -1.556   4.497 -1.1137  1.8351 -2.9081
  165MOL0     H22736   3.574  -1.708   4.427 -0.4681 -1.1457 -1.7626
  165MOL0     H22737   3.691  -1.805   4.338  1.5815  0.0167  0.3209
  165MOL0     H22738   3.678  -1.788   4.629 -1.4663 -1.3130  0.6075
  165MOL0     H22739   3.801  -1.878   4.549  0.5078  1.7290  1.8163
  165MOL0     H22740   3.648  -2.054   4.490 -1.0022  0.8506 -5.1069
  165MOL0     H22741   3.512  -1.947   4.481  1.2463 -1.3183 -3.1116
  165MOL0     H22742   3.483  -1.947   4.725 -0.3511 -1.2861 -1.0974
  165MOL0     H22743   3.506  -2.106   4.660  1.8426 -1.6292  1.0440
  165MOL0     H22744   3.622  -2.042   4.882 -4.8029  0.3495 -2.2440
  165MOL0     H22745   3.726  -1.930   4.786  3.1777 -2.0833 -2.4579
  165MOL0     H22746   3.834  -2.099   4.678 -1.7441  1.5252 -0.1482
  165MOL0     H22747   3.707  -2.223   4.729  1.0661 -0.4610  0.7377
  165MOL0     H22748   3.922  -2.278   4.833 -0.2916 -1.8360  2.3375
  165MOL0     H22749   3.803  -2.225   4.951 -0.4723  0.6718 -0.1955
  165MOL0     H22750   3.841  -1.320   4.277 -1.6930  1.3558  0.6487
  165MOL0     H22751   3.678  -1.182   4.147 -1.0293 -0.7436 -3.3850
  165MOL0     H22752   3.220  -0.970   4.112 -0.1005  0.2044 -0.4115
  165MOL0     H22753   3.046  -0.899   3.954  0.8336  0.5500  0.0490
  165MOL0     H22754   2.081  -0.003   3.350  0.4244 -0.1706  0.3861
  165MOL0     H22755   2.212   0.133   3.509  0.4238  0.8246  0.7188
  165MOL0     H22756   2.528   0.486   3.576  1.5582  0.1500 -0.2008
  165MOL0     H22757   2.636   0.664   3.671 -0.7849 -1.4881 -1.9726
  165MOL0     H22758   2.703   0.856   3.760 -0.7288 -1.9648 -0.7896
  165MOL0     H22759   2.689   0.956   3.897  1.6064  0.2950 -1.2296
  165MOL0     H22760   2.705   0.658   3.899  0.9262  1.3725 -2.2802
  165MOL0     H22761   2.677   0.747   4.047 -0.6211  2.3482  0.5646
  165MOL0     H22762   2.940   0.715   3.909 -2.4470 -1.1168 -1.4771
  165MOL0     H22763   2.893   0.892   3.921 -0.3378  0.3206  0.8932
  165MOL0     H22764   3.044   0.810   4.095  0.4358 -0.0995  0.2202
  165MOL0     H22765   2.904   0.719   4.155 -1.9041 -1.4426 -1.3715
  165MOL0     H22766   2.781   1.036   4.342  0.4204  1.4388  0.8994
  165MOL0     H22767   2.284   0.771   3.891  0.6624  0.9036 -0.7919
  165MOL0     H22768   2.090   0.644   3.872 -3.4080  0.4167 -2.4009
  165MOL0     H22769   2.076   0.614   3.705 -1.5090  1.1781  1.3212
  165MOL0     H22770   2.106   0.475   3.821 -1.2074  1.4497  2.6413
  166MOL0     O22771   5.389   5.309  11.209  0.3018  0.0962 -0.2642
  166MOL0     C22772   5.272   5.324  11.181 -0.7079 -0.7492 -0.2358
  166MOL0     O22773   5.167   5.306  11.271  0.0236 -0.0488 -1.4197
  166MOL0     C22774   5.212   5.292  11.401  0.4321 -0.4028  0.0542
  166MOL0     C22775   5.285   5.385  11.475  0.0168  0.6140 -0.4186
  166MOL0     C22776   5.295   5.379  11.615  0.5205 -0.2752  0.6311
  166MOL0     C22777   5.221   5.283  11.681 -0.3866  1.2055 -0.3089
  166MOL0     O22778   5.207   5.277  11.817 -0.5463 -0.2120  0.8021
  166MOL0     C22779   5.305   5.178  11.861  1.1340  0.0479 -0.9411
  166MOL0     C22780   5.455   5.215  11.833  0.7656 -0.3439 -0.9163
  166MOL0     C22781   5.541   5.123  11.920 -0.7411  0.3879  0.4843
  166MOL0     C22782   5.550   4.979  11.871  0.8534  0.4166  0.2132
  166MOL0     C22783   5.653   4.881  11.933 -0.3825 -0.5326 -0.2383
  166MOL0     C22784   5.649   4.888  12.083  0.3920 -0.0545 -0.4455
  166MOL0     C22785   5.736   4.784  12.143  0.2241 -0.5311 -0.2640
  166MOL0     C22786   5.893   4.789  12.097 -0.2306 -0.5709 -0.0825
  166MOL0     N22787   5.973   4.717  12.195  0.4081 -0.3632  0.2158
  166MOL0     C22788   6.023   4.771  12.312  0.3059 -0.0391  0.3164
  166MOL0     C22789   6.096   4.668  12.357 -0.8655  0.8242 -0.5438
  166MOL0     C22790   6.165   4.661  12.487  0.2335 -0.6511 -0.1300
  166MOL0     C22791   6.311   4.712  12.459  0.5786 -0.7672 -0.2652
  166MOL0     C22792   6.388   4.597  12.388 -0.1632  0.6246 -0.6267
  166MOL0     C22793   6.539   4.632  12.368 -0.3609  0.2141 -0.5359
  166MOL0     O22794   6.604   4.659  12.490  0.3523 -0.0894 -0.5374
  166MOL0     C22795   6.738   4.701  12.490  0.3542  0.1560  0.3161
  166MOL0     C22796   6.798   4.673  12.613  0.8191  0.3515  0.0420
  166MOL0     C22797   6.934   4.700  12.640 -0.3941 -0.9848 -0.8880
  166MOL0     C22798   7.000   4.656  12.769  0.3367  0.8199 -0.2251
  166MOL0     C22799   7.012   4.755  12.531  0.4376 -0.7878  0.0814
  166MOL0     C22800   7.155   4.784  12.544  0.0339  0.0012 -0.2286
  166MOL0     O22801   7.191   4.875  12.646 -0.1743 -0.2789  0.2808
  166MOL0     C22802   7.322   4.913  12.650  0.0984  0.3642 -0.6959
  166MOL0     C22803   7.374   4.994  12.546  0.4317 -0.3389  0.4985
  166MOL0     C22804   7.498   5.052  12.553 -0.4305 -0.4504  0.7576
  166MOL0     C22805   7.573   5.039  12.667 -0.4265  0.2118 -0.4160
  166MOL0     O22806   7.700   5.083  12.695  0.4787  0.1737  0.6776
  166MOL0     C22807   7.767   5.141  12.583  0.5617 -0.0288 -0.3437
  166MOL0     C22808   7.908   5.184  12.615  0.2761  0.3205  0.5648
  166MOL0     C22809   7.979   5.260  12.506 -0.2733  0.6698  1.1246
  166MOL0     C22810   8.000   5.180  12.376 -0.7671 -0.0256 -0.0801
  166MOL0     C22811   8.117   5.079  12.387  0.0473  0.0542 -1.3540
  166MOL0     C22812   8.245   5.155  12.364 -0.1496  0.1210  0.3414
  166MOL0     C22813   8.370   5.063  12.347  0.9401 -0.7973  0.1225
  166MOL0     C22814   8.504   5.153  12.354  0.5411  0.9572 -0.4660
  166MOL0    Cl22815   8.507   5.261  12.494 -0.0878 -0.0701 -0.6174
  166MOL0     C22816   7.525   4.960  12.781  0.7337  0.8599  0.4175
  166MOL0     C22817   7.399   4.899  12.768 -0.2232 -0.6433  0.1973
  166MOL0     O22818   7.228   4.742  12.459 -0.3015 -1.0383  0.3503
  166MOL0     C22819   6.948   4.797  12.409 -0.0882 -0.4759  0.0773
  166MOL0     C22820   6.816   4.761  12.396  0.4480 -0.8085  0.7084
  166MOL0     N22821   6.082   4.556  12.278  0.2861  0.4825 -0.7714
  166MOL0     N22822   6.003   4.583  12.179 -0.3221 -0.1869  0.4856
  166MOL0     C22823   5.158   5.181  11.611 -0.1832  0.2639 -0.3041
  166MOL0     C22824   5.157   5.186  11.477 -0.4503  0.2362  0.5974
  166MOL0     C22825   5.235   5.350  11.040  0.4498 -0.4432  0.3127
  166MOL0     C22826   5.111   5.419  11.012 -0.7500  0.4784 -0.8470
  166MOL0     C22827   5.068   5.428  10.874  0.2000 -0.6662 -0.1375
  166MOL0     C22828   5.150   5.385  10.766  0.2900  0.2731 -0.7135
  166MOL0     O22829   5.130   5.387  10.634 -0.6511  0.8951 -0.4629
  166MOL0     C22830   5.033   5.465  10.567  0.6626 -0.2585  0.0158
  166MOL0     C22831   5.086   5.606  10.524  0.3517  1.1151  0.9491
  166MOL0     C22832   5.212   5.607  10.428  0.4326  0.2177  0.1442
  166MOL0     C22833   5.241   5.745  10.365  0.4383 -0.1646 -0.0505
  166MOL0     C22834   5.275   5.837  10.472 -0.6879  0.4130  0.3307
  166MOL0     C22835   5.284   5.908  10.565 -0.1151 -0.0234  0.1702
  166MOL0     C22836   5.269   5.316  10.801 -1.2581 -0.8494  0.1393
  166MOL0     C22837   5.311   5.295  10.936 -0.3575 -0.3745 -0.0850
  166MOL0     C22838   5.433   5.205  10.949 -0.4643  0.3924  0.3636
  166MOL0     H22839   5.332   5.467  11.421  1.3824  0.6635  0.8050
  166MOL0     H22840   5.329   5.462  11.676  2.4865 -2.6743  3.0839
  166MOL0     H22841   5.273   5.079  11.829 -4.7569  1.9066 -1.9374
  166MOL0     H22842   5.299   5.183  11.970  0.3771  1.4394 -1.0214
  166MOL0     H22843   5.480   5.203  11.728 -1.4008  1.5966 -1.7563
  166MOL0     H22844   5.473   5.319  11.863 -0.3712 -0.8304  1.7739
  166MOL0     H22845   5.648   5.142  11.928  0.1274 -2.9723 -1.3824
  166MOL0     H22846   5.513   5.123  12.026  0.8270  0.7566  0.9203
  166MOL0     H22847   5.452   4.936  11.892 -0.8906  3.1308 -1.7511
  166MOL0     H22848   5.563   4.976  11.763 -0.3744  0.2286  0.0616
  166MOL0     H22849   5.751   4.900  11.888  0.7716 -1.4002  1.7842
  166MOL0     H22850   5.626   4.779  11.905  1.6649 -1.5993  1.4276
  166MOL0     H22851   5.676   4.989  12.116 -2.0836  0.1228  1.2778
  166MOL0     H22852   5.547   4.865  12.115  0.3234  2.7861  1.7694
  166MOL0     H22853   5.688   4.690  12.111  0.6467 -0.4402 -1.1761
  166MOL0     H22854   5.731   4.804  12.250 -2.9152  4.2263 -1.0106
  166MOL0     H22855   5.907   4.732  12.005  2.2265 -1.1233  0.5520
  166MOL0     H22856   5.926   4.891  12.080  0.4258 -0.8977 -0.7957
  166MOL0     H22857   6.004   4.869  12.356 -2.5356 -1.2412  2.0370
  166MOL0     H22858   6.176   4.555  12.512 -1.0654 -0.2851  2.1935
  166MOL0     H22859   6.122   4.730  12.560  0.7583 -0.1350 -0.3003
  166MOL0     H22860   6.312   4.799  12.392  0.3816 -1.6207 -1.3997
  166MOL0     H22861   6.368   4.746  12.547  0.8000  2.8910 -1.6198
  166MOL0     H22862   6.372   4.497  12.430 -1.0939  0.7833 -0.5926
  166MOL0     H22863   6.342   4.586  12.289  1.0040 -2.6844 -0.9162
  166MOL0     H22864   6.598   4.557  12.316  2.4074  0.7157  1.5831
  166MOL0     H22865   6.540   4.721  12.305  3.3185 -0.4431 -1.6089
  166MOL0     H22866   6.735   4.621  12.686 -2.2024 -2.1280 -3.8877
  166MOL0     H22867   7.070   4.735  12.797  0.9355  0.6863 -1.2716
  166MOL0     H22868   7.043   4.556  12.778 -2.9395 -0.5760  1.6202
  166MOL0     H22869   6.924   4.652  12.848  0.7884 -0.6781  0.1740
  166MOL0     H22870   7.315   5.009  12.456  3.8834  0.9616 -1.7495
  166MOL0     H22871   7.536   5.118  12.476 -0.0762  0.4044  1.6504
  166MOL0     H22872   7.763   5.069  12.501  0.7589  0.0725 -0.4455
  166MOL0     H22873   7.705   5.227  12.558  0.5294  0.1888  0.4416
  166MOL0     H22874   7.914   5.245  12.706 -0.9526  0.1280  0.7853
  166MOL0     H22875   7.969   5.098  12.644 -1.2068 -2.2785 -3.3208
  166MOL0     H22876   8.068   5.313  12.541 -0.2795  2.6368 -1.4752
  166MOL0     H22877   7.902   5.332  12.476  0.7304  0.6869 -1.7407
  166MOL0     H22878   8.022   5.240  12.287  3.0208 -2.2528 -0.8961
  166MOL0     H22879   7.905   5.134  12.348 -1.0223 -0.1291  0.9272
  166MOL0     H22880   8.136   5.041  12.487 -0.5255  1.6129 -0.6305
  166MOL0     H22881   8.112   4.993  12.319  0.7105 -0.7450 -0.4139
  166MOL0     H22882   8.263   5.237  12.434  1.3742  1.2153 -1.2287
  166MOL0     H22883   8.241   5.201  12.264  1.8814  2.4300  1.2146
  166MOL0     H22884   8.375   5.003  12.256 -0.0056 -0.5024 -0.1314
  166MOL0     H22885   8.371   4.990  12.429  0.9928 -1.6113 -0.5929
  166MOL0     H22886   8.511   5.207  12.259 -1.1996  0.5162 -0.8769
  166MOL0     H22887   8.591   5.086  12.357  1.0444  1.6228  0.8822
  166MOL0     H22888   7.591   4.925  12.859 -1.6799 -1.6204  1.5349
  166MOL0     H22889   7.361   4.841  12.851 -1.4550 -0.4829 -0.2397
  166MOL0     H22890   6.994   4.832  12.317 -2.7850 -3.0073 -2.4644
  166MOL0     H22891   6.779   4.764  12.294  0.5349 -1.6581  0.6405
  166MOL0     H22892   5.104   5.103  11.664 -3.1477  1.0058 -1.9735
  166MOL0     H22893   5.091   5.120  11.421 -1.4890  1.7018 -0.0012
  166MOL0     H22894   5.031   5.463  11.071  1.3867  1.1981  1.7284
  166MOL0     H22895   4.966   5.462  10.855  0.1887 -1.8386 -2.4951
  166MOL0     H22896   5.004   5.406  10.479  1.7046 -1.8615  0.7006
  166MOL0     H22897   4.942   5.495  10.620  0.5628 -1.5367  0.6036
  166MOL0     H22898   5.108   5.657  10.618 -0.0692 -0.3734  1.8790
  166MOL0     H22899   5.004   5.659  10.475 -0.3819 -2.1837 -1.8021
  166MOL0     H22900   5.305   5.572  10.474  1.8781  0.6387 -2.2881
  166MOL0     H22901   5.190   5.536  10.348 -2.2942  0.2600  0.7492
  166MOL0     H22902   5.145   5.779  10.326 -0.0119 -0.9985  0.2983
  166MOL0     H22903   5.310   5.742  10.280 -1.0081 -1.7162 -1.2296
  166MOL0     H22904   5.284   5.969  10.653  0.8822 -0.4395  0.4725
  166MOL0     H22905   5.323   5.296  10.709  1.2016 -1.2036  1.5836
  166MOL0     H22906   5.520   5.234  11.009  0.1229 -0.3371 -0.1162
  166MOL0     H22907   5.406   5.118  11.010 -2.1310 -0.3513 -1.3371
  166MOL0     H22908   5.471   5.165  10.855  0.7189 -0.1356  1.0414
  167MOL0     O22909   3.105   8.332   5.644 -0.8456 -0.2844  0.1606
  167MOL0     C22910   3.194   8.352   5.727  0.7364 -1.2740 -0.8986
  167MOL0     O22911   3.182   8.439   5.831  0.9085  0.4784 -0.4084
  167MOL0     C22912   3.073   8.531   5.819  0.1839 -0.1348  0.4912
  167MOL0     C22913   3.008   8.588   5.700  0.1812 -0.5330 -0.7337
  167MOL0     C22914   2.900   8.671   5.709  0.0894 -0.0628 -1.3512
  167MOL0     C22915   2.846   8.704   5.830 -0.3014 -0.1384 -0.2337
  167MOL0     O22916   2.753   8.808   5.829 -0.4430 -0.5278  0.2423
  167MOL0     C22917   2.673   8.857   5.722 -0.6691  0.2068 -0.1561
  167MOL0     C22918   2.589   8.959   5.786  1.0843 -0.1892  0.0267
  167MOL0     C22919   2.466   8.982   5.697  1.2337 -0.3157 -0.7182
  167MOL0     C22920   2.378   9.104   5.754  0.2102  0.0459  0.2194
  167MOL0     C22921   2.270   9.137   5.644 -0.5533 -0.6257 -0.6313
  167MOL0     C22922   2.158   9.235   5.699 -0.2045  0.6278  0.0065
  167MOL0     C22923   2.070   9.287   5.586 -0.0047  0.2469 -0.1616
  167MOL0     C22924   2.016   9.177   5.493  1.3035  0.2653 -0.7485
  167MOL0     N22925   1.936   9.086   5.580 -0.6898  0.0298  0.4099
  167MOL0     C22926   1.830   9.132   5.648  0.2867  0.1977 -0.4520
  167MOL0     C22927   1.796   9.032   5.734 -1.1364  0.2327  1.0105
  167MOL0     C22928   1.679   9.041   5.832  1.0941 -0.3967 -0.5423
  167MOL0     C22929   1.646   8.921   5.922 -0.7024 -0.0601  0.0475
  167MOL0     C22930   1.551   8.957   6.042 -0.0660 -0.0374  0.3939
  167MOL0     C22931   1.491   8.824   6.084 -0.0680  0.1250  0.3124
  167MOL0     O22932   1.373   8.856   6.164 -0.6785  0.5792  0.4385
  167MOL0     C22933   1.366   8.826   6.294 -0.1078 -0.5427  0.0421
  167MOL0     C22934   1.242   8.794   6.346 -0.4338  0.1690  0.3838
  167MOL0     C22935   1.224   8.790   6.483 -0.1261  0.0748 -0.7419
  167MOL0     C22936   1.097   8.738   6.530 -0.0963  0.2793 -0.4182
  167MOL0     C22937   1.318   8.842   6.571  0.0359 -0.3774  0.2744
  167MOL0     C22938   1.301   8.845   6.722  0.0867  0.4616  0.3979
  167MOL0     O22939   1.221   8.759   6.793  0.2588 -0.0486  0.1541
  167MOL0     C22940   1.209   8.763   6.929 -0.0754 -0.2117  0.7543
  167MOL0     C22941   1.234   8.648   6.990  0.5453  0.2881  0.3898
  167MOL0     C22942   1.237   8.648   7.131  0.1919 -0.3955 -0.2653
  167MOL0     C22943   1.212   8.765   7.201 -0.3215 -0.2416  0.1248
  167MOL0     O22944   1.209   8.777   7.335  0.3624  0.7801  0.0329
  167MOL0     C22945   1.179   8.657   7.408 -0.6448  0.6408 -0.7550
  167MOL0     C22946   1.151   8.668   7.560  0.4310  0.3250 -0.8172
  167MOL0     C22947   1.155   8.531   7.635  1.1399  0.2416  0.4674
  167MOL0     C22948   1.048   8.515   7.740  0.5892 -0.4073  0.0470
  167MOL0     C22949   1.091   8.398   7.819 -0.1203 -0.1315  0.8262
  167MOL0     C22950   1.102   8.259   7.744 -0.0445 -0.5130 -0.7065
  167MOL0     C22951   0.953   8.218   7.711 -0.4893 -0.9633 -0.2039
  167MOL0     C22952   0.949   8.074   7.665  0.1412  0.0199 -1.2638
  167MOL0    Cl22953   1.029   8.053   7.511  0.4732 -0.0643 -0.2641
  167MOL0     C22954   1.193   8.888   7.131  1.2720 -0.2886 -0.4217
  167MOL0     C22955   1.191   8.878   6.993  0.0778 -0.0868 -0.2974
  167MOL0     O22956   1.373   8.931   6.770  0.0877 -0.7346 -0.4319
  167MOL0     C22957   1.446   8.869   6.521  0.4297 -0.1515  0.4364
  167MOL0     C22958   1.469   8.863   6.380  0.5452  0.6241 -0.7695
  167MOL0     N22959   1.890   8.923   5.715 -0.5754 -0.2817  0.7037
  167MOL0     N22960   1.963   8.957   5.609 -0.2220  0.3552 -0.1179
  167MOL0     C22961   2.901   8.659   5.942 -1.0241 -0.2736  0.1483
  167MOL0     C22962   3.012   8.572   5.941 -0.1604 -0.8245  0.3830
  167MOL0     C22963   3.318   8.275   5.718  0.5877 -0.5254  0.2842
  167MOL0     C22964   3.436   8.332   5.777  0.2176  0.2442 -1.1708
  167MOL0     C22965   3.559   8.268   5.769  1.1354 -0.2265  0.6138
  167MOL0     C22966   3.572   8.145   5.709 -0.5352 -1.2291  0.4054
  167MOL0     O22967   3.689   8.069   5.714  0.1653 -0.2689  0.4748
  167MOL0     C22968   3.807   8.105   5.785  0.5455 -0.5732 -0.4519
  167MOL0     C22969   3.896   8.200   5.706 -0.3307 -0.4090 -0.1976
  167MOL0     C22970   3.925   8.152   5.568  0.8825  0.3217  0.1078
  167MOL0     C22971   4.022   8.225   5.490 -0.4046 -0.0760 -0.4793
  167MOL0     C22972   3.973   8.356   5.458 -0.2306 -0.6769 -0.3643
  167MOL0     C22973   3.933   8.469   5.435  0.0809 -1.2803 -0.6234
  167MOL0     C22974   3.459   8.080   5.657 -0.2729 -0.2997 -0.1751
  167MOL0     C22975   3.340   8.147   5.651  0.3127 -0.4289 -0.0604
  167MOL0     C22976   3.227   8.071   5.593  0.7575 -0.3321 -0.4637
  167MOL0     H22977   3.055   8.565   5.605  0.3859 -1.8575 -0.3295
  167MOL0     H22978   2.870   8.728   5.622  5.0439  1.8044 -2.1667
  167MOL0     H22979   2.603   8.783   5.680  0.3742 -2.1493  1.9604
  167MOL0     H22980   2.733   8.902   5.644  0.5987 -0.8393  0.1821
  167MOL0     H22981   2.552   8.919   5.881  1.5328  2.5842  1.4665
  167MOL0     H22982   2.643   9.053   5.798 -1.7646  1.6363 -0.4766
  167MOL0     H22983   2.499   9.000   5.594 -2.6983 -2.3277 -2.5500
  167MOL0     H22984   2.395   8.898   5.702 -2.0746  2.3334  2.1915
  167MOL0     H22985   2.337   9.080   5.852  4.2960 -0.1780  2.0229
  167MOL0     H22986   2.442   9.191   5.771 -1.0295  0.7271  1.6060
  167MOL0     H22987   2.210   9.050   5.613 -0.6305 -0.8543  0.1405
  167MOL0     H22988   2.317   9.184   5.558 -0.1890  0.4508  0.1360
  167MOL0     H22989   2.090   9.185   5.769 -0.5603 -0.0132 -0.7848
  167MOL0     H22990   2.209   9.308   5.763  2.7268 -2.0594  1.0430
  167MOL0     H22991   2.110   9.367   5.523 -0.8987  1.3322  0.5818
  167MOL0     H22992   1.984   9.340   5.629  0.0810  0.5246 -0.3269
  167MOL0     H22993   1.949   9.222   5.419 -2.6835 -1.7448  1.3141
  167MOL0     H22994   2.091   9.116   5.443  0.3386 -2.4299  0.8738
  167MOL0     H22995   1.792   9.234   5.642 -1.1602 -0.2001  1.1440
  167MOL0     H22996   1.587   9.091   5.801  1.9910  3.4992  2.2942
  167MOL0     H22997   1.725   9.115   5.897 -0.9646  2.5642 -2.1988
  167MOL0     H22998   1.601   8.833   5.874 -0.0173 -1.2161  1.4276
  167MOL0     H22999   1.743   8.889   5.961 -0.6017  0.5691  0.3165
  167MOL0     H23000   1.601   9.006   6.126  1.1595  0.5558 -0.6422
  167MOL0     H23001   1.470   9.020   6.005  0.2074 -0.2396 -0.5666
  167MOL0     H23002   1.473   8.758   5.999  0.1836  0.8534 -0.3127
  167MOL0     H23003   1.563   8.762   6.139  3.2611  0.7137 -2.9410
  167MOL0     H23004   1.158   8.780   6.279 -0.2880 -0.1712  0.2741
  167MOL0     H23005   1.100   8.630   6.550 -1.1645  0.0043 -1.6640
  167MOL0     H23006   1.021   8.757   6.455 -1.2076 -1.0259  0.3170
  167MOL0     H23007   1.055   8.796   6.612 -2.6730  1.6707 -2.5984
  167MOL0     H23008   1.254   8.562   6.927  0.6920  2.9656 -3.5547
  167MOL0     H23009   1.266   8.558   7.184 -2.3382 -2.4728 -2.1757
  167MOL0     H23010   1.086   8.619   7.366 -0.7738 -0.6815  0.6284
  167MOL0     H23011   1.251   8.575   7.395  0.1577  1.0228  0.9501
  167MOL0     H23012   1.232   8.728   7.603  0.3455  0.4395 -0.8162
  167MOL0     H23013   1.048   8.701   7.573  0.0263 -0.9507 -0.6357
  167MOL0     H23014   1.255   8.513   7.675  1.1674 -1.7385 -0.3769
  167MOL0     H23015   1.142   8.450   7.563  2.9073 -0.4683  0.8956
  167MOL0     H23016   0.944   8.508   7.708 -0.6491  0.1412  3.4466
  167MOL0     H23017   1.062   8.604   7.803  1.3265 -0.9133  0.6147
  167MOL0     H23018   1.182   8.424   7.873  0.7641 -1.8629  0.2314
  167MOL0     H23019   1.022   8.369   7.899  1.5348 -2.9497  1.3321
  167MOL0     H23020   1.133   8.179   7.812  1.2774 -2.2176 -3.1695
  167MOL0     H23021   1.173   8.263   7.661 -0.4070  2.2093 -1.0059
  167MOL0     H23022   0.919   8.279   7.626  2.4714  1.6408  0.2658
  167MOL0     H23023   0.882   8.237   7.791 -2.7152  1.9814 -2.6414
  167MOL0     H23024   0.847   8.035   7.670  1.1607 -2.7789  2.4423
  167MOL0     H23025   1.003   8.017   7.741  2.9019 -1.3691 -4.0619
  167MOL0     H23026   1.180   8.984   7.180  2.8831 -0.3066  0.1139
  167MOL0     H23027   1.177   8.972   6.941 -0.4067 -1.4392 -2.7926
  167MOL0     H23028   1.516   8.908   6.595 -0.4587  1.1268  0.6416
  167MOL0     H23029   1.565   8.889   6.338  1.2740 -2.8895 -1.5918
  167MOL0     H23030   2.858   8.692   6.036  0.9492 -0.5409  1.1970
  167MOL0     H23031   3.056   8.527   6.029 -0.6514 -1.7959  0.1522
  167MOL0     H23032   3.436   8.426   5.832  4.2602 -0.9299  1.2803
  167MOL0     H23033   3.645   8.323   5.807 -0.0226  0.4936  2.3336
  167MOL0     H23034   3.774   8.157   5.875 -2.9368 -0.0953 -1.8433
  167MOL0     H23035   3.854   8.009   5.808 -0.1812 -1.4744 -2.4297
  167MOL0     H23036   3.991   8.212   5.760  0.4119 -2.4243 -0.9525
  167MOL0     H23037   3.855   8.301   5.694  2.5486  0.5468 -4.0868
  167MOL0     H23038   3.967   8.052   5.581  1.4780  0.5538 -0.0112
  167MOL0     H23039   3.833   8.139   5.510  0.3968 -0.7552  1.0720
  167MOL0     H23040   4.051   8.170   5.401  0.3677  1.7056 -1.3767
  167MOL0     H23041   4.109   8.240   5.555 -0.1305 -2.9524 -0.0539
  167MOL0     H23042   3.892   8.567   5.420 -2.6018 -2.1171  0.5765
  167MOL0     H23043   3.472   7.980   5.618 -0.3225 -1.8024  3.2965
  167MOL0     H23044   3.259   7.967   5.586  1.9771 -0.3276  2.8280
  167MOL0     H23045   3.138   8.074   5.656 -0.7223  0.4648 -2.4939
  167MOL0     H23046   3.208   8.115   5.495 -0.3676  0.8514  0.2644
  168MOL0     O23047  11.407   6.787   9.440 -0.7545  0.2240 -0.0735
  168MOL0     C23048  11.432   6.903   9.424  0.7342  0.1079  0.5196
  168MOL0     O23049  11.452   6.992   9.524 -0.5348 -0.2740  0.1515
  168MOL0     C23050  11.452   6.968   9.659 -0.1022  1.3578  0.6054
  168MOL0     C23051  11.412   7.067   9.737  0.6259 -0.9230  0.1822
  168MOL0     C23052  11.431   7.065   9.877 -0.2988  0.7339 -0.2808
  168MOL0     C23053  11.492   6.953   9.939  1.2494 -0.7068  0.2863
  168MOL0     O23054  11.507   6.974  10.071  0.2472  0.0071 -0.2552
  168MOL0     C23055  11.590   6.890  10.148  0.4743  0.4603 -0.3998
  168MOL0     C23056  11.606   6.955  10.288 -1.3187  0.6833  1.1979
  168MOL0     C23057  11.703   7.078  10.291  0.1626 -0.0434  0.1294
  168MOL0     C23058  11.751   7.100  10.436 -0.0019 -0.0049  0.6737
  168MOL0     C23059  11.868   7.196  10.461 -0.4151 -0.2289  0.4845
  168MOL0     C23060  11.880   7.265  10.602 -0.6603  0.5131  0.6876
  168MOL0     C23061  11.928   7.177  10.714 -0.1121  0.1758 -0.9567
  168MOL0     C23062  12.079   7.199  10.729 -0.4823  0.4594 -0.0638
  168MOL0     N23063  12.160   7.117  10.637 -0.0212 -0.6076 -0.3100
  168MOL0     C23064  12.260   7.164  10.558 -0.5303  0.5049  0.5126
  168MOL0     C23065  12.287   7.076  10.463 -0.0730  0.5620  1.1551
  168MOL0     C23066  12.397   7.086  10.355 -0.3043 -0.0884  0.2435
  168MOL0     C23067  12.460   7.219  10.339  0.8914 -0.0528 -0.4692
  168MOL0     C23068  12.541   7.247  10.202  0.1985 -1.6448 -0.5334
  168MOL0     C23069  12.686   7.308  10.221  0.0141  0.4129  0.5114
  168MOL0     O23070  12.690   7.449  10.261  0.4498  0.1330  0.1834
  168MOL0     C23071  12.661   7.539  10.161 -0.3844  0.4891 -0.3285
  168MOL0     C23072  12.747   7.542  10.054 -0.1005  0.3647  0.1264
  168MOL0     C23073  12.754   7.643   9.954 -0.6373 -0.5301 -0.0690
  168MOL0     C23074  12.861   7.634   9.847 -0.3259  0.9544 -0.8270
  168MOL0     C23075  12.665   7.753   9.962  0.2568 -0.1381  0.7013
  168MOL0     C23076  12.665   7.867   9.866  0.0368 -0.5665 -1.0216
  168MOL0     O23077  12.790   7.918   9.827 -0.8432  0.6431 -0.0747
  168MOL0     C23078  12.777   8.031   9.750 -0.5639  0.5116 -0.6552
  168MOL0     C23079  12.787   8.032   9.615 -0.4606 -1.6468  1.1077
  168MOL0     C23080  12.793   8.151   9.536 -0.2372  0.1377 -0.4932
  168MOL0     C23081  12.787   8.269   9.601 -0.5543 -0.2341 -0.3802
  168MOL0     O23082  12.780   8.392   9.548 -0.6977  0.1863  0.7327
  168MOL0     C23083  12.836   8.417   9.422  0.5484  0.5331 -0.3298
  168MOL0     C23084  12.913   8.545   9.410 -0.0918 -0.2222 -0.7602
  168MOL0     C23085  13.048   8.528   9.485 -0.1855 -0.5873  0.4500
  168MOL0     C23086  13.136   8.650   9.440  0.0375 -0.1713  0.7766
  168MOL0     C23087  13.265   8.663   9.518  0.0112  0.0275 -1.5780
  168MOL0     C23088  13.375   8.569   9.460 -0.7039 -0.2771 -0.5617
  168MOL0     C23089  13.456   8.644   9.349  1.0418  0.0410 -0.4672
  168MOL0     C23090  13.569   8.559   9.286  0.0304 -0.3756  0.0968
  168MOL0    Cl23091  13.672   8.500   9.405 -0.2017 -0.5810  0.3731
  168MOL0     C23092  12.767   8.273   9.735  0.3748 -0.0991 -0.7577
  168MOL0     C23093  12.771   8.157   9.813 -0.1748 -0.0575 -0.3458
  168MOL0     O23094  12.561   7.901   9.826  0.4777 -0.2303  0.4062
  168MOL0     C23095  12.566   7.737  10.066  0.3913 -0.0847  0.0520
  168MOL0     C23096  12.568   7.642  10.166 -0.3051 -0.0325 -0.5423
  168MOL0     N23097  12.213   6.965  10.493 -0.2148 -0.3052 -0.6156
  168MOL0     N23098  12.141   6.991  10.602 -0.5603 -0.6104  0.4687
  168MOL0     C23099  11.529   6.850   9.864  0.1414 -0.1322 -0.3093
  168MOL0     C23100  11.501   6.852   9.727  0.2948  0.2784  0.7984
  168MOL0     C23101  11.454   6.945   9.284  0.8163  0.4317 -0.4146
  168MOL0     C23102  11.395   6.866   9.188 -0.3708 -0.0180 -0.2670
  168MOL0     C23103  11.398   6.885   9.047  1.0884 -1.3076  0.0549
  168MOL0     C23104  11.467   7.004   9.003  0.7468  0.6821 -0.0426
  168MOL0     O23105  11.487   7.022   8.866 -0.3769  0.0194 -0.8968
  168MOL0     C23106  11.378   7.090   8.808  0.3933 -1.4718  0.4427
  168MOL0     C23107  11.436   7.228   8.773 -0.7209 -0.2145  1.0881
  168MOL0     C23108  11.560   7.210   8.673  0.9963 -0.8445 -0.4519
  168MOL0     C23109  11.681   7.219   8.766  0.2636  0.6807 -0.8362
  168MOL0     C23110  11.793   7.239   8.679 -0.1340 -0.1623  0.6482
  168MOL0     C23111  11.898   7.256   8.612  0.4208  0.1224  1.2189
  168MOL0     C23112  11.525   7.088   9.092 -0.6708  0.2326 -0.6441
  168MOL0     C23113  11.515   7.059   9.232 -0.2444 -0.5937 -0.4094
  168MOL0     C23114  11.572   7.170   9.318 -0.8510  0.3861  0.4969
  168MOL0     H23115  11.377   7.166   9.706  0.5289 -0.7542  0.8080
  168MOL0     H23116  11.403   7.152   9.936  1.1319  1.1376 -0.1657
  168MOL0     H23117  11.689   6.882  10.101  0.1663 -1.7485 -0.7677
  168MOL0     H23118  11.553   6.787  10.154 -0.2994  0.7538 -0.0410
  168MOL0     H23119  11.508   6.967  10.336 -2.6275  0.6819 -1.2860
  168MOL0     H23120  11.664   6.875  10.334 -0.7739 -0.5958 -1.4975
  168MOL0     H23121  11.790   7.063  10.226  1.4266 -2.4675  2.1764
  168MOL0     H23122  11.650   7.169  10.262  1.6542  0.6642 -0.5080
  168MOL0     H23123  11.667   7.143  10.489 -0.6076  2.4672 -2.0425
  168MOL0     H23124  11.774   7.006  10.487 -1.0329 -0.4318  0.3768
  168MOL0     H23125  11.846   7.276  10.390 -2.1144 -1.6719 -0.7217
  168MOL0     H23126  11.958   7.140  10.433 -1.0843 -0.1390 -2.1878
  168MOL0     H23127  11.941   7.354  10.584  0.7682 -0.8235 -1.4855
  168MOL0     H23128  11.777   7.287  10.631 -0.0673  1.5760  2.0875
  168MOL0     H23129  11.905   7.075  10.679  0.4937  0.1164 -1.2021
  168MOL0     H23130  11.882   7.202  10.810 -1.3964 -0.3909 -1.3982
  168MOL0     H23131  12.098   7.306  10.736 -0.3764  0.5848 -1.8300
  168MOL0     H23132  12.108   7.151  10.823  1.4779 -0.4906 -1.0995
  168MOL0     H23133  12.296   7.266  10.562  0.1812  0.2175  2.7122
  168MOL0     H23134  12.381   7.052  10.252  0.8096 -1.2893  0.4460
  168MOL0     H23135  12.474   7.014  10.383  1.4497  1.2085 -0.9872
  168MOL0     H23136  12.380   7.293  10.349  1.0992  0.0488  0.5248
  168MOL0     H23137  12.516   7.241  10.430 -2.1770 -0.7390  1.7686
  168MOL0     H23138  12.563   7.151  10.153  5.7076 -2.8599  3.3241
  168MOL0     H23139  12.491   7.312  10.130 -1.2473 -0.8774  1.0771
  168MOL0     H23140  12.750   7.247  10.286  2.2989  1.4329 -0.6444
  168MOL0     H23141  12.724   7.293  10.120 -2.6758  0.4252 -0.5818
  168MOL0     H23142  12.824   7.465  10.050  2.2281  2.4459  1.8269
  168MOL0     H23143  12.951   7.688   9.877 -0.5225  0.5023  0.6953
  168MOL0     H23144  12.820   7.665   9.750 -3.3294 -0.2973 -0.0962
  168MOL0     H23145  12.898   7.532   9.835  3.1280  1.9150  0.4583
  168MOL0     H23146  12.820   7.944   9.562  0.2424 -0.9976  0.4519
  168MOL0     H23147  12.798   8.134   9.429  2.6053 -0.5793 -0.3420
  168MOL0     H23148  12.886   8.328   9.385 -3.0216 -2.0813  0.6098
  168MOL0     H23149  12.747   8.427   9.360 -2.4180 -2.5907  2.9543
  168MOL0     H23150  12.935   8.565   9.305 -1.4928  2.3514 -0.6706
  168MOL0     H23151  12.857   8.630   9.451 -2.4762 -1.6422 -0.8829
  168MOL0     H23152  13.098   8.433   9.463  1.6265  0.7973 -1.7916
  168MOL0     H23153  13.037   8.539   9.594  2.5146  0.0347  0.7293
  168MOL0     H23154  13.077   8.742   9.447 -0.7498 -0.7665  2.8632
  168MOL0     H23155  13.151   8.632   9.333  0.9642 -0.6377  0.9845
  168MOL0     H23156  13.306   8.764   9.529  0.8690 -0.4951  0.3597
  168MOL0     H23157  13.239   8.619   9.614  0.3299 -1.7566 -2.2659
  168MOL0     H23158  13.337   8.477   9.416  0.0824 -0.6822 -0.4257
  168MOL0     H23159  13.441   8.544   9.544 -0.0499 -0.7420 -1.2031
  168MOL0     H23160  13.513   8.725   9.395  1.5941  0.1133 -1.2473
  168MOL0     H23161  13.384   8.688   9.279 -0.6051 -2.9346 -0.7658
  168MOL0     H23162  13.623   8.609   9.205  0.4326 -0.2767  0.4215
  168MOL0     H23163  13.515   8.472   9.248  0.7932 -1.4550  1.4061
  168MOL0     H23164  12.753   8.371   9.777  4.2313  0.5705 -0.6113
  168MOL0     H23165  12.746   8.165   9.918 -0.4839  0.6409 -0.4644
  168MOL0     H23166  12.506   7.827  10.076 -0.4955 -0.6394 -0.2048
  168MOL0     H23167  12.489   7.651  10.240  0.8408  0.2025  0.6711
  168MOL0     H23168  11.590   6.771   9.905  0.7222  0.1952 -0.5232
  168MOL0     H23169  11.529   6.767   9.666  1.0508 -0.3633  1.9932
  168MOL0     H23170  11.342   6.773   9.206 -0.6514 -0.7714 -4.0009
  168MOL0     H23171  11.363   6.817   8.970  0.6813 -0.2195 -0.7470
  168MOL0     H23172  11.342   7.044   8.715 -0.2392 -1.2509  0.5771
  168MOL0     H23173  11.298   7.117   8.876  0.8446  1.3063  0.0062
  168MOL0     H23174  11.456   7.289   8.861  1.1627  0.2114  0.4348
  168MOL0     H23175  11.362   7.291   8.723  2.2334  2.4254 -0.3710
  168MOL0     H23176  11.557   7.108   8.634  0.3719 -1.4766  1.1566
  168MOL0     H23177  11.551   7.286   8.595  1.1185  1.0465  1.2997
  168MOL0     H23178  11.682   7.117   8.806  0.9779 -0.4684 -3.5671
  168MOL0     H23179  11.673   7.289   8.850 -0.6844 -0.4914  0.0785
  168MOL0     H23180  11.986   7.268   8.552  0.9742  0.8381  2.1380
  168MOL0     H23181  11.558   7.179   9.043 -1.2374  0.0822 -1.3199
  168MOL0     H23182  11.495   7.228   9.369 -0.2622 -0.1547  2.0373
  168MOL0     H23183  11.639   7.139   9.398 -0.7813 -1.0641 -0.0819
  168MOL0     H23184  11.621   7.246   9.256  0.7908 -0.2690  0.9170
  169MOL0     O23185   0.861   8.122   9.379  0.5973 -0.9358  0.3672
  169MOL0     C23186   0.748   8.095   9.408 -0.6327 -0.8653 -0.2625
  169MOL0     O23187   0.685   7.980   9.368  0.2785  0.0538 -0.3560
  169MOL0     C23188   0.751   7.863   9.345  0.1148  0.4094 -0.5740
  169MOL0     C23189   0.875   7.839   9.393 -0.3096  0.3816 -0.2615
  169MOL0     C23190   0.931   7.717   9.395  0.6676 -0.2530  0.3203
  169MOL0     C23191   0.869   7.602   9.349 -0.8956 -0.4122 -0.3201
  169MOL0     O23192   0.946   7.490   9.361  0.6336  0.5517  0.2321
  169MOL0     C23193   0.909   7.372   9.291 -0.4045  0.7950 -0.3260
  169MOL0     C23194   0.799   7.300   9.372 -0.4598 -0.0188  0.4291
  169MOL0     C23195   0.865   7.216   9.494  0.9317 -0.5493  0.5165
  169MOL0     C23196   0.776   7.109   9.542  0.3998  0.1848  1.0391
  169MOL0     C23197   0.838   7.015   9.645 -0.6526  1.2865 -0.7180
  169MOL0     C23198   0.743   6.892   9.680 -0.8371  0.3866  0.3551
  169MOL0     C23199   0.790   6.805   9.792  0.0533 -0.1763 -0.7808
  169MOL0     C23200   0.684   6.707   9.842  0.3503  0.0352  0.3568
  169MOL0     N23201   0.740   6.623   9.956  0.1231 -0.7730  1.4072
  169MOL0     C23202   0.822   6.514   9.926  0.6426  0.7536 -0.4197
  169MOL0     C23203   0.864   6.467  10.042  0.3040  0.3192 -1.0452
  169MOL0     C23204   0.956   6.351  10.068  0.0885 -0.6900 -0.5317
  169MOL0     C23205   1.103   6.396  10.050 -0.3945  0.2268 -0.3427
  169MOL0     C23206   1.138   6.407   9.897  0.0106 -0.0437 -0.4167
  169MOL0     C23207   1.284   6.372   9.864  0.2212  0.2680 -0.4545
  169MOL0     O23208   1.342   6.268   9.940  0.0275 -0.1201 -0.0188
  169MOL0     C23209   1.477   6.231   9.943 -0.0020  0.6872  0.8290
  169MOL0     C23210   1.519   6.130  10.028 -0.4025 -0.7141  0.9424
  169MOL0     C23211   1.648   6.093  10.057  0.3431 -0.3011  0.8347
  169MOL0     C23212   1.664   5.979  10.149 -0.4233  0.7142  0.2784
  169MOL0     C23213   1.754   6.152   9.991  0.0645  0.5724  1.1997
  169MOL0     C23214   1.898   6.125  10.011 -0.2042  0.6001 -0.4279
  169MOL0     O23215   1.997   6.195   9.942 -0.5948  0.2357  0.5901
  169MOL0     C23216   2.102   6.115   9.909  0.4388 -0.1252  0.3879
  169MOL0     C23217   2.126   6.086   9.780 -0.6507 -0.3098 -0.6590
  169MOL0     C23218   2.247   6.036   9.741 -0.7885 -0.0792  1.0810
  169MOL0     C23219   2.340   5.992   9.829 -0.3921 -0.4265  0.1802
  169MOL0     O23220   2.470   5.946   9.800 -0.1225 -0.0519  0.1371
  169MOL0     C23221   2.530   5.969   9.672  0.4612  0.8449  0.2812
  169MOL0     C23222   2.480   5.847   9.584 -2.0131 -0.5424 -0.3488
  169MOL0     C23223   2.577   5.722   9.610  0.1528  0.8674  0.9245
  169MOL0     C23224   2.670   5.710   9.494  0.2236 -0.4966  0.1517
  169MOL0     C23225   2.776   5.600   9.518 -0.1339  0.9595 -0.0778
  169MOL0     C23226   2.857   5.586   9.387  0.2430 -0.2831  0.0372
  169MOL0     C23227   2.962   5.477   9.406 -0.4141 -0.5626  0.7934
  169MOL0     C23228   3.060   5.449   9.281  0.9655  0.4378  0.1350
  169MOL0    Cl23229   3.183   5.327   9.317 -0.1567 -0.0215 -0.1654
  169MOL0     C23230   2.317   6.033   9.960 -0.5414 -0.8262 -0.4685
  169MOL0     C23231   2.207   6.098  10.001 -0.2581 -0.1884  0.0324
  169MOL0     O23232   1.927   6.048  10.105 -0.4983 -0.2524  0.2914
  169MOL0     C23233   1.718   6.255   9.898 -0.3663  0.4139 -0.8632
  169MOL0     C23234   1.585   6.292   9.879 -0.8880 -0.4152 -0.3504
  169MOL0     N23235   0.801   6.544  10.142 -0.0779 -0.2052  0.6193
  169MOL0     N23236   0.724   6.641  10.087  0.0354 -0.6859 -0.0802
  169MOL0     C23237   0.752   7.621   9.285  0.9143 -0.8169 -0.5158
  169MOL0     C23238   0.683   7.748   9.287 -0.4013  0.2096 -0.4661
  169MOL0     C23239   0.676   8.211   9.453  0.8310 -0.2900 -0.7593
  169MOL0     C23240   0.532   8.193   9.442  0.3250  0.4722  1.2185
  169MOL0     C23241   0.449   8.304   9.462  0.0846  0.3385 -0.8225
  169MOL0     C23242   0.503   8.424   9.518  1.1562 -0.1159 -1.0028
  169MOL0     O23243   0.403   8.513   9.553  0.1343  0.0371  0.2600
  169MOL0     C23244   0.408   8.614   9.655 -0.0298 -0.5386  0.6305
  169MOL0     C23245   0.295   8.716   9.641 -0.3964 -0.1833  0.2012
  169MOL0     C23246   0.308   8.810   9.766  0.0518  0.1224  0.1859
  169MOL0     C23247   0.409   8.920   9.746  0.8258 -0.3704 -0.8496
  169MOL0     C23248   0.475   8.968   9.865  0.3920  0.2561  0.4351
  169MOL0     C23249   0.536   9.019   9.961 -0.4349  0.3516 -0.2058
  169MOL0     C23250   0.644   8.433   9.555 -0.3522 -0.1835 -0.2617
  169MOL0     C23251   0.727   8.330   9.510 -0.6221  0.3506 -0.2631
  169MOL0     C23252   0.869   8.362   9.537 -0.2022  0.7771 -0.0826
  169MOL0     H23253   0.926   7.915   9.452 -2.0132  1.6331 -0.3237
  169MOL0     H23254   1.031   7.719   9.436  1.1474  1.3350 -0.8142
  169MOL0     H23255   1.001   7.318   9.264 -0.7252 -1.2132  2.1761
  169MOL0     H23256   0.862   7.396   9.195 -3.0919 -5.2782 -0.9448
  169MOL0     H23257   0.726   7.370   9.413 -0.0337  1.7718 -1.6677
  169MOL0     H23258   0.757   7.224   9.306  3.8490  0.1924 -3.0364
  169MOL0     H23259   0.958   7.176   9.452  0.3782 -0.0343 -1.2764
  169MOL0     H23260   0.891   7.279   9.580 -2.0501  0.3084  0.8768
  169MOL0     H23261   0.683   7.149   9.585  0.4868  2.7588 -0.9168
  169MOL0     H23262   0.758   7.044   9.457 -0.9538 -1.6030  2.6086
  169MOL0     H23263   0.865   7.066   9.738  4.4500  0.4809 -1.4840
  169MOL0     H23264   0.932   6.972   9.610  1.1500  1.0780  3.7270
  169MOL0     H23265   0.649   6.942   9.703 -1.2075 -0.1788  0.0863
  169MOL0     H23266   0.728   6.830   9.591 -0.5298  0.5483  0.1915
  169MOL0     H23267   0.805   6.865   9.882  0.5526  0.2902 -1.1634
  169MOL0     H23268   0.882   6.748   9.772  0.8661  1.0804 -0.7385
  169MOL0     H23269   0.598   6.772   9.861  0.7615  1.2872 -1.7778
  169MOL0     H23270   0.647   6.635   9.768 -1.8039  1.1056  0.3281
  169MOL0     H23271   0.847   6.477   9.827  1.0328 -2.2992  0.7179
  169MOL0     H23272   0.945   6.261  10.007  0.1796 -2.3832  1.8017
  169MOL0     H23273   0.952   6.310  10.169  1.0515 -3.5152 -1.5415
  169MOL0     H23274   1.128   6.487  10.105  0.9282  0.6074 -1.5105
  169MOL0     H23275   1.174   6.325  10.092  1.0894  1.2013 -1.1128
  169MOL0     H23276   1.083   6.336   9.836  0.0360 -0.5356  0.1187
  169MOL0     H23277   1.108   6.504   9.857 -1.4100 -0.1651  0.2897
  169MOL0     H23278   1.295   6.333   9.762  0.7036 -2.9648  0.6897
  169MOL0     H23279   1.339   6.465   9.881  1.4990 -0.3223 -1.1662
  169MOL0     H23280   1.436   6.072  10.067  0.5616 -4.0375 -1.4220
  169MOL0     H23281   1.710   6.009  10.244 -3.4588  2.6863  1.2742
  169MOL0     H23282   1.734   5.910  10.100 -1.2250  1.7948 -2.5239
  169MOL0     H23283   1.568   5.938  10.183  0.6763 -1.4022  1.0809
  169MOL0     H23284   2.050   6.112   9.707  0.4294  2.1464 -1.0152
  169MOL0     H23285   2.255   6.029   9.633 -2.6351  3.3060  0.5802
  169MOL0     H23286   2.499   6.067   9.634  1.7845  1.4427  0.7143
  169MOL0     H23287   2.639   5.973   9.674  0.5371 -0.2996 -0.3149
  169MOL0     H23288   2.381   5.823   9.623 -0.5734 -1.5225  3.1150
  169MOL0     H23289   2.491   5.879   9.480 -4.3054  0.3373 -0.3890
  169MOL0     H23290   2.517   5.634   9.633  2.4259 -0.2162  3.1394
  169MOL0     H23291   2.639   5.739   9.699  0.3618 -0.5186  1.0612
  169MOL0     H23292   2.721   5.805   9.473 -0.3185 -0.2630 -0.1034
  169MOL0     H23293   2.614   5.696   9.401  1.4114  0.6314 -0.7694
  169MOL0     H23294   2.830   5.640   9.604 -1.3823  4.3472 -0.7106
  169MOL0     H23295   2.721   5.508   9.540 -0.6945  0.8674 -1.6779
  169MOL0     H23296   2.915   5.679   9.375  2.8409 -1.5118  1.9893
  169MOL0     H23297   2.801   5.566   9.296  3.6068 -0.8757 -2.0990
  169MOL0     H23298   2.906   5.384   9.418 -3.4004  0.8137 -1.3085
  169MOL0     H23299   3.024   5.502   9.493  1.9931  0.7998 -1.1438
  169MOL0     H23300   3.120   5.536   9.254  0.6008  0.4801 -0.5545
  169MOL0     H23301   3.009   5.418   9.189 -0.1890  0.6027  0.7064
  169MOL0     H23302   2.404   6.021  10.024  1.1535  0.5753 -2.3597
  169MOL0     H23303   2.201   6.129  10.105 -1.6959 -0.2220 -0.0182
  169MOL0     H23304   1.798   6.301   9.841 -0.0306  0.2239 -0.5540
  169MOL0     H23305   1.555   6.367   9.806  1.2648  1.0836  0.2106
  169MOL0     H23306   0.717   7.523   9.252 -1.9076 -0.5023  1.1576
  169MOL0     H23307   0.581   7.768   9.255 -1.5058  1.1946  3.2247
  169MOL0     H23308   0.485   8.102   9.407 -1.8914  1.2845  1.8584
  169MOL0     H23309   0.341   8.304   9.451 -0.0312  1.5592  0.0452
  169MOL0     H23310   0.399   8.560   9.750 -0.2935 -1.3749  0.1504
  169MOL0     H23311   0.500   8.671   9.665 -1.6620  2.4033 -0.0928
  169MOL0     H23312   0.201   8.661   9.650  0.9326 -2.2279  4.5364
  169MOL0     H23313   0.292   8.769   9.546  0.4439 -0.0541  0.2445
  169MOL0     H23314   0.207   8.850   9.771 -1.1513 -2.0025 -3.5126
  169MOL0     H23315   0.338   8.751   9.853 -1.1008 -0.8979 -0.0890
  169MOL0     H23316   0.354   9.007   9.708  3.1134  0.7927 -1.6903
  169MOL0     H23317   0.496   8.907   9.682  0.9956  2.0717 -1.2426
  169MOL0     H23318   0.589   9.070  10.038 -0.1573  0.6963 -0.6207
  169MOL0     H23319   0.673   8.516   9.618 -0.3896 -1.2253  1.1726
  169MOL0     H23320   0.899   8.270   9.588  2.9204  0.4801 -2.1131
  169MOL0     H23321   0.932   8.394   9.453 -0.2675 -2.2944 -1.4236
  169MOL0     H23322   0.889   8.443   9.607 -0.1422  2.4869 -1.9599
  170MOL0     O23323   1.172   3.055   6.951  0.0214  1.0854  0.4267
  170MOL0     C23324   1.271   3.049   6.882 -0.5044  0.3429  0.3988
  170MOL0     O23325   1.333   2.928   6.837  0.2856 -0.0862  0.2704
  170MOL0     C23326   1.297   2.804   6.872  0.1823  0.5539 -0.3998
  170MOL0     C23327   1.334   2.711   6.784 -0.6365  0.1489 -0.0677
  170MOL0     C23328   1.316   2.577   6.808  0.3482 -0.6075  0.2034
  170MOL0     C23329   1.256   2.523   6.925 -0.3879  0.2778 -0.6902
  170MOL0     O23330   1.229   2.391   6.969 -0.1804  0.6532  0.3742
  170MOL0     C23331   1.290   2.282   6.910 -1.4579  0.1792  0.5162
  170MOL0     C23332   1.232   2.236   6.777 -0.1740 -0.5119  0.4561
  170MOL0     C23333   1.333   2.140   6.700 -0.1688  0.8798  0.1686
  170MOL0     C23334   1.311   2.132   6.547  0.1063 -0.1285 -1.9457
  170MOL0     C23335   1.426   2.065   6.478 -0.2765  0.8281 -0.2378
  170MOL0     C23336   1.435   1.916   6.522  1.2862 -1.1273 -0.5962
  170MOL0     C23337   1.527   1.833   6.429 -0.4233  0.6209  0.0661
  170MOL0     C23338   1.675   1.820   6.467 -0.2452 -0.0895 -0.5895
  170MOL0     N23339   1.746   1.954   6.480 -1.3537  0.2077  0.3020
  170MOL0     C23340   1.765   2.052   6.380 -0.7190 -0.0932 -0.2149
  170MOL0     C23341   1.813   2.160   6.446 -0.0418  0.7571 -0.0129
  170MOL0     C23342   1.825   2.295   6.394  0.1921 -1.1740 -0.2437
  170MOL0     C23343   1.708   2.381   6.461  0.5501  0.1023  0.7933
  170MOL0     C23344   1.695   2.515   6.387  0.1111 -0.4988  0.9124
  170MOL0     C23345   1.632   2.632   6.462  0.4153  0.0431  0.3637
  170MOL0     O23346   1.718   2.723   6.534  1.1895  0.4256 -0.2003
  170MOL0     C23347   1.794   2.821   6.470  0.0434 -0.2731 -0.0799
  170MOL0     C23348   1.787   2.860   6.338  0.2509 -0.5894  1.8411
  170MOL0     C23349   1.867   2.956   6.275 -0.6209  0.2829 -0.8444
  170MOL0     C23350   1.851   2.983   6.129  0.3201 -1.2274 -0.1021
  170MOL0     C23351   1.964   3.019   6.356 -0.7585 -0.6303 -0.8745
  170MOL0     C23352   2.049   3.133   6.306  0.3062  0.1748  0.2691
  170MOL0     O23353   2.170   3.149   6.377 -0.2497  0.1823 -0.7929
  170MOL0     C23354   2.216   3.276   6.399 -0.4727  0.2308  0.2120
  170MOL0     C23355   2.327   3.277   6.480  0.2702 -1.4074 -0.0967
  170MOL0     C23356   2.392   3.394   6.532 -0.0116  0.3374  0.0629
  170MOL0     C23357   2.345   3.518   6.496 -0.1831 -0.3030  0.1672
  170MOL0     O23358   2.430   3.628   6.520  0.7014  0.6467 -0.2553
  170MOL0     C23359   2.378   3.761   6.507 -1.1998 -0.0785  0.7424
  170MOL0     C23360   2.462   3.855   6.599 -0.3216 -0.1052  0.0484
  170MOL0     C23361   2.611   3.850   6.560 -0.0255 -0.0040 -0.4113
  170MOL0     C23362   2.642   3.887   6.413  0.3850  0.3394  0.8043
  170MOL0     C23363   2.793   3.877   6.382 -0.6733 -0.2160  0.1156
  170MOL0     C23364   2.827   3.912   6.236  0.8704  0.2714  0.1996
  170MOL0     C23365   2.981   3.907   6.219  0.1493  0.4890 -0.6875
  170MOL0     C23366   3.010   3.893   6.072  0.2103  0.3514 -1.0728
  170MOL0    Cl23367   3.191   3.908   6.051 -0.1106 -0.0664 -0.6451
  170MOL0     C23368   2.216   3.519   6.423  0.3310 -0.0498 -1.0500
  170MOL0     C23369   2.153   3.400   6.376 -1.2171  0.1367 -1.0923
  170MOL0     O23370   2.025   3.203   6.204 -0.7487  1.1931  0.0915
  170MOL0     C23371   1.977   2.976   6.486  0.1277 -0.5382 -0.1927
  170MOL0     C23372   1.896   2.883   6.544  0.0980  1.0210 -0.3342
  170MOL0     N23373   1.830   2.129   6.584  0.3123  0.2330 -0.0485
  170MOL0     N23374   1.790   2.009   6.603  0.4851  1.0152 -0.1108
  170MOL0     C23375   1.199   2.626   7.013 -0.1546 -0.1669  0.5888
  170MOL0     C23376   1.222   2.759   6.985  0.4100 -0.4389  0.9378
  170MOL0     C23377   1.321   3.183   6.837 -0.9638  0.1643  0.8351
  170MOL0     C23378   1.260   3.300   6.871 -0.4623  0.0169  0.2089
  170MOL0     C23379   1.290   3.420   6.816 -0.9224 -0.6995 -0.4110
  170MOL0     C23380   1.390   3.442   6.731  0.6449  0.0366  0.0597
  170MOL0     O23381   1.420   3.558   6.677  0.5401  0.0440  1.1157
  170MOL0     C23382   1.539   3.624   6.718 -1.0496 -0.5629  0.8477
  170MOL0     C23383   1.624   3.655   6.594  0.0533  0.3050 -0.1465
  170MOL0     C23384   1.752   3.725   6.639 -0.3385 -0.4415  0.7200
  170MOL0     C23385   1.875   3.692   6.547 -0.0411 -0.5495  0.1237
  170MOL0     C23386   1.864   3.774   6.429  0.2547 -0.0976 -0.2559
  170MOL0     C23387   1.844   3.848   6.334  0.4662 -0.1306 -0.1185
  170MOL0     C23388   1.462   3.333   6.699 -0.7230 -0.1947 -0.6259
  170MOL0     C23389   1.430   3.203   6.745 -0.1608 -0.0019  1.1898
  170MOL0     C23390   1.514   3.086   6.694 -0.8975 -0.1247 -0.1991
  170MOL0     H23391   1.404   2.741   6.706  1.2529 -0.4658  1.3228
  170MOL0     H23392   1.369   2.509   6.742  0.5863 -0.5626  0.3459
  170MOL0     H23393   1.287   2.203   6.986 -2.5938  1.2901  1.6979
  170MOL0     H23394   1.391   2.317   6.889 -2.0975  0.8954 -1.5250
  170MOL0     H23395   1.148   2.167   6.785  0.9787 -1.9776  0.3104
  170MOL0     H23396   1.212   2.331   6.727  0.1230  1.6272  4.0552
  170MOL0     H23397   1.434   2.165   6.734 -0.1004  2.3884 -1.0386
  170MOL0     H23398   1.324   2.037   6.736 -0.6188  0.6198 -0.6639
  170MOL0     H23399   1.216   2.087   6.515 -0.2457 -0.3853 -0.6458
  170MOL0     H23400   1.312   2.234   6.508  2.3106  1.2716  1.3331
  170MOL0     H23401   1.524   2.104   6.507  0.2492 -2.1822  2.5973
  170MOL0     H23402   1.416   2.071   6.369  0.3385 -1.5367 -0.4778
  170MOL0     H23403   1.465   1.917   6.627 -0.4971  2.8184  0.0571
  170MOL0     H23404   1.330   1.885   6.526  0.6456  0.9590 -0.2641
  170MOL0     H23405   1.520   1.872   6.327  0.5828 -0.3036 -0.3851
  170MOL0     H23406   1.486   1.732   6.424  0.1986  0.4080 -1.0300
  170MOL0     H23407   1.699   1.790   6.569  2.8762 -0.3617 -1.2805
  170MOL0     H23408   1.732   1.766   6.390  0.1795  0.9083 -0.9908
  170MOL0     H23409   1.717   2.057   6.283 -0.6690 -2.3393 -0.4197
  170MOL0     H23410   1.804   2.296   6.287  1.3405  0.4653 -0.4830
  170MOL0     H23411   1.920   2.338   6.425 -1.6143  1.7002  1.7006
  170MOL0     H23412   1.614   2.329   6.478  1.0359 -1.0964 -0.0211
  170MOL0     H23413   1.746   2.419   6.556 -1.3536  2.5200  0.6829
  170MOL0     H23414   1.785   2.554   6.338  0.1555 -0.1756  1.2466
  170MOL0     H23415   1.629   2.499   6.301  1.7976  0.8965 -0.7373
  170MOL0     H23416   1.565   2.688   6.396 -0.0147  1.5168  1.9408
  170MOL0     H23417   1.559   2.582   6.528 -1.4172 -1.5229 -2.6346
  170MOL0     H23418   1.701   2.831   6.279 -0.0588  2.6474  0.4653
  170MOL0     H23419   1.801   3.080   6.122 -2.1888 -2.1700  2.4849
  170MOL0     H23420   1.783   2.912   6.080  0.0834 -1.6397  0.8014
  170MOL0     H23421   1.949   2.973   6.083  1.7112 -2.4394  2.9160
  170MOL0     H23422   2.377   3.185   6.511  1.5586  0.1209  2.8647
  170MOL0     H23423   2.493   3.389   6.573 -0.5610 -1.8486  1.2928
  170MOL0     H23424   2.391   3.794   6.404  0.0525  5.7292  2.3615
  170MOL0     H23425   2.275   3.764   6.544 -1.4207  0.6898  0.0843
  170MOL0     H23426   2.420   3.955   6.585 -0.0248  0.5279  2.9213
  170MOL0     H23427   2.447   3.832   6.705 -0.1028 -1.3178 -0.1767
  170MOL0     H23428   2.647   3.750   6.587  1.7662  0.1410 -2.0574
  170MOL0     H23429   2.667   3.925   6.617  2.2182 -1.2954 -0.8126
  170MOL0     H23430   2.613   3.992   6.397  1.1102  0.4216 -0.0656
  170MOL0     H23431   2.599   3.814   6.344 -0.7483 -1.4710  3.2794
  170MOL0     H23432   2.857   3.936   6.448  2.5044 -1.8058 -1.3147
  170MOL0     H23433   2.823   3.772   6.393  2.1860  0.6768  1.7022
  170MOL0     H23434   2.790   4.013   6.216  1.3842  0.8472  1.9310
  170MOL0     H23435   2.784   3.838   6.169  0.8367  0.4611  0.0118
  170MOL0     H23436   3.018   3.811   6.256  0.0476 -0.1052 -2.0981
  170MOL0     H23437   3.041   3.986   6.264  1.8111 -0.6500 -0.8229
  170MOL0     H23438   2.962   3.977   6.021 -1.5594 -0.9390 -1.6262
  170MOL0     H23439   2.981   3.798   6.027 -0.7620  0.3522 -0.4818
  170MOL0     H23440   2.166   3.613   6.402 -0.1356 -0.5097 -2.0442
  170MOL0     H23441   2.062   3.424   6.322 -3.1757 -1.3064  1.3735
  170MOL0     H23442   2.056   3.012   6.551 -0.1177  1.5824 -0.9660
  170MOL0     H23443   1.904   2.866   6.650 -0.6021 -1.7926 -0.6588
  170MOL0     H23444   1.131   2.603   7.094 -3.3390 -0.6656 -2.0024
  170MOL0     H23445   1.198   2.836   7.057  2.0503  0.5765  0.4447
  170MOL0     H23446   1.179   3.303   6.944  0.4560  1.2909  1.2285
  170MOL0     H23447   1.228   3.502   6.853  1.2080  0.7545  0.1284
  170MOL0     H23448   1.516   3.718   6.768  1.5600  0.1627  0.8270
  170MOL0     H23449   1.589   3.568   6.797  0.5576  1.3595  1.2572
  170MOL0     H23450   1.574   3.726   6.528 -0.8223 -0.2787 -0.1343
  170MOL0     H23451   1.640   3.573   6.525  1.3967  0.0700  0.4201
  170MOL0     H23452   1.738   3.833   6.646 -2.3837 -0.7498  2.1411
  170MOL0     H23453   1.786   3.691   6.738 -3.0411 -1.2988  1.4211
  170MOL0     H23454   1.884   3.585   6.526  1.3895 -0.0366 -2.2798
  170MOL0     H23455   1.969   3.720   6.594  2.1212 -0.7320 -3.6678
  170MOL0     H23456   1.816   3.898   6.244  3.5099 -0.3739 -1.3449
  170MOL0     H23457   1.550   3.346   6.636 -1.5244  2.4926 -1.3507
  170MOL0     H23458   1.594   3.129   6.634 -0.0863 -0.4116  0.6483
  170MOL0     H23459   1.566   3.033   6.775  1.0837  0.6576 -0.9023
  170MOL0     H23460   1.450   3.015   6.641 -0.5009 -0.6291 -0.0184
  171MOL0     O23461   5.425   2.061   0.880  0.1910 -0.6218  0.0497
  171MOL0     C23462   5.548   2.062   0.852 -0.6925 -0.5854 -0.2637
  171MOL0     O23463   5.623   2.173   0.841 -0.4645 -0.4993  0.0003
  171MOL0     C23464   5.585   2.303   0.872  0.0531  0.3145  0.7744
  171MOL0     C23465   5.687   2.391   0.905  0.3447 -0.8900  0.8222
  171MOL0     C23466   5.659   2.530   0.928 -0.1599 -0.0971 -0.1197
  171MOL0     C23467   5.527   2.575   0.917 -0.5712 -0.5471 -0.2036
  171MOL0     O23468   5.484   2.708   0.940 -0.3257 -0.0494  0.4279
  171MOL0     C23469   5.581   2.814   0.982  0.2058 -0.0511 -0.5335
  171MOL0     C23470   5.492   2.934   1.042 -0.2558  0.0497  0.8889
  171MOL0     C23471   5.571   3.064   1.087  0.2584  0.8889  1.1219
  171MOL0     C23472   5.551   3.090   1.229 -0.0799  0.7617 -0.7089
  171MOL0     C23473   5.608   3.220   1.284  0.1692 -0.4883 -0.2667
  171MOL0     C23474   5.765   3.234   1.279 -0.5964 -0.7258 -0.3655
  171MOL0     C23475   5.808   3.351   1.377 -0.4008 -0.0695  0.1432
  171MOL0     C23476   5.741   3.493   1.334 -0.1846 -0.6284  0.3071
  171MOL0     N23477   5.760   3.512   1.188 -0.4069 -0.4249 -0.2756
  171MOL0     C23478   5.884   3.530   1.126 -0.9487  0.8750  0.5461
  171MOL0     C23479   5.852   3.576   0.996 -0.4883 -0.2925 -0.6832
  171MOL0     C23480   5.937   3.602   0.877  0.1535  1.0710 -0.2081
  171MOL0     C23481   5.888   3.549   0.736  0.2322  0.0678 -0.0701
  171MOL0     C23482   6.008   3.543   0.641 -1.0314  0.3204  0.4016
  171MOL0     C23483   5.955   3.536   0.498 -0.2008 -0.1549 -0.1740
  171MOL0     O23484   6.059   3.569   0.408  0.1864 -0.4155  0.5628
  171MOL0     C23485   6.032   3.569   0.276  0.6635  0.0251  0.5182
  171MOL0     C23486   6.137   3.608   0.190  0.2831 -0.2358 -0.1184
  171MOL0     C23487   6.130   3.599   0.051  0.6206  1.2988 -1.2150
  171MOL0     C23488   6.254   3.636  -0.026  0.4323  0.7256 -0.2024
  171MOL0     C23489   6.009   3.566  -0.022 -0.1612  0.7503  0.0529
  171MOL0     C23490   5.993   3.579  -0.166  0.7453 -0.7111 -0.0894
  171MOL0     O23491   5.956   3.701  -0.212  0.1740 -0.1771  0.0305
  171MOL0     C23492   5.876   3.716  -0.325  0.4788 -0.2310  0.2943
  171MOL0     C23493   5.884   3.848  -0.395 -0.3430 -0.1046 -0.0050
  171MOL0     C23494   5.822   3.867  -0.522 -0.3395 -0.3291 -0.1744
  171MOL0     C23495   5.740   3.777  -0.581 -1.4334  0.0923  0.1800
  171MOL0     O23496   5.667   3.820  -0.681  0.0161  0.2418 -0.7169
  171MOL0     C23497   5.608   3.736  -0.786  0.0955  0.2648  0.4786
  171MOL0     C23498   5.581   3.828  -0.907 -0.0167 -0.0259 -0.8737
  171MOL0     C23499   5.711   3.899  -0.958  1.0522  0.0568 -0.0038
  171MOL0     C23500   5.678   3.974  -1.087  0.8739  0.6903 -0.1439
  171MOL0     C23501   5.799   4.068  -1.100 -0.0498 -0.3556  0.2916
  171MOL0     C23502   5.838   4.105  -1.239  0.2527  0.3838 -0.0286
  171MOL0     C23503   5.984   4.139  -1.264 -0.9817 -0.5819 -0.3376
  171MOL0     C23504   6.001   4.258  -1.191 -0.4124 -0.0747 -0.1008
  171MOL0    Cl23505   6.182   4.295  -1.207  0.0522 -0.2044  0.2507
  171MOL0     C23506   5.726   3.651  -0.513  0.3621 -0.9880 -0.7459
  171MOL0     C23507   5.793   3.619  -0.389  0.4377  0.2686  0.7226
  171MOL0     O23508   6.011   3.477  -0.231 -0.2953  0.0660  0.0977
  171MOL0     C23509   5.900   3.526   0.064  0.0975 -0.8082  0.5978
  171MOL0     C23510   5.908   3.535   0.205 -0.0047  0.0012 -0.5294
  171MOL0     N23511   5.716   3.601   0.989 -0.1447  0.1704  0.1512
  171MOL0     N23512   5.667   3.551   1.094  0.4780  0.4136 -0.2571
  171MOL0     C23513   5.426   2.492   0.866 -0.4165  0.2634 -0.5317
  171MOL0     C23514   5.452   2.354   0.847 -0.5500 -1.1141 -0.3209
  171MOL0     C23515   5.602   1.928   0.811  0.1346  0.3545  0.6750
  171MOL0     C23516   5.521   1.812   0.817  0.2667  0.7800 -0.0031
  171MOL0     C23517   5.578   1.689   0.769  0.3489  0.2738 -0.7601
  171MOL0     C23518   5.709   1.677   0.721  0.0710  0.1788  0.0443
  171MOL0     O23519   5.770   1.572   0.666 -0.2272 -0.6785 -0.0159
  171MOL0     C23520   5.711   1.448   0.675  0.2512 -0.4048 -0.5374
  171MOL0     C23521   5.808   1.348   0.615 -0.4308 -1.0115 -0.3850
  171MOL0     C23522   5.944   1.341   0.686 -0.1049 -0.6556 -0.4393
  171MOL0     C23523   5.964   1.223   0.774  0.7629 -0.0885  0.7727
  171MOL0     C23524   6.092   1.227   0.850 -0.0273 -0.9014  0.0530
  171MOL0     C23525   6.181   1.216   0.924 -0.2448  0.3614  0.5188
  171MOL0     C23526   5.787   1.790   0.725 -0.0546 -0.1921  0.2083
  171MOL0     C23527   5.741   1.908   0.776  0.1371  0.3733  0.5175
  171MOL0     C23528   5.839   2.021   0.779 -0.2176 -0.0725  0.2574
  171MOL0     H23529   5.792   2.364   0.910  0.8716  1.0634  1.4935
  171MOL0     H23530   5.747   2.592   0.941 -0.3425 -0.3172  2.8934
  171MOL0     H23531   5.636   2.834   0.890 -0.0788 -2.2164 -1.2480
  171MOL0     H23532   5.659   2.774   1.049 -0.6507 -0.7239  0.0937
  171MOL0     H23533   5.437   2.967   0.954 -0.2125  2.8365  1.8308
  171MOL0     H23534   5.428   2.889   1.119  1.3592 -0.4610  1.9859
  171MOL0     H23535   5.679   3.056   1.071  0.1630  1.7609 -0.0356
  171MOL0     H23536   5.552   3.147   1.019  3.3587  0.7081 -0.1378
  171MOL0     H23537   5.445   3.080   1.257  0.0135 -0.9962 -0.8892
  171MOL0     H23538   5.600   3.003   1.273  1.3843  0.9879 -1.8255
  171MOL0     H23539   5.587   3.224   1.391 -2.0951  2.2517 -0.6964
  171MOL0     H23540   5.556   3.297   1.226  1.4514 -0.2302 -1.1161
  171MOL0     H23541   5.818   3.140   1.296  3.0998  1.3209  0.5179
  171MOL0     H23542   5.793   3.265   1.178  0.6269 -1.9252 -0.4336
  171MOL0     H23543   5.916   3.370   1.375 -0.0043 -2.1356 -0.4663
  171MOL0     H23544   5.776   3.332   1.480  4.0709 -2.7216  1.3176
  171MOL0     H23545   5.634   3.484   1.353 -0.5923 -0.4266 -1.7303
  171MOL0     H23546   5.775   3.581   1.389  3.2771 -1.9653  0.5831
  171MOL0     H23547   5.985   3.509   1.163 -0.7341  0.3264 -0.3235
  171MOL0     H23548   6.029   3.545   0.897  0.1974  1.4141  0.5833
  171MOL0     H23549   5.960   3.708   0.867 -1.5513  1.3779 -1.3931
  171MOL0     H23550   5.835   3.453   0.738 -3.1297  1.7748 -0.1105
  171MOL0     H23551   5.830   3.630   0.693  2.9440  1.6941 -0.8912
  171MOL0     H23552   6.073   3.630   0.641  0.3770 -0.6691  1.6334
  171MOL0     H23553   6.069   3.454   0.662 -2.1089 -0.3141  0.9393
  171MOL0     H23554   5.903   3.442   0.475  2.3312 -2.1275  1.4935
  171MOL0     H23555   5.881   3.616   0.495 -1.8432 -1.6351 -2.6833
  171MOL0     H23556   6.231   3.641   0.232 -2.2681  3.4269  3.5734
  171MOL0     H23557   6.221   3.721  -0.087 -5.0887 -1.6375 -1.0424
  171MOL0     H23558   6.294   3.551  -0.082 -2.9339 -1.3722  0.3460
  171MOL0     H23559   6.340   3.654   0.039  0.3191  2.2158 -0.4251
  171MOL0     H23560   5.946   3.923  -0.348 -1.9712  1.8131 -0.7443
  171MOL0     H23561   5.844   3.962  -0.570  1.6250  0.6838  2.4515
  171MOL0     H23562   5.674   3.655  -0.819  2.6689  1.6191  1.9908
  171MOL0     H23563   5.510   3.694  -0.761 -0.3063 -0.1216 -1.5883
  171MOL0     H23564   5.536   3.773  -0.990  2.9617 -0.1918 -2.5341
  171MOL0     H23565   5.505   3.900  -0.874  1.1001  0.6162  0.3807
  171MOL0     H23566   5.794   3.833  -0.982  1.7165  0.4971  1.0296
  171MOL0     H23567   5.740   3.972  -0.882 -0.2753 -0.0169  0.6015
  171MOL0     H23568   5.583   4.025  -1.071 -1.4579 -2.4460 -2.5736
  171MOL0     H23569   5.660   3.913  -1.176 -2.0331  0.5646  0.4390
  171MOL0     H23570   5.782   4.154  -1.035 -0.1368 -0.8912  0.9950
  171MOL0     H23571   5.890   4.027  -1.055  0.3371 -2.2236 -1.9803
  171MOL0     H23572   5.770   4.186  -1.268 -1.9365  0.0862  3.6867
  171MOL0     H23573   5.819   4.024  -1.310  0.2990 -0.4495  0.8983
  171MOL0     H23574   6.004   4.150  -1.371 -1.9216 -0.1706 -0.4791
  171MOL0     H23575   6.061   4.076  -1.220 -1.1037 -0.2533  0.3608
  171MOL0     H23576   5.986   4.252  -1.082  1.8813  4.6926  0.7324
  171MOL0     H23577   5.943   4.346  -1.222  1.2843  1.0706 -0.1636
  171MOL0     H23578   5.655   3.578  -0.550 -0.8078  0.2157 -0.9581
  171MOL0     H23579   5.778   3.521  -0.345 -2.7934 -0.5556 -1.7766
  171MOL0     H23580   5.811   3.496   0.010  0.3206  0.7585 -0.7394
  171MOL0     H23581   5.823   3.505   0.265 -0.1295  1.5019  0.0837
  171MOL0     H23582   5.326   2.533   0.854 -1.0346 -1.3232 -1.0613
  171MOL0     H23583   5.365   2.295   0.820 -0.1930 -1.2730 -1.1571
  171MOL0     H23584   5.419   1.818   0.855  0.3219 -0.4174  0.3853
  171MOL0     H23585   5.513   1.601   0.774 -0.6815  0.9306 -2.0382
  171MOL0     H23586   5.671   1.422   0.773  0.8811 -1.0645 -0.4450
  171MOL0     H23587   5.625   1.455   0.608 -0.4693  3.1538  0.5344
  171MOL0     H23588   5.832   1.381   0.514 -2.1362  0.8367 -0.2371
  171MOL0     H23589   5.762   1.249   0.622  2.0823 -2.1631  1.2531
  171MOL0     H23590   6.014   1.344   0.602 -1.9125  2.1969 -2.0333
  171MOL0     H23591   5.967   1.432   0.742 -1.5542 -1.1970  1.1582
  171MOL0     H23592   5.954   1.138   0.706 -2.3511 -1.0999  2.3116
  171MOL0     H23593   5.876   1.219   0.839  0.6700  1.0693  0.7330
  171MOL0     H23594   6.252   1.209   1.003  0.3717  0.0410 -0.0605
  171MOL0     H23595   5.890   1.778   0.693  0.1171  1.0883  0.2283
  171MOL0     H23596   5.864   2.048   0.882 -1.0953  2.0685 -0.0265
  171MOL0     H23597   5.930   1.996   0.724 -0.0742  0.0942  0.4172
  171MOL0     H23598   5.799   2.114   0.737 -1.9975 -0.9923 -0.1618
  172MOL0     O23599   7.268   2.016   3.877  0.0291 -0.1069  0.0607
  172MOL0     C23600   7.209   2.101   3.941  0.0133  0.2858  0.0790
  172MOL0     O23601   7.087   2.083   4.004 -0.4965  0.0048 -0.0299
  172MOL0     C23602   7.053   1.954   4.038  0.3098 -0.6177  1.5328
  172MOL0     C23603   7.079   1.897   4.165  0.2437 -0.0398  0.6294
  172MOL0     C23604   7.044   1.762   4.186 -0.1213 -0.2383  0.1211
  172MOL0     C23605   6.978   1.684   4.090  0.1471 -0.3270  0.8062
  172MOL0     O23606   6.931   1.552   4.113  0.0962 -0.3303  0.5203
  172MOL0     C23607   6.977   1.484   4.229 -0.7342  0.4590  0.8005
  172MOL0     C23608   6.965   1.328   4.206  0.3528 -0.1389 -0.1312
  172MOL0     C23609   7.086   1.268   4.128 -0.2305  0.1092 -0.0645
  172MOL0     C23610   7.085   1.112   4.110  1.1184 -0.5454  0.3743
  172MOL0     C23611   7.175   1.036   4.206  0.5840  0.4641  0.5938
  172MOL0     C23612   7.191   0.881   4.173  0.5432 -0.7061  0.5866
  172MOL0     C23613   7.321   0.818   4.225 -0.0468 -0.4599 -0.4962
  172MOL0     C23614   7.348   0.857   4.371 -0.5720 -0.2362 -0.0037
  172MOL0     N23615   7.465   0.791   4.450  0.5495  0.3162  0.3078
  172MOL0     C23616   7.502   0.667   4.418 -0.9621 -1.2270  0.3150
  172MOL0     C23617   7.613   0.644   4.491 -0.2167  0.5081 -0.1010
  172MOL0     C23618   7.688   0.516   4.500 -0.2729 -0.4351  0.2677
  172MOL0     C23619   7.607   0.409   4.572  0.7049 -0.3379  0.3187
  172MOL0     C23620   7.505   0.345   4.472 -0.5924 -0.5002 -0.0080
  172MOL0     C23621   7.402   0.245   4.540 -0.1403  0.7593 -0.1011
  172MOL0     O23622   7.309   0.303   4.632  0.0393 -0.4566 -1.1782
  172MOL0     C23623   7.212   0.383   4.581  0.3333 -0.7584  0.1227
  172MOL0     C23624   7.136   0.447   4.675 -0.3182  0.3071  0.8623
  172MOL0     C23625   7.017   0.509   4.639 -1.0305  0.0698 -0.1102
  172MOL0     C23626   6.928   0.558   4.757 -0.2948 -0.1087 -0.0140
  172MOL0     C23627   6.973   0.518   4.500 -0.1979  0.5947 -0.0938
  172MOL0     C23628   6.854   0.580   4.445 -0.2683 -0.3834  0.7006
  172MOL0     O23629   6.858   0.619   4.317  0.6498  0.2714 -0.0764
  172MOL0     C23630   6.749   0.672   4.267 -0.2631  0.2168  0.3199
  172MOL0     C23631   6.699   0.791   4.306  1.0005 -0.3577  0.8277
  172MOL0     C23632   6.595   0.850   4.235  0.7899  0.1579  0.1544
  172MOL0     C23633   6.512   0.778   4.148 -0.9444 -0.4058 -0.3829
  172MOL0     O23634   6.396   0.825   4.096 -0.1760 -0.2849  0.3964
  172MOL0     C23635   6.380   0.973   4.073  0.3218  0.9333  0.0051
  172MOL0     C23636   6.239   1.032   4.018 -0.4801  0.0876 -0.1417
  172MOL0     C23637   6.243   1.039   3.866 -0.2551 -0.5154  0.0313
  172MOL0     C23638   6.216   0.901   3.804 -0.6317 -0.2776  0.1953
  172MOL0     C23639   6.235   0.897   3.648 -0.8436  0.6090 -0.3143
  172MOL0     C23640   6.165   1.004   3.567 -0.3414 -0.1433  0.5236
  172MOL0     C23641   6.196   1.003   3.415  0.5547  0.7666 -0.5421
  172MOL0     C23642   6.121   0.885   3.348  0.3057 -0.3673  0.5207
  172MOL0    Cl23643   6.194   0.851   3.188  0.0629 -0.2411 -0.2750
  172MOL0     C23644   6.560   0.653   4.122 -0.4248 -0.0605 -0.3228
  172MOL0     C23645   6.672   0.598   4.179  0.1351  0.2435  0.2799
  172MOL0     O23646   6.755   0.583   4.518 -0.2970  0.8432  1.1252
  172MOL0     C23647   7.060   0.465   4.405 -0.3693  0.3571 -0.8164
  172MOL0     C23648   7.180   0.406   4.448 -0.5675 -0.1186  0.4432
  172MOL0     N23649   7.654   0.759   4.547 -0.8835 -0.8965  0.4269
  172MOL0     N23650   7.560   0.854   4.531  0.0795  0.6390 -0.8220
  172MOL0     C23651   6.941   1.755   3.970 -0.2575  0.3256 -0.1649
  172MOL0     C23652   6.981   1.889   3.940  0.4406  0.2099  0.2318
  172MOL0     C23653   7.243   2.238   3.928  0.7067 -0.1382  0.3453
  172MOL0     C23654   7.295   2.310   4.038  0.2854  0.1034 -0.0811
  172MOL0     C23655   7.311   2.451   4.033  0.7746 -0.1935 -0.2246
  172MOL0     C23656   7.282   2.513   3.912 -0.7506  0.7120  0.2232
  172MOL0     O23657   7.299   2.650   3.903  0.0753 -0.0474 -0.1094
  172MOL0     C23658   7.231   2.714   4.008 -0.1812  0.0074 -1.1863
  172MOL0     C23659   7.208   2.866   3.982  0.3713 -0.7209  0.0417
  172MOL0     C23660   7.141   2.895   3.843 -0.3885 -0.0964 -0.5581
  172MOL0     C23661   7.212   3.006   3.779 -0.3576 -0.8368 -0.7098
  172MOL0     C23662   7.164   3.042   3.650  0.0267 -0.8464  0.6141
  172MOL0     C23663   7.145   3.091   3.540  0.3362 -0.0559 -0.1092
  172MOL0     C23664   7.254   2.437   3.797  0.3119  0.7534  0.0901
  172MOL0     C23665   7.226   2.300   3.800 -0.7631 -0.0248  0.4524
  172MOL0     C23666   7.201   2.222   3.678  0.0849 -0.4737 -0.8199
  172MOL0     H23667   7.135   1.946   4.244  1.3898 -2.1187  1.1744
  172MOL0     H23668   7.071   1.722   4.283  1.8256 -0.8969 -0.6494
  172MOL0     H23669   6.916   1.511   4.316 -0.4618 -2.2763  1.9420
  172MOL0     H23670   7.079   1.520   4.245 -0.6438  1.4138 -1.5508
  172MOL0     H23671   6.953   1.281   4.304 -0.4320  0.8392  0.2643
  172MOL0     H23672   6.877   1.296   4.150 -0.8898 -1.7011  2.5004
  172MOL0     H23673   7.094   1.317   4.031 -0.7498  0.3463  0.0137
  172MOL0     H23674   7.182   1.292   4.176 -0.7931 -1.8913  2.3009
  172MOL0     H23675   6.981   1.076   4.111  1.2634 -0.9695  1.1478
  172MOL0     H23676   7.124   1.093   4.010  0.6046  2.0423 -0.3794
  172MOL0     H23677   7.151   1.044   4.312  1.7559 -0.1595  0.9240
  172MOL0     H23678   7.278   1.073   4.203  0.3846  1.1235  1.5196
  172MOL0     H23679   7.105   0.821   4.205 -0.3228  0.8385  1.2229
  172MOL0     H23680   7.188   0.870   4.064 -2.4043 -0.6466  0.5788
  172MOL0     H23681   7.411   0.838   4.166  2.3815 -0.4066  2.8987
  172MOL0     H23682   7.324   0.708   4.225 -1.2114 -0.4971 -0.8818
  172MOL0     H23683   7.381   0.961   4.372  2.0280 -0.9878  2.0467
  172MOL0     H23684   7.261   0.826   4.430 -0.5830  0.1995  0.2143
  172MOL0     H23685   7.458   0.602   4.343 -2.7258 -0.1656  0.3903
  172MOL0     H23686   7.772   0.536   4.568  0.0840  1.4109 -0.6389
  172MOL0     H23687   7.726   0.485   4.402  2.0635  0.4213  0.8249
  172MOL0     H23688   7.670   0.331   4.616 -1.5192 -2.0852  0.5808
  172MOL0     H23689   7.553   0.454   4.655 -2.4038 -1.3328 -0.9919
  172MOL0     H23690   7.435   0.417   4.428 -2.7625 -2.3794  0.1865
  172MOL0     H23691   7.552   0.285   4.393 -0.8494  2.3938 -2.5368
  172MOL0     H23692   7.346   0.197   4.459  2.6953  1.0084 -2.3647
  172MOL0     H23693   7.458   0.166   4.592  1.2480  0.9022 -1.3376
  172MOL0     H23694   7.157   0.449   4.781 -2.0133  2.1352  1.2192
  172MOL0     H23695   6.986   0.563   4.849  4.5078  1.1554 -2.7133
  172MOL0     H23696   6.838   0.497   4.760 -0.1289 -0.3857  3.7298
  172MOL0     H23697   6.891   0.660   4.741 -0.2269 -0.0536  0.1861
  172MOL0     H23698   6.755   0.839   4.386  0.0445 -1.9086  2.5220
  172MOL0     H23699   6.571   0.952   4.266  0.6456 -0.3233  1.7132
  172MOL0     H23700   6.398   1.021   4.170 -0.4643  1.4120 -0.0755
  172MOL0     H23701   6.454   1.008   4.001  1.4013 -1.6523 -0.2521
  172MOL0     H23702   6.160   0.966   4.054 -1.3014 -0.0074 -1.9830
  172MOL0     H23703   6.241   1.129   4.068  3.9993  0.3131 -0.3557
  172MOL0     H23704   6.342   1.066   3.827 -0.5318  0.6216  0.0662
  172MOL0     H23705   6.165   1.110   3.836  1.6412  1.8287  0.3197
  172MOL0     H23706   6.116   0.856   3.815 -0.3923 -1.8182 -2.7474
  172MOL0     H23707   6.276   0.830   3.861  1.7624  0.3689 -1.3981
  172MOL0     H23708   6.343   0.899   3.630 -0.6762  2.2989  0.6503
  172MOL0     H23709   6.196   0.797   3.627 -2.0527  1.4039 -2.1851
  172MOL0     H23710   6.198   1.101   3.606 -1.5084 -0.0358  1.3014
  172MOL0     H23711   6.056   0.995   3.573 -0.6671  1.8514 -1.2187
  172MOL0     H23712   6.305   1.002   3.400  0.7095 -1.0293  0.3955
  172MOL0     H23713   6.162   1.101   3.380 -0.3144  0.3045 -1.0097
  172MOL0     H23714   6.022   0.927   3.331  1.4577  3.6568  2.5009
  172MOL0     H23715   6.114   0.794   3.410  1.4509  0.4742  1.9640
  172MOL0     H23716   6.492   0.586   4.070 -2.2137 -0.2368  2.0608
  172MOL0     H23717   6.711   0.498   4.164 -0.3438  0.3462 -2.0178
  172MOL0     H23718   7.050   0.478   4.297 -0.0485  2.6104 -0.6119
  172MOL0     H23719   7.234   0.363   4.364  0.2714 -3.1397  2.3834
  172MOL0     H23720   6.882   1.700   3.898 -4.8101 -0.0846  3.3934
  172MOL0     H23721   6.959   1.943   3.849 -0.2137 -0.2909  0.0873
  172MOL0     H23722   7.308   2.254   4.129 -0.2256  0.1602  0.0301
  172MOL0     H23723   7.362   2.504   4.113  0.2257 -3.3115  2.4270
  172MOL0     H23724   7.128   2.679   4.021  0.1634 -0.0728  2.7064
  172MOL0     H23725   7.285   2.722   4.103 -1.7856 -0.4399 -0.2002
  172MOL0     H23726   7.301   2.922   3.980 -0.0560 -0.0149 -1.7273
  172MOL0     H23727   7.138   2.892   4.062  0.4592 -1.4683  0.3691
  172MOL0     H23728   7.156   2.810   3.775  3.0615 -0.5240  0.5266
  172MOL0     H23729   7.035   2.918   3.847 -0.3699 -0.1681  0.8900
  172MOL0     H23730   7.321   2.995   3.777 -0.1699  0.7100 -0.6184
  172MOL0     H23731   7.192   3.087   3.850 -1.3832 -2.7762  1.3366
  172MOL0     H23732   7.123   3.125   3.441  2.5440 -0.6925 -0.8693
  172MOL0     H23733   7.249   2.482   3.699 -1.2264 -1.0837 -0.7313
  172MOL0     H23734   7.146   2.283   3.605  1.6644  0.4240 -1.3036
  172MOL0     H23735   7.304   2.200   3.649  1.5124  2.2677  1.6520
  172MOL0     H23736   7.136   2.136   3.694 -1.0148  0.9118  3.4680
  173MOL0     O23737   2.646   2.796   0.744 -0.3349 -0.0989 -0.2291
  173MOL0     C23738   2.610   2.907   0.709  0.1462 -0.0352  0.3595
  173MOL0     O23739   2.529   2.993   0.778  0.1014  0.6130  0.1422
  173MOL0     C23740   2.488   2.945   0.899 -0.1128  0.0419  0.7781
  173MOL0     C23741   2.357   2.916   0.919 -0.0591 -0.2104  1.0765
  173MOL0     C23742   2.305   2.859   1.033  0.2140  0.0080  0.8090
  173MOL0     C23743   2.395   2.836   1.145  0.3848 -0.1398 -0.1954
  173MOL0     O23744   2.372   2.790   1.271 -0.1048 -0.2470  0.2265
  173MOL0     C23745   2.268   2.698   1.292  0.4369  0.5403  1.1138
  173MOL0     C23746   2.184   2.757   1.398 -0.0528  0.3574  0.6026
  173MOL0     C23747   2.054   2.680   1.433  0.1551 -0.4759 -1.1422
  173MOL0     C23748   1.935   2.744   1.349 -0.1741 -0.2110  0.6221
  173MOL0     C23749   1.803   2.688   1.396 -0.3294 -0.0200 -0.0350
  173MOL0     C23750   1.804   2.535   1.400  0.7573  0.6223 -0.1660
  173MOL0     C23751   1.667   2.489   1.432 -0.1327 -0.4529 -0.3697
  173MOL0     C23752   1.667   2.355   1.499 -0.4984  0.3690  0.0786
  173MOL0     N23753   1.680   2.244   1.402 -0.0490  0.3454  1.6608
  173MOL0     C23754   1.727   2.116   1.422 -0.3515 -0.7027  0.4365
  173MOL0     C23755   1.701   2.051   1.310 -0.7272 -0.1244 -1.3606
  173MOL0     C23756   1.732   1.910   1.280 -1.0059  0.3370 -0.0376
  173MOL0     C23757   1.604   1.824   1.276  0.1718 -0.1400 -0.0708
  173MOL0     C23758   1.636   1.694   1.348  0.5733  0.8051  0.5992
  173MOL0     C23759   1.756   1.617   1.278 -0.1339  0.3671 -0.8281
  173MOL0     O23760   1.781   1.479   1.311  0.9392 -0.3970  0.9590
  173MOL0     C23761   1.824   1.436   1.431 -0.1811 -0.2339  1.2770
  173MOL0     C23762   1.850   1.524   1.527  1.3275  0.0231  0.1951
  173MOL0     C23763   1.889   1.492   1.657  0.4362 -0.0520 -0.0568
  173MOL0     C23764   1.935   1.599   1.750  0.0972 -0.7339 -0.8436
  173MOL0     C23765   1.904   1.357   1.697  0.2011 -0.0601  0.5582
  173MOL0     C23766   1.944   1.308   1.840  0.3609  0.0934  0.2727
  173MOL0     O23767   1.891   1.372   1.950  0.2431 -0.1011  0.5499
  173MOL0     C23768   1.928   1.323   2.071 -0.3170  0.9011 -0.2420
  173MOL0     C23769   2.065   1.327   2.109  0.5818  0.1143  1.0271
  173MOL0     C23770   2.106   1.305   2.241 -0.6029  0.3570  0.1546
  173MOL0     C23771   2.006   1.264   2.338  0.5731 -0.4714 -1.0758
  173MOL0     O23772   2.055   1.224   2.463  0.2119  0.3453 -0.0242
  173MOL0     C23773   2.003   1.295   2.574 -0.3676  0.0436  0.2642
  173MOL0     C23774   2.031   1.445   2.578 -0.1819  0.0140 -0.9410
  173MOL0     C23775   1.962   1.516   2.695  0.6817  0.4852 -0.0423
  173MOL0     C23776   1.927   1.658   2.657  0.0705 -0.4952  0.3120
  173MOL0     C23777   1.824   1.720   2.753  0.3251 -0.1439 -0.2707
  173MOL0     C23778   1.776   1.857   2.716  0.1743 -0.4869 -0.3607
  173MOL0     C23779   1.881   1.962   2.746 -0.1659  0.0219  0.8763
  173MOL0     C23780   1.834   2.099   2.686  0.2490 -0.0454 -0.5789
  173MOL0    Cl23781   1.920   2.232   2.777  0.2889  0.0970 -0.6775
  173MOL0     C23782   1.866   1.259   2.299 -0.2165 -0.6384  0.3089
  173MOL0     C23783   1.828   1.288   2.168  0.0110  0.9651 -0.0461
  173MOL0     O23784   2.016   1.212   1.839  0.2114 -0.1737 -0.3393
  173MOL0     C23785   1.878   1.267   1.598 -0.0065 -0.5896 -0.2495
  173MOL0     C23786   1.836   1.300   1.469  0.3431  0.6028 -0.2307
  173MOL0     N23787   1.648   2.138   1.218  0.1824  0.3754  0.0292
  173MOL0     N23788   1.625   2.251   1.279  0.2665 -0.1751  0.4519
  173MOL0     C23789   2.532   2.862   1.130 -0.2406 -0.3367 -1.2144
  173MOL0     C23790   2.576   2.916   1.008  0.8016  0.1870  0.1800
  173MOL0     C23791   2.651   2.961   0.576 -0.4588  0.2764 -0.2413
  173MOL0     C23792   2.580   2.951   0.461  0.0611  0.5060 -0.1869
  173MOL0     C23793   2.628   2.984   0.332 -0.7946 -1.2337  0.1147
  173MOL0     C23794   2.760   3.018   0.308 -0.0708 -0.3502  0.2906
  173MOL0     O23795   2.824   3.036   0.187 -0.4780  0.1485  0.4748
  173MOL0     C23796   2.751   2.978   0.077 -0.0941 -0.7247 -0.0722
  173MOL0     C23797   2.848   2.951  -0.038  0.2703  0.2088 -0.1254
  173MOL0     C23798   2.908   3.084  -0.083  0.3404  0.2679 -1.6682
  173MOL0     C23799   3.008   3.073  -0.200 -0.2546  0.5222  0.7449
  173MOL0     C23800   3.068   3.203  -0.225  0.1205 -0.1512  0.9753
  173MOL0     C23801   3.093   3.311  -0.263 -0.1370 -0.3926  1.0257
  173MOL0     C23802   2.836   3.024   0.427 -0.5980 -0.9239  0.5412
  173MOL0     C23803   2.784   3.004   0.555  0.7588  0.2587 -0.5641
  173MOL0     C23804   2.882   3.013   0.668 -0.1561  1.1864 -0.6338
  173MOL0     H23805   2.297   2.912   0.828  0.9821 -7.0400  0.1649
  173MOL0     H23806   2.205   2.817   1.032 -0.3595  1.0239 -3.0905
  173MOL0     H23807   2.311   2.603   1.324 -3.2844 -2.7664 -2.4830
  173MOL0     H23808   2.217   2.669   1.200  5.3023 -0.5604 -1.5953
  173MOL0     H23809   2.246   2.771   1.487  0.4199 -0.3442  0.3953
  173MOL0     H23810   2.150   2.853   1.357 -2.5341 -0.1940  1.2197
  173MOL0     H23811   2.069   2.572   1.433  1.8465 -0.2737  0.2038
  173MOL0     H23812   2.039   2.711   1.537  0.6940  1.7242 -1.6498
  173MOL0     H23813   1.928   2.853   1.346  0.5680 -0.0789 -4.0208
  173MOL0     H23814   1.963   2.716   1.247  0.9081  2.0999  0.2156
  173MOL0     H23815   1.724   2.724   1.329  0.9848  2.0228 -0.5616
  173MOL0     H23816   1.778   2.729   1.494  0.6180  1.7146 -0.4900
  173MOL0     H23817   1.833   2.494   1.303  0.1760 -1.8313  0.6403
  173MOL0     H23818   1.871   2.507   1.482 -2.5291 -1.7261  1.9388
  173MOL0     H23819   1.605   2.477   1.343  0.4295 -1.9980 -0.5857
  173MOL0     H23820   1.619   2.558   1.503 -2.0108 -1.5097 -0.5511
  173MOL0     H23821   1.738   2.344   1.581  0.2901 -1.3199 -0.7704
  173MOL0     H23822   1.567   2.349   1.543 -0.3346 -0.7957  0.3213
  173MOL0     H23823   1.780   2.077   1.508 -0.2753  1.0212  1.2212
  173MOL0     H23824   1.817   1.876   1.341 -0.1641  1.7024 -0.3859
  173MOL0     H23825   1.789   1.912   1.186  0.7453  2.4292  0.9682
  173MOL0     H23826   1.522   1.877   1.325  0.2776 -1.4963  1.6892
  173MOL0     H23827   1.569   1.796   1.176  1.2119  0.3673 -0.5921
  173MOL0     H23828   1.652   1.724   1.452  0.1057  0.1140  0.8777
  173MOL0     H23829   1.547   1.631   1.361 -0.6856  2.3254 -0.2270
  173MOL0     H23830   1.723   1.619   1.174 -4.3134 -3.5000  0.0989
  173MOL0     H23831   1.844   1.679   1.297 -0.5226  0.8562 -0.5939
  173MOL0     H23832   1.829   1.630   1.512  0.3816  0.0051  1.2271
  173MOL0     H23833   2.043   1.598   1.770  0.4379  0.7118 -2.3682
  173MOL0     H23834   1.881   1.596   1.845 -0.1822 -1.0405 -1.0114
  173MOL0     H23835   1.909   1.699   1.715 -0.5323 -0.6131 -0.0441
  173MOL0     H23836   2.149   1.342   2.043  1.7949 -1.1610  2.2201
  173MOL0     H23837   2.207   1.319   2.279 -1.4024 -0.1570  2.6673
  173MOL0     H23838   1.897   1.271   2.584 -0.6904  1.9678  2.4384
  173MOL0     H23839   2.042   1.253   2.667 -3.5046  2.3148  2.8547
  173MOL0     H23840   2.138   1.462   2.588 -0.5112  1.3868  0.7912
  173MOL0     H23841   1.984   1.483   2.487 -1.9104 -0.2079 -0.1980
  173MOL0     H23842   2.031   1.509   2.780  0.0640 -0.6587  0.4069
  173MOL0     H23843   1.871   1.462   2.724  1.1670  0.3873  1.4279
  173MOL0     H23844   1.867   1.656   2.565 -1.3743  0.1917  1.2045
  173MOL0     H23845   2.018   1.717   2.637 -0.5601 -0.4881 -3.1989
  173MOL0     H23846   1.735   1.658   2.752  0.7240 -0.7362 -0.0384
  173MOL0     H23847   1.859   1.725   2.857  0.9896  3.1122 -0.5535
  173MOL0     H23848   1.692   1.864   2.786  0.2492 -1.4557 -0.1563
  173MOL0     H23849   1.740   1.861   2.613 -0.1051 -0.8181 -0.2795
  173MOL0     H23850   1.971   1.912   2.710 -1.8728 -2.6116  0.0169
  173MOL0     H23851   1.893   1.980   2.854  3.1310  0.2096  0.6028
  173MOL0     H23852   1.732   2.104   2.725 -0.0390 -1.6705 -1.0632
  173MOL0     H23853   1.824   2.108   2.578  0.2574  3.5857 -0.4024
  173MOL0     H23854   1.790   1.216   2.364 -1.4691 -1.7749 -1.7715
  173MOL0     H23855   1.725   1.274   2.139  0.0788 -0.4692  0.3328
  173MOL0     H23856   1.895   1.161   1.614  3.8070 -0.0349  0.1851
  173MOL0     H23857   1.798   1.224   1.401  2.7634 -1.7744  0.8834
  173MOL0     H23858   2.601   2.859   1.213 -1.2280 -2.5224 -0.4183
  173MOL0     H23859   2.678   2.948   0.988  1.3972 -0.2203  2.3430
  173MOL0     H23860   2.476   2.918   0.462 -0.8111  3.0109 -0.5046
  173MOL0     H23861   2.562   2.976   0.247 -0.7143 -2.4391  0.1459
  173MOL0     H23862   2.703   2.885   0.110 -1.7567 -0.5754 -1.8830
  173MOL0     H23863   2.673   3.051   0.054 -0.0913 -0.7626 -0.1992
  173MOL0     H23864   2.795   2.899  -0.119  0.6317 -0.8778  0.3101
  173MOL0     H23865   2.920   2.877  -0.002  1.1093  1.2443  0.3845
  173MOL0     H23866   2.818   3.143  -0.102 -1.7684 -2.0600  0.3631
  173MOL0     H23867   2.964   3.124   0.002 -2.3092  0.2738  0.2109
  173MOL0     H23868   2.941   3.037  -0.279 -1.6175  1.9126  1.2154
  173MOL0     H23869   3.083   2.995  -0.193  1.3726  1.7486 -1.5190
  173MOL0     H23870   3.098   3.417  -0.279 -0.3590 -0.0896  2.7163
  173MOL0     H23871   2.943   3.041   0.430 -0.6629 -0.5652  3.1256
  173MOL0     H23872   2.946   3.102   0.673  0.1523  0.9916 -1.0492
  173MOL0     H23873   2.844   2.990   0.768  0.5177 -1.3083 -0.8869
  173MOL0     H23874   2.954   2.934   0.645 -0.0533  0.0492  3.0265
  174MOL0     O23875   3.333  10.596   1.473 -0.2785  0.4331  0.3431
  174MOL0     C23876   3.379  10.609   1.362  0.4329 -0.7507 -0.7058
  174MOL0     O23877   3.452  10.714   1.325  0.0837  0.1137 -0.4713
  174MOL0     C23878   3.521  10.782   1.425 -0.3366  0.6757 -0.2125
  174MOL0     C23879   3.591  10.726   1.538  0.9250 -0.4033  0.3389
  174MOL0     C23880   3.669  10.806   1.627 -1.0187 -0.4388  0.0023
  174MOL0     C23881   3.683  10.946   1.611  0.3209  0.2619 -0.5477
  174MOL0     O23882   3.765  11.035   1.684 -0.6762 -0.1730  0.8207
  174MOL0     C23883   3.838  10.970   1.787 -0.7400  0.4130 -0.9635
  174MOL0     C23884   3.941  11.068   1.857 -0.1461  0.1277 -0.2070
  174MOL0     C23885   3.890  11.209   1.894  0.2163  0.6565  0.8889
  174MOL0     C23886   3.777  11.207   2.004 -0.4483  1.1524  0.5664
  174MOL0     C23887   3.736  11.351   2.057 -0.5886  0.3545 -0.5616
  174MOL0     C23888   3.837  11.407   2.163  0.3138  0.8333 -0.4741
  174MOL0     C23889   3.780  11.542   2.209  0.1671 -0.5718 -0.6744
  174MOL0     C23890   3.840  11.595   2.337 -0.3728 -0.4120  0.5044
  174MOL0     N23891   3.776  11.722   2.384 -0.3293 -0.0336 -0.8803
  174MOL0     C23892   3.668  11.794   2.325  0.0822  0.5225 -0.9459
  174MOL0     C23893   3.650  11.899   2.404  0.1346  0.3597  0.6628
  174MOL0     C23894   3.531  11.989   2.402  0.2279  1.2796 -0.2429
  174MOL0     C23895   3.444  11.989   2.530 -0.3620 -0.4703 -0.1639
  174MOL0     C23896   3.303  12.050   2.504  0.3006 -0.7945 -0.2041
  174MOL0     C23897   3.309  12.206   2.482  0.3358  0.1369  0.4793
  174MOL0     O23898   3.179  12.267   2.485 -0.3161  0.3696  0.4880
  174MOL0     C23899   3.089  12.231   2.388  0.1626  0.4654  0.7242
  174MOL0     C23900   3.113  12.155   2.272  0.5567  0.4195  0.8299
  174MOL0     C23901   3.011  12.110   2.183  0.8591  0.2983  0.3658
  174MOL0     C23902   3.058  12.025   2.059 -0.4897 -0.5229  0.1714
  174MOL0     C23903   2.877  12.152   2.198 -1.0424 -0.3040  0.4351
  174MOL0     C23904   2.751  12.101   2.137  0.1199  0.2424 -0.0920
  174MOL0     O23905   2.626  12.162   2.164 -0.9984 -0.4542  0.4674
  174MOL0     C23906   2.515  12.147   2.088 -0.5358 -0.7469 -0.0220
  174MOL0     C23907   2.499  12.073   1.969  0.1709  0.1458  0.4636
  174MOL0     C23908   2.364  12.051   1.914 -0.1225  0.4769  0.7315
  174MOL0     C23909   2.254  12.125   1.958 -0.7841 -0.4583  0.3635
  174MOL0     O23910   2.134  12.098   1.898 -0.5601  0.2600  0.3350
  174MOL0     C23911   2.035  12.033   1.986  0.2544 -0.1171  0.7182
  174MOL0     C23912   1.969  11.916   1.905 -0.3077  0.0665 -0.7187
  174MOL0     C23913   1.934  11.936   1.755 -0.7883  0.3006  0.6270
  174MOL0     C23914   1.801  12.020   1.735 -0.2645  0.4677 -1.2060
  174MOL0     C23915   1.807  12.076   1.597 -0.6219 -0.5957  0.2856
  174MOL0     C23916   1.677  12.137   1.570 -0.3358 -0.3862  0.6469
  174MOL0     C23917   1.676  12.190   1.429  0.6227  0.0442  0.1638
  174MOL0     C23918   1.563  12.289   1.407  0.5624 -0.0245  0.0470
  174MOL0    Cl23919   1.589  12.454   1.484  0.0656  0.1105  0.1473
  174MOL0     C23920   2.274  12.214   2.067  0.4174 -0.4817 -0.6338
  174MOL0     C23921   2.404  12.222   2.135 -0.4465 -0.6773 -0.0729
  174MOL0     O23922   2.767  12.000   2.069  0.2389 -0.0275  0.1516
  174MOL0     C23923   2.857  12.238   2.304  0.0809 -0.3075  1.0470
  174MOL0     C23924   2.951  12.271   2.402  0.8870  1.1700  0.1460
  174MOL0     N23925   3.741  11.900   2.506  0.1747 -0.2219 -0.5873
  174MOL0     N23926   3.820  11.793   2.491  0.1689  0.3000  0.0637
  174MOL0     C23927   3.603  11.002   1.502  0.5347  0.5036  0.8415
  174MOL0     C23928   3.511  10.922   1.423  0.5690 -0.4677 -0.1661
  174MOL0     C23929   3.338  10.511   1.257  0.5229  0.1530  0.1675
  174MOL0     C23930   3.369  10.547   1.128 -0.0854 -0.3169  0.6341
  174MOL0     C23931   3.346  10.470   1.018  0.3283 -0.1143  0.5138
  174MOL0     C23932   3.290  10.347   1.038  0.0729  0.0254  0.3773
  174MOL0     O23933   3.295  10.265   0.926 -0.2575 -0.1737 -1.0377
  174MOL0     C23934   3.222  10.138   0.934  0.5578  0.3608  0.0043
  174MOL0     C23935   3.072  10.147   0.928  0.1059  0.5465 -0.9550
  174MOL0     C23936   3.006  10.223   0.808 -0.8427 -0.4452  0.0485
  174MOL0     C23937   3.041  10.149   0.671 -0.0420 -0.6159  0.6035
  174MOL0     C23938   2.966  10.223   0.571  0.5793 -0.3013 -0.6938
  174MOL0     C23939   2.901  10.280   0.486 -0.4510  1.0160 -0.7208
  174MOL0     C23940   3.244  10.310   1.161  0.0706  0.9890 -0.3507
  174MOL0     C23941   3.270  10.384   1.278  0.5085 -0.4025  0.0915
  174MOL0     C23942   3.235  10.327   1.414 -0.3778 -0.2651  0.1953
  174MOL0     H23943   3.608  10.619   1.540 -0.8462 -0.7990 -1.7573
  174MOL0     H23944   3.714  10.750   1.708  0.2860  1.2896  0.5383
  174MOL0     H23945   3.891  10.884   1.743 -1.8042 -0.5396 -0.4268
  174MOL0     H23946   3.773  10.943   1.871  3.6817 -0.9688  2.3985
  174MOL0     H23947   3.972  11.022   1.952  1.4860  0.8973 -0.3288
  174MOL0     H23948   4.027  11.083   1.791  1.4485  0.3369  1.8045
  174MOL0     H23949   3.975  11.273   1.919  1.0772  0.4063 -1.1595
  174MOL0     H23950   3.847  11.263   1.810 -3.2239 -2.0346  0.6829
  174MOL0     H23951   3.688  11.156   1.964 -0.2081  1.6511 -0.6514
  174MOL0     H23952   3.810  11.143   2.086 -0.2370  1.6549  0.8758
  174MOL0     H23953   3.632  11.335   2.090 -0.2484 -1.2036 -0.1438
  174MOL0     H23954   3.728  11.421   1.974 -4.1587  0.5959 -0.1754
  174MOL0     H23955   3.862  11.336   2.242  0.5064 -0.3988 -1.6015
  174MOL0     H23956   3.932  11.428   2.112  0.2894  1.6057 -0.2210
  174MOL0     H23957   3.682  11.513   2.248  1.8655 -2.6753  2.4911
  174MOL0     H23958   3.776  11.613   2.126 -0.0941  2.3457  1.6518
  174MOL0     H23959   3.815  11.528   2.419  1.6268  0.4632  1.8960
  174MOL0     H23960   3.948  11.611   2.329 -0.6217  1.0838 -0.1822
  174MOL0     H23961   3.609  11.759   2.241  0.1856 -0.4866 -0.6141
  174MOL0     H23962   3.478  11.970   2.308  1.7948 -0.1284 -0.9031
  174MOL0     H23963   3.570  12.090   2.383  0.1576  1.4562  0.5351
  174MOL0     H23964   3.416  11.884   2.543  0.4037 -0.7177 -0.4592
  174MOL0     H23965   3.490  12.025   2.623 -1.5381 -0.5700  0.4807
  174MOL0     H23966   3.267  12.001   2.414 -2.7124 -0.8240  0.9099
  174MOL0     H23967   3.239  12.024   2.589  0.4590  0.5031  0.3415
  174MOL0     H23968   3.366  12.259   2.559  0.3967  0.1961  0.3934
  174MOL0     H23969   3.359  12.216   2.385 -0.2574  1.3519  0.2806
  174MOL0     H23970   3.212  12.137   2.230  0.4385 -0.5550  0.9599
  174MOL0     H23971   3.035  12.075   1.964  1.2860  0.1826  0.0672
  174MOL0     H23972   3.002  11.931   2.065 -1.9704  0.3758  0.9554
  174MOL0     H23973   3.162  11.992   2.061 -0.7721 -1.4247  0.3150
  174MOL0     H23974   2.580  12.020   1.918 -1.3033 -0.1112 -1.7548
  174MOL0     H23975   2.360  11.970   1.841  0.2711 -3.9529  5.1226
  174MOL0     H23976   2.075  11.993   2.079  0.1269  0.4915  1.0408
  174MOL0     H23977   1.959  12.106   2.016  0.7084  0.4547  0.4988
  174MOL0     H23978   2.025  11.825   1.929 -3.9663 -1.3744  3.6775
  174MOL0     H23979   1.871  11.892   1.946  0.2488 -1.3273 -0.1355
  174MOL0     H23980   1.934  11.835   1.711  0.4396  0.8359 -0.7017
  174MOL0     H23981   2.014  11.988   1.701 -2.1490  1.1239 -0.6648
  174MOL0     H23982   1.789  12.099   1.809 -1.8587 -2.9051  2.5030
  174MOL0     H23983   1.720  11.947   1.744 -0.2920  0.5634 -0.6443
  174MOL0     H23984   1.885  12.153   1.598 -0.3354 -0.7806 -2.2125
  174MOL0     H23985   1.833  11.995   1.529 -0.6978 -1.3849  1.1796
  174MOL0     H23986   1.655  12.224   1.633 -1.3263 -0.0238 -0.1731
  174MOL0     H23987   1.593  12.067   1.574 -0.9443  0.3607  1.6452
  174MOL0     H23988   1.662  12.108   1.358  1.9990 -0.8453  0.8558
  174MOL0     H23989   1.760  12.250   1.392  1.4655 -1.5729 -0.6377
  174MOL0     H23990   1.470  12.240   1.440  0.8373 -0.8904 -0.4362
  174MOL0     H23991   1.566  12.308   1.300 -2.1799 -3.9369 -0.9566
  174MOL0     H23992   2.184  12.256   2.111  1.6550  1.1266  0.4473
  174MOL0     H23993   2.398  12.276   2.229 -0.9203 -3.0159  1.3379
  174MOL0     H23994   2.754  12.257   2.331  0.0605  0.7397  0.2981
  174MOL0     H23995   2.923  12.325   2.492 -0.4480  0.1352  0.3874
  174MOL0     H23996   3.606  11.108   1.482 -4.5246  1.0370  1.6219
  174MOL0     H23997   3.453  10.969   1.345 -1.1967 -0.7195  0.9302
  174MOL0     H23998   3.423  10.638   1.104 -0.3150 -0.5623 -0.9550
  174MOL0     H23999   3.367  10.501   0.916 -0.0653 -0.6401  0.2641
  174MOL0     H24000   3.252  10.082   0.845 -1.2916  3.7892 -3.0463
  174MOL0     H24001   3.257  10.066   1.008  1.4079 -2.2985 -2.7515
  174MOL0     H24002   3.023  10.176   1.022 -0.2961 -0.5251 -0.8239
  174MOL0     H24003   3.031  10.046   0.920  1.2675 -0.2785  2.1344
  174MOL0     H24004   2.898  10.224   0.824 -0.6229  0.2766  1.6113
  174MOL0     H24005   3.046  10.324   0.804  0.0964 -0.7954  0.2772
  174MOL0     H24006   3.012  10.044   0.678 -2.0362 -0.1550 -0.0556
  174MOL0     H24007   3.146  10.146   0.641 -0.6182 -2.7987 -1.4527
  174MOL0     H24008   2.842  10.319   0.407 -0.4673  0.7095 -0.8635
  174MOL0     H24009   3.180  10.223   1.175 -1.7998  2.2355 -0.7526
  174MOL0     H24010   3.314  10.346   1.488 -1.0332  0.7650  0.6541
  174MOL0     H24011   3.140  10.369   1.447  0.5775  1.4105  0.9498
  174MOL0     H24012   3.225  10.219   1.409  0.5190 -0.2919 -2.6502
  175MOL0     O24013   3.853   1.202   5.854 -0.0836 -0.2189  0.4507
  175MOL0     C24014   3.809   1.190   5.738 -0.3484 -0.0383  0.3771
  175MOL0     O24015   3.831   1.085   5.654  0.9659  0.0074  0.1101
  175MOL0     C24016   3.906   0.981   5.689  0.7424  0.8612 -1.4440
  175MOL0     C24017   3.853   0.852   5.726  0.3945  0.3209 -0.8959
  175MOL0     C24018   3.936   0.743   5.767  0.1266 -0.2237  0.7472
  175MOL0     C24019   4.072   0.760   5.781  0.3032  0.5946 -0.0107
  175MOL0     O24020   4.148   0.650   5.802 -1.0626  0.1643 -0.0673
  175MOL0     C24021   4.228   0.644   5.925 -0.4607  0.6755  0.6629
  175MOL0     C24022   4.151   0.663   6.052  0.0006 -0.5603 -0.2750
  175MOL0     C24023   4.056   0.545   6.079  0.4753  0.5518  0.7206
  175MOL0     C24024   4.119   0.451   6.174 -0.7798  0.8514  0.5704
  175MOL0     C24025   4.026   0.327   6.209 -0.2988 -0.3263 -0.1165
  175MOL0     C24026   3.901   0.368   6.290  0.0067  1.1822 -0.0674
  175MOL0     C24027   3.794   0.246   6.302 -0.5249  0.2123 -0.4249
  175MOL0     C24028   3.713   0.228   6.168 -0.3842  0.3366 -0.4772
  175MOL0     N24029   3.640   0.348   6.129 -0.4967 -0.1832 -0.1488
  175MOL0     C24030   3.539   0.405   6.194  0.3488 -0.4345 -0.7566
  175MOL0     C24031   3.507   0.521   6.125 -0.5076  0.3461  0.2144
  175MOL0     C24032   3.408   0.630   6.150  0.0545 -0.1072 -0.5713
  175MOL0     C24033   3.271   0.631   6.073 -0.4457  0.2927  0.8180
  175MOL0     C24034   3.156   0.665   6.152  0.5122  0.3746 -0.0814
  175MOL0     C24035   3.020   0.651   6.081 -0.3844 -0.2413 -0.4581
  175MOL0     O24036   3.012   0.510   6.054 -0.6548 -0.0145 -1.1504
  175MOL0     C24037   2.935   0.474   5.948 -0.6372  0.1126 -0.0498
  175MOL0     C24038   2.832   0.548   5.889 -0.9250  0.0365 -0.0388
  175MOL0     C24039   2.744   0.512   5.791 -0.5404  0.8670  0.9587
  175MOL0     C24040   2.638   0.602   5.759  0.1369  0.1524 -0.1816
  175MOL0     C24041   2.776   0.383   5.736  0.4254 -0.9462 -0.5552
  175MOL0     C24042   2.716   0.328   5.612 -1.0292 -0.5273 -0.0038
  175MOL0     O24043   2.669   0.418   5.514  0.0374  0.6286 -0.0044
  175MOL0     C24044   2.613   0.359   5.406 -0.0428 -0.3052  0.1645
  175MOL0     C24045   2.690   0.332   5.293 -0.8721  0.7129  0.2076
  175MOL0     C24046   2.629   0.285   5.169  0.3013 -0.1821 -1.6488
  175MOL0     C24047   2.483   0.266   5.176  0.0299  0.3883  0.2342
  175MOL0     O24048   2.429   0.231   5.055 -0.2694  0.1910 -0.0815
  175MOL0     C24049   2.301   0.168   5.053  0.7009  1.2732 -0.0782
  175MOL0     C24050   2.175   0.249   5.072 -0.2857 -0.2229 -0.5037
  175MOL0     C24051   2.156   0.338   4.949  0.9126 -0.3752 -0.1964
  175MOL0     C24052   2.190   0.489   4.986 -0.3569  0.9751  0.1036
  175MOL0     C24053   2.162   0.598   4.878 -0.6177  0.2073 -0.5273
  175MOL0     C24054   2.036   0.579   4.789 -0.3361 -0.1561 -0.4307
  175MOL0     C24055   1.902   0.601   4.861  1.2403  0.1642  0.4457
  175MOL0     C24056   1.872   0.753   4.868  0.3159  0.2547 -0.2676
  175MOL0    Cl24057   1.826   0.820   4.695 -0.1295 -0.2264  0.1108
  175MOL0     C24058   2.417   0.284   5.291  0.3250  0.1815 -0.1090
  175MOL0     C24059   2.475   0.340   5.402  0.7798  0.2784 -0.2218
  175MOL0     O24060   2.759   0.217   5.584  0.1352  0.1797  0.7760
  175MOL0     C24061   2.857   0.302   5.814  0.5291  0.0544  1.1830
  175MOL0     C24062   2.936   0.345   5.915 -0.1935 -0.3743  0.9099
  175MOL0     N24063   3.590   0.532   6.022  0.0070 -0.1291 -0.6325
  175MOL0     N24064   3.663   0.427   6.014  0.0558  0.0936 -1.1041
  175MOL0     C24065   4.122   0.886   5.769  0.3030 -0.7173  0.0487
  175MOL0     C24066   4.047   0.998   5.725  0.3625  0.6698  0.1329
  175MOL0     C24067   3.734   1.308   5.677  0.4261 -0.5838 -0.3674
  175MOL0     C24068   3.787   1.443   5.684 -0.7821 -0.5113 -0.2855
  175MOL0     C24069   3.728   1.555   5.642  0.5421 -0.0055 -1.1973
  175MOL0     C24070   3.598   1.540   5.572 -0.1809  0.9514 -0.8520
  175MOL0     O24071   3.545   1.653   5.517  0.7742  0.6165 -0.1154
  175MOL0     C24072   3.413   1.654   5.465  0.8850  1.0680  0.3883
  175MOL0     C24073   3.373   1.796   5.437  0.1850  0.7964  0.7520
  175MOL0     C24074   3.243   1.802   5.356 -0.1917  0.2375  0.4902
  175MOL0     C24075   3.173   1.936   5.382 -0.3254  0.3154  0.0057
  175MOL0     C24076   3.054   1.961   5.305  0.0952 -0.6137 -0.2736
  175MOL0     C24077   2.947   1.969   5.242  0.2642 -0.0270 -0.2563
  175MOL0     C24078   3.545   1.409   5.559  0.3629  0.3323 -0.6231
  175MOL0     C24079   3.613   1.292   5.608 -0.2471 -0.0711  0.2031
  175MOL0     C24080   3.539   1.154   5.596 -0.1220  0.6103 -0.7472
  175MOL0     H24081   3.750   0.820   5.709  0.9683 -2.4082  0.2961
  175MOL0     H24082   3.897   0.644   5.786  1.2282 -0.7692  0.2355
  175MOL0     H24083   4.309   0.717   5.914 -0.1766  0.0020 -3.7174
  175MOL0     H24084   4.275   0.545   5.924 -0.0975  0.8212 -1.1390
  175MOL0     H24085   4.224   0.671   6.132 -0.7635  0.6121  0.3349
  175MOL0     H24086   4.101   0.761   6.053  0.1657 -0.3850 -2.6198
  175MOL0     H24087   3.962   0.583   6.121  0.2037  1.6935 -0.8446
  175MOL0     H24088   4.033   0.499   5.983  1.2355 -0.2713  0.9233
  175MOL0     H24089   4.219   0.432   6.133 -0.6956  1.7749  0.3231
  175MOL0     H24090   4.146   0.499   6.268  1.1427  2.9467 -0.9364
  175MOL0     H24091   4.079   0.255   6.272 -0.8723 -0.8305 -0.1957
  175MOL0     H24092   3.988   0.276   6.120  1.0570  0.5397 -1.2245
  175MOL0     H24093   3.948   0.403   6.382  1.4540  4.3850 -1.8536
  175MOL0     H24094   3.844   0.443   6.234  0.5128  0.7074 -1.2752
  175MOL0     H24095   3.719   0.280   6.374 -2.3030  2.6510 -3.2169
  175MOL0     H24096   3.840   0.152   6.334  0.7554  1.0902  0.4501
  175MOL0     H24097   3.787   0.198   6.094  1.5609  0.5332  1.2972
  175MOL0     H24098   3.631   0.155   6.171 -1.5029  1.5090  2.9261
  175MOL0     H24099   3.501   0.382   6.293  0.7540 -1.7549 -0.8862
  175MOL0     H24100   3.466   0.720   6.125  0.0132  0.8490  2.3907
  175MOL0     H24101   3.385   0.640   6.256 -2.7589  0.1429 -1.1195
  175MOL0     H24102   3.282   0.706   5.994  2.0685 -0.9517 -0.1342
  175MOL0     H24103   3.266   0.533   6.026  2.5894  0.2848  0.2972
  175MOL0     H24104   3.149   0.610   6.246  1.8596 -1.7712 -1.1448
  175MOL0     H24105   3.175   0.772   6.165  0.1186  0.3650  0.5972
  175MOL0     H24106   2.936   0.672   6.148  0.6983 -3.6114  2.2477
  175MOL0     H24107   3.020   0.705   5.986 -1.9345 -0.7963 -0.8084
  175MOL0     H24108   2.818   0.643   5.940  0.2508 -0.6571  1.6610
  175MOL0     H24109   2.545   0.546   5.768  1.1517 -1.6279 -0.2390
  175MOL0     H24110   2.654   0.643   5.659 -3.5300 -1.0067 -1.4003
  175MOL0     H24111   2.644   0.681   5.835  1.1552 -1.5566  1.6112
  175MOL0     H24112   2.798   0.338   5.288 -0.8702 -0.2569 -2.8231
  175MOL0     H24113   2.691   0.266   5.082  2.5146 -0.7722 -0.0162
  175MOL0     H24114   2.291   0.127   4.952 -3.0712 -0.4219  0.8126
  175MOL0     H24115   2.295   0.083   5.121  0.2402  2.5018  1.4902
  175MOL0     H24116   2.091   0.178   5.081  0.2641 -1.0102 -1.3784
  175MOL0     H24117   2.176   0.308   5.164 -2.9598  1.1202 -1.2404
  175MOL0     H24118   2.048   0.340   4.930  0.6997  2.0010  0.8914
  175MOL0     H24119   2.217   0.302   4.865  0.0353  0.6082 -1.2762
  175MOL0     H24120   2.295   0.492   5.016 -0.7005  3.1229  1.2930
  175MOL0     H24121   2.118   0.510   5.065 -0.3229 -1.3729  0.8173
  175MOL0     H24122   2.150   0.699   4.917  0.1656  0.7451 -1.6160
  175MOL0     H24123   2.249   0.588   4.813 -0.5347 -1.8543 -0.1521
  175MOL0     H24124   2.026   0.474   4.758  0.2507 -0.3653  0.0839
  175MOL0     H24125   2.044   0.632   4.694 -1.0542  0.8740  0.0732
  175MOL0     H24126   1.882   0.545   4.953 -1.5098 -0.2866 -0.3402
  175MOL0     H24127   1.832   0.556   4.791  2.5288 -0.7465 -0.3162
  175MOL0     H24128   1.945   0.805   4.930 -0.5755  2.9343 -1.3562
  175MOL0     H24129   1.783   0.758   4.931  0.8792  1.7249  0.4408
  175MOL0     H24130   2.312   0.262   5.309 -0.3260  3.9529  1.5016
  175MOL0     H24131   2.416   0.364   5.490 -1.0923  1.3347 -1.6838
  175MOL0     H24132   2.868   0.197   5.790  4.0555  0.3495  0.9869
  175MOL0     H24133   2.987   0.274   5.979 -1.7307 -0.9573  1.5341
  175MOL0     H24134   4.226   0.905   5.795  0.2726  0.4228 -0.5715
  175MOL0     H24135   4.093   1.093   5.700  1.8087 -1.2151 -5.9475
  175MOL0     H24136   3.878   1.462   5.740 -0.9004  2.1429 -0.8598
  175MOL0     H24137   3.774   1.652   5.652 -0.8368  0.6526 -0.9692
  175MOL0     H24138   3.399   1.601   5.371 -2.4786  4.9576 -1.6137
  175MOL0     H24139   3.354   1.612   5.546 -1.2696 -1.4497 -2.2823
  175MOL0     H24140   3.459   1.835   5.382  0.3535 -0.3891  0.1265
  175MOL0     H24141   3.360   1.841   5.536 -0.3570  2.2732  0.0370
  175MOL0     H24142   3.255   1.809   5.247  0.3733  3.5332  0.6666
  175MOL0     H24143   3.183   1.715   5.388 -1.3194  0.0339 -1.9099
  175MOL0     H24144   3.240   2.012   5.341  0.2870 -0.4764 -0.4804
  175MOL0     H24145   3.168   1.964   5.488 -0.6433  5.9420 -1.1754
  175MOL0     H24146   2.855   1.968   5.187 -0.1472 -0.0867  0.4197
  175MOL0     H24147   3.461   1.381   5.496 -0.2132 -1.5297  0.8894
  175MOL0     H24148   3.584   1.099   5.513  1.6843  0.7396  0.1152
  175MOL0     H24149   3.563   1.109   5.692  1.6160  2.8279 -0.0707
  175MOL0     H24150   3.430   1.165   5.584 -0.3608 -1.0416 -0.3107
  176MOL0     O24151   7.593   9.017   6.362 -0.3778  0.0693  0.6380
  176MOL0     C24152   7.600   8.937   6.271  0.0924  0.3809 -0.2854
  176MOL0     O24153   7.674   8.957   6.163  0.5665  0.2453  0.8732
  176MOL0     C24154   7.766   9.055   6.159 -0.2093  0.2130  0.0897
  176MOL0     C24155   7.892   9.053   6.217  0.5501  0.1173 -0.0399
  176MOL0     C24156   7.983   9.161   6.211 -0.5825  0.4658  0.2944
  176MOL0     C24157   7.944   9.287   6.143  0.0122  0.4085 -0.3579
  176MOL0     O24158   8.027   9.395   6.147  0.1427 -0.3712  0.3419
  176MOL0     C24159   8.134   9.402   6.243  0.1596 -0.3734 -0.0730
  176MOL0     C24160   8.183   9.548   6.257  0.8980 -0.7484 -0.0763
  176MOL0     C24161   8.231   9.596   6.115 -0.2218  0.8100 -1.1091
  176MOL0     C24162   8.270   9.743   6.098  0.0188  0.1203 -0.2541
  176MOL0     C24163   8.210   9.795   5.968  0.1503  0.0203  0.2891
  176MOL0     C24164   8.057   9.814   5.976  0.8849 -0.7396 -0.5038
  176MOL0     C24165   7.996   9.843   5.838 -0.4852  0.4119 -0.2343
  176MOL0     C24166   7.995   9.994   5.796  0.7088 -0.2924 -0.4038
  176MOL0     N24167   7.968  10.006   5.651  0.1951  0.1159 -0.1515
  176MOL0     C24168   7.890   9.923   5.567 -0.5214  1.0198  0.8754
  176MOL0     C24169   7.911   9.974   5.447  0.2406 -0.5433 -0.3397
  176MOL0     C24170   7.841   9.939   5.323  0.8613 -0.7166  0.5903
  176MOL0     C24171   7.931   9.860   5.227 -0.3296  0.1533  0.8424
  176MOL0     C24172   8.036   9.950   5.165  0.7137  0.7023 -0.8927
  176MOL0     C24173   8.117   9.910   5.042  0.2882  0.2654 -0.9166
  176MOL0     O24174   8.225   9.998   5.047 -0.1680  0.1699 -0.8828
  176MOL0     C24175   8.324   9.968   4.956 -1.1303  0.3963 -0.5483
  176MOL0     C24176   8.337   9.849   4.889  0.2271 -0.3028 -0.1254
  176MOL0     C24177   8.448   9.819   4.801 -0.2086 -0.5372  0.2672
  176MOL0     C24178   8.441   9.690   4.727 -0.3036  1.3860  0.1502
  176MOL0     C24179   8.546   9.920   4.789  0.7751  0.5986  1.4746
  176MOL0     C24180   8.658   9.902   4.698 -0.5535  0.0381  0.2355
  176MOL0     O24181   8.683  10.002   4.611 -1.4241  0.5743 -0.0613
  176MOL0     C24182   8.818  10.021   4.593 -1.2674  0.4379  0.3666
  176MOL0     C24183   8.878   9.978   4.473  0.7100  0.6912 -0.5576
  176MOL0     C24184   9.013  10.000   4.443 -0.3822 -0.2428  0.1878
  176MOL0     C24185   9.103  10.062   4.533  0.8089 -0.1889  0.2066
  176MOL0     O24186   9.235  10.089   4.506  0.1534  0.1432 -0.2025
  176MOL0     C24187   9.313  10.008   4.416 -1.2783 -0.3603 -0.1319
  176MOL0     C24188   9.448  10.071   4.405 -0.2323 -0.6710 -0.2642
  176MOL0     C24189   9.517  10.072   4.540  0.4426 -0.8663  0.7713
  176MOL0     C24190   9.568   9.928   4.573  0.7026  0.0137  0.2907
  176MOL0     C24191   9.654   9.924   4.707 -1.1408  0.1129  0.8187
  176MOL0     C24192   9.810   9.941   4.713  0.7407  0.0711 -0.3793
  176MOL0     C24193   9.879   9.826   4.632  0.1573  0.4738 -0.2934
  176MOL0     C24194  10.015   9.855   4.584  0.2178  0.1719 -0.1350
  176MOL0    Cl24195  10.017   9.951   4.439  0.6690  0.0195  0.4425
  176MOL0     C24196   9.049  10.093   4.661 -0.6008  0.6985  0.3512
  176MOL0     C24197   8.906  10.068   4.687 -0.6488  0.3828 -1.1363
  176MOL0     O24198   8.731   9.802   4.707 -0.0639 -0.2334  0.6739
  176MOL0     C24199   8.527  10.038   4.853 -0.3078 -0.2548 -0.4487
  176MOL0     C24200   8.430  10.056   4.955 -0.1790 -0.1079  0.5779
  176MOL0     N24201   8.006  10.071   5.452 -1.2584  0.3295 -0.3296
  176MOL0     N24202   8.031  10.100   5.573 -0.6561 -0.2747 -0.0121
  176MOL0     C24203   7.822   9.279   6.078  0.3272 -0.1276  0.7595
  176MOL0     C24204   7.737   9.170   6.082  0.1240  1.0901 -0.2743
  176MOL0     C24205   7.513   8.814   6.269  0.2634 -0.3835 -0.2429
  176MOL0     C24206   7.516   8.729   6.155 -0.3553 -0.5954  0.2973
  176MOL0     C24207   7.451   8.603   6.141 -0.2569 -0.0890  0.1725
  176MOL0     C24208   7.381   8.549   6.249  0.5248  0.1100  0.1872
  176MOL0     O24209   7.317   8.422   6.246 -0.3970 -0.4583 -0.0461
  176MOL0     C24210   7.330   8.335   6.129 -1.0851 -0.0674 -0.8970
  176MOL0     C24211   7.445   8.241   6.151 -0.3731 -1.2084 -0.3075
  176MOL0     C24212   7.482   8.155   6.036  0.3674 -0.2550  0.0305
  176MOL0     C24213   7.375   8.147   5.922 -0.2015 -0.4776 -0.1408
  176MOL0     C24214   7.259   8.074   5.973 -0.5943 -0.3150  0.4732
  176MOL0     C24215   7.160   8.005   5.986 -0.6274 -0.4167 -0.2781
  176MOL0     C24216   7.368   8.635   6.360 -1.1370  0.4348 -0.3314
  176MOL0     C24217   7.434   8.758   6.379 -0.2105 -0.3266  0.7969
  176MOL0     C24218   7.403   8.835   6.506  0.3981 -0.4328 -0.4948
  176MOL0     H24219   7.916   8.958   6.264  2.2333  1.5914  2.2226
  176MOL0     H24220   8.079   9.139   6.256 -0.3842 -1.7568 -1.0441
  176MOL0     H24221   8.215   9.340   6.204  0.2161 -1.0899  1.1275
  176MOL0     H24222   8.100   9.370   6.343 -0.4532  2.2103  0.6145
  176MOL0     H24223   8.101   9.616   6.278 -0.1581 -2.4539  1.5910
  176MOL0     H24224   8.266   9.563   6.327  1.5063  1.5908 -1.1994
  176MOL0     H24225   8.324   9.545   6.090 -0.2578  2.1900 -4.7472
  176MOL0     H24226   8.158   9.571   6.037 -1.5459  2.3483 -0.4332
  176MOL0     H24227   8.224   9.801   6.179  0.1324 -1.7145  1.2113
  176MOL0     H24228   8.379   9.753   6.104 -0.0060  0.1801  0.1682
  176MOL0     H24229   8.230   9.743   5.874 -2.5103  1.2910 -1.0823
  176MOL0     H24230   8.249   9.897   5.966 -0.8896  0.4697 -3.0608
  176MOL0     H24231   8.012   9.720   6.009  0.5477 -0.6988 -0.8407
  176MOL0     H24232   8.032   9.883   6.057  0.3945 -5.3336  3.7634
  176MOL0     H24233   7.896   9.801   5.831 -0.4010  0.0240  0.7118
  176MOL0     H24234   8.052   9.783   5.765 -2.5689 -0.8216 -0.8830
  176MOL0     H24235   7.921  10.051   5.854  2.0155  1.2681 -0.1696
  176MOL0     H24236   8.093  10.036   5.819  0.3747 -0.9429  2.6832
  176MOL0     H24237   7.841   9.836   5.610  1.4455 -1.2835 -1.2623
  176MOL0     H24238   7.808  10.021   5.258  1.2877  0.1752  1.4746
  176MOL0     H24239   7.754   9.879   5.350  0.4578 -1.2239 -1.6740
  176MOL0     H24240   7.994   9.790   5.283 -0.5626 -2.4126 -1.8824
  176MOL0     H24241   7.870   9.811   5.150 -0.9615  1.9358  0.1613
  176MOL0     H24242   7.983  10.041   5.136 -0.4139 -0.5346 -2.9180
  176MOL0     H24243   8.118   9.981   5.231 -0.5228  1.3429  0.3940
  176MOL0     H24244   8.151   9.806   5.049 -2.6133 -0.7644 -1.0135
  176MOL0     H24245   8.054   9.915   4.953 -3.5062 -3.3701  1.2057
  176MOL0     H24246   8.260   9.772   4.887 -0.3793  0.2969 -2.2358
  176MOL0     H24247   8.340   9.677   4.686  0.5051 -0.6733 -1.3386
  176MOL0     H24248   8.458   9.609   4.798  2.7514  1.1153 -0.7593
  176MOL0     H24249   8.501   9.694   4.635 -0.7606 -0.9529 -0.3051
  176MOL0     H24250   8.808   9.923   4.410 -0.2619 -2.9252  3.1624
  176MOL0     H24251   9.048   9.966   4.346  0.8790 -1.7472  1.1221
  176MOL0     H24252   9.318   9.899   4.427  3.4468 -0.7517 -3.2510
  176MOL0     H24253   9.268  10.010   4.316  2.3051  1.0554 -1.8998
  176MOL0     H24254   9.502  10.017   4.326 -0.5369 -0.2135 -0.7919
  176MOL0     H24255   9.434  10.173   4.368 -0.5227  1.0742  4.0215
  176MOL0     H24256   9.466  10.129   4.618  0.9657  5.1622 -2.6888
  176MOL0     H24257   9.606  10.131   4.517 -0.1743 -0.3262 -0.3177
  176MOL0     H24258   9.621   9.882   4.489  0.9603  4.7103 -2.4498
  176MOL0     H24259   9.477   9.871   4.589  0.1266  0.2953 -1.6972
  176MOL0     H24260   9.608   9.998   4.774 -1.1402 -0.8755  1.9298
  176MOL0     H24261   9.622   9.831   4.754 -1.2773  0.6797  1.8743
  176MOL0     H24262   9.845   9.935   4.816  0.9041 -0.2475 -0.4511
  176MOL0     H24263   9.836  10.044   4.688 -4.6833  1.6909 -0.5343
  176MOL0     H24264   9.828   9.790   4.542  1.1082 -1.6351 -0.0454
  176MOL0     H24265   9.871   9.735   4.692  0.3784  0.2718 -0.5671
  176MOL0     H24266  10.067   9.761   4.565  2.2821  1.3118 -0.4831
  176MOL0     H24267  10.075   9.903   4.662 -0.9436  2.8052 -0.7675
  176MOL0     H24268   9.114  10.127   4.740 -3.9853  0.0989  3.6831
  176MOL0     H24269   8.870  10.109   4.781  1.2590  0.0769 -0.2114
  176MOL0     H24270   8.602  10.116   4.840 -1.5620  1.1047  0.2468
  176MOL0     H24271   8.432  10.140   5.023 -1.5758  0.5002 -0.1165
  176MOL0     H24272   7.783   9.366   6.026 -1.9185 -1.6771 -0.3353
  176MOL0     H24273   7.651   9.170   6.016 -0.6358  1.9655  0.6726
  176MOL0     H24274   7.579   8.754   6.070  0.7867 -3.1999  0.2884
  176MOL0     H24275   7.465   8.546   6.050 -0.4196 -1.8507  1.1778
  176MOL0     H24276   7.241   8.274   6.141 -1.0478 -0.1958 -1.2676
  176MOL0     H24277   7.323   8.390   6.035 -2.0403  3.2433  0.9572
  176MOL0     H24278   7.424   8.183   6.241  1.8442 -2.8956 -0.7995
  176MOL0     H24279   7.533   8.303   6.168 -1.6303  1.5701 -2.9027
  176MOL0     H24280   7.578   8.186   5.993 -1.7292  4.8187 -1.7540
  176MOL0     H24281   7.502   8.056   6.078  1.8528  0.6813  1.6805
  176MOL0     H24282   7.423   8.092   5.841  0.6878 -0.2942  0.2474
  176MOL0     H24283   7.347   8.243   5.878 -1.8632 -1.2745 -0.8832
  176MOL0     H24284   7.079   7.941   6.014 -2.1993  1.8931  0.7856
  176MOL0     H24285   7.294   8.607   6.434 -0.0751  1.3654  1.1383
  176MOL0     H24286   7.486   8.860   6.573  1.9578  1.3421 -2.8967
  176MOL0     H24287   7.346   8.927   6.488 -2.3221 -2.3253 -2.1545
  176MOL0     H24288   7.334   8.782   6.572  0.9728 -0.4621  0.0971
  177MOL0     O24289   6.064   4.721   9.622 -0.1719  0.4952 -0.3366
  177MOL0     C24290   5.979   4.703   9.710 -0.7783 -0.3355 -0.7108
  177MOL0     O24291   5.908   4.589   9.729  0.5826  0.2376  0.5277
  177MOL0     C24292   5.899   4.502   9.620 -0.7344  0.3873 -0.2045
  177MOL0     C24293   5.993   4.398   9.608  0.1356  0.9578 -1.4606
  177MOL0     C24294   5.987   4.313   9.494  0.1508 -0.2473  1.0023
  177MOL0     C24295   5.881   4.322   9.410 -0.3034 -1.4338  1.2525
  177MOL0     O24296   5.871   4.221   9.316 -0.2816  0.0798 -0.3190
  177MOL0     C24297   5.747   4.220   9.250  0.0248 -0.1655  0.0296
  177MOL0     C24298   5.744   4.109   9.142 -0.1613 -0.7096  0.6784
  177MOL0     C24299   5.612   4.118   9.058 -0.0563 -0.4188  0.4030
  177MOL0     C24300   5.484   4.047   9.116  0.5557  0.0659  0.9222
  177MOL0     C24301   5.361   4.082   9.033  0.5754 -0.2093 -0.1807
  177MOL0     C24302   5.359   4.052   8.884 -0.0712 -0.1364 -0.6824
  177MOL0     C24303   5.394   3.912   8.859  0.4298  0.0213 -0.2888
  177MOL0     C24304   5.380   3.865   8.713 -0.2529 -0.5391 -0.6929
  177MOL0     N24305   5.452   3.945   8.617  1.0013 -0.7193 -0.3961
  177MOL0     C24306   5.578   3.974   8.634 -0.4197  0.3370 -0.4542
  177MOL0     C24307   5.597   4.062   8.539 -0.5520 -0.2656  0.3875
  177MOL0     C24308   5.720   4.148   8.520  0.0342 -0.3510  0.3799
  177MOL0     C24309   5.716   4.260   8.621  0.1650 -0.2121  0.7421
  177MOL0     C24310   5.623   4.371   8.576 -1.3043 -0.5306 -0.2569
  177MOL0     C24311   5.635   4.495   8.665 -0.1042  0.0380  1.3454
  177MOL0     O24312   5.561   4.454   8.784 -0.1768  0.1385 -0.4351
  177MOL0     C24313   5.579   4.525   8.907 -0.3077 -0.6300 -0.4871
  177MOL0     C24314   5.521   4.481   9.021 -0.4945  0.7089  0.0200
  177MOL0     C24315   5.518   4.552   9.142  0.4849  0.1812 -0.7352
  177MOL0     C24316   5.444   4.497   9.267  0.0299 -0.0752 -0.3710
  177MOL0     C24317   5.587   4.677   9.143 -0.1441 -0.4652 -0.4850
  177MOL0     C24318   5.608   4.763   9.268 -0.3368 -0.3299  0.8326
  177MOL0     O24319   5.545   4.729   9.387 -0.2798  0.5216 -0.0075
  177MOL0     C24320   5.547   4.811   9.501 -0.4115 -0.8002  0.6283
  177MOL0     C24321   5.657   4.875   9.551  0.1030  0.1770 -0.5838
  177MOL0     C24322   5.652   4.962   9.658  0.4730 -1.3399 -0.4103
  177MOL0     C24323   5.524   4.987   9.714  0.1760 -0.7768 -0.6241
  177MOL0     O24324   5.510   5.083   9.814 -0.4826  0.4809 -0.3792
  177MOL0     C24325   5.384   5.130   9.864 -0.1484 -0.1472 -0.2657
  177MOL0     C24326   5.334   5.261   9.803  0.1400  0.4320  0.6306
  177MOL0     C24327   5.442   5.368   9.822  0.4740 -0.3618 -0.1241
  177MOL0     C24328   5.400   5.512   9.780 -0.0252  0.1133 -0.0714
  177MOL0     C24329   5.280   5.558   9.849 -0.4129 -0.3977  0.2711
  177MOL0     C24330   5.252   5.707   9.835 -0.1465 -0.0422  0.1027
  177MOL0     C24331   5.119   5.746   9.918  0.3166  0.7014 -0.3556
  177MOL0     C24332   4.993   5.666   9.880 -0.4547  0.6750 -1.0031
  177MOL0    Cl24333   4.987   5.512   9.994 -0.1655  0.1002  0.0919
  177MOL0     C24334   5.407   4.914   9.666  0.2326 -0.3542  0.4650
  177MOL0     C24335   5.413   4.832   9.554 -0.1166  0.5747 -0.0564
  177MOL0     O24336   5.669   4.869   9.253  0.1450 -0.0180  0.4662
  177MOL0     C24337   5.664   4.720   9.032 -0.1983 -0.2438 -0.5348
  177MOL0     C24338   5.657   4.636   8.914 -0.5122 -0.6011  0.1332
  177MOL0     N24339   5.477   4.089   8.466  0.4127 -0.2678 -0.4599
  177MOL0     N24340   5.393   4.007   8.511 -0.0846 -0.3527 -0.4019
  177MOL0     C24341   5.784   4.424   9.432  0.5622 -2.1292  1.0366
  177MOL0     C24342   5.790   4.514   9.535  0.9237 -0.1741 -0.0170
  177MOL0     C24343   5.962   4.814   9.811 -0.0529  0.7606  0.5510
  177MOL0     C24344   5.968   4.947   9.765  0.4177 -0.4038 -0.5189
  177MOL0     C24345   5.954   5.056   9.851  0.7634  0.4281  0.1611
  177MOL0     C24346   5.913   5.036   9.977 -0.5862 -0.1813 -0.2117
  177MOL0     O24347   5.881   5.143  10.057  0.4653 -0.3195  0.2107
  177MOL0     C24348   5.753   5.193  10.045 -0.2499 -0.4539 -0.7580
  177MOL0     C24349   5.728   5.280  10.170 -0.4586  0.0984 -0.4361
  177MOL0     C24350   5.589   5.346  10.171  0.1053 -0.0657 -0.1328
  177MOL0     C24351   5.547   5.416  10.302 -0.1859  0.1498  0.6205
  177MOL0     C24352   5.555   5.336  10.427 -0.1791 -1.3882 -0.5948
  177MOL0     C24353   5.546   5.282  10.536 -0.8766  0.5368 -0.2145
  177MOL0     C24354   5.893   4.906  10.029  0.3825  0.2678  0.6971
  177MOL0     C24355   5.928   4.793   9.949 -1.1642 -0.3409 -0.1910
  177MOL0     C24356   5.941   4.658  10.015  0.4589 -0.2385  0.0026
  177MOL0     H24357   6.078   4.411   9.673  0.5111  0.5618 -1.8671
  177MOL0     H24358   6.078   4.253   9.484  0.1076 -0.1666 -0.0483
  177MOL0     H24359   5.727   4.318   9.206  0.0075  0.0059  0.4236
  177MOL0     H24360   5.663   4.200   9.317 -0.5968  0.2943 -0.6036
  177MOL0     H24361   5.832   4.127   9.080 -1.8505 -2.8904 -2.6778
  177MOL0     H24362   5.761   4.014   9.193  0.7878 -0.6034  0.5788
  177MOL0     H24363   5.584   4.219   9.027 -0.6147 -1.1449 -1.6395
  177MOL0     H24364   5.632   4.063   8.965 -0.5168  2.0056 -1.2296
  177MOL0     H24365   5.504   3.939   9.117  0.0641 -0.1538 -2.1675
  177MOL0     H24366   5.470   4.078   9.219  1.1701  1.2482  0.6682
  177MOL0     H24367   5.328   4.186   9.038 -0.5166 -0.5957  1.0106
  177MOL0     H24368   5.277   4.027   9.078 -1.0369  0.8635 -1.7361
  177MOL0     H24369   5.257   4.080   8.856 -2.3035 -3.9950  2.5744
  177MOL0     H24370   5.435   4.112   8.833  1.8155 -1.1814  0.7653
  177MOL0     H24371   5.328   3.846   8.917 -2.0537  2.6444  0.1036
  177MOL0     H24372   5.500   3.896   8.881  0.5064 -0.3394 -0.9031
  177MOL0     H24373   5.432   3.769   8.708  1.8626 -0.0110  4.5451
  177MOL0     H24374   5.276   3.858   8.679 -0.4051 -2.1507  0.0170
  177MOL0     H24375   5.647   3.949   8.715 -2.3299 -1.1056  0.8241
  177MOL0     H24376   5.719   4.189   8.418  2.0206 -4.4620 -1.5521
  177MOL0     H24377   5.808   4.091   8.549 -1.1319 -2.7539 -0.5437
  177MOL0     H24378   5.665   4.219   8.709 -0.7153 -0.0043  0.3456
  177MOL0     H24379   5.816   4.293   8.648 -0.0244  0.5700  0.5378
  177MOL0     H24380   5.646   4.403   8.474 -1.0505 -2.2715 -0.7743
  177MOL0     H24381   5.519   4.338   8.579 -1.7832  0.8196 -1.0375
  177MOL0     H24382   5.738   4.519   8.692  0.9582 -3.3718  0.7376
  177MOL0     H24383   5.602   4.583   8.607  3.6159  1.1940  0.7160
  177MOL0     H24384   5.463   4.392   8.998 -0.1362  0.3830  0.3565
  177MOL0     H24385   5.394   4.576   9.323 -1.7182 -2.1335  1.1744
  177MOL0     H24386   5.502   4.438   9.339 -0.4929 -0.6617 -0.4213
  177MOL0     H24387   5.368   4.426   9.233  0.3337 -1.1309  1.0520
  177MOL0     H24388   5.753   4.888   9.501  0.9279  1.9969  1.3381
  177MOL0     H24389   5.737   5.027   9.676 -0.1892  0.0032 -1.8667
  177MOL0     H24390   5.307   5.053   9.853  1.3071 -1.7213  0.2280
  177MOL0     H24391   5.398   5.148   9.971 -0.5192  0.4857 -0.3111
  177MOL0     H24392   5.315   5.247   9.697 -2.3125  0.5100  1.0090
  177MOL0     H24393   5.239   5.282   9.851  0.2824 -1.7223  2.0049
  177MOL0     H24394   5.523   5.346   9.751 -1.0111  1.8734 -2.6679
  177MOL0     H24395   5.465   5.374   9.928 -1.9782 -1.2734  0.5295
  177MOL0     H24396   5.380   5.520   9.672  0.4538  3.4108 -0.0270
  177MOL0     H24397   5.481   5.583   9.798 -2.6450  3.2285  0.6259
  177MOL0     H24398   5.197   5.493   9.819 -2.9914  1.5829  2.6077
  177MOL0     H24399   5.314   5.537   9.950 -0.4883  1.5068  0.7334
  177MOL0     H24400   5.224   5.730   9.732  1.0681  0.7735 -0.0544
  177MOL0     H24401   5.343   5.762   9.860  0.1594 -0.8433  0.8199
  177MOL0     H24402   5.096   5.849   9.888 -0.5963  1.2051  1.8704
  177MOL0     H24403   5.138   5.741  10.025 -0.8712 -0.6316 -0.1728
  177MOL0     H24404   4.985   5.633   9.776 -1.2803 -2.1676 -0.1456
  177MOL0     H24405   4.906   5.729   9.900 -0.8040  0.3611 -1.5186
  177MOL0     H24406   5.304   4.931   9.698 -1.6977  1.1163 -5.3014
  177MOL0     H24407   5.320   4.795   9.513 -1.6732  0.0393  3.6125
  177MOL0     H24408   5.724   4.811   9.036  1.7265 -1.4968  0.6195
  177MOL0     H24409   5.719   4.671   8.832  2.3064  2.4469  3.2478
  177MOL0     H24410   5.699   4.434   9.367  1.8384 -4.3569 -1.1662
  177MOL0     H24411   5.705   4.581   9.532 -0.8982 -2.3431 -1.8946
  177MOL0     H24412   5.987   4.959   9.659 -0.9205 -1.9957 -0.9865
  177MOL0     H24413   5.968   5.149   9.797 -0.1800  0.3554 -0.2330
  177MOL0     H24414   5.735   5.249   9.953 -2.5737 -2.2974 -1.5451
  177MOL0     H24415   5.673   5.119  10.031  0.8067 -1.8695  0.3704
  177MOL0     H24416   5.804   5.358  10.169 -1.4781  1.1945 -3.2435
  177MOL0     H24417   5.750   5.222  10.260 -0.1794  4.1124  2.3308
  177MOL0     H24418   5.587   5.428  10.098  2.8867  0.2066 -0.0117
  177MOL0     H24419   5.515   5.274  10.133 -0.3782  1.8706 -3.2570
  177MOL0     H24420   5.442   5.445  10.287  0.3638  1.1061 -1.8783
  177MOL0     H24421   5.607   5.506  10.317 -0.2799  1.0215 -3.1764
  177MOL0     H24422   5.541   5.246  10.637  0.3493  0.6942 -0.0929
  177MOL0     H24423   5.862   4.888  10.132 -5.0229  0.1795 -0.6560
  177MOL0     H24424   5.981   4.674  10.115  2.1058  0.6245 -0.7499
  177MOL0     H24425   5.849   4.602  10.035  0.6759  0.8542  5.3459
  177MOL0     H24426   6.019   4.605   9.960 -0.3128 -1.0119 -0.3747
  178MOL0     O24427   3.679  10.709   2.275 -0.7860 -0.3575  0.5176
  178MOL0     C24428   3.722  10.653   2.373 -0.0766 -0.1204  0.5403
  178MOL0     O24429   3.649  10.554   2.446 -0.4087  0.8611  0.3038
  178MOL0     C24430   3.513  10.541   2.408  0.6786  0.3709 -0.9331
  178MOL0     C24431   3.475  10.467   2.300 -0.2590  0.3562 -0.2304
  178MOL0     C24432   3.340  10.433   2.292  0.6916  0.9442  0.4900
  178MOL0     C24433   3.246  10.474   2.388  0.7536 -1.2055 -0.6183
  178MOL0     O24434   3.106  10.447   2.377 -0.8601 -0.2887  0.2618
  178MOL0     C24435   3.056  10.376   2.264 -0.9968 -0.2336 -0.4377
  178MOL0     C24436   3.073  10.228   2.279  0.3474  0.1776  0.0124
  178MOL0     C24437   2.946  10.177   2.355  0.2315  0.8188 -0.9682
  178MOL0     C24438   2.959  10.024   2.385  0.2640 -0.1901  0.0607
  178MOL0     C24439   2.848   9.941   2.433 -0.6928  0.7874 -0.0987
  178MOL0     C24440   2.724   9.972   2.350  0.2563  0.0420 -0.2934
  178MOL0     C24441   2.616   9.873   2.377 -0.8260  0.0852 -0.9700
  178MOL0     C24442   2.584   9.859   2.525 -0.1616  0.4941  1.4962
  178MOL0     N24443   2.455   9.799   2.542 -0.1054  0.1185  0.4023
  178MOL0     C24444   2.334   9.845   2.505 -0.9703 -0.6384 -0.2529
  178MOL0     C24445   2.262   9.734   2.514  0.8486 -0.6582  0.1563
  178MOL0     C24446   2.117   9.722   2.476 -0.0416 -0.8316  0.3820
  178MOL0     C24447   2.107   9.682   2.329 -0.2272 -0.4903 -0.0936
  178MOL0     C24448   2.064   9.537   2.307 -0.7667 -0.4042  0.8233
  178MOL0     C24449   1.908   9.518   2.321 -0.1639 -0.5769  0.3315
  178MOL0     O24450   1.865   9.385   2.337 -0.1031 -0.1083 -0.7438
  178MOL0     C24451   1.745   9.365   2.397 -1.0482  0.0238  0.1929
  178MOL0     C24452   1.712   9.228   2.419  0.0284 -0.0930  0.9089
  178MOL0     C24453   1.588   9.190   2.476 -0.6795  0.4615 -0.8552
  178MOL0     C24454   1.554   9.040   2.475 -0.3907 -0.5004 -0.5860
  178MOL0     C24455   1.505   9.296   2.524 -0.4120 -0.7906 -1.3253
  178MOL0     C24456   1.377   9.268   2.597 -0.8730  0.0560 -1.1271
  178MOL0     O24457   1.358   9.351   2.711 -0.3099  0.0185 -0.6244
  178MOL0     C24458   1.237   9.349   2.784 -0.1001 -0.2105 -0.2326
  178MOL0     C24459   1.192   9.476   2.830 -0.6160  0.8271 -0.1037
  178MOL0     C24460   1.078   9.471   2.913  0.2884 -0.1020 -0.2785
  178MOL0     C24461   0.989   9.366   2.941  0.4047  0.4264  0.5367
  178MOL0     O24462   0.863   9.359   2.996 -0.1688 -0.4870 -0.7362
  178MOL0     C24463   0.805   9.480   3.063 -0.2371  0.5699 -0.0919
  178MOL0     C24464   0.900   9.554   3.161 -0.5492  0.3717  0.2150
  178MOL0     C24465   0.931   9.461   3.278  0.3590  0.3607 -0.0484
  178MOL0     C24466   1.013   9.534   3.384  0.1138 -0.9992  0.3041
  178MOL0     C24467   1.165   9.539   3.359  0.5050  0.2818 -0.9215
  178MOL0     C24468   1.234   9.575   3.494 -0.8119  0.3431  0.3971
  178MOL0     C24469   1.275   9.452   3.575 -0.4054  1.0481 -0.4162
  178MOL0     C24470   1.361   9.479   3.704 -0.2224 -1.1878 -0.0861
  178MOL0    Cl24471   1.541   9.492   3.679  0.5972 -0.1456  0.1233
  178MOL0     C24472   1.029   9.245   2.889  0.0195  0.1636 -0.3482
  178MOL0     C24473   1.153   9.233   2.818 -0.6049 -0.5464  0.3995
  178MOL0     O24474   1.306   9.181   2.558  0.1167  0.0346  0.9620
  178MOL0     C24475   1.537   9.433   2.505 -0.2875 -0.5493  0.1561
  178MOL0     C24476   1.660   9.468   2.443  0.1480 -0.0156 -0.5909
  178MOL0     N24477   2.338   9.625   2.554  0.1342  0.7715 -0.3022
  178MOL0     N24478   2.450   9.664   2.580 -0.2492 -0.1671  0.8775
  178MOL0     C24479   3.296  10.540   2.505  0.2205 -0.3209  0.7303
  178MOL0     C24480   3.428  10.572   2.508  0.0275  0.0904 -0.2358
  178MOL0     C24481   3.852  10.682   2.405 -0.3306 -0.2821 -0.1217
  178MOL0     C24482   3.877  10.759   2.513 -0.1278 -0.5440 -0.7112
  178MOL0     C24483   4.010  10.788   2.552  0.5562  0.3547  0.3905
  178MOL0     C24484   4.113  10.732   2.488  0.5896 -0.0912 -0.5503
  178MOL0     O24485   4.240  10.742   2.531  0.2918  0.3073 -0.4359
  178MOL0     C24486   4.285  10.835   2.628  0.2925  0.1770 -0.6294
  178MOL0     C24487   4.271  10.763   2.769  0.0333 -0.6089  0.1059
  178MOL0     C24488   4.311  10.845   2.891 -0.1457 -0.2957  0.5129
  178MOL0     C24489   4.317  10.750   3.002  0.0036 -0.1206 -0.5086
  178MOL0     C24490   4.374  10.816   3.121 -0.1693 -0.0493  0.2353
  178MOL0     C24491   4.410  10.883   3.221  0.2060 -0.4444  0.2289
  178MOL0     C24492   4.091  10.644   2.377 -0.6637 -0.0536  0.2179
  178MOL0     C24493   3.960  10.615   2.331  0.0956  0.3735  0.1835
  178MOL0     C24494   3.927  10.534   2.218  0.0398  0.1913 -0.3903
  178MOL0     H24495   3.551  10.435   2.230 -1.7574  0.1750 -1.8206
  178MOL0     H24496   3.327  10.374   2.202  2.4780 -0.0818  0.8699
  178MOL0     H24497   3.116  10.415   2.183 -1.6037  3.8655  0.8656
  178MOL0     H24498   2.953  10.408   2.244 -1.1231 -0.5048 -0.2455
  178MOL0     H24499   3.083  10.183   2.180  1.3088 -0.7429  0.5097
  178MOL0     H24500   3.156  10.202   2.345 -3.1044 -4.9070  3.0983
  178MOL0     H24501   2.939  10.245   2.441  1.4005  2.1876 -1.8905
  178MOL0     H24502   2.866  10.186   2.282  0.2136  2.1277 -0.8145
  178MOL0     H24503   3.000   9.980   2.293  4.1796  1.9681  0.5363
  178MOL0     H24504   3.046  10.012   2.451  0.3717  0.2136 -0.0059
  178MOL0     H24505   2.838   9.968   2.539  2.5021  3.8223 -0.3966
  178MOL0     H24506   2.880   9.837   2.426  0.2551  1.1144 -0.7455
  178MOL0     H24507   2.684  10.073   2.362 -0.0633 -0.0378 -0.6389
  178MOL0     H24508   2.745   9.969   2.242 -4.5971 -2.3398 -1.4763
  178MOL0     H24509   2.642   9.775   2.336 -0.3973 -0.0218 -0.4517
  178MOL0     H24510   2.527   9.892   2.317  0.8319  0.1569 -3.5678
  178MOL0     H24511   2.644   9.783   2.575 -2.4688 -1.3683  1.5947
  178MOL0     H24512   2.574   9.950   2.585 -2.0377 -0.6767  3.0724
  178MOL0     H24513   2.306   9.942   2.466  0.5158 -0.2516 -0.4238
  178MOL0     H24514   2.068   9.815   2.507  1.5508 -0.2042  1.1487
  178MOL0     H24515   2.086   9.643   2.545  0.3271  0.9169  2.7032
  178MOL0     H24516   2.042   9.762   2.292 -0.8741 -0.6440  0.7011
  178MOL0     H24517   2.208   9.695   2.287  0.3592 -0.3635  1.3194
  178MOL0     H24518   2.090   9.501   2.207 -0.5563  2.5114 -0.2874
  178MOL0     H24519   2.105   9.473   2.386  0.3683  2.5399  2.8081
  178MOL0     H24520   1.877   9.583   2.403 -2.3853 -0.2214 -0.7183
  178MOL0     H24521   1.868   9.562   2.230 -1.7917  3.7512  2.8610
  178MOL0     H24522   1.780   9.156   2.376 -0.9924  0.5893 -2.1457
  178MOL0     H24523   1.598   8.987   2.390 -0.0340 -0.5538 -0.3741
  178MOL0     H24524   1.451   9.003   2.473 -0.1589 -1.4818  1.6672
  178MOL0     H24525   1.598   8.999   2.567  1.8369  2.7758  0.0107
  178MOL0     H24526   1.251   9.560   2.796  1.6552 -2.1134 -4.4058
  178MOL0     H24527   1.029   9.568   2.926  1.8012  0.4417  1.7744
  178MOL0     H24528   0.780   9.554   2.986  0.0487  0.8132  0.0483
  178MOL0     H24529   0.714   9.445   3.114  1.0889 -2.7168  0.2578
  178MOL0     H24530   0.996   9.594   3.128  1.1238 -3.7486 -0.5561
  178MOL0     H24531   0.855   9.645   3.201  1.3701  0.3774  2.6024
  178MOL0     H24532   0.977   9.370   3.238  0.4163  0.8106 -1.0240
  178MOL0     H24533   0.833   9.442   3.323  1.7125 -1.4186  2.3490
  178MOL0     H24534   0.988   9.493   3.482  3.6652 -3.1688  0.4641
  178MOL0     H24535   0.979   9.638   3.393 -0.5120 -1.1686 -0.0119
  178MOL0     H24536   1.196   9.441   3.321 -1.8324 -0.6561 -0.5968
  178MOL0     H24537   1.190   9.617   3.287 -1.6738  0.9311 -1.0556
  178MOL0     H24538   1.173   9.618   3.574 -1.5780 -0.3164  0.1861
  178MOL0     H24539   1.320   9.640   3.480  0.9175 -2.1434 -1.1948
  178MOL0     H24540   1.338   9.375   3.529  4.9402  1.0809  5.4114
  178MOL0     H24541   1.179   9.414   3.611  0.1851  2.1366  2.6543
  178MOL0     H24542   1.346   9.389   3.765  0.3497 -1.0406  0.2798
  178MOL0     H24543   1.319   9.562   3.760  2.6931  1.1437 -1.1112
  178MOL0     H24544   0.957   9.163   2.891 -0.2776  0.4388  1.1419
  178MOL0     H24545   1.200   9.143   2.779  2.2809  0.6483  0.8120
  178MOL0     H24546   1.465   9.510   2.532 -1.0753 -1.9928  2.4747
  178MOL0     H24547   1.673   9.576   2.438 -0.8181  0.0964 -0.7844
  178MOL0     H24548   3.230  10.565   2.588 -1.0051 -1.1306  0.0348
  178MOL0     H24549   3.471  10.628   2.591  0.9657 -0.6576 -0.2053
  178MOL0     H24550   3.786  10.799   2.558  0.0435  0.6974 -1.4339
  178MOL0     H24551   4.029  10.848   2.641  1.1372 -1.4515  1.5433
  178MOL0     H24552   4.391  10.862   2.623  0.4247 -0.3813 -0.8223
  178MOL0     H24553   4.232  10.931   2.627 -3.3198 -1.4281  2.9745
  178MOL0     H24554   4.326  10.669   2.757  0.1013 -0.7240  1.1955
  178MOL0     H24555   4.162  10.747   2.774 -0.7197  2.1050 -3.3025
  178MOL0     H24556   4.410  10.886   2.872 -0.7828 -0.1687 -3.2282
  178MOL0     H24557   4.232  10.920   2.909  0.0157 -0.2359  0.9986
  178MOL0     H24558   4.372  10.661   2.972 -0.2563 -0.6428  0.5148
  178MOL0     H24559   4.216  10.718   3.029  0.7983 -2.5326 -0.1670
  178MOL0     H24560   4.436  10.946   3.304  1.2220 -1.3621  0.6258
  178MOL0     H24561   4.175  10.593   2.331 -0.8898 -0.1052 -0.1457
  178MOL0     H24562   3.875  10.573   2.130 -0.2728  0.0903 -0.2527
  178MOL0     H24563   4.027  10.501   2.190  0.6381  1.0863  0.6284
  178MOL0     H24564   3.863  10.451   2.251 -2.6859  2.5870  0.7853
  179MOL0     O24565   0.875   0.973  10.482 -0.1190 -0.1820  0.6308
  179MOL0     C24566   0.966   0.984  10.397 -0.1326 -0.9169 -0.5161
  179MOL0     O24567   0.978   0.911  10.273  0.6473  0.6911  0.1854
  179MOL0     C24568   0.910   0.794  10.260  0.8310 -0.4903  0.8955
  179MOL0     C24569   0.967   0.691  10.192 -0.0757 -0.0125  0.2555
  179MOL0     C24570   0.903   0.574  10.172  0.7135 -0.3251  0.5591
  179MOL0     C24571   0.772   0.547  10.219  0.3199  0.8697  0.2992
  179MOL0     O24572   0.700   0.426  10.201  0.0279 -0.5274 -0.1673
  179MOL0     C24573   0.760   0.321  10.128 -0.4613 -0.6672 -0.1483
  179MOL0     C24574   0.682   0.204  10.180  0.1382  1.0188  0.4503
  179MOL0     C24575   0.532   0.214  10.191  0.1144  0.7187 -0.4033
  179MOL0     C24576   0.465   0.082  10.226 -0.2118  0.2412  0.3101
  179MOL0     C24577   0.494  -0.043  10.127  0.5361  0.0518 -0.3083
  179MOL0     C24578   0.466  -0.013   9.975 -0.7100  0.2000 -0.9440
  179MOL0     C24579   0.499  -0.141   9.893 -0.1375  1.0414 -0.1902
  179MOL0     C24580   0.651  -0.157   9.875  0.2531 -0.3801 -0.0008
  179MOL0     N24581   0.693  -0.276   9.798  0.0351 -0.3642 -0.2368
  179MOL0     C24582   0.667  -0.307   9.666 -0.0753  1.1084  0.3370
  179MOL0     C24583   0.709  -0.433   9.644 -0.6061 -0.6967 -0.3036
  179MOL0     C24584   0.700  -0.501   9.512 -0.9772 -0.6150  0.4255
  179MOL0     C24585   0.732  -0.649   9.519  0.6032 -0.4570  1.0168
  179MOL0     C24586   0.695  -0.709   9.383 -0.1179  0.6574  0.0205
  179MOL0     C24587   0.699  -0.866   9.380  0.5260  0.3374  0.0767
  179MOL0     O24588   0.589  -0.929   9.446 -0.4675 -0.1947 -0.2173
  179MOL0     C24589   0.466  -0.911   9.385 -0.5461 -0.6228  0.3601
  179MOL0     C24590   0.416  -1.013   9.294 -0.2695 -0.8120 -0.1063
  179MOL0     C24591   0.282  -1.011   9.240 -0.0513 -0.3189 -0.1446
  179MOL0     C24592   0.235  -1.123   9.153 -0.1473 -0.1327 -0.0165
  179MOL0     C24593   0.198  -0.901   9.282  0.2450 -0.6041 -0.3143
  179MOL0     C24594   0.057  -0.879   9.233  0.2796  1.0752  0.2359
  179MOL0     O24595  -0.020  -0.789   9.302  0.0186 -0.8642  0.0547
  179MOL0     C24596  -0.149  -0.764   9.269  1.8739  0.0751  0.1252
  179MOL0     C24597  -0.229  -0.816   9.158  0.4273 -0.9882 -0.0441
  179MOL0     C24598  -0.355  -0.768   9.137  0.2818 -0.3517  0.2492
  179MOL0     C24599  -0.408  -0.665   9.211 -0.1620  0.2029 -1.1178
  179MOL0     O24600  -0.544  -0.650   9.200  0.0886  0.3260  0.2800
  179MOL0     C24601  -0.627  -0.662   9.326 -0.3094  0.2537  0.1160
  179MOL0     C24602  -0.632  -0.815   9.349  0.1171 -0.5247 -0.4111
  179MOL0     C24603  -0.707  -0.859   9.481  0.0761 -0.9165  0.2589
  179MOL0     C24604  -0.670  -0.994   9.514 -0.6404 -0.3507  0.3881
  179MOL0     C24605  -0.735  -1.094   9.424 -0.7717  0.0104 -0.1183
  179MOL0     C24606  -0.744  -1.240   9.476 -0.1908 -0.3070  0.2756
  179MOL0     C24607  -0.613  -1.303   9.527 -0.0401 -0.2272 -0.4340
  179MOL0     C24608  -0.629  -1.424   9.593  0.7523  0.6114  0.8174
  179MOL0    Cl24609  -0.703  -1.375   9.763 -0.3148 -0.0897 -0.2132
  179MOL0     C24610  -0.335  -0.617   9.317  0.3893 -0.2236 -0.8642
  179MOL0     C24611  -0.208  -0.661   9.347 -0.2237  0.4813 -0.4358
  179MOL0     O24612   0.033  -0.929   9.120  0.4195  0.7339  0.4989
  179MOL0     C24613   0.247  -0.813   9.381 -0.3559 -0.2631  0.0916
  179MOL0     C24614   0.380  -0.812   9.421  0.3376  0.2852  0.3925
  179MOL0     N24615   0.759  -0.479   9.765  0.5096  0.1025 -0.6254
  179MOL0     N24616   0.737  -0.384   9.854 -0.0382  0.7499 -0.0534
  179MOL0     C24617   0.710   0.649  10.290 -0.3645  0.0396  0.0092
  179MOL0     C24618   0.777   0.764  10.313  0.1513 -0.8392  0.1744
  179MOL0     C24619   1.072   1.083  10.427 -0.7574  0.3604 -0.9892
  179MOL0     C24620   1.120   1.153  10.315 -0.5725  0.1565  0.0439
  179MOL0     C24621   1.237   1.230  10.337  0.1014 -0.0166  0.0750
  179MOL0     C24622   1.281   1.255  10.462  0.2676  0.1893  0.5140
  179MOL0     O24623   1.397   1.324  10.479  0.0283 -0.2488 -0.0528
  179MOL0     C24624   1.513   1.231  10.483  0.5286  0.8580 -0.1946
  179MOL0     C24625   1.554   1.197  10.342 -0.1613  0.7069  1.1415
  179MOL0     C24626   1.581   1.313  10.256 -0.9622  0.0909  0.5781
  179MOL0     C24627   1.705   1.403  10.281 -0.4262 -0.5898  0.0380
  179MOL0     C24628   1.822   1.393  10.185  0.1823  0.3011 -1.1178
  179MOL0     C24629   1.912   1.394  10.113 -0.3851 -0.2285 -0.5840
  179MOL0     C24630   1.219   1.192  10.578 -1.0121  0.7232 -0.2636
  179MOL0     C24631   1.120   1.097  10.562  0.6719  0.6751 -0.1054
  179MOL0     C24632   1.074   1.028  10.683  0.0950  0.1569 -0.4628
  179MOL0     H24633   1.062   0.716  10.145 -1.4290 -1.5457 -3.8037
  179MOL0     H24634   0.953   0.494  10.119  1.4605  1.4244 -1.5186
  179MOL0     H24635   0.865   0.304  10.153 -1.5322 -2.7044  3.7557
  179MOL0     H24636   0.743   0.342  10.022  0.7685  2.9924  0.2537
  179MOL0     H24637   0.706   0.120  10.114 -0.9668  0.4775  0.7045
  179MOL0     H24638   0.719   0.189  10.282 -1.2014  1.7886  1.0762
  179MOL0     H24639   0.498   0.278  10.273 -1.2943 -0.7148  0.1823
  179MOL0     H24640   0.501   0.250  10.093 -1.7080 -0.2567 -0.2237
  179MOL0     H24641   0.501   0.050  10.324 -0.8960 -1.3294  0.0727
  179MOL0     H24642   0.362   0.100  10.257  0.5324  3.6495  1.2861
  179MOL0     H24643   0.437  -0.130  10.161 -2.5125  2.3231  0.9313
  179MOL0     H24644   0.595  -0.082  10.137  0.7989  0.5051 -1.1550
  179MOL0     H24645   0.368   0.030   9.955 -0.5819 -0.0785 -2.2503
  179MOL0     H24646   0.541   0.061   9.944 -1.8500  1.7205 -0.2082
  179MOL0     H24647   0.460  -0.120   9.793 -1.0990 -0.1173 -0.0790
  179MOL0     H24648   0.449  -0.227   9.937  0.3693  0.1073 -1.3903
  179MOL0     H24649   0.690  -0.066   9.828 -0.7617 -0.3416 -0.8077
  179MOL0     H24650   0.697  -0.162   9.974  2.6752 -0.8572 -1.0712
  179MOL0     H24651   0.611  -0.244   9.597  0.6539  1.2092 -0.1775
  179MOL0     H24652   0.781  -0.443   9.465 -1.2142 -0.2351  0.4786
  179MOL0     H24653   0.611  -0.486   9.451 -0.6457 -0.0290  0.0769
  179MOL0     H24654   0.838  -0.669   9.538  0.7413 -1.6328 -0.7683
  179MOL0     H24655   0.669  -0.698   9.593  0.2258 -1.8565 -0.1939
  179MOL0     H24656   0.594  -0.679   9.354 -2.9818 -4.5155  3.1082
  179MOL0     H24657   0.772  -0.676   9.313  0.1536  0.5038  0.2468
  179MOL0     H24658   0.710  -0.897   9.276 -1.9141  1.4076 -0.5779
  179MOL0     H24659   0.795  -0.898   9.421  0.3830 -1.8747 -1.1815
  179MOL0     H24660   0.489  -1.092   9.278  0.1618 -0.4721  0.1539
  179MOL0     H24661   0.300  -1.209   9.172  0.6758  0.0140 -1.9337
  179MOL0     H24662   0.246  -1.092   9.049  0.3042  2.6312  0.7942
  179MOL0     H24663   0.133  -1.158   9.174  0.4905 -2.6155 -0.6866
  179MOL0     H24664  -0.196  -0.897   9.095 -0.6241 -2.0080  0.6615
  179MOL0     H24665  -0.427  -0.801   9.062 -0.4152 -0.0622  0.7774
  179MOL0     H24666  -0.590  -0.601   9.408 -0.3570  0.9700 -0.3914
  179MOL0     H24667  -0.725  -0.620   9.300 -0.9636 -1.0995  0.2862
  179MOL0     H24668  -0.676  -0.877   9.270  0.3708 -2.6022  0.9898
  179MOL0     H24669  -0.527  -0.846   9.346  0.6279  0.9757  0.7044
  179MOL0     H24670  -0.814  -0.838   9.480 -0.1964 -2.1348  1.2296
  179MOL0     H24671  -0.668  -0.785   9.552  0.9831 -1.3706  0.2537
  179MOL0     H24672  -0.694  -1.010   9.620 -0.2464  0.1428  0.5533
  179MOL0     H24673  -0.563  -1.014   9.510 -0.4006  1.0625 -2.1053
  179MOL0     H24674  -0.840  -1.066   9.412 -0.5500  1.0923  0.3000
  179MOL0     H24675  -0.683  -1.089   9.328 -2.8172  0.7498 -1.2357
  179MOL0     H24676  -0.774  -1.298   9.388  3.7171 -0.8513 -0.8923
  179MOL0     H24677  -0.818  -1.255   9.555  0.1988  0.0430  0.7101
  179MOL0     H24678  -0.577  -1.241   9.609 -3.2353  0.0833  0.8550
  179MOL0     H24679  -0.541  -1.319   9.446 -1.1243 -1.8837 -1.1192
  179MOL0     H24680  -0.537  -1.483   9.597  1.8844  2.3049  0.6709
  179MOL0     H24681  -0.708  -1.486   9.550  1.5103  0.6271 -0.6565
  179MOL0     H24682  -0.372  -0.541   9.385 -1.9977 -1.7535 -0.3153
  179MOL0     H24683  -0.167  -0.612   9.434 -4.1665  0.5805  1.5671
  179MOL0     H24684   0.187  -0.727   9.410 -1.6201 -0.7173 -1.0997
  179MOL0     H24685   0.418  -0.735   9.487  1.8802  0.6112 -0.8083
  179MOL0     H24686   0.612   0.624  10.331 -0.6863  1.2102 -0.0110
  179MOL0     H24687   0.715   0.838  10.362  0.4513 -0.5551  0.1287
  179MOL0     H24688   1.078   1.141  10.216 -0.5051 -1.5334  0.1991
  179MOL0     H24689   1.276   1.265  10.242 -0.9667 -0.2484 -0.4651
  179MOL0     H24690   1.602   1.260  10.540  3.2462 -0.8816 -3.2327
  179MOL0     H24691   1.495   1.137  10.536  1.1036  0.5262 -0.5706
  179MOL0     H24692   1.471   1.144  10.294 -0.6546  3.2034 -0.9212
  179MOL0     H24693   1.649   1.144  10.331 -0.4238  0.6262 -1.0744
  179MOL0     H24694   1.591   1.272  10.155  0.4856 -2.2401  1.5915
  179MOL0     H24695   1.484   1.364  10.257 -2.4737 -2.5443 -0.2554
  179MOL0     H24696   1.740   1.376  10.381 -1.3342 -0.4657  0.3972
  179MOL0     H24697   1.666   1.505  10.281 -2.1922 -1.2281  0.4659
  179MOL0     H24698   2.005   1.407  10.060 -0.9392 -3.2487 -2.5064
  179MOL0     H24699   1.266   1.196  10.676 -0.3418  0.2644 -0.5515
  179MOL0     H24700   0.979   1.075  10.711  0.3836 -0.5470  1.8491
  179MOL0     H24701   1.062   0.921  10.666  1.9940  0.0032 -1.0193
  179MOL0     H24702   1.145   1.027  10.766 -0.6033 -0.2726  0.1352
  180MOL0     O24703   6.320   9.103   6.279 -0.8312 -0.4787 -0.4225
  180MOL0     C24704   6.321   8.988   6.239 -0.3838  0.0128 -0.1824
  180MOL0     O24705   6.235   8.895   6.279  0.1677  0.2667 -0.6769
  180MOL0     C24706   6.195   8.873   6.412 -0.4683 -0.3541  0.0889
  180MOL0     C24707   6.260   8.931   6.525  0.1124  0.0724  0.6968
  180MOL0     C24708   6.218   8.893   6.649 -0.7155 -0.1879  0.5157
  180MOL0     C24709   6.117   8.798   6.668 -0.1744  0.6845  0.3349
  180MOL0     O24710   6.103   8.772   6.803  0.0594  0.4833  0.5694
  180MOL0     C24711   6.062   8.634   6.842  0.3491 -0.6829 -0.2552
  180MOL0     C24712   6.054   8.627   6.992  0.0163  0.2343 -0.6473
  180MOL0     C24713   6.024   8.479   7.043  0.4127 -0.3431 -0.5006
  180MOL0     C24714   6.015   8.472   7.191  0.0001 -0.7668  0.2255
  180MOL0     C24715   5.969   8.335   7.244  0.1863 -0.2646 -0.4454
  180MOL0     C24716   6.030   8.213   7.185  0.0216  0.6250 -0.0032
  180MOL0     C24717   5.996   8.088   7.259 -0.2778 -0.3838 -0.7085
  180MOL0     C24718   6.073   8.070   7.397 -0.2004 -0.0156  0.0267
  180MOL0     N24719   6.050   7.945   7.464 -0.2060  0.2161 -0.5722
  180MOL0     C24720   6.111   7.912   7.581  0.3747 -0.4747 -1.3828
  180MOL0     C24721   6.056   7.804   7.618  1.0231 -0.0261 -0.1353
  180MOL0     C24722   6.090   7.725   7.739  0.9564  0.0241 -0.1678
  180MOL0     C24723   6.165   7.596   7.703  0.2441  0.3210  1.1580
  180MOL0     C24724   6.313   7.625   7.671  0.4282  0.4193 -0.1737
  180MOL0     C24725   6.399   7.661   7.794 -0.2300  0.0378  0.2428
  180MOL0     O24726   6.373   7.582   7.917 -0.1873 -0.4196  0.1742
  180MOL0     C24727   6.418   7.629   8.039 -0.4802  1.1171  0.6981
  180MOL0     C24728   6.540   7.690   8.052 -1.1163 -0.7683  1.1569
  180MOL0     C24729   6.589   7.727   8.175 -0.2938  1.2297  0.6975
  180MOL0     C24730   6.716   7.810   8.164  0.0412 -0.2030  0.2344
  180MOL0     C24731   6.508   7.714   8.287 -0.7329  0.4303 -0.8672
  180MOL0     C24732   6.542   7.771   8.422 -0.8285  0.1096  0.0245
  180MOL0     O24733   6.496   7.699   8.533 -0.0176  0.4695 -0.2399
  180MOL0     C24734   6.547   7.722   8.658  0.8702  0.3867  0.4397
  180MOL0     C24735   6.468   7.658   8.753  0.0217 -0.3013  0.1936
  180MOL0     C24736   6.514   7.648   8.885 -0.5162  0.4159  0.2442
  180MOL0     C24737   6.630   7.719   8.923 -0.1322  1.1225  0.4000
  180MOL0     O24738   6.669   7.717   9.056 -0.4049  0.0376 -0.1840
  180MOL0     C24739   6.573   7.753   9.150 -0.1167 -0.5043  0.0172
  180MOL0     C24740   6.634   7.780   9.291 -0.6249 -0.5290  0.3442
  180MOL0     C24741   6.521   7.783   9.398  0.2026 -0.1233 -0.9745
  180MOL0     C24742   6.568   7.820   9.539  0.0361  0.6166  0.1950
  180MOL0     C24743   6.451   7.796   9.636  0.6382 -0.9233  0.8391
  180MOL0     C24744   6.323   7.878   9.621  1.1023 -0.8863 -0.3271
  180MOL0     C24745   6.338   8.022   9.669  0.3243 -0.4512  0.1887
  180MOL0     C24746   6.200   8.099   9.678  0.1166  0.5249 -0.9015
  180MOL0    Cl24747   6.108   8.013   9.812 -0.1080  0.2456  0.3264
  180MOL0     C24748   6.701   7.785   8.833 -0.6861  0.7529 -0.0152
  180MOL0     C24749   6.669   7.783   8.696  0.4329  0.6245  0.6151
  180MOL0     O24750   6.592   7.881   8.427 -0.0056 -0.0449  0.4985
  180MOL0     C24751   6.392   7.641   8.278 -0.2599 -1.0243  0.0118
  180MOL0     C24752   6.343   7.597   8.157  0.7446  0.7497  0.8505
  180MOL0     N24753   5.974   7.752   7.517  0.0376 -0.5116 -0.1628
  180MOL0     N24754   5.973   7.841   7.422  0.0281 -0.7877  0.2499
  180MOL0     C24755   6.062   8.735   6.556  0.0743  0.7749  0.3569
  180MOL0     C24756   6.099   8.769   6.436 -0.5548 -0.2441 -0.1556
  180MOL0     C24757   6.408   8.942   6.130  1.0941 -0.1445 -0.4698
  180MOL0     C24758   6.372   8.819   6.068  0.5241  0.3399  0.3466
  180MOL0     C24759   6.446   8.767   5.964 -0.4073  0.2702 -0.3716
  180MOL0     C24760   6.548   8.838   5.903  0.6580  0.4006 -0.3614
  180MOL0     O24761   6.625   8.800   5.798  0.4481  0.5213  0.3462
  180MOL0     C24762   6.607   8.663   5.750 -0.3359 -0.6645  0.3342
  180MOL0     C24763   6.667   8.647   5.609 -0.0395  0.2986  0.5987
  180MOL0     C24764   6.821   8.612   5.608  0.2909 -0.3380 -1.0732
  180MOL0     C24765   6.903   8.672   5.496  0.0798  0.7639  0.3185
  180MOL0     C24766   6.870   8.617   5.362  0.4309  0.5450 -0.0641
  180MOL0     C24767   6.859   8.547   5.255  0.8272  0.3347  0.5595
  180MOL0     C24768   6.586   8.959   5.967 -0.3645  0.5362  0.3765
  180MOL0     C24769   6.522   9.009   6.076 -0.5831  0.1405 -0.1754
  180MOL0     C24770   6.562   9.142   6.128 -0.4419 -0.8253 -0.1957
  180MOL0     H24771   6.346   8.994   6.505 -2.4428  3.6577 -0.0134
  180MOL0     H24772   6.274   8.920   6.738  0.8827  0.4660 -0.6273
  180MOL0     H24773   6.118   8.549   6.802  0.1912 -0.5250 -0.8265
  180MOL0     H24774   5.957   8.614   6.820  0.7602 -2.4523 -0.7399
  180MOL0     H24775   6.146   8.668   7.035 -0.3835  1.2411 -0.7031
  180MOL0     H24776   5.974   8.691   7.032  0.0273 -0.2318  0.1472
  180MOL0     H24777   5.933   8.438   6.999  0.5377 -0.4141 -0.6954
  180MOL0     H24778   6.112   8.423   7.010  1.5618  1.1191 -0.0606
  180MOL0     H24779   6.118   8.489   7.223 -0.1513 -0.0922  0.3752
  180MOL0     H24780   5.956   8.560   7.220  0.8660  0.3089 -1.1676
  180MOL0     H24781   5.860   8.337   7.231 -0.0847  3.0121  1.2694
  180MOL0     H24782   5.976   8.343   7.353  0.0736 -0.4213 -0.4260
  180MOL0     H24783   6.006   8.210   7.078 -1.3182  0.4619  0.2784
  180MOL0     H24784   6.137   8.219   7.202 -0.1277 -1.9932  2.6883
  180MOL0     H24785   6.030   8.003   7.198 -2.1817 -1.8252  0.1172
  180MOL0     H24786   5.888   8.087   7.275 -0.1459 -0.0424  0.2556
  180MOL0     H24787   6.178   8.074   7.369 -0.3740 -1.8076 -1.1135
  180MOL0     H24788   6.059   8.156   7.463  1.9860 -0.3617  0.9886
  180MOL0     H24789   6.173   7.967   7.650 -1.3538 -0.4087  0.1945
  180MOL0     H24790   5.995   7.696   7.784  1.6858 -0.5881  1.0463
  180MOL0     H24791   6.149   7.779   7.814  0.2169 -0.4618  0.7815
  180MOL0     H24792   6.180   7.534   7.792  1.4435  1.1481  1.5664
  180MOL0     H24793   6.114   7.538   7.626  0.1235 -1.1553  2.2999
  180MOL0     H24794   6.353   7.534   7.625 -0.0194 -0.1842  0.5940
  180MOL0     H24795   6.315   7.700   7.592  3.0927  1.1083  0.4454
  180MOL0     H24796   6.503   7.654   7.763 -0.0060 -2.7923  1.3612
  180MOL0     H24797   6.375   7.763   7.824 -0.9347 -0.7937  2.7530
  180MOL0     H24798   6.601   7.714   7.966 -0.4769  0.1164  1.8339
  180MOL0     H24799   6.779   7.781   8.079  0.6108  2.2519 -0.2409
  180MOL0     H24800   6.763   7.810   8.263 -2.1977  0.9265  1.3464
  180MOL0     H24801   6.683   7.913   8.152 -0.4448 -0.2768  0.8826
  180MOL0     H24802   6.366   7.637   8.720  1.0191 -2.8510 -1.5806
  180MOL0     H24803   6.445   7.602   8.955  1.9518  0.3511  2.8074
  180MOL0     H24804   6.519   7.839   9.108  0.6917  0.4881  0.9533
  180MOL0     H24805   6.498   7.675   9.168 -2.6501  1.8838  0.5957
  180MOL0     H24806   6.710   7.707   9.318 -2.3593 -1.8105  2.0948
  180MOL0     H24807   6.675   7.881   9.282  0.3988 -1.0526 -1.2560
  180MOL0     H24808   6.470   7.686   9.403 -1.6536  0.8908  1.7166
  180MOL0     H24809   6.444   7.851   9.361  0.2458 -1.1594 -3.1966
  180MOL0     H24810   6.601   7.924   9.534  0.7038  0.4468  0.8937
  180MOL0     H24811   6.645   7.747   9.568 -4.4935 -3.7024  2.9242
  180MOL0     H24812   6.428   7.689   9.626 -3.6092 -0.0874 -0.3364
  180MOL0     H24813   6.490   7.821   9.735  2.6625  0.0881 -0.1376
  180MOL0     H24814   6.251   7.836   9.692 -2.0007  3.4023 -0.5577
  180MOL0     H24815   6.278   7.878   9.521  0.4019  0.3645 -0.0325
  180MOL0     H24816   6.392   8.068   9.585  0.6186 -0.4709  0.3675
  180MOL0     H24817   6.397   8.028   9.760  0.5349 -1.8483  0.1645
  180MOL0     H24818   6.151   8.086   9.581 -0.9671  1.3571 -0.4901
  180MOL0     H24819   6.218   8.204   9.702  0.3412 -0.0855  2.0167
  180MOL0     H24820   6.787   7.841   8.870  0.2543 -0.5920 -0.1188
  180MOL0     H24821   6.722   7.840   8.621 -2.9040  0.7389 -1.8924
  180MOL0     H24822   6.335   7.614   8.366  2.1067  2.0159  2.7386
  180MOL0     H24823   6.252   7.541   8.138  0.1609  1.5794  1.1613
  180MOL0     H24824   5.991   8.654   6.568  1.5560 -0.5868  0.2274
  180MOL0     H24825   6.068   8.708   6.352  3.5236 -3.1120  0.1353
  180MOL0     H24826   6.284   8.763   6.097 -0.5245  1.2709 -0.9277
  180MOL0     H24827   6.403   8.674   5.928  0.8012 -0.2476 -0.5364
  180MOL0     H24828   6.652   8.592   5.821  1.5396  0.4663  0.3676
  180MOL0     H24829   6.500   8.659   5.729  0.1816 -1.5388 -2.4859
  180MOL0     H24830   6.651   8.740   5.553  1.6650 -0.2801 -0.9590
  180MOL0     H24831   6.602   8.573   5.562 -1.4285 -1.0720  4.3478
  180MOL0     H24832   6.853   8.657   5.702 -2.3759 -1.7152  0.6282
  180MOL0     H24833   6.830   8.503   5.611 -0.5646 -0.4279  1.8458
  180MOL0     H24834   7.013   8.665   5.500  0.0404 -0.8411 -0.4290
  180MOL0     H24835   6.865   8.774   5.486 -3.3334 -0.4491 -0.4180
  180MOL0     H24836   6.860   8.488   5.166 -2.3319 -0.3938  0.8797
  180MOL0     H24837   6.662   9.021   5.921  1.0091  0.1120  1.9992
  180MOL0     H24838   6.661   9.177   6.096 -1.1790  1.9951  0.3729
  180MOL0     H24839   6.500   9.223   6.091 -0.3732  0.1096  1.6348
  180MOL0     H24840   6.560   9.138   6.237 -0.3111  2.0463 -0.0124
  181MOL0     O24841   7.264   7.706   6.416  0.2903 -0.1828  0.4546
  181MOL0     C24842   7.204   7.613   6.374 -0.6160 -0.2401  0.3685
  181MOL0     O24843   7.147   7.511   6.440  0.4557  0.6697  0.6029
  181MOL0     C24844   7.123   7.532   6.572 -0.2516 -0.8952 -0.3421
  181MOL0     C24845   7.012   7.616   6.616 -0.4795 -0.2657  0.8165
  181MOL0     C24846   6.988   7.631   6.753 -0.0532  0.5564  0.4182
  181MOL0     C24847   7.063   7.564   6.848  0.5283  0.1774 -0.4434
  181MOL0     O24848   7.020   7.584   6.980  0.0589  0.7510  0.1453
  181MOL0     C24849   7.024   7.473   7.071 -0.1450 -0.3767 -0.3639
  181MOL0     C24850   6.958   7.499   7.200 -0.0833 -0.0332 -0.7995
  181MOL0     C24851   7.009   7.626   7.281 -0.2428 -0.3893 -0.3586
  181MOL0     C24852   7.145   7.605   7.349  0.4488  0.0540 -0.3897
  181MOL0     C24853   7.180   7.711   7.447 -0.3967 -0.1818 -0.7953
  181MOL0     C24854   7.331   7.717   7.482 -0.8948  0.0229  0.4108
  181MOL0     C24855   7.344   7.816   7.600 -0.1447  1.0721  0.3363
  181MOL0     C24856   7.485   7.810   7.656 -0.3324 -0.3240  0.6989
  181MOL0     N24857   7.601   7.853   7.566  0.9517 -0.3031  0.6149
  181MOL0     C24858   7.585   7.959   7.478 -0.3290  0.5298 -0.2292
  181MOL0     C24859   7.712   8.009   7.448 -0.8209 -0.3999 -0.1812
  181MOL0     C24860   7.759   8.122   7.361 -0.7031 -0.1082 -0.4939
  181MOL0     C24861   7.875   8.201   7.431  0.0292  0.7124  0.2699
  181MOL0     C24862   7.834   8.283   7.549  0.0517 -1.3774 -0.5830
  181MOL0     C24863   7.772   8.409   7.501 -0.0119  0.0068  0.3043
  181MOL0     O24864   7.706   8.478   7.602  0.9145 -0.0958 -0.3401
  181MOL0     C24865   7.675   8.612   7.589  0.0699 -0.1587 -0.1064
  181MOL0     C24866   7.712   8.705   7.493 -0.9772 -0.2434  0.7727
  181MOL0     C24867   7.687   8.848   7.511 -1.3177 -0.4345  0.1453
  181MOL0     C24868   7.720   8.939   7.391 -0.2568  0.1738 -0.6424
  181MOL0     C24869   7.629   8.904   7.621 -0.5074  1.1406  0.1040
  181MOL0     C24870   7.615   9.052   7.663  0.1344 -0.1632 -0.9190
  181MOL0     O24871   7.667   9.153   7.589 -0.3714  0.2063  0.2348
  181MOL0     C24872   7.682   9.277   7.640 -0.1654 -1.3341  0.5877
  181MOL0     C24873   7.812   9.343   7.651  0.1141  0.2968 -0.2916
  181MOL0     C24874   7.806   9.472   7.710 -0.5446 -0.6701 -0.2866
  181MOL0     C24875   7.690   9.536   7.748 -0.2934  0.2579 -0.4295
  181MOL0     O24876   7.702   9.666   7.802 -0.5896  0.0839  0.1930
  181MOL0     C24877   7.607   9.711   7.905 -0.4079  0.0812 -0.3824
  181MOL0     C24878   7.544   9.832   7.831  0.8376  0.3653 -0.3911
  181MOL0     C24879   7.464   9.931   7.928 -0.4188  0.6048 -0.2477
  181MOL0     C24880   7.561  10.006   8.019 -0.8929 -0.6255 -0.2313
  181MOL0     C24881   7.503  10.121   8.107  0.6087 -0.7130  0.0738
  181MOL0     C24882   7.375  10.089   8.185  0.1470 -0.2812 -0.9474
  181MOL0     C24883   7.334  10.205   8.264  0.4029  0.0288  0.1473
  181MOL0     C24884   7.198  10.178   8.336  0.3703 -0.1554  0.9520
  181MOL0    Cl24885   7.075  10.167   8.210  0.3849  0.0872  0.0681
  181MOL0     C24886   7.572   9.470   7.735 -0.9851  0.5945 -0.1275
  181MOL0     C24887   7.565   9.342   7.680 -0.3194 -0.2947 -0.5974
  181MOL0     O24888   7.560   9.069   7.778 -0.5287 -0.0635 -0.2831
  181MOL0     C24889   7.585   8.812   7.717 -0.3683  0.4339 -0.6100
  181MOL0     C24890   7.599   8.670   7.696 -0.4533 -0.3306 -0.3845
  181MOL0     N24891   7.804   7.930   7.521  0.0064 -0.2185  0.4196
  181MOL0     N24892   7.735   7.843   7.590 -0.1796 -0.2641  0.1808
  181MOL0     C24893   7.164   7.476   6.799 -0.1455 -1.0954 -0.4065
  181MOL0     C24894   7.199   7.464   6.666 -0.0212  0.0572  0.2557
  181MOL0     C24895   7.166   7.604   6.228  0.5577 -0.0347 -0.0034
  181MOL0     C24896   7.034   7.555   6.199  0.2551 -0.2706 -0.8516
  181MOL0     C24897   6.995   7.551   6.069 -0.1183  0.0234 -0.6393
  181MOL0     C24898   7.074   7.595   5.965  0.1708 -0.6215 -0.3472
  181MOL0     O24899   7.024   7.583   5.840 -0.7685  0.1083 -0.4399
  181MOL0     C24900   7.094   7.641   5.732  0.1556  0.8515  0.6951
  181MOL0     C24901   7.032   7.596   5.606  0.3718  0.2998  0.1515
  181MOL0     C24902   7.053   7.442   5.584 -0.0440 -0.6163 -0.0840
  181MOL0     C24903   6.960   7.397   5.470 -0.6974  1.0739 -0.1308
  181MOL0     C24904   6.951   7.246   5.457  0.7066  0.7204  0.1563
  181MOL0     C24905   6.958   7.129   5.443  0.3863 -0.2211  0.8406
  181MOL0     C24906   7.190   7.660   5.990 -0.6672  0.8129 -0.6942
  181MOL0     C24907   7.244   7.654   6.119 -0.0385  0.7353  0.7519
  181MOL0     C24908   7.375   7.711   6.147 -0.0717  0.1317 -0.3500
  181MOL0     H24909   6.960   7.668   6.537 -0.2474 -2.1538 -0.6450
  181MOL0     H24910   6.898   7.688   6.771 -0.0427  0.4476  0.8317
  181MOL0     H24911   7.129   7.446   7.083  0.2567 -0.0322 -2.5531
  181MOL0     H24912   6.981   7.381   7.032 -2.1294  0.1426  0.5109
  181MOL0     H24913   6.858   7.521   7.164 -0.0619  0.0725 -0.7949
  181MOL0     H24914   6.964   7.416   7.271 -1.2385  0.3402 -0.2484
  181MOL0     H24915   7.011   7.716   7.220 -1.7552  0.2313  0.4578
  181MOL0     H24916   6.934   7.640   7.360  1.6956 -0.1987  1.5377
  181MOL0     H24917   7.141   7.502   7.386 -0.6822  0.3156  0.2562
  181MOL0     H24918   7.220   7.603   7.269  2.6207 -1.9109  1.5653
  181MOL0     H24919   7.124   7.690   7.539 -0.3683  0.2341 -0.6839
  181MOL0     H24920   7.151   7.807   7.404 -1.5878  0.6227  1.6055
  181MOL0     H24921   7.382   7.623   7.508 -0.5607  0.2164  0.4619
  181MOL0     H24922   7.390   7.750   7.396 -0.5779 -1.0615  0.1928
  181MOL0     H24923   7.279   7.784   7.683 -0.7197 -1.6638 -1.0410
  181MOL0     H24924   7.320   7.917   7.565  1.1216  0.1548 -3.7359
  181MOL0     H24925   7.487   7.881   7.740 -0.5473 -0.1243  0.5350
  181MOL0     H24926   7.510   7.708   7.685  0.3966 -0.0302  1.1324
  181MOL0     H24927   7.485   7.992   7.453 -0.6479  0.6656  1.1392
  181MOL0     H24928   7.683   8.192   7.325 -1.0617  0.1464  0.6943
  181MOL0     H24929   7.798   8.066   7.276 -0.3174  1.3297 -1.3028
  181MOL0     H24930   7.938   8.119   7.466 -2.7530 -2.4950 -1.5982
  181MOL0     H24931   7.921   8.264   7.354  1.2491 -1.5059 -0.8934
  181MOL0     H24932   7.767   8.226   7.614 -0.7220 -0.2720 -0.3859
  181MOL0     H24933   7.920   8.312   7.609 -1.5865 -1.1573  1.8327
  181MOL0     H24934   7.844   8.480   7.459 -1.6644  0.6964 -1.5121
  181MOL0     H24935   7.694   8.390   7.427  1.1893  1.5857 -1.5003
  181MOL0     H24936   7.769   8.664   7.411  1.0806 -0.0055  2.0112
  181MOL0     H24937   7.641   9.014   7.384 -0.0778  0.6748  1.7778
  181MOL0     H24938   7.717   8.882   7.298 -0.0599 -0.0024 -0.5431
  181MOL0     H24939   7.817   8.987   7.411 -0.7045 -0.6285  5.2353
  181MOL0     H24940   7.902   9.289   7.623  0.5880  1.3523 -0.8733
  181MOL0     H24941   7.901   9.518   7.732 -0.7117  0.6047 -2.0274
  181MOL0     H24942   7.547   9.629   7.945 -0.7008  1.0520  1.2755
  181MOL0     H24943   7.662   9.741   7.995 -1.4647 -2.3195  1.1829
  181MOL0     H24944   7.619   9.896   7.785  1.5837  1.9041  2.7100
  181MOL0     H24945   7.472   9.798   7.755  4.1432  1.8709 -4.6219
  181MOL0     H24946   7.397   9.880   7.999  4.5259 -1.0281  3.9121
  181MOL0     H24947   7.413  10.007   7.869 -0.6034  0.2251 -0.5836
  181MOL0     H24948   7.651  10.044   7.968 -1.1052  0.4857  0.1861
  181MOL0     H24949   7.595   9.931   8.090 -2.2841 -0.7858  0.2969
  181MOL0     H24950   7.584  10.158   8.170 -1.0942 -0.8965  2.5147
  181MOL0     H24951   7.459  10.206   8.054 -2.4156 -2.2415 -0.0874
  181MOL0     H24952   7.405  10.004   8.247  1.8722 -1.4455 -3.2041
  181MOL0     H24953   7.300  10.058   8.112 -0.6088 -0.1960 -0.2148
  181MOL0     H24954   7.316  10.291   8.198 -3.1966 -1.5599 -1.2044
  181MOL0     H24955   7.410  10.221   8.341 -1.6149  0.6655  2.1333
  181MOL0     H24956   7.186  10.259   8.409  0.4840 -0.4931  1.3546
  181MOL0     H24957   7.203  10.080   8.385 -0.8647 -0.9904 -0.5160
  181MOL0     H24958   7.488   9.529   7.770 -0.7755  1.4204 -0.9501
  181MOL0     H24959   7.471   9.289   7.686  0.4196 -1.6642 -0.8570
  181MOL0     H24960   7.536   8.841   7.809 -1.1748 -0.4608 -0.7383
  181MOL0     H24961   7.574   8.603   7.778  1.0567 -1.1213 -0.5353
  181MOL0     H24962   7.216   7.440   6.887  0.4088 -2.8537 -1.4075
  181MOL0     H24963   7.274   7.394   6.631 -0.2040  0.0792 -0.1727
  181MOL0     H24964   6.971   7.525   6.282 -1.2944  2.1766 -1.0261
  181MOL0     H24965   6.893   7.528   6.041  0.1943 -2.0946 -0.2472
  181MOL0     H24966   7.094   7.750   5.745 -0.4237  1.3851 -2.8451
  181MOL0     H24967   7.201   7.620   5.739 -0.3076 -1.9329  0.4870
  181MOL0     H24968   7.071   7.657   5.524  0.8217  0.8500  0.7615
  181MOL0     H24969   6.925   7.615   5.616 -0.5122 -4.3852  2.7192
  181MOL0     H24970   7.157   7.433   5.551  0.1408  1.0088 -0.0410
  181MOL0     H24971   7.036   7.379   5.672 -3.6927 -2.9615 -2.1990
  181MOL0     H24972   6.980   7.432   5.369  0.1208 -3.1555 -1.6576
  181MOL0     H24973   6.862   7.435   5.498  0.2506  2.6484  1.2631
  181MOL0     H24974   6.974   7.025   5.424 -2.2511 -1.2327  3.4216
  181MOL0     H24975   7.240   7.720   5.914 -2.6106  0.3794 -2.3827
  181MOL0     H24976   7.359   7.801   6.208  2.7803 -0.8409  2.0667
  181MOL0     H24977   7.440   7.638   6.196 -0.6394  0.5770  1.1290
  181MOL0     H24978   7.429   7.729   6.054  0.4381 -1.7159 -0.4369
  182MOL0     O24979   8.101   1.798   9.308 -0.4489  0.0772 -0.0866
  182MOL0     C24980   8.143   1.789   9.428 -0.2351 -0.2918  0.7397
  182MOL0     O24981   8.255   1.847   9.474 -0.7827  0.0128  0.7823
  182MOL0     C24982   8.349   1.883   9.386 -0.1654 -0.6643  0.0152
  182MOL0     C24983   8.481   1.842   9.425 -0.1091 -0.4824 -0.3405
  182MOL0     C24984   8.586   1.863   9.339 -0.1225  0.0181 -0.0542
  182MOL0     C24985   8.580   1.908   9.213 -0.2253  0.7509  0.2335
  182MOL0     O24986   8.689   1.899   9.123  0.8543  0.2376 -0.2082
  182MOL0     C24987   8.742   1.765   9.095  0.1152 -0.2328  0.2641
  182MOL0     C24988   8.660   1.703   8.984  0.5148 -0.1444 -0.1675
  182MOL0     C24989   8.691   1.770   8.852 -1.6790  0.2543  0.1394
  182MOL0     C24990   8.681   1.673   8.732  0.1514 -2.0188  0.1751
  182MOL0     C24991   8.787   1.563   8.738 -0.6376 -0.3835 -0.2490
  182MOL0     C24992   8.782   1.464   8.620  0.0696 -1.9575  0.0282
  182MOL0     C24993   8.639   1.410   8.608  0.4302 -0.3371  0.1563
  182MOL0     C24994   8.620   1.301   8.502  0.1363 -0.1336  0.4730
  182MOL0     N24995   8.698   1.332   8.373 -0.0440 -0.2659 -0.4579
  182MOL0     C24996   8.785   1.244   8.301 -0.3610 -0.1096  0.1355
  182MOL0     C24997   8.825   1.314   8.199 -0.2557 -0.5827 -0.1052
  182MOL0     C24998   8.909   1.265   8.084 -0.9406 -0.3263 -0.6161
  182MOL0     C24999   9.011   1.378   8.053  0.8995 -0.7614 -0.9749
  182MOL0     C25000   9.141   1.358   8.129  0.8333 -0.1756  0.5185
  182MOL0     C25001   9.244   1.461   8.088 -0.1910 -0.5954 -0.4786
  182MOL0     O25002   9.187   1.593   8.100  0.0452 -0.6172 -0.3252
  182MOL0     C25003   9.198   1.656   8.227 -0.4782 -1.4228  0.8471
  182MOL0     C25004   9.076   1.687   8.297  0.1126  0.1506  0.2081
  182MOL0     C25005   9.079   1.759   8.417 -0.7866 -0.3683 -0.7350
  182MOL0     C25006   8.950   1.815   8.475  0.2617 -0.2012 -0.8314
  182MOL0     C25007   9.210   1.801   8.472  0.5653 -0.6890  0.5490
  182MOL0     C25008   9.220   1.873   8.602 -0.0328  0.3895 -0.1353
  182MOL0     O25009   9.339   1.853   8.653 -0.5966  0.9329 -0.1569
  182MOL0     C25010   9.381   1.883   8.785 -0.2761 -0.2671 -0.1547
  182MOL0     C25011   9.306   1.939   8.895 -0.0768  0.9998  0.0871
  182MOL0     C25012   9.355   1.930   9.027 -0.2362 -0.1838  0.8405
  182MOL0     C25013   9.491   1.899   9.063 -0.0621  0.4190  0.9927
  182MOL0     O25014   9.529   1.896   9.192 -0.2102 -0.3411  0.7879
  182MOL0     C25015   9.649   1.831   9.223 -0.0657 -0.1637 -0.1360
  182MOL0     C25016   9.766   1.938   9.208  0.0715 -0.0789  0.2803
  182MOL0     C25017   9.755   2.054   9.311  0.5043 -0.3948  0.1088
  182MOL0     C25018   9.874   2.154   9.287 -0.3129  0.0139 -0.2104
  182MOL0     C25019   9.853   2.285   9.349  1.1495 -0.3906  0.0174
  182MOL0     C25020   9.772   2.393   9.261  0.8122  0.9252  0.1615
  182MOL0     C25021   9.746   2.527   9.336  0.0223 -0.0061 -0.1116
  182MOL0     C25022   9.649   2.517   9.445  1.3465 -0.1512  0.3315
  182MOL0    Cl25023   9.725   2.500   9.607  0.0047 -0.1605  0.0249
  182MOL0     C25024   9.573   1.869   8.947  1.0956 -0.1116  0.3454
  182MOL0     C25025   9.514   1.841   8.819 -0.4567 -0.1901  0.3390
  182MOL0     O25026   9.137   1.948   8.646  0.1333 -0.1569  0.4907
  182MOL0     C25027   9.316   1.764   8.402 -0.2639  0.6493  0.5980
  182MOL0     C25028   9.321   1.695   8.282  0.3627 -0.1115 -1.0711
  182MOL0     N25029   8.762   1.435   8.193 -0.5913  0.1283 -0.0469
  182MOL0     N25030   8.675   1.441   8.287  0.4253  0.3613  0.5733
  182MOL0     C25031   8.451   1.957   9.174 -0.1919 -0.3617 -0.3020
  182MOL0     C25032   8.339   1.951   9.261 -0.5011  0.0478  0.0829
  182MOL0     C25033   8.058   1.712   9.526  0.1460 -0.2807 -0.1857
  182MOL0     C25034   8.121   1.655   9.643 -0.3219  0.7028  0.5321
  182MOL0     C25035   8.052   1.605   9.754 -0.7593  0.3667  0.4447
  182MOL0     C25036   7.915   1.606   9.756  0.1553 -0.2383  0.4185
  182MOL0     O25037   7.839   1.572   9.860 -0.6591  0.2765 -0.3748
  182MOL0     C25038   7.895   1.520   9.974  0.4646  0.5773 -0.9052
  182MOL0     C25039   7.961   1.383   9.967 -0.2699  0.2482  0.8772
  182MOL0     C25040   7.866   1.276   9.925 -0.1735 -0.0173 -0.9094
  182MOL0     C25041   7.933   1.134   9.933  0.6447 -1.3222 -1.0634
  182MOL0     C25042   8.018   1.120   9.820 -0.4377 -0.2479 -0.7082
  182MOL0     C25043   8.084   1.078   9.720  1.3092  0.3295  0.4069
  182MOL0     C25044   7.849   1.650   9.634 -0.7058  0.7914 -0.2247
  182MOL0     C25045   7.911   1.702   9.522 -0.2033 -0.3979  0.7635
  182MOL0     C25046   7.825   1.756   9.407  0.1900 -1.7436 -0.1223
  182MOL0     H25047   8.484   1.797   9.524  0.2836 -0.4278 -0.3259
  182MOL0     H25048   8.684   1.823   9.365 -1.2790 -2.0572  1.5046
  182MOL0     H25049   8.750   1.701   9.184 -1.8294 -0.1405  0.5550
  182MOL0     H25050   8.846   1.764   9.063 -0.2821 -0.2318 -1.0767
  182MOL0     H25051   8.664   1.594   8.985 -2.3663 -0.3817 -2.1921
  182MOL0     H25052   8.556   1.726   9.007  1.0186  1.7872  0.3663
  182MOL0     H25053   8.630   1.860   8.837  2.5209  3.1441 -1.5212
  182MOL0     H25054   8.793   1.809   8.854 -1.0102 -1.3699  3.1756
  182MOL0     H25055   8.578   1.634   8.740 -0.5931  0.1297  2.2860
  182MOL0     H25056   8.679   1.724   8.635 -0.6395 -1.3888  0.5078
  182MOL0     H25057   8.777   1.518   8.838  0.1327  1.7310  0.8422
  182MOL0     H25058   8.885   1.611   8.737 -0.9882  0.3615 -1.9305
  182MOL0     H25059   8.791   1.532   8.535 -0.1699 -1.5083  0.3553
  182MOL0     H25060   8.857   1.385   8.616 -0.1819 -2.1503 -2.6731
  182MOL0     H25061   8.566   1.487   8.585  2.7328  3.9611  5.2056
  182MOL0     H25062   8.618   1.365   8.705  3.3422  0.1418  1.1232
  182MOL0     H25063   8.665   1.207   8.536  0.0353 -0.3304  0.0641
  182MOL0     H25064   8.514   1.281   8.488  0.3192 -1.9079  1.2536
  182MOL0     H25065   8.811   1.146   8.341  0.6429 -0.5759 -1.5303
  182MOL0     H25066   8.838   1.248   8.002 -2.4584 -0.2616  0.6214
  182MOL0     H25067   8.956   1.170   8.109 -0.9565 -0.0757  0.4095
  182MOL0     H25068   9.027   1.363   7.946  1.6537 -0.0433 -0.9765
  182MOL0     H25069   8.969   1.479   8.058 -0.3211 -1.2775 -0.3247
  182MOL0     H25070   9.119   1.373   8.235  2.6023  0.6428  0.8185
  182MOL0     H25071   9.170   1.255   8.109 -0.6692 -0.5777  0.3444
  182MOL0     H25072   9.335   1.461   8.148  1.2497 -0.5273 -2.5900
  182MOL0     H25073   9.272   1.436   7.986 -1.7721  0.9687 -1.3457
  182MOL0     H25074   8.978   1.675   8.251 -0.0973 -0.3057  0.7690
  182MOL0     H25075   8.948   1.815   8.584 -2.9810  0.3645 -0.8044
  182MOL0     H25076   8.862   1.757   8.445 -0.2596  1.3623 -2.5198
  182MOL0     H25077   8.952   1.914   8.430  0.3049  0.9922  1.6669
  182MOL0     H25078   9.200   1.960   8.885 -1.0250 -2.9095 -0.0493
  182MOL0     H25079   9.285   1.970   9.100 -1.5208 -0.2924 -0.2782
  182MOL0     H25080   9.630   1.808   9.328 -2.7134  3.2459  0.3092
  182MOL0     H25081   9.678   1.734   9.181  1.8791 -1.1002  2.9814
  182MOL0     H25082   9.869   1.901   9.202  0.4063  0.9808 -1.3225
  182MOL0     H25083   9.761   1.990   9.112  0.6475  1.5729  1.1031
  182MOL0     H25084   9.787   2.013   9.407  2.9549 -0.7011 -0.7559
  182MOL0     H25085   9.656   2.097   9.325  1.0059  0.5076  0.9703
  182MOL0     H25086   9.894   2.171   9.181  2.7161  0.2498  0.3327
  182MOL0     H25087   9.968   2.110   9.320 -0.2480 -2.2713 -3.0382
  182MOL0     H25088   9.797   2.283   9.443  0.3611  3.2070 -0.2245
  182MOL0     H25089   9.948   2.337   9.364 -0.9500  4.3212 -1.1633
  182MOL0     H25090   9.682   2.337   9.235  1.9370 -1.3353  0.9308
  182MOL0     H25091   9.815   2.410   9.162 -2.5398 -0.6561 -1.7657
  182MOL0     H25092   9.705   2.596   9.261 -0.4383  0.8965  0.9464
  182MOL0     H25093   9.840   2.567   9.374 -0.0400 -1.3637  1.5931
  182MOL0     H25094   9.583   2.431   9.427 -1.2694  1.3674  2.0325
  182MOL0     H25095   9.585   2.606   9.440  2.8349  1.0453  1.6317
  182MOL0     H25096   9.680   1.851   8.948  1.0790 -0.2111  0.3005
  182MOL0     H25097   9.581   1.801   8.745  1.4587  2.5877  0.4344
  182MOL0     H25098   9.415   1.785   8.440  0.5974 -2.8042  0.5954
  182MOL0     H25099   9.410   1.688   8.221  1.3858  0.5223  0.2804
  182MOL0     H25100   8.432   2.015   9.084  2.4834  4.7540  1.9860
  182MOL0     H25101   8.247   1.983   9.214 -0.1139 -1.4059 -1.7534
  182MOL0     H25102   8.225   1.682   9.658  0.6660 -0.6896 -2.8451
  182MOL0     H25103   8.106   1.599   9.848  2.0596  3.4475 -0.7432
  182MOL0     H25104   7.967   1.589  10.020  1.1065  0.3287 -1.5115
  182MOL0     H25105   7.808   1.514  10.040  0.0231 -1.2405 -1.6029
  182MOL0     H25106   8.001   1.347  10.062  1.2851  1.3188  0.6778
  182MOL0     H25107   8.049   1.391   9.902 -1.0331  1.0141 -0.0872
  182MOL0     H25108   7.783   1.278   9.997  0.8033  0.0821  0.2605
  182MOL0     H25109   7.828   1.304   9.827 -1.4582  1.2051 -0.1067
  182MOL0     H25110   7.855   1.059   9.916 -1.5602  1.1863 -2.7858
  182MOL0     H25111   7.999   1.115  10.019  2.7016  3.9569 -1.0781
  182MOL0     H25112   8.142   1.050   9.634  1.5721  0.7778  0.4323
  182MOL0     H25113   7.743   1.627   9.638 -0.2186 -2.8903 -3.4059
  182MOL0     H25114   7.821   1.693   9.318 -2.0484 -2.6938  0.5804
  182MOL0     H25115   7.721   1.766   9.438  0.2006 -1.2629 -0.2385
  182MOL0     H25116   7.846   1.859   9.377  0.9644 -1.9414 -0.3000
  183MOL0     O25117   0.462  10.301   5.258 -0.1829  0.1145 -0.2509
  183MOL0     C25118   0.516  10.339   5.150  0.0006 -0.6129 -1.0574
  183MOL0     O25119   0.456  10.374   5.040 -0.2263  0.1994  0.5430
  183MOL0     C25120   0.323  10.385   5.014 -0.0350 -0.1744  0.4374
  183MOL0     C25121   0.222  10.296   5.034 -0.0840  0.2883  0.6405
  183MOL0     C25122   0.089  10.339   5.013 -0.5696  0.0244  0.1505
  183MOL0     C25123   0.053  10.470   4.960  0.0459  0.2925  0.3315
  183MOL0     O25124  -0.077  10.516   4.932 -0.6379  0.3998 -0.9236
  183MOL0     C25125  -0.176  10.414   4.923  0.4381 -0.1949  0.0938
  183MOL0     C25126  -0.317  10.474   4.897  0.4247  0.3741 -0.4208
  183MOL0     C25127  -0.369  10.578   5.004 -0.4552  0.3602  0.1950
  183MOL0     C25128  -0.291  10.717   5.010  0.1506  0.7749  0.1145
  183MOL0     C25129  -0.358  10.818   5.117 -0.6086  0.1950 -0.2903
  183MOL0     C25130  -0.491  10.877   5.076  0.1002 -0.5812  0.5466
  183MOL0     C25131  -0.519  11.011   5.148 -0.6828  0.2092  0.1897
  183MOL0     C25132  -0.549  11.002   5.291  1.1165 -0.4215 -0.8302
  183MOL0     N25133  -0.675  10.931   5.320  1.1881 -0.3145  0.3882
  183MOL0     C25134  -0.791  10.943   5.249  0.1288  0.1206  0.2972
  183MOL0     C25135  -0.885  10.919   5.332  0.3918  0.0643 -0.3283
  183MOL0     C25136  -1.040  10.922   5.308 -0.5137  0.8656 -0.0831
  183MOL0     C25137  -1.121  11.042   5.351  0.2016 -0.1612  0.3257
  183MOL0     C25138  -1.118  11.064   5.498 -0.3056 -1.0098  0.2620
  183MOL0     C25139  -1.215  11.175   5.541  0.1885 -1.1114  0.5762
  183MOL0     O25140  -1.343  11.118   5.538  0.8230 -0.2949  1.1035
  183MOL0     C25141  -1.457  11.195   5.561  0.5013  0.3129  0.1459
  183MOL0     C25142  -1.455  11.329   5.609  0.4076  0.2931  0.2120
  183MOL0     C25143  -1.576  11.404   5.638 -0.0288 -0.7950 -0.1239
  183MOL0     C25144  -1.559  11.532   5.709  0.2641 -0.6488 -0.3188
  183MOL0     C25145  -1.701  11.339   5.630  0.3061  0.9492 -0.5137
  183MOL0     C25146  -1.844  11.390   5.671  0.2047  0.2628 -0.3446
  183MOL0     O25147  -1.944  11.318   5.613  1.0605  0.1199  0.3710
  183MOL0     C25148  -2.064  11.321   5.677 -0.3293  0.4061  0.3326
  183MOL0     C25149  -2.177  11.362   5.604 -0.5624  0.6848 -0.3234
  183MOL0     C25150  -2.307  11.365   5.670 -0.2956  0.1508  0.4934
  183MOL0     C25151  -2.309  11.331   5.805  0.1620  0.2238 -0.8040
  183MOL0     O25152  -2.425  11.321   5.878 -0.2790  0.3398 -0.3870
  183MOL0     C25153  -2.532  11.408   5.846  0.0004 -1.0622  0.2966
  183MOL0     C25154  -2.634  11.415   5.963 -0.1703 -0.0044  0.7676
  183MOL0     C25155  -2.744  11.518   5.928 -0.8922  0.7961 -0.4731
  183MOL0     C25156  -2.847  11.507   6.045 -0.4532 -0.0222  0.4773
  183MOL0     C25157  -2.962  11.593   6.017  0.1549  0.2947 -0.4700
  183MOL0     C25158  -3.049  11.621   6.141 -0.3612  0.2265 -0.3349
  183MOL0     C25159  -3.100  11.761   6.127  0.3833  0.1124 -0.1598
  183MOL0     C25160  -3.211  11.784   6.224 -0.3961 -0.3240  0.0934
  183MOL0    Cl25161  -3.205  11.957   6.269  0.0614  0.3993 -0.0225
  183MOL0     C25162  -2.197  11.286   5.874 -0.5068  0.5437 -0.0179
  183MOL0     C25163  -2.071  11.284   5.808  0.9805 -0.2525  0.0320
  183MOL0     O25164  -1.848  11.492   5.740 -0.1377  0.1878 -0.6615
  183MOL0     C25165  -1.694  11.203   5.590 -0.0393 -0.0480 -0.9613
  183MOL0     C25166  -1.576  11.139   5.555  0.7314 -0.0707 -0.3768
  183MOL0     N25167  -0.828  10.913   5.462  0.0678 -0.6104  0.1374
  183MOL0     N25168  -0.705  10.898   5.448 -0.3211  0.0519  1.2374
  183MOL0     C25169   0.159  10.541   4.919 -0.0119 -0.4549 -0.3813
  183MOL0     C25170   0.292  10.512   4.960  0.2143 -0.6485  0.0687
  183MOL0     C25171   0.671  10.374   5.168  0.1288 -0.4672 -0.3634
  183MOL0     C25172   0.710  10.487   5.101  0.3418 -0.6107  0.2295
  183MOL0     C25173   0.827  10.551   5.121  0.2269  0.3730 -0.2942
  183MOL0     C25174   0.919  10.493   5.203 -0.8088 -0.1461  0.3721
  183MOL0     O25175   1.038  10.569   5.215  1.2173 -0.4436 -0.2998
  183MOL0     C25176   1.137  10.532   5.317  0.0972  1.0379 -1.1942
  183MOL0     C25177   1.231  10.438   5.252  0.3845 -0.3682 -0.3731
  183MOL0     C25178   1.339  10.366   5.346 -0.5016  0.0166 -0.6481
  183MOL0     C25179   1.271  10.263   5.436  1.0800  0.8155  0.3072
  183MOL0     C25180   1.203  10.160   5.357 -1.3745 -0.0709 -0.1662
  183MOL0     C25181   1.142  10.090   5.286 -0.6421 -0.1484  0.2625
  183MOL0     C25182   0.883  10.389   5.279 -0.0451  0.6081 -0.3080
  183MOL0     C25183   0.760  10.330   5.262  0.3728  0.7005  0.0408
  183MOL0     C25184   0.735  10.215   5.353 -0.2337  0.4706  0.9682
  183MOL0     H25185   0.240  10.198   5.077  0.6749  0.0182 -0.2698
  183MOL0     H25186   0.005  10.270   5.022 -2.6190  2.3677  0.0609
  183MOL0     H25187  -0.176  10.352   5.014  2.9490 -1.1535 -0.4572
  183MOL0     H25188  -0.152  10.357   4.832  1.3045 -0.2383  0.3354
  183MOL0     H25189  -0.307  10.533   4.806  2.7099  1.4884  0.4703
  183MOL0     H25190  -0.391  10.399   4.868  0.2560  0.3540  0.0549
  183MOL0     H25191  -0.474  10.596   4.977 -0.3909 -1.2991 -1.3457
  183MOL0     H25192  -0.367  10.535   5.105 -0.2456  0.4088  0.2128
  183MOL0     H25193  -0.189  10.705   5.048  1.6028  2.3084 -2.8801
  183MOL0     H25194  -0.284  10.765   4.912  1.0251 -0.1169 -0.2767
  183MOL0     H25195  -0.277  10.890   5.130  1.2511 -1.8433  0.1429
  183MOL0     H25196  -0.375  10.774   5.215  4.2953 -0.8968  0.3213
  183MOL0     H25197  -0.473  10.904   4.972  2.1071  2.8508  1.6247
  183MOL0     H25198  -0.570  10.801   5.082 -1.7716  1.2991  0.6278
  183MOL0     H25199  -0.599  11.065   5.096 -1.6497 -1.9902 -0.7041
  183MOL0     H25200  -0.429  11.074   5.147 -1.2218  1.0154 -1.2961
  183MOL0     H25201  -0.467  10.954   5.346 -0.5759  1.9733  4.4885
  183MOL0     H25202  -0.560  11.098   5.342  0.3351 -1.0752  0.2740
  183MOL0     H25203  -0.808  10.983   5.149  0.3907  1.2420  0.6850
  183MOL0     H25204  -1.088  10.835   5.353  2.1327 -0.1761  0.8962
  183MOL0     H25205  -1.054  10.927   5.200  0.4290  3.0314 -0.1679
  183MOL0     H25206  -1.092  11.136   5.303  2.3961  0.8522  3.3589
  183MOL0     H25207  -1.225  11.036   5.317 -1.4257  4.6483  3.5541
  183MOL0     H25208  -1.158  10.973   5.544 -0.8029 -1.1553 -0.4409
  183MOL0     H25209  -1.018  11.101   5.525 -0.8448  2.0442 -1.4181
  183MOL0     H25210  -1.191  11.215   5.640  1.4617 -4.0519  1.5777
  183MOL0     H25211  -1.202  11.257   5.470  1.5103 -1.5877  0.2458
  183MOL0     H25212  -1.359  11.375   5.630  0.1266  2.1636 -2.1327
  183MOL0     H25213  -1.469  11.594   5.700 -2.6943  3.9970 -2.0018
  183MOL0     H25214  -1.564  11.502   5.814  2.4916  0.0024  0.0418
  183MOL0     H25215  -1.640  11.598   5.677  0.5120 -1.0388 -1.8621
  183MOL0     H25216  -2.168  11.385   5.499 -0.2138  0.2244 -0.3974
  183MOL0     H25217  -2.398  11.385   5.615 -0.5376 -0.6116  0.6121
  183MOL0     H25218  -2.503  11.513   5.831 -4.6732  1.1146  3.9158
  183MOL0     H25219  -2.573  11.372   5.751  0.0955 -1.2101  0.3105
  183MOL0     H25220  -2.686  11.320   5.979 -2.1254  1.0245  0.8828
  183MOL0     H25221  -2.577  11.440   6.052  3.1600 -2.8995 -0.3342
  183MOL0     H25222  -2.782  11.513   5.826  1.0843  2.8259 -1.4062
  183MOL0     H25223  -2.701  11.616   5.953  0.5698 -0.6634  3.4849
  183MOL0     H25224  -2.794  11.535   6.136 -1.1563  2.9021  0.0973
  183MOL0     H25225  -2.879  11.402   6.038 -0.2047 -0.0330 -0.7436
  183MOL0     H25226  -2.917  11.690   5.993 -0.8808  1.3825  1.6141
  183MOL0     H25227  -3.021  11.548   5.937  1.4390 -1.8406 -0.2906
  183MOL0     H25228  -2.997  11.605   6.236  2.7068 -1.9948 -2.2149
  183MOL0     H25229  -3.130  11.548   6.136  0.9699 -1.2290 -2.2248
  183MOL0     H25230  -3.136  11.790   6.028 -2.4986 -0.8413  0.4926
  183MOL0     H25231  -3.018  11.831   6.143  0.4079 -0.1157  0.7671
  183MOL0     H25232  -3.200  11.729   6.318 -0.6791  0.6383  0.6986
  183MOL0     H25233  -3.299  11.761   6.163 -0.8181 -0.0269  0.5939
  183MOL0     H25234  -2.200  11.268   5.981 -0.5520  3.5429  0.5846
  183MOL0     H25235  -1.995  11.266   5.883  0.7408 -1.7588 -0.0417
  183MOL0     H25236  -1.777  11.134   5.577  1.4312 -2.3114  0.7849
  183MOL0     H25237  -1.583  11.034   5.528  1.3529  0.7275 -4.2994
  183MOL0     H25238   0.141  10.642   4.884 -0.7450  0.7092  2.9903
  183MOL0     H25239   0.365  10.592   4.952 -0.7909  0.1025 -2.2347
  183MOL0     H25240   0.649  10.527   5.021 -2.4692  2.1096  3.3772
  183MOL0     H25241   0.850  10.646   5.073  3.9897 -1.5600 -2.8910
  183MOL0     H25242   1.200  10.615   5.350  0.1913  0.2337  0.7439
  183MOL0     H25243   1.098  10.504   5.414 -2.8095  2.6203 -1.7989
  183MOL0     H25244   1.281  10.504   5.181 -3.6297  1.0175 -2.2469
  183MOL0     H25245   1.183  10.357   5.196  1.8583 -2.1094  0.7536
  183MOL0     H25246   1.414  10.320   5.280 -0.1377 -0.9516  0.4130
  183MOL0     H25247   1.383  10.444   5.409  1.0864 -2.5438  1.6359
  183MOL0     H25248   1.197  10.317   5.496 -0.5527  0.1964 -1.0694
  183MOL0     H25249   1.347  10.220   5.503  0.6393  1.5129  1.2739
  183MOL0     H25250   1.082  10.026   5.225 -0.1551  1.4461 -2.0084
  183MOL0     H25251   0.956  10.359   5.355 -1.0328  0.9110  0.7972
  183MOL0     H25252   0.823  10.158   5.386  0.8413  0.8334 -1.0957
  183MOL0     H25253   0.678  10.263   5.433 -0.0338 -1.6000  2.4403
  183MOL0     H25254   0.678  10.140   5.296  3.1747  1.4512 -4.4620
  184MOL0     O25255   0.486  10.980   1.123 -0.0979 -0.9925 -0.3960
  184MOL0     C25256   0.391  10.910   1.108  0.1693  0.5810 -0.0533
  184MOL0     O25257   0.267  10.958   1.100 -0.0672  0.2465 -0.3514
  184MOL0     C25258   0.251  11.090   1.137 -0.1167  0.2834 -0.0335
  184MOL0     C25259   0.191  11.122   1.257  0.9560  0.6530  0.5495
  184MOL0     C25260   0.161  11.253   1.292 -0.6491  0.9800  0.3914
  184MOL0     C25261   0.206  11.359   1.215  0.4088  0.2898 -0.0733
  184MOL0     O25262   0.165  11.487   1.253  0.4011 -0.1085  0.0293
  184MOL0     C25263   0.072  11.562   1.167 -0.0444  0.1725  0.6001
  184MOL0     C25264   0.147  11.685   1.108  0.6753 -0.2747  0.1845
  184MOL0     C25265   0.189  11.784   1.224  0.8904 -0.1068  0.1834
  184MOL0     C25266   0.216  11.922   1.164  0.0330  0.2992 -0.9468
  184MOL0     C25267   0.234  12.026   1.276 -0.5770 -0.4420  0.6362
  184MOL0     C25268   0.381  12.046   1.322  0.1026 -0.8552  0.1978
  184MOL0     C25269   0.466  12.124   1.210  1.2917  0.5936  0.9305
  184MOL0     C25270   0.613  12.103   1.238 -0.2477  1.0053  0.3245
  184MOL0     N25271   0.671  12.145   1.367 -0.0102  0.2589 -0.2561
  184MOL0     C25272   0.764  12.252   1.384  0.4853 -0.1610 -0.9035
  184MOL0     C25273   0.819  12.235   1.503  0.2261 -0.0710  0.2886
  184MOL0     C25274   0.911  12.323   1.574  1.1700 -0.6468 -0.0135
  184MOL0     C25275   0.831  12.414   1.670  0.2838  1.6264 -0.2474
  184MOL0     C25276   0.909  12.512   1.755 -1.1479 -0.1583  1.2384
  184MOL0     C25277   0.827  12.571   1.870  0.0337  0.1707  0.0243
  184MOL0     O25278   0.884  12.531   1.994 -0.3538 -0.4682 -0.3923
  184MOL0     C25279   0.996  12.604   2.047 -0.6554  0.9548 -0.4369
  184MOL0     C25280   1.052  12.560   2.165  0.1720 -0.7943 -1.1386
  184MOL0     C25281   1.166  12.633   2.212 -0.0070  0.2437 -0.3967
  184MOL0     C25282   1.222  12.576   2.343 -0.3194 -1.2694  0.4242
  184MOL0     C25283   1.217  12.746   2.155  0.4131 -0.9753  0.1533
  184MOL0     C25284   1.330  12.826   2.204 -0.1069  0.1259  0.1440
  184MOL0     O25285   1.329  12.957   2.180  0.4414 -0.5412  0.0988
  184MOL0     C25286   1.441  13.026   2.198 -0.6103 -0.3358  0.1894
  184MOL0     C25287   1.456  13.119   2.301  0.3923  0.2793  0.5546
  184MOL0     C25288   1.564  13.204   2.311 -0.3025 -0.4953 -0.5443
  184MOL0     C25289   1.660  13.219   2.212  0.3491  0.2277 -0.3986
  184MOL0     O25290   1.757  13.307   2.223 -0.0053  0.0295  0.6928
  184MOL0     C25291   1.786  13.387   2.106  0.0668  0.2669  0.3308
  184MOL0     C25292   1.850  13.519   2.148 -0.5097 -0.5347  0.1957
  184MOL0     C25293   1.754  13.610   2.206  0.2744  0.1088 -0.4797
  184MOL0     C25294   1.820  13.732   2.273  0.1342  0.3000 -0.1420
  184MOL0     C25295   1.704  13.836   2.310 -0.4373  0.2971 -0.2968
  184MOL0     C25296   1.772  13.962   2.359 -0.3679 -0.0012  1.2269
  184MOL0     C25297   1.871  13.965   2.469  0.1044  0.3571 -0.6227
  184MOL0     C25298   1.917  14.104   2.517 -1.2808 -0.0561 -0.1171
  184MOL0    Cl25299   2.070  14.172   2.447  0.0137  0.5239  0.1111
  184MOL0     C25300   1.645  13.127   2.099  0.8257 -0.0040 -0.3271
  184MOL0     C25301   1.543  13.029   2.098  0.7472 -0.1886 -0.1602
  184MOL0     O25302   1.424  12.760   2.249  1.0530  0.3437  0.3395
  184MOL0     C25303   1.146  12.793   2.044  0.0121  0.0418  0.7271
  184MOL0     C25304   1.040  12.725   1.988  0.1216 -0.4563 -0.1109
  184MOL0     N25305   0.776  12.112   1.551  0.2053  0.4382 -0.1108
  184MOL0     N25306   0.684  12.054   1.467 -0.8920  0.2231  0.0664
  184MOL0     C25307   0.273  11.335   1.099  0.6495  0.0464  0.0515
  184MOL0     C25308   0.296  11.204   1.065  0.3970  1.0613 -0.8063
  184MOL0     C25309   0.406  10.763   1.088 -0.1207 -0.6615 -0.3730
  184MOL0     C25310   0.292  10.686   1.121  0.1241  0.6620  1.0251
  184MOL0     C25311   0.284  10.547   1.112 -0.3600 -0.3208 -0.4501
  184MOL0     C25312   0.400  10.482   1.064  1.1181 -0.0896 -0.0295
  184MOL0     O25313   0.410  10.350   1.037  0.0373  0.9883  0.8562
  184MOL0     C25314   0.313  10.254   1.053 -0.5896 -0.0285 -0.3501
  184MOL0     C25315   0.354  10.139   0.973  0.0104  0.4466  0.9662
  184MOL0     C25316   0.247  10.030   0.963 -0.1777  0.1578 -0.4165
  184MOL0     C25317   0.288   9.916   0.862  0.3392 -0.5557 -0.4621
  184MOL0     C25318   0.277   9.971   0.723 -0.9267 -0.6304 -0.0230
  184MOL0     C25319   0.276  10.024   0.623  0.2872  0.2238  1.5131
  184MOL0     C25320   0.519  10.563   1.030  0.3405  0.7010 -0.8338
  184MOL0     C25321   0.523  10.697   1.056 -0.5243 -0.3441 -0.1002
  184MOL0     C25322   0.660  10.768   1.024 -0.2815  0.0210 -1.5924
  184MOL0     H25323   0.154  11.037   1.313  0.6446 -0.9055 -1.8624
  184MOL0     H25324   0.121  11.273   1.390 -4.6294  3.6753 -1.5214
  184MOL0     H25325  -0.011  11.603   1.226  0.2800  1.3801  0.2350
  184MOL0     H25326   0.026  11.496   1.093 -1.1879 -0.3762  1.7580
  184MOL0     H25327   0.246  11.666   1.065  0.4989  1.8839 -1.3175
  184MOL0     H25328   0.095  11.739   1.028  0.5045 -2.2412 -1.0947
  184MOL0     H25329   0.103  11.794   1.292  0.6591 -0.2940 -0.0786
  184MOL0     H25330   0.281  11.753   1.274  2.7261 -1.2292 -3.5195
  184MOL0     H25331   0.287  11.913   1.081 -0.9644 -2.6191 -1.6280
  184MOL0     H25332   0.130  11.973   1.117 -1.2668  0.5145  1.5213
  184MOL0     H25333   0.173  12.000   1.363 -1.5138  0.6965  0.3422
  184MOL0     H25334   0.183  12.117   1.242 -0.4710 -0.6688 -0.1332
  184MOL0     H25335   0.386  12.122   1.401 -1.5493  0.1424 -0.6054
  184MOL0     H25336   0.435  11.955   1.349  1.2703 -1.0030 -2.3522
  184MOL0     H25337   0.449  12.232   1.212  0.8754  1.0458 -5.7692
  184MOL0     H25338   0.442  12.091   1.109  0.3282  2.7408  0.3982
  184MOL0     H25339   0.646  11.999   1.229  0.1943  0.9973  1.7336
  184MOL0     H25340   0.665  12.162   1.163  0.0177 -0.0854 -0.3645
  184MOL0     H25341   0.776  12.339   1.321 -1.4128  0.4985 -0.4044
  184MOL0     H25342   0.967  12.383   1.501 -2.7681 -0.9063 -3.6616
  184MOL0     H25343   0.981  12.254   1.622  2.9934  3.6545  4.2435
  184MOL0     H25344   0.757  12.465   1.607 -0.2910  3.1654  1.5737
  184MOL0     H25345   0.782  12.347   1.742  1.0665  0.2963 -0.9241
  184MOL0     H25346   0.991  12.460   1.805 -0.4269 -1.1496 -0.8814
  184MOL0     H25347   0.947  12.603   1.706 -1.4988  1.1241  3.2166
  184MOL0     H25348   0.804  12.678   1.860 -0.9103 -0.0039  0.2886
  184MOL0     H25349   0.724  12.536   1.864  0.8313 -3.0070  2.3572
  184MOL0     H25350   1.013  12.480   2.227 -0.0647 -1.5203 -2.1991
  184MOL0     H25351   1.248  12.657   2.411  0.0969 -0.8026 -0.2792
  184MOL0     H25352   1.314  12.528   2.308 -1.4509 -2.3164 -1.2775
  184MOL0     H25353   1.148  12.513   2.394  0.7370  0.3435  4.3340
  184MOL0     H25354   1.389  13.127   2.386  0.2407 -1.5065  0.6344
  184MOL0     H25355   1.568  13.276   2.393 -0.1340  0.3854 -1.3124
  184MOL0     H25356   1.859  13.326   2.052 -0.7371 -0.3475 -0.0738
  184MOL0     H25357   1.700  13.396   2.040 -1.6509  0.3571  2.4877
  184MOL0     H25358   1.939  13.502   2.210  2.0905  4.0636 -1.7238
  184MOL0     H25359   1.886  13.571   2.058 -0.5506  1.8374  1.4520
  184MOL0     H25360   1.695  13.561   2.284  0.5068 -2.2349 -1.6718
  184MOL0     H25361   1.688  13.634   2.122  0.2442  2.3036  0.1209
  184MOL0     H25362   1.878  13.781   2.195 -4.2701  4.3359 -1.3182
  184MOL0     H25363   1.870  13.693   2.362 -1.0804  1.7281  1.2199
  184MOL0     H25364   1.650  13.870   2.222 -0.7364  1.8763  0.4673
  184MOL0     H25365   1.644  13.785   2.386  2.2362  3.2032  4.2524
  184MOL0     H25366   1.693  14.035   2.380 -0.9675 -0.2764  0.0217
  184MOL0     H25367   1.822  13.994   2.267 -1.1128  0.6994  1.0528
  184MOL0     H25368   1.955  13.897   2.457  2.0641  2.7244 -1.1517
  184MOL0     H25369   1.804  13.942   2.552 -0.2211 -0.1729 -1.0234
  184MOL0     H25370   1.933  14.088   2.624 -1.4381 -3.7606 -0.5286
  184MOL0     H25371   1.838  14.177   2.498 -1.2262 -0.0181 -0.2040
  184MOL0     H25372   1.722  13.132   2.024 -1.3621 -0.9279 -2.7809
  184MOL0     H25373   1.555  12.954   2.021  2.9595 -0.0997  0.0107
  184MOL0     H25374   1.152  12.894   2.004 -1.7974 -0.9232 -2.2992
  184MOL0     H25375   1.010  12.757   1.889 -3.5366  0.2628  1.0843
  184MOL0     H25376   0.321  11.413   1.039  3.6208 -1.3142  0.4733
  184MOL0     H25377   0.330  11.197   0.963 -0.4505 -1.6198 -0.9921
  184MOL0     H25378   0.208  10.752   1.142  1.9451  3.3397  0.2807
  184MOL0     H25379   0.191  10.490   1.116 -1.2436  0.5352 -4.5409
  184MOL0     H25380   0.304  10.220   1.157  2.6468  0.0796  0.0570
  184MOL0     H25381   0.215  10.284   1.014 -2.1393 -4.8278 -0.8278
  184MOL0     H25382   0.449  10.101   1.010 -0.8151 -1.0242  1.6374
  184MOL0     H25383   0.366  10.174   0.870  3.1345  2.3371  1.8598
  184MOL0     H25384   0.240   9.987   1.063 -0.5434 -0.0794 -0.5437
  184MOL0     H25385   0.156  10.083   0.937 -0.0858  0.7658  0.4502
  184MOL0     H25386   0.220   9.831   0.876 -1.9721  1.2707  0.0359
  184MOL0     H25387   0.388   9.883   0.891 -0.4432 -0.5928  2.5121
  184MOL0     H25388   0.294  10.071   0.528  2.1093 -2.0013  0.6459
  184MOL0     H25389   0.611  10.513   1.004  0.7652 -0.5617  2.5218
  184MOL0     H25390   0.690  10.837   1.104 -1.2995 -0.1582 -1.0381
  184MOL0     H25391   0.735  10.696   0.991 -0.9038 -0.9760 -0.8840
  184MOL0     H25392   0.644  10.834   0.938  1.4167 -0.8947 -2.6596
  185MOL0     O25393   5.239   1.107   4.622  1.0878 -0.0102  0.8866
  185MOL0     C25394   5.217   0.996   4.674 -0.9966  0.6102  0.3594
  185MOL0     O25395   5.094   0.929   4.676  0.0038  0.2733  0.2148
  185MOL0     C25396   4.976   0.986   4.623 -0.4401 -0.6515 -1.1593
  185MOL0     C25397   4.861   1.009   4.697 -0.9706  1.3351  0.2471
  185MOL0     C25398   4.744   1.048   4.629 -0.6662 -0.2500 -0.3101
  185MOL0     C25399   4.747   1.089   4.498  0.4583 -0.0509 -0.7707
  185MOL0     O25400   4.640   1.136   4.440  0.5509 -1.2101  0.6315
  185MOL0     C25401   4.551   1.216   4.525 -0.8914 -0.5141  1.0341
  185MOL0     C25402   4.455   1.290   4.431 -0.3595 -0.1968  0.6844
  185MOL0     C25403   4.368   1.397   4.505  0.3573  0.2377 -0.6357
  185MOL0     C25404   4.295   1.492   4.409  1.2195 -0.5455  0.6464
  185MOL0     C25405   4.277   1.623   4.472  0.2348 -0.4898 -0.1132
  185MOL0     C25406   4.153   1.610   4.566 -0.1004  0.2329  0.3252
  185MOL0     C25407   4.123   1.751   4.624  0.5684 -0.9503  0.2024
  185MOL0     C25408   4.056   1.748   4.766 -1.0636  0.0787 -0.4685
  185MOL0     N25409   4.159   1.719   4.868 -0.4982  0.2883 -0.2850
  185MOL0     C25410   4.284   1.772   4.881 -0.5050 -0.2387 -0.6308
  185MOL0     C25411   4.336   1.719   4.994  0.0320  0.1010  0.3296
  185MOL0     C25412   4.473   1.744   5.037  0.6538 -0.9372  0.5685
  185MOL0     C25413   4.479   1.880   5.107  0.8781 -0.2203  0.4421
  185MOL0     C25414   4.613   1.896   5.179 -0.4521 -0.8634  0.4736
  185MOL0     C25415   4.639   2.040   5.217  0.2908 -0.5282  0.2124
  185MOL0     O25416   4.539   2.076   5.319 -0.2593  0.1212  0.3570
  185MOL0     C25417   4.441   2.169   5.297 -1.2060  0.8859  1.5708
  185MOL0     C25418   4.443   2.275   5.203 -0.2510 -0.2409  0.5648
  185MOL0     C25419   4.339   2.376   5.188  0.6830  0.4506 -0.2873
  185MOL0     C25420   4.355   2.498   5.106  0.6394 -0.3370  0.3686
  185MOL0     C25421   4.238   2.357   5.279 -0.2369 -0.1443  0.9109
  185MOL0     C25422   4.122   2.454   5.279  0.3037  0.9785 -0.2041
  185MOL0     O25423   4.039   2.459   5.389 -0.5596  0.2454  0.5578
  185MOL0     C25424   3.914   2.523   5.380  0.2353 -0.1666  1.1225
  185MOL0     C25425   3.861   2.581   5.487  0.6044  0.2546 -0.5239
  185MOL0     C25426   3.728   2.635   5.500 -0.3346 -0.5862  0.5767
  185MOL0     C25427   3.635   2.609   5.396 -0.4982 -0.2415  1.1091
  185MOL0     O25428   3.504   2.649   5.399 -0.4175 -0.2145 -0.3622
  185MOL0     C25429   3.468   2.738   5.513 -0.2996 -0.6794 -0.6815
  185MOL0     C25430   3.334   2.802   5.494  0.7053  0.0775  0.2625
  185MOL0     C25431   3.317   2.922   5.581  0.6755 -0.8934 -0.9507
  185MOL0     C25432   3.170   2.978   5.599  0.4450 -0.3091 -0.2406
  185MOL0     C25433   3.169   3.085   5.713  0.4701  0.3921  1.0037
  185MOL0     C25434   3.213   3.221   5.669 -0.3087  1.1550 -0.8181
  185MOL0     C25435   3.177   3.328   5.780 -0.2395  0.1664  0.6663
  185MOL0     C25436   3.214   3.472   5.748 -0.6695 -0.2859 -0.4210
  185MOL0    Cl25437   3.108   3.582   5.847 -0.3066  0.5786  0.2139
  185MOL0     C25438   3.688   2.538   5.283  0.8184  0.2078 -0.2392
  185MOL0     C25439   3.821   2.511   5.268  0.9311  0.1872 -0.3805
  185MOL0     O25440   4.100   2.514   5.176  0.6716  0.0999  1.1085
  185MOL0     C25441   4.229   2.246   5.370  0.6624 -0.8252 -0.6258
  185MOL0     C25442   4.334   2.150   5.373  0.2820  0.4959 -0.4095
  185MOL0     N25443   4.252   1.633   5.044  0.1362  0.7264  0.7914
  185MOL0     N25444   4.142   1.636   4.977  0.4400 -0.3542  0.0543
  185MOL0     C25445   4.871   1.072   4.428  1.3164  0.1055  0.4637
  185MOL0     C25446   4.977   1.018   4.488 -0.5227  0.6844  1.0855
  185MOL0     C25447   5.333   0.924   4.736 -0.2359 -0.3121  0.2638
  185MOL0     C25448   5.298   0.813   4.818  0.1710 -0.0583 -0.3152
  185MOL0     C25449   5.404   0.738   4.880 -0.2142  0.1035  0.0553
  185MOL0     C25450   5.531   0.763   4.840  0.2713  0.4959  0.2587
  185MOL0     O25451   5.631   0.684   4.880  0.5978  0.3488 -0.8461
  185MOL0     C25452   5.687   0.701   5.008 -0.6253  1.7786  0.0646
  185MOL0     C25453   5.599   0.657   5.128 -1.0317  0.0604 -0.9264
  185MOL0     C25454   5.564   0.505   5.141  0.3032  0.7261  0.1688
  185MOL0     C25455   5.676   0.403   5.162 -0.5014 -0.8858  0.3383
  185MOL0     C25456   5.721   0.426   5.302  0.2407  0.8576  0.3617
  185MOL0     C25457   5.757   0.435   5.421  0.8109 -0.1925  1.4382
  185MOL0     C25458   5.564   0.876   4.759  0.2765 -0.3252  0.3591
  185MOL0     C25459   5.466   0.953   4.704  0.0039 -0.2045  0.5885
  185MOL0     C25460   5.522   1.073   4.629  0.0652 -0.5491 -0.3711
  185MOL0     H25461   4.869   0.992   4.804  2.6515  0.6360 -0.0360
  185MOL0     H25462   4.657   1.039   4.693  0.3467 -3.3258  0.7829
  185MOL0     H25463   4.615   1.284   4.581 -1.7125 -0.3102  1.7470
  185MOL0     H25464   4.497   1.148   4.591 -3.8500 -1.5601 -2.1399
  185MOL0     H25465   4.520   1.333   4.355  0.3734 -2.4688 -0.0756
  185MOL0     H25466   4.395   1.224   4.367 -1.6216 -1.1752  2.7812
  185MOL0     H25467   4.298   1.349   4.575  4.8828  0.2786  4.6217
  185MOL0     H25468   4.436   1.454   4.569 -0.6485  1.6106 -0.7262
  185MOL0     H25469   4.369   1.519   4.333 -0.9665 -0.6724 -1.6543
  185MOL0     H25470   4.209   1.442   4.365  1.8427  0.5164 -1.9391
  185MOL0     H25471   4.254   1.702   4.400  0.5382  0.9692  1.3537
  185MOL0     H25472   4.366   1.672   4.512  0.5200 -2.1624  1.4035
  185MOL0     H25473   4.070   1.570   4.508 -2.3213  4.1969  0.3948
  185MOL0     H25474   4.167   1.540   4.649 -0.0405 -1.3020 -0.9364
  185MOL0     H25475   4.080   1.817   4.548  0.4716 -0.9971  0.2157
  185MOL0     H25476   4.223   1.792   4.636  0.4946 -1.1369  1.6226
  185MOL0     H25477   4.030   1.850   4.794 -1.0494  0.0867 -0.4851
  185MOL0     H25478   3.975   1.675   4.779 -0.1823 -1.2534 -2.0471
  185MOL0     H25479   4.343   1.848   4.830 -0.5799  0.2876  0.0385
  185MOL0     H25480   4.551   1.744   4.961 -0.0991 -1.8396 -0.2259
  185MOL0     H25481   4.486   1.665   5.111 -3.3132 -1.6908  0.6649
  185MOL0     H25482   4.456   1.958   5.034 -3.4668  0.0336  1.7677
  185MOL0     H25483   4.397   1.900   5.177 -1.2554 -1.9729 -1.3766
  185MOL0     H25484   4.606   1.834   5.270 -0.1872 -1.2094  0.2618
  185MOL0     H25485   4.695   1.857   5.119 -0.6607  0.8192 -0.9691
  185MOL0     H25486   4.739   2.054   5.260 -0.7887  0.6082  2.5300
  185MOL0     H25487   4.640   2.105   5.129 -2.9189 -1.3983 -0.6053
  185MOL0     H25488   4.529   2.284   5.137 -0.6793  1.2289  0.1620
  185MOL0     H25489   4.335   2.587   5.166 -1.8152 -1.6847  1.7243
  185MOL0     H25490   4.286   2.486   5.022  0.2156  0.2572  0.6292
  185MOL0     H25491   4.461   2.502   5.077  1.0876 -3.2113  1.2820
  185MOL0     H25492   3.922   2.598   5.575 -1.4110 -0.1620  1.0298
  185MOL0     H25493   3.703   2.695   5.587 -1.6938 -2.2836  1.4207
  185MOL0     H25494   3.468   2.684   5.608  0.0309  1.5527  0.6779
  185MOL0     H25495   3.538   2.822   5.523  0.2133 -1.0148 -1.3955
  185MOL0     H25496   3.324   2.826   5.388 -2.2599  1.3186  0.7252
  185MOL0     H25497   3.256   2.726   5.502  0.4616  0.0528 -1.9091
  185MOL0     H25498   3.378   3.007   5.550  0.1780  0.5274  1.6708
  185MOL0     H25499   3.354   2.892   5.679 -2.4724 -4.0650 -0.5266
  185MOL0     H25500   3.098   2.900   5.622  1.0258 -0.4011  1.3753
  185MOL0     H25501   3.136   3.022   5.505 -3.2818 -0.8772  0.7071
  185MOL0     H25502   3.066   3.099   5.746 -0.6596 -2.8822 -0.6972
  185MOL0     H25503   3.216   3.050   5.805  1.1633  2.9008  1.6760
  185MOL0     H25504   3.163   3.241   5.573 -2.5903 -0.1594  0.0294
  185MOL0     H25505   3.322   3.214   5.668 -0.2692 -0.6783  2.5121
  185MOL0     H25506   3.229   3.305   5.873  0.0115  2.0999  1.0460
  185MOL0     H25507   3.071   3.332   5.805 -0.4236 -0.4661  0.0138
  185MOL0     H25508   3.223   3.495   5.641  2.5610 -2.0425 -0.6513
  185MOL0     H25509   3.317   3.487   5.782 -0.4100  0.5234 -1.5187
  185MOL0     H25510   3.630   2.510   5.196  3.1683 -0.8443 -1.5724
  185MOL0     H25511   3.838   2.463   5.171 -4.3593 -1.2010 -0.9021
  185MOL0     H25512   4.144   2.232   5.437  1.1910 -0.9677  0.0262
  185MOL0     H25513   4.330   2.077   5.453 -2.3578 -0.1365 -1.0156
  185MOL0     H25514   4.873   1.101   4.324  1.0414  2.4989  1.0593
  185MOL0     H25515   5.069   1.015   4.429 -0.4815 -1.7689  1.1720
  185MOL0     H25516   5.193   0.801   4.843 -0.4450  0.4948 -2.3478
  185MOL0     H25517   5.386   0.653   4.946  1.0294 -0.5048 -0.3623
  185MOL0     H25518   5.776   0.639   5.016 -1.0047  0.7513 -2.7404
  185MOL0     H25519   5.718   0.805   5.022  2.4795  0.9801 -0.1692
  185MOL0     H25520   5.508   0.716   5.145 -1.6134 -0.4904 -2.0428
  185MOL0     H25521   5.662   0.666   5.217 -0.9697 -0.6924 -0.8881
  185MOL0     H25522   5.493   0.486   5.222 -2.1089 -1.0339 -2.2234
  185MOL0     H25523   5.503   0.475   5.056  1.2276 -1.0558  0.0889
  185MOL0     H25524   5.747   0.426   5.082 -0.3743  0.3962  0.7889
  185MOL0     H25525   5.644   0.300   5.146  1.7968 -1.6321  0.1191
  185MOL0     H25526   5.812   0.431   5.513  2.6716  1.4019  0.4761
  185MOL0     H25527   5.669   0.886   4.735  0.5726  4.1156  2.4461
  185MOL0     H25528   5.480   1.081   4.529 -0.2370 -2.9006 -0.4769
  185MOL0     H25529   5.520   1.171   4.679 -1.4334 -0.3468 -0.7682
  185MOL0     H25530   5.629   1.066   4.608 -0.4043 -0.0815 -3.2119
  186MOL0     O25531   9.813   1.966   4.158  0.0561  0.4650 -0.7476
  186MOL0     C25532   9.780   1.924   4.049 -0.2986 -0.3363  0.9233
  186MOL0     O25533   9.848   1.826   3.980  0.4410 -0.4671  0.3569
  186MOL0     C25534   9.949   1.755   4.049 -0.1433  0.7967  0.3243
  186MOL0     C25535   9.926   1.694   4.176  0.6071 -0.1510  0.1392
  186MOL0     C25536  10.020   1.615   4.232  0.0360  0.6481  0.0189
  186MOL0     C25537  10.142   1.588   4.165  0.5757 -0.2150 -1.0958
  186MOL0     O25538  10.234   1.502   4.225 -0.5190 -0.1676  0.0024
  186MOL0     C25539  10.369   1.503   4.192  0.4779 -0.4051 -0.2607
  186MOL0     C25540  10.459   1.420   4.293  0.8304  1.0463  0.8502
  186MOL0     C25541  10.477   1.497   4.426  0.2314  0.8576  0.8580
  186MOL0     C25542  10.615   1.542   4.469  0.6834 -0.2151 -0.7344
  186MOL0     C25543  10.644   1.685   4.407  0.5008  0.2368 -0.2103
  186MOL0     C25544  10.764   1.745   4.482  0.4273  0.0357  0.2746
  186MOL0     C25545  10.796   1.879   4.429 -0.0849 -1.5440 -0.0712
  186MOL0     C25546  10.932   1.921   4.485 -0.2611 -0.9422  0.6747
  186MOL0     N25547  10.972   2.058   4.435 -0.4279  0.4448 -0.1576
  186MOL0     C25548  10.901   2.174   4.446 -0.5304  1.0158  0.3219
  186MOL0     C25549  10.975   2.281   4.402 -0.3283 -0.7550 -0.7525
  186MOL0     C25550  10.937   2.421   4.404  0.2190  0.2140 -0.7500
  186MOL0     C25551  11.016   2.491   4.509 -0.0932  0.0647  0.8344
  186MOL0     C25552  11.007   2.418   4.648 -0.3569  0.7327 -0.1337
  186MOL0     C25553  11.080   2.496   4.754 -0.1262 -0.4727  0.4361
  186MOL0     O25554  10.984   2.570   4.844  0.8711  0.0324  0.0903
  186MOL0     C25555  11.019   2.684   4.910 -0.0406 -0.1680  0.2615
  186MOL0     C25556  11.148   2.711   4.946 -1.0443 -0.5897  0.7161
  186MOL0     C25557  11.180   2.825   5.011  0.1204  0.5459 -0.2433
  186MOL0     C25558  11.327   2.818   5.066  0.2413 -1.1359  0.0416
  186MOL0     C25559  11.085   2.928   5.038 -0.2992 -0.1785 -0.1484
  186MOL0     C25560  11.122   3.054   5.094 -0.3922  0.3480 -0.0085
  186MOL0     O25561  11.235   3.113   5.047  0.3457  0.0212 -1.0703
  186MOL0     C25562  11.265   3.240   5.102 -0.6852 -0.5377  0.4597
  186MOL0     C25563  11.386   3.263   5.164  0.6392  0.5472  0.5890
  186MOL0     C25564  11.434   3.397   5.209  1.0672  0.4601 -0.4776
  186MOL0     C25565  11.343   3.506   5.204  0.0461 -0.0683  0.1253
  186MOL0     O25566  11.375   3.629   5.259  0.6385  0.5272 -0.2439
  186MOL0     C25567  11.341   3.744   5.175  0.0657 -0.3749  0.3239
  186MOL0     C25568  11.397   3.875   5.224 -1.1505 -0.2479 -0.0463
  186MOL0     C25569  11.355   3.997   5.145  0.3769  0.3287  0.2972
  186MOL0     C25570  11.415   4.123   5.217  0.9445  0.7333 -0.7664
  186MOL0     C25571  11.371   4.244   5.155  0.4744  0.0967  0.6708
  186MOL0     C25572  11.426   4.265   5.011  0.7478 -0.0280 -0.9022
  186MOL0     C25573  11.366   4.395   4.959  0.5567  0.0455  0.7834
  186MOL0     C25574  11.450   4.440   4.831  0.0180 -0.4407  0.1045
  186MOL0    Cl25575  11.369   4.558   4.734 -0.2770 -0.0512 -0.4814
  186MOL0     C25576  11.219   3.479   5.124  0.2812  0.1192 -0.5951
  186MOL0     C25577  11.185   3.355   5.080 -0.9211  0.3061  0.0156
  186MOL0     O25578  11.048   3.102   5.181  0.3923  0.3565 -0.2779
  186MOL0     C25579  10.950   2.892   5.024  0.7736  0.7695 -0.1031
  186MOL0     C25580  10.914   2.778   4.948 -0.4956  0.6445  0.2253
  186MOL0     N25581  11.092   2.226   4.347 -0.1210  0.5535  0.3873
  186MOL0     N25582  11.090   2.100   4.379  0.1376  0.5941 -0.2020
  186MOL0     C25583  10.163   1.647   4.033  0.1144  0.2993 -0.0446
  186MOL0     C25584  10.065   1.723   3.977 -0.6379  0.1897  0.1364
  186MOL0     C25585   9.683   2.002   3.967  0.2682  1.0079 -1.1956
  186MOL0     C25586   9.704   2.136   3.940  0.6363 -0.1484  0.3300
  186MOL0     C25587   9.633   2.206   3.846 -0.0660  0.0383  0.1254
  186MOL0     C25588   9.530   2.141   3.772  0.1801 -0.0028 -0.3039
  186MOL0     O25589   9.451   2.209   3.674 -0.2966  0.4599 -0.3538
  186MOL0     C25590   9.433   2.348   3.669  0.6992 -0.1850  0.5185
  186MOL0     C25591   9.299   2.388   3.597 -0.6276 -0.6519  0.5196
  186MOL0     C25592   9.286   2.308   3.465 -0.6968  0.0917 -0.1466
  186MOL0     C25593   9.184   2.351   3.365  0.4954 -0.3359  0.9327
  186MOL0     C25594   9.176   2.256   3.254  0.3773  0.5121  0.3628
  186MOL0     C25595   9.164   2.176   3.161 -1.2657 -0.0916  0.3348
  186MOL0     C25596   9.509   2.006   3.798  0.2973 -1.1678 -0.2004
  186MOL0     C25597   9.585   1.934   3.892  0.7060 -0.0736 -0.6556
  186MOL0     C25598   9.569   1.792   3.905 -0.0157  0.7249  0.1479
  186MOL0     H25599   9.830   1.695   4.227  0.2483  2.6180 -0.4338
  186MOL0     H25600  10.007   1.583   4.335 -1.8160  2.6353  0.4700
  186MOL0     H25601  10.408   1.605   4.176 -1.5153  0.6791  1.3468
  186MOL0     H25602  10.381   1.450   4.097  1.0229 -2.1765  0.7557
  186MOL0     H25603  10.407   1.324   4.302 -2.6151  2.5963 -0.6010
  186MOL0     H25604  10.559   1.398   4.254  0.3943  0.6989 -0.1125
  186MOL0     H25605  10.416   1.589   4.424  1.3885  1.7370 -3.0149
  186MOL0     H25606  10.450   1.430   4.508  0.2739  1.4946  1.4047
  186MOL0     H25607  10.608   1.549   4.578  0.0289 -3.5029 -0.4772
  186MOL0     H25608  10.689   1.463   4.452 -0.1185 -1.1566  0.0459
  186MOL0     H25609  10.564   1.759   4.414  0.0807  0.0271 -2.0545
  186MOL0     H25610  10.668   1.671   4.301 -0.0275  2.1037 -0.6058
  186MOL0     H25611  10.740   1.754   4.589 -0.4200  2.9576 -0.0670
  186MOL0     H25612  10.838   1.667   4.467 -2.7640 -3.1219 -0.4484
  186MOL0     H25613  10.721   1.953   4.459  0.6589 -0.5344 -0.6439
  186MOL0     H25614  10.800   1.881   4.319  1.4586 -1.4595 -0.0428
  186MOL0     H25615  10.941   1.925   4.594 -1.1901 -1.6930  0.7860
  186MOL0     H25616  11.009   1.850   4.452 -0.8656 -1.1071 -0.4212
  186MOL0     H25617  10.806   2.182   4.499 -0.8545 -1.1423  0.1331
  186MOL0     H25618  10.829   2.429   4.416 -0.4146 -2.6023 -3.5197
  186MOL0     H25619  10.957   2.459   4.303  0.7024  0.8568 -0.4232
  186MOL0     H25620  11.118   2.512   4.475 -1.2794  1.3447 -2.3713
  186MOL0     H25621  10.968   2.587   4.525 -1.3777 -0.0945 -1.6252
  186MOL0     H25622  10.903   2.402   4.679 -0.8686  1.0402 -1.5926
  186MOL0     H25623  11.050   2.318   4.642 -0.4727  0.6650  0.1428
  186MOL0     H25624  11.147   2.436   4.816 -2.0595 -0.6044  2.5089
  186MOL0     H25625  11.145   2.568   4.705  1.3568  1.1765  4.4126
  186MOL0     H25626  11.215   2.627   4.960 -0.1419  0.0847  0.5104
  186MOL0     H25627  11.380   2.732   5.023  2.2364  0.0085  0.1023
  186MOL0     H25628  11.325   2.803   5.174  3.1634  1.1369  0.5376
  186MOL0     H25629  11.374   2.907   5.024  0.3133 -1.5052 -0.6759
  186MOL0     H25630  11.465   3.190   5.182  0.2102 -0.0027  0.2818
  186MOL0     H25631  11.528   3.411   5.261  1.8846  0.5434 -1.9241
  186MOL0     H25632  11.380   3.731   5.073 -0.4172  0.7691 -0.0189
  186MOL0     H25633  11.234   3.757   5.156 -0.3882 -1.7299  1.8261
  186MOL0     H25634  11.366   3.884   5.329  0.6939  0.6248  0.4648
  186MOL0     H25635  11.506   3.867   5.229 -1.0939 -0.9902 -1.8685
  186MOL0     H25636  11.247   4.009   5.153  0.1614 -1.1241 -0.2388
  186MOL0     H25637  11.394   3.985   5.043  2.9430 -3.4159  1.5252
  186MOL0     H25638  11.523   4.120   5.199  1.0736  4.0164 -1.1638
  186MOL0     H25639  11.394   4.107   5.323 -0.8615 -0.1657 -1.2179
  186MOL0     H25640  11.263   4.256   5.167  0.1374 -2.0199  0.2261
  186MOL0     H25641  11.411   4.323   5.219 -1.0072  1.4075  0.0332
  186MOL0     H25642  11.397   4.174   4.959  3.0235 -0.1047 -2.1809
  186MOL0     H25643  11.536   4.261   5.010  0.9551  2.6940  0.7786
  186MOL0     H25644  11.368   4.468   5.041 -0.3492  0.8058  0.1554
  186MOL0     H25645  11.263   4.375   4.927  1.9799 -4.9055 -1.5165
  186MOL0     H25646  11.466   4.350   4.770  0.5715 -0.0959 -0.2709
  186MOL0     H25647  11.546   4.470   4.873 -1.2588  1.9148  1.5404
  186MOL0     H25648  11.154   3.559   5.089  0.4047  0.7830  0.6140
  186MOL0     H25649  11.093   3.344   5.024 -0.2518 -1.6205 -0.7925
  186MOL0     H25650  10.876   2.962   5.063  1.1781  1.1967 -0.0823
  186MOL0     H25651  10.815   2.746   4.918  0.2255 -1.8674  0.2961
  186MOL0     H25652  10.259   1.644   3.981  1.5045 -2.0139  2.4444
  186MOL0     H25653  10.084   1.772   3.882  3.6792 -2.9416 -0.9546
  186MOL0     H25654   9.770   2.192   4.005  0.6328  0.2402 -0.0017
  186MOL0     H25655   9.648   2.312   3.829  1.8236 -0.3785 -1.1155
  186MOL0     H25656   9.430   2.395   3.768 -4.1971 -0.1575  0.5956
  186MOL0     H25657   9.513   2.398   3.613  1.6479 -0.7805  1.3147
  186MOL0     H25658   9.297   2.495   3.576 -5.0732  0.2095  3.7303
  186MOL0     H25659   9.207   2.369   3.654  1.2352 -3.7964  2.8045
  186MOL0     H25660   9.377   2.334   3.410 -1.1414  2.1461  0.0360
  186MOL0     H25661   9.277   2.199   3.474  1.1125 -0.3711 -2.8432
  186MOL0     H25662   9.204   2.456   3.343  0.7532 -0.8094 -1.3151
  186MOL0     H25663   9.086   2.348   3.413  0.8911 -0.6785  1.7308
  186MOL0     H25664   9.159   2.107   3.079  1.1926 -1.9717  1.6142
  186MOL0     H25665   9.426   1.956   3.750 -1.9559 -0.6840  2.8459
  186MOL0     H25666   9.646   1.741   3.847 -0.6802  0.7543 -0.7800
  186MOL0     H25667   9.573   1.769   4.012 -1.6215 -0.2481  0.0285
  186MOL0     H25668   9.478   1.744   3.868  0.3108 -3.0846  3.6205
  187MOL0     O25669   6.144   3.940   3.917  0.1750  0.4159 -0.3859
  187MOL0     C25670   6.102   3.976   3.806 -0.9571 -0.6743 -0.0547
  187MOL0     O25671   6.106   4.114   3.770  0.4210  0.6522 -0.1426
  187MOL0     C25672   6.076   4.213   3.863 -0.4038 -0.3000 -0.0301
  187MOL0     C25673   6.028   4.191   4.000 -0.3831  0.2123  0.8270
  187MOL0     C25674   6.039   4.305   4.083 -0.0292 -0.3515 -0.9916
  187MOL0     C25675   6.091   4.432   4.045 -0.0606 -0.6357 -0.2330
  187MOL0     O25676   6.113   4.535   4.133  0.0322 -0.0466  0.2830
  187MOL0     C25677   6.149   4.667   4.091  0.2726  1.0788  0.8146
  187MOL0     C25678   6.031   4.741   4.026  0.4993 -0.6729  0.7210
  187MOL0     C25679   6.029   4.892   4.077  0.9193 -0.6173 -0.0458
  187MOL0     C25680   5.934   4.974   3.985 -0.3854 -0.3284 -0.5886
  187MOL0     C25681   5.873   5.100   4.046  0.1663 -0.2044 -0.0558
  187MOL0     C25682   5.818   5.093   4.185  0.4309  0.1261  0.1346
  187MOL0     C25683   5.716   4.993   4.219 -0.4532  0.7050 -1.1160
  187MOL0     C25684   5.576   5.060   4.240 -0.6664 -0.0652  0.2865
  187MOL0     N25685   5.577   5.126   4.373 -0.0114  0.3938 -0.1204
  187MOL0     C25686   5.604   5.076   4.503 -0.6040  0.1037  0.4107
  187MOL0     C25687   5.601   5.188   4.577  0.0122 -0.1762 -0.3798
  187MOL0     C25688   5.656   5.185   4.716  0.4621  0.2686  1.1296
  187MOL0     C25689   5.612   5.302   4.806  0.2628  1.1447  0.4959
  187MOL0     C25690   5.516   5.252   4.916 -0.2317  0.1292  0.5257
  187MOL0     C25691   5.447   5.371   4.971 -0.3008 -0.0479  0.3674
  187MOL0     O25692   5.544   5.469   5.016  0.3973 -0.4033  0.4656
  187MOL0     C25693   5.604   5.457   5.132  0.3440 -0.4370 -0.6681
  187MOL0     C25694   5.558   5.375   5.239 -0.1066  0.3236 -0.6782
  187MOL0     C25695   5.626   5.364   5.366 -0.1473  0.4778 -0.3460
  187MOL0     C25696   5.567   5.265   5.469 -1.2486  0.7166  0.4764
  187MOL0     C25697   5.752   5.436   5.379 -0.0004  0.1629  0.1893
  187MOL0     C25698   5.849   5.415   5.486 -0.0952  0.2141  1.2506
  187MOL0     O25699   5.985   5.441   5.459  0.2020  0.0496 -0.1376
  187MOL0     C25700   6.092   5.410   5.539  1.0116 -0.2028 -1.5828
  187MOL0     C25701   6.214   5.478   5.510 -0.1778 -1.3201 -0.4921
  187MOL0     C25702   6.328   5.466   5.594  0.4925  0.3661 -1.3915
  187MOL0     C25703   6.327   5.381   5.708  0.0723  0.7464  0.1413
  187MOL0     O25704   6.441   5.377   5.781 -0.2202  1.0166 -1.1855
  187MOL0     C25705   6.436   5.355   5.921  0.6901  0.8254 -0.5577
  187MOL0     C25706   6.576   5.371   5.979  0.1344 -0.0471  0.1858
  187MOL0     C25707   6.599   5.312   6.113  1.1004 -0.5170  0.6335
  187MOL0     C25708   6.530   5.398   6.218 -0.2855 -0.4574 -0.2995
  187MOL0     C25709   6.527   5.321   6.348  0.9133 -0.6438 -0.4220
  187MOL0     C25710   6.469   5.395   6.459  0.2466 -0.5181 -1.1488
  187MOL0     C25711   6.437   5.308   6.576  0.1852 -0.2529  0.1146
  187MOL0     C25712   6.289   5.267   6.580  0.5468 -0.3210  0.7658
  187MOL0    Cl25713   6.209   5.190   6.443  0.1800 -0.7237  0.0534
  187MOL0     C25714   6.207   5.310   5.736  1.1342 -0.5226 -0.1275
  187MOL0     C25715   6.096   5.326   5.648  0.2475  0.2367  0.0248
  187MOL0     O25716   5.809   5.383   5.594  0.2815  0.8554 -0.6564
  187MOL0     C25717   5.794   5.519   5.268 -0.9680  0.1382 -0.6890
  187MOL0     C25718   5.715   5.529   5.153 -0.3874  0.4659 -0.7553
  187MOL0     N25719   5.546   5.291   4.509  0.7616  0.1617 -0.3146
  187MOL0     N25720   5.540   5.255   4.384  0.2235  0.0944  0.0586
  187MOL0     C25721   6.135   4.442   3.912  0.2703  0.5810  0.3698
  187MOL0     C25722   6.128   4.334   3.827 -0.1919 -0.6726  0.0862
  187MOL0     C25723   6.087   3.887   3.686 -0.8735  0.5944  0.3581
  187MOL0     C25724   6.069   3.949   3.562  0.4998  0.2670 -0.1109
  187MOL0     C25725   6.051   3.869   3.446  0.2156  0.4479 -0.0740
  187MOL0     C25726   6.022   3.733   3.458 -0.1666 -0.3418  0.3154
  187MOL0     O25727   5.970   3.674   3.341  0.0456  0.3858  0.7499
  187MOL0     C25728   5.998   3.543   3.300  0.7237  0.3476  0.4933
  187MOL0     C25729   5.959   3.523   3.148 -0.1796 -0.0136  0.8311
  187MOL0     C25730   5.986   3.645   3.057  0.3607 -0.3719 -1.1474
  187MOL0     C25731   5.996   3.609   2.910  0.7733  0.0188 -0.0229
  187MOL0     C25732   5.866   3.537   2.881 -0.0309  0.3262  1.0821
  187MOL0     C25733   5.771   3.468   2.863  0.7109 -0.2733  0.3849
  187MOL0     C25734   6.011   3.674   3.581 -0.4248  0.1674 -0.2714
  187MOL0     C25735   6.049   3.743   3.700 -0.2425 -0.2464  0.1238
  187MOL0     C25736   6.031   3.672   3.831  0.2332  1.0569  0.0601
  187MOL0     H25737   5.987   4.097   4.035  0.1355 -1.9463 -3.6332
  187MOL0     H25738   5.999   4.310   4.184 -1.5766  1.5136 -1.6279
  187MOL0     H25739   6.238   4.673   4.028  0.4120  0.7226  0.9734
  187MOL0     H25740   6.180   4.724   4.178  0.9975  0.2934  1.0832
  187MOL0     H25741   6.038   4.726   3.918 -0.4109 -2.5230  0.8721
  187MOL0     H25742   5.938   4.692   4.056 -0.1527 -1.7434 -2.6364
  187MOL0     H25743   6.004   4.888   4.183  0.2552 -0.4734 -0.1899
  187MOL0     H25744   6.126   4.942   4.072 -0.0602  1.4258  0.2502
  187MOL0     H25745   5.979   4.992   3.887  0.9274  0.6329  0.1427
  187MOL0     H25746   5.850   4.909   3.959 -3.7636  2.8367  1.4380
  187MOL0     H25747   5.789   5.143   3.990  1.8278  2.2853 -0.8227
  187MOL0     H25748   5.939   5.186   4.032 -0.5613 -0.0064 -3.0643
  187MOL0     H25749   5.910   5.067   4.238  0.5727 -1.7213 -0.9346
  187MOL0     H25750   5.787   5.187   4.233  1.1117  0.0024  0.8326
  187MOL0     H25751   5.747   4.942   4.311  1.0664  1.2748 -1.2963
  187MOL0     H25752   5.702   4.910   4.148  1.0218 -0.4730 -0.1039
  187MOL0     H25753   5.554   5.135   4.164 -1.1064  1.5777  1.9481
  187MOL0     H25754   5.497   4.986   4.231  0.6220 -1.1710 -4.3387
  187MOL0     H25755   5.641   4.981   4.539 -0.2038 -0.2465 -0.8959
  187MOL0     H25756   5.764   5.186   4.703  0.3178 -0.7669 -0.4037
  187MOL0     H25757   5.622   5.091   4.762 -0.2412 -0.5323 -0.9274
  187MOL0     H25758   5.705   5.337   4.851  2.2831 -2.9234  0.0007
  187MOL0     H25759   5.575   5.385   4.745 -0.7376 -0.5661 -1.3500
  187MOL0     H25760   5.432   5.196   4.874  0.1214  0.2381 -0.3449
  187MOL0     H25761   5.575   5.195   4.989 -0.3404  0.3367  0.7750
  187MOL0     H25762   5.375   5.407   4.896 -0.7998 -1.8459 -0.0595
  187MOL0     H25763   5.376   5.353   5.053  1.6364  1.4111  2.4992
  187MOL0     H25764   5.478   5.304   5.222 -1.5581  2.2834 -2.4436
  187MOL0     H25765   5.641   5.201   5.518 -0.8227 -0.5588 -1.6893
  187MOL0     H25766   5.508   5.191   5.414  1.0175 -0.3998 -0.5962
  187MOL0     H25767   5.501   5.314   5.541 -1.9258  0.9441 -0.2864
  187MOL0     H25768   6.222   5.543   5.424  0.6218 -2.1488 -1.0490
  187MOL0     H25769   6.415   5.520   5.558  1.3786  2.6203  3.3693
  187MOL0     H25770   6.372   5.430   5.969  1.5085  1.0400  0.2169
  187MOL0     H25771   6.395   5.255   5.938  2.2284  0.1213 -0.8795
  187MOL0     H25772   6.651   5.323   5.914 -0.0288 -1.6369  1.1262
  187MOL0     H25773   6.608   5.475   5.970 -1.6979  0.3608 -3.1034
  187MOL0     H25774   6.704   5.294   6.140  1.8317  0.4727 -1.3540
  187MOL0     H25775   6.547   5.216   6.108  1.1131 -0.5686  1.3107
  187MOL0     H25776   6.431   5.414   6.173  0.2663  0.4290 -1.2442
  187MOL0     H25777   6.571   5.499   6.231  1.5882 -1.3326  0.9374
  187MOL0     H25778   6.460   5.237   6.328 -2.2510  1.4213  0.6689
  187MOL0     H25779   6.623   5.279   6.378  1.4281 -0.1067 -1.2902
  187MOL0     H25780   6.380   5.454   6.437 -0.8713 -1.5769  0.2826
  187MOL0     H25781   6.550   5.461   6.491 -0.1336 -0.0583 -1.1317
  187MOL0     H25782   6.462   5.367   6.665  5.0088 -1.3668 -0.2041
  187MOL0     H25783   6.491   5.212   6.574 -1.2560 -1.0937 -2.2094
  187MOL0     H25784   6.235   5.361   6.596 -1.9667 -1.3423 -1.1910
  187MOL0     H25785   6.276   5.198   6.664 -0.4342 -1.3118 -0.1605
  187MOL0     H25786   6.190   5.253   5.826  1.0415  1.6898  1.3279
  187MOL0     H25787   6.016   5.252   5.647 -1.6357  2.1278  1.9880
  187MOL0     H25788   5.885   5.578   5.259 -1.4878  0.6189 -3.5826
  187MOL0     H25789   5.736   5.608   5.080 -0.5747  2.7333  1.5137
  187MOL0     H25790   6.174   4.529   3.859 -2.9822  2.8985  1.4605
  187MOL0     H25791   6.170   4.332   3.727 -0.0032 -1.8715  0.1667
  187MOL0     H25792   6.079   4.057   3.561  2.0869  0.2470  2.5846
  187MOL0     H25793   6.025   3.903   3.347 -4.9456 -2.5774 -0.1635
  187MOL0     H25794   6.105   3.525   3.317  0.1369 -2.3699  1.7519
  187MOL0     H25795   5.945   3.465   3.355  0.0084  1.2287  1.0684
  187MOL0     H25796   5.859   3.480   3.142  0.4147 -1.2828 -0.7684
  187MOL0     H25797   6.028   3.442   3.122 -0.9705 -1.0640  1.8975
  187MOL0     H25798   5.908   3.716   3.083  0.5298 -0.8153  0.6944
  187MOL0     H25799   6.079   3.696   3.082  0.4025 -0.3831 -1.2745
  187MOL0     H25800   6.073   3.538   2.880 -0.2184 -1.0119 -0.1845
  187MOL0     H25801   6.011   3.709   2.867  1.0256  0.7253  1.6379
  187MOL0     H25802   5.699   3.389   2.872  0.0647  0.3357  0.7693
  187MOL0     H25803   5.963   3.576   3.587 -0.3975  0.0217 -1.8245
  187MOL0     H25804   6.127   3.646   3.876  0.7150 -0.0451 -1.5356
  187MOL0     H25805   5.970   3.726   3.905 -0.9059  1.2275 -0.9737
  187MOL0     H25806   5.980   3.579   3.806  0.5164  0.5429  1.3053
  188MOL0     O25807   5.435   8.757   5.328  0.3480 -0.8135  0.0253
  188MOL0     C25808   5.333   8.704   5.374  0.0935 -0.3226 -0.3056
  188MOL0     O25809   5.209   8.762   5.389 -0.6036 -0.3719 -0.1326
  188MOL0     C25810   5.192   8.899   5.400  0.4514 -0.7115  0.1491
  188MOL0     C25811   5.139   8.955   5.519 -0.7926  0.0806 -0.1607
  188MOL0     C25812   5.125   9.100   5.530 -0.0794 -0.1886  0.2930
  188MOL0     C25813   5.150   9.177   5.415  0.5835 -0.7077 -0.0607
  188MOL0     O25814   5.141   9.314   5.432  0.4140 -0.3549  0.3983
  188MOL0     C25815   5.119   9.396   5.320 -0.2081 -0.9512  0.2577
  188MOL0     C25816   5.156   9.548   5.359  0.6618  0.5739 -0.2513
  188MOL0     C25817   5.116   9.646   5.249  0.8233 -0.5455  0.4439
  188MOL0     C25818   5.195   9.786   5.266 -0.7104  0.2643  0.9239
  188MOL0     C25819   5.123   9.899   5.209  0.4403 -0.7862 -0.4958
  188MOL0     C25820   5.124   9.906   5.056 -0.6844  0.8734  0.3579
  188MOL0     C25821   5.010   9.830   4.989  0.0981  0.4692  0.5354
  188MOL0     C25822   5.021   9.838   4.841  0.8756  0.4037 -0.1301
  188MOL0     N25823   4.990   9.964   4.769  0.6502 -0.2960 -0.4423
  188MOL0     C25824   4.910  10.064   4.823  0.7420  1.1583 -0.4620
  188MOL0     C25825   4.904  10.149   4.714  0.2630 -0.0353 -0.8549
  188MOL0     C25826   4.838  10.288   4.720 -0.3627 -0.0453  0.2251
  188MOL0     C25827   4.698  10.293   4.672  1.2176  0.8139  0.1228
  188MOL0     C25828   4.601  10.199   4.764 -0.1627 -0.1354 -0.7616
  188MOL0     C25829   4.463  10.191   4.695  1.0008  1.0439 -1.5637
  188MOL0     O25830   4.465  10.115   4.576  0.5894 -0.5823 -0.2829
  188MOL0     C25831   4.415   9.990   4.570 -0.1245  0.1507  0.2977
  188MOL0     C25832   4.292   9.950   4.626  0.9913 -0.1738  0.0749
  188MOL0     C25833   4.242   9.818   4.584 -0.5653  0.4229  0.3091
  188MOL0     C25834   4.095   9.792   4.622  0.1904 -0.1441 -0.4731
  188MOL0     C25835   4.333   9.717   4.520  0.0255 -1.3711 -0.9508
  188MOL0     C25836   4.293   9.581   4.494  0.4482 -0.5039 -0.2063
  188MOL0     O25837   4.179   9.539   4.545  1.1070  0.2977  0.2697
  188MOL0     C25838   4.134   9.417   4.502 -0.3192  0.5839 -1.1432
  188MOL0     C25839   4.046   9.410   4.389 -0.5650 -0.2576  0.2287
  188MOL0     C25840   4.019   9.293   4.334  0.4150  0.6405  0.0686
  188MOL0     C25841   4.058   9.163   4.379 -0.8842 -0.2650  0.8562
  188MOL0     O25842   4.052   9.044   4.320  0.2265  0.0432  0.4296
  188MOL0     C25843   3.954   9.026   4.215 -0.3537  0.8974 -0.0361
  188MOL0     C25844   3.969   8.879   4.162 -0.0464 -0.0092 -0.8012
  188MOL0     C25845   3.973   8.774   4.280  0.0955  0.4880 -0.7163
  188MOL0     C25846   3.977   8.628   4.235 -0.0318  0.1209  0.0519
  188MOL0     C25847   3.934   8.540   4.348  1.3953  1.1381 -0.2746
  188MOL0     C25848   3.889   8.395   4.287  0.9741 -0.5274 -1.2054
  188MOL0     C25849   3.813   8.318   4.395 -0.7331 -1.1339  0.4116
  188MOL0     C25850   3.789   8.185   4.327 -0.3266  0.4692 -0.0507
  188MOL0    Cl25851   3.671   8.192   4.175  0.6269 -0.5707  0.6018
  188MOL0     C25852   4.142   9.174   4.493  0.0463 -0.2435  0.8620
  188MOL0     C25853   4.184   9.298   4.554  0.5165  1.0437 -0.9179
  188MOL0     O25854   4.367   9.512   4.418 -0.2871 -0.5179 -1.5518
  188MOL0     C25855   4.459   9.767   4.488  0.4840 -0.1423 -0.2745
  188MOL0     C25856   4.496   9.902   4.505  0.0910  0.0221  0.1344
  188MOL0     N25857   4.969  10.100   4.605  0.1340 -0.1470 -0.5194
  188MOL0     N25858   5.019   9.982   4.637 -1.1893 -0.8155 -0.0290
  188MOL0     C25859   5.188   9.107   5.291 -0.4042 -0.5171 -0.8417
  188MOL0     C25860   5.214   8.975   5.290 -0.3641  0.0229 -0.1154
  188MOL0     C25861   5.361   8.560   5.404 -0.6788 -0.0877 -0.7680
  188MOL0     C25862   5.333   8.465   5.305 -0.1663  0.1043  0.5268
  188MOL0     C25863   5.376   8.332   5.319  0.7926 -0.4132 -0.2992
  188MOL0     C25864   5.438   8.293   5.434 -0.4085  0.2481 -0.7734
  188MOL0     O25865   5.443   8.155   5.441  0.0218 -0.4427 -0.3841
  188MOL0     C25866   5.540   8.088   5.518 -0.5611  0.7485  0.0139
  188MOL0     C25867   5.675   8.094   5.431  0.1924  0.8907  0.2968
  188MOL0     C25868   5.807   8.037   5.491 -0.5628 -0.6046  1.1454
  188MOL0     C25869   5.887   7.966   5.381 -0.2868 -0.9475 -0.0430
  188MOL0     C25870   5.835   7.832   5.345 -0.3733  0.4326  0.6294
  188MOL0     C25871   5.785   7.723   5.315 -0.6546 -0.5560 -0.1632
  188MOL0     C25872   5.459   8.385   5.538 -0.8714  0.1259  0.0252
  188MOL0     C25873   5.438   8.524   5.520  0.3942  0.3068  0.0717
  188MOL0     C25874   5.482   8.612   5.634 -1.1800  0.3117  0.5804
  188MOL0     H25875   5.109   8.907   5.612 -1.6916 -0.3959 -0.6758
  188MOL0     H25876   5.086   9.149   5.618 -0.1139  2.0311 -0.8798
  188MOL0     H25877   5.013   9.385   5.293 -0.0078 -1.1557 -0.4764
  188MOL0     H25878   5.184   9.363   5.238  1.3852 -1.4779  1.6795
  188MOL0     H25879   5.100   9.568   5.451  1.0040 -0.3495  0.1640
  188MOL0     H25880   5.260   9.557   5.390  0.0828 -0.2571  2.1331
  188MOL0     H25881   5.119   9.605   5.147  0.2836 -1.4198  0.7695
  188MOL0     H25882   5.012   9.673   5.268  0.1082 -2.3209 -0.6770
  188MOL0     H25883   5.199   9.821   5.369  2.5218  4.2141 -0.2520
  188MOL0     H25884   5.296   9.784   5.224 -0.5918  0.7353  1.1780
  188MOL0     H25885   5.156   9.994   5.254  0.0427 -1.0676  0.4105
  188MOL0     H25886   5.016   9.912   5.227  1.0871  3.1607  1.7879
  188MOL0     H25887   5.113  10.010   5.023  0.4234  1.1593  0.8274
  188MOL0     H25888   5.220   9.868   5.022  0.0471  2.8437  0.0521
  188MOL0     H25889   4.911   9.868   5.013  0.5310  2.3143 -0.4264
  188MOL0     H25890   5.016   9.725   5.019 -2.6508  0.5311  1.5206
  188MOL0     H25891   5.127   9.818   4.820  0.8734 -2.4304  1.9734
  188MOL0     H25892   4.979   9.751   4.791  0.7000 -0.0282  0.7541
  188MOL0     H25893   4.879  10.068   4.927  2.4850  1.0502  0.0910
  188MOL0     H25894   4.889  10.362   4.658  1.8462 -1.5394  0.1296
  188MOL0     H25895   4.827  10.328   4.822  1.1212  3.3496 -0.7791
  188MOL0     H25896   4.659  10.395   4.669 -2.6087 -0.3246  2.8476
  188MOL0     H25897   4.710  10.267   4.567  2.1007 -0.8019  0.5880
  188MOL0     H25898   4.652  10.102   4.764 -1.2087 -0.8162 -3.8850
  188MOL0     H25899   4.592  10.228   4.869  0.9448  1.9341 -1.1849
  188MOL0     H25900   4.402  10.144   4.773  0.8244  1.6438 -1.3362
  188MOL0     H25901   4.423  10.290   4.672  2.0209  1.8877  0.1089
  188MOL0     H25902   4.230  10.017   4.685  0.9679 -2.1715  2.4922
  188MOL0     H25903   4.038   9.766   4.532 -2.4305  3.1858 -0.0127
  188MOL0     H25904   4.059   9.882   4.674 -3.0873 -0.1459 -2.4420
  188MOL0     H25905   4.093   9.712   4.697 -3.8193  2.1011  2.2294
  188MOL0     H25906   4.009   9.508   4.360 -2.8070 -0.0852  3.1546
  188MOL0     H25907   3.960   9.300   4.243  0.9549 -1.6002 -0.5305
  188MOL0     H25908   3.851   9.045   4.244 -0.8679 -2.2829  0.6445
  188MOL0     H25909   3.972   9.093   4.131 -2.6953  1.2872 -0.2687
  188MOL0     H25910   3.882   8.861   4.100  0.7078 -1.8055 -1.3977
  188MOL0     H25911   4.059   8.880   4.100  0.5725 -1.4764  0.0166
  188MOL0     H25912   3.888   8.794   4.346  0.1476  1.6484 -0.9850
  188MOL0     H25913   4.061   8.784   4.344 -0.5735 -0.7796  0.4736
  188MOL0     H25914   4.074   8.588   4.205 -1.2435 -3.0457  0.0317
  188MOL0     H25915   3.907   8.617   4.152  0.6893  2.1940 -0.9129
  188MOL0     H25916   4.013   8.527   4.422  2.6438 -1.9034 -1.9747
  188MOL0     H25917   3.838   8.578   4.385  0.9045  1.1022 -1.4639
  188MOL0     H25918   3.985   8.348   4.261  1.0409 -0.1681 -1.6209
  188MOL0     H25919   3.831   8.393   4.195 -0.3128 -1.3890 -0.4083
  188MOL0     H25920   3.721   8.371   4.421 -0.1207  0.0553  0.2323
  188MOL0     H25921   3.882   8.308   4.480  0.0300 -0.8745 -0.1668
  188MOL0     H25922   3.748   8.119   4.404 -3.4710  0.6083 -1.4535
  188MOL0     H25923   3.882   8.143   4.288  1.2832  1.2192  2.6837
  188MOL0     H25924   4.186   9.084   4.536 -1.1504 -0.1342  2.4402
  188MOL0     H25925   4.252   9.301   4.639 -3.5078 -2.7887  2.9120
  188MOL0     H25926   4.533   9.707   4.437  1.8563 -1.1078  2.6694
  188MOL0     H25927   4.589   9.921   4.451  0.8409 -1.9621  0.6304
  188MOL0     H25928   5.197   9.169   5.203  0.4040  2.4585  1.1607
  188MOL0     H25929   5.253   8.931   5.199 -1.5299  1.6450 -1.4489
  188MOL0     H25930   5.286   8.496   5.212 -2.5426  1.5388  2.0832
  188MOL0     H25931   5.354   8.256   5.245 -0.2471 -1.8307  1.4069
  188MOL0     H25932   5.549   8.128   5.620 -2.5901 -1.7675  1.2851
  188MOL0     H25933   5.517   7.985   5.547 -1.7380  0.0708 -3.0525
  188MOL0     H25934   5.701   8.197   5.407  0.5810  1.1544  1.7248
  188MOL0     H25935   5.648   8.037   5.341  1.4048  1.5655 -0.5131
  188MOL0     H25936   5.871   8.118   5.527 -1.8226 -0.3326  2.9757
  188MOL0     H25937   5.795   7.965   5.573 -2.2370 -0.2622  1.2485
  188MOL0     H25938   5.989   7.964   5.421  1.4018  4.2691 -3.0448
  188MOL0     H25939   5.899   8.034   5.295  1.2521  0.3868  1.1425
  188MOL0     H25940   5.760   7.631   5.267 -0.6714 -0.6963  0.1147
  188MOL0     H25941   5.491   8.349   5.635  0.9030 -0.2865 -0.6618
  188MOL0     H25942   5.398   8.611   5.704 -1.0283 -1.7547  0.7791
  188MOL0     H25943   5.569   8.591   5.697 -1.3162 -0.7939  0.4084
  188MOL0     H25944   5.494   8.717   5.604  0.3100  0.9534  3.1283
  189MOL0     O25945   6.726   0.949   9.618  0.2012 -0.8499  0.1035
  189MOL0     C25946   6.642   1.032   9.607  0.2831  0.0332  0.4071
  189MOL0     O25947   6.544   1.062   9.692 -0.6414 -0.0931 -0.2058
  189MOL0     C25948   6.530   0.969   9.794 -0.6691 -0.4163  0.1275
  189MOL0     C25949   6.470   0.847   9.781 -0.0559 -0.2747  0.6579
  189MOL0     C25950   6.431   0.759   9.883 -0.1110 -0.1828  0.0338
  189MOL0     C25951   6.438   0.809  10.011  0.5152  0.4931  0.7893
  189MOL0     O25952   6.360   0.731  10.097  0.0716  0.6758  0.5986
  189MOL0     C25953   6.295   0.774  10.221  0.1969  0.4614  0.2017
  189MOL0     C25954   6.197   0.669  10.264  0.0635 -0.4446  0.1773
  189MOL0     C25955   6.067   0.669  10.171 -0.0049 -0.2004  0.9186
  189MOL0     C25956   5.984   0.536  10.179 -0.4057 -1.3273  0.9169
  189MOL0     C25957   5.859   0.543  10.083  0.4937 -0.0554  1.3252
  189MOL0     C25958   5.893   0.530   9.932 -0.2179 -0.1498 -1.2167
  189MOL0     C25959   5.758   0.535   9.856  1.3818  0.0533  0.3543
  189MOL0     C25960   5.720   0.675   9.830  0.2066 -0.1772  0.9207
  189MOL0     N25961   5.576   0.689   9.791  0.0271 -0.0277 -0.0801
  189MOL0     C25962   5.536   0.646   9.669 -0.6137  0.7380 -0.2085
  189MOL0     C25963   5.409   0.692   9.656  0.9041  0.6807  0.4724
  189MOL0     C25964   5.329   0.658   9.537  0.1466 -0.4242  0.8606
  189MOL0     C25965   5.252   0.774   9.468 -0.2947 -0.9803 -0.1374
  189MOL0     C25966   5.356   0.884   9.416 -0.2878 -0.1280 -0.2834
  189MOL0     C25967   5.262   0.988   9.363  0.2548 -0.4257 -0.3708
  189MOL0     O25968   5.344   1.057   9.272 -0.2641 -1.2003  0.5258
  189MOL0     C25969   5.331   1.180   9.224 -0.2185 -0.0640 -0.2124
  189MOL0     C25970   5.291   1.281   9.302 -1.0767  0.4340 -0.3304
  189MOL0     C25971   5.302   1.417   9.256  0.1798  0.7993  0.9068
  189MOL0     C25972   5.293   1.507   9.368 -0.1979  0.1948  0.4527
  189MOL0     C25973   5.327   1.443   9.118 -0.0604 -0.4689 -0.5957
  189MOL0     C25974   5.321   1.572   9.053 -0.0040  0.3470  0.2002
  189MOL0     O25975   5.411   1.601   8.959  0.1668 -0.3624 -0.0915
  189MOL0     C25976   5.419   1.734   8.924  0.1744  0.2675 -0.4480
  189MOL0     C25977   5.317   1.793   8.843 -0.2760  0.6773 -0.2056
  189MOL0     C25978   5.329   1.924   8.812  0.2442 -0.7208  0.2332
  189MOL0     C25979   5.434   2.005   8.858  0.2391 -0.4957 -0.2229
  189MOL0     O25980   5.441   2.142   8.826 -0.5795  0.7130  0.2730
  189MOL0     C25981   5.322   2.222   8.804  0.5544  0.5743  0.6292
  189MOL0     C25982   5.355   2.368   8.813  0.3100 -0.9367  0.3671
  189MOL0     C25983   5.442   2.414   8.937  0.1091 -0.5072  0.2848
  189MOL0     C25984   5.407   2.546   9.000  0.0626 -0.1487 -0.1168
  189MOL0     C25985   5.490   2.557   9.120 -0.7810  0.4695 -0.3407
  189MOL0     C25986   5.507   2.696   9.168 -0.4896 -0.8183  0.5577
  189MOL0     C25987   5.616   2.721   9.275 -0.7187  0.5122 -0.4911
  189MOL0     C25988   5.572   2.844   9.360 -0.8312  0.0733 -0.3244
  189MOL0    Cl25989   5.576   3.006   9.271  0.1480  0.3027 -0.2183
  189MOL0     C25990   5.529   1.947   8.943  0.0598  1.0274  0.0264
  189MOL0     C25991   5.519   1.809   8.984  0.9694 -0.1606 -0.1011
  189MOL0     O25992   5.244   1.650   9.105  0.0706 -0.3313  0.4004
  189MOL0     C25993   5.370   1.334   9.040 -0.8937  0.5469 -0.4821
  189MOL0     C25994   5.372   1.204   9.092 -0.1247 -0.3204 -1.5870
  189MOL0     N25995   5.373   0.758   9.776 -0.4086  0.3487  0.3013
  189MOL0     N25996   5.474   0.758   9.856 -0.2267  0.0888  0.1057
  189MOL0     C25997   6.512   0.925  10.031 -0.3529  1.0972  0.2727
  189MOL0     C25998   6.556   1.004   9.924  0.1028 -0.3079 -0.1696
  189MOL0     C25999   6.660   1.122   9.492  0.0039  0.0360 -1.0626
  189MOL0     C26000   6.688   1.259   9.519  0.2139 -0.6340 -0.9391
  189MOL0     C26001   6.729   1.341   9.420 -0.3598 -0.5360  0.9349
  189MOL0     C26002   6.752   1.296   9.284  0.1668  0.4761 -0.6988
  189MOL0     O26003   6.787   1.371   9.177 -0.2213  0.3436 -0.6427
  189MOL0     C26004   6.807   1.512   9.204 -0.5539  0.6802 -0.4254
  189MOL0     C26005   6.853   1.585   9.078  0.6849 -0.6233 -0.6128
  189MOL0     C26006   6.727   1.616   8.993  0.0616  0.3658  0.7794
  189MOL0     C26007   6.758   1.693   8.868  0.3173 -0.4143  0.9291
  189MOL0     C26008   6.647   1.775   8.820 -0.9404 -0.7682 -0.0769
  189MOL0     C26009   6.568   1.857   8.786  0.2077  0.9654 -0.1884
  189MOL0     C26010   6.717   1.161   9.255  0.0715 -0.0694 -0.4047
  189MOL0     C26011   6.673   1.074   9.357  0.2785  0.7163 -0.3123
  189MOL0     C26012   6.636   0.937   9.322  0.3341 -0.1409  0.1563
  189MOL0     H26013   6.435   0.827   9.680 -1.3046 -2.3920  1.4346
  189MOL0     H26014   6.370   0.673   9.859 -0.1224  0.2211 -1.4954
  189MOL0     H26015   6.249   0.873  10.206 -2.6429 -0.9122 -0.9266
  189MOL0     H26016   6.370   0.785  10.300 -0.9800 -2.1170  1.8325
  189MOL0     H26017   6.240   0.568  10.266  0.0190 -0.6037  5.0913
  189MOL0     H26018   6.161   0.689  10.365 -2.1194  2.5185 -1.0372
  189MOL0     H26019   6.014   0.764  10.183 -2.0207 -1.4782  2.8724
  189MOL0     H26020   6.103   0.682  10.069 -1.8471  0.4474  0.3107
  189MOL0     H26021   6.049   0.454  10.147  3.2127  1.5350  0.3258
  189MOL0     H26022   5.958   0.521  10.284  2.7624 -0.9396  1.8507
  189MOL0     H26023   5.782   0.617  10.104 -0.1311  0.1829 -1.4198
  189MOL0     H26024   5.802   0.452  10.102  1.0682 -1.6139 -3.0565
  189MOL0     H26025   5.963   0.610   9.910  2.1021 -2.2641 -1.9243
  189MOL0     H26026   5.944   0.436   9.911 -0.3840 -0.3519 -0.7454
  189MOL0     H26027   5.680   0.469   9.895  0.7822 -0.2569 -1.2676
  189MOL0     H26028   5.774   0.507   9.751  0.2475  3.5178 -0.9016
  189MOL0     H26029   5.732   0.737   9.919  1.7997 -1.7824  1.9026
  189MOL0     H26030   5.778   0.705   9.743 -2.9284 -1.8228 -2.0108
  189MOL0     H26031   5.593   0.592   9.595  0.6180  1.6031  0.0831
  189MOL0     H26032   5.241   0.596   9.557  0.5839 -0.8591  1.4802
  189MOL0     H26033   5.397   0.611   9.465  0.0542 -0.2672  0.6701
  189MOL0     H26034   5.194   0.748   9.379  2.7877 -0.2040 -2.5668
  189MOL0     H26035   5.186   0.808   9.548 -0.0234 -1.6278  0.3697
  189MOL0     H26036   5.426   0.921   9.492 -0.3412 -1.3368  0.3862
  189MOL0     H26037   5.411   0.833   9.336 -2.9579 -0.4924 -2.0326
  189MOL0     H26038   5.170   0.953   9.315 -1.0798 -1.0129  2.3486
  189MOL0     H26039   5.231   1.060   9.439  2.9965  0.0550  0.3993
  189MOL0     H26040   5.277   1.259   9.408 -0.8817  1.8128 -0.0060
  189MOL0     H26041   5.397   1.505   9.402 -0.2763 -0.3664  0.6730
  189MOL0     H26042   5.223   1.473   9.445  0.5191 -1.4580  0.4080
  189MOL0     H26043   5.257   1.608   9.345  0.5307  0.9018  2.2258
  189MOL0     H26044   5.245   1.725   8.798  0.8195  0.0097 -1.0113
  189MOL0     H26045   5.251   1.968   8.752 -0.3431 -1.4117  0.4722
  189MOL0     H26046   5.272   2.212   8.708  1.0395 -2.7369  0.6055
  189MOL0     H26047   5.248   2.195   8.880 -1.4285  2.0592 -0.6744
  189MOL0     H26048   5.393   2.404   8.717 -0.3397 -0.4050  0.2970
  189MOL0     H26049   5.262   2.425   8.823  1.6771  1.4127  0.5137
  189MOL0     H26050   5.543   2.418   8.896  0.9422 -0.3746  2.2650
  189MOL0     H26051   5.436   2.340   9.017  1.9261 -0.6038  0.3774
  189MOL0     H26052   5.304   2.568   9.032  1.2022  2.1407  2.4148
  189MOL0     H26053   5.433   2.629   8.934 -0.5280 -0.7173 -1.0897
  189MOL0     H26054   5.445   2.501   9.202  2.5110  0.4500  1.6299
  189MOL0     H26055   5.590   2.513   9.116 -0.8985 -0.5030  3.4774
  189MOL0     H26056   5.412   2.739   9.202 -0.7396  0.5353 -1.6338
  189MOL0     H26057   5.524   2.756   9.078  2.0487 -0.0796  1.4511
  189MOL0     H26058   5.708   2.746   9.221 -0.9824 -0.9221 -1.6642
  189MOL0     H26059   5.615   2.630   9.335  2.5668  0.4193 -0.4005
  189MOL0     H26060   5.633   2.863   9.449 -0.2698 -0.0988 -0.6731
  189MOL0     H26061   5.469   2.829   9.394 -0.3855  0.3922  1.2544
  189MOL0     H26062   5.612   2.000   8.988  1.2223 -0.8090  0.1497
  189MOL0     H26063   5.584   1.756   9.054  1.4422  0.5004 -0.0324
  189MOL0     H26064   5.388   1.356   8.935 -4.4958  1.1616 -1.1067
  189MOL0     H26065   5.404   1.124   9.026  1.2963 -2.0135  0.9452
  189MOL0     H26066   6.521   0.977  10.125  0.3696  2.7769 -0.6772
  189MOL0     H26067   6.591   1.101   9.956  0.4293 -0.7872  0.9953
  189MOL0     H26068   6.661   1.302   9.614 -0.2234 -1.3708 -0.7225
  189MOL0     H26069   6.741   1.443   9.455  0.1513 -0.4817  0.6081
  189MOL0     H26070   6.715   1.552   9.248  0.3063  0.9060  1.2534
  189MOL0     H26071   6.891   1.525   9.272  2.4083  0.2069 -3.6866
  189MOL0     H26072   6.925   1.526   9.020  2.6102  0.1683  0.8417
  189MOL0     H26073   6.906   1.676   9.108 -0.0967 -0.1558 -0.6240
  189MOL0     H26074   6.683   1.524   8.952  1.4483  0.1327 -0.2855
  189MOL0     H26075   6.657   1.669   9.058  1.4589  2.0755  0.9787
  189MOL0     H26076   6.782   1.615   8.795  1.1099 -3.8917  4.5564
  189MOL0     H26077   6.845   1.758   8.886 -0.0230 -0.1035  1.5084
  189MOL0     H26078   6.492   1.928   8.759  1.4044  1.3558 -2.7803
  189MOL0     H26079   6.729   1.117   9.156  2.5571 -1.6571  0.4958
  189MOL0     H26080   6.723   0.872   9.335  1.1913 -0.1892 -4.2408
  189MOL0     H26081   6.561   0.901   9.393 -0.8217  1.3539 -0.2493
  189MOL0     H26082   6.593   0.935   9.221  1.7848  0.2504 -0.4935
  190MOL0     O26083   0.912   8.633   8.338 -0.0905 -0.7331  0.5183
  190MOL0     C26084   0.847   8.530   8.315  0.2470 -1.5346 -0.0442
  190MOL0     O26085   0.716   8.531   8.310  0.1910 -0.4388 -1.0335
  190MOL0     C26086   0.642   8.628   8.379 -0.1539  0.6776  0.3953
  190MOL0     C26087   0.580   8.590   8.502  1.1721  0.2750  0.1101
  190MOL0     C26088   0.498   8.680   8.572 -0.5494  0.1783 -0.9824
  190MOL0     C26089   0.475   8.808   8.541  0.4994  0.1994 -0.0831
  190MOL0     O26090   0.386   8.890   8.608  0.1741 -0.1194 -0.7352
  190MOL0     C26091   0.304   8.831   8.707  0.8564  0.2688  0.4752
  190MOL0     C26092   0.188   8.931   8.740  0.1767  0.0525  0.3985
  190MOL0     C26093   0.078   8.851   8.806 -0.3463  0.4940  0.7025
  190MOL0     C26094  -0.028   8.938   8.862  0.2433  0.4118  0.2728
  190MOL0     C26095  -0.099   9.022   8.753  0.5163  0.6427  0.3769
  190MOL0     C26096  -0.237   9.057   8.806  0.3726 -0.1280 -0.1357
  190MOL0     C26097  -0.297   9.140   8.686  0.0391  0.9504 -0.2507
  190MOL0     C26098  -0.419   9.224   8.734  0.1840 -0.0071  0.6180
  190MOL0     N26099  -0.379   9.360   8.781  0.3083  0.0549  0.4066
  190MOL0     C26100  -0.397   9.425   8.903  0.7016 -0.7350  0.1885
  190MOL0     C26101  -0.353   9.555   8.884  0.1533 -0.1541 -0.6144
  190MOL0     C26102  -0.337   9.667   8.984  0.0800  0.7113  0.0073
  190MOL0     C26103  -0.203   9.746   8.962  0.4031  0.7259 -0.7801
  190MOL0     C26104  -0.174   9.861   9.059  0.2504  0.6815 -1.2329
  190MOL0     C26105  -0.264   9.985   9.036 -0.5493 -0.0190  0.1721
  190MOL0     O26106  -0.260  10.044   8.898  0.4749 -0.4117  0.2457
  190MOL0     C26107  -0.186  10.157   8.864 -0.1015  1.2940 -0.1094
  190MOL0     C26108  -0.189  10.198   8.734  0.5229  0.1760  0.2728
  190MOL0     C26109  -0.123  10.303   8.677 -0.2569 -0.2346  0.0940
  190MOL0     C26110  -0.115  10.302   8.527  0.4609  0.3678 -0.1840
  190MOL0     C26111  -0.051  10.389   8.773  0.5849  0.4591  0.8879
  190MOL0     C26112   0.013  10.499   8.714  0.5192 -0.4598 -0.1848
  190MOL0     O26113   0.141  10.516   8.752 -0.1142  0.2603  0.1491
  190MOL0     C26114   0.208  10.635   8.740  0.3004  0.3355 -0.0639
  190MOL0     C26115   0.299  10.645   8.636 -0.1517  0.2979  0.5736
  190MOL0     C26116   0.374  10.769   8.620  0.3863  0.1193 -0.3699
  190MOL0     C26117   0.351  10.871   8.711 -0.4676 -0.0857  0.2885
  190MOL0     O26118   0.429  10.982   8.695  0.3857  0.9711 -0.6913
  190MOL0     C26119   0.458  11.075   8.800 -0.0367  0.4304  0.0720
  190MOL0     C26120   0.576  11.177   8.763  0.2500 -0.5436 -0.3793
  190MOL0     C26121   0.593  11.291   8.861 -1.1627 -0.3796  0.1459
  190MOL0     C26122   0.719  11.365   8.815  0.1248  0.7149  0.2827
  190MOL0     C26123   0.745  11.491   8.902  0.7043 -0.5904 -0.4129
  190MOL0     C26124   0.882  11.554   8.887 -0.3470  0.8734  1.1549
  190MOL0     C26125   0.901  11.623   8.744 -0.7597 -0.2242  0.1313
  190MOL0     C26126   1.051  11.663   8.733 -0.8079  0.2462  0.3553
  190MOL0    Cl26127   1.133  11.749   8.875  0.0851  0.4639  0.0369
  190MOL0     C26128   0.259  10.858   8.815 -0.0364  0.1057 -0.0979
  190MOL0     C26129   0.185  10.735   8.829  0.3811 -0.0074 -0.2015
  190MOL0     O26130  -0.052  10.575   8.652  0.7790 -0.6638  0.4366
  190MOL0     C26131  -0.046  10.357   8.910  0.5894  0.2660  0.0639
  190MOL0     C26132  -0.119  10.241   8.956 -1.1001 -0.6828  0.4331
  190MOL0     N26133  -0.297   9.562   8.752 -0.0577  0.0468 -0.0606
  190MOL0     N26134  -0.315   9.446   8.705 -0.8101  0.3162  0.5288
  190MOL0     C26135   0.546   8.857   8.427  0.1110  1.0999 -1.0703
  190MOL0     C26136   0.632   8.767   8.357  0.6412 -0.5345  0.3034
  190MOL0     C26137   0.902   8.408   8.254 -0.9652  0.1715 -0.0647
  190MOL0     C26138   0.816   8.309   8.203  0.4551  0.4187  0.5842
  190MOL0     C26139   0.862   8.191   8.149 -0.1228 -0.4997 -0.4610
  190MOL0     C26140   1.005   8.163   8.153 -0.0484 -0.4436  0.0185
  190MOL0     O26141   1.068   8.058   8.088 -0.3246 -0.6026  0.8430
  190MOL0     C26142   0.976   7.954   8.042 -0.6146 -0.4586  0.3357
  190MOL0     C26143   1.056   7.828   7.996  0.3076  0.7507  0.1075
  190MOL0     C26144   1.188   7.878   7.939 -0.2541  1.1486  0.3666
  190MOL0     C26145   1.247   7.783   7.829  0.5385  0.0505 -0.5115
  190MOL0     C26146   1.272   7.643   7.868 -0.0964  0.1067 -0.0821
  190MOL0     C26147   1.316   7.534   7.904 -0.2404  0.2363 -0.5993
  190MOL0     C26148   1.089   8.257   8.211  1.1942  0.0084 -0.5068
  190MOL0     C26149   1.042   8.377   8.261  0.3915 -0.1327 -0.3440
  190MOL0     C26150   1.141   8.475   8.318 -0.3943  0.6891 -0.6295
  190MOL0     H26151   0.600   8.486   8.525 -2.7361 -1.5023 -3.1385
  190MOL0     H26152   0.470   8.640   8.669  0.0949 -0.3699 -1.0181
  190MOL0     H26153   0.351   8.798   8.800 -0.3529 -0.6325  0.7938
  190MOL0     H26154   0.254   8.742   8.668 -0.2878  1.3852 -0.7090
  190MOL0     H26155   0.219   9.015   8.803  2.4318 -0.2503 -0.2513
  190MOL0     H26156   0.150   8.964   8.643 -0.3471 -3.3720 -0.6729
  190MOL0     H26157   0.039   8.779   8.735  1.8245  0.3686 -0.4570
  190MOL0     H26158   0.129   8.793   8.884  0.8543 -2.4877 -2.0865
  190MOL0     H26159  -0.096   8.876   8.922  0.8767 -0.2483  0.3148
  190MOL0     H26160   0.009   9.007   8.939 -1.3311  2.6139 -0.8159
  190MOL0     H26161  -0.110   8.958   8.665 -1.4986 -0.4152  1.3231
  190MOL0     H26162  -0.043   9.112   8.725 -1.7429  0.8542 -4.2478
  190MOL0     H26163  -0.281   8.964   8.843  0.9961  0.0442  1.1070
  190MOL0     H26164  -0.238   9.127   8.890 -3.0129 -1.3188  0.9707
  190MOL0     H26165  -0.335   9.072   8.610  0.5396 -1.1664  1.3145
  190MOL0     H26166  -0.215   9.203   8.650  1.8059 -1.2333 -0.2716
  190MOL0     H26167  -0.492   9.223   8.652 -0.5606 -0.0392  1.2726
  190MOL0     H26168  -0.471   9.166   8.811  1.0142 -1.3803  0.1652
  190MOL0     H26169  -0.453   9.375   8.982 -2.1990 -2.5076 -2.7375
  190MOL0     H26170  -0.348   9.630   9.086 -1.8941 -0.8173 -0.6781
  190MOL0     H26171  -0.414   9.742   8.968 -1.1337 -0.0238  2.0715
  190MOL0     H26172  -0.127   9.670   8.981  0.7020  1.6290  2.0607
  190MOL0     H26173  -0.211   9.775   8.856 -2.9574 -0.4980 -0.9624
  190MOL0     H26174  -0.163   9.838   9.166 -1.6482  1.5137 -0.7982
  190MOL0     H26175  -0.073   9.887   9.028  1.1407 -0.4166  0.5564
  190MOL0     H26176  -0.369   9.961   9.059 -1.0419 -0.5124 -2.3021
  190MOL0     H26177  -0.249  10.057   9.117 -1.0817 -0.0646  0.3197
  190MOL0     H26178  -0.255  10.149   8.663  0.0276  2.3982 -0.8900
  190MOL0     H26179  -0.024  10.353   8.495  2.7688  0.1404  5.0340
  190MOL0     H26180  -0.202  10.363   8.501  1.1723  1.3041 -0.3889
  190MOL0     H26181  -0.117  10.201   8.484 -0.9965  0.1954  0.2555
  190MOL0     H26182   0.337  10.563   8.575  0.8184  1.5666 -0.6134
  190MOL0     H26183   0.437  10.775   8.532  1.6732  0.1281  0.5352
  190MOL0     H26184   0.371  11.136   8.823 -0.5772 -0.7640  1.3304
  190MOL0     H26185   0.485  11.032   8.897  0.5476  0.1697 -0.1954
  190MOL0     H26186   0.669  11.123   8.744 -0.4748 -1.8733 -0.3414
  190MOL0     H26187   0.555  11.227   8.668 -0.8100 -0.4695 -0.1255
  190MOL0     H26188   0.612  11.258   8.963  1.3013 -2.3145 -0.8361
  190MOL0     H26189   0.511  11.362   8.850  0.0219  1.0663  0.3821
  190MOL0     H26190   0.722  11.400   8.711 -2.5652  1.7246  0.4810
  190MOL0     H26191   0.804  11.299   8.834 -0.4235  0.4129  1.7625
  190MOL0     H26192   0.676  11.564   8.860  1.3385  0.0390 -0.3764
  190MOL0     H26193   0.710  11.481   9.006  0.0223 -0.8339 -0.6596
  190MOL0     H26194   0.955  11.473   8.882  0.8688  2.0184 -1.3395
  190MOL0     H26195   0.913  11.622   8.967  0.2411  1.7469  0.2112
  190MOL0     H26196   0.837  11.711   8.736 -2.8004 -1.8005 -2.8450
  190MOL0     H26197   0.878  11.556   8.661  2.1830  1.0222 -1.8609
  190MOL0     H26198   1.059  11.730   8.647 -0.8470 -0.9268 -0.5977
  190MOL0     H26199   1.120  11.583   8.704  1.2786  2.7877 -2.2903
  190MOL0     H26200   0.244  10.948   8.872 -0.4049  1.4952 -2.2627
  190MOL0     H26201   0.108  10.724   8.905  0.3398 -2.4892 -0.5168
  190MOL0     H26202   0.004  10.429   8.973  2.3366  0.0829 -1.0425
  190MOL0     H26203  -0.129  10.218   9.062 -1.3207  1.8473  1.0142
  190MOL0     H26204   0.551   8.963   8.408  2.1621  1.5388  1.5309
  190MOL0     H26205   0.678   8.809   8.268 -2.1224 -1.1242 -1.5414
  190MOL0     H26206   0.708   8.318   8.198  0.5203  2.3200  1.9004
  190MOL0     H26207   0.789   8.124   8.105 -4.1816  1.1664  3.0863
  190MOL0     H26208   0.914   7.930   8.129  1.1706 -1.1746  1.4569
  190MOL0     H26209   0.906   7.989   7.965 -2.1951  0.6784  2.1958
  190MOL0     H26210   0.996   7.772   7.923 -0.5977  2.3020 -0.3982
  190MOL0     H26211   1.071   7.759   8.079 -0.2244  0.9751  0.3987
  190MOL0     H26212   1.180   7.978   7.895 -3.7242 -0.2038 -2.5833
  190MOL0     H26213   1.259   7.876   8.022 -1.3259 -0.2114  1.3131
  190MOL0     H26214   1.349   7.813   7.803  1.1348 -0.0500  1.5458
  190MOL0     H26215   1.184   7.772   7.741 -0.3504 -2.3421  0.3627
  190MOL0     H26216   1.339   7.431   7.925  1.0913  0.1087 -2.4899
  190MOL0     H26217   1.196   8.252   8.222  0.9893  1.0924  4.9965
  190MOL0     H26218   1.131   8.579   8.286 -0.5518  0.4340 -1.4107
  190MOL0     H26219   1.134   8.447   8.424  2.4550  1.4210 -0.1485
  190MOL0     H26220   1.242   8.448   8.284 -0.2590  1.0536 -0.5239
  191MOL0     O26221  11.532   5.045   1.390  0.0775  0.1931 -0.5157
  191MOL0     C26222  11.589   4.941   1.367  0.3619  0.5672  0.7444
  191MOL0     O26223  11.721   4.918   1.403  0.4657  0.1961 -0.0230
  191MOL0     C26224  11.789   5.015   1.480 -0.6461 -0.7713  0.3596
  191MOL0     C26225  11.854   4.972   1.592 -0.3911 -0.1960 -0.0814
  191MOL0     C26226  11.946   5.053   1.657  0.5074 -0.3389 -0.8476
  191MOL0     C26227  12.002   5.157   1.594  0.1874  0.4533  0.0573
  191MOL0     O26228  12.121   5.204   1.647  0.6283 -0.0779  0.3940
  191MOL0     C26229  12.188   5.320   1.586  0.3945  0.5803  0.1457
  191MOL0     C26230  12.151   5.458   1.648 -0.3457  0.8003  0.5794
  191MOL0     C26231  12.154   5.574   1.544  0.6768  0.3663 -0.1552
  191MOL0     C26232  12.085   5.694   1.595  0.0312 -0.0768 -0.2815
  191MOL0     C26233  12.097   5.721   1.744 -0.1388  0.3140  0.1098
  191MOL0     C26234  12.060   5.861   1.767  0.3488  0.0545  0.2291
  191MOL0     C26235  12.162   5.966   1.739 -0.2437 -0.0340 -1.0680
  191MOL0     C26236  12.100   6.097   1.774 -0.5009 -0.6976  0.1287
  191MOL0     N26237  12.173   6.225   1.746  1.0555 -1.3738 -0.1118
  191MOL0     C26238  12.126   6.352   1.768 -0.6766 -0.0869 -0.2023
  191MOL0     C26239  12.238   6.423   1.729  0.1210 -0.5838  1.1270
  191MOL0     C26240  12.243   6.574   1.733 -0.2811 -0.4459  0.2162
  191MOL0     C26241  12.214   6.622   1.596 -0.1269 -0.7233  0.1895
  191MOL0     C26242  12.212   6.772   1.579 -0.7178 -1.0190  0.0332
  191MOL0     C26243  12.258   6.810   1.443  0.9880 -0.0315 -0.2792
  191MOL0     O26244  12.173   6.769   1.335 -0.4201  0.6695 -0.1591
  191MOL0     C26245  12.191   6.829   1.210 -0.8164 -0.1234 -0.7808
  191MOL0     C26246  12.098   6.785   1.117  0.7831 -0.6844 -0.2536
  191MOL0     C26247  12.101   6.833   0.981  1.2540  0.9479 -0.6425
  191MOL0     C26248  11.982   6.786   0.902 -0.2737 -0.6277 -0.2898
  191MOL0     C26249  12.202   6.921   0.953 -1.1483 -0.1734  0.0709
  191MOL0     C26250  12.209   6.987   0.819 -0.7151  0.9258  0.0782
  191MOL0     O26251  12.251   7.114   0.818 -0.1224  0.1528 -0.2931
  191MOL0     C26252  12.276   7.182   0.699  0.4876  0.7815 -0.1123
  191MOL0     C26253  12.179   7.200   0.599 -0.4187  0.3831 -0.0239
  191MOL0     C26254  12.215   7.270   0.485  0.3256 -0.9938  0.2553
  191MOL0     C26255  12.341   7.329   0.466 -0.5019  0.2664  0.1238
  191MOL0     O26256  12.351   7.406   0.354 -0.3734 -0.9028 -0.2367
  191MOL0     C26257  12.487   7.438   0.308 -0.4902 -0.9383  1.0347
  191MOL0     C26258  12.494   7.558   0.206 -0.4219 -0.4951  0.5799
  191MOL0     C26259  12.388   7.547   0.098  0.2313  0.2485 -0.6739
  191MOL0     C26260  12.404   7.429   0.008 -0.1538  0.0404  0.5165
  191MOL0     C26261  12.544   7.416  -0.041 -0.3329 -0.5101 -0.7444
  191MOL0     C26262  12.588   7.540  -0.114 -0.6541  0.6406  0.5543
  191MOL0     C26263  12.721   7.512  -0.184  0.0606  0.4903 -0.6407
  191MOL0     C26264  12.820   7.629  -0.200 -0.0483 -0.0685  0.7320
  191MOL0    Cl26265  12.736   7.761  -0.301  0.2446 -0.5277 -0.2258
  191MOL0     C26266  12.437   7.314   0.566  0.2870  0.1290  0.0009
  191MOL0     C26267  12.404   7.235   0.684 -0.5539  0.0136  0.1378
  191MOL0     O26268  12.176   6.919   0.718  0.1848 -0.0749  0.2582
  191MOL0     C26269  12.300   6.965   1.053  0.2573 -0.1187  0.7899
  191MOL0     C26270  12.278   6.933   1.181 -0.0557 -0.5999 -0.8609
  191MOL0     N26271  12.344   6.337   1.701 -0.7662 -0.4520 -0.1716
  191MOL0     N26272  12.302   6.218   1.702 -0.1005  0.1551 -0.1374
  191MOL0     C26273  11.943   5.207   1.476 -0.3941 -0.0952  0.0152
  191MOL0     C26274  11.824   5.143   1.423  0.7063 -0.5792 -0.2828
  191MOL0     C26275  11.511   4.847   1.292 -0.2993 -0.1511  0.2087
  191MOL0     C26276  11.588   4.765   1.212  0.0955  0.1355  0.8051
  191MOL0     C26277  11.529   4.678   1.116  0.8145 -1.1232 -0.0107
  191MOL0     C26278  11.387   4.687   1.105 -0.3389  0.1819 -0.5388
  191MOL0     O26279  11.321   4.605   1.026 -0.8981  0.7830  0.0528
  191MOL0     C26280  11.386   4.569   0.899 -0.2652  0.5717  0.0573
  191MOL0     C26281  11.292   4.530   0.780 -0.3077 -0.1132 -0.0045
  191MOL0     C26282  11.199   4.414   0.822 -0.4821  0.2433  0.4536
  191MOL0     C26283  11.259   4.275   0.840 -0.4722 -1.3569 -0.3777
  191MOL0     C26284  11.338   4.265   0.963 -0.0951 -0.6959 -0.0547
  191MOL0     C26285  11.388   4.260   1.078 -0.2612 -0.1713  1.2588
  191MOL0     C26286  11.310   4.756   1.191  0.4640 -1.3573  0.7689
  191MOL0     C26287  11.368   4.835   1.288  0.3200  0.1254 -0.7417
  191MOL0     C26288  11.276   4.914   1.388  0.9877  0.0367 -0.2312
  191MOL0     H26289  11.838   4.873   1.635 -1.6861 -0.0652 -0.2077
  191MOL0     H26290  12.002   5.016   1.743 -0.6323  2.5719  1.2922
  191MOL0     H26291  12.171   5.308   1.478  0.8644 -0.3972  0.1737
  191MOL0     H26292  12.296   5.320   1.603  0.5683  2.9847 -0.5766
  191MOL0     H26293  12.048   5.439   1.679 -0.6818  0.6050 -0.6217
  191MOL0     H26294  12.207   5.477   1.740 -1.1441 -2.5807  1.9010
  191MOL0     H26295  12.256   5.610   1.523  1.3736  0.4202  2.7776
  191MOL0     H26296  12.089   5.536   1.465 -1.9768  1.2243  1.4769
  191MOL0     H26297  12.108   5.782   1.535 -0.8724 -0.9540 -1.9996
  191MOL0     H26298  11.977   5.676   1.582 -0.4093  1.2958  1.1433
  191MOL0     H26299  12.195   5.695   1.786 -0.3301  0.0602  0.4076
  191MOL0     H26300  12.033   5.655   1.805  1.8481 -2.1848 -0.3526
  191MOL0     H26301  11.963   5.879   1.720 -0.2864 -2.3811  0.4492
  191MOL0     H26302  12.037   5.874   1.873 -0.5309 -0.6893  0.1402
  191MOL0     H26303  12.190   5.981   1.634 -0.2830  1.5363 -0.8814
  191MOL0     H26304  12.260   5.951   1.784  1.6125  3.7238 -3.2804
  191MOL0     H26305  12.005   6.089   1.719 -0.8071 -1.0459  0.6978
  191MOL0     H26306  12.075   6.097   1.880 -0.0470 -2.6178  0.2620
  191MOL0     H26307  12.027   6.384   1.797 -0.9814 -0.6681 -0.5930
  191MOL0     H26308  12.347   6.601   1.754 -0.4413 -0.2077  0.7144
  191MOL0     H26309  12.168   6.620   1.797 -1.1771 -0.8351 -0.5325
  191MOL0     H26310  12.291   6.592   1.524 -0.2455 -0.1216 -0.2017
  191MOL0     H26311  12.118   6.580   1.565 -0.0176 -0.8980  0.0850
  191MOL0     H26312  12.110   6.811   1.591 -0.4062 -0.5832  1.4374
  191MOL0     H26313  12.273   6.831   1.648 -2.5807 -0.2895  1.1278
  191MOL0     H26314  12.282   6.916   1.445  3.2432 -0.4956 -0.4990
  191MOL0     H26315  12.355   6.765   1.420  1.2470  0.8604 -0.9660
  191MOL0     H26316  12.018   6.727   1.162  0.6943 -0.8701 -0.6393
  191MOL0     H26317  11.913   6.719   0.955 -1.2509  0.5891  0.0071
  191MOL0     H26318  12.022   6.722   0.823 -1.1662 -1.4314 -0.1180
  191MOL0     H26319  11.939   6.881   0.871  1.2418  0.1535 -0.0502
  191MOL0     H26320  12.073   7.186   0.617 -0.7394 -1.1783 -2.5577
  191MOL0     H26321  12.144   7.291   0.406  0.1237  2.1424  1.1329
  191MOL0     H26322  12.562   7.459   0.386  0.8690 -1.1289 -0.1839
  191MOL0     H26323  12.509   7.346   0.253 -2.4580 -0.6033 -0.3827
  191MOL0     H26324  12.467   7.643   0.269  4.8704  1.0257  1.3019
  191MOL0     H26325  12.591   7.595   0.171 -1.9985  5.3866  1.3812
  191MOL0     H26326  12.383   7.636   0.034  1.0173  1.3595  0.7348
  191MOL0     H26327  12.301   7.550   0.163  2.6040  2.8482  2.7161
  191MOL0     H26328  12.339   7.430  -0.080  1.4804  0.8881 -0.7428
  191MOL0     H26329  12.385   7.345   0.076 -0.1172  0.0248  0.5073
  191MOL0     H26330  12.614   7.407   0.042  1.7926 -0.2255 -2.4184
  191MOL0     H26331  12.562   7.330  -0.106 -1.7703 -2.7713  1.6924
  191MOL0     H26332  12.578   7.624  -0.045  0.7066  2.4730 -1.3763
  191MOL0     H26333  12.517   7.553  -0.196  1.0458 -1.2221 -1.3231
  191MOL0     H26334  12.708   7.458  -0.278 -0.5658 -4.3020  1.8687
  191MOL0     H26335  12.782   7.439  -0.129  1.1314  0.4422 -1.8512
  191MOL0     H26336  12.909   7.586  -0.246 -0.9527  2.2551 -3.8217
  191MOL0     H26337  12.854   7.679  -0.109  2.6087 -0.0154 -0.2114
  191MOL0     H26338  12.539   7.349   0.548  1.2764 -2.0690  0.9974
  191MOL0     H26339  12.496   7.215   0.736 -1.6170  0.2706  2.2164
  191MOL0     H26340  12.379   7.034   1.023 -1.3800  1.5653  0.1552
  191MOL0     H26341  12.349   6.983   1.247  1.3559 -0.3370 -2.5053
  191MOL0     H26342  11.982   5.290   1.418  1.0114 -2.5775 -2.8959
  191MOL0     H26343  11.782   5.167   1.326  0.6420 -1.3901 -0.4635
  191MOL0     H26344  11.696   4.764   1.211  0.2170  2.7040  2.2630
  191MOL0     H26345  11.595   4.620   1.052  0.0184 -3.7546  1.4254
  191MOL0     H26346  11.431   4.662   0.864  1.7501 -0.5918 -0.6566
  191MOL0     H26347  11.460   4.489   0.909  1.2493  2.0624  1.4947
  191MOL0     H26348  11.358   4.502   0.698  0.6250 -1.4332  1.1522
  191MOL0     H26349  11.231   4.617   0.754 -0.3015 -0.7819 -2.5186
  191MOL0     H26350  11.138   4.430   0.911 -4.7253  0.4955 -2.2245
  191MOL0     H26351  11.133   4.411   0.735  0.9678  3.4054 -0.9223
  191MOL0     H26352  11.326   4.252   0.757  1.2889  0.2108  0.5305
  191MOL0     H26353  11.181   4.198   0.838 -1.0115 -0.8123 -2.1447
  191MOL0     H26354  11.426   4.281   1.176  0.1299 -1.2326  1.3449
  191MOL0     H26355  11.202   4.757   1.180  0.4133 -1.7559  1.2085
  191MOL0     H26356  11.298   4.882   1.491 -4.9567 -0.5559  1.2261
  191MOL0     H26357  11.279   5.023   1.379  1.2025  0.2159  1.6546
  191MOL0     H26358  11.173   4.876   1.391  1.2880 -0.8246 -0.5787
  192MOL0     O26359   0.971   0.492   0.583  1.0813 -0.4984 -0.2558
  192MOL0     C26360   0.998   0.568   0.673  0.4177  0.2049 -0.3685
  192MOL0     O26361   1.120   0.581   0.738 -0.1447  0.3667 -0.0703
  192MOL0     C26362   1.241   0.571   0.668 -1.4222  0.1397 -0.9325
  192MOL0     C26363   1.255   0.629   0.539  0.3186 -0.2983  0.2665
  192MOL0     C26364   1.377   0.620   0.470  0.5951  0.2488 -0.0403
  192MOL0     C26365   1.491   0.552   0.529  0.1787 -0.4164  0.2390
  192MOL0     O26366   1.613   0.537   0.465  0.5872 -0.0991 -0.5932
  192MOL0     C26367   1.620   0.549   0.319  1.2912 -0.4526 -0.2079
  192MOL0     C26368   1.765   0.591   0.267  0.3501 -0.5440 -0.6435
  192MOL0     C26369   1.871   0.476   0.277  0.1798  0.3164  0.4072
  192MOL0     C26370   1.865   0.365   0.169  0.0768  0.3744  0.0110
  192MOL0     C26371   1.963   0.254   0.194  0.3129  0.1272  0.9775
  192MOL0     C26372   1.934   0.154   0.313  0.2227 -0.5132  0.5769
  192MOL0     C26373   1.780   0.112   0.315 -0.9173  0.2529 -0.1913
  192MOL0     C26374   1.759   0.017   0.437  0.3450 -0.1119 -0.7889
  192MOL0     N26375   1.802   0.094   0.561  0.2519  0.1315  0.2140
  192MOL0     C26376   1.732   0.189   0.634  0.1906 -0.0532 -0.4360
  192MOL0     C26377   1.808   0.201   0.745 -0.0362 -0.2134  0.3239
  192MOL0     C26378   1.766   0.287   0.859  0.3569  0.2080  0.4334
  192MOL0     C26379   1.886   0.353   0.924 -0.2156 -0.2063  0.0560
  192MOL0     C26380   1.972   0.423   0.820 -0.0295  0.3673  0.6016
  192MOL0     C26381   1.906   0.536   0.746 -0.8722 -0.4338  0.0573
  192MOL0     O26382   1.805   0.602   0.824  0.3546 -0.7099 -0.0407
  192MOL0     C26383   1.738   0.705   0.771  1.3819 -0.8630  0.0456
  192MOL0     C26384   1.630   0.754   0.852  0.7101  0.4513  0.9411
  192MOL0     C26385   1.543   0.856   0.808  0.5481  0.4563 -1.0780
  192MOL0     C26386   1.426   0.877   0.913 -0.2435 -0.4472 -0.0446
  192MOL0     C26387   1.557   0.916   0.687 -0.5056  0.5313 -0.9048
  192MOL0     C26388   1.468   1.015   0.645 -1.5119 -0.1097  0.6270
  192MOL0     O26389   1.491   1.152   0.667 -0.4623 -0.3885 -0.0809
  192MOL0     C26390   1.395   1.244   0.673 -0.5522  0.1513 -0.0026
  192MOL0     C26391   1.269   1.231   0.732 -0.0935  0.0367 -0.1956
  192MOL0     C26392   1.182   1.339   0.755  0.2677 -0.1113 -0.5231
  192MOL0     C26393   1.213   1.461   0.698  0.4284  0.2638 -0.5877
  192MOL0     O26394   1.115   1.562   0.726 -0.0128 -0.4422  0.4211
  192MOL0     C26395   1.148   1.698   0.691  0.2795  0.6457  0.6711
  192MOL0     C26396   1.035   1.801   0.721  0.2838  1.1900  0.1131
  192MOL0     C26397   1.032   1.817   0.875 -0.4023 -0.5559  0.0368
  192MOL0     C26398   0.925   1.923   0.921 -0.3175 -0.2854  0.3931
  192MOL0     C26399   0.918   1.936   1.075 -0.7013 -0.1677 -0.0903
  192MOL0     C26400   0.899   2.084   1.120  0.2790 -0.0889 -0.1307
  192MOL0     C26401   0.774   2.141   1.057 -0.1025  0.1404  0.1618
  192MOL0     C26402   0.753   2.290   1.075 -0.7030 -0.3876 -0.0925
  192MOL0    Cl26403   0.619   2.339   0.973 -0.0107 -0.3096  0.2766
  192MOL0     C26404   1.339   1.477   0.644  0.0340  0.0530  0.3661
  192MOL0     C26405   1.427   1.371   0.628  0.0600  0.1856  0.2839
  192MOL0     O26406   1.375   0.966   0.579 -0.3826 -0.2733 -0.2255
  192MOL0     C26407   1.661   0.867   0.601 -1.1828 -0.1431 -0.1920
  192MOL0     C26408   1.748   0.759   0.639 -0.9828 -0.5238  0.1238
  192MOL0     N26409   1.911   0.120   0.745 -0.4288  1.1782 -0.3739
  192MOL0     N26410   1.910   0.053   0.634 -0.1359 -0.6947  0.0507
  192MOL0     C26411   1.481   0.513   0.658 -0.5838 -0.1516  0.1219
  192MOL0     C26412   1.358   0.507   0.722  0.4203  0.0901  1.4576
  192MOL0     C26413   0.887   0.637   0.736  0.7380  0.8528 -0.0002
  192MOL0     C26414   0.767   0.580   0.765 -0.2470 -0.0958 -0.2461
  192MOL0     C26415   0.664   0.644   0.832 -0.4415  0.1737 -0.5480
  192MOL0     C26416   0.687   0.774   0.880  0.7282  0.0111 -0.2325
  192MOL0     O26417   0.582   0.822   0.955 -0.4066 -0.1161  0.6487
  192MOL0     C26418   0.575   0.957   0.993  0.2049  0.6497 -0.1506
  192MOL0     C26419   0.644   0.981   1.124 -0.4908  0.1570 -0.2019
  192MOL0     C26420   0.632   1.126   1.171  0.8173 -0.2016 -0.8586
  192MOL0     C26421   0.743   1.132   1.287 -0.5362  0.0771 -0.5240
  192MOL0     C26422   0.720   1.245   1.370  0.7650  0.4875 -1.2606
  192MOL0     C26423   0.720   1.351   1.432  0.4662  0.2330 -0.2589
  192MOL0     C26424   0.806   0.838   0.853 -0.0750  0.7779  0.1796
  192MOL0     C26425   0.901   0.769   0.780  0.1230  0.4470  0.1217
  192MOL0     C26426   1.020   0.858   0.757 -0.8902  0.4844 -0.1788
  192MOL0     H26427   1.176   0.665   0.474  0.7765 -1.4449 -0.9835
  192MOL0     H26428   1.389   0.665   0.371 -0.0973 -2.3336 -1.3766
  192MOL0     H26429   1.576   0.644   0.285  0.5005 -1.2000 -1.3512
  192MOL0     H26430   1.565   0.468   0.270 -1.1840  0.7402  0.4012
  192MOL0     H26431   1.765   0.614   0.160 -3.0259 -4.1398 -1.6461
  192MOL0     H26432   1.795   0.681   0.323  2.0821  0.5187 -3.0965
  192MOL0     H26433   1.973   0.515   0.276 -0.2851  1.6288 -1.2648
  192MOL0     H26434   1.870   0.441   0.381  0.9365  1.0351  0.6594
  192MOL0     H26435   1.762   0.333   0.153 -0.5207  1.3246  1.7793
  192MOL0     H26436   1.906   0.400   0.073  0.2468 -0.9134 -0.4099
  192MOL0     H26437   2.057   0.301   0.223  1.3120 -2.0674  1.4950
  192MOL0     H26438   1.978   0.202   0.099 -2.4114  2.2945 -0.7770
  192MOL0     H26439   2.001   0.069   0.298  1.8056  0.0733  3.5598
  192MOL0     H26440   1.965   0.208   0.403  0.6410  0.5074 -0.1723
  192MOL0     H26441   1.764   0.058   0.221  1.7135  0.9941 -1.1448
  192MOL0     H26442   1.721   0.204   0.325  0.7190  1.2403  0.8683
  192MOL0     H26443   1.656  -0.019   0.452  0.1099  0.9545  0.3143
  192MOL0     H26444   1.827  -0.068   0.422  0.8487  0.2325 -0.4654
  192MOL0     H26445   1.639   0.244   0.625 -0.7862 -1.9075 -2.3824
  192MOL0     H26446   1.717   0.219   0.929  0.6451 -0.2661  0.1761
  192MOL0     H26447   1.702   0.372   0.833 -1.9131 -0.3331  3.5710
  192MOL0     H26448   1.859   0.424   1.003 -0.0104 -1.0116  0.8669
  192MOL0     H26449   1.950   0.274   0.965 -0.7053 -0.4738  0.3121
  192MOL0     H26450   2.065   0.466   0.859  1.0487  0.2085 -1.6436
  192MOL0     H26451   2.017   0.351   0.752  1.9455 -1.6545  3.7612
  192MOL0     H26452   1.988   0.606   0.728  0.8164 -1.9165  1.5131
  192MOL0     H26453   1.871   0.492   0.652 -1.2370  2.1474 -1.0881
  192MOL0     H26454   1.626   0.730   0.958 -0.6868  0.7697  0.9705
  192MOL0     H26455   1.332   0.916   0.873  0.4976  0.3760 -1.0324
  192MOL0     H26456   1.457   0.938   0.998  1.7438 -0.1084 -0.9405
  192MOL0     H26457   1.399   0.779   0.953  0.2961 -0.9925 -0.9770
  192MOL0     H26458   1.247   1.136   0.780  2.1929  0.1213  1.1296
  192MOL0     H26459   1.083   1.332   0.798 -0.4994  1.6818 -1.8553
  192MOL0     H26460   1.235   1.732   0.748  0.7805  1.3755 -0.4930
  192MOL0     H26461   1.184   1.712   0.589  3.4209 -0.8598  1.4306
  192MOL0     H26462   1.065   1.893   0.670 -0.9220  1.0116 -0.9614
  192MOL0     H26463   0.942   1.763   0.679  0.3571  0.8416  0.2611
  192MOL0     H26464   1.133   1.846   0.907 -2.0759  5.5551  0.9285
  192MOL0     H26465   0.993   1.721   0.910 -0.2863 -1.1773 -1.4553
  192MOL0     H26466   0.828   1.882   0.890 -0.2245 -1.7309  1.8960
  192MOL0     H26467   0.949   2.014   0.865 -0.7990 -0.0612  0.5420
  192MOL0     H26468   0.842   1.864   1.109 -3.2112  1.4208 -1.9477
  192MOL0     H26469   1.010   1.905   1.124  3.1448  2.7566 -4.6656
  192MOL0     H26470   0.989   2.146   1.106  1.9386 -2.0967  1.1961
  192MOL0     H26471   0.877   2.091   1.226 -2.0010  1.3644 -0.6210
  192MOL0     H26472   0.689   2.083   1.094 -1.3510  1.4293 -0.5930
  192MOL0     H26473   0.785   2.137   0.948  3.4191  2.9374  0.2581
  192MOL0     H26474   0.844   2.349   1.058  0.1045 -1.4615  0.4141
  192MOL0     H26475   0.732   2.311   1.180 -0.3409 -0.1112 -0.0710
  192MOL0     H26476   1.375   1.568   0.597  0.8348 -1.3318 -1.8483
  192MOL0     H26477   1.521   1.377   0.574  0.7507  1.9832  1.5845
  192MOL0     H26478   1.665   0.908   0.501 -2.3908  1.3011  0.3021
  192MOL0     H26479   1.806   0.724   0.554 -1.7968 -2.0278  0.1592
  192MOL0     H26480   1.566   0.474   0.715 -1.2967  0.1677  1.4452
  192MOL0     H26481   1.353   0.458   0.818 -1.4481 -0.7522  0.9846
  192MOL0     H26482   0.747   0.477   0.735 -0.1960  0.4629 -2.3899
  192MOL0     H26483   0.572   0.588   0.845 -2.5843  2.7997 -2.9883
  192MOL0     H26484   0.624   1.018   0.916  0.2701 -0.2336 -0.8297
  192MOL0     H26485   0.473   0.996   0.992 -0.1973 -0.3649  0.0457
  192MOL0     H26486   0.750   0.961   1.107  0.3654  0.8281  3.6303
  192MOL0     H26487   0.609   0.909   1.198 -1.5511  1.0588  0.1922
  192MOL0     H26488   0.648   1.203   1.096 -0.4896 -0.2589 -1.2209
  192MOL0     H26489   0.531   1.142   1.210  1.0142  0.3969 -0.5725
  192MOL0     H26490   0.847   1.121   1.254  0.4151 -0.3357  2.4016
  192MOL0     H26491   0.718   1.048   1.353  1.5845 -0.3689 -0.2181
  192MOL0     H26492   0.729   1.448   1.476 -0.4715  0.0465  0.3850
  192MOL0     H26493   0.827   0.944   0.866  0.3252  0.9152 -1.3925
  192MOL0     H26494   1.096   0.851   0.835 -1.6839  0.4018  0.6160
  192MOL0     H26495   1.073   0.830   0.666 -0.2042 -0.9506  0.6363
  192MOL0     H26496   0.995   0.963   0.741 -1.2299  0.0566 -3.0189
  193MOL0     O26497   1.473   7.555   9.609 -0.6600 -0.2723  0.5063
  193MOL0     C26498   1.386   7.562   9.517 -0.4505 -0.8604 -0.1154
  193MOL0     O26499   1.292   7.474   9.498 -0.1276  0.3822 -0.6322
  193MOL0     C26500   1.277   7.373   9.594  0.4747 -0.2160  0.1520
  193MOL0     C26501   1.372   7.281   9.641  1.1876  0.7252  0.2809
  193MOL0     C26502   1.337   7.194   9.744 -1.1786  0.5047  0.9604
  193MOL0     C26503   1.213   7.191   9.798  0.4417  0.0902  0.1689
  193MOL0     O26504   1.170   7.113   9.902 -0.3687  0.0966  0.5977
  193MOL0     C26505   1.277   7.046   9.976 -0.3570 -0.5390  0.4109
  193MOL0     C26506   1.214   6.949  10.075  0.1433  0.3217 -0.1237
  193MOL0     C26507   1.318   6.922  10.187 -0.8757 -0.9361  0.3038
  193MOL0     C26508   1.270   6.808  10.272 -0.0627  1.2020 -0.5355
  193MOL0     C26509   1.135   6.838  10.351 -0.9350 -0.9051 -0.0625
  193MOL0     C26510   1.088   6.716  10.432 -0.0749  0.2428  0.0024
  193MOL0     C26511   0.938   6.710  10.435 -0.2704 -0.2382 -0.6563
  193MOL0     C26512   0.891   6.572  10.492  0.4523 -0.5574  0.6709
  193MOL0     N26513   0.865   6.570  10.630 -0.0496 -0.0832 -1.2855
  193MOL0     C26514   0.785   6.663  10.690 -0.3160 -0.6950 -1.2200
  193MOL0     C26515   0.798   6.631  10.823 -0.0803 -0.8183 -0.6411
  193MOL0     C26516   0.730   6.704  10.935  0.7191 -0.7804  0.2042
  193MOL0     C26517   0.828   6.807  11.000 -0.4175  0.2892 -0.1487
  193MOL0     C26518   0.966   6.753  11.054  0.0013  0.2329  0.6416
  193MOL0     C26519   1.083   6.795  10.955 -0.6900 -0.2185 -0.2798
  193MOL0     O26520   1.194   6.731  11.014  0.1510  0.2713  0.5846
  193MOL0     C26521   1.288   6.691  10.917  0.5183  0.4657  0.2509
  193MOL0     C26522   1.407   6.755  10.909 -0.0540  0.0173 -0.3388
  193MOL0     C26523   1.523   6.702  10.839  0.1274 -0.0021 -0.0763
  193MOL0     C26524   1.649   6.775  10.869 -0.2077  0.8669 -0.6903
  193MOL0     C26525   1.495   6.595  10.746  0.7941 -0.2425  0.3005
  193MOL0     C26526   1.597   6.514  10.688  0.4935 -0.1979 -0.2406
  193MOL0     O26527   1.603   6.396  10.737 -0.5179  0.5994  0.8670
  193MOL0     C26528   1.722   6.336  10.714 -0.7275 -0.0802  0.8062
  193MOL0     C26529   1.833   6.368  10.796  0.0711  0.3798 -0.3810
  193MOL0     C26530   1.954   6.311  10.779  0.0641  0.4992  0.0884
  193MOL0     C26531   1.982   6.219  10.675  0.6381  0.2440 -0.5716
  193MOL0     O26532   2.097   6.148  10.651 -0.1033 -0.2474  0.8776
  193MOL0     C26533   2.212   6.128  10.730  0.3055 -0.4431 -0.2603
  193MOL0     C26534   2.325   6.046  10.649 -0.7295  0.3150 -0.8655
  193MOL0     C26535   2.379   6.129  10.527 -0.7641  0.6717 -1.5376
  193MOL0     C26536   2.519   6.104  10.505 -0.1179 -0.3452 -0.7516
  193MOL0     C26537   2.538   5.961  10.454  0.5934  0.2785 -0.0909
  193MOL0     C26538   2.685   5.939  10.406 -0.5912 -0.5854 -0.8009
  193MOL0     C26539   2.787   5.924  10.523  0.6460 -0.5205 -0.3645
  193MOL0     C26540   2.932   5.918  10.476 -0.6880  1.1115  0.3743
  193MOL0    Cl26541   2.998   6.031  10.352  0.4543 -0.3255 -0.0380
  193MOL0     C26542   1.873   6.195  10.591 -0.3945  1.1944 -0.5005
  193MOL0     C26543   1.743   6.239  10.608  0.7386  0.2962 -0.9423
  193MOL0     O26544   1.642   6.559  10.581  0.6422  0.2546 -0.1587
  193MOL0     C26545   1.363   6.540  10.742 -0.5446 -0.2556  0.2438
  193MOL0     C26546   1.264   6.586  10.825  1.3890 -0.8593 -0.5735
  193MOL0     N26547   0.886   6.515  10.831 -0.2123 -0.5249  1.0576
  193MOL0     N26548   0.920   6.480  10.704 -0.1100 -0.8577 -0.1769
  193MOL0     C26549   1.119   7.275   9.747 -0.4186 -0.9626  0.6762
  193MOL0     C26550   1.150   7.366   9.647 -0.1767 -0.3667  0.2208
  193MOL0     C26551   1.390   7.676   9.416  0.0110 -0.0387  0.0858
  193MOL0     C26552   1.298   7.681   9.317  0.6564  1.0423 -0.2627
  193MOL0     C26553   1.302   7.760   9.213  0.4423 -0.1594 -0.1571
  193MOL0     C26554   1.407   7.850   9.200  0.1176 -0.3974  0.3904
  193MOL0     O26555   1.408   7.928   9.087 -0.3029 -0.1192 -0.2711
  193MOL0     C26556   1.493   8.043   9.084  0.5833 -0.3682  0.3831
  193MOL0     C26557   1.452   8.150   9.189  0.6792 -0.0759  0.9749
  193MOL0     C26558   1.540   8.278   9.195  0.4535  0.3194  0.0274
  193MOL0     C26559   1.512   8.392   9.092  0.0149  0.3167 -0.8306
  193MOL0     C26560   1.523   8.349   8.945 -0.8242 -0.2380 -0.2566
  193MOL0     C26561   1.548   8.326   8.823 -0.0934  0.0844 -0.2204
  193MOL0     C26562   1.499   7.861   9.312  0.0754 -1.1686  0.4962
  193MOL0     C26563   1.495   7.774   9.420 -0.6689 -0.0545 -0.0950
  193MOL0     C26564   1.600   7.797   9.529 -0.5187 -0.0063 -0.9939
  193MOL0     H26565   1.475   7.287   9.607  0.9611 -1.2129 -0.9140
  193MOL0     H26566   1.417   7.131   9.783  1.1268  0.5755 -3.0703
  193MOL0     H26567   1.333   7.123  10.030 -0.3717 -1.0923  1.2433
  193MOL0     H26568   1.345   6.992   9.910 -0.0091  1.5431 -1.0082
  193MOL0     H26569   1.122   6.991  10.118  1.2788  2.5285  0.3005
  193MOL0     H26570   1.179   6.858  10.027  0.3586 -1.2142  2.4352
  193MOL0     H26571   1.416   6.899  10.144 -0.7182  2.0875 -1.2540
  193MOL0     H26572   1.333   7.009  10.251 -3.2688  0.5336 -0.9843
  193MOL0     H26573   1.253   6.727  10.200  0.6046  2.2422 -1.9035
  193MOL0     H26574   1.359   6.786  10.332  1.0550  2.4211 -1.6882
  193MOL0     H26575   1.063   6.864  10.273  0.6251  1.4325 -0.8494
  193MOL0     H26576   1.149   6.928  10.412 -0.6007 -0.5104 -0.7042
  193MOL0     H26577   1.131   6.626  10.388  1.3192  0.3297  1.0991
  193MOL0     H26578   1.131   6.716  10.533 -1.0465  1.2097  0.4437
  193MOL0     H26579   0.920   6.731  10.329  2.3319  1.1394 -0.9192
  193MOL0     H26580   0.897   6.793  10.494  1.5040  0.0214  0.3021
  193MOL0     H26581   0.800   6.553  10.435  0.0903 -2.5738  1.7994
  193MOL0     H26582   0.958   6.491  10.461  2.1187  1.2201 -0.6011
  193MOL0     H26583   0.725   6.746  10.655  0.9621  0.9708  0.3407
  193MOL0     H26584   0.694   6.650  11.023 -0.4380  0.4814  0.5278
  193MOL0     H26585   0.647   6.752  10.882  0.5475 -2.2694 -0.9421
  193MOL0     H26586   0.846   6.884  10.924  0.7016 -0.5265 -0.7413
  193MOL0     H26587   0.782   6.848  11.090 -0.2665 -0.0304  0.0734
  193MOL0     H26588   0.986   6.786  11.156 -2.6609 -1.2874  1.7767
  193MOL0     H26589   0.959   6.644  11.061 -0.3157  0.1926 -0.1881
  193MOL0     H26590   1.055   6.762  10.855  1.5445  0.0210 -1.0431
  193MOL0     H26591   1.105   6.901  10.945  2.7566 -0.8096 -0.4649
  193MOL0     H26592   1.408   6.847  10.967 -0.8709 -0.3512  0.2718
  193MOL0     H26593   1.679   6.763  10.973  0.3620 -3.2734 -1.1421
  193MOL0     H26594   1.621   6.878  10.848 -2.7135  0.2834 -0.5207
  193MOL0     H26595   1.737   6.753  10.807  0.2238  1.1524 -0.1786
  193MOL0     H26596   1.807   6.427  10.884 -0.1983 -0.4678  0.1156
  193MOL0     H26597   2.037   6.345  10.841 -0.3321 -0.1749  1.0076
  193MOL0     H26598   2.252   6.225  10.761 -0.8688  0.4355 -1.3690
  193MOL0     H26599   2.187   6.080  10.825  2.9664  1.2671  1.4403
  193MOL0     H26600   2.403   6.007  10.715 -2.9365  1.7845  2.9458
  193MOL0     H26601   2.275   5.955  10.614 -0.3059 -0.4669  0.5088
  193MOL0     H26602   2.359   6.235  10.543 -0.4432  0.1498  4.1065
  193MOL0     H26603   2.318   6.112  10.437 -1.3672 -0.0623 -1.0034
  193MOL0     H26604   2.575   6.112  10.599  0.4932  3.3005 -1.2924
  193MOL0     H26605   2.565   6.176  10.437  1.3947 -0.8800 -0.3340
  193MOL0     H26606   2.518   5.891  10.535  1.7743  0.1858  0.1355
  193MOL0     H26607   2.485   5.952  10.358 -0.8129 -2.0159  0.8230
  193MOL0     H26608   2.724   6.023  10.348 -0.2657 -1.6522 -2.1714
  193MOL0     H26609   2.684   5.846  10.348 -3.9784 -1.2365  0.0512
  193MOL0     H26610   2.755   5.844  10.591 -0.9327  1.2658  1.1164
  193MOL0     H26611   2.787   6.021  10.574  0.2319 -0.3666 -0.6531
  193MOL0     H26612   2.958   5.818  10.440  2.2771  0.6680  3.2651
  193MOL0     H26613   2.995   5.925  10.565  1.3509 -0.3606 -0.8683
  193MOL0     H26614   1.903   6.123  10.516  0.6657 -0.9722  1.8911
  193MOL0     H26615   1.662   6.214  10.539 -2.0095 -0.1304  2.2006
  193MOL0     H26616   1.341   6.456  10.677 -1.8214 -0.4935  0.9617
  193MOL0     H26617   1.163   6.548  10.809 -1.1053  4.4811  0.3862
  193MOL0     H26618   1.017   7.276   9.785 -0.3304  0.3411  0.9073
  193MOL0     H26619   1.076   7.443   9.629  2.2947  1.5645 -2.6832
  193MOL0     H26620   1.232   7.595   9.325  2.8091 -0.6034  1.1463
  193MOL0     H26621   1.230   7.763   9.132 -1.1711  0.5635  1.2600
  193MOL0     H26622   1.598   8.015   9.084  1.4811  2.6493 -0.1580
  193MOL0     H26623   1.473   8.082   8.983  3.0207 -0.7746 -0.3111
  193MOL0     H26624   1.440   8.103   9.287 -0.4502  1.0315  1.4049
  193MOL0     H26625   1.345   8.164   9.170  1.0514 -1.2229 -2.8047
  193MOL0     H26626   1.543   8.314   9.298 -0.0030 -0.9658  0.5033
  193MOL0     H26627   1.635   8.247   9.149  0.6151 -0.3643  0.8064
  193MOL0     H26628   1.590   8.468   9.107 -0.1981  0.6169 -1.2010
  193MOL0     H26629   1.418   8.440   9.119  0.7352  0.6471  1.2489
  193MOL0     H26630   1.564   8.309   8.718  2.3563  0.7229 -0.0160
  193MOL0     H26631   1.575   7.939   9.310 -1.7678  0.7498  1.2124
  193MOL0     H26632   1.675   7.869   9.495  0.7844 -0.4255  0.8085
  193MOL0     H26633   1.559   7.842   9.620  3.3958  0.1187  0.9295
  193MOL0     H26634   1.661   7.714   9.567  2.8724  3.2645  1.5012
  194MOL0     O26635   4.019   2.657   6.806  1.3265 -0.7812  0.3558
  194MOL0     C26636   4.061   2.544   6.828  0.3702 -0.1273 -0.1254
  194MOL0     O26637   4.007   2.432   6.774  0.3500 -0.2064 -0.4055
  194MOL0     C26638   3.905   2.448   6.677 -0.3535  0.0661 -0.8422
  194MOL0     C26639   3.770   2.413   6.710 -1.0546  0.3360 -0.6799
  194MOL0     C26640   3.679   2.425   6.611  0.1951 -0.0820  0.7407
  194MOL0     C26641   3.705   2.487   6.493 -0.3022  0.2665  0.1350
  194MOL0     O26642   3.599   2.508   6.408 -0.3298  0.9565 -0.9439
  194MOL0     C26643   3.612   2.627   6.318 -0.5358  0.3664 -0.8193
  194MOL0     C26644   3.531   2.742   6.381 -0.1552 -0.3945 -0.0487
  194MOL0     C26645   3.580   2.799   6.508  0.4179  0.0992  0.1160
  194MOL0     C26646   3.512   2.751   6.636  0.5492 -0.2506  0.2616
  194MOL0     C26647   3.563   2.830   6.754  0.2289  0.6944 -0.1300
  194MOL0     C26648   3.712   2.809   6.793 -0.0820  0.4795  0.5468
  194MOL0     C26649   3.756   2.884   6.918 -0.7729 -0.8148 -0.6661
  194MOL0     C26650   3.791   3.022   6.876 -0.2750 -0.0530 -0.7450
  194MOL0     N26651   3.832   3.091   7.000 -0.0783 -0.4477  0.0516
  194MOL0     C26652   3.959   3.103   7.045  0.1557 -0.3691  1.0013
  194MOL0     C26653   3.949   3.189   7.148  0.4489 -0.0955 -0.0660
  194MOL0     C26654   4.060   3.231   7.241 -0.3511 -0.2706 -0.0813
  194MOL0     C26655   4.123   3.368   7.210 -0.0517 -0.2879 -0.6427
  194MOL0     C26656   4.030   3.487   7.189 -0.2268  0.6725  0.3077
  194MOL0     C26657   3.943   3.516   7.313  0.9339 -0.5518  0.1038
  194MOL0     O26658   3.872   3.641   7.284 -0.0605  0.2787 -0.2413
  194MOL0     C26659   3.809   3.708   7.394 -0.5243  0.1782 -0.4180
  194MOL0     C26660   3.744   3.830   7.366 -0.1820 -0.5582  0.3396
  194MOL0     C26661   3.677   3.911   7.464  0.6179 -0.1382 -0.5328
  194MOL0     C26662   3.608   4.038   7.417  0.3849  0.6855  0.6205
  194MOL0     C26663   3.685   3.875   7.598 -0.6858 -1.1918 -0.9712
  194MOL0     C26664   3.641   3.958   7.719  0.5132  0.7552  0.6395
  194MOL0     O26665   3.545   4.053   7.699  0.4466 -0.9475  0.5188
  194MOL0     C26666   3.494   4.141   7.796  0.4650  0.9783 -0.3957
  194MOL0     C26667   3.510   4.139   7.932 -0.2192 -0.2904  0.8507
  194MOL0     C26668   3.458   4.245   8.014 -0.5116  0.0687 -0.2698
  194MOL0     C26669   3.390   4.349   7.950 -0.5092  0.1802 -0.8145
  194MOL0     O26670   3.338   4.443   8.032  0.5860 -0.9762 -0.5183
  194MOL0     C26671   3.319   4.579   7.983 -0.2367  0.5284  0.4475
  194MOL0     C26672   3.255   4.654   8.104 -0.3230 -1.1439  0.2157
  194MOL0     C26673   3.221   4.797   8.051  0.8370  0.1974  0.3190
  194MOL0     C26674   3.120   4.855   8.145 -0.3676 -0.5321  0.0681
  194MOL0     C26675   3.125   5.011   8.141 -0.2828 -0.5109  0.5587
  194MOL0     C26676   2.978   5.056   8.110 -0.3972 -0.3335  0.9009
  194MOL0     C26677   2.958   5.209   8.150  0.3914  0.2647 -0.2415
  194MOL0     C26678   3.059   5.309   8.102 -0.2300  0.4781  0.0856
  194MOL0    Cl26679   3.019   5.342   7.915  0.0969  0.4856  0.3258
  194MOL0     C26680   3.375   4.355   7.808 -0.5003  0.3971  0.0256
  194MOL0     C26681   3.432   4.251   7.734  0.9529 -0.5245  0.6729
  194MOL0     O26682   3.656   3.892   7.824 -0.2383 -0.1998 -0.2491
  194MOL0     C26683   3.764   3.757   7.623  0.5350  0.3229  0.0505
  194MOL0     C26684   3.809   3.673   7.523 -0.0594 -0.9265  0.2718
  194MOL0     N26685   3.819   3.241   7.153 -0.1094  0.9135 -0.5613
  194MOL0     N26686   3.749   3.188   7.053  0.2110  0.1597 -0.1056
  194MOL0     C26687   3.839   2.516   6.457  0.2626  0.0338  0.6876
  194MOL0     C26688   3.942   2.502   6.552 -0.2956 -0.5114 -0.4537
  194MOL0     C26689   4.166   2.520   6.925  0.3731 -0.7111  0.2020
  194MOL0     C26690   4.158   2.604   7.040 -0.1458  0.8520  0.7000
  194MOL0     C26691   4.260   2.597   7.138 -0.4859 -0.3219 -0.5212
  194MOL0     C26692   4.377   2.523   7.118 -0.6569 -0.9535  0.2998
  194MOL0     O26693   4.481   2.529   7.206 -0.5946 -0.3387 -0.4957
  194MOL0     C26694   4.611   2.531   7.155 -0.0236 -0.4871 -0.1284
  194MOL0     C26695   4.699   2.612   7.249  0.6629  0.3922  0.2465
  194MOL0     C26696   4.849   2.585   7.216 -0.1848  0.5274 -0.1421
  194MOL0     C26697   4.955   2.666   7.297  0.6802 -0.0091 -0.1171
  194MOL0     C26698   4.998   2.788   7.225 -0.0647  1.2300 -0.0935
  194MOL0     C26699   5.015   2.898   7.179 -0.2035 -0.1783  0.1104
  194MOL0     C26700   4.384   2.441   7.001 -0.2097 -0.4561  0.6401
  194MOL0     C26701   4.282   2.446   6.908  0.0713 -0.3113  0.5124
  194MOL0     C26702   4.304   2.363   6.780 -0.8949 -0.3099 -1.4454
  194MOL0     H26703   3.748   2.370   6.807 -2.3342 -0.5514 -1.3413
  194MOL0     H26704   3.572   2.417   6.630 -0.0827  1.4902 -0.0031
  194MOL0     H26705   3.557   2.586   6.233 -3.5603 -1.7289  1.8978
  194MOL0     H26706   3.713   2.661   6.290 -0.7039  2.3526  0.7155
  194MOL0     H26707   3.541   2.830   6.316 -1.2351 -0.1058  0.1569
  194MOL0     H26708   3.426   2.712   6.386  0.2347 -1.5544  2.2808
  194MOL0     H26709   3.687   2.780   6.505  0.0635 -1.9268 -1.7256
  194MOL0     H26710   3.554   2.905   6.501 -2.2076 -0.5949 -3.0425
  194MOL0     H26711   3.405   2.772   6.629  0.9345  1.2518 -2.2837
  194MOL0     H26712   3.524   2.642   6.638 -1.3984 -0.5011  0.8472
  194MOL0     H26713   3.506   2.816   6.846  2.1157  0.2765  1.0357
  194MOL0     H26714   3.555   2.938   6.735  0.8561  1.0175  1.3142
  194MOL0     H26715   3.715   2.700   6.801 -1.5179  0.4668  1.0352
  194MOL0     H26716   3.780   2.834   6.710  1.3197 -2.6044  0.6149
  194MOL0     H26717   3.850   2.836   6.947  0.6821  2.1085 -0.0524
  194MOL0     H26718   3.691   2.889   7.005  0.7538  3.4050  0.4820
  194MOL0     H26719   3.865   3.021   6.795 -0.2952 -0.6939 -0.7629
  194MOL0     H26720   3.699   3.064   6.834  1.4890  1.8193 -2.9644
  194MOL0     H26721   4.053   3.057   7.016  0.7862  1.7659 -0.5742
  194MOL0     H26722   4.143   3.160   7.239  1.0090  1.2246  0.8805
  194MOL0     H26723   4.004   3.228   7.335 -0.5516  0.8040 -0.1549
  194MOL0     H26724   4.199   3.393   7.285  1.5468 -1.1025 -1.9381
  194MOL0     H26725   4.165   3.354   7.110  3.4051  3.0709  0.1052
  194MOL0     H26726   4.084   3.579   7.162  0.7548  0.2684  0.8736
  194MOL0     H26727   3.956   3.464   7.111 -0.1448  0.4384  0.3004
  194MOL0     H26728   3.870   3.437   7.334 -1.5715  1.3054 -1.0730
  194MOL0     H26729   4.012   3.524   7.397  1.8956 -3.0452 -0.3503
  194MOL0     H26730   3.730   3.865   7.264  1.4697 -1.6719 -0.3114
  194MOL0     H26731   3.655   4.066   7.323 -0.0102 -0.0304  0.2042
  194MOL0     H26732   3.617   4.121   7.488  2.7362  0.0694  1.1230
  194MOL0     H26733   3.500   4.023   7.416  0.6627 -1.6082 -1.2647
  194MOL0     H26734   3.545   4.047   7.977 -2.0943 -1.5310 -0.0988
  194MOL0     H26735   3.472   4.250   8.121 -1.1957  0.6559 -0.1998
  194MOL0     H26736   3.421   4.614   7.964  0.1305 -1.6831 -2.5026
  194MOL0     H26737   3.264   4.586   7.888 -0.3252  0.0650  0.4628
  194MOL0     H26738   3.172   4.596   8.143  0.1755 -0.3653  2.5699
  194MOL0     H26739   3.332   4.664   8.180 -0.6426  1.8472  0.2774
  194MOL0     H26740   3.175   4.799   7.952  1.3282  2.1794  0.0954
  194MOL0     H26741   3.299   4.873   8.049 -0.4643  1.6601  2.1615
  194MOL0     H26742   3.158   4.821   8.242 -1.3606 -2.2334 -0.0903
  194MOL0     H26743   3.023   4.804   8.143  0.8435 -2.9463 -1.5443
  194MOL0     H26744   3.157   5.046   8.240 -0.3529 -0.5932  0.6108
  194MOL0     H26745   3.196   5.046   8.066 -1.5230 -2.3731 -1.5991
  194MOL0     H26746   2.897   5.005   8.165 -0.1555 -2.2704 -0.4464
  194MOL0     H26747   2.953   5.049   8.004 -0.2135  3.2744  0.5224
  194MOL0     H26748   2.952   5.209   8.259 -2.3925 -3.0803 -0.2076
  194MOL0     H26749   2.862   5.232   8.103  0.7007  0.1109 -0.9676
  194MOL0     H26750   3.159   5.274   8.129  1.4330  2.9672 -2.2902
  194MOL0     H26751   3.040   5.406   8.149  0.9202 -0.5688  2.9841
  194MOL0     H26752   3.312   4.430   7.762 -0.7595 -1.5231 -2.9959
  194MOL0     H26753   3.415   4.258   7.627 -1.6458  0.3536  1.0719
  194MOL0     H26754   3.800   3.732   7.722  0.4544  0.6983  0.1789
  194MOL0     H26755   3.862   3.582   7.546 -0.9598 -1.9425 -1.4876
  194MOL0     H26756   3.867   2.560   6.362 -0.8491  3.3755  1.7852
  194MOL0     H26757   4.041   2.543   6.537 -1.6731  3.0208 -1.0411
  194MOL0     H26758   4.080   2.680   7.044 -0.7648  0.2562  0.3286
  194MOL0     H26759   4.249   2.644   7.235 -2.7295 -1.6961 -0.0331
  194MOL0     H26760   4.652   2.430   7.146  2.1203  0.4693 -2.3332
  194MOL0     H26761   4.617   2.571   7.053  0.0938 -5.8545 -2.5402
  194MOL0     H26762   4.682   2.613   7.357 -0.1123 -1.3349  0.1641
  194MOL0     H26763   4.676   2.715   7.221  0.3220 -0.7215 -4.3092
  194MOL0     H26764   4.858   2.476   7.229 -0.2447  0.7154  1.8524
  194MOL0     H26765   4.872   2.599   7.110  0.5938  0.9602  0.0795
  194MOL0     H26766   5.048   2.609   7.310  1.0702  0.9578  1.7058
  194MOL0     H26767   4.917   2.689   7.397 -3.6599 -0.1369 -1.5321
  194MOL0     H26768   5.037   2.990   7.127 -0.3948  0.7611  1.6284
  194MOL0     H26769   4.475   2.385   6.985  0.5731  1.2275 -1.1886
  194MOL0     H26770   4.211   2.309   6.763 -1.7071  1.0622 -1.4987
  194MOL0     H26771   4.327   2.423   6.691  1.1401 -0.6838 -1.2226
  194MOL0     H26772   4.379   2.284   6.793  0.7051  0.8368 -3.1838
  195MOL0     O26773   3.230   9.993   1.364 -0.0546 -0.1563 -0.6240
  195MOL0     C26774   3.326   9.946   1.300 -0.6635  0.6286  0.1695
  195MOL0     O26775   3.456   9.953   1.337  0.0179  0.1278  0.1988
  195MOL0     C26776   3.495  10.046   1.428  0.4396  1.0652 -1.1206
  195MOL0     C26777   3.527  10.169   1.384  0.0041 -0.3064 -0.1746
  195MOL0     C26778   3.561  10.272   1.476 -0.1490 -0.0348  0.0238
  195MOL0     C26779   3.570  10.240   1.623 -0.0182 -0.0624 -0.0520
  195MOL0     O26780   3.628  10.327   1.709 -0.5000 -0.0104 -0.5141
  195MOL0     C26781   3.709  10.275   1.812 -0.2420  0.3548 -0.7430
  195MOL0     C26782   3.788  10.393   1.865  0.0034  0.6962  0.3601
  195MOL0     C26783   3.867  10.455   1.749 -0.4246  0.2213  0.5246
  195MOL0     C26784   3.959  10.571   1.804 -0.8842  0.0167  0.3086
  195MOL0     C26785   4.021  10.648   1.687 -0.2907 -0.1341  0.5343
  195MOL0     C26786   4.152  10.588   1.639 -0.3031 -0.0290 -0.5724
  195MOL0     C26787   4.216  10.665   1.516 -0.3275  1.0505 -0.9170
  195MOL0     C26788   4.138  10.678   1.378  0.0734  0.0830 -0.4216
  195MOL0     N26789   4.097  10.541   1.343 -0.0447  0.4130 -0.0930
  195MOL0     C26790   3.975  10.508   1.280 -0.0423  0.2586 -0.7573
  195MOL0     C26791   3.976  10.382   1.243  0.4274 -0.3685 -0.6265
  195MOL0     C26792   3.865  10.305   1.180 -0.1650  0.1161 -0.2178
  195MOL0     C26793   3.876  10.151   1.195  0.0451  0.1334 -0.6263
  195MOL0     C26794   3.780  10.080   1.109 -1.1176 -1.1756 -0.6113
  195MOL0     C26795   3.832   9.943   1.077  0.0840 -0.0444 -0.2201
  195MOL0     O26796   3.858   9.870   1.197 -0.3087  0.8775 -0.2449
  195MOL0     C26797   3.959   9.776   1.187 -0.3311  0.3219  0.1539
  195MOL0     C26798   4.042   9.743   1.076 -0.5528 -0.1553 -0.2384
  195MOL0     C26799   4.153   9.647   1.090  0.6463 -0.2171 -0.0901
  195MOL0     C26800   4.216   9.608   0.958 -0.6055  0.2777 -0.1886
  195MOL0     C26801   4.191   9.598   1.218  0.6922  0.2564 -0.2909
  195MOL0     C26802   4.301   9.496   1.237 -0.0597  0.8309  0.2598
  195MOL0     O26803   4.294   9.432   1.353 -0.1356 -0.0433  0.7881
  195MOL0     C26804   4.412   9.406   1.428  0.6766  0.5215 -0.5049
  195MOL0     C26805   4.446   9.274   1.449 -0.0885 -0.2164  0.4120
  195MOL0     C26806   4.559   9.242   1.521  1.0882  0.5242 -0.5767
  195MOL0     C26807   4.627   9.338   1.595  0.2828  0.1080  0.5807
  195MOL0     O26808   4.727   9.308   1.686  0.7829  0.6415  0.1707
  195MOL0     C26809   4.759   9.168   1.715 -0.1895 -0.1033  0.9422
  195MOL0     C26810   4.865   9.151   1.830  0.2121  0.2376  0.0463
  195MOL0     C26811   4.842   9.240   1.948  0.2445  0.7372 -0.3174
  195MOL0     C26812   4.963   9.215   2.058 -0.7199 -0.1639  0.3632
  195MOL0     C26813   4.932   9.302   2.179  0.2522 -0.4099  0.1674
  195MOL0     C26814   4.987   9.229   2.305 -0.0872 -0.4294 -0.3753
  195MOL0     C26815   4.967   9.303   2.437  0.3399  0.0452 -0.9353
  195MOL0     C26816   4.823   9.375   2.459 -0.1829 -0.1183 -0.4476
  195MOL0    Cl26817   4.687   9.259   2.418 -0.1217 -0.1396 -0.1016
  195MOL0     C26818   4.601   9.474   1.558  0.4110 -0.4588 -0.0560
  195MOL0     C26819   4.492   9.507   1.478  0.9344 -0.4087 -0.3988
  195MOL0     O26820   4.395   9.476   1.159 -0.0701 -0.3652  0.3917
  195MOL0     C26821   4.118   9.646   1.331 -1.0177 -0.3420  0.4008
  195MOL0     C26822   4.004   9.726   1.310  0.4357 -0.0325 -0.4640
  195MOL0     N26823   4.108  10.340   1.272  0.6458 -0.3807 -0.0325
  195MOL0     N26824   4.182  10.435   1.319  0.0914 -0.2933  0.1216
  195MOL0     C26825   3.531  10.106   1.659  0.3611 -0.0126 -0.1295
  195MOL0     C26826   3.484  10.015   1.561  0.0226  0.7229 -0.1483
  195MOL0     C26827   3.299   9.862   1.178 -0.1035 -1.0970  0.1330
  195MOL0     C26828   3.408   9.792   1.118  0.3334 -0.3432  0.6446
  195MOL0     C26829   3.383   9.724   1.003  0.2386  0.5033  0.6155
  195MOL0     C26830   3.261   9.717   0.940 -0.0274  0.5440  0.0568
  195MOL0     O26831   3.258   9.647   0.821  0.4609  0.1110  0.2387
  195MOL0     C26832   3.154   9.653   0.727 -0.0858 -0.4720 -0.2398
  195MOL0     C26833   3.036   9.553   0.751 -0.1269  1.2530  0.6781
  195MOL0     C26834   3.071   9.420   0.676 -0.6488 -0.1940 -0.0784
  195MOL0     C26835   2.957   9.327   0.673  0.0472 -0.0597  0.5783
  195MOL0     C26836   2.968   9.218   0.573 -0.5924 -0.1095  0.1275
  195MOL0     C26837   2.968   9.135   0.486 -0.5244  0.1023 -0.0851
  195MOL0     C26838   3.152   9.776   1.005  0.6700  0.1906  0.3800
  195MOL0     C26839   3.172   9.841   1.124  0.3127 -0.2046 -0.1548
  195MOL0     C26840   3.057   9.916   1.189  0.5955 -0.2899 -0.8111
  195MOL0     H26841   3.538  10.193   1.279 -2.0909 -2.3035 -0.9525
  195MOL0     H26842   3.586  10.373   1.445  3.1337 -0.3709  1.1400
  195MOL0     H26843   3.782  10.205   1.772  0.1479  1.5178 -2.1750
  195MOL0     H26844   3.648  10.237   1.895  0.0975  1.1222 -0.1230
  195MOL0     H26845   3.714  10.468   1.894  0.0852  1.0182 -0.2466
  195MOL0     H26846   3.849  10.341   1.939 -0.8342  2.4548  2.3683
  195MOL0     H26847   3.923  10.379   1.695 -1.7300 -0.4151  0.0248
  195MOL0     H26848   3.809  10.499   1.667  0.8813 -1.6840 -1.5402
  195MOL0     H26849   3.902  10.629   1.876 -0.0132 -1.5308  2.3623
  195MOL0     H26850   4.042  10.527   1.860 -1.3713 -0.4432  0.6808
  195MOL0     H26851   4.040  10.752   1.716 -0.6331 -0.2439  1.1675
  195MOL0     H26852   3.954  10.666   1.603  2.1785  4.2181 -0.8528
  195MOL0     H26853   4.222  10.596   1.723  0.3643 -1.5216 -0.9530
  195MOL0     H26854   4.144  10.482   1.615  4.5425 -0.9377  0.7857
  195MOL0     H26855   4.313  10.622   1.489 -1.5045 -1.0179 -2.0941
  195MOL0     H26856   4.226  10.771   1.542 -0.6274  0.7274  0.6357
  195MOL0     H26857   4.048  10.740   1.385  1.1859  1.7101  0.1931
  195MOL0     H26858   4.205  10.720   1.302  2.0852  2.5884  2.4594
  195MOL0     H26859   3.882  10.562   1.269 -0.3538  0.3202  1.6684
  195MOL0     H26860   3.874  10.323   1.072  2.3782 -1.6713 -0.3998
  195MOL0     H26861   3.767  10.333   1.220 -0.7065 -1.3414 -0.4595
  195MOL0     H26862   3.977  10.118   1.165 -0.0401 -0.9166  0.1730
  195MOL0     H26863   3.858  10.128   1.300 -0.0525  2.3819 -0.1016
  195MOL0     H26864   3.679  10.099   1.147 -0.4377  3.7618 -0.7341
  195MOL0     H26865   3.766  10.119   1.007 -2.2935 -1.8692 -0.7432
  195MOL0     H26866   3.756   9.903   1.010  1.5772 -0.4168 -1.7631
  195MOL0     H26867   3.922   9.951   1.015  0.2051  1.3114  0.0927
  195MOL0     H26868   4.013   9.769   0.974 -2.7946 -0.3159  0.2907
  195MOL0     H26869   4.324   9.627   0.951 -0.2948 -1.2922 -0.1279
  195MOL0     H26870   4.169   9.650   0.869  0.4076  0.6971 -0.5468
  195MOL0     H26871   4.201   9.500   0.954 -1.8390  0.4413 -0.3523
  195MOL0     H26872   4.387   9.190   1.413  0.9936 -1.6978  1.8976
  195MOL0     H26873   4.574   9.136   1.539  1.2197  0.8087  1.1378
  195MOL0     H26874   4.665   9.121   1.745  0.3582 -0.6994  1.7572
  195MOL0     H26875   4.792   9.119   1.623 -4.4071 -1.2863 -0.1667
  195MOL0     H26876   4.871   9.047   1.864  1.5230  0.1437 -0.4190
  195MOL0     H26877   4.969   9.171   1.803  0.8896  0.0136  2.3513
  195MOL0     H26878   4.744   9.203   1.981 -0.6655  1.1577 -2.3889
  195MOL0     H26879   4.834   9.347   1.926  1.8599  1.2969  1.5655
  195MOL0     H26880   5.064   9.240   2.026 -0.1666 -1.1734  1.2408
  195MOL0     H26881   4.957   9.110   2.090  0.9460 -0.0704  1.0655
  195MOL0     H26882   4.962   9.406   2.163  1.8840 -0.5308  2.0022
  195MOL0     H26883   4.826   9.314   2.200  0.7429  3.7316  1.2409
  195MOL0     H26884   5.094   9.212   2.296  0.3186 -2.2786  4.5848
  195MOL0     H26885   4.940   9.130   2.312 -3.5046  0.3876 -6.0153
  195MOL0     H26886   5.042   9.381   2.451  1.5868 -1.5428  2.0457
  195MOL0     H26887   4.971   9.231   2.519 -2.4629 -0.5108 -1.1905
  195MOL0     H26888   4.808   9.467   2.402 -1.7528  2.5851  3.8182
  195MOL0     H26889   4.818   9.396   2.566  2.8834 -1.7207  0.1191
  195MOL0     H26890   4.661   9.547   1.612  0.6981 -2.1650  2.0334
  195MOL0     H26891   4.480   9.611   1.449 -1.6909 -0.1233  1.4456
  195MOL0     H26892   4.148   9.630   1.434 -2.0557  2.1663  1.1505
  195MOL0     H26893   3.952   9.767   1.396 -1.0948 -0.1926 -1.2746
  195MOL0     H26894   3.520  10.073   1.762  0.8106 -0.8028 -0.3261
  195MOL0     H26895   3.442   9.921   1.594  0.0034  0.9078  0.3599
  195MOL0     H26896   3.505   9.810   1.162 -0.5237 -1.0123  2.9547
  195MOL0     H26897   3.461   9.668   0.953 -3.1326 -3.0521 -1.2428
  195MOL0     H26898   3.110   9.753   0.733  2.7592  0.8239  1.4019
  195MOL0     H26899   3.208   9.648   0.632 -1.3814  0.4549 -1.0638
  195MOL0     H26900   2.944   9.592   0.707 -0.7205 -0.5509  0.2289
  195MOL0     H26901   3.023   9.540   0.859  0.6696  2.5820  0.9606
  195MOL0     H26902   3.099   9.453   0.576  0.0891 -0.4858  0.0312
  195MOL0     H26903   3.159   9.367   0.712 -3.4839 -4.4665  1.3514
  195MOL0     H26904   2.874   9.386   0.632  0.7916 -0.6126 -1.8953
  195MOL0     H26905   2.938   9.292   0.775 -0.4436 -0.4404  0.3612
  195MOL0     H26906   2.945   9.058   0.415  0.0743  1.4586 -1.8292
  195MOL0     H26907   3.057   9.753   0.958 -1.6577  3.4606  2.9717
  195MOL0     H26908   3.044   9.885   1.293  2.3844  1.9337  0.1575
  195MOL0     H26909   3.075  10.023   1.184  0.5900 -0.2410  0.1332
  195MOL0     H26910   2.958   9.900   1.144 -2.1940  4.2031  2.8784
  196MOL0     O26911   6.318   3.767   8.509  0.1167  0.0489 -0.0620
  196MOL0     C26912   6.217   3.815   8.465  0.9996  0.4917  0.1460
  196MOL0     O26913   6.090   3.816   8.523 -0.0414 -0.5805 -0.6539
  196MOL0     C26914   6.054   3.776   8.649  0.6273  0.2373 -0.5351
  196MOL0     C26915   6.130   3.776   8.766 -0.7234  0.6381 -0.0309
  196MOL0     C26916   6.086   3.727   8.885 -0.2046 -0.2669 -0.5633
  196MOL0     C26917   5.952   3.689   8.900  0.3871  0.0244  0.6655
  196MOL0     O26918   5.892   3.645   9.020 -0.6807  0.4685 -0.2324
  196MOL0     C26919   5.826   3.520   9.029  0.2039 -0.4212  0.7055
  196MOL0     C26920   5.737   3.536   9.153  0.2953 -0.4705 -0.5043
  196MOL0     C26921   5.608   3.614   9.127 -0.0427 -0.3926  0.3278
  196MOL0     C26922   5.530   3.654   9.250  0.8163  0.4602  0.7245
  196MOL0     C26923   5.385   3.686   9.235  0.8788 -0.6046  0.0649
  196MOL0     C26924   5.339   3.755   9.367 -0.1526  0.1650  0.6170
  196MOL0     C26925   5.195   3.806   9.360  0.5762 -0.0035  0.6971
  196MOL0     C26926   5.140   3.882   9.478 -0.1235  0.1704 -1.3437
  196MOL0     N26927   5.233   4.000   9.491  1.0132 -0.1146  0.0004
  196MOL0     C26928   5.345   3.989   9.567  0.3002  0.1603 -0.9617
  196MOL0     C26929   5.401   4.107   9.551  0.7908  0.6279  0.2062
  196MOL0     C26930   5.542   4.142   9.621  0.5447 -1.1936  0.5874
  196MOL0     C26931   5.518   4.255   9.726 -0.4241  0.0061  0.1377
  196MOL0     C26932   5.658   4.307   9.779 -0.3682  0.4459  0.4039
  196MOL0     C26933   5.679   4.269   9.923  0.8917  0.3955 -0.3819
  196MOL0     O26934   5.801   4.326   9.981  0.3962 -0.9558 -0.2264
  196MOL0     C26935   5.928   4.286   9.961  0.1484  0.7989 -0.0387
  196MOL0     C26936   5.970   4.204   9.856  0.5094  0.2308 -0.1966
  196MOL0     C26937   6.100   4.176   9.830 -0.6140  0.6985 -0.1886
  196MOL0     C26938   6.127   4.073   9.726 -0.2534 -0.0902 -0.5170
  196MOL0     C26939   6.203   4.246   9.906 -0.0366 -0.1485  0.0880
  196MOL0     C26940   6.354   4.209   9.891  0.0456  0.0510 -1.0441
  196MOL0     O26941   6.445   4.298   9.944  0.2063  0.1399  0.3340
  196MOL0     C26942   6.574   4.257   9.954 -0.1335 -0.1721  0.8035
  196MOL0     C26943   6.682   4.317   9.875  0.4275 -0.2893 -0.3041
  196MOL0     C26944   6.812   4.295   9.892 -0.6468 -0.3484 -0.5276
  196MOL0     C26945   6.856   4.206   9.993  0.6030  0.3088 -0.2389
  196MOL0     O26946   6.984   4.181  10.028  0.6244 -0.3677 -0.0393
  196MOL0     C26947   7.087   4.257   9.969 -0.3110 -0.5135  0.9957
  196MOL0     C26948   7.128   4.179   9.856  0.4801  0.1310  0.2053
  196MOL0     C26949   7.253   4.224   9.793 -0.4880  0.5491  0.9870
  196MOL0     C26950   7.381   4.228   9.886  0.6222 -0.0115 -1.2164
  196MOL0     C26951   7.514   4.240   9.816 -0.2613 -0.1873 -0.6667
  196MOL0     C26952   7.556   4.122   9.727 -1.3460  0.0904 -0.1180
  196MOL0     C26953   7.705   4.130   9.681  1.1334  0.6252  0.0184
  196MOL0     C26954   7.741   3.986   9.639 -0.7552 -0.0667  0.2856
  196MOL0    Cl26955   7.915   3.977   9.593  0.4123  0.3520  0.4293
  196MOL0     C26956   6.758   4.143  10.072 -0.4278  0.9940 -0.3872
  196MOL0     C26957   6.619   4.163  10.049 -0.3684 -0.7114 -1.3095
  196MOL0     O26958   6.385   4.108   9.828  0.2072  0.1647 -0.4701
  196MOL0     C26959   6.165   4.330  10.014  0.1790 -1.2153  0.4899
  196MOL0     C26960   6.023   4.339  10.045  0.9166 -0.5212  0.2734
  196MOL0     N26961   5.320   4.184   9.468  1.0579  0.4977 -0.3333
  196MOL0     N26962   5.218   4.114   9.426 -0.5504  0.3864  0.2080
  196MOL0     C26963   5.866   3.705   8.788  0.5943 -0.2012 -0.5519
  196MOL0     C26964   5.918   3.743   8.666  0.6251  0.3182  1.6339
  196MOL0     C26965   6.232   3.874   8.329 -0.2689 -0.8739 -0.7305
  196MOL0     C26966   6.328   3.977   8.317  0.4608  0.2980 -0.0360
  196MOL0     C26967   6.334   4.048   8.194  0.0236  0.6959 -0.8103
  196MOL0     C26968   6.241   4.019   8.091 -0.1537 -0.5082 -0.4267
  196MOL0     O26969   6.222   4.078   7.970 -0.7792 -0.7955 -0.2261
  196MOL0     C26970   6.335   4.143   7.914 -0.8723 -0.0999  0.5295
  196MOL0     C26971   6.339   4.111   7.764  0.2595 -0.5168 -0.0029
  196MOL0     C26972   6.266   4.229   7.679 -0.4756 -0.4370 -0.4065
  196MOL0     C26973   6.244   4.169   7.539 -0.6251  0.8251 -0.1891
  196MOL0     C26974   6.175   4.264   7.454 -0.1448  0.7752 -0.7397
  196MOL0     C26975   6.118   4.350   7.392 -0.1610  0.0467 -0.2016
  196MOL0     C26976   6.153   3.916   8.110 -0.2598  0.3244  0.6705
  196MOL0     C26977   6.148   3.842   8.235  0.1301  0.4147  0.7137
  196MOL0     C26978   6.050   3.730   8.244 -0.4648  0.4956  0.4758
  196MOL0     H26979   6.233   3.806   8.752 -0.6189  1.8222  2.6428
  196MOL0     H26980   6.158   3.717   8.965  0.0125 -0.8757 -0.8282
  196MOL0     H26981   5.895   3.435   9.035 -1.3148 -1.7838 -0.2850
  196MOL0     H26982   5.751   3.508   8.951 -0.5520  2.1359  0.9782
  196MOL0     H26983   5.709   3.435   9.185 -3.3440  0.1508 -1.2980
  196MOL0     H26984   5.795   3.580   9.235 -3.7008  1.9787  1.3355
  196MOL0     H26985   5.625   3.697   9.059 -0.1246 -1.0230 -0.4828
  196MOL0     H26986   5.551   3.537   9.074  1.6729 -1.4232 -0.1003
  196MOL0     H26987   5.538   3.573   9.323  1.0935 -0.8637 -0.7220
  196MOL0     H26988   5.587   3.727   9.308  1.0965  0.0294  0.9909
  196MOL0     H26989   5.329   3.594   9.219 -0.7072  0.5848 -1.5910
  196MOL0     H26990   5.358   3.747   9.148  1.5267 -1.9916 -1.1497
  196MOL0     H26991   5.349   3.687   9.452  1.4777 -3.5885 -2.2948
  196MOL0     H26992   5.408   3.840   9.373  0.8916 -0.5998 -0.2193
  196MOL0     H26993   5.114   3.737   9.335  0.3897  1.0696 -2.0471
  196MOL0     H26994   5.195   3.877   9.277  2.6711 -0.2231  0.4653
  196MOL0     H26995   5.041   3.926   9.468 -0.0463  0.2999 -1.5276
  196MOL0     H26996   5.144   3.816   9.566 -1.2636 -1.3206 -2.3659
  196MOL0     H26997   5.383   3.904   9.622  0.4349  1.0428  0.3488
  196MOL0     H26998   5.616   4.179   9.550 -0.5744  1.5355  0.7342
  196MOL0     H26999   5.582   4.050   9.666  1.4918 -1.2975 -0.4336
  196MOL0     H27000   5.469   4.337   9.674  2.8888  2.1219  0.0571
  196MOL0     H27001   5.452   4.216   9.804 -1.2546 -2.8222 -1.8313
  196MOL0     H27002   5.742   4.269   9.721  2.2975 -1.5866  5.0414
  196MOL0     H27003   5.660   4.416   9.772 -2.3139  0.7843  3.2760
  196MOL0     H27004   5.593   4.292   9.987  1.3129 -1.7952  1.0983
  196MOL0     H27005   5.671   4.160   9.921 -0.7854  0.4641  0.2201
  196MOL0     H27006   5.894   4.152   9.799  0.4516 -0.4493  0.4849
  196MOL0     H27007   6.183   4.112   9.640  1.6821  0.1963  0.8270
  196MOL0     H27008   6.037   4.028   9.682 -0.5340  0.0074 -0.0498
  196MOL0     H27009   6.178   3.996   9.784  1.4646  1.5802  0.2899
  196MOL0     H27010   6.645   4.386   9.800  2.8620  2.0554  0.5006
  196MOL0     H27011   6.877   4.350   9.825  0.4935  1.2079  1.7163
  196MOL0     H27012   7.043   4.353   9.940 -2.1231 -2.2603 -2.7317
  196MOL0     H27013   7.170   4.279  10.037  1.9123  2.1310 -2.2690
  196MOL0     H27014   7.150   4.076   9.886  1.4159 -0.1418 -1.2988
  196MOL0     H27015   7.051   4.176   9.778  0.9255  0.4963 -0.2502
  196MOL0     H27016   7.239   4.323   9.749  0.9180  0.3331 -0.0010
  196MOL0     H27017   7.273   4.158   9.708  0.6881  4.0299 -1.7082
  196MOL0     H27018   7.390   4.139   9.949 -0.3631  0.3166 -0.5966
  196MOL0     H27019   7.378   4.314   9.953  1.0534  0.2595 -1.5345
  196MOL0     H27020   7.528   4.340   9.774  0.9239  2.1040  4.4115
  196MOL0     H27021   7.590   4.257   9.893 -1.2660  0.3681  0.2327
  196MOL0     H27022   7.491   4.117   9.639 -0.6284  0.9485 -0.7213
  196MOL0     H27023   7.550   4.033   9.790  0.9581  0.4499  0.7139
  196MOL0     H27024   7.766   4.155   9.768  1.7900 -1.9538  0.3641
  196MOL0     H27025   7.714   4.202   9.598 -0.9025 -1.5637 -2.2713
  196MOL0     H27026   7.683   3.956   9.551 -0.5088 -0.9015  0.3985
  196MOL0     H27027   7.731   3.923   9.728  1.6843  2.4183  2.5447
  196MOL0     H27028   6.786   4.080  10.156  0.0950 -0.0532 -1.3173
  196MOL0     H27029   6.547   4.107  10.108  1.8568 -3.2650 -0.8275
  196MOL0     H27030   6.247   4.385  10.060 -0.3382  2.2762 -2.2900
  196MOL0     H27031   5.986   4.417  10.112  0.3216  1.8076 -2.5737
  196MOL0     H27032   5.758   3.701   8.798  0.7047 -1.8338  0.2693
  196MOL0     H27033   5.846   3.766   8.588  0.8129  1.0452  1.6637
  196MOL0     H27034   6.394   4.004   8.399 -1.1863  3.9036  0.2733
  196MOL0     H27035   6.396   4.137   8.194  0.0758  0.8464  3.1083
  196MOL0     H27036   6.334   4.251   7.931  0.4481  0.1599 -0.8481
  196MOL0     H27037   6.428   4.108   7.958  0.0200  2.2377  0.6252
  196MOL0     H27038   6.289   4.014   7.748  1.1523 -0.5998 -2.8845
  196MOL0     H27039   6.441   4.106   7.725  0.4609  1.9299  0.1005
  196MOL0     H27040   6.173   4.249   7.733  0.7554  1.1563  1.2585
  196MOL0     H27041   6.321   4.323   7.678 -3.9628  1.8309  0.5703
  196MOL0     H27042   6.180   4.080   7.544 -0.8650  0.9578 -0.9135
  196MOL0     H27043   6.345   4.141   7.508  0.4891  2.5295  1.6725
  196MOL0     H27044   6.081   4.434   7.336  0.6881 -0.0268 -0.8940
  196MOL0     H27045   6.086   3.900   8.026  1.3725 -0.9772 -0.4430
  196MOL0     H27046   5.956   3.771   8.282  0.9261 -0.0856  5.3078
  196MOL0     H27047   6.035   3.670   8.154  4.1357 -1.4618  0.7319
  196MOL0     H27048   6.074   3.656   8.321  0.5524  0.0851 -0.2119
  197MOL0     O27049   4.905   4.246   1.295 -0.3220  0.0948  0.0330
  197MOL0     C27050   4.980   4.276   1.205  0.1473  0.2030  0.8262
  197MOL0     O27051   4.946   4.340   1.083  0.3165 -0.4694  0.1831
  197MOL0     C27052   4.816   4.394   1.070  0.2469 -0.9201  0.3831
  197MOL0     C27053   4.722   4.418   1.173  0.6946 -1.3983 -0.4838
  197MOL0     C27054   4.597   4.484   1.143  0.5853 -0.4854  0.2477
  197MOL0     C27055   4.563   4.515   1.004  0.3857  0.1015 -0.3934
  197MOL0     O27056   4.435   4.556   0.964  0.3536  0.1196 -0.3943
  197MOL0     C27057   4.371   4.651   1.052  0.4342 -0.2527 -0.7019
  197MOL0     C27058   4.254   4.592   1.139 -0.2683  1.5442 -0.4848
  197MOL0     C27059   4.172   4.703   1.206  0.3765 -0.9635  0.8746
  197MOL0     C27060   4.234   4.736   1.340  0.7429 -0.2403  1.1507
  197MOL0     C27061   4.180   4.868   1.407  0.4268  0.0925  0.1658
  197MOL0     C27062   4.034   4.864   1.447  0.5355 -0.4957 -0.1449
  197MOL0     C27063   3.988   4.990   1.517 -0.0477  0.1315  0.0608
  197MOL0     C27064   3.856   4.965   1.588 -0.5544 -0.1855  0.4539
  197MOL0     N27065   3.860   4.859   1.689  0.7218  0.3474 -0.5531
  197MOL0     C27066   3.929   4.859   1.804 -0.8862  0.0861 -0.3115
  197MOL0     C27067   3.873   4.761   1.874 -0.2467  0.5090  0.5185
  197MOL0     C27068   3.914   4.698   2.008 -0.6164  0.5969  0.0452
  197MOL0     C27069   3.878   4.767   2.142  0.1092  0.3399  0.7475
  197MOL0     C27070   3.965   4.700   2.260 -0.4400  0.7942 -0.6659
  197MOL0     C27071   3.964   4.760   2.405  1.1151  0.4503  0.7022
  197MOL0     O27072   4.049   4.877   2.398 -0.3257 -0.0715  0.0551
  197MOL0     C27073   4.110   4.913   2.518  0.1674  0.6206 -0.1280
  197MOL0     C27074   4.238   4.865   2.540  0.3282  0.8131 -0.5467
  197MOL0     C27075   4.314   4.901   2.653  0.1581  0.4249 -0.5089
  197MOL0     C27076   4.459   4.841   2.662  0.1307 -0.1365  0.3593
  197MOL0     C27077   4.259   4.988   2.745 -0.4719 -0.2434  0.2793
  197MOL0     C27078   4.326   5.046   2.868 -0.5947 -0.3614  0.3343
  197MOL0     O27079   4.434   4.984   2.921  0.0068  0.1231  0.5752
  197MOL0     C27080   4.507   5.043   3.026 -0.2549 -0.3869  0.4360
  197MOL0     C27081   4.645   5.040   3.010 -0.6413  0.0788 -0.4739
  197MOL0     C27082   4.719   5.106   3.105 -0.3189 -0.3313  0.4552
  197MOL0     C27083   4.671   5.185   3.213  0.0913 -0.7179  0.2920
  197MOL0     O27084   4.762   5.252   3.291  0.1107 -0.8106 -0.2745
  197MOL0     C27085   4.709   5.306   3.414  0.3009  0.0111  0.2357
  197MOL0     C27086   4.810   5.359   3.519 -0.6592  0.4849 -0.3545
  197MOL0     C27087   4.917   5.249   3.561  0.6217  0.1339  0.7418
  197MOL0     C27088   4.965   5.298   3.703  0.8976  0.2560 -0.3694
  197MOL0     C27089   5.032   5.439   3.705 -0.1889  0.2675  0.2160
  197MOL0     C27090   5.108   5.479   3.830 -0.3163  0.5777 -1.0897
  197MOL0     C27091   5.181   5.613   3.799 -0.7122 -0.5816 -0.3797
  197MOL0     C27092   5.234   5.673   3.934  0.4632 -0.0742 -0.2504
  197MOL0    Cl27093   5.099   5.687   4.064  0.0222  0.1159  0.0826
  197MOL0     C27094   4.537   5.179   3.229 -0.5007  0.3140 -0.2515
  197MOL0     C27095   4.455   5.100   3.144 -0.9669  0.3796 -0.8575
  197MOL0     O27096   4.267   5.136   2.927 -0.3840 -0.3674  0.0541
  197MOL0     C27097   4.131   5.040   2.716  0.2896  0.4149 -0.0490
  197MOL0     C27098   4.060   5.005   2.607  0.6898 -0.0724  1.5681
  197MOL0     N27099   3.776   4.696   1.795  0.3355 -1.3638  0.1190
  197MOL0     N27100   3.772   4.759   1.682 -0.4838 -0.8903 -0.2187
  197MOL0     C27101   4.653   4.474   0.909  0.6915  0.4832  0.2309
  197MOL0     C27102   4.768   4.418   0.941  0.3475  0.1932  0.9097
  197MOL0     C27103   5.118   4.228   1.206  1.1970 -0.0021 -0.4785
  197MOL0     C27104   5.218   4.319   1.184 -0.8171 -0.7543  0.0411
  197MOL0     C27105   5.344   4.280   1.150  0.4787  0.6459  0.0297
  197MOL0     C27106   5.370   4.146   1.136  0.9994 -1.0296  0.4188
  197MOL0     O27107   5.501   4.120   1.113 -0.3526 -0.9384  0.4784
  197MOL0     C27108   5.562   3.991   1.106  0.1443 -0.3637 -0.0164
  197MOL0     C27109   5.708   4.011   1.072  0.1941  0.3184  0.5519
  197MOL0     C27110   5.794   4.026   1.197  0.5079  0.3313 -0.2991
  197MOL0     C27111   5.937   3.995   1.150  0.6779 -0.5594  0.6256
  197MOL0     C27112   6.024   4.016   1.262  0.0798  0.2275 -0.3707
  197MOL0     C27113   6.080   4.027   1.369  0.3951 -0.6029 -0.1999
  197MOL0     C27114   5.270   4.051   1.161 -0.7301 -0.5727  0.2306
  197MOL0     C27115   5.140   4.094   1.188  1.1818 -0.0732 -0.5674
  197MOL0     C27116   5.030   3.994   1.198 -0.5284  1.1015  0.8216
  197MOL0     H27117   4.745   4.407   1.279  0.5067 -1.3198 -0.4350
  197MOL0     H27118   4.542   4.515   1.231  2.2437 -0.4208  1.2897
  197MOL0     H27119   4.325   4.729   0.990  2.1729  1.1513 -0.3209
  197MOL0     H27120   4.446   4.698   1.116 -0.2480  0.3342 -0.3075
  197MOL0     H27121   4.183   4.551   1.066 -0.5091 -2.1325  1.5541
  197MOL0     H27122   4.290   4.522   1.214 -2.8832  0.9569  0.3378
  197MOL0     H27123   4.151   4.793   1.148 -2.5459 -1.2067  1.3876
  197MOL0     H27124   4.067   4.671   1.212  0.2791 -0.9605 -0.4301
  197MOL0     H27125   4.218   4.651   1.407  1.9601 -0.0318  1.7212
  197MOL0     H27126   4.343   4.735   1.332  0.6133 -1.7363 -2.7032
  197MOL0     H27127   4.189   4.944   1.329  1.8629  1.8373  1.9262
  197MOL0     H27128   4.254   4.897   1.483  1.0736  0.7673 -0.6934
  197MOL0     H27129   3.985   4.863   1.349  1.5581  0.8160 -0.7058
  197MOL0     H27130   4.010   4.762   1.478 -0.8482  0.0181  0.5205
  197MOL0     H27131   3.982   5.075   1.448  1.9289  0.7526  0.5881
  197MOL0     H27132   4.057   5.006   1.600  2.5368 -3.2368 -1.2136
  197MOL0     H27133   3.835   5.055   1.646 -2.5751 -0.3327  0.0382
  197MOL0     H27134   3.766   4.946   1.529 -1.6768 -2.0608  2.6203
  197MOL0     H27135   4.006   4.929   1.835 -3.2776  3.0071 -0.5643
  197MOL0     H27136   4.023   4.691   2.000 -0.7136 -0.1816 -0.8217
  197MOL0     H27137   3.873   4.597   1.997  2.1208 -0.3187 -3.1090
  197MOL0     H27138   3.908   4.872   2.140 -0.7473  0.5751 -1.0822
  197MOL0     H27139   3.771   4.774   2.164 -0.3792 -1.0012 -1.0107
  197MOL0     H27140   3.939   4.594   2.255  3.2504 -0.2038 -2.6085
  197MOL0     H27141   4.073   4.692   2.244 -0.2005 -3.4807  1.5736
  197MOL0     H27142   3.865   4.778   2.448  0.7848  1.4902 -0.4462
  197MOL0     H27143   4.024   4.686   2.460 -0.4130 -2.7020 -1.5162
  197MOL0     H27144   4.278   4.798   2.465  1.6592  0.9696 -0.0117
  197MOL0     H27145   4.454   4.760   2.736 -0.2891  2.7104  3.7262
  197MOL0     H27146   4.518   4.920   2.708 -2.2552  1.5085  0.7801
  197MOL0     H27147   4.497   4.815   2.563 -0.3245  3.1536 -0.8024
  197MOL0     H27148   4.697   4.983   2.933 -0.5170  2.0409 -1.9214
  197MOL0     H27149   4.828   5.099   3.101 -0.0843  2.5159  0.3469
  197MOL0     H27150   4.640   5.388   3.390  2.8400  1.5938 -2.1326
  197MOL0     H27151   4.648   5.226   3.457 -1.0446  0.7158 -0.3017
  197MOL0     H27152   4.872   5.437   3.474  0.4642  2.4231  4.0889
  197MOL0     H27153   4.760   5.405   3.604 -1.5073 -0.0385 -0.5565
  197MOL0     H27154   4.999   5.241   3.489  0.1561  2.8088 -0.2181
  197MOL0     H27155   4.861   5.155   3.552 -1.9049  1.5456  0.6393
  197MOL0     H27156   5.043   5.226   3.734 -0.4390 -0.8594  0.5159
  197MOL0     H27157   4.876   5.308   3.766  1.7791  4.8415  0.4902
  197MOL0     H27158   5.108   5.456   3.628  0.5624 -0.1833  0.8458
  197MOL0     H27159   4.958   5.520   3.695 -1.3830 -0.5593  1.8200
  197MOL0     H27160   5.191   5.410   3.847 -0.3989  0.9686  1.2101
  197MOL0     H27161   5.058   5.461   3.925  2.6908 -1.4326  0.2545
  197MOL0     H27162   5.121   5.686   3.744 -1.5910  0.1063  1.4180
  197MOL0     H27163   5.262   5.584   3.732 -1.8404 -1.3586 -1.4348
  197MOL0     H27164   5.283   5.770   3.921 -0.8421  0.8877  1.5518
  197MOL0     H27165   5.307   5.600   3.969 -0.8283 -3.0390 -3.1675
  197MOL0     H27166   4.490   5.238   3.307 -1.0080  0.7615 -0.8821
  197MOL0     H27167   4.350   5.113   3.170 -0.6682  1.8593 -0.2897
  197MOL0     H27168   4.078   5.098   2.791 -0.0389  0.6393 -0.4485
  197MOL0     H27169   3.958   5.038   2.593 -0.4288 -2.0305  4.3091
  197MOL0     H27170   4.626   4.486   0.805  0.7990 -3.9848 -0.5326
  197MOL0     H27171   4.831   4.379   0.861 -2.1216 -2.1183 -0.0608
  197MOL0     H27172   5.193   4.425   1.177 -1.0717 -0.9257 -2.3160
  197MOL0     H27173   5.408   4.366   1.134  0.2550  1.2880  2.1674
  197MOL0     H27174   5.560   3.932   1.199  0.6799 -0.9833 -0.3948
  197MOL0     H27175   5.505   3.929   1.035  0.2565 -1.0490  0.4741
  197MOL0     H27176   5.729   4.090   0.999 -0.1025  0.1306  0.2606
  197MOL0     H27177   5.729   3.920   1.015 -0.9793  2.0685 -2.9268
  197MOL0     H27178   5.783   4.125   1.242  2.9373  1.4538 -1.9874
  197MOL0     H27179   5.763   3.951   1.272  2.3709  1.4332  1.6857
  197MOL0     H27180   5.960   4.063   1.067 -1.0606  0.3145  0.8139
  197MOL0     H27181   5.949   3.891   1.118  1.2519 -0.1564 -0.5592
  197MOL0     H27182   6.140   4.043   1.457  2.4880  2.3552 -1.9798
  197MOL0     H27183   5.298   3.947   1.170 -1.5530 -0.6781  2.1198
  197MOL0     H27184   4.939   4.028   1.149 -0.5912  2.0991  1.6060
  197MOL0     H27185   5.069   3.895   1.171  2.7770  3.3892 -4.1847
  197MOL0     H27186   5.012   3.976   1.305 -0.8346 -3.3162  0.2335
  198MOL0     O27187  10.195   4.745   2.963 -0.1219 -0.0937  0.0352
  198MOL0     C27188  10.301   4.686   2.981 -0.0985 -0.2806  0.1580
  198MOL0     O27189  10.413   4.738   3.043  0.4516  0.3948 -0.1797
  198MOL0     C27190  10.426   4.871   3.045 -0.1649 -1.0084  0.2698
  198MOL0     C27191  10.416   4.929   3.171  0.0418 -0.4741 -0.3205
  198MOL0     C27192  10.434   5.071   3.171  0.5527 -0.0937 -0.2250
  198MOL0     C27193  10.479   5.150   3.060  0.5912 -0.8044 -0.3445
  198MOL0     O27194  10.509   5.277   3.084 -0.0306 -0.3492 -0.1425
  198MOL0     C27195  10.395   5.365   3.120 -0.5829  0.2079  0.3007
  198MOL0     C27196  10.439   5.475   3.219 -0.3161 -0.3770 -0.6334
  198MOL0     C27197  10.324   5.564   3.277  0.4005 -0.1582 -0.0289
  198MOL0     C27198  10.367   5.688   3.347 -0.4312 -0.5817  0.3394
  198MOL0     C27199  10.450   5.668   3.472  0.3197 -0.0464 -0.1943
  198MOL0     C27200  10.503   5.802   3.532  0.4747 -1.2762 -0.0312
  198MOL0     C27201  10.614   5.763   3.632 -0.3555  0.3344  0.5454
  198MOL0     C27202  10.689   5.887   3.688  0.0384  0.5592 -0.2632
  198MOL0     N27203  10.601   5.958   3.777  0.4285 -0.6621 -0.0201
  198MOL0     C27204  10.586   5.937   3.912  0.5674 -0.7013 -0.2356
  198MOL0     C27205  10.478   6.022   3.946 -0.6585 -0.0935 -0.3092
  198MOL0     C27206  10.414   6.023   4.081  1.1724  0.4297  0.1852
  198MOL0     C27207  10.294   5.920   4.087 -0.1141 -0.3257  0.3915
  198MOL0     C27208  10.243   5.926   4.236  0.2457 -0.1609  0.4682
  198MOL0     C27209  10.132   5.828   4.273  0.6879  0.5950 -0.0880
  198MOL0     O27210  10.114   5.814   4.421  1.0318 -1.1349 -0.1471
  198MOL0     C27211  10.032   5.715   4.475 -0.6632 -0.6740  0.6637
  198MOL0     C27212   9.987   5.613   4.393  0.2805  0.5744  0.0930
  198MOL0     C27213   9.932   5.497   4.442 -0.1463 -0.0109  0.6505
  198MOL0     C27214   9.901   5.380   4.348  0.2737  0.8067  0.1909
  198MOL0     C27215   9.908   5.480   4.579  0.0027  0.2934  0.5184
  198MOL0     C27216   9.849   5.362   4.640 -0.1195 -0.0772 -0.0913
  198MOL0     O27217   9.848   5.371   4.780  0.3047  0.0937  0.2314
  198MOL0     C27218   9.839   5.253   4.860 -0.5409 -0.0674  0.0445
  198MOL0     C27219   9.956   5.215   4.923  0.3476  0.7753  0.1191
  198MOL0     C27220   9.954   5.092   4.986 -0.4462 -0.3400 -1.0888
  198MOL0     C27221   9.835   5.021   5.005  0.3972 -0.2410 -0.3420
  198MOL0     O27222   9.843   4.897   5.078  0.0196  0.8709  0.2849
  198MOL0     C27223   9.730   4.809   5.105 -0.5953  0.1258 -0.7890
  198MOL0     C27224   9.757   4.732   5.235  0.4359 -0.9415  0.1200
  198MOL0     C27225   9.874   4.624   5.220  0.6304 -0.4871 -0.0199
  198MOL0     C27226   9.828   4.489   5.281  0.2278  0.1270  0.1257
  198MOL0     C27227   9.871   4.368   5.192  0.0850 -0.5296 -0.4055
  198MOL0     C27228   9.851   4.237   5.267  0.0189 -0.6833 -0.3148
  198MOL0     C27229   9.878   4.111   5.188 -0.4312 -0.2835  0.3207
  198MOL0     C27230   9.865   3.991   5.285 -0.3768  0.5614  1.0176
  198MOL0    Cl27231   9.706   3.920   5.270 -0.2358 -0.3387 -0.0150
  198MOL0     C27232   9.713   5.072   4.953 -0.3853  0.3402 -1.2864
  198MOL0     C27233   9.719   5.191   4.885 -0.8908  0.5170  1.2410
  198MOL0     O27234   9.812   5.259   4.582 -0.4871 -0.0134 -0.1949
  198MOL0     C27235   9.949   5.591   4.658 -1.2061  0.7762  0.6820
  198MOL0     C27236  10.024   5.705   4.608  0.2856  0.0484  0.1390
  198MOL0     N27237  10.459   6.115   3.837  0.0098 -0.0272  0.3280
  198MOL0     N27238  10.522   6.065   3.741  0.2831  0.5488  0.8447
  198MOL0     C27239  10.508   5.082   2.940  0.2498  0.6236  0.5423
  198MOL0     C27240  10.487   4.943   2.942 -0.6034  0.9908 -0.3449
  198MOL0     C27241  10.312   4.539   2.947 -0.1608 -0.4237  0.6796
  198MOL0     C27242  10.417   4.468   3.002 -0.4904  0.6514 -0.1390
  198MOL0     C27243  10.433   4.333   2.980 -0.1148 -0.4006 -1.0048
  198MOL0     C27244  10.341   4.266   2.891  0.2410 -0.6867 -0.9076
  198MOL0     O27245  10.341   4.132   2.851 -0.0714 -0.1509  0.4213
  198MOL0     C27246  10.457   4.056   2.878 -0.1136  0.4425  0.3341
  198MOL0     C27247  10.479   3.993   3.016 -0.6352  1.1027 -0.4383
  198MOL0     C27248  10.618   3.921   3.012  0.0218 -0.3304  0.0931
  198MOL0     C27249  10.676   3.850   3.140 -0.4787 -0.8396  0.8486
  198MOL0     C27250  10.720   3.955   3.230 -0.0101 -0.6559  0.2156
  198MOL0     C27251  10.751   4.043   3.311  1.6161  0.0878 -0.0116
  198MOL0     C27252  10.241   4.341   2.831 -0.6688 -0.1393 -0.1905
  198MOL0     C27253  10.224   4.478   2.848  0.1339  0.1769 -0.6379
  198MOL0     C27254  10.108   4.557   2.782 -0.9441  0.1772 -0.6248
  198MOL0     H27255  10.385   4.873   3.259  1.5735  1.3547  1.5008
  198MOL0     H27256  10.420   5.128   3.262 -0.2359  0.4248 -0.6646
  198MOL0     H27257  10.307   5.311   3.158 -1.5587  3.0142  2.3769
  198MOL0     H27258  10.372   5.415   3.025 -0.0226 -1.2465 -0.6276
  198MOL0     H27259  10.487   5.423   3.302  0.9569 -0.2455 -1.2737
  198MOL0     H27260  10.516   5.533   3.166  0.9568 -1.0105  0.4760
  198MOL0     H27261  10.256   5.594   3.196  1.5077 -0.2588 -1.0330
  198MOL0     H27262  10.252   5.505   3.335 -0.5406  0.2597 -0.7297
  198MOL0     H27263  10.435   5.739   3.278 -0.2211  0.3836  1.2383
  198MOL0     H27264  10.285   5.758   3.363  1.2936  1.3254  1.4079
  198MOL0     H27265  10.536   5.605   3.448 -0.0324 -0.6295  0.0440
  198MOL0     H27266  10.402   5.610   3.552 -0.3192  1.1236  0.2895
  198MOL0     H27267  10.536   5.871   3.454 -1.4355  0.4170  0.5804
  198MOL0     H27268  10.429   5.866   3.581  0.4703 -1.0084 -0.3822
  198MOL0     H27269  10.678   5.693   3.577 -0.7670 -0.2253  0.7700
  198MOL0     H27270  10.566   5.713   3.716 -0.9223  0.9946  0.6243
  198MOL0     H27271  10.782   5.856   3.739  1.2638  2.5685 -1.1720
  198MOL0     H27272  10.718   5.957   3.609 -3.3302  0.1376 -2.0565
  198MOL0     H27273  10.628   5.863   3.979 -1.9211 -2.6119 -0.6267
  198MOL0     H27274  10.371   6.123   4.095 -0.9176 -0.6609  2.5309
  198MOL0     H27275  10.491   5.998   4.155  2.5169 -0.5555 -1.4973
  198MOL0     H27276  10.217   5.949   4.014  1.6179 -0.8666 -1.7669
  198MOL0     H27277  10.334   5.823   4.056 -0.4591  0.3445 -2.5273
  198MOL0     H27278  10.334   5.895   4.289  0.3117  1.2228  1.2073
  198MOL0     H27279  10.214   6.024   4.275 -1.8989 -0.7917  0.5805
  198MOL0     H27280  10.038   5.843   4.220 -0.2238 -2.6793  0.3766
  198MOL0     H27281  10.173   5.730   4.248 -3.3390 -2.1384  2.6792
  198MOL0     H27282  10.000   5.628   4.286 -2.6648  2.8539 -0.0688
  198MOL0     H27283   9.794   5.361   4.355  0.1059  0.9368 -1.5301
  198MOL0     H27284   9.956   5.295   4.391 -0.9268  1.3539  2.9948
  198MOL0     H27285   9.926   5.411   4.246  1.4039 -0.6480 -0.0134
  198MOL0     H27286  10.042   5.280   4.912  2.7259 -2.0946  0.6192
  198MOL0     H27287  10.052   5.050   5.011 -0.5737 -0.5159 -0.8742
  198MOL0     H27288   9.633   4.859   5.113 -0.6397 -0.3212  4.0204
  198MOL0     H27289   9.718   4.765   5.005 -2.5885  2.7637 -1.8232
  198MOL0     H27290   9.776   4.798   5.321  2.6125 -1.6124  0.2263
  198MOL0     H27291   9.658   4.688   5.244 -0.3634  0.9175  1.0427
  198MOL0     H27292   9.955   4.669   5.279 -0.9203  2.7141 -0.1361
  198MOL0     H27293   9.900   4.617   5.115  0.1864  0.6093 -0.2191
  198MOL0     H27294   9.720   4.480   5.294  0.1416 -1.2025 -1.1756
  198MOL0     H27295   9.876   4.475   5.378  0.1223  0.8361  0.2832
  198MOL0     H27296   9.811   4.370   5.100 -1.2136  3.5922  0.3253
  198MOL0     H27297   9.976   4.385   5.169 -0.2906  1.8419 -0.6439
  198MOL0     H27298   9.746   4.231   5.297 -0.2295  2.1674 -0.3881
  198MOL0     H27299   9.911   4.230   5.359  0.5731 -0.9146 -0.6870
  198MOL0     H27300   9.984   4.125   5.164 -0.2569  0.0943  1.2705
  198MOL0     H27301   9.825   4.103   5.092 -0.9958 -0.3718  0.6367
  198MOL0     H27302   9.883   4.009   5.391 -0.9890 -2.8986  1.8317
  198MOL0     H27303   9.946   3.920   5.263 -0.8888  0.9627 -2.9025
  198MOL0     H27304   9.613   5.036   4.971  0.0917  0.3176  1.7874
  198MOL0     H27305   9.627   5.239   4.852 -1.7366 -0.3505  2.2638
  198MOL0     H27306   9.953   5.585   4.766  0.6726  0.7716  0.6522
  198MOL0     H27307  10.071   5.787   4.662 -0.0895  1.1632 -1.1767
  198MOL0     H27308  10.551   5.130   2.852  1.5566  0.0917  0.8659
  198MOL0     H27309  10.517   4.894   2.850  0.3315  0.2824  0.3219
  198MOL0     H27310  10.482   4.517   3.074  0.8203 -0.2980 -0.6516
  198MOL0     H27311  10.515   4.283   3.029 -2.5162 -1.8252  1.8961
  198MOL0     H27312  10.443   3.967   2.817  2.6244 -0.4229  0.8349
  198MOL0     H27313  10.547   4.109   2.844 -1.1659  0.3173 -3.0213
  198MOL0     H27314  10.397   3.928   3.048  0.8413 -0.5321  0.1391
  198MOL0     H27315  10.472   4.070   3.093  1.5578 -0.3125  1.2684
  198MOL0     H27316  10.610   3.852   2.928 -2.9710  0.1530 -0.1216
  198MOL0     H27317  10.690   3.995   2.978  2.8590 -3.8300 -2.2725
  198MOL0     H27318  10.758   3.786   3.106 -1.0517 -2.0777  1.7339
  198MOL0     H27319  10.583   3.801   3.169 -2.8060  1.0349 -2.6298
  198MOL0     H27320  10.784   4.122   3.375  1.7842 -1.3093  1.7217
  198MOL0     H27321  10.177   4.289   2.760 -0.3298  2.1914 -2.3398
  198MOL0     H27322  10.070   4.499   2.697 -0.9877  0.6102 -0.9033
  198MOL0     H27323  10.027   4.580   2.852 -1.4521 -0.5610 -0.9540
  198MOL0     H27324  10.155   4.647   2.743 -0.5774 -0.8290 -2.6466
  199MOL0     O27325   5.596  10.540  10.106  0.2276 -0.1425  0.2417
  199MOL0     C27326   5.702  10.582  10.068  0.0841  0.5694 -0.3299
  199MOL0     O27327   5.827  10.527  10.097  0.0723  0.9360  0.1049
  199MOL0     C27328   5.843  10.487  10.227  0.6258 -0.1548 -0.6380
  199MOL0     C27329   5.814  10.567  10.341 -0.5035 -0.4765  0.7477
  199MOL0     C27330   5.832  10.536  10.471 -0.4063  0.1762 -0.0451
  199MOL0     C27331   5.882  10.411  10.508  0.1050 -0.8211  0.4858
  199MOL0     O27332   5.906  10.378  10.644 -1.2446  0.5147 -0.3674
  199MOL0     C27333   5.980  10.484  10.715 -0.2049  0.6001  0.3402
  199MOL0     C27334   6.040  10.408  10.841  0.6517  0.2542  0.0440
  199MOL0     C27335   6.131  10.513  10.918 -0.0850  1.0822 -0.1458
  199MOL0     C27336   6.171  10.473  11.061 -0.8247  0.4420  0.3268
  199MOL0     C27337   6.267  10.577  11.129 -0.4564 -0.4450 -0.7081
  199MOL0     C27338   6.190  10.702  11.175 -0.7050 -0.2441 -0.8524
  199MOL0     C27339   6.273  10.801  11.251  0.0427  0.4248  0.1764
  199MOL0     C27340   6.336  10.921  11.164 -0.3410  0.4664  0.0619
  199MOL0     N27341   6.432  10.876  11.053 -0.8434 -1.4450 -0.3439
  199MOL0     C27342   6.402  10.865  10.918 -0.5046 -0.1513  0.0840
  199MOL0     C27343   6.506  10.796  10.865  0.4130 -1.0547 -0.7883
  199MOL0     C27344   6.517  10.777  10.715  0.2525  1.0328 -0.9093
  199MOL0     C27345   6.484  10.623  10.700  1.2664 -1.1917 -0.3444
  199MOL0     C27346   6.616  10.532  10.695 -0.1655  0.5808  0.4331
  199MOL0     C27347   6.711  10.569  10.585 -0.3360 -0.3799  0.3107
  199MOL0     O27348   6.820  10.480  10.578 -0.2367 -0.2546  0.1558
  199MOL0     C27349   6.918  10.480  10.671 -0.7867  0.7856 -0.2607
  199MOL0     C27350   7.020  10.391  10.646  0.1029 -0.0945  0.2155
  199MOL0     C27351   7.141  10.393  10.718 -0.0046 -1.2796 -0.6688
  199MOL0     C27352   7.262  10.322  10.661  0.4322 -0.1481 -0.1553
  199MOL0     C27353   7.149  10.484  10.833 -0.5824 -0.8697 -0.2446
  199MOL0     C27354   7.277  10.492  10.929  0.5031  0.1630 -0.5231
  199MOL0     O27355   7.285  10.604  11.013 -0.0941  0.1133  0.3626
  199MOL0     C27356   7.410  10.625  11.061  0.8037  0.3787 -0.2927
  199MOL0     C27357   7.423  10.571  11.186 -0.9247  0.3996  0.3080
  199MOL0     C27358   7.559  10.583  11.239  0.1021 -0.3258 -0.1902
  199MOL0     C27359   7.662  10.629  11.163  0.2541 -0.9008 -0.7349
  199MOL0     O27360   7.782  10.634  11.222  0.1700  0.3259 -0.8812
  199MOL0     C27361   7.886  10.625  11.136 -0.3274  0.1673  1.1499
  199MOL0     C27362   8.023  10.590  11.198 -0.7563 -0.1345 -0.7297
  199MOL0     C27363   8.124  10.582  11.078  0.5902 -0.0831  0.5197
  199MOL0     C27364   8.263  10.537  11.118  0.2988 -1.6656  0.5654
  199MOL0     C27365   8.390  10.569  11.026  0.1398 -0.0801 -0.0089
  199MOL0     C27366   8.353  10.546  10.879 -0.7175 -0.0496  0.6122
  199MOL0     C27367   8.481  10.577  10.800  0.7988  0.2358  0.4116
  199MOL0     C27368   8.469  10.577  10.644  0.8668  0.3273  0.8841
  199MOL0    Cl27369   8.485  10.398  10.596  0.5948 -0.3466  0.7372
  199MOL0     C27370   7.637  10.690  11.039  0.0456 -0.3169  0.0627
  199MOL0     C27371   7.515  10.684  10.985 -0.9793 -1.0177 -0.0987
  199MOL0     O27372   7.364  10.405  10.915 -0.0501 -0.3657  0.6183
  199MOL0     C27373   7.037  10.570  10.859  0.2125  0.5213 -0.6274
  199MOL0     C27374   6.932  10.571  10.769  0.4674 -0.4616  0.1635
  199MOL0     N27375   6.604  10.769  10.958 -0.1712  0.0477 -0.7140
  199MOL0     N27376   6.556  10.821  11.071  0.2208  0.1308 -0.2624
  199MOL0     C27377   5.898  10.319  10.400  0.0502  0.0822 -0.5437
  199MOL0     C27378   5.893  10.356  10.265 -0.8579 -1.3098 -0.7552
  199MOL0     C27379   5.704  10.693   9.975 -0.1445  0.3136  0.0107
  199MOL0     C27380   5.826  10.742   9.935  0.2440 -0.6999  0.1896
  199MOL0     C27381   5.840  10.845   9.835 -0.0749 -0.5109 -0.0676
  199MOL0     C27382   5.721  10.909   9.783  0.1307  0.4522  0.8487
  199MOL0     O27383   5.726  10.995   9.678  0.6032 -0.4239 -0.0594
  199MOL0     C27384   5.848  11.070   9.642  0.7097  0.4428  0.4726
  199MOL0     C27385   5.936  11.008   9.539  0.7157 -0.3922 -0.3387
  199MOL0     C27386   5.848  10.959   9.425 -0.2140 -0.4448 -0.9519
  199MOL0     C27387   5.926  10.899   9.303 -0.8996  0.2271 -0.1857
  199MOL0     C27388   5.927  11.002   9.197 -0.0124  0.4276 -0.3561
  199MOL0     C27389   5.931  11.083   9.109 -0.6209  0.1214  0.5570
  199MOL0     C27390   5.596  10.858   9.820  0.8355  0.7374 -0.0949
  199MOL0     C27391   5.590  10.753   9.921  0.2801  0.5245  0.7699
  199MOL0     C27392   5.451  10.715   9.950 -0.1029  0.7388 -0.4502
  199MOL0     H27393   5.781  10.668  10.320 -0.5733 -0.6302  0.1011
  199MOL0     H27394   5.802  10.611  10.544  1.7258  0.1268  0.9775
  199MOL0     H27395   5.912  10.567  10.739 -0.4370 -0.4570  3.8694
  199MOL0     H27396   6.050  10.523  10.641  0.2736 -0.6506  0.1138
  199MOL0     H27397   5.963  10.370  10.908 -0.1619  1.0820 -0.4011
  199MOL0     H27398   6.102  10.325  10.806 -0.1299 -0.6704  0.8069
  199MOL0     H27399   6.219  10.533  10.857 -0.2764  1.8538 -0.1807
  199MOL0     H27400   6.072  10.603  10.937 -0.7910  0.5213  0.3939
  199MOL0     H27401   6.083  10.444  11.119 -1.2513 -3.2922 -1.8478
  199MOL0     H27402   6.216  10.375  11.044  1.8453  1.9280 -2.1789
  199MOL0     H27403   6.350  10.601  11.063 -1.3770  2.1478 -1.0471
  199MOL0     H27404   6.306  10.514  11.210  1.0465 -1.5268 -2.2069
  199MOL0     H27405   6.156  10.755  11.086 -2.7701 -2.2664 -1.3607
  199MOL0     H27406   6.094  10.675  11.220 -2.6343  2.1643 -3.1720
  199MOL0     H27407   6.352  10.738  11.293  1.3174 -1.0420 -3.9515
  199MOL0     H27408   6.212  10.845  11.330  2.8212  0.0269  2.7192
  199MOL0     H27409   6.252  10.977  11.122 -1.7865 -0.7968  1.1683
  199MOL0     H27410   6.393  10.989  11.229 -1.7065  1.0552  0.6935
  199MOL0     H27411   6.315  10.906  10.867  0.8524  2.4717 -0.2632
  199MOL0     H27412   6.615  10.804  10.673  1.3610  0.5383  1.1931
  199MOL0     H27413   6.440  10.838  10.668  0.6266  0.4069 -2.4036
  199MOL0     H27414   6.417  10.588  10.780  2.0149 -0.4788  0.6213
  199MOL0     H27415   6.430  10.613  10.605  1.4721 -1.3630 -0.4442
  199MOL0     H27416   6.665  10.519  10.792  0.7454 -2.3998 -0.3019
  199MOL0     H27417   6.576  10.435  10.664  1.7543 -0.3813  0.7560
  199MOL0     H27418   6.657  10.550  10.492  0.7061 -1.0030 -0.1895
  199MOL0     H27419   6.738  10.674  10.573  1.6313 -0.5673  2.2916
  199MOL0     H27420   7.019  10.333  10.554 -0.6329 -0.1735  0.2680
  199MOL0     H27421   7.340  10.398  10.651  0.3814 -0.0264  0.3698
  199MOL0     H27422   7.242  10.285  10.560 -2.2284 -1.7511  0.8447
  199MOL0     H27423   7.299  10.240  10.723 -0.6723 -0.8966 -0.4588
  199MOL0     H27424   7.350  10.515  11.244 -1.9394  0.2682 -1.0353
  199MOL0     H27425   7.582  10.548  11.339 -1.0845  0.7716  0.5087
  199MOL0     H27426   7.863  10.544  11.066 -3.2984  0.7932  1.2671
  199MOL0     H27427   7.904  10.713  11.075  3.5128 -1.0227  0.3243
  199MOL0     H27428   8.039  10.679  11.259 -0.7183  0.5746 -1.7629
  199MOL0     H27429   8.014  10.505  11.266  1.3081  3.1292  4.1911
  199MOL0     H27430   8.132  10.679  11.028  1.9998 -0.7430 -0.6029
  199MOL0     H27431   8.093  10.496  11.018  3.5284 -2.3738  2.0274
  199MOL0     H27432   8.255  10.429  11.134  4.8010 -1.9249  2.4272
  199MOL0     H27433   8.275  10.582  11.217 -2.5254  2.0751 -0.5457
  199MOL0     H27434   8.418  10.673  11.046  1.0949 -0.0605 -1.3064
  199MOL0     H27435   8.471  10.504  11.059  2.2955  2.4467 -0.0692
  199MOL0     H27436   8.279  10.616  10.839  0.1437  1.0025  0.8027
  199MOL0     H27437   8.321  10.442  10.871 -0.8562  0.0613 -0.5442
  199MOL0     H27438   8.564  10.513  10.832  2.0092  2.1960  1.3976
  199MOL0     H27439   8.515  10.679  10.821  1.2769 -0.2874  2.3797
  199MOL0     H27440   8.543  10.644  10.600 -0.6307  3.4089  2.6766
  199MOL0     H27441   8.368  10.608  10.616  1.5184  1.2946 -0.4844
  199MOL0     H27442   7.707  10.750  10.982  0.1719 -0.7518 -0.2461
  199MOL0     H27443   7.499  10.731  10.889 -0.9719  1.5050  1.0565
  199MOL0     H27444   7.038  10.651  10.931 -1.5412  4.0980 -4.2175
  199MOL0     H27445   6.864  10.654  10.787 -0.3510 -1.4928  2.0758
  199MOL0     H27446   5.927  10.217  10.423 -0.2480  0.7406  3.4020
  199MOL0     H27447   5.933  10.286  10.193  2.2418 -1.7027  1.1583
  199MOL0     H27448   5.918  10.698   9.972  0.2147  0.4914  1.8669
  199MOL0     H27449   5.940  10.861   9.794 -0.3352  0.0856 -0.4857
  199MOL0     H27450   5.802  11.158   9.598  3.8908  1.9003 -0.2716
  199MOL0     H27451   5.911  11.104   9.726 -1.3110  2.4758  1.2644
  199MOL0     H27452   5.977  10.916   9.581  0.0803 -0.1672  0.8390
  199MOL0     H27453   6.017  11.071   9.502 -0.1985  0.7109 -0.5421
  199MOL0     H27454   5.783  10.884   9.471 -2.1722  2.2431  0.9886
  199MOL0     H27455   5.780  11.039   9.394  0.7597  0.7597 -0.1060
  199MOL0     H27456   5.882  10.806   9.266 -0.8214  0.4694 -0.9021
  199MOL0     H27457   6.029  10.882   9.333 -0.6968  1.7723  0.0920
  199MOL0     H27458   5.936  11.149   9.024  0.7553 -1.5919 -0.7795
  199MOL0     H27459   5.506  10.899   9.776  0.8983 -0.5955 -1.5624
  199MOL0     H27460   5.416  10.619   9.910  0.1653 -2.0579  5.0688
  199MOL0     H27461   5.428  10.693  10.055 -0.7885 -2.3676 -1.1467
  199MOL0     H27462   5.378  10.790   9.919 -1.5539 -0.3823  0.1525
  200MOL0     O27463   9.238   9.635   3.047  0.1302  0.5902 -0.9976
  200MOL0     C27464   9.223   9.743   3.103 -0.8174  0.0989 -0.4188
  200MOL0     O27465   9.102   9.799   3.137 -0.3990  0.3821 -0.0511
  200MOL0     C27466   8.999   9.712   3.152  0.4459  0.0847  0.0019
  200MOL0     C27467   8.871   9.748   3.091 -1.3632 -0.0911  0.2020
  200MOL0     C27468   8.767   9.648   3.085 -0.0914  0.3456 -0.4832
  200MOL0     C27469   8.794   9.522   3.132 -0.2466 -0.4152 -0.0219
  200MOL0     O27470   8.704   9.415   3.137 -0.3568 -1.0725  0.1959
  200MOL0     C27471   8.568   9.421   3.090 -0.2671  0.3451  0.4011
  200MOL0     C27472   8.461   9.483   3.185 -0.0246  0.2849  0.2111
  200MOL0     C27473   8.463   9.391   3.318  0.4086 -0.5408  1.1070
  200MOL0     C27474   8.365   9.449   3.422  0.2192 -0.6432 -0.7354
  200MOL0     C27475   8.385   9.395   3.561 -0.0995  0.3139 -0.3852
  200MOL0     C27476   8.273   9.454   3.646 -0.1138  0.0018 -0.4645
  200MOL0     C27477   8.133   9.401   3.620  0.4944  0.9956 -0.7268
  200MOL0     C27478   8.113   9.245   3.617 -0.8473 -0.0932  1.1515
  200MOL0     N27479   7.971   9.198   3.621  0.6026 -0.5276 -0.3223
  200MOL0     C27480   7.942   9.088   3.687 -0.4536 -0.4616  0.2576
  200MOL0     C27481   7.820   9.056   3.649 -0.2429  0.0098 -0.2762
  200MOL0     C27482   7.735   8.948   3.712 -0.3650  0.1342 -0.8509
  200MOL0     C27483   7.638   8.869   3.618 -0.8077 -0.7889  0.1621
  200MOL0     C27484   7.724   8.774   3.534 -0.5053 -0.3096  0.4957
  200MOL0     C27485   7.630   8.683   3.457 -0.2060  0.5247 -0.0194
  200MOL0     O27486   7.578   8.570   3.525 -0.3637  0.1021  0.0437
  200MOL0     C27487   7.562   8.447   3.463 -0.4036  0.3501  0.1483
  200MOL0     C27488   7.601   8.333   3.527  0.1708 -0.3229 -0.0108
  200MOL0     C27489   7.575   8.207   3.480  0.6091 -0.1217  0.6068
  200MOL0     C27490   7.624   8.087   3.560  0.2478  0.6155 -0.3709
  200MOL0     C27491   7.518   8.197   3.358 -0.1317  0.3431 -0.4293
  200MOL0     C27492   7.525   8.065   3.286 -0.4137 -0.0090 -0.3926
  200MOL0     O27493   7.461   7.958   3.340  0.0073 -0.0215 -0.1713
  200MOL0     C27494   7.482   7.836   3.283  0.0183  1.3372  0.7421
  200MOL0     C27495   7.613   7.777   3.287  0.1806 -0.2651 -0.5594
  200MOL0     C27496   7.632   7.659   3.227  0.0250  1.2009  1.5680
  200MOL0     C27497   7.529   7.599   3.156 -0.0566  0.5028 -0.0301
  200MOL0     O27498   7.549   7.487   3.087 -0.3248 -0.2622  0.5346
  200MOL0     C27499   7.655   7.400   3.128 -1.1585 -0.3530  0.3995
  200MOL0     C27500   7.689   7.299   3.016  0.2258  0.1798 -0.7147
  200MOL0     C27501   7.579   7.191   3.020 -0.7153 -0.0138 -0.1017
  200MOL0     C27502   7.551   7.137   2.876 -0.1988 -0.1870  0.4022
  200MOL0     C27503   7.416   7.070   2.874  0.2312 -0.7969 -0.5528
  200MOL0     C27504   7.386   7.023   2.725  0.9483 -0.1707 -0.2512
  200MOL0     C27505   7.262   6.925   2.720 -0.0501  0.3581  0.5890
  200MOL0     C27506   7.244   6.873   2.577  0.0740 -0.3653 -0.5896
  200MOL0    Cl27507   7.074   6.794   2.577 -0.2785 -0.3128  0.5306
  200MOL0     C27508   7.399   7.665   3.146 -0.1181  0.0512 -0.2818
  200MOL0     C27509   7.382   7.788   3.204  0.0967  0.4334 -0.5049
  200MOL0     O27510   7.578   8.076   3.176 -0.3435  0.1133  0.6083
  200MOL0     C27511   7.478   8.311   3.276 -0.0937 -0.9369 -0.4529
  200MOL0     C27512   7.491   8.432   3.333 -0.1805 -0.3976 -0.0486
  200MOL0     N27513   7.769   9.159   3.566  0.0926 -0.2849 -0.1206
  200MOL0     N27514   7.868   9.247   3.549 -0.2725  0.4572 -0.6746
  200MOL0     C27515   8.911   9.496   3.196  0.5128  0.0484  0.0867
  200MOL0     C27516   9.011   9.585   3.210 -0.2186 -0.5789 -0.5002
  200MOL0     C27517   9.348   9.822   3.127 -0.0773  0.8209  0.3248
  200MOL0     C27518   9.339   9.955   3.123 -1.0211  0.0720 -0.4558
  200MOL0     C27519   9.454  10.033   3.141 -0.1587 -0.0653  0.6444
  200MOL0     C27520   9.584   9.975   3.167 -0.0178 -0.1003  0.4453
  200MOL0     O27521   9.702  10.051   3.183 -0.5601  0.1205  0.2219
  200MOL0     C27522   9.688  10.193   3.196 -0.5469 -0.4788  0.2368
  200MOL0     C27523   9.826  10.253   3.196 -0.6905  1.0921 -0.1512
  200MOL0     C27524   9.908  10.210   3.313 -0.1665  0.6075  0.8039
  200MOL0     C27525  10.041  10.284   3.279 -0.6231 -0.5260  0.0231
  200MOL0     C27526  10.129  10.287   3.398  0.2763 -0.8981  0.4250
  200MOL0     C27527  10.206  10.286   3.490  0.5872  0.0019 -0.2396
  200MOL0     C27528   9.585   9.837   3.183  0.5179 -1.2097  0.3310
  200MOL0     C27529   9.465   9.767   3.163 -0.2495 -0.2762 -0.4612
  200MOL0     C27530   9.490   9.623   3.200 -0.0455 -1.0594  0.2792
  200MOL0     H27531   8.859   9.850   3.055  1.5518  0.5425  0.8018
  200MOL0     H27532   8.673   9.671   3.036 -0.0822  1.8351  0.1541
  200MOL0     H27533   8.537   9.318   3.068  0.2758  0.1591  0.4939
  200MOL0     H27534   8.567   9.467   2.991 -1.8019 -0.9273 -0.2257
  200MOL0     H27535   8.492   9.583   3.215 -1.4201  1.0054 -0.6224
  200MOL0     H27536   8.360   9.488   3.142  0.7580 -0.8385 -1.9295
  200MOL0     H27537   8.426   9.292   3.291  1.6365 -1.4325  2.5294
  200MOL0     H27538   8.566   9.374   3.350  1.9816  0.7275 -2.7987
  200MOL0     H27539   8.384   9.557   3.426 -2.6882 -0.1070  1.1059
  200MOL0     H27540   8.261   9.439   3.390 -1.0623 -0.8192  3.0291
  200MOL0     H27541   8.481   9.425   3.604 -0.9049  0.8263  1.1275
  200MOL0     H27542   8.391   9.286   3.558  1.1339  0.1145  3.4484
  200MOL0     H27543   8.304   9.430   3.748  0.1708  1.8291 -0.0982
  200MOL0     H27544   8.278   9.562   3.634 -1.1110  0.7934  4.2507
  200MOL0     H27545   8.093   9.456   3.535  0.4960  1.7305 -0.2657
  200MOL0     H27546   8.074   9.421   3.710  3.4806 -0.9987  1.9141
  200MOL0     H27547   8.164   9.205   3.529  0.7659  0.0252  1.9900
  200MOL0     H27548   8.171   9.207   3.701  0.5494 -1.3300 -0.3069
  200MOL0     H27549   7.998   9.029   3.759  1.8073 -1.1981 -1.9535
  200MOL0     H27550   7.673   9.000   3.786  1.7367  2.1971 -0.4391
  200MOL0     H27551   7.799   8.884   3.773  1.3899  0.9631 -1.7594
  200MOL0     H27552   7.577   8.809   3.686 -1.2882 -0.6224 -0.1155
  200MOL0     H27553   7.578   8.940   3.560 -0.2692  1.3543  2.1019
  200MOL0     H27554   7.788   8.828   3.464  2.4540  1.7735  4.4079
  200MOL0     H27555   7.799   8.715   3.587  0.2273  1.4026  1.4692
  200MOL0     H27556   7.551   8.725   3.393 -0.3553 -0.6826 -0.6551
  200MOL0     H27557   7.691   8.631   3.382  0.2971  2.7881 -1.2866
  200MOL0     H27558   7.665   8.349   3.614 -0.1039  1.1106 -0.0420
  200MOL0     H27559   7.705   8.118   3.627 -0.0119  0.9312 -0.2002
  200MOL0     H27560   7.669   8.015   3.492 -0.7685 -2.5476  2.0474
  200MOL0     H27561   7.534   8.052   3.612 -1.5838  1.2704 -2.8938
  200MOL0     H27562   7.683   7.820   3.357 -0.4094  1.1594 -0.8234
  200MOL0     H27563   7.727   7.610   3.242  0.7660  2.6740  1.8510
  200MOL0     H27564   7.751   7.448   3.147 -2.0798  2.0378 -0.5437
  200MOL0     H27565   7.632   7.358   3.226  0.0352  1.8560  1.7055
  200MOL0     H27566   7.702   7.344   2.918 -1.5488  0.4518 -0.8483
  200MOL0     H27567   7.778   7.243   3.047 -1.1349 -0.5856  2.2316
  200MOL0     H27568   7.487   7.237   3.058 -0.0843 -0.1433  1.6688
  200MOL0     H27569   7.614   7.112   3.087 -1.2470  0.2964  0.5500
  200MOL0     H27570   7.630   7.069   2.843 -2.0386 -1.2920 -2.0260
  200MOL0     H27571   7.555   7.218   2.803  1.4036  2.5799  3.2660
  200MOL0     H27572   7.407   6.988   2.945 -1.2173  2.1529  3.0049
  200MOL0     H27573   7.342   7.145   2.902  1.7119  0.2411  0.7830
  200MOL0     H27574   7.479   6.971   2.698  1.1561  1.0624 -2.1435
  200MOL0     H27575   7.372   7.104   2.653 -0.4711  0.3574  0.5765
  200MOL0     H27576   7.170   6.978   2.746  0.2713  1.4831 -0.5078
  200MOL0     H27577   7.272   6.853   2.802 -1.8136 -0.6727 -0.0684
  200MOL0     H27578   7.313   6.789   2.562  1.8370  0.0916  3.6644
  200MOL0     H27579   7.250   6.945   2.494  0.7304 -0.4227 -0.5959
  200MOL0     H27580   7.320   7.616   3.090 -0.7783 -0.9912  1.4676
  200MOL0     H27581   7.286   7.839   3.194  0.0152  0.3877  0.0354
  200MOL0     H27582   7.437   8.301   3.176 -1.5816  0.7272 -0.0535
  200MOL0     H27583   7.458   8.521   3.280  0.3877 -0.5292 -0.6360
  200MOL0     H27584   8.927   9.399   3.242 -1.5718 -0.0451  0.6878
  200MOL0     H27585   9.095   9.555   3.271 -2.3393 -2.4001  1.7110
  200MOL0     H27586   9.240   9.994   3.102 -0.3179  1.6339 -1.0507
  200MOL0     H27587   9.447  10.139   3.119  1.5905  0.3475  1.8318
  200MOL0     H27588   9.628  10.235   3.114 -1.2030 -0.2346  0.8350
  200MOL0     H27589   9.636  10.218   3.289 -1.1127  0.9809 -0.4286
  200MOL0     H27590   9.828  10.362   3.186 -3.3952  1.0601 -2.5542
  200MOL0     H27591   9.884  10.222   3.109  2.4660 -0.1136  2.2104
  200MOL0     H27592   9.857  10.246   3.402 -0.2267  0.2032  0.9369
  200MOL0     H27593   9.919  10.101   3.319 -0.9325  0.5046  0.4234
  200MOL0     H27594  10.024  10.390   3.257  1.5332 -0.2140 -0.3562
  200MOL0     H27595  10.101  10.232   3.204 -1.0041 -4.3444  2.1216
  200MOL0     H27596  10.274  10.271   3.572  0.0517 -0.1439  0.1808
  200MOL0     H27597   9.678   9.792   3.218  2.3319  1.7696 -0.2438
  200MOL0     H27598   9.407   9.557   3.173 -2.3306  2.6994 -3.1222
  200MOL0     H27599   9.571   9.589   3.136 -0.8785  0.3628 -1.6141
  200MOL0     H27600   9.532   9.617   3.301 -0.8199 -1.3666  0.5977
  201MOL0     O27601   8.837   4.721  10.119 -0.1421 -0.0196  0.4118
  201MOL0     C27602   8.840   4.669  10.231  0.8105 -0.2056 -0.0882
  201MOL0     O27603   8.738   4.674  10.322  0.0297  0.0846 -0.4911
  201MOL0     C27604   8.605   4.715  10.291  0.0933  0.8601 -0.5635
  201MOL0     C27605   8.557   4.744  10.166  0.6181  0.8471  2.1508
  201MOL0     C27606   8.410   4.771  10.145 -1.3370  0.2127 -0.2118
  201MOL0     C27607   8.326   4.799  10.255  0.2001 -0.1854  0.9855
  201MOL0     O27608   8.202   4.849  10.227 -0.3305  0.5983 -0.3778
  201MOL0     C27609   8.160   4.950  10.317  0.2843  0.8900 -0.7013
  201MOL0     C27610   8.021   4.985  10.312  0.2623  0.1064  0.1462
  201MOL0     C27611   7.985   5.043  10.171 -0.3521  0.2633 -0.9607
  201MOL0     C27612   7.833   5.100  10.170  0.6190  0.3940 -0.0036
  201MOL0     C27613   7.821   5.232  10.240  0.2583 -0.2258  0.7200
  201MOL0     C27614   7.676   5.283  10.228  0.1689  0.6153 -0.0499
  201MOL0     C27615   7.646   5.420  10.301  0.3391  0.8767  0.2532
  201MOL0     C27616   7.494   5.466  10.271 -0.0904 -0.5009  0.1145
  201MOL0     N27617   7.471   5.546  10.147  0.0720 -0.1721 -0.0297
  201MOL0     C27618   7.548   5.646  10.099 -0.0335  0.3513  0.5982
  201MOL0     C27619   7.524   5.653   9.968  0.3370  0.7527 -0.7961
  201MOL0     C27620   7.592   5.746   9.876  0.5096  0.4485  0.5430
  201MOL0     C27621   7.651   5.672   9.759 -0.2574 -0.3185  0.6212
  201MOL0     C27622   7.755   5.560   9.793  0.8293 -0.2421 -0.1692
  201MOL0     C27623   7.788   5.474   9.674 -0.1255  0.2438 -0.6033
  201MOL0     O27624   7.868   5.547   9.586  0.0889  0.4644 -0.2417
  201MOL0     C27625   7.840   5.529   9.449  0.3434 -0.2728 -0.2434
  201MOL0     C27626   7.745   5.603   9.382 -0.6198 -0.9876  0.2032
  201MOL0     C27627   7.740   5.598   9.247 -0.0649  1.3343  1.1795
  201MOL0     C27628   7.656   5.703   9.176  0.5929 -0.4896  0.5277
  201MOL0     C27629   7.809   5.500   9.173 -0.1588  0.5225  0.4730
  201MOL0     C27630   7.812   5.480   9.029  0.1209 -0.3228  1.0660
  201MOL0     O27631   7.919   5.399   8.974  0.2640  0.1933  0.2145
  201MOL0     C27632   7.881   5.306   8.875 -0.0394 -0.1517 -0.0297
  201MOL0     C27633   7.755   5.240   8.872  0.3757 -0.5448  0.2612
  201MOL0     C27634   7.741   5.137   8.776 -0.5728  0.0766 -1.2542
  201MOL0     C27635   7.836   5.103   8.678  0.1759 -0.3238 -0.8772
  201MOL0     O27636   7.836   4.996   8.586 -0.2738 -1.0146  0.0601
  201MOL0     C27637   7.712   4.945   8.541  0.1192 -0.2610 -0.0662
  201MOL0     C27638   7.706   4.907   8.395 -0.6523 -0.4167 -1.8019
  201MOL0     C27639   7.798   4.795   8.363 -0.4177  0.4255 -0.4093
  201MOL0     C27640   7.757   4.721   8.246  0.4408  0.2069 -0.1359
  201MOL0     C27641   7.871   4.636   8.187 -0.4392 -0.8808 -0.0131
  201MOL0     C27642   7.900   4.510   8.268  0.9361  0.4428  0.2859
  201MOL0     C27643   8.020   4.443   8.201 -0.0942  0.9173 -0.2233
  201MOL0     C27644   8.009   4.434   8.044  0.7578  0.0723  0.7763
  201MOL0    Cl27645   8.131   4.319   7.985  0.1781 -0.2637  0.0134
  201MOL0     C27646   7.950   5.181   8.681  0.0125  0.1271 -0.2297
  201MOL0     C27647   7.978   5.283   8.776 -0.0784  0.8534  1.0490
  201MOL0     O27648   7.711   5.509   8.970  1.1256  0.1466  0.9067
  201MOL0     C27649   7.903   5.421   9.245  0.4781  0.3299 -0.6896
  201MOL0     C27650   7.914   5.426   9.386 -0.3241  0.0701 -0.3212
  201MOL0     N27651   7.426   5.566   9.935  0.2216  0.3811 -0.4614
  201MOL0     N27652   7.393   5.505  10.045  0.2369  0.0564 -0.1886
  201MOL0     C27653   8.385   4.781  10.378  0.4992  0.9116  0.0715
  201MOL0     C27654   8.516   4.722  10.396 -0.7032  0.4082  0.6398
  201MOL0     C27655   8.967   4.607  10.257  0.7636 -0.1563  1.1156
  201MOL0     C27656   9.078   4.637  10.169 -0.6309  0.0667  0.2594
  201MOL0     C27657   9.207   4.584  10.200  0.2677  0.2207 -0.2781
  201MOL0     C27658   9.235   4.505  10.314 -0.5676 -0.0810  0.2063
  201MOL0     O27659   9.363   4.491  10.355  1.0371  0.6774 -0.1326
  201MOL0     C27660   9.437   4.387  10.295 -0.0589 -0.1107 -0.2429
  201MOL0     C27661   9.361   4.248  10.287 -0.1042  0.2502  0.5456
  201MOL0     C27662   9.361   4.152  10.405 -0.6921 -0.7962 -0.3310
  201MOL0     C27663   9.503   4.085  10.431 -0.9879  0.1549  0.7540
  201MOL0     C27664   9.606   4.183  10.483  0.5291 -0.3666  0.2811
  201MOL0     C27665   9.675   4.269  10.539  0.0568  0.5948 -0.8480
  201MOL0     C27666   9.124   4.465  10.388  0.0026 -0.2920  0.4432
  201MOL0     C27667   8.996   4.520  10.363 -0.0699 -0.4548 -0.9299
  201MOL0     C27668   8.895   4.482  10.470  0.9993  0.4684 -1.0078
  201MOL0     H27669   8.613   4.709  10.079  1.8480  4.1209  1.4544
  201MOL0     H27670   8.366   4.761  10.047 -0.6011 -5.1732 -0.2955
  201MOL0     H27671   8.222   5.038  10.303  0.2942  1.7354  3.4230
  201MOL0     H27672   8.168   4.912  10.420  2.3616 -0.6435 -1.3604
  201MOL0     H27673   7.948   4.907  10.334 -0.0319 -0.2882 -1.9751
  201MOL0     H27674   8.002   5.055  10.394 -0.2231 -0.5198  0.5776
  201MOL0     H27675   8.048   5.129  10.148 -1.1852  2.3057  3.3017
  201MOL0     H27676   7.991   4.964  10.096  1.0477  0.1420 -0.7404
  201MOL0     H27677   7.803   5.114  10.066  0.6637 -0.5662 -0.1537
  201MOL0     H27678   7.764   5.030  10.216  1.2125 -0.5991 -0.5845
  201MOL0     H27679   7.880   5.309  10.188  0.3282 -1.8563 -1.7868
  201MOL0     H27680   7.837   5.231  10.348  0.1572  2.3856  0.8311
  201MOL0     H27681   7.648   5.290  10.122 -2.9549  0.5399  0.6581
  201MOL0     H27682   7.607   5.208  10.269 -1.0723  2.3594  1.1886
  201MOL0     H27683   7.727   5.487  10.273 -0.0318  1.2709  0.1016
  201MOL0     H27684   7.655   5.389  10.405  1.9690  1.4632  0.3000
  201MOL0     H27685   7.428   5.378  10.266  1.6471 -1.8022 -1.1560
  201MOL0     H27686   7.472   5.533  10.354  1.8890  0.1299  0.1780
  201MOL0     H27687   7.616   5.712  10.153 -1.2776 -0.5644  3.5070
  201MOL0     H27688   7.676   5.798   9.923  0.7325  2.6712 -2.0135
  201MOL0     H27689   7.519   5.817   9.835  1.5924  2.2000  1.5477
  201MOL0     H27690   7.576   5.607   9.713 -0.4487  0.6202 -0.4325
  201MOL0     H27691   7.683   5.736   9.676 -0.2286  1.3992  1.9129
  201MOL0     H27692   7.853   5.600   9.824  0.9904  1.4478 -2.5901
  201MOL0     H27693   7.724   5.511   9.885 -0.1203  0.4659 -0.0951
  201MOL0     H27694   7.843   5.385   9.705  0.8372 -1.0478 -5.2624
  201MOL0     H27695   7.698   5.431   9.628 -0.0127  0.3533 -0.9322
  201MOL0     H27696   7.708   5.690   9.435 -0.0405 -1.0323  0.6887
  201MOL0     H27697   7.612   5.771   9.249  1.8930 -0.1184  0.9820
  201MOL0     H27698   7.571   5.658   9.123 -0.7272  3.4832 -1.0672
  201MOL0     H27699   7.708   5.770   9.107  1.8068  1.6974  3.3973
  201MOL0     H27700   7.689   5.257   8.957  2.2452  1.3419  1.4182
  201MOL0     H27701   7.662   5.063   8.778  2.5911 -3.6990 -2.5395
  201MOL0     H27702   7.689   4.853   8.596  1.6517  0.5393  2.0954
  201MOL0     H27703   7.628   5.011   8.563 -0.2383 -0.6628 -0.2101
  201MOL0     H27704   7.603   4.888   8.363 -0.4991 -3.0939 -0.9880
  201MOL0     H27705   7.750   4.996   8.349 -0.7971 -0.2637 -1.6434
  201MOL0     H27706   7.802   4.720   8.443  1.9597  0.7509 -0.1559
  201MOL0     H27707   7.900   4.830   8.343 -0.3254  0.4904  0.1408
  201MOL0     H27708   7.717   4.782   8.165 -2.0015 -1.2721 -0.1651
  201MOL0     H27709   7.662   4.677   8.278  0.2504  1.8874  1.8161
  201MOL0     H27710   7.845   4.617   8.082 -0.8081 -3.0504  0.4208
  201MOL0     H27711   7.962   4.696   8.178 -1.1025  0.1523 -0.0574
  201MOL0     H27712   7.816   4.440   8.262 -0.9768  2.4564  1.7833
  201MOL0     H27713   7.911   4.550   8.369 -1.7472  2.5701 -0.1387
  201MOL0     H27714   8.043   4.344   8.242 -2.2350 -1.2087 -3.6138
  201MOL0     H27715   8.105   4.510   8.216  0.2199  0.7209 -1.0492
  201MOL0     H27716   8.034   4.532   8.001 -1.5727 -0.2088 -1.4252
  201MOL0     H27717   7.909   4.401   8.016  0.8843 -0.2681  0.7232
  201MOL0     H27718   8.018   5.155   8.601  2.5259 -0.1853  1.8672
  201MOL0     H27719   8.075   5.331   8.781 -0.5824  1.9777  0.3898
  201MOL0     H27720   7.973   5.354   9.196 -0.0259 -0.6041 -0.1562
  201MOL0     H27721   7.977   5.354   9.437 -1.1878 -0.1461  0.4868
  201MOL0     H27722   8.320   4.786  10.465 -3.0913  0.8792 -2.3672
  201MOL0     H27723   8.559   4.692  10.491  1.4356 -0.7593 -0.6143
  201MOL0     H27724   9.063   4.688  10.075  1.1955 -3.4389 -2.1490
  201MOL0     H27725   9.293   4.602  10.137  0.4678 -3.6942 -1.3503
  201MOL0     H27726   9.448   4.423  10.192  3.8948  6.3586  1.8226
  201MOL0     H27727   9.538   4.376  10.336 -0.8341 -0.0258  1.7919
  201MOL0     H27728   9.411   4.195  10.207  1.0637 -0.0913  1.4752
  201MOL0     H27729   9.258   4.252  10.249  0.5782  0.9806 -1.2951
  201MOL0     H27730   9.329   4.209  10.493  0.4237  0.7358 -0.8787
  201MOL0     H27731   9.281   4.079  10.389 -2.7905  1.3552 -0.1250
  201MOL0     H27732   9.546   4.034  10.345 -1.6262  1.2629 -0.2628
  201MOL0     H27733   9.483   4.013  10.510 -3.1872 -2.6987 -2.1224
  201MOL0     H27734   9.731   4.341  10.594  1.9603 -1.5207  0.1402
  201MOL0     H27735   9.140   4.402  10.474  0.7228 -0.5730  0.1126
  201MOL0     H27736   8.926   4.399  10.534 -3.3947  0.2982  1.3029
  201MOL0     H27737   8.860   4.565  10.532  2.2587 -0.7597  1.4518
  201MOL0     H27738   8.800   4.458  10.421  1.9472  0.5489 -2.9848
  202MOL0     O27739   2.490  10.210   4.592 -0.5866 -0.5842 -0.2884
  202MOL0     C27740   2.579  10.158   4.658  0.2228 -0.3640  0.1467
  202MOL0     O27741   2.642  10.043   4.619 -0.0805  0.1600 -0.1332
  202MOL0     C27742   2.655  10.032   4.481 -0.5994 -0.6229 -0.4728
  202MOL0     C27743   2.688  10.124   4.379  0.8668  0.5661 -0.5873
  202MOL0     C27744   2.705  10.079   4.240  0.0793  0.2604 -0.0037
  202MOL0     C27745   2.685   9.944   4.206  0.3121 -0.4966  0.2207
  202MOL0     O27746   2.696   9.895   4.082 -0.0693 -0.0181 -0.5896
  202MOL0     C27747   2.667   9.984   3.972 -0.6973  0.1878 -0.0141
  202MOL0     C27748   2.579   9.903   3.864 -0.2904  0.1209  0.5949
  202MOL0     C27749   2.567   9.989   3.734  0.7495  0.5278 -0.1991
  202MOL0     C27750   2.529   9.879   3.621 -0.7638 -0.5754 -1.0605
  202MOL0     C27751   2.500   9.946   3.487 -0.2690 -0.6335  0.3845
  202MOL0     C27752   2.349   9.978   3.451 -0.3843 -0.9459  0.4763
  202MOL0     C27753   2.323   9.957   3.289 -0.1582  0.1431 -0.0754
  202MOL0     C27754   2.201  10.026   3.230 -0.1640 -0.3396 -0.6239
  202MOL0     N27755   2.230  10.175   3.224  0.1827 -0.1187 -1.2643
  202MOL0     C27756   2.313  10.237   3.138  0.7338  0.4596  0.0270
  202MOL0     C27757   2.322  10.369   3.162  0.3444 -0.9516  0.3038
  202MOL0     C27758   2.400  10.478   3.082 -0.3240  0.4963  0.5726
  202MOL0     C27759   2.298  10.567   3.011  1.1782  0.1210  0.4593
  202MOL0     C27760   2.283  10.713   3.067  0.6936  0.1262 -0.3589
  202MOL0     C27761   2.166  10.781   2.991  0.0356  0.2483 -0.2048
  202MOL0     O27762   2.208  10.798   2.853  0.2692 -0.9328 -0.3889
  202MOL0     C27763   2.128  10.776   2.748  0.2064 -0.1634  0.4332
  202MOL0     C27764   2.184  10.749   2.623 -0.3272 -0.0066 -0.6142
  202MOL0     C27765   2.102  10.697   2.521 -0.6699 -0.6341 -0.8265
  202MOL0     C27766   2.189  10.636   2.417  0.3319 -0.6852 -0.1410
  202MOL0     C27767   1.963  10.693   2.532 -0.2585 -0.0339  1.0604
  202MOL0     C27768   1.865  10.651   2.428 -0.8328 -0.6440  0.9186
  202MOL0     O27769   1.731  10.665   2.457 -0.0342 -0.1815 -0.0035
  202MOL0     C27770   1.643  10.599   2.374  0.3426 -0.3290 -0.6546
  202MOL0     C27771   1.594  10.467   2.411 -0.0775 -0.1448  0.0476
  202MOL0     C27772   1.498  10.395   2.330  0.3730 -0.2388  0.4202
  202MOL0     C27773   1.437  10.462   2.217 -0.6469 -0.3641 -0.5932
  202MOL0     O27774   1.343  10.406   2.135 -0.1480 -0.4741 -0.2447
  202MOL0     C27775   1.308  10.260   2.132 -0.4405  0.1657  0.3271
  202MOL0     C27776   1.160  10.237   2.163 -0.0646  0.7116 -0.1033
  202MOL0     C27777   1.133  10.087   2.179 -0.5056 -0.0207  0.4224
  202MOL0     C27778   0.980  10.074   2.217 -0.4397 -0.3073 -0.5832
  202MOL0     C27779   0.932   9.929   2.276  0.4951  0.3488 -0.4240
  202MOL0     C27780   0.787   9.936   2.322 -0.2418 -1.4885 -0.4712
  202MOL0     C27781   0.770   9.999   2.464 -0.0684  0.6329 -0.3078
  202MOL0     C27782   0.707  10.140   2.487 -0.5703  0.4091  0.5080
  202MOL0    Cl27783   0.527  10.136   2.448 -0.2985 -0.3239 -0.0935
  202MOL0     C27784   1.481  10.601   2.193  0.8413 -0.8016  0.4136
  202MOL0     C27785   1.583  10.665   2.265  0.9900 -0.9766  0.4267
  202MOL0     O27786   1.907  10.601   2.321 -0.3375 -1.0669 -0.0976
  202MOL0     C27787   1.906  10.727   2.653  1.0009 -0.0495 -0.0268
  202MOL0     C27788   1.993  10.766   2.761  0.1071 -0.9445  0.6379
  202MOL0     N27789   2.230  10.395   3.263  0.3567 -0.4213  0.3239
  202MOL0     N27790   2.184  10.280   3.306  0.1359  0.1490 -0.7695
  202MOL0     C27791   2.660   9.856   4.313 -0.0995  1.0348 -0.0101
  202MOL0     C27792   2.647   9.900   4.444 -0.4234 -0.2579  0.3755
  202MOL0     C27793   2.597  10.210   4.789  0.4059  0.1765  0.1148
  202MOL0     C27794   2.557  10.336   4.821 -0.3183  0.3283 -0.0597
  202MOL0     C27795   2.575  10.398   4.945 -0.5311  0.8559 -0.3712
  202MOL0     C27796   2.646  10.330   5.029 -0.0853  0.3252 -0.5442
  202MOL0     O27797   2.676  10.386   5.149 -0.2164  0.3353 -0.8936
  202MOL0     C27798   2.569  10.370   5.238 -0.7642  0.2212 -0.5338
  202MOL0     C27799   2.613  10.422   5.377 -0.9304 -0.2620  0.3624
  202MOL0     C27800   2.602  10.573   5.383 -0.1941 -0.5629 -0.4430
  202MOL0     C27801   2.596  10.630   5.533 -0.5095 -1.1863 -0.7510
  202MOL0     C27802   2.723  10.680   5.574 -0.1665 -0.7331 -0.1753
  202MOL0     C27803   2.829  10.723   5.626  0.2601  0.4259 -0.0374
  202MOL0     C27804   2.684  10.203   5.008  0.8403 -0.3816 -0.4336
  202MOL0     C27805   2.669  10.133   4.882  0.2618  0.1339 -0.2342
  202MOL0     C27806   2.724   9.989   4.872  0.9608 -0.7233  0.0763
  202MOL0     H27807   2.693  10.231   4.394 -2.5145  1.4648 -4.0066
  202MOL0     H27808   2.736  10.156   4.170 -2.0719  2.6635  1.4950
  202MOL0     H27809   2.759  10.028   3.931 -0.9715  0.8168  0.0337
  202MOL0     H27810   2.606  10.071   3.998 -1.7224 -0.4410 -0.2642
  202MOL0     H27811   2.640   9.816   3.836 -1.5473  0.1490 -2.7460
  202MOL0     H27812   2.485   9.869   3.909  0.2131  1.1805  2.5571
  202MOL0     H27813   2.483  10.058   3.745  2.0170  2.0428  0.3108
  202MOL0     H27814   2.661  10.041   3.712  1.0188  0.4220  0.6548
  202MOL0     H27815   2.615   9.812   3.609 -0.1070 -0.2209  1.2265
  202MOL0     H27816   2.448   9.807   3.639 -0.3912 -1.2864 -2.0798
  202MOL0     H27817   2.543   9.880   3.411  1.3990  1.0084 -0.1580
  202MOL0     H27818   2.565  10.033   3.487 -0.8650 -0.1807  0.4499
  202MOL0     H27819   2.281   9.908   3.501  2.2843 -3.5987  0.6441
  202MOL0     H27820   2.315  10.076   3.488 -0.2057 -0.6968 -0.0167
  202MOL0     H27821   2.302   9.850   3.278 -1.6941  0.4417 -0.2687
  202MOL0     H27822   2.410   9.990   3.231  0.4765  0.5363  1.0810
  202MOL0     H27823   2.199   9.992   3.126  5.1284  0.3561 -1.1978
  202MOL0     H27824   2.122   9.986   3.294  0.8745 -0.6056  0.5189
  202MOL0     H27825   2.370  10.185   3.062 -2.0139  0.9139 -2.5264
  202MOL0     H27826   2.473  10.440   3.010 -1.0168  0.3226 -0.0515
  202MOL0     H27827   2.459  10.536   3.154 -0.7545  1.1087  0.4385
  202MOL0     H27828   2.320  10.575   2.904 -0.3334 -3.5832 -0.2811
  202MOL0     H27829   2.199  10.521   3.018  0.5035  1.0234 -1.9794
  202MOL0     H27830   2.268  10.716   3.176 -1.4958 -1.6494 -0.5191
  202MOL0     H27831   2.375  10.770   3.061 -1.0600  3.0347 -1.4750
  202MOL0     H27832   2.081  10.713   2.997  0.9637 -1.0127 -0.7916
  202MOL0     H27833   2.140  10.879   3.032  0.3850 -0.7334  2.5790
  202MOL0     H27834   2.292  10.747   2.614 -0.2345 -0.6388  0.4496
  202MOL0     H27835   2.141  10.549   2.372 -3.1765  0.9421  0.1644
  202MOL0     H27836   2.290  10.605   2.447  0.9150  0.4415 -0.8855
  202MOL0     H27837   2.201  10.702   2.331 -0.0516  3.8603  2.9429
  202MOL0     H27838   1.636  10.425   2.502 -0.2415 -0.2020  0.0965
  202MOL0     H27839   1.468  10.295   2.360 -0.2248 -0.3270 -0.4407
  202MOL0     H27840   1.341  10.222   2.035  1.3031 -0.9488  1.2837
  202MOL0     H27841   1.367  10.201   2.204 -1.7805 -0.0232  1.3089
  202MOL0     H27842   1.139  10.289   2.257  1.1968  1.2502 -0.1050
  202MOL0     H27843   1.094  10.281   2.087  1.2920  0.7368 -1.2973
  202MOL0     H27844   1.205  10.058   2.256  0.7571  0.2213 -0.6243
  202MOL0     H27845   1.158  10.030   2.089 -3.2337  1.4910 -1.4448
  202MOL0     H27846   0.914  10.090   2.132  0.9616 -2.1093 -2.1049
  202MOL0     H27847   0.958  10.142   2.300  0.3020  0.5646 -1.0887
  202MOL0     H27848   0.939   9.854   2.197 -1.7531 -0.5727  0.1919
  202MOL0     H27849   0.986   9.894   2.364 -1.1831 -0.0542  0.4821
  202MOL0     H27850   0.737   9.839   2.316 -1.0613 -1.5621  4.0154
  202MOL0     H27851   0.743  10.012   2.257 -1.4658 -1.0455  0.8426
  202MOL0     H27852   0.871  10.004   2.506 -0.4521 -1.7835  1.0347
  202MOL0     H27853   0.717   9.925   2.524  0.4308 -1.9718 -2.8480
  202MOL0     H27854   0.747  10.212   2.415  1.4000 -1.1311 -0.0303
  202MOL0     H27855   0.716  10.171   2.591  3.2695 -1.7797  0.9974
  202MOL0     H27856   1.455  10.651   2.100  0.2999 -1.7538  0.0371
  202MOL0     H27857   1.606  10.769   2.245 -4.7847  0.2931 -1.6486
  202MOL0     H27858   1.800  10.735   2.676  1.3578  3.8856  0.8950
  202MOL0     H27859   1.951  10.791   2.858 -0.8524  1.3062 -0.2881
  202MOL0     H27860   2.669   9.751   4.287  3.8279  1.2532 -0.2332
  202MOL0     H27861   2.628   9.819   4.514 -1.1069 -1.8969 -1.5939
  202MOL0     H27862   2.516  10.400   4.744  0.6166 -1.4842 -2.1775
  202MOL0     H27863   2.529  10.493   4.969 -1.3712  1.5329 -3.9917
  202MOL0     H27864   2.473  10.417   5.213 -0.5080  1.0947  0.0736
  202MOL0     H27865   2.553  10.264   5.259 -1.3042  0.8151  2.5765
  202MOL0     H27866   2.718  10.391   5.386  1.0739  4.6183 -2.5066
  202MOL0     H27867   2.546  10.367   5.445  2.9255 -1.3648  3.6970
  202MOL0     H27868   2.671  10.617   5.311 -0.8369 -0.0232 -0.7414
  202MOL0     H27869   2.505  10.613   5.352  1.1768  2.0718 -1.6258
  202MOL0     H27870   2.559  10.562   5.611  2.6984  0.8231  2.8657
  202MOL0     H27871   2.530  10.717   5.540  2.7287  1.3132  1.6926
  202MOL0     H27872   2.916  10.761   5.675  0.3772  0.1465 -0.0273
  202MOL0     H27873   2.724  10.156   5.096  2.3310  0.8399 -0.4244
  202MOL0     H27874   2.804   9.990   4.797  0.3884  3.4202 -0.7243
  202MOL0     H27875   2.770   9.944   4.960  2.9108 -0.8583 -0.9372
  202MOL0     H27876   2.641   9.930   4.832 -2.8102  5.2329 -2.1647
  203MOL0     O27877   3.057   4.452   7.605  0.8108 -0.8252  0.1712
  203MOL0     C27878   3.131   4.415   7.515  0.6633 -1.0057  0.1782
  203MOL0     O27879   3.258   4.453   7.477 -0.0588  0.2778 -0.2875
  203MOL0     C27880   3.314   4.562   7.531  0.0291 -0.4861 -0.7763
  203MOL0     C27881   3.248   4.673   7.580  0.1883  0.0808  0.9609
  203MOL0     C27882   3.313   4.784   7.623  0.1643 -0.2197 -0.1481
  203MOL0     C27883   3.451   4.786   7.631 -0.3078  1.1014 -0.7800
  203MOL0     O27884   3.526   4.890   7.673  0.4237 -0.8648  1.1116
  203MOL0     C27885   3.458   4.998   7.745 -0.8736  0.1653 -0.1635
  203MOL0     C27886   3.566   5.083   7.814 -0.3787  0.6053  0.6157
  203MOL0     C27887   3.572   5.068   7.965 -0.7247  0.2692 -0.3635
  203MOL0     C27888   3.638   5.197   8.028  0.1599 -0.0765 -0.9744
  203MOL0     C27889   3.526   5.278   8.101 -0.0596 -0.5076  0.2219
  203MOL0     C27890   3.476   5.221   8.237  0.0753 -0.4239  0.3743
  203MOL0     C27891   3.575   5.141   8.326  0.0272  0.1081 -0.3869
  203MOL0     C27892   3.694   5.225   8.379  0.1106 -0.5275  1.0973
  203MOL0     N27893   3.793   5.134   8.436  0.1097  0.4320  0.1931
  203MOL0     C27894   3.871   5.042   8.366  0.6487  0.2040 -0.7233
  203MOL0     C27895   3.967   4.997   8.445 -0.6355 -0.9357 -0.2518
  203MOL0     C27896   4.075   4.900   8.424  0.3658 -0.1308 -0.1076
  203MOL0     C27897   4.154   4.933   8.295  0.0827 -0.2261  0.4539
  203MOL0     C27898   4.104   4.868   8.165  0.2026 -0.1367 -0.1703
  203MOL0     C27899   4.072   4.718   8.168 -0.0042 -0.3178  0.3995
  203MOL0     O27900   4.195   4.640   8.156 -0.2103  0.0229  0.0237
  203MOL0     C27901   4.248   4.635   8.024  0.2232  0.1961 -0.5195
  203MOL0     C27902   4.381   4.669   8.008 -0.1370 -0.2257 -0.5477
  203MOL0     C27903   4.443   4.649   7.884 -0.8083  0.0672 -0.3762
  203MOL0     C27904   4.587   4.716   7.866  0.1061  0.2941  0.0253
  203MOL0     C27905   4.372   4.581   7.783 -0.8645 -0.5985  0.6006
  203MOL0     C27906   4.424   4.539   7.643 -0.8201  0.3524  0.0979
  203MOL0     O27907   4.371   4.423   7.584  0.0210 -0.4156  0.4300
  203MOL0     C27908   4.428   4.360   7.476  0.3356 -0.4999 -0.0374
  203MOL0     C27909   4.332   4.296   7.395 -0.3717 -0.0468  0.0169
  203MOL0     C27910   4.372   4.233   7.275  0.3920  0.3475 -0.2842
  203MOL0     C27911   4.504   4.227   7.234  0.6907  0.5656  0.3091
  203MOL0     O27912   4.538   4.166   7.123  0.5099  0.6902  0.4344
  203MOL0     C27913   4.460   4.187   7.006 -0.1254 -0.1643 -0.6331
  203MOL0     C27914   4.529   4.145   6.874 -0.4537 -0.5288 -0.8102
  203MOL0     C27915   4.419   4.093   6.782  0.5514  0.9312 -0.7301
  203MOL0     C27916   4.488   4.054   6.651  0.7523 -0.0891 -0.3333
  203MOL0     C27917   4.387   4.010   6.540  0.7376 -0.4504  0.4369
  203MOL0     C27918   4.305   3.880   6.574  0.5135  0.2336  0.3838
  203MOL0     C27919   4.196   3.831   6.475 -1.0494 -0.3726  0.1600
  203MOL0     C27920   4.253   3.768   6.355  0.6528 -0.3995 -0.3324
  203MOL0    Cl27921   4.249   3.893   6.218  0.0042 -0.6549 -0.2467
  203MOL0     C27922   4.594   4.292   7.319 -0.3761  0.8739 -1.0045
  203MOL0     C27923   4.558   4.362   7.436 -0.4459  0.3482 -0.8879
  203MOL0     O27924   4.511   4.610   7.591  0.4733 -0.5716 -0.5083
  203MOL0     C27925   4.243   4.539   7.808 -0.0763  0.1566  1.2104
  203MOL0     C27926   4.172   4.577   7.925  0.2220 -0.1229 -0.5712
  203MOL0     N27927   3.964   5.070   8.554  0.0827  0.0093 -0.0602
  203MOL0     N27928   3.860   5.146   8.557  0.0127 -0.9340 -0.6251
  203MOL0     C27929   3.524   4.678   7.581  1.0967  0.4711  0.1808
  203MOL0     C27930   3.454   4.564   7.538 -0.0191 -0.0869 -0.0195
  203MOL0     C27931   3.060   4.333   7.420 -0.3472  0.4078  0.9279
  203MOL0     C27932   2.919   4.350   7.409 -0.4619  0.1152  0.5770
  203MOL0     C27933   2.841   4.272   7.324  0.4047  0.9627  0.8383
  203MOL0     C27934   2.898   4.177   7.243 -0.0534 -0.2016  0.6362
  203MOL0     O27935   2.830   4.099   7.150  0.2745 -0.4493  0.1419
  203MOL0     C27936   2.692   4.100   7.150  0.0264  0.1742 -0.9337
  203MOL0     C27937   2.622   3.994   7.063 -0.4516 -0.4790  0.4653
  203MOL0     C27938   2.665   4.004   6.913  0.7044  0.2323  0.0048
  203MOL0     C27939   2.626   4.137   6.841  1.1517  0.2464  0.5242
  203MOL0     C27940   2.476   4.166   6.859 -0.1302  0.7153 -0.7213
  203MOL0     C27941   2.350   4.195   6.869 -0.2755  0.9491 -1.0124
  203MOL0     C27942   3.036   4.172   7.246  0.7461  0.2064 -0.0817
  203MOL0     C27943   3.118   4.241   7.327  0.2654  0.1751 -0.1770
  203MOL0     C27944   3.271   4.208   7.320  0.1490  0.0567 -0.5789
  203MOL0     H27945   3.140   4.670   7.580  0.1394 -3.4123 -0.2615
  203MOL0     H27946   3.255   4.873   7.643 -3.0585 -2.2136  0.1491
  203MOL0     H27947   3.390   4.953   7.818 -1.2814  0.1798 -0.5392
  203MOL0     H27948   3.405   5.060   7.673 -0.5428 -0.9119 -1.3814
  203MOL0     H27949   3.667   5.075   7.772 -0.7142  3.5151 -1.0564
  203MOL0     H27950   3.535   5.186   7.792 -3.7197 -0.3802  0.1710
  203MOL0     H27951   3.473   5.045   8.004 -0.4820  1.3015  0.9527
  203MOL0     H27952   3.633   4.981   7.989 -1.2355  0.8155  3.6503
  203MOL0     H27953   3.726   5.169   8.086 -1.9750 -1.5308  1.8037
  203MOL0     H27954   3.676   5.250   7.941  2.2517 -0.8140 -0.5623
  203MOL0     H27955   3.442   5.290   8.032  1.6265  1.8519 -1.5783
  203MOL0     H27956   3.555   5.382   8.120  3.0227 -1.6190  2.4283
  203MOL0     H27957   3.438   5.309   8.290 -1.1328 -2.0501  2.3557
  203MOL0     H27958   3.384   5.166   8.214 -0.0767 -0.3194  0.7313
  203MOL0     H27959   3.601   5.048   8.274 -0.3978  0.9235 -2.1236
  203MOL0     H27960   3.509   5.105   8.405 -1.6111 -0.5977 -2.0234
  203MOL0     H27961   3.743   5.264   8.289  1.0146 -1.9042  0.9640
  203MOL0     H27962   3.659   5.310   8.437 -2.1142 -0.4041 -0.3229
  203MOL0     H27963   3.844   5.009   8.266 -0.0956  2.7577 -1.4285
  203MOL0     H27964   4.044   4.795   8.428  1.5194 -0.6316 -2.3559
  203MOL0     H27965   4.142   4.917   8.509  1.9492  0.4613 -1.4231
  203MOL0     H27966   4.156   5.038   8.266 -1.8361 -1.5124 -5.9445
  203MOL0     H27967   4.256   4.902   8.317  0.3573  2.3489  3.6096
  203MOL0     H27968   4.021   4.929   8.127  1.3228  1.7517  0.2736
  203MOL0     H27969   4.179   4.882   8.086  0.7079  0.3903  0.3858
  203MOL0     H27970   4.027   4.682   8.261  0.5009 -0.4155  0.6103
  203MOL0     H27971   3.993   4.699   8.096 -0.1935  0.1118  0.4942
  203MOL0     H27972   4.436   4.721   8.086 -1.7286  0.9682 -0.1639
  203MOL0     H27973   4.641   4.733   7.960 -0.9964  0.8356  0.5732
  203MOL0     H27974   4.565   4.805   7.808 -0.6957 -0.8511 -1.5060
  203MOL0     H27975   4.647   4.649   7.803 -2.0769 -2.8642  1.0664
  203MOL0     H27976   4.224   4.291   7.405 -0.3883 -0.4415 -0.3123
  203MOL0     H27977   4.290   4.199   7.212 -0.9490  0.2365  1.4349
  203MOL0     H27978   4.374   4.120   7.019 -0.0498 -0.4711 -1.6009
  203MOL0     H27979   4.431   4.292   7.008  1.7606  0.4363  2.6972
  203MOL0     H27980   4.573   4.239   6.840 -0.6083 -0.1977 -0.1092
  203MOL0     H27981   4.613   4.077   6.889  0.3163 -0.1063 -2.8560
  203MOL0     H27982   4.346   4.170   6.757  0.6287  0.2378 -3.5099
  203MOL0     H27983   4.366   4.005   6.818 -2.6351  2.3753 -1.5096
  203MOL0     H27984   4.557   3.970   6.659 -0.5174 -1.3341 -1.8245
  203MOL0     H27985   4.543   4.142   6.617 -2.3948  1.5854 -1.4955
  203MOL0     H27986   4.318   4.094   6.528  1.1732 -0.1239  0.2147
  203MOL0     H27987   4.431   4.005   6.440  0.8711 -0.7511  0.5114
  203MOL0     H27988   4.244   3.885   6.665  3.7566 -1.6343  2.8784
  203MOL0     H27989   4.375   3.797   6.588 -1.5455 -1.5956  0.3276
  203MOL0     H27990   4.131   3.915   6.447 -0.0793  0.7902  1.2476
  203MOL0     H27991   4.134   3.755   6.523 -0.5725 -0.6231  0.3793
  203MOL0     H27992   4.190   3.682   6.328  1.1225 -1.1402  0.8631
  203MOL0     H27993   4.350   3.720   6.372  1.8227  1.1665 -2.0992
  203MOL0     H27994   4.696   4.271   7.288 -1.0758 -1.7865 -1.7607
  203MOL0     H27995   4.633   4.411   7.497  1.0056 -2.4523 -0.2223
  203MOL0     H27996   4.190   4.479   7.734  0.9388 -1.8149  1.9931
  203MOL0     H27997   4.078   4.527   7.943  0.2689 -0.3361 -0.9119
  203MOL0     H27998   3.631   4.674   7.594  1.0347  4.1698  4.5030
  203MOL0     H27999   3.516   4.481   7.504 -0.6720  0.1033 -1.7996
  203MOL0     H28000   2.876   4.436   7.459  0.2292  0.0054  1.3867
  203MOL0     H28001   2.735   4.295   7.327  0.2214  0.3359 -0.4667
  203MOL0     H28002   2.645   4.081   7.247 -2.6528  4.8452 -1.0386
  203MOL0     H28003   2.663   4.202   7.123  1.2432  1.6423  2.6651
  203MOL0     H28004   2.515   4.012   7.075 -0.3149  1.2117 -0.5426
  203MOL0     H28005   2.646   3.891   7.092 -0.6061 -0.8705 -0.7339
  203MOL0     H28006   2.773   3.986   6.900  0.3330 -1.8509 -0.5759
  203MOL0     H28007   2.624   3.918   6.861  1.7720  0.0375 -0.5503
  203MOL0     H28008   2.660   4.109   6.741  0.6590 -1.4130  0.7892
  203MOL0     H28009   2.692   4.220   6.867 -0.2732  1.4553  0.4177
  203MOL0     H28010   2.245   4.214   6.857 -1.0470 -2.5237 -0.8070
  203MOL0     H28011   3.074   4.093   7.182  1.0838 -0.5448  1.0180
  203MOL0     H28012   3.302   4.199   7.424 -0.7129 -0.1461 -0.3324
  203MOL0     H28013   3.286   4.115   7.264 -1.7688 -0.5947 -0.0916
  203MOL0     H28014   3.326   4.288   7.269  0.6456 -1.6172 -2.8425
  204MOL0     O28015  11.497   2.873   6.427 -0.4127  0.3662  0.5454
  204MOL0     C28016  11.541   2.983   6.387 -0.5417  0.3356 -0.2091
  204MOL0     O28017  11.650   2.997   6.303  0.7884 -0.0356  0.5490
  204MOL0     C28018  11.673   2.900   6.204 -0.0743 -0.8756  1.0111
  204MOL0     C28019  11.592   2.792   6.164 -0.2635  0.5466 -1.0013
  204MOL0     C28020  11.628   2.709   6.066 -0.2106 -0.9323  0.0946
  204MOL0     C28021  11.744   2.748   5.996 -0.3801  0.7134  0.2859
  204MOL0     O28022  11.752   2.668   5.883  0.8701 -0.3544 -0.3262
  204MOL0     C28023  11.748   2.758   5.771 -0.3737  0.5218 -1.1114
  204MOL0     C28024  11.774   2.685   5.632 -0.4454 -0.1291  0.7413
  204MOL0     C28025  11.660   2.581   5.605  0.0960 -0.8206  0.2187
  204MOL0     C28026  11.678   2.486   5.488  0.6843  0.2796  0.6493
  204MOL0     C28027  11.788   2.377   5.495  0.0587  0.9382 -0.0955
  204MOL0     C28028  11.819   2.314   5.633 -0.5260 -0.0872  0.4531
  204MOL0     C28029  11.696   2.238   5.694  0.5838 -0.1539  0.4770
  204MOL0     C28030  11.655   2.110   5.617 -0.1298  0.3861 -0.5326
  204MOL0     N28031  11.554   2.033   5.682 -0.0735  0.1454 -0.1302
  204MOL0     C28032  11.433   2.078   5.710  1.2082  0.0961 -0.0770
  204MOL0     C28033  11.384   1.977   5.787  0.6301  0.6272  0.4246
  204MOL0     C28034  11.251   1.975   5.869  0.0155 -0.0447  1.0075
  204MOL0     C28035  11.127   2.015   5.780  0.6992 -0.0157  0.8458
  204MOL0     C28036  11.011   1.928   5.806  0.4599  0.5322  1.0288
  204MOL0     C28037  10.880   1.980   5.759 -0.1048  0.4257 -0.6212
  204MOL0     O28038  10.878   1.964   5.619 -0.6142  1.3246 -0.2730
  204MOL0     C28039  10.776   1.869   5.579 -0.5694  0.1223 -0.5613
  204MOL0     C28040  10.641   1.893   5.618 -0.0715 -0.0278 -0.3829
  204MOL0     C28041  10.541   1.806   5.577  0.5747 -0.7076  0.1379
  204MOL0     C28042  10.407   1.844   5.626 -0.8903 -0.7737 -0.4548
  204MOL0     C28043  10.569   1.686   5.505  0.4901  0.1193  0.3828
  204MOL0     C28044  10.474   1.588   5.457  0.0465  0.2579  0.9469
  204MOL0     O28045  10.346   1.641   5.431  0.4699  1.0017 -0.1664
  204MOL0     C28046  10.271   1.554   5.356  0.0561  1.1883 -0.6108
  204MOL0     C28047  10.133   1.544   5.389  0.4155  0.1527 -0.8912
  204MOL0     C28048  10.043   1.470   5.310  0.4233  0.4093 -0.1667
  204MOL0     C28049  10.096   1.385   5.215 -0.5591  1.1735  0.0992
  204MOL0     O28050  10.025   1.286   5.149 -0.1873  0.0871  0.2525
  204MOL0     C28051   9.915   1.217   5.217 -1.1524 -0.1218  0.0366
  204MOL0     C28052   9.846   1.135   5.104  0.4960  0.6796  0.0272
  204MOL0     C28053   9.774   1.018   5.153 -0.8045  0.7231  0.4868
  204MOL0     C28054   9.660   0.972   5.056  1.1747  0.3868  0.1659
  204MOL0     C28055   9.624   0.824   5.088 -0.2771 -0.2088 -0.2699
  204MOL0     C28056   9.524   0.766   4.986 -0.1188 -0.0682  0.1382
  204MOL0     C28057   9.512   0.615   4.998  0.3532 -0.3503 -0.1593
  204MOL0     C28058   9.441   0.554   4.883 -1.1893  0.3372 -0.0498
  204MOL0    Cl28059   9.263   0.552   4.902  0.2978 -0.1358  0.2846
  204MOL0     C28060  10.230   1.377   5.196  0.4017 -0.6651 -0.4480
  204MOL0     C28061  10.317   1.459   5.266 -0.1980  0.5942 -0.1151
  204MOL0     O28062  10.500   1.469   5.465 -0.2863  0.5211 -0.6668
  204MOL0     C28063  10.701   1.665   5.477  0.6175 -0.2484 -0.8718
  204MOL0     C28064  10.805   1.743   5.516 -0.2422 -0.6188 -0.3994
  204MOL0     N28065  11.472   1.873   5.805 -0.9514 -0.5903  0.5542
  204MOL0     N28066  11.574   1.917   5.739 -0.4130 -0.2703 -0.2448
  204MOL0     C28067  11.833   2.847   6.029 -0.3054  0.1785 -1.0584
  204MOL0     C28068  11.793   2.929   6.138 -0.5256  0.3771 -0.2386
  204MOL0     C28069  11.471   3.110   6.419 -0.2663 -0.3147  0.3029
  204MOL0     C28070  11.475   3.209   6.322  0.8902  0.0899 -0.7143
  204MOL0     C28071  11.418   3.341   6.329  0.7369  0.6877 -0.8887
  204MOL0     C28072  11.349   3.363   6.447  0.3760  0.6801  0.8948
  204MOL0     O28073  11.308   3.485   6.492  1.0320  0.5366  0.0421
  204MOL0     C28074  11.344   3.597   6.415 -0.3855 -0.5111  0.3784
  204MOL0     C28075  11.243   3.616   6.289 -0.5251 -0.2732  0.4549
  204MOL0     C28076  11.086   3.613   6.324 -0.7821  0.8554  0.0540
  204MOL0     C28077  11.033   3.467   6.315 -0.7758  0.1014  0.9318
  204MOL0     C28078  11.011   3.443   6.173 -0.1755  0.2078 -0.3438
  204MOL0     C28079  10.989   3.428   6.058 -0.8536  0.0789 -0.2565
  204MOL0     C28080  11.317   3.260   6.533  0.3471 -0.2244 -0.6490
  204MOL0     C28081  11.382   3.137   6.525  0.2373  0.3117  0.2189
  204MOL0     C28082  11.361   3.043   6.636 -0.1430  0.8222 -0.1743
  204MOL0     H28083  11.495   2.778   6.212 -1.2134  1.3970 -2.5998
  204MOL0     H28084  11.577   2.624   6.022  2.0383 -0.8634 -2.9054
  204MOL0     H28085  11.824   2.837   5.767 -1.7564  1.8402 -3.1197
  204MOL0     H28086  11.654   2.812   5.772 -0.9606 -0.4434 -2.0356
  204MOL0     H28087  11.774   2.760   5.553 -1.7474 -1.2347 -0.3506
  204MOL0     H28088  11.873   2.640   5.623 -1.1167 -1.3201 -1.3366
  204MOL0     H28089  11.641   2.528   5.699  0.9717 -0.8763  0.3789
  204MOL0     H28090  11.571   2.642   5.587  0.9173  0.2387 -0.3449
  204MOL0     H28091  11.583   2.434   5.473  1.1830  0.0184 -1.9995
  204MOL0     H28092  11.700   2.540   5.395 -2.0216 -3.7854 -2.7021
  204MOL0     H28093  11.885   2.419   5.465 -0.5236  3.3479  1.0821
  204MOL0     H28094  11.763   2.300   5.422  2.5511 -1.2069  1.1643
  204MOL0     H28095  11.911   2.258   5.615  0.8035  2.4663 -1.3589
  204MOL0     H28096  11.857   2.381   5.711  3.3637 -2.4493  0.8649
  204MOL0     H28097  11.607   2.300   5.706 -0.7730 -1.6806 -1.0861
  204MOL0     H28098  11.734   2.201   5.790  4.3179  0.6635 -0.5010
  204MOL0     H28099  11.616   2.130   5.517 -1.4999  3.2783  0.4771
  204MOL0     H28100  11.737   2.041   5.594 -0.9481 -0.3080 -1.4129
  204MOL0     H28101  11.398   2.181   5.705  2.1247  0.3985 -0.5284
  204MOL0     H28102  11.262   2.030   5.963  1.9253 -0.4779  1.0945
  204MOL0     H28103  11.245   1.869   5.897 -1.7482  0.0632  1.0952
  204MOL0     H28104  11.102   2.120   5.796  1.4580  0.2778  0.1716
  204MOL0     H28105  11.152   2.011   5.674  1.5210  4.9150  0.6427
  204MOL0     H28106  11.022   1.829   5.759 -2.3364  0.4021  0.4758
  204MOL0     H28107  11.014   1.907   5.913 -0.6361  0.5675  1.0800
  204MOL0     H28108  10.810   1.913   5.810  0.4938 -0.9345 -1.5093
  204MOL0     H28109  10.853   2.082   5.786 -0.1050  0.4455 -0.6949
  204MOL0     H28110  10.622   1.982   5.677  0.5672 -0.2687  0.2045
  204MOL0     H28111  10.350   1.756   5.656  0.2280 -1.3431  0.0266
  204MOL0     H28112  10.360   1.891   5.539 -0.9328  0.5920  0.2674
  204MOL0     H28113  10.400   1.917   5.708 -0.2177  0.3608 -1.3662
  204MOL0     H28114  10.101   1.606   5.472 -1.1001 -0.1060 -1.2655
  204MOL0     H28115   9.939   1.451   5.334  1.1824 -1.8445  1.7291
  204MOL0     H28116   9.939   1.155   5.304  0.6316  1.9643  1.1458
  204MOL0     H28117   9.851   1.289   5.270 -0.0079 -0.0075  1.3304
  204MOL0     H28118   9.771   1.202   5.062  0.1406 -0.0422 -0.5163
  204MOL0     H28119   9.918   1.093   5.033  0.6643 -0.6293  0.9427
  204MOL0     H28120   9.730   1.039   5.251  1.3452 -2.8821  2.4405
  204MOL0     H28121   9.846   0.938   5.173  2.3580  2.8544 -1.5262
  204MOL0     H28122   9.708   0.976   4.957  2.2348 -3.4605  0.3640
  204MOL0     H28123   9.571   1.034   5.053  2.0661  1.7649  1.2557
  204MOL0     H28124   9.725   0.782   5.092  1.1581  2.9325 -0.5691
  204MOL0     H28125   9.576   0.815   5.186  2.1354  0.4849  1.0607
  204MOL0     H28126   9.565   0.804   4.892 -1.1668  1.7288  0.3677
  204MOL0     H28127   9.426   0.805   5.016  0.7395  0.9765  1.7046
  204MOL0     H28128   9.470   0.581   5.094  1.3063 -1.4200 -0.1060
  204MOL0     H28129   9.614   0.575   5.002  0.3476 -0.4176 -0.5969
  204MOL0     H28130   9.474   0.450   4.878  3.8374  1.6372  0.8515
  204MOL0     H28131   9.459   0.616   4.795 -1.6397  1.9704  0.9492
  204MOL0     H28132  10.267   1.315   5.115 -1.5227 -2.9828  0.3423
  204MOL0     H28133  10.419   1.441   5.233 -0.3879  0.3769 -0.5976
  204MOL0     H28134  10.726   1.579   5.416  0.6539 -0.2194 -0.8978
  204MOL0     H28135  10.905   1.710   5.490  0.7736  2.3412 -0.6391
  204MOL0     H28136  11.917   2.877   5.967 -1.1415  2.4782 -1.1818
  204MOL0     H28137  11.868   2.990   6.189  0.8037 -0.5478 -1.0130
  204MOL0     H28138  11.526   3.206   6.227  2.2667  0.0118  0.0070
  204MOL0     H28139  11.431   3.420   6.256 -3.0577  2.5021  0.1450
  204MOL0     H28140  11.339   3.683   6.482  1.1534  0.4832 -0.7004
  204MOL0     H28141  11.451   3.587   6.391 -1.0183 -2.8130 -2.1304
  204MOL0     H28142  11.272   3.547   6.210  1.5160 -0.6390  1.4410
  204MOL0     H28143  11.255   3.718   6.250 -2.2721  0.5903  1.9951
  204MOL0     H28144  11.065   3.647   6.426  0.6602  0.8337  0.3766
  204MOL0     H28145  11.027   3.668   6.250  0.1936  3.3435  1.0037
  204MOL0     H28146  10.940   3.455   6.371 -0.5084 -0.1894  1.3143
  204MOL0     H28147  11.104   3.395   6.355 -2.1025 -1.1670  1.0776
  204MOL0     H28148  10.954   3.405   5.959  0.6231 -4.8273  0.0727
  204MOL0     H28149  11.259   3.286   6.621 -2.4413 -2.8779 -1.5264
  204MOL0     H28150  11.287   2.965   6.613  0.6248 -0.3053  1.0468
  204MOL0     H28151  11.445   2.984   6.673 -0.5887  1.6323  2.3366
  204MOL0     H28152  11.323   3.099   6.722 -2.5524  0.8796 -1.1994
  205MOL0     O28153   1.932   4.383   8.744 -0.3166 -0.2451  0.1564
  205MOL0     C28154   1.998   4.307   8.673 -0.3189  0.4818  0.1143
  205MOL0     O28155   2.100   4.346   8.588 -0.0911  0.1699 -0.0367
  205MOL0     C28156   2.079   4.464   8.524  0.5177  0.2160  1.1486
  205MOL0     C28157   2.148   4.581   8.551 -0.9878 -0.2409 -0.3132
  205MOL0     C28158   2.105   4.706   8.492  0.2250 -0.5120  0.4684
  205MOL0     C28159   2.003   4.710   8.393 -0.3196 -0.4118  0.2656
  205MOL0     O28160   1.970   4.826   8.322  0.7817 -1.0118  0.2604
  205MOL0     C28161   2.081   4.905   8.281  0.7524 -0.6031  0.3014
  205MOL0     C28162   2.067   4.958   8.133  0.4985  0.0448 -1.0341
  205MOL0     C28163   1.927   4.995   8.095 -0.1211 -0.5203  0.2975
  205MOL0     C28164   1.958   5.074   7.964 -0.3053  0.4267 -0.8501
  205MOL0     C28165   1.835   5.107   7.886  0.0968 -0.5840  0.5656
  205MOL0     C28166   1.880   5.179   7.752  0.5939  0.5416  0.5717
  205MOL0     C28167   1.769   5.231   7.670 -0.2128  0.6021 -0.0439
  205MOL0     C28168   1.818   5.293   7.541  0.6805 -0.1469  0.2224
  205MOL0     N28169   1.935   5.379   7.561 -0.0808 -0.1148  0.5180
  205MOL0     C28170   1.937   5.497   7.618 -0.4946  0.0814 -0.4531
  205MOL0     C28171   2.073   5.537   7.618  0.5364  0.4404  0.2737
  205MOL0     C28172   2.139   5.665   7.677  0.2077  0.5675  0.2637
  205MOL0     C28173   2.220   5.631   7.807 -0.0542  0.1378 -0.1656
  205MOL0     C28174   2.279   5.759   7.866  0.1425  0.3068 -0.1655
  205MOL0     C28175   2.340   5.734   8.004  0.3220  0.7574  0.1497
  205MOL0     O28176   2.411   5.616   8.008 -0.7542 -0.4387 -0.0851
  205MOL0     C28177   2.490   5.584   8.118 -0.6165 -0.1855  0.0629
  205MOL0     C28178   2.441   5.591   8.253 -0.4906 -0.2458 -0.2498
  205MOL0     C28179   2.523   5.556   8.356 -0.5254  0.5278 -0.2688
  205MOL0     C28180   2.473   5.582   8.506 -0.1547 -0.5106  0.1182
  205MOL0     C28181   2.648   5.493   8.318 -0.1878 -0.0735 -0.4905
  205MOL0     C28182   2.729   5.444   8.427  0.7291  0.5535  0.9360
  205MOL0     O28183   2.670   5.365   8.517 -0.4240 -0.3577  0.0521
  205MOL0     C28184   2.727   5.334   8.635  0.6740  0.1863  0.0922
  205MOL0     C28185   2.769   5.428   8.728 -0.7490 -0.9058  0.4813
  205MOL0     C28186   2.831   5.376   8.854 -0.2878 -0.1687  0.3642
  205MOL0     C28187   2.836   5.238   8.874 -0.2723 -0.4411 -0.9735
  205MOL0     O28188   2.911   5.209   8.982 -0.2649  0.0462 -0.1835
  205MOL0     C28189   2.998   5.089   9.000 -0.1347  0.0092 -0.4371
  205MOL0     C28190   2.919   4.967   9.042 -0.5158 -0.3972  0.5645
  205MOL0     C28191   2.995   4.837   9.064 -0.3687 -0.1461 -0.1820
  205MOL0     C28192   3.103   4.808   8.960 -0.7508  0.9467  0.5131
  205MOL0     C28193   3.149   4.660   8.969  0.5268 -0.0626  0.2548
  205MOL0     C28194   3.246   4.628   8.853  0.3645 -0.0386 -0.4690
  205MOL0     C28195   3.300   4.483   8.850  0.1482 -0.4140  0.4280
  205MOL0     C28196   3.369   4.439   8.726 -0.2407  0.4201 -0.7332
  205MOL0    Cl28197   3.254   4.434   8.593  0.4278 -0.4726 -0.2769
  205MOL0     C28198   2.763   5.155   8.790 -0.8958  0.9380  0.9799
  205MOL0     C28199   2.708   5.205   8.671  0.4310 -0.1021  0.0982
  205MOL0     O28200   2.842   5.486   8.418 -0.5650  0.5666 -0.5126
  205MOL0     C28201   2.688   5.480   8.182  0.5596  0.0898  0.3024
  205MOL0     C28202   2.605   5.522   8.083 -0.5844  0.0894  0.1159
  205MOL0     N28203   2.147   5.450   7.548 -0.4499  0.5730  0.3427
  205MOL0     N28204   2.073   5.357   7.525  1.0820  0.9817 -0.1102
  205MOL0     C28205   1.937   4.591   8.361 -0.0640  0.1291  0.0281
  205MOL0     C28206   1.982   4.467   8.419  1.3164 -0.8194  0.4902
  205MOL0     C28207   1.974   4.157   8.679 -0.0105 -0.1151 -1.1995
  205MOL0     C28208   2.065   4.079   8.600 -0.5972  0.9538 -0.3681
  205MOL0     C28209   2.060   3.939   8.617 -0.8358 -0.6689 -0.8886
  205MOL0     C28210   1.965   3.878   8.700  1.1502 -0.6310 -0.3900
  205MOL0     O28211   1.960   3.737   8.711 -0.9996 -0.4569 -0.2979
  205MOL0     C28212   2.064   3.658   8.651 -0.1162  0.1386 -0.7374
  205MOL0     C28213   2.065   3.501   8.675  0.0314 -0.1306  0.5606
  205MOL0     C28214   1.961   3.426   8.580 -0.2691 -0.0962 -1.3232
  205MOL0     C28215   2.015   3.393   8.449 -0.1967 -0.0404  0.7424
  205MOL0     C28216   1.989   3.492   8.337  0.0690  0.3945 -0.5218
  205MOL0     C28217   1.962   3.559   8.248  0.1446 -0.5176 -0.4359
  205MOL0     C28218   1.870   3.956   8.759  1.1357 -0.1183  0.3584
  205MOL0     C28219   1.868   4.096   8.751  0.7654  0.5803  1.1286
  205MOL0     C28220   1.742   4.152   8.821  0.4071 -1.2589 -0.2818
  205MOL0     H28221   2.228   4.578   8.624 -2.6802  0.6547  1.6766
  205MOL0     H28222   2.158   4.796   8.521 -0.1231 -0.6764  1.6456
  205MOL0     H28223   2.170   4.842   8.272  0.9641 -0.0986 -1.8430
  205MOL0     H28224   2.104   4.992   8.343  0.2939  1.6222 -2.4677
  205MOL0     H28225   2.133   5.045   8.134 -0.0665  0.4990  0.7959
  205MOL0     H28226   2.104   4.885   8.060  1.8122  2.0971 -2.5301
  205MOL0     H28227   1.862   4.910   8.075  2.6460 -1.9760 -3.9672
  205MOL0     H28228   1.896   5.051   8.183 -2.4732 -3.1425  1.2861
  205MOL0     H28229   1.994   5.174   7.991  0.1556  0.1063 -0.2232
  205MOL0     H28230   2.029   5.023   7.898 -0.9584  2.1349 -2.9709
  205MOL0     H28231   1.763   5.159   7.949  0.4328  1.5364 -0.6985
  205MOL0     H28232   1.797   5.010   7.852  0.7601  0.1057 -2.4900
  205MOL0     H28233   1.946   5.265   7.769  0.7940  0.5242 -0.1045
  205MOL0     H28234   1.931   5.111   7.684 -1.0479 -0.3441  0.1716
  205MOL0     H28235   1.713   5.312   7.719 -0.0302 -0.8351  2.7545
  205MOL0     H28236   1.695   5.157   7.638  0.6047 -0.9907  1.5763
  205MOL0     H28237   1.835   5.212   7.469 -2.4695 -1.0788  0.3426
  205MOL0     H28238   1.740   5.352   7.492 -1.4729 -0.0891  3.4079
  205MOL0     H28239   1.853   5.551   7.661 -0.3422 -0.4261  0.5063
  205MOL0     H28240   2.065   5.741   7.702  2.4036  2.5602  1.1832
  205MOL0     H28241   2.204   5.696   7.595  0.3852  2.5506  1.0858
  205MOL0     H28242   2.160   5.579   7.882  0.5060  1.7233  1.4652
  205MOL0     H28243   2.299   5.559   7.783 -0.8037 -1.5819  2.1077
  205MOL0     H28244   2.359   5.790   7.797 -0.1441  0.7706 -0.2918
  205MOL0     H28245   2.199   5.833   7.867 -1.1077 -0.8092  4.1257
  205MOL0     H28246   2.396   5.823   8.034  0.3471  1.3301 -1.5292
  205MOL0     H28247   2.251   5.724   8.067 -0.8729 -1.8068 -1.7588
  205MOL0     H28248   2.340   5.632   8.263 -0.2943 -0.1593  1.8111
  205MOL0     H28249   2.557   5.606   8.571 -0.3997  1.4369 -0.2191
  205MOL0     H28250   2.425   5.491   8.542 -0.6798  0.7879  2.9367
  205MOL0     H28251   2.406   5.667   8.522 -0.4676 -0.7044 -0.1345
  205MOL0     H28252   2.760   5.533   8.706 -0.6123 -0.7174  1.2835
  205MOL0     H28253   2.880   5.452   8.914 -1.6415  3.1710 -2.4444
  205MOL0     H28254   3.058   5.085   8.908 -0.6751  0.7154 -0.8305
  205MOL0     H28255   3.071   5.110   9.078  0.3546 -1.7805 -0.3505
  205MOL0     H28256   2.856   4.995   9.127 -1.6636  3.8614 -1.4254
  205MOL0     H28257   2.846   4.944   8.964  1.1103 -0.3090 -1.0438
  205MOL0     H28258   2.910   4.770   9.069 -0.3252 -0.1406  0.8163
  205MOL0     H28259   3.045   4.834   9.161 -0.7395  0.9933  0.0679
  205MOL0     H28260   3.184   4.879   8.978  0.0294 -0.1752  1.5785
  205MOL0     H28261   3.060   4.831   8.862 -3.3309 -4.9457 -0.1437
  205MOL0     H28262   3.216   4.657   9.056  1.8128 -3.5733 -0.6677
  205MOL0     H28263   3.067   4.588   8.981  0.0303  0.5486  0.6224
  205MOL0     H28264   3.332   4.696   8.856  0.5954 -0.3756  1.8304
  205MOL0     H28265   3.192   4.648   8.760  0.8339  1.2375 -0.4894
  205MOL0     H28266   3.213   4.422   8.875 -0.1280 -0.1518  0.1184
  205MOL0     H28267   3.374   4.475   8.930  0.6756 -2.0943 -0.1930
  205MOL0     H28268   3.407   4.337   8.736 -1.1497  0.1981  0.9095
  205MOL0     H28269   3.453   4.509   8.719 -0.1560  0.5735  1.1799
  205MOL0     H28270   2.748   5.053   8.826 -1.5823  1.4580  2.2521
  205MOL0     H28271   2.648   5.135   8.612  0.3622 -0.2643  0.3598
  205MOL0     H28272   2.784   5.434   8.162  0.2973 -0.2563 -0.1971
  205MOL0     H28273   2.619   5.520   7.975 -1.6899  0.2853 -0.0437
  205MOL0     H28274   1.851   4.596   8.296  0.9421 -0.1713 -1.3752
  205MOL0     H28275   1.928   4.374   8.405  0.1915 -0.1307  0.1561
  205MOL0     H28276   2.155   4.117   8.552  2.0272 -2.5743  1.3616
  205MOL0     H28277   2.137   3.880   8.570 -1.0139 -1.5141 -0.1515
  205MOL0     H28278   2.059   3.677   8.544  0.7298  2.1835 -0.4686
  205MOL0     H28279   2.163   3.697   8.677 -0.4214  0.2969  0.2135
  205MOL0     H28280   2.031   3.481   8.777  0.9524 -0.2254  0.8518
  205MOL0     H28281   2.163   3.457   8.656 -0.7545 -2.0336  0.6864
  205MOL0     H28282   1.936   3.329   8.625 -1.3219 -0.7070 -3.1278
  205MOL0     H28283   1.864   3.475   8.571  0.1126  1.3492  1.4006
  205MOL0     H28284   1.972   3.297   8.417  0.7599  0.1362 -1.2111
  205MOL0     H28285   2.123   3.381   8.463  0.5447  3.8068 -0.6269
  205MOL0     H28286   1.958   3.600   8.149 -1.0199  0.1006 -0.1479
  205MOL0     H28287   1.791   3.910   8.817  1.1745 -0.5336  0.0831
  205MOL0     H28288   1.661   4.079   8.819  1.6748 -2.7817  1.2532
  205MOL0     H28289   1.764   4.174   8.926 -1.4933 -0.6477  0.0314
  205MOL0     H28290   1.727   4.252   8.778  1.9909 -0.3144  1.2162
  206MOL0     O28291  11.161   3.058   6.931 -1.0246  0.1474 -0.5469
  206MOL0     C28292  11.160   2.982   7.030  1.2166  0.6038 -0.2785
  206MOL0     O28293  11.151   3.024   7.160  0.7529 -0.7780  0.6479
  206MOL0     C28294  11.172   3.160   7.177 -0.3300 -0.1184  0.9040
  206MOL0     C28295  11.279   3.190   7.263  0.1435 -1.1630 -0.8753
  206MOL0     C28296  11.303   3.318   7.306  0.5361  0.9251 -1.0232
  206MOL0     C28297  11.224   3.424   7.257 -0.7638  0.8315 -0.7828
  206MOL0     O28298  11.267   3.554   7.290  0.0547 -0.1446  0.4861
  206MOL0     C28299  11.163   3.653   7.279 -0.5089 -0.3479  0.3573
  206MOL0     C28300  11.084   3.636   7.402  0.1810  0.1632 -0.1498
  206MOL0     C28301  10.938   3.683   7.365  0.3432 -0.2147 -1.0992
  206MOL0     C28302  10.878   3.693   7.513  0.5893  0.2989 -0.0358
  206MOL0     C28303  10.732   3.742   7.514  0.2924 -0.8210 -1.1140
  206MOL0     C28304  10.742   3.892   7.483  0.8630 -0.9529 -0.1919
  206MOL0     C28305  10.743   3.994   7.603 -0.1091  0.0646 -0.3872
  206MOL0     C28306  10.878   4.029   7.642 -0.2540 -0.8600 -0.0747
  206MOL0     N28307  10.962   4.075   7.528  0.0605  1.0840  0.1481
  206MOL0     C28308  10.925   4.176   7.444 -0.6477  0.2208  0.6768
  206MOL0     C28309  11.017   4.179   7.345 -0.7280  0.3501 -0.3236
  206MOL0     C28310  11.036   4.265   7.229  0.2767  0.5639  0.3300
  206MOL0     C28311  10.902   4.288   7.157 -1.0258  0.9151  0.3009
  206MOL0     C28312  10.850   4.431   7.184 -0.4804  0.3187 -0.5383
  206MOL0     C28313  10.760   4.432   7.305 -0.9335  0.2194 -0.8828
  206MOL0     O28314  10.661   4.337   7.300  0.4425 -0.2195  0.2516
  206MOL0     C28315  10.551   4.349   7.376  0.0757 -0.5248  0.0302
  206MOL0     C28316  10.522   4.453   7.460  1.1910  0.4826  0.5633
  206MOL0     C28317  10.414   4.443   7.552  0.5802  0.3788 -0.4276
  206MOL0     C28318  10.395   4.537   7.663  0.4490 -0.2677  0.4630
  206MOL0     C28319  10.337   4.325   7.553 -0.1538 -0.6088 -0.0149
  206MOL0     C28320  10.221   4.295   7.648 -0.6083 -0.0652  0.2246
  206MOL0     O28321  10.136   4.397   7.674  0.9590  0.3766  0.8360
  206MOL0     C28322  10.047   4.389   7.782 -0.1135  0.0616 -0.0490
  206MOL0     C28323   9.906   4.354   7.767  0.0842  0.5125 -0.5314
  206MOL0     C28324   9.819   4.360   7.877 -0.9695  0.8667  0.3224
  206MOL0     C28325   9.858   4.400   8.000 -1.0206 -0.5306  0.0032
  206MOL0     O28326   9.763   4.415   8.098 -0.0978 -0.3862 -0.3387
  206MOL0     C28327   9.640   4.485   8.076 -0.4451  0.1387  0.3998
  206MOL0     C28328   9.651   4.629   8.036  0.5930 -0.4347  0.5290
  206MOL0     C28329   9.510   4.696   8.053 -1.0520  0.0742 -0.4831
  206MOL0     C28330   9.413   4.658   7.948 -1.2948 -1.0687 -0.7880
  206MOL0     C28331   9.282   4.725   7.973 -0.1135 -0.5471  0.1950
  206MOL0     C28332   9.194   4.719   7.858 -0.6559 -0.5495  0.5151
  206MOL0     C28333   9.043   4.750   7.885 -0.9102  0.0319 -0.4232
  206MOL0     C28334   8.956   4.752   7.766  0.0596  0.1351 -0.0518
  206MOL0    Cl28335   8.952   4.914   7.703  0.1934  0.2302  0.2209
  206MOL0     C28336   9.997   4.431   8.012  0.4070 -0.3305 -0.4773
  206MOL0     C28337  10.084   4.444   7.906 -0.1372 -0.1331  0.1577
  206MOL0     O28338  10.211   4.182   7.698 -0.6437  0.0094 -0.6552
  206MOL0     C28339  10.370   4.231   7.458 -0.9297 -0.5696  0.6779
  206MOL0     C28340  10.479   4.239   7.377  0.1505  1.0369 -0.1740
  206MOL0     N28341  11.120   4.087   7.386 -0.2525  0.0133 -0.2385
  206MOL0     N28342  11.077   4.018   7.489 -0.5761  0.0296 -0.1429
  206MOL0     C28343  11.121   3.394   7.161 -0.3150  0.8266 -0.6579
  206MOL0     C28344  11.089   3.263   7.130  0.6659  0.0493 -0.3162
  206MOL0     C28345  11.145   2.838   7.002 -0.3436 -0.6571 -0.6440
  206MOL0     C28346  11.102   2.798   6.877  0.9580 -0.1775 -0.1956
  206MOL0     C28347  11.085   2.664   6.841 -0.5235 -1.0407 -0.7943
  206MOL0     C28348  11.113   2.569   6.927 -0.2206 -0.0056 -0.3219
  206MOL0     O28349  11.083   2.446   6.883 -0.1704 -0.1245 -0.4109
  206MOL0     C28350  11.052   2.345   6.980  0.0438 -0.0478 -0.0620
  206MOL0     C28351  11.008   2.226   6.907 -0.4888 -0.1514  0.9435
  206MOL0     C28352  10.871   2.231   6.842  0.0080  0.0158 -0.0467
  206MOL0     C28353  10.825   2.101   6.780  0.4529 -0.2017  0.1407
  206MOL0     C28354  10.783   2.001   6.876 -0.3139 -0.2835  0.3625
  206MOL0     C28355  10.724   1.923   6.943 -0.0432 -0.1516 -0.0953
  206MOL0     C28356  11.175   2.602   7.047 -0.7054  0.0206 -1.0465
  206MOL0     C28357  11.189   2.735   7.088  0.0680  0.4606 -0.7813
  206MOL0     C28358  11.230   2.750   7.227 -0.6356  0.6088  1.2375
  206MOL0     H28359  11.345   3.110   7.296  0.1812  0.2179  2.9259
  206MOL0     H28360  11.375   3.354   7.380 -1.9076  1.8690  1.0463
  206MOL0     H28361  11.100   3.646   7.190 -2.9304  1.2410  1.8212
  206MOL0     H28362  11.207   3.754   7.285  0.2522 -0.7433  1.9449
  206MOL0     H28363  11.080   3.539   7.453 -1.1095  1.6948  2.8988
  206MOL0     H28364  11.118   3.695   7.487  2.1838 -1.6148  0.3928
  206MOL0     H28365  10.940   3.769   7.298  0.2040 -0.3251 -1.2471
  206MOL0     H28366  10.885   3.606   7.308 -1.5732  0.3346 -0.1655
  206MOL0     H28367  10.888   3.599   7.568  0.4862 -0.1701 -0.8005
  206MOL0     H28368  10.936   3.773   7.560  1.4668 -0.6329  0.5087
  206MOL0     H28369  10.695   3.734   7.616  0.9302  2.5772 -0.4994
  206MOL0     H28370  10.664   3.682   7.453  0.3478  0.0824 -2.1042
  206MOL0     H28371  10.822   3.907   7.411  0.4489 -0.6817 -0.6024
  206MOL0     H28372  10.645   3.912   7.437 -0.9260 -2.9285  2.4339
  206MOL0     H28373  10.686   3.964   7.692 -2.5226  3.1041 -0.7136
  206MOL0     H28374  10.702   4.090   7.572  0.7466  0.8273  0.7581
  206MOL0     H28375  10.877   4.104   7.721 -0.4964 -2.3687  1.4139
  206MOL0     H28376  10.938   3.944   7.675  0.3035  0.7496  3.5249
  206MOL0     H28377  10.839   4.241   7.459 -0.4685  1.0803 -1.6217
  206MOL0     H28378  11.108   4.218   7.162 -2.1002 -1.7514 -0.7960
  206MOL0     H28379  11.080   4.361   7.260 -1.6059  1.6080 -0.0278
  206MOL0     H28380  10.931   4.298   7.052 -0.4718  1.1619  0.4689
  206MOL0     H28381  10.832   4.207   7.177 -0.5256  0.5017  0.3974
  206MOL0     H28382  10.923   4.511   7.203 -0.9786  0.9203 -1.1326
  206MOL0     H28383  10.796   4.470   7.098 -2.6667  1.2114  1.1464
  206MOL0     H28384  10.818   4.420   7.397 -0.5343 -4.7394 -1.5118
  206MOL0     H28385  10.717   4.533   7.310  1.3877  1.2003  1.0858
  206MOL0     H28386  10.593   4.535   7.463 -0.6663  2.2689 -1.5896
  206MOL0     H28387  10.294   4.578   7.658  0.6790  0.7457  2.7470
  206MOL0     H28388  10.453   4.628   7.643  1.4477 -1.0543 -0.3190
  206MOL0     H28389  10.422   4.485   7.755  1.3644 -0.6869 -0.0277
  206MOL0     H28390   9.885   4.306   7.671 -0.2784  1.8348 -1.1360
  206MOL0     H28391   9.719   4.317   7.879 -1.2162  1.3162 -1.1760
  206MOL0     H28392   9.589   4.431   7.996  0.6424 -1.4219  0.7171
  206MOL0     H28393   9.575   4.467   8.162  1.4637 -2.1483  1.4719
  206MOL0     H28394   9.722   4.693   8.088 -1.0223  2.0582 -0.1039
  206MOL0     H28395   9.675   4.625   7.930 -1.7148 -0.4555 -0.0623
  206MOL0     H28396   9.526   4.804   8.062  1.0378 -0.3201  1.4202
  206MOL0     H28397   9.478   4.677   8.156  0.7012  0.4130  0.1552
  206MOL0     H28398   9.399   4.550   7.953  0.3778 -1.4650 -2.8783
  206MOL0     H28399   9.454   4.682   7.849  0.6003 -1.7662 -0.2215
  206MOL0     H28400   9.241   4.675   8.061  1.5125  0.2212  1.4450
  206MOL0     H28401   9.310   4.828   7.999  0.0234 -1.1146  2.4694
  206MOL0     H28402   9.194   4.613   7.832 -0.6053 -0.0787 -1.6638
  206MOL0     H28403   9.240   4.775   7.775  2.0814 -0.8267  1.7507
  206MOL0     H28404   9.034   4.847   7.933  0.5683  1.1420 -2.2597
  206MOL0     H28405   9.007   4.682   7.963 -0.3393  1.3590  1.0307
  206MOL0     H28406   8.860   4.716   7.805 -0.0840  2.1542  1.6353
  206MOL0     H28407   9.000   4.695   7.683  0.0094  1.7195 -1.2086
  206MOL0     H28408  10.036   4.476   8.102 -0.8035  1.3534 -0.7604
  206MOL0     H28409  10.186   4.477   7.917 -0.1054  0.5871 -1.9591
  206MOL0     H28410  10.322   4.134   7.466  3.1273 -2.7672  1.3205
  206MOL0     H28411  10.508   4.149   7.324  1.7161  1.3568  0.1108
  206MOL0     H28412  11.051   3.466   7.119 -0.6761 -0.2626 -1.9976
  206MOL0     H28413  11.005   3.243   7.064  0.8771 -1.6825 -0.1111
  206MOL0     H28414  11.063   2.863   6.799 -0.7691 -1.7059 -0.6848
  206MOL0     H28415  11.047   2.641   6.742 -1.6640 -1.1314 -0.3410
  206MOL0     H28416  11.140   2.317   7.039 -1.2408 -2.0644  1.0001
  206MOL0     H28417  10.984   2.378   7.059 -0.4328  2.6135 -1.4619
  206MOL0     H28418  11.017   2.143   6.977  1.8244  1.2399  2.4111
  206MOL0     H28419  11.074   2.210   6.821 -0.7544 -0.8621  0.8681
  206MOL0     H28420  10.796   2.266   6.915 -0.2701  0.2664 -0.4465
  206MOL0     H28421  10.873   2.309   6.766 -3.1028  1.0983  0.8119
  206MOL0     H28422  10.911   2.057   6.729  0.0418 -1.4638  0.5020
  206MOL0     H28423  10.743   2.112   6.708  2.2755 -2.3976 -2.4605
  206MOL0     H28424  10.687   1.839   6.997  0.3839 -0.8733 -0.9021
  206MOL0     H28425  11.232   2.526   7.099  4.3229  5.7648  3.2033
  206MOL0     H28426  11.155   2.739   7.306 -0.5239 -2.3986  1.0332
  206MOL0     H28427  11.299   2.666   7.235 -0.9259  0.0648 -1.2321
  206MOL0     H28428  11.290   2.838   7.255 -0.9077  1.8973 -1.7974
  207MOL0     O28429   5.845   6.763   5.438 -0.3600  0.0169  0.4726
  207MOL0     C28430   5.751   6.705   5.468  0.0324  0.6289  0.1381
  207MOL0     O28431   5.645   6.694   5.389  0.8326 -0.3435  0.0653
  207MOL0     C28432   5.657   6.712   5.253 -0.6466 -0.2602  0.6854
  207MOL0     C28433   5.690   6.605   5.165 -1.1790 -0.1628  0.7465
  207MOL0     C28434   5.718   6.636   5.028  0.1752  0.6126  0.3251
  207MOL0     C28435   5.701   6.766   4.983 -0.9041  0.2120  0.9109
  207MOL0     O28436   5.732   6.796   4.845  0.6087  0.1187  0.0846
  207MOL0     C28437   5.706   6.713   4.737  0.5788  0.3318  0.2857
  207MOL0     C28438   5.664   6.801   4.614 -0.0115  0.3830 -0.4654
  207MOL0     C28439   5.769   6.883   4.545 -0.0025  0.6306 -0.5134
  207MOL0     C28440   5.889   6.789   4.482  0.7292  0.1872 -0.2289
  207MOL0     C28441   5.994   6.864   4.390 -0.3870 -0.9520 -0.6104
  207MOL0     C28442   6.091   6.950   4.467  0.5015 -0.0420 -0.9124
  207MOL0     C28443   6.228   6.983   4.393  0.3716  0.1163 -0.9725
  207MOL0     C28444   6.320   7.074   4.475 -0.0308  0.1280 -0.5064
  207MOL0     N28445   6.385   6.982   4.572  0.3040  0.3735  0.3869
  207MOL0     C28446   6.426   7.026   4.697  0.4020  0.1861 -0.0637
  207MOL0     C28447   6.505   6.925   4.751 -0.6562  0.6351 -0.9470
  207MOL0     C28448   6.601   6.954   4.869 -0.6914  0.0522 -0.2306
  207MOL0     C28449   6.508   7.007   4.992 -1.3359  0.4214  0.5078
  207MOL0     C28450   6.619   7.028   5.100 -1.1406  0.3874 -0.4256
  207MOL0     C28451   6.558   7.054   5.240 -0.8208  0.2731  0.2255
  207MOL0     O28452   6.466   6.954   5.276 -0.6034 -0.5895 -0.4057
  207MOL0     C28453   6.493   6.852   5.357 -0.9957  0.2822 -0.8229
  207MOL0     C28454   6.426   6.727   5.349 -1.2782  0.3331 -0.0476
  207MOL0     C28455   6.462   6.612   5.427 -0.2444 -0.2800 -1.0588
  207MOL0     C28456   6.368   6.493   5.416 -0.4025 -0.8734  0.1442
  207MOL0     C28457   6.556   6.627   5.522 -0.2569 -0.6201 -0.7226
  207MOL0     C28458   6.597   6.523   5.614  0.6888  0.5677  0.0899
  207MOL0     O28459   6.730   6.530   5.653 -0.1832  0.0029 -0.3258
  207MOL0     C28460   6.777   6.472   5.774 -0.0545 -0.7628  0.4628
  207MOL0     C28461   6.759   6.332   5.812 -0.9568 -0.6360  0.5661
  207MOL0     C28462   6.825   6.285   5.930  0.2938  0.0204 -0.1361
  207MOL0     C28463   6.888   6.367   6.022 -0.0729 -0.0890  1.9975
  207MOL0     O28464   6.924   6.306   6.135  0.3220  0.6112 -0.0956
  207MOL0     C28465   6.984   6.389   6.227 -0.0631 -0.5336 -0.5610
  207MOL0     C28466   7.074   6.321   6.330 -0.0651 -0.0060  0.9341
  207MOL0     C28467   7.193   6.263   6.262 -0.1031 -0.0669  0.1132
  207MOL0     C28468   7.324   6.324   6.291 -0.0740 -0.4661  0.2544
  207MOL0     C28469   7.440   6.247   6.227 -0.3924  0.3787 -0.1339
  207MOL0     C28470   7.477   6.139   6.324  0.1206 -0.2116 -1.1678
  207MOL0     C28471   7.618   6.091   6.291  0.0681 -0.9142  0.1063
  207MOL0     C28472   7.688   6.021   6.407  0.1196 -1.1350  1.1421
  207MOL0    Cl28473   7.694   6.111   6.554 -0.1614  0.5936 -0.0731
  207MOL0     C28474   6.912   6.501   5.975  0.6857 -0.3265  1.5442
  207MOL0     C28475   6.854   6.556   5.855 -0.2979 -0.2529  1.2206
  207MOL0     O28476   6.519   6.437   5.644  0.4768 -0.1404 -0.8358
  207MOL0     C28477   6.631   6.742   5.524 -0.1896  0.2923 -0.4047
  207MOL0     C28478   6.608   6.854   5.442 -0.5557  0.2320 -0.2577
  207MOL0     N28479   6.525   6.825   4.644  0.0786 -0.0729 -0.8334
  207MOL0     N28480   6.452   6.862   4.544  0.1709 -0.7043  0.1173
  207MOL0     C28481   5.666   6.868   5.060  0.3893  0.1529 -0.1107
  207MOL0     C28482   5.645   6.837   5.196  0.1713 -0.1623 -0.5258
  207MOL0     C28483   5.750   6.649   5.609 -0.2996  0.1621 -0.0245
  207MOL0     C28484   5.624   6.632   5.663  0.0740  0.6972 -0.0536
  207MOL0     C28485   5.618   6.584   5.799 -0.3604  0.9174  0.0026
  207MOL0     C28486   5.728   6.561   5.874  0.4704 -0.2105  0.4244
  207MOL0     O28487   5.723   6.506   5.995 -0.2048 -0.1259 -0.2864
  207MOL0     C28488   5.741   6.359   5.985 -0.3258 -0.2924  0.2605
  207MOL0     C28489   5.605   6.289   6.014  0.2347  1.2174  1.1434
  207MOL0     C28490   5.583   6.244   6.163  0.1024 -0.1375 -0.0031
  207MOL0     C28491   5.442   6.200   6.185  0.0581  0.1533  0.4645
  207MOL0     C28492   5.432   6.061   6.136  0.5303 -0.1234  0.1657
  207MOL0     C28493   5.436   5.946   6.090 -0.3624 -0.7703 -0.2931
  207MOL0     C28494   5.856   6.572   5.817 -0.1095 -0.8575  0.5040
  207MOL0     C28495   5.867   6.615   5.687 -0.9866  0.7735 -0.4786
  207MOL0     C28496   6.006   6.626   5.635 -0.0214 -1.3845  0.0955
  207MOL0     H28497   5.720   6.512   5.210  2.3501 -0.0647 -1.0842
  207MOL0     H28498   5.747   6.559   4.957 -1.2026  0.8939 -0.5860
  207MOL0     H28499   5.623   6.649   4.766  2.3737 -0.8454  3.2687
  207MOL0     H28500   5.795   6.652   4.717 -0.2553 -0.8405  0.0622
  207MOL0     H28501   5.616   6.748   4.531  2.0017  3.1844 -3.6507
  207MOL0     H28502   5.591   6.875   4.648  0.3233  0.9585 -0.9850
  207MOL0     H28503   5.721   6.930   4.459 -1.0283 -4.3685 -3.0592
  207MOL0     H28504   5.802   6.959   4.617 -1.8422  0.4623  0.5546
  207MOL0     H28505   5.925   6.716   4.555  3.3055 -2.6746 -3.9667
  207MOL0     H28506   5.842   6.721   4.411  1.1582 -1.7385  1.2426
  207MOL0     H28507   5.940   6.927   4.319 -1.4200  0.6666  1.5117
  207MOL0     H28508   6.057   6.783   4.349 -0.6539 -1.5768  0.1879
  207MOL0     H28509   6.056   7.053   4.479  0.0122 -0.4763  1.9090
  207MOL0     H28510   6.108   6.909   4.567  2.1598  2.0908 -0.2296
  207MOL0     H28511   6.190   7.039   4.307 -3.0554  2.7001  1.8955
  207MOL0     H28512   6.276   6.894   4.352 -0.4181 -1.6208  1.6025
  207MOL0     H28513   6.393   7.114   4.405 -3.6217  4.0211 -2.4909
  207MOL0     H28514   6.263   7.155   4.522  1.6657  1.3175 -0.4024
  207MOL0     H28515   6.406   7.125   4.737 -0.5562  0.8538 -2.0573
  207MOL0     H28516   6.674   7.033   4.852  0.3507 -0.0417  3.0039
  207MOL0     H28517   6.659   6.862   4.882 -0.6934 -0.4736 -3.2111
  207MOL0     H28518   6.462   7.103   4.967 -2.5001 -0.5016 -1.0901
  207MOL0     H28519   6.435   6.929   5.017 -0.8820  0.0657  0.7464
  207MOL0     H28520   6.676   6.935   5.113 -3.3014 -0.8011  1.2597
  207MOL0     H28521   6.686   7.107   5.067  0.2374  1.0001  3.3590
  207MOL0     H28522   6.632   7.071   5.319  1.1823 -1.5613 -1.1539
  207MOL0     H28523   6.495   7.142   5.227 -2.3889 -1.2499 -4.5503
  207MOL0     H28524   6.356   6.714   5.268 -0.3898  1.8750 -1.1142
  207MOL0     H28525   6.284   6.516   5.350 -1.1370 -0.9998  1.0137
  207MOL0     H28526   6.318   6.476   5.512  0.6330  2.0288  1.3150
  207MOL0     H28527   6.426   6.405   5.385  0.7870  0.7296 -2.6362
  207MOL0     H28528   6.698   6.261   5.757 -1.9512  0.0515  0.7638
  207MOL0     H28529   6.811   6.191   5.981 -0.2637 -0.0121 -0.3382
  207MOL0     H28530   7.053   6.452   6.170 -0.1000  0.0461  0.0244
  207MOL0     H28531   6.913   6.458   6.274 -1.9451 -2.4997 -0.3337
  207MOL0     H28532   7.112   6.392   6.405 -2.0258  0.4898  1.5294
  207MOL0     H28533   7.007   6.253   6.384  0.9387 -0.8288  1.1761
  207MOL0     H28534   7.178   6.268   6.154 -0.5270  1.0703  0.2112
  207MOL0     H28535   7.184   6.158   6.292 -1.4636  0.8641  3.4077
  207MOL0     H28536   7.323   6.337   6.400  1.5512  0.1712  0.2251
  207MOL0     H28537   7.305   6.415   6.233 -1.2963 -2.5371 -2.8427
  207MOL0     H28538   7.398   6.203   6.137  0.0124 -2.9188  1.1440
  207MOL0     H28539   7.523   6.312   6.198  0.2495 -0.2942  0.1653
  207MOL0     H28540   7.412   6.052   6.318  3.6600 -3.1157 -1.1096
  207MOL0     H28541   7.477   6.194   6.419 -0.3259  2.7619 -2.7758
  207MOL0     H28542   7.682   6.177   6.271 -1.6816  0.3192 -0.5031
  207MOL0     H28543   7.612   6.030   6.200 -1.9470  2.0334 -1.9421
  207MOL0     H28544   7.785   5.991   6.368 -0.0561  2.9071 -3.2279
  207MOL0     H28545   7.621   5.938   6.433 -3.6194  1.9593  2.3215
  207MOL0     H28546   6.991   6.557   6.023  2.5827 -0.4835 -1.1546
  207MOL0     H28547   6.886   6.651   5.814 -1.7842 -0.4544 -0.5799
  207MOL0     H28548   6.700   6.761   5.606  0.2234 -2.2065 -0.1005
  207MOL0     H28549   6.656   6.949   5.467  1.2998 -0.1088 -2.2129
  207MOL0     H28550   5.639   6.968   5.028  1.7897  1.3100  2.0826
  207MOL0     H28551   5.611   6.919   5.259  1.7029  0.1289 -0.0359
  207MOL0     H28552   5.532   6.668   5.617  1.0076  0.6112 -2.0806
  207MOL0     H28553   5.515   6.583   5.835  0.0752  0.3619  1.2650
  207MOL0     H28554   5.806   6.322   5.905  0.6179 -0.4241  1.0769
  207MOL0     H28555   5.806   6.340   6.070  0.8485 -3.0858 -1.1072
  207MOL0     H28556   5.593   6.203   5.948  0.0239  0.2912  2.3437
  207MOL0     H28557   5.523   6.359   5.998 -0.5078  0.9158  3.2341
  207MOL0     H28558   5.657   6.167   6.188 -0.0093 -0.3188 -0.2201
  207MOL0     H28559   5.596   6.335   6.221 -1.2786  0.3964 -0.5000
  207MOL0     H28560   5.370   6.254   6.121 -1.3573 -3.1520 -0.9621
  207MOL0     H28561   5.427   6.206   6.293 -0.1529  2.9882  0.3654
  207MOL0     H28562   5.424   5.852   6.040  1.1465 -1.4429  0.5301
  207MOL0     H28563   5.945   6.548   5.876  0.3201  0.7866  0.6001
  207MOL0     H28564   6.047   6.727   5.626 -0.6874 -1.0792  0.3758
  207MOL0     H28565   6.075   6.586   5.710  0.5752  5.0470  3.6639
  207MOL0     H28566   6.014   6.586   5.533  3.3910 -1.3432  0.2188
  208MOL0     O28567   2.641   5.062   8.048 -0.1867  0.2405 -0.6165
  208MOL0     C28568   2.547   5.137   8.020  0.7350  0.4297 -0.0327
  208MOL0     O28569   2.448   5.179   8.102  0.1844  0.0238 -0.1670
  208MOL0     C28570   2.423   5.115   8.226  0.0213 -0.3620 -0.2633
  208MOL0     C28571   2.370   5.198   8.337 -0.2979  0.9245 -0.2373
  208MOL0     C28572   2.359   5.146   8.465  0.0581 -0.9474  0.3256
  208MOL0     C28573   2.376   5.011   8.486 -0.8229 -0.0938 -0.1062
  208MOL0     O28574   2.359   4.949   8.609  0.5009  0.0777 -0.2912
  208MOL0     C28575   2.297   5.025   8.715  0.2898  0.4541  0.0972
  208MOL0     C28576   2.277   4.940   8.836  1.3662  0.2516 -0.2382
  208MOL0     C28577   2.397   4.849   8.867  0.6225  0.0774 -0.0878
  208MOL0     C28578   2.403   4.817   9.018  0.5122  0.0891  0.1970
  208MOL0     C28579   2.478   4.687   9.031  0.7456  0.5495  0.6359
  208MOL0     C28580   2.495   4.656   9.182  0.1416  0.6017 -0.3323
  208MOL0     C28581   2.585   4.537   9.192  0.1003  0.0656 -0.2444
  208MOL0     C28582   2.567   4.467   9.331 -0.7509 -0.3842  0.5327
  208MOL0     N28583   2.568   4.318   9.316 -0.2670  0.6349  1.1990
  208MOL0     C28584   2.470   4.227   9.348  0.1715 -0.8265  0.3687
  208MOL0     C28585   2.531   4.106   9.329  0.2411  0.6565  0.6654
  208MOL0     C28586   2.467   3.978   9.355  0.7174  0.1494 -0.5515
  208MOL0     C28587   2.461   3.879   9.234 -0.5312 -0.8729 -0.1524
  208MOL0     C28588   2.400   3.750   9.266  0.3051 -0.7606 -0.2876
  208MOL0     C28589   2.492   3.663   9.362 -0.1929 -0.0647 -0.3511
  208MOL0     O28590   2.631   3.652   9.308 -0.3164  0.3931 -0.1736
  208MOL0     C28591   2.671   3.547   9.227  0.9317  0.5943 -0.6712
  208MOL0     C28592   2.757   3.440   9.275 -0.0428  0.4762  0.2841
  208MOL0     C28593   2.776   3.315   9.215  0.9597 -0.5803  0.4877
  208MOL0     C28594   2.862   3.207   9.283 -0.1322  0.2985  0.6995
  208MOL0     C28595   2.716   3.309   9.089 -0.4247 -1.1844  0.2544
  208MOL0     C28596   2.743   3.185   9.012 -0.3900  0.2650  0.6603
  208MOL0     O28597   2.627   3.132   8.954 -0.3317 -0.9550 -0.7568
  208MOL0     C28598   2.624   3.064   8.836 -0.6444  0.2287  0.2655
  208MOL0     C28599   2.544   2.950   8.827  0.1208 -0.2359 -0.7933
  208MOL0     C28600   2.538   2.874   8.715  1.3837 -0.3285 -0.0546
  208MOL0     C28601   2.617   2.902   8.606  0.2923 -0.2657  0.0734
  208MOL0     O28602   2.596   2.824   8.492  0.5776  0.5648 -0.1281
  208MOL0     C28603   2.720   2.794   8.431 -0.4150  0.3728 -0.3524
  208MOL0     C28604   2.694   2.726   8.283 -0.8165  0.7631  0.5671
  208MOL0     C28605   2.831   2.682   8.221 -0.7617  0.0969  0.6149
  208MOL0     C28606   2.784   2.574   8.120 -0.5495  0.0215  0.1314
  208MOL0     C28607   2.886   2.562   8.001 -1.2224  0.0920  0.1699
  208MOL0     C28608   2.994   2.463   8.055  0.1362 -1.1399  0.0400
  208MOL0     C28609   3.117   2.455   7.949 -0.1200  0.7544 -0.1348
  208MOL0     C28610   3.226   2.374   8.000  0.1585  0.6115 -0.1104
  208MOL0    Cl28611   3.290   2.452   8.157 -0.0073 -0.0921  0.1695
  208MOL0     C28612   2.692   3.026   8.604  0.1975  0.2691 -0.3667
  208MOL0     C28613   2.693   3.112   8.719 -0.3963 -0.5131  0.3262
  208MOL0     O28614   2.858   3.155   8.984 -0.3931  0.2658 -0.2492
  208MOL0     C28615   2.630   3.408   9.042  0.2451 -0.4313  0.1438
  208MOL0     C28616   2.609   3.529   9.103  0.2737 -0.6314 -0.2730
  208MOL0     N28617   2.657   4.125   9.282  0.6855 -0.5482 -0.3659
  208MOL0     N28618   2.677   4.247   9.269  0.2198 -0.2372  0.9819
  208MOL0     C28619   2.418   4.927   8.373 -0.5052 -0.2299  0.1272
  208MOL0     C28620   2.445   4.976   8.245  0.5661 -0.0997 -0.4124
  208MOL0     C28621   2.548   5.204   7.885  0.9569 -0.1557  0.4705
  208MOL0     C28622   2.678   5.216   7.825  0.8524  0.3489 -0.2198
  208MOL0     C28623   2.711   5.298   7.714  0.7849  0.3573  0.4213
  208MOL0     C28624   2.601   5.351   7.647  0.6376  1.0555  1.3051
  208MOL0     O28625   2.606   5.445   7.547 -0.3778  0.0646 -0.0565
  208MOL0     C28626   2.702   5.424   7.441 -0.0381  0.2525  0.9711
  208MOL0     C28627   2.704   5.547   7.345 -0.1009 -0.1291  0.4373
  208MOL0     C28628   2.746   5.674   7.428 -0.3872  1.7973  0.1561
  208MOL0     C28629   2.896   5.646   7.482 -0.1047 -0.3796 -1.3281
  208MOL0     C28630   2.934   5.743   7.591 -0.2524 -0.4311  0.3302
  208MOL0     C28631   2.967   5.836   7.669  0.7487  0.3683  0.4764
  208MOL0     C28632   2.473   5.338   7.697  1.1384 -0.8605  0.3959
  208MOL0     C28633   2.437   5.267   7.815 -0.0937 -0.3859 -0.8005
  208MOL0     C28634   2.294   5.262   7.864  1.0857  0.3083  0.2506
  208MOL0     H28635   2.338   5.300   8.316 -3.3683 -0.2132 -1.7189
  208MOL0     H28636   2.320   5.216   8.538  3.2935 -0.8644  2.1808
  208MOL0     H28637   2.208   5.071   8.671  0.2684  0.9651  0.6653
  208MOL0     H28638   2.364   5.109   8.737  1.0692 -0.2968  0.6572
  208MOL0     H28639   2.255   5.004   8.922 -1.1223  3.3279 -2.9122
  208MOL0     H28640   2.187   4.881   8.818 -0.7590  2.4375  2.3237
  208MOL0     H28641   2.401   4.761   8.803 -0.1944 -0.6820  0.8861
  208MOL0     H28642   2.487   4.909   8.851  0.4065  0.3555 -0.2812
  208MOL0     H28643   2.453   4.896   9.075  0.5558  0.2528 -0.0643
  208MOL0     H28644   2.300   4.819   9.054  0.5016  3.1137  0.2536
  208MOL0     H28645   2.574   4.678   8.979  0.5955  0.8049  0.3108
  208MOL0     H28646   2.423   4.609   8.977  0.2735  2.1280 -1.2877
  208MOL0     H28647   2.536   4.743   9.234 -2.5852  0.2657  2.6814
  208MOL0     H28648   2.394   4.633   9.217  0.7458  0.3158  1.2774
  208MOL0     H28649   2.685   4.570   9.163  0.3764 -1.2933 -0.8710
  208MOL0     H28650   2.548   4.470   9.114 -1.0949 -0.3002  0.6075
  208MOL0     H28651   2.645   4.494   9.404 -0.5204  2.0841 -0.5448
  208MOL0     H28652   2.473   4.499   9.376  0.2270 -1.5917  3.7181
  208MOL0     H28653   2.367   4.250   9.372  0.1416  1.3099 -1.4658
  208MOL0     H28654   2.361   3.991   9.381  0.1767 -1.6282 -1.7360
  208MOL0     H28655   2.518   3.933   9.440  2.5811  1.6772 -0.7774
  208MOL0     H28656   2.409   3.919   9.147 -0.6853 -2.6259 -0.9172
  208MOL0     H28657   2.559   3.871   9.185 -1.4696  2.4426 -2.9339
  208MOL0     H28658   2.307   3.783   9.314 -0.3343  2.0155 -3.1288
  208MOL0     H28659   2.375   3.699   9.173 -1.6468  0.0134 -0.2327
  208MOL0     H28660   2.498   3.692   9.468 -0.7690  0.5083 -0.4690
  208MOL0     H28661   2.448   3.563   9.361 -0.6629  0.0965 -2.9907
  208MOL0     H28662   2.811   3.446   9.369 -2.5021 -1.3858  1.9405
  208MOL0     H28663   2.799   3.127   9.321  2.6055 -1.6185  1.5245
  208MOL0     H28664   2.920   3.251   9.365  2.6130 -0.8467 -0.5160
  208MOL0     H28665   2.934   3.165   9.212  0.6649 -0.6296  1.9937
  208MOL0     H28666   2.466   2.924   8.898  1.1252  4.6082  2.6442
  208MOL0     H28667   2.464   2.796   8.708 -0.2033  0.5234  4.2365
  208MOL0     H28668   2.789   2.876   8.407  2.2588 -2.1024 -1.8921
  208MOL0     H28669   2.778   2.727   8.496  1.5117  0.5827 -1.7726
  208MOL0     H28670   2.632   2.638   8.297  0.2594 -0.2635 -0.7872
  208MOL0     H28671   2.636   2.803   8.231  0.4201  2.6631  1.8614
  208MOL0     H28672   2.899   2.634   8.292  0.8295 -1.6974 -1.9489
  208MOL0     H28673   2.877   2.765   8.168  0.6228 -1.1006 -0.1457
  208MOL0     H28674   2.690   2.600   8.071 -1.0891 -2.3046 -0.1871
  208MOL0     H28675   2.764   2.479   8.171 -1.1021  1.4034  2.6381
  208MOL0     H28676   2.846   2.529   7.904  2.7626  0.8105 -1.9201
  208MOL0     H28677   2.931   2.660   7.985  0.5238 -0.9377 -1.8172
  208MOL0     H28678   2.954   2.364   8.081 -0.8418 -0.0918  2.9871
  208MOL0     H28679   3.030   2.511   8.146  0.8161  1.4015 -1.4809
  208MOL0     H28680   3.156   2.554   7.923 -2.4817  1.9766  0.7319
  208MOL0     H28681   3.090   2.398   7.859 -1.2265 -0.7470  1.0962
  208MOL0     H28682   3.309   2.359   7.931 -0.4576 -0.4669 -0.6265
  208MOL0     H28683   3.190   2.272   8.015  0.9973  0.6056  2.3190
  208MOL0     H28684   2.757   3.046   8.519 -3.5245 -0.4236 -3.7336
  208MOL0     H28685   2.749   3.205   8.714  0.7086 -1.1990 -0.6865
  208MOL0     H28686   2.589   3.394   8.942  0.6166 -0.5826  0.0108
  208MOL0     H28687   2.549   3.612   9.065  0.0359  1.6814  4.4126
  208MOL0     H28688   2.424   4.819   8.368  0.0576 -0.3008  1.7283
  208MOL0     H28689   2.479   4.906   8.169 -1.8474  1.4840 -3.1500
  208MOL0     H28690   2.762   5.165   7.873  0.2649 -0.8925 -0.4613
  208MOL0     H28691   2.816   5.309   7.692  0.6795  1.6696  0.5341
  208MOL0     H28692   2.797   5.394   7.486 -0.2979  0.8115  1.9291
  208MOL0     H28693   2.662   5.344   7.378 -1.0120  2.0677 -0.8457
  208MOL0     H28694   2.602   5.565   7.307  0.1903  0.8052  0.0650
  208MOL0     H28695   2.781   5.525   7.270 -0.0489 -1.0681  0.7517
  208MOL0     H28696   2.746   5.755   7.354  3.0585  1.8250  0.0215
  208MOL0     H28697   2.665   5.692   7.500 -3.0339 -1.2200 -1.7395
  208MOL0     H28698   2.962   5.659   7.397  0.6642  1.0612 -0.5458
  208MOL0     H28699   2.916   5.551   7.533 -2.1393  0.3984  1.1583
  208MOL0     H28700   2.990   5.917   7.735  0.2818  2.3015 -1.6404
  208MOL0     H28701   2.384   5.385   7.655  1.9331 -1.3984 -2.0460
  208MOL0     H28702   2.251   5.161   7.866 -0.9889  1.1342 -0.2222
  208MOL0     H28703   2.288   5.301   7.966 -1.5221 -1.5061  0.8929
  208MOL0     H28704   2.226   5.311   7.795  0.1197 -2.5644 -0.9981
  209MOL0     O28705   1.286   2.073   8.180  0.4794  0.4638 -0.1350
  209MOL0     C28706   1.368   2.118   8.097 -0.5635  0.2992 -0.1903
  209MOL0     O28707   1.426   2.246   8.100  0.7295  0.8264  0.1755
  209MOL0     C28708   1.409   2.341   8.203 -0.0729 -0.8049 -0.2344
  209MOL0     C28709   1.511   2.437   8.233  0.0353  0.7721  0.1650
  209MOL0     C28710   1.496   2.521   8.345 -0.1093 -0.7148  0.0932
  209MOL0     C28711   1.389   2.509   8.431 -0.9663  0.2975 -1.4163
  209MOL0     O28712   1.379   2.567   8.553 -0.3872  0.2904 -0.1932
  209MOL0     C28713   1.427   2.697   8.579 -0.3347  0.2541  0.0704
  209MOL0     C28714   1.391   2.712   8.725 -0.7889 -0.6494 -0.0552
  209MOL0     C28715   1.501   2.796   8.805 -0.3528 -0.4628 -0.2748
  209MOL0     C28716   1.478   2.785   8.956 -0.3338 -0.0103 -0.0273
  209MOL0     C28717   1.571   2.882   9.034 -0.1804  0.8057 -0.0003
  209MOL0     C28718   1.518   3.025   9.037  0.6549 -0.1454 -0.3442
  209MOL0     C28719   1.616   3.120   9.111  0.1722  0.9613 -0.4443
  209MOL0     C28720   1.600   3.103   9.257 -0.3505  0.3959 -0.3022
  209MOL0     N28721   1.661   3.207   9.350 -0.0941 -0.9120  0.0043
  209MOL0     C28722   1.650   3.343   9.327 -0.2768  0.0789  0.3868
  209MOL0     C28723   1.721   3.398   9.432  0.2751  0.1174 -0.3124
  209MOL0     C28724   1.739   3.545   9.440 -1.3259 -0.0057  0.0434
  209MOL0     C28725   1.686   3.619   9.567 -0.2637  0.8710  0.1418
  209MOL0     C28726   1.744   3.764   9.566 -1.0929 -0.3775 -0.3860
  209MOL0     C28727   1.667   3.863   9.469  0.0066 -0.2496  0.2682
  209MOL0     O28728   1.520   3.843   9.474 -0.5863  0.2196 -0.2923
  209MOL0     C28729   1.441   3.915   9.565 -0.5323 -0.1870 -0.0480
  209MOL0     C28730   1.309   3.878   9.573 -0.9699  0.3820 -0.3134
  209MOL0     C28731   1.223   3.948   9.670  0.1981  0.5063 -1.5922
  209MOL0     C28732   1.085   3.886   9.674 -0.3370  0.3420 -0.4032
  209MOL0     C28733   1.276   4.057   9.747 -0.3835 -0.6420  0.1280
  209MOL0     C28734   1.206   4.123   9.861  0.3714 -0.4816 -0.4959
  209MOL0     O28735   1.079   4.078   9.884  0.1748  0.2553  0.7563
  209MOL0     C28736   1.019   4.109  10.003  0.4242  0.0514 -1.3811
  209MOL0     C28737   0.921   4.212  10.014  0.0236  0.6253  0.2787
  209MOL0     C28738   0.860   4.236  10.137  0.5807 -0.6774  0.5394
  209MOL0     C28739   0.893   4.163  10.245 -0.9466  0.8119 -0.2774
  209MOL0     O28740   0.833   4.184  10.370 -0.1473  0.0981  0.0605
  209MOL0     C28741   0.864   4.306  10.435  0.6851 -0.8079 -1.1736
  209MOL0     C28742   0.879   4.275  10.581 -0.5571  0.5543 -0.9761
  209MOL0     C28743   1.000   4.190  10.606  0.2889 -0.9408 -0.5708
  209MOL0     C28744   1.007   4.158  10.755  0.1061 -0.8287 -0.1995
  209MOL0     C28745   0.933   4.021  10.761  0.2326 -0.3972 -0.8337
  209MOL0     C28746   0.937   3.958  10.903 -0.5439 -0.6227 -0.4706
  209MOL0     C28747   1.073   3.889  10.937  0.0966  0.5557 -0.5082
  209MOL0     C28748   1.051   3.765  11.031  0.8286  0.9967 -1.0625
  209MOL0    Cl28749   0.969   3.632  10.950  0.0105 -0.3729 -0.0121
  209MOL0     C28750   0.985   4.063  10.235  0.9767 -0.2711 -0.3073
  209MOL0     C28751   1.048   4.032  10.113  0.7913 -0.0282 -0.8572
  209MOL0     O28752   1.270   4.195   9.942 -0.6351  0.2226  0.6628
  209MOL0     C28753   1.412   4.092   9.732 -0.5212  0.0890 -1.0101
  209MOL0     C28754   1.487   4.030   9.637 -0.2179  0.4682 -0.2768
  209MOL0     N28755   1.785   3.300   9.502 -0.7955 -0.0241 -0.0861
  209MOL0     N28756   1.727   3.192   9.465 -0.0519 -0.1737 -0.4518
  209MOL0     C28757   1.297   2.405   8.410 -0.6275 -0.0705  0.4095
  209MOL0     C28758   1.302   2.338   8.287 -0.2027 -0.3050 -0.5765
  209MOL0     C28759   1.411   2.039   7.981  0.1944 -0.0179  0.4632
  209MOL0     C28760   1.456   2.114   7.877 -0.6057 -0.5767  0.0218
  209MOL0     C28761   1.527   2.047   7.771  0.5054  0.2468  0.6112
  209MOL0     C28762   1.547   1.909   7.774  0.5327  1.0224  0.7551
  209MOL0     O28763   1.619   1.845   7.679  0.0964 -0.2618 -0.2551
  209MOL0     C28764   1.562   1.852   7.547  0.2679  0.2892 -0.9156
  209MOL0     C28765   1.609   1.738   7.457 -0.4126 -0.1952  0.7379
  209MOL0     C28766   1.761   1.743   7.455  0.0190  0.8995  0.7044
  209MOL0     C28767   1.816   1.640   7.371 -0.6836 -0.1069  0.5233
  209MOL0     C28768   1.963   1.652   7.398 -0.7832 -0.8776  0.0378
  209MOL0     C28769   2.080   1.662   7.432 -0.1886 -0.5162  0.6084
  209MOL0     C28770   1.516   1.843   7.896  0.1988 -1.1892  1.2875
  209MOL0     C28771   1.442   1.901   7.992 -0.3481  0.1483 -0.0411
  209MOL0     C28772   1.443   1.816   8.124 -0.2759 -0.5284 -1.0654
  209MOL0     H28773   1.590   2.447   8.159 -0.7367 -1.8151 -1.1387
  209MOL0     H28774   1.576   2.587   8.377 -0.8219  1.7109 -2.6357
  209MOL0     H28775   1.374   2.769   8.517 -2.2209 -1.0756  0.0683
  209MOL0     H28776   1.535   2.703   8.560  0.1707  0.8072  2.7291
  209MOL0     H28777   1.289   2.752   8.724 -0.9687 -1.0970  0.1733
  209MOL0     H28778   1.402   2.611   8.765  2.2004 -0.6420 -0.6121
  209MOL0     H28779   1.600   2.749   8.799  1.1100  2.4860 -0.9262
  209MOL0     H28780   1.515   2.899   8.772  0.4595 -0.7554 -0.8849
  209MOL0     H28781   1.373   2.806   8.979  0.2842 -1.0031  4.7589
  209MOL0     H28782   1.499   2.682   8.985  1.1773  0.4551  0.6654
  209MOL0     H28783   1.674   2.896   9.000  0.5759 -0.4030  1.6498
  209MOL0     H28784   1.578   2.846   9.137  1.6065  1.4529  0.1308
  209MOL0     H28785   1.506   3.055   8.933 -2.1882  1.7710  0.4242
  209MOL0     H28786   1.421   3.027   9.088  1.2779  1.4074  0.8852
  209MOL0     H28787   1.578   3.221   9.090 -1.4772  0.4901  0.1217
  209MOL0     H28788   1.719   3.113   9.076 -0.2787 -0.5447 -1.5655
  209MOL0     H28789   1.494   3.101   9.286 -0.0908  0.9236  0.7488
  209MOL0     H28790   1.640   3.008   9.294 -2.4186 -0.5015 -0.1940
  209MOL0     H28791   1.593   3.390   9.248  0.1961 -1.9345 -1.2279
  209MOL0     H28792   1.692   3.585   9.350  0.8860  0.1402 -1.1029
  209MOL0     H28793   1.847   3.559   9.441 -1.5332  2.0669  1.4224
  209MOL0     H28794   1.578   3.607   9.581  0.1099 -2.8796  1.0898
  209MOL0     H28795   1.733   3.574   9.655  2.3730 -2.5397 -2.6898
  209MOL0     H28796   1.740   3.806   9.667  2.8446  0.9638 -0.6142
  209MOL0     H28797   1.849   3.756   9.537 -1.8867 -2.5089 -3.1579
  209MOL0     H28798   1.698   3.963   9.499  1.0517 -1.0337  1.9324
  209MOL0     H28799   1.703   3.842   9.367  0.4384  1.2536  0.0928
  209MOL0     H28800   1.281   3.793   9.512  0.5590  0.3018 -0.9414
  209MOL0     H28801   1.014   3.962   9.639 -0.9936  0.0734  0.3193
  209MOL0     H28802   1.064   3.847   9.774  0.7621  0.8844  0.0610
  209MOL0     H28803   1.066   3.805   9.603 -1.3760  1.0578 -0.9719
  209MOL0     H28804   0.887   4.262   9.924 -0.2521 -3.1653 -1.9801
  209MOL0     H28805   0.787   4.316  10.142  0.6168 -0.2869 -2.8875
  209MOL0     H28806   0.948   4.358  10.389  1.8477 -1.7280 -0.1798
  209MOL0     H28807   0.774   4.364  10.415  0.8719 -0.2509 -0.4577
  209MOL0     H28808   0.887   4.378  10.618 -0.7037 -0.0661  0.8652
  209MOL0     H28809   0.785   4.229  10.614 -1.3327  1.2351 -2.1572
  209MOL0     H28810   1.078   4.259  10.576 -2.2607  0.9113 -3.4872
  209MOL0     H28811   1.001   4.103  10.540 -0.5911 -0.5459 -1.1172
  209MOL0     H28812   0.963   4.233  10.822 -0.2709  0.1587 -1.5089
  209MOL0     H28813   1.112   4.155  10.783 -0.7797 -0.8279  3.5709
  209MOL0     H28814   0.829   4.044  10.738  0.3142  0.8668 -0.0031
  209MOL0     H28815   0.956   3.947  10.683  3.5477 -1.7720  1.2235
  209MOL0     H28816   0.857   3.883  10.906 -1.3123  0.1105 -1.6948
  209MOL0     H28817   0.907   4.032  10.978  1.1231 -0.9984  0.6106
  209MOL0     H28818   1.132   3.976  10.967  0.1758  1.9835 -4.2804
  209MOL0     H28819   1.128   3.851  10.851  0.4472 -0.3563  0.0972
  209MOL0     H28820   1.007   3.802  11.124  3.3527  1.3644  0.0431
  209MOL0     H28821   1.153   3.732  11.052  0.9810  1.8064 -0.5099
  209MOL0     H28822   0.996   4.013  10.331  1.9509 -3.9398 -2.1684
  209MOL0     H28823   1.111   3.945  10.102  1.5096  0.5597 -1.4650
  209MOL0     H28824   1.464   4.163   9.795  0.0391  0.1490 -1.5360
  209MOL0     H28825   1.583   4.074   9.613  1.0200 -0.3719  2.6381
  209MOL0     H28826   1.213   2.375   8.473  0.7625 -0.9204  1.9445
  209MOL0     H28827   1.217   2.271   8.282 -1.4478  0.1897  5.6068
  209MOL0     H28828   1.434   2.220   7.881 -0.7147 -0.5278 -1.5729
  209MOL0     H28829   1.558   2.112   7.690 -1.3882  0.5534  0.0858
  209MOL0     H28830   1.454   1.838   7.555 -0.1250  2.7130 -1.3508
  209MOL0     H28831   1.599   1.947   7.509  0.7982  0.1680 -0.7070
  209MOL0     H28832   1.566   1.750   7.358 -1.8552 -0.6726  1.2755
  209MOL0     H28833   1.579   1.642   7.501 -0.4025 -1.8941 -2.6763
  209MOL0     H28834   1.798   1.838   7.416  0.9294  0.2628 -0.0468
  209MOL0     H28835   1.791   1.719   7.557 -0.0558 -1.8824  0.1467
  209MOL0     H28836   1.783   1.661   7.269 -0.2269  3.3377  0.9514
  209MOL0     H28837   1.780   1.541   7.400  0.9035 -0.7413  0.4477
  209MOL0     H28838   2.181   1.684   7.461  0.4238  0.0451 -1.7505
  209MOL0     H28839   1.545   1.738   7.901  0.7402 -1.0759  0.6811
  209MOL0     H28840   1.546   1.781   8.126  0.1626  0.7377 -0.6810
  209MOL0     H28841   1.434   1.865   8.222  1.0363 -3.0873  0.4275
  209MOL0     H28842   1.378   1.728   8.123 -1.0422  0.0217 -0.6954
  210MOL0     O28843   2.074   8.697   0.066 -0.5313 -0.2466 -0.0601
  210MOL0     C28844   2.075   8.624  -0.036 -0.4053 -0.6024 -0.5356
  210MOL0     O28845   1.954   8.590  -0.100 -0.0094 -0.1494 -0.0360
  210MOL0     C28846   1.847   8.649  -0.042  0.1314 -0.9308  0.8646
  210MOL0     C28847   1.760   8.577   0.033  1.1594  0.5165 -1.1571
  210MOL0     C28848   1.658   8.631   0.106 -0.5861 -0.1164  0.2769
  210MOL0     C28849   1.622   8.760   0.078  1.1027  0.0119 -0.9628
  210MOL0     O28850   1.510   8.802   0.140 -0.1259 -0.0821  0.0883
  210MOL0     C28851   1.456   8.922   0.106 -0.4564  0.1940  0.4030
  210MOL0     C28852   1.309   8.897   0.149 -0.8625 -0.2169 -1.2333
  210MOL0     C28853   1.246   9.033   0.129 -0.3585  0.3456 -0.7760
  210MOL0     C28854   1.087   9.019   0.136  0.1292  0.2494  0.4182
  210MOL0     C28855   1.033   9.160   0.124  0.5855  0.0311 -1.3976
  210MOL0     C28856   0.884   9.157   0.109  0.5668  0.5179 -0.4601
  210MOL0     C28857   0.815   9.295   0.133  0.3642 -0.4270  0.1089
  210MOL0     C28858   0.683   9.307   0.055 -0.3722  0.4947 -0.8216
  210MOL0     N28859   0.574   9.237   0.122  0.4221  0.3409 -0.1335
  210MOL0     C28860   0.511   9.280   0.242  0.6677  0.8649 -0.6278
  210MOL0     C28861   0.388   9.215   0.235 -0.2329  0.5685 -0.5179
  210MOL0     C28862   0.272   9.230   0.335  0.2279 -0.1596  0.2352
  210MOL0     C28863   0.144   9.300   0.278 -0.6317  0.4377 -0.2664
  210MOL0     C28864   0.071   9.213   0.172  0.0560  0.5920 -0.0454
  210MOL0     C28865  -0.057   9.285   0.132 -0.9256 -0.6874 -0.3871
  210MOL0     O28866  -0.024   9.395   0.052 -0.4047  0.6020  0.2511
  210MOL0     C28867  -0.116   9.498   0.028  0.7867  0.5124  0.4736
  210MOL0     C28868  -0.078   9.618  -0.025 -0.7216  0.2910 -0.0501
  210MOL0     C28869  -0.161   9.720  -0.043  0.6247 -1.4761 -0.6509
  210MOL0     C28870  -0.105   9.850  -0.096  0.0257  0.8291 -0.0828
  210MOL0     C28871  -0.303   9.707   0.007 -0.0574 -0.2357  0.4588
  210MOL0     C28872  -0.407   9.810  -0.007 -0.3124 -0.4533  0.6276
  210MOL0     O28873  -0.517   9.819   0.070  0.9540 -0.1692  0.4611
  210MOL0     C28874  -0.579   9.944   0.069 -0.0888  0.4572 -0.8598
  210MOL0     C28875  -0.714   9.934   0.104  0.1979 -0.0977  0.4162
  210MOL0     C28876  -0.783  10.052   0.135  0.1722  0.1241  1.0192
  210MOL0     C28877  -0.733  10.181   0.107 -0.0588 -0.1953 -0.0280
  210MOL0     O28878  -0.818  10.284   0.126 -0.3626 -0.2353  0.1950
  210MOL0     C28879  -0.781  10.416   0.083  0.4699 -0.6742 -0.7257
  210MOL0     C28880  -0.890  10.500   0.139  0.0575  0.4829 -0.7969
  210MOL0     C28881  -1.019  10.479   0.078 -0.1059 -0.0388  0.5127
  210MOL0     C28882  -1.054  10.582  -0.035  0.3934 -0.5441 -0.6112
  210MOL0     C28883  -1.090  10.720   0.023 -0.0431  0.6630 -0.1308
  210MOL0     C28884  -1.102  10.810  -0.094  0.1955 -0.0117 -0.1545
  210MOL0     C28885  -1.111  10.950  -0.046 -0.0108  0.5727 -1.1885
  210MOL0     C28886  -1.168  11.032  -0.161 -0.6764 -1.1970  0.2443
  210MOL0    Cl28887  -1.154  11.199  -0.130  0.5926  0.1746  0.4440
  210MOL0     C28888  -0.593  10.184   0.077  0.6588  0.4343  0.7899
  210MOL0     C28889  -0.522  10.068   0.055 -0.4237 -0.1321  0.5311
  210MOL0     O28890  -0.394   9.878  -0.113 -0.6974 -0.2180 -0.4667
  210MOL0     C28891  -0.341   9.586   0.063 -0.4325 -0.0748 -0.1309
  210MOL0     C28892  -0.252   9.481   0.061  0.4605 -0.0066  0.5376
  210MOL0     N28893   0.399   9.124   0.134  0.0942 -0.4641 -0.0649
  210MOL0     N28894   0.511   9.124   0.076  0.3082 -0.2012  0.2806
  210MOL0     C28895   1.703   8.837  -0.008 -0.1495 -0.1156 -0.0340
  210MOL0     C28896   1.822   8.785  -0.056 -0.1289  0.6344 -0.4870
  210MOL0     C28897   2.206   8.581  -0.096  0.2918 -0.1224  0.0228
  210MOL0     C28898   2.209   8.552  -0.231  0.4613 -0.1284 -0.2703
  210MOL0     C28899   2.322   8.494  -0.288  0.4236 -0.6390 -0.2633
  210MOL0     C28900   2.443   8.485  -0.220  0.2738  0.3500  0.0620
  210MOL0     O28901   2.550   8.432  -0.278  0.5181 -0.0037  0.7454
  210MOL0     C28902   2.552   8.378  -0.417  0.0828 -0.1997  0.0409
  210MOL0     C28903   2.691   8.317  -0.423  0.2648 -0.3987 -0.1190
  210MOL0     C28904   2.743   8.259  -0.548 -0.6893 -0.5614 -0.2331
  210MOL0     C28905   2.641   8.173  -0.609 -0.0032  0.3077 -0.4909
  210MOL0     C28906   2.688   8.091  -0.722 -1.2220 -0.8773 -0.5625
  210MOL0     C28907   2.726   8.037  -0.819  0.2982 -0.1365  0.4896
  210MOL0     C28908   2.450   8.540  -0.092 -1.1760 -1.0747  0.6434
  210MOL0     C28909   2.334   8.585  -0.027  1.1430  0.3296  0.2257
  210MOL0     C28910   2.352   8.634   0.107  0.2674  0.2406  0.1570
  210MOL0     H28911   1.785   8.472   0.037  1.8376  0.6108 -2.3651
  210MOL0     H28912   1.607   8.570   0.180 -1.4339 -0.2817 -0.4256
  210MOL0     H28913   1.461   8.942  -0.002 -0.2400  2.4616  0.7855
  210MOL0     H28914   1.501   9.006   0.160 -1.3101  2.1942 -1.7695
  210MOL0     H28915   1.278   8.808   0.093  1.7574 -3.4369  1.9786
  210MOL0     H28916   1.295   8.882   0.256 -0.5212 -0.9436 -1.2901
  210MOL0     H28917   1.288   9.105   0.200  0.7688  2.4143 -3.3564
  210MOL0     H28918   1.278   9.073   0.032  0.2191 -1.0052 -1.1586
  210MOL0     H28919   1.051   8.958   0.053  0.6363  0.2199  0.2129
  210MOL0     H28920   1.071   8.963   0.229 -0.0797 -0.9872 -0.3385
  210MOL0     H28921   1.072   9.210   0.035  0.7981 -0.4931 -1.6053
  210MOL0     H28922   1.060   9.210   0.218  1.1185 -2.2620 -0.2276
  210MOL0     H28923   0.863   9.115   0.009  0.5717  0.8858 -0.6164
  210MOL0     H28924   0.832   9.074   0.157  1.1644 -1.3238 -2.7843
  210MOL0     H28925   0.879   9.378   0.100 -0.7315 -0.1004 -1.2970
  210MOL0     H28926   0.799   9.306   0.241  2.9538 -0.8862  0.6155
  210MOL0     H28927   0.661   9.414   0.051  0.0003  0.5484 -1.6601
  210MOL0     H28928   0.693   9.270  -0.047  3.6045 -2.0993  0.2895
  210MOL0     H28929   0.544   9.353   0.316  0.7280  2.5344 -2.2217
  210MOL0     H28930   0.307   9.293   0.417 -0.3328  0.3136  0.1103
  210MOL0     H28931   0.252   9.134   0.384 -1.9760 -0.8847 -1.8746
  210MOL0     H28932   0.067   9.314   0.355  0.1791 -1.1902  0.9033
  210MOL0     H28933   0.157   9.395   0.227  0.7299  2.4119  3.4208
  210MOL0     H28934   0.138   9.208   0.086 -1.5615  1.4982 -1.4028
  210MOL0     H28935   0.058   9.109   0.203  2.6329  1.2526  4.0354
  210MOL0     H28936  -0.114   9.210   0.077  1.3150 -3.5224  0.8856
  210MOL0     H28937  -0.118   9.325   0.213  1.6777  2.1495  0.3821
  210MOL0     H28938   0.024   9.624  -0.062 -1.1144  1.2788 -1.0187
  210MOL0     H28939  -0.150   9.876  -0.193 -1.5604  4.9171  1.5356
  210MOL0     H28940   0.002   9.841  -0.113 -0.0261 -3.3123  0.7653
  210MOL0     H28941  -0.131   9.928  -0.024  3.3593  0.2855  1.8823
  210MOL0     H28942  -0.755   9.833   0.111  0.6707 -0.2556  0.9907
  210MOL0     H28943  -0.886  10.038   0.166  0.2312 -0.3289  1.0180
  210MOL0     H28944  -0.692  10.453   0.136  0.0553  1.3006 -1.3473
  210MOL0     H28945  -0.770  10.421  -0.026  2.5226  1.4578 -0.5210
  210MOL0     H28946  -0.916  10.477   0.243  0.2560  1.2631 -0.5691
  210MOL0     H28947  -0.867  10.607   0.144 -2.7992  1.1832  3.9130
  210MOL0     H28948  -1.095  10.504   0.153 -1.6756 -0.6686 -0.8109
  210MOL0     H28949  -1.045  10.376   0.051 -0.9254  0.5204 -0.9104
  210MOL0     H28950  -1.142  10.539  -0.084  1.1597 -2.1155 -0.6655
  210MOL0     H28951  -0.964  10.578  -0.096  1.0639 -4.2312  0.3965
  210MOL0     H28952  -1.183  10.709   0.080 -2.2774 -0.9452 -3.7363
  210MOL0     H28953  -0.997  10.746   0.074  0.6882  0.2893 -1.2368
  210MOL0     H28954  -1.194  10.788  -0.149 -1.8889  0.5611  2.8448
  210MOL0     H28955  -1.015  10.796  -0.158  1.7149  1.6094  1.4282
  210MOL0     H28956  -1.010  10.981  -0.017  0.5869 -0.5505 -1.9857
  210MOL0     H28957  -1.169  10.949   0.046  4.3511  2.3034  1.9594
  210MOL0     H28958  -1.272  11.016  -0.190 -0.9601  0.4156  0.3030
  210MOL0     H28959  -1.108  11.004  -0.248 -0.4539  0.0278 -0.0118
  210MOL0     H28960  -0.549  10.283   0.084 -0.3090  0.9614 -0.3188
  210MOL0     H28961  -0.417  10.084   0.035 -0.9031  0.7310 -1.6069
  210MOL0     H28962  -0.439   9.562   0.103 -0.8256  2.1197  0.3453
  210MOL0     H28963  -0.276   9.384   0.103  4.7629 -1.5576 -0.0590
  210MOL0     H28964   1.669   8.938  -0.030  0.2784 -0.3873 -2.2373
  210MOL0     H28965   1.872   8.858  -0.118  1.5492 -1.0668 -1.2196
  210MOL0     H28966   2.117   8.566  -0.286 -1.2453  1.0193  2.6485
  210MOL0     H28967   2.316   8.453  -0.389  2.9149 -3.4978  0.6204
  210MOL0     H28968   2.483   8.296  -0.438 -3.3736  1.8581  2.3367
  210MOL0     H28969   2.539   8.463  -0.486  0.7244  0.8794  1.2092
  210MOL0     H28970   2.710   8.246  -0.343  1.0560 -2.2659 -1.8631
  210MOL0     H28971   2.744   8.409  -0.400 -1.0830  0.4597 -0.3253
  210MOL0     H28972   2.772   8.346  -0.608  0.1949 -0.0681  0.8862
  210MOL0     H28973   2.836   8.209  -0.520 -0.5875  0.8479  2.2243
  210MOL0     H28974   2.565   8.230  -0.664 -0.3407 -0.5678 -0.9527
  210MOL0     H28975   2.585   8.124  -0.529 -1.8681  3.7812  0.5271
  210MOL0     H28976   2.770   7.972  -0.892 -2.8281 -0.3878 -1.3549
  210MOL0     H28977   2.550   8.539  -0.050 -1.4307  2.7745  1.7067
  210MOL0     H28978   2.457   8.619   0.136  0.6181  1.5470 -0.3360
  210MOL0     H28979   2.332   8.742   0.107  3.0863  0.8392  0.4248
  210MOL0     H28980   2.283   8.588   0.178 -1.3519  1.8305 -0.3184
  211MOL0     O28981   6.781   8.404   0.924 -0.2794 -0.3530  0.4001
  211MOL0     C28982   6.807   8.288   0.932 -0.6439  0.0282  0.3486
  211MOL0     O28983   6.772   8.201   0.831 -0.2012  0.1221  0.3701
  211MOL0     C28984   6.754   8.243   0.700 -0.8136  0.0850 -0.0239
  211MOL0     C28985   6.730   8.139   0.611 -0.0717  0.1763 -0.4292
  211MOL0     C28986   6.692   8.168   0.473 -1.3423  0.4760 -0.5467
  211MOL0     C28987   6.707   8.292   0.417 -0.5081 -0.6652 -0.5957
  211MOL0     O28988   6.687   8.308   0.284  0.4791  0.4736  0.4556
  211MOL0     C28989   6.781   8.398   0.219 -0.0973  0.6180  0.4097
  211MOL0     C28990   6.785   8.359   0.077 -1.0263 -0.4325  0.0804
  211MOL0     C28991   6.649   8.365  -0.002  0.0164  0.5932  0.4245
  211MOL0     C28992   6.668   8.383  -0.151  0.8756 -0.4632 -0.9037
  211MOL0     C28993   6.541   8.361  -0.222  0.4252  0.1279 -0.7526
  211MOL0     C28994   6.566   8.375  -0.372 -0.5543  0.9409  0.1826
  211MOL0     C28995   6.450   8.343  -0.469  0.0931  0.0471  0.1560
  211MOL0     C28996   6.457   8.447  -0.586 -0.6071  0.6522 -1.6061
  211MOL0     N28997   6.579   8.437  -0.667 -1.3666 -1.0330 -0.0769
  211MOL0     C28998   6.609   8.346  -0.764 -0.6814 -0.6251  0.5329
  211MOL0     C28999   6.733   8.373  -0.813 -0.8331 -0.2898  0.0839
  211MOL0     C29000   6.799   8.304  -0.930 -0.4265 -1.4307  0.3339
  211MOL0     C29001   6.905   8.390  -0.998  0.4881  0.3309  0.9728
  211MOL0     C29002   6.981   8.336  -1.130  0.4878 -0.1955  0.1719
  211MOL0     C29003   7.066   8.214  -1.109 -0.0318  0.6290 -0.3283
  211MOL0     O29004   7.119   8.230  -0.974  0.2942  0.1702  0.2518
  211MOL0     C29005   7.210   8.132  -0.941 -0.5142 -0.0756  1.6246
  211MOL0     C29006   7.274   8.146  -0.819 -0.3128 -0.6018  0.3704
  211MOL0     C29007   7.343   8.041  -0.752  1.2096 -0.9986 -0.0156
  211MOL0     C29008   7.408   8.074  -0.623  0.0102 -0.1628 -0.5789
  211MOL0     C29009   7.359   7.914  -0.813 -0.6342 -1.0619 -1.4159
  211MOL0     C29010   7.433   7.796  -0.752  0.1491 -0.0758 -0.0521
  211MOL0     O29011   7.466   7.704  -0.851  0.0973  0.2691  0.1970
  211MOL0     C29012   7.579   7.624  -0.840  0.4813 -0.6717  0.1393
  211MOL0     C29013   7.694   7.657  -0.770  0.1376  0.3402 -0.3845
  211MOL0     C29014   7.808   7.576  -0.774 -0.0439 -1.0859 -0.7607
  211MOL0     C29015   7.803   7.458  -0.848 -0.0141  0.0524  0.3411
  211MOL0     O29016   7.914   7.380  -0.853  0.2048  0.8727  0.2677
  211MOL0     C29017   7.919   7.252  -0.917  0.2175 -0.1055 -1.1600
  211MOL0     C29018   8.067   7.201  -0.931 -0.0023  1.0287  0.0268
  211MOL0     C29019   8.138   7.137  -0.819 -0.8191 -0.2179  0.4172
  211MOL0     C29020   8.190   7.239  -0.728 -0.8164 -0.0335 -0.3919
  211MOL0     C29021   8.292   7.189  -0.625  0.2535 -0.6076  0.5682
  211MOL0     C29022   8.236   7.078  -0.534  0.2437  0.3263 -0.3592
  211MOL0     C29023   8.342   7.043  -0.435  0.5014  1.0929  0.2728
  211MOL0     C29024   8.391   7.159  -0.348  0.6885  0.1062 -0.0291
  211MOL0    Cl29025   8.460   7.097  -0.199  0.1370 -0.3469 -0.0058
  211MOL0     C29026   7.690   7.424  -0.915  0.3199  0.4700  0.1361
  211MOL0     C29027   7.580   7.511  -0.923 -0.5416 -0.0394  0.3832
  211MOL0     O29028   7.453   7.780  -0.632  0.1533 -0.8919 -0.2724
  211MOL0     C29029   7.304   7.902  -0.947  0.0190 -0.3488  0.0071
  211MOL0     C29030   7.234   8.010  -1.010  0.7599 -0.1788 -0.4459
  211MOL0     N29031   6.789   8.484  -0.737 -0.1610  0.3062 -0.1010
  211MOL0     N29032   6.697   8.507  -0.645  0.4355 -0.3203  0.2703
  211MOL0     C29033   6.736   8.397   0.501 -0.6116 -0.4652 -0.0203
  211MOL0     C29034   6.760   8.376   0.641  1.0156  0.3934  0.1295
  211MOL0     C29035   6.877   8.228   1.050 -0.3610 -0.8548  0.2587
  211MOL0     C29036   6.910   8.092   1.045  0.0083  0.1919  0.4669
  211MOL0     C29037   6.984   8.027   1.142  0.7062  0.5040  0.1217
  211MOL0     C29038   7.015   8.094   1.262  0.4194  0.2035 -0.3781
  211MOL0     O29039   7.130   8.046   1.330 -0.3749 -0.7976 -0.0819
  211MOL0     C29040   7.121   8.043   1.478  0.4908  0.2204 -0.2573
  211MOL0     C29041   7.086   7.915   1.539 -0.0606  0.2415  0.0126
  211MOL0     C29042   7.154   7.810   1.461  0.5473  1.0819 -0.4765
  211MOL0     C29043   7.307   7.827   1.457 -0.1502 -0.4497 -0.2789
  211MOL0     C29044   7.370   7.710   1.400  0.3487  0.9728 -0.5560
  211MOL0     C29045   7.424   7.613   1.348 -0.1999  0.3222 -0.3197
  211MOL0     C29046   6.955   8.218   1.279 -0.8217 -1.1619 -0.3288
  211MOL0     C29047   6.882   8.292   1.181 -0.7303  0.2065  0.4619
  211MOL0     C29048   6.832   8.431   1.218  0.6099  0.0340 -0.1837
  211MOL0     H29049   6.709   8.039   0.645  1.1841  0.0395 -0.0007
  211MOL0     H29050   6.644   8.089   0.417 -1.6322 -0.9331  1.5616
  211MOL0     H29051   6.882   8.388   0.261 -0.5317  1.1094  1.5934
  211MOL0     H29052   6.754   8.504   0.223 -0.4837  0.6045 -1.0867
  211MOL0     H29053   6.856   8.426   0.027 -0.0061  0.8690  3.0428
  211MOL0     H29054   6.823   8.258   0.064  0.8208  0.5065 -2.7609
  211MOL0     H29055   6.609   8.267   0.022 -1.6722  1.5266  1.5979
  211MOL0     H29056   6.585   8.439   0.048  0.2481 -0.0928  1.7874
  211MOL0     H29057   6.707   8.485  -0.166  2.6402 -0.9055  0.3141
  211MOL0     H29058   6.746   8.314  -0.182  1.1838 -1.0430  0.9940
  211MOL0     H29059   6.476   8.442  -0.188 -0.3588 -1.0693  0.7116
  211MOL0     H29060   6.505   8.267  -0.180  1.0751  0.9753  1.8911
  211MOL0     H29061   6.577   8.483  -0.368 -4.3026  1.6543 -2.7283
  211MOL0     H29062   6.658   8.330  -0.411 -0.2111  0.8682  1.0529
  211MOL0     H29063   6.351   8.362  -0.426 -0.1082  4.5851 -1.7281
  211MOL0     H29064   6.457   8.244  -0.513  1.0586 -0.0991  0.6029
  211MOL0     H29065   6.365   8.436  -0.646 -0.9855 -0.0327 -0.9116
  211MOL0     H29066   6.459   8.545  -0.539  0.7766 -0.8138  1.6818
  211MOL0     H29067   6.548   8.263  -0.796 -3.9757  1.8475 -0.1613
  211MOL0     H29068   6.721   8.268  -0.998 -0.3026  0.3063 -0.7634
  211MOL0     H29069   6.849   8.220  -0.880  2.2472 -0.0615  0.1046
  211MOL0     H29070   6.865   8.484  -1.038 -0.7574  0.6914  2.9365
  211MOL0     H29071   6.986   8.434  -0.939 -0.3376  2.6498  0.4906
  211MOL0     H29072   6.911   8.321  -1.212  0.9981  1.0682 -0.5348
  211MOL0     H29073   7.046   8.423  -1.147  2.2367 -1.6200 -0.8864
  211MOL0     H29074   7.008   8.125  -1.133  0.0121  0.7607 -0.9498
  211MOL0     H29075   7.142   8.231  -1.186 -1.1512  4.3573 -0.8102
  211MOL0     H29076   7.259   8.234  -0.757  0.5230 -0.8385  0.9255
  211MOL0     H29077   7.334   8.048  -0.546  1.6226 -4.1499 -0.1489
  211MOL0     H29078   7.425   8.182  -0.620  0.3372 -0.1862 -1.5421
  211MOL0     H29079   7.503   8.021  -0.620  0.7108  1.0401 -1.0023
  211MOL0     H29080   7.705   7.750  -0.715 -3.2833  0.6976 -0.1196
  211MOL0     H29081   7.901   7.606  -0.727  0.7946 -1.9218 -1.8269
  211MOL0     H29082   7.871   7.175  -0.856 -2.4428  0.8423 -1.9382
  211MOL0     H29083   7.884   7.252  -1.020  2.4157 -0.5329 -1.9456
  211MOL0     H29084   8.057   7.116  -0.998 -0.2735 -2.2129  3.7961
  211MOL0     H29085   8.146   7.259  -0.980  1.8882 -0.5394  1.0717
  211MOL0     H29086   8.221   7.083  -0.866  1.3516  1.9818  1.4956
  211MOL0     H29087   8.081   7.050  -0.785  0.9800 -2.4787 -1.9537
  211MOL0     H29088   8.100   7.281  -0.682  0.6197  0.7833  1.8603
  211MOL0     H29089   8.260   7.307  -0.777  0.6757  0.0118  1.6247
  211MOL0     H29090   8.385   7.156  -0.673  0.1888 -1.8338  1.2243
  211MOL0     H29091   8.306   7.280  -0.567 -0.8293 -0.0024 -0.0927
  211MOL0     H29092   8.213   6.991  -0.595  2.3551  1.2274 -2.6097
  211MOL0     H29093   8.147   7.116  -0.483 -0.2177  2.1823 -2.4091
  211MOL0     H29094   8.422   6.988  -0.487  0.3697 -1.3986  2.4525
  211MOL0     H29095   8.298   6.979  -0.358 -3.7061  2.8679 -0.4211
  211MOL0     H29096   8.304   7.221  -0.325  0.7343  0.2035 -0.1174
  211MOL0     H29097   8.467   7.222  -0.395  0.7183  0.7992  0.9039
  211MOL0     H29098   7.670   7.341  -0.981 -1.9585  3.5821 -3.4771
  211MOL0     H29099   7.491   7.493  -0.983 -1.4367  2.0960  0.9661
  211MOL0     H29100   7.307   7.806  -0.997  0.8932  0.8041 -2.2856
  211MOL0     H29101   7.198   8.001  -1.112  4.0372  0.5760 -1.7977
  211MOL0     H29102   6.767   8.489   0.452  2.7997 -1.8410 -0.7520
  211MOL0     H29103   6.785   8.464   0.700 -4.0876  3.5313 -1.6904
  211MOL0     H29104   6.890   8.032   0.957  2.7133  2.8397 -2.1706
  211MOL0     H29105   7.030   7.932   1.116  1.5470  0.9144  0.0844
  211MOL0     H29106   7.219   8.063   1.521  0.3199 -1.6780  1.1481
  211MOL0     H29107   7.046   8.116   1.509 -1.4684 -0.9002 -2.0704
  211MOL0     H29108   6.981   7.892   1.521 -0.1945  0.9639 -0.1528
  211MOL0     H29109   7.108   7.897   1.645 -0.6215 -1.1139 -0.0754
  211MOL0     H29110   7.140   7.719   1.520  0.1351  2.5227  1.7963
  211MOL0     H29111   7.119   7.794   1.358 -1.5353 -0.9063  0.4453
  211MOL0     H29112   7.343   7.828   1.561  0.8822  1.2542 -0.6190
  211MOL0     H29113   7.327   7.918   1.400 -1.5441  0.5613  0.7498
  211MOL0     H29114   7.450   7.519   1.303  2.2965 -0.1468  1.8305
  211MOL0     H29115   6.979   8.274   1.369  1.6770 -1.6636 -0.6117
  211MOL0     H29116   6.876   8.498   1.143 -1.4770 -0.9688 -2.4093
  211MOL0     H29117   6.726   8.444   1.195  0.9212  2.9965 -0.4014
  211MOL0     H29118   6.843   8.471   1.320 -1.4156  5.8023 -1.8429
  212MOL0     O29119   0.820   9.337   4.318 -0.3420  0.3117  0.4509
  212MOL0     C29120   0.823   9.297   4.431 -0.1637  0.2150 -1.1348
  212MOL0     O29121   0.856   9.363   4.535  0.6709  0.5858 -0.1004
  212MOL0     C29122   0.903   9.487   4.521  0.2886 -1.3703 -0.4793
  212MOL0     C29123   1.028   9.516   4.578 -0.2090 -0.3198  0.2640
  212MOL0     C29124   1.077   9.646   4.566  0.2900 -0.0923  0.2909
  212MOL0     C29125   1.004   9.747   4.503 -0.1153 -0.5079 -0.2773
  212MOL0     O29126   1.056   9.873   4.496 -0.8082 -0.8787  0.3053
  212MOL0     C29127   1.005   9.979   4.406  0.8781  1.0675 -0.0479
  212MOL0     C29128   1.101  10.089   4.414 -0.6594  0.3443 -0.9588
  212MOL0     C29129   1.062  10.211   4.327 -0.2604  0.5579  0.1591
  212MOL0     C29130   1.117  10.194   4.184 -0.5045  0.2562  0.5399
  212MOL0     C29131   1.103  10.327   4.102 -0.2782  1.5430  0.0897
  212MOL0     C29132   1.098  10.319   3.951  0.5443  0.9298  1.5842
  212MOL0     C29133   0.959  10.260   3.896  0.0330 -0.0556 -0.6558
  212MOL0     C29134   0.968  10.237   3.743  0.3356  0.4086  0.2124
  212MOL0     N29135   0.845  10.157   3.695 -0.4348  0.2416  0.0654
  212MOL0     C29136   0.783  10.053   3.754  0.6314  0.7828 -0.1825
  212MOL0     C29137   0.693  10.012   3.664 -0.5135  0.0758 -0.1041
  212MOL0     C29138   0.593   9.897   3.677  0.1486 -0.3876  0.3701
  212MOL0     C29139   0.611   9.798   3.571 -0.1028 -0.4588  0.4094
  212MOL0     C29140   0.632   9.653   3.620 -0.2374 -0.8827 -1.1011
  212MOL0     C29141   0.746   9.638   3.708  0.2533 -0.2587  0.1907
  212MOL0     O29142   0.872   9.692   3.655  0.3434 -0.4292  0.1121
  212MOL0     C29143   0.965   9.721   3.750 -1.0277 -0.6516  0.1641
  212MOL0     C29144   0.950   9.701   3.886 -0.4800  0.4447 -0.7419
  212MOL0     C29145   1.053   9.726   3.972  0.3562  0.1621  0.0457
  212MOL0     C29146   1.025   9.699   4.109 -0.5201 -0.1791  0.1043
  212MOL0     C29147   1.175   9.791   3.927 -0.0972  0.4071  0.3994
  212MOL0     C29148   1.292   9.831   4.016 -0.5073  0.4208  0.7938
  212MOL0     O29149   1.263   9.898   4.122 -0.1513 -0.4104 -0.5720
  212MOL0     C29150   1.352   9.900   4.225 -0.0304 -0.0277 -1.2424
  212MOL0     C29151   1.348   9.798   4.323 -0.1507  0.0873 -0.1794
  212MOL0     C29152   1.433   9.795   4.434  0.0837  0.0457  0.2041
  212MOL0     C29153   1.526   9.898   4.447 -0.4916  0.3432  0.6281
  212MOL0     O29154   1.610   9.893   4.552 -0.9504  0.1379  0.2047
  212MOL0     C29155   1.722   9.800   4.538 -0.0346 -0.0634  0.5832
  212MOL0     C29156   1.773   9.785   4.672  0.1905  0.6176 -0.5498
  212MOL0     C29157   1.668   9.714   4.764 -0.7716  0.2648  0.0226
  212MOL0     C29158   1.736   9.615   4.874  0.4284 -0.1287 -0.0253
  212MOL0     C29159   1.657   9.625   5.010  1.6518  0.4774  0.8304
  212MOL0     C29160   1.690   9.516   5.112 -0.2407 -0.8377  0.8816
  212MOL0     C29161   1.622   9.532   5.249 -0.8781  0.0919 -0.4249
  212MOL0     C29162   1.639   9.398   5.330  0.3874 -0.0522 -1.0553
  212MOL0    Cl29163   1.607   9.419   5.499  0.3226  0.0714  0.2247
  212MOL0     C29164   1.534  10.006   4.354  0.3808 -0.3435  0.3640
  212MOL0     C29165   1.451   9.999   4.241 -0.7415 -0.1714 -0.3375
  212MOL0     O29166   1.407   9.803   3.985  0.5959  0.0473 -0.8865
  212MOL0     C29167   1.182   9.831   3.790  0.2716 -0.1111 -0.2520
  212MOL0     C29168   1.073   9.789   3.703  0.2030  0.5586  0.2947
  212MOL0     N29169   0.694  10.099   3.555 -0.0147  0.6031 -0.0751
  212MOL0     N29170   0.786  10.186   3.575 -0.6696  0.3665  0.2890
  212MOL0     C29171   0.880   9.718   4.443 -0.4251 -0.0891 -0.7510
  212MOL0     C29172   0.824   9.586   4.455 -0.8813  0.0807  0.1840
  212MOL0     C29173   0.765   9.171   4.452 -0.1694  0.3089  0.6560
  212MOL0     C29174   0.679   9.149   4.557 -0.0178 -0.5234 -0.3408
  212MOL0     C29175   0.606   9.033   4.567 -0.2767  0.8149 -0.1958
  212MOL0     C29176   0.620   8.926   4.469 -0.6795  0.3710 -0.0600
  212MOL0     O29177   0.540   8.818   4.455 -0.0836 -0.5185  0.4038
  212MOL0     C29178   0.426   8.806   4.544  0.6270  0.5692  0.0306
  212MOL0     C29179   0.304   8.891   4.499  0.7471  0.5662  0.4906
  212MOL0     C29180   0.232   8.957   4.624  0.9155 -0.4236  0.1097
  212MOL0     C29181   0.123   9.056   4.592  0.0982 -0.4561  0.9229
  212MOL0     C29182  -0.001   9.001   4.530  0.2624  0.6160 -1.0097
  212MOL0     C29183  -0.107   8.968   4.478 -0.3958  0.5855  0.0019
  212MOL0     C29184   0.712   8.942   4.363 -0.3334  0.0286 -0.0250
  212MOL0     C29185   0.786   9.064   4.355 -0.4920  0.1380 -0.4277
  212MOL0     C29186   0.869   9.060   4.234 -0.2885 -0.7694  1.1901
  212MOL0     H29187   1.087   9.442   4.631  1.6977  1.8724  1.4035
  212MOL0     H29188   1.169   9.662   4.621 -0.0835 -2.9022  1.9256
  212MOL0     H29189   0.900  10.006   4.424 -0.9656 -4.1851 -1.0351
  212MOL0     H29190   1.009   9.936   4.305 -0.4118 -2.8524  1.3563
  212MOL0     H29191   1.102  10.126   4.518  1.5860 -1.2938 -0.3257
  212MOL0     H29192   1.202  10.058   4.386 -0.3900 -0.9167  1.1826
  212MOL0     H29193   0.953  10.218   4.317 -0.4890 -1.9711  0.2331
  212MOL0     H29194   1.101  10.305   4.368  0.4902  0.9659 -1.4065
  212MOL0     H29195   1.222  10.167   4.197 -0.9974 -1.1017  1.9381
  212MOL0     H29196   1.069  10.109   4.135 -1.0467  1.8045 -1.7878
  212MOL0     H29197   1.186  10.387   4.141  0.7699  0.4583 -0.4165
  212MOL0     H29198   1.012  10.376   4.137 -1.3192 -1.9329  2.7930
  212MOL0     H29199   1.111  10.419   3.909 -1.7688 -0.0152 -1.8128
  212MOL0     H29200   1.178  10.258   3.907 -1.1440  0.5000 -1.1003
  212MOL0     H29201   0.894  10.348   3.904 -0.4097 -0.3024 -1.3476
  212MOL0     H29202   0.935  10.169   3.952  1.0652  0.0241 -0.0625
  212MOL0     H29203   0.972  10.335   3.695  3.8418 -0.0883 -0.7631
  212MOL0     H29204   1.058  10.192   3.701 -1.2647 -2.0181 -0.8735
  212MOL0     H29205   0.808  10.017   3.853  0.0120  2.3366  0.5552
  212MOL0     H29206   0.489   9.930   3.680 -0.2881 -1.6634 -0.0158
  212MOL0     H29207   0.597   9.865   3.782 -2.4233  2.7468  1.6010
  212MOL0     H29208   0.539   9.810   3.489 -1.1000 -0.0997  1.3290
  212MOL0     H29209   0.706   9.814   3.519  0.3753  0.6232  1.5671
  212MOL0     H29210   0.541   9.621   3.671 -0.8384  0.4495 -1.2799
  212MOL0     H29211   0.652   9.595   3.529 -1.0672 -2.5392 -0.2626
  212MOL0     H29212   0.716   9.681   3.804  1.3651 -0.5967  0.6975
  212MOL0     H29213   0.768   9.531   3.719  0.5626 -0.2756 -0.5184
  212MOL0     H29214   0.866   9.652   3.933  0.1488  1.1835  1.2487
  212MOL0     H29215   0.970   9.605   4.113 -2.3192  0.8090 -0.6638
  212MOL0     H29216   0.963   9.777   4.153 -2.8059 -1.7511 -0.1441
  212MOL0     H29217   1.117   9.694   4.169 -0.4432 -0.4388 -0.0333
  212MOL0     H29218   1.265   9.730   4.308 -0.7704  1.2142 -2.3499
  212MOL0     H29219   1.421   9.718   4.509 -2.6804 -1.7575 -1.9149
  212MOL0     H29220   1.684   9.707   4.495  1.4426 -1.1390  1.5034
  212MOL0     H29221   1.792   9.834   4.461 -2.3594 -1.8690 -2.6230
  212MOL0     H29222   1.874   9.743   4.665  1.2112  3.1194 -1.8841
  212MOL0     H29223   1.791   9.882   4.718 -1.0909  2.2462 -3.2331
  212MOL0     H29224   1.600   9.652   4.705 -3.8057  0.9614  2.4978
  212MOL0     H29225   1.607   9.791   4.811  1.3358  2.4068 -0.5536
  212MOL0     H29226   1.842   9.635   4.891  0.2127  1.0544 -0.0014
  212MOL0     H29227   1.739   9.509   4.846 -1.5600 -0.9366  2.4818
  212MOL0     H29228   1.677   9.717   5.066  2.4513 -0.2130  1.7180
  212MOL0     H29229   1.548   9.628   4.997  1.8685  1.5327 -1.0617
  212MOL0     H29230   1.794   9.517   5.145  0.2825  2.0857 -0.5018
  212MOL0     H29231   1.676   9.427   5.050 -0.5861 -2.2035  2.8251
  212MOL0     H29232   1.515   9.543   5.233 -1.1344  0.4410  1.2646
  212MOL0     H29233   1.667   9.624   5.289 -0.9246 -0.3170  0.6085
  212MOL0     H29234   1.739   9.358   5.314  1.1129  0.9811  0.6222
  212MOL0     H29235   1.563   9.329   5.292 -1.2259 -0.5158  2.5728
  212MOL0     H29236   1.592  10.096   4.372 -3.7983  3.5487 -3.0433
  212MOL0     H29237   1.460  10.079   4.167  0.5336  1.9857  1.9844
  212MOL0     H29238   1.266   9.890   3.755  0.8924  0.1125  1.5069
  212MOL0     H29239   1.062   9.830   3.603  2.0721  3.0924  1.0048
  212MOL0     H29240   0.817   9.789   4.390  0.6831  3.0316  1.7753
  212MOL0     H29241   0.728   9.540   4.436 -0.5003 -1.4088  1.6408
  212MOL0     H29242   0.661   9.220   4.636  0.9624 -1.0916  0.4250
  212MOL0     H29243   0.547   9.004   4.653 -0.2609 -0.9920 -0.7468
  212MOL0     H29244   0.413   8.697   4.543  3.1919  0.1837 -0.0186
  212MOL0     H29245   0.455   8.832   4.647  2.7813 -0.6969 -0.1864
  212MOL0     H29246   0.238   8.822   4.445  2.5945 -0.0149 -1.1307
  212MOL0     H29247   0.325   8.966   4.423  1.6558 -1.3759 -1.2922
  212MOL0     H29248   0.199   8.875   4.688  1.3673 -2.6654 -2.3621
  212MOL0     H29249   0.303   9.008   4.689  2.3277 -2.0309 -0.0957
  212MOL0     H29250   0.166   9.144   4.543  0.6339 -0.9729  0.4315
  212MOL0     H29251   0.085   9.089   4.689  1.2994  0.0994  1.2371
  212MOL0     H29252  -0.205   8.952   4.438 -1.7701  3.9350  1.6985
  212MOL0     H29253   0.728   8.872   4.282 -1.4526 -1.2584  0.8163
  212MOL0     H29254   0.894   8.955   4.217 -2.1096 -1.0949  0.2115
  212MOL0     H29255   0.806   9.102   4.155  1.2785 -1.0678 -0.2704
  212MOL0     H29256   0.963   9.115   4.247 -0.2600 -1.1284  2.6812
  213MOL0     O29257   2.277   5.676  11.195  0.1155 -0.6501 -0.3562
  213MOL0     C29258   2.294   5.640  11.084 -0.2578 -0.2490 -0.1389
  213MOL0     O29259   2.212   5.645  10.978  0.1693 -0.0095 -0.7376
  213MOL0     C29260   2.094   5.727  10.987 -0.8951  0.0530  0.1295
  213MOL0     C29261   2.006   5.738  11.098 -0.2691  0.4013 -0.9334
  213MOL0     C29262   1.890   5.815  11.086 -0.5150  0.3904 -0.3251
  213MOL0     C29263   1.871   5.895  10.971  0.4047  0.0881  0.6967
  213MOL0     O29264   1.766   5.986  10.962  0.5801 -0.1195  0.5800
  213MOL0     C29265   1.653   5.951  10.867  0.1949 -0.1655 -0.1826
  213MOL0     C29266   1.519   5.973  10.939  0.4539  0.3871 -0.2605
  213MOL0     C29267   1.443   6.095  10.892  0.6051  0.8446 -0.9127
  213MOL0     C29268   1.310   6.109  10.971  0.2598  0.6678  0.1010
  213MOL0     C29269   1.249   6.255  10.946 -0.4133  0.3757  0.5832
  213MOL0     C29270   1.105   6.276  11.009 -0.0382  0.1251  0.6210
  213MOL0     C29271   1.095   6.334  11.144 -0.5240 -0.1707  0.2364
  213MOL0     C29272   0.955   6.378  11.184  0.7122 -0.6706 -0.1012
  213MOL0     N29273   0.876   6.260  11.218 -0.5754 -0.7892 -0.6068
  213MOL0     C29274   0.911   6.171  11.325 -0.1150  0.1731  0.6929
  213MOL0     C29275   0.814   6.066  11.307  1.1646  0.0093  0.5986
  213MOL0     C29276   0.790   5.941  11.377 -0.0916 -0.2259 -0.1697
  213MOL0     C29277   0.650   5.925  11.425  0.1330 -0.5508  0.2682
  213MOL0     C29278   0.629   5.775  11.446  0.7299  0.5957 -0.0608
  213MOL0     C29279   0.492   5.765  11.520  0.7433 -0.2472  0.0324
  213MOL0     O29280   0.489   5.784  11.660 -0.0815 -0.1605 -0.3754
  213MOL0     C29281   0.412   5.874  11.731  0.0074  0.6749  0.7786
  213MOL0     C29282   0.331   5.967  11.670 -0.4523  0.1430  0.7707
  213MOL0     C29283   0.251   6.065  11.739  0.0140  0.5625 -0.8571
  213MOL0     C29284   0.168   6.164  11.649 -0.1200  0.4594 -1.3122
  213MOL0     C29285   0.254   6.061  11.879  0.8231  1.0129  0.3010
  213MOL0     C29286   0.191   6.153  11.964  0.4257 -0.1546  0.4643
  213MOL0     O29287   0.144   6.103  12.082  0.1161 -0.2678 -0.4595
  213MOL0     C29288   0.079   6.196  12.171  0.0163  0.8954 -0.1294
  213MOL0     C29289  -0.053   6.165  12.187  0.2025 -0.1699 -0.1148
  213MOL0     C29290  -0.120   6.266  12.261 -0.5566 -0.3573  0.1516
  213MOL0     C29291  -0.057   6.378  12.321 -0.0086  0.0127 -0.3210
  213MOL0     O29292  -0.126   6.479  12.387 -0.3888  0.1024 -0.4250
  213MOL0     C29293  -0.269   6.507  12.364 -0.5489  0.7184 -0.7374
  213MOL0     C29294  -0.295   6.562  12.231  0.7555  0.9269 -0.8832
  213MOL0     C29295  -0.198   6.667  12.187 -0.0885  0.5995 -0.1630
  213MOL0     C29296  -0.249   6.777  12.083  0.0114 -0.5140 -1.4963
  213MOL0     C29297  -0.139   6.875  12.055 -0.2133  0.2663  0.3662
  213MOL0     C29298  -0.180   6.956  11.930 -0.5354  0.0300 -0.6911
  213MOL0     C29299  -0.071   7.051  11.887  0.8309  0.1260 -0.2447
  213MOL0     C29300  -0.111   7.133  11.762 -0.3651  0.6308  0.6225
  213MOL0    Cl29301  -0.136   7.011  11.626 -0.0744 -0.3429  0.1493
  213MOL0     C29302   0.080   6.399  12.301  0.6109 -1.4673  0.0621
  213MOL0     C29303   0.141   6.313  12.213 -0.0845  0.7081 -0.5056
  213MOL0     O29304   0.209   6.272  11.938 -0.1082  0.6331 -0.0074
  213MOL0     C29305   0.327   5.951  11.943  0.0918 -0.0552  0.0934
  213MOL0     C29306   0.409   5.863  11.869 -0.4348 -1.0550 -0.5591
  213MOL0     N29307   0.747   6.105  11.191  0.4871  0.5598 -0.0179
  213MOL0     N29308   0.774   6.221  11.147  0.5577 -0.3276 -0.2774
  213MOL0     C29309   1.954   5.876  10.865 -0.6704  0.0869  0.5221
  213MOL0     C29310   2.067   5.799  10.874 -0.3312 -0.0564 -0.3397
  213MOL0     C29311   2.431   5.587  11.064  0.6480 -0.2656  0.8076
  213MOL0     C29312   2.464   5.460  11.121  0.2879 -0.4826  0.5008
  213MOL0     C29313   2.579   5.394  11.077 -0.2682  0.3440 -0.4408
  213MOL0     C29314   2.654   5.448  10.977 -0.5211 -0.6320  0.9829
  213MOL0     O29315   2.752   5.372  10.904  0.0324  0.2316 -0.7248
  213MOL0     C29316   2.753   5.226  10.900  0.5158 -0.6245  0.0973
  213MOL0     C29317   2.873   5.171  10.976  0.1646 -0.5120  0.3300
  213MOL0     C29318   2.898   5.032  10.920 -0.1136 -0.4943  0.1809
  213MOL0     C29319   3.008   4.963  10.997  0.6872 -0.4634 -0.2195
  213MOL0     C29320   3.004   4.820  10.958 -0.1475  0.6383 -0.5207
  213MOL0     C29321   2.996   4.701  10.944  0.6704  0.1033 -0.6204
  213MOL0     C29322   2.631   5.579  10.926  0.7180  0.1694  0.2955
  213MOL0     C29323   2.519   5.647  10.965  0.1401  0.4042 -0.1829
  213MOL0     C29324   2.485   5.772  10.902 -0.3935  0.0859 -0.1429
  213MOL0     H29325   2.030   5.687  11.191 -0.1817  1.9815 -0.0647
  213MOL0     H29326   1.827   5.820  11.174  0.1626 -2.9744  0.4870
  213MOL0     H29327   1.670   5.848  10.837 -2.2217 -0.9293  0.7722
  213MOL0     H29328   1.649   6.007  10.773 -0.4085 -0.1113 -0.1311
  213MOL0     H29329   1.457   5.885  10.917  1.7607 -0.4031 -0.9144
  213MOL0     H29330   1.538   5.971  11.047  1.1658  0.8228 -0.3754
  213MOL0     H29331   1.504   6.180  10.925  0.9070 -0.1801  1.3714
  213MOL0     H29332   1.429   6.095  10.784 -0.7148 -0.5403 -0.7787
  213MOL0     H29333   1.233   6.042  10.930 -0.3128  1.8497 -0.8388
  213MOL0     H29334   1.328   6.101  11.078 -1.7288  1.4578  0.5438
  213MOL0     H29335   1.248   6.257  10.837 -0.3655  2.8640  0.5702
  213MOL0     H29336   1.318   6.331  10.984 -1.0486  1.1732  0.1765
  213MOL0     H29337   1.038   6.332  10.944  1.2639  2.1447  0.9192
  213MOL0     H29338   1.055   6.179  11.015  0.2675 -0.1938 -1.2700
  213MOL0     H29339   1.163   6.418  11.156  1.0026 -1.4863  1.1530
  213MOL0     H29340   1.149   6.251  11.192  1.4452 -0.7826 -2.7699
  213MOL0     H29341   0.966   6.434  11.278  0.2202 -2.0343  0.8056
  213MOL0     H29342   0.899   6.441  11.116  0.5499  0.6966  1.2437
  213MOL0     H29343   0.982   6.171  11.407  0.6922  0.6063  0.0162
  213MOL0     H29344   0.853   5.948  11.466 -0.4948  1.1828  0.0349
  213MOL0     H29345   0.810   5.861  11.305 -1.2251  0.4622 -1.3076
  213MOL0     H29346   0.642   5.987  11.515 -0.4224  0.0620 -0.1928
  213MOL0     H29347   0.583   5.961  11.346  0.2634  1.9462  1.1987
  213MOL0     H29348   0.634   5.729  11.347  1.1409  0.6262 -0.0572
  213MOL0     H29349   0.705   5.726  11.508 -0.1690 -0.0268  0.5881
  213MOL0     H29350   0.408   5.810  11.468  0.7752 -0.7678 -0.4796
  213MOL0     H29351   0.476   5.658  11.503  1.2706 -0.0252 -2.2049
  213MOL0     H29352   0.324   5.970  11.562  0.5649 -0.1926  0.6878
  213MOL0     H29353   0.116   6.103  11.574 -0.3850  0.0511 -0.7995
  213MOL0     H29354   0.218   6.249  11.602 -0.5701  0.2373 -2.2196
  213MOL0     H29355   0.092   6.227  11.696 -0.4938 -0.9713  0.0812
  213MOL0     H29356  -0.097   6.082  12.133  0.8349  1.1307 -2.8087
  213MOL0     H29357  -0.227   6.255  12.275 -0.4011  0.4916  2.5551
  213MOL0     H29358  -0.326   6.415  12.382  3.8641 -2.5608 -1.6880
  213MOL0     H29359  -0.290   6.581  12.442 -1.6169  1.0689 -1.3337
  213MOL0     H29360  -0.294   6.474  12.165  1.9694  0.7257 -0.6198
  213MOL0     H29361  -0.401   6.589  12.224  0.4063 -0.4122 -1.0508
  213MOL0     H29362  -0.112   6.610  12.149  0.7045  1.8564 -0.2876
  213MOL0     H29363  -0.166   6.709  12.282  1.4050 -2.5031  0.8604
  213MOL0     H29364  -0.328   6.828  12.139  0.9636 -0.7414  0.0809
  213MOL0     H29365  -0.283   6.741  11.985 -1.5877 -1.6014 -0.5940
  213MOL0     H29366  -0.106   6.923  12.148 -0.3943 -0.9662  1.1026
  213MOL0     H29367  -0.054   6.816  12.019  3.1315  5.1063 -0.6110
  213MOL0     H29368  -0.271   7.008  11.960 -1.2142 -0.9172 -1.0381
  213MOL0     H29369  -0.223   6.891  11.852 -2.0016 -0.8896  0.8146
  213MOL0     H29370   0.022   7.000  11.862  0.6829 -0.8453  1.0949
  213MOL0     H29371  -0.063   7.124  11.968  1.4776  0.8458 -0.9425
  213MOL0     H29372  -0.031   7.205  11.743 -3.3535  3.7797 -1.2785
  213MOL0     H29373  -0.202   7.190  11.784 -1.6233 -1.2469  0.5479
  213MOL0     H29374   0.117   6.492  12.344 -1.0438 -1.9604  2.8270
  213MOL0     H29375   0.245   6.325  12.186 -0.4594 -0.3582 -2.6555
  213MOL0     H29376   0.333   5.955  12.051 -0.5808  0.9600  0.1030
  213MOL0     H29377   0.478   5.793  11.914 -2.7981 -3.0822  0.1067
  213MOL0     H29378   1.940   5.909  10.762 -1.6140 -0.9809  0.2800
  213MOL0     H29379   2.131   5.799  10.786 -2.6799  4.1251 -2.3391
  213MOL0     H29380   2.397   5.405  11.187  0.7995  0.6901  2.0709
  213MOL0     H29381   2.607   5.296  11.116 -0.8188  0.5739  0.5619
  213MOL0     H29382   2.661   5.176  10.930 -0.3256 -0.7399 -2.4211
  213MOL0     H29383   2.762   5.195  10.795 -0.5616  1.4018 -0.6405
  213MOL0     H29384   2.851   5.173  11.083 -0.9455  2.4915  0.1277
  213MOL0     H29385   2.968   5.222  10.960 -0.9672  1.1838 -1.4617
  213MOL0     H29386   2.805   4.975  10.936  0.0257 -1.4063 -1.9159
  213MOL0     H29387   2.926   5.046  10.815 -1.5724 -0.4037 -0.2173
  213MOL0     H29388   3.009   4.974  11.106 -0.6613  3.8789 -0.4661
  213MOL0     H29389   3.106   4.988  10.956 -0.2362  0.4968 -1.9095
  213MOL0     H29390   2.995   4.594  10.949  2.5480  0.0314 -1.2668
  213MOL0     H29391   2.700   5.623  10.855 -0.4479 -2.0482 -2.3907
  213MOL0     H29392   2.392   5.756  10.845  0.8745  0.5298 -2.4735
  213MOL0     H29393   2.481   5.848  10.981  1.2248 -0.4431  0.4738
  213MOL0     H29394   2.564   5.809  10.836 -1.3403  3.1842  0.2858
  214MOL0     O29395   4.061   2.153   8.289  0.5425  0.0448  0.1026
  214MOL0     C29396   4.100   2.239   8.366 -0.5941 -0.5358  0.0553
  214MOL0     O29397   4.228   2.302   8.366 -0.2865 -0.0120 -0.6047
  214MOL0     C29398   4.288   2.288   8.243 -0.3200 -0.1485 -0.3195
  214MOL0     C29399   4.432   2.280   8.247  0.2882  0.4356 -0.0718
  214MOL0     C29400   4.500   2.299   8.134 -0.1922 -0.0401  0.4528
  214MOL0     C29401   4.435   2.306   8.009 -0.7060  0.1557 -1.3450
  214MOL0     O29402   4.524   2.331   7.902  0.4342 -0.0810  0.2411
  214MOL0     C29403   4.477   2.294   7.774  0.2065  0.2294  0.3969
  214MOL0     C29404   4.452   2.146   7.740  1.0300  1.3752 -0.1285
  214MOL0     C29405   4.429   2.124   7.591  0.8797 -0.3721  0.3263
  214MOL0     C29406   4.421   1.975   7.546  1.1761  1.2897  0.2977
  214MOL0     C29407   4.310   1.881   7.588  0.0826 -0.6193  0.0045
  214MOL0     C29408   4.285   1.777   7.477 -0.3846 -0.2745 -0.5554
  214MOL0     C29409   4.187   1.670   7.538  0.2688  0.1532  0.3893
  214MOL0     C29410   4.200   1.547   7.448 -0.7839 -0.5383 -0.1018
  214MOL0     N29411   4.148   1.573   7.317  1.3567  0.0443 -0.8770
  214MOL0     C29412   4.194   1.502   7.213  0.9844  0.2774 -0.1856
  214MOL0     C29413   4.080   1.478   7.141  0.5284  1.0681  1.2342
  214MOL0     C29414   4.069   1.401   7.000 -0.1759 -0.5595 -0.6754
  214MOL0     C29415   4.000   1.492   6.902 -0.3437  0.8788  0.0430
  214MOL0     C29416   3.969   1.422   6.773  0.0359  0.6895 -0.3138
  214MOL0     C29417   3.888   1.513   6.678 -0.0893 -0.4422  1.1934
  214MOL0     O29418   3.951   1.648   6.671 -0.2350  0.0326 -0.1567
  214MOL0     C29419   3.892   1.746   6.603  0.0664 -0.3438 -0.9375
  214MOL0     C29420   3.955   1.875   6.603  0.1390  0.1990 -0.1294
  214MOL0     C29421   3.889   1.976   6.529 -0.9714  0.5972 -0.0123
  214MOL0     C29422   3.945   2.110   6.541  0.4918  0.1669  0.3016
  214MOL0     C29423   3.773   1.953   6.456  0.3418  0.2621  0.0655
  214MOL0     C29424   3.698   2.045   6.369  0.0113  0.3568 -0.6269
  214MOL0     O29425   3.601   2.002   6.286  0.3116 -0.7988 -0.2061
  214MOL0     C29426   3.558   2.093   6.196 -0.0422  0.8900  0.3973
  214MOL0     C29427   3.419   2.120   6.209  0.1724  0.4788  0.1333
  214MOL0     C29428   3.366   2.210   6.119 -0.0845 -0.1602  0.3244
  214MOL0     C29429   3.445   2.253   6.008 -0.3203  0.7569  0.8949
  214MOL0     O29430   3.382   2.315   5.899 -0.5781  0.0573  0.4363
  214MOL0     C29431   3.369   2.239   5.783  0.3519  0.8561 -0.3654
  214MOL0     C29432   3.258   2.291   5.693 -0.2173 -0.1453  0.7334
  214MOL0     C29433   3.288   2.408   5.607  0.8182 -0.3289 -0.0925
  214MOL0     C29434   3.184   2.420   5.489  1.0942 -0.5735 -1.1241
  214MOL0     C29435   3.038   2.429   5.541 -0.3116 -0.0874  0.7781
  214MOL0     C29436   2.933   2.436   5.427 -0.3209 -0.6182  0.8126
  214MOL0     C29437   2.938   2.307   5.351 -1.4958 -0.6044  0.5299
  214MOL0     C29438   2.824   2.290   5.242 -0.1827  0.7249 -0.0972
  214MOL0    Cl29439   2.796   2.456   5.147 -0.2918 -0.2527 -0.1630
  214MOL0     C29440   3.582   2.216   5.999  0.6861 -0.4988 -0.3167
  214MOL0     C29441   3.640   2.145   6.100 -0.0051  1.0612  0.1907
  214MOL0     O29442   3.721   2.164   6.383  0.1385  0.5043 -0.2451
  214MOL0     C29443   3.721   1.825   6.455  0.0199 -0.5113  0.4145
  214MOL0     C29444   3.773   1.721   6.530  0.3523 -0.2526 -0.3632
  214MOL0     N29445   3.979   1.529   7.209 -0.6503  0.0318 -0.3203
  214MOL0     N29446   4.021   1.602   7.300  0.3213  0.1036  0.3873
  214MOL0     C29447   4.293   2.287   7.999  0.3001 -0.1868  0.8593
  214MOL0     C29448   4.224   2.304   8.115  0.0073 -0.7838 -0.1781
  214MOL0     C29449   4.028   2.232   8.492  0.4542  0.9527  0.9436
  214MOL0     C29450   3.982   2.106   8.538 -0.4426 -0.3573 -1.2130
  214MOL0     C29451   3.910   2.082   8.653  0.8742  0.0672  0.2446
  214MOL0     C29452   3.865   2.201   8.719 -0.7501 -0.2966 -0.2896
  214MOL0     O29453   3.804   2.193   8.843  0.2179  0.1345 -0.5787
  214MOL0     C29454   3.726   2.082   8.886  0.4908  0.2399  1.5115
  214MOL0     C29455   3.606   2.066   8.790  0.7824 -0.1106  0.1138
  214MOL0     C29456   3.535   1.932   8.824  0.1592  0.3638 -0.0861
  214MOL0     C29457   3.477   1.933   8.965 -0.2432 -0.6378  0.3303
  214MOL0     C29458   3.418   1.802   9.000 -0.5602  0.2716 -1.0768
  214MOL0     C29459   3.374   1.697   9.049 -0.2419 -0.1598 -0.1884
  214MOL0     C29460   3.914   2.329   8.677 -0.2285 -0.1229 -0.6216
  214MOL0     C29461   3.992   2.349   8.563 -1.1813  0.0218  0.0324
  214MOL0     C29462   4.039   2.488   8.510 -0.4555 -0.2798 -0.3544
  214MOL0     H29463   4.479   2.279   8.344 -2.7848  5.4631  1.8957
  214MOL0     H29464   4.606   2.278   8.124 -0.7994 -2.7456 -1.1054
  214MOL0     H29465   4.542   2.338   7.698 -0.3457 -0.4001 -0.4578
  214MOL0     H29466   4.382   2.346   7.760  0.1856 -0.1545 -1.0076
  214MOL0     H29467   4.536   2.083   7.774  1.0671  2.3981  1.8327
  214MOL0     H29468   4.361   2.109   7.787 -2.1338  6.2415 -1.6676
  214MOL0     H29469   4.340   2.178   7.556  2.0324  0.8136 -0.8990
  214MOL0     H29470   4.506   2.166   7.525 -0.8130  1.4781 -0.5703
  214MOL0     H29471   4.405   1.992   7.439  1.2703  2.4111  0.4550
  214MOL0     H29472   4.523   1.935   7.553  2.8508  5.1651  0.7874
  214MOL0     H29473   4.226   1.947   7.612 -0.6904 -2.1408  1.7752
  214MOL0     H29474   4.325   1.829   7.684 -3.7769 -3.2307 -0.5881
  214MOL0     H29475   4.235   1.827   7.395 -2.0742 -1.6722 -0.4296
  214MOL0     H29476   4.383   1.740   7.446  0.9396 -1.4744  4.1376
  214MOL0     H29477   4.085   1.710   7.536  0.1054 -0.2767 -1.3207
  214MOL0     H29478   4.211   1.627   7.636 -2.0541 -1.0373  0.4918
  214MOL0     H29479   4.308   1.529   7.439 -0.5343  1.3605 -1.5535
  214MOL0     H29480   4.140   1.468   7.493 -1.3719 -0.1174 -0.1462
  214MOL0     H29481   4.293   1.461   7.194 -0.4966 -4.0242  0.2905
  214MOL0     H29482   4.025   1.300   7.004 -3.0497  0.4952 -2.4654
  214MOL0     H29483   4.169   1.384   6.957 -0.7375 -1.1066 -1.8213
  214MOL0     H29484   3.916   1.547   6.946 -0.7977 -0.0104  0.3174
  214MOL0     H29485   4.080   1.560   6.871 -0.2232 -0.6888 -3.5781
  214MOL0     H29486   4.064   1.394   6.726 -0.0234  1.8015 -1.1482
  214MOL0     H29487   3.908   1.337   6.803 -1.1325  1.9595  1.1284
  214MOL0     H29488   3.893   1.467   6.579  1.2058  2.3822 -0.1925
  214MOL0     H29489   3.786   1.519   6.716 -0.2957 -1.6509  0.8752
  214MOL0     H29490   4.051   1.889   6.653 -0.0260 -0.9336  0.5294
  214MOL0     H29491   3.892   2.179   6.607  2.2145  3.6915 -1.7366
  214MOL0     H29492   3.958   2.159   6.444  1.4702  1.4098  1.0199
  214MOL0     H29493   4.044   2.111   6.589 -0.5254  1.3738  2.5602
  214MOL0     H29494   3.363   2.084   6.295  0.8199  0.3213  0.4959
  214MOL0     H29495   3.259   2.226   6.107 -0.0075 -0.4699 -0.9661
  214MOL0     H29496   3.452   2.258   5.715  0.8770 -0.6819 -0.2051
  214MOL0     H29497   3.354   2.133   5.807 -0.1260  1.3144  1.5833
  214MOL0     H29498   3.225   2.208   5.630 -0.8332 -0.5479  1.5662
  214MOL0     H29499   3.180   2.322   5.764  0.9768 -0.7448  2.3703
  214MOL0     H29500   3.389   2.403   5.566  1.4229 -1.6188  1.4368
  214MOL0     H29501   3.279   2.492   5.677 -1.7985  1.1083 -1.9698
  214MOL0     H29502   3.201   2.332   5.426 -1.0205 -0.4826 -1.8845
  214MOL0     H29503   3.195   2.506   5.423 -2.4055  0.7961 -0.1205
  214MOL0     H29504   3.021   2.340   5.602 -0.8904 -1.1003 -0.7727
  214MOL0     H29505   3.033   2.519   5.602 -0.1821  0.0769  0.5456
  214MOL0     H29506   2.961   2.524   5.368 -2.5607  0.1265  0.7841
  214MOL0     H29507   2.832   2.453   5.466  0.3020  0.8168  1.8958
  214MOL0     H29508   2.933   2.233   5.432 -1.3942  1.2910  2.3565
  214MOL0     H29509   3.033   2.292   5.299 -0.8041  2.4503  0.7288
  214MOL0     H29510   2.737   2.252   5.296  0.1938 -2.4951 -1.4786
  214MOL0     H29511   2.842   2.209   5.170 -4.8928  0.8587 -1.7488
  214MOL0     H29512   3.637   2.260   5.917 -2.8318 -1.1359 -3.2795
  214MOL0     H29513   3.742   2.107   6.102 -1.1288 -2.5015  3.9492
  214MOL0     H29514   3.624   1.808   6.409 -1.2023  1.5172  2.0115
  214MOL0     H29515   3.743   1.617   6.517  1.0718 -0.6602  1.1278
  214MOL0     H29516   4.238   2.311   7.909 -2.1584 -0.4516  2.1825
  214MOL0     H29517   4.120   2.329   8.099 -1.3633 -3.0342  3.7040
  214MOL0     H29518   4.001   2.018   8.477 -2.3590 -1.3320 -0.4688
  214MOL0     H29519   3.890   1.983   8.692  0.0443 -0.8567 -2.2836
  214MOL0     H29520   3.796   1.998   8.880  2.3331  1.7919 -2.6213
  214MOL0     H29521   3.690   2.101   8.987  1.6300  0.8454  1.8238
  214MOL0     H29522   3.654   2.061   8.691  2.6523 -0.5585  0.9963
  214MOL0     H29523   3.539   2.152   8.784  3.4898  2.0911 -0.5024
  214MOL0     H29524   3.459   1.937   8.745 -0.4058  2.4130  0.5287
  214MOL0     H29525   3.602   1.846   8.820  1.1385  1.1003  0.3101
  214MOL0     H29526   3.403   2.011   8.986 -0.0508 -0.3736  0.0330
  214MOL0     H29527   3.559   1.947   9.036 -1.9525  0.2348  2.2634
  214MOL0     H29528   3.352   1.616   9.115  1.4529  1.0265  1.9806
  214MOL0     H29529   3.889   2.410   8.745 -0.1911 -0.2519 -0.4534
  214MOL0     H29530   4.125   2.518   8.571 -0.9339  1.0636 -0.3174
  214MOL0     H29531   4.073   2.488   8.406  0.4756 -0.7095 -0.0598
  214MOL0     H29532   3.963   2.562   8.536  1.2001  0.6192  2.3716
  215MOL0     O29533   9.204   8.679   3.450  0.6104  0.3987  0.0529
  215MOL0     C29534   9.201   8.756   3.357  0.3598 -1.0142  0.0321
  215MOL0     O29535   9.223   8.731   3.232 -0.3101 -0.5086  0.0032
  215MOL0     C29536   9.224   8.607   3.176  0.4875  0.3942 -1.0504
  215MOL0     C29537   9.335   8.561   3.114  0.5015  0.0874 -0.8074
  215MOL0     C29538   9.341   8.438   3.057 -0.6773  0.1993 -0.2902
  215MOL0     C29539   9.223   8.358   3.052  0.4858  1.2396  0.3037
  215MOL0     O29540   9.227   8.233   2.997 -0.7119 -0.1504 -0.2933
  215MOL0     C29541   9.122   8.179   2.930  0.1126  0.0348 -0.5018
  215MOL0     C29542   9.146   8.033   2.874  1.0491 -0.7634 -0.4518
  215MOL0     C29543   9.026   7.948   2.851  0.2773 -0.1402  0.6750
  215MOL0     C29544   8.929   7.988   2.743  0.1620 -0.3087  0.9750
  215MOL0     C29545   8.815   7.895   2.727  0.4492 -0.3997 -0.5725
  215MOL0     C29546   8.695   7.938   2.645 -0.5327  0.0345  0.3808
  215MOL0     C29547   8.727   7.945   2.488  0.2521  0.2346 -0.0693
  215MOL0     C29548   8.606   7.967   2.406 -0.5870  0.1284  0.3374
  215MOL0     N29549   8.505   7.861   2.421  0.2555  0.1021  0.0239
  215MOL0     C29550   8.395   7.864   2.506 -0.0309 -0.8103 -0.3404
  215MOL0     C29551   8.330   7.744   2.483 -0.6456 -0.6054  0.5310
  215MOL0     C29552   8.229   7.668   2.554  0.1661  0.0189 -0.4398
  215MOL0     C29553   8.092   7.697   2.498 -0.7135 -0.0379 -0.3510
  215MOL0     C29554   7.991   7.580   2.514  0.1650 -0.5029 -0.8387
  215MOL0     C29555   7.964   7.518   2.658  0.3083 -0.0528 -0.2385
  215MOL0     O29556   7.934   7.373   2.662  0.6013 -0.2882 -0.7015
  215MOL0     C29557   7.812   7.325   2.628  1.0855 -1.3017  0.1098
  215MOL0     C29558   7.802   7.195   2.591 -0.0262  0.5209  0.3145
  215MOL0     C29559   7.695   7.143   2.526 -0.3774  0.5284  0.3639
  215MOL0     C29560   7.715   7.000   2.496 -0.0052  0.6213  0.4124
  215MOL0     C29561   7.581   7.225   2.498  0.9233  0.6159  0.2477
  215MOL0     C29562   7.458   7.178   2.432 -0.2350 -0.0893 -1.0024
  215MOL0     O29563   7.477   7.054   2.380  0.5410  0.2254 -0.5224
  215MOL0     C29564   7.456   7.026   2.247  0.6486  0.1197 -0.9972
  215MOL0     C29565   7.411   7.124   2.153 -0.7814 -0.4823  0.6179
  215MOL0     C29566   7.384   7.081   2.027 -0.6352 -0.0888  1.0255
  215MOL0     C29567   7.398   6.955   1.974 -0.2120  0.1303 -0.1335
  215MOL0     O29568   7.371   6.960   1.843 -0.4851  0.3461 -0.6857
  215MOL0     C29569   7.389   6.831   1.772  0.1863  0.1780  0.5294
  215MOL0     C29570   7.391   6.861   1.630 -0.0846  0.2154  0.5024
  215MOL0     C29571   7.364   6.742   1.534 -0.5722  0.1575 -1.4361
  215MOL0     C29572   7.354   6.806   1.396 -0.8780 -0.3918 -0.8560
  215MOL0     C29573   7.325   6.702   1.282  0.5735 -0.1290  0.7323
  215MOL0     C29574   7.175   6.655   1.274 -0.1625  0.8387  0.6725
  215MOL0     C29575   7.146   6.557   1.153 -0.7836  1.1627 -0.4063
  215MOL0     C29576   6.997   6.552   1.131 -0.0029 -0.7021  0.8376
  215MOL0    Cl29577   6.929   6.460   1.267  0.1565  0.1619  0.0047
  215MOL0     C29578   7.456   6.863   2.068 -0.7952 -0.3664  0.2780
  215MOL0     C29579   7.487   6.901   2.200  0.1594  0.1614  0.5985
  215MOL0     O29580   7.355   7.248   2.409 -0.2766 -2.1805  0.0041
  215MOL0     C29581   7.592   7.363   2.528  0.1097  0.5428 -0.7388
  215MOL0     C29582   7.699   7.410   2.603 -0.1272 -0.4573  0.0710
  215MOL0     N29583   8.408   7.683   2.380 -0.2603  0.2111 -0.6667
  215MOL0     N29584   8.506   7.747   2.344 -0.1650  0.1517 -0.3985
  215MOL0     C29585   9.106   8.407   3.114  0.4413  0.5074  0.2873
  215MOL0     C29586   9.117   8.527   3.177  1.0341 -0.4367 -0.7742
  215MOL0     C29587   9.194   8.908   3.383  0.8408 -0.2228  0.5061
  215MOL0     C29588   9.253   8.994   3.284 -0.5291 -0.0014 -0.1325
  215MOL0     C29589   9.249   9.135   3.316 -0.5512  0.0017  0.0269
  215MOL0     C29590   9.187   9.188   3.434 -0.3264  0.4697  0.5618
  215MOL0     O29591   9.187   9.328   3.439 -0.5102  0.0045  0.0369
  215MOL0     C29592   9.116   9.399   3.535 -0.1795 -0.2116 -0.8612
  215MOL0     C29593   9.165   9.538   3.551 -0.9936 -1.4031 -0.0998
  215MOL0     C29594   9.315   9.572   3.528 -0.1288  0.9206 -0.2988
  215MOL0     C29595   9.357   9.705   3.585 -0.2352  0.0328 -0.7858
  215MOL0     C29596   9.329   9.724   3.730 -0.3032 -0.3449 -0.9110
  215MOL0     C29597   9.302   9.749   3.849  0.0196 -0.0042  1.0205
  215MOL0     C29598   9.123   9.096   3.516  0.2318 -0.7036  0.5403
  215MOL0     C29599   9.116   8.962   3.490 -0.0795  0.5254  0.0588
  215MOL0     C29600   9.033   8.881   3.586  0.4241 -0.0332 -0.3903
  215MOL0     H29601   9.413   8.636   3.115  0.0928  0.7413  3.8743
  215MOL0     H29602   9.428   8.390   3.013  0.2160 -0.2989  1.9007
  215MOL0     H29603   9.102   8.246   2.846 -1.7082 -0.7251 -0.7261
  215MOL0     H29604   9.030   8.173   2.988  0.3828 -0.3859 -0.1171
  215MOL0     H29605   9.212   8.046   2.787 -1.5396  0.5069 -2.3854
  215MOL0     H29606   9.196   7.983   2.957 -0.7656  1.1208  1.9221
  215MOL0     H29607   9.061   7.851   2.816 -2.1271  0.1690 -3.1256
  215MOL0     H29608   8.970   7.945   2.945 -3.6249  0.6481 -1.4055
  215MOL0     H29609   8.892   8.087   2.769  1.0760 -0.4825  3.1678
  215MOL0     H29610   8.974   7.994   2.643 -2.3457 -3.1152 -0.4786
  215MOL0     H29611   8.784   7.868   2.828 -2.2686 -0.3095 -1.3009
  215MOL0     H29612   8.856   7.803   2.682  0.8119  0.9878 -3.3408
  215MOL0     H29613   8.618   7.860   2.649  0.3017 -1.1578 -3.1381
  215MOL0     H29614   8.648   8.030   2.681 -1.3021 -1.7687  4.6644
  215MOL0     H29615   8.776   7.850   2.463 -1.1579 -0.0557 -1.9912
  215MOL0     H29616   8.795   8.025   2.455 -1.2692  1.7724  0.4194
  215MOL0     H29617   8.560   8.064   2.427  0.9885  1.3556 -1.5306
  215MOL0     H29618   8.639   7.954   2.302  0.2130 -3.6946  0.9148
  215MOL0     H29619   8.362   7.944   2.571  2.2984  0.0920 -0.1589
  215MOL0     H29620   8.223   7.690   2.661 -1.0925 -1.5333 -0.1516
  215MOL0     H29621   8.266   7.566   2.541  0.5716  0.4282 -2.9945
  215MOL0     H29622   8.051   7.782   2.552 -0.8093 -0.8958  0.9782
  215MOL0     H29623   8.098   7.737   2.396 -2.8008  1.5117  0.0751
  215MOL0     H29624   7.896   7.608   2.467  0.2565 -1.7057 -1.8128
  215MOL0     H29625   8.027   7.486   2.471  1.7653 -0.5559  0.5132
  215MOL0     H29626   8.047   7.555   2.720  2.0566 -1.5375 -1.5716
  215MOL0     H29627   7.875   7.560   2.705  2.4093  2.3940  1.9481
  215MOL0     H29628   7.895   7.148   2.621 -1.0886  0.3493  3.7410
  215MOL0     H29629   7.651   6.919   2.533 -0.5119 -0.2713 -2.2113
  215MOL0     H29630   7.807   6.956   2.535 -0.8892 -1.5540  0.1971
  215MOL0     H29631   7.720   6.993   2.387  0.2535 -1.0015  0.5055
  215MOL0     H29632   7.391   7.228   2.179  0.1222 -0.2201  0.3179
  215MOL0     H29633   7.342   7.155   1.960  2.2219  2.1469  1.5176
  215MOL0     H29634   7.478   6.771   1.790 -0.0374 -1.2049 -2.4107
  215MOL0     H29635   7.294   6.777   1.781 -0.1225  0.7131  0.5340
  215MOL0     H29636   7.328   6.949   1.615  1.0421  1.4562  2.6158
  215MOL0     H29637   7.493   6.895   1.609 -0.0167  0.7867  1.6984
  215MOL0     H29638   7.267   6.704   1.568 -0.5213 -0.4103 -1.9038
  215MOL0     H29639   7.440   6.664   1.544 -2.2809 -1.4221 -0.0001
  215MOL0     H29640   7.451   6.851   1.371 -0.8159 -1.4751 -2.7312
  215MOL0     H29641   7.278   6.884   1.390 -1.3445 -0.3014  3.1709
  215MOL0     H29642   7.337   6.754   1.186 -0.8301 -1.4935 -0.2227
  215MOL0     H29643   7.397   6.619   1.280 -2.5787 -3.1156  0.9160
  215MOL0     H29644   7.104   6.738   1.281 -0.2078  0.6527  3.1541
  215MOL0     H29645   7.145   6.585   1.352 -1.9585 -0.7133 -1.2660
  215MOL0     H29646   7.191   6.457   1.154  1.2075  2.0116  0.3753
  215MOL0     H29647   7.178   6.610   1.063 -1.6874  0.7215 -0.9988
  215MOL0     H29648   6.972   6.501   1.037  1.5881 -1.4001  0.7649
  215MOL0     H29649   6.945   6.647   1.115  2.7715  0.8330  0.3837
  215MOL0     H29650   7.502   6.772   2.031  1.9068  1.0558 -0.1406
  215MOL0     H29651   7.528   6.834   2.274 -1.5313  1.4895  2.8776
  215MOL0     H29652   7.518   7.440   2.513 -0.9593 -0.0056  1.2846
  215MOL0     H29653   7.703   7.516   2.625  2.4159 -0.3181 -0.7418
  215MOL0     H29654   9.020   8.340   3.116  1.6363 -1.2316 -2.2500
  215MOL0     H29655   9.029   8.557   3.233  1.2784 -1.5396  0.2456
  215MOL0     H29656   9.328   8.965   3.211 -1.8655  0.9025 -1.9162
  215MOL0     H29657   9.311   9.201   3.256 -2.9104  2.7186  0.3485
  215MOL0     H29658   9.009   9.395   3.514 -0.2967 -0.6668 -0.2221
  215MOL0     H29659   9.122   9.343   3.629 -1.7642  0.5611 -0.2724
  215MOL0     H29660   9.130   9.577   3.647  1.1450 -0.0136  0.1899
  215MOL0     H29661   9.116   9.597   3.473  1.1987  2.2424  0.9942
  215MOL0     H29662   9.374   9.485   3.561 -1.1890 -0.8010 -2.7083
  215MOL0     H29663   9.330   9.586   3.421 -0.0209  0.5235 -0.3400
  215MOL0     H29664   9.296   9.780   3.534 -0.2683 -1.6433 -3.4178
  215MOL0     H29665   9.465   9.720   3.576  1.0909 -4.4583  3.2688
  215MOL0     H29666   9.300   9.779   3.952 -0.1114  2.3517  0.3892
  215MOL0     H29667   9.083   9.139   3.608  1.2986  0.5914  0.4328
  215MOL0     H29668   8.971   8.944   3.650 -0.3302  0.8556 -1.9423
  215MOL0     H29669   8.964   8.814   3.533 -0.5552  1.0727 -0.5601
  215MOL0     H29670   9.102   8.828   3.652  1.1295  3.8174  2.3181
  216MOL0     O29671   3.142   9.482   0.178 -0.7822  0.1840  0.4299
  216MOL0     C29672   3.234   9.559   0.171 -0.3341 -0.5501 -0.4313
  216MOL0     O29673   3.232   9.674   0.111  0.8469  0.2342  0.1842
  216MOL0     C29674   3.128   9.718   0.031 -0.4298  0.5842  0.4309
  216MOL0     C29675   3.158   9.847  -0.012  0.3534  0.5357  0.6308
  216MOL0     C29676   3.074   9.895  -0.110  0.1445 -0.0014 -0.8434
  216MOL0     C29677   2.964   9.822  -0.166 -0.2568  0.4724 -0.5793
  216MOL0     O29678   2.883   9.872  -0.264 -0.5142  1.1295  0.2025
  216MOL0     C29679   2.930   9.959  -0.362  0.3584 -1.1030 -0.0703
  216MOL0     C29680   2.828   9.949  -0.478 -0.2426  0.0118 -0.6724
  216MOL0     C29681   2.866  10.037  -0.593 -0.2369 -0.5742 -0.8434
  216MOL0     C29682   2.780  10.025  -0.710  0.6250  0.4027 -1.1820
  216MOL0     C29683   2.634  10.068  -0.686  0.1309 -0.5593 -0.7538
  216MOL0     C29684   2.547  10.068  -0.813 -0.2902  0.8437 -0.0089
  216MOL0     C29685   2.605  10.142  -0.943  0.4379  1.0715 -0.2721
  216MOL0     C29686   2.646  10.284  -0.912  1.3204 -0.8998  0.3506
  216MOL0     N29687   2.688  10.339  -1.044  0.0006 -0.3736 -0.7725
  216MOL0     C29688   2.632  10.439  -1.110  0.4972  0.5677  0.8751
  216MOL0     C29689   2.717  10.479  -1.201 -0.3232 -1.0536 -1.0960
  216MOL0     C29690   2.705  10.607  -1.284  0.2028 -0.4511  0.9322
  216MOL0     C29691   2.835  10.696  -1.290 -0.7427  1.2216  0.2986
  216MOL0     C29692   2.810  10.830  -1.359  0.9419 -1.1660 -1.0257
  216MOL0     C29693   2.773  10.819  -1.507  0.3746  1.1433  0.6991
  216MOL0     O29694   2.747  10.947  -1.573 -0.1112 -0.2668  0.5635
  216MOL0     C29695   2.852  11.031  -1.611 -0.6988 -0.6234  0.3694
  216MOL0     C29696   2.828  11.155  -1.662  0.1758  0.2840  0.1558
  216MOL0     C29697   2.926  11.246  -1.706  0.3188  0.1201 -0.4481
  216MOL0     C29698   2.872  11.376  -1.753 -0.2022  0.5033 -0.0933
  216MOL0     C29699   3.062  11.201  -1.690  0.6248 -0.1281 -1.0366
  216MOL0     C29700   3.176  11.286  -1.739 -1.0375  0.6307 -0.0369
  216MOL0     O29701   3.301  11.230  -1.743  0.3949  0.8451 -0.1101
  216MOL0     C29702   3.419  11.294  -1.763 -0.7312 -0.0927  0.3446
  216MOL0     C29703   3.430  11.373  -1.877  0.5336  0.3998  0.2240
  216MOL0     C29704   3.554  11.431  -1.909 -0.4497  0.1414 -0.0872
  216MOL0     C29705   3.668  11.405  -1.834  0.3314  0.7492 -1.6437
  216MOL0     O29706   3.783  11.448  -1.891  0.3611  0.1294  0.5795
  216MOL0     C29707   3.904  11.412  -1.828  0.5119 -0.7027  0.1228
  216MOL0     C29708   4.013  11.443  -1.931 -0.9509  0.0888 -0.2384
  216MOL0     C29709   4.015  11.577  -1.994 -0.0331  0.2615 -0.3538
  216MOL0     C29710   4.090  11.599  -2.130  0.4127 -0.2371  0.7164
  216MOL0     C29711   4.083  11.748  -2.171  0.2814  0.0859 -0.2872
  216MOL0     C29712   4.146  11.788  -2.311  0.2766 -0.9289 -0.9702
  216MOL0     C29713   4.078  11.728  -2.437 -1.3671  0.0391 -0.2780
  216MOL0     C29714   4.130  11.800  -2.568 -0.3453 -0.0643 -0.0916
  216MOL0    Cl29715   4.024  11.768  -2.709 -0.3256  0.1320  0.7097
  216MOL0     C29716   3.658  11.307  -1.729  1.5732 -0.3866  0.5210
  216MOL0     C29717   3.531  11.266  -1.687 -0.0353 -0.0384  0.8643
  216MOL0     O29718   3.157  11.403  -1.751 -0.5101 -0.0927  0.1583
  216MOL0     C29719   3.084  11.074  -1.647 -0.9516  0.1548 -0.0013
  216MOL0     C29720   2.985  10.991  -1.606  0.4989  0.1894 -0.0237
  216MOL0     N29721   2.821  10.384  -1.206 -0.2270 -0.6723 -1.0698
  216MOL0     N29722   2.791  10.292  -1.122  0.4550  0.2182 -0.7438
  216MOL0     C29723   2.948   9.687  -0.129 -0.1157 -0.9782 -0.4024
  216MOL0     C29724   3.025   9.634  -0.032  0.9383 -1.0375  0.1062
  216MOL0     C29725   3.368   9.535   0.234 -0.2380  0.1079 -0.1145
  216MOL0     C29726   3.482   9.615   0.187  0.0925 -0.1565  0.2392
  216MOL0     C29727   3.606   9.606   0.255  0.6982  1.1336 -0.4880
  216MOL0     C29728   3.625   9.512   0.362 -0.2963 -0.2888  0.7871
  216MOL0     O29729   3.745   9.491   0.414 -0.2884 -0.3439  0.7700
  216MOL0     C29730   3.812   9.377   0.361  0.7695  0.2789 -1.2057
  216MOL0     C29731   3.886   9.397   0.234 -0.3071 -0.4297  0.3507
  216MOL0     C29732   4.000   9.502   0.261  0.3820 -1.2995  0.2312
  216MOL0     C29733   4.117   9.478   0.154 -0.3504 -0.5871 -0.1840
  216MOL0     C29734   4.095   9.481   0.010 -0.7382  0.4432 -0.4775
  216MOL0     C29735   4.079   9.494  -0.106 -0.7362 -0.4947  0.6075
  216MOL0     C29736   3.519   9.427   0.384  0.5982  0.4092  0.2858
  216MOL0     C29737   3.391   9.431   0.324 -0.8846 -0.4585  0.0716
  216MOL0     C29738   3.287   9.331   0.369 -0.7047 -1.0108  0.8705
  216MOL0     H29739   3.231   9.916   0.030  0.4631  0.1947  1.0001
  216MOL0     H29740   3.085  10.001  -0.133  0.3132  1.4158  4.4006
  216MOL0     H29741   3.031   9.933  -0.394  1.0518  0.7959  0.4534
  216MOL0     H29742   2.946  10.056  -0.314 -1.0297 -2.0244  2.4307
  216MOL0     H29743   2.820   9.848  -0.518  1.5194  0.1575 -1.5139
  216MOL0     H29744   2.735   9.983  -0.431  0.0130 -1.0182  0.6293
  216MOL0     H29745   2.884  10.139  -0.558  0.4220 -1.1655  0.6631
  216MOL0     H29746   2.968  10.003  -0.616 -0.1824  1.0042 -3.2497
  216MOL0     H29747   2.817  10.104  -0.776 -1.4435  2.1698 -0.3684
  216MOL0     H29748   2.783   9.928  -0.760  0.0981  0.0330 -0.5208
  216MOL0     H29749   2.633  10.168  -0.641  2.1208 -0.0175 -1.8064
  216MOL0     H29750   2.589   9.998  -0.615  0.3515  1.1870  1.2247
  216MOL0     H29751   2.540   9.963  -0.842  0.8206  0.9196 -0.5988
  216MOL0     H29752   2.450  10.109  -0.784 -0.9662 -2.2671  2.7590
  216MOL0     H29753   2.524  10.148  -1.016 -0.2583  0.8350  0.4567
  216MOL0     H29754   2.693  10.089  -0.980 -0.7181 -0.4953 -0.8566
  216MOL0     H29755   2.559  10.331  -0.865 -1.4009 -4.4308 -0.6862
  216MOL0     H29756   2.726  10.286  -0.837 -0.1798 -1.5298  2.0564
  216MOL0     H29757   2.535  10.484  -1.093 -0.2171  0.2234 -1.8701
  216MOL0     H29758   2.629  10.672  -1.239 -0.3728 -0.8163  0.5153
  216MOL0     H29759   2.681  10.583  -1.388  1.7598  1.0110  0.1790
  216MOL0     H29760   2.863  10.724  -1.188  2.3195  0.6550 -0.3003
  216MOL0     H29761   2.922  10.641  -1.325 -0.5320  1.2332  0.7862
  216MOL0     H29762   2.728  10.882  -1.310  2.1485  1.0855 -1.2775
  216MOL0     H29763   2.890  10.905  -1.350 -0.9969  0.9684 -0.7129
  216MOL0     H29764   2.843  10.758  -1.565 -1.5439  0.5706 -1.1647
  216MOL0     H29765   2.682  10.759  -1.517  1.9400 -1.0354 -1.6145
  216MOL0     H29766   2.723  11.180  -1.677 -0.3312 -0.9180  1.4935
  216MOL0     H29767   2.910  11.384  -1.855  0.1352  1.5065  0.0995
  216MOL0     H29768   2.899  11.466  -1.696  1.5173 -0.9154  1.4581
  216MOL0     H29769   2.763  11.380  -1.751 -0.1799  1.5177  1.8938
  216MOL0     H29770   3.344  11.376  -1.943 -0.8330 -2.4057  1.6937
  216MOL0     H29771   3.569  11.502  -1.989  2.0662 -1.8914 -1.5970
  216MOL0     H29772   3.916  11.473  -1.738  1.5512  1.9615 -1.6740
  216MOL0     H29773   3.913  11.308  -1.797 -2.3453 -0.2292  2.9764
  216MOL0     H29774   4.107  11.422  -1.881 -0.7044 -0.9420 -1.0735
  216MOL0     H29775   3.987  11.369  -2.008  1.0180  1.0935 -1.9561
  216MOL0     H29776   4.049  11.645  -1.916 -3.0877 -0.2878  1.6205
  216MOL0     H29777   3.909  11.601  -2.011 -0.1618  0.8503  1.1538
  216MOL0     H29778   4.035  11.537  -2.202  0.1508  0.7079  0.0794
  216MOL0     H29779   4.194  11.569  -2.117 -0.5349 -4.1075  0.4127
  216MOL0     H29780   3.976  11.772  -2.173  0.6185  1.7217 -2.1881
  216MOL0     H29781   4.120  11.812  -2.091  1.1472  0.4175 -0.9360
  216MOL0     H29782   4.254  11.771  -2.318  0.2307 -0.8524 -1.9372
  216MOL0     H29783   4.123  11.895  -2.317  0.6261 -0.4883  2.8748
  216MOL0     H29784   3.972  11.755  -2.448 -2.3415 -3.8220 -2.0359
  216MOL0     H29785   4.086  11.619  -2.434  2.2570  0.1028 -2.5457
  216MOL0     H29786   4.235  11.780  -2.592 -0.4002 -2.3535  1.3370
  216MOL0     H29787   4.129  11.907  -2.543  0.7357 -0.2525  0.8713
  216MOL0     H29788   3.745  11.278  -1.671  0.7652  1.2581  2.6688
  216MOL0     H29789   3.503  11.217  -1.595 -3.7244 -0.1785 -0.1382
  216MOL0     H29790   3.186  11.037  -1.640 -0.7521  0.1525 -2.3019
  216MOL0     H29791   3.023  10.892  -1.583 -0.8434 -0.7835 -1.7184
  216MOL0     H29792   2.880   9.631  -0.193  0.1996 -0.5372 -1.1310
  216MOL0     H29793   3.024   9.528  -0.006  0.0757 -0.5493  2.3036
  216MOL0     H29794   3.484   9.671   0.094  3.4331 -2.6053 -1.3862
  216MOL0     H29795   3.700   9.658   0.239 -1.1848  5.3499  0.8302
  216MOL0     H29796   3.880   9.331   0.434  0.2806 -0.3684 -1.1499
  216MOL0     H29797   3.745   9.293   0.342  1.5278 -1.4450  2.7574
  216MOL0     H29798   3.815   9.430   0.158 -1.2481  1.6828  2.0512
  216MOL0     H29799   3.937   9.303   0.207  1.5526  0.7931 -0.6240
  216MOL0     H29800   3.965   9.606   0.251  2.6928 -0.6514 -2.4818
  216MOL0     H29801   4.027   9.481   0.365 -2.6717 -0.2443  1.3786
  216MOL0     H29802   4.158   9.380   0.176 -1.4979 -1.3421 -1.2697
  216MOL0     H29803   4.201   9.545   0.177  0.3089 -2.4335  3.5929
  216MOL0     H29804   4.086   9.482  -0.213 -0.7252 -0.1237  0.5652
  216MOL0     H29805   3.556   9.338   0.435  2.5497  1.6148  1.0726
  216MOL0     H29806   3.201   9.377   0.418 -0.6643  0.9783 -0.8175
  216MOL0     H29807   3.240   9.294   0.278  0.6473 -0.4857 -0.0770
  216MOL0     H29808   3.319   9.240   0.422  2.7967 -1.1913 -1.2372
  217MOL0     O29809  11.342   6.278   1.669 -0.0173  0.7981 -0.2186
  217MOL0     C29810  11.227   6.256   1.709  0.2371  0.1990  1.4747
  217MOL0     O29811  11.147   6.144   1.667  1.5200 -0.5001 -0.4154
  217MOL0     C29812  11.193   6.047   1.583 -0.5259  0.5606  1.2057
  217MOL0     C29813  11.151   6.039   1.451 -0.3587  0.0066 -0.1963
  217MOL0     C29814  11.193   5.931   1.370 -0.4789  1.0609  0.0623
  217MOL0     C29815  11.272   5.823   1.421  0.3773  1.2907 -0.0772
  217MOL0     O29816  11.309   5.712   1.344  0.0635  0.0540  0.0678
  217MOL0     C29817  11.301   5.731   1.204 -0.1491  0.9563 -0.3926
  217MOL0     C29818  11.360   5.610   1.141  0.6454  0.6615  0.2217
  217MOL0     C29819  11.276   5.484   1.176  0.2429  0.0584  0.4607
  217MOL0     C29820  11.326   5.355   1.110 -0.0402  0.4855 -0.1380
  217MOL0     C29821  11.254   5.234   1.158  0.0133 -0.3196 -0.4899
  217MOL0     C29822  11.108   5.225   1.108  0.5410 -0.4563  0.3744
  217MOL0     C29823  11.049   5.110   1.189 -0.6488 -0.4262 -0.3964
  217MOL0     C29824  10.901   5.111   1.173  0.5347  0.4273  0.4834
  217MOL0     N29825  10.844   4.981   1.212 -0.2626  0.3895 -0.3927
  217MOL0     C29826  10.711   4.934   1.185  0.0676 -0.3548  0.9128
  217MOL0     C29827  10.690   4.823   1.262 -0.3348  0.2518  0.4289
  217MOL0     C29828  10.562   4.751   1.284 -0.0915  0.5934  0.3059
  217MOL0     C29829  10.507   4.726   1.139  0.2190  1.1260 -0.0379
  217MOL0     C29830  10.402   4.613   1.120 -0.0830  0.2087 -0.4000
  217MOL0     C29831  10.289   4.609   1.220 -0.4255  0.1823  0.4978
  217MOL0     O29832  10.344   4.543   1.340  0.1685  0.2763  0.3401
  217MOL0     C29833  10.263   4.467   1.426  0.0123  0.2783 -0.6247
  217MOL0     C29834  10.333   4.453   1.551  0.1635  0.2158  0.2344
  217MOL0     C29835  10.260   4.409   1.666 -0.5702  0.2742  0.5892
  217MOL0     C29836  10.346   4.397   1.787  0.1341  0.1671 -0.5071
  217MOL0     C29837  10.127   4.359   1.656 -0.4226 -0.3354  0.3229
  217MOL0     C29838  10.031   4.310   1.762 -0.5200  0.7237 -0.0116
  217MOL0     O29839   9.902   4.282   1.736 -0.5285  0.3303  0.7331
  217MOL0     C29840   9.821   4.216   1.817 -0.2564  0.0331  1.0624
  217MOL0     C29841   9.686   4.263   1.816 -1.7391  1.1330  0.4984
  217MOL0     C29842   9.592   4.212   1.899  1.0802  0.7266  0.7485
  217MOL0     C29843   9.613   4.108   1.986 -0.3050 -0.1408  1.0236
  217MOL0     O29844   9.500   4.066   2.053 -0.2980  0.1674 -0.5009
  217MOL0     C29845   9.463   3.925   2.018 -0.5154  0.1121 -0.4217
  217MOL0     C29846   9.402   3.874   2.145 -0.1187 -0.0984 -0.3032
  217MOL0     C29847   9.354   3.735   2.148  0.2184 -0.1358 -0.7298
  217MOL0     C29848   9.453   3.620   2.112  0.2535  0.7760 -0.5027
  217MOL0     C29849   9.419   3.483   2.179  0.8980 -0.5468 -0.6797
  217MOL0     C29850   9.467   3.371   2.079 -0.5782 -0.6858  0.4516
  217MOL0     C29851   9.483   3.232   2.159  0.4439  0.2936  0.1925
  217MOL0     C29852   9.532   3.126   2.066 -0.5050 -0.1661 -0.4440
  217MOL0    Cl29853   9.617   2.990   2.160  0.0345  0.0747  0.1025
  217MOL0     C29854   9.738   4.045   1.974  1.0805 -0.2123 -0.5520
  217MOL0     C29855   9.840   4.105   1.893  0.2921  0.8288  1.0078
  217MOL0     O29856  10.081   4.324   1.872 -0.2367 -0.0373 -1.0769
  217MOL0     C29857  10.067   4.354   1.526  1.1972 -0.6367 -0.3781
  217MOL0     C29858  10.131   4.416   1.414  0.1179  0.4382 -1.4003
  217MOL0     N29859  10.806   4.783   1.311 -0.2103 -0.1708 -0.6078
  217MOL0     N29860  10.892   4.880   1.292 -0.8591 -0.3733  0.4321
  217MOL0     C29861  11.318   5.828   1.555 -0.2889 -0.6524 -0.1429
  217MOL0     C29862  11.277   5.943   1.633 -0.3127  1.3678  0.6825
  217MOL0     C29863  11.154   6.359   1.786 -0.8692 -0.0825 -1.3300
  217MOL0     C29864  11.015   6.346   1.808 -1.4887  0.3324 -0.3602
  217MOL0     C29865  10.931   6.435   1.877 -0.4413 -0.4180  0.4578
  217MOL0     C29866  10.993   6.550   1.935  0.1734 -0.6369 -0.6193
  217MOL0     O29867  10.914   6.646   1.995  0.2072 -0.5448 -0.2406
  217MOL0     C29868  10.842   6.605   2.106  0.0428 -0.9980  0.3700
  217MOL0     C29869  10.744   6.710   2.151  0.3752  1.5908  0.4024
  217MOL0     C29870  10.658   6.671   2.270 -0.0820  0.1759  0.3355
  217MOL0     C29871  10.733   6.691   2.408  0.2663 -0.2248  0.1113
  217MOL0     C29872  10.777   6.561   2.460  0.4417  0.6008 -0.3478
  217MOL0     C29873  10.804   6.466   2.531 -0.0382  0.2863  1.2413
  217MOL0     C29874  11.129   6.563   1.939 -0.6091  0.3039  0.0744
  217MOL0     C29875  11.213   6.468   1.861  0.4104 -0.4031  0.1695
  217MOL0     C29876  11.365   6.494   1.857 -0.3920  0.6876 -0.7852
  217MOL0     H29877  11.083   6.115   1.414 -0.9793 -0.5762 -0.2803
  217MOL0     H29878  11.149   5.928   1.270  0.3528 -0.8657 -0.2944
  217MOL0     H29879  11.371   5.813   1.184 -0.8752  1.4424 -1.0048
  217MOL0     H29880  11.200   5.757   1.169 -0.0140  0.7743 -0.9258
  217MOL0     H29881  11.367   5.621   1.033  1.7907 -1.3530  0.0590
  217MOL0     H29882  11.458   5.590   1.186  0.3158 -4.5327 -0.7883
  217MOL0     H29883  11.277   5.475   1.285 -1.2731  3.0269  0.8222
  217MOL0     H29884  11.168   5.491   1.158  0.5746  1.1447 -1.3290
  217MOL0     H29885  11.308   5.357   1.002 -0.1995 -2.0373 -0.2201
  217MOL0     H29886  11.434   5.350   1.127  0.2207  1.9992 -1.1228
  217MOL0     H29887  11.265   5.222   1.266 -1.6661 -0.5397 -0.3184
  217MOL0     H29888  11.307   5.149   1.116  1.5287 -0.8531  2.2374
  217MOL0     H29889  11.055   5.321   1.117  3.8904  1.4961  0.7820
  217MOL0     H29890  11.114   5.216   1.000  1.9000 -0.2528  0.4166
  217MOL0     H29891  11.068   5.126   1.296  2.9121 -1.7800 -0.6892
  217MOL0     H29892  11.093   5.011   1.172 -0.9985 -0.7660  0.5870
  217MOL0     H29893  10.870   5.194   1.236 -3.8677 -1.4571  1.1611
  217MOL0     H29894  10.866   5.132   1.072 -1.2610 -1.1344  0.7231
  217MOL0     H29895  10.634   4.994   1.137  0.6174 -0.9994 -0.8680
  217MOL0     H29896  10.495   4.819   1.337 -3.5688 -0.1945 -2.7069
  217MOL0     H29897  10.579   4.669   1.354  2.0134 -0.2632 -1.1058
  217MOL0     H29898  10.456   4.815   1.103 -1.3026  0.5376  0.5758
  217MOL0     H29899  10.587   4.701   1.068 -0.8070 -1.1487 -0.5133
  217MOL0     H29900  10.349   4.621   1.025 -0.3590  1.3771 -0.1632
  217MOL0     H29901  10.459   4.520   1.121 -1.4655 -0.6682 -0.3333
  217MOL0     H29902  10.258   4.709   1.252 -0.1117  0.7478 -0.8905
  217MOL0     H29903  10.212   4.545   1.175  1.9217 -3.2421  0.9106
  217MOL0     H29904  10.433   4.495   1.552 -1.6945  5.2818  1.3815
  217MOL0     H29905  10.445   4.437   1.763 -0.0641  0.1380 -1.4313
  217MOL0     H29906  10.342   4.295   1.826 -0.7890 -0.4523 -2.0914
  217MOL0     H29907  10.311   4.451   1.875  1.6118  0.7535 -0.2473
  217MOL0     H29908   9.656   4.352   1.761 -1.9560 -0.2671 -1.7767
  217MOL0     H29909   9.498   4.265   1.907  0.9861  0.5742  0.6788
  217MOL0     H29910   9.402   3.920   1.928 -0.4858  1.5625 -0.5422
  217MOL0     H29911   9.548   3.859   1.995 -2.8713 -2.8766 -1.1352
  217MOL0     H29912   9.465   3.902   2.230  0.5122  2.8281 -1.5910
  217MOL0     H29913   9.311   3.932   2.159  0.7534  1.3539 -0.4330
  217MOL0     H29914   9.266   3.724   2.084 -1.3246 -0.3082  1.3181
  217MOL0     H29915   9.316   3.711   2.248  0.2066  2.1811 -0.1229
  217MOL0     H29916   9.562   3.630   2.124  0.7665 -1.7179 -2.3514
  217MOL0     H29917   9.435   3.604   2.005 -2.2980  3.1984 -0.5563
  217MOL0     H29918   9.470   3.488   2.276 -1.3896  3.2255  0.5245
  217MOL0     H29919   9.315   3.471   2.208  0.4118  2.5461 -0.8557
  217MOL0     H29920   9.562   3.391   2.028  0.0045 -1.6621  1.1358
  217MOL0     H29921   9.398   3.360   1.995 -1.3494 -0.4211  1.0447
  217MOL0     H29922   9.391   3.202   2.211  0.5315  2.0692  1.4854
  217MOL0     H29923   9.559   3.252   2.235  2.1703  0.1264 -1.4282
  217MOL0     H29924   9.610   3.165   2.000  2.4414 -2.9727  1.0804
  217MOL0     H29925   9.451   3.084   2.006 -1.8552 -1.6838  2.2147
  217MOL0     H29926   9.761   3.957   2.033 -0.8591 -0.9191 -0.7731
  217MOL0     H29927   9.943   4.071   1.896  0.2878  0.4336 -1.2273
  217MOL0     H29928   9.967   4.317   1.505  0.7314  1.0024 -1.2883
  217MOL0     H29929  10.078   4.408   1.320  0.2457 -0.6484 -1.3886
  217MOL0     H29930  11.367   5.742   1.599 -0.7534 -1.2405 -0.7531
  217MOL0     H29931  11.282   5.953   1.741 -4.1364  1.6291  0.9616
  217MOL0     H29932  10.961   6.266   1.757 -2.5444  1.3523 -0.8937
  217MOL0     H29933  10.827   6.409   1.865 -0.1766 -0.5813 -1.9297
  217MOL0     H29934  10.782   6.517   2.082 -1.4712  0.4440 -1.5109
  217MOL0     H29935  10.900   6.585   2.197 -1.2095 -2.0705  0.9662
  217MOL0     H29936  10.674   6.743   2.074 -1.1821  3.1362  2.3668
  217MOL0     H29937  10.796   6.803   2.174  0.9215  1.2876  0.4292
  217MOL0     H29938  10.575   6.742   2.271  1.3595  1.9393  1.1220
  217MOL0     H29939  10.611   6.573   2.256 -1.8299  0.6227  2.4463
  217MOL0     H29940  10.660   6.733   2.477 -1.2013  1.8526 -2.5045
  217MOL0     H29941  10.815   6.762   2.393 -0.1044  0.0590 -0.6472
  217MOL0     H29942  10.838   6.392   2.600  3.3987  0.5430 -0.0064
  217MOL0     H29943  11.172   6.651   1.986 -3.0897  1.7435 -0.1643
  217MOL0     H29944  11.393   6.510   1.753  1.7313  2.1115 -0.0751
  217MOL0     H29945  11.393   6.583   1.914 -0.7735  0.1901  0.2073
  217MOL0     H29946  11.418   6.407   1.898 -0.6451  0.3186 -1.2358
  218MOL0     O29947   9.254   5.003   1.475 -0.6682  0.1043 -0.6695
  218MOL0     C29948   9.234   4.949   1.584 -1.3575  0.3200 -0.1753
  218MOL0     O29949   9.131   4.968   1.665 -0.0766  0.2481 -0.1689
  218MOL0     C29950   9.016   5.025   1.614 -0.1205  0.6129  0.8476
  218MOL0     C29951   8.948   4.955   1.515  0.0820 -0.2659 -0.4530
  218MOL0     C29952   8.820   4.992   1.482 -0.1164  0.1760 -0.3833
  218MOL0     C29953   8.766   5.105   1.542 -0.9537 -0.0614  0.0530
  218MOL0     O29954   8.645   5.164   1.517  0.0349 -0.3865  0.8915
  218MOL0     C29955   8.537   5.085   1.459 -0.3280 -0.2176 -0.1796
  218MOL0     C29956   8.404   5.160   1.465 -0.2088 -0.1977  1.4100
  218MOL0     C29957   8.395   5.276   1.359 -0.0117  1.3469  0.6208
  218MOL0     C29958   8.252   5.338   1.371  0.4301 -0.9468 -0.3720
  218MOL0     C29959   8.198   5.380   1.233  1.0621 -0.7899 -0.3420
  218MOL0     C29960   8.293   5.468   1.144  0.1745 -0.5624 -1.1178
  218MOL0     C29961   8.339   5.595   1.212 -0.1165  0.5097 -0.3995
  218MOL0     C29962   8.372   5.705   1.116  0.2238  0.1122 -0.0115
  218MOL0     N29963   8.480   5.790   1.169  0.0632 -0.5231 -1.3212
  218MOL0     C29964   8.615   5.767   1.161  0.2223  0.1577 -0.0150
  218MOL0     C29965   8.667   5.841   1.262 -0.3836  0.6682  0.3864
  218MOL0     C29966   8.810   5.832   1.305  0.3491  0.2802  0.7522
  218MOL0     C29967   8.826   5.728   1.421 -0.0749 -0.0680  0.0767
  218MOL0     C29968   8.789   5.589   1.363 -0.0533 -0.2430 -0.2559
  218MOL0     C29969   8.815   5.488   1.480 -0.4442 -0.4140  0.5980
  218MOL0     O29970   8.953   5.484   1.520  0.1500 -0.7942  0.1380
  218MOL0     C29971   9.043   5.422   1.432  0.0025 -0.9388  0.2385
  218MOL0     C29972   9.153   5.498   1.390 -0.2826  0.4832  0.5622
  218MOL0     C29973   9.248   5.444   1.298  0.4294 -0.4837 -0.1207
  218MOL0     C29974   9.373   5.537   1.261  1.1348  0.4033 -0.3506
  218MOL0     C29975   9.229   5.314   1.246  0.1069  0.9827  0.4966
  218MOL0     C29976   9.325   5.249   1.151  0.0192  0.7122  0.2181
  218MOL0     O29977   9.302   5.119   1.111  0.9030 -0.3209 -0.8243
  218MOL0     C29978   9.387   5.065   1.023  0.5021  0.6870  0.8050
  218MOL0     C29979   9.522   5.030   1.045  0.1491 -0.1711  0.4812
  218MOL0     C29980   9.593   4.961   0.951 -0.8348 -0.3700 -0.2740
  218MOL0     C29981   9.541   4.929   0.828 -0.6571 -0.4535  0.5319
  218MOL0     O29982   9.625   4.856   0.746  0.4837  0.4784 -0.2271
  218MOL0     C29983   9.713   4.949   0.675 -0.3144 -0.4092 -0.1841
  218MOL0     C29984   9.640   5.019   0.559 -0.7791  0.8722  0.4189
  218MOL0     C29985   9.732   5.069   0.452 -0.4399 -0.0416 -0.1050
  218MOL0     C29986   9.653   5.106   0.315 -0.6468 -0.4534 -0.9149
  218MOL0     C29987   9.739   5.101   0.188  0.2237  0.2558 -0.2366
  218MOL0     C29988   9.804   5.230   0.175  0.1583 -0.4350 -0.5055
  218MOL0     C29989   9.885   5.233   0.044  0.0800  0.3938 -0.3906
  218MOL0     C29990   9.893   5.375  -0.021  0.6014  0.5646 -0.2010
  218MOL0    Cl29991   9.734   5.435  -0.085 -0.6005 -0.1965  0.1914
  218MOL0     C29992   9.406   4.946   0.812  0.9692 -0.3714 -0.2991
  218MOL0     C29993   9.327   5.016   0.904  0.1029  0.1351 -0.5121
  218MOL0     O29994   9.427   5.311   1.122 -0.2933  0.5347  0.0873
  218MOL0     C29995   9.123   5.236   1.304  0.7997  0.7812  0.0470
  218MOL0     C29996   9.031   5.296   1.383 -0.7227 -0.3543  0.0205
  218MOL0     N29997   8.567   5.919   1.319  0.7523 -0.2995  0.7072
  218MOL0     N29998   8.452   5.887   1.270 -0.7661  0.8062 -0.3453
  218MOL0     C29999   8.838   5.180   1.638  0.0940  0.1452 -0.1204
  218MOL0     C30000   8.969   5.138   1.671  0.5069 -0.1299 -0.6623
  218MOL0     C30001   9.342   4.864   1.643 -0.2826 -0.2973 -0.2973
  218MOL0     C30002   9.358   4.877   1.784  0.9426  0.4969 -0.4890
  218MOL0     C30003   9.478   4.821   1.839 -0.5608  0.3883 -1.1407
  218MOL0     C30004   9.572   4.749   1.773 -0.2265 -0.4813 -0.7867
  218MOL0     O30005   9.682   4.702   1.843  0.3158 -0.3959  1.3373
  218MOL0     C30006   9.807   4.694   1.770 -0.9140 -0.4296 -1.3378
  218MOL0     C30007   9.885   4.827   1.793  0.1316  0.3462  0.8575
  218MOL0     C30008   9.842   4.921   1.673 -0.6780  0.2659  1.7005
  218MOL0     C30009   9.943   5.030   1.667  0.7056  0.0240  0.6623
  218MOL0     C30010   9.948   5.095   1.801  0.1988  0.7668 -0.1094
  218MOL0     C30011   9.920   5.146   1.910 -0.6688  0.1165  0.2979
  218MOL0     C30012   9.545   4.726   1.635 -0.3098 -0.2419 -0.4331
  218MOL0     C30013   9.432   4.786   1.568 -0.9435 -0.7759 -0.2055
  218MOL0     C30014   9.402   4.760   1.427 -0.3381  0.2083  0.1412
  218MOL0     H30015   8.986   4.862   1.473 -1.7126  0.2945 -3.6762
  218MOL0     H30016   8.763   4.940   1.405  1.4380 -0.9675 -0.8134
  218MOL0     H30017   8.528   4.993   1.516  2.1648 -1.3370 -1.4512
  218MOL0     H30018   8.542   5.047   1.357  1.6242 -0.4552 -0.0309
  218MOL0     H30019   8.331   5.083   1.438 -0.6391 -0.2887  2.7430
  218MOL0     H30020   8.393   5.201   1.566 -1.1868  3.9821 -0.1771
  218MOL0     H30021   8.478   5.346   1.372  2.4001 -1.4043  1.1246
  218MOL0     H30022   8.407   5.227   1.263  1.4507  0.6616  1.1256
  218MOL0     H30023   8.193   5.264   1.426  3.9013 -3.6329  0.0893
  218MOL0     H30024   8.265   5.439   1.411  1.6719 -1.5988  0.9641
  218MOL0     H30025   8.107   5.441   1.238  1.5440  0.5228 -4.4076
  218MOL0     H30026   8.173   5.288   1.180  0.6000 -0.6670 -0.3420
  218MOL0     H30027   8.382   5.415   1.109  1.1771  1.1617 -1.3054
  218MOL0     H30028   8.234   5.496   1.057  3.3235  0.9328 -2.9438
  218MOL0     H30029   8.422   5.583   1.282  3.4740  6.4715 -2.7536
  218MOL0     H30030   8.258   5.634   1.274 -1.5143 -0.4810 -1.5529
  218MOL0     H30031   8.400   5.663   1.018 -1.7606  1.1807 -1.1036
  218MOL0     H30032   8.281   5.763   1.097 -0.4561 -1.2126 -0.9875
  218MOL0     H30033   8.662   5.702   1.087 -1.2705 -3.0979  1.6803
  218MOL0     H30034   8.840   5.931   1.341  2.0122  0.2509 -0.4143
  218MOL0     H30035   8.884   5.811   1.227 -1.3508  2.3215 -1.5432
  218MOL0     H30036   8.927   5.717   1.461  0.2259 -3.3952 -1.2901
  218MOL0     H30037   8.758   5.752   1.503 -0.0847 -0.8284  0.2963
  218MOL0     H30038   8.683   5.593   1.337 -0.5348  1.3056  1.7061
  218MOL0     H30039   8.853   5.558   1.280  1.7013 -1.7840  1.5547
  218MOL0     H30040   8.761   5.520   1.570 -1.3382 -0.9090  0.2492
  218MOL0     H30041   8.784   5.386   1.456  1.7791 -0.7240 -1.3578
  218MOL0     H30042   9.179   5.595   1.433  0.7293 -0.2234  1.5919
  218MOL0     H30043   9.464   5.504   1.311  1.6082 -0.3757 -1.6770
  218MOL0     H30044   9.357   5.636   1.304 -0.2283 -0.0303  0.2181
  218MOL0     H30045   9.383   5.557   1.154 -2.6368 -1.8268 -1.3359
  218MOL0     H30046   9.558   5.067   1.140 -0.5316 -0.3561  0.8218
  218MOL0     H30047   9.693   4.938   0.986  0.5775  1.3724 -2.7992
  218MOL0     H30048   9.772   5.004   0.748  0.0146 -1.4220  0.3380
  218MOL0     H30049   9.784   4.875   0.636 -1.6569 -2.6475  1.3569
  218MOL0     H30050   9.584   4.932   0.522 -0.1321 -0.2376  1.9750
  218MOL0     H30051   9.568   5.098   0.582 -3.0883 -0.5338 -1.4210
  218MOL0     H30052   9.814   4.998   0.446 -0.6060 -0.4697  2.0274
  218MOL0     H30053   9.782   5.160   0.489  0.8586 -0.8577  0.2066
  218MOL0     H30054   9.582   5.188   0.332 -0.1194 -0.6372  2.9536
  218MOL0     H30055   9.591   5.017   0.307  0.6581 -1.3710 -1.1883
  218MOL0     H30056   9.813   5.021   0.192  0.1384  0.0195 -2.1571
  218MOL0     H30057   9.667   5.095   0.106 -0.7829  1.4905  0.5307
  218MOL0     H30058   9.870   5.242   0.261 -0.8236 -1.8118  0.4748
  218MOL0     H30059   9.727   5.307   0.170 -1.4704 -1.9552  0.0574
  218MOL0     H30060   9.832   5.165  -0.022 -0.3263 -0.9214  1.2169
  218MOL0     H30061   9.990   5.209   0.063  0.5374  1.6135 -1.2809
  218MOL0     H30062   9.965   5.379  -0.104  0.9210 -1.0171 -0.0286
  218MOL0     H30063   9.933   5.432   0.063 -1.0392  2.2744 -0.5252
  218MOL0     H30064   9.366   4.886   0.730 -0.5536 -2.2674  1.7228
  218MOL0     H30065   9.219   5.014   0.892 -0.0259  0.1882  0.5543
  218MOL0     H30066   9.110   5.132   1.278 -0.8969  1.2377 -1.1403
  218MOL0     H30067   8.943   5.239   1.412  0.3625 -2.0848  0.0630
  218MOL0     H30068   8.797   5.279   1.659  0.8838  0.7922 -1.5159
  218MOL0     H30069   9.023   5.202   1.740 -0.8383  1.6288 -1.1562
  218MOL0     H30070   9.297   4.944   1.842 -1.0962 -0.9268 -0.8718
  218MOL0     H30071   9.503   4.849   1.942 -3.3534  0.2372 -0.3586
  218MOL0     H30072   9.875   4.620   1.812 -1.7219 -0.0772  0.6784
  218MOL0     H30073   9.797   4.671   1.663  2.4019  1.0913 -2.1060
  218MOL0     H30074   9.990   4.799   1.803  1.3192  3.6615 -0.7865
  218MOL0     H30075   9.856   4.875   1.887 -0.7564  0.6541  0.4397
  218MOL0     H30076   9.831   4.874   1.575  0.9139 -1.6216  2.3578
  218MOL0     H30077   9.738   4.944   1.699 -1.7611 -1.7068 -0.4272
  218MOL0     H30078   9.893   5.100   1.600 -1.3714  0.4781  2.5722
  218MOL0     H30079  10.045   5.004   1.635  1.8646  2.2861  2.2300
  218MOL0     H30080   9.890   5.200   1.998 -0.2032  0.0837  0.4798
  218MOL0     H30081   9.614   4.662   1.581  3.6920  3.5087 -0.4375
  218MOL0     H30082   9.470   4.684   1.387  1.4214  2.7118 -1.8976
  218MOL0     H30083   9.303   4.715   1.425 -2.5022  4.3441  1.8168
  218MOL0     H30084   9.410   4.848   1.363  0.6706  3.2120  3.9908
  219MOL0     O30085   6.345   1.279  11.404 -0.7808 -0.3269  0.4306
  219MOL0     C30086   6.408   1.352  11.325 -0.7388  0.1188 -0.4419
  219MOL0     O30087   6.428   1.319  11.198  0.2151  0.2783 -0.3771
  219MOL0     C30088   6.365   1.204  11.155  0.2949 -0.0836  0.1268
  219MOL0     C30089   6.247   1.215  11.081  0.2959 -0.3506  1.4548
  219MOL0     C30090   6.188   1.094  11.043  0.3067  0.4587  0.3419
  219MOL0     C30091   6.232   0.969  11.091  0.4431  0.1064  0.4775
  219MOL0     O30092   6.155   0.862  11.066  0.3395  0.7286 -0.0015
  219MOL0     C30093   6.135   0.775  11.183 -0.0589 -0.0987  0.3813
  219MOL0     C30094   6.028   0.670  11.147  0.1914 -0.5935 -0.0667
  219MOL0     C30095   5.944   0.631  11.275 -0.4079 -0.6717  0.2213
  219MOL0     C30096   5.817   0.720  11.291  0.5814  0.2266  0.0027
  219MOL0     C30097   5.727   0.664  11.402 -0.3291 -0.5428  0.1317
  219MOL0     C30098   5.636   0.558  11.334 -0.7541 -0.2099  1.4196
  219MOL0     C30099   5.510   0.519  11.417 -0.4644 -0.1680  0.1794
  219MOL0     C30100   5.559   0.463  11.548  0.1588 -0.1933 -0.8118
  219MOL0     N30101   5.595   0.550  11.662 -0.9381  1.3023  0.5142
  219MOL0     C30102   5.521   0.649  11.709  0.4832 -0.0888  0.3665
  219MOL0     C30103   5.602   0.710  11.801  0.6328 -0.0779 -0.9905
  219MOL0     C30104   5.565   0.838  11.862 -0.5097  0.2922 -0.5846
  219MOL0     C30105   5.606   0.839  12.012  0.6209 -0.4002  0.0369
  219MOL0     C30106   5.571   0.976  12.067 -0.7374  0.2234  0.9300
  219MOL0     C30107   5.583   0.980  12.225  0.7314 -0.9298 -0.4313
  219MOL0     O30108   5.499   0.883  12.288  0.1738 -0.5938 -0.0378
  219MOL0     C30109   5.377   0.921  12.330  1.0015 -0.2846  0.7086
  219MOL0     C30110   5.351   0.951  12.458  0.3389  1.3232 -0.7854
  219MOL0     C30111   5.228   0.995  12.508 -0.6346  1.4323  0.0595
  219MOL0     C30112   5.224   1.036  12.656  0.7485  1.2317 -0.0442
  219MOL0     C30113   5.117   1.000  12.418 -0.6237  0.4429 -0.3326
  219MOL0     C30114   4.979   1.031  12.452 -0.5672 -1.5105 -0.0571
  219MOL0     O30115   4.948   1.087  12.572 -0.3196 -0.7545 -0.3803
  219MOL0     C30116   4.839   1.033  12.648  0.7339 -0.5551  0.4729
  219MOL0     C30117   4.825   0.895  12.659  0.0739 -0.5045  0.1123
  219MOL0     C30118   4.699   0.838  12.696 -0.6010 -0.6548 -0.1271
  219MOL0     C30119   4.606   0.918  12.755  0.0883  0.1168 -0.3777
  219MOL0     O30120   4.489   0.861  12.814 -0.4625  0.6376  0.2112
  219MOL0     C30121   4.510   0.794  12.937  0.7063  0.3243  0.1292
  219MOL0     C30122   4.409   0.836  13.051  0.0955  0.4462  0.9668
  219MOL0     C30123   4.391   0.735  13.163 -1.1202 -0.7219 -0.2893
  219MOL0     C30124   4.302   0.794  13.266 -0.1573  0.1870 -0.5275
  219MOL0     C30125   4.332   0.753  13.411  0.3977  0.3278 -1.1198
  219MOL0     C30126   4.304   0.599  13.449 -1.0507  0.3615  0.3278
  219MOL0     C30127   4.355   0.562  13.587  0.3527 -0.5638 -0.1825
  219MOL0     C30128   4.511   0.547  13.589 -0.6576 -1.5814  0.6122
  219MOL0    Cl30129   4.580   0.516  13.755 -0.0617 -0.4679 -0.2886
  219MOL0     C30130   4.625   1.061  12.755 -0.7673 -0.1913 -1.0819
  219MOL0     C30131   4.739   1.114  12.695 -1.0325 -0.3615  0.3616
  219MOL0     O30132   4.894   0.999  12.373 -0.4683 -0.1503 -0.3653
  219MOL0     C30133   5.138   0.963  12.281  0.2492 -0.0450  0.3435
  219MOL0     C30134   5.269   0.925  12.240 -1.1471  0.2901  0.3120
  219MOL0     N30135   5.716   0.629  11.822  0.4113 -0.2228 -0.3711
  219MOL0     N30136   5.706   0.528  11.739 -0.8434 -0.8251 -0.2505
  219MOL0     C30137   6.352   0.963  11.158 -0.1856  0.4752  0.4581
  219MOL0     C30138   6.416   1.081  11.195  0.2488 -0.0929  0.4997
  219MOL0     C30139   6.473   1.475  11.368 -0.3905 -0.1723 -1.2134
  219MOL0     C30140   6.577   1.530  11.291 -0.4770 -0.4585  0.1176
  219MOL0     C30141   6.640   1.648  11.329  0.0833 -0.8696 -0.3007
  219MOL0     C30142   6.611   1.712  11.450  0.9640 -1.0588 -0.4675
  219MOL0     O30143   6.682   1.826  11.484  0.0213 -0.3125 -0.1913
  219MOL0     C30144   6.716   1.841  11.616  0.1375  1.4330  0.3615
  219MOL0     C30145   6.662   1.965  11.681  0.7035 -0.3414 -0.6602
  219MOL0     C30146   6.720   2.087  11.611 -0.0415 -0.4735 -0.4579
  219MOL0     C30147   6.745   2.208  11.703 -0.3327  0.0302  0.2140
  219MOL0     C30148   6.613   2.263  11.731 -0.2802 -0.2952  0.3277
  219MOL0     C30149   6.500   2.303  11.765 -0.0888  0.1663  0.4387
  219MOL0     C30150   6.512   1.652  11.525 -0.2650 -0.1752  0.5616
  219MOL0     C30151   6.445   1.536  11.498  0.9096  0.0127  0.6626
  219MOL0     C30152   6.347   1.487  11.598  0.5659  0.0222  0.4716
  219MOL0     H30153   6.215   1.313  11.047 -1.1254 -1.1316  0.4256
  219MOL0     H30154   6.104   1.097  10.975  0.1032 -1.1582  0.4832
  219MOL0     H30155   6.096   0.833  11.268  1.7005 -2.6578  3.1363
  219MOL0     H30156   6.223   0.715  11.207  0.9191  0.6350 -1.1974
  219MOL0     H30157   5.968   0.706  11.063  2.2681  0.2887 -1.2468
  219MOL0     H30158   6.070   0.579  11.104 -1.7004 -1.5813  0.0410
  219MOL0     H30159   5.922   0.524  11.271 -1.5212 -0.5487  1.9179
  219MOL0     H30160   6.009   0.647  11.362  0.6270  0.7893 -0.7669
  219MOL0     H30161   5.836   0.816  11.340 -0.1125 -0.9389  2.7105
  219MOL0     H30162   5.764   0.741  11.198  0.6293  0.6460  0.0669
  219MOL0     H30163   5.668   0.749  11.439  1.0427  1.1880 -1.4262
  219MOL0     H30164   5.792   0.632  11.484  0.2709  1.7712  0.6335
  219MOL0     H30165   5.610   0.596  11.235  1.0295 -0.5157  0.8003
  219MOL0     H30166   5.689   0.463  11.328 -0.3575  0.0745  0.2710
  219MOL0     H30167   5.447   0.453  11.357 -0.1242 -2.8764  2.5950
  219MOL0     H30168   5.456   0.608  11.451  0.9258 -0.4237  3.4089
  219MOL0     H30169   5.478   0.402  11.588 -0.2286  1.0573  0.3971
  219MOL0     H30170   5.639   0.394  11.518  0.0171  0.2751 -2.3387
  219MOL0     H30171   5.418   0.670  11.683  0.1103 -0.8205  1.2053
  219MOL0     H30172   5.459   0.850  11.840 -1.5427 -2.5610  2.0834
  219MOL0     H30173   5.609   0.920  11.804 -1.1243 -0.0117 -1.5075
  219MOL0     H30174   5.548   0.768  12.072 -1.2339  0.5238 -0.5677
  219MOL0     H30175   5.710   0.809  12.030  0.8825  0.7661  0.6030
  219MOL0     H30176   5.636   1.043  12.010 -0.2751  2.4713  3.8569
  219MOL0     H30177   5.467   1.000  12.045 -0.3231  0.2975 -1.2206
  219MOL0     H30178   5.686   0.962  12.254  0.2622 -1.3747  0.9999
  219MOL0     H30179   5.561   1.079  12.267 -2.5509 -1.6915 -0.0905
  219MOL0     H30180   5.435   0.942  12.525 -1.9572  1.4119  2.3059
  219MOL0     H30181   5.164   0.965  12.714  2.2310  0.4976  0.6358
  219MOL0     H30182   5.195   1.138  12.685  2.0047  1.8159 -0.7929
  219MOL0     H30183   5.325   1.027  12.696 -0.7607 -3.6039  3.7380
  219MOL0     H30184   4.899   0.824  12.625  0.4010 -0.4026  0.5998
  219MOL0     H30185   4.691   0.730  12.707 -1.3950 -0.4531  1.4266
  219MOL0     H30186   4.499   0.686  12.924 -0.1888  0.4811 -0.4795
  219MOL0     H30187   4.611   0.810  12.978  0.8671  1.5543 -0.6984
  219MOL0     H30188   4.442   0.934  13.088 -0.1658  0.2797  1.6556
  219MOL0     H30189   4.309   0.849  13.009  1.0371  1.7445 -1.0397
  219MOL0     H30190   4.486   0.701  13.205  0.9493  0.2557 -3.7524
  219MOL0     H30191   4.348   0.649  13.111  2.3664 -0.9200 -3.2921
  219MOL0     H30192   4.207   0.755  13.227  1.0727 -2.6152 -0.9894
  219MOL0     H30193   4.304   0.903  13.257 -0.6709  0.1593 -1.0653
  219MOL0     H30194   4.437   0.766  13.435  0.4519  0.8567 -1.6112
  219MOL0     H30195   4.267   0.815  13.473 -1.8911 -1.3397 -1.7083
  219MOL0     H30196   4.356   0.527  13.385  0.0677 -0.0764  1.6924
  219MOL0     H30197   4.198   0.571  13.453 -0.2169 -3.1133  2.6632
  219MOL0     H30198   4.307   0.469  13.617  2.7628 -2.5077 -1.9488
  219MOL0     H30199   4.334   0.629  13.671  1.5783 -1.2349  0.6883
  219MOL0     H30200   4.566   0.637  13.559 -3.2771  0.6229  1.9299
  219MOL0     H30201   4.543   0.468  13.520  0.4596  0.5034 -1.3826
  219MOL0     H30202   4.562   1.138  12.798  2.1401  2.6149 -1.4010
  219MOL0     H30203   4.748   1.221  12.681 -1.3711 -0.2361  1.0539
  219MOL0     H30204   5.058   0.975  12.209 -0.8742 -1.4681  1.2661
  219MOL0     H30205   5.302   0.912  12.137 -2.5281  1.2082 -0.2691
  219MOL0     H30206   6.404   0.871  11.182  2.2145  1.3560 -1.0062
  219MOL0     H30207   6.504   1.079  11.257  1.1581 -0.3628 -0.7543
  219MOL0     H30208   6.602   1.484  11.196 -2.2453  0.2287 -0.7306
  219MOL0     H30209   6.692   1.713  11.259 -0.8657  0.4648  0.1889
  219MOL0     H30210   6.694   1.757  11.683 -2.2985  2.4207  0.9311
  219MOL0     H30211   6.825   1.846  11.612  0.0782  3.9064  0.1818
  219MOL0     H30212   6.700   1.952  11.783 -3.0195 -2.8487  0.6563
  219MOL0     H30213   6.553   1.963  11.691  0.4557  2.6487 -1.7954
  219MOL0     H30214   6.819   2.055  11.577  0.5010 -1.6113  2.0229
  219MOL0     H30215   6.662   2.130  11.529  0.3218  1.4841  0.2465
  219MOL0     H30216   6.800   2.287  11.652  1.0269 -0.5425  0.7424
  219MOL0     H30217   6.798   2.184  11.796  0.5412  1.7163  0.1841
  219MOL0     H30218   6.404   2.335  11.801 -0.0088  2.0915 -0.8917
  219MOL0     H30219   6.488   1.697  11.621 -1.9218 -0.8578  0.5045
  219MOL0     H30220   6.248   1.467  11.556  1.1461  1.5440 -1.7946
  219MOL0     H30221   6.385   1.401  11.654 -2.0945 -1.1129  0.7054
  219MOL0     H30222   6.322   1.565  11.671  0.5271  0.1545  0.3162
  220MOL0     O30223   8.917   3.162   1.350 -0.1800 -0.1991  0.2309
  220MOL0     C30224   8.942   3.062   1.422  0.3714 -0.3004  0.0939
  220MOL0     O30225   9.025   2.963   1.390  0.4040 -0.1365  0.2332
  220MOL0     C30226   9.055   2.930   1.260 -0.3539  0.1303 -0.1737
  220MOL0     C30227   9.188   2.924   1.215 -0.3742 -0.2471 -0.3681
  220MOL0     C30228   9.225   2.872   1.086 -0.3486 -0.4259 -0.7393
  220MOL0     C30229   9.120   2.854   0.994  0.3552  0.2405  0.8081
  220MOL0     O30230   9.126   2.830   0.862 -0.0180 -0.2215 -0.0182
  220MOL0     C30231   9.259   2.819   0.802  0.5110  0.5501  0.4187
  220MOL0     C30232   9.243   2.769   0.662 -0.1366  0.0112  0.1726
  220MOL0     C30233   9.372   2.774   0.583 -0.3797  0.1366  0.7067
  220MOL0     C30234   9.364   2.668   0.473 -0.6948 -1.0082 -0.5746
  220MOL0     C30235   9.479   2.684   0.364 -0.1963  0.8076 -0.5715
  220MOL0     C30236   9.447   2.627   0.224  0.0339 -0.5101  0.4978
  220MOL0     C30237   9.356   2.736   0.151  0.4140  0.6144  0.6019
  220MOL0     C30238   9.417   2.865   0.108  0.0216 -0.3220  0.6993
  220MOL0     N30239   9.546   2.860   0.045 -0.8307 -0.7197  0.4521
  220MOL0     C30240   9.657   2.929   0.080  0.5324 -0.3947 -0.1563
  220MOL0     C30241   9.733   2.944  -0.025 -0.2268  0.6239  0.7501
  220MOL0     C30242   9.874   2.986  -0.048  0.0067 -0.0516  0.1635
  220MOL0     C30243   9.888   3.102  -0.146 -0.7728  0.0212  0.5482
  220MOL0     C30244  10.033   3.145  -0.157 -0.6258 -0.1251 -0.4802
  220MOL0     C30245  10.077   3.244  -0.268  0.8752 -0.0453  0.9006
  220MOL0     O30246  10.057   3.200  -0.401  0.3254  0.4690  0.3208
  220MOL0     C30247  10.147   3.115  -0.458 -0.8267  0.5509 -0.5268
  220MOL0     C30248  10.095   3.031  -0.552  0.6398  0.7545  0.3160
  220MOL0     C30249  10.182   2.955  -0.631  0.3000 -0.2154  0.3015
  220MOL0     C30250  10.110   2.857  -0.722 -0.3476 -0.2516 -0.1939
  220MOL0     C30251  10.322   2.950  -0.606 -0.3744  0.3194 -0.6446
  220MOL0     C30252  10.422   2.871  -0.688  0.0135 -0.2547 -0.9768
  220MOL0     O30253  10.558   2.903  -0.678 -0.5172 -0.3158  0.9696
  220MOL0     C30254  10.644   2.841  -0.768 -0.9907  0.0140 -0.6768
  220MOL0     C30255  10.650   2.706  -0.769 -0.1629  0.0334  0.3622
  220MOL0     C30256  10.723   2.639  -0.867  0.1583 -0.9730 -0.1610
  220MOL0     C30257  10.794   2.706  -0.968  0.5280 -0.8312 -0.0882
  220MOL0     O30258  10.857   2.656  -1.069  0.2749 -0.2242 -0.0345
  220MOL0     C30259  10.970   2.572  -1.028 -0.2778 -0.3345  0.4658
  220MOL0     C30260  11.067   2.666  -0.943 -0.3467 -0.9840 -0.3306
  220MOL0     C30261  11.210   2.611  -0.936 -0.1171 -0.0320 -0.9583
  220MOL0     C30262  11.306   2.719  -0.891  0.4259 -0.0941  0.3424
  220MOL0     C30263  11.449   2.644  -0.874  0.6604  0.2182  0.1119
  220MOL0     C30264  11.552   2.740  -0.820 -0.4208  0.2960  1.1262
  220MOL0     C30265  11.588   2.868  -0.907 -0.5258 -0.1657  0.2769
  220MOL0     C30266  11.691   2.955  -0.838  0.4068  0.6795  0.2708
  220MOL0    Cl30267  11.698   3.080  -0.958 -0.2561  0.2930 -0.0063
  220MOL0     C30268  10.793   2.844  -0.954 -0.2990 -0.3210  0.8509
  220MOL0     C30269  10.713   2.916  -0.858 -0.2383  1.2187 -0.0049
  220MOL0     O30270  10.370   2.801  -0.771  0.2617  0.8009 -0.0131
  220MOL0     C30271  10.374   3.025  -0.500 -0.5993 -0.3665 -0.3189
  220MOL0     C30272  10.288   3.110  -0.427  0.3821  0.0679 -0.0579
  220MOL0     N30273   9.672   2.879  -0.134 -0.0720 -0.0972 -0.4096
  220MOL0     N30274   9.565   2.836  -0.087  0.3207  0.6913 -0.2845
  220MOL0     C30275   8.985   2.870   1.031 -0.2882 -1.0961 -0.4292
  220MOL0     C30276   8.956   2.891   1.169  1.0445 -0.0678  0.2196
  220MOL0     C30277   8.885   3.089   1.563 -0.4797  0.5826 -0.2200
  220MOL0     C30278   8.759   3.153   1.582  0.6762  0.8886  0.2269
  220MOL0     C30279   8.704   3.172   1.705 -0.0324  0.0527 -0.7234
  220MOL0     C30280   8.771   3.135   1.824  0.2683  0.2181 -0.0165
  220MOL0     O30281   8.721   3.146   1.947 -0.2335  0.4571  0.6782
  220MOL0     C30282   8.587   3.165   1.969  0.2182  0.6976 -0.4808
  220MOL0     C30283   8.553   3.163   2.122 -0.3310  0.2118  0.4813
  220MOL0     C30284   8.643   3.263   2.207 -0.5145  1.0300  1.0063
  220MOL0     C30285   8.674   3.218   2.351 -0.5970  0.0801  0.0999
  220MOL0     C30286   8.775   3.111   2.338  0.5394 -0.2387  0.2670
  220MOL0     C30287   8.855   3.021   2.331 -0.0761  0.6320 -0.1469
  220MOL0     C30288   8.887   3.060   1.808 -0.3505 -0.7011  1.5516
  220MOL0     C30289   8.949   3.039   1.683 -0.4661  1.0236 -0.0785
  220MOL0     C30290   9.068   2.945   1.692 -1.1537  0.4575 -0.1109
  220MOL0     H30291   9.261   2.960   1.286  0.2849  3.9204 -2.8513
  220MOL0     H30292   9.326   2.874   1.047 -0.3000  3.8177 -0.9337
  220MOL0     H30293   9.315   2.739   0.853 -3.7610 -3.1086 -0.0677
  220MOL0     H30294   9.321   2.910   0.806  1.8120 -0.2240 -1.0605
  220MOL0     H30295   9.213   2.664   0.666 -2.0009  0.4481 -0.9684
  220MOL0     H30296   9.167   2.824   0.605 -0.8496 -1.5890 -0.5091
  220MOL0     H30297   9.378   2.881   0.558 -2.4262  0.7612  2.5608
  220MOL0     H30298   9.454   2.745   0.649  1.0202  1.7908 -0.2031
  220MOL0     H30299   9.354   2.567   0.515 -1.7236 -0.0517  1.6483
  220MOL0     H30300   9.274   2.692   0.415 -0.9495  1.3054  0.6454
  220MOL0     H30301   9.559   2.626   0.411  1.4620  2.2554 -1.5187
  220MOL0     H30302   9.513   2.787   0.356  2.4634  0.0778  0.4363
  220MOL0     H30303   9.533   2.619   0.156  0.8492  0.5293  1.3555
  220MOL0     H30304   9.379   2.542   0.226 -2.7802  1.5132  4.5838
  220MOL0     H30305   9.265   2.743   0.211  0.5961 -2.5535  1.4720
  220MOL0     H30306   9.336   2.694   0.052  0.3726 -0.1068  0.9062
  220MOL0     H30307   9.353   2.900   0.026  1.0830  1.5603  0.6283
  220MOL0     H30308   9.418   2.940   0.188  1.3993  0.5335 -0.0797
  220MOL0     H30309   9.675   2.984   0.172 -0.2332  1.6012 -1.1395
  220MOL0     H30310   9.938   2.903  -0.077  0.2552  0.9192 -2.2865
  220MOL0     H30311   9.921   3.012   0.048  0.3749 -0.3532  0.0660
  220MOL0     H30312   9.845   3.074  -0.242  2.0200  0.7631 -1.0355
  220MOL0     H30313   9.828   3.184  -0.107 -0.0492  1.1962 -0.7308
  220MOL0     H30314  10.063   3.198  -0.065  1.2522 -0.3405 -0.9308
  220MOL0     H30315  10.096   3.056  -0.162 -0.2184  0.1650 -0.5676
  220MOL0     H30316  10.008   3.329  -0.266 -1.5987 -1.9476  1.5812
  220MOL0     H30317  10.177   3.280  -0.248  1.9469 -2.0820 -0.3927
  220MOL0     H30318   9.992   3.041  -0.584  0.0515 -3.0846  0.4812
  220MOL0     H30319  10.124   2.885  -0.827 -2.2047  1.8906  0.0356
  220MOL0     H30320  10.001   2.860  -0.713 -0.2982  2.4115  0.5062
  220MOL0     H30321  10.152   2.762  -0.688  3.7184  0.7668 -1.8447
  220MOL0     H30322  10.604   2.646  -0.692 -0.6440  2.2274  1.8724
  220MOL0     H30323  10.724   2.532  -0.880  2.9762 -0.9099 -1.1747
  220MOL0     H30324  10.944   2.485  -0.968  3.4927 -1.5982  0.5150
  220MOL0     H30325  11.025   2.537  -1.115  1.2752 -1.1327  1.7169
  220MOL0     H30326  11.074   2.761  -0.996  0.2094 -1.3885 -0.9857
  220MOL0     H30327  11.019   2.678  -0.845 -2.0864 -3.9145 -0.6657
  220MOL0     H30328  11.241   2.569  -1.032  2.0414  1.1301 -0.8473
  220MOL0     H30329  11.220   2.530  -0.863  2.4056  0.0501 -1.1131
  220MOL0     H30330  11.266   2.749  -0.794 -1.0431 -1.3054  0.1532
  220MOL0     H30331  11.306   2.806  -0.957 -0.2831  1.6148  2.4759
  220MOL0     H30332  11.447   2.552  -0.815 -0.1213 -2.0418 -3.1905
  220MOL0     H30333  11.479   2.609  -0.973 -0.7982 -0.0285 -0.2764
  220MOL0     H30334  11.644   2.682  -0.824 -1.4345 -1.3565 -3.0398
  220MOL0     H30335  11.527   2.773  -0.718  3.9897  2.0647  1.8398
  220MOL0     H30336  11.499   2.925  -0.933 -1.3304  0.1156  3.2424
  220MOL0     H30337  11.631   2.841  -1.004 -0.4397 -0.3841  0.3747
  220MOL0     H30338  11.788   2.919  -0.804  1.1483  0.2746 -2.1054
  220MOL0     H30339  11.652   2.989  -0.742  0.5283 -2.4982  1.5662
  220MOL0     H30340  10.863   2.897  -1.018 -0.6495  1.8431  2.1542
  220MOL0     H30341  10.710   3.025  -0.858  2.1139  1.4281 -3.1508
  220MOL0     H30342  10.480   3.034  -0.479 -0.0587 -1.5202 -2.3197
  220MOL0     H30343  10.321   3.174  -0.346  1.9172  0.9485 -1.3101
  220MOL0     H30344   8.900   2.874   0.963 -0.7365 -1.8819  0.0742
  220MOL0     H30345   8.854   2.891   1.204  1.6152 -2.5488  2.1521
  220MOL0     H30346   8.706   3.186   1.494  1.1640 -2.0934 -1.3503
  220MOL0     H30347   8.609   3.223   1.721  1.9014  3.0374  3.0465
  220MOL0     H30348   8.543   3.256   1.925 -3.3306  0.7516  2.6998
  220MOL0     H30349   8.532   3.083   1.922  0.2114 -1.2012  2.6130
  220MOL0     H30350   8.570   3.066   2.170 -1.0905  0.6939  1.7904
  220MOL0     H30351   8.450   3.196   2.139 -0.4036  0.4081 -0.2813
  220MOL0     H30352   8.740   3.287   2.162 -0.0748  3.6844  3.0822
  220MOL0     H30353   8.592   3.360   2.202  0.1583  1.4026  1.2328
  220MOL0     H30354   8.579   3.200   2.402 -1.7068 -0.1599 -1.9396
  220MOL0     H30355   8.723   3.300   2.404  0.2831 -0.4525  0.1249
  220MOL0     H30356   8.934   2.948   2.324 -1.9795 -1.3806 -2.7643
  220MOL0     H30357   8.940   3.038   1.901  2.7153  2.9556  0.9249
  220MOL0     H30358   9.048   2.837   1.693  0.4166  0.1325 -0.6364
  220MOL0     H30359   9.140   2.958   1.612 -0.7341 -1.7747 -0.1788
  220MOL0     H30360   9.123   2.953   1.786 -2.0520 -2.3474  0.7640
  221MOL0     O30361   6.946   2.671   9.243  0.2111  0.2285 -0.1509
  221MOL0     C30362   6.950   2.702   9.368 -0.4352 -0.1350 -0.2688
  221MOL0     O30363   7.018   2.803   9.424 -0.6767  0.3654 -0.2911
  221MOL0     C30364   7.131   2.855   9.369 -0.2190 -0.0628 -0.6633
  221MOL0     C30365   7.252   2.836   9.434  0.1273 -0.2921  0.4952
  221MOL0     C30366   7.372   2.876   9.386 -0.0874  0.6227 -0.9181
  221MOL0     C30367   7.377   2.931   9.261 -0.0708 -0.7629  0.9273
  221MOL0     O30368   7.482   2.995   9.202 -0.5087 -0.1528 -0.3917
  221MOL0     C30369   7.614   2.966   9.246 -1.0077 -0.0537  0.9924
  221MOL0     C30370   7.671   2.854   9.159 -0.0446  0.3348  1.5409
  221MOL0     C30371   7.804   2.790   9.204  0.7291  0.9366 -0.1511
  221MOL0     C30372   7.903   2.876   9.288 -0.1680  0.0913 -0.1417
  221MOL0     C30373   8.000   2.784   9.352 -0.0081  0.8045  0.5525
  221MOL0     C30374   8.081   2.872   9.449  0.0326  0.0845 -0.4418
  221MOL0     C30375   8.194   2.805   9.519 -0.0727  0.3553 -0.2796
  221MOL0     C30376   8.322   2.777   9.434  1.2658  0.0849  0.1618
  221MOL0     N30377   8.388   2.653   9.487  0.4660  0.3468  0.4897
  221MOL0     C30378   8.328   2.532   9.478  0.3190  0.6476 -0.3255
  221MOL0     C30379   8.414   2.450   9.538 -0.2736 -0.1162  0.0265
  221MOL0     C30380   8.385   2.305   9.558 -0.0182  0.8013  0.0739
  221MOL0     C30381   8.372   2.259   9.704 -0.8081 -0.2386  0.2977
  221MOL0     C30382   8.323   2.116   9.732 -0.6246 -0.6891 -0.1190
  221MOL0     C30383   8.425   2.015   9.789 -0.6714 -0.2289 -0.1850
  221MOL0     O30384   8.460   2.051   9.919  0.7927  0.6857  0.2693
  221MOL0     C30385   8.567   1.989   9.977 -1.6618 -0.1755 -0.0759
  221MOL0     C30386   8.613   2.042  10.095 -0.2480 -0.0657  0.2648
  221MOL0     C30387   8.725   1.997  10.171 -0.3822 -0.1692  0.6066
  221MOL0     C30388   8.759   2.081  10.291  0.1330 -0.2609  0.2119
  221MOL0     C30389   8.792   1.887  10.126  0.0593  0.2096 -0.1614
  221MOL0     C30390   8.910   1.830  10.196 -0.0212 -0.2896  0.5718
  221MOL0     O30391   8.959   1.712  10.150  0.4543  0.5437  0.1867
  221MOL0     C30392   9.078   1.654  10.185 -0.6227 -0.8586 -0.6846
  221MOL0     C30393   9.203   1.725  10.177  0.5969 -0.7100  0.3769
  221MOL0     C30394   9.327   1.666  10.208  0.2213  1.8381  0.0141
  221MOL0     C30395   9.324   1.531  10.254  0.3757 -0.1104  0.4044
  221MOL0     O30396   9.440   1.467  10.296 -0.0885  0.1911 -0.0149
  221MOL0     C30397   9.568   1.528  10.311 -0.1677  0.3877 -0.7283
  221MOL0     C30398   9.635   1.509  10.173 -0.3022  0.6440  0.5331
  221MOL0     C30399   9.608   1.358  10.112 -0.3829  0.3470 -0.7473
  221MOL0     C30400   9.682   1.323   9.984  0.3987 -0.6468  0.1111
  221MOL0     C30401   9.630   1.404   9.865 -0.0291  0.2845  0.9529
  221MOL0     C30402   9.481   1.415   9.853  0.0661 -0.9402  0.5388
  221MOL0     C30403   9.406   1.283   9.838 -0.9900 -0.2663 -0.0291
  221MOL0     C30404   9.456   1.199   9.717  0.1392  0.8704 -0.0003
  221MOL0    Cl30405   9.408   1.282   9.564  0.1288  0.0591 -0.0215
  221MOL0     C30406   9.212   1.460  10.263  0.4331  0.2370  0.4897
  221MOL0     C30407   9.092   1.517  10.215 -0.1085  0.1613 -1.0503
  221MOL0     O30408   8.975   1.904  10.275  0.0618  0.0371 -0.7606
  221MOL0     C30409   8.744   1.818  10.009 -0.2308  0.3889 -0.6778
  221MOL0     C30410   8.641   1.873   9.929  0.6573 -0.2098  0.4317
  221MOL0     N30411   8.517   2.526   9.591 -0.5753  0.1864 -0.1621
  221MOL0     N30412   8.513   2.654   9.544  0.0240  1.9926 -0.1004
  221MOL0     C30413   7.257   2.943   9.184 -0.7196  0.0944  0.2844
  221MOL0     C30414   7.137   2.899   9.241 -0.6988 -0.8003  0.2409
  221MOL0     C30415   6.872   2.622   9.468  0.0145 -0.1942 -0.5307
  221MOL0     C30416   6.823   2.690   9.583  0.1792  0.2257 -0.4842
  221MOL0     C30417   6.784   2.621   9.692  0.0804 -0.2930 -0.5849
  221MOL0     C30418   6.790   2.473   9.693 -0.5060 -0.0839  0.0443
  221MOL0     O30419   6.762   2.401   9.806 -0.1038 -0.7919 -0.4970
  221MOL0     C30420   6.869   2.414   9.898 -0.2584 -0.0575  0.3037
  221MOL0     C30421   6.853   2.510  10.015  0.3492  0.0778 -0.0891
  221MOL0     C30422   6.746   2.464  10.112  0.4061  0.2623 -0.1074
  221MOL0     C30423   6.723   2.577  10.217  0.1065  0.3342  0.6524
  221MOL0     C30424   6.805   2.549  10.331  0.3984  1.0198  0.5027
  221MOL0     C30425   6.883   2.526  10.421 -0.3017  0.2414 -0.3652
  221MOL0     C30426   6.827   2.412   9.583  0.2912 -0.3882  0.6721
  221MOL0     C30427   6.872   2.483   9.468 -0.4400 -0.1350  0.0601
  221MOL0     C30428   6.941   2.396   9.380 -0.0011  0.5521  0.7265
  221MOL0     H30429   7.235   2.801   9.535  0.4324  2.7091  1.7062
  221MOL0     H30430   7.454   2.874   9.458 -2.9546 -3.2390  2.7903
  221MOL0     H30431   7.625   2.939   9.351 -1.7297 -0.4261  0.9793
  221MOL0     H30432   7.677   3.051   9.220  2.2505 -2.6736 -0.4511
  221MOL0     H30433   7.601   2.772   9.144  3.6636 -2.8996  0.3918
  221MOL0     H30434   7.682   2.909   9.065 -0.6326  0.3971  1.5038
  221MOL0     H30435   7.769   2.707   9.267 -1.0269  1.0308 -0.9233
  221MOL0     H30436   7.847   2.734   9.120 -4.9001 -0.5785 -2.5435
  221MOL0     H30437   7.957   2.953   9.233  1.9491 -1.6698 -0.6605
  221MOL0     H30438   7.844   2.924   9.367 -0.5006  1.3773 -1.1413
  221MOL0     H30439   8.061   2.737   9.274  0.9580 -1.3828  2.4957
  221MOL0     H30440   7.953   2.701   9.405  0.5942 -1.3633 -2.0871
  221MOL0     H30441   8.121   2.960   9.398  1.3894 -1.9058 -3.0316
  221MOL0     H30442   8.005   2.902   9.522  0.8984  0.9345  0.1338
  221MOL0     H30443   8.148   2.712   9.555 -2.9936  1.7235 -0.2056
  221MOL0     H30444   8.236   2.874   9.592  3.8784 -0.4309 -1.5400
  221MOL0     H30445   8.290   2.763   9.331 -0.6637  2.0926  0.4198
  221MOL0     H30446   8.403   2.850   9.437  2.5683 -0.9380 -4.0098
  221MOL0     H30447   8.236   2.506   9.426  2.0490  0.3460 -3.4844
  221MOL0     H30448   8.460   2.244   9.507 -1.2665 -1.7471  1.0788
  221MOL0     H30449   8.297   2.273   9.500 -0.1114  1.6657 -0.2688
  221MOL0     H30450   8.473   2.268   9.744  0.5343  0.7596 -2.9903
  221MOL0     H30451   8.320   2.332   9.767  2.0987  0.3734  2.2122
  221MOL0     H30452   8.244   2.122   9.808  1.8942 -3.4928  3.0442
  221MOL0     H30453   8.293   2.078   9.634  0.7292 -1.9997 -0.0551
  221MOL0     H30454   8.371   1.920   9.777 -2.7887  1.1336 -2.4985
  221MOL0     H30455   8.509   2.008   9.720 -2.6925  0.2155 -2.8644
  221MOL0     H30456   8.567   2.127  10.143 -0.5239 -0.5518  0.8679
  221MOL0     H30457   8.856   2.127  10.270  1.0645 -1.4630  1.6584
  221MOL0     H30458   8.767   2.011  10.375  0.3720 -2.2884 -1.4286
  221MOL0     H30459   8.683   2.157  10.312  2.1265  2.9371 -2.9242
  221MOL0     H30460   9.204   1.827  10.140 -2.4244 -1.1625 -1.2750
  221MOL0     H30461   9.418   1.721  10.187 -0.0588  2.2996 -0.0104
  221MOL0     H30462   9.567   1.634  10.337  2.6471  0.3217  0.0524
  221MOL0     H30463   9.618   1.487  10.400  0.5792  0.9211 -0.8885
  221MOL0     H30464   9.579   1.570  10.102 -1.1746 -1.0101 -0.2416
  221MOL0     H30465   9.741   1.531  10.188  0.2883 -0.4295 -1.7153
  221MOL0     H30466   9.502   1.346  10.084  0.3770 -0.7445 -3.5265
  221MOL0     H30467   9.622   1.282  10.189  0.0693 -1.2547 -2.3545
  221MOL0     H30468   9.670   1.215   9.972  0.5409 -0.7485  0.8673
  221MOL0     H30469   9.790   1.343   9.993  0.1001  0.8797  0.5925
  221MOL0     H30470   9.674   1.504   9.860 -2.6361  1.4686 -0.9233
  221MOL0     H30471   9.680   1.357   9.780 -0.0333  0.6356  0.7499
  221MOL0     H30472   9.449   1.483   9.774  0.9451 -0.1404  0.8539
  221MOL0     H30473   9.446   1.471   9.940  0.0628  2.2917 -1.3742
  221MOL0     H30474   9.299   1.302   9.828 -0.7169  0.3786 -2.1248
  221MOL0     H30475   9.417   1.217   9.925 -0.8513 -1.4325 -0.9106
  221MOL0     H30476   9.405   1.103   9.725 -0.7078  1.3487  0.4172
  221MOL0     H30477   9.563   1.176   9.726 -0.2955 -1.4283 -0.0701
  221MOL0     H30478   9.217   1.365  10.315 -2.3783 -0.5176 -0.4565
  221MOL0     H30479   9.005   1.452  10.208 -0.7704  1.1514 -2.6079
  221MOL0     H30480   8.784   1.725   9.971  0.7778  0.7984 -0.6666
  221MOL0     H30481   8.616   1.824   9.836  0.3053  0.0574  0.3842
  221MOL0     H30482   7.261   2.968   9.078  1.8099 -2.7082 -0.4240
  221MOL0     H30483   7.053   2.907   9.173 -0.1791  5.1163 -0.2166
  221MOL0     H30484   6.826   2.798   9.576 -1.2928  0.3655  0.4581
  221MOL0     H30485   6.735   2.674   9.773 -1.9343  0.4542 -2.2085
  221MOL0     H30486   6.881   2.312   9.937 -1.8650  0.2182  1.6155
  221MOL0     H30487   6.962   2.443   9.848 -0.3344  0.4467  0.4589
  221MOL0     H30488   6.824   2.609   9.979  0.3849 -0.2259 -0.9659
  221MOL0     H30489   6.949   2.516  10.068  0.6392 -1.3694 -0.4201
  221MOL0     H30490   6.658   2.459  10.047  0.1331  1.9543  0.0822
  221MOL0     H30491   6.776   2.365  10.148 -1.0899 -0.6959 -1.3388
  221MOL0     H30492   6.619   2.570  10.249  0.6344 -2.3369  2.0811
  221MOL0     H30493   6.752   2.675  10.180 -0.5694  0.3274  0.0825
  221MOL0     H30494   6.959   2.518  10.496 -0.5192 -0.0785 -0.1784
  221MOL0     H30495   6.841   2.305   9.590  3.2600 -0.0612  1.0015
  221MOL0     H30496   6.912   2.422   9.278 -1.5282  0.0214  0.9969
  221MOL0     H30497   7.050   2.392   9.382  0.3648  3.5905 -2.9032
  221MOL0     H30498   6.909   2.293   9.398 -0.1154  0.7422  1.6758
  222MOL0     O30499   3.556   2.109   3.466  0.6003 -0.3956  0.5027
  222MOL0     C30500   3.593   2.046   3.363  0.2602  0.1727 -0.6952
  222MOL0     O30501   3.532   1.947   3.297  0.2039  1.0383  1.0121
  222MOL0     C30502   3.405   1.900   3.337 -0.1004 -0.3749 -0.2793
  222MOL0     C30503   3.354   1.912   3.471 -0.1062 -0.4029 -0.2130
  222MOL0     C30504   3.225   1.875   3.502  0.8859  0.2464 -0.0380
  222MOL0     C30505   3.139   1.816   3.406  0.3309  0.6106 -0.0587
  222MOL0     O30506   3.020   1.773   3.456  1.2800 -0.0986  0.6665
  222MOL0     C30507   2.926   1.712   3.368  0.0810  0.6982  0.3987
  222MOL0     C30508   2.786   1.749   3.420 -0.2213  0.7198  0.3866
  222MOL0     C30509   2.759   1.670   3.540 -1.3371  0.5785  0.0094
  222MOL0     C30510   2.619   1.684   3.589  1.3944  0.6196 -0.4951
  222MOL0     C30511   2.558   1.548   3.645  0.3136 -0.4361  0.1368
  222MOL0     C30512   2.404   1.571   3.664 -0.1926  1.2353 -0.9664
  222MOL0     C30513   2.378   1.657   3.784  0.4997  0.6099  0.0843
  222MOL0     C30514   2.233   1.693   3.808 -0.5669 -1.0664  0.0648
  222MOL0     N30515   2.205   1.792   3.916 -0.8997  0.1006  0.2507
  222MOL0     C30516   2.259   1.922   3.914  0.4560  0.3087 -0.2258
  222MOL0     C30517   2.209   1.982   4.028  0.4971  0.6817  0.1666
  222MOL0     C30518   2.240   2.116   4.064 -1.0057  0.1425 -0.6651
  222MOL0     C30519   2.297   2.109   4.207 -0.5744  0.3892  0.4424
  222MOL0     C30520   2.405   1.998   4.240 -0.2789  1.1696  0.5652
  222MOL0     C30521   2.536   2.052   4.307  0.0642  0.2565 -0.0052
  222MOL0     O30522   2.527   2.048   4.451 -0.0884 -0.4693 -0.4729
  222MOL0     C30523   2.637   2.000   4.527 -0.3470 -0.6680  0.6730
  222MOL0     C30524   2.678   2.067   4.649  0.0525  1.2550 -0.1167
  222MOL0     C30525   2.792   2.021   4.722  0.3432 -1.5625 -1.0213
  222MOL0     C30526   2.841   2.130   4.823 -0.1870  0.1724 -0.4069
  222MOL0     C30527   2.854   1.904   4.692  0.3465 -0.2017  0.5925
  222MOL0     C30528   2.968   1.855   4.766  0.2497 -0.6551 -0.1648
  222MOL0     O30529   3.025   1.743   4.710  0.2399  0.0941 -0.1754
  222MOL0     C30530   3.107   1.660   4.777 -0.1358  0.3484 -0.2560
  222MOL0     C30531   3.072   1.618   4.906 -1.0491  0.2187 -0.6390
  222MOL0     C30532   3.162   1.535   4.976  0.2903  0.6457  0.5528
  222MOL0     C30533   3.280   1.483   4.926 -0.7399 -0.6716  0.0244
  222MOL0     O30534   3.383   1.418   5.000  0.8776  0.3104  0.0588
  222MOL0     C30535   3.335   1.315   5.087  0.3402 -0.8427  0.3504
  222MOL0     C30536   3.441   1.203   5.122  0.3818 -0.6913 -0.7004
  222MOL0     C30537   3.470   1.122   4.992  0.4154 -0.2802  0.0467
  222MOL0     C30538   3.368   1.014   4.958 -0.2782  0.7962  0.3055
  222MOL0     C30539   3.442   0.891   4.895  0.5496  0.4316  0.5060
  222MOL0     C30540   3.488   0.900   4.740 -0.0483 -0.4799  0.2043
  222MOL0     C30541   3.561   0.780   4.690 -0.4045  0.5497 -0.6143
  222MOL0     C30542   3.548   0.757   4.544  0.1147 -0.1825  0.0204
  222MOL0    Cl30543   3.589   0.904   4.445 -0.2009 -0.1169 -0.2545
  222MOL0     C30544   3.311   1.514   4.791  0.2792  0.0505 -0.1032
  222MOL0     C30545   3.226   1.596   4.714 -0.1536 -0.1777 -0.2321
  222MOL0     O30546   2.995   1.898   4.876 -0.6232 -0.0928  1.0111
  222MOL0     C30547   2.812   1.843   4.575 -0.0762 -0.4433  0.2783
  222MOL0     C30548   2.707   1.890   4.499  0.9641  0.7203 -0.8085
  222MOL0     N30549   2.130   1.887   4.090 -0.8344 -0.3134  0.2170
  222MOL0     N30550   2.127   1.771   4.025  0.3495  0.1914 -0.1953
  222MOL0     C30551   3.196   1.793   3.281 -0.7359  0.8237 -0.0393
  222MOL0     C30552   3.325   1.833   3.245 -0.1298  0.8908 -0.1930
  222MOL0     C30553   3.724   2.079   3.304 -0.9865 -1.2333  0.6828
  222MOL0     C30554   3.814   1.972   3.262 -0.3182 -1.4559 -0.1623
  222MOL0     C30555   3.943   2.003   3.219  0.6958 -0.1099 -0.6441
  222MOL0     C30556   3.991   2.132   3.226  0.0010  0.4042  1.4719
  222MOL0     O30557   4.122   2.157   3.195  0.1964  0.0155  0.5739
  222MOL0     C30558   4.141   2.268   3.097 -0.0818  0.8952 -0.2503
  222MOL0     C30559   4.073   2.239   2.958  0.3629 -0.1420 -1.2122
  222MOL0     C30560   4.089   2.357   2.857  0.8895  0.5621  0.2341
  222MOL0     C30561   4.236   2.405   2.840 -0.0014  0.6568 -0.0361
  222MOL0     C30562   4.255   2.472   2.707 -0.4563  0.4732  0.1120
  222MOL0     C30563   4.277   2.530   2.600 -0.6528  0.9216 -0.4185
  222MOL0     C30564   3.908   2.234   3.273  1.1513  0.1465  0.1272
  222MOL0     C30565   3.769   2.220   3.298 -0.9137  0.8692 -0.5333
  222MOL0     C30566   3.675   2.340   3.325 -0.0370  0.4057 -0.4445
  222MOL0     H30567   3.413   1.959   3.549  2.7366 -2.8578 -0.7033
  222MOL0     H30568   3.190   1.881   3.605  0.4927  2.2897 -0.2474
  222MOL0     H30569   2.946   1.605   3.366 -1.9733  0.2707  0.4681
  222MOL0     H30570   2.935   1.742   3.263  0.9884  0.4635  0.4006
  222MOL0     H30571   2.772   1.857   3.425  2.6284  1.4312 -3.0527
  222MOL0     H30572   2.720   1.722   3.336 -1.0361  1.0916  0.8863
  222MOL0     H30573   2.775   1.565   3.518  0.0431 -0.2568  4.1142
  222MOL0     H30574   2.841   1.690   3.610  2.3892  1.4180 -4.1547
  222MOL0     H30575   2.610   1.763   3.664  1.5782 -1.0040  1.3389
  222MOL0     H30576   2.555   1.705   3.502  1.5891  1.5511 -0.4208
  222MOL0     H30577   2.600   1.528   3.744  2.0961  0.5723 -0.3705
  222MOL0     H30578   2.587   1.485   3.561  1.3039  1.9076 -1.4033
  222MOL0     H30579   2.358   1.618   3.576 -1.1666  1.1851 -0.5000
  222MOL0     H30580   2.362   1.470   3.672  3.3866 -0.6507 -3.0563
  222MOL0     H30581   2.424   1.757   3.779 -0.6589  1.1827  0.5300
  222MOL0     H30582   2.418   1.610   3.873  0.6228 -2.7592 -1.5994
  222MOL0     H30583   2.192   1.735   3.715 -0.4246 -0.8998  0.0791
  222MOL0     H30584   2.162   1.611   3.825 -2.0053 -0.0138 -0.5927
  222MOL0     H30585   2.328   1.968   3.844 -0.2440 -1.9858 -2.5647
  222MOL0     H30586   2.155   2.184   4.059 -0.6468  0.9029  1.8527
  222MOL0     H30587   2.314   2.160   3.996  1.3574 -1.2451  0.8429
  222MOL0     H30588   2.336   2.208   4.228 -0.2414 -0.0343  1.9134
  222MOL0     H30589   2.211   2.105   4.274  0.6643 -2.2351  2.0120
  222MOL0     H30590   2.366   1.919   4.305 -1.9710  2.0374  0.6459
  222MOL0     H30591   2.445   1.962   4.145  0.2403 -1.2403  1.6181
  222MOL0     H30592   2.620   1.986   4.283 -0.5692 -1.2955  1.7605
  222MOL0     H30593   2.566   2.154   4.281  3.4935  0.1723  2.7594
  222MOL0     H30594   2.626   2.159   4.675  1.8151  1.6542  2.4598
  222MOL0     H30595   2.841   2.107   4.930  1.2606  0.9543 -0.2207
  222MOL0     H30596   2.785   2.223   4.814  0.7614  0.9460  1.2399
  222MOL0     H30597   2.938   2.153   4.780 -0.2284  0.9967 -0.0732
  222MOL0     H30598   2.985   1.658   4.959  0.1518  1.2570  0.6308
  222MOL0     H30599   3.134   1.515   5.079 -0.8262 -0.1382  0.1185
  222MOL0     H30600   3.303   1.368   5.177 -1.0111  0.0841 -0.6293
  222MOL0     H30601   3.252   1.263   5.036 -0.1177  1.3431 -1.2847
  222MOL0     H30602   3.530   1.259   5.150  0.2440 -1.5747  1.7513
  222MOL0     H30603   3.416   1.134   5.203  0.7298  0.7640  0.6828
  222MOL0     H30604   3.566   1.073   5.008  0.5382 -1.3391 -3.1106
  222MOL0     H30605   3.499   1.191   4.912 -0.0848 -0.1664 -0.0403
  222MOL0     H30606   3.280   1.048   4.902 -0.0859 -3.5571 -3.1416
  222MOL0     H30607   3.337   0.983   5.058 -0.7087 -0.0595 -0.0892
  222MOL0     H30608   3.531   0.869   4.956 -0.7267 -0.5636  2.0941
  222MOL0     H30609   3.376   0.804   4.893 -1.4101  1.8560 -0.7066
  222MOL0     H30610   3.555   0.985   4.728  0.7575 -0.4699  3.6999
  222MOL0     H30611   3.398   0.912   4.679  0.7273 -1.8237 -1.2564
  222MOL0     H30612   3.513   0.695   4.741 -3.4754  1.5209 -1.6780
  222MOL0     H30613   3.665   0.803   4.714 -0.2389  2.8829 -3.1866
  222MOL0     H30614   3.451   0.710   4.522  0.1688 -1.1727  1.7304
  222MOL0     H30615   3.618   0.677   4.517 -0.6822  0.0266 -3.1434
  222MOL0     H30616   3.399   1.475   4.741  0.2029 -1.7446  1.0302
  222MOL0     H30617   3.248   1.621   4.611 -2.6073  1.2282 -0.4940
  222MOL0     H30618   2.850   1.747   4.539 -2.3306 -1.9537  1.7487
  222MOL0     H30619   2.664   1.847   4.409 -2.9873  2.1217  0.1725
  222MOL0     H30620   3.153   1.732   3.202 -0.6125  1.8833 -0.9673
  222MOL0     H30621   3.381   1.819   3.153  1.0733  0.5523  0.5572
  222MOL0     H30622   3.780   1.869   3.264  1.6925 -2.1580  1.5782
  222MOL0     H30623   4.006   1.927   3.173  0.9562 -1.7716  2.1783
  222MOL0     H30624   4.114   2.363   3.142  2.3533 -0.0226  3.5706
  222MOL0     H30625   4.249   2.269   3.076  0.6717 -0.7681  2.8727
  222MOL0     H30626   3.969   2.208   2.972 -0.1750  1.4915 -1.4105
  222MOL0     H30627   4.129   2.158   2.910 -0.0233  0.6075 -3.0191
  222MOL0     H30628   4.052   2.308   2.767 -0.4239  0.2835  0.8991
  222MOL0     H30629   4.024   2.442   2.878 -1.5914 -1.6372  2.0996
  222MOL0     H30630   4.304   2.320   2.836 -0.8189  0.0216 -0.9853
  222MOL0     H30631   4.265   2.469   2.924 -0.6522 -0.4253  1.0471
  222MOL0     H30632   4.292   2.576   2.505  1.3631  1.6480  0.2111
  222MOL0     H30633   3.950   2.331   3.296  0.8202  0.5955 -1.0478
  222MOL0     H30634   3.706   2.387   3.419 -4.1785  3.2817 -0.2347
  222MOL0     H30635   3.682   2.409   3.241  0.4092  2.2984  1.0869
  222MOL0     H30636   3.570   2.310   3.333 -0.9570  3.1114 -1.5262
  223MOL0     O30637   7.191   0.647   6.669 -0.3128 -0.0967 -0.0528
  223MOL0     C30638   7.270   0.662   6.578 -0.4087 -0.1242 -0.8351
  223MOL0     O30639   7.378   0.592   6.560  0.2103  0.2096  0.4542
  223MOL0     C30640   7.412   0.477   6.621  0.0601 -1.6182 -0.2031
  223MOL0     C30641   7.356   0.415   6.735  0.8361 -0.2457 -0.4477
  223MOL0     C30642   7.426   0.312   6.798 -0.3553 -0.3238 -1.0028
  223MOL0     C30643   7.557   0.276   6.766 -1.0354  0.1041  0.8069
  223MOL0     O30644   7.622   0.180   6.840  0.3393  0.2788  0.2328
  223MOL0     C30645   7.753   0.123   6.805  0.5412  0.6239  0.3726
  223MOL0     C30646   7.779   0.032   6.927 -0.2041 -0.1703 -0.1051
  223MOL0     C30647   7.900  -0.044   6.916 -0.0740 -0.0011 -0.3072
  223MOL0     C30648   7.895  -0.155   7.019  0.1439 -0.4005  0.2255
  223MOL0     C30649   8.030  -0.238   7.027  0.6086 -0.2977  0.8946
  223MOL0     C30650   8.007  -0.340   7.133  0.5028  0.1371  0.5554
  223MOL0     C30651   8.126  -0.438   7.143 -0.4642  0.9269 -0.0979
  223MOL0     C30652   8.241  -0.404   7.243 -0.7065  0.0663 -0.2851
  223MOL0     N30653   8.338  -0.513   7.259 -0.4904  0.4773  0.0890
  223MOL0     C30654   8.387  -0.606   7.164 -0.3592 -0.6958  0.5324
  223MOL0     C30655   8.462  -0.701   7.231 -1.1570 -0.6942  0.0809
  223MOL0     C30656   8.514  -0.832   7.164  0.0899 -0.5202 -0.1228
  223MOL0     C30657   8.604  -0.799   7.054 -0.1898  0.0738  0.2170
  223MOL0     C30658   8.641  -0.928   6.979  0.3151  0.7297  0.6479
  223MOL0     C30659   8.700  -0.900   6.830  0.3993  0.6602 -0.0281
  223MOL0     O30660   8.813  -0.806   6.856  0.2905 -0.3564  0.0966
  223MOL0     C30661   8.950  -0.842   6.845  0.1196  0.8279 -0.5437
  223MOL0     C30662   9.038  -0.738   6.826 -0.9540  0.9247 -0.4056
  223MOL0     C30663   9.170  -0.765   6.797  0.9559  0.0414 -0.9269
  223MOL0     C30664   9.270  -0.649   6.787  0.1337 -0.1285  0.4103
  223MOL0     C30665   9.220  -0.900   6.811  0.1461 -1.7276  0.0073
  223MOL0     C30666   9.371  -0.928   6.809 -0.5093  0.4441  0.1990
  223MOL0     O30667   9.454  -0.825   6.748 -0.7025  0.2665 -0.2451
  223MOL0     C30668   9.596  -0.833   6.736  0.3684  0.4503 -0.1614
  223MOL0     C30669   9.654  -0.745   6.645  0.8847  0.2333 -0.0015
  223MOL0     C30670   9.790  -0.735   6.636 -0.7029  0.0172  0.6599
  223MOL0     C30671   9.878  -0.818   6.703 -1.2027  0.1696 -0.2138
  223MOL0     O30672  10.010  -0.788   6.683 -0.4775 -0.2904  0.3233
  223MOL0     C30673  10.107  -0.861   6.768 -0.0078  0.4944  0.1837
  223MOL0     C30674  10.249  -0.838   6.721 -0.0550 -0.5081  0.5087
  223MOL0     C30675  10.299  -0.696   6.715  0.5513  0.6356  0.2642
  223MOL0     C30676  10.286  -0.616   6.843 -0.2553 -0.3257 -1.0190
  223MOL0     C30677  10.225  -0.474   6.826 -0.0638 -1.2244  0.6714
  223MOL0     C30678  10.239  -0.387   6.951  0.9734 -0.3901 -0.0469
  223MOL0     C30679  10.223  -0.235   6.939 -0.4389 -0.2698  0.8302
  223MOL0     C30680  10.215  -0.165   7.073  0.3971 -0.2591  1.0387
  223MOL0    Cl30681  10.038  -0.191   7.133 -0.2467 -0.2778  0.1049
  223MOL0     C30682   9.819  -0.912   6.793  0.4171 -0.2558  0.8740
  223MOL0     C30683   9.679  -0.918   6.803 -0.3470  0.2200 -0.5385
  223MOL0     O30684   9.417  -1.040   6.825  0.1096  0.0936 -0.3337
  223MOL0     C30685   9.131  -1.004   6.813 -0.4158 -0.6033 -0.0115
  223MOL0     C30686   8.999  -0.978   6.844  0.6939  0.5620 -0.2841
  223MOL0     N30687   8.470  -0.648   7.361  0.4155 -0.7477 -0.4660
  223MOL0     N30688   8.395  -0.541   7.379  0.3383  0.0385 -1.0694
  223MOL0     C30689   7.603   0.321   6.646  0.2654 -1.1162  0.2040
  223MOL0     C30690   7.533   0.420   6.578 -0.8270  0.2937 -0.1338
  223MOL0     C30691   7.220   0.749   6.466 -0.4447 -0.1736 -0.6935
  223MOL0     C30692   7.079   0.754   6.446 -0.5540 -0.0932 -0.5911
  223MOL0     C30693   7.030   0.808   6.327  0.1757 -0.5357 -0.7540
  223MOL0     C30694   7.105   0.868   6.234 -0.1289  0.8405  0.4373
  223MOL0     O30695   7.041   0.926   6.129 -0.1749  0.5140  0.2157
  223MOL0     C30696   7.091   0.898   6.003  0.6600  0.2240 -0.6339
  223MOL0     C30697   7.066   1.030   5.937 -0.4973 -0.1701 -0.0558
  223MOL0     C30698   7.165   1.138   5.972 -0.3224  0.6406 -1.1334
  223MOL0     C30699   7.304   1.108   5.916 -0.3953 -0.5566 -0.0399
  223MOL0     C30700   7.387   1.209   5.975 -0.5768 -0.0975  0.0096
  223MOL0     C30701   7.455   1.299   6.015 -0.2728  0.1166  0.3868
  223MOL0     C30702   7.245   0.865   6.252  0.3852  0.3115  0.0695
  223MOL0     C30703   7.302   0.812   6.372  0.2006  0.2976  0.0218
  223MOL0     C30704   7.448   0.825   6.381  0.2085 -0.3914  0.0808
  223MOL0     H30705   7.265   0.450   6.782 -0.0642 -3.6560  0.5902
  223MOL0     H30706   7.378   0.263   6.882 -0.4196  1.0512 -0.2066
  223MOL0     H30707   7.841   0.187   6.802  1.8833 -1.1745 -1.4708
  223MOL0     H30708   7.758   0.061   6.715 -1.6587 -2.2531  2.0622
  223MOL0     H30709   7.792   0.101   7.011 -4.3867 -1.5477  1.9689
  223MOL0     H30710   7.694  -0.031   6.954  0.1048  0.2805  2.0885
  223MOL0     H30711   7.921  -0.095   6.822  1.8652 -1.7985  1.0201
  223MOL0     H30712   7.984   0.024   6.931  2.4173 -2.5529 -1.8627
  223MOL0     H30713   7.859  -0.113   7.113  0.6615 -1.1858  0.7866
  223MOL0     H30714   7.809  -0.219   6.997  0.1684 -1.1311  2.0339
  223MOL0     H30715   8.119  -0.178   7.045  0.6882  1.0530 -3.0538
  223MOL0     H30716   8.051  -0.288   6.932 -0.8856  1.2637 -0.3295
  223MOL0     H30717   7.988  -0.300   7.233  0.0559  1.7203 -0.1335
  223MOL0     H30718   7.910  -0.383   7.108 -1.2416  1.9594  3.6084
  223MOL0     H30719   8.156  -0.453   7.038 -2.9244  1.2798 -0.9104
  223MOL0     H30720   8.092  -0.538   7.173  0.0258 -0.0910 -2.6045
  223MOL0     H30721   8.309  -0.320   7.224 -0.0526  0.6994  3.9553
  223MOL0     H30722   8.196  -0.375   7.338 -2.5649  1.9156 -1.6531
  223MOL0     H30723   8.350  -0.625   7.064 -0.9979 -2.6399  1.1022
  223MOL0     H30724   8.418  -0.877   7.134 -0.5122  0.9185 -0.4255
  223MOL0     H30725   8.570  -0.897   7.232  0.5175 -1.0951 -1.0088
  223MOL0     H30726   8.535  -0.742   6.992 -1.2875 -0.4240  0.9597
  223MOL0     H30727   8.690  -0.745   7.095  0.7288 -2.6232  2.1273
  223MOL0     H30728   8.701  -0.998   7.038 -1.5830  0.7527  2.7351
  223MOL0     H30729   8.545  -0.979   6.969  0.7933 -0.1887  0.6815
  223MOL0     H30730   8.736  -0.986   6.774 -0.5737 -0.5636  1.1371
  223MOL0     H30731   8.627  -0.842   6.773  0.0770 -0.0354 -0.3293
  223MOL0     H30732   8.996  -0.638   6.825  1.7000  2.1388  0.2236
  223MOL0     H30733   9.296  -0.644   6.681 -0.8853  2.6583  0.2087
  223MOL0     H30734   9.357  -0.642   6.853  0.8481 -1.4609 -0.3346
  223MOL0     H30735   9.225  -0.550   6.795  0.1683 -0.2333  3.1770
  223MOL0     H30736   9.582  -0.672   6.608 -2.4505 -1.1779  3.1475
  223MOL0     H30737   9.829  -0.656   6.573 -2.1511  0.2792  0.0522
  223MOL0     H30738  10.097  -0.819   6.869 -2.4290 -1.8064  1.0154
  223MOL0     H30739  10.082  -0.966   6.788  3.2342 -0.8715 -2.0262
  223MOL0     H30740  10.309  -0.882   6.802  2.2585  0.5841 -0.5116
  223MOL0     H30741  10.276  -0.877   6.622  1.1778  2.9456 -0.6728
  223MOL0     H30742  10.250  -0.640   6.635  0.5846 -0.6853 -0.7150
  223MOL0     H30743  10.406  -0.699   6.691  0.0645  1.5014 -2.2906
  223MOL0     H30744  10.382  -0.596   6.890 -0.9505  2.5900 -0.6535
  223MOL0     H30745  10.230  -0.678   6.914 -1.1882 -2.6014 -3.5607
  223MOL0     H30746  10.263  -0.429   6.734  0.9694 -1.6884  0.8599
  223MOL0     H30747  10.117  -0.471   6.812 -0.1501 -5.2817 -0.6873
  223MOL0     H30748  10.335  -0.412   6.994  1.8275  0.9237 -1.0910
  223MOL0     H30749  10.160  -0.415   7.022  2.0877 -1.2645  0.8674
  223MOL0     H30750  10.146  -0.203   6.868 -1.7433  0.7404  2.6209
  223MOL0     H30751  10.309  -0.187   6.891 -1.0276 -2.3109 -2.6159
  223MOL0     H30752  10.228  -0.060   7.044 -1.7114 -0.2735 -0.1860
  223MOL0     H30753  10.294  -0.211   7.132  1.6288  0.1569 -0.2312
  223MOL0     H30754   9.880  -0.978   6.854  0.2920  0.2444  1.5555
  223MOL0     H30755   9.645  -0.999   6.867  0.1445 -0.5919 -1.2766
  223MOL0     H30756   9.175  -1.104   6.819  5.3029  1.3912 -1.7511
  223MOL0     H30757   8.935  -1.063   6.864  1.8710 -1.3269 -3.7239
  223MOL0     H30758   7.703   0.288   6.622 -0.7061 -3.9529 -0.3508
  223MOL0     H30759   7.591   0.466   6.499  2.9348 -2.3523  0.8335
  223MOL0     H30760   7.011   0.712   6.520 -0.8083  3.6522  1.5653
  223MOL0     H30761   6.925   0.802   6.300  0.6411  0.4954 -3.0571
  223MOL0     H30762   7.195   0.863   5.995  1.3998  2.6727 -5.4521
  223MOL0     H30763   7.031   0.817   5.960  0.4756  1.0378 -1.9709
  223MOL0     H30764   6.974   1.080   5.970  0.5857  0.4228  2.2926
  223MOL0     H30765   7.066   1.020   5.828  2.7435  1.0942 -0.2874
  223MOL0     H30766   7.117   1.224   5.924 -3.5089 -0.8684 -0.9333
  223MOL0     H30767   7.167   1.150   6.081 -2.6002  1.6662 -1.1516
  223MOL0     H30768   7.303   1.098   5.807 -1.7847 -2.2024  0.0737
  223MOL0     H30769   7.349   1.015   5.954 -0.6644 -1.4450 -1.7959
  223MOL0     H30770   7.521   1.377   6.045 -3.8327  3.3819  0.4196
  223MOL0     H30771   7.308   0.915   6.179  0.9906  2.7033  2.0921
  223MOL0     H30772   7.495   0.754   6.312 -1.3471  1.8008 -3.5217
  223MOL0     H30773   7.477   0.918   6.332 -3.6119  0.8862 -0.0848
  223MOL0     H30774   7.480   0.808   6.484 -0.7459  1.4377  0.7206
  224MOL0     O30775   7.962   4.368   8.816 -0.7414  0.0719 -0.7761
  224MOL0     C30776   7.873   4.286   8.826  0.0677  0.1199 -0.2906
  224MOL0     O30777   7.796   4.268   8.933  0.2984 -0.0903 -0.0379
  224MOL0     C30778   7.809   4.325   9.055 -0.1708  0.1293 -0.7923
  224MOL0     C30779   7.726   4.264   9.152  0.3815  0.3483  0.0752
  224MOL0     C30780   7.748   4.291   9.290 -0.1290 -0.1707 -0.0228
  224MOL0     C30781   7.847   4.381   9.332  0.3928  0.2656  0.6705
  224MOL0     O30782   7.858   4.389   9.471  0.4331 -0.3846  1.0918
  224MOL0     C30783   7.976   4.448   9.527  0.3609 -0.1654 -0.0649
  224MOL0     C30784   7.978   4.431   9.676 -0.6546  0.1353 -0.1370
  224MOL0     C30785   7.868   4.508   9.756 -1.4545 -0.5908 -0.0655
  224MOL0     C30786   7.868   4.471   9.908 -0.1260 -0.4158  0.0742
  224MOL0     C30787   7.875   4.598   9.996 -0.0169 -0.1362  0.0396
  224MOL0     C30788   7.850   4.553  10.139  0.9225  0.3148 -0.2933
  224MOL0     C30789   7.857   4.674  10.232  0.1551  0.4333  0.2881
  224MOL0     C30790   7.738   4.674  10.329 -0.4941 -0.3902  0.6866
  224MOL0     N30791   7.608   4.711  10.265 -0.6061 -0.3925  1.2249
  224MOL0     C30792   7.527   4.820  10.298  1.1233 -0.3121  0.4382
  224MOL0     C30793   7.418   4.813  10.217 -0.1176  0.6228  1.1072
  224MOL0     C30794   7.307   4.917  10.186  0.4199 -0.1457 -0.1492
  224MOL0     C30795   7.377   5.053  10.146 -0.5893 -0.2966 -0.7977
  224MOL0     C30796   7.410   5.048   9.998  0.2070 -0.4428 -0.5896
  224MOL0     C30797   7.479   5.177   9.944  1.0265  0.3718 -0.5039
  224MOL0     O30798   7.471   5.183   9.799  0.3512  0.0484 -0.0377
  224MOL0     C30799   7.574   5.137   9.729 -0.9704 -0.3591  0.6854
  224MOL0     C30800   7.685   5.061   9.777 -0.6427  0.2104  0.0344
  224MOL0     C30801   7.784   5.020   9.693 -0.3729 -0.2262 -0.7571
  224MOL0     C30802   7.885   4.930   9.753 -0.5549  0.2793 -0.8228
  224MOL0     C30803   7.781   5.054   9.556 -0.6014  0.0198  0.8296
  224MOL0     C30804   7.879   5.008   9.451 -0.2077 -0.6300  0.2813
  224MOL0     O30805   7.832   5.000   9.315  0.5184  0.6780 -0.5249
  224MOL0     C30806   7.907   4.935   9.218 -0.6674  0.2123 -0.5697
  224MOL0     C30807   8.025   4.861   9.239  0.2645 -0.8053  0.4911
  224MOL0     C30808   8.089   4.793   9.138  0.7851  0.8543 -0.2000
  224MOL0     C30809   8.051   4.807   9.003  0.7247 -0.0977 -0.2123
  224MOL0     O30810   8.125   4.758   8.900 -0.0486 -0.0264  1.1231
  224MOL0     C30811   8.266   4.748   8.915  0.6826  0.1585  0.5175
  224MOL0     C30812   8.321   4.709   8.772 -0.1139 -0.0846 -0.1824
  224MOL0     C30813   8.246   4.599   8.705 -0.3031 -0.0010  0.3643
  224MOL0     C30814   8.345   4.531   8.599 -0.2029 -0.2594 -0.4231
  224MOL0     C30815   8.284   4.410   8.514  0.6659 -0.1431 -0.9096
  224MOL0     C30816   8.406   4.339   8.446 -0.0791 -0.1012  1.0218
  224MOL0     C30817   8.368   4.219   8.379 -0.2176  0.5691  0.1436
  224MOL0     C30818   8.499   4.127   8.355  0.2991  0.3688  0.2123
  224MOL0    Cl30819   8.562   4.048   8.512  0.8810  0.3962 -0.3312
  224MOL0     C30820   7.937   4.891   8.978  0.2781  1.2349  0.1876
  224MOL0     C30821   7.871   4.954   9.084  1.4619  0.6136 -0.8772
  224MOL0     O30822   7.992   4.977   9.489  0.6354 -0.7042  0.4432
  224MOL0     C30823   7.673   5.130   9.501  0.6680  0.5719  0.3323
  224MOL0     C30824   7.568   5.161   9.587 -1.5254 -0.9647 -0.8297
  224MOL0     N30825   7.425   4.697  10.145 -0.5645 -0.1528 -0.3377
  224MOL0     N30826   7.536   4.637  10.176 -0.6579  0.2494 -0.2052
  224MOL0     C30827   7.925   4.447   9.239  0.5949 -0.3348  0.6102
  224MOL0     C30828   7.904   4.424   9.097  0.6711  0.0181 -0.6709
  224MOL0     C30829   7.861   4.184   8.717  0.0607  0.2222  0.7842
  224MOL0     C30830   7.908   4.216   8.590 -0.1873 -0.1602 -0.3044
  224MOL0     C30831   7.936   4.118   8.490 -0.2995  0.2524 -0.8092
  224MOL0     C30832   7.908   3.983   8.519  1.0049  0.4262  0.2065
  224MOL0     O30833   7.925   3.880   8.426  0.5292  0.4977  0.3561
  224MOL0     C30834   8.010   3.903   8.314  0.3237  0.5204  0.1867
  224MOL0     C30835   7.973   3.805   8.202 -0.3521 -0.1556  0.7676
  224MOL0     C30836   7.856   3.843   8.108  0.2990  0.2243  0.0799
  224MOL0     C30837   7.785   3.723   8.044  0.3577 -0.2071  0.2543
  224MOL0     C30838   7.865   3.647   7.949 -0.3138 -1.0134 -0.5293
  224MOL0     C30839   7.937   3.587   7.865  0.0069 -0.7011 -0.0982
  224MOL0     C30840   7.838   3.956   8.638 -1.1556 -0.2644 -0.4924
  224MOL0     C30841   7.812   4.050   8.741 -1.0917 -1.1625 -1.3244
  224MOL0     C30842   7.740   4.003   8.859  0.8950 -0.4227 -0.1814
  224MOL0     H30843   7.655   4.185   9.129  1.3140 -0.5961  0.3566
  224MOL0     H30844   7.687   4.238   9.362  1.3403 -0.0025  1.3864
  224MOL0     H30845   7.984   4.556   9.515  1.8387  0.0153  2.0408
  224MOL0     H30846   8.071   4.409   9.489  0.3965 -0.3206  0.1796
  224MOL0     H30847   7.972   4.323   9.693 -0.5917  0.0782 -0.4723
  224MOL0     H30848   8.075   4.464   9.715 -2.4858  5.5879  0.6692
  224MOL0     H30849   7.895   4.614   9.752 -0.5016 -0.7903  0.7685
  224MOL0     H30850   7.770   4.484   9.713 -2.9073  1.9525  1.5268
  224MOL0     H30851   7.771   4.425   9.929 -0.3928  0.7708  1.5950
  224MOL0     H30852   7.958   4.412   9.930  0.0011 -0.4689 -0.5570
  224MOL0     H30853   7.793   4.661   9.960 -1.0563 -0.0036  2.4111
  224MOL0     H30854   7.968   4.655   9.994 -1.2446  2.0037 -2.3262
  224MOL0     H30855   7.765   4.485  10.147  1.0691  0.0921 -0.5613
  224MOL0     H30856   7.939   4.490  10.151  0.4458 -0.2088  0.5691
  224MOL0     H30857   7.852   4.767  10.175 -0.9370 -0.2413 -0.7588
  224MOL0     H30858   7.949   4.673  10.291  0.1571 -1.5549  0.3043
  224MOL0     H30859   7.736   4.580  10.386 -1.3540 -0.1075  1.1453
  224MOL0     H30860   7.762   4.740  10.412 -0.2895 -1.0854  1.1920
  224MOL0     H30861   7.548   4.914  10.348 -0.1828  0.8188 -1.0353
  224MOL0     H30862   7.236   4.935  10.267 -0.2931  0.4473 -0.8861
  224MOL0     H30863   7.233   4.872  10.119 -0.3786  0.7628  0.0957
  224MOL0     H30864   7.319   5.139  10.179  0.4799 -0.3161  1.2701
  224MOL0     H30865   7.469   5.061  10.204  0.1160 -0.5475 -1.8541
  224MOL0     H30866   7.482   4.968   9.979  1.3981  0.5257 -0.2621
  224MOL0     H30867   7.315   5.026   9.948 -1.8417 -0.5752  3.0647
  224MOL0     H30868   7.428   5.266   9.981  2.5062  1.3654 -0.7320
  224MOL0     H30869   7.586   5.171   9.969  1.2359 -1.5388 -1.6865
  224MOL0     H30870   7.694   5.026   9.879 -2.1782  1.9165  0.7937
  224MOL0     H30871   7.867   4.823   9.740  1.7432 -0.2926  0.1102
  224MOL0     H30872   7.890   4.925   9.863  3.1846 -0.0604 -0.9006
  224MOL0     H30873   7.987   4.943   9.717 -0.0843  3.1296  1.2021
  224MOL0     H30874   8.060   4.831   9.337  1.2033 -0.4039  0.2950
  224MOL0     H30875   8.177   4.732   9.156 -0.5045 -1.2437 -0.6898
  224MOL0     H30876   8.309   4.845   8.941  3.2011  0.3921 -3.7638
  224MOL0     H30877   8.293   4.673   8.991 -1.0343 -1.8904 -0.7814
  224MOL0     H30878   8.307   4.798   8.711 -1.1915  0.0998  0.3028
  224MOL0     H30879   8.426   4.686   8.792 -0.6793 -3.3741 -0.3371
  224MOL0     H30880   8.160   4.640   8.653 -0.2018 -2.0402 -1.5504
  224MOL0     H30881   8.216   4.526   8.781  6.9076 -6.1633 -1.4584
  224MOL0     H30882   8.435   4.498   8.651 -0.0578 -1.7910 -1.6034
  224MOL0     H30883   8.353   4.616   8.531 -3.6150 -0.3474 -1.1237
  224MOL0     H30884   8.229   4.342   8.579 -1.9453 -1.0815 -3.8066
  224MOL0     H30885   8.216   4.435   8.431  1.5746 -2.6758 -2.5334
  224MOL0     H30886   8.474   4.311   8.527  3.0328  0.3617 -1.2779
  224MOL0     H30887   8.460   4.408   8.380 -1.8727  0.3689 -0.0228
  224MOL0     H30888   8.317   4.258   8.291  0.0893 -0.9407 -0.7473
  224MOL0     H30889   8.294   4.165   8.439 -2.3182  1.3367 -1.6149
  224MOL0     H30890   8.572   4.190   8.304 -1.1818  2.2908  0.3715
  224MOL0     H30891   8.477   4.039   8.294 -2.4614 -0.1890  1.8332
  224MOL0     H30892   7.918   4.905   8.872  1.1983 -2.7769 -0.6842
  224MOL0     H30893   7.796   5.027   9.055  1.0969 -0.2240 -2.1294
  224MOL0     H30894   7.649   5.143   9.396  0.4012  1.6543  0.5121
  224MOL0     H30895   7.484   5.217   9.546  0.2563  3.1925  0.6361
  224MOL0     H30896   7.999   4.518   9.276 -2.2379  2.5458  1.1370
  224MOL0     H30897   7.966   4.483   9.030 -1.0684 -1.8102 -4.1123
  224MOL0     H30898   7.940   4.319   8.576  1.3650 -0.7084 -1.0669
  224MOL0     H30899   7.972   4.154   8.394 -3.3228  3.3647 -0.9507
  224MOL0     H30900   8.000   4.006   8.279 -2.9399  0.7551  1.4834
  224MOL0     H30901   8.116   3.897   8.340 -0.1432 -2.3159  1.8298
  224MOL0     H30902   7.962   3.703   8.240  2.0707 -1.4234 -1.5695
  224MOL0     H30903   8.061   3.800   8.136 -1.9256  4.9818 -2.3224
  224MOL0     H30904   7.781   3.896   8.168  2.1823  2.0509  0.9683
  224MOL0     H30905   7.890   3.909   8.028  0.4161  0.1323  0.0538
  224MOL0     H30906   7.690   3.755   8.000  0.9257  1.5384  0.2269
  224MOL0     H30907   7.761   3.652   8.124 -0.3527  0.0792  0.3045
  224MOL0     H30908   8.004   3.539   7.797  2.6688  1.4319  0.8570
  224MOL0     H30909   7.805   3.855   8.660  1.0608 -1.4474 -2.1998
  224MOL0     H30910   7.641   4.048   8.860 -0.6396 -3.3788  2.6213
  224MOL0     H30911   7.710   3.897   8.860  1.8701 -0.7478  2.0575
  224MOL0     H30912   7.791   4.023   8.953 -2.4160  1.0437  1.4656
  225MOL0     O30913   2.510   1.852   6.409 -0.2155  0.9526 -0.1335
  225MOL0     C30914   2.563   1.908   6.504 -0.6714  0.1613  0.0376
  225MOL0     O30915   2.529   2.026   6.554 -0.1386 -0.3676 -0.7733
  225MOL0     C30916   2.431   2.090   6.496  0.4362 -0.0519 -0.1589
  225MOL0     C30917   2.449   2.145   6.373 -0.2453  1.1987 -0.6750
  225MOL0     C30918   2.354   2.225   6.309  1.1320 -0.5610 -0.6484
  225MOL0     C30919   2.235   2.263   6.381  0.6208 -0.5720  1.5108
  225MOL0     O30920   2.150   2.348   6.314  0.6560 -0.8139  0.1605
  225MOL0     C30921   2.163   2.481   6.375  0.1126 -0.1892 -0.0742
  225MOL0     C30922   2.109   2.596   6.281  0.2851  0.5984 -0.4851
  225MOL0     C30923   2.116   2.579   6.123  0.1902  0.7192  0.6871
  225MOL0     C30924   2.084   2.702   6.040 -0.0283 -0.1027 -0.0687
  225MOL0     C30925   2.092   2.675   5.892  0.1234  0.5243  0.6688
  225MOL0     C30926   2.017   2.778   5.804 -0.2026 -1.2710 -0.6122
  225MOL0     C30927   1.957   2.728   5.672  0.2684  0.0564  0.8710
  225MOL0     C30928   1.905   2.846   5.578 -0.7454 -0.3126  0.4634
  225MOL0     N30929   2.000   2.878   5.480  0.0683 -0.2977  0.4125
  225MOL0     C30930   2.011   2.818   5.353  0.6138  0.3882  0.5544
  225MOL0     C30931   2.134   2.858   5.309 -0.5483  0.8658 -1.0297
  225MOL0     C30932   2.212   2.812   5.181  0.4139 -0.2184  0.6020
  225MOL0     C30933   2.298   2.688   5.207 -0.1648 -0.4958 -0.5688
  225MOL0     C30934   2.420   2.713   5.294  1.0256  0.2627 -0.0456
  225MOL0     C30935   2.516   2.597   5.306 -0.2082  0.3162  0.4587
  225MOL0     O30936   2.470   2.463   5.322  0.0637  0.2989 -1.0734
  225MOL0     C30937   2.412   2.420   5.440 -0.3335  0.0372  0.7769
  225MOL0     C30938   2.367   2.297   5.440  0.7543  0.3032 -0.2428
  225MOL0     C30939   2.299   2.247   5.557 -0.5751  0.2695  0.3407
  225MOL0     C30940   2.227   2.109   5.549 -0.1984 -0.5120  0.4702
  225MOL0     C30941   2.290   2.313   5.675 -0.0117 -0.1157  1.3267
  225MOL0     C30942   2.231   2.251   5.783  0.5488 -0.7067  0.2796
  225MOL0     O30943   2.311   2.170   5.866  0.3418 -0.8845  0.6465
  225MOL0     C30944   2.249   2.104   5.973  0.0405 -0.1530  0.4894
  225MOL0     C30945   2.288   1.969   5.989  0.0295  0.7397 -0.5519
  225MOL0     C30946   2.222   1.894   6.094 -0.0824  1.0974  0.1794
  225MOL0     C30947   2.114   1.954   6.164 -0.2330 -0.3056  0.1935
  225MOL0     O30948   2.031   1.882   6.243  0.0107  0.3532 -0.6228
  225MOL0     C30949   2.069   1.885   6.379  0.1219  1.2836  0.1430
  225MOL0     C30950   2.207   1.808   6.405 -0.5695  0.0545 -0.2812
  225MOL0     C30951   2.176   1.656   6.402 -0.1073 -0.8117  1.0563
  225MOL0     C30952   2.302   1.573   6.428 -0.0198 -0.9346  0.1217
  225MOL0     C30953   2.282   1.427   6.435  0.5569  0.3527 -1.4610
  225MOL0     C30954   2.424   1.358   6.455 -0.2813 -0.6706 -0.0981
  225MOL0     C30955   2.450   1.203   6.424  0.7098  0.5984 -0.0547
  225MOL0     C30956   2.422   1.179   6.277  0.1183  0.1334 -0.3510
  225MOL0    Cl30957   2.558   1.258   6.186  0.6392  0.5917 -0.1213
  225MOL0     C30958   2.079   2.083   6.144  0.4444  0.6391 -0.0089
  225MOL0     C30959   2.142   2.155   6.051 -0.1700 -0.5841 -0.2277
  225MOL0     O30960   2.111   2.270   5.793 -0.2272 -0.3609  1.1493
  225MOL0     C30961   2.347   2.445   5.669  0.4447  0.1947 -0.6358
  225MOL0     C30962   2.395   2.499   5.554 -0.2618  0.7635  0.2437
  225MOL0     N30963   2.200   2.928   5.413  0.2027 -0.6196  0.3786
  225MOL0     N30964   2.125   2.931   5.511  0.7212 -0.7778  0.1453
  225MOL0     C30965   2.206   2.197   6.502  0.1902  0.2751 -0.2336
  225MOL0     C30966   2.312   2.119   6.557 -0.1626  0.0757 -0.3841
  225MOL0     C30967   2.696   1.863   6.556  1.0080 -0.0055  0.8489
  225MOL0     C30968   2.794   1.956   6.567  0.3929  0.5470  0.1884
  225MOL0     C30969   2.921   1.923   6.614 -0.7948  1.1093 -0.5211
  225MOL0     C30970   2.939   1.797   6.665  0.3727 -0.5315  0.0804
  225MOL0     O30971   3.039   1.760   6.745 -0.2494 -0.7272 -0.4105
  225MOL0     C30972   3.154   1.841   6.750 -0.5691  0.7626  0.2928
  225MOL0     C30973   3.238   1.828   6.619 -0.4559  0.3122  0.3472
  225MOL0     C30974   3.295   1.688   6.608 -0.6470 -0.1747  0.1047
  225MOL0     C30975   3.420   1.669   6.698 -0.3479 -0.1725  0.1204
  225MOL0     C30976   3.479   1.536   6.691 -0.2768 -0.3267  0.1330
  225MOL0     C30977   3.514   1.416   6.685  0.0615 -0.0516 -0.2030
  225MOL0     C30978   2.841   1.700   6.662  0.2689 -0.7864  0.0834
  225MOL0     C30979   2.721   1.729   6.602 -0.5821 -0.5358 -0.3805
  225MOL0     C30980   2.623   1.613   6.578  0.3083 -0.9568 -0.0362
  225MOL0     H30981   2.531   2.116   6.308  1.0233 -0.9066  1.6821
  225MOL0     H30982   2.366   2.264   6.209 -1.6033  2.1870 -0.0793
  225MOL0     H30983   2.270   2.502   6.383  0.5766 -1.0129 -3.0341
  225MOL0     H30984   2.118   2.498   6.474  3.8555  1.5388  1.5059
  225MOL0     H30985   2.002   2.592   6.306  0.3943 -1.7176 -0.2516
  225MOL0     H30986   2.145   2.694   6.314 -2.6557  1.6136  0.0301
  225MOL0     H30987   2.213   2.544   6.088 -1.3271 -1.5447 -1.5840
  225MOL0     H30988   2.053   2.493   6.099 -2.3275  2.3000  1.2423
  225MOL0     H30989   1.982   2.739   6.056  0.2904  0.5236  0.5489
  225MOL0     H30990   2.154   2.783   6.060 -2.1863  1.5889  1.0439
  225MOL0     H30991   2.044   2.579   5.870 -1.6995  1.5322  0.0531
  225MOL0     H30992   2.197   2.667   5.865  0.0827  2.4790 -0.2370
  225MOL0     H30993   1.933   2.821   5.858  1.4695 -0.1560  1.2367
  225MOL0     H30994   2.078   2.863   5.770 -1.6408 -0.9525 -2.5839
  225MOL0     H30995   1.873   2.659   5.687  1.2052 -1.7621 -1.6643
  225MOL0     H30996   2.022   2.654   5.626 -2.0136 -1.1228 -0.6432
  225MOL0     H30997   1.817   2.819   5.519 -0.6836  1.5777 -0.5488
  225MOL0     H30998   1.882   2.934   5.639 -0.4039 -0.4705  0.8293
  225MOL0     H30999   1.932   2.775   5.293  0.0999  2.0930 -0.0716
  225MOL0     H31000   2.279   2.894   5.156 -0.7897  1.4899  2.6913
  225MOL0     H31001   2.150   2.789   5.093  1.0421 -2.4129  0.6753
  225MOL0     H31002   2.243   2.609   5.258  1.4193 -0.0224  2.1208
  225MOL0     H31003   2.335   2.656   5.109 -1.5637 -1.3841 -0.8310
  225MOL0     H31004   2.467   2.800   5.247  2.4802 -0.5818 -0.2144
  225MOL0     H31005   2.388   2.737   5.396  0.1222 -0.7774 -0.0735
  225MOL0     H31006   2.569   2.591   5.210  1.9278 -1.7507  1.6391
  225MOL0     H31007   2.597   2.608   5.378 -0.0478  1.4284  0.1266
  225MOL0     H31008   2.373   2.239   5.348 -1.3151 -0.4719  0.0672
  225MOL0     H31009   2.263   2.032   5.618 -0.2038 -1.9803 -1.0717
  225MOL0     H31010   2.239   2.066   5.449 -0.7700  0.8527 -0.1996
  225MOL0     H31011   2.124   2.121   5.582  0.0999 -0.7476  1.5149
  225MOL0     H31012   2.364   1.932   5.920  1.1346  1.6863  0.1309
  225MOL0     H31013   2.252   1.792   6.116 -0.3560  1.1751  0.9329
  225MOL0     H31014   2.080   1.990   6.407  1.4195  1.5641 -1.2946
  225MOL0     H31015   1.990   1.826   6.428  0.4442  0.1229 -0.6772
  225MOL0     H31016   2.290   1.827   6.337  0.2741  1.2234  1.0201
  225MOL0     H31017   2.247   1.847   6.499 -0.9450  0.1638 -0.1632
  225MOL0     H31018   2.124   1.631   6.309 -1.9652 -1.3515  2.1836
  225MOL0     H31019   2.103   1.625   6.477 -1.7310  1.6254  0.6181
  225MOL0     H31020   2.333   1.619   6.522  0.6111  2.5580 -1.6279
  225MOL0     H31021   2.381   1.606   6.360 -3.7490 -0.8884 -4.6678
  225MOL0     H31022   2.219   1.410   6.523  1.9572  1.1424 -0.2624
  225MOL0     H31023   2.233   1.406   6.339  0.4261  1.0530 -1.5492
  225MOL0     H31024   2.473   1.361   6.552  1.1120 -0.9398 -0.7686
  225MOL0     H31025   2.491   1.418   6.393 -0.3660  0.8380  1.2030
  225MOL0     H31026   2.392   1.136   6.487  1.7759 -1.1823 -0.8951
  225MOL0     H31027   2.552   1.168   6.441  0.5103  0.2249  0.3794
  225MOL0     H31028   2.329   1.213   6.231  1.0978 -1.0268 -3.4703
  225MOL0     H31029   2.412   1.071   6.266 -0.5108  0.2360 -0.8644
  225MOL0     H31030   2.003   2.134   6.202  3.0006  3.3845  1.1670
  225MOL0     H31031   2.103   2.256   6.040 -2.3149 -1.4649 -1.4758
  225MOL0     H31032   2.343   2.512   5.754 -1.1428 -0.6124 -0.0260
  225MOL0     H31033   2.443   2.595   5.570  3.2932 -0.8964  0.5897
  225MOL0     H31034   2.118   2.209   6.564  0.4085  0.5697  0.0245
  225MOL0     H31035   2.296   2.082   6.658 -3.9241  0.4745 -0.7011
  225MOL0     H31036   2.774   2.059   6.542  0.5545  0.5005 -0.1365
  225MOL0     H31037   2.988   2.008   6.619 -0.9891  1.5155 -3.2849
  225MOL0     H31038   3.121   1.942   6.775  0.8533  0.8628  1.8968
  225MOL0     H31039   3.223   1.810   6.828  2.6857 -3.4119 -3.6979
  225MOL0     H31040   3.320   1.901   6.611 -1.8261  1.6658 -3.5404
  225MOL0     H31041   3.180   1.843   6.528 -0.4588 -3.9085 -0.5685
  225MOL0     H31042   3.223   1.612   6.640 -1.5898 -1.0824 -3.6970
  225MOL0     H31043   3.301   1.659   6.503 -0.0906  2.3038 -0.5966
  225MOL0     H31044   3.410   1.710   6.799 -2.1572 -0.8021  0.2235
  225MOL0     H31045   3.501   1.724   6.649  0.8214 -1.5575  0.4201
  225MOL0     H31046   3.535   1.311   6.689  4.1163  0.6271  0.6894
  225MOL0     H31047   2.871   1.604   6.704  0.2824 -0.2422  1.3489
  225MOL0     H31048   2.549   1.611   6.658 -0.3795  0.6735 -0.5934
  225MOL0     H31049   2.580   1.624   6.478 -1.9889 -1.3640  0.8610
  225MOL0     H31050   2.674   1.516   6.576 -0.8149 -1.5557 -0.1523
  226MOL0     O31051   1.440   2.561   0.355 -0.3456  0.2756 -0.0639
  226MOL0     C31052   1.378   2.642   0.425  0.5857  0.4628 -0.1993
  226MOL0     O31053   1.397   2.653   0.552  0.7300 -0.4741 -0.5463
  226MOL0     C31054   1.503   2.595   0.619  0.2759 -0.9686 -0.1515
  226MOL0     C31055   1.631   2.580   0.573 -0.0522 -0.0030  1.1002
  226MOL0     C31056   1.726   2.504   0.639 -0.2088 -0.2097  0.7470
  226MOL0     C31057   1.692   2.448   0.764 -0.4124  0.1167 -1.1097
  226MOL0     O31058   1.783   2.378   0.835 -0.3113  0.2659 -0.4965
  226MOL0     C31059   1.726   2.274   0.910 -0.4606 -0.0324  0.0761
  226MOL0     C31060   1.851   2.190   0.946  0.3699 -0.3825 -0.5247
  226MOL0     C31061   1.943   2.278   1.041  0.7511  0.0658 -0.3233
  226MOL0     C31062   2.075   2.215   1.033  0.3314  0.5108  0.2080
  226MOL0     C31063   2.180   2.276   1.119  0.1538 -0.2991 -0.3252
  226MOL0     C31064   2.215   2.426   1.068  0.5354  0.0967  0.5456
  226MOL0     C31065   2.277   2.428   0.929 -0.5380 -0.5299  0.9974
  226MOL0     C31066   2.315   2.572   0.886  0.2072 -0.8819 -0.0118
  226MOL0     N31067   2.362   2.573   0.741  0.2419 -0.0292 -0.9175
  226MOL0     C31068   2.486   2.530   0.692 -0.7048 -1.3746  0.4834
  226MOL0     C31069   2.482   2.571   0.563  0.5806 -1.2300  0.8321
  226MOL0     C31070   2.602   2.543   0.466  0.3885 -0.3258  0.7237
  226MOL0     C31071   2.555   2.522   0.326 -0.0707 -0.1739 -0.2025
  226MOL0     C31072   2.456   2.406   0.315 -0.5192  0.2229 -1.0996
  226MOL0     C31073   2.407   2.363   0.179  0.4359  0.2445 -0.2401
  226MOL0     O31074   2.321   2.466   0.129  0.4863 -0.0831 -0.2230
  226MOL0     C31075   2.275   2.465  -0.002  0.3506 -0.1193  0.1490
  226MOL0     C31076   2.219   2.586  -0.056 -0.1901 -0.2384 -0.0050
  226MOL0     C31077   2.163   2.598  -0.191 -0.1044  0.5202 -0.0826
  226MOL0     C31078   2.112   2.727  -0.230  0.0825  0.4867 -0.1582
  226MOL0     C31079   2.167   2.492  -0.280 -0.5474  0.5385  0.2706
  226MOL0     C31080   2.119   2.480  -0.413 -0.4292  0.2307  1.1292
  226MOL0     O31081   2.195   2.420  -0.506  1.2239 -0.4238  0.2448
  226MOL0     C31082   2.181   2.453  -0.634  1.1417  0.0776  0.4788
  226MOL0     C31083   2.138   2.577  -0.686 -0.5994 -0.6803 -0.4829
  226MOL0     C31084   2.138   2.597  -0.823  0.0617 -0.6976  0.3435
  226MOL0     C31085   2.159   2.500  -0.916  0.7119  0.2747 -0.4767
  226MOL0     O31086   2.141   2.527  -1.050  0.2110 -0.8317 -0.3423
  226MOL0     C31087   2.073   2.420  -1.120 -0.4537  0.5288  0.0446
  226MOL0     C31088   2.036   2.456  -1.268  0.6180 -0.3984  0.1754
  226MOL0     C31089   1.924   2.559  -1.273  0.4026 -0.4613  0.3817
  226MOL0     C31090   1.786   2.498  -1.256  0.3353 -0.1330  0.3150
  226MOL0     C31091   1.732   2.443  -1.391 -0.2274 -0.3741  0.0366
  226MOL0     C31092   1.588   2.383  -1.364  0.3738  0.8907 -0.0178
  226MOL0     C31093   1.533   2.293  -1.483 -0.2680  0.0017 -0.1028
  226MOL0     C31094   1.380   2.314  -1.481  0.0678  0.2124  0.4630
  226MOL0    Cl31095   1.302   2.265  -1.335 -0.4491 -0.2158  0.0295
  226MOL0     C31096   2.188   2.369  -0.871  0.7014 -0.1624 -1.0051
  226MOL0     C31097   2.204   2.355  -0.725  0.0455 -0.0834 -0.4722
  226MOL0     O31098   2.006   2.520  -0.429 -0.7345  0.7240  0.0805
  226MOL0     C31099   2.237   2.381  -0.230 -0.4987 -0.5461 -0.0219
  226MOL0     C31100   2.287   2.363  -0.099 -0.2836  0.1153  0.9655
  226MOL0     N31101   2.373   2.652   0.537  0.0631  0.8047 -0.6933
  226MOL0     N31102   2.304   2.649   0.648  1.4295  0.6835 -0.4864
  226MOL0     C31103   1.565   2.469   0.822 -0.3321 -1.0302 -0.4856
  226MOL0     C31104   1.468   2.543   0.750  0.0456  0.2824  0.5378
  226MOL0     C31105   1.273   2.723   0.363  0.5299  0.4532 -0.7725
  226MOL0     C31106   1.280   2.764   0.231 -0.8256 -0.6830  0.3835
  226MOL0     C31107   1.186   2.843   0.172 -0.6178 -1.2427  1.0188
  226MOL0     C31108   1.078   2.899   0.241  0.5859 -0.1694  0.5167
  226MOL0     O31109   0.998   2.977   0.162 -0.2629  0.6536  0.3763
  226MOL0     C31110   0.871   3.013   0.207 -0.0038  0.1771  0.2861
  226MOL0     C31111   0.808   3.098   0.099  0.3134  0.2686  0.1514
  226MOL0     C31112   0.753   3.015  -0.017 -0.4069 -0.2833 -1.5544
  226MOL0     C31113   0.625   2.947   0.032  0.8456  0.2394  0.5720
  226MOL0     C31114   0.599   2.836  -0.059 -0.8818  0.2073  0.5124
  226MOL0     C31115   0.583   2.748  -0.149 -0.9077 -0.3551  0.1353
  226MOL0     C31116   1.057   2.857   0.377 -1.5927 -0.2855  0.5077
  226MOL0     C31117   1.155   2.779   0.442 -0.1784 -0.1794 -0.8907
  226MOL0     C31118   1.121   2.740   0.583 -0.4334  0.5082 -0.8718
  226MOL0     H31119   1.664   2.626   0.480  0.7582  1.1778  1.9581
  226MOL0     H31120   1.822   2.480   0.594 -0.4528 -3.0564  1.5665
  226MOL0     H31121   1.659   2.222   0.841 -0.1638  2.8510 -2.6498
  226MOL0     H31122   1.684   2.316   1.002 -0.4330  3.0068 -1.1721
  226MOL0     H31123   1.811   2.102   0.996 -1.8374 -0.3811 -2.1687
  226MOL0     H31124   1.899   2.153   0.855 -1.7478 -2.9305 -0.7254
  226MOL0     H31125   1.960   2.376   0.996  0.9388 -0.2459 -0.9478
  226MOL0     H31126   1.901   2.292   1.141  1.8547 -0.0417  0.1598
  226MOL0     H31127   2.075   2.107   1.053  2.2063  0.4772  0.2345
  226MOL0     H31128   2.118   2.216   0.932  0.7239 -0.5170  0.3496
  226MOL0     H31129   2.267   2.210   1.114 -0.7707 -1.4921 -3.4242
  226MOL0     H31130   2.135   2.278   1.219 -2.5847 -0.1928 -1.4552
  226MOL0     H31131   2.132   2.497   1.065  0.2881 -0.0674  2.6116
  226MOL0     H31132   2.282   2.475   1.139  1.5088 -0.3813 -0.0250
  226MOL0     H31133   2.203   2.389   0.858 -1.9996  1.9923  1.0091
  226MOL0     H31134   2.370   2.372   0.923 -1.2430 -1.6681  0.3255
  226MOL0     H31135   2.222   2.631   0.891 -0.2267 -1.6423  2.1095
  226MOL0     H31136   2.392   2.618   0.948 -0.1102  0.6579 -0.7090
  226MOL0     H31137   2.567   2.471   0.734  1.0959  1.3084  1.1182
  226MOL0     H31138   2.657   2.454   0.497  0.8716  0.0541  0.9634
  226MOL0     H31139   2.664   2.632   0.464 -0.6974  0.4447  0.4806
  226MOL0     H31140   2.503   2.608   0.282  0.3628  0.2671  0.1312
  226MOL0     H31141   2.638   2.489   0.263 -0.4970 -0.6661 -0.5099
  226MOL0     H31142   2.513   2.327   0.365 -0.9284  1.3880  1.3832
  226MOL0     H31143   2.371   2.416   0.383  1.0674 -3.1965  1.7183
  226MOL0     H31144   2.483   2.329   0.108 -0.5724 -1.5150 -0.5143
  226MOL0     H31145   2.353   2.270   0.197  3.4381 -1.9690 -1.7607
  226MOL0     H31146   2.210   2.678   0.001 -1.7372  1.0887 -2.2040
  226MOL0     H31147   2.101   2.799  -0.149 -1.5471  2.2390 -1.8363
  226MOL0     H31148   2.011   2.716  -0.271 -1.3470  0.5450  3.0976
  226MOL0     H31149   2.167   2.783  -0.306 -1.2774  3.1185  0.6710
  226MOL0     H31150   2.113   2.662  -0.624  1.2422 -0.6866  0.3527
  226MOL0     H31151   2.119   2.701  -0.848  4.5164  0.4036  0.7475
  226MOL0     H31152   2.138   2.333  -1.129 -0.1956  0.6344  0.8116
  226MOL0     H31153   1.986   2.389  -1.060 -0.4246 -1.2459 -0.7469
  226MOL0     H31154   2.127   2.486  -1.321  0.3607 -1.5222 -0.9672
  226MOL0     H31155   2.006   2.358  -1.306  2.7000 -1.6356  1.5020
  226MOL0     H31156   1.930   2.613  -1.368  2.4696  0.9790  1.2339
  226MOL0     H31157   1.936   2.628  -1.189 -0.8922 -0.6352  0.7178
  226MOL0     H31158   1.729   2.577  -1.207  0.3224 -2.0197  3.6959
  226MOL0     H31159   1.774   2.409  -1.193 -0.9782 -0.6745 -0.6663
  226MOL0     H31160   1.730   2.512  -1.477  0.4568 -2.6315 -1.8898
  226MOL0     H31161   1.790   2.359  -1.429  1.5159  0.7833  0.0142
  226MOL0     H31162   1.508   2.450  -1.330 -3.4886 -1.9222 -2.7420
  226MOL0     H31163   1.599   2.313  -1.281 -0.5799  0.6104 -0.1245
  226MOL0     H31164   1.564   2.190  -1.464  0.3760  0.4695  1.6625
  226MOL0     H31165   1.567   2.324  -1.582 -1.8274 -0.3336 -0.7661
  226MOL0     H31166   1.339   2.243  -1.553 -1.2938 -2.8813  3.9395
  226MOL0     H31167   1.363   2.419  -1.509 -1.0770  0.2529  1.2333
  226MOL0     H31168   2.198   2.281  -0.933 -0.8309 -3.1851  2.5969
  226MOL0     H31169   2.201   2.252  -0.691  1.1922  0.3607  1.1136
  226MOL0     H31170   2.277   2.307  -0.299 -1.6959 -0.1781 -1.1654
  226MOL0     H31171   2.328   2.266  -0.075 -1.9527 -1.1231 -0.8826
  226MOL0     H31172   1.535   2.443   0.923  1.9549  2.5961  1.3421
  226MOL0     H31173   1.372   2.559   0.798 -1.2404  4.3653 -2.7506
  226MOL0     H31174   1.357   2.710   0.177 -0.2016  0.7105 -0.1547
  226MOL0     H31175   1.197   2.873   0.068  0.9847 -0.3929  1.4135
  226MOL0     H31176   0.822   2.917   0.226 -0.9221  0.3809 -1.0070
  226MOL0     H31177   0.871   3.069   0.301 -3.3788  1.8530 -0.5805
  226MOL0     H31178   0.886   3.163   0.058 -1.1070  3.6642  2.3908
  226MOL0     H31179   0.722   3.155   0.135 -1.1118 -1.5595 -0.2305
  226MOL0     H31180   0.737   3.080  -0.103 -0.8513 -1.2727 -2.2422
  226MOL0     H31181   0.835   2.953  -0.055  0.4778  2.2413 -4.0840
  226MOL0     H31182   0.538   3.014   0.023  0.8372  0.1273 -0.1916
  226MOL0     H31183   0.627   2.922   0.139 -1.0772  3.6080  1.5509
  226MOL0     H31184   0.553   2.675  -0.221  3.2378 -1.0504 -1.1293
  226MOL0     H31185   0.969   2.894   0.428 -2.0684  1.5497 -1.5150
  226MOL0     H31186   1.178   2.802   0.652  1.8509 -1.6630 -0.6877
  226MOL0     H31187   1.013   2.755   0.597 -0.4523  0.0454 -0.4729
  226MOL0     H31188   1.141   2.633   0.594  0.7751  0.8864  0.9851
  227MOL0     O31189   7.525   7.283   1.124  0.2702 -0.5171  0.1853
  227MOL0     C31190   7.514   7.164   1.136 -0.6408  0.4697  0.7671
  227MOL0     O31191   7.456   7.096   1.245 -0.0312 -0.0596  0.3661
  227MOL0     C31192   7.433   7.167   1.363 -0.5940 -0.4495  0.0139
  227MOL0     C31193   7.536   7.162   1.460  0.0779  0.0058  0.4900
  227MOL0     C31194   7.515   7.208   1.587 -0.4983 -0.1329 -0.2795
  227MOL0     C31195   7.391   7.281   1.616 -0.6962  0.3356  0.3510
  227MOL0     O31196   7.359   7.313   1.742  0.5877 -0.0579  0.1822
  227MOL0     C31197   7.466   7.362   1.828 -0.7479 -0.2153 -0.2663
  227MOL0     C31198   7.538   7.492   1.786  0.5994  0.0186  0.5581
  227MOL0     C31199   7.440   7.608   1.805  0.1643 -0.7680  0.7489
  227MOL0     C31200   7.523   7.736   1.854  0.4749  0.8117  0.7737
  227MOL0     C31201   7.434   7.856   1.853 -0.3982 -0.2946  0.6609
  227MOL0     C31202   7.497   7.997   1.825  0.5093  0.4684 -0.3886
  227MOL0     C31203   7.377   8.099   1.809  0.5491  0.9225 -0.1987
  227MOL0     C31204   7.422   8.236   1.775 -0.0644  1.2722  0.7802
  227MOL0     N31205   7.311   8.324   1.742 -0.2008 -0.6887 -0.0934
  227MOL0     C31206   7.237   8.390   1.839  0.7583 -0.0149  0.3822
  227MOL0     C31207   7.142   8.453   1.761 -0.6858  1.1029 -0.7982
  227MOL0     C31208   7.042   8.535   1.832 -0.0691  0.0264 -0.6030
  227MOL0     C31209   6.981   8.646   1.746  0.1015 -0.1854 -0.2054
  227MOL0     C31210   6.919   8.766   1.816 -0.1323 -0.0135 -0.1447
  227MOL0     C31211   7.013   8.856   1.893  0.6975 -0.1380 -0.1077
  227MOL0     O31212   7.102   8.937   1.806 -0.1104  0.6463  0.5314
  227MOL0     C31213   7.239   8.939   1.841 -0.4651 -0.0928 -0.2475
  227MOL0     C31214   7.285   8.985   1.964  0.4460 -0.0805 -0.1341
  227MOL0     C31215   7.410   9.009   2.001 -0.0002  0.0607  0.5471
  227MOL0     C31216   7.443   9.057   2.136  0.5290 -0.0800 -0.0747
  227MOL0     C31217   7.517   8.981   1.906 -0.4237 -0.5205  0.9426
  227MOL0     C31218   7.664   8.999   1.919 -0.1719  0.3185 -0.1374
  227MOL0     O31219   7.743   8.955   1.819 -0.0086  0.1952 -0.0936
  227MOL0     C31220   7.878   8.926   1.840  0.1504 -0.1454 -0.1036
  227MOL0     C31221   7.966   8.977   1.741  0.6723  0.4686 -0.1230
  227MOL0     C31222   8.106   8.946   1.753  0.6678  0.5434 -0.1072
  227MOL0     C31223   8.157   8.866   1.859 -0.0794 -0.0992 -0.0932
  227MOL0     O31224   8.286   8.847   1.883  0.2944  0.5060 -0.9866
  227MOL0     C31225   8.373   8.827   1.773  0.6835  0.2090  0.8737
  227MOL0     C31226   8.485   8.727   1.811 -0.3276 -0.1169 -0.3856
  227MOL0     C31227   8.602   8.787   1.890 -1.3856  0.6273 -1.2027
  227MOL0     C31228   8.721   8.698   1.903 -0.1341  0.5328 -0.3330
  227MOL0     C31229   8.828   8.766   1.989  0.5738 -0.3217  0.3459
  227MOL0     C31230   8.780   8.768   2.141 -0.4802  1.0436 -0.0542
  227MOL0     C31231   8.909   8.771   2.229 -0.8007  0.3673 -0.6063
  227MOL0     C31232   8.869   8.792   2.371  0.2025 -0.5580  0.5435
  227MOL0    Cl31233   8.762   8.656   2.417  0.6199  0.0906  0.0032
  227MOL0     C31234   8.070   8.801   1.947 -0.0391 -0.7405  0.4597
  227MOL0     C31235   7.932   8.839   1.948 -0.0561  0.2366  0.8337
  227MOL0     O31236   7.699   9.027   2.030 -0.5095  1.3339 -0.6341
  227MOL0     C31237   7.472   8.924   1.780  0.0553 -0.2831  0.2072
  227MOL0     C31238   7.339   8.912   1.747  1.0475 -0.0448  0.5176
  227MOL0     N31239   7.167   8.433   1.626  0.6486 -0.4326 -0.2993
  227MOL0     N31240   7.269   8.360   1.615  0.2066  0.0789 -0.2027
  227MOL0     C31241   7.303   7.304   1.510  0.0107 -0.4192 -0.6161
  227MOL0     C31242   7.317   7.245   1.386  0.2073  0.3201  0.3020
  227MOL0     C31243   7.571   7.090   1.028 -0.1718  0.8283 -0.0534
  227MOL0     C31244   7.554   6.945   1.044  0.8478  0.7573  0.5520
  227MOL0     C31245   7.599   6.862   0.945  0.5601  0.4704 -0.5708
  227MOL0     C31246   7.662   6.910   0.832 -0.7489 -0.4584 -0.1909
  227MOL0     O31247   7.738   6.835   0.746  0.2346  0.4048  0.3044
  227MOL0     C31248   7.710   6.812   0.603 -0.1280  0.2467  0.8454
  227MOL0     C31249   7.793   6.697   0.545 -0.5217 -0.6495  0.0244
  227MOL0     C31250   7.798   6.714   0.394 -0.5766  0.2638  0.1091
  227MOL0     C31251   7.838   6.578   0.344 -0.9629  1.0041  0.1680
  227MOL0     C31252   7.973   6.547   0.403  0.4308 -0.7294 -0.5756
  227MOL0     C31253   8.083   6.539   0.447  0.1490 -0.1885  0.2447
  227MOL0     C31254   7.670   7.048   0.811  0.0088  0.7176  0.1695
  227MOL0     C31255   7.627   7.137   0.904  0.2467 -0.6444 -0.0698
  227MOL0     C31256   7.643   7.283   0.879  0.6395 -0.0346  0.4092
  227MOL0     H31257   7.609   7.086   1.433 -3.4020 -2.1225 -4.6771
  227MOL0     H31258   7.589   7.195   1.666 -1.1850  1.5460  0.6913
  227MOL0     H31259   7.537   7.287   1.862  0.3879  1.4629  1.2441
  227MOL0     H31260   7.418   7.385   1.924  0.6868 -0.8223  0.6291
  227MOL0     H31261   7.635   7.513   1.833  1.6786  0.1795 -1.5974
  227MOL0     H31262   7.570   7.493   1.681  1.7133 -0.6742  0.8662
  227MOL0     H31263   7.385   7.627   1.713 -0.6028 -0.6586  1.2259
  227MOL0     H31264   7.359   7.582   1.874 -0.3612 -1.1172  0.0124
  227MOL0     H31265   7.554   7.717   1.957 -2.5456 -1.5150  1.4101
  227MOL0     H31266   7.602   7.747   1.780 -0.8082 -0.7749 -0.9283
  227MOL0     H31267   7.367   7.859   1.940 -4.1322  4.6858 -1.8929
  227MOL0     H31268   7.365   7.837   1.770 -2.2231  0.0024  2.0373
  227MOL0     H31269   7.564   8.014   1.910 -0.9898 -0.5828  1.0592
  227MOL0     H31270   7.548   7.995   1.728  1.3895  2.6422 -0.0322
  227MOL0     H31271   7.308   8.094   1.894 -1.7159 -0.9589 -1.9999
  227MOL0     H31272   7.304   8.072   1.731 -1.7284  1.4356  1.6353
  227MOL0     H31273   7.480   8.290   1.851 -0.1934  3.4674 -0.5880
  227MOL0     H31274   7.474   8.218   1.681 -2.0542 -3.4802  0.3157
  227MOL0     H31275   7.249   8.392   1.947  0.2084  0.1173  0.4462
  227MOL0     H31276   7.080   8.577   1.925 -2.9466  1.0905  0.1930
  227MOL0     H31277   6.950   8.485   1.864 -0.3098  2.0920  2.3750
  227MOL0     H31278   7.061   8.696   1.691  2.6512 -0.7136  2.7073
  227MOL0     H31279   6.914   8.602   1.673  1.7253 -0.9853 -1.2828
  227MOL0     H31280   6.874   8.826   1.736 -0.0831 -1.3185 -1.2024
  227MOL0     H31281   6.845   8.716   1.879 -1.4327  0.1330 -1.4808
  227MOL0     H31282   6.969   8.920   1.970 -3.8035  0.3078 -2.7414
  227MOL0     H31283   7.082   8.795   1.951  1.6532  0.0311 -1.0302
  227MOL0     H31284   7.208   9.006   2.037  0.5284  2.8235 -0.7573
  227MOL0     H31285   7.355   9.092   2.191  1.9302  3.5941  0.0952
  227MOL0     H31286   7.506   9.146   2.128 -1.7103  1.9723  2.8242
  227MOL0     H31287   7.490   8.980   2.199 -2.4511 -1.3252  0.7731
  227MOL0     H31288   7.928   9.034   1.657  0.0610  0.7444  0.3357
  227MOL0     H31289   8.179   8.984   1.682 -0.5038  2.6317 -0.2836
  227MOL0     H31290   8.324   8.782   1.686  1.7908  1.5622 -0.5181
  227MOL0     H31291   8.395   8.923   1.726 -1.0391  0.9223  1.4391
  227MOL0     H31292   8.435   8.649   1.870  0.9045  2.5677  4.8052
  227MOL0     H31293   8.522   8.686   1.717  0.9949  2.0813 -0.8860
  227MOL0     H31294   8.574   8.816   1.992 -1.6952  1.6253 -1.5675
  227MOL0     H31295   8.626   8.879   1.837  3.7118  0.3205  0.0535
  227MOL0     H31296   8.753   8.695   1.798  0.6398  2.1266 -0.1798
  227MOL0     H31297   8.694   8.599   1.942 -2.2644  1.7460  1.5086
  227MOL0     H31298   8.928   8.724   1.982 -0.3438 -3.1089  2.1695
  227MOL0     H31299   8.850   8.861   1.938 -1.1140 -1.8572 -3.7200
  227MOL0     H31300   8.729   8.674   2.162 -0.4748  0.6233 -1.7446
  227MOL0     H31301   8.712   8.848   2.172 -1.3335 -0.1932  1.4243
  227MOL0     H31302   8.973   8.856   2.205  2.5136 -2.0307 -1.0394
  227MOL0     H31303   8.978   8.686   2.219  0.5798  1.2491  1.0256
  227MOL0     H31304   8.816   8.885   2.395  0.1505 -0.7180  1.0475
  227MOL0     H31305   8.962   8.793   2.429 -0.9236  0.6977  2.4170
  227MOL0     H31306   8.106   8.736   2.026 -0.5893 -2.7850 -0.9048
  227MOL0     H31307   7.864   8.814   2.029  0.5959 -0.1413  1.2767
  227MOL0     H31308   7.551   8.898   1.710  0.5188  2.5769 -0.4581
  227MOL0     H31309   7.303   8.872   1.653 -2.9961 -0.9333  2.2173
  227MOL0     H31310   7.217   7.367   1.532 -1.8202 -2.8937 -0.2873
  227MOL0     H31311   7.233   7.247   1.317  1.3165 -0.3371 -1.1293
  227MOL0     H31312   7.503   6.895   1.125 -1.7418 -0.2961 -1.5807
  227MOL0     H31313   7.585   6.755   0.961  2.2616  0.4296  1.0658
  227MOL0     H31314   7.604   6.792   0.587  0.6734 -2.1795 -2.6217
  227MOL0     H31315   7.730   6.903   0.547  2.1581  0.0580  1.2369
  227MOL0     H31316   7.741   6.605   0.574 -2.7336  0.9955  1.6675
  227MOL0     H31317   7.891   6.707   0.592 -2.0509  1.4340  3.0918
  227MOL0     H31318   7.698   6.737   0.357 -1.3152 -1.8651  0.6316
  227MOL0     H31319   7.876   6.786   0.366 -0.2635 -0.6245 -1.4030
  227MOL0     H31320   7.854   6.586   0.236  0.5020 -1.6517  0.0801
  227MOL0     H31321   7.761   6.505   0.374  0.2252  0.4801  2.1392
  227MOL0     H31322   8.179   6.549   0.493  0.4687  2.4356 -0.8376
  227MOL0     H31323   7.707   7.069   0.711  0.9007 -1.2455  0.0397
  227MOL0     H31324   7.541   7.324   0.881  1.1746  1.4667 -1.2979
  227MOL0     H31325   7.711   7.308   0.961  2.4626 -0.7923 -0.8246
  227MOL0     H31326   7.698   7.306   0.788  1.8589  0.9304  1.3654
  228MOL0     O31327   6.327   4.838   5.756 -0.0302 -0.1010 -0.0364
  228MOL0     C31328   6.333   4.959   5.759 -0.4963 -0.4553 -0.1671
  228MOL0     O31329   6.371   5.031   5.871 -0.2930 -0.4719  0.2180
  228MOL0     C31330   6.378   4.978   5.991 -0.6278  1.4807  0.5785
  228MOL0     C31331   6.500   4.918   6.015 -0.6039  0.1288  0.2909
  228MOL0     C31332   6.510   4.834   6.129  0.1717 -0.2992  0.1600
  228MOL0     C31333   6.404   4.835   6.226 -0.7316 -0.1765  0.0848
  228MOL0     O31334   6.441   4.762   6.336 -0.3221  0.2297  0.8992
  228MOL0     C31335   6.390   4.799   6.467  0.0911  0.0061 -0.6346
  228MOL0     C31336   6.479   4.729   6.577  0.2802  0.0621 -0.6378
  228MOL0     C31337   6.629   4.767   6.582 -0.2083  0.3112  0.1904
  228MOL0     C31338   6.654   4.918   6.594  0.0122  0.1130  0.6597
  228MOL0     C31339   6.798   4.948   6.616  0.0433  0.4708  0.9783
  228MOL0     C31340   6.834   5.091   6.631 -0.6435  0.4966 -0.0628
  228MOL0     C31341   6.952   5.105   6.730 -0.9037  0.0631  0.2123
  228MOL0     C31342   6.984   5.243   6.786 -0.3973  0.8229  0.0310
  228MOL0     N31343   6.886   5.291   6.878  0.1309 -0.0882  0.0340
  228MOL0     C31344   6.904   5.322   7.010  1.0388 -0.0357  0.3233
  228MOL0     C31345   6.787   5.393   7.044  0.3905  0.4644  0.3751
  228MOL0     C31346   6.754   5.468   7.170  0.8478  0.6545 -0.5554
  228MOL0     C31347   6.621   5.417   7.245  0.3886  1.1163  1.0007
  228MOL0     C31348   6.621   5.471   7.391  0.6053 -0.9432  0.9397
  228MOL0     C31349   6.608   5.629   7.373  0.2143  0.7364 -0.2822
  228MOL0     O31350   6.561   5.661   7.507  0.3629  0.0382 -0.0124
  228MOL0     C31351   6.566   5.791   7.544 -0.6445  0.4212  1.0439
  228MOL0     C31352   6.498   5.828   7.661  0.1319 -0.1777  0.2086
  228MOL0     C31353   6.489   5.962   7.702 -0.6413  0.8299  0.0442
  228MOL0     C31354   6.398   5.989   7.821 -0.3136  0.0150  0.1847
  228MOL0     C31355   6.566   6.056   7.625  0.9075  0.2092 -0.5413
  228MOL0     C31356   6.563   6.188   7.666 -0.1843 -0.1922  0.5600
  228MOL0     O31357   6.591   6.216   7.789 -0.1329  0.0943 -0.9292
  228MOL0     C31358   6.614   6.347   7.815 -0.5699  0.0186 -0.1329
  228MOL0     C31359   6.504   6.435   7.846 -0.5173 -0.2605  0.8639
  228MOL0     C31360   6.534   6.567   7.871  0.3459 -0.3949 -0.6082
  228MOL0     C31361   6.670   6.612   7.872 -0.4061  0.2711 -0.3308
  228MOL0     O31362   6.696   6.742   7.905  0.1179  0.5478 -0.5292
  228MOL0     C31363   6.826   6.812   7.886 -0.6696 -0.2060 -0.1683
  228MOL0     C31364   6.813   6.960   7.844 -1.1226  0.3418  0.2949
  228MOL0     C31365   6.936   7.011   7.776 -0.0760 -0.1468 -0.7018
  228MOL0     C31366   7.013   7.115   7.856  1.2256 -0.2840  0.0329
  228MOL0     C31367   7.141   7.164   7.780  0.3708 -0.1830  0.0157
  228MOL0     C31368   7.234   7.245   7.869  0.1619  0.2682 -0.4273
  228MOL0     C31369   7.360   7.266   7.805 -0.1262  0.0905 -1.0893
  228MOL0     C31370   7.456   7.340   7.912 -0.3042  0.0017  0.2734
  228MOL0    Cl31371   7.414   7.511   7.881 -0.3967 -0.2387  0.1256
  228MOL0     C31372   6.772   6.529   7.830  0.2937  0.6226  0.3367
  228MOL0     C31373   6.749   6.400   7.799 -0.2801 -0.5794  0.1241
  228MOL0     O31374   6.533   6.264   7.579  0.4427  0.1274  0.3911
  228MOL0     C31375   6.642   6.013   7.511 -0.4029  0.1158  1.1698
  228MOL0     C31376   6.648   5.886   7.476  0.1421 -0.0046 -1.2267
  228MOL0     N31377   6.698   5.387   6.942  0.4388  0.6886 -0.6589
  228MOL0     N31378   6.761   5.329   6.840 -0.0425  0.0669  1.1082
  228MOL0     C31379   6.289   4.898   6.206  0.1038 -0.1641  0.1122
  228MOL0     C31380   6.272   4.959   6.080 -0.7293 -0.5601 -0.5136
  228MOL0     C31381   6.312   5.013   5.626 -0.0555  0.3274 -0.3903
  228MOL0     C31382   6.198   4.979   5.546  1.3078 -0.8007  0.4737
  228MOL0     C31383   6.185   5.037   5.420 -0.5518  0.0030  0.1479
  228MOL0     C31384   6.282   5.127   5.372 -0.7267 -0.4114  0.7096
  228MOL0     O31385   6.255   5.180   5.246  0.1373  0.2399 -0.2493
  228MOL0     C31386   6.340   5.277   5.186 -0.6340  1.3006 -0.5665
  228MOL0     C31387   6.286   5.307   5.047 -0.3769 -0.5942 -0.4812
  228MOL0     C31388   6.191   5.436   5.055  0.1856 -0.8235 -0.1807
  228MOL0     C31389   6.086   5.443   4.937 -0.4498  0.2408 -0.2244
  228MOL0     C31390   6.010   5.570   4.947  0.7425  0.3038  0.0972
  228MOL0     C31391   5.951   5.673   4.963  0.6493  0.1670  0.3274
  228MOL0     C31392   6.400   5.155   5.442  0.7696 -0.6042 -0.6302
  228MOL0     C31393   6.411   5.093   5.573 -0.4616 -0.4830  0.7673
  228MOL0     C31394   6.538   5.124   5.641  0.4515  1.0309  0.1776
  228MOL0     H31395   6.583   4.927   5.946 -1.7437  0.5604 -1.0700
  228MOL0     H31396   6.601   4.775   6.120  0.5825  0.4790 -1.1203
  228MOL0     H31397   6.291   4.755   6.484 -0.0063 -0.4119 -2.1321
  228MOL0     H31398   6.391   4.909   6.470  4.3917  0.1123 -0.1530
  228MOL0     H31399   6.438   4.747   6.677  0.9236 -1.6262 -0.0222
  228MOL0     H31400   6.469   4.620   6.570 -3.4104  0.0697  1.6516
  228MOL0     H31401   6.686   4.716   6.661  0.1299  1.1772  0.5140
  228MOL0     H31402   6.679   4.733   6.491  0.1557 -0.1291  0.5518
  228MOL0     H31403   6.628   4.966   6.499 -1.8672 -0.1857  0.9788
  228MOL0     H31404   6.592   4.968   6.669  0.9298 -0.8241  2.0939
  228MOL0     H31405   6.862   4.903   6.540  1.0059  0.4768  1.7654
  228MOL0     H31406   6.814   4.896   6.711  2.7310 -0.6510  0.0206
  228MOL0     H31407   6.862   5.130   6.533 -0.9853  1.1293  0.0888
  228MOL0     H31408   6.745   5.147   6.660  1.5069  2.2117  4.1371
  228MOL0     H31409   7.043   5.096   6.670 -1.2297  3.6901 -1.0626
  228MOL0     H31410   6.961   5.028   6.807 -1.1559 -2.8616 -2.4689
  228MOL0     H31411   7.076   5.229   6.843 -1.1779 -0.0667  1.1309
  228MOL0     H31412   6.995   5.314   6.703 -1.6601 -1.0437 -1.8383
  228MOL0     H31413   6.992   5.328   7.073 -0.4950 -0.4502  2.6245
  228MOL0     H31414   6.743   5.576   7.154  1.8091  0.8645  0.1070
  228MOL0     H31415   6.839   5.466   7.239  1.2906 -0.1794 -1.1048
  228MOL0     H31416   6.532   5.445   7.189  2.1131  3.6444 -0.6786
  228MOL0     H31417   6.620   5.307   7.250  1.6028  1.1488  3.2386
  228MOL0     H31418   6.545   5.426   7.456  1.4966 -1.0624  1.9226
  228MOL0     H31419   6.710   5.446   7.449  0.1659  1.1277  2.6653
  228MOL0     H31420   6.706   5.678   7.370  0.2022  0.7500 -0.4329
  228MOL0     H31421   6.537   5.656   7.295  0.3641  3.0606  0.3072
  228MOL0     H31422   6.448   5.751   7.719 -1.6652  0.3321 -0.5658
  228MOL0     H31423   6.415   5.905   7.889  4.2859 -1.0874 -1.9905
  228MOL0     H31424   6.294   6.000   7.787  0.2867  2.3779 -1.1029
  228MOL0     H31425   6.428   6.084   7.866 -2.7608  1.0556 -0.2373
  228MOL0     H31426   6.406   6.389   7.833  0.1281 -0.9757 -2.0562
  228MOL0     H31427   6.450   6.636   7.874  0.3062 -0.4715  1.3029
  228MOL0     H31428   6.881   6.799   7.979 -0.0379  4.6363  0.4142
  228MOL0     H31429   6.873   6.759   7.803 -1.4970 -3.1725  1.1439
  228MOL0     H31430   6.727   6.970   7.778  0.0393  0.8360 -1.2005
  228MOL0     H31431   6.793   7.016   7.936 -1.0052 -0.0773  0.5781
  228MOL0     H31432   6.909   7.062   7.683  2.5417  1.5386 -0.6419
  228MOL0     H31433   7.015   6.937   7.763  1.2561  1.0545  0.2117
  228MOL0     H31434   7.031   7.074   7.956 -1.6313 -0.3895  0.5834
  228MOL0     H31435   6.965   7.212   7.872  3.4384  0.8379  0.3053
  228MOL0     H31436   7.194   7.072   7.751 -0.2003 -0.2593 -0.7958
  228MOL0     H31437   7.127   7.223   7.690  0.7969 -1.8894 -1.2285
  228MOL0     H31438   7.237   7.200   7.969 -3.3310  0.5969 -0.0444
  228MOL0     H31439   7.173   7.336   7.875 -4.2661 -2.2790 -1.6524
  228MOL0     H31440   7.347   7.334   7.721  0.9752  2.3241  0.4392
  228MOL0     H31441   7.410   7.176   7.769 -0.5478 -1.8472  2.6234
  228MOL0     H31442   7.559   7.316   7.883  0.2043 -0.9314  2.5930
  228MOL0     H31443   7.437   7.306   8.014 -0.9500 -1.5927 -0.3578
  228MOL0     H31444   6.875   6.565   7.824  2.2119 -3.6826  2.5464
  228MOL0     H31445   6.826   6.329   7.770 -0.8216 -1.1689  0.1118
  228MOL0     H31446   6.706   6.087   7.464 -1.0030  1.5851  2.5809
  228MOL0     H31447   6.721   5.862   7.399  0.3270 -0.4601 -0.9185
  228MOL0     H31448   6.217   4.895   6.288  0.1829  0.7812  0.2345
  228MOL0     H31449   6.172   4.996   6.057  0.5160  2.7156 -1.2191
  228MOL0     H31450   6.120   4.910   5.575  0.8145  0.3565  2.0303
  228MOL0     H31451   6.108   5.005   5.350 -0.5691  2.1940 -0.9328
  228MOL0     H31452   6.356   5.368   5.245  4.0003 -1.3939  3.0137
  228MOL0     H31453   6.443   5.240   5.179 -0.3424  2.0635 -0.4683
  228MOL0     H31454   6.226   5.225   5.006 -1.8646  1.2265 -2.1950
  228MOL0     H31455   6.355   5.338   4.968 -2.1656  0.2596 -1.7893
  228MOL0     H31456   6.139   5.425   5.150 -2.7552 -0.1245 -1.5937
  228MOL0     H31457   6.245   5.531   5.063 -0.4516 -0.5671  1.4221
  228MOL0     H31458   6.019   5.358   4.955 -1.0369  0.2752 -2.0166
  228MOL0     H31459   6.135   5.442   4.839 -1.3446  4.0393 -0.8750
  228MOL0     H31460   5.900   5.761   4.997  0.1967 -0.4845  1.3693
  228MOL0     H31461   6.483   5.211   5.401  0.7667  0.6065  0.9159
  228MOL0     H31462   6.511   5.167   5.738 -2.7864 -1.0687  0.3776
  228MOL0     H31463   6.598   5.033   5.645  1.1892  1.4021 -1.4473
  228MOL0     H31464   6.597   5.195   5.582  0.0101 -0.3032 -1.9971
  229MOL0     O31465   8.117  10.015   9.180  0.2295  0.2618 -0.2312
  229MOL0     C31466   8.213  10.078   9.135  0.9298  1.1914 -0.4699
  229MOL0     O31467   8.256  10.202   9.182  0.3799 -0.0713 -0.0747
  229MOL0     C31468   8.225  10.257   9.303 -0.0953  0.5425 -0.7544
  229MOL0     C31469   8.229  10.182   9.428 -0.0427  0.6961 -1.0045
  229MOL0     C31470   8.205  10.250   9.553  0.3818 -0.3353 -0.0050
  229MOL0     C31471   8.161  10.386   9.557  1.0068 -1.1994 -0.4556
  229MOL0     O31472   8.102  10.458   9.662  0.7095  0.3679  0.4383
  229MOL0     C31473   8.012  10.388   9.751  0.3632 -0.0906 -0.0980
  229MOL0     C31474   7.987  10.464   9.882 -0.0805  1.0418 -0.4183
  229MOL0     C31475   7.918  10.600   9.864 -0.1819  0.2857  0.3709
  229MOL0     C31476   7.928  10.692   9.993  0.5923  0.4873  0.1125
  229MOL0     C31477   7.897  10.639  10.125 -0.7624  0.3697 -0.9092
  229MOL0     C31478   7.915  10.723  10.261  0.7483  0.8179  0.4800
  229MOL0     C31479   8.056  10.777  10.275  0.0423 -0.1261 -0.7305
  229MOL0     C31480   8.156  10.660  10.288 -1.4258 -0.5440  0.5041
  229MOL0     N31481   8.299  10.708  10.286  0.0643 -0.2154  0.5454
  229MOL0     C31482   8.384  10.669  10.193  0.5365  0.4283 -0.1494
  229MOL0     C31483   8.497  10.726  10.232 -0.5111 -0.4790 -0.0739
  229MOL0     C31484   8.632  10.722  10.170  0.4476  0.4614  0.5371
  229MOL0     C31485   8.686  10.588  10.139 -0.2318 -0.1157 -0.0598
  229MOL0     C31486   8.701  10.501  10.273 -0.1071 -0.6504  0.6080
  229MOL0     C31487   8.728  10.348  10.245 -0.3935  0.0430 -0.1511
  229MOL0     O31488   8.850  10.342  10.167  0.1725 -0.2192 -0.3318
  229MOL0     C31489   8.902  10.229  10.126 -0.8361  0.1857 -0.4499
  229MOL0     C31490   9.035  10.250  10.093 -0.2458  0.7438  0.5103
  229MOL0     C31491   9.108  10.149  10.036 -0.0545 -0.9003  0.6852
  229MOL0     C31492   9.249  10.188  10.006 -0.1485 -0.2033  0.1746
  229MOL0     C31493   9.054  10.017  10.014  0.2605  0.4650 -0.3284
  229MOL0     C31494   9.129   9.917   9.938 -0.9317  0.3355 -1.3618
  229MOL0     O31495   9.151   9.796  10.002  0.2894 -0.1976  0.2723
  229MOL0     C31496   9.208   9.694   9.929 -0.3417 -0.4949 -0.9621
  229MOL0     C31497   9.141   9.627   9.831  0.6335  0.3283 -0.2579
  229MOL0     C31498   9.205   9.527   9.758 -0.6850  0.2063 -0.3415
  229MOL0     C31499   9.333   9.488   9.790  0.4642 -1.0378 -0.0465
  229MOL0     O31500   9.389   9.380   9.728  0.8215  0.4194 -0.4135
  229MOL0     C31501   9.500   9.313   9.794 -0.2270 -0.1750  0.1856
  229MOL0     C31502   9.521   9.173   9.733 -0.1929 -0.4510 -0.1182
  229MOL0     C31503   9.586   9.069   9.831  0.3428 -0.5538  0.5399
  229MOL0     C31504   9.722   9.113   9.885 -0.1525 -0.0221 -0.0347
  229MOL0     C31505   9.740   9.066  10.027 -0.5136 -0.8955 -0.5048
  229MOL0     C31506   9.856   9.151  10.088 -0.5542 -0.7204  0.5082
  229MOL0     C31507   9.815   9.288  10.135  0.1523  0.8809 -0.5928
  229MOL0     C31508   9.884   9.314  10.266 -0.0928 -0.3499  0.1834
  229MOL0    Cl31509   9.880   9.496  10.300 -0.2046  0.2754 -0.6224
  229MOL0     C31510   9.393   9.563   9.902 -0.3490  0.8354 -0.1439
  229MOL0     C31511   9.336   9.665   9.968  0.6639 -0.1672  0.1687
  229MOL0     O31512   9.171   9.950   9.826 -0.2611  0.4556 -0.5580
  229MOL0     C31513   8.921   9.989  10.058  0.4536  0.1543 -0.2433
  229MOL0     C31514   8.847  10.096  10.117 -0.1510  0.4864 -1.3340
  229MOL0     N31515   8.487  10.787  10.355  0.7914  0.5266  0.1943
  229MOL0     N31516   8.360  10.780  10.381  0.0317  0.4028 -0.2015
  229MOL0     C31517   8.163  10.460   9.438  0.2449  0.5841 -0.1515
  229MOL0     C31518   8.192  10.397   9.317 -0.5245 -0.2122  0.5828
  229MOL0     C31519   8.287  10.015   9.027 -0.3583  0.6969  0.1878
  229MOL0     C31520   8.401  10.090   8.973  0.9053 -0.1043 -0.7322
  229MOL0     C31521   8.483  10.031   8.878  0.0609 -1.2426  0.1673
  229MOL0     C31522   8.462   9.898   8.831  0.0510 -0.9793  0.0371
  229MOL0     O31523   8.549   9.841   8.743  0.1328 -0.2112  0.1600
  229MOL0     C31524   8.524   9.725   8.671 -0.0334  0.1417  0.3733
  229MOL0     C31525   8.414   9.726   8.573  0.7506 -0.9603  0.0914
  229MOL0     C31526   8.449   9.781   8.428 -0.2236  0.0967  0.3183
  229MOL0     C31527   8.328   9.782   8.331 -0.1023 -0.6230 -0.0802
  229MOL0     C31528   8.364   9.790   8.193 -0.2582 -0.2306 -0.2596
  229MOL0     C31529   8.387   9.797   8.072  0.1738 -1.2200  0.7117
  229MOL0     C31530   8.355   9.830   8.886 -1.1325 -0.5028  0.7943
  229MOL0     C31531   8.267   9.884   8.979 -0.0288  0.4953  0.0545
  229MOL0     C31532   8.146   9.803   9.014  0.0124 -0.1904  0.6668
  229MOL0     H31533   8.259  10.079   9.436 -3.4723 -0.3018  1.5168
  229MOL0     H31534   8.196  10.179   9.635 -3.3358  2.5811  2.4177
  229MOL0     H31535   8.043  10.285   9.774  4.9465  1.3180  1.3190
  229MOL0     H31536   7.920  10.398   9.694 -0.1116 -0.2147  0.6315
  229MOL0     H31537   7.924  10.405   9.950  2.0733 -1.8856 -0.7761
  229MOL0     H31538   8.084  10.492   9.923  0.4353  2.6071 -2.5383
  229MOL0     H31539   7.975  10.654   9.787  1.7731 -1.0836  0.7794
  229MOL0     H31540   7.817  10.599   9.822 -1.2191 -0.2546  2.7081
  229MOL0     H31541   8.025  10.743   9.990  0.1809  1.2703 -1.2698
  229MOL0     H31542   7.861  10.776   9.968 -1.7236 -1.0988  0.6370
  229MOL0     H31543   7.954  10.547  10.143 -1.7457 -0.4750 -1.9669
  229MOL0     H31544   7.798  10.594  10.125  0.8323 -4.1014  3.6951
  229MOL0     H31545   7.845  10.807  10.264 -1.9071 -1.2428  3.3329
  229MOL0     H31546   7.892  10.661  10.349  1.2659  0.4973  0.3972
  229MOL0     H31547   8.068  10.843  10.361  3.2153  0.1704 -1.2671
  229MOL0     H31548   8.068  10.847  10.191 -2.3312  1.3237  0.0544
  229MOL0     H31549   8.135  10.603  10.379 -0.5329  1.7927  2.2788
  229MOL0     H31550   8.137  10.596  10.201 -0.3691 -0.7965  0.4426
  229MOL0     H31551   8.368  10.610  10.103  2.7600  0.7704 -0.8447
  229MOL0     H31552   8.698  10.772  10.242  0.8489 -0.5505  0.8930
  229MOL0     H31553   8.627  10.782  10.078 -2.6029 -0.1858  0.1897
  229MOL0     H31554   8.617  10.529  10.077  1.2264 -3.0725  0.9499
  229MOL0     H31555   8.775  10.576  10.076 -1.8342 -3.3760 -1.9800
  229MOL0     H31556   8.783  10.540  10.334 -0.7187  1.7451 -0.0207
  229MOL0     H31557   8.615  10.504  10.340 -0.4787 -0.2815  0.1275
  229MOL0     H31558   8.737  10.298  10.342 -1.8976 -0.8191 -0.4226
  229MOL0     H31559   8.648  10.300  10.188 -0.0200 -0.3021 -0.3864
  229MOL0     H31560   9.084  10.345  10.107 -0.0995  1.0535 -1.8080
  229MOL0     H31561   9.305  10.161  10.096 -1.8499 -0.0322  1.3360
  229MOL0     H31562   9.264  10.293   9.977  2.3366  0.5256  3.5004
  229MOL0     H31563   9.284  10.142   9.913  0.1449  0.3203  0.0207
  229MOL0     H31564   9.036   9.651   9.818  0.5766  0.4840  0.4229
  229MOL0     H31565   9.159   9.460   9.685  0.5759 -0.6437 -0.3903
  229MOL0     H31566   9.586   9.377   9.776 -0.4634  0.0118 -0.2848
  229MOL0     H31567   9.480   9.305   9.902 -1.6535  0.0997 -0.0308
  229MOL0     H31568   9.424   9.125   9.716 -0.3665 -0.3612  0.5761
  229MOL0     H31569   9.568   9.182   9.635 -2.9690  1.4909 -1.4169
  229MOL0     H31570   9.611   8.975   9.780  0.3780 -0.7967  1.0001
  229MOL0     H31571   9.511   9.057   9.909 -2.2982 -3.2418 -2.1509
  229MOL0     H31572   9.713   9.222   9.882 -2.4333 -0.1828 -1.0888
  229MOL0     H31573   9.804   9.090   9.816 -1.2490 -0.4383 -1.2214
  229MOL0     H31574   9.652   9.074  10.091 -0.9901 -3.4210 -0.7299
  229MOL0     H31575   9.766   8.960  10.029 -1.2728 -1.1529 -2.2467
  229MOL0     H31576   9.938   9.177  10.021 -1.8999 -0.2994 -1.0374
  229MOL0     H31577   9.901   9.085  10.163  2.0513 -1.6101 -1.6702
  229MOL0     H31578   9.707   9.287  10.156 -0.1763  2.0962 -2.0707
  229MOL0     H31579   9.837   9.368  10.064  0.8973  0.3645 -0.9532
  229MOL0     H31580   9.986   9.275  10.258 -0.3834 -1.5171  1.7954
  229MOL0     H31581   9.832   9.268  10.350 -1.0681  1.7554  0.8037
  229MOL0     H31582   9.488   9.531   9.943 -2.0717 -3.3647  1.0025
  229MOL0     H31583   9.390   9.728  10.038  1.3418  1.4823 -1.7160
  229MOL0     H31584   8.884   9.887  10.057  4.1056 -1.3739  1.2742
  229MOL0     H31585   8.752  10.065  10.159  2.7114 -0.8171  5.7327
  229MOL0     H31586   8.130  10.563   9.429 -1.1763  0.1603 -0.0923
  229MOL0     H31587   8.183  10.444   9.220  0.4349 -0.9728  0.1077
  229MOL0     H31588   8.429  10.192   9.000  1.3347 -0.5705  0.7005
  229MOL0     H31589   8.578  10.075   8.850 -0.0147 -0.2854  1.3238
  229MOL0     H31590   8.616   9.698   8.619 -2.0583 -4.1745 -1.5426
  229MOL0     H31591   8.506   9.655   8.753  2.3709 -2.0777 -0.8313
  229MOL0     H31592   8.334   9.791   8.610  0.9574  0.9409 -2.5004
  229MOL0     H31593   8.369   9.628   8.555  0.3853 -1.2891  2.4451
  229MOL0     H31594   8.490   9.880   8.447  0.4514  0.1504 -1.2687
  229MOL0     H31595   8.528   9.721   8.381  1.4718  2.8390 -0.5589
  229MOL0     H31596   8.269   9.872   8.354  2.5745  1.1749  0.3174
  229MOL0     H31597   8.265   9.695   8.350  0.8003 -1.8119 -2.2233
  229MOL0     H31598   8.411   9.812   7.968 -2.3333  3.2396  0.5237
  229MOL0     H31599   8.336   9.726   8.862 -4.0860 -0.1492  1.1825
  229MOL0     H31600   8.158   9.711   8.955  0.6379  0.2079  0.1561
  229MOL0     H31601   8.150   9.784   9.121  0.2219  1.9778  1.0865
  229MOL0     H31602   8.052   9.850   8.985 -0.1656 -0.6500  0.4779
  230MOL0     O31603   9.238   8.868  11.298 -0.3226 -0.6723  0.1314
  230MOL0     C31604   9.164   8.824  11.386  0.1137  0.3737 -0.2366
  230MOL0     O31605   9.163   8.691  11.430  0.2641  0.4370 -0.2846
  230MOL0     C31606   9.220   8.596  11.345 -0.5284  0.2236 -0.4553
  230MOL0     C31607   9.351   8.582  11.317 -1.0263 -0.2994 -0.8641
  230MOL0     C31608   9.394   8.459  11.266 -0.4930 -0.1508  0.8217
  230MOL0     C31609   9.301   8.366  11.216 -0.1395 -0.6825  0.0450
  230MOL0     O31610   9.343   8.246  11.159 -0.0103  0.2879 -0.1683
  230MOL0     C31611   9.420   8.170  11.245 -0.0376  1.0195 -0.0775
  230MOL0     C31612   9.345   8.034  11.270  0.0915  0.2880  0.1272
  230MOL0     C31613   9.431   7.957  11.372  0.0421  0.0060 -1.1075
  230MOL0     C31614   9.391   7.980  11.522  0.1289 -0.5582 -0.7639
  230MOL0     C31615   9.479   7.902  11.619  0.3610 -0.3867  0.4757
  230MOL0     C31616   9.476   7.923  11.771 -0.4959 -0.2395  0.6952
  230MOL0     C31617   9.337   7.877  11.828 -0.4144  0.9015  0.5342
  230MOL0     C31618   9.316   7.917  11.976 -1.1058 -0.6324  0.8506
  230MOL0     N31619   9.436   7.891  12.054 -0.1303 -0.0512  0.1046
  230MOL0     C31620   9.517   7.984  12.122 -0.4504 -0.8105  0.7611
  230MOL0     C31621   9.602   7.909  12.192 -0.8160 -0.4590  0.8296
  230MOL0     C31622   9.718   7.954  12.275  0.2418 -0.3530  0.3427
  230MOL0     C31623   9.856   7.907  12.213  0.1206  1.3182 -0.3512
  230MOL0     C31624   9.892   7.764  12.279  0.3850 -0.1048 -0.1511
  230MOL0     C31625  10.044   7.745  12.236 -0.8518 -0.3481  0.3927
  230MOL0     O31626  10.073   7.604  12.228 -0.1446 -0.2308  0.0075
  230MOL0     C31627  10.203   7.564  12.203 -0.0550 -0.4345 -0.2289
  230MOL0     C31628  10.303   7.655  12.164  0.5589 -0.5759  0.1973
  230MOL0     C31629  10.425   7.623  12.101  0.0326 -0.2313 -0.1716
  230MOL0     C31630  10.516   7.730  12.053  0.4254  0.5245 -1.5727
  230MOL0     C31631  10.449   7.483  12.089  0.0764 -0.0014 -0.0261
  230MOL0     C31632  10.557   7.416  12.004  0.9138 -0.0007 -0.3045
  230MOL0     O31633  10.628   7.496  11.929 -0.4577 -0.4333  0.7667
  230MOL0     C31634  10.718   7.434  11.843 -0.6858 -0.3064 -0.0314
  230MOL0     C31635  10.670   7.367  11.734 -0.1553  0.0816 -0.3224
  230MOL0     C31636  10.763   7.295  11.661 -0.2829  0.1344 -0.0639
  230MOL0     C31637  10.906   7.312  11.677  0.3307  0.8561  0.2073
  230MOL0     O31638  10.983   7.253  11.580  0.3269 -0.4827  0.3294
  230MOL0     C31639  11.128   7.276  11.593  0.0648 -0.3458 -0.0592
  230MOL0     C31640  11.204   7.206  11.480 -0.4383 -0.5219  0.4912
  230MOL0     C31641  11.203   7.275  11.344 -0.2723  0.3532 -0.0894
  230MOL0     C31642  11.289   7.204  11.245 -0.6999  1.0521 -0.2432
  230MOL0     C31643  11.251   7.241  11.095 -0.4793 -0.6907 -0.3227
  230MOL0     C31644  11.345   7.177  11.001  0.3966  0.1428  1.1113
  230MOL0     C31645  11.285   7.167  10.862 -0.3858  1.1636 -0.2778
  230MOL0     C31646  11.377   7.090  10.777 -0.3758  0.7598  0.5294
  230MOL0    Cl31647  11.326   7.085  10.602  0.1874 -0.5507 -0.2817
  230MOL0     C31648  10.952   7.388  11.784  0.2505 -0.2147 -1.1801
  230MOL0     C31649  10.858   7.457  11.864  0.1405 -0.3015 -0.5359
  230MOL0     O31650  10.562   7.289  12.001 -0.0023 -0.0129  0.9043
  230MOL0     C31651  10.349   7.395  12.133 -0.1402  0.2999 -0.1542
  230MOL0     C31652  10.227   7.434  12.187 -0.5334  0.2549 -0.1012
  230MOL0     N31653   9.582   7.774  12.168 -0.5794 -0.8708  0.1729
  230MOL0     N31654   9.475   7.769  12.091 -0.8720  0.8592  0.0262
  230MOL0     C31655   9.168   8.401  11.220 -0.3585  0.1973  0.3184
  230MOL0     C31656   9.132   8.516  11.282  0.0847  0.0459  0.8583
  230MOL0     C31657   9.080   8.922  11.453 -0.4757 -0.1397  0.0307
  230MOL0     C31658   8.957   8.884  11.508  0.0473  0.1727  1.0617
  230MOL0     C31659   8.887   8.959  11.603 -0.4265 -0.1317 -0.4037
  230MOL0     C31660   8.924   9.094  11.628 -0.1854  0.7153 -0.4745
  230MOL0     O31661   8.867   9.149  11.738  0.1943 -1.0192 -0.3319
  230MOL0     C31662   8.949   9.234  11.824 -0.1691  0.5366 -0.3887
  230MOL0     C31663   9.032   9.158  11.926 -0.8297 -0.2509 -0.2073
  230MOL0     C31664   9.145   9.098  11.854 -1.1217 -0.4743  0.0359
  230MOL0     C31665   9.236   9.022  11.951  0.4835  0.9959  0.4989
  230MOL0     C31666   9.173   8.906  12.018 -0.6105 -0.3038 -0.4965
  230MOL0     C31667   9.115   8.813  12.082  0.6583 -0.7644  0.0971
  230MOL0     C31668   9.024   9.146  11.544 -0.0386 -0.4403 -0.9795
  230MOL0     C31669   9.103   9.063  11.461 -0.0489  0.1141 -0.0890
  230MOL0     C31670   9.219   9.125  11.392 -0.2923 -0.3170 -0.6332
  230MOL0     H31671   9.415   8.649  11.373  3.4237 -3.1417 -2.0226
  230MOL0     H31672   9.501   8.442  11.260 -0.1124  1.9522  0.7568
  230MOL0     H31673   9.439   8.209  11.346  2.4736  1.1043 -0.5321
  230MOL0     H31674   9.517   8.153  11.197 -1.3421 -1.1817 -2.1726
  230MOL0     H31675   9.243   8.031  11.307 -1.1252  0.4343 -2.8719
  230MOL0     H31676   9.336   7.984  11.173 -1.6692 -0.0711  0.4516
  230MOL0     H31677   9.419   7.853  11.340  3.3648 -0.0500 -2.5343
  230MOL0     H31678   9.539   7.976  11.372 -0.1956  1.5127 -0.1394
  230MOL0     H31679   9.403   8.087  11.543  0.4192 -0.2437 -2.3636
  230MOL0     H31680   9.286   7.953  11.537  0.1626 -0.0139  0.6506
  230MOL0     H31681   9.582   7.933  11.597  0.1962  2.0697  2.6550
  230MOL0     H31682   9.456   7.799  11.590  1.7360 -0.7759  0.6580
  230MOL0     H31683   9.556   7.873  11.826 -0.1133  1.3739  1.6477
  230MOL0     H31684   9.491   8.028  11.794  2.3292 -0.7675  1.7035
  230MOL0     H31685   9.335   7.769  11.811  0.6982  0.9020  0.3472
  230MOL0     H31686   9.252   7.911  11.768 -0.9431 -0.2758  0.5923
  230MOL0     H31687   9.299   8.025  11.965  3.9644  0.1742 -2.7906
  230MOL0     H31688   9.226   7.872  12.019 -1.3634 -1.2081 -0.2391
  230MOL0     H31689   9.512   8.093  12.116 -0.5048 -0.7612  1.5480
  230MOL0     H31690   9.717   7.912  12.376  0.5627  1.7780  1.2640
  230MOL0     H31691   9.720   8.063  12.278 -0.0448 -0.3711  1.6325
  230MOL0     H31692   9.854   7.895  12.105 -2.9779 -0.7382 -0.1901
  230MOL0     H31693   9.935   7.974  12.248 -0.2409  0.4919  2.2775
  230MOL0     H31694   9.874   7.760  12.387 -1.5027  1.5591 -0.3379
  230MOL0     H31695   9.833   7.688  12.228 -2.5325  1.0618  1.2164
  230MOL0     H31696  10.061   7.798  12.143 -0.1300 -1.1872  0.0355
  230MOL0     H31697  10.112   7.799  12.301  0.6883  1.0645 -2.2520
  230MOL0     H31698  10.283   7.761  12.171  2.1828 -0.3648  3.3009
  230MOL0     H31699  10.606   7.732  12.115  0.0798  1.4078 -1.0839
  230MOL0     H31700  10.481   7.834  12.048  0.3394  0.4634 -2.2629
  230MOL0     H31701  10.549   7.709  11.951 -0.8980 -0.2323 -1.8603
  230MOL0     H31702  10.564   7.349  11.721 -0.3345  0.9411 -0.1087
  230MOL0     H31703  10.723   7.238  11.577 -0.6423  0.6075 -0.2159
  230MOL0     H31704  11.153   7.382  11.583 -0.2608 -0.2262  0.3921
  230MOL0     H31705  11.166   7.250  11.692 -0.0701  3.9373  1.3165
  230MOL0     H31706  11.312   7.196  11.492  0.2069  2.3582 -1.7153
  230MOL0     H31707  11.161   7.106  11.468  0.7378 -0.9669 -0.2217
  230MOL0     H31708  11.207   7.383  11.356 -2.2780  0.2456  2.3875
  230MOL0     H31709  11.103   7.265  11.301 -0.9425 -0.4962  1.5908
  230MOL0     H31710  11.281   7.095  11.255 -1.9782  1.2895  1.9043
  230MOL0     H31711  11.390   7.241  11.266 -1.3833  0.9971  4.0028
  230MOL0     H31712  11.148   7.214  11.072 -1.3094  2.9511 -1.6648
  230MOL0     H31713  11.256   7.350  11.085 -0.6711 -0.7071 -0.5964
  230MOL0     H31714  11.382   7.080  11.038  1.6765 -0.1792 -0.8802
  230MOL0     H31715  11.435   7.240  11.002  1.5984 -1.2430 -2.8033
  230MOL0     H31716  11.266   7.259  10.807  0.1533 -0.6132 -3.6997
  230MOL0     H31717  11.189   7.116  10.872  0.4256 -0.3048  0.5479
  230MOL0     H31718  11.374   6.984  10.801  1.3585  0.1039 -1.7827
  230MOL0     H31719  11.478   7.132  10.777  1.6057 -3.3938  2.6519
  230MOL0     H31720  11.054   7.403  11.817 -0.6292 -0.7426  2.2056
  230MOL0     H31721  10.890   7.521  11.946 -0.7383 -2.1472  1.3309
  230MOL0     H31722  10.350   7.290  12.107  1.5761  0.6477 -1.6497
  230MOL0     H31723  10.149   7.359  12.191  0.9220 -1.5472 -2.5928
  230MOL0     H31724   9.093   8.330  11.187 -0.9156  2.0234 -2.6733
  230MOL0     H31725   9.029   8.546  11.295 -0.2036 -1.2576  1.7981
  230MOL0     H31726   8.912   8.787  11.491  1.4570  0.0327 -2.7499
  230MOL0     H31727   8.794   8.921  11.644  0.1204 -1.2936 -0.1683
  230MOL0     H31728   9.006   9.307  11.766 -2.3901  3.0842  0.4023
  230MOL0     H31729   8.877   9.296  11.879  2.6097  2.1632  1.6811
  230MOL0     H31730   8.976   9.090  11.990  0.9651 -0.9001  0.7308
  230MOL0     H31731   9.076   9.223  12.002 -0.0279 -0.6236 -0.3374
  230MOL0     H31732   9.118   9.023  11.779  0.4727 -0.2336 -0.8080
  230MOL0     H31733   9.202   9.178  11.807 -1.3002  0.5507  1.4813
  230MOL0     H31734   9.283   9.084  12.029  1.5028 -1.7210  2.1930
  230MOL0     H31735   9.316   8.980  11.890 -1.6576 -0.5749 -1.3844
  230MOL0     H31736   9.061   8.749  12.150  1.7444 -0.2722  1.4675
  230MOL0     H31737   9.050   9.251  11.556  2.3451 -0.9179 -1.4452
  230MOL0     H31738   9.197   9.137  11.285 -3.7241 -1.1684 -0.1278
  230MOL0     H31739   9.243   9.226  11.428 -0.0659  0.5109 -2.9032
  230MOL0     H31740   9.311   9.067  11.400  0.8645  1.1311 -2.4351
  231MOL0     O31741  10.219   5.838   5.043  0.9018 -0.5361  0.6079
  231MOL0     C31742  10.197   5.737   5.104 -0.4801 -0.0471  0.5211
  231MOL0     O31743  10.303   5.658   5.139  0.3753 -0.1408 -0.6699
  231MOL0     C31744  10.434   5.712   5.130 -0.1549 -0.8259  0.7257
  231MOL0     C31745  10.513   5.651   5.033 -0.5689  0.1035 -0.2769
  231MOL0     C31746  10.649   5.676   5.026  0.6092 -0.3093 -0.1659
  231MOL0     C31747  10.700   5.785   5.102 -0.3166  0.6611 -0.5253
  231MOL0     O31748  10.830   5.833   5.090 -0.0360  0.2193  0.9657
  231MOL0     C31749  10.929   5.734   5.051  0.3070 -0.4612 -0.8350
  231MOL0     C31750  11.064   5.793   5.107  0.0375 -0.0569  0.1346
  231MOL0     C31751  11.179   5.701   5.053  0.5244 -0.2752 -0.6408
  231MOL0     C31752  11.315   5.779   5.080  0.6706  0.0981 -0.3955
  231MOL0     C31753  11.425   5.745   4.971 -0.4310 -0.4565  0.1315
  231MOL0     C31754  11.523   5.867   4.921 -0.9795  0.3107  0.2931
  231MOL0     C31755  11.626   5.808   4.816  0.1350 -0.6528 -0.6849
  231MOL0     C31756  11.714   5.928   4.770 -0.2381 -0.0407 -0.6070
  231MOL0     N31757  11.645   6.038   4.696 -0.1249  0.6757 -0.7021
  231MOL0     C31758  11.585   6.149   4.750  0.0819 -0.3243 -1.0906
  231MOL0     C31759  11.535   6.218   4.647 -0.1119 -0.1343 -0.7061
  231MOL0     C31760  11.508   6.370   4.632  0.9673 -0.2152 -0.0424
  231MOL0     C31761  11.637   6.455   4.646 -0.1093  0.1288  1.0802
  231MOL0     C31762  11.596   6.601   4.671 -0.8998  0.9896  0.5219
  231MOL0     C31763  11.704   6.704   4.714 -0.2505  0.1318 -0.0652
  231MOL0     O31764  11.807   6.715   4.615 -0.2195 -0.1460 -0.2678
  231MOL0     C31765  11.806   6.832   4.531 -0.2351 -0.3779  0.0577
  231MOL0     C31766  11.923   6.878   4.470  0.7265 -0.0188  0.1895
  231MOL0     C31767  11.930   6.972   4.362  0.7023  1.3106  0.8846
  231MOL0     C31768  12.050   6.960   4.272 -0.2904  0.9367 -0.1937
  231MOL0     C31769  11.805   7.035   4.321 -1.4033  0.3135 -0.2030
  231MOL0     C31770  11.794   7.132   4.217  0.4810  0.1145 -0.2175
  231MOL0     O31771  11.913   7.183   4.155 -0.5821 -0.4428  1.2757
  231MOL0     C31772  11.915   7.239   4.025 -0.0240  0.0772 -0.6490
  231MOL0     C31773  11.905   7.378   4.014  0.5975  0.5941  0.1365
  231MOL0     C31774  11.882   7.440   3.885  0.9428  0.0278  0.7838
  231MOL0     C31775  11.887   7.360   3.771  0.4004 -0.0495 -0.4376
  231MOL0     O31776  11.843   7.412   3.647 -1.2129  0.8866 -0.4528
  231MOL0     C31777  11.897   7.368   3.525  0.9070 -0.4884  0.7619
  231MOL0     C31778  12.051   7.386   3.519  0.3000  0.7385  0.0419
  231MOL0     C31779  12.094   7.352   3.373 -0.9811  0.1332  0.5735
  231MOL0     C31780  12.250   7.343   3.363 -0.7771  0.2945 -0.9911
  231MOL0     C31781  12.304   7.325   3.222  0.0674  1.1179  1.4786
  231MOL0     C31782  12.247   7.198   3.155 -0.3462 -0.4979 -0.2052
  231MOL0     C31783  12.309   7.198   3.014  0.9886 -0.8815 -0.0745
  231MOL0     C31784  12.252   7.080   2.941 -0.1896 -0.2873 -0.3419
  231MOL0    Cl31785  12.082   7.096   2.890 -0.2341  0.1906 -0.4495
  231MOL0     C31786  11.897   7.226   3.784 -1.1841 -0.0456 -0.8296
  231MOL0     C31787  11.911   7.169   3.911 -0.3332  0.5099  0.1537
  231MOL0     O31788  11.677   7.157   4.182  0.2956  0.3402  0.9520
  231MOL0     C31789  11.687   6.981   4.375  0.1711  0.5584  0.0264
  231MOL0     C31790  11.690   6.883   4.477 -0.1077 -0.1515 -0.3442
  231MOL0     N31791  11.538   6.144   4.536  0.0798 -0.1678  0.0994
  231MOL0     N31792  11.603   6.034   4.567 -0.5102 -0.4314 -0.9306
  231MOL0     C31793  10.621   5.852   5.190  0.1389 -0.2286  0.9277
  231MOL0     C31794  10.491   5.814   5.210 -1.2559 -0.2773 -0.9182
  231MOL0     C31795  10.046   5.709   5.129 -0.5562  1.0957  0.4284
  231MOL0     C31796  10.015   5.579   5.173 -0.5808  0.7805 -0.8159
  231MOL0     C31797   9.893   5.531   5.192 -0.7153  0.8296 -0.7757
  231MOL0     C31798   9.785   5.610   5.163  0.3867 -0.6798  0.1646
  231MOL0     O31799   9.660   5.556   5.184 -0.6979  0.5406  0.3213
  231MOL0     C31800   9.547   5.616   5.126 -0.0211 -0.8906  0.5401
  231MOL0     C31801   9.495   5.540   5.011 -0.6347  0.4416  0.1320
  231MOL0     C31802   9.595   5.555   4.902  0.3221 -0.3291  0.7398
  231MOL0     C31803   9.512   5.556   4.763 -1.2688  0.2474 -0.0158
  231MOL0     C31804   9.451   5.426   4.733 -1.1537 -0.4228 -0.0700
  231MOL0     C31805   9.394   5.315   4.722 -0.7250  0.1645  0.1078
  231MOL0     C31806   9.803   5.744   5.138 -0.6729 -0.7341 -0.5621
  231MOL0     C31807   9.938   5.802   5.124  0.7329 -0.1731 -0.3492
  231MOL0     C31808   9.951   5.952   5.089 -0.3262  1.3036  1.0427
  231MOL0     H31809  10.470   5.564   4.986  1.4757 -2.1712  1.7693
  231MOL0     H31810  10.716   5.619   4.964 -2.7627 -2.2721 -2.3302
  231MOL0     H31811  10.937   5.721   4.942 -0.4815  2.6534 -1.3792
  231MOL0     H31812  10.912   5.638   5.100  0.0426 -0.6726 -1.3272
  231MOL0     H31813  11.085   5.893   5.068 -0.6827 -0.4448 -1.3313
  231MOL0     H31814  11.066   5.802   5.216  0.4974 -0.2725  0.1458
  231MOL0     H31815  11.174   5.600   5.095 -3.6980 -0.7822 -1.9439
  231MOL0     H31816  11.151   5.685   4.948 -0.7548 -0.9367 -0.2232
  231MOL0     H31817  11.311   5.888   5.083 -3.0093  0.0811  2.1692
  231MOL0     H31818  11.333   5.755   5.185 -0.9131 -1.0656 -0.3585
  231MOL0     H31819  11.365   5.717   4.884  1.4830  0.0456 -1.4270
  231MOL0     H31820  11.488   5.657   4.990  0.5088  0.6525  2.6298
  231MOL0     H31821  11.461   5.948   4.884 -0.9593  0.8130  1.3334
  231MOL0     H31822  11.580   5.904   5.007 -1.5136  1.8363  0.0158
  231MOL0     H31823  11.563   5.774   4.733 -0.3501 -1.4858  0.0086
  231MOL0     H31824  11.679   5.720   4.854 -0.3690 -0.7052 -0.0901
  231MOL0     H31825  11.756   5.973   4.860 -1.3983 -0.9207  0.3915
  231MOL0     H31826  11.793   5.890   4.704  0.0312 -2.3144  0.9366
  231MOL0     H31827  11.597   6.196   4.847 -1.4497 -1.8513 -0.0885
  231MOL0     H31828  11.439   6.390   4.715  0.0417 -4.7126  0.5287
  231MOL0     H31829  11.455   6.391   4.539 -1.4926 -2.1493  0.8159
  231MOL0     H31830  11.704   6.414   4.723  1.7423 -1.0318 -1.0392
  231MOL0     H31831  11.696   6.463   4.554  2.8814  0.9749  2.9159
  231MOL0     H31832  11.568   6.636   4.571  2.1774  1.9629 -0.1075
  231MOL0     H31833  11.515   6.610   4.744 -0.5814  1.7603  0.7932
  231MOL0     H31834  11.656   6.802   4.709 -1.8264 -0.6353 -0.2551
  231MOL0     H31835  11.748   6.693   4.814  0.4962  1.9971 -0.1335
  231MOL0     H31836  12.013   6.822   4.492  1.6519  1.5177  0.4386
  231MOL0     H31837  12.135   6.923   4.330  0.5320  2.7177 -0.1839
  231MOL0     H31838  12.078   7.064   4.252  1.6566  0.1714 -1.8526
  231MOL0     H31839  12.025   6.903   4.183 -0.8786 -0.8788  1.0733
  231MOL0     H31840  11.916   7.441   4.102 -0.8156  0.2821  0.5539
  231MOL0     H31841  11.885   7.546   3.862  1.9409 -0.3961 -1.3123
  231MOL0     H31842  11.856   7.268   3.505  2.5737 -0.8871 -0.9180
  231MOL0     H31843  11.850   7.428   3.448 -1.9698 -1.8937  1.2672
  231MOL0     H31844  12.089   7.485   3.548  2.2024  0.6126 -1.8123
  231MOL0     H31845  12.095   7.308   3.582  3.4078  1.6819 -0.7823
  231MOL0     H31846  12.058   7.433   3.310 -2.2651 -1.1337 -0.3920
  231MOL0     H31847  12.033   7.267   3.338 -0.4552 -0.1674  0.3668
  231MOL0     H31848  12.286   7.265   3.431  2.2873  2.9479  0.6903
  231MOL0     H31849  12.281   7.437   3.409  2.5030 -1.8759  1.7698
  231MOL0     H31850  12.281   7.416   3.165  0.3247  1.2443  1.5737
  231MOL0     H31851  12.413   7.327   3.213 -0.0530  0.6786 -0.7301
  231MOL0     H31852  12.138   7.196   3.156 -0.3404 -1.0998  0.8385
  231MOL0     H31853  12.281   7.105   3.201 -1.6002 -2.0986 -2.4021
  231MOL0     H31854  12.418   7.201   3.020  0.9177  2.8392  4.0642
  231MOL0     H31855  12.266   7.282   2.960  2.0403 -1.8468 -2.5324
  231MOL0     H31856  12.254   6.997   3.013  0.8135  0.5917  0.6836
  231MOL0     H31857  12.310   7.051   2.853  0.9437 -3.6128  1.3345
  231MOL0     H31858  11.905   7.159   3.699 -1.3841  0.0665 -0.9363
  231MOL0     H31859  11.922   7.063   3.929  0.4792  0.6684  0.6687
  231MOL0     H31860  11.586   7.002   4.342 -0.2721 -2.3689 -0.7256
  231MOL0     H31861  11.600   6.834   4.514 -0.3324  0.5423  0.0518
  231MOL0     H31862  10.648   5.937   5.251 -1.3615 -0.7296  2.3777
  231MOL0     H31863  10.432   5.875   5.277  0.4842  0.2804  0.1606
  231MOL0     H31864  10.094   5.504   5.172 -0.3746  0.9384  1.0724
  231MOL0     H31865   9.883   5.431   5.233  1.6501  1.0981  0.6548
  231MOL0     H31866   9.467   5.618   5.202  1.4611 -4.1576  2.4019
  231MOL0     H31867   9.553   5.721   5.096 -1.7113 -0.6955  0.7630
  231MOL0     H31868   9.402   5.591   4.982  1.4225  3.6287 -1.3415
  231MOL0     H31869   9.477   5.435   5.036 -1.2238 -0.2511 -2.8225
  231MOL0     H31870   9.651   5.649   4.912  0.6864 -0.4177 -0.3157
  231MOL0     H31871   9.675   5.481   4.914  1.7696  1.0652  0.1975
  231MOL0     H31872   9.571   5.587   4.676 -0.9387 -2.2347 -0.7387
  231MOL0     H31873   9.429   5.627   4.766  1.0367  3.1293  0.1826
  231MOL0     H31874   9.338   5.225   4.709 -0.8589  0.1436  0.7937
  231MOL0     H31875   9.720   5.814   5.145 -0.1605 -0.3212  2.7360
  231MOL0     H31876  10.041   5.990   5.139  0.4172  0.1456  0.6243
  231MOL0     H31877   9.959   5.968   4.981 -1.8183 -2.2588  0.2555
  231MOL0     H31878   9.869   5.998   5.145 -0.6746 -1.5247  3.0644
  232MOL0     O31879   9.261   6.962   1.227 -0.7368 -0.2066 -0.5745
  232MOL0     C31880   9.170   6.988   1.153 -0.8881  0.4912 -0.2134
  232MOL0     O31881   9.070   7.078   1.172 -0.0212  0.6165  0.0729
  232MOL0     C31882   9.072   7.141   1.295 -0.7085 -0.2321 -0.4355
  232MOL0     C31883   8.975   7.106   1.388  0.3646  0.8716 -0.2779
  232MOL0     C31884   8.980   7.170   1.513 -0.5008 -0.9121  0.5057
  232MOL0     C31885   9.073   7.258   1.548  0.6151 -1.6888 -0.0164
  232MOL0     O31886   9.061   7.301   1.683 -0.8899  0.0575 -0.1925
  232MOL0     C31887   9.176   7.368   1.726 -0.1003 -0.8870  0.3719
  232MOL0     C31888   9.182   7.391   1.879 -0.2771  0.3032 -0.3950
  232MOL0     C31889   9.324   7.426   1.921  0.1328  0.0738  0.3059
  232MOL0     C31890   9.359   7.574   1.885  0.1094  0.3587  0.3673
  232MOL0     C31891   9.480   7.634   1.953  0.0243  0.1238 -0.5735
  232MOL0     C31892   9.605   7.641   1.872 -1.2530  0.3428  0.2146
  232MOL0     C31893   9.593   7.747   1.756  0.6039  0.2801 -0.6024
  232MOL0     C31894   9.701   7.714   1.649 -0.3920  0.7783 -0.7714
  232MOL0     N31895   9.701   7.815   1.542 -0.2135  0.4762 -1.3158
  232MOL0     C31896   9.617   7.801   1.436  0.4688 -0.4431  0.3066
  232MOL0     C31897   9.668   7.884   1.344 -0.0384 -0.9293  0.2845
  232MOL0     C31898   9.611   7.904   1.211  0.1567 -0.6325 -0.7416
  232MOL0     C31899   9.701   7.853   1.084  0.0866 -0.2034  0.2203
  232MOL0     C31900   9.823   7.940   1.064 -0.4091 -0.0334 -0.1792
  232MOL0     C31901   9.795   8.076   1.010  0.3228  0.0970 -0.2143
  232MOL0     O31902   9.925   8.128   0.985  0.4550  1.4271 -0.7239
  232MOL0     C31903   9.968   8.234   1.068 -0.6436  1.1395 -0.6702
  232MOL0     C31904  10.047   8.337   1.022  0.0382 -0.8691 -1.2433
  232MOL0     C31905  10.083   8.439   1.110  0.4699 -0.4450 -0.4977
  232MOL0     C31906  10.166   8.549   1.054 -0.0110  0.6662 -1.0717
  232MOL0     C31907  10.050   8.430   1.253 -0.0899 -0.5013 -0.4255
  232MOL0     C31908  10.086   8.531   1.361 -0.1682  0.2832  0.0934
  232MOL0     O31909  10.067   8.490   1.491 -0.4285  0.4506  0.2330
  232MOL0     C31910  10.101   8.586   1.592  0.0737 -0.4110 -0.0429
  232MOL0     C31911   9.999   8.652   1.656 -0.2403  0.0062  0.0170
  232MOL0     C31912  10.034   8.742   1.760  0.6648  0.4345  0.5602
  232MOL0     C31913  10.164   8.783   1.775 -0.3166  0.6808  0.1843
  232MOL0     O31914  10.204   8.897   1.839 -0.5968 -0.6707 -0.0653
  232MOL0     C31915  10.130   8.952   1.948  0.6300  0.7381  0.2391
  232MOL0     C31916  10.225   9.045   2.019 -0.0790 -0.0967 -0.1131
  232MOL0     C31917  10.152   9.121   2.113  0.4698 -1.3909 -0.0706
  232MOL0     C31918  10.071   9.037   2.221  0.7180  0.2827  0.0588
  232MOL0     C31919  10.159   8.968   2.323  0.1473 -0.1299  0.5005
  232MOL0     C31920  10.199   9.048   2.445  0.3280  0.0583  0.4055
  232MOL0     C31921  10.071   9.061   2.535  0.2160 -0.5899 -0.1271
  232MOL0     C31922  10.115   9.094   2.678  0.2706  0.2548 -0.2879
  232MOL0    Cl31923   9.970   9.069   2.787  0.2252  0.0452 -0.6196
  232MOL0     C31924  10.267   8.707   1.709  0.2263 -0.5098  0.0807
  232MOL0     C31925  10.234   8.608   1.613  0.0484  0.0573  0.1311
  232MOL0     O31926  10.134   8.638   1.330 -0.4841  1.0991 -0.5449
  232MOL0     C31927   9.991   8.308   1.300  0.8414 -0.8499  0.7836
  232MOL0     C31928   9.950   8.218   1.204  0.8081 -1.1981 -0.5163
  232MOL0     N31929   9.768   7.956   1.400  0.3658 -0.7712  0.2691
  232MOL0     N31930   9.792   7.910   1.518 -0.0191 -0.2070 -0.1004
  232MOL0     C31931   9.166   7.292   1.450  0.1802 -0.6551 -0.0188
  232MOL0     C31932   9.163   7.239   1.327 -0.8354  0.1782  1.6649
  232MOL0     C31933   9.166   6.922   1.015  0.6274 -0.2246  0.5661
  232MOL0     C31934   9.048   6.946   0.935 -0.2104 -0.5017  0.5352
  232MOL0     C31935   9.024   6.878   0.811  0.4243 -0.0015 -0.7560
  232MOL0     C31936   9.122   6.791   0.764  1.0946 -0.4550 -0.3732
  232MOL0     O31937   9.117   6.743   0.636 -0.2175 -0.7606  0.2055
  232MOL0     C31938   8.999   6.736   0.554 -0.8928 -0.9178  0.7102
  232MOL0     C31939   9.007   6.601   0.480 -0.1566 -1.0283 -0.3490
  232MOL0     C31940   9.004   6.478   0.574 -0.1401  0.5279  0.6599
  232MOL0     C31941   9.023   6.345   0.495 -0.4875  0.1973  0.5193
  232MOL0     C31942   9.170   6.314   0.464  0.2572 -0.6114  0.2727
  232MOL0     C31943   9.287   6.290   0.464  0.2473 -0.3627 -0.3191
  232MOL0     C31944   9.238   6.772   0.834 -0.1944 -0.4269  0.6548
  232MOL0     C31945   9.265   6.846   0.952 -1.3745  0.3831  0.6216
  232MOL0     C31946   9.400   6.816   1.016 -0.4584  0.0148 -1.1254
  232MOL0     H31947   8.894   7.038   1.368  0.9792 -0.1729  0.6386
  232MOL0     H31948   8.900   7.149   1.583  0.2032 -0.7001  1.3978
  232MOL0     H31949   9.191   7.460   1.670  0.7632 -0.9117  0.5456
  232MOL0     H31950   9.266   7.308   1.708  0.9401  0.7363 -0.0783
  232MOL0     H31951   9.122   7.474   1.915  0.3305 -0.4697  2.6775
  232MOL0     H31952   9.157   7.301   1.936  1.7769  2.2609  4.0637
  232MOL0     H31953   9.344   7.399   2.025 -1.1717  0.1048  0.5904
  232MOL0     H31954   9.399   7.365   1.871 -0.0091 -1.1293  1.4834
  232MOL0     H31955   9.388   7.556   1.781  0.6603 -1.9972  0.8708
  232MOL0     H31956   9.269   7.635   1.880 -2.0069 -2.6227 -1.5885
  232MOL0     H31957   9.516   7.572   2.035  0.1244 -1.3798 -1.6992
  232MOL0     H31958   9.460   7.733   1.993 -0.8925 -0.0255 -0.6301
  232MOL0     H31959   9.684   7.676   1.939 -0.7986  1.3550 -0.8216
  232MOL0     H31960   9.620   7.541   1.830  2.9652  0.6119  0.6671
  232MOL0     H31961   9.607   7.846   1.801 -0.9314  0.0442  0.4652
  232MOL0     H31962   9.495   7.757   1.708  0.8032 -0.5400 -1.2038
  232MOL0     H31963   9.799   7.717   1.697 -1.7046  0.1832  2.2084
  232MOL0     H31964   9.687   7.615   1.605 -0.4289  1.2997 -1.9786
  232MOL0     H31965   9.532   7.736   1.418 -0.3260  0.2121  1.5767
  232MOL0     H31966   9.582   8.009   1.204  1.2628 -0.3603 -1.5453
  232MOL0     H31967   9.518   7.848   1.206  1.5911 -3.1661 -0.7406
  232MOL0     H31968   9.733   7.749   1.092  0.7360  0.1597  3.1347
  232MOL0     H31969   9.647   7.862   0.989  0.1003  3.0250  0.4108
  232MOL0     H31970   9.878   7.959   1.157  1.3625 -1.8278 -0.7876
  232MOL0     H31971   9.879   7.885   0.988 -0.9340 -3.4634  1.7509
  232MOL0     H31972   9.744   8.055   0.915  2.6567 -0.6916 -1.3672
  232MOL0     H31973   9.743   8.140   1.082  1.8910  1.5344 -0.3086
  232MOL0     H31974  10.076   8.349   0.918 -1.2370  2.9832 -1.3332
  232MOL0     H31975  10.158   8.647   1.102  1.2596 -0.8716  2.6327
  232MOL0     H31976  10.157   8.553   0.945  1.8170  0.7918 -1.2514
  232MOL0     H31977  10.270   8.520   1.074 -0.8919 -1.1575  1.2441
  232MOL0     H31978   9.894   8.624   1.647 -0.5550  1.3180 -0.7140
  232MOL0     H31979   9.954   8.803   1.801  2.0763  2.5156  0.3893
  232MOL0     H31980  10.043   9.006   1.911 -0.4656 -0.1612  1.4126
  232MOL0     H31981  10.099   8.870   2.014  1.7677 -0.8798 -1.1475
  232MOL0     H31982  10.308   8.993   2.067 -0.7157 -0.8619  0.1747
  232MOL0     H31983  10.268   9.103   1.936  0.1777 -1.5702 -1.0633
  232MOL0     H31984  10.091   9.196   2.062  0.0118 -1.5634  0.2098
  232MOL0     H31985  10.232   9.173   2.166 -0.6271  1.1982 -0.8299
  232MOL0     H31986  10.007   8.960   2.178  0.1984  1.4403 -1.3042
  232MOL0     H31987  10.002   9.097   2.281 -1.3187 -2.0188  0.2108
  232MOL0     H31988  10.113   8.873   2.352 -1.6504  0.6556  0.3388
  232MOL0     H31989  10.251   8.931   2.277  0.0097 -0.0065  0.1185
  232MOL0     H31990  10.235   9.147   2.413  1.2065  0.5208  2.6963
  232MOL0     H31991  10.286   9.004   2.495  2.4490  2.2676 -1.0847
  232MOL0     H31992  10.016   8.967   2.535 -0.1257 -0.4319  1.7312
  232MOL0     H31993  10.011   9.146   2.501 -0.1329 -1.0849 -0.7375
  232MOL0     H31994  10.147   9.198   2.684 -0.5808  0.4735  0.6254
  232MOL0     H31995  10.202   9.039   2.715  0.5995  1.9944  1.7199
  232MOL0     H31996  10.367   8.743   1.733  0.7030 -1.6502 -0.0829
  232MOL0     H31997  10.318   8.568   1.558 -0.9584  2.2502 -3.4016
  232MOL0     H31998   9.956   8.291   1.402 -0.8119  1.5894  0.7294
  232MOL0     H31999   9.883   8.145   1.248 -0.5123  0.4489  0.3120
  232MOL0     H32000   9.234   7.371   1.477 -0.8324 -0.7323  3.1765
  232MOL0     H32001   9.238   7.283   1.263 -1.0500  0.3600  1.5360
  232MOL0     H32002   8.972   7.021   0.952  1.0509  1.5318 -1.9472
  232MOL0     H32003   8.943   6.911   0.747 -0.9075  1.2135  1.4226
  232MOL0     H32004   8.903   6.760   0.600 -0.7495  1.9411 -0.2922
  232MOL0     H32005   9.009   6.820   0.485 -1.0383 -0.8632  0.7565
  232MOL0     H32006   9.100   6.600   0.422  0.3269 -0.2399  0.3979
  232MOL0     H32007   8.930   6.590   0.404  0.4469  2.6505 -1.7020
  232MOL0     H32008   9.077   6.499   0.652 -0.3113  0.5438  0.8186
  232MOL0     H32009   8.903   6.471   0.617 -0.7442  0.0932 -0.7677
  232MOL0     H32010   8.954   6.356   0.411  0.6647  0.4175 -0.4228
  232MOL0     H32011   8.979   6.261   0.550 -2.3369 -0.9400 -2.4634
  232MOL0     H32012   9.394   6.284   0.463  0.4804  0.4631  3.7631
  232MOL0     H32013   9.311   6.723   0.770  0.6979  0.0078  1.3303
  232MOL0     H32014   9.468   6.898   1.039  2.1736 -2.3561  0.1114
  232MOL0     H32015   9.381   6.764   1.110  1.5063  0.8561 -0.1973
  232MOL0     H32016   9.473   6.754   0.964  1.0620  0.7313  0.0614
  233MOL0     O32017   4.262   4.720   5.891  0.3818 -0.2528  0.0621
  233MOL0     C32018   4.353   4.717   5.817 -0.8640 -0.6693  0.6930
  233MOL0     O32019   4.369   4.630   5.711  0.0715 -0.1042 -0.3116
  233MOL0     C32020   4.296   4.517   5.706 -0.0909 -0.5561  0.4295
  233MOL0     C32021   4.368   4.411   5.687  1.4583  0.6650  0.4710
  233MOL0     C32022   4.308   4.285   5.660  0.2582 -0.1669 -1.1461
  233MOL0     C32023   4.169   4.278   5.639  0.9173 -0.2072 -0.1567
  233MOL0     O32024   4.114   4.161   5.586  0.6539 -0.2820  0.5237
  233MOL0     C32025   3.978   4.129   5.624  0.2478 -0.2509  0.0871
  233MOL0     C32026   3.952   3.977   5.599 -0.8170 -0.8747  0.5615
  233MOL0     C32027   4.048   3.879   5.665 -0.4358  1.5138  0.4340
  233MOL0     C32028   4.044   3.885   5.815  0.2826  0.1692  0.2014
  233MOL0     C32029   4.083   3.751   5.887  0.8527 -0.8752  0.3351
  233MOL0     C32030   4.217   3.707   5.839 -0.2054  0.8490 -0.7630
  233MOL0     C32031   4.270   3.585   5.924  0.3736 -0.8180  0.8781
  233MOL0     C32032   4.407   3.540   5.865  0.1714 -0.6561  0.2178
  233MOL0     N32033   4.474   3.446   5.959  0.6980  0.4669 -0.3759
  233MOL0     C32034   4.604   3.473   6.006  0.2452 -0.0261 -0.1771
  233MOL0     C32035   4.632   3.378   6.096  0.6769 -0.5132 -0.0836
  233MOL0     C32036   4.753   3.376   6.173  0.3362  0.7387  0.3197
  233MOL0     C32037   4.880   3.330   6.090  0.2604  0.0059  0.0704
  233MOL0     C32038   5.010   3.406   6.141  0.8406 -0.0386  0.1587
  233MOL0     C32039   5.022   3.557   6.091  0.0039  1.1444  0.0763
  233MOL0     O32040   4.973   3.578   5.956 -0.2318 -0.7328  0.3399
  233MOL0     C32041   5.001   3.691   5.887  0.5754  0.2537 -0.0057
  233MOL0     C32042   5.001   3.812   5.950  0.3961  0.1219 -0.3916
  233MOL0     C32043   5.025   3.930   5.882 -0.2271  0.8798  0.4911
  233MOL0     C32044   5.042   4.062   5.956  1.1528  0.4855  0.0258
  233MOL0     C32045   5.044   3.926   5.744  0.4339  0.7553  0.3759
  233MOL0     C32046   5.083   4.036   5.659 -0.8892  0.3695 -0.1324
  233MOL0     O32047   5.185   4.117   5.707  0.1778 -0.0125  0.5765
  233MOL0     C32048   5.250   4.196   5.614 -0.0168 -0.8672 -0.3217
  233MOL0     C32049   5.312   4.147   5.491  0.9318  0.1245 -0.2758
  233MOL0     C32050   5.376   4.231   5.395 -0.4603  0.0769  0.0133
  233MOL0     C32051   5.360   4.368   5.415 -0.0844 -0.1804 -0.4150
  233MOL0     O32052   5.412   4.454   5.329 -0.9924 -0.5591  0.2308
  233MOL0     C32053   5.413   4.425   5.189  0.1410  0.4650 -0.8773
  233MOL0     C32054   5.475   4.537   5.111  0.6695 -0.0361  0.1103
  233MOL0     C32055   5.624   4.548   5.132 -1.0390 -0.4784 -1.0030
  233MOL0     C32056   5.654   4.599   5.268 -0.3897  0.6748 -0.0007
  233MOL0     C32057   5.768   4.703   5.272  0.4521  0.6699 -0.4985
  233MOL0     C32058   5.719   4.845   5.222  0.1924 -0.0384 -0.3745
  233MOL0     C32059   5.814   4.962   5.273 -0.1676 -1.1293  0.8027
  233MOL0     C32060   5.820   5.080   5.175 -1.0201 -0.1090  0.0549
  233MOL0    Cl32061   5.866   5.028   5.017 -0.2489 -0.0175  0.0064
  233MOL0     C32062   5.312   4.419   5.533  0.2317  1.0497  1.1852
  233MOL0     C32063   5.242   4.334   5.627 -0.5415  0.6373 -0.2858
  233MOL0     O32064   5.043   4.034   5.542  0.8855  0.4847 -0.0531
  233MOL0     C32065   5.028   3.796   5.675 -0.7363  0.7890  0.1809
  233MOL0     C32066   5.003   3.677   5.749 -0.5258 -0.2527  0.4956
  233MOL0     N32067   4.522   3.292   6.102  1.1709  0.3540 -0.7647
  233MOL0     N32068   4.433   3.331   6.018  0.4878  0.0822  0.0690
  233MOL0     C32069   4.091   4.396   5.662  0.2788 -0.5086  0.8114
  233MOL0     C32070   4.147   4.516   5.708 -0.1845  0.1056 -0.0870
  233MOL0     C32071   4.464   4.818   5.856  0.6056  0.6959  0.2994
  233MOL0     C32072   4.588   4.801   5.793  0.3160 -0.8803 -0.2291
  233MOL0     C32073   4.694   4.888   5.816  0.7418  0.0990  0.2789
  233MOL0     C32074   4.687   4.989   5.913  0.4120  0.8954 -1.5710
  233MOL0     O32075   4.793   5.057   5.973  0.1977  0.6031  0.6787
  233MOL0     C32076   4.905   5.083   5.885  0.4486  0.4162 -0.2051
  233MOL0     C32077   5.002   5.182   5.944  1.0394  0.6898 -0.0642
  233MOL0     C32078   5.133   5.196   5.863 -0.8599  0.7338  0.8764
  233MOL0     C32079   5.208   5.323   5.906  0.4611  0.7269  0.2847
  233MOL0     C32080   5.354   5.303   5.878 -0.3416 -1.2217 -0.0756
  233MOL0     C32081   5.473   5.300   5.846 -0.7805  0.2990 -0.2556
  233MOL0     C32082   4.565   5.005   5.984 -0.0748 -0.2148  0.3174
  233MOL0     C32083   4.452   4.924   5.955 -0.4867 -0.6366  0.3089
  233MOL0     C32084   4.325   4.962   6.016 -0.9481 -0.4252  0.5630
  233MOL0     H32085   4.475   4.409   5.704  1.0911  0.3341  3.1785
  233MOL0     H32086   4.364   4.193   5.649  0.6291 -0.4022  1.9657
  233MOL0     H32087   3.906   4.196   5.577 -1.8215 -2.0618  0.5284
  233MOL0     H32088   3.983   4.149   5.732  2.4357 -0.3674  0.0609
  233MOL0     H32089   3.851   3.945   5.628 -0.4732 -0.4853  2.2758
  233MOL0     H32090   3.956   3.969   5.490  0.0400  1.7740  0.3299
  233MOL0     H32091   4.026   3.779   5.628 -1.4287  2.7957 -2.8323
  233MOL0     H32092   4.152   3.903   5.642  0.1611 -0.3868  0.9757
  233MOL0     H32093   4.111   3.963   5.853  1.9763 -2.6441  3.6560
  233MOL0     H32094   3.945   3.912   5.854 -1.2332 -2.5214 -1.5102
  233MOL0     H32095   4.008   3.681   5.847  1.1113 -1.3549  0.6886
  233MOL0     H32096   4.078   3.759   5.996  0.1665  2.6563  0.1652
  233MOL0     H32097   4.192   3.667   5.740 -4.3805  0.6233  0.2028
  233MOL0     H32098   4.292   3.786   5.832 -1.0449  1.5505 -3.0737
  233MOL0     H32099   4.196   3.506   5.908 -1.6187  1.1487 -0.1268
  233MOL0     H32100   4.277   3.603   6.031 -1.1713 -0.0092  0.8701
  233MOL0     H32101   4.400   3.502   5.763  2.6641  0.1597 -0.3366
  233MOL0     H32102   4.474   3.625   5.847  0.7525 -0.4493  2.8980
  233MOL0     H32103   4.676   3.544   5.968  0.4462  0.0677  0.3657
  233MOL0     H32104   4.730   3.312   6.258 -1.5139  0.5487 -0.2566
  233MOL0     H32105   4.768   3.482   6.193 -2.3084  1.8114 -2.5012
  233MOL0     H32106   4.890   3.221   6.086 -1.4753 -0.1558 -0.3253
  233MOL0     H32107   4.860   3.364   5.988 -2.8178 -0.9376  0.2677
  233MOL0     H32108   5.004   3.416   6.250 -1.5751  1.7774 -0.0655
  233MOL0     H32109   5.097   3.354   6.099 -0.5178 -3.2120  0.9689
  233MOL0     H32110   4.952   3.614   6.152 -3.9546 -2.6257 -0.4482
  233MOL0     H32111   5.129   3.580   6.088  1.6739 -4.5182  2.2047
  233MOL0     H32112   4.989   3.826   6.057 -0.0455  2.0251 -0.6594
  233MOL0     H32113   5.148   4.088   5.953  1.1802  0.2878 -0.7162
  233MOL0     H32114   5.004   4.041   6.057 -4.1583 -2.6162 -2.1890
  233MOL0     H32115   4.979   4.136   5.907  1.4794  1.5226  1.1243
  233MOL0     H32116   5.316   4.039   5.485 -0.6085  0.0191  0.1418
  233MOL0     H32117   5.428   4.180   5.314 -1.8512 -3.2984  1.0779
  233MOL0     H32118   5.482   4.341   5.185  0.5464  0.7099  0.5432
  233MOL0     H32119   5.318   4.390   5.147  0.9604 -2.0380 -0.8251
  233MOL0     H32120   5.453   4.532   5.004 -3.0218  0.6058  0.7274
  233MOL0     H32121   5.433   4.630   5.148  2.7439  1.2711 -0.6343
  233MOL0     H32122   5.672   4.618   5.062 -2.4989  1.0335 -0.5821
  233MOL0     H32123   5.680   4.458   5.106  0.8081  0.2479  0.2876
  233MOL0     H32124   5.698   4.520   5.329  3.1980  2.6027  0.2143
  233MOL0     H32125   5.556   4.636   5.300 -0.1004  1.3232  0.1646
  233MOL0     H32126   5.802   4.718   5.375 -0.1823  2.3374 -0.5055
  233MOL0     H32127   5.854   4.674   5.211  1.3882 -0.1272  1.1286
  233MOL0     H32128   5.622   4.869   5.264  0.4363  1.7711 -0.7649
  233MOL0     H32129   5.711   4.849   5.113 -2.3179 -0.6665 -0.2640
  233MOL0     H32130   5.915   4.935   5.304  1.3502  2.4593 -0.4534
  233MOL0     H32131   5.769   4.997   5.366  0.6164  1.1238  0.3925
  233MOL0     H32132   5.889   5.160   5.206 -2.2457  0.9616  0.0837
  233MOL0     H32133   5.724   5.129   5.160 -1.2407  0.1916  2.1243
  233MOL0     H32134   5.302   4.525   5.553  2.2143  1.2917  1.0894
  233MOL0     H32135   5.209   4.361   5.727 -0.6187 -2.4324  0.6193
  233MOL0     H32136   5.045   3.780   5.569  2.9812 -0.8293  0.8576
  233MOL0     H32137   5.008   3.574   5.714 -0.2625  0.3880 -1.4382
  233MOL0     H32138   3.983   4.393   5.652  0.4057 -0.8791 -0.9118
  233MOL0     H32139   4.087   4.604   5.730 -3.2389 -1.7823 -0.3974
  233MOL0     H32140   4.610   4.719   5.725 -0.7264 -0.9449 -0.5150
  233MOL0     H32141   4.793   4.865   5.777  2.1536  0.3552  3.4305
  233MOL0     H32142   4.947   4.983   5.868  1.0994  0.5001  0.8141
  233MOL0     H32143   4.883   5.113   5.782  4.4992  1.1460 -1.0320
  233MOL0     H32144   5.014   5.161   6.051 -2.0868 -1.2007  0.0426
  233MOL0     H32145   4.954   5.280   5.941  0.9380  0.6065 -1.5598
  233MOL0     H32146   5.199   5.110   5.878 -1.0542  0.6099  1.0290
  233MOL0     H32147   5.103   5.206   5.758  1.9823  2.3568  0.1325
  233MOL0     H32148   5.189   5.355   6.009 -2.2240 -0.0711  0.1210
  233MOL0     H32149   5.158   5.400   5.847 -3.0890  0.7956  3.0489
  233MOL0     H32150   5.573   5.315   5.810 -0.8731  0.5831 -0.4037
  233MOL0     H32151   4.566   5.077   6.065  1.5275 -2.7980  2.7811
  233MOL0     H32152   4.359   5.022   6.101  1.8247 -1.3659  0.2193
  233MOL0     H32153   4.264   5.013   5.941  0.7545 -0.4317 -0.8898
  233MOL0     H32154   4.262   4.882   6.054 -3.3391 -0.0007 -2.1451
  234MOL0     O32155   9.409   3.938   9.576  0.8917  0.4253 -0.6030
  234MOL0     C32156   9.370   3.832   9.633  0.1392  0.1603  0.5705
  234MOL0     O32157   9.330   3.717   9.567 -0.5080 -0.3846  0.4626
  234MOL0     C32158   9.296   3.741   9.442 -1.1546 -0.6142  0.3432
  234MOL0     C32159   9.158   3.744   9.411  0.6177  0.9795  0.6733
  234MOL0     C32160   9.125   3.768   9.273 -0.3607  0.3842  0.4836
  234MOL0     C32161   9.232   3.778   9.177  0.0575  0.6563  0.0137
  234MOL0     O32162   9.211   3.772   9.041  0.5957 -0.4900  0.1932
  234MOL0     C32163   9.107   3.852   8.980  0.0386  0.1847 -0.1672
  234MOL0     C32164   9.168   3.970   8.898 -0.5062 -0.3079 -0.2657
  234MOL0     C32165   9.073   4.053   8.798  0.3477 -0.1177  0.7472
  234MOL0     C32166   9.041   3.957   8.679 -0.1237  0.0580  0.0220
  234MOL0     C32167   8.954   4.028   8.580 -0.5215  0.0381 -0.9007
  234MOL0     C32168   9.000   3.991   8.437 -0.5596  1.0551  0.0609
  234MOL0     C32169   8.908   4.058   8.328 -0.8906  0.6860  0.5862
  234MOL0     C32170   8.920   4.212   8.331 -0.3984 -0.0670  1.1936
  234MOL0     N32171   8.838   4.278   8.225  0.2589  1.1781 -0.7625
  234MOL0     C32172   8.801   4.241   8.099  0.8058 -0.5103 -0.3532
  234MOL0     C32173   8.727   4.350   8.042  0.8181 -0.2870  0.0616
  234MOL0     C32174   8.670   4.375   7.908 -0.3035  0.6596  0.1073
  234MOL0     C32175   8.518   4.356   7.903 -0.5447 -0.2688 -0.3929
  234MOL0     C32176   8.447   4.385   7.763 -0.4016 -0.3412 -0.0350
  234MOL0     C32177   8.449   4.537   7.723 -0.1224  0.3698 -0.0582
  234MOL0     O32178   8.351   4.604   7.803  0.1334  0.1802 -0.2884
  234MOL0     C32179   8.225   4.603   7.763  0.4307  0.1740  0.8555
  234MOL0     C32180   8.143   4.701   7.816  0.6051  0.8104  0.2881
  234MOL0     C32181   8.011   4.731   7.773 -0.1250  0.5379  0.5633
  234MOL0     C32182   7.935   4.826   7.857 -0.1518 -0.6188 -0.3297
  234MOL0     C32183   7.949   4.651   7.673  0.1228 -0.3701  0.8673
  234MOL0     C32184   7.810   4.679   7.619  0.0890 -1.0735  0.1419
  234MOL0     O32185   7.767   4.799   7.645 -0.8191 -0.2986 -0.4051
  234MOL0     C32186   7.647   4.833   7.611  0.5649 -0.2171  0.4080
  234MOL0     C32187   7.534   4.800   7.695 -0.6939  0.6242  0.5356
  234MOL0     C32188   7.410   4.839   7.655  0.0762  0.3910  0.2945
  234MOL0     C32189   7.386   4.901   7.530  0.0629 -1.3684 -1.3989
  234MOL0     O32190   7.260   4.938   7.480 -0.0249 -0.2638 -0.0878
  234MOL0     C32191   7.138   4.899   7.548 -0.8016 -0.3781 -0.0687
  234MOL0     C32192   7.080   4.767   7.501 -0.0740 -0.4598 -0.3006
  234MOL0     C32193   7.167   4.646   7.528 -0.8490  0.4839  1.0267
  234MOL0     C32194   7.093   4.516   7.500 -0.3836  0.9238 -0.0438
  234MOL0     C32195   7.155   4.400   7.585  0.4049 -0.3157 -0.5711
  234MOL0     C32196   7.087   4.379   7.723  0.7015  0.2337 -0.6049
  234MOL0     C32197   6.968   4.296   7.720  0.8223  0.1573  0.9051
  234MOL0     C32198   6.919   4.272   7.862 -0.0859  0.5872 -0.3193
  234MOL0    Cl32199   6.777   4.169   7.832  0.0071  0.0176 -0.2065
  234MOL0     C32200   7.492   4.935   7.451 -0.9047  0.4237  0.9145
  234MOL0     C32201   7.623   4.904   7.488 -0.0193 -0.6215  0.3887
  234MOL0     O32202   7.746   4.595   7.555  0.5453 -0.2527 -0.3303
  234MOL0     C32203   8.028   4.549   7.620 -1.0114  0.2276  0.0406
  234MOL0     C32204   8.159   4.520   7.669 -0.1977 -0.4674  1.1419
  234MOL0     N32205   8.730   4.448   8.142  0.6284  0.4732  0.2437
  234MOL0     N32206   8.788   4.400   8.252  0.0508 -0.0162 -0.0815
  234MOL0     C32207   9.365   3.768   9.219  0.1419  0.2841 -0.0259
  234MOL0     C32208   9.399   3.744   9.351 -0.7775 -0.5887 -0.0610
  234MOL0     C32209   9.354   3.840   9.777 -0.3173  0.3421 -0.1788
  234MOL0     C32210   9.227   3.804   9.823 -0.1765 -0.0507 -0.5552
  234MOL0     C32211   9.207   3.829   9.960 -0.2713  0.4632  0.7491
  234MOL0     C32212   9.299   3.875  10.056 -0.0206 -0.1911  0.7723
  234MOL0     O32213   9.285   3.895  10.191 -0.4484  0.8766  0.6292
  234MOL0     C32214   9.162   3.834  10.245  0.2247 -0.6126  0.2429
  234MOL0     C32215   9.044   3.941  10.215  0.9276  0.0154  0.2246
  234MOL0     C32216   8.919   3.893  10.281 -0.4768  0.6207 -0.4204
  234MOL0     C32217   8.846   3.793  10.195  0.0196 -0.2425  0.8458
  234MOL0     C32218   8.735   3.743  10.268  0.1246 -0.7724  0.4826
  234MOL0     C32219   8.638   3.724  10.332 -0.0623 -0.5987 -0.8487
  234MOL0     C32220   9.425   3.902  10.001 -0.6729  0.2588 -1.0318
  234MOL0     C32221   9.456   3.882   9.868  0.9271 -0.5895  0.1487
  234MOL0     C32222   9.590   3.923   9.823  0.5716 -1.0173  0.0414
  234MOL0     H32223   9.090   3.757   9.494  1.2280 -0.6710  1.4586
  234MOL0     H32224   9.023   3.776   9.235 -1.0326 -2.2502  1.5417
  234MOL0     H32225   9.030   3.888   9.048 -2.3736  0.1580 -2.6889
  234MOL0     H32226   9.054   3.794   8.904  2.2552  0.0352 -1.7166
  234MOL0     H32227   9.203   4.044   8.970  0.3830 -2.0251  1.1544
  234MOL0     H32228   9.251   3.926   8.842  1.9901  2.4212  1.0315
  234MOL0     H32229   8.982   4.092   8.844  0.6738  0.1507  1.1743
  234MOL0     H32230   9.118   4.144   8.756 -0.2563 -0.4429 -0.6609
  234MOL0     H32231   9.130   3.903   8.643  1.0053 -1.2076  4.1049
  234MOL0     H32232   8.975   3.884   8.725  1.8587 -1.9527 -0.1051
  234MOL0     H32233   8.957   4.137   8.595 -1.3773  0.2128 -1.8825
  234MOL0     H32234   8.851   3.999   8.600 -0.1160 -0.5720  0.4963
  234MOL0     H32235   9.104   4.021   8.419 -0.2740  0.3641  0.4956
  234MOL0     H32236   9.004   3.883   8.420  2.5649  1.1766 -0.5197
  234MOL0     H32237   8.805   4.024   8.345 -1.0310  0.0499 -1.2657
  234MOL0     H32238   8.944   4.034   8.228 -0.7232 -0.1238  0.8384
  234MOL0     H32239   8.883   4.247   8.428 -2.1489 -0.3367  0.6553
  234MOL0     H32240   9.025   4.238   8.313 -0.4899 -0.2378  0.3613
  234MOL0     H32241   8.825   4.144   8.056  2.3670 -0.5622  0.5518
  234MOL0     H32242   8.714   4.313   7.829  0.9495  3.2938 -1.4102
  234MOL0     H32243   8.684   4.482   7.891 -1.3704  0.7025 -0.5772
  234MOL0     H32244   8.498   4.250   7.923  2.0769 -1.5872 -3.6463
  234MOL0     H32245   8.482   4.432   7.972  1.4706 -0.0971  0.5253
  234MOL0     H32246   8.500   4.321   7.693  2.7799 -1.0531  2.7212
  234MOL0     H32247   8.342   4.355   7.754 -0.7800  0.8564  0.1433
  234MOL0     H32248   8.547   4.584   7.739  0.0385  0.4482 -1.2050
  234MOL0     H32249   8.427   4.550   7.617 -2.5751 -1.4798  0.1439
  234MOL0     H32250   8.197   4.754   7.894  2.5417 -1.3275  0.5168
  234MOL0     H32251   7.830   4.804   7.876 -0.4266  2.5543  2.9290
  234MOL0     H32252   7.925   4.926   7.814 -0.2161 -0.3299  0.3388
  234MOL0     H32253   7.980   4.836   7.956 -0.3591 -1.5978 -0.1309
  234MOL0     H32254   7.551   4.739   7.783  2.0878  0.9602  0.3313
  234MOL0     H32255   7.333   4.826   7.730 -2.3726 -0.8126 -2.2462
  234MOL0     H32256   7.134   4.902   7.658 -2.9233  0.8429 -0.1178
  234MOL0     H32257   7.080   4.982   7.507  0.5360  0.7007  0.1696
  234MOL0     H32258   6.981   4.747   7.544 -0.8995  1.2432 -1.2765
  234MOL0     H32259   7.079   4.780   7.392  0.7231 -3.0747 -0.6749
  234MOL0     H32260   7.184   4.649   7.636  2.7183 -1.4385  0.6684
  234MOL0     H32261   7.260   4.648   7.471 -0.9729  1.2139  0.8441
  234MOL0     H32262   7.109   4.482   7.397 -0.2055 -1.0424  0.5962
  234MOL0     H32263   6.988   4.512   7.528 -1.3931  1.1540 -3.3323
  234MOL0     H32264   7.146   4.309   7.525  2.9539  0.0100 -1.5679
  234MOL0     H32265   7.262   4.420   7.600  0.4457 -0.6895 -0.3293
  234MOL0     H32266   7.054   4.470   7.773  0.8588 -1.6577  3.2861
  234MOL0     H32267   7.165   4.330   7.782  0.7829  2.2094  1.0148
  234MOL0     H32268   7.001   4.204   7.670  1.9313  0.6343  0.7322
  234MOL0     H32269   6.895   4.358   7.666 -0.2126 -2.9732 -1.6329
  234MOL0     H32270   6.890   4.364   7.915  1.7158  0.0237  1.8018
  234MOL0     H32271   6.993   4.215   7.918  2.3363  2.3358 -1.5216
  234MOL0     H32272   7.467   4.979   7.355 -0.7690  0.7609  1.0308
  234MOL0     H32273   7.702   4.926   7.418  0.0113 -1.1984  0.2367
  234MOL0     H32274   8.000   4.484   7.537  1.0843  1.1323 -1.4559
  234MOL0     H32275   8.207   4.431   7.628  0.3389  0.6416 -0.7284
  234MOL0     H32276   9.441   3.777   9.143  0.1154 -0.2031 -0.1169
  234MOL0     H32277   9.497   3.738   9.398 -0.3505  0.3771 -0.7801
  234MOL0     H32278   9.142   3.765   9.769 -2.2588  0.2808  2.2399
  234MOL0     H32279   9.103   3.813   9.986 -0.3317 -0.8521 -0.2123
  234MOL0     H32280   9.144   3.735  10.202  1.2220 -0.6404 -0.1355
  234MOL0     H32281   9.166   3.829  10.354 -2.6607  1.0442  0.5359
  234MOL0     H32282   9.038   3.984  10.115  3.5129  0.4455  0.1957
  234MOL0     H32283   9.062   4.032  10.272 -1.1104  0.7279 -0.2113
  234MOL0     H32284   8.947   3.833  10.368  0.0280 -1.1945 -1.7540
  234MOL0     H32285   8.861   3.978  10.316 -1.6308 -0.1902 -0.3028
  234MOL0     H32286   8.927   3.727  10.161  0.4526  1.6604 -2.2620
  234MOL0     H32287   8.808   3.837  10.102 -0.0214  0.9737  1.4220
  234MOL0     H32288   8.551   3.689  10.383 -0.8789  0.8001 -1.2280
  234MOL0     H32289   9.500   3.946  10.066 -2.4020  0.5797  0.8239
  234MOL0     H32290   9.654   3.936   9.911  2.1727 -3.3405 -0.7050
  234MOL0     H32291   9.630   3.855   9.747 -0.5631  0.8632 -2.3781
  234MOL0     H32292   9.575   4.019   9.772  0.3904 -2.1910 -2.2064
  235MOL0     O32293   7.346   3.499   3.900  0.1266  0.1869  0.3329
  235MOL0     C32294   7.238   3.558   3.922  0.2452 -0.2987  0.0134
  235MOL0     O32295   7.228   3.699   3.955 -0.0329  0.0531  0.6631
  235MOL0     C32296   7.335   3.778   3.969  1.1349  0.5652  0.8065
  235MOL0     C32297   7.452   3.768   3.889 -0.0533  0.4578  0.4394
  235MOL0     C32298   7.570   3.832   3.917  0.7811 -1.4260  1.6757
  235MOL0     C32299   7.572   3.928   4.022 -0.6578  0.5876  0.5884
  235MOL0     O32300   7.688   4.000   4.049 -0.1184 -0.1531 -1.1666
  235MOL0     C32301   7.731   4.014   4.196  0.6001 -0.2139  0.2090
  235MOL0     C32302   7.698   4.159   4.249  0.2461  0.1857  0.4495
  235MOL0     C32303   7.812   4.262   4.252 -0.8194  0.3059 -0.6060
  235MOL0     C32304   7.764   4.386   4.184  0.1386 -0.0208 -0.2861
  235MOL0     C32305   7.875   4.493   4.201  0.3991  0.1270 -0.1773
  235MOL0     C32306   7.842   4.626   4.136  0.9054  1.3313 -0.8374
  235MOL0     C32307   7.959   4.711   4.107  0.2976 -1.0795  0.6318
  235MOL0     C32308   7.925   4.861   4.066 -0.5212 -0.1267 -0.7867
  235MOL0     N32309   7.862   4.861   3.933  0.4678 -0.8411 -0.5190
  235MOL0     C32310   7.894   4.807   3.814 -0.1454  0.3334  0.9613
  235MOL0     C32311   7.783   4.819   3.741 -0.4248  0.4951  0.8318
  235MOL0     C32312   7.795   4.755   3.603 -0.4668 -0.2267 -0.0146
  235MOL0     C32313   7.790   4.854   3.485 -0.2181 -0.1697 -0.5424
  235MOL0     C32314   7.932   4.900   3.440  0.6681  0.0264 -0.6861
  235MOL0     C32315   7.907   5.042   3.382  0.0349  0.0239 -0.9201
  235MOL0     O32316   7.819   5.030   3.266  0.3607  0.0479 -0.0980
  235MOL0     C32317   7.873   4.977   3.147 -0.4394 -0.7453  0.2420
  235MOL0     C32318   7.777   4.929   3.061  0.3023  0.1552 -0.5349
  235MOL0     C32319   7.813   4.888   2.930 -0.5415  0.9239 -0.0953
  235MOL0     C32320   7.692   4.853   2.839  0.6006  0.1554  1.1073
  235MOL0     C32321   7.948   4.898   2.882 -0.6987 -0.4744 -0.1311
  235MOL0     C32322   7.990   4.853   2.737  0.4786 -0.3977 -0.3901
  235MOL0     O32323   7.902   4.781   2.665  0.1961 -0.2264 -0.4707
  235MOL0     C32324   7.941   4.738   2.537  0.9731  0.5423 -0.0787
  235MOL0     C32325   7.895   4.811   2.429 -0.2160  1.5055 -0.1170
  235MOL0     C32326   7.916   4.764   2.297 -0.5798  0.6635  0.4526
  235MOL0     C32327   7.971   4.634   2.279 -0.1848  0.7526 -0.8243
  235MOL0     O32328   7.985   4.572   2.157 -0.8798  0.1722  0.2040
  235MOL0     C32329   7.858   4.558   2.083  0.6955 -0.0585 -0.5355
  235MOL0     C32330   7.782   4.426   2.114 -0.0959  0.9791  0.0092
  235MOL0     C32331   7.637   4.422   2.068  0.0202  0.2603 -0.7631
  235MOL0     C32332   7.635   4.420   1.912  0.0744  1.1108  0.0141
  235MOL0     C32333   7.480   4.443   1.882  0.6032 -0.2221 -0.2407
  235MOL0     C32334   7.472   4.490   1.736  1.0501  0.1504 -0.7979
  235MOL0     C32335   7.334   4.550   1.713  0.9668  0.5008  0.5343
  235MOL0     C32336   7.317   4.647   1.581  0.1685 -0.3660  0.6493
  235MOL0    Cl32337   7.443   4.763   1.584 -0.1539 -0.5687  0.0675
  235MOL0     C32338   8.019   4.559   2.395 -0.7187 -0.6104  0.5210
  235MOL0     C32339   7.996   4.607   2.523 -0.0325 -0.5283 -0.3063
  235MOL0     O32340   8.095   4.891   2.695 -0.1210  0.0780 -0.5746
  235MOL0     C32341   8.044   4.939   2.980 -0.5508 -0.2981  0.6010
  235MOL0     C32342   8.006   4.972   3.112 -1.5164 -0.8948  0.0997
  235MOL0     N32343   7.680   4.879   3.805 -0.7864 -0.1275  0.0194
  235MOL0     N32344   7.730   4.890   3.929  0.8830 -0.9144 -0.3289
  235MOL0     C32345   7.449   3.939   4.098  0.1410 -0.0968  0.1752
  235MOL0     C32346   7.333   3.867   4.069 -1.0527 -0.9695  0.7480
  235MOL0     C32347   7.105   3.490   3.916  0.2917 -0.6433 -0.1388
  235MOL0     C32348   7.083   3.400   3.805  0.4004 -0.6171  0.3897
  235MOL0     C32349   6.960   3.338   3.789  0.2419 -1.2060 -0.9443
  235MOL0     C32350   6.855   3.362   3.880  0.0086  0.3026  0.0105
  235MOL0     O32351   6.741   3.293   3.854 -0.1941  0.0221  0.1623
  235MOL0     C32352   6.635   3.283   3.952  0.0105  0.2540 -1.3593
  235MOL0     C32353   6.547   3.402   3.937 -0.1147  0.7509  0.6134
  235MOL0     C32354   6.426   3.388   4.031  0.3829 -0.0848  0.3904
  235MOL0     C32355   6.338   3.527   4.028 -0.4603 -0.1135 -0.4756
  235MOL0     C32356   6.400   3.631   4.112  0.2352  0.0828  0.1339
  235MOL0     C32357   6.468   3.690   4.193 -0.4864 -0.0264 -1.1023
  235MOL0     C32358   6.877   3.449   3.993  0.0032  0.2963 -0.0737
  235MOL0     C32359   7.004   3.503   4.018 -0.9295 -0.2247 -0.1008
  235MOL0     C32360   7.036   3.549   4.149  0.4651 -0.4699 -1.0123
  235MOL0     H32361   7.458   3.693   3.811  0.0076  0.2110  0.6790
  235MOL0     H32362   7.663   3.811   3.864  1.5114  0.4759  2.1152
  235MOL0     H32363   7.837   3.991   4.205  0.7592  0.1198 -0.7786
  235MOL0     H32364   7.688   3.937   4.262  0.2441 -0.2573 -0.0708
  235MOL0     H32365   7.608   4.203   4.206 -0.3986 -0.0075  1.5571
  235MOL0     H32366   7.668   4.138   4.352  1.4453 -0.4664  0.6948
  235MOL0     H32367   7.844   4.283   4.355 -1.5905 -1.0898 -0.0496
  235MOL0     H32368   7.905   4.218   4.214  0.2766 -0.6850  2.8018
  235MOL0     H32369   7.747   4.353   4.081  0.4289  0.0534 -0.3590
  235MOL0     H32370   7.671   4.422   4.229  0.2649 -0.1094  0.0484
  235MOL0     H32371   7.976   4.465   4.170  0.7557 -2.6384  2.8936
  235MOL0     H32372   7.873   4.497   4.311  0.0853 -1.8647 -0.0786
  235MOL0     H32373   7.789   4.612   4.042  0.3045  2.5250 -0.6926
  235MOL0     H32374   7.774   4.678   4.204 -0.1410  2.1589 -2.4540
  235MOL0     H32375   8.018   4.653   4.034  2.2230  1.3734  0.1198
  235MOL0     H32376   8.031   4.723   4.188  1.4924 -0.6818 -0.4433
  235MOL0     H32377   7.861   4.897   4.147 -1.0242 -1.9948 -0.3209
  235MOL0     H32378   8.008   4.932   4.060 -1.7702  1.2599 -3.1121
  235MOL0     H32379   7.981   4.753   3.776 -1.0303  0.9278 -2.1282
  235MOL0     H32380   7.713   4.683   3.598  1.1042 -2.1732  0.8267
  235MOL0     H32381   7.892   4.703   3.601 -0.0341  0.5607 -1.0656
  235MOL0     H32382   7.733   4.800   3.409  1.5262 -3.5244  0.3747
  235MOL0     H32383   7.733   4.937   3.529 -0.6367 -1.1300  0.7884
  235MOL0     H32384   8.005   4.913   3.521 -0.0374  0.6584 -0.1383
  235MOL0     H32385   7.976   4.825   3.373 -0.2209 -1.6835  0.5552
  235MOL0     H32386   7.863   5.106   3.459 -2.0796  0.8241 -2.6768
  235MOL0     H32387   8.005   5.085   3.362 -0.0604  1.2975  1.0413
  235MOL0     H32388   7.676   4.937   3.099  0.9931  1.2570  1.1677
  235MOL0     H32389   7.608   4.905   2.886 -0.1722 -0.2872  0.2492
  235MOL0     H32390   7.678   4.744   2.839 -0.3988  0.2815  0.4839
  235MOL0     H32391   7.697   4.889   2.736  0.7177  3.4386  2.1452
  235MOL0     H32392   7.858   4.913   2.440  0.5171  1.7484  0.1496
  235MOL0     H32393   7.892   4.820   2.207  0.7048  1.2199  0.4383
  235MOL0     H32394   7.798   4.646   2.108  0.2013  0.4706 -3.3050
  235MOL0     H32395   7.876   4.553   1.976  1.4027  0.6111 -0.4567
  235MOL0     H32396   7.828   4.337   2.071  0.4387  0.5880  1.3632
  235MOL0     H32397   7.793   4.400   2.219 -0.0670  0.5023 -0.1107
  235MOL0     H32398   7.585   4.509   2.109  0.9205  0.1314  0.7100
  235MOL0     H32399   7.587   4.333   2.107  2.4714 -0.7011  0.3749
  235MOL0     H32400   7.670   4.328   1.864 -0.8420  0.9945 -0.4732
  235MOL0     H32401   7.701   4.501   1.879  1.4507 -0.0269 -0.0994
  235MOL0     H32402   7.427   4.348   1.898  3.5132 -1.6821  1.7533
  235MOL0     H32403   7.438   4.515   1.953  2.7752  0.0000  0.9125
  235MOL0     H32404   7.476   4.401   1.672 -0.4842 -1.9582  1.8266
  235MOL0     H32405   7.544   4.568   1.710 -0.4777  0.6491 -4.0348
  235MOL0     H32406   7.317   4.614   1.800  0.5907  3.0921 -1.3177
  235MOL0     H32407   7.256   4.475   1.694 -0.1283  1.8686 -0.6149
  235MOL0     H32408   7.218   4.692   1.578 -0.1569 -1.1137 -0.8511
  235MOL0     H32409   7.326   4.586   1.491 -1.0531 -2.4353  1.8624
  235MOL0     H32410   8.057   4.458   2.388 -2.5166 -1.7605  4.4979
  235MOL0     H32411   8.022   4.545   2.609  0.5228  1.1506  0.7911
  235MOL0     H32412   8.151   4.939   2.961 -0.5708 -1.6323  0.3865
  235MOL0     H32413   8.083   5.021   3.171 -0.1666  1.1619 -3.0656
  235MOL0     H32414   7.451   4.007   4.184 -0.0218  1.0099 -0.6737
  235MOL0     H32415   7.238   3.880   4.121 -0.7558 -1.9645  1.5751
  235MOL0     H32416   7.148   3.400   3.718 -2.2569  4.6355 -2.0617
  235MOL0     H32417   6.946   3.265   3.710  2.0633 -2.2570 -0.3794
  235MOL0     H32418   6.567   3.203   3.922 -0.6599  0.3106 -0.0607
  235MOL0     H32419   6.670   3.247   4.050  0.8054 -1.9763 -2.3868
  235MOL0     H32420   6.509   3.413   3.835 -2.0716 -0.5602  1.1413
  235MOL0     H32421   6.600   3.495   3.960  0.3185  1.4125 -2.5950
  235MOL0     H32422   6.367   3.297   4.019 -2.1386  1.6178 -0.9421
  235MOL0     H32423   6.476   3.386   4.128 -1.0625 -1.2930  1.1373
  235MOL0     H32424   6.236   3.505   4.061 -0.6009  0.5116 -0.4932
  235MOL0     H32425   6.332   3.565   3.926  0.0835  3.1306  0.5767
  235MOL0     H32426   6.546   3.737   4.251  0.6133 -2.3502 -0.5705
  235MOL0     H32427   6.809   3.446   4.077 -1.1888  0.6132 -0.9823
  235MOL0     H32428   6.951   3.588   4.205  1.5649  1.8427 -0.8289
  235MOL0     H32429   7.072   3.469   4.215 -0.8896  0.4939  0.9949
  235MOL0     H32430   7.115   3.625   4.155  1.8934 -1.9391 -0.3128
  236MOL0     O32431  10.142  11.195  10.463 -1.1213 -0.0590 -0.2150
  236MOL0     C32432  10.261  11.223  10.492 -0.0302  0.4473  0.5975
  236MOL0     O32433  10.365  11.134  10.485 -0.8790 -0.0083 -0.2070
  236MOL0     C32434  10.365  11.027  10.395  0.0742 -0.7209 -0.3381
  236MOL0     C32435  10.484  10.945  10.386 -0.5782 -0.2125  0.1790
  236MOL0     C32436  10.489  10.836  10.293 -0.4221 -0.7064  0.2539
  236MOL0     C32437  10.375  10.815  10.208 -0.7240  0.3075 -0.8366
  236MOL0     O32438  10.364  10.705  10.132  0.6138 -0.5615  1.0051
  236MOL0     C32439  10.489  10.641  10.085 -0.1017  0.1034  0.3569
  236MOL0     C32440  10.439  10.530   9.993  0.0204 -0.2413 -0.3440
  236MOL0     C32441  10.545  10.477   9.906 -0.3446  0.1970  0.4270
  236MOL0     C32442  10.664  10.410   9.973  0.6389 -0.2006  0.1800
  236MOL0     C32443  10.788  10.485   9.949  0.0344 -0.5117 -0.0471
  236MOL0     C32444  10.820  10.613  10.033 -0.6503 -0.0603  0.7877
  236MOL0     C32445  10.969  10.649  10.025 -0.2200  0.5410  0.5885
  236MOL0     C32446  11.027  10.693  10.156  0.0024  0.5669  0.5400
  236MOL0     N32447  11.169  10.735  10.130  0.1621  0.5045  0.6369
  236MOL0     C32448  11.269  10.652  10.081  0.8523 -0.8707 -0.8018
  236MOL0     C32449  11.378  10.730  10.086 -0.3215 -0.1437  0.1585
  236MOL0     C32450  11.523  10.687  10.047 -0.2128  0.4283 -0.0667
  236MOL0     C32451  11.551  10.634   9.908  0.9053  0.5089  1.1113
  236MOL0     C32452  11.535  10.756   9.819  0.1271  0.6613  0.6499
  236MOL0     C32453  11.523  10.730   9.669 -0.2380 -0.1584 -0.5542
  236MOL0     O32454  11.645  10.657   9.633  0.0201  0.5827 -0.1192
  236MOL0     C32455  11.635  10.539   9.563 -0.1044  0.7472  0.1153
  236MOL0     C32456  11.518  10.497   9.496  0.2793  0.2675  0.2746
  236MOL0     C32457  11.523  10.383   9.417 -0.9039  0.5677  0.0975
  236MOL0     C32458  11.409  10.351   9.335  0.4127  0.5090 -0.5216
  236MOL0     C32459  11.645  10.303   9.405 -0.3182 -0.6336  0.8547
  236MOL0     C32460  11.656  10.174   9.323 -0.4542 -0.5253 -0.2455
  236MOL0     O32461  11.780  10.122   9.289 -0.1113  0.3103  0.5526
  236MOL0     C32462  11.788  10.024   9.201  0.1940  0.9893  0.7797
  236MOL0     C32463  11.785   9.891   9.246  0.4580 -0.8992 -0.9793
  236MOL0     C32464  11.784   9.793   9.143  0.0800 -0.2818  0.2815
  236MOL0     C32465  11.785   9.831   9.004 -0.1911  0.0535  0.0953
  236MOL0     O32466  11.792   9.737   8.896 -0.2209 -0.3443 -0.0905
  236MOL0     C32467  11.779   9.602   8.918  0.3254 -0.2269  0.7258
  236MOL0     C32468  11.742   9.522   8.785 -0.3120 -0.6706 -1.4622
  236MOL0     C32469  11.873   9.512   8.701 -0.6033  1.0869 -0.3796
  236MOL0     C32470  11.866   9.589   8.567  0.0452 -0.2498  0.5458
  236MOL0     C32471  11.872   9.483   8.449 -0.4756 -0.1420  0.3725
  236MOL0     C32472  11.882   9.533   8.300 -0.9516  0.6272  0.4014
  236MOL0     C32473  11.760   9.608   8.248  0.0594  0.3614  0.5553
  236MOL0     C32474  11.774   9.689   8.119  0.1547  0.3762  0.6483
  236MOL0    Cl32475  11.612   9.740   8.067  0.5147  0.0770 -0.0823
  236MOL0     C32476  11.814   9.960   8.966  1.2354 -0.6379  1.2517
  236MOL0     C32477  11.808  10.061   9.070  0.0826 -0.1953  0.0606
  236MOL0     O32478  11.558  10.118   9.310 -0.0317 -0.0301 -0.1756
  236MOL0     C32479  11.754  10.355   9.478 -0.2639 -0.7079  0.3707
  236MOL0     C32480  11.746  10.475   9.554 -0.7112  0.5403  0.5373
  236MOL0     N32481  11.351  10.844  10.154  0.2732 -0.7928 -0.1772
  236MOL0     N32482  11.226  10.847  10.166  0.4696 -0.5520  0.4438
  236MOL0     C32483  10.259  10.907  10.205  0.6737  1.2759 -0.7993
  236MOL0     C32484  10.266  11.007  10.302 -0.1893 -1.2216  0.6747
  236MOL0     C32485  10.307  11.350  10.552 -0.9827 -0.2349 -0.1237
  236MOL0     C32486  10.419  11.417  10.489  0.4945 -1.0332 -0.1939
  236MOL0     C32487  10.477  11.543  10.530 -0.0201  0.7394 -1.3424
  236MOL0     C32488  10.414  11.608  10.641  0.6975  0.7628  0.8412
  236MOL0     O32489  10.468  11.727  10.680 -0.6348 -0.4056  0.6168
  236MOL0     C32490  10.430  11.825  10.580 -0.1636  0.2120  0.0170
  236MOL0     C32491  10.302  11.893  10.619  0.7440  0.2524  0.4275
  236MOL0     C32492  10.326  12.015  10.708 -0.5843  0.1971 -0.5484
  236MOL0     C32493  10.208  12.077  10.780  0.0960  0.9383  0.0670
  236MOL0     C32494  10.251  12.204  10.840  0.4201  0.3678  0.4847
  236MOL0     C32495  10.297  12.308  10.876 -0.0270  0.4831  0.7459
  236MOL0     C32496  10.310  11.534  10.711  0.8509  0.1841  0.2378
  236MOL0     C32497  10.255  11.404  10.672  0.8077 -0.4899  0.1762
  236MOL0     C32498  10.149  11.340  10.754  0.4414 -0.4809 -0.4925
  236MOL0     H32499  10.565  10.965  10.455 -0.8005 -2.1199  1.0469
  236MOL0     H32500  10.581  10.780  10.292 -0.1311 -0.3334  2.1800
  236MOL0     H32501  10.540  10.584  10.163 -0.4830  0.1503  0.6463
  236MOL0     H32502  10.553  10.714  10.033 -0.6272  0.3268  0.0119
  236MOL0     H32503  10.380  10.467  10.061 -1.4127  1.3151 -0.0775
  236MOL0     H32504  10.374  10.570   9.915  3.2673  3.1760 -1.5884
  236MOL0     H32505  10.496  10.399   9.846  2.3995  0.9597 -3.1375
  236MOL0     H32506  10.587  10.548   9.834  1.7149  0.6168  1.9486
  236MOL0     H32507  10.667  10.385  10.080  0.3312  2.4420  0.8665
  236MOL0     H32508  10.659  10.317   9.915 -1.8184 -0.4783  0.7270
  236MOL0     H32509  10.802  10.514   9.844  0.8152  0.7031  0.3714
  236MOL0     H32510  10.867  10.414   9.975 -0.1450 -0.2653  1.2085
  236MOL0     H32511  10.746  10.690  10.009 -0.7628 -1.0109 -2.2934
  236MOL0     H32512  10.788  10.612  10.138 -3.4239  2.3836  0.1052
  236MOL0     H32513  10.966  10.726   9.947 -0.5507 -0.8575 -0.8279
  236MOL0     H32514  11.027  10.572   9.974 -1.4074  0.5416 -0.8511
  236MOL0     H32515  10.967  10.775  10.197 -2.3289  0.5935 -2.5720
  236MOL0     H32516  11.029  10.614  10.232 -0.8892  2.1629  2.2996
  236MOL0     H32517  11.259  10.547  10.054  2.4326 -1.2281 -0.0900
  236MOL0     H32518  11.543  10.616  10.128 -4.2358 -1.3640 -0.3739
  236MOL0     H32519  11.592  10.768  10.070  0.3298 -0.3165  1.0261
  236MOL0     H32520  11.653  10.593   9.906  0.4137 -0.8370 -2.2127
  236MOL0     H32521  11.484  10.551   9.883  0.0359  1.3368  0.6501
  236MOL0     H32522  11.446  10.815   9.841 -0.0716  1.9967 -3.0414
  236MOL0     H32523  11.620  10.820   9.844  0.0837  0.9069  0.1797
  236MOL0     H32524  11.430  10.674   9.653 -0.2866 -0.0511 -0.6490
  236MOL0     H32525  11.508  10.822   9.612 -0.5019  0.3360  0.2999
  236MOL0     H32526  11.432  10.562   9.502 -0.4316 -0.3975 -1.7228
  236MOL0     H32527  11.337  10.433   9.336 -1.4871 -1.0859 -0.6509
  236MOL0     H32528  11.368  10.251   9.352 -0.5069  1.2666  2.3957
  236MOL0     H32529  11.448  10.341   9.233  3.2620 -2.3013  0.6687
  236MOL0     H32530  11.770   9.862   9.349  0.3370 -0.8461 -0.9824
  236MOL0     H32531  11.768   9.687   9.156 -1.6600 -0.1738 -0.6361
  236MOL0     H32532  11.866   9.562   8.972 -1.3056 -1.5943  2.5131
  236MOL0     H32533  11.686   9.596   8.975 -0.3234 -0.5064 -0.3361
  236MOL0     H32534  11.721   9.418   8.812 -0.7084 -0.3643 -0.5220
  236MOL0     H32535  11.655   9.561   8.733 -1.3943  0.4097  0.9822
  236MOL0     H32536  11.891   9.406   8.682 -0.4233  1.1710 -0.6908
  236MOL0     H32537  11.960   9.548   8.756 -0.7374  0.5073  0.2147
  236MOL0     H32538  11.957   9.651   8.570  0.2581 -0.5745  0.7891
  236MOL0     H32539  11.776   9.650   8.557  1.0098  1.2532  0.6180
  236MOL0     H32540  11.960   9.423   8.468  2.4059  3.7203  0.4808
  236MOL0     H32541  11.781   9.422   8.454  0.7527 -1.9930  0.7020
  236MOL0     H32542  11.898   9.442   8.240 -0.2674  1.0682 -0.0919
  236MOL0     H32543  11.970   9.598   8.292 -0.5199 -0.1036 -1.1201
  236MOL0     H32544  11.718   9.676   8.323 -2.0079  0.2523 -0.4286
  236MOL0     H32545  11.681   9.540   8.216  0.6019 -1.4512  2.8196
  236MOL0     H32546  11.799   9.616   8.042 -2.3497  0.9275 -0.7813
  236MOL0     H32547  11.841   9.775   8.125 -3.8027  3.6879  2.1341
  236MOL0     H32548  11.814   9.990   8.861 -2.1479  0.8046  1.5404
  236MOL0     H32549  11.812  10.167   9.047  0.4101 -0.9692 -4.1265
  236MOL0     H32550  11.847  10.299   9.486 -0.7378 -1.4979  0.5329
  236MOL0     H32551  11.842  10.504   9.597  1.1792 -0.8399 -2.3918
  236MOL0     H32552  10.186  10.895  10.126  1.0335  1.2858 -1.1339
  236MOL0     H32553  10.181  11.073  10.291  0.7731 -0.3161 -2.1762
  236MOL0     H32554  10.452  11.370  10.397 -1.4393 -2.7796 -0.0536
  236MOL0     H32555  10.554  11.593  10.472  2.6803  0.6666  1.9171
  236MOL0     H32556  10.506  11.904  10.580  2.6162 -2.2603  1.2356
  236MOL0     H32557  10.411  11.778  10.483 -0.3679 -2.1839  1.1350
  236MOL0     H32558  10.240  11.826  10.679 -0.2134 -0.3134 -1.1221
  236MOL0     H32559  10.229  11.900  10.537  0.9775 -3.0105 -0.1642
  236MOL0     H32560  10.388  11.985  10.793 -1.1421  0.4081 -0.0562
  236MOL0     H32561  10.386  12.087  10.651  0.5089  1.1329  1.6493
  236MOL0     H32562  10.169  12.003  10.850  1.6253 -0.9626 -0.9919
  236MOL0     H32563  10.126  12.091  10.708  0.8129  0.8030 -0.8035
  236MOL0     H32564  10.346  12.392  10.922  6.2057 -2.4932  0.5604
  236MOL0     H32565  10.259  11.570  10.799 -0.1569 -0.0250 -0.2480
  236MOL0     H32566  10.136  11.401  10.843  1.3565  1.0532 -1.3663
  236MOL0     H32567  10.053  11.344  10.702  0.9336  1.8549 -1.3383
  236MOL0     H32568  10.171  11.236  10.778  1.1588  0.2188  2.1802
  237MOL0     O32569  10.790   4.687   3.028  0.6593 -0.0746  0.1103
  237MOL0     C32570  10.902   4.641   3.007 -0.9924 -0.0472  0.2152
  237MOL0     O32571  11.016   4.715   3.012 -0.5733 -0.7500 -0.4088
  237MOL0     C32572  11.016   4.849   2.993 -0.9380  0.2519 -0.0227
  237MOL0     C32573  10.925   4.917   2.910  0.2616  0.4943 -0.2866
  237MOL0     C32574  10.921   5.058   2.913 -0.1453 -0.8138 -0.0184
  237MOL0     C32575  10.997   5.127   3.003  0.3849  0.5814  0.9897
  237MOL0     O32576  11.011   5.261   3.019  0.3308 -0.3099  0.3677
  237MOL0     C32577  10.936   5.344   2.927 -0.0347  0.2753  0.5432
  237MOL0     C32578  10.994   5.480   2.931 -0.7690 -0.9133  0.5780
  237MOL0     C32579  10.881   5.576   2.883  0.6491  0.0550 -0.7075
  237MOL0     C32580  10.761   5.591   2.987 -0.1839 -0.8230  0.0586
  237MOL0     C32581  10.686   5.727   2.970  0.8290  0.1685  1.1604
  237MOL0     C32582  10.597   5.683   2.851  0.7964 -0.1238  0.6185
  237MOL0     C32583  10.465   5.762   2.838  0.2136  0.7230 -0.3235
  237MOL0     C32584  10.393   5.709   2.715  0.1080 -0.4554 -0.0454
  237MOL0     N32585  10.283   5.621   2.747 -1.0400 -0.1101  0.2047
  237MOL0     C32586  10.166   5.668   2.795 -0.8057 -0.3548 -0.4331
  237MOL0     C32587  10.107   5.555   2.847  0.4750  0.2625 -0.5675
  237MOL0     C32588   9.974   5.552   2.911  0.2629 -0.3508  0.5903
  237MOL0     C32589   9.990   5.542   3.061 -0.0140  0.1750 -1.2391
  237MOL0     C32590   9.859   5.555   3.138  0.3703  0.1471  0.0552
  237MOL0     C32591   9.865   5.509   3.281 -1.1965  0.5366 -0.4191
  237MOL0     O32592   9.963   5.591   3.349  0.1800  0.7366 -1.4317
  237MOL0     C32593   9.973   5.573   3.492 -0.4217 -0.3468 -0.2060
  237MOL0     C32594   9.926   5.467   3.562 -0.5055 -0.1049 -0.6648
  237MOL0     C32595   9.967   5.441   3.693 -0.6997 -0.0277  0.3026
  237MOL0     C32596   9.928   5.294   3.739  0.6613 -0.5108  0.7413
  237MOL0     C32597  10.055   5.533   3.763  0.7790  0.2090 -0.4764
  237MOL0     C32598  10.113   5.504   3.893 -0.9194  0.0584  1.0476
  237MOL0     O32599  10.089   5.384   3.948  0.0715  0.5139 -0.0862
  237MOL0     C32600  10.170   5.347   4.053  0.9616  0.0901  0.8115
  237MOL0     C32601  10.224   5.212   4.056  1.1676 -0.3316  0.0160
  237MOL0     C32602  10.308   5.175   4.163  0.2930  0.2640 -0.1775
  237MOL0     C32603  10.329   5.250   4.275  0.5037 -0.1018  0.3180
  237MOL0     O32604  10.419   5.199   4.363  0.5982 -0.3450  0.1095
  237MOL0     C32605  10.534   5.286   4.394  0.1699  0.5835 -0.3609
  237MOL0     C32606  10.661   5.206   4.422  0.2925  0.6182  0.0313
  237MOL0     C32607  10.647   5.076   4.505  0.7352  0.2937 -0.6432
  237MOL0     C32608  10.770   4.987   4.517  0.4890 -0.5776 -0.4183
  237MOL0     C32609  10.780   4.897   4.641 -0.7860  0.1920 -0.4691
  237MOL0     C32610  10.664   4.804   4.660  0.9912  0.0351  0.1693
  237MOL0     C32611  10.644   4.699   4.553 -0.3793  0.4643  0.3239
  237MOL0     C32612  10.505   4.640   4.536  0.2148  0.3987  0.1721
  237MOL0    Cl32613  10.480   4.506   4.657  0.5004 -0.1652 -0.3044
  237MOL0     C32614  10.271   5.377   4.272  0.1998 -0.1597 -0.8653
  237MOL0     C32615  10.193   5.428   4.167 -0.0048 -0.1102  0.3524
  237MOL0     O32616  10.203   5.585   3.920  0.3224  0.4221 -0.1901
  237MOL0     C32617  10.099   5.651   3.695  0.1128 -0.0366 -0.4011
  237MOL0     C32618  10.066   5.664   3.557  0.8812 -0.3761 -1.1186
  237MOL0     N32619  10.187   5.455   2.824 -0.2431  0.1596  0.5444
  237MOL0     N32620  10.299   5.490   2.776 -0.3567 -0.1357  0.0166
  237MOL0     C32621  11.085   5.057   3.085 -0.0275 -0.2415 -1.2368
  237MOL0     C32622  11.096   4.922   3.072  0.8846 -0.2122  0.6698
  237MOL0     C32623  10.915   4.492   3.015  0.6394 -0.1326 -0.7042
  237MOL0     C32624  11.025   4.435   3.081  0.1418 -0.8620 -0.6785
  237MOL0     C32625  11.049   4.298   3.094  0.4567 -0.3766  0.6554
  237MOL0     C32626  10.967   4.212   3.017  0.4119  0.5137  0.0794
  237MOL0     O32627  10.981   4.070   2.997  0.4294  0.0189  0.2277
  237MOL0     C32628  11.122   4.016   2.982  0.6419  0.2770 -0.1755
  237MOL0     C32629  11.185   4.085   2.856  1.3437  0.1407 -0.7076
  237MOL0     C32630  11.334   4.041   2.848 -0.1947  0.6235  0.4849
  237MOL0     C32631  11.418   4.143   2.763 -0.0490  0.0466  0.1380
  237MOL0     C32632  11.477   4.251   2.854  0.5724 -0.0237  0.3339
  237MOL0     C32633  11.522   4.337   2.929 -0.6732 -0.4900  0.7682
  237MOL0     C32634  10.859   4.271   2.952 -0.3274  0.8837  0.2677
  237MOL0     C32635  10.829   4.407   2.950 -0.8856 -0.5054  0.1316
  237MOL0     C32636  10.731   4.464   2.860  0.8122  0.2857 -0.0012
  237MOL0     H32637  10.850   4.872   2.846  1.8828 -0.1657 -1.8020
  237MOL0     H32638  10.847   5.101   2.845  0.3516 -0.7238 -0.5089
  237MOL0     H32639  10.833   5.341   2.964 -0.7592  1.9484 -1.1238
  237MOL0     H32640  10.955   5.312   2.824 -1.0521  0.3205  0.3292
  237MOL0     H32641  11.001   5.509   3.036  1.3462  3.7887 -0.5823
  237MOL0     H32642  11.092   5.495   2.886 -0.8450 -1.1657  0.3236
  237MOL0     H32643  10.918   5.673   2.848  1.6610 -1.5657 -4.7520
  237MOL0     H32644  10.835   5.531   2.794  2.5035 -2.1088 -0.6642
  237MOL0     H32645  10.699   5.501   2.998 -0.5209 -0.6150 -0.1251
  237MOL0     H32646  10.811   5.613   3.082  2.7222  0.3637 -1.6050
  237MOL0     H32647  10.757   5.809   2.963 -0.9656  1.7099 -0.0832
  237MOL0     H32648  10.621   5.751   3.055 -1.1028  0.6097 -0.3629
  237MOL0     H32649  10.654   5.706   2.760 -1.5788 -1.0279 -1.2332
  237MOL0     H32650  10.570   5.577   2.849 -0.0275  0.0813 -0.6361
  237MOL0     H32651  10.467   5.870   2.823  0.4138  0.5655 -1.5455
  237MOL0     H32652  10.408   5.752   2.930  1.4770 -1.2041  0.3121
  237MOL0     H32653  10.349   5.788   2.653 -1.3171 -3.2862 -2.8666
  237MOL0     H32654  10.465   5.661   2.649 -0.0169 -2.4376  1.2023
  237MOL0     H32655  10.138   5.771   2.812 -0.2415 -0.4692  1.3074
  237MOL0     H32656   9.921   5.469   2.866 -0.8442 -0.4198  1.9551
  237MOL0     H32657   9.919   5.644   2.887 -1.3004 -1.6252 -0.9578
  237MOL0     H32658  10.045   5.452   3.093  0.8978  2.1559  3.7181
  237MOL0     H32659  10.054   5.625   3.090  2.0408 -2.4800  2.8869
  237MOL0     H32660   9.845   5.664   3.134  1.3475  0.2916  0.2882
  237MOL0     H32661   9.790   5.499   3.075  1.7034 -0.7833 -0.6240
  237MOL0     H32662   9.771   5.483   3.331 -0.5080  2.6528  2.2182
  237MOL0     H32663   9.923   5.416   3.278 -0.2714  1.1317 -1.7707
  237MOL0     H32664   9.870   5.387   3.514  1.2494 -0.5881 -2.0315
  237MOL0     H32665  10.006   5.234   3.789  0.9024 -0.3424  0.5694
  237MOL0     H32666   9.898   5.235   3.652  1.5987 -0.6810  0.5169
  237MOL0     H32667   9.840   5.304   3.803 -2.4401 -0.0873 -3.1837
  237MOL0     H32668  10.207   5.139   3.978 -0.0001 -0.2328  0.1604
  237MOL0     H32669  10.355   5.077   4.155  0.3070  0.0954  1.6838
  237MOL0     H32670  10.548   5.354   4.310  0.8500  1.2840  0.2957
  237MOL0     H32671  10.515   5.355   4.478  3.2704 -1.3799  2.2139
  237MOL0     H32672  10.718   5.174   4.335  2.8996 -0.6252  2.0327
  237MOL0     H32673  10.721   5.279   4.478 -1.2988  1.3074  0.8980
  237MOL0     H32674  10.566   5.014   4.465  0.2506  1.2374 -1.1693
  237MOL0     H32675  10.626   5.108   4.608  2.3805  3.0426 -1.0578
  237MOL0     H32676  10.859   5.050   4.519 -0.9759  1.8281 -3.0807
  237MOL0     H32677  10.786   4.919   4.432 -1.7172 -1.7227  0.0130
  237MOL0     H32678  10.864   4.832   4.618 -0.1629  1.3185 -1.5062
  237MOL0     H32679  10.798   4.958   4.731 -0.9442  1.2292 -1.1279
  237MOL0     H32680  10.569   4.855   4.642  2.0103  0.7331 -4.7293
  237MOL0     H32681  10.660   4.740   4.749 -0.3883 -2.9987 -1.8707
  237MOL0     H32682  10.708   4.613   4.572 -0.4210  0.2496 -0.4743
  237MOL0     H32683  10.672   4.746   4.458  1.9871 -0.2086  0.6183
  237MOL0     H32684  10.521   4.576   4.449 -0.1773 -2.1400  1.8580
  237MOL0     H32685  10.423   4.712   4.527  0.0100  0.2735  0.9631
  237MOL0     H32686  10.296   5.439   4.358 -0.1208 -1.2210  0.0206
  237MOL0     H32687  10.138   5.521   4.172 -1.8464 -1.1878  0.8934
  237MOL0     H32688  10.130   5.746   3.739  2.3740 -1.1841  0.5960
  237MOL0     H32689  10.098   5.761   3.520 -1.1122  2.5318  3.8021
  237MOL0     H32690  11.143   5.115   3.156 -1.9114  1.9543 -1.4002
  237MOL0     H32691  11.174   4.869   3.126  2.2986  1.0877 -0.0575
  237MOL0     H32692  11.101   4.495   3.131 -0.6389 -0.8153  0.5213
  237MOL0     H32693  11.146   4.289   3.142  0.2656  3.7031  2.1842
  237MOL0     H32694  11.180   4.044   3.070  1.9480  0.1225 -0.9608
  237MOL0     H32695  11.134   3.909   2.966 -0.5836  0.0533  0.3238
  237MOL0     H32696  11.192   4.194   2.862  3.0651 -0.0238  3.1636
  237MOL0     H32697  11.130   4.054   2.767 -1.2989 -1.6587  1.3765
  237MOL0     H32698  11.383   4.023   2.944 -0.2329 -1.2399  0.1879
  237MOL0     H32699  11.339   3.937   2.814 -0.5696  0.9092 -0.4682
  237MOL0     H32700  11.363   4.187   2.679 -0.6866 -1.8158 -0.4553
  237MOL0     H32701  11.503   4.083   2.730 -2.7177 -3.3961 -1.1450
  237MOL0     H32702  11.572   4.413   2.985  2.7722 -0.1016 -2.4811
  237MOL0     H32703  10.787   4.202   2.909 -0.9503  2.4615 -1.3624
  237MOL0     H32704  10.756   4.548   2.794 -0.2580  0.6393  0.0158
  237MOL0     H32705  10.688   4.388   2.793  0.7457  2.7291 -2.9489
  237MOL0     H32706  10.648   4.495   2.923 -2.8146 -1.5127 -3.3943
  238MOL0     O32707  11.409   8.387   4.533 -0.7823  0.2206  0.3167
  238MOL0     C32708  11.412   8.262   4.504  0.7539 -0.9155  0.2937
  238MOL0     O32709  11.512   8.182   4.515 -0.9018 -0.9147 -0.3614
  238MOL0     C32710  11.629   8.238   4.566  0.5911  0.0941  0.8692
  238MOL0     C32711  11.713   8.311   4.477  0.3961  0.1249 -0.1682
  238MOL0     C32712  11.833   8.366   4.513  0.0523  0.5652  0.2273
  238MOL0     C32713  11.869   8.335   4.640 -0.4413  0.3765 -1.0622
  238MOL0     O32714  12.000   8.387   4.655 -0.6607 -0.1229 -0.1293
  238MOL0     C32715  12.070   8.370   4.780 -0.3269 -0.5634  0.0373
  238MOL0     C32716  12.179   8.473   4.781 -0.5789  0.0771  0.1013
  238MOL0     C32717  12.299   8.437   4.681 -0.2750  0.6424 -0.0351
  238MOL0     C32718  12.423   8.539   4.665  0.8199  1.1094 -0.6671
  238MOL0     C32719  12.386   8.657   4.583 -0.6246 -0.1618  1.4632
  238MOL0     C32720  12.502   8.761   4.584  0.6100 -0.0064  0.5976
  238MOL0     C32721  12.642   8.714   4.539 -1.3238  1.1981 -0.3374
  238MOL0     C32722  12.733   8.837   4.492 -0.4201  0.4103  0.1895
  238MOL0     N32723  12.741   8.943   4.597 -0.4369 -0.5753  0.0807
  238MOL0     C32724  12.783   8.941   4.725 -0.1116 -0.0598  0.8532
  238MOL0     C32725  12.725   9.045   4.795 -0.1730  1.1753  0.9103
  238MOL0     C32726  12.732   9.077   4.935 -0.8238  0.4660  0.0231
  238MOL0     C32727  12.726   8.956   5.031  0.1661  0.8469  0.1573
  238MOL0     C32728  12.744   8.976   5.186 -0.2540 -0.1499  0.0627
  238MOL0     C32729  12.879   8.929   5.234 -0.5832 -0.9679  0.8817
  238MOL0     O32730  12.985   9.010   5.167  0.6504  0.4881 -0.3559
  238MOL0     C32731  13.117   8.986   5.187 -0.3306  0.9369 -0.3611
  238MOL0     C32732  13.206   9.057   5.110  0.8585 -0.8184  0.9764
  238MOL0     C32733  13.352   9.053   5.130 -0.3327  0.7979 -0.2535
  238MOL0     C32734  13.429   9.163   5.065  0.4683  0.6374  0.0478
  238MOL0     C32735  13.401   8.945   5.209 -0.0483  0.0334  0.8140
  238MOL0     C32736  13.549   8.917   5.222 -0.3785  0.0384  0.0906
  238MOL0     O32737  13.587   8.807   5.301 -0.0012  0.1073 -0.3808
  238MOL0     C32738  13.718   8.766   5.291  0.1282  0.0212 -0.1738
  238MOL0     C32739  13.816   8.820   5.370 -0.6452  1.0267  0.0605
  238MOL0     C32740  13.948   8.782   5.352  1.1731  0.3835 -0.4012
  238MOL0     C32741  13.994   8.693   5.265  0.5685  0.9832 -0.1942
  238MOL0     O32742  14.125   8.640   5.246 -0.1814  0.5452  0.6470
  238MOL0     C32743  14.222   8.647   5.350  0.0078  0.5377  0.5354
  238MOL0     C32744  14.347   8.577   5.306 -0.3716  0.5635 -0.6818
  238MOL0     C32745  14.342   8.435   5.293 -0.8424  0.1994 -0.0096
  238MOL0     C32746  14.342   8.362   5.433  0.2979 -0.6413 -0.1977
  238MOL0     C32747  14.332   8.211   5.407  0.1741  0.4731 -0.0337
  238MOL0     C32748  14.362   8.133   5.542 -0.2258 -1.0217 -0.3483
  238MOL0     C32749  14.360   7.979   5.527  0.4722  0.1985 -0.8506
  238MOL0     C32750  14.215   7.926   5.503  0.0221  0.1253 -0.2929
  238MOL0    Cl32751  14.205   7.755   5.468 -0.4837 -0.3224 -0.4262
  238MOL0     C32752  13.894   8.640   5.176  0.8943  0.3618 -0.6158
  238MOL0     C32753  13.763   8.690   5.178 -0.4391  0.1683  0.5041
  238MOL0     O32754  13.628   8.998   5.170 -0.5564  0.9063  0.7947
  238MOL0     C32755  13.311   8.868   5.283 -0.7702 -0.2773  0.6086
  238MOL0     C32756  13.176   8.897   5.283  0.3403 -0.6267 -0.5907
  238MOL0     N32757  12.663   9.118   4.704  0.2987  0.2441  0.4803
  238MOL0     N32758  12.668   9.060   4.586  0.4579 -0.0260 -0.7868
  238MOL0     C32759  11.793   8.247   4.729 -0.9436 -1.0001 -0.6359
  238MOL0     C32760  11.666   8.204   4.688 -0.1186  0.2297  1.2034
  238MOL0     C32761  11.283   8.220   4.452 -0.4700 -0.3310  0.3432
  238MOL0     C32762  11.231   8.105   4.513 -0.4902  0.1829 -0.0392
  238MOL0     C32763  11.103   8.064   4.481  0.2230  0.1634 -0.1063
  238MOL0     C32764  11.025   8.127   4.397 -0.1883  0.0534  0.1066
  238MOL0     O32765  10.900   8.072   4.383 -0.8127 -0.1608  0.2383
  238MOL0     C32766  10.795   8.153   4.331 -0.4648  1.1959  0.2167
  238MOL0     C32767  10.666   8.077   4.371 -0.3332  0.2211  0.3892
  238MOL0     C32768  10.664   8.011   4.511  0.6961  0.2077 -0.6523
  238MOL0     C32769  10.537   7.930   4.536  0.5804 -0.0900  0.0161
  238MOL0     C32770  10.484   7.836   4.437 -1.1502  1.4037 -0.2280
  238MOL0     C32771  10.436   7.761   4.348  0.2511  0.4513 -1.4613
  238MOL0     C32772  11.079   8.243   4.323 -0.4082  0.4021  0.1137
  238MOL0     C32773  11.214   8.290   4.348  0.0364 -0.5881  0.1266
  238MOL0     C32774  11.265   8.419   4.287  0.4248  1.0416 -0.0013
  238MOL0     H32775  11.670   8.348   4.384  1.5001  0.0324 -0.7277
  238MOL0     H32776  11.887   8.441   4.456 -0.2104  1.3787  1.0255
  238MOL0     H32777  12.110   8.269   4.773  0.0854 -0.3344 -5.8654
  238MOL0     H32778  12.015   8.397   4.871 -1.2724  0.8916 -0.9194
  238MOL0     H32779  12.151   8.578   4.767 -2.3589 -0.5129 -1.0447
  238MOL0     H32780  12.232   8.460   4.877 -0.4637 -2.8154 -0.2802
  238MOL0     H32781  12.342   8.339   4.704 -2.7815 -0.8673 -1.3417
  238MOL0     H32782  12.264   8.429   4.577  0.1894 -0.3758 -0.1217
  238MOL0     H32783  12.442   8.582   4.764 -1.6844  1.4550 -0.2736
  238MOL0     H32784  12.510   8.481   4.633 -0.0161 -2.3671  2.5429
  238MOL0     H32785  12.295   8.703   4.624 -2.1001  0.7207 -2.3771
  238MOL0     H32786  12.357   8.638   4.479 -0.9713  1.6696  1.1834
  238MOL0     H32787  12.472   8.843   4.518 -0.9283 -1.8439 -1.1335
  238MOL0     H32788  12.499   8.793   4.689  1.5206 -0.9140  0.9091
  238MOL0     H32789  12.636   8.640   4.458  0.6414  2.0945 -1.3525
  238MOL0     H32790  12.701   8.666   4.618 -0.3127 -1.2520 -2.4311
  238MOL0     H32791  12.836   8.802   4.481 -0.5608 -0.3107  1.0487
  238MOL0     H32792  12.696   8.883   4.400  1.2372  3.4708  0.9031
  238MOL0     H32793  12.851   8.866   4.763  0.4568  0.2470  0.4671
  238MOL0     H32794  12.651   9.145   4.962 -0.3869  0.7075  0.7748
  238MOL0     H32795  12.809   9.151   4.958 -3.8022  3.2982  1.6905
  238MOL0     H32796  12.627   8.911   5.018  0.3203  0.3145  0.7465
  238MOL0     H32797  12.787   8.874   4.994  2.9918  3.8006 -2.3428
  238MOL0     H32798  12.740   9.082   5.215 -0.4930 -0.7052  2.2598
  238MOL0     H32799  12.662   8.931   5.244 -0.2331  0.4441  0.5726
  238MOL0     H32800  12.888   8.948   5.342 -0.1986 -0.3875  0.7498
  238MOL0     H32801  12.897   8.822   5.217  0.4873 -0.5866 -0.5758
  238MOL0     H32802  13.163   9.123   5.036 -0.2846 -1.0117  1.4616
  238MOL0     H32803  13.365   9.234   5.011 -1.1578 -0.0432  1.0235
  238MOL0     H32804  13.484   9.112   4.985  1.0406  0.3229  0.6369
  238MOL0     H32805  13.487   9.224   5.135  2.8505 -0.3388 -0.9917
  238MOL0     H32806  13.790   8.902   5.437  0.1117  2.3650 -1.2262
  238MOL0     H32807  14.027   8.819   5.417  1.0935  1.1538 -0.7330
  238MOL0     H32808  14.250   8.746   5.387 -1.7134  1.3810 -0.2889
  238MOL0     H32809  14.166   8.590   5.425  1.3406 -0.9574  0.4361
  238MOL0     H32810  14.382   8.620   5.212 -1.0069  0.7558 -0.8359
  238MOL0     H32811  14.436   8.606   5.363  1.0542 -1.4857 -1.7212
  238MOL0     H32812  14.425   8.405   5.229 -1.6568  0.1330 -1.0720
  238MOL0     H32813  14.248   8.403   5.246 -1.9840  0.3452  2.0355
  238MOL0     H32814  14.273   8.398   5.509  2.4129 -1.7626  2.4387
  238MOL0     H32815  14.440   8.386   5.476 -1.6998  1.4592  3.7134
  238MOL0     H32816  14.243   8.191   5.346  1.4849 -0.1676 -1.8522
  238MOL0     H32817  14.412   8.185   5.337 -1.1014  1.1631 -1.8536
  238MOL0     H32818  14.284   8.167   5.612 -1.1118  0.3709 -1.9328
  238MOL0     H32819  14.453   8.176   5.584 -0.7336 -0.4121  0.1418
  238MOL0     H32820  14.412   7.924   5.606 -0.6369  1.6481  0.9511
  238MOL0     H32821  14.409   7.954   5.432 -1.3167 -0.1775 -1.7206
  238MOL0     H32822  14.161   7.972   5.419 -1.3335 -3.0145 -1.3062
  238MOL0     H32823  14.167   7.958   5.596  2.3128 -1.4645  1.5569
  238MOL0     H32824  13.937   8.565   5.111  0.9221 -0.4411  0.2948
  238MOL0     H32825  13.691   8.633   5.120  1.4402  2.1637 -4.3197
  238MOL0     H32826  13.353   8.794   5.351  2.3970 -1.5571 -2.4182
  238MOL0     H32827  13.114   8.847   5.356  3.3233 -0.9980  1.9313
  238MOL0     H32828  11.835   8.222   4.826 -2.0079  0.2729  0.2015
  238MOL0     H32829  11.594   8.157   4.754 -0.9663 -2.1973 -1.2201
  238MOL0     H32830  11.291   8.049   4.585  1.8493 -0.6867 -2.4791
  238MOL0     H32831  11.058   7.989   4.546 -1.6888  1.3767  0.0401
  238MOL0     H32832  10.797   8.255   4.371  0.0964  1.9172 -1.5620
  238MOL0     H32833  10.804   8.166   4.223 -0.7434 -0.3315 -0.0166
  238MOL0     H32834  10.671   8.000   4.293  2.8325  0.8935 -0.1965
  238MOL0     H32835  10.575   8.136   4.354  2.0011  3.6474 -1.2217
  238MOL0     H32836  10.752   7.945   4.513  1.8012  1.6143 -1.0096
  238MOL0     H32837  10.678   8.079   4.595  0.9713  0.6993 -1.0962
  238MOL0     H32838  10.460   7.999   4.572  0.7691 -0.4089  1.0521
  238MOL0     H32839  10.556   7.861   4.619  1.3945 -3.2858 -2.6051
  238MOL0     H32840  10.411   7.687   4.275 -1.7441 -0.0290 -0.3618
  238MOL0     H32841  11.011   8.287   4.250  1.0478  1.9285 -0.3824
  238MOL0     H32842  11.183   8.454   4.223  1.2201  0.6814 -1.2641
  238MOL0     H32843  11.309   8.500   4.346  0.7282 -0.6124  2.1593
  238MOL0     H32844  11.342   8.380   4.219 -2.3211 -1.5976 -1.8011
  239MOL0     O32845   4.368   1.694   9.535 -0.3891 -0.1459 -1.0102
  239MOL0     C32846   4.378   1.572   9.518  0.6952  0.1586 -0.1836
  239MOL0     O32847   4.430   1.514   9.401  0.3242 -0.2825  0.2929
  239MOL0     C32848   4.490   1.587   9.309 -0.3967  0.2095 -0.4909
  239MOL0     C32849   4.563   1.699   9.336  1.1339 -0.2251  0.4449
  239MOL0     C32850   4.643   1.760   9.229 -0.4363 -0.4185 -0.5181
  239MOL0     C32851   4.641   1.701   9.100 -0.1072 -0.3694  0.6438
  239MOL0     O32852   4.711   1.752   8.989  0.9367  0.3520 -0.3855
  239MOL0     C32853   4.833   1.812   9.012 -0.5374  0.0617  0.4408
  239MOL0     C32854   4.813   1.970   9.005 -0.1734 -0.7715  0.6170
  239MOL0     C32855   4.936   2.050   9.050  0.5937  0.6155 -0.1308
  239MOL0     C32856   4.902   2.199   9.056  0.5997 -0.6194  0.8471
  239MOL0     C32857   5.022   2.280   9.124  0.7166  0.6555  0.7895
  239MOL0     C32858   4.984   2.429   9.133  0.3622 -0.2732  0.1883
  239MOL0     C32859   5.093   2.520   9.205  0.5393 -0.9673  0.1997
  239MOL0     C32860   5.063   2.513   9.362 -0.4919  0.1576  0.1144
  239MOL0     N32861   5.153   2.602   9.441 -0.6043 -0.5157 -0.1742
  239MOL0     C32862   5.134   2.737   9.470 -1.1547  0.8908  0.5352
  239MOL0     C32863   5.239   2.776   9.544  0.2841  0.9632 -0.7544
  239MOL0     C32864   5.279   2.916   9.566  0.8113 -0.5941  0.1167
  239MOL0     C32865   5.369   2.934   9.695 -0.2526  0.0885  1.0951
  239MOL0     C32866   5.419   3.081   9.697  0.2624 -0.5841 -0.7213
  239MOL0     C32867   5.301   3.188   9.688 -0.0724 -0.1936 -0.1229
  239MOL0     O32868   5.195   3.165   9.787 -0.3564 -0.2591  0.0176
  239MOL0     C32869   5.209   3.193   9.920  0.7086 -0.3978 -0.4142
  239MOL0     C32870   5.298   3.296   9.975 -0.1304  0.5422  0.1147
  239MOL0     C32871   5.305   3.324  10.112  0.1242  0.7959  0.6277
  239MOL0     C32872   5.394   3.426  10.162  0.2185  0.1705  0.6017
  239MOL0     C32873   5.224   3.248  10.197  0.7632  0.6193  0.1483
  239MOL0     C32874   5.217   3.255  10.339  0.9494 -0.1585 -0.6476
  239MOL0     O32875   5.242   3.381  10.388 -0.0987 -0.5529 -0.4170
  239MOL0     C32876   5.241   3.397  10.521  0.2059 -0.9051 -0.5434
  239MOL0     C32877   5.135   3.370  10.609  0.5462  0.5867  0.2195
  239MOL0     C32878   5.142   3.379  10.744 -0.1559  0.1219 -0.0506
  239MOL0     C32879   5.260   3.411  10.803  0.3506  0.2699  0.1653
  239MOL0     O32880   5.250   3.420  10.937  0.5903 -0.3629  0.0681
  239MOL0     C32881   5.351   3.503  10.990 -0.0486 -0.7104  0.0502
  239MOL0     C32882   5.344   3.500  11.137 -0.2423 -0.3187 -0.4833
  239MOL0     C32883   5.386   3.633  11.196 -0.3236  0.2318 -0.4600
  239MOL0     C32884   5.278   3.738  11.189  0.1461 -0.1058 -0.4929
  239MOL0     C32885   5.327   3.879  11.223 -0.0634  0.4470 -0.8220
  239MOL0     C32886   5.421   3.870  11.355 -0.2349 -0.0673  0.7343
  239MOL0     C32887   5.453   4.011  11.403 -0.3646  0.3865  0.1738
  239MOL0     C32888   5.532   4.018  11.533 -0.4976 -0.3933  0.5052
  239MOL0    Cl32889   5.450   3.945  11.668 -0.0306 -0.2081 -0.8136
  239MOL0     C32890   5.375   3.425  10.724 -0.0033 -0.6693  0.1327
  239MOL0     C32891   5.361   3.417  10.584  0.1541  0.2077  0.1664
  239MOL0     O32892   5.191   3.154  10.402  0.1104 -0.1859 -0.7925
  239MOL0     C32893   5.144   3.146  10.150  0.4771 -0.3317  0.1859
  239MOL0     C32894   5.124   3.130  10.015 -0.7718 -0.4196  0.0638
  239MOL0     N32895   5.313   2.668   9.571 -0.1190 -0.3831 -0.1495
  239MOL0     N32896   5.253   2.566   9.519  0.0741  0.7107 -0.7910
  239MOL0     C32897   4.535   1.607   9.077 -1.1007  0.6091  1.6188
  239MOL0     C32898   4.479   1.542   9.178  0.3388  0.3219 -0.4179
  239MOL0     C32899   4.332   1.492   9.640 -0.2856  0.5838  0.0016
  239MOL0     C32900   4.294   1.549   9.769  0.4340  0.2115  1.1125
  239MOL0     C32901   4.253   1.479   9.882 -0.1151  0.3009  0.2092
  239MOL0     C32902   4.258   1.342   9.886  0.1777  0.2764 -0.1204
  239MOL0     O32903   4.232   1.279  10.005  0.2282  0.1763  0.5332
  239MOL0     C32904   4.132   1.336  10.086 -0.1740 -0.4239  0.1254
  239MOL0     C32905   4.083   1.241  10.202 -0.4073  0.1483  0.2804
  239MOL0     C32906   4.167   1.266  10.329  0.7793  0.4482  0.1790
  239MOL0     C32907   4.123   1.394  10.407  0.7294  0.7776 -0.7277
  239MOL0     C32908   3.993   1.351  10.474 -0.4492 -0.8679 -0.1862
  239MOL0     C32909   3.905   1.325  10.544 -0.3933  0.2359 -0.3145
  239MOL0     C32910   4.290   1.277   9.770 -0.0920 -0.5707 -0.2091
  239MOL0     C32911   4.314   1.348   9.644  0.1969 -0.1341  0.3763
  239MOL0     C32912   4.337   1.258   9.517  0.7563  0.5388  0.5013
  239MOL0     H32913   4.574   1.742   9.435 -1.0391 -0.5884  0.8836
  239MOL0     H32914   4.707   1.845   9.251 -1.5759 -0.1406  2.0640
  239MOL0     H32915   4.896   1.796   8.924 -2.0115  0.1537 -0.6705
  239MOL0     H32916   4.878   1.784   9.108  1.9544  1.6793 -0.1481
  239MOL0     H32917   4.772   2.006   8.910 -0.5699 -3.4833 -0.3425
  239MOL0     H32918   4.731   1.997   9.072 -0.8731  3.9469 -1.6949
  239MOL0     H32919   4.988   2.017   9.141  0.8089  0.7933 -0.1906
  239MOL0     H32920   5.005   2.040   8.966  1.2510 -1.3432  0.5886
  239MOL0     H32921   4.877   2.227   8.953 -1.0073 -3.2027  0.4461
  239MOL0     H32922   4.812   2.217   9.116  0.9119  0.5731  0.9896
  239MOL0     H32923   5.111   2.260   9.065  0.5529 -0.9457  1.0492
  239MOL0     H32924   5.030   2.255   9.230 -0.8973  2.3727  1.3863
  239MOL0     H32925   5.003   2.464   9.031  1.8459  0.5221  0.6970
  239MOL0     H32926   4.883   2.452   9.169  0.7823  1.9661  0.0871
  239MOL0     H32927   5.093   2.623   9.169  2.5906 -0.7748  0.6238
  239MOL0     H32928   5.196   2.485   9.186  0.4485 -1.2933  0.2993
  239MOL0     H32929   4.958   2.532   9.388 -1.1248 -0.6546 -1.6921
  239MOL0     H32930   5.089   2.413   9.396  0.5905  0.1129 -0.7890
  239MOL0     H32931   5.046   2.794   9.441 -2.1175 -1.1111 -0.6616
  239MOL0     H32932   5.197   2.987   9.578  1.9194  0.5180  1.6104
  239MOL0     H32933   5.326   2.965   9.479 -1.0428  0.9705 -0.0646
  239MOL0     H32934   5.324   2.909   9.791 -1.3504 -2.1613  0.0738
  239MOL0     H32935   5.461   2.875   9.688 -0.0681  0.4238  0.5705
  239MOL0     H32936   5.460   3.094   9.797  0.8958 -3.7281 -0.4745
  239MOL0     H32937   5.493   3.107   9.621  0.1675  1.4572 -0.1662
  239MOL0     H32938   5.333   3.290   9.712 -0.6445  0.2569 -1.2256
  239MOL0     H32939   5.254   3.189   9.590  0.7975  0.4551 -0.5459
  239MOL0     H32940   5.351   3.366   9.913 -1.1884  1.4068  0.1650
  239MOL0     H32941   5.444   3.481  10.082  0.6713  0.9225  1.3909
  239MOL0     H32942   5.476   3.381  10.220 -0.7751 -1.4287  0.8212
  239MOL0     H32943   5.337   3.501  10.217 -1.1665 -0.7749  0.4930
  239MOL0     H32944   5.038   3.345  10.569  1.6956 -4.7381  0.0706
  239MOL0     H32945   5.045   3.360  10.788  0.4954  0.0030  1.4218
  239MOL0     H32946   5.450   3.459  10.973  0.3479 -0.8686  2.3892
  239MOL0     H32947   5.343   3.606  10.956  2.5329 -0.5348 -0.2325
  239MOL0     H32948   5.237   3.493  11.160 -0.2969  1.2190 -0.1127
  239MOL0     H32949   5.402   3.419  11.181 -1.0453  0.9244  3.2798
  239MOL0     H32950   5.466   3.692  11.150 -1.1161  1.3921 -0.3828
  239MOL0     H32951   5.400   3.611  11.302 -1.8737  1.3910  0.0245
  239MOL0     H32952   5.203   3.710  11.264 -0.2998  2.0582 -0.0668
  239MOL0     H32953   5.238   3.732  11.087  1.8683  1.4707 -1.3204
  239MOL0     H32954   5.376   3.917  11.133 -1.2527 -0.7272 -2.0336
  239MOL0     H32955   5.241   3.945  11.240 -0.6567 -0.2056 -1.2098
  239MOL0     H32956   5.508   3.815  11.317 -0.5633  1.0758 -1.8953
  239MOL0     H32957   5.370   3.810  11.430  0.6827 -0.0283  1.4079
  239MOL0     H32958   5.362   4.068  11.422  0.2850  1.2527  0.7669
  239MOL0     H32959   5.518   4.062  11.331  3.8576 -2.0967  1.8087
  239MOL0     H32960   5.546   4.119  11.574  2.6160 -1.0426  1.2988
  239MOL0     H32961   5.631   3.984  11.501 -0.7036 -0.0812 -0.4758
  239MOL0     H32962   5.473   3.460  10.756 -0.1651 -0.9505  0.9709
  239MOL0     H32963   5.446   3.440  10.521 -0.9953  0.9221 -1.2134
  239MOL0     H32964   5.075   3.080  10.202 -3.8448  2.9662 -0.7169
  239MOL0     H32965   5.052   3.056   9.980 -0.5277 -0.5181 -0.2373
  239MOL0     H32966   4.528   1.561   8.979 -0.1216 -2.9139  3.0525
  239MOL0     H32967   4.413   1.459   9.158  0.7172 -0.9899  3.0827
  239MOL0     H32968   4.297   1.657   9.762 -1.8277  0.2771  0.5262
  239MOL0     H32969   4.228   1.540   9.968  0.2278  0.4157  0.2308
  239MOL0     H32970   4.171   1.427  10.133 -0.4599  1.6695 -3.3564
  239MOL0     H32971   4.042   1.361  10.029 -1.8549  0.1403  2.8469
  239MOL0     H32972   4.109   1.139  10.173 -0.9197  0.1648 -0.2644
  239MOL0     H32973   3.978   1.264  10.220 -1.2011  0.0889 -3.3457
  239MOL0     H32974   4.157   1.176  10.391  0.8752  1.0451  1.0917
  239MOL0     H32975   4.273   1.261  10.304  0.9331  2.0158  0.4353
  239MOL0     H32976   4.107   1.480  10.342  0.0939  1.2300  0.0150
  239MOL0     H32977   4.199   1.429  10.478  2.3566 -0.1200 -1.9605
  239MOL0     H32978   3.830   1.290  10.612 -0.0741 -0.2431 -0.2000
  239MOL0     H32979   4.292   1.168   9.776  0.1804 -0.4847  4.4811
  239MOL0     H32980   4.408   1.292   9.440 -1.2823 -0.4425 -1.9856
  239MOL0     H32981   4.365   1.157   9.547 -4.4016 -0.6309  2.4671
  239MOL0     H32982   4.243   1.250   9.460 -1.0341  3.3435  2.7886
  240MOL0     O32983   0.739   5.807   3.997 -0.1189  0.0413  0.4342
  240MOL0     C32984   0.834   5.866   4.052  0.5686  0.5157  0.0949
  240MOL0     O32985   0.865   5.992   4.035 -0.1932 -0.1412 -0.5608
  240MOL0     C32986   0.776   6.069   3.961  0.1446 -0.0104 -0.4295
  240MOL0     C32987   0.712   6.184   4.017 -0.9577  0.5859  0.0179
  240MOL0     C32988   0.658   6.283   3.934  0.1924  0.5581  0.5050
  240MOL0     C32989   0.650   6.251   3.801  0.4274 -0.0422  0.9184
  240MOL0     O32990   0.587   6.325   3.702 -0.3324  0.2050  0.1876
  240MOL0     C32991   0.538   6.459   3.735  0.0796  0.6675  0.0041
  240MOL0     C32992   0.460   6.517   3.616 -0.2432  0.4670  0.2054
  240MOL0     C32993   0.340   6.420   3.574 -0.1673  0.6824  0.3449
  240MOL0     C32994   0.231   6.491   3.501 -0.0500 -0.5509  0.2122
  240MOL0     C32995   0.114   6.394   3.476 -0.5938 -0.0419 -0.2986
  240MOL0     C32996   0.001   6.442   3.377 -0.2745  0.0536 -0.6927
  240MOL0     C32997  -0.117   6.347   3.391  0.1856  0.9682  0.2768
  240MOL0     C32998  -0.234   6.358   3.285 -0.2012 -1.7461  0.2857
  240MOL0     N32999  -0.291   6.497   3.279 -0.0981  0.9602  0.2321
  240MOL0     C33000  -0.423   6.525   3.301  0.1225 -0.0651 -0.0489
  240MOL0     C33001  -0.442   6.647   3.251 -0.5794 -0.3067  0.1961
  240MOL0     C33002  -0.578   6.721   3.231 -0.4179  0.1368  0.3067
  240MOL0     C33003  -0.652   6.742   3.358  0.3873 -0.5403 -0.7166
  240MOL0     C33004  -0.800   6.805   3.326  0.5405 -0.1716 -0.7176
  240MOL0     C33005  -0.889   6.819   3.451 -0.3439 -0.2194  0.2866
  240MOL0     O33006  -0.898   6.690   3.509 -0.5643  0.1043 -0.3960
  240MOL0     C33007  -1.009   6.653   3.581  0.2564 -0.0281  0.4864
  240MOL0     C33008  -1.096   6.740   3.634  0.7411  0.3846 -0.6664
  240MOL0     C33009  -1.211   6.707   3.708  0.4174  1.1615 -0.0287
  240MOL0     C33010  -1.283   6.812   3.781 -0.3864  0.1530 -1.3687
  240MOL0     C33011  -1.233   6.567   3.728 -0.7602 -0.3129 -0.4952
  240MOL0     C33012  -1.351   6.514   3.805 -0.4019  0.4385 -0.2318
  240MOL0     O33013  -1.328   6.449   3.926 -0.2145 -0.2834 -0.9434
  240MOL0     C33014  -1.418   6.364   3.989  0.1622 -0.3201 -0.3630
  240MOL0     C33015  -1.524   6.295   3.937  0.0430  0.3999 -1.1898
  240MOL0     C33016  -1.603   6.209   4.016  0.2841 -1.0645 -0.1353
  240MOL0     C33017  -1.568   6.191   4.153  0.9287 -0.2358 -0.5139
  240MOL0     O33018  -1.661   6.119   4.231  0.4982 -0.0246  0.0854
  240MOL0     C33019  -1.796   6.123   4.192  0.1764 -0.5046 -0.3315
  240MOL0     C33020  -1.891   6.060   4.291  0.7481  0.5699 -0.6216
  240MOL0     C33021  -1.874   6.124   4.438  1.3303 -0.2695  0.4705
  240MOL0     C33022  -1.759   6.052   4.522  0.1954 -0.5433 -0.3396
  240MOL0     C33023  -1.724   6.094   4.668  0.3149 -0.2863  0.1590
  240MOL0     C33024  -1.694   6.241   4.679 -0.1378  0.5436 -1.0915
  240MOL0     C33025  -1.703   6.297   4.829 -0.2201  0.2819  0.3514
  240MOL0     C33026  -1.564   6.273   4.892  0.3147  0.4232 -0.4581
  240MOL0    Cl33027  -1.533   6.329   5.058 -0.6388  0.5014  0.5252
  240MOL0     C33028  -1.457   6.253   4.210  0.0796 -0.3915 -0.1413
  240MOL0     C33029  -1.384   6.340   4.130  0.4836 -0.1689  1.0313
  240MOL0     O33030  -1.459   6.529   3.755  0.0019  1.1764  0.0285
  240MOL0     C33031  -1.140   6.475   3.673  0.3295 -0.1396 -0.6437
  240MOL0     C33032  -1.029   6.514   3.596 -0.4296  0.2830 -0.3714
  240MOL0     N33033  -0.327   6.689   3.188  0.8004 -0.0379  0.2067
  240MOL0     N33034  -0.233   6.601   3.210  0.2167  0.8612 -0.6176
  240MOL0     C33035   0.697   6.127   3.742 -0.5831  0.4099 -0.4144
  240MOL0     C33036   0.763   6.041   3.831  1.3073  0.5025 -0.2139
  240MOL0     C33037   0.901   5.799   4.160 -0.2897 -0.0615 -0.1640
  240MOL0     C33038   1.029   5.846   4.208 -0.0767 -0.1125  1.3176
  240MOL0     C33039   1.107   5.774   4.304  0.6004 -1.1722  0.4897
  240MOL0     C33040   1.051   5.671   4.375  0.5293  0.2124  0.6376
  240MOL0     O33041   1.116   5.644   4.487  0.2673  0.2738 -0.1918
  240MOL0     C33042   1.163   5.498   4.490  0.0609  0.0260  0.2075
  240MOL0     C33043   1.206   5.465   4.627  0.3857  0.0206 -0.9328
  240MOL0     C33044   1.319   5.553   4.682  0.2973 -0.3879 -0.1104
  240MOL0     C33045   1.430   5.582   4.579 -0.5106 -0.5941 -0.7509
  240MOL0     C33046   1.543   5.663   4.637 -0.1530  0.9652 -0.7653
  240MOL0     C33047   1.647   5.711   4.681 -0.6020  0.6128  0.2136
  240MOL0     C33048   0.919   5.642   4.345  0.2293  0.2203 -0.0184
  240MOL0     C33049   0.842   5.699   4.237  0.0206  0.7515  0.0332
  240MOL0     C33050   0.710   5.631   4.224 -0.1276  0.3776  0.1649
  240MOL0     H33051   0.706   6.204   4.124 -0.4211  1.5055 -0.1142
  240MOL0     H33052   0.614   6.372   3.977 -0.9116  0.2126  0.1320
  240MOL0     H33053   0.617   6.533   3.744 -1.4128  2.4424 -0.6760
  240MOL0     H33054   0.468   6.466   3.818 -1.5357 -0.6424 -1.1600
  240MOL0     H33055   0.423   6.618   3.634 -1.7777 -0.0322  0.0336
  240MOL0     H33056   0.514   6.513   3.521 -1.2581 -2.3249 -0.3464
  240MOL0     H33057   0.376   6.335   3.515  0.6076 -1.5520  3.7317
  240MOL0     H33058   0.312   6.368   3.667  2.9682 -3.4292 -0.6972
  240MOL0     H33059   0.202   6.581   3.555 -2.1624  0.8140 -2.9071
  240MOL0     H33060   0.252   6.524   3.398 -3.1006  1.4501  0.0996
  240MOL0     H33061   0.068   6.371   3.572  2.8968 -1.8442  1.1487
  240MOL0     H33062   0.143   6.295   3.439  0.1001  1.0518 -2.9412
  240MOL0     H33063  -0.042   6.540   3.400 -0.3529  0.0173 -0.6819
  240MOL0     H33064   0.050   6.443   3.279 -2.8327  0.3369 -2.0784
  240MOL0     H33065  -0.159   6.364   3.491  0.6806  2.4218  0.2628
  240MOL0     H33066  -0.076   6.248   3.370  1.5311  1.2851  1.2561
  240MOL0     H33067  -0.187   6.323   3.192 -1.1356 -1.7535 -0.1923
  240MOL0     H33068  -0.322   6.302   3.317 -1.8779  0.7282  0.2257
  240MOL0     H33069  -0.493   6.459   3.352  1.6027  0.6259  3.1292
  240MOL0     H33070  -0.641   6.652   3.174 -1.2376  1.9480 -1.0691
  240MOL0     H33071  -0.567   6.809   3.167 -1.6630  0.5428  0.6215
  240MOL0     H33072  -0.669   6.647   3.409  2.3480 -1.7323 -2.1939
  240MOL0     H33073  -0.589   6.814   3.411 -1.6085  0.4538  0.4667
  240MOL0     H33074  -0.792   6.901   3.274 -1.9800 -1.4647 -3.8142
  240MOL0     H33075  -0.850   6.724   3.273 -1.9109 -0.4099  1.7283
  240MOL0     H33076  -0.848   6.895   3.518  1.8020 -1.1101  0.0524
  240MOL0     H33077  -0.984   6.866   3.423  0.2909  0.1243 -1.3658
  240MOL0     H33078  -1.072   6.844   3.616  0.3678  1.0932  2.4935
  240MOL0     H33079  -1.245   6.914   3.770 -0.6569  0.5263  0.7646
  240MOL0     H33080  -1.267   6.802   3.888  0.5132  0.3851 -1.4739
  240MOL0     H33081  -1.384   6.803   3.741 -0.9321 -1.8088  0.2972
  240MOL0     H33082  -1.538   6.308   3.830  2.7720 -0.4673 -1.7307
  240MOL0     H33083  -1.686   6.159   3.970 -0.2312 -2.2115  1.9202
  240MOL0     H33084  -1.821   6.229   4.176  2.2249  0.3462  1.5914
  240MOL0     H33085  -1.800   6.073   4.095  1.6031  3.4534 -2.6731
  240MOL0     H33086  -1.998   6.075   4.272  0.7752  1.1739 -0.3283
  240MOL0     H33087  -1.868   5.953   4.290  0.5135  0.4686  0.9910
  240MOL0     H33088  -1.969   6.107   4.490  1.5918  0.5312  1.2138
  240MOL0     H33089  -1.856   6.230   4.422  2.3159 -0.0765  2.6106
  240MOL0     H33090  -1.663   6.052   4.469  0.0351 -0.8337 -0.6389
  240MOL0     H33091  -1.785   5.946   4.530  2.5315 -1.2583 -1.4230
  240MOL0     H33092  -1.810   6.079   4.735 -0.1990  0.7955 -0.2168
  240MOL0     H33093  -1.638   6.035   4.698  3.6431  2.3056 -3.2828
  240MOL0     H33094  -1.761   6.301   4.616 -0.6338  1.7101  0.4903
  240MOL0     H33095  -1.591   6.256   4.647  1.1782 -2.4394  1.3011
  240MOL0     H33096  -1.793   6.263   4.881 -0.1489  0.0870  0.3484
  240MOL0     H33097  -1.722   6.405   4.826  0.9825  0.4951 -0.8448
  240MOL0     H33098  -1.486   6.321   4.833  2.3988 -0.6787  1.2487
  240MOL0     H33099  -1.536   6.167   4.894  1.4786  0.7008  2.5126
  240MOL0     H33100  -1.437   6.247   4.317  1.6913  0.1044 -0.3913
  240MOL0     H33101  -1.296   6.394   4.163 -0.4615  2.1734 -0.0663
  240MOL0     H33102  -1.153   6.368   3.685 -0.8012  0.2588  3.0200
  240MOL0     H33103  -0.964   6.441   3.549 -2.5304 -0.6325 -2.0377
  240MOL0     H33104   0.685   6.080   3.645  0.5981 -0.9059  0.0469
  240MOL0     H33105   0.811   5.951   3.792 -0.2378 -0.5086  0.1110
  240MOL0     H33106   1.074   5.931   4.157 -0.4974 -0.7425 -0.1471
  240MOL0     H33107   1.201   5.817   4.336 -0.6767  1.5106  0.9223
  240MOL0     H33108   1.077   5.436   4.463 -1.6650  2.7134 -0.8786
  240MOL0     H33109   1.242   5.477   4.418 -1.3367 -2.9828 -0.6442
  240MOL0     H33110   1.243   5.363   4.614  0.5136 -0.1790  0.8535
  240MOL0     H33111   1.134   5.443   4.706  1.6643  0.4316  0.4002
  240MOL0     H33112   1.269   5.647   4.709  0.0555  0.5798 -3.4945
  240MOL0     H33113   1.369   5.523   4.775 -1.5768  0.8342  1.3796
  240MOL0     H33114   1.388   5.652   4.505  1.8545  0.3323 -1.2941
  240MOL0     H33115   1.471   5.491   4.535  1.6009  0.4837 -1.1351
  240MOL0     H33116   1.736   5.751   4.726  2.1477 -0.9549 -3.3183
  240MOL0     H33117   0.865   5.569   4.404 -1.7095  0.9203 -0.8337
  240MOL0     H33118   0.690   5.598   4.122  0.7094  1.7193 -0.4731
  240MOL0     H33119   0.691   5.544   4.288  2.3048 -1.2153 -1.1068
  240MOL0     H33120   0.642   5.715   4.240 -1.4115 -0.0327 -2.7084
  241MOL0     O33121   2.930   8.530   2.006 -0.7424 -1.3217 -0.4328
  241MOL0     C33122   2.834   8.482   2.064 -0.2241 -0.4658  0.3557
  241MOL0     O33123   2.833   8.354   2.113 -0.1510 -0.0890  0.0751
  241MOL0     C33124   2.901   8.245   2.062  0.6591 -0.3207  0.1424
  241MOL0     C33125   2.860   8.127   2.111  0.8139 -0.5759 -0.2733
  241MOL0     C33126   2.904   8.003   2.064  0.2145  0.4698  0.1006
  241MOL0     C33127   2.992   7.994   1.957  1.1457 -0.2688 -0.5254
  241MOL0     O33128   3.018   7.860   1.922  0.3407 -0.3021 -0.1180
  241MOL0     C33129   3.093   7.846   1.795 -0.7968 -0.1030 -0.3727
  241MOL0     C33130   3.107   7.722   1.728  0.0021  0.4421 -0.5774
  241MOL0     C33131   2.979   7.636   1.714 -0.6989  0.5699  1.0040
  241MOL0     C33132   2.987   7.518   1.788  1.2045 -0.0512 -0.3446
  241MOL0     C33133   2.849   7.457   1.807 -1.0334  0.5538 -0.8603
  241MOL0     C33134   2.776   7.536   1.913  0.3863 -0.1038  0.0048
  241MOL0     C33135   2.662   7.442   1.959 -0.0008 -0.4626  0.9060
  241MOL0     C33136   2.546   7.426   1.856  0.2298 -0.2875  0.6685
  241MOL0     N33137   2.493   7.554   1.806  0.2177 -0.7689 -0.7891
  241MOL0     C33138   2.426   7.651   1.887  0.0540 -0.2883  0.0061
  241MOL0     C33139   2.426   7.765   1.812 -0.8489 -0.9023 -0.5052
  241MOL0     C33140   2.360   7.892   1.863  0.3233  0.7633 -0.6539
  241MOL0     C33141   2.468   7.998   1.862 -0.3134  0.2220  0.3849
  241MOL0     C33142   2.411   8.138   1.890 -0.6435 -0.1701 -0.0323
  241MOL0     C33143   2.317   8.142   2.004  0.0626  0.2935 -0.2343
  241MOL0     O33144   2.276   8.277   2.005  0.3370 -0.0097  0.1423
  241MOL0     C33145   2.167   8.316   2.086 -1.5927 -0.1573  1.2604
  241MOL0     C33146   2.150   8.454   2.109  0.4433 -0.0460 -1.4851
  241MOL0     C33147   2.065   8.508   2.209  0.1719  0.3878 -0.7903
  241MOL0     C33148   2.034   8.660   2.219  0.2295 -1.0577  0.0569
  241MOL0     C33149   2.004   8.408   2.292  0.7080  0.0845  0.3365
  241MOL0     C33150   1.916   8.447   2.408 -0.3819 -1.1873 -0.7894
  241MOL0     O33151   1.779   8.444   2.397 -0.4210 -0.3979 -0.7144
  241MOL0     C33152   1.708   8.499   2.509 -0.8155  0.4990  0.1941
  241MOL0     C33153   1.681   8.636   2.528 -0.1593  0.6160 -0.0663
  241MOL0     C33154   1.594   8.679   2.632  1.3342  0.5457 -0.4486
  241MOL0     C33155   1.537   8.581   2.713 -0.1859  0.0092  0.2097
  241MOL0     O33156   1.448   8.607   2.817  0.1423  0.5049 -1.1044
  241MOL0     C33157   1.428   8.736   2.865 -1.3829 -0.1005 -0.1482
  241MOL0     C33158   1.339   8.750   2.980  1.4893 -0.0898 -0.6324
  241MOL0     C33159   1.359   8.656   3.097 -1.5734 -0.1752 -0.2122
  241MOL0     C33160   1.504   8.645   3.159  0.9499 -0.0566 -0.0145
  241MOL0     C33161   1.526   8.548   3.273 -0.0848 -0.5404 -0.1805
  241MOL0     C33162   1.659   8.578   3.350 -1.0611 -0.2229  0.3492
  241MOL0     C33163   1.686   8.471   3.458 -0.3065 -1.0483 -0.0758
  241MOL0     C33164   1.614   8.491   3.590  0.0848  0.4574  0.6246
  241MOL0    Cl33165   1.652   8.357   3.708 -0.1389  0.0612  0.2290
  241MOL0     C33166   1.565   8.447   2.692  0.6374 -0.1361  0.0505
  241MOL0     C33167   1.657   8.409   2.594  0.2824 -0.1724  0.2035
  241MOL0     O33168   1.978   8.474   2.512  0.3644 -0.7071  0.1249
  241MOL0     C33169   2.031   8.272   2.271 -0.3137  1.0464  0.7639
  241MOL0     C33170   2.101   8.227   2.164  0.0128  0.0653 -0.7943
  241MOL0     N33171   2.489   7.733   1.688  0.6626  1.2078 -0.5051
  241MOL0     N33172   2.529   7.609   1.688  0.3869 -0.5003 -0.0087
  241MOL0     C33173   3.043   8.113   1.903  0.1010  0.2089  0.8447
  241MOL0     C33174   2.995   8.242   1.956 -0.3416  0.0451  0.4498
  241MOL0     C33175   2.713   8.556   2.076  0.7019 -0.6183 -0.3304
  241MOL0     C33176   2.707   8.691   2.038  0.4341  0.4019  0.2991
  241MOL0     C33177   2.597   8.774   2.056 -0.0855  0.1803  0.3129
  241MOL0     C33178   2.493   8.729   2.133  0.4398 -1.2831 -0.0707
  241MOL0     O33179   2.391   8.813   2.184 -0.1994  0.3484 -0.4074
  241MOL0     C33180   2.420   8.953   2.202  0.6099 -0.0179  0.1426
  241MOL0     C33181   2.304   9.014   2.277 -0.3650 -0.7110  0.2457
  241MOL0     C33182   2.179   9.039   2.197  0.0751 -0.7691  0.6999
  241MOL0     C33183   2.073   9.101   2.281  0.2415  0.2893 -0.2147
  241MOL0     C33184   2.008   8.999   2.359 -0.0496 -0.5650  0.6534
  241MOL0     C33185   1.953   8.903   2.396 -0.5672 -0.2410  0.0597
  241MOL0     C33186   2.482   8.587   2.152 -0.1431 -0.2339  0.7938
  241MOL0     C33187   2.588   8.505   2.126  0.5429  0.1101  0.6357
  241MOL0     C33188   2.564   8.362   2.183 -0.3335  0.8365 -0.1386
  241MOL0     H33189   2.789   8.131   2.194 -3.1451 -0.0917 -3.3848
  241MOL0     H33190   2.874   7.908   2.106 -0.3685 -0.0293 -1.3806
  241MOL0     H33191   3.192   7.889   1.813 -0.9125  0.2906 -0.6680
  241MOL0     H33192   3.052   7.913   1.719 -0.1393  0.9951  0.2087
  241MOL0     H33193   3.144   7.747   1.628  1.3116 -0.3840 -0.3240
  241MOL0     H33194   3.190   7.666   1.772 -1.9921 -0.8804  1.7403
  241MOL0     H33195   2.889   7.696   1.736 -0.9484  0.5865 -0.0134
  241MOL0     H33196   2.986   7.614   1.607 -1.2407  1.0062  0.8734
  241MOL0     H33197   3.054   7.450   1.733  1.2489  0.9255 -1.5162
  241MOL0     H33198   3.033   7.530   1.887  1.9018  2.7198 -0.9369
  241MOL0     H33199   2.869   7.356   1.844 -1.3981  1.6591  2.8430
  241MOL0     H33200   2.795   7.455   1.712  1.1159  1.0224 -2.1579
  241MOL0     H33201   2.839   7.556   2.001 -1.3826  3.1313  0.7036
  241MOL0     H33202   2.742   7.637   1.891  2.5572  1.4542  3.0540
  241MOL0     H33203   2.611   7.484   2.047  0.3779 -2.5631  2.1997
  241MOL0     H33204   2.690   7.345   2.002 -5.1070 -2.5914  0.0580
  241MOL0     H33205   2.579   7.365   1.772 -1.8684 -0.3234 -0.1901
  241MOL0     H33206   2.454   7.381   1.894 -1.9168  1.7188 -1.7911
  241MOL0     H33207   2.401   7.637   1.992 -0.1404  0.2585  0.0366
  241MOL0     H33208   2.343   7.865   1.967  1.4574 -0.8564 -0.8677
  241MOL0     H33209   2.269   7.918   1.808 -0.8886 -0.1140  0.8591
  241MOL0     H33210   2.546   7.977   1.935 -1.2384 -0.8470  1.1160
  241MOL0     H33211   2.493   8.005   1.756 -1.3283  0.7930  0.1703
  241MOL0     H33212   2.490   8.211   1.911  0.0371 -1.3206  1.6492
  241MOL0     H33213   2.354   8.164   1.801 -1.5228 -2.3324 -0.1473
  241MOL0     H33214   2.231   8.077   1.985  0.2646 -0.0328 -0.0487
  241MOL0     H33215   2.368   8.133   2.101  2.6137 -1.0403 -1.6156
  241MOL0     H33216   2.195   8.523   2.038  3.1659  0.8523  0.9172
  241MOL0     H33217   1.937   8.674   2.266 -0.1119 -1.5330 -0.4908
  241MOL0     H33218   2.044   8.710   2.122  0.2512 -0.0858  0.5474
  241MOL0     H33219   2.095   8.698   2.302 -2.6144  1.4233  1.1753
  241MOL0     H33220   1.720   8.704   2.453 -0.6267  3.6070  2.2048
  241MOL0     H33221   1.552   8.779   2.636 -3.2239 -1.1156 -1.1667
  241MOL0     H33222   1.526   8.774   2.895 -1.7465 -0.7512  2.0700
  241MOL0     H33223   1.394   8.796   2.781 -0.4560 -1.1790 -1.3321
  241MOL0     H33224   1.340   8.856   3.006 -1.7827  0.2123 -1.3320
  241MOL0     H33225   1.234   8.735   2.954  0.4915  5.0591 -0.7444
  241MOL0     H33226   1.329   8.555   3.069  1.6955 -1.0302 -0.9476
  241MOL0     H33227   1.296   8.695   3.178 -1.0090  1.9145 -0.7271
  241MOL0     H33228   1.521   8.749   3.188 -1.9932  1.0239 -1.6991
  241MOL0     H33229   1.576   8.631   3.077  0.3818  3.3093 -1.2699
  241MOL0     H33230   1.442   8.548   3.344  0.3429  2.6569  0.4988
  241MOL0     H33231   1.528   8.443   3.241 -0.6673 -1.1800  1.7327
  241MOL0     H33232   1.656   8.678   3.395 -0.1334  0.6988 -1.5362
  241MOL0     H33233   1.734   8.585   3.271 -1.0429 -1.6437  0.2048
  241MOL0     H33234   1.792   8.468   3.484 -0.1247  1.3180 -0.3221
  241MOL0     H33235   1.661   8.372   3.417 -0.3102 -1.2361  0.3840
  241MOL0     H33236   1.506   8.491   3.574  0.3432 -1.0540 -1.8478
  241MOL0     H33237   1.660   8.584   3.622  0.5457  0.8972 -1.1840
  241MOL0     H33238   1.516   8.359   2.732  1.5378 -0.1782  1.1007
  241MOL0     H33239   1.669   8.303   2.574 -1.3677 -0.0757 -1.5428
  241MOL0     H33240   1.974   8.197   2.325 -1.7957  0.9929 -0.7624
  241MOL0     H33241   2.112   8.119   2.165  0.6881  0.1353 -0.1814
  241MOL0     H33242   3.120   8.110   1.827 -0.8033  3.5429 -0.3592
  241MOL0     H33243   3.034   8.331   1.908 -3.9262  0.1004 -2.8127
  241MOL0     H33244   2.795   8.735   1.994  1.3903 -1.4456  0.2565
  241MOL0     H33245   2.594   8.876   2.018  0.1737 -1.5305 -5.1383
  241MOL0     H33246   2.515   8.965   2.256  2.8891 -3.8066 -2.5668
  241MOL0     H33247   2.432   9.012   2.110 -0.9558  3.0380  1.7336
  241MOL0     H33248   2.343   9.108   2.317  1.0373 -0.9410 -0.5135
  241MOL0     H33249   2.270   8.954   2.362 -0.2350  0.4324  1.1197
  241MOL0     H33250   2.197   9.111   2.117 -0.8100 -0.8340  0.4230
  241MOL0     H33251   2.142   8.951   2.143 -0.3513 -0.4736  0.5041
  241MOL0     H33252   1.993   9.150   2.224  1.4109 -0.3326 -2.5488
  241MOL0     H33253   2.126   9.180   2.335  2.0222 -0.1198 -1.2808
  241MOL0     H33254   1.905   8.812   2.427  1.7683 -1.7424 -0.4763
  241MOL0     H33255   2.397   8.553   2.211  0.6765 -1.2449  1.4450
  241MOL0     H33256   2.458   8.348   2.207 -0.2748  0.6864  0.0421
  241MOL0     H33257   2.579   8.287   2.105 -0.0801 -1.1620  1.7137
  241MOL0     H33258   2.636   8.346   2.265  1.5129  0.2812 -1.7909
  242MOL0     O33259   7.493   7.512   6.944 -0.4259  0.1733  0.1527
  242MOL0     C33260   7.472   7.569   6.837 -0.0397  0.1290 -0.5266
  242MOL0     O33261   7.426   7.706   6.825 -0.5146  0.9504  0.1364
  242MOL0     C33262   7.422   7.785   6.936  0.3257  0.2250 -0.7842
  242MOL0     C33263   7.351   7.754   7.047  0.4019 -0.2709  0.4556
  242MOL0     C33264   7.327   7.850   7.141  0.0050  0.6780  0.1442
  242MOL0     C33265   7.385   7.978   7.136 -0.3258  0.2012 -1.2754
  242MOL0     O33266   7.347   8.061   7.235 -0.6468  0.5658  0.3863
  242MOL0     C33267   7.301   8.189   7.200  0.1359 -0.0060  1.2353
  242MOL0     C33268   7.162   8.196   7.142  0.7348 -0.0238  0.7462
  242MOL0     C33269   7.053   8.136   7.219  0.6162 -1.2266 -0.2527
  242MOL0     C33270   7.002   8.208   7.349 -0.1635 -0.2403  0.0744
  242MOL0     C33271   6.995   8.113   7.468 -0.1500  0.2727 -1.6028
  242MOL0     C33272   7.130   8.105   7.542 -0.2601  0.8938  0.2508
  242MOL0     C33273   7.139   8.217   7.644  0.9462  0.8665 -0.7069
  242MOL0     C33274   7.274   8.226   7.719 -1.1458 -0.7398 -0.3148
  242MOL0     N33275   7.308   8.304   7.840  0.0685 -0.1064  1.1478
  242MOL0     C33276   7.256   8.421   7.885  0.4222  0.5003 -0.1106
  242MOL0     C33277   7.310   8.443   8.008 -0.6469 -0.6898 -1.3977
  242MOL0     C33278   7.277   8.551   8.110  0.4091  0.0480  0.1708
  242MOL0     C33279   7.364   8.678   8.106 -0.2426  0.5663  0.4950
  242MOL0     C33280   7.518   8.652   8.134  0.2319 -0.1215  0.1129
  242MOL0     C33281   7.596   8.782   8.141 -0.4028 -0.3272  0.4335
  242MOL0     O33282   7.577   8.844   8.269 -0.4954  0.2797  0.0386
  242MOL0     C33283   7.581   8.986   8.277  0.4310 -0.0644  1.0780
  242MOL0     C33284   7.640   9.070   8.180  0.4193  0.9425 -0.3822
  242MOL0     C33285   7.631   9.204   8.196 -0.3408 -0.3369  0.5390
  242MOL0     C33286   7.696   9.286   8.088  0.0396 -0.5207 -0.4371
  242MOL0     C33287   7.565   9.271   8.306  1.2576  1.4250  1.1485
  242MOL0     C33288   7.551   9.416   8.331  0.0114 -0.3771 -0.8807
  242MOL0     O33289   7.463   9.458   8.423  0.3450 -0.7169  0.2203
  242MOL0     C33290   7.424   9.584   8.462  1.4222  0.1361  0.5730
  242MOL0     C33291   7.284   9.610   8.477 -0.1892  0.5698  0.1940
  242MOL0     C33292   7.239   9.728   8.544  1.2971  0.4069  0.6371
  242MOL0     C33293   7.337   9.835   8.577  0.2959  0.2863  0.0110
  242MOL0     O33294   7.303   9.956   8.642 -0.9667  0.3001 -0.2093
  242MOL0     C33295   7.163   9.982   8.652 -0.0241 -0.3488  0.2413
  242MOL0     C33296   7.096   9.939   8.782 -0.2990 -0.3317 -0.2727
  242MOL0     C33297   6.953   9.993   8.789  0.3313 -0.0000  0.3283
  242MOL0     C33298   6.884   9.958   8.931 -0.3253 -0.0588  0.2610
  242MOL0     C33299   6.747  10.014   8.962  0.1111  0.2296  0.5539
  242MOL0     C33300   6.757  10.171   8.987 -0.0366 -0.0387  0.4691
  242MOL0     C33301   6.618  10.242   9.016 -0.9584 -0.1012  0.7832
  242MOL0     C33302   6.528  10.234   8.900 -0.1817 -0.1117  0.4273
  242MOL0    Cl33303   6.580  10.308   8.750 -0.0479  0.1085  0.1681
  242MOL0     C33304   7.471   9.813   8.553 -0.1161 -0.1100 -0.2163
  242MOL0     C33305   7.512   9.691   8.493 -0.8545 -0.0883  0.4725
  242MOL0     O33306   7.636   9.489   8.279  0.0921  0.0238  0.1496
  242MOL0     C33307   7.491   9.188   8.393 -0.6691 -0.7976 -0.6410
  242MOL0     C33308   7.527   9.049   8.389  1.0183 -0.1668 -0.3120
  242MOL0     N33309   7.411   8.352   8.028  0.3353 -1.1123  0.6556
  242MOL0     N33310   7.415   8.271   7.925  0.3907 -0.7092 -0.1302
  242MOL0     C33311   7.456   8.007   7.023  0.1875 -0.6610  0.8692
  242MOL0     C33312   7.482   7.909   6.923  0.0957 -0.0184  1.1857
  242MOL0     C33313   7.511   7.489   6.724 -0.6590  0.1150 -0.3222
  242MOL0     C33314   7.504   7.551   6.594 -0.3377 -0.3085 -1.3099
  242MOL0     C33315   7.511   7.475   6.479  0.5061 -0.4133  0.0413
  242MOL0     C33316   7.545   7.336   6.483  0.2099  0.3954  0.9248
  242MOL0     O33317   7.565   7.283   6.351 -0.0456 -0.7889 -0.0504
  242MOL0     C33318   7.592   7.145   6.326  0.2429 -0.5930 -0.6134
  242MOL0     C33319   7.476   7.093   6.232 -0.8826  0.7694 -0.6545
  242MOL0     C33320   7.482   7.145   6.095  0.0727  0.4506 -0.2646
  242MOL0     C33321   7.425   7.287   6.063  0.2903  0.4474  0.2325
  242MOL0     C33322   7.337   7.289   5.949  0.7133  0.4072 -0.4130
  242MOL0     C33323   7.279   7.310   5.848  0.3205  0.2682 -0.3450
  242MOL0     C33324   7.574   7.273   6.604  0.0826  0.1105 -0.6072
  242MOL0     C33325   7.560   7.347   6.720 -0.1642 -0.4819  0.4411
  242MOL0     C33326   7.608   7.276   6.852 -0.5781  0.2720 -0.3307
  242MOL0     H33327   7.291   7.664   7.056  1.4000 -0.7952  2.4734
  242MOL0     H33328   7.247   7.816   7.206 -0.3819 -0.3156 -0.8051
  242MOL0     H33329   7.376   8.249   7.147 -1.8369  1.7538  0.2752
  242MOL0     H33330   7.291   8.247   7.293 -0.0633 -0.5569  1.5617
  242MOL0     H33331   7.144   8.302   7.124  0.5552 -0.2029 -0.1756
  242MOL0     H33332   7.168   8.137   7.050  2.1059 -1.5625  1.7584
  242MOL0     H33333   6.968   8.110   7.155  1.8998  0.3932 -2.7666
  242MOL0     H33334   7.097   8.042   7.253  0.8498 -0.8861  0.4133
  242MOL0     H33335   7.050   8.302   7.376 -1.1979  1.1566 -2.5921
  242MOL0     H33336   6.899   8.236   7.325 -0.9195 -1.0437  2.1175
  242MOL0     H33337   6.970   8.010   7.441  1.0650 -0.1345 -1.2517
  242MOL0     H33338   6.915   8.145   7.535  0.0943 -1.2899 -0.5109
  242MOL0     H33339   7.134   8.011   7.599  0.0387  0.9026  0.2427
  242MOL0     H33340   7.213   8.108   7.471  0.6110 -0.0624  1.1824
  242MOL0     H33341   7.061   8.187   7.714  1.5301 -0.8481 -0.7344
  242MOL0     H33342   7.100   8.312   7.607  2.1121  1.7616  0.3039
  242MOL0     H33343   7.308   8.125   7.742 -1.2082 -0.7906 -0.4409
  242MOL0     H33344   7.345   8.268   7.647 -1.2034  3.2438  1.6829
  242MOL0     H33345   7.169   8.473   7.845 -0.2428 -0.3257  0.2185
  242MOL0     H33346   7.270   8.509   8.211  0.1765 -0.7074 -0.1537
  242MOL0     H33347   7.179   8.582   8.072  0.8687 -2.2074 -3.3265
  242MOL0     H33348   7.366   8.720   8.005  1.5606 -2.7797 -1.0388
  242MOL0     H33349   7.326   8.744   8.184 -0.2426  3.3167 -1.6877
  242MOL0     H33350   7.525   8.602   8.232  2.1539 -0.7713 -0.3162
  242MOL0     H33351   7.548   8.586   8.052 -1.3535 -0.1415 -0.4751
  242MOL0     H33352   7.694   8.735   8.153 -0.1420  0.3105  0.8205
  242MOL0     H33353   7.594   8.850   8.055 -3.1391 -0.7844  0.0464
  242MOL0     H33354   7.697   9.023   8.100 -1.3855 -1.2887 -0.4469
  242MOL0     H33355   7.779   9.340   8.136  1.5184 -0.0826 -3.2987
  242MOL0     H33356   7.619   9.356   8.058 -0.4033 -1.1594 -0.8164
  242MOL0     H33357   7.740   9.232   8.004  1.8840  3.3387 -2.2076
  242MOL0     H33358   7.208   9.536   8.453  0.9610  0.1902 -2.6840
  242MOL0     H33359   7.133   9.742   8.563  1.6973  1.6479  2.1839
  242MOL0     H33360   7.159  10.091   8.643 -0.2542 -0.4847 -1.8102
  242MOL0     H33361   7.116   9.942   8.562  4.3952 -0.5125 -2.3024
  242MOL0     H33362   7.083   9.831   8.771 -0.6516 -0.6614  2.7566
  242MOL0     H33363   7.146   9.981   8.870 -1.6920  3.3231 -1.0585
  242MOL0     H33364   6.900   9.947   8.705  2.1926 -0.8111 -0.4591
  242MOL0     H33365   6.957  10.101   8.771 -0.3774 -0.1607 -0.9675
  242MOL0     H33366   6.949   9.996   9.010  1.0024  2.3769 -1.8287
  242MOL0     H33367   6.879   9.849   8.939  1.4428 -0.3030 -1.2336
  242MOL0     H33368   6.682   9.988   8.877 -1.9305 -0.9051  2.3775
  242MOL0     H33369   6.698   9.955   9.040 -3.1336  1.1874 -0.5907
  242MOL0     H33370   6.816  10.235   8.921 -0.8732  0.6430  0.3512
  242MOL0     H33371   6.810  10.167   9.082 -0.3285 -1.0826  0.5987
  242MOL0     H33372   6.637  10.343   9.053 -1.3196 -0.6167  2.5047
  242MOL0     H33373   6.578  10.178   9.096  0.1255 -1.0073  0.6275
  242MOL0     H33374   6.425  10.262   8.922  0.4801  0.8615  2.6408
  242MOL0     H33375   6.524  10.128   8.873  1.1903  0.6031 -3.1074
  242MOL0     H33376   7.543   9.889   8.579  0.7382 -1.4636  1.5550
  242MOL0     H33377   7.616   9.686   8.461  0.5503  0.3135  4.3456
  242MOL0     H33378   7.440   9.215   8.485  0.9145 -0.2685  0.1176
  242MOL0     H33379   7.497   8.989   8.474 -1.3266 -0.0549 -0.9821
  242MOL0     H33380   7.496   8.106   7.009  2.2908 -1.8459 -2.9029
  242MOL0     H33381   7.541   7.935   6.836 -1.0687  1.1530  0.7160
  242MOL0     H33382   7.474   7.655   6.586 -1.2012 -0.1210  2.4177
  242MOL0     H33383   7.525   7.534   6.389  1.1326 -0.1207  0.3260
  242MOL0     H33384   7.687   7.126   6.276  0.7449 -0.0848  0.1289
  242MOL0     H33385   7.576   7.090   6.420 -2.6697 -1.6122 -1.5802
  242MOL0     H33386   7.390   7.132   6.287  0.3269  0.1007  1.8931
  242MOL0     H33387   7.472   6.983   6.231  1.3467  0.6072  0.7559
  242MOL0     H33388   7.584   7.137   6.057  0.1376 -2.0669  0.2973
  242MOL0     H33389   7.417   7.080   6.036  1.5728  0.3499 -1.8603
  242MOL0     H33390   7.507   7.359   6.052 -1.0257  2.0037  0.1814
  242MOL0     H33391   7.369   7.327   6.148 -2.9811  0.5625 -1.8095
  242MOL0     H33392   7.238   7.343   5.754  0.5186  2.1595  0.2067
  242MOL0     H33393   7.623   7.176   6.609 -0.9600 -0.5023 -1.6181
  242MOL0     H33394   7.686   7.332   6.904 -0.7905  0.3330 -0.0781
  242MOL0     H33395   7.522   7.262   6.917  0.9680 -0.3310  1.6849
  242MOL0     H33396   7.649   7.175   6.839  0.5386  0.4326  1.5902
  243MOL0     O33397   4.617   8.354   7.921 -0.7360 -0.1467  0.0611
  243MOL0     C33398   4.590   8.403   7.817  0.6551 -0.0136 -0.4682
  243MOL0     O33399   4.667   8.409   7.721 -0.5136 -0.6947  0.2556
  243MOL0     C33400   4.799   8.365   7.706  0.1760 -0.2033 -0.3645
  243MOL0     C33401   4.841   8.247   7.762  1.0508 -0.1582  0.4972
  243MOL0     C33402   4.968   8.187   7.746  0.7427  0.1601 -0.4992
  243MOL0     C33403   5.060   8.269   7.671 -0.7028  1.2685 -0.0330
  243MOL0     O33404   5.183   8.222   7.630  0.3550 -0.6537 -0.5186
  243MOL0     C33405   5.220   8.085   7.648 -0.1403  0.7135 -0.1458
  243MOL0     C33406   5.348   8.048   7.564  0.7618  0.0008 -1.2482
  243MOL0     C33407   5.463   8.141   7.612  0.4282  0.0609  0.2613
  243MOL0     C33408   5.598   8.096   7.570 -0.3712  0.9172  0.1279
  243MOL0     C33409   5.644   7.952   7.630 -0.5103 -1.2094 -0.0907
  243MOL0     C33410   5.666   7.954   7.782 -1.0267 -0.6156  0.4429
  243MOL0     C33411   5.611   7.826   7.859 -0.0947  0.0690 -0.0490
  243MOL0     C33412   5.447   7.832   7.860 -0.7389  1.3010 -0.5382
  243MOL0     N33413   5.391   7.716   7.931 -0.0428  0.9593 -0.8268
  243MOL0     C33414   5.390   7.584   7.903 -0.9721  0.0338  0.4013
  243MOL0     C33415   5.364   7.524   8.011  0.5807  0.1189 -0.8540
  243MOL0     C33416   5.353   7.370   8.019  0.4958  0.2124  0.9163
  243MOL0     C33417   5.490   7.305   8.047 -0.2919 -0.8126 -0.4710
  243MOL0     C33418   5.502   7.154   8.032  0.3732 -0.2632  0.2032
  243MOL0     C33419   5.646   7.114   8.060  0.0960  0.3013  0.8206
  243MOL0     O33420   5.662   6.969   8.061 -0.1617  0.3436 -0.7423
  243MOL0     C33421   5.650   6.923   7.942 -0.7061 -0.3913  0.2930
  243MOL0     C33422   5.733   6.968   7.834 -0.7617  0.5589 -0.3282
  243MOL0     C33423   5.745   6.889   7.727 -0.4080  0.1182  0.0055
  243MOL0     C33424   5.867   6.907   7.635  0.6127 -0.8919 -0.0194
  243MOL0     C33425   5.655   6.776   7.712 -0.0255  0.6728  0.1511
  243MOL0     C33426   5.662   6.680   7.600  0.6752 -0.3055  0.6531
  243MOL0     O33427   5.669   6.544   7.630 -0.1616  0.1811 -0.9290
  243MOL0     C33428   5.693   6.468   7.521  0.0581  0.7436  0.5819
  243MOL0     C33429   5.809   6.469   7.446  0.0286 -1.7050 -0.7257
  243MOL0     C33430   5.812   6.398   7.338  0.1906 -0.1492  0.4362
  243MOL0     C33431   5.707   6.319   7.290  0.6111 -0.1382 -0.3525
  243MOL0     O33432   5.710   6.240   7.174  0.1302  0.4543  0.9105
  243MOL0     C33433   5.800   6.291   7.079  0.0300 -0.9520 -0.1848
  243MOL0     C33434   5.756   6.247   6.946 -0.7577  0.6447  0.3691
  243MOL0     C33435   5.730   6.090   6.949 -0.2200  1.4478  0.3854
  243MOL0     C33436   5.702   6.024   6.814 -0.0009  0.1686  0.7028
  243MOL0     C33437   5.820   5.956   6.763  0.3267 -0.1691  0.8951
  243MOL0     C33438   5.844   5.828   6.845 -0.7982  0.3798 -0.9425
  243MOL0     C33439   5.982   5.764   6.796  0.8334 -0.3268  0.1936
  243MOL0     C33440   6.020   5.639   6.877  0.1859  0.0204 -1.9013
  243MOL0    Cl33441   5.940   5.495   6.802 -0.0244 -0.0526  0.3820
  243MOL0     C33442   5.590   6.312   7.367 -0.6090 -1.2423  0.2589
  243MOL0     C33443   5.582   6.391   7.481  0.2443  0.0515  0.4773
  243MOL0     O33444   5.646   6.722   7.481 -0.1976  0.4237 -0.6242
  243MOL0     C33445   5.564   6.756   7.812 -0.3832  0.2987 -1.6862
  243MOL0     C33446   5.555   6.824   7.927  0.9497  0.0490  0.8687
  243MOL0     N33447   5.333   7.614   8.114  0.2356  0.4987  0.7273
  243MOL0     N33448   5.348   7.724   8.068  0.3068 -0.4541  0.2413
  243MOL0     C33449   5.020   8.394   7.620  0.0546  0.1165  0.2027
  243MOL0     C33450   4.895   8.442   7.647 -1.7392  0.0602  0.5133
  243MOL0     C33451   4.447   8.438   7.794 -0.3768  1.1221 -0.3395
  243MOL0     C33452   4.406   8.414   7.665 -0.6983  0.6339  0.1624
  243MOL0     C33453   4.267   8.427   7.635 -0.1318  0.1424 -0.6064
  243MOL0     C33454   4.174   8.461   7.736 -0.0070 -0.0933 -0.1699
  243MOL0     O33455   4.042   8.470   7.697 -0.4316 -0.6200 -0.4135
  243MOL0     C33456   3.933   8.468   7.788  0.4411  0.4352 -0.2701
  243MOL0     C33457   3.812   8.431   7.701 -0.2772 -0.0821 -0.6851
  243MOL0     C33458   3.773   8.542   7.602 -0.1554  0.9409  0.4955
  243MOL0     C33459   3.659   8.511   7.504 -0.2504  0.8315 -1.3070
  243MOL0     C33460   3.543   8.433   7.562  0.4873  0.1166  0.3959
  243MOL0     C33461   3.446   8.373   7.596 -0.8501  0.5043  0.0350
  243MOL0     C33462   4.224   8.476   7.862  0.5564  0.5529  0.2644
  243MOL0     C33463   4.366   8.476   7.900 -0.8176 -0.9578  0.5261
  243MOL0     C33464   4.414   8.528   8.035  0.5798 -0.5953 -0.2162
  243MOL0     H33465   4.783   8.195   7.837  0.4574 -4.1005 -2.3608
  243MOL0     H33466   4.995   8.087   7.777 -1.8155 -0.6975 -0.7890
  243MOL0     H33467   5.144   8.023   7.598  0.5302  2.6956 -4.0278
  243MOL0     H33468   5.246   8.057   7.750 -3.4315  2.1956  1.2477
  243MOL0     H33469   5.374   7.942   7.567 -3.1800 -1.1065  1.4042
  243MOL0     H33470   5.319   8.087   7.466 -3.4313  3.6383  1.0714
  243MOL0     H33471   5.452   8.245   7.580  3.1193 -0.7115 -4.0852
  243MOL0     H33472   5.454   8.142   7.721 -1.1597 -0.7537  0.1731
  243MOL0     H33473   5.589   8.091   7.461 -3.3971 -1.6788  0.3523
  243MOL0     H33474   5.675   8.170   7.589 -2.0679  2.5048  1.1626
  243MOL0     H33475   5.731   7.910   7.578 -1.3986 -2.0805 -0.9208
  243MOL0     H33476   5.567   7.883   7.593 -1.2945  0.8429 -2.6206
  243MOL0     H33477   5.775   7.955   7.795 -1.2934 -2.3000  4.3487
  243MOL0     H33478   5.633   8.049   7.825 -1.2527  0.1694 -1.3821
  243MOL0     H33479   5.642   7.826   7.964 -2.8253 -0.7361  0.8320
  243MOL0     H33480   5.637   7.736   7.803  0.1340  0.1236 -0.0279
  243MOL0     H33481   5.415   7.916   7.923 -1.2717  1.4672 -1.0299
  243MOL0     H33482   5.403   7.832   7.760 -1.2179 -1.0421 -0.3914
  243MOL0     H33483   5.426   7.544   7.809  3.5746  2.6215  0.7609
  243MOL0     H33484   5.337   7.340   7.915  0.4383  0.9466  0.7070
  243MOL0     H33485   5.263   7.343   8.076  0.1838  2.8050  1.7824
  243MOL0     H33486   5.578   7.348   7.997  1.3931 -3.1614  0.3069
  243MOL0     H33487   5.509   7.314   8.155  0.7639  2.3463 -0.8108
  243MOL0     H33488   5.446   7.111   8.116  4.0320 -1.3573  2.3223
  243MOL0     H33489   5.457   7.129   7.936 -0.4659 -1.3832  0.8531
  243MOL0     H33490   5.722   7.160   7.996  0.5313  0.7094  1.6147
  243MOL0     H33491   5.677   7.137   8.162 -0.1029 -3.8876  2.0036
  243MOL0     H33492   5.817   7.030   7.863 -0.0977 -0.3534 -0.2764
  243MOL0     H33493   5.943   6.839   7.675 -0.1594 -3.3634 -2.3861
  243MOL0     H33494   5.894   7.012   7.624 -0.3529 -0.5197  1.0146
  243MOL0     H33495   5.854   6.878   7.530  1.3921 -0.0447 -0.3637
  243MOL0     H33496   5.888   6.538   7.474  0.9539 -3.3480  0.9615
  243MOL0     H33497   5.899   6.403   7.273  0.0084  0.8733  0.2545
  243MOL0     H33498   5.805   6.400   7.081  0.8734 -0.9843 -0.1237
  243MOL0     H33499   5.897   6.246   7.103 -0.7317 -2.3938  0.2994
  243MOL0     H33500   5.663   6.299   6.919 -1.1432  0.1560  0.7459
  243MOL0     H33501   5.823   6.279   6.865 -1.2128  1.0534  0.1485
  243MOL0     H33502   5.645   6.072   7.015 -0.8651 -3.1057 -1.2908
  243MOL0     H33503   5.823   6.051   6.992 -0.7978 -0.1989  0.2261
  243MOL0     H33504   5.674   6.104   6.744  2.6407  1.9095  1.4842
  243MOL0     H33505   5.615   5.961   6.832 -0.4798  0.6343  0.0900
  243MOL0     H33506   5.810   5.936   6.656  2.8249 -2.0760  0.9189
  243MOL0     H33507   5.900   6.031   6.766 -1.2804  1.5802  2.5902
  243MOL0     H33508   5.765   5.757   6.818 -2.5808  1.9881 -0.1958
  243MOL0     H33509   5.845   5.859   6.950 -1.5747 -0.2115 -0.7552
  243MOL0     H33510   6.062   5.838   6.811  1.1386 -0.8541  1.3298
  243MOL0     H33511   5.980   5.759   6.687 -0.5761  3.6275 -0.1277
  243MOL0     H33512   5.982   5.663   6.977 -2.3958  0.1425 -2.8233
  243MOL0     H33513   6.128   5.627   6.889  0.1421  2.4030  3.5172
  243MOL0     H33514   5.517   6.244   7.326  0.4600 -1.7103 -0.9491
  243MOL0     H33515   5.492   6.395   7.541 -1.5218  0.1142 -2.0021
  243MOL0     H33516   5.511   6.662   7.810  0.1207 -0.0750  0.4608
  243MOL0     H33517   5.487   6.807   8.010  3.0313  2.0518  3.1551
  243MOL0     H33518   5.094   8.457   7.572 -2.3711  1.3555 -2.2277
  243MOL0     H33519   4.877   8.545   7.621  0.7238  1.2924  3.1015
  243MOL0     H33520   4.470   8.386   7.582 -1.6813 -1.0583 -0.0955
  243MOL0     H33521   4.234   8.405   7.534 -1.5907 -1.1743  0.1111
  243MOL0     H33522   3.943   8.383   7.857 -1.8106 -1.1910 -1.7503
  243MOL0     H33523   3.928   8.563   7.841  3.6039  0.6244 -0.1438
  243MOL0     H33524   3.724   8.407   7.761 -1.5458  1.0321 -2.0127
  243MOL0     H33525   3.832   8.340   7.644 -0.1151 -1.6176  1.7103
  243MOL0     H33526   3.751   8.635   7.654 -0.2277  1.3557 -0.2685
  243MOL0     H33527   3.860   8.554   7.537  0.8614 -2.7971  0.8784
  243MOL0     H33528   3.704   8.468   7.414  3.2896  1.0249  0.2060
  243MOL0     H33529   3.614   8.607   7.476 -2.1028 -0.5232 -3.4095
  243MOL0     H33530   3.363   8.321   7.638 -2.4359  1.9454 -1.1537
  243MOL0     H33531   4.165   8.511   7.947  0.3210  1.4849 -0.2718
  243MOL0     H33532   4.333   8.597   8.059  1.1607 -0.6342  2.1632
  243MOL0     H33533   4.418   8.452   8.114  1.6758  0.6493  0.9629
  243MOL0     H33534   4.507   8.585   8.036  1.7579 -2.4176  1.3451
  244MOL0     O33535   5.278   3.692   7.819 -0.2849 -0.2156 -0.2645
  244MOL0     C33536   5.262   3.585   7.867  0.6284 -0.1582 -0.1524
  244MOL0     O33537   5.350   3.485   7.850  0.1812 -0.2428  0.0663
  244MOL0     C33538   5.479   3.511   7.799  0.2621  0.0782  0.2375
  244MOL0     C33539   5.491   3.515   7.661  0.7051  0.3996  0.1013
  244MOL0     C33540   5.616   3.524   7.600 -0.5938 -0.4993 -0.8139
  244MOL0     C33541   5.728   3.522   7.684 -0.4484  0.2473  0.8289
  244MOL0     O33542   5.859   3.506   7.633 -0.5062 -0.0911 -0.4569
  244MOL0     C33543   5.893   3.485   7.494 -0.3829 -0.1613  0.7180
  244MOL0     C33544   5.940   3.337   7.475 -0.0245  1.0272 -0.2099
  244MOL0     C33545   5.830   3.235   7.514  0.0918  0.0172  0.3528
  244MOL0     C33546   5.708   3.228   7.416 -0.2062 -0.7601 -0.5339
  244MOL0     C33547   5.580   3.165   7.476 -1.2507 -0.2662 -0.3836
  244MOL0     C33548   5.589   3.022   7.518 -0.0368 -0.8688 -0.2734
  244MOL0     C33549   5.592   2.914   7.409 -0.0495  0.3266 -0.7357
  244MOL0     C33550   5.465   2.898   7.330  0.1752  0.4854  0.4716
  244MOL0     N33551   5.365   2.813   7.403 -0.6879 -0.8769  0.4045
  244MOL0     C33552   5.297   2.859   7.509  0.3904  0.4164 -1.3403
  244MOL0     C33553   5.233   2.757   7.556 -0.6200  0.3318 -0.2560
  244MOL0     C33554   5.125   2.767   7.665  0.7920 -0.0868 -0.2244
  244MOL0     C33555   5.188   2.787   7.802  0.5290  0.7220 -0.7359
  244MOL0     C33556   5.250   2.653   7.851  0.0333  0.6848 -0.1210
  244MOL0     C33557   5.313   2.676   7.996 -0.0415 -0.5059 -0.1995
  244MOL0     O33558   5.377   2.554   8.031  0.6962 -0.0752  0.6653
  244MOL0     C33559   5.454   2.540   8.148 -1.2897 -0.3423 -0.6227
  244MOL0     C33560   5.465   2.646   8.232 -0.4495  0.7313 -0.1490
  244MOL0     C33561   5.557   2.662   8.339  0.3215 -0.6306 -0.4118
  244MOL0     C33562   5.530   2.779   8.423 -0.7047  0.5340  0.0828
  244MOL0     C33563   5.651   2.558   8.361  0.9455 -0.3239 -0.4946
  244MOL0     C33564   5.740   2.542   8.482  0.3309  0.0784  0.7907
  244MOL0     O33565   5.700   2.573   8.607 -0.2409  0.5934 -0.0543
  244MOL0     C33566   5.790   2.577   8.699 -0.1201 -0.1478 -0.0103
  244MOL0     C33567   5.830   2.473   8.790 -1.1218 -0.3756  0.2030
  244MOL0     C33568   5.934   2.499   8.878  0.8923  0.0581 -0.3629
  244MOL0     C33569   5.993   2.629   8.895  0.0694  0.4546 -0.1502
  244MOL0     O33570   6.071   2.648   9.007  0.7443 -0.4003  0.0206
  244MOL0     C33571   6.090   2.783   9.051 -0.4754  0.8329 -0.0244
  244MOL0     C33572   6.209   2.798   9.164  0.7668 -0.8727  0.2426
  244MOL0     C33573   6.150   2.801   9.313 -0.4878  0.2585 -0.1369
  244MOL0     C33574   6.086   2.662   9.357  1.2131 -0.6395  0.7749
  244MOL0     C33575   6.057   2.654   9.503 -0.8023 -1.1309 -0.6555
  244MOL0     C33576   6.014   2.521   9.549 -0.5418  0.4423  0.1581
  244MOL0     C33577   5.937   2.537   9.687 -0.8011 -0.3916  0.6453
  244MOL0     C33578   6.016   2.625   9.791 -0.0861 -0.0659 -0.4658
  244MOL0    Cl33579   5.931   2.605   9.951  0.2000  0.2539  0.1913
  244MOL0     C33580   5.959   2.723   8.797  0.2779  0.0324 -1.1012
  244MOL0     C33581   5.859   2.698   8.712 -0.6175  0.3228  0.4892
  244MOL0     O33582   5.855   2.501   8.451 -0.5113 -0.1081 -0.1025
  244MOL0     C33583   5.642   2.443   8.277  0.9888 -1.0747  0.4627
  244MOL0     C33584   5.548   2.437   8.171  0.1979 -0.0664 -0.3739
  244MOL0     N33585   5.273   2.636   7.487  0.4086  0.2961  0.1660
  244MOL0     N33586   5.346   2.678   7.394 -0.9066 -0.6021 -1.2006
  244MOL0     C33587   5.709   3.534   7.820  0.0218 -0.1578  0.4366
  244MOL0     C33588   5.591   3.532   7.883  0.3595  0.2436 -0.2583
  244MOL0     C33589   5.136   3.557   7.926  0.5423  0.8388 -0.0852
  244MOL0     C33590   5.129   3.440   8.014 -0.3192 -0.3883  0.0782
  244MOL0     C33591   5.026   3.400   8.088  0.4456 -0.6199  0.0313
  244MOL0     C33592   4.910   3.480   8.084 -0.2182  0.9797  0.2613
  244MOL0     O33593   4.811   3.450   8.170 -0.2699 -0.0872 -0.9685
  244MOL0     C33594   4.828   3.501   8.305 -0.3974 -0.7773  0.9736
  244MOL0     C33595   4.792   3.391   8.414  0.1279  0.1284 -1.0842
  244MOL0     C33596   4.856   3.418   8.551  0.5893  0.9812 -0.7286
  244MOL0     C33597   4.761   3.372   8.666 -0.2950 -0.1035  0.9617
  244MOL0     C33598   4.761   3.225   8.688 -1.2234 -0.4182 -1.1482
  244MOL0     C33599   4.739   3.107   8.702 -0.6055 -0.2110  0.6721
  244MOL0     C33600   4.903   3.594   8.002  0.2723  0.8585 -0.9104
  244MOL0     C33601   5.018   3.636   7.925 -0.2919  0.5198 -0.0292
  244MOL0     C33602   5.005   3.753   7.836  0.3029 -0.9095  0.1201
  244MOL0     H33603   5.405   3.503   7.596 -1.3584 -0.9893  2.8818
  244MOL0     H33604   5.619   3.532   7.492 -2.3826  1.3503 -0.7832
  244MOL0     H33605   5.982   3.547   7.477  0.3380 -1.6916 -1.5195
  244MOL0     H33606   5.821   3.513   7.416  1.8077 -0.9729 -1.7394
  244MOL0     H33607   5.980   3.313   7.376  0.8710 -0.7544  0.5390
  244MOL0     H33608   6.026   3.318   7.540  0.4308  0.1299 -1.0336
  244MOL0     H33609   5.874   3.137   7.536  1.0856  1.0040  3.2351
  244MOL0     H33610   5.789   3.256   7.613 -1.0791  4.0844 -0.8216
  244MOL0     H33611   5.687   3.334   7.402  2.2038 -0.3708 -1.7800
  244MOL0     H33612   5.738   3.183   7.321  1.9894  0.0816 -0.2956
  244MOL0     H33613   5.512   3.169   7.391 -1.0820  1.7640 -0.4616
  244MOL0     H33614   5.537   3.232   7.551 -0.0094  0.4873 -0.3246
  244MOL0     H33615   5.664   3.011   7.597  0.4026 -0.1784 -0.5870
  244MOL0     H33616   5.496   2.986   7.563 -1.5748 -0.7776 -3.1573
  244MOL0     H33617   5.611   2.823   7.466  2.4555  2.1494  1.6619
  244MOL0     H33618   5.684   2.936   7.353  0.7117 -0.8324  0.0155
  244MOL0     H33619   5.424   2.997   7.308 -1.1584  0.3855  2.2377
  244MOL0     H33620   5.477   2.843   7.236 -1.4947 -4.2944  2.6875
  244MOL0     H33621   5.275   2.962   7.534 -1.1763  0.4171 -2.5188
  244MOL0     H33622   5.066   2.675   7.667  0.8002 -0.1056  2.1390
  244MOL0     H33623   5.057   2.850   7.643  0.6952 -0.3743 -1.0202
  244MOL0     H33624   5.269   2.860   7.793  1.4839 -0.2031  0.0721
  244MOL0     H33625   5.107   2.813   7.870 -1.0838 -0.2220 -2.2121
  244MOL0     H33626   5.171   2.578   7.864  0.1428  0.6466  0.3059
  244MOL0     H33627   5.324   2.618   7.779 -0.3092  2.1083 -1.2185
  244MOL0     H33628   5.379   2.761   7.975  1.4273 -2.0051 -1.9419
  244MOL0     H33629   5.233   2.705   8.066  0.6262  1.2233 -0.0915
  244MOL0     H33630   5.395   2.729   8.220  1.0902  2.8468  3.6287
  244MOL0     H33631   5.449   2.757   8.493 -0.9076  1.0233  0.0022
  244MOL0     H33632   5.492   2.855   8.356  0.9073  2.1089  0.8718
  244MOL0     H33633   5.617   2.821   8.475  0.8765 -1.2735 -0.9470
  244MOL0     H33634   5.799   2.370   8.784  1.9954 -1.3408 -1.1472
  244MOL0     H33635   5.965   2.418   8.943  0.5510  0.6992  0.6242
  244MOL0     H33636   6.122   2.855   8.975 -2.6750  3.2100  1.1378
  244MOL0     H33637   5.995   2.802   9.100  0.3330  3.0161  0.8131
  244MOL0     H33638   6.283   2.720   9.145 -1.5219 -2.9124 -0.8313
  244MOL0     H33639   6.254   2.895   9.141  0.2697 -0.6272  0.2809
  244MOL0     H33640   6.061   2.864   9.314 -0.4352  0.5724 -3.5698
  244MOL0     H33641   6.222   2.820   9.394  0.7890 -3.2982 -0.2567
  244MOL0     H33642   6.154   2.581   9.329 -0.0049 -2.2921  2.3671
  244MOL0     H33643   5.994   2.645   9.299  3.0390  0.0883 -2.6163
  244MOL0     H33644   6.146   2.683   9.559  0.0072 -2.6322 -1.1159
  244MOL0     H33645   5.986   2.736   9.517  0.9168  0.4790 -0.9876
  244MOL0     H33646   6.101   2.462   9.579  0.9193  3.1578  1.6000
  244MOL0     H33647   5.946   2.470   9.479  0.2440 -0.1506 -0.1838
  244MOL0     H33648   5.944   2.436   9.730 -0.3552 -0.0923  1.2949
  244MOL0     H33649   5.835   2.570   9.666 -0.9884 -1.8578 -0.9831
  244MOL0     H33650   6.013   2.733   9.779 -0.0225 -0.0857 -0.6704
  244MOL0     H33651   6.120   2.594   9.800  0.2156  0.5620 -1.5434
  244MOL0     H33652   5.988   2.828   8.804 -0.9119  0.3405 -0.5621
  244MOL0     H33653   5.838   2.778   8.641  0.0952  0.0757 -0.0052
  244MOL0     H33654   5.706   2.359   8.301  1.1586 -1.5040 -1.3514
  244MOL0     H33655   5.535   2.353   8.104 -2.3115  0.5404 -0.7329
  244MOL0     H33656   5.790   3.555   7.888 -1.5349  3.8519  1.3552
  244MOL0     H33657   5.584   3.534   7.991  0.7117 -0.8588 -0.2018
  244MOL0     H33658   5.221   3.384   8.027 -0.5291 -1.3516 -2.0791
  244MOL0     H33659   5.033   3.317   8.157  2.6664 -1.4281 -1.0565
  244MOL0     H33660   4.927   3.539   8.331 -2.0069  4.3279  0.7615
  244MOL0     H33661   4.772   3.595   8.309  3.7941  2.0484 -0.5238
  244MOL0     H33662   4.828   3.302   8.362  3.0539  2.0358 -2.6832
  244MOL0     H33663   4.683   3.389   8.412  0.1125  0.5702 -0.8530
  244MOL0     H33664   4.954   3.371   8.567 -0.4042 -0.7491  0.5810
  244MOL0     H33665   4.873   3.526   8.557  1.1454  0.8734 -0.2418
  244MOL0     H33666   4.659   3.399   8.637  0.3316  0.7470 -0.5756
  244MOL0     H33667   4.783   3.426   8.759  5.4754  0.3772 -0.3124
  244MOL0     H33668   4.730   3.004   8.731  3.5087 -0.8968  0.1383
  244MOL0     H33669   4.804   3.636   7.986 -1.2172 -2.0969 -0.2599
  244MOL0     H33670   4.919   3.816   7.862 -0.4436 -1.2262 -1.4765
  244MOL0     H33671   5.083   3.827   7.859 -0.8862  0.1657  0.8307
  244MOL0     H33672   5.024   3.739   7.730 -2.3873 -0.6974 -0.4519
  245MOL0     O33673   2.426   3.481  10.095  0.2568 -0.6143  0.0685
  245MOL0     C33674   2.398   3.365  10.102 -0.8301  0.5048 -0.3534
  245MOL0     O33675   2.306   3.300  10.185  1.1117 -0.5459 -0.1167
  245MOL0     C33676   2.225   3.371  10.267 -0.9925 -0.0364 -0.0195
  245MOL0     C33677   2.239   3.367  10.405 -0.9077  0.2563 -0.6879
  245MOL0     C33678   2.142   3.416  10.494 -0.4402  0.7043 -0.5960
  245MOL0     C33679   2.019   3.464  10.432 -0.7111 -0.0053 -1.3021
  245MOL0     O33680   1.925   3.504  10.514  0.0497  0.0718  0.6650
  245MOL0     C33681   1.883   3.641  10.492 -0.4342  0.3915 -0.2637
  245MOL0     C33682   1.882   3.696  10.638  0.0245 -0.5848 -0.2648
  245MOL0     C33683   2.014   3.688  10.714  0.7069  0.6857 -0.6031
  245MOL0     C33684   2.137   3.754  10.653 -0.5348 -0.5541 -0.2526
  245MOL0     C33685   2.233   3.803  10.770 -0.0207  0.7987 -0.5743
  245MOL0     C33686   2.359   3.872  10.709 -0.2728 -0.1429 -0.8097
  245MOL0     C33687   2.455   3.906  10.831  0.4879  0.9925  0.1304
  245MOL0     C33688   2.551   4.027  10.815 -0.3974  0.0904 -1.1037
  245MOL0     N33689   2.485   4.154  10.767  0.0782  0.0895  0.4242
  245MOL0     C33690   2.387   4.230  10.825  0.5837 -1.6545 -0.1896
  245MOL0     C33691   2.362   4.327  10.734  0.3953 -0.4647 -0.1425
  245MOL0     C33692   2.258   4.437  10.752  1.0039  0.7332  0.0873
  245MOL0     C33693   2.323   4.577  10.744 -0.9009  0.3905  0.1448
  245MOL0     C33694   2.232   4.682  10.804 -0.2623 -0.9555  0.1145
  245MOL0     C33695   2.109   4.716  10.718  1.3745 -0.2595 -0.4638
  245MOL0     O33696   2.043   4.840  10.761  0.0168 -0.2929  0.8666
  245MOL0     C33697   2.005   4.942  10.673  0.4065  0.2902 -1.5698
  245MOL0     C33698   1.861   4.978  10.681 -0.3860  0.8804  0.1051
  245MOL0     C33699   1.820   5.084  10.598 -0.0096 -0.3180  0.6561
  245MOL0     C33700   1.671   5.117  10.616  0.3105  0.0807  0.6335
  245MOL0     C33701   1.905   5.144  10.504 -0.1036  0.5601 -0.4738
  245MOL0     C33702   1.857   5.245  10.398 -0.4243 -0.1791 -0.3258
  245MOL0     O33703   1.742   5.314  10.430 -0.0835 -0.2320  0.4184
  245MOL0     C33704   1.679   5.398  10.338  0.4857  0.0145  0.6281
  245MOL0     C33705   1.554   5.360  10.282 -0.5906 -0.1460  0.5261
  245MOL0     C33706   1.490   5.441  10.188 -0.5415 -0.9214  0.4426
  245MOL0     C33707   1.538   5.573  10.153  0.6047 -1.0770  0.2903
  245MOL0     O33708   1.461   5.672  10.094  0.1078  0.4285 -0.1168
  245MOL0     C33709   1.331   5.629  10.049  0.7328  0.0684  0.1668
  245MOL0     C33710   1.253   5.752  10.004  0.5276  0.7756  1.1911
  245MOL0     C33711   1.188   5.833  10.117 -0.3039  0.4988 -0.2237
  245MOL0     C33712   1.102   5.948  10.064  0.0827  0.6124 -0.5447
  245MOL0     C33713   0.978   5.972  10.161 -0.1738  0.0766 -0.6720
  245MOL0     C33714   1.031   6.032  10.299  0.0502  0.0570  0.9514
  245MOL0     C33715   0.926   6.022  10.410 -0.4721  0.1629  0.0373
  245MOL0     C33716   0.930   6.137  10.505 -0.6509 -0.3772 -0.1760
  245MOL0    Cl33717   1.089   6.109  10.593  0.2751 -0.2422 -0.3696
  245MOL0     C33718   1.660   5.611  10.217  0.0249 -0.7403  0.4972
  245MOL0     C33719   1.732   5.519  10.301 -0.6145 -0.5293 -0.7374
  245MOL0     O33720   1.935   5.264  10.300  0.6041  0.2295 -0.2762
  245MOL0     C33721   2.041   5.098  10.494 -0.0093 -0.2765  0.1477
  245MOL0     C33722   2.085   5.002  10.586 -0.7315 -0.0275 -0.5509
  245MOL0     N33723   2.448   4.315  10.622 -0.1590  0.7001  0.7571
  245MOL0     N33724   2.511   4.203  10.639  0.2207  0.0410 -0.4813
  245MOL0     C33725   2.004   3.467  10.302 -1.0875  0.4724 -0.7765
  245MOL0     C33726   2.103   3.422  10.212  1.0656 -0.1468 -0.1136
  245MOL0     C33727   2.485   3.280  10.013 -0.6620  0.3231  0.0589
  245MOL0     C33728   2.529   3.331   9.887 -0.3094 -0.6874 -0.2664
  245MOL0     C33729   2.576   3.247   9.782 -0.0933 -0.8751 -0.1747
  245MOL0     C33730   2.588   3.105   9.807  0.2678 -0.3251  0.1456
  245MOL0     O33731   2.631   3.031   9.701  0.8863 -0.7319  0.3972
  245MOL0     C33732   2.530   2.970   9.621  0.0785 -0.3924 -0.2039
  245MOL0     C33733   2.590   2.910   9.484 -0.4137  0.7283 -0.1020
  245MOL0     C33734   2.482   2.846   9.405  0.4366  0.4265  0.4205
  245MOL0     C33735   2.508   2.857   9.248  0.0506 -0.8403 -0.6316
  245MOL0     C33736   2.384   2.899   9.171  0.1917  1.0888 -0.1254
  245MOL0     C33737   2.299   2.931   9.094  0.0440  0.0635  0.5304
  245MOL0     C33738   2.546   3.061   9.933 -0.3364  0.7961 -0.3978
  245MOL0     C33739   2.510   3.147  10.038 -0.8178  0.1315  0.1534
  245MOL0     C33740   2.500   3.085  10.177  0.5402  0.2420  0.3771
  245MOL0     H33741   2.329   3.331  10.453 -0.8006 -1.3955 -2.0439
  245MOL0     H33742   2.164   3.426  10.599  1.9771  0.1165 -0.9835
  245MOL0     H33743   1.786   3.653  10.442 -0.2724  3.7424  0.0032
  245MOL0     H33744   1.949   3.696  10.423  1.9718 -1.1698  0.6644
  245MOL0     H33745   1.854   3.801  10.635  2.3548  0.0745 -0.5581
  245MOL0     H33746   1.799   3.649  10.692  2.0486 -0.2483  3.5244
  245MOL0     H33747   1.998   3.728  10.815 -0.5884 -5.0190  1.8504
  245MOL0     H33748   2.026   3.579  10.724 -0.6682  0.7113  2.5086
  245MOL0     H33749   2.179   3.681  10.583  1.3440 -2.3745  2.5463
  245MOL0     H33750   2.097   3.839  10.598 -4.0307 -1.0358  1.2285
  245MOL0     H33751   2.257   3.719  10.837 -2.1442  0.5533 -0.0224
  245MOL0     H33752   2.177   3.874  10.832  0.5366 -0.3669  1.3506
  245MOL0     H33753   2.399   3.801  10.636 -3.6550 -0.9904 -2.0446
  245MOL0     H33754   2.335   3.965  10.657  0.3909  1.4119  1.5577
  245MOL0     H33755   2.512   3.814  10.847 -1.1277 -0.1992 -0.6547
  245MOL0     H33756   2.391   3.911  10.920 -0.9363  1.2646 -0.8659
  245MOL0     H33757   2.593   4.040  10.915 -0.7575  0.4364 -0.9939
  245MOL0     H33758   2.637   4.001  10.754  0.0450  0.1950 -0.5330
  245MOL0     H33759   2.329   4.202  10.912 -1.0941 -0.5754 -0.9068
  245MOL0     H33760   2.212   4.417  10.850  0.7252  3.0039  0.4767
  245MOL0     H33761   2.181   4.430  10.675 -1.7015  1.1532  2.5645
  245MOL0     H33762   2.424   4.581  10.787 -0.9637  3.0995  0.1988
  245MOL0     H33763   2.339   4.606  10.639  0.4732  3.9244  1.1766
  245MOL0     H33764   2.184   4.650  10.897  0.5989 -3.6073 -0.2647
  245MOL0     H33765   2.289   4.773  10.823 -1.5764 -0.3579  1.3750
  245MOL0     H33766   2.123   4.713  10.610  0.4197  2.0199 -0.7204
  245MOL0     H33767   2.047   4.631  10.747  1.9254 -1.7839 -3.4187
  245MOL0     H33768   1.784   4.926  10.737 -1.1050 -0.9850 -2.3987
  245MOL0     H33769   1.627   5.032  10.669 -3.1967 -0.8896 -3.2538
  245MOL0     H33770   1.626   5.119  10.516 -1.4063 -0.3582  1.3652
  245MOL0     H33771   1.637   5.200  10.677  0.6998  0.8804 -0.2095
  245MOL0     H33772   1.518   5.265  10.319 -0.4458  0.5153  2.4645
  245MOL0     H33773   1.396   5.399  10.153 -1.8541  2.1032  0.0023
  245MOL0     H33774   1.364   5.567   9.966  3.3114  1.2527  0.1808
  245MOL0     H33775   1.272   5.573  10.122  2.2893  0.8804  2.1673
  245MOL0     H33776   1.308   5.833   9.954 -2.4770  2.6727  0.6800
  245MOL0     H33777   1.174   5.720   9.936  1.2853 -1.3586  1.2431
  245MOL0     H33778   1.266   5.868  10.186 -0.8332  0.4164  0.4244
  245MOL0     H33779   1.125   5.776  10.186 -0.3592  0.9203  0.0774
  245MOL0     H33780   1.068   5.937   9.961  3.4850  0.3770 -1.7926
  245MOL0     H33781   1.163   6.038  10.072 -0.6555  1.0967 -0.3448
  245MOL0     H33782   0.909   6.048  10.126 -1.8790 -1.3504 -0.5578
  245MOL0     H33783   0.917   5.882  10.176 -1.2461  0.3947 -2.8102
  245MOL0     H33784   1.061   6.136  10.286  1.5112 -0.4941 -0.3678
  245MOL0     H33785   1.115   5.967  10.325  1.2683  1.8624  1.7274
  245MOL0     H33786   0.933   5.929  10.467 -1.5334 -0.8042 -1.3170
  245MOL0     H33787   0.827   6.026  10.362 -1.9593 -0.0453  2.8994
  245MOL0     H33788   0.851   6.139  10.580 -1.1602 -0.1588 -0.7084
  245MOL0     H33789   0.926   6.235  10.457  0.1391  1.4461  3.1698
  245MOL0     H33790   1.702   5.711  10.216 -1.7392  0.0774 -2.3530
  245MOL0     H33791   1.830   5.546  10.339 -0.1223 -1.8436 -0.9947
  245MOL0     H33792   2.115   5.142  10.428  0.2532 -0.8372  0.0611
  245MOL0     H33793   2.178   4.947  10.589 -1.3267 -1.2962 -2.6709
  245MOL0     H33794   1.920   3.507  10.247  0.1126  2.2337 -1.4517
  245MOL0     H33795   2.077   3.418  10.107 -0.9705  1.1097  0.2827
  245MOL0     H33796   2.523   3.438   9.873  1.0947 -0.2848  1.7069
  245MOL0     H33797   2.594   3.278   9.680  0.8878 -2.4889 -0.5270
  245MOL0     H33798   2.499   2.888   9.687 -2.9687 -1.3530 -2.5685
  245MOL0     H33799   2.445   3.035   9.597  0.2974 -0.3502 -0.9030
  245MOL0     H33800   2.669   2.838   9.504 -1.9604 -1.5019 -1.6068
  245MOL0     H33801   2.620   3.003   9.435  0.1860 -0.4201 -2.0284
  245MOL0     H33802   2.470   2.741   9.433  0.2056  0.1620 -0.6169
  245MOL0     H33803   2.384   2.894   9.418 -0.9650 -1.6744 -1.6467
  245MOL0     H33804   2.550   2.767   9.201  0.8149 -0.4723 -0.6711
  245MOL0     H33805   2.570   2.945   9.229 -2.2647  0.8008 -0.9133
  245MOL0     H33806   2.240   2.936   9.004  3.9868 -1.9898 -2.4699
  245MOL0     H33807   2.534   2.953   9.943  1.9310  0.6072  1.1063
  245MOL0     H33808   2.585   3.019  10.192 -1.4241 -2.2494  1.1532
  245MOL0     H33809   2.508   3.167  10.250  1.2567  1.5995 -1.1473
  245MOL0     H33810   2.406   3.031  10.193 -1.3266  3.6524  2.2236
  246MOL0     O33811   7.453   7.353   5.403  0.1297  0.0328  0.3347
  246MOL0     C33812   7.452   7.383   5.524  0.7373 -0.2300 -0.6492
  246MOL0     O33813   7.489   7.297   5.620 -0.5878  0.2077  1.3958
  246MOL0     C33814   7.533   7.173   5.582 -0.3365  0.0837 -0.3726
  246MOL0     C33815   7.630   7.141   5.490  0.5499  0.0915 -0.4017
  246MOL0     C33816   7.641   7.002   5.438  0.3007  0.5161 -0.2715
  246MOL0     C33817   7.571   6.901   5.504  1.1959 -0.3680  1.5315
  246MOL0     O33818   7.602   6.773   5.471 -0.1413 -0.2140  0.0156
  246MOL0     C33819   7.495   6.676   5.477 -0.5730  0.6176  0.3447
  246MOL0     C33820   7.568   6.546   5.459  0.0810 -0.1971 -0.0170
  246MOL0     C33821   7.598   6.530   5.306 -0.6321  0.3264  0.6976
  246MOL0     C33822   7.649   6.392   5.260  0.1829 -1.0264 -0.2655
  246MOL0     C33823   7.796   6.379   5.279 -0.8760  0.6467  0.3063
  246MOL0     C33824   7.842   6.259   5.191 -0.1319  0.0932 -0.5651
  246MOL0     C33825   7.994   6.230   5.207  0.3125 -0.6881  0.4818
  246MOL0     C33826   8.032   6.085   5.159  0.6690 -0.2371  0.2622
  246MOL0     N33827   8.172   6.044   5.172 -0.6777 -0.2496  0.7199
  246MOL0     C33828   8.263   6.087   5.261  0.2837  0.1190  0.1708
  246MOL0     C33829   8.373   6.004   5.246  0.0169 -0.0145  0.2859
  246MOL0     C33830   8.495   6.019   5.326 -0.4237  0.4441 -0.2981
  246MOL0     C33831   8.548   5.872   5.369 -0.0321  0.1178  0.5961
  246MOL0     C33832   8.499   5.853   5.511  0.2065 -1.0651 -0.3009
  246MOL0     C33833   8.350   5.847   5.520 -0.7010  0.9974  0.3036
  246MOL0     O33834   8.308   5.744   5.608 -0.1672 -0.2555 -0.9202
  246MOL0     C33835   8.248   5.630   5.566  0.0936 -0.2319 -0.0816
  246MOL0     C33836   8.179   5.557   5.664  0.1014 -0.2948  0.9056
  246MOL0     C33837   8.118   5.438   5.641  0.0906 -0.1617 -0.7849
  246MOL0     C33838   8.063   5.369   5.761 -0.0295 -0.6738 -0.3034
  246MOL0     C33839   8.105   5.387   5.506 -0.3281 -1.1921  1.2168
  246MOL0     C33840   8.031   5.274   5.454  0.5024  0.1156 -0.4604
  246MOL0     O33841   8.033   5.254   5.317  0.7613  0.7073  0.0049
  246MOL0     C33842   8.073   5.134   5.266 -0.4514 -0.2187  0.9642
  246MOL0     C33843   8.129   5.033   5.342  0.8287 -0.4746  0.0809
  246MOL0     C33844   8.161   4.907   5.285 -0.0844 -0.0597  0.3461
  246MOL0     C33845   8.128   4.885   5.151  0.0161  0.8025  0.5739
  246MOL0     O33846   8.161   4.760   5.095  0.0464  0.5146 -0.5245
  246MOL0     C33847   8.048   4.681   5.052 -1.0791  0.5112 -0.0600
  246MOL0     C33848   7.958   4.651   5.177  0.1491 -0.2216 -0.0857
  246MOL0     C33849   7.832   4.571   5.151 -0.2381  0.5168 -0.4186
  246MOL0     C33850   7.737   4.564   5.274 -0.0618 -0.2308 -0.1812
  246MOL0     C33851   7.788   4.493   5.396  0.7750  0.2541  0.6618
  246MOL0     C33852   7.668   4.445   5.482  0.4708  0.6887  1.2852
  246MOL0     C33853   7.695   4.444   5.631 -0.5904  0.2161 -0.9996
  246MOL0     C33854   7.569   4.438   5.709  0.3966 -0.0222  1.1218
  246MOL0    Cl33855   7.450   4.331   5.637 -0.0739  0.4773  0.2388
  246MOL0     C33856   8.090   4.989   5.067  0.8704 -0.9941  0.1679
  246MOL0     C33857   8.053   5.111   5.126  0.3145 -1.5505 -0.5245
  246MOL0     O33858   7.974   5.205   5.536 -0.1865  0.3986 -0.1556
  246MOL0     C33859   8.177   5.465   5.408  0.3368 -0.0703  1.2430
  246MOL0     C33860   8.247   5.582   5.436 -0.3717 -0.7174  0.7430
  246MOL0     N33861   8.340   5.900   5.163  0.5360 -0.1212  0.0418
  246MOL0     N33862   8.221   5.928   5.116  0.3727 -0.0494 -0.4284
  246MOL0     C33863   7.492   6.938   5.611  0.2398  0.1037  0.1075
  246MOL0     C33864   7.472   7.071   5.651  0.0467 -0.7144 -0.7370
  246MOL0     C33865   7.425   7.532   5.550 -0.4445  0.3556 -0.2963
  246MOL0     C33866   7.367   7.615   5.458 -0.4749 -0.4125  0.5436
  246MOL0     C33867   7.352   7.756   5.485  0.6110 -0.5458  0.7392
  246MOL0     C33868   7.376   7.808   5.612 -0.0988  0.0602  0.1685
  246MOL0     O33869   7.344   7.935   5.655  0.8572 -0.4251  0.3788
  246MOL0     C33870   7.250   8.024   5.589  0.5647  0.1962 -0.7569
  246MOL0     C33871   7.311   8.084   5.462  0.7621 -0.5542 -0.4161
  246MOL0     C33872   7.411   8.197   5.507  0.8526 -0.6384  0.1852
  246MOL0     C33873   7.356   8.331   5.553  0.4025  0.7288 -0.9672
  246MOL0     C33874   7.276   8.391   5.446 -0.1045  0.2692 -1.1093
  246MOL0     C33875   7.221   8.444   5.356  0.0614 -0.3559  0.3174
  246MOL0     C33876   7.441   7.726   5.705 -0.5418  0.6872  0.5865
  246MOL0     C33877   7.478   7.592   5.673  0.1185  0.1538 -0.4010
  246MOL0     C33878   7.572   7.522   5.765 -0.7570  0.3828  0.0463
  246MOL0     H33879   7.693   7.221   5.451  1.8943 -0.1956  1.0804
  246MOL0     H33880   7.708   6.979   5.356  1.4829 -2.5411  1.3900
  246MOL0     H33881   7.413   6.701   5.410 -1.9784 -1.8530  1.0072
  246MOL0     H33882   7.443   6.671   5.574  0.9903 -1.5059  1.1516
  246MOL0     H33883   7.663   6.539   5.512 -0.1053 -1.9117  0.1532
  246MOL0     H33884   7.508   6.457   5.481 -0.0988 -0.3409 -1.0492
  246MOL0     H33885   7.503   6.536   5.252 -1.5675 -1.0934  2.0979
  246MOL0     H33886   7.657   6.611   5.262  1.9641 -1.0442  1.4994
  246MOL0     H33887   7.603   6.307   5.311 -0.8511  1.0113  2.4298
  246MOL0     H33888   7.628   6.377   5.154  2.6965 -1.9703 -0.6981
  246MOL0     H33889   7.823   6.359   5.383 -1.9671  0.8950  0.6426
  246MOL0     H33890   7.844   6.473   5.249  1.0862  0.3312  2.2162
  246MOL0     H33891   7.790   6.175   5.240  0.1515  0.0381 -0.3596
  246MOL0     H33892   7.811   6.268   5.087  2.2489  2.4085 -1.1858
  246MOL0     H33893   8.018   6.229   5.313  1.5825  1.1508  0.2783
  246MOL0     H33894   8.047   6.315   5.161 -1.6744  1.8027  2.5121
  246MOL0     H33895   7.970   6.018   5.218  0.2525 -0.8146 -0.8099
  246MOL0     H33896   8.017   6.077   5.051  1.4666  4.5974 -0.4387
  246MOL0     H33897   8.256   6.162   5.340  2.5785  3.5756 -2.6071
  246MOL0     H33898   8.477   6.090   5.407 -2.2492  0.0659 -0.3336
  246MOL0     H33899   8.580   6.059   5.269  1.9713 -3.5042  0.1198
  246MOL0     H33900   8.507   5.788   5.312 -1.7714 -0.4709  2.5847
  246MOL0     H33901   8.657   5.874   5.372 -0.0061 -0.7720  0.4647
  246MOL0     H33902   8.553   5.765   5.551  0.4976 -1.4973 -1.6029
  246MOL0     H33903   8.531   5.943   5.564 -1.5199 -0.0351 -0.9513
  246MOL0     H33904   8.317   5.942   5.562  0.9142  1.5963  0.2896
  246MOL0     H33905   8.307   5.825   5.421  1.9368 -0.5442 -0.6167
  246MOL0     H33906   8.187   5.602   5.763 -5.9965  0.7121  1.3183
  246MOL0     H33907   7.975   5.305   5.759  0.5191 -1.7296  2.7002
  246MOL0     H33908   8.042   5.441   5.841 -4.0635  2.9438 -4.1239
  246MOL0     H33909   8.146   5.303   5.789  2.2701 -0.3212 -5.2658
  246MOL0     H33910   8.171   5.038   5.442 -1.3258  2.3351  1.0166
  246MOL0     H33911   8.221   4.835   5.340  1.8483 -0.9768 -2.7428
  246MOL0     H33912   7.996   4.745   4.980 -1.0960  2.1482  1.3524
  246MOL0     H33913   8.083   4.586   5.012  3.0785  3.0584 -3.3284
  246MOL0     H33914   8.019   4.592   5.246 -1.0403 -1.0519  0.2935
  246MOL0     H33915   7.920   4.743   5.221  0.3070  0.7857 -1.9516
  246MOL0     H33916   7.871   4.471   5.126 -3.1488 -0.2906 -2.3674
  246MOL0     H33917   7.775   4.600   5.062  0.8625 -1.4640 -1.8445
  246MOL0     H33918   7.649   4.516   5.231 -0.5474  1.5130 -1.2054
  246MOL0     H33919   7.700   4.659   5.315  4.9838  0.4883  3.7146
  246MOL0     H33920   7.855   4.411   5.370 -1.2415 -0.9029 -1.2617
  246MOL0     H33921   7.840   4.553   5.470  1.4645 -1.7737  1.8904
  246MOL0     H33922   7.634   4.345   5.453  2.3606 -0.0678  1.5263
  246MOL0     H33923   7.581   4.509   5.466  0.6875  0.3900 -1.5698
  246MOL0     H33924   7.761   4.526   5.664 -1.0616  0.2393 -0.0857
  246MOL0     H33925   7.758   4.359   5.658 -0.4452  0.3621 -0.8765
  246MOL0     H33926   7.528   4.539   5.702  2.7422  0.8733 -1.7695
  246MOL0     H33927   7.598   4.409   5.810 -3.0263 -1.1439  1.9185
  246MOL0     H33928   8.083   4.976   4.959  1.6630 -2.1597  0.2422
  246MOL0     H33929   8.027   5.195   5.063  3.3616  0.4729  0.6990
  246MOL0     H33930   8.166   5.438   5.303 -0.2944  3.8396  0.1749
  246MOL0     H33931   8.307   5.631   5.360  1.2344 -0.5829  2.0438
  246MOL0     H33932   7.443   6.856   5.662  0.3665 -0.4674 -0.6871
  246MOL0     H33933   7.389   7.086   5.719  1.2081 -0.3116  0.6140
  246MOL0     H33934   7.341   7.588   5.355  1.7993  4.6072 -1.6670
  246MOL0     H33935   7.304   7.811   5.405 -3.1763 -3.0536  1.0375
  246MOL0     H33936   7.166   7.964   5.552  2.3510 -1.0959 -2.9632
  246MOL0     H33937   7.214   8.097   5.662  0.1030  0.8607 -1.6288
  246MOL0     H33938   7.224   8.122   5.408 -0.5980 -5.3229 -2.0905
  246MOL0     H33939   7.349   8.017   5.385  2.0651  1.3216 -1.4987
  246MOL0     H33940   7.485   8.162   5.580  1.1142  1.1484  0.8226
  246MOL0     H33941   7.474   8.224   5.422  1.1467  0.0040  0.5977
  246MOL0     H33942   7.425   8.406   5.593  1.6329 -0.7671 -0.1591
  246MOL0     H33943   7.281   8.326   5.633  0.8890  1.2266 -0.4753
  246MOL0     H33944   7.176   8.503   5.279 -1.3997 -0.9664  0.6827
  246MOL0     H33945   7.479   7.775   5.795  1.7233 -2.1706  1.3359
  246MOL0     H33946   7.631   7.585   5.833  3.5345 -1.7252 -1.3376
  246MOL0     H33947   7.529   7.442   5.827  2.4395 -2.3663 -0.9720
  246MOL0     H33948   7.655   7.488   5.703  1.5431  2.2579  1.9142
  247MOL0     O33949   5.772   9.695   3.987 -0.0845 -0.1982  0.2696
  247MOL0     C33950   5.798   9.814   3.986  0.4286  0.7005 -0.3380
  247MOL0     O33951   5.788   9.901   3.878 -0.3555  0.9280 -0.1219
  247MOL0     C33952   5.759   9.864   3.747  0.4174  0.3114  0.9504
  247MOL0     C33953   5.818   9.750   3.687  0.3724 -0.5640 -0.3366
  247MOL0     C33954   5.762   9.699   3.563  0.1012  0.4361  0.3009
  247MOL0     C33955   5.637   9.750   3.509 -1.1890 -0.8524 -1.0531
  247MOL0     O33956   5.562   9.688   3.414 -0.1137  0.0008  1.5699
  247MOL0     C33957   5.439   9.625   3.463 -1.3214 -1.4268 -0.9489
  247MOL0     C33958   5.332   9.603   3.350  0.4317 -0.2603 -1.1865
  247MOL0     C33959   5.203   9.554   3.420  0.1515  0.8794  0.2046
  247MOL0     C33960   5.095   9.558   3.302 -0.2079 -0.0690 -0.6678
  247MOL0     C33961   4.970   9.498   3.352  0.9432  0.3089 -1.1096
  247MOL0     C33962   4.863   9.475   3.242 -0.8442  0.8116 -0.6447
  247MOL0     C33963   4.801   9.607   3.199 -0.2382  0.1175 -0.0505
  247MOL0     C33964   4.709   9.677   3.307  0.0458 -0.0580  0.3612
  247MOL0     N33965   4.608   9.587   3.344  0.2417  0.0856 -0.7289
  247MOL0     C33966   4.504   9.553   3.268 -0.4016  0.5218  0.4000
  247MOL0     C33967   4.444   9.449   3.329  0.3414  0.6474 -0.0708
  247MOL0     C33968   4.322   9.369   3.268 -0.1745  0.3145  0.1872
  247MOL0     C33969   4.251   9.285   3.386  0.9655  1.3641 -0.0973
  247MOL0     C33970   4.160   9.180   3.326  0.5509  0.3822  0.0085
  247MOL0     C33971   4.017   9.183   3.379 -0.6889  0.1390  0.5316
  247MOL0     O33972   3.945   9.302   3.332 -0.1262  0.1856 -0.3796
  247MOL0     C33973   3.816   9.320   3.384 -0.5368 -0.2328  0.7208
  247MOL0     C33974   3.761   9.441   3.345 -0.1887  0.8470  0.1837
  247MOL0     C33975   3.638   9.486   3.405  0.3793 -0.4699 -0.2127
  247MOL0     C33976   3.598   9.627   3.358  0.0922 -0.5327 -0.2382
  247MOL0     C33977   3.580   9.421   3.513  0.1879  0.4061  0.8316
  247MOL0     C33978   3.456   9.463   3.579  1.1214 -0.8880 -0.1889
  247MOL0     O33979   3.438   9.415   3.696 -0.3464 -0.0260 -0.9316
  247MOL0     C33980   3.334   9.447   3.766 -0.4348 -0.7247 -1.2193
  247MOL0     C33981   3.325   9.555   3.864 -0.8417 -0.3936 -0.3536
  247MOL0     C33982   3.221   9.575   3.956 -0.1080  1.2456  0.4342
  247MOL0     C33983   3.115   9.484   3.947 -0.3225  1.0157  0.1954
  247MOL0     O33984   2.993   9.477   4.012  0.3856  0.8042 -0.6762
  247MOL0     C33985   2.983   9.578   4.113 -0.6175 -0.2351  1.0505
  247MOL0     C33986   3.062   9.551   4.244 -0.1254  0.0895 -0.1461
  247MOL0     C33987   3.034   9.651   4.372  0.5511 -0.8850 -0.0572
  247MOL0     C33988   3.108   9.785   4.344 -0.0836 -0.7328 -0.3969
  247MOL0     C33989   3.037   9.902   4.420 -0.9044  0.3468 -2.0223
  247MOL0     C33990   3.122  10.032   4.414  0.0213 -0.5024 -0.6220
  247MOL0     C33991   3.047  10.161   4.434 -0.5602 -0.2799  0.6687
  247MOL0     C33992   3.021  10.209   4.570  0.5386 -0.4805  0.0772
  247MOL0    Cl33993   2.907  10.351   4.576  0.2838 -0.3210 -0.2155
  247MOL0     C33994   3.118   9.382   3.840  0.2737  0.4086 -0.1413
  247MOL0     C33995   3.226   9.368   3.749  0.8464 -0.5929 -0.0753
  247MOL0     O33996   3.377   9.547   3.528  0.7769 -0.0666  0.0006
  247MOL0     C33997   3.642   9.303   3.552 -0.5643  0.0571 -0.5660
  247MOL0     C33998   3.762   9.251   3.496 -0.6926  0.4790 -0.0465
  247MOL0     N33999   4.521   9.428   3.448 -0.1599 -0.1093 -0.1406
  247MOL0     N34000   4.611   9.517   3.462  0.2229  0.0840 -0.3943
  247MOL0     C34001   5.589   9.865   3.568 -0.1088  0.2204 -0.8175
  247MOL0     C34002   5.650   9.926   3.681  0.7310 -0.8866  0.0351
  247MOL0     C34003   5.826   9.890   4.117 -0.0493  0.0541  0.0127
  247MOL0     C34004   5.871  10.025   4.117  0.5487  0.1712  0.5247
  247MOL0     C34005   5.906  10.096   4.230 -0.2792 -0.4404  0.3384
  247MOL0     C34006   5.896  10.037   4.359 -0.0445  0.3160 -0.5353
  247MOL0     O34007   5.916  10.093   4.482  0.1030  0.3890 -0.0925
  247MOL0     C34008   6.001  10.207   4.502 -0.3714  0.0971 -0.5434
  247MOL0     C34009   6.146  10.157   4.545 -0.5021  0.0783  0.1355
  247MOL0     C34010   6.149  10.106   4.694  1.1726  0.5162  0.1680
  247MOL0     C34011   6.118   9.956   4.699 -0.4883  0.4554 -0.1956
  247MOL0     C34012   6.244   9.874   4.698 -0.2095  0.2066  0.7601
  247MOL0     C34013   6.323   9.779   4.700  0.7364 -1.0819 -0.5561
  247MOL0     C34014   5.862   9.901   4.364 -0.6884  0.0624 -0.3188
  247MOL0     C34015   5.826   9.831   4.246  0.6603 -0.4430 -0.0348
  247MOL0     C34016   5.764   9.703   4.278 -0.1907 -0.6960 -0.3064
  247MOL0     H34017   5.895   9.700   3.744 -0.5730 -1.0900  0.5137
  247MOL0     H34018   5.808   9.613   3.514 -2.0616 -0.2918 -0.5715
  247MOL0     H34019   5.398   9.692   3.539 -1.7893 -1.2201 -1.3775
  247MOL0     H34020   5.471   9.534   3.514 -0.2975  0.7335  2.6157
  247MOL0     H34021   5.314   9.702   3.307  1.2803 -0.1425 -1.2884
  247MOL0     H34022   5.376   9.547   3.267  2.5936  0.6715 -0.7369
  247MOL0     H34023   5.206   9.453   3.462 -2.0430  1.1730  1.2311
  247MOL0     H34024   5.169   9.628   3.493 -1.5308  1.4547 -1.0971
  247MOL0     H34025   5.083   9.659   3.262  1.2618  0.1539 -0.6071
  247MOL0     H34026   5.129   9.489   3.224  0.9559  0.9411 -1.0779
  247MOL0     H34027   4.933   9.566   3.428 -3.1601 -2.0308 -0.7501
  247MOL0     H34028   4.985   9.399   3.396 -0.2093 -1.4022 -4.1798
  247MOL0     H34029   4.912   9.425   3.158 -1.0790 -1.1460  0.3417
  247MOL0     H34030   4.781   9.407   3.265  0.2878 -0.4833 -0.2862
  247MOL0     H34031   4.741   9.582   3.112 -0.8712  0.0128  0.4086
  247MOL0     H34032   4.879   9.677   3.169 -1.4453  0.2804 -3.1495
  247MOL0     H34033   4.774   9.703   3.390 -0.1192  1.7021 -0.0116
  247MOL0     H34034   4.653   9.760   3.261 -0.4509 -0.1067  0.8678
  247MOL0     H34035   4.466   9.602   3.179 -5.0865 -3.4559 -0.1849
  247MOL0     H34036   4.367   9.298   3.197  1.1311  0.3764  0.9146
  247MOL0     H34037   4.252   9.436   3.216 -0.9147  0.8831  1.8443
  247MOL0     H34038   4.325   9.235   3.449 -1.4270 -3.0585 -0.3980
  247MOL0     H34039   4.191   9.351   3.449  1.6322  1.1407  0.7899
  247MOL0     H34040   4.165   9.193   3.218  0.9295 -0.4889 -0.0908
  247MOL0     H34041   4.197   9.081   3.355 -0.4353  0.2568  0.8911
  247MOL0     H34042   3.960   9.098   3.339  0.3053  0.5660 -1.9882
  247MOL0     H34043   4.027   9.179   3.488 -1.7076  1.9551  0.7198
  247MOL0     H34044   3.814   9.488   3.262  0.6457  0.4464  0.4777
  247MOL0     H34045   3.659   9.658   3.273  0.0571 -2.6004 -1.0716
  247MOL0     H34046   3.608   9.692   3.445 -2.7881 -0.6478  0.2808
  247MOL0     H34047   3.495   9.636   3.323 -0.5750 -2.3081  1.0802
  247MOL0     H34048   3.407   9.625   3.869  2.0326 -3.4690 -0.3450
  247MOL0     H34049   3.218   9.659   4.024  2.3817  0.3854  1.7426
  247MOL0     H34050   3.001   9.679   4.074  1.9968 -0.3064  1.8601
  247MOL0     H34051   2.877   9.576   4.140 -0.0648 -1.5497  3.4257
  247MOL0     H34052   3.037   9.452   4.284  2.2233 -1.6019 -2.5207
  247MOL0     H34053   3.168   9.548   4.219 -0.5921  1.6617 -2.5893
  247MOL0     H34054   3.081   9.615   4.465 -0.7230 -0.3782  0.8066
  247MOL0     H34055   2.925   9.656   4.382  0.4715  0.3341 -1.2990
  247MOL0     H34056   3.118   9.814   4.239  5.2229  0.6710  0.1883
  247MOL0     H34057   3.209   9.768   4.384 -1.0655 -3.2534  1.2837
  247MOL0     H34058   2.937   9.916   4.379 -0.4140  1.6498 -2.8200
  247MOL0     H34059   3.012   9.879   4.525 -0.8060 -2.9863 -2.6116
  247MOL0     H34060   3.150  10.045   4.309  0.9857  2.1683 -0.1166
  247MOL0     H34061   3.207  10.022   4.482 -2.0930  0.6427  2.4061
  247MOL0     H34062   2.950  10.159   4.384 -1.3985 -3.0612  2.2263
  247MOL0     H34063   3.121  10.231   4.392  1.0389 -1.3997  1.4980
  247MOL0     H34064   3.118  10.236   4.612 -0.8650  1.2240  2.4598
  247MOL0     H34065   2.978  10.137   4.639  1.5201 -1.4356 -0.2740
  247MOL0     H34066   3.037   9.313   3.820  0.6105 -0.3263  0.9491
  247MOL0     H34067   3.231   9.288   3.676 -1.4147  0.6277 -1.6897
  247MOL0     H34068   3.603   9.242   3.633  3.9880 -1.4800  0.7822
  247MOL0     H34069   3.818   9.165   3.533  2.9612  2.1899 -1.1560
  247MOL0     H34070   5.498   9.906   3.525  0.9145  0.4406 -2.8986
  247MOL0     H34071   5.615  10.013   3.735  1.8784 -0.1167 -0.4182
  247MOL0     H34072   5.860  10.086   4.028 -1.4199 -0.5651  0.2019
  247MOL0     H34073   5.932  10.201   4.224  3.3455 -1.2259  0.3184
  247MOL0     H34074   6.017  10.259   4.407 -2.9152 -2.8081 -2.7723
  247MOL0     H34075   5.955  10.271   4.577  1.9811 -1.6322  2.5941
  247MOL0     H34076   6.200  10.252   4.544 -1.0251  0.3938 -1.7561
  247MOL0     H34077   6.189  10.091   4.470  1.3499 -0.8400  1.9074
  247MOL0     H34078   6.248  10.135   4.732 -0.2878  5.0452  1.1608
  247MOL0     H34079   6.078  10.166   4.752 -2.3701 -1.2907 -2.0168
  247MOL0     H34080   6.054   9.929   4.615 -0.3515  3.5500 -1.4295
  247MOL0     H34081   6.070   9.927   4.793 -0.7055 -0.4432 -0.5795
  247MOL0     H34082   6.403   9.708   4.692  1.7332  0.2247 -3.8104
  247MOL0     H34083   5.851   9.858   4.463  0.2819 -0.7552 -0.5469
  247MOL0     H34084   5.840   9.624   4.277 -1.1865 -1.6874 -0.4722
  247MOL0     H34085   5.712   9.698   4.374  0.1910  1.9781  0.1024
  247MOL0     H34086   5.693   9.658   4.207 -0.3553 -2.0098  0.6554
  248MOL0     O34087   9.926   7.615   4.599  1.1450 -0.0331  0.6983
  248MOL0     C34088  10.049   7.618   4.588  0.0307 -0.0395  0.2134
  248MOL0     O34089  10.128   7.675   4.674 -0.0712  0.6420 -0.0580
  248MOL0     C34090  10.095   7.733   4.795 -0.2307  0.2898  0.2291
  248MOL0     C34091  10.192   7.821   4.841 -0.6094  0.7624  0.1106
  248MOL0     C34092  10.184   7.878   4.965 -0.2771  1.0660  0.8254
  248MOL0     C34093  10.069   7.876   5.044  0.7314  0.3318  1.0001
  248MOL0     O34094  10.046   7.948   5.161 -0.1066  0.0713  0.0716
  248MOL0     C34095  10.154   8.008   5.224  0.5330 -0.3126  0.8111
  248MOL0     C34096  10.100   8.049   5.365  0.4970  0.2168 -0.0322
  248MOL0     C34097  10.213   8.098   5.454 -0.5301 -0.5554  0.5124
  248MOL0     C34098  10.160   8.141   5.591  0.2034 -0.5853  0.3522
  248MOL0     C34099  10.255   8.200   5.694 -0.6340  0.2636 -1.3938
  248MOL0     C34100  10.387   8.138   5.699 -0.9458 -0.1962 -0.6778
  248MOL0     C34101  10.492   8.176   5.810  0.0777 -0.6539 -0.8339
  248MOL0     C34102  10.558   8.314   5.797 -0.5939  0.0884  0.2115
  248MOL0     N34103  10.609   8.333   5.658  0.2423  0.8020 -0.0281
  248MOL0     C34104  10.570   8.439   5.577 -0.0777  0.2361 -0.2618
  248MOL0     C34105  10.636   8.410   5.462  0.2542  0.6751  0.0098
  248MOL0     C34106  10.648   8.491   5.337 -0.9611 -0.1803  0.6901
  248MOL0     C34107  10.522   8.456   5.257 -0.3625  0.4613  0.4299
  248MOL0     C34108  10.515   8.560   5.146 -1.0110  0.4185  0.1987
  248MOL0     C34109  10.401   8.519   5.053 -0.0565 -0.8081  0.3188
  248MOL0     O34110  10.378   8.630   4.971 -0.6998 -0.1157  0.4064
  248MOL0     C34111  10.267   8.612   4.880 -0.4981 -0.3223 -0.2379
  248MOL0     C34112  10.235   8.720   4.802  0.2695  1.3606 -1.2281
  248MOL0     C34113  10.134   8.729   4.712  0.1934  0.0915  0.0969
  248MOL0     C34114  10.110   8.870   4.649  0.4259  1.1873 -0.5285
  248MOL0     C34115  10.061   8.611   4.683 -0.0932  0.2532 -0.4349
  248MOL0     C34116   9.956   8.604   4.578 -0.2896  0.7277  0.9790
  248MOL0     O34117   9.855   8.507   4.595 -0.5272 -0.2275  0.2738
  248MOL0     C34118   9.780   8.478   4.476  0.1173 -0.8832 -0.2596
  248MOL0     C34119   9.641   8.466   4.496 -0.0967  0.4646 -0.4069
  248MOL0     C34120   9.570   8.437   4.380 -0.3359 -0.0040  0.0905
  248MOL0     C34121   9.616   8.423   4.252 -0.0689 -0.6063 -0.0732
  248MOL0     O34122   9.528   8.399   4.154  0.6204 -0.3424 -0.1570
  248MOL0     C34123   9.550   8.456   4.024 -0.0537 -0.0986 -0.3602
  248MOL0     C34124   9.635   8.383   3.919 -0.2329  0.3686  0.0472
  248MOL0     C34125   9.555   8.384   3.790  0.3861 -0.1916 -0.5382
  248MOL0     C34126   9.631   8.326   3.671  0.1790 -0.2577 -0.2329
  248MOL0     C34127   9.526   8.291   3.565  0.4780  0.7237  0.6945
  248MOL0     C34128   9.606   8.236   3.443  0.3573  0.7665  0.3647
  248MOL0     C34129   9.523   8.253   3.314  0.2858  0.2332  0.0929
  248MOL0     C34130   9.416   8.159   3.299  0.0995  0.1207  0.0362
  248MOL0    Cl34131   9.485   7.991   3.298 -0.3570 -0.1388 -0.4654
  248MOL0     C34132   9.751   8.443   4.234 -0.4470 -0.1737  0.3265
  248MOL0     C34133   9.829   8.475   4.345  0.2388 -0.1807  0.7146
  248MOL0     O34134   9.969   8.684   4.480 -0.4223 -0.4551 -0.2026
  248MOL0     C34135  10.074   8.507   4.775 -1.3086  0.8194 -0.3456
  248MOL0     C34136  10.182   8.501   4.874  0.5292  0.1505 -0.9381
  248MOL0     N34137  10.693   8.282   5.464 -0.0635  0.1035  0.1658
  248MOL0     N34138  10.669   8.236   5.578  0.7924  0.1420  0.2453
  248MOL0     C34139   9.964   7.788   5.003 -1.1804 -0.0503  0.1547
  248MOL0     C34140   9.977   7.718   4.877 -0.1572  1.0435 -0.5450
  248MOL0     C34141  10.113   7.575   4.467 -0.0580  0.6325  0.4202
  248MOL0     C34142  10.056   7.612   4.340  0.1137  0.1331 -0.4348
  248MOL0     C34143  10.091   7.563   4.212  0.2214 -0.5977 -0.0542
  248MOL0     C34144  10.195   7.474   4.207  0.0839  0.3890  0.2158
  248MOL0     O34145  10.248   7.426   4.095  0.1801 -0.4526 -0.1932
  248MOL0     C34146  10.254   7.486   3.969 -0.4697 -0.5964  0.0523
  248MOL0     C34147  10.394   7.570   3.942  0.6800 -1.2307 -0.2380
  248MOL0     C34148  10.484   7.515   3.825  0.8050 -0.5291 -0.0706
  248MOL0     C34149  10.542   7.381   3.873  1.0254  0.4139  0.4891
  248MOL0     C34150  10.552   7.284   3.764  0.1185  0.3558 -0.4961
  248MOL0     C34151  10.553   7.208   3.675  0.3239 -0.4422  0.7371
  248MOL0     C34152  10.263   7.438   4.324 -0.0181 -0.2341 -0.6761
  248MOL0     C34153  10.211   7.475   4.452 -0.1748 -0.4314  0.0922
  248MOL0     C34154  10.268   7.407   4.574 -1.0223 -0.5090 -0.6526
  248MOL0     H34155  10.281   7.841   4.783 -1.0835  1.5865 -0.3693
  248MOL0     H34156  10.263   7.939   5.006 -2.4410  4.3073  0.5733
  248MOL0     H34157  10.188   8.103   5.182 -1.1599  1.3921  2.9624
  248MOL0     H34158  10.246   7.949   5.230  2.2093  1.6663 -2.6510
  248MOL0     H34159  10.013   8.116   5.373  1.4440  1.7323 -1.7887
  248MOL0     H34160  10.076   7.954   5.414  1.9523 -0.0283  0.2537
  248MOL0     H34161  10.288   8.020   5.473  1.7727  1.6201  0.8948
  248MOL0     H34162  10.263   8.183   5.406 -0.5203 -1.3127 -0.8613
  248MOL0     H34163  10.084   8.216   5.568 -1.3754 -2.7061 -1.8822
  248MOL0     H34164  10.103   8.059   5.637 -3.9970  1.9970  0.2364
  248MOL0     H34165  10.217   8.172   5.793  1.9584 -0.5749 -0.5229
  248MOL0     H34166  10.258   8.308   5.679 -2.1618  0.3980 -0.8306
  248MOL0     H34167  10.375   8.030   5.710  0.9646 -0.2529  1.8620
  248MOL0     H34168  10.434   8.154   5.601 -0.4232  2.4901 -0.0633
  248MOL0     H34169  10.567   8.096   5.815 -1.2957 -1.8968  2.9533
  248MOL0     H34170  10.442   8.170   5.907  0.5515 -2.5077 -0.6678
  248MOL0     H34171  10.488   8.393   5.825  0.5438  0.5262  1.9487
  248MOL0     H34172  10.651   8.316   5.854 -0.0462 -2.0208 -0.4950
  248MOL0     H34173  10.502   8.522   5.595 -0.1983 -0.1257  1.0916
  248MOL0     H34174  10.737   8.467   5.277 -0.8087 -3.8514  2.1103
  248MOL0     H34175  10.671   8.593   5.366 -0.0623 -0.6071  1.4958
  248MOL0     H34176  10.517   8.355   5.215  0.9661  1.2172 -1.6848
  248MOL0     H34177  10.435   8.466   5.323  0.4390 -0.0166  1.5997
  248MOL0     H34178  10.511   8.663   5.180 -1.6237  0.5076 -0.1287
  248MOL0     H34179  10.604   8.556   5.082  0.3037  0.2103  1.9641
  248MOL0     H34180  10.431   8.429   4.999 -1.1547 -0.9396 -0.1053
  248MOL0     H34181  10.314   8.502   5.118 -0.5359 -1.5729 -0.4994
  248MOL0     H34182  10.290   8.811   4.823  1.8349  0.3688 -0.8604
  248MOL0     H34183  10.003   8.881   4.671 -0.4304 -0.7913 -3.2092
  248MOL0     H34184  10.117   8.883   4.541  0.1839 -0.0328 -0.7128
  248MOL0     H34185  10.168   8.949   4.697 -1.6689  1.1744  2.2718
  248MOL0     H34186   9.595   8.470   4.594 -0.7365  0.5333 -0.7044
  248MOL0     H34187   9.462   8.436   4.386 -0.3825  1.3136 -0.2670
  248MOL0     H34188   9.449   8.469   3.985 -0.8686 -1.3073  1.2390
  248MOL0     H34189   9.578   8.559   4.048 -3.4368  0.3193  2.5566
  248MOL0     H34190   9.734   8.431   3.914  1.9310 -3.6091  0.4292
  248MOL0     H34191   9.652   8.278   3.945  1.6771  0.5923 -0.1217
  248MOL0     H34192   9.530   8.486   3.764  2.5755  0.8678  1.1025
  248MOL0     H34193   9.459   8.334   3.806 -0.6706  2.0643  0.6479
  248MOL0     H34194   9.693   8.237   3.691  1.7735  0.7311 -0.5913
  248MOL0     H34195   9.705   8.399   3.637  0.2359 -0.6301 -0.9479
  248MOL0     H34196   9.449   8.217   3.590  1.4634 -0.3205  0.6962
  248MOL0     H34197   9.484   8.386   3.530  0.3892  0.0063 -1.3257
  248MOL0     H34198   9.631   8.130   3.451 -2.3033 -0.1690 -2.1585
  248MOL0     H34199   9.706   8.280   3.445  1.5090 -1.6435  2.5066
  248MOL0     H34200   9.587   8.231   3.228 -1.3222 -2.3293 -0.5659
  248MOL0     H34201   9.498   8.358   3.298  3.2775  1.1228  0.8198
  248MOL0     H34202   9.365   8.183   3.205  1.7419  1.4374 -0.5460
  248MOL0     H34203   9.340   8.172   3.377  0.0935 -1.4842  0.3398
  248MOL0     H34204   9.804   8.429   4.140  1.2156  0.4613  1.1352
  248MOL0     H34205   9.937   8.488   4.340  0.6548 -2.0967  2.7841
  248MOL0     H34206  10.001   8.427   4.783 -1.7388  1.2626  0.2487
  248MOL0     H34207  10.188   8.416   4.941  0.3442  1.9031  1.4192
  248MOL0     H34208   9.882   7.771   5.072 -0.0533 -1.9324  1.0975
  248MOL0     H34209   9.892   7.667   4.832 -1.1701  0.8946  1.4240
  248MOL0     H34210   9.977   7.687   4.336  1.0258  1.2507  1.3622
  248MOL0     H34211  10.035   7.588   4.122 -2.3718 -1.8999  1.1027
  248MOL0     H34212  10.252   7.406   3.894  1.9134  0.0298 -0.7588
  248MOL0     H34213  10.169   7.553   3.952  0.6218  0.2469 -2.5184
  248MOL0     H34214  10.450   7.569   4.036 -1.8918 -0.1668  1.4114
  248MOL0     H34215  10.376   7.677   3.925 -2.0115 -1.4843  0.6060
  248MOL0     H34216  10.427   7.502   3.733 -1.2390  2.7444  0.5414
  248MOL0     H34217  10.566   7.587   3.820  0.3708  0.1092  1.3987
  248MOL0     H34218  10.480   7.321   3.941  3.0410 -5.0587 -1.9077
  248MOL0     H34219  10.641   7.394   3.916  0.1611  2.0397  2.1181
  248MOL0     H34220  10.544   7.131   3.601 -0.0860  0.4527 -0.1761
  248MOL0     H34221  10.357   7.383   4.322  2.0241  2.9435  0.9301
  248MOL0     H34222  10.374   7.431   4.570 -1.5744  2.1594 -1.2742
  248MOL0     H34223  10.227   7.441   4.669 -3.8531 -1.3029 -1.4720
  248MOL0     H34224  10.251   7.299   4.569 -0.9264 -0.5142 -0.8797
  249MOL0     O34225   8.865   1.568   7.068 -0.7636  0.0063  0.2175
  249MOL0     C34226   8.932   1.648   7.142  0.2244  1.5722 -0.0229
  249MOL0     O34227   8.884   1.759   7.204 -0.7515  0.3035  0.0592
  249MOL0     C34228   8.755   1.808   7.190  0.4991 -0.2867 -1.1276
  249MOL0     C34229   8.713   1.913   7.104 -0.2643  0.0356 -0.2931
  249MOL0     C34230   8.574   1.945   7.093 -0.4934  0.4544 -0.0049
  249MOL0     C34231   8.476   1.878   7.168  0.4680  0.6842  0.3465
  249MOL0     O34232   8.344   1.924   7.160 -0.5844 -0.2740  0.3617
  249MOL0     C34233   8.247   1.852   7.244 -0.4772  0.5913 -0.2503
  249MOL0     C34234   8.113   1.896   7.205  1.2170 -0.5057 -0.8271
  249MOL0     C34235   8.014   1.881   7.314  0.3211  0.4649  0.7501
  249MOL0     C34236   7.883   1.953   7.280  0.2086  0.0517  0.0226
  249MOL0     C34237   7.787   1.940   7.391 -0.4679  0.8156 -1.0933
  249MOL0     C34238   7.740   1.800   7.451  0.6835  0.3041  0.5410
  249MOL0     C34239   7.614   1.805   7.540  0.2949 -0.4193 -0.9737
  249MOL0     C34240   7.583   1.669   7.606 -0.9377  1.2989  0.3660
  249MOL0     N34241   7.521   1.695   7.736 -0.6949  0.1497 -0.4324
  249MOL0     C34242   7.593   1.750   7.839  0.0532 -0.2341  1.6058
  249MOL0     C34243   7.504   1.767   7.938  0.5632  0.4428 -0.2721
  249MOL0     C34244   7.530   1.815   8.079  0.0412 -0.1786  0.3348
  249MOL0     C34245   7.414   1.872   8.148 -0.6403  1.0949 -0.6222
  249MOL0     C34246   7.360   2.006   8.103 -0.1270 -0.0950  0.5278
  249MOL0     C34247   7.449   2.125   8.104  0.8817  0.3376  0.5253
  249MOL0     O34248   7.523   2.113   8.225 -0.8815  0.6075 -0.0287
  249MOL0     C34249   7.653   2.157   8.240  0.4301 -0.2483  1.4802
  249MOL0     C34250   7.734   2.098   8.333  0.0398 -0.0913 -0.9192
  249MOL0     C34251   7.863   2.132   8.364  0.2119  0.2346 -0.3688
  249MOL0     C34252   7.920   2.087   8.502  0.1787 -0.5128  0.5698
  249MOL0     C34253   7.926   2.232   8.280  0.1202 -0.9315  0.5470
  249MOL0     C34254   8.073   2.268   8.290  0.3654  0.2269  1.1946
  249MOL0     O34255   8.145   2.155   8.325  0.3584  0.2165 -0.0326
  249MOL0     C34256   8.281   2.148   8.347 -0.3106  0.1576 -0.3077
  249MOL0     C34257   8.332   2.109   8.471  0.5971 -0.3344 -0.0365
  249MOL0     C34258   8.462   2.120   8.510  0.0204  0.7606 -0.4189
  249MOL0     C34259   8.561   2.138   8.407  0.0994  0.1924 -0.3236
  249MOL0     O34260   8.699   2.135   8.426 -0.5633  0.1567  0.5562
  249MOL0     C34261   8.744   2.220   8.529  0.2960 -0.3068 -1.1330
  249MOL0     C34262   8.856   2.148   8.608  0.2343  0.3409 -0.2218
  249MOL0     C34263   8.842   2.166   8.757 -0.3025  0.2213  0.2412
  249MOL0     C34264   8.891   2.303   8.791  0.4108 -0.4361 -0.7474
  249MOL0     C34265   8.937   2.296   8.939  0.1936 -0.7343  0.9661
  249MOL0     C34266   8.827   2.270   9.031 -0.2538 -0.3369  0.1630
  249MOL0     C34267   8.880   2.301   9.174 -0.4864  0.2088 -0.1453
  249MOL0     C34268   8.774   2.229   9.267  0.9797  0.9364  0.1416
  249MOL0    Cl34269   8.628   2.321   9.259  0.1442  0.0967 -0.2714
  249MOL0     C34270   8.514   2.171   8.277 -0.0672 -0.2922  0.0992
  249MOL0     C34271   8.373   2.182   8.255 -0.2279  1.0368 -0.2382
  249MOL0     O34272   8.122   2.376   8.240  0.2170  0.4581  0.7392
  249MOL0     C34273   7.845   2.298   8.189  0.0584 -0.3722 -0.0944
  249MOL0     C34274   7.711   2.269   8.172  0.4949 -0.2041  0.8361
  249MOL0     N34275   7.389   1.741   7.885 -0.4630  0.5343  0.6204
  249MOL0     N34276   7.389   1.701   7.766 -0.3341  0.3348  0.0470
  249MOL0     C34277   8.522   1.778   7.250  0.2412 -0.3270  0.7849
  249MOL0     C34278   8.655   1.747   7.269  0.3641  0.4686  0.7067
  249MOL0     C34279   9.072   1.604   7.175  0.8491 -1.1537  0.2233
  249MOL0     C34280   9.130   1.661   7.285  0.2117  0.3843 -0.4464
  249MOL0     C34281   9.254   1.623   7.327  0.4455 -0.0199 -0.3439
  249MOL0     C34282   9.333   1.543   7.249  0.9853  0.8368  0.4375
  249MOL0     O34283   9.455   1.507   7.299  0.4250  0.0285  0.0847
  249MOL0     C34284   9.549   1.468   7.202 -0.3289 -0.1905 -0.2039
  249MOL0     C34285   9.686   1.504   7.245 -0.9988 -0.1756  0.4219
  249MOL0     C34286   9.781   1.457   7.147  0.4814  0.3383  0.4835
  249MOL0     C34287   9.912   1.512   7.182 -0.1733  0.5849  0.0501
  249MOL0     C34288  10.021   1.466   7.086 -0.5024  0.5063  0.4243
  249MOL0     C34289  10.120   1.430   7.025  0.5275  0.5347  0.1669
  249MOL0     C34290   9.275   1.480   7.129  0.1273 -0.4872  0.8151
  249MOL0     C34291   9.147   1.521   7.092  0.1864 -0.5169 -0.1167
  249MOL0     C34292   9.111   1.479   6.949 -0.1901 -0.4472  0.4852
  249MOL0     H34293   8.781   1.952   7.028 -1.1345 -0.4148 -1.3394
  249MOL0     H34294   8.549   2.010   7.010 -0.3624  2.0246  1.1540
  249MOL0     H34295   8.263   1.893   7.344  2.6774 -1.1437  0.0614
  249MOL0     H34296   8.253   1.743   7.243 -1.1627  0.5113 -2.6065
  249MOL0     H34297   8.117   2.000   7.170 -1.7862 -0.2726 -0.7165
  249MOL0     H34298   8.077   1.827   7.128 -1.0950  1.2243 -1.4023
  249MOL0     H34299   7.987   1.775   7.306 -1.8248  1.1177 -3.4913
  249MOL0     H34300   8.048   1.913   7.413 -0.3137 -0.7466  1.3843
  249MOL0     H34301   7.900   2.055   7.245 -2.0861  0.0291 -1.3594
  249MOL0     H34302   7.832   1.903   7.197  0.7929 -0.8382  0.1887
  249MOL0     H34303   7.705   2.006   7.361 -0.3629  1.8744  0.7948
  249MOL0     H34304   7.836   1.987   7.477 -2.4190  0.0306  0.5198
  249MOL0     H34305   7.730   1.744   7.358 -1.2801  0.8361  0.3915
  249MOL0     H34306   7.811   1.745   7.514  0.7488 -2.0882 -1.4793
  249MOL0     H34307   7.528   1.846   7.486 -0.4345  2.1333  1.8441
  249MOL0     H34308   7.632   1.887   7.611 -2.6006  0.3780 -1.0200
  249MOL0     H34309   7.522   1.604   7.541  0.2985 -0.3646  0.8054
  249MOL0     H34310   7.676   1.616   7.626 -1.4048 -0.3449 -1.4133
  249MOL0     H34311   7.695   1.787   7.837 -0.4918  1.3463 -0.5154
  249MOL0     H34312   7.608   1.889   8.059  3.2218 -3.0670  1.1172
  249MOL0     H34313   7.579   1.735   8.134  0.0511  1.6201  3.1314
  249MOL0     H34314   7.329   1.804   8.151 -0.5720  0.9580 -1.5599
  249MOL0     H34315   7.422   1.877   8.257 -1.2722 -2.1713 -0.3215
  249MOL0     H34316   7.315   1.998   8.003 -2.6609 -2.1945  1.7283
  249MOL0     H34317   7.284   2.042   8.173  0.8582  1.9907  0.6120
  249MOL0     H34318   7.513   2.126   8.016 -0.2013  1.0793 -0.2728
  249MOL0     H34319   7.393   2.218   8.114  1.7021  0.9213 -0.2240
  249MOL0     H34320   7.690   2.036   8.410  1.0548  3.5049  2.8771
  249MOL0     H34321   7.971   2.163   8.561 -1.1163 -0.0453  1.1240
  249MOL0     H34322   7.991   2.004   8.500 -0.7680 -1.3471 -0.4093
  249MOL0     H34323   7.839   2.051   8.567 -0.2301  0.1397  0.4249
  249MOL0     H34324   8.260   2.077   8.545 -0.8479 -4.9557 -3.0333
  249MOL0     H34325   8.484   2.097   8.613 -1.2042 -0.4403 -0.3942
  249MOL0     H34326   8.786   2.315   8.495 -1.0739  1.5869  1.9851
  249MOL0     H34327   8.666   2.246   8.601  0.3935 -1.1624 -0.6973
  249MOL0     H34328   8.833   2.042   8.594 -0.6684  0.2481  1.6688
  249MOL0     H34329   8.958   2.179   8.587  0.0040  2.1058  1.0165
  249MOL0     H34330   8.902   2.092   8.810 -1.9783  0.1028  2.0531
  249MOL0     H34331   8.737   2.152   8.784 -0.0550 -0.4425  0.8718
  249MOL0     H34332   8.809   2.373   8.770  0.5653 -0.2197 -0.6264
  249MOL0     H34333   8.983   2.328   8.737  1.1843 -0.9577  0.3058
  249MOL0     H34334   9.015   2.221   8.954 -0.1177 -1.0009  1.2859
  249MOL0     H34335   8.982   2.394   8.953 -1.6342  0.0228  1.8843
  249MOL0     H34336   8.805   2.164   9.014 -3.1462  0.4253 -1.6258
  249MOL0     H34337   8.747   2.333   8.990  1.3811  1.7703  0.0385
  249MOL0     H34338   8.889   2.410   9.176  2.7298  0.0307 -0.3529
  249MOL0     H34339   8.978   2.252   9.168 -0.5124 -0.2847  2.3425
  249MOL0     H34340   8.814   2.212   9.367  1.4252  0.7120 -0.0696
  249MOL0     H34341   8.756   2.125   9.236  0.8792  0.7935  0.6752
  249MOL0     H34342   8.592   2.174   8.202  0.9885 -0.5888  1.1690
  249MOL0     H34343   8.333   2.192   8.155 -0.8429 -1.1697 -0.2627
  249MOL0     H34344   7.893   2.383   8.140  1.1601  1.0077  3.0820
  249MOL0     H34345   7.661   2.319   8.090 -0.5333  2.7777  3.1127
  249MOL0     H34346   8.444   1.737   7.313  0.3241 -0.3237  0.8878
  249MOL0     H34347   8.688   1.674   7.342  2.4222 -1.0070 -1.5359
  249MOL0     H34348   9.078   1.735   7.345  2.1998  2.8310 -1.5972
  249MOL0     H34349   9.294   1.652   7.424 -2.2863 -3.0575  1.9382
  249MOL0     H34350   9.549   1.361   7.183 -0.1993 -0.1898 -0.2043
  249MOL0     H34351   9.525   1.521   7.109  1.0868  2.0947  0.6553
  249MOL0     H34352   9.710   1.465   7.345 -0.4719 -1.5122 -0.2098
  249MOL0     H34353   9.684   1.613   7.255  1.6271 -0.1645  1.6999
  249MOL0     H34354   9.779   1.348   7.153 -0.1052  0.1357 -2.3766
  249MOL0     H34355   9.749   1.487   7.047 -1.9823  2.8952  1.8972
  249MOL0     H34356   9.945   1.480   7.281  0.2463 -2.8059 -1.0588
  249MOL0     H34357   9.917   1.621   7.178  2.2997  0.5441  0.6308
  249MOL0     H34358  10.202   1.397   6.963 -1.2267  1.2443 -2.7258
  249MOL0     H34359   9.327   1.424   7.053 -2.1617  2.5693 -3.4035
  249MOL0     H34360   9.086   1.573   6.899  3.2698 -0.6779 -2.0831
  249MOL0     H34361   9.190   1.435   6.887  0.2723  1.5322 -0.4341
  249MOL0     H34362   9.023   1.414   6.938 -2.4946  2.7548 -2.4583
  250MOL0     O34363   8.233   5.543   2.766 -0.3296  0.3502  0.5687
  250MOL0     C34364   8.143   5.626   2.774  0.1093 -0.0210  0.4093
  250MOL0     O34365   8.061   5.665   2.673 -0.1985  0.7393  0.0956
  250MOL0     C34366   8.085   5.643   2.549 -0.0935 -0.2947 -0.4631
  250MOL0     C34367   7.985   5.593   2.478 -0.3482 -0.5558 -0.2093
  250MOL0     C34368   8.003   5.570   2.342 -0.9660  0.3741 -0.3910
  250MOL0     C34369   8.123   5.604   2.278 -0.3423  0.0310 -0.0021
  250MOL0     O34370   8.125   5.587   2.140  0.0906  0.4689 -0.6615
  250MOL0     C34371   8.175   5.685   2.053 -0.2796  0.9887  0.5984
  250MOL0     C34372   8.058   5.758   1.987  0.0522 -0.1275  0.4079
  250MOL0     C34373   8.108   5.873   1.910  0.0331 -0.3194  0.1539
  250MOL0     C34374   8.136   5.836   1.764 -0.9002 -0.1180  0.3805
  250MOL0     C34375   8.151   5.965   1.688  0.3378 -0.8851 -0.8853
  250MOL0     C34376   8.213   5.953   1.540  0.3421 -0.2262 -0.1986
  250MOL0     C34377   8.179   6.073   1.456  0.2957  0.0551 -0.3642
  250MOL0     C34378   8.272   6.185   1.503 -0.6915 -0.5235 -1.1356
  250MOL0     N34379   8.252   6.322   1.447 -0.0290 -0.0201 -0.1851
  250MOL0     C34380   8.243   6.349   1.310  0.0533  0.8040 -0.3783
  250MOL0     C34381   8.249   6.481   1.297 -1.1007 -0.0944 -0.2265
  250MOL0     C34382   8.255   6.558   1.166 -0.7323  0.2176  0.0918
  250MOL0     C34383   8.166   6.490   1.062 -0.3056  0.4544 -0.7627
  250MOL0     C34384   8.156   6.560   0.931  0.5893  0.8218  1.1708
  250MOL0     C34385   8.086   6.696   0.925  0.1650  0.5134 -0.2629
  250MOL0     O34386   7.980   6.700   1.024  0.5944 -0.6588  0.3014
  250MOL0     C34387   7.958   6.814   1.096  0.4737 -1.3462 -0.3436
  250MOL0     C34388   7.972   6.839   1.231 -0.5562  0.4410  0.5472
  250MOL0     C34389   7.954   6.967   1.285 -0.7738 -0.8526  0.1736
  250MOL0     C34390   7.984   6.973   1.437 -0.6654  0.8739  0.5302
  250MOL0     C34391   7.927   7.078   1.210 -0.6107 -0.8616 -0.9192
  250MOL0     C34392   7.925   7.210   1.265  0.1841 -0.6003  0.4949
  250MOL0     O34393   7.814   7.235   1.350  0.1288 -0.2287 -0.9130
  250MOL0     C34394   7.827   7.348   1.429  0.3075  0.0258 -0.1569
  250MOL0     C34395   7.910   7.358   1.547  0.4301  1.1251  1.0724
  250MOL0     C34396   7.917   7.476   1.619  0.2114  0.5710  0.0555
  250MOL0     C34397   7.829   7.582   1.597 -0.2302  0.0065 -0.4130
  250MOL0     O34398   7.826   7.706   1.657 -0.7556 -0.2195  0.0204
  250MOL0     C34399   7.931   7.732   1.758 -0.4402 -0.1508  0.6476
  250MOL0     C34400   7.918   7.877   1.802  0.0662 -0.6900 -0.1428
  250MOL0     C34401   7.958   7.971   1.692 -0.9124 -0.4768 -0.4114
  250MOL0     C34402   7.835   8.024   1.616  0.8867  0.6231  1.0945
  250MOL0     C34403   7.864   8.142   1.513 -0.5583  0.2838 -0.2534
  250MOL0     C34404   7.730   8.180   1.451 -0.2606  0.5347 -0.7819
  250MOL0     C34405   7.734   8.318   1.364 -0.7652  0.5136 -0.2985
  250MOL0     C34406   7.587   8.363   1.337 -0.3028  0.0938  0.7939
  250MOL0    Cl34407   7.460   8.240   1.315 -0.2993 -0.0098 -0.1839
  250MOL0     C34408   7.736   7.565   1.494  0.7427  0.2021 -0.0899
  250MOL0     C34409   7.742   7.453   1.405 -0.1500 -0.6102 -0.0268
  250MOL0     O34410   8.011   7.287   1.223  0.3732 -1.4585  0.4342
  250MOL0     C34411   7.914   7.051   1.074 -0.1623 -0.0188 -0.7650
  250MOL0     C34412   7.920   6.926   1.022 -0.6634  0.3462  0.1158
  250MOL0     N34413   8.261   6.537   1.423 -0.1594  0.4612 -0.2521
  250MOL0     N34414   8.284   6.439   1.512 -0.1529 -0.8449 -0.1130
  250MOL0     C34415   8.229   5.648   2.358 -0.4002 -0.2767  0.0411
  250MOL0     C34416   8.216   5.671   2.491  0.3759  0.0485 -0.0197
  250MOL0     C34417   8.107   5.680   2.906 -0.1113  0.4494  0.0599
  250MOL0     C34418   7.971   5.704   2.943  0.5744  1.1342  0.3701
  250MOL0     C34419   7.930   5.740   3.066 -0.3590 -0.3293 -0.5617
  250MOL0     C34420   8.031   5.775   3.164  0.2912 -0.4301 -0.5408
  250MOL0     O34421   7.971   5.829   3.279 -0.5093  0.4081 -0.4626
  250MOL0     C34422   8.064   5.822   3.394  0.5240 -0.9529 -0.3794
  250MOL0     C34423   8.093   5.691   3.450  0.3741  0.7620 -0.2507
  250MOL0     C34424   8.144   5.702   3.598  0.3557  0.1736  0.1690
  250MOL0     C34425   8.185   5.572   3.651  0.3023  0.3004 -0.1826
  250MOL0     C34426   8.261   5.593   3.776  0.3413 -0.0974 -0.5145
  250MOL0     C34427   8.314   5.607   3.884 -0.2937  0.2130  0.8649
  250MOL0     C34428   8.164   5.764   3.137 -0.2187  0.0325 -1.4783
  250MOL0     C34429   8.201   5.713   3.009 -0.4075 -0.6099 -1.3659
  250MOL0     C34430   8.346   5.689   2.995 -0.7658 -0.1597 -0.4387
  250MOL0     H34431   7.885   5.582   2.519  0.0199 -0.1592  0.8236
  250MOL0     H34432   7.922   5.518   2.291 -0.0460 -2.7816  1.0904
  250MOL0     H34433   8.251   5.646   1.986  1.1024  3.9062  0.3134
  250MOL0     H34434   8.230   5.760   2.111  0.0609 -1.4620  3.7168
  250MOL0     H34435   7.990   5.690   1.935  1.0801 -1.2906  0.5559
  250MOL0     H34436   7.997   5.797   2.070  3.0820  5.5493  0.4677
  250MOL0     H34437   8.030   5.949   1.900 -1.4126 -1.4990  1.8887
  250MOL0     H34438   8.181   5.933   1.966 -1.7167  0.5933  1.5792
  250MOL0     H34439   8.231   5.781   1.760 -1.6113 -1.4958  1.8180
  250MOL0     H34440   8.054   5.781   1.717 -1.1862  1.0490 -0.5534
  250MOL0     H34441   8.210   6.043   1.738 -0.0645 -0.2819 -1.3319
  250MOL0     H34442   8.048   6.002   1.692  1.3819  2.2871 -0.4009
  250MOL0     H34443   8.322   5.941   1.540  0.8450  2.9753  2.2761
  250MOL0     H34444   8.164   5.863   1.503  3.0875 -2.1533  0.5713
  250MOL0     H34445   8.076   6.101   1.478  0.1148 -0.5211 -0.4784
  250MOL0     H34446   8.202   6.050   1.352  4.0246 -0.0303  0.3276
  250MOL0     H34447   8.267   6.208   1.610 -1.5619 -0.5158 -1.1748
  250MOL0     H34448   8.371   6.155   1.467 -0.5966  1.5290 -2.7672
  250MOL0     H34449   8.232   6.275   1.231  3.0216  0.0321 -0.1802
  250MOL0     H34450   8.360   6.550   1.136  0.1082 -2.1720  3.1109
  250MOL0     H34451   8.217   6.661   1.166 -0.2799  0.4174 -1.8629
  250MOL0     H34452   8.218   6.398   1.035 -1.8007 -1.1934  1.5070
  250MOL0     H34453   8.068   6.463   1.103  0.1601  1.0398  0.8196
  250MOL0     H34454   8.258   6.574   0.894 -0.3777  0.1434 -2.0622
  250MOL0     H34455   8.098   6.503   0.857  3.7531 -0.2674 -0.6816
  250MOL0     H34456   8.166   6.770   0.933  1.6242 -1.0184 -0.1097
  250MOL0     H34457   8.028   6.718   0.835  1.5255  1.2084 -1.0078
  250MOL0     H34458   7.998   6.752   1.290 -3.0422  0.5797  2.0130
  250MOL0     H34459   7.998   7.076   1.471  1.7513  1.2809 -1.4257
  250MOL0     H34460   8.067   6.907   1.464  0.0853  0.5622 -2.2698
  250MOL0     H34461   7.897   6.926   1.484 -1.2147  0.9697 -0.3699
  250MOL0     H34462   7.966   7.275   1.590 -0.5541 -0.8892 -1.2904
  250MOL0     H34463   7.981   7.479   1.707 -0.5925 -0.9739  0.7348
  250MOL0     H34464   7.919   7.668   1.846 -0.4737  0.1291  0.8483
  250MOL0     H34465   8.029   7.723   1.711 -0.5480  1.1576  0.0964
  250MOL0     H34466   7.815   7.901   1.830 -0.5576  0.2451 -2.9724
  250MOL0     H34467   7.995   7.892   1.879 -0.1420  2.0401 -0.3842
  250MOL0     H34468   8.038   7.930   1.630 -1.2680  1.1293 -2.0357
  250MOL0     H34469   8.004   8.057   1.742 -2.7391  0.3771 -0.1254
  250MOL0     H34470   7.757   8.049   1.688 -2.9834 -1.6645 -1.8932
  250MOL0     H34471   7.781   7.945   1.563  1.2761 -0.6741  2.5701
  250MOL0     H34472   7.898   8.226   1.575 -0.2258  0.4311 -0.6343
  250MOL0     H34473   7.932   8.102   1.438 -1.2599 -4.4779  1.3301
  250MOL0     H34474   7.657   8.175   1.532 -0.0946 -1.1961 -0.7188
  250MOL0     H34475   7.700   8.106   1.376  1.1568  0.6156 -1.4673
  250MOL0     H34476   7.781   8.305   1.266 -3.9416 -0.0090 -1.8895
  250MOL0     H34477   7.776   8.401   1.422  1.8117 -0.0809 -1.1437
  250MOL0     H34478   7.601   8.441   1.262 -2.5228  1.2977  1.5722
  250MOL0     H34479   7.554   8.428   1.418 -4.7965  2.3072 -2.3800
  250MOL0     H34480   7.672   7.647   1.464  3.1161  1.5780 -1.7506
  250MOL0     H34481   7.667   7.443   1.327 -0.8474  2.0441  0.2155
  250MOL0     H34482   7.875   7.123   1.003  1.5700 -0.2295 -1.9721
  250MOL0     H34483   7.905   6.922   0.914 -0.1336 -0.2587  0.0601
  250MOL0     H34484   8.324   5.667   2.308  0.7700 -1.0092  1.8828
  250MOL0     H34485   8.312   5.660   2.540  0.3447 -0.5115 -0.0797
  250MOL0     H34486   7.901   5.677   2.864  3.0288  4.2398 -3.2168
  250MOL0     H34487   7.824   5.757   3.086 -0.4001 -1.4485  0.2228
  250MOL0     H34488   8.160   5.868   3.372  0.3849 -1.1935 -1.5632
  250MOL0     H34489   8.025   5.893   3.467 -1.7752  1.6732 -3.8403
  250MOL0     H34490   8.163   5.633   3.389  0.0718 -0.9897  0.9738
  250MOL0     H34491   8.000   5.634   3.457  1.0399 -0.8070 -2.9030
  250MOL0     H34492   8.234   5.763   3.598  0.2219  0.3874 -0.9760
  250MOL0     H34493   8.055   5.741   3.650  1.7248  2.3438  1.0310
  250MOL0     H34494   8.248   5.516   3.582  0.6887 -1.5681  1.5843
  250MOL0     H34495   8.106   5.504   3.684  1.0455 -0.0946  0.8487
  250MOL0     H34496   8.338   5.619   3.988 -0.2928 -1.1736  1.0426
  250MOL0     H34497   8.245   5.786   3.205 -1.4264  2.0747 -0.6051
  250MOL0     H34498   8.380   5.730   2.899 -1.2563 -1.3001 -1.1159
  250MOL0     H34499   8.404   5.736   3.076  1.2956 -3.2155  0.0470
  250MOL0     H34500   8.381   5.585   2.996  0.2717  0.1652  0.5231
  251MOL0     O34501   8.034   9.432   5.344  0.5912  0.0617 -0.0136
  251MOL0     C34502   8.062   9.486   5.452  0.3689 -0.3958  0.5140
  251MOL0     O34503   8.188   9.514   5.501  1.2264  0.3256 -0.4613
  251MOL0     C34504   8.294   9.526   5.405 -0.2379 -0.4100 -0.4384
  251MOL0     C34505   8.411   9.456   5.421  0.5614  0.6426 -0.4224
  251MOL0     C34506   8.522   9.494   5.344 -0.2037 -0.6021  0.3584
  251MOL0     C34507   8.526   9.612   5.262 -0.2214 -0.1722  0.4542
  251MOL0     O34508   8.644   9.626   5.198 -0.1429 -0.0635  0.4057
  251MOL0     C34509   8.658   9.746   5.110 -0.5371 -0.1665  0.6957
  251MOL0     C34510   8.809   9.751   5.051 -0.1155  0.9584 -0.4884
  251MOL0     C34511   8.871   9.614   5.020 -0.0043  0.5643 -0.1666
  251MOL0     C34512   8.800   9.538   4.915 -0.6153  0.3102  0.0298
  251MOL0     C34513   8.876   9.418   4.853  0.1320  0.6777  0.0530
  251MOL0     C34514   8.822   9.380   4.715 -0.0946  0.2205  0.4823
  251MOL0     C34515   8.692   9.288   4.706 -0.9565 -0.2192  0.2624
  251MOL0     C34516   8.650   9.254   4.560 -0.0061 -0.3102  0.2547
  251MOL0     N34517   8.730   9.138   4.513  0.3844 -0.1513  0.1625
  251MOL0     C34518   8.715   9.008   4.551  0.4128  0.1349 -0.0365
  251MOL0     C34519   8.793   8.943   4.468 -0.2052 -0.2070  0.3567
  251MOL0     C34520   8.811   8.795   4.489  0.5660 -0.5652  0.6850
  251MOL0     C34521   8.964   8.774   4.501  0.0459 -0.1480 -0.4683
  251MOL0     C34522   8.973   8.623   4.512 -0.2095  0.0218  0.5475
  251MOL0     C34523   9.116   8.566   4.549 -0.2921 -0.1867 -0.1715
  251MOL0     O34524   9.165   8.489   4.432  0.3225 -0.3843  0.5222
  251MOL0     C34525   9.201   8.565   4.320 -0.3918 -0.1984  0.2870
  251MOL0     C34526   9.310   8.651   4.327 -0.3511  0.6650  0.2512
  251MOL0     C34527   9.355   8.717   4.214 -0.3501  0.6123  0.4446
  251MOL0     C34528   9.495   8.783   4.216 -0.0089 -0.8478  1.2797
  251MOL0     C34529   9.282   8.713   4.088 -0.1355  0.6041 -0.6248
  251MOL0     C34530   9.327   8.774   3.963 -0.4582 -0.3814 -0.2028
  251MOL0     O34531   9.450   8.745   3.908  0.3189 -0.1862  0.1052
  251MOL0     C34532   9.487   8.832   3.803  0.1115  0.5398  0.3530
  251MOL0     C34533   9.541   8.947   3.844  0.4661  0.1945  0.1247
  251MOL0     C34534   9.581   9.037   3.749  0.5074 -0.4726  0.4774
  251MOL0     C34535   9.581   9.012   3.616 -0.7553  0.9344 -0.5517
  251MOL0     O34536   9.624   9.101   3.512  0.1392  0.2216 -0.3458
  251MOL0     C34537   9.569   9.237   3.518 -0.5310 -0.2959  0.5310
  251MOL0     C34538   9.634   9.326   3.416 -0.2972  0.4348  0.4475
  251MOL0     C34539   9.780   9.329   3.436 -1.0561 -0.9135 -0.3177
  251MOL0     C34540   9.845   9.434   3.353 -0.8146  0.2128  0.2019
  251MOL0     C34541   9.844   9.408   3.203  0.4460 -0.4658  1.0889
  251MOL0     C34542   9.924   9.513   3.134 -0.5271  0.9898  0.3887
  251MOL0     C34543   9.900   9.503   2.974 -0.9577  0.5623 -0.2184
  251MOL0     C34544   9.863   9.370   2.908  0.2447  0.0167 -0.1315
  251MOL0    Cl34545   9.917   9.386   2.738 -0.0588 -0.2253 -0.1845
  251MOL0     C34546   9.527   8.884   3.573  0.3039 -0.5374  0.5684
  251MOL0     C34547   9.483   8.798   3.673 -0.4231  0.6050  0.5396
  251MOL0     O34548   9.250   8.860   3.920  0.8344 -0.3996 -0.2951
  251MOL0     C34549   9.167   8.629   4.082 -0.4145 -0.0180  0.7504
  251MOL0     C34550   9.135   8.547   4.195 -0.0257  0.1619 -0.5343
  251MOL0     N34551   8.864   9.030   4.391 -0.0940  0.0461 -0.4858
  251MOL0     N34552   8.823   9.146   4.417  0.1198 -0.1429 -0.7756
  251MOL0     C34553   8.408   9.684   5.253  0.0503  0.4800 -0.3238
  251MOL0     C34554   8.287   9.640   5.318  0.6541  0.6851 -0.2794
  251MOL0     C34555   7.939   9.521   5.533 -0.1781  0.1379 -0.1737
  251MOL0     C34556   7.828   9.568   5.462  0.5825 -0.0048  0.9891
  251MOL0     C34557   7.710   9.600   5.534 -1.7214 -0.1314 -0.1708
  251MOL0     C34558   7.702   9.585   5.677  0.4168  0.3551  0.0203
  251MOL0     O34559   7.584   9.615   5.741 -0.0165  0.4800 -0.0975
  251MOL0     C34560   7.540   9.523   5.845  0.8120  0.1255 -0.8977
  251MOL0     C34561   7.393   9.541   5.894  0.1623  0.1367 -0.5853
  251MOL0     C34562   7.344   9.405   5.956 -0.3395 -1.2355  0.0350
  251MOL0     C34563   7.367   9.402   6.110  0.5104  0.2309  0.1444
  251MOL0     C34564   7.327   9.270   6.155  0.4848  0.1644 -0.4601
  251MOL0     C34565   7.275   9.165   6.196  0.3611  0.8872  0.6894
  251MOL0     C34566   7.812   9.539   5.745  0.8443  0.2626 -0.4018
  251MOL0     C34567   7.932   9.509   5.678  0.7334  0.1068 -0.6241
  251MOL0     C34568   8.044   9.438   5.760 -0.0037  0.5369  0.5364
  251MOL0     H34569   8.420   9.389   5.505 -1.6247 -1.0259 -1.4135
  251MOL0     H34570   8.616   9.440   5.348 -1.4076 -3.5133 -3.9048
  251MOL0     H34571   8.622   9.840   5.153  2.6280  1.1376  0.8176
  251MOL0     H34572   8.592   9.735   5.024 -2.1257  5.9848  0.6801
  251MOL0     H34573   8.807   9.813   4.961 -0.1163  0.8374 -0.5734
  251MOL0     H34574   8.870   9.812   5.118  0.5058 -0.5420  0.3733
  251MOL0     H34575   8.970   9.632   4.978  0.6126 -0.1444  0.9538
  251MOL0     H34576   8.870   9.548   5.107 -1.2691 -0.8151 -1.1814
  251MOL0     H34577   8.707   9.495   4.955 -0.1569 -1.0607 -0.3486
  251MOL0     H34578   8.775   9.606   4.833  1.9390  0.9493 -0.2932
  251MOL0     H34579   8.867   9.329   4.917 -0.0397  1.1465  0.6946
  251MOL0     H34580   8.984   9.435   4.844  0.5014 -0.9213  1.1150
  251MOL0     H34581   8.801   9.473   4.661 -3.3469  0.6513  2.2186
  251MOL0     H34582   8.896   9.323   4.658 -1.1589  0.3201 -1.0701
  251MOL0     H34583   8.609   9.347   4.748 -0.6602 -0.8766  1.8372
  251MOL0     H34584   8.710   9.199   4.766 -0.3151 -0.0733  0.2944
  251MOL0     H34585   8.542   9.256   4.548 -0.1311  5.2777 -0.1814
  251MOL0     H34586   8.691   9.337   4.503  2.0236  0.4652  2.6419
  251MOL0     H34587   8.663   8.965   4.635 -1.2110 -1.2782 -1.6606
  251MOL0     H34588   8.772   8.737   4.405  0.1862 -0.0315  0.4848
  251MOL0     H34589   8.754   8.765   4.578 -0.1893  1.6458  1.0079
  251MOL0     H34590   9.020   8.811   4.415  0.9907  0.3575  0.3364
  251MOL0     H34591   9.002   8.814   4.596 -2.5037  0.5810  0.3315
  251MOL0     H34592   8.925   8.593   4.605  1.7567  0.7062  1.8553
  251MOL0     H34593   8.944   8.575   4.418  1.6845 -0.0743 -0.0382
  251MOL0     H34594   9.178   8.656   4.548  0.5962 -0.7755 -1.1196
  251MOL0     H34595   9.111   8.515   4.645  0.8136 -0.2567 -0.1413
  251MOL0     H34596   9.371   8.670   4.415  1.9062 -1.7872 -0.6427
  251MOL0     H34597   9.543   8.811   4.122  0.0887 -0.3819  1.4664
  251MOL0     H34598   9.571   8.722   4.265  0.3701 -0.4583  1.1873
  251MOL0     H34599   9.479   8.873   4.276  3.1192  0.7703 -0.0685
  251MOL0     H34600   9.543   8.967   3.950  1.5476 -1.3210  0.4131
  251MOL0     H34601   9.632   9.126   3.784  0.0306  0.2157 -0.5488
  251MOL0     H34602   9.461   9.244   3.501 -0.4277 -1.8959 -1.0202
  251MOL0     H34603   9.598   9.274   3.617  0.2617  1.1664 -0.2085
  251MOL0     H34604   9.607   9.287   3.317  0.2638 -0.4038  0.6203
  251MOL0     H34605   9.590   9.426   3.423  1.7869  1.4737 -0.4192
  251MOL0     H34606   9.826   9.236   3.402  1.4753  0.4066 -0.8413
  251MOL0     H34607   9.810   9.353   3.538  1.2129  1.2163 -1.3662
  251MOL0     H34608   9.948   9.433   3.390 -0.1697 -2.5289 -1.3774
  251MOL0     H34609   9.802   9.534   3.363  0.7350  1.1281 -1.5785
  251MOL0     H34610   9.878   9.306   3.183 -1.7466 -1.0577  0.1579
  251MOL0     H34611   9.739   9.406   3.174 -0.2003  1.2691  3.0174
  251MOL0     H34612  10.027   9.482   3.153 -0.0702  1.5300 -1.0281
  251MOL0     H34613   9.899   9.617   3.160 -0.5556  1.5554 -1.7016
  251MOL0     H34614   9.997   9.542   2.942  0.8513 -3.0446  0.3086
  251MOL0     H34615   9.821   9.575   2.953 -0.4593  0.5099 -2.4417
  251MOL0     H34616   9.754   9.359   2.904  0.1035  1.0979  0.4099
  251MOL0     H34617   9.909   9.289   2.966  1.1031  2.5573  3.0044
  251MOL0     H34618   9.528   8.861   3.467 -0.5529 -1.3090  0.7079
  251MOL0     H34619   9.444   8.701   3.645  0.6389 -0.2743  1.9975
  251MOL0     H34620   9.119   8.614   3.986 -0.5198  2.5520  0.3286
  251MOL0     H34621   9.051   8.478   4.187  1.6255 -2.0839  0.3469
  251MOL0     H34622   8.403   9.775   5.193 -1.5760  1.3245  0.9839
  251MOL0     H34623   8.190   9.688   5.322 -0.8324 -2.1216  0.3097
  251MOL0     H34624   7.829   9.563   5.354 -0.4442  0.4526  0.9445
  251MOL0     H34625   7.621   9.641   5.486  1.5290  3.7803 -3.6898
  251MOL0     H34626   7.545   9.417   5.820  0.3407 -1.0542  3.2934
  251MOL0     H34627   7.594   9.540   5.938 -3.3053  0.5284  1.6676
  251MOL0     H34628   7.329   9.559   5.807  0.1518  0.3013 -0.5434
  251MOL0     H34629   7.385   9.634   5.951 -2.0426 -0.1202 -0.3704
  251MOL0     H34630   7.238   9.407   5.929 -0.2702  3.4275 -0.8269
  251MOL0     H34631   7.380   9.312   5.912 -1.1061 -1.8815  0.7462
  251MOL0     H34632   7.298   9.474   6.156 -0.1301  2.3039 -3.5890
  251MOL0     H34633   7.466   9.425   6.150 -0.0395  1.6865  0.7772
  251MOL0     H34634   7.229   9.074   6.230 -0.4063  1.5532  1.5005
  251MOL0     H34635   7.819   9.535   5.853 -0.3027  3.3408 -0.1263
  251MOL0     H34636   8.088   9.360   5.698 -1.0612  1.5294 -1.5857
  251MOL0     H34637   8.112   9.517   5.792 -0.8424  1.1667  0.8034
  251MOL0     H34638   7.996   9.394   5.848 -1.3506  2.6073  0.9279
  252MOL0     O34639   0.615   6.448   5.215 -0.1203  0.5597  0.0465
  252MOL0     C34640   0.621   6.555   5.161  0.0382 -0.5595  0.8576
  252MOL0     O34641   0.678   6.660   5.209  0.1064 -0.8011 -0.5179
  252MOL0     C34642   0.718   6.663   5.335 -0.3942 -0.2944 -0.6425
  252MOL0     C34643   0.835   6.612   5.384  0.0059  0.1099 -0.4140
  252MOL0     C34644   0.871   6.623   5.521  0.1492  0.3009 -0.1106
  252MOL0     C34645   0.796   6.702   5.602 -0.7345  0.1969 -0.2417
  252MOL0     O34646   0.859   6.751   5.713 -0.0191 -0.0421 -0.5977
  252MOL0     C34647   0.784   6.826   5.803  0.0014  0.3742  0.1160
  252MOL0     C34648   0.880   6.870   5.914 -0.3358  0.5648  0.5807
  252MOL0     C34649   0.820   6.936   6.037  0.2500 -0.0511 -0.4964
  252MOL0     C34650   0.736   6.854   6.131  0.0487  1.5083 -0.3988
  252MOL0     C34651   0.632   6.938   6.200  0.6055 -0.2763  0.1460
  252MOL0     C34652   0.707   7.052   6.280 -0.4098  0.8132 -1.1320
  252MOL0     C34653   0.619   7.122   6.386  0.5117 -0.0290 -0.0776
  252MOL0     C34654   0.703   7.186   6.487  0.0721 -0.4931 -0.2201
  252MOL0     N34655   0.619   7.266   6.584 -0.3940 -0.6638  0.3926
  252MOL0     C34656   0.576   7.222   6.708 -0.9624  0.5728 -0.0962
  252MOL0     C34657   0.482   7.313   6.738 -0.2325 -0.2227 -0.7795
  252MOL0     C34658   0.421   7.316   6.880  0.0214  0.3462 -0.1782
  252MOL0     C34659   0.468   7.449   6.938  0.5796  0.3864 -1.1747
  252MOL0     C34660   0.429   7.450   7.087  0.8104  1.4778 -0.1305
  252MOL0     C34661   0.467   7.567   7.175 -0.7412 -0.2932 -0.5506
  252MOL0     O34662   0.412   7.552   7.313  0.2379 -0.6665 -0.1455
  252MOL0     C34663   0.417   7.660   7.394  0.4968 -0.4215  0.0984
  252MOL0     C34664   0.520   7.757   7.385 -0.3368 -0.1563  0.0422
  252MOL0     C34665   0.519   7.877   7.459  1.0722  0.1416 -0.6485
  252MOL0     C34666   0.641   7.971   7.456 -0.4077 -0.1538  0.4105
  252MOL0     C34667   0.410   7.884   7.552  0.4980 -0.2190 -0.9320
  252MOL0     C34668   0.391   8.009   7.626 -0.6142 -0.4627  0.2804
  252MOL0     O34669   0.433   8.125   7.573  0.3416 -0.0897  0.4446
  252MOL0     C34670   0.446   8.234   7.653 -0.4169 -0.0487 -1.0774
  252MOL0     C34671   0.571   8.304   7.652 -0.5764 -0.1852 -0.6804
  252MOL0     C34672   0.576   8.431   7.720  0.5268  0.1542 -0.8801
  252MOL0     C34673   0.469   8.480   7.803  0.9707  0.8585  0.6554
  252MOL0     O34674   0.466   8.598   7.867  0.8930  0.6043 -0.0233
  252MOL0     C34675   0.584   8.684   7.859 -0.9665  0.3728  0.4013
  252MOL0     C34676   0.566   8.819   7.940 -0.1297 -0.4599  0.1993
  252MOL0     C34677   0.414   8.863   7.944  0.0687 -0.2355  0.7468
  252MOL0     C34678   0.347   8.876   7.804 -0.3158  0.4724 -0.1070
  252MOL0     C34679   0.219   8.964   7.820  0.5938  0.0001 -0.1856
  252MOL0     C34680   0.182   9.011   7.678  0.6878  0.3213  0.3724
  252MOL0     C34681   0.056   9.111   7.670  0.4706 -0.0428  0.0881
  252MOL0     C34682  -0.025   9.077   7.540  0.4339 -0.8308 -0.5682
  252MOL0    Cl34683  -0.174   9.173   7.532 -0.0585  0.1706  0.2583
  252MOL0     C34684   0.350   8.405   7.797  0.6492 -0.8381  0.0900
  252MOL0     C34685   0.330   8.294   7.719 -0.1719  0.4827  0.2900
  252MOL0     O34686   0.327   7.994   7.727 -0.1617  0.2925  0.0173
  252MOL0     C34687   0.314   7.783   7.563 -0.4952 -0.0525 -0.1007
  252MOL0     C34688   0.308   7.680   7.483  0.1244  0.0139  0.0864
  252MOL0     N34689   0.457   7.401   6.631 -0.3746 -0.4176 -0.7782
  252MOL0     N34690   0.535   7.367   6.539 -0.0072 -0.3548  0.5310
  252MOL0     C34691   0.672   6.758   5.556 -0.5576 -0.1295  0.2321
  252MOL0     C34692   0.636   6.734   5.420  0.3695  0.1008  0.3577
  252MOL0     C34693   0.588   6.567   5.021 -0.8234  0.4962 -0.3091
  252MOL0     C34694   0.682   6.641   4.943  0.1667  0.4304 -0.2782
  252MOL0     C34695   0.654   6.647   4.808  0.2708 -0.2970  0.3493
  252MOL0     C34696   0.540   6.598   4.750 -0.3820 -0.0289  0.0954
  252MOL0     O34697   0.526   6.605   4.614 -0.6114 -0.4153  0.1155
  252MOL0     C34698   0.488   6.487   4.549  0.0475  0.0646  0.0030
  252MOL0     C34699   0.564   6.478   4.414  0.4705 -0.4019 -0.5145
  252MOL0     C34700   0.527   6.601   4.334  0.1204  0.9078  0.1051
  252MOL0     C34701   0.560   6.583   4.185  0.3690 -0.4016  0.5762
  252MOL0     C34702   0.619   6.703   4.114  1.0237  0.5446  0.0165
  252MOL0     C34703   0.680   6.809   4.073 -0.4438  0.6307 -0.6261
  252MOL0     C34704   0.450   6.534   4.832  0.1672  0.3353  0.1631
  252MOL0     C34705   0.474   6.505   4.971  1.4462 -0.7142  0.3488
  252MOL0     C34706   0.373   6.421   5.049  0.1866  0.5490 -0.8161
  252MOL0     H34707   0.918   6.558   5.338 -0.2750 -1.3717  0.7475
  252MOL0     H34708   0.965   6.589   5.563 -0.1840  1.2511  1.4992
  252MOL0     H34709   0.696   6.772   5.841  1.1757 -0.2675  2.0352
  252MOL0     H34710   0.737   6.912   5.755 -0.3394 -1.2612 -2.7315
  252MOL0     H34711   0.932   6.777   5.938 -0.3529  0.4523  0.1872
  252MOL0     H34712   0.951   6.942   5.872 -1.1014  3.4959  3.8739
  252MOL0     H34713   0.908   6.975   6.089 -0.9245  2.3787 -0.1728
  252MOL0     H34714   0.761   7.021   6.001  0.6288  1.1065  1.4642
  252MOL0     H34715   0.687   6.776   6.073 -1.8320  1.5961  0.9752
  252MOL0     H34716   0.812   6.806   6.194 -1.9109 -1.2841  0.0106
  252MOL0     H34717   0.567   6.881   6.267  2.0249 -1.7353  0.3465
  252MOL0     H34718   0.567   6.985   6.126  0.4479 -2.4288 -1.1822
  252MOL0     H34719   0.793   7.004   6.328 -1.0008  1.9633  1.2312
  252MOL0     H34720   0.745   7.130   6.213 -1.0692  0.1010 -2.3575
  252MOL0     H34721   0.543   7.055   6.428 -0.8599 -0.6821 -3.3019
  252MOL0     H34722   0.562   7.203   6.338  0.1755  2.2781  3.7697
  252MOL0     H34723   0.768   7.123   6.549  1.7115  0.3185 -1.0482
  252MOL0     H34724   0.769   7.256   6.435 -2.2615  2.0139 -0.0444
  252MOL0     H34725   0.610   7.139   6.770 -3.5870  1.3989  2.6906
  252MOL0     H34726   0.455   7.229   6.937  0.9469  0.5225 -0.4409
  252MOL0     H34727   0.314   7.293   6.871  0.2288 -0.8743  0.2559
  252MOL0     H34728   0.577   7.457   6.933  0.7085 -1.5904 -2.3242
  252MOL0     H34729   0.429   7.541   6.891  1.0096  1.0828 -0.2039
  252MOL0     H34730   0.319   7.452   7.089  0.4791 -3.6788  1.3646
  252MOL0     H34731   0.471   7.361   7.136  2.7098  3.9592  3.0798
  252MOL0     H34732   0.576   7.562   7.180 -0.6704  1.2563  0.0866
  252MOL0     H34733   0.440   7.663   7.129 -0.5011  0.4183  0.7453
  252MOL0     H34734   0.593   7.735   7.308  0.4067 -1.7005  1.1427
  252MOL0     H34735   0.731   7.917   7.425  0.3390  0.2585  1.7862
  252MOL0     H34736   0.666   8.004   7.557 -1.9007  0.0976  0.7157
  252MOL0     H34737   0.613   8.054   7.391 -1.3765  0.4853  1.6179
  252MOL0     H34738   0.655   8.262   7.597 -0.7533  0.1094 -1.1764
  252MOL0     H34739   0.679   8.464   7.728  0.3353  0.5194  0.3547
  252MOL0     H34740   0.675   8.632   7.891 -1.7420 -0.7514  0.8304
  252MOL0     H34741   0.598   8.718   7.756 -0.4027  2.5450  1.1425
  252MOL0     H34742   0.600   8.792   8.040  1.2900 -0.4352 -0.2439
  252MOL0     H34743   0.641   8.893   7.909  4.6893 -5.1690 -0.8289
  252MOL0     H34744   0.405   8.963   7.988 -3.0885 -1.7569  4.0807
  252MOL0     H34745   0.369   8.793   8.015  2.0073 -2.3574  0.0260
  252MOL0     H34746   0.327   8.771   7.780  0.6776  0.2029  0.2253
  252MOL0     H34747   0.413   8.930   7.736  2.6071 -0.2652  1.9679
  252MOL0     H34748   0.140   8.902   7.866  2.4256  0.8066  4.7304
  252MOL0     H34749   0.245   9.052   7.880  1.3817  1.5537 -2.6811
  252MOL0     H34750   0.150   8.922   7.622  0.3149 -0.1534  1.3312
  252MOL0     H34751   0.273   9.047   7.628  0.3783 -1.2502 -1.4718
  252MOL0     H34752   0.092   9.213   7.652  0.9131 -0.3494 -0.7720
  252MOL0     H34753  -0.004   9.104   7.762  1.1672 -3.7693  0.4092
  252MOL0     H34754  -0.030   8.971   7.514  3.4410 -1.1533 -0.2417
  252MOL0     H34755   0.029   9.119   7.455 -1.1816  3.6180  0.3226
  252MOL0     H34756   0.273   8.450   7.858  2.7565  2.0885  0.8290
  252MOL0     H34757   0.235   8.247   7.696 -0.5003  1.3676 -0.1985
  252MOL0     H34758   0.242   7.799   7.643 -0.1875  0.3465  0.1005
  252MOL0     H34759   0.217   7.621   7.494 -0.2264 -0.3055 -3.3930
  252MOL0     H34760   0.615   6.835   5.609 -1.7362  0.4436 -1.7668
  252MOL0     H34761   0.548   6.791   5.391  1.4641  0.5484 -2.3738
  252MOL0     H34762   0.769   6.686   4.988 -0.1370  1.1481 -0.3994
  252MOL0     H34763   0.733   6.694   4.749  0.5792  0.1336  1.0971
  252MOL0     H34764   0.516   6.398   4.606  1.4975  0.0778 -0.6526
  252MOL0     H34765   0.381   6.494   4.530 -0.6196 -1.7561  2.5648
  252MOL0     H34766   0.529   6.390   4.359 -0.2210  0.3839 -1.3686
  252MOL0     H34767   0.673   6.480   4.416  0.4626  1.1501 -0.0277
  252MOL0     H34768   0.424   6.638   4.346  0.1339  2.3557 -3.1692
  252MOL0     H34769   0.578   6.689   4.374  1.8407 -0.5404  1.2306
  252MOL0     H34770   0.468   6.557   4.133  1.5424 -3.0118 -0.3649
  252MOL0     H34771   0.634   6.502   4.179  0.3841 -0.3462 -0.0135
  252MOL0     H34772   0.744   6.879   4.025  3.6005 -3.5492 -2.1476
  252MOL0     H34773   0.363   6.490   4.784 -0.0946 -2.5803  2.9425
  252MOL0     H34774   0.405   6.316   5.053  2.0595  1.0540 -1.4154
  252MOL0     H34775   0.354   6.454   5.151 -4.0860 -2.2756 -0.4457
  252MOL0     H34776   0.281   6.424   4.990 -0.3484 -1.4079 -0.1544
  253MOL0     O34777   3.214   0.052   7.868  0.8807  0.7324 -0.5064
  253MOL0     C34778   3.178   0.165   7.882 -1.3759  0.8677  0.9183
  253MOL0     O34779   3.271   0.270   7.901 -0.9473 -0.0875 -0.0043
  253MOL0     C34780   3.400   0.255   7.951  1.0364 -0.8967 -0.9646
  253MOL0     C34781   3.478   0.365   7.936  0.4316  0.3164 -0.6173
  253MOL0     C34782   3.605   0.377   7.986 -0.0985 -0.3805 -0.2176
  253MOL0     C34783   3.672   0.272   8.052  0.2111  0.1218  0.5441
  253MOL0     O34784   3.804   0.285   8.087  0.1352  0.5984  0.4125
  253MOL0     C34785   3.882   0.193   8.010  0.2666 -0.4521  0.4071
  253MOL0     C34786   4.002   0.266   7.939  0.6970  1.0528 -0.9416
  253MOL0     C34787   4.089   0.341   8.048 -0.2682  0.2574  1.2617
  253MOL0     C34788   4.232   0.380   8.005  0.5287  0.6914 -0.4901
  253MOL0     C34789   4.328   0.253   8.016  0.3844  0.5171  0.0857
  253MOL0     C34790   4.465   0.302   8.004 -0.1884  0.0010  0.2924
  253MOL0     C34791   4.555   0.182   8.012 -0.3607 -0.4843  0.0898
  253MOL0     C34792   4.702   0.222   8.003 -0.6448  0.1585 -0.2126
  253MOL0     N34793   4.749   0.279   8.133 -0.3869 -0.5610  0.8967
  253MOL0     C34794   4.819   0.399   8.140 -0.6144  0.6503 -0.3508
  253MOL0     C34795   4.844   0.395   8.278  0.0475 -0.8284  0.5850
  253MOL0     C34796   4.915   0.496   8.359  0.1434  0.9658 -0.0446
  253MOL0     C34797   5.066   0.460   8.345  0.3144 -0.6620 -0.7461
  253MOL0     C34798   5.101   0.329   8.411 -0.1648 -0.2101  0.0412
  253MOL0     C34799   5.255   0.299   8.401 -0.0094  0.1075  0.3865
  253MOL0     O34800   5.319   0.382   8.505  0.2399  0.3216 -0.3643
  253MOL0     C34801   5.452   0.390   8.491  0.2007 -0.0622  0.1625
  253MOL0     C34802   5.533   0.331   8.591  1.0495 -0.1204  0.6404
  253MOL0     C34803   5.667   0.304   8.574 -0.6613  0.2114 -0.1096
  253MOL0     C34804   5.742   0.230   8.690  0.0485  0.5630  1.0273
  253MOL0     C34805   5.732   0.351   8.454  0.5508 -0.4278  0.3558
  253MOL0     C34806   5.872   0.349   8.417  0.5105 -0.4727  0.0635
  253MOL0     O34807   5.961   0.309   8.502  0.2608 -0.5466  0.7867
  253MOL0     C34808   6.089   0.300   8.456 -1.0158 -0.2455  0.4227
  253MOL0     C34809   6.140   0.204   8.366  0.3649  0.6696 -0.1942
  253MOL0     C34810   6.269   0.197   8.310 -0.0149 -0.5441 -0.1205
  253MOL0     C34811   6.354   0.301   8.343  0.1830  0.2866 -0.1501
  253MOL0     O34812   6.485   0.319   8.301  0.3755  0.7542  0.1201
  253MOL0     C34813   6.498   0.265   8.162 -0.3180 -0.3011 -0.4979
  253MOL0     C34814   6.593   0.351   8.084 -0.9440 -0.0607  0.4758
  253MOL0     C34815   6.726   0.372   8.177  0.8789  0.0325 -0.3525
  253MOL0     C34816   6.823   0.464   8.119  1.0214 -0.3867 -0.4584
  253MOL0     C34817   6.764   0.612   8.126 -0.1237  0.0737  0.3254
  253MOL0     C34818   6.865   0.718   8.094  0.3776  0.6942 -0.3144
  253MOL0     C34819   6.822   0.853   8.136 -0.6654  0.0162  0.2920
  253MOL0     C34820   6.897   0.955   8.049 -0.6324  0.0429  0.3789
  253MOL0    Cl34821   6.824   1.104   8.105  0.1359  0.0953 -0.4891
  253MOL0     C34822   6.308   0.409   8.430  0.4771  0.1319  1.3558
  253MOL0     C34823   6.185   0.404   8.484 -0.5021 -0.6717 -0.1784
  253MOL0     O34824   5.896   0.386   8.305  0.0448  0.4741  0.3255
  253MOL0     C34825   5.648   0.406   8.345 -0.0634 -0.5774 -0.6116
  253MOL0     C34826   5.510   0.426   8.364 -0.2371  0.4010  0.9141
  253MOL0     N34827   4.805   0.279   8.338  0.4277 -0.3299  0.2099
  253MOL0     N34828   4.738   0.217   8.249 -0.2559  0.0068  0.4712
  253MOL0     C34829   3.593   0.160   8.075  0.2123 -0.2863  0.7145
  253MOL0     C34830   3.461   0.146   8.012 -0.1313 -0.4429 -0.3315
  253MOL0     C34831   3.038   0.200   7.878  0.6135 -0.7340  0.0265
  253MOL0     C34832   2.988   0.310   7.947  0.5774 -0.6911 -0.2666
  253MOL0     C34833   2.854   0.344   7.946 -0.1570 -0.4500  0.0043
  253MOL0     C34834   2.761   0.284   7.862  0.2368 -0.3884  0.3228
  253MOL0     O34835   2.638   0.317   7.867  0.4255 -0.2487 -1.0664
  253MOL0     C34836   2.572   0.307   7.997 -1.6753  0.1683  0.5672
  253MOL0     C34837   2.420   0.332   7.976 -0.4283  0.4864  0.2382
  253MOL0     C34838   2.350   0.226   7.885 -0.8300  0.2167  0.2688
  253MOL0     C34839   2.227   0.164   7.959  0.2040  0.2847 -0.6549
  253MOL0     C34840   2.137   0.119   7.859  0.3123 -0.1841  0.8850
  253MOL0     C34841   2.063   0.096   7.767  0.7953  0.4050 -1.3189
  253MOL0     C34842   2.809   0.176   7.788  0.0743  0.6156 -1.1935
  253MOL0     C34843   2.942   0.130   7.801 -0.4732 -0.4924  0.8023
  253MOL0     C34844   2.975   0.012   7.719 -0.4930 -0.1064  0.2847
  253MOL0     H34845   3.434   0.440   7.871  2.0447 -1.6712 -4.3320
  253MOL0     H34846   3.659   0.468   7.961 -1.3878  1.2193  2.2850
  253MOL0     H34847   3.824   0.145   7.930 -0.0833 -5.0921  3.1061
  253MOL0     H34848   3.921   0.110   8.068 -3.0914 -3.8704 -1.7617
  253MOL0     H34849   4.061   0.187   7.893  0.7304  2.3306 -3.2142
  253MOL0     H34850   3.955   0.333   7.867  1.5982 -1.3444 -3.9856
  253MOL0     H34851   4.037   0.430   8.084  3.1459  2.5616  0.9486
  253MOL0     H34852   4.100   0.271   8.131 -3.6028  1.3285  2.7642
  253MOL0     H34853   4.228   0.425   7.905  0.0204  0.2553 -0.6712
  253MOL0     H34854   4.269   0.455   8.076  1.2061  0.6429 -0.7827
  253MOL0     H34855   4.311   0.185   7.931  0.2703  1.0939 -0.3608
  253MOL0     H34856   4.312   0.210   8.115  0.4950 -1.7956 -0.8369
  253MOL0     H34857   4.487   0.347   7.906 -0.3498 -2.5383 -1.0077
  253MOL0     H34858   4.486   0.371   8.086  0.7547  0.4214 -0.2752
  253MOL0     H34859   4.534   0.120   7.924 -0.0687 -0.5718  0.0778
  253MOL0     H34860   4.530   0.115   8.095  1.3461 -0.3642  0.7507
  253MOL0     H34861   4.765   0.134   7.991 -0.4431  0.1736  0.7079
  253MOL0     H34862   4.724   0.291   7.921  2.9793 -0.4339  0.1077
  253MOL0     H34863   4.868   0.458   8.063  2.0541 -3.8423 -2.4623
  253MOL0     H34864   4.883   0.488   8.463 -0.1442  1.3771 -0.1020
  253MOL0     H34865   4.900   0.594   8.313  5.2256  1.5951 -1.0413
  253MOL0     H34866   5.080   0.458   8.236 -3.6645  1.8765 -1.5107
  253MOL0     H34867   5.133   0.536   8.388 -0.1899  1.1857 -3.0246
  253MOL0     H34868   5.060   0.309   8.511 -2.4261 -1.9301 -1.1268
  253MOL0     H34869   5.049   0.258   8.345 -0.4937  0.6638 -0.6571
  253MOL0     H34870   5.264   0.193   8.428  0.3756  0.3172  1.1218
  253MOL0     H34871   5.302   0.298   8.302  2.0307  0.3816  1.2958
  253MOL0     H34872   5.487   0.303   8.685 -0.2857 -0.4603 -0.0945
  253MOL0     H34873   5.669   0.159   8.728  0.7006 -0.5410  0.2569
  253MOL0     H34874   5.779   0.298   8.767 -0.5778  1.6292  0.4136
  253MOL0     H34875   5.822   0.161   8.663 -1.1687 -1.6117  2.6976
  253MOL0     H34876   6.073   0.120   8.353  0.3051  0.9179 -1.6887
  253MOL0     H34877   6.301   0.111   8.252  4.0373 -0.6364  1.9021
  253MOL0     H34878   6.548   0.168   8.171  0.4250  0.2571  2.0859
  253MOL0     H34879   6.405   0.252   8.105 -0.6525 -2.8153  0.4820
  253MOL0     H34880   6.612   0.301   7.989 -0.5700  1.8094 -0.4834
  253MOL0     H34881   6.546   0.447   8.056  2.0398  0.5314 -3.3010
  253MOL0     H34882   6.775   0.274   8.185  1.2944  0.1671 -1.1261
  253MOL0     H34883   6.705   0.407   8.278 -1.8115  0.2323 -0.9125
  253MOL0     H34884   6.828   0.437   8.013 -3.7362 -2.4174 -0.4719
  253MOL0     H34885   6.921   0.456   8.165  1.5674 -4.2234 -1.9175
  253MOL0     H34886   6.684   0.621   8.053  3.1378 -0.1328 -3.6834
  253MOL0     H34887   6.739   0.638   8.229 -0.7173  0.9180 -0.0280
  253MOL0     H34888   6.903   0.722   7.992 -0.8215  3.3821 -0.7364
  253MOL0     H34889   6.958   0.687   8.143 -0.0616  1.4279  1.0657
  253MOL0     H34890   6.854   0.867   8.240  1.2480  0.6825 -0.3595
  253MOL0     H34891   6.714   0.868   8.128 -0.2748  3.4660  0.2989
  253MOL0     H34892   6.874   0.929   7.945  1.2575 -1.7448  0.3407
  253MOL0     H34893   7.005   0.953   8.066 -0.1607  1.2538 -2.0177
  253MOL0     H34894   6.369   0.498   8.436  1.4516 -0.0303 -2.7431
  253MOL0     H34895   6.157   0.494   8.537  1.2523 -1.5184  2.3833
  253MOL0     H34896   5.690   0.443   8.253  0.3667  1.0503  0.2132
  253MOL0     H34897   5.456   0.481   8.287 -1.0258  1.0601  1.9109
  253MOL0     H34898   3.643   0.089   8.141 -1.0282  0.8078  2.9581
  253MOL0     H34899   3.408   0.051   8.018 -1.3179  0.2677  1.1857
  253MOL0     H34900   3.055   0.377   8.000  1.0829  0.2380 -2.0076
  253MOL0     H34901   2.828   0.430   8.006 -0.0805 -1.2660  1.2411
  253MOL0     H34902   2.583   0.199   8.011  0.6046 -0.2023 -2.9418
  253MOL0     H34903   2.619   0.369   8.074  0.0471 -2.1543  1.4779
  253MOL0     H34904   2.408   0.431   7.932  1.0254 -0.1590 -1.7957
  253MOL0     H34905   2.381   0.341   8.078  0.6070  0.7495  0.6231
  253MOL0     H34906   2.315   0.279   7.796  2.7964 -1.7966 -2.6141
  253MOL0     H34907   2.424   0.152   7.852  2.6281  2.6463  1.9189
  253MOL0     H34908   2.172   0.241   8.013  2.8959 -0.1260  3.0349
  253MOL0     H34909   2.260   0.090   8.032  1.1876  1.5176  0.1737
  253MOL0     H34910   1.985   0.088   7.694 -1.6797 -0.2313  1.2155
  253MOL0     H34911   2.736   0.104   7.752 -0.5194 -1.4040  3.3749
  253MOL0     H34912   3.063   0.040   7.660 -2.3811  2.2800 -1.6329
  253MOL0     H34913   2.996  -0.081   7.774 -0.2087 -0.1312  0.1347
  253MOL0     H34914   2.901  -0.009   7.641 -1.1283  2.0729  0.2247
  254MOL0     O34915   5.221   1.120  10.344  0.4428  0.4923 -0.3959
  254MOL0     C34916   5.260   1.221  10.286 -0.4210  0.0225  0.1499
  254MOL0     O34917   5.312   1.222  10.166 -0.2837  0.8030  0.9738
  254MOL0     C34918   5.250   1.172  10.054  0.5486  0.1305  0.3563
  254MOL0     C34919   5.118   1.130  10.039 -0.4799  0.3420  0.3959
  254MOL0     C34920   5.058   1.107   9.910 -0.1346  0.5165  0.6653
  254MOL0     C34921   5.145   1.092   9.795 -0.1531 -0.0675  0.3932
  254MOL0     O34922   5.103   1.061   9.667  0.1561  0.0516  0.0695
  254MOL0     C34923   4.955   1.060   9.650 -0.2341 -0.2426 -0.3068
  254MOL0     C34924   4.921   1.043   9.498  0.4701 -0.7896  0.0689
  254MOL0     C34925   4.779   1.008   9.464 -0.1428  0.2420 -0.1549
  254MOL0     C34926   4.779   0.947   9.320 -0.0779 -0.2109 -0.7247
  254MOL0     C34927   4.632   0.925   9.266  0.0891 -0.2121  0.0056
  254MOL0     C34928   4.551   1.057   9.280 -0.2399  0.4267  0.4398
  254MOL0     C34929   4.437   1.050   9.177  1.2288 -0.4278  0.1360
  254MOL0     C34930   4.333   0.940   9.188  0.5639 -0.1093  0.0803
  254MOL0     N34931   4.254   0.945   9.310  0.3207  0.6026 -0.4181
  254MOL0     C34932   4.277   0.878   9.430  0.6456 -0.0420  0.5666
  254MOL0     C34933   4.163   0.880   9.499  0.0481  0.1447  0.5844
  254MOL0     C34934   4.117   0.797   9.604 -0.2450  0.0040 -0.7825
  254MOL0     C34935   4.162   0.841   9.741 -0.6914  0.0684 -0.5188
  254MOL0     C34936   4.101   0.973   9.792 -0.2399 -0.3042 -0.5902
  254MOL0     C34937   3.950   0.958   9.834 -1.0545 -0.6217  0.6672
  254MOL0     O34938   3.938   0.869   9.949 -0.7502 -0.5350 -0.0575
  254MOL0     C34939   3.801   0.854   9.988 -0.6483  0.1314  0.0139
  254MOL0     C34940   3.690   0.920   9.935 -0.5702 -0.5595  0.1982
  254MOL0     C34941   3.562   0.902   9.981  0.1267  0.6542  0.3489
  254MOL0     C34942   3.458   1.002   9.941 -0.6260  0.3514 -0.1882
  254MOL0     C34943   3.534   0.783  10.059 -0.1607 -0.8341  0.5916
  254MOL0     C34944   3.400   0.735  10.096 -0.1304  0.7604 -0.2317
  254MOL0     O34945   3.385   0.596  10.109 -0.3950 -0.0868  0.0436
  254MOL0     C34946   3.268   0.538  10.151  1.5490  0.4879 -0.1776
  254MOL0     C34947   3.154   0.610  10.220 -0.7640 -0.2994  0.2049
  254MOL0     C34948   3.044   0.542  10.265  0.4767 -0.1191  0.0072
  254MOL0     C34949   3.040   0.405  10.253  0.3191 -0.0819  0.0133
  254MOL0     O34950   2.938   0.336  10.307 -0.0897  0.4696  0.9918
  254MOL0     C34951   2.837   0.298  10.213 -0.0466 -0.4371  0.1429
  254MOL0     C34952   2.700   0.309  10.279 -0.3818  0.2226  0.9200
  254MOL0     C34953   2.587   0.279  10.176  0.7056 -0.2214 -0.0543
  254MOL0     C34954   2.449   0.272  10.259  0.0399  1.2582  0.1302
  254MOL0     C34955   2.325   0.287  10.188 -0.6119  0.2646 -0.5405
  254MOL0     C34956   2.302   0.405  10.103 -0.3356 -0.0518 -0.4049
  254MOL0     C34957   2.284   0.536  10.187 -1.1249  0.0954 -0.4019
  254MOL0     C34958   2.182   0.632  10.117 -0.2095  0.1243 -0.1754
  254MOL0    Cl34959   2.014   0.631  10.186 -0.5757  0.2686  0.6322
  254MOL0     C34960   3.139   0.338  10.195 -0.8317 -0.2017  1.2500
  254MOL0     C34961   3.249   0.397  10.139  0.5333 -0.0293  0.5191
  254MOL0     O34962   3.308   0.822  10.095 -0.1061  0.4002  0.2709
  254MOL0     C34963   3.646   0.718  10.111  1.0869 -0.1412  0.7633
  254MOL0     C34964   3.777   0.745  10.070 -0.1598 -0.0718 -1.0721
  254MOL0     N34965   4.086   0.981   9.436  0.1185 -0.0190 -0.9972
  254MOL0     N34966   4.148   1.021   9.334 -0.7955  0.3093 -0.1532
  254MOL0     C34967   5.286   1.120   9.812 -0.1877  0.2432  0.1426
  254MOL0     C34968   5.328   1.164   9.942 -0.6904  0.1915 -0.8266
  254MOL0     C34969   5.296   1.341  10.358 -0.1715 -0.8736 -0.1200
  254MOL0     C34970   5.319   1.455  10.281 -0.4206 -1.4866 -0.6258
  254MOL0     C34971   5.346   1.579  10.341 -0.5917 -0.2140  0.3993
  254MOL0     C34972   5.323   1.606  10.473 -0.2566  0.1828  0.5052
  254MOL0     O34973   5.355   1.736  10.521 -0.1636  0.2043 -0.5656
  254MOL0     C34974   5.248   1.805  10.576 -0.5177  0.0698  0.1753
  254MOL0     C34975   5.187   1.907  10.472 -1.0109  1.3979  0.7783
  254MOL0     C34976   5.095   2.004  10.543  0.5843 -1.0966 -0.5525
  254MOL0     C34977   5.017   2.103  10.452  0.2309 -0.0250  0.6523
  254MOL0     C34978   4.928   2.040  10.359  0.2705  0.8626  0.4500
  254MOL0     C34979   4.848   1.994  10.273 -0.4734 -0.2848  0.0658
  254MOL0     C34980   5.283   1.502  10.548 -0.4271 -0.7017 -0.1553
  254MOL0     C34981   5.258   1.369  10.497 -0.5898 -0.7210  0.3592
  254MOL0     C34982   5.210   1.263  10.589 -0.4286  0.2763 -0.6021
  254MOL0     H34983   5.052   1.134  10.125 -1.2292 -4.1154  0.2292
  254MOL0     H34984   4.950   1.100   9.909 -0.0211 -2.4222  0.3955
  254MOL0     H34985   4.911   1.152   9.689  0.3302 -0.0676 -0.0691
  254MOL0     H34986   4.929   0.965   9.698  1.2503 -1.4999 -1.8802
  254MOL0     H34987   4.961   1.132   9.449  0.7123 -1.8355 -1.7291
  254MOL0     H34988   4.980   0.957   9.464 -0.3762 -0.1606 -3.3613
  254MOL0     H34989   4.734   0.928   9.524 -0.5447  0.2611 -0.4245
  254MOL0     H34990   4.716   1.097   9.474 -0.8797 -0.1872 -0.8936
  254MOL0     H34991   4.825   1.025   9.259  1.0333  1.4479  2.0417
  254MOL0     H34992   4.833   0.852   9.320 -0.2816 -0.3347  0.2863
  254MOL0     H34993   4.575   0.846   9.317 -1.1094  1.2027  0.9396
  254MOL0     H34994   4.636   0.892   9.161 -0.0366 -1.1216  0.2743
  254MOL0     H34995   4.518   1.085   9.381  1.1118  2.2474  0.4435
  254MOL0     H34996   4.616   1.136   9.242  0.2366 -0.5010 -0.7180
  254MOL0     H34997   4.491   1.044   9.081  1.5395  0.4120  0.2470
  254MOL0     H34998   4.383   1.145   9.186  2.2070  0.0451  1.3686
  254MOL0     H34999   4.274   0.948   9.096  1.7356  0.2587 -0.6747
  254MOL0     H35000   4.379   0.841   9.180  2.9054  0.8082  1.3080
  254MOL0     H35001   4.355   0.803   9.441  2.1909  1.4042 -0.1807
  254MOL0     H35002   4.130   0.693   9.572 -1.0111 -0.1638 -0.5710
  254MOL0     H35003   4.008   0.797   9.602 -0.3051 -1.0332  1.1524
  254MOL0     H35004   4.144   0.759   9.812 -2.0185 -0.4282 -1.3907
  254MOL0     H35005   4.271   0.848   9.743 -0.4508 -2.2851 -1.9132
  254MOL0     H35006   4.164   1.006   9.875 -0.0545  2.7140 -1.7844
  254MOL0     H35007   4.100   1.040   9.705 -1.8752 -3.0216 -2.8573
  254MOL0     H35008   3.925   1.061   9.861 -1.2098 -0.2828 -0.6961
  254MOL0     H35009   3.888   0.925   9.750 -1.8693 -0.9770  1.3860
  254MOL0     H35010   3.713   1.004   9.871  0.9116 -0.3321  0.9735
  254MOL0     H35011   3.381   1.035  10.012 -1.0031 -0.0972 -0.3820
  254MOL0     H35012   3.398   0.954   9.863 -0.7122  2.1595 -1.2761
  254MOL0     H35013   3.519   1.086   9.909  1.0337 -1.1541 -1.1355
  254MOL0     H35014   3.152   0.717  10.236  0.1929 -0.1929 -0.3279
  254MOL0     H35015   2.961   0.594  10.310  0.3066 -0.1918 -0.2177
  254MOL0     H35016   2.839   0.365  10.127  1.8179  0.2851  0.7040
  254MOL0     H35017   2.858   0.198  10.175  1.8237  0.7958 -2.2797
  254MOL0     H35018   2.695   0.245  10.368  0.7539  0.4970  1.1985
  254MOL0     H35019   2.696   0.414  10.309  1.8598 -0.3638  3.7219
  254MOL0     H35020   2.611   0.179  10.140  2.4173 -0.7430  2.2596
  254MOL0     H35021   2.583   0.348  10.091 -2.6634 -1.8764 -1.4261
  254MOL0     H35022   2.448   0.341  10.344  0.9765  0.0135  1.2120
  254MOL0     H35023   2.448   0.177  10.315 -1.1303 -0.2725 -2.3296
  254MOL0     H35024   2.324   0.199  10.124  0.1028  1.3519 -2.1087
  254MOL0     H35025   2.248   0.267  10.263  1.3181 -0.2743  1.4023
  254MOL0     H35026   2.218   0.382  10.036  1.4664  0.2597 -2.8822
  254MOL0     H35027   2.391   0.412  10.041  1.1571 -2.6894  1.2787
  254MOL0     H35028   2.380   0.584  10.208 -0.3620  0.2455 -3.7005
  254MOL0     H35029   2.229   0.507  10.277 -2.5010  1.7405 -0.6726
  254MOL0     H35030   2.169   0.610  10.011 -0.4975 -0.2065 -0.0757
  254MOL0     H35031   2.225   0.732  10.130  2.6598 -1.2246  1.8239
  254MOL0     H35032   3.138   0.229  10.191 -2.2066 -0.1808 -0.1901
  254MOL0     H35033   3.316   0.335  10.080  0.9854  0.3008  0.6804
  254MOL0     H35034   3.637   0.634  10.179  0.4597 -0.6688  0.0423
  254MOL0     H35035   3.863   0.685  10.097 -1.3792 -1.5151 -0.2499
  254MOL0     H35036   5.358   1.108   9.732  1.3702 -1.8769  1.7447
  254MOL0     H35037   5.430   1.200   9.949 -1.7010  2.8985  2.4536
  254MOL0     H35038   5.334   1.466  10.174  1.5681  2.4469 -0.1277
  254MOL0     H35039   5.375   1.654  10.269  0.2566  1.6297  2.5558
  254MOL0     H35040   5.165   1.743  10.613 -2.2383  2.1044 -0.0664
  254MOL0     H35041   5.284   1.865  10.660 -0.6697  1.7632 -0.9246
  254MOL0     H35042   5.131   1.866  10.388  1.1395 -0.6933  0.2636
  254MOL0     H35043   5.274   1.958  10.429  0.8316  0.0400  2.6911
  254MOL0     H35044   5.027   1.953  10.611 -0.5136  0.2782 -0.5635
  254MOL0     H35045   5.155   2.068  10.608  0.0925 -0.1012 -1.0473
  254MOL0     H35046   5.083   2.179  10.408 -1.3724  2.1131  1.7934
  254MOL0     H35047   4.955   2.168  10.515  4.7419  1.0683  4.5985
  254MOL0     H35048   4.777   1.951  10.205  1.2150 -1.1023 -1.2627
  254MOL0     H35049   5.257   1.517  10.652  0.1188 -1.2818  0.0709
  254MOL0     H35050   5.227   1.282  10.695  1.1238  1.0228 -0.9571
  254MOL0     H35051   5.106   1.236  10.570 -0.0406 -0.1445 -2.3313
  254MOL0     H35052   5.279   1.181  10.567 -0.0192  0.9995 -2.2066
  255MOL0     O35053   1.120   3.073   2.505  0.1276  0.1205  0.6519
  255MOL0     C35054   1.179   3.157   2.580 -0.0411 -0.1292  0.1134
  255MOL0     O35055   1.146   3.288   2.592  0.5770  0.5920 -0.6541
  255MOL0     C35056   1.027   3.329   2.542 -0.5603  0.1482 -0.2744
  255MOL0     C35057   1.029   3.454   2.475 -0.4383 -0.0822 -0.6492
  255MOL0     C35058   0.907   3.524   2.444  0.6368 -0.0378  0.1359
  255MOL0     C35059   0.787   3.454   2.457  0.1977  0.2846 -0.1710
  255MOL0     O35060   0.673   3.516   2.423 -0.2065 -0.2297  0.4279
  255MOL0     C35061   0.652   3.517   2.286 -0.4906  0.3278  0.0490
  255MOL0     C35062   0.513   3.518   2.246  0.7686  0.7810 -0.1487
  255MOL0     C35063   0.468   3.362   2.221 -0.5855 -0.5563 -0.1068
  255MOL0     C35064   0.320   3.348   2.186  0.3166  0.0957 -0.3010
  255MOL0     C35065   0.274   3.199   2.184  0.6996 -0.0933 -0.0639
  255MOL0     C35066   0.351   3.124   2.069  0.4130 -0.6404 -0.6929
  255MOL0     C35067   0.381   2.986   2.099  0.6519 -0.1662  1.3935
  255MOL0     C35068   0.482   2.910   2.005  0.1144  0.5870 -0.3930
  255MOL0     N35069   0.622   2.970   2.002  0.3495  0.0510  0.6796
  255MOL0     C35070   0.674   3.043   2.097 -0.2470 -0.4334 -0.3155
  255MOL0     C35071   0.799   3.084   2.062 -0.3052  0.2940  0.2883
  255MOL0     C35072   0.902   3.167   2.139 -0.1472  0.0113 -0.4563
  255MOL0     C35073   1.033   3.086   2.170  0.6385 -0.5865 -0.0849
  255MOL0     C35074   1.135   3.096   2.053 -0.6759  0.5353 -0.6501
  255MOL0     C35075   1.277   3.042   2.087  0.4052  0.0963  0.8932
  255MOL0     O35076   1.249   2.914   2.130 -0.3202  0.0070 -0.3242
  255MOL0     C35077   1.309   2.853   2.239  0.8268  0.1555 -0.0234
  255MOL0     C35078   1.411   2.918   2.314  0.5486  0.8081  0.1797
  255MOL0     C35079   1.473   2.853   2.424  0.5967 -0.5700 -0.6139
  255MOL0     C35080   1.585   2.925   2.495 -0.8021 -0.2122  0.1873
  255MOL0     C35081   1.423   2.727   2.466 -1.1811  0.5703  1.0966
  255MOL0     C35082   1.487   2.642   2.566  0.2902 -0.1634 -0.8541
  255MOL0     O35083   1.408   2.539   2.612  0.6252  0.1516  0.0309
  255MOL0     C35084   1.436   2.471   2.728 -0.3216  0.1963  0.1976
  255MOL0     C35085   1.332   2.404   2.793  0.8857 -0.0697 -0.0236
  255MOL0     C35086   1.350   2.317   2.898 -0.2720 -0.0680 -1.1595
  255MOL0     C35087   1.468   2.262   2.931 -0.4569 -0.5022 -0.0623
  255MOL0     O35088   1.492   2.178   3.036 -0.7895 -0.0238  0.4003
  255MOL0     C35089   1.582   2.071   3.014  0.2477  0.6188 -0.7819
  255MOL0     C35090   1.571   1.977   3.145 -0.2365  0.2979  0.7135
  255MOL0     C35091   1.626   1.836   3.131  0.8729 -0.5382  0.3431
  255MOL0     C35092   1.770   1.843   3.135  0.6232 -0.0760 -0.3781
  255MOL0     C35093   1.803   1.697   3.126 -0.6500  0.2437  1.0947
  255MOL0     C35094   1.957   1.683   3.124  0.1817 -0.1007  1.0025
  255MOL0     C35095   1.988   1.541   3.070  0.7278  0.8574 -0.9528
  255MOL0     C35096   2.136   1.506   3.066  0.4060 -0.3474  0.3638
  255MOL0    Cl35097   2.226   1.581   2.933  0.1649 -0.0499  0.3335
  255MOL0     C35098   1.579   2.320   2.853 -0.6141  0.0664 -0.3286
  255MOL0     C35099   1.563   2.422   2.764  1.2501  0.2887  0.3963
  255MOL0     O35100   1.600   2.657   2.596 -0.6334 -0.0985  0.5349
  255MOL0     C35101   1.315   2.668   2.394 -0.2092 -0.4342 -0.6259
  255MOL0     C35102   1.263   2.728   2.277  0.7989  0.3176  0.3855
  255MOL0     N35103   0.809   3.039   1.930  0.0001  0.1205  0.3245
  255MOL0     N35104   0.708   2.965   1.897  0.0497 -0.7312 -0.4242
  255MOL0     C35105   0.782   3.325   2.512  0.0485  0.2585  0.1556
  255MOL0     C35106   0.897   3.264   2.563 -0.5235 -0.7617 -0.3491
  255MOL0     C35107   1.287   3.109   2.677  0.9452  0.2709  0.0359
  255MOL0     C35108   1.277   2.965   2.708 -0.6033  0.3582  0.6798
  255MOL0     C35109   1.356   2.910   2.808  0.9407 -0.6540 -0.3192
  255MOL0     C35110   1.438   2.987   2.885  0.4739 -0.7189  0.2635
  255MOL0     O35111   1.498   2.939   2.995 -0.2918  0.2616 -0.6887
  255MOL0     C35112   1.544   2.807   2.990  0.6681  0.0960 -0.1325
  255MOL0     C35113   1.677   2.792   3.047 -0.3142 -0.6487 -0.1480
  255MOL0     C35114   1.784   2.846   2.946  0.2475  0.7172  0.3111
  255MOL0     C35115   1.834   2.738   2.845  0.3487  0.2501  0.4610
  255MOL0     C35116   1.904   2.637   2.925  0.7109 -0.0995 -0.2332
  255MOL0     C35117   1.951   2.553   2.996  0.9767 -0.2409  0.2621
  255MOL0     C35118   1.444   3.127   2.858 -0.3868 -0.3038 -0.7258
  255MOL0     C35119   1.373   3.187   2.751 -0.2295 -0.3901 -0.5469
  255MOL0     C35120   1.393   3.333   2.744  0.7215  0.1172 -0.2642
  255MOL0     H35121   1.126   3.497   2.453 -1.4021  3.8397  1.8300
  255MOL0     H35122   0.896   3.621   2.398 -3.3877  0.8322  2.4480
  255MOL0     H35123   0.699   3.427   2.244 -1.6925 -1.4850  2.3051
  255MOL0     H35124   0.699   3.606   2.244 -2.2108  1.5229  0.5563
  255MOL0     H35125   0.453   3.562   2.325  0.7812 -0.3767  0.5229
  255MOL0     H35126   0.503   3.582   2.158  1.9520  1.3281  0.0999
  255MOL0     H35127   0.530   3.331   2.136  2.3763 -1.0450  2.0472
  255MOL0     H35128   0.506   3.292   2.297  2.2694 -1.7784 -2.4297
  255MOL0     H35129   0.245   3.390   2.254 -0.6311 -0.9659 -0.6508
  255MOL0     H35130   0.302   3.404   2.094  0.7782  0.1610 -0.3531
  255MOL0     H35131   0.164   3.199   2.180  0.5171  3.2410  1.2731
  255MOL0     H35132   0.311   3.163   2.281 -1.6016  0.6527  1.1763
  255MOL0     H35133   0.285   3.123   1.981 -0.4217  0.1371 -0.0893
  255MOL0     H35134   0.448   3.170   2.049  0.2971 -0.1668 -0.1703
  255MOL0     H35135   0.286   2.932   2.089  1.3713 -1.1867 -0.3315
  255MOL0     H35136   0.414   2.974   2.202  4.1836  0.2556  0.4162
  255MOL0     H35137   0.493   2.806   2.037  0.5000  0.4570 -0.9431
  255MOL0     H35138   0.439   2.891   1.907  1.6293 -1.7469 -0.6907
  255MOL0     H35139   0.617   3.074   2.184 -1.7864  2.4376 -2.1914
  255MOL0     H35140   0.851   3.192   2.233  0.7160 -0.1232  0.0635
  255MOL0     H35141   0.928   3.259   2.086  0.9448 -1.3720 -2.4829
  255MOL0     H35142   1.083   3.133   2.256 -1.6391  0.8599  0.5406
  255MOL0     H35143   1.013   2.980   2.188  1.9158 -0.9861 -0.9145
  255MOL0     H35144   1.088   3.044   1.969 -1.2663  2.0053 -1.2647
  255MOL0     H35145   1.156   3.200   2.027  2.1069  0.5760  1.3264
  255MOL0     H35146   1.338   3.016   2.001 -2.6622 -4.2120 -0.3041
  255MOL0     H35147   1.315   3.115   2.160 -2.5550  3.1730 -0.3337
  255MOL0     H35148   1.444   3.017   2.284 -2.9890  1.8051 -0.9527
  255MOL0     H35149   1.684   2.887   2.470  0.7167  2.4056  1.6585
  255MOL0     H35150   1.571   2.930   2.604  1.8810  2.2443  0.5546
  255MOL0     H35151   1.581   3.030   2.465  1.7347 -0.9997 -3.5854
  255MOL0     H35152   1.236   2.445   2.763  1.4188  0.7365 -0.6710
  255MOL0     H35153   1.265   2.291   2.960 -0.6468  0.2983 -1.5112
  255MOL0     H35154   1.555   2.034   2.915  0.2044 -1.8842  0.1035
  255MOL0     H35155   1.688   2.097   3.006 -0.0832  2.9794  1.2665
  255MOL0     H35156   1.618   2.025   3.232 -1.7800 -2.9572  3.5672
  255MOL0     H35157   1.465   1.961   3.168 -0.6323  1.6282 -0.0596
  255MOL0     H35158   1.585   1.794   3.039 -1.9829 -0.3901  1.4253
  255MOL0     H35159   1.586   1.780   3.216 -0.4487  5.0336  3.9390
  255MOL0     H35160   1.795   1.868   3.238 -0.4905 -0.9536  0.1389
  255MOL0     H35161   1.818   1.907   3.061  1.5592 -1.6518 -1.2011
  255MOL0     H35162   1.763   1.638   3.209 -4.5609 -0.2126 -0.8754
  255MOL0     H35163   1.781   1.647   3.031  3.0234  1.3441 -0.5256
  255MOL0     H35164   1.998   1.684   3.226 -0.5578 -1.4260  1.3306
  255MOL0     H35165   1.991   1.764   3.058 -0.5040 -0.5159  0.1241
  255MOL0     H35166   1.925   1.530   2.981  0.8874  1.8601 -1.1984
  255MOL0     H35167   1.952   1.471   3.146 -0.9909  3.6318  0.9856
  255MOL0     H35168   2.147   1.399   3.047 -1.7074 -0.4431 -0.5987
  255MOL0     H35169   2.194   1.526   3.157  1.8956 -1.4728 -0.2993
  255MOL0     H35170   1.678   2.280   2.870 -1.1932 -1.6477 -0.7588
  255MOL0     H35171   1.654   2.474   2.735  1.2671  1.3381  2.1509
  255MOL0     H35172   1.271   2.573   2.425  1.5399 -0.9427  0.4243
  255MOL0     H35173   1.196   2.667   2.218  0.2980 -0.9737  2.1903
  255MOL0     H35174   0.693   3.262   2.517  0.2793 -0.2216 -1.2646
  255MOL0     H35175   0.895   3.172   2.622  1.9590 -1.3055 -1.0078
  255MOL0     H35176   1.205   2.894   2.670 -2.6637  3.0912 -0.9059
  255MOL0     H35177   1.330   2.806   2.827 -0.8935 -0.2856 -0.6563
  255MOL0     H35178   1.475   2.736   3.036 -1.6107  3.4568  2.1054
  255MOL0     H35179   1.547   2.770   2.887  0.4541  0.5284 -0.2954
  255MOL0     H35180   1.703   2.690   3.073 -4.1385 -1.8383 -0.3882
  255MOL0     H35181   1.684   2.838   3.145  0.0832 -0.9226 -0.0498
  255MOL0     H35182   1.760   2.937   2.890  3.4431  1.3898 -0.1218
  255MOL0     H35183   1.863   2.879   3.014  0.2954 -1.9110  1.6898
  255MOL0     H35184   1.903   2.774   2.768 -1.0922 -0.7639 -1.4280
  255MOL0     H35185   1.751   2.684   2.797 -0.8247  1.8942  0.5829
  255MOL0     H35186   1.976   2.467   3.054 -3.4055 -2.1289 -0.2455
  255MOL0     H35187   1.506   3.183   2.927 -1.3248  1.0414 -0.9277
  255MOL0     H35188   1.402   3.348   2.636  1.6301 -2.0284 -0.5278
  255MOL0     H35189   1.305   3.384   2.785 -0.0927  0.8530 -2.7638
  255MOL0     H35190   1.484   3.374   2.789  2.0716 -1.5224 -1.3928
  256MOL0     O35191   9.297   4.289   8.560 -0.2701  0.1837  0.6849
  256MOL0     C35192   9.321   4.403   8.580  0.1135 -0.4733 -0.2379
  256MOL0     O35193   9.354   4.487   8.480  0.0678  0.2059 -0.5503
  256MOL0     C35194   9.301   4.456   8.357 -0.7994 -0.0032 -0.2271
  256MOL0     C35195   9.365   4.376   8.257 -0.1550  0.7547  0.6448
  256MOL0     C35196   9.299   4.351   8.139 -0.8812 -0.4963  0.0005
  256MOL0     C35197   9.184   4.416   8.101  1.1451  0.1775 -0.4948
  256MOL0     O35198   9.111   4.386   7.988  0.6173 -0.1329  0.3823
  256MOL0     C35199   9.132   4.263   7.923 -0.3959  0.5383 -0.5004
  256MOL0     C35200   9.026   4.264   7.817 -1.4152  0.0446  1.1661
  256MOL0     C35201   9.034   4.364   7.699  0.0585  0.0056  0.0805
  256MOL0     C35202   8.940   4.314   7.585  1.0196 -0.0353 -0.7025
  256MOL0     C35203   9.004   4.207   7.499 -0.7243  0.0019  0.6608
  256MOL0     C35204   9.085   4.258   7.378  0.0910  0.0676 -0.3615
  256MOL0     C35205   9.137   4.147   7.278  0.1466 -0.4821 -0.7920
  256MOL0     C35206   9.223   4.213   7.172 -0.4011  1.0729  0.1257
  256MOL0     N35207   9.343   4.129   7.146  0.3670  0.2441 -0.4957
  256MOL0     C35208   9.355   4.057   7.030 -0.6810  0.1120 -0.1542
  256MOL0     C35209   9.489   4.037   7.015 -0.7859  0.5758  0.2615
  256MOL0     C35210   9.556   3.968   6.904  0.2837  1.1347 -0.0508
  256MOL0     C35211   9.585   4.058   6.793  0.3816  0.5294 -0.4759
  256MOL0     C35212   9.730   4.088   6.772 -0.0066  0.2989  0.5951
  256MOL0     C35213   9.788   4.184   6.873 -0.2363 -0.7831 -0.6844
  256MOL0     O35214   9.766   4.321   6.836 -0.3357  0.3324 -0.9144
  256MOL0     C35215   9.883   4.375   6.796  0.5875  0.4966 -0.9102
  256MOL0     C35216   9.904   4.501   6.846 -0.1357 -0.5118  0.3494
  256MOL0     C35217  10.017   4.577   6.809  0.0776  0.6815 -0.5635
  256MOL0     C35218  10.035   4.714   6.879  0.1985  1.4534 -0.4329
  256MOL0     C35219  10.102   4.526   6.709  0.2539  1.1878 -0.6655
  256MOL0     C35220  10.216   4.606   6.655 -0.2166 -0.4863  0.6729
  256MOL0     O35221  10.306   4.538   6.574 -0.0260 -0.1056 -1.0265
  256MOL0     C35222  10.413   4.593   6.505 -0.6814  0.3143 -0.4437
  256MOL0     C35223  10.494   4.688   6.562  0.0143  0.0451  0.3279
  256MOL0     C35224  10.587   4.745   6.483  0.7183 -0.0600  0.3223
  256MOL0     C35225  10.619   4.693   6.349 -1.5205  0.7452  0.3954
  256MOL0     O35226  10.716   4.747   6.265  0.9804  0.1795  0.5493
  256MOL0     C35227  10.687   4.883   6.221  0.0856  0.0895 -0.4101
  256MOL0     C35228  10.709   4.889   6.061  0.1970 -0.5187 -0.6063
  256MOL0     C35229  10.594   4.828   5.990  1.1536  0.7410  0.2596
  256MOL0     C35230  10.454   4.883   5.985 -0.9415 -0.7851 -0.3786
  256MOL0     C35231  10.374   4.819   5.865  1.2421 -0.2981 -0.1261
  256MOL0     C35232  10.227   4.854   5.868 -0.6470  0.4464  0.3890
  256MOL0     C35233  10.159   4.812   5.729 -0.6845 -0.2773 -0.3952
  256MOL0     C35234  10.146   4.664   5.692 -0.2788  0.3401  0.2585
  256MOL0    Cl35235  10.082   4.643   5.520  0.2675  0.2093  0.3466
  256MOL0     C35236  10.545   4.581   6.306 -0.4250 -0.4512 -0.6017
  256MOL0     C35237  10.441   4.545   6.378  0.2079 -1.2691 -0.0920
  256MOL0     O35238  10.218   4.726   6.676  0.1476 -0.2669 -0.4684
  256MOL0     C35239  10.081   4.399   6.659 -0.2583  0.2836  0.7530
  256MOL0     C35240   9.977   4.319   6.706 -0.1814 -0.3289  0.4969
  256MOL0     N35241   9.554   4.101   7.118  0.9350  0.6096  0.1784
  256MOL0     N35242   9.468   4.146   7.198 -0.2025  0.5626 -0.5538
  256MOL0     C35243   9.117   4.494   8.197  1.1544  0.0794 -0.5637
  256MOL0     C35244   9.181   4.520   8.318 -0.1679 -0.8195  0.5222
  256MOL0     C35245   9.321   4.452   8.723 -0.5422  0.5748 -0.8394
  256MOL0     C35246   9.331   4.348   8.829 -0.2216 -0.4222  1.1176
  256MOL0     C35247   9.346   4.377   8.967  0.5605 -0.4732  0.0390
  256MOL0     C35248   9.345   4.512   9.006  0.6682  0.4466 -0.0847
  256MOL0     O35249   9.334   4.541   9.136  0.2672  0.0886  0.7295
  256MOL0     C35250   9.403   4.660   9.185 -0.3718 -0.2094  0.7258
  256MOL0     C35251   9.515   4.612   9.282 -0.3626 -0.6434  0.5021
  256MOL0     C35252   9.589   4.728   9.344  0.5504  0.5016  1.0820
  256MOL0     C35253   9.721   4.683   9.409 -0.3600  0.2440 -0.1242
  256MOL0     C35254   9.817   4.625   9.312  0.9790  0.3563  0.2720
  256MOL0     C35255   9.897   4.589   9.222  0.5315 -0.7189 -0.6826
  256MOL0     C35256   9.319   4.609   8.917  0.6487 -0.1721  0.8964
  256MOL0     C35257   9.318   4.589   8.776 -0.4111 -0.0081  0.0916
  256MOL0     C35258   9.315   4.709   8.682  0.8130  0.7402  0.0993
  256MOL0     H35259   9.460   4.329   8.281 -1.6739 -3.7657 -1.1749
  256MOL0     H35260   9.338   4.303   8.049 -1.8179  0.6774 -1.0683
  256MOL0     H35261   9.123   4.171   7.982 -2.9210 -2.9107 -5.4729
  256MOL0     H35262   9.233   4.254   7.880  1.7095  0.4908  3.9187
  256MOL0     H35263   9.022   4.160   7.784 -1.9454  0.0898  1.0945
  256MOL0     H35264   8.939   4.293   7.877  0.3084 -0.4777  4.1485
  256MOL0     H35265   9.012   4.463   7.739 -0.7723 -0.4084  0.6851
  256MOL0     H35266   9.140   4.365   7.672 -0.0760 -3.8399 -1.2965
  256MOL0     H35267   8.846   4.277   7.627  0.7420  0.1198 -1.1845
  256MOL0     H35268   8.899   4.398   7.529 -0.1834  0.9835  1.5794
  256MOL0     H35269   8.917   4.157   7.456  2.2858 -2.3748 -3.3406
  256MOL0     H35270   9.065   4.144   7.563 -0.6363  0.8921  1.4858
  256MOL0     H35271   9.033   4.334   7.320  1.7206  1.6270  0.1392
  256MOL0     H35272   9.171   4.314   7.416  0.3411 -0.1032 -0.6702
  256MOL0     H35273   9.054   4.089   7.235 -2.0742 -1.3074  3.9354
  256MOL0     H35274   9.200   4.078   7.334  3.6551  1.6166 -1.8808
  256MOL0     H35275   9.158   4.214   7.084 -1.1072 -1.6272  0.5267
  256MOL0     H35276   9.250   4.318   7.184 -2.8302  1.8126 -0.4214
  256MOL0     H35277   9.269   4.033   6.969 -1.9392  2.0727  0.7273
  256MOL0     H35278   9.496   3.880   6.879  2.4910 -0.2801 -0.6638
  256MOL0     H35279   9.647   3.927   6.947 -1.5331 -1.7015  1.4179
  256MOL0     H35280   9.553   4.016   6.697 -1.1035  0.6333 -0.0518
  256MOL0     H35281   9.530   4.150   6.816  1.8236  1.1382  0.7434
  256MOL0     H35282   9.773   3.988   6.773 -2.1322 -0.6839  2.5045
  256MOL0     H35283   9.732   4.128   6.670 -1.4145  0.2171  0.5134
  256MOL0     H35284   9.732   4.174   6.966 -1.1427  2.4115 -0.7834
  256MOL0     H35285   9.892   4.156   6.892  0.1041  0.8192 -0.0838
  256MOL0     H35286   9.833   4.542   6.917  3.1751  0.7786  3.2061
  256MOL0     H35287  10.037   4.799   6.810 -1.6427  1.0779 -1.0200
  256MOL0     H35288  10.124   4.715   6.942  0.3743  0.0596 -0.6171
  256MOL0     H35289   9.961   4.732   6.958 -0.2407  1.0391 -0.7391
  256MOL0     H35290  10.492   4.722   6.665  0.4686  1.9557 -0.2635
  256MOL0     H35291  10.639   4.831   6.524  0.1897 -0.0928  1.0799
  256MOL0     H35292  10.580   4.891   6.245 -0.5303 -2.3669 -1.9788
  256MOL0     H35293  10.742   4.963   6.271 -2.9640  2.4891 -0.6017
  256MOL0     H35294  10.702   4.990   6.020 -0.6162 -0.5585 -0.5898
  256MOL0     H35295  10.810   4.855   6.038  0.7786  1.0343 -0.4700
  256MOL0     H35296  10.597   4.722   6.018 -0.6280  0.6629  0.2610
  256MOL0     H35297  10.626   4.845   5.887 -0.4072 -0.5860 -0.4887
  256MOL0     H35298  10.458   4.990   5.961 -4.0777 -1.1383 -3.2293
  256MOL0     H35299  10.402   4.858   6.078  1.3380 -2.9194  0.4130
  256MOL0     H35300  10.422   4.869   5.780 -1.3702  0.1280 -1.4483
  256MOL0     H35301  10.379   4.710   5.869 -0.9828 -0.5596 -2.0917
  256MOL0     H35302  10.219   4.962   5.883 -0.1112  0.8118 -1.6190
  256MOL0     H35303  10.167   4.812   5.949 -2.5815  0.8346 -0.7847
  256MOL0     H35304  10.229   4.853   5.656  2.0963 -3.2381  0.3715
  256MOL0     H35305  10.066   4.870   5.727  1.1645  2.8508 -0.3879
  256MOL0     H35306  10.085   4.614   5.769  1.0441  0.1911  1.2340
  256MOL0     H35307  10.248   4.626   5.690  0.4106  2.0459  1.1076
  256MOL0     H35308  10.560   4.536   6.208 -0.9445  2.0527 -1.9293
  256MOL0     H35309  10.381   4.460   6.350 -1.2867 -0.2415 -0.1414
  256MOL0     H35310  10.146   4.361   6.581 -0.5324 -0.1675  0.7392
  256MOL0     H35311   9.961   4.220   6.665  1.0074 -1.3409  2.3294
  256MOL0     H35312   9.018   4.535   8.183  0.9000 -0.8375 -1.6430
  256MOL0     H35313   9.141   4.576   8.402  1.6900 -1.1150  1.6730
  256MOL0     H35314   9.318   4.242   8.812 -2.5321 -0.4532  2.5925
  256MOL0     H35315   9.358   4.298   9.040  0.3469 -0.3831  0.1725
  256MOL0     H35316   9.450   4.720   9.106 -1.2660  0.0561  0.3906
  256MOL0     H35317   9.348   4.717   9.260 -0.7280 -0.7382  0.8734
  256MOL0     H35318   9.587   4.544   9.235  1.3944  1.7442 -0.4672
  256MOL0     H35319   9.474   4.560   9.369  3.7976  0.4168  3.4338
  256MOL0     H35320   9.607   4.791   9.257  0.3777 -2.3777 -1.2081
  256MOL0     H35321   9.525   4.786   9.411 -0.0677 -1.0428  1.9083
  256MOL0     H35322   9.724   4.605   9.486  1.6051  0.8019  0.4187
  256MOL0     H35323   9.761   4.774   9.454 -0.8061  1.1667 -1.5504
  256MOL0     H35324   9.962   4.554   9.144  0.7451 -2.0651  0.0772
  256MOL0     H35325   9.316   4.710   8.957  1.8466  1.0664 -1.8876
  256MOL0     H35326   9.214   4.698   8.643  1.8167 -1.5891 -2.1249
  256MOL0     H35327   9.320   4.805   8.734 -2.1835  1.3102 -0.5002
  256MOL0     H35328   9.382   4.707   8.595  3.6598  3.0806  2.0353
  257MOL0     O35329   9.431   4.215   2.772  0.6134  0.8438  0.3128
  257MOL0     C35330   9.431   4.272   2.877 -0.5650 -0.7502  0.3779
  257MOL0     O35331   9.486   4.222   2.993 -0.6947 -0.3923  0.0249
  257MOL0     C35332   9.589   4.128   2.993 -0.0738  0.2070  0.3226
  257MOL0     C35333   9.711   4.184   3.004  0.3875  0.1774 -0.1929
  257MOL0     C35334   9.818   4.099   2.997  0.4692  0.5168 -0.4597
  257MOL0     C35335   9.796   3.957   2.982  0.0963 -0.4007 -0.5205
  257MOL0     O35336   9.910   3.888   2.969 -0.8020 -0.1560 -0.1829
  257MOL0     C35337   9.897   3.769   2.888 -0.5939 -0.1254  0.0769
  257MOL0     C35338   9.881   3.639   2.954 -0.5273  0.1709 -0.2781
  257MOL0     C35339   9.879   3.529   2.852  1.4418 -1.1469 -0.5014
  257MOL0     C35340   9.893   3.396   2.924 -0.2668  0.9361 -1.2972
  257MOL0     C35341   9.849   3.271   2.847  0.0953 -1.3409  0.2486
  257MOL0     C35342   9.851   3.162   2.949 -0.2435 -0.1091  0.1830
  257MOL0     C35343   9.790   3.026   2.910 -0.2088  0.0259 -1.1312
  257MOL0     C35344   9.831   2.920   3.000  1.1685  0.6954 -0.2442
  257MOL0     N35345   9.960   2.852   2.981  0.3611 -0.4366  0.3733
  257MOL0     C35346   9.991   2.769   2.875  0.1878  0.9276  0.5424
  257MOL0     C35347  10.123   2.749   2.890 -0.2478  0.0283  0.5480
  257MOL0     C35348  10.195   2.670   2.790  0.2586 -0.3842 -1.0937
  257MOL0     C35349  10.239   2.535   2.852 -0.1657 -0.4306  0.3195
  257MOL0     C35350  10.348   2.549   2.953  0.1860 -0.9629  0.1362
  257MOL0     C35351  10.487   2.591   2.886 -0.2229  0.2114 -0.3182
  257MOL0     O35352  10.524   2.522   2.755  0.1308 -0.3787 -0.5415
  257MOL0     C35353  10.553   2.389   2.753  0.5469 -0.7104 -0.2206
  257MOL0     C35354  10.550   2.313   2.632 -0.0139 -0.4965  0.3023
  257MOL0     C35355  10.605   2.184   2.623  0.7516  0.3209  0.1527
  257MOL0     C35356  10.607   2.127   2.486 -0.0659 -0.5026 -0.8269
  257MOL0     C35357  10.649   2.120   2.740 -0.3041  0.0611  0.1829
  257MOL0     C35358  10.687   1.978   2.756 -0.1852 -0.2582 -0.2543
  257MOL0     O35359  10.731   1.934   2.880 -0.0140  0.6481  0.6504
  257MOL0     C35360  10.744   1.801   2.886  0.4050 -0.2575 -0.1526
  257MOL0     C35361  10.837   1.730   2.811 -0.2001 -0.4257  0.0056
  257MOL0     C35362  10.858   1.595   2.834 -0.2183  0.1371  0.6161
  257MOL0     C35363  10.776   1.524   2.931  0.3500 -0.1391  0.4937
  257MOL0     O35364  10.792   1.388   2.940 -0.6481  0.6911 -0.4123
  257MOL0     C35365  10.923   1.331   2.941  0.3599  0.1188 -0.3980
  257MOL0     C35366  10.914   1.177   2.907 -0.0078  0.1199 -0.0808
  257MOL0     C35367  11.047   1.100   2.943  0.7234 -0.0774 -0.7869
  257MOL0     C35368  11.170   1.138   2.865 -1.0199  0.0714 -0.7281
  257MOL0     C35369  11.298   1.076   2.916 -0.5091  0.8882 -0.2313
  257MOL0     C35370  11.270   0.931   2.921  0.5063 -0.0684  0.3727
  257MOL0     C35371  11.399   0.849   2.940  0.9203 -0.7631  0.6617
  257MOL0     C35372  11.394   0.702   2.901 -0.9135 -0.6542  0.6323
  257MOL0    Cl35373  11.258   0.618   2.980  0.0236 -0.7053  0.2084
  257MOL0     C35374  10.671   1.587   2.996 -1.0603  0.1431  0.7679
  257MOL0     C35375  10.664   1.732   2.975  0.2640  0.3872  0.2893
  257MOL0     O35376  10.693   1.913   2.649 -0.1067 -1.0786 -0.4223
  257MOL0     C35377  10.644   2.186   2.861  0.7241 -0.3489  0.1530
  257MOL0     C35378  10.604   2.315   2.867  0.2871 -0.6316 -0.1848
  257MOL0     N35379  10.173   2.825   2.999  0.0200  0.1841 -0.4188
  257MOL0     N35380  10.068   2.886   3.053 -0.4229 -0.0045 -0.2597
  257MOL0     C35381   9.664   3.905   2.992 -0.3540 -0.2444  0.1356
  257MOL0     C35382   9.557   3.991   2.985 -0.8224  0.8108  1.0611
  257MOL0     C35383   9.347   4.398   2.875  0.7231 -0.8110 -0.0169
  257MOL0     C35384   9.331   4.467   2.998 -0.3913 -0.4167  1.0739
  257MOL0     C35385   9.242   4.574   3.013  0.5779 -0.6475 -0.2219
  257MOL0     C35386   9.157   4.616   2.910  0.1053  0.5780 -0.2209
  257MOL0     O35387   9.071   4.720   2.924 -0.0403  0.0335  1.1681
  257MOL0     C35388   9.007   4.730   3.050 -0.5434  0.2652  0.2649
  257MOL0     C35389   9.055   4.853   3.131  0.0147 -0.0448 -0.7548
  257MOL0     C35390   9.029   4.988   3.059 -0.4765 -0.2454 -0.1008
  257MOL0     C35391   9.016   5.111   3.153 -0.6428 -0.7279 -0.1578
  257MOL0     C35392   8.919   5.211   3.093  0.3236 -0.7447 -0.7598
  257MOL0     C35393   8.830   5.279   3.047  0.6890 -0.9097  0.4652
  257MOL0     C35394   9.173   4.547   2.791 -0.6989 -0.3730  0.0107
  257MOL0     C35395   9.273   4.446   2.764 -0.5752 -0.0116  0.3551
  257MOL0     C35396   9.276   4.389   2.626 -0.4920 -0.0437 -0.4658
  257MOL0     H35397   9.729   4.291   3.008  1.3292  0.0059  0.4441
  257MOL0     H35398   9.914   4.150   2.996 -0.2122  1.9762  1.6999
  257MOL0     H35399   9.997   3.770   2.843  0.6519 -1.6777  2.6021
  257MOL0     H35400   9.819   3.778   2.811 -0.0711  1.8718 -0.2819
  257MOL0     H35401   9.963   3.613   3.021  2.3853  4.7124 -1.5943
  257MOL0     H35402   9.791   3.637   3.015 -1.3863 -0.4968 -1.5188
  257MOL0     H35403   9.789   3.530   2.789  1.4800 -1.4907 -0.5664
  257MOL0     H35404   9.964   3.528   2.784  2.1819  1.6123  0.2784
  257MOL0     H35405  10.000   3.389   2.947 -0.8208  2.4457  2.2892
  257MOL0     H35406   9.842   3.406   3.020  2.5609  1.4503  0.2854
  257MOL0     H35407   9.920   3.242   2.768  3.9663  1.3953  2.3638
  257MOL0     H35408   9.746   3.294   2.818 -0.2290  2.7668  3.7684
  257MOL0     H35409   9.958   3.141   2.952  0.5734  3.1799 -1.8457
  257MOL0     H35410   9.796   3.190   3.040  0.7341  0.1764  0.7012
  257MOL0     H35411   9.830   3.000   2.812  4.0638  2.1139 -0.1472
  257MOL0     H35412   9.681   3.033   2.907 -0.1481  2.4840  0.1992
  257MOL0     H35413   9.822   2.957   3.103 -0.1868 -1.6024  0.5399
  257MOL0     H35414   9.761   2.836   3.004  2.7244 -0.5936  1.7021
  257MOL0     H35415   9.932   2.733   2.791 -0.1243 -1.5101  1.7159
  257MOL0     H35416  10.263   2.734   2.733 -0.6176  2.8346  1.1883
  257MOL0     H35417  10.131   2.640   2.707  1.1640  3.0039 -3.2158
  257MOL0     H35418  10.150   2.488   2.896 -1.6267  0.1510 -1.8645
  257MOL0     H35419  10.273   2.465   2.775  1.9070 -0.6751  1.3833
  257MOL0     H35420  10.326   2.610   3.041  0.1730 -3.7185  2.1541
  257MOL0     H35421  10.365   2.458   3.010 -0.3868  0.2406  2.3739
  257MOL0     H35422  10.477   2.698   2.863 -1.5364  0.1082 -0.3313
  257MOL0     H35423  10.554   2.574   2.971 -1.5151  0.3341  0.7603
  257MOL0     H35424  10.521   2.364   2.541  3.5116 -1.7087 -1.7314
  257MOL0     H35425  10.567   2.197   2.412 -2.4587  1.4401  2.0566
  257MOL0     H35426  10.544   2.037   2.489 -0.8831  0.0784  0.0839
  257MOL0     H35427  10.707   2.091   2.463  1.2870  0.1808  3.2421
  257MOL0     H35428  10.894   1.787   2.739  1.3010 -2.0343 -0.1381
  257MOL0     H35429  10.943   1.558   2.778 -1.1616  0.2579 -0.9907
  257MOL0     H35430  10.997   1.373   2.873 -0.4575  1.7506 -0.3172
  257MOL0     H35431  10.972   1.352   3.037 -1.9321  2.7271  0.3256
  257MOL0     H35432  10.837   1.126   2.966 -4.0252  3.8606 -1.5900
  257MOL0     H35433  10.891   1.158   2.802 -0.5004 -0.5460  0.1401
  257MOL0     H35434  11.027   0.996   2.913 -0.1625 -0.6808  1.6831
  257MOL0     H35435  11.076   1.112   3.048  0.6535 -2.0078 -0.5073
  257MOL0     H35436  11.173   1.247   2.869 -0.4822  0.0275  1.0157
  257MOL0     H35437  11.141   1.117   2.762  1.6355  0.7607 -1.7052
  257MOL0     H35438  11.387   1.106   2.860 -0.5224 -0.2305 -0.8933
  257MOL0     H35439  11.328   1.094   3.020 -1.1868 -3.5632  0.9466
  257MOL0     H35440  11.230   0.907   2.822  0.3707  2.8704 -0.3643
  257MOL0     H35441  11.206   0.901   3.005  0.5003 -0.0867  0.3611
  257MOL0     H35442  11.417   0.861   3.048  0.7944 -3.4718  1.0465
  257MOL0     H35443  11.485   0.892   2.887  1.7321 -0.6870  1.9724
  257MOL0     H35444  11.484   0.657   2.944  0.1357  0.0564 -0.7450
  257MOL0     H35445  11.397   0.701   2.792  0.2991 -0.2209  0.6569
  257MOL0     H35446  10.605   1.528   3.058 -2.4037  2.8822  2.1287
  257MOL0     H35447  10.592   1.789   3.033 -0.9319  1.0362 -1.7051
  257MOL0     H35448  10.693   2.147   2.949  0.8164  0.6684  0.5660
  257MOL0     H35449  10.621   2.367   2.961  1.6198 -2.0425  0.3999
  257MOL0     H35450   9.652   3.797   2.998 -2.5951  0.0274  4.2752
  257MOL0     H35451   9.454   3.959   2.974 -1.1016  1.2277  2.3210
  257MOL0     H35452   9.380   4.443   3.092 -0.0035  1.0358  1.2704
  257MOL0     H35453   9.238   4.640   3.099 -2.2285 -0.7449 -0.1800
  257MOL0     H35454   8.902   4.745   3.027 -2.1170 -3.1876  3.9508
  257MOL0     H35455   8.997   4.639   3.110 -4.5570 -1.0320 -1.9962
  257MOL0     H35456   9.161   4.839   3.155 -0.0267  1.2041  0.2540
  257MOL0     H35457   9.006   4.846   3.229 -1.4613 -2.4495 -1.5610
  257MOL0     H35458   9.111   5.005   2.989 -0.0088 -0.5953  0.3535
  257MOL0     H35459   8.942   4.967   2.995 -2.1243 -1.0949  2.2749
  257MOL0     H35460   9.110   5.163   3.171 -0.2455 -2.1730  2.4610
  257MOL0     H35461   8.984   5.068   3.249 -0.4688 -1.8128 -0.5697
  257MOL0     H35462   8.747   5.335   3.009  1.2307 -0.7269 -0.4842
  257MOL0     H35463   9.115   4.585   2.707  0.8038 -0.2188 -1.0005
  257MOL0     H35464   9.365   4.418   2.568  0.7984  2.2729  2.4480
  257MOL0     H35465   9.268   4.281   2.640  0.9157 -0.1233 -0.1612
  257MOL0     H35466   9.189   4.424   2.570 -1.0096  0.8687  0.8658
  258MOL0     O35467   8.525   0.669   0.687  0.4128 -0.1125 -0.3944
  258MOL0     C35468   8.620   0.608   0.734 -0.3063 -0.5786  0.1349
  258MOL0     O35469   8.635   0.558   0.859  0.0402 -0.2426  0.5503
  258MOL0     C35470   8.532   0.575   0.944 -1.1134  1.0258 -1.1809
  258MOL0     C35471   8.396   0.539   0.927 -0.4550 -0.0166  0.6987
  258MOL0     C35472   8.303   0.539   1.031  0.6979 -0.4243 -0.2006
  258MOL0     C35473   8.336   0.557   1.163  0.3908  0.8814 -0.1389
  258MOL0     O35474   8.229   0.557   1.248 -0.7567  1.1450  0.5927
  258MOL0     C35475   8.194   0.425   1.278  0.0370  0.0770 -0.4164
  258MOL0     C35476   8.098   0.444   1.397  0.1513  1.0273  0.2120
  258MOL0     C35477   8.035   0.308   1.431  0.4571  0.8269  0.4466
  258MOL0     C35478   7.974   0.326   1.571  0.5016  0.1202  0.1560
  258MOL0     C35479   7.932   0.194   1.637  0.0906 -0.7451 -0.4150
  258MOL0     C35480   7.860   0.225   1.769  0.3981 -0.5212 -0.1830
  258MOL0     C35481   7.865   0.105   1.863  0.0221  0.6859 -0.3482
  258MOL0     C35482   7.821   0.143   1.997  0.4206 -0.0891  0.2479
  258MOL0     N35483   7.814   0.036   2.097 -0.4476 -0.1890  0.0437
  258MOL0     C35484   7.751  -0.088   2.083 -0.0835 -0.1495  0.0711
  258MOL0     C35485   7.766  -0.138   2.213 -0.9221 -0.8399 -0.6590
  258MOL0     C35486   7.740  -0.273   2.266  0.4500 -0.6557 -0.8192
  258MOL0     C35487   7.603  -0.283   2.344  0.0433  1.6967  0.5825
  258MOL0     C35488   7.497  -0.319   2.238  0.7408 -1.0236 -0.4414
  258MOL0     C35489   7.361  -0.311   2.307 -0.0845 -0.3690  0.5538
  258MOL0     O35490   7.340  -0.428   2.389 -0.3077 -0.3103 -0.5253
  258MOL0     C35491   7.242  -0.421   2.486 -0.5395  0.2525 -0.3189
  258MOL0     C35492   7.219  -0.535   2.560  0.2858 -0.4128  0.2349
  258MOL0     C35493   7.119  -0.542   2.658  0.0974 -0.3166 -0.4493
  258MOL0     C35494   7.092  -0.671   2.725  0.1478 -0.0124  0.3355
  258MOL0     C35495   7.036  -0.427   2.686  0.0505 -0.4530  0.4266
  258MOL0     C35496   6.913  -0.431   2.777 -0.0326 -0.3957 -0.1932
  258MOL0     O35497   6.833  -0.324   2.755  0.0990 -0.5776 -0.6233
  258MOL0     C35498   6.700  -0.335   2.796  0.4634  0.0527 -0.0354
  258MOL0     C35499   6.616  -0.416   2.716  0.4917  0.2109  0.9805
  258MOL0     C35500   6.476  -0.425   2.761 -0.5252 -0.0261  1.2187
  258MOL0     C35501   6.431  -0.376   2.880 -0.0659 -0.2782  1.4357
  258MOL0     O35502   6.298  -0.401   2.912  0.2196  0.0357  0.4434
  258MOL0     C35503   6.280  -0.501   3.012 -0.1359  0.9575  0.7220
  258MOL0     C35504   6.135  -0.489   3.049 -1.1339  0.8199  0.4563
  258MOL0     C35505   6.099  -0.358   3.115  1.0029 -0.2926  0.4088
  258MOL0     C35506   6.173  -0.316   3.236  1.8454  0.4113  0.4214
  258MOL0     C35507   6.111  -0.182   3.290 -0.5154  0.1850  0.2808
  258MOL0     C35508   6.108  -0.056   3.200 -0.7155  0.1029  1.1177
  258MOL0     C35509   6.066   0.077   3.263  0.2761  1.0916 -0.7133
  258MOL0     C35510   6.138   0.096   3.398  1.1613  0.6390  0.8212
  258MOL0    Cl35511   6.311   0.146   3.377 -0.2961 -0.1433 -0.4340
  258MOL0     C35512   6.516  -0.295   2.951  0.2096 -0.5153  0.5938
  258MOL0     C35513   6.644  -0.272   2.906 -0.2663 -0.5891 -0.4088
  258MOL0     O35514   6.880  -0.525   2.845  0.0101  0.5610 -0.0334
  258MOL0     C35515   7.061  -0.314   2.608 -0.1591 -0.2395 -0.1388
  258MOL0     C35516   7.166  -0.308   2.516  0.3821 -1.1553  1.2783
  258MOL0     N35517   7.816  -0.036   2.294  0.5901  0.8780  0.2167
  258MOL0     N35518   7.856   0.060   2.219  0.4579  0.6520 -0.0709
  258MOL0     C35519   8.472   0.574   1.190 -0.1060  0.4945  1.0629
  258MOL0     C35520   8.566   0.581   1.086 -0.2362  0.5579  0.1037
  258MOL0     C35521   8.721   0.588   0.631 -0.5016  0.0967 -0.9544
  258MOL0     C35522   8.761   0.698   0.560  0.3552  0.7642 -0.0857
  258MOL0     C35523   8.863   0.686   0.463 -0.4477 -0.7106  0.9033
  258MOL0     C35524   8.918   0.563   0.424  0.5564  0.6908 -0.5103
  258MOL0     O35525   9.009   0.561   0.318  0.5771 -0.1632 -0.0632
  258MOL0     C35526   9.080   0.439   0.307  0.2577 -0.0027 -1.0128
  258MOL0     C35527   9.187   0.459   0.204  0.0054 -1.3046 -0.1726
  258MOL0     C35528   9.288   0.340   0.209 -0.2097  0.2040  0.0770
  258MOL0     C35529   9.252   0.207   0.138  0.0755 -1.0246 -0.0753
  258MOL0     C35530   9.184   0.235   0.019  1.4961 -0.5234  0.0954
  258MOL0     C35531   9.126   0.248  -0.088  0.0875  0.3726  0.6526
  258MOL0     C35532   8.865   0.455   0.493  0.2576  0.6330 -0.1843
  258MOL0     C35533   8.780   0.466   0.600  1.2450  0.1297  0.0299
  258MOL0     C35534   8.727   0.339   0.657 -0.3424 -0.8716  0.7850
  258MOL0     H35535   8.353   0.515   0.830 -0.3887  0.5463  0.5273
  258MOL0     H35536   8.197   0.524   1.013 -0.8358  5.9082  1.0573
  258MOL0     H35537   8.285   0.372   1.305 -0.7647 -0.3700  1.5286
  258MOL0     H35538   8.152   0.373   1.191 -1.5239  3.5730 -1.9922
  258MOL0     H35539   8.149   0.488   1.483 -1.3835  0.9579  1.2078
  258MOL0     H35540   8.018   0.515   1.375  0.2140  0.7085 -1.1371
  258MOL0     H35541   7.959   0.283   1.356  0.8511 -0.0823  0.3442
  258MOL0     H35542   8.106   0.226   1.444 -1.0540 -0.7081 -0.5913
  258MOL0     H35543   8.038   0.381   1.640  2.9959  1.4831 -3.0502
  258MOL0     H35544   7.886   0.391   1.562 -0.4212 -0.7577  2.1569
  258MOL0     H35545   8.020   0.132   1.658 -0.8061 -2.0367 -0.3504
  258MOL0     H35546   7.873   0.136   1.566  0.5260  0.1293 -1.5282
  258MOL0     H35547   7.924   0.297   1.822  1.2066 -2.7685  2.1304
  258MOL0     H35548   7.762   0.268   1.748  0.3424 -0.2533  0.5928
  258MOL0     H35549   7.965   0.062   1.860 -0.1891  0.1848 -3.1588
  258MOL0     H35550   7.790   0.033   1.828 -1.2468  1.7685  0.0204
  258MOL0     H35551   7.885   0.226   2.030 -0.2036  2.6376 -4.5074
  258MOL0     H35552   7.722   0.187   1.978  0.2839 -0.6629 -0.3756
  258MOL0     H35553   7.722  -0.136   1.990 -0.5513 -0.8219  0.5557
  258MOL0     H35554   7.817  -0.289   2.342  0.9288  1.8836 -0.6860
  258MOL0     H35555   7.735  -0.350   2.188  1.1184 -0.4262 -1.0942
  258MOL0     H35556   7.610  -0.369   2.411 -0.0181  2.5076  1.6554
  258MOL0     H35557   7.589  -0.188   2.397  0.9930  2.3817 -0.3585
  258MOL0     H35558   7.488  -0.251   2.153  2.5102 -1.7436 -1.2437
  258MOL0     H35559   7.509  -0.419   2.196 -1.8999 -0.6544 -2.3289
  258MOL0     H35560   7.367  -0.217   2.363 -1.1273 -0.6482  1.1466
  258MOL0     H35561   7.284  -0.296   2.231  1.7875  2.0985 -1.0593
  258MOL0     H35562   7.276  -0.623   2.535  0.3365 -0.3388  0.0888
  258MOL0     H35563   7.140  -0.762   2.687  0.0502  0.5528 -1.1954
  258MOL0     H35564   6.984  -0.686   2.717  0.1554  0.2073 -0.1528
  258MOL0     H35565   7.111  -0.674   2.833  1.2533 -1.4646  0.1346
  258MOL0     H35566   6.648  -0.466   2.625  1.4219  0.1187  1.3486
  258MOL0     H35567   6.406  -0.472   2.692  0.9524 -2.2565  1.1336
  258MOL0     H35568   6.300  -0.601   2.973 -1.6355  0.3618  1.4212
  258MOL0     H35569   6.345  -0.489   3.099 -0.2784 -2.5284  1.4596
  258MOL0     H35570   6.093  -0.508   2.950 -0.0349  2.6941 -0.4164
  258MOL0     H35571   6.110  -0.567   3.122 -0.9587  0.6543  0.3393
  258MOL0     H35572   5.998  -0.360   3.157  1.0508 -2.3533  0.5237
  258MOL0     H35573   6.105  -0.276   3.042 -0.8510  0.9651  1.5906
  258MOL0     H35574   6.279  -0.303   3.214  1.8872 -1.2593 -0.5578
  258MOL0     H35575   6.165  -0.394   3.312  1.5461  1.1745  1.1814
  258MOL0     H35576   6.011  -0.205   3.327  0.4435 -1.1810  2.1839
  258MOL0     H35577   6.176  -0.154   3.373 -0.1411 -1.4121  0.5519
  258MOL0     H35578   6.050  -0.063   3.107  1.0473  1.1843 -0.1300
  258MOL0     H35579   6.208  -0.032   3.162 -0.6334 -1.2894  0.3819
  258MOL0     H35580   5.959   0.074   3.289  1.2436 -0.6947  4.0335
  258MOL0     H35581   6.087   0.165   3.201  4.4513  1.5538  0.9891
  258MOL0     H35582   6.118   0.015   3.470  0.7448 -0.4365 -0.4543
  258MOL0     H35583   6.071   0.169   3.444 -2.5037  0.2147 -3.1809
  258MOL0     H35584   6.471  -0.238   3.032 -2.6362 -1.4455 -0.2365
  258MOL0     H35585   6.697  -0.200   2.969  0.5234 -2.7546  1.5394
  258MOL0     H35586   6.991  -0.231   2.606  1.6357  1.4979  2.1799
  258MOL0     H35587   7.186  -0.219   2.458  2.7428 -1.0907  2.0818
  258MOL0     H35588   8.518   0.593   1.287 -1.1349  3.6188  1.0473
  258MOL0     H35589   8.669   0.586   1.117  0.3747 -2.6497 -1.0243
  258MOL0     H35590   8.711   0.794   0.572  0.7870  1.8656 -5.0777
  258MOL0     H35591   8.896   0.785   0.433 -2.1309  0.6294  3.1475
  258MOL0     H35592   9.123   0.432   0.408 -0.9188  0.5326 -0.4436
  258MOL0     H35593   9.020   0.350   0.287  1.2561 -0.1131 -3.8625
  258MOL0     H35594   9.248   0.548   0.224  1.4660 -2.3122  0.0473
  258MOL0     H35595   9.144   0.472   0.104 -1.0911  2.1279  0.6120
  258MOL0     H35596   9.383   0.374   0.168  1.1989 -1.4340  1.8021
  258MOL0     H35597   9.319   0.321   0.312  2.2169  0.1604 -0.6115
  258MOL0     H35598   9.173   0.166   0.201 -0.8699 -2.4252 -2.0919
  258MOL0     H35599   9.338   0.143   0.119  1.0372  0.1742  0.0785
  258MOL0     H35600   9.079   0.253  -0.184 -0.0504  2.1384  0.7718
  258MOL0     H35601   8.901   0.359   0.459  2.3231  2.2363 -3.0204
  258MOL0     H35602   8.811   0.277   0.691  0.1647  0.1546  1.4361
  258MOL0     H35603   8.672   0.361   0.749 -0.0392  0.9500  0.5635
  258MOL0     H35604   8.655   0.287   0.593 -2.1524  2.2616  0.0732
  259MOL0     O35605   8.521   0.882  11.210 -0.8748  0.2599 -0.0651
  259MOL0     C35606   8.547   0.772  11.163 -0.4761  0.2425  0.0076
  259MOL0     O35607   8.630   0.749  11.059 -1.0067 -0.3158 -0.1637
  259MOL0     C35608   8.724   0.854  11.026 -0.3880  0.3565 -0.6645
  259MOL0     C35609   8.788   0.947  11.117 -0.3914  0.7429 -0.1610
  259MOL0     C35610   8.859   1.058  11.070 -0.5038 -0.6391  0.0827
  259MOL0     C35611   8.871   1.086  10.938 -0.0633 -0.3577 -1.3217
  259MOL0     O35612   8.950   1.192  10.900 -0.4180 -0.5481  0.4619
  259MOL0     C35613   8.977   1.208  10.762 -0.9861  0.2995 -1.0529
  259MOL0     C35614   9.090   1.317  10.752  0.9390 -0.0330 -0.4140
  259MOL0     C35615   9.216   1.270  10.824 -0.5068 -0.8385 -0.0096
  259MOL0     C35616   9.323   1.388  10.820  0.5048  0.0835  0.6056
  259MOL0     C35617   9.443   1.368  10.923  0.5522 -0.1773  0.4511
  259MOL0     C35618   9.562   1.456  10.897 -0.9352  0.3908 -0.1243
  259MOL0     C35619   9.664   1.459  11.018  0.2072 -0.1046  0.2237
  259MOL0     C35620   9.771   1.558  10.972  0.8038 -0.3444  1.2472
  259MOL0     N35621   9.881   1.574  11.071  0.4771 -0.0360 -0.3344
  259MOL0     C35622   9.953   1.467  11.116 -0.1736 -0.0926 -0.3916
  259MOL0     C35623  10.019   1.515  11.225 -0.5978 -0.0040 -0.0835
  259MOL0     C35624  10.100   1.436  11.331  0.0400 -0.0390 -0.1810
  259MOL0     C35625  10.240   1.428  11.283  0.0962 -0.6912  0.0801
  259MOL0     C35626  10.326   1.354  11.391 -0.8800  0.7330  0.3032
  259MOL0     C35627  10.319   1.195  11.409 -0.3162 -0.1017  0.3042
  259MOL0     O35628  10.348   1.141  11.286  0.2155  0.6655  0.5019
  259MOL0     C35629  10.303   1.007  11.267  0.1538 -0.0843  0.0666
  259MOL0     C35630  10.173   0.959  11.254 -0.1208 -1.2196 -0.8853
  259MOL0     C35631  10.140   0.828  11.229 -0.4397 -0.0838  0.2953
  259MOL0     C35632   9.997   0.798  11.198  0.3967 -0.3991  0.0360
  259MOL0     C35633  10.248   0.733  11.233 -0.1326  0.0743  0.3944
  259MOL0     C35634  10.222   0.593  11.238  0.7618  1.3564 -0.0027
  259MOL0     O35635  10.317   0.512  11.187  0.5609 -0.3119 -0.7226
  259MOL0     C35636  10.325   0.381  11.172  0.3586  0.6134 -0.3990
  259MOL0     C35637  10.242   0.288  11.237  0.9514  0.2507 -0.4063
  259MOL0     C35638  10.251   0.154  11.201 -0.7139  0.6114  0.1409
  259MOL0     C35639  10.340   0.117  11.106 -0.3212 -0.0179  0.1424
  259MOL0     O35640  10.337  -0.010  11.062  0.0037  0.0267 -0.0773
  259MOL0     C35641  10.389  -0.111  11.145  0.1369 -0.3323 -1.2345
  259MOL0     C35642  10.457  -0.230  11.072 -0.0711 -0.0062  0.0086
  259MOL0     C35643  10.600  -0.207  11.012 -0.0080 -0.3799  1.0354
  259MOL0     C35644  10.606  -0.277  10.884 -0.4182  0.1811  0.4699
  259MOL0     C35645  10.758  -0.265  10.850 -0.1807 -0.5889 -0.4192
  259MOL0     C35646  10.792  -0.318  10.709 -0.1426 -0.5078  0.3583
  259MOL0     C35647  10.732  -0.257  10.583  0.6806 -0.8357 -0.5866
  259MOL0     C35648  10.810  -0.283  10.456  0.6436  0.4303  0.0321
  259MOL0    Cl35649  10.959  -0.185  10.472 -0.7296  0.1535  0.5111
  259MOL0     C35650  10.435   0.199  11.048 -0.9899 -0.6990  0.6131
  259MOL0     C35651  10.425   0.334  11.089 -0.3387 -0.1400  0.5628
  259MOL0     O35652  10.118   0.553  11.293  0.2176  0.1144 -0.0490
  259MOL0     C35653  10.383   0.779  11.251  0.9748  0.8061  0.0044
  259MOL0     C35654  10.411   0.916  11.261  0.1622 -0.3882 -1.0917
  259MOL0     N35655  10.000   1.651  11.238  0.5811  0.2035  0.6837
  259MOL0     N35656   9.914   1.687  11.144  0.0191 -0.2901 -0.0049
  259MOL0     C35657   8.813   0.991  10.849 -0.2566  0.0791 -0.2108
  259MOL0     C35658   8.749   0.875  10.898 -0.1149 -0.3482  0.4004
  259MOL0     C35659   8.455   0.671  11.203 -0.0709 -1.0349 -0.9707
  259MOL0     C35660   8.328   0.703  11.270 -0.5900  0.0854 -0.1001
  259MOL0     C35661   8.237   0.609  11.316 -0.0657  0.3580  0.1877
  259MOL0     C35662   8.253   0.476  11.280 -0.9632 -0.4716  0.3591
  259MOL0     O35663   8.171   0.371  11.326  0.7347 -1.3707 -0.2622
  259MOL0     C35664   8.222   0.322  11.454  0.6644 -0.2546  1.3184
  259MOL0     C35665   8.172   0.403  11.580  0.7862  0.0459  0.1629
  259MOL0     C35666   8.273   0.463  11.680 -0.2299 -0.3893 -0.0376
  259MOL0     C35667   8.325   0.362  11.778 -0.8065  0.0228  0.3898
  259MOL0     C35668   8.442   0.420  11.857  0.1536 -0.4462  0.1275
  259MOL0     C35669   8.525   0.467  11.933 -0.2969  1.1181 -0.1104
  259MOL0     C35670   8.374   0.441  11.216  0.0074 -0.5661  0.1910
  259MOL0     C35671   8.471   0.532  11.170 -0.4308 -0.3232 -0.1071
  259MOL0     C35672   8.591   0.472  11.100  0.4798  0.4149 -1.4716
  259MOL0     H35673   8.788   0.948  11.225  2.4810  1.0212 -0.0813
  259MOL0     H35674   8.914   1.112  11.147 -1.7550  0.8889 -0.0470
  259MOL0     H35675   8.897   1.246  10.697 -0.7455  2.5180 -0.1610
  259MOL0     H35676   9.014   1.116  10.715  2.5133  0.6408  0.7091
  259MOL0     H35677   9.117   1.345  10.650  1.9112 -3.2825 -1.1669
  259MOL0     H35678   9.055   1.412  10.793  0.9823 -0.2548  0.1442
  259MOL0     H35679   9.174   1.245  10.922 -1.3184 -0.1211 -0.1650
  259MOL0     H35680   9.267   1.184  10.780  1.3280  1.4757 -2.7533
  259MOL0     H35681   9.364   1.388  10.719 -2.6956 -0.6968 -0.8176
  259MOL0     H35682   9.275   1.484  10.843 -3.8887 -2.2317  2.3156
  259MOL0     H35683   9.477   1.265  10.936 -0.7270 -0.6023  0.5261
  259MOL0     H35684   9.406   1.395  11.022  1.2167 -2.9869  1.5504
  259MOL0     H35685   9.614   1.424  10.806  1.9103  5.2720 -0.5898
  259MOL0     H35686   9.527   1.556  10.872 -3.3866 -0.7571 -1.6017
  259MOL0     H35687   9.700   1.358  11.039  1.5157  0.4845  0.9780
  259MOL0     H35688   9.604   1.500  11.100  0.6056  0.8167  0.0719
  259MOL0     H35689   9.814   1.533  10.875  0.1321  1.2332  0.5081
  259MOL0     H35690   9.717   1.653  10.960 -1.0111 -1.5815 -1.2787
  259MOL0     H35691   9.963   1.368  11.072  5.0517 -0.4374  0.9417
  259MOL0     H35692  10.057   1.339  11.358  0.3986 -0.9051 -2.5568
  259MOL0     H35693  10.101   1.493  11.425  1.1587  0.2704 -0.3667
  259MOL0     H35694  10.241   1.366  11.194  2.6695 -0.4280 -0.1466
  259MOL0     H35695  10.273   1.528  11.253  1.7033 -1.1169  0.3845
  259MOL0     H35696  10.432   1.366  11.367 -1.3187 -0.6407 -2.8664
  259MOL0     H35697  10.304   1.399  11.488  2.3776  1.2212  0.9444
  259MOL0     H35698  10.393   1.163  11.482  0.9368  0.4790 -0.6692
  259MOL0     H35699  10.219   1.168  11.443  0.9878 -0.1830  4.7485
  259MOL0     H35700  10.091   1.030  11.261  1.3229  0.9017 -3.4843
  259MOL0     H35701   9.979   0.731  11.114  1.4091  1.1773 -1.5135
  259MOL0     H35702   9.938   0.888  11.176 -2.0706 -2.3417 -1.9485
  259MOL0     H35703   9.957   0.750  11.288 -0.5759 -0.8550 -0.6245
  259MOL0     H35704  10.164   0.321  11.304  1.4267  1.2902 -0.3351
  259MOL0     H35705  10.182   0.086  11.250  0.2328 -0.0786  0.5503
  259MOL0     H35706  10.466  -0.061  11.203  3.0886 -1.7496 -3.6610
  259MOL0     H35707  10.313  -0.147  11.215  2.0882 -1.7339  0.2527
  259MOL0     H35708  10.474  -0.299  11.155  4.0341  1.2470  0.4370
  259MOL0     H35709  10.383  -0.273  11.003 -1.8995 -0.9340  2.4235
  259MOL0     H35710  10.674  -0.257  11.074  0.6494 -1.7381 -0.7462
  259MOL0     H35711  10.633  -0.103  11.003  2.2453 -1.0950  0.5010
  259MOL0     H35712  10.538  -0.235  10.809 -0.8146  0.8553  1.2020
  259MOL0     H35713  10.572  -0.380  10.885 -0.5512  0.1736 -1.3790
  259MOL0     H35714  10.802  -0.165  10.857  0.1443 -0.5486 -2.5527
  259MOL0     H35715  10.805  -0.336  10.918 -0.5464 -2.0470 -1.6277
  259MOL0     H35716  10.769  -0.424  10.704  0.3790 -0.5738 -2.5177
  259MOL0     H35717  10.902  -0.314  10.705  0.1777 -1.1970  4.5560
  259MOL0     H35718  10.721  -0.148  10.587 -1.2352 -0.8285 -3.4002
  259MOL0     H35719  10.630  -0.297  10.576  0.2905  0.3200 -1.8029
  259MOL0     H35720  10.747  -0.252  10.373 -0.4711 -3.7150 -0.9241
  259MOL0     H35721  10.839  -0.389  10.458 -0.7780  0.0158 -0.0075
  259MOL0     H35722  10.508   0.157  10.979  0.4958  2.2208  0.2466
  259MOL0     H35723  10.489   0.412  11.048 -1.8314  3.0636  3.8716
  259MOL0     H35724  10.460   0.705  11.233 -1.8826 -1.8372 -2.5123
  259MOL0     H35725  10.512   0.955  11.272 -0.3889  1.1159 -1.1606
  259MOL0     H35726   8.814   0.994  10.741  3.7823 -2.1247 -0.4475
  259MOL0     H35727   8.736   0.792  10.829 -0.5688 -0.1949  0.3004
  259MOL0     H35728   8.303   0.809  11.274 -0.6443  0.1284 -1.1408
  259MOL0     H35729   8.154   0.635  11.380  0.2108  2.0533 -0.0899
  259MOL0     H35730   8.176   0.223  11.465 -2.2230  0.6840 -0.8656
  259MOL0     H35731   8.331   0.315  11.456  0.6962 -0.9251 -0.5992
  259MOL0     H35732   8.103   0.341  11.639  2.7891 -1.0214  1.4914
  259MOL0     H35733   8.116   0.491  11.549 -2.4198 -1.0151  2.3635
  259MOL0     H35734   8.363   0.484  11.621  0.9609  0.4760  1.9916
  259MOL0     H35735   8.246   0.555  11.733  1.3916 -0.9932  1.9825
  259MOL0     H35736   8.364   0.273  11.727  1.1288 -0.6171  2.8051
  259MOL0     H35737   8.251   0.337  11.854 -0.3679 -0.5096  0.6514
  259MOL0     H35738   8.602   0.511  11.993  0.5043  1.2561 -1.2011
  259MOL0     H35739   8.382   0.337  11.183 -1.6341 -0.7347  0.2666
  259MOL0     H35740   8.586   0.486  10.992 -0.0327  2.8226 -1.1881
  259MOL0     H35741   8.681   0.522  11.139  1.8381 -3.4792  0.9085
  259MOL0     H35742   8.600   0.366  11.127 -2.3337  0.2269 -1.0336
  260MOL0     O35743   0.872   4.111   1.298 -0.6550 -0.3173 -0.3074
  260MOL0     C35744   0.982   4.166   1.314 -0.3881  0.5175 -0.0223
  260MOL0     O35745   1.010   4.290   1.329  0.3337 -0.9096  0.0244
  260MOL0     C35746   0.923   4.396   1.332  0.0598 -0.4860 -0.3629
  260MOL0     C35747   0.781   4.393   1.320 -0.2141 -0.9581 -0.3858
  260MOL0     C35748   0.702   4.509   1.329 -0.3498 -0.3992  0.0457
  260MOL0     C35749   0.757   4.642   1.346 -0.7935 -0.9060 -0.0494
  260MOL0     O35750   0.685   4.758   1.355 -0.1523 -0.1951  0.5874
  260MOL0     C35751   0.582   4.768   1.255  0.5237 -0.9193 -0.1938
  260MOL0     C35752   0.506   4.900   1.254  0.3752  0.5657  0.0989
  260MOL0     C35753   0.571   5.018   1.184  0.0953  0.0195 -0.5199
  260MOL0     C35754   0.687   5.087   1.272  0.1718 -0.6777  0.2629
  260MOL0     C35755   0.735   5.227   1.219  0.3093 -0.2020  0.1780
  260MOL0     C35756   0.781   5.216   1.068  0.0440  0.1122  0.0472
  260MOL0     C35757   0.831   5.354   1.029 -0.4047  0.0462  0.2463
  260MOL0     C35758   0.912   5.361   0.902 -1.7360 -0.0531  0.6591
  260MOL0     N35759   0.985   5.485   0.898  0.2590 -0.3648  0.6677
  260MOL0     C35760   0.930   5.612   0.883 -0.5877  0.1419 -0.2544
  260MOL0     C35761   1.037   5.698   0.883  0.0753  0.0809  0.0445
  260MOL0     C35762   1.038   5.845   0.871 -0.0302  0.5485 -0.0767
  260MOL0     C35763   0.940   5.894   0.760 -0.1057  0.0673  0.3649
  260MOL0     C35764   0.994   5.912   0.624  0.7254 -0.5318  0.6199
  260MOL0     C35765   1.104   6.013   0.587 -0.0198 -0.5704  0.1708
  260MOL0     O35766   1.106   6.122   0.683  0.1967  0.7276 -0.9271
  260MOL0     C35767   1.205   6.211   0.661 -0.6356 -0.0182 -0.4162
  260MOL0     C35768   1.294   6.216   0.551 -0.3503  0.5701 -0.5498
  260MOL0     C35769   1.386   6.331   0.548  1.0175 -0.0080  0.1735
  260MOL0     C35770   1.463   6.324   0.429  0.7279 -0.4873 -0.3612
  260MOL0     C35771   1.402   6.420   0.654  0.1467 -1.1344  0.2263
  260MOL0     C35772   1.502   6.543   0.652  0.3592  0.3083 -0.5761
  260MOL0     O35773   1.603   6.539   0.565  0.4329 -0.3187 -0.1909
  260MOL0     C35774   1.712   6.615   0.590 -0.3237 -0.1887 -0.4290
  260MOL0     C35775   1.714   6.756   0.590  0.1580  0.1653  0.3640
  260MOL0     C35776   1.833   6.826   0.596  0.5068  0.1627  0.5255
  260MOL0     C35777   1.956   6.765   0.609 -0.1611 -0.8024 -0.3110
  260MOL0     O35778   2.076   6.842   0.616  0.2096  0.6323  0.1570
  260MOL0     C35779   2.200   6.776   0.590  0.4132  0.0185 -0.8225
  260MOL0     C35780   2.293   6.883   0.547 -0.1115 -1.3740  0.1453
  260MOL0     C35781   2.433   6.853   0.609  0.3099 -0.3460  0.5310
  260MOL0     C35782   2.449   6.877   0.759  0.2519 -0.3949 -0.1536
  260MOL0     C35783   2.406   7.016   0.798  0.0593 -0.0387  0.5588
  260MOL0     C35784   2.459   7.140   0.721  0.5874  0.0720 -0.0519
  260MOL0     C35785   2.613   7.157   0.727  0.5560  0.3524  0.5058
  260MOL0     C35786   2.656   7.268   0.627  0.5303  0.0940  0.3216
  260MOL0    Cl35787   2.611   7.426   0.692  0.0430  0.1107 -0.0247
  260MOL0     C35788   1.947   6.626   0.633 -0.8249  0.2827  0.1074
  260MOL0     C35789   1.829   6.552   0.621  0.3660 -0.2926 -0.4090
  260MOL0     O35790   1.481   6.634   0.732  0.2274 -1.0172 -0.2707
  260MOL0     C35791   1.316   6.406   0.761 -0.6232  0.7022 -0.5186
  260MOL0     C35792   1.224   6.302   0.767 -0.7290 -0.3309  0.5605
  260MOL0     N35793   1.149   5.619   0.870 -0.2082  0.0470  0.1184
  260MOL0     N35794   1.112   5.493   0.860 -0.6734  0.7529 -0.6091
  260MOL0     C35795   0.901   4.649   1.354  0.1864  0.7290  0.7104
  260MOL0     C35796   0.975   4.524   1.343  1.0167 -0.1312 -1.0085
  260MOL0     C35797   1.110   4.087   1.321  0.7726  0.5888  1.7720
  260MOL0     C35798   1.107   3.957   1.262  0.8689  0.3813  0.3706
  260MOL0     C35799   1.217   3.873   1.268  0.6391  0.5210 -0.2720
  260MOL0     C35800   1.332   3.896   1.336  0.7094 -0.4359 -1.4812
  260MOL0     O35801   1.424   3.795   1.330 -0.0162 -0.2420  0.3018
  260MOL0     C35802   1.557   3.812   1.392 -0.1399 -1.1243 -0.2400
  260MOL0     C35803   1.657   3.883   1.302  0.4818  0.0699  0.6281
  260MOL0     C35804   1.704   3.766   1.204 -0.1681  0.0001  0.4416
  260MOL0     C35805   1.778   3.820   1.083  0.0959  0.4637 -1.1058
  260MOL0     C35806   1.803   3.700   1.000  0.2967  0.4080 -0.3065
  260MOL0     C35807   1.803   3.615   0.912 -0.2942 -0.5190 -0.0929
  260MOL0     C35808   1.334   4.018   1.408 -0.9035 -0.1399  0.7701
  260MOL0     C35809   1.227   4.118   1.392  0.4756 -0.4445 -0.8524
  260MOL0     C35810   1.247   4.245   1.471 -0.2292  0.5078  0.1845
  260MOL0     H35811   0.714   4.307   1.317  0.2640 -1.2959 -2.5350
  260MOL0     H35812   0.594   4.507   1.326 -0.3418 -1.2831  0.1257
  260MOL0     H35813   0.511   4.684   1.262  2.5595 -2.9751 -2.4202
  260MOL0     H35814   0.627   4.754   1.157  0.7094 -0.3025 -0.1980
  260MOL0     H35815   0.411   4.878   1.204  0.5040 -1.6659  0.7149
  260MOL0     H35816   0.482   4.916   1.359 -0.0122 -1.3708  0.3517
  260MOL0     H35817   0.611   4.995   1.085 -2.4395 -0.0105 -1.6121
  260MOL0     H35818   0.495   5.097   1.178 -1.1596 -0.7093  3.2136
  260MOL0     H35819   0.661   5.097   1.378 -0.7724  0.0780 -0.0220
  260MOL0     H35820   0.777   5.025   1.270  1.9585  1.7293  0.5497
  260MOL0     H35821   0.811   5.264   1.288 -1.5652  1.1117  1.6012
  260MOL0     H35822   0.654   5.298   1.235  0.2399  0.0395 -1.1313
  260MOL0     H35823   0.859   5.139   1.072 -0.0235 -0.0061 -0.7388
  260MOL0     H35824   0.700   5.177   1.006 -1.4298 -0.1573  2.0404
  260MOL0     H35825   0.896   5.380   1.113  1.3336  0.8258 -1.2644
  260MOL0     H35826   0.753   5.430   1.029 -2.8204 -2.2528  1.0150
  260MOL0     H35827   0.991   5.286   0.896  0.3055  2.0940 -1.4612
  260MOL0     H35828   0.849   5.348   0.814  0.5631 -2.7808 -0.7510
  260MOL0     H35829   0.827   5.643   0.887  0.3584  3.5488  0.7129
  260MOL0     H35830   1.139   5.876   0.841 -0.5970  1.8239 -0.7292
  260MOL0     H35831   1.001   5.889   0.964 -1.7885  1.3864 -1.1234
  260MOL0     H35832   0.856   5.824   0.745  1.3153 -1.0028 -4.8882
  260MOL0     H35833   0.901   5.992   0.789 -0.9022  0.1687 -0.9743
  260MOL0     H35834   1.016   5.814   0.581 -4.0935 -0.6577 -2.4472
  260MOL0     H35835   0.915   5.944   0.555 -0.1011 -3.1727  0.2238
  260MOL0     H35836   1.197   5.958   0.571 -2.1717 -3.7015 -3.4416
  260MOL0     H35837   1.080   6.048   0.486  2.0509 -2.1913 -0.9667
  260MOL0     H35838   1.276   6.152   0.465  1.4618  0.9904 -1.2992
  260MOL0     H35839   1.462   6.221   0.393 -4.0529 -0.5758 -0.6760
  260MOL0     H35840   1.568   6.354   0.433  0.0960  1.8388  0.1711
  260MOL0     H35841   1.407   6.384   0.356 -3.2242 -0.0547  2.7333
  260MOL0     H35842   1.617   6.805   0.581  0.0098 -0.1450  0.2525
  260MOL0     H35843   1.821   6.934   0.591 -1.2383 -0.0363 -0.3247
  260MOL0     H35844   2.233   6.729   0.683 -0.5298  3.2432  1.2819
  260MOL0     H35845   2.184   6.696   0.516 -0.5879  0.4071 -1.0353
  260MOL0     H35846   2.303   6.883   0.438 -1.2203 -3.5160 -0.0055
  260MOL0     H35847   2.257   6.981   0.579  2.4079  0.1128 -1.2732
  260MOL0     H35848   2.519   6.901   0.562 -1.4673 -0.3780 -3.0595
  260MOL0     H35849   2.463   6.749   0.589  0.7348 -0.4662  1.7195
  260MOL0     H35850   2.557   6.869   0.777  1.5295  1.6206 -5.1234
  260MOL0     H35851   2.389   6.812   0.823  0.8531 -2.1631 -1.2905
  260MOL0     H35852   2.297   7.008   0.794  0.1463 -1.0394 -2.2489
  260MOL0     H35853   2.453   7.038   0.894  1.6315  1.8185 -0.5683
  260MOL0     H35854   2.411   7.228   0.765 -0.3993 -0.3752 -0.2101
  260MOL0     H35855   2.413   7.136   0.622 -0.3606 -0.7235  0.4083
  260MOL0     H35856   2.646   7.059   0.689 -0.1087 -0.4428  1.8969
  260MOL0     H35857   2.665   7.180   0.821 -0.7929  0.5967  1.2122
  260MOL0     H35858   2.609   7.247   0.531  1.1133  1.7806 -0.3729
  260MOL0     H35859   2.764   7.248   0.627  0.2751 -1.5939 -1.8116
  260MOL0     H35860   2.039   6.571   0.655 -0.2218  1.3452  0.2970
  260MOL0     H35861   1.813   6.449   0.651 -1.2867  0.6445  2.2870
  260MOL0     H35862   1.336   6.473   0.844  3.2976 -0.6500 -0.1534
  260MOL0     H35863   1.166   6.283   0.858  0.2844  0.7660  1.4639
  260MOL0     H35864   0.959   4.740   1.366  1.7806 -0.3614  1.8144
  260MOL0     H35865   1.080   4.538   1.364  0.1043  1.6750  3.4359
  260MOL0     H35866   1.027   3.934   1.194  1.1147 -0.1718  0.2618
  260MOL0     H35867   1.179   3.788   1.212 -5.2206  0.8694  2.3920
  260MOL0     H35868   1.552   3.884   1.474  0.7242  2.3736 -3.0282
  260MOL0     H35869   1.596   3.713   1.417 -1.5654 -1.9195 -1.0560
  260MOL0     H35870   1.748   3.919   1.352 -0.3008  2.8783  0.2115
  260MOL0     H35871   1.611   3.963   1.244  1.4795 -0.4978 -1.0199
  260MOL0     H35872   1.758   3.683   1.250 -4.5472 -2.9189  0.8803
  260MOL0     H35873   1.615   3.718   1.162  1.4309 -2.8367  0.0595
  260MOL0     H35874   1.872   3.874   1.097 -0.7745  1.9334 -0.7065
  260MOL0     H35875   1.714   3.888   1.026 -0.6236 -0.7597 -1.8136
  260MOL0     H35876   1.802   3.545   0.830  0.3236 -0.2544 -0.3330
  260MOL0     H35877   1.422   4.053   1.461  1.4389  1.0154 -3.4094
  260MOL0     H35878   1.272   4.322   1.397 -1.4011  0.0397 -0.7342
  260MOL0     H35879   1.155   4.279   1.519  0.4208  0.5546  1.4282
  260MOL0     H35880   1.319   4.234   1.552  1.5176  0.0093 -1.3533
  261MOL0     O35881   1.552  10.092   3.044 -0.0520  0.2531 -0.5433
  261MOL0     C35882   1.631  10.094   3.138  0.0675 -0.2514  0.0509
  261MOL0     O35883   1.712   9.987   3.178 -0.3784  0.5263  0.0539
  261MOL0     C35884   1.674   9.853   3.173 -0.2046  0.1889 -0.3881
  261MOL0     C35885   1.540   9.813   3.175 -0.5493  0.6808  0.5795
  261MOL0     C35886   1.508   9.672   3.185 -0.5677 -0.3222  0.1407
  261MOL0     C35887   1.609   9.573   3.174 -0.7514  0.6071  0.4007
  261MOL0     O35888   1.585   9.441   3.166  0.6348 -0.3366 -1.3770
  261MOL0     C35889   1.457   9.397   3.110 -0.8653 -0.3607 -0.5343
  261MOL0     C35890   1.478   9.260   3.067  1.1511 -0.1401  0.0713
  261MOL0     C35891   1.391   9.153   3.144  0.8942 -0.3009  0.0030
  261MOL0     C35892   1.428   9.138   3.289 -0.3393  0.6209 -0.1538
  261MOL0     C35893   1.347   9.024   3.349  0.2618  0.3947 -0.4675
  261MOL0     C35894   1.411   8.960   3.476 -0.2428  0.1425  1.2011
  261MOL0     C35895   1.449   9.061   3.585 -0.1779  0.5876  0.9254
  261MOL0     C35896   1.491   8.986   3.704  0.7528 -0.3240 -0.3213
  261MOL0     N35897   1.538   9.063   3.814 -0.2111 -0.5521 -0.5806
  261MOL0     C35898   1.648   9.150   3.824 -0.4809  0.0626 -0.1578
  261MOL0     C35899   1.639   9.201   3.954  0.9110 -0.6633 -0.6841
  261MOL0     C35900   1.747   9.289   4.005  0.2774 -1.1966 -0.1786
  261MOL0     C35901   1.683   9.375   4.119  0.0337  1.3852 -0.4165
  261MOL0     C35902   1.792   9.477   4.156 -0.1113 -0.3924  0.9517
  261MOL0     C35903   1.748   9.556   4.274 -0.3235  1.2066  0.4574
  261MOL0     O35904   1.836   9.664   4.297 -0.3921  0.1532 -0.2409
  261MOL0     C35905   1.834   9.779   4.224  0.7919 -0.5640 -0.1489
  261MOL0     C35906   1.951   9.859   4.229 -0.0055  0.0935 -0.3576
  261MOL0     C35907   1.965   9.983   4.175  0.1961 -0.3243  0.5959
  261MOL0     C35908   2.091  10.058   4.202 -0.5183  0.9230  0.0691
  261MOL0     C35909   1.858  10.031   4.085 -0.6171  1.3182 -0.1703
  261MOL0     C35910   1.845  10.167   4.026 -0.7944 -0.6532 -0.7574
  261MOL0     O35911   1.744  10.188   3.944  0.4471 -0.0871 -0.6883
  261MOL0     C35912   1.710  10.303   3.882  0.3885 -0.6235 -0.5750
  261MOL0     C35913   1.589  10.301   3.818 -0.3231 -0.1521  0.1801
  261MOL0     C35914   1.547  10.409   3.745  0.1278 -0.7869  0.4061
  261MOL0     C35915   1.617  10.539   3.736  0.3521  0.1967 -0.7825
  261MOL0     O35916   1.562  10.649   3.677 -0.2872 -0.1097 -0.2043
  261MOL0     C35917   1.609  10.777   3.725 -0.5299  0.4154 -0.2793
  261MOL0     C35918   1.537  10.889   3.651 -0.9661 -0.3175 -0.4814
  261MOL0     C35919   1.387  10.894   3.681 -1.1748  0.9138  0.4819
  261MOL0     C35920   1.292  10.946   3.579 -1.1568 -0.2820 -0.0350
  261MOL0     C35921   1.148  10.977   3.608 -0.3492  0.6421 -0.2552
  261MOL0     C35922   1.133  11.079   3.717 -1.1375 -0.2759  0.2298
  261MOL0     C35923   0.992  11.139   3.742  0.3442 -0.2911 -0.2110
  261MOL0     C35924   0.896  11.036   3.814  0.1693  0.5871 -0.0298
  261MOL0    Cl35925   0.958  11.026   3.988  0.1934  0.0818  0.1956
  261MOL0     C35926   1.736  10.532   3.805 -0.3839  0.8962 -0.2506
  261MOL0     C35927   1.789  10.418   3.870  0.3518  0.7864  0.2479
  261MOL0     O35928   1.932  10.252   4.052  0.4690 -1.2407 -0.7213
  261MOL0     C35929   1.744   9.947   4.070  1.3066 -0.1946 -0.6943
  261MOL0     C35930   1.736   9.820   4.139  0.4259  0.1213  0.6516
  261MOL0     N35931   1.534   9.141   4.015  0.0468  0.4613 -0.4126
  261MOL0     N35932   1.472   9.061   3.932  0.1043  0.1007  0.3862
  261MOL0     C35933   1.745   9.613   3.166  0.2299 -0.2151 -0.2968
  261MOL0     C35934   1.776   9.757   3.158  0.5148  0.4996  0.0207
  261MOL0     C35935   1.668  10.231   3.191  0.1386  0.0673 -0.1942
  261MOL0     C35936   1.804  10.251   3.239  1.0632 -0.0431 -0.3792
  261MOL0     C35937   1.852  10.379   3.288 -0.2569  0.1891  0.2113
  261MOL0     C35938   1.772  10.489   3.281  0.2414 -0.1617 -0.0740
  261MOL0     O35939   1.813  10.609   3.350  0.2984 -0.3439  0.4720
  261MOL0     C35940   1.760  10.737   3.295  0.4715  0.0559  0.0025
  261MOL0     C35941   1.850  10.856   3.323 -0.8138 -0.4354  0.0756
  261MOL0     C35942   1.798  10.946   3.434  0.2485  0.1582 -0.5345
  261MOL0     C35943   1.879  11.074   3.461 -1.3093 -0.4694  0.0981
  261MOL0     C35944   2.011  11.036   3.518  0.5272 -0.4541 -0.4318
  261MOL0     C35945   2.108  11.024   3.583 -1.2238  0.5886 -0.0073
  261MOL0     C35946   1.646  10.470   3.217  0.1727 -0.3387 -0.3025
  261MOL0     C35947   1.596  10.347   3.179  0.0871 -0.0658  0.3583
  261MOL0     C35948   1.458  10.356   3.116  0.0764 -0.8025  0.1791
  261MOL0     H35949   1.459   9.885   3.168  0.7059  2.1802  0.8970
  261MOL0     H35950   1.405   9.637   3.188 -0.0523 -1.8379  0.4185
  261MOL0     H35951   1.425   9.448   3.019 -2.0281  0.2770  0.2173
  261MOL0     H35952   1.377   9.403   3.184  0.3652 -2.0189  1.0470
  261MOL0     H35953   1.457   9.252   2.960  5.1785 -0.5570 -0.8319
  261MOL0     H35954   1.579   9.226   3.095  1.5713  1.0695  0.0692
  261MOL0     H35955   1.291   9.196   3.138  1.4928  0.9109 -3.3080
  261MOL0     H35956   1.402   9.063   3.084  1.0662 -0.5183  0.3534
  261MOL0     H35957   1.533   9.109   3.301 -0.8198  0.0577  3.8951
  261MOL0     H35958   1.411   9.226   3.351  1.8547 -0.7824  2.6907
  261MOL0     H35959   1.335   8.951   3.268  0.6111 -0.0778 -0.0969
  261MOL0     H35960   1.245   9.054   3.375  1.0714 -0.0926  3.9787
  261MOL0     H35961   1.338   8.888   3.514  0.7603 -0.8518  1.3058
  261MOL0     H35962   1.486   8.884   3.453 -1.6152 -0.7824 -0.3952
  261MOL0     H35963   1.370   9.134   3.602  0.4906  1.3498  0.8003
  261MOL0     H35964   1.534   9.111   3.538  1.6133 -2.6243  0.3916
  261MOL0     H35965   1.403   8.938   3.749  1.4051 -1.4655 -0.2249
  261MOL0     H35966   1.561   8.905   3.682  0.3139 -0.8752  0.2715
  261MOL0     H35967   1.720   9.185   3.751  1.8854  2.8123  3.1379
  261MOL0     H35968   1.778   9.356   3.924  3.1661 -1.5982  0.4967
  261MOL0     H35969   1.840   9.237   4.030  1.8306  0.8499 -1.4323
  261MOL0     H35970   1.592   9.430   4.093  0.1904  1.9851  0.2489
  261MOL0     H35971   1.646   9.313   4.201 -0.1680  0.8180 -0.9336
  261MOL0     H35972   1.884   9.427   4.189  0.1644 -1.4455 -1.2387
  261MOL0     H35973   1.808   9.546   4.073 -1.2286 -0.0891  0.9774
  261MOL0     H35974   1.643   9.587   4.267 -0.8288  1.1281  4.9471
  261MOL0     H35975   1.759   9.497   4.365  2.2213  1.2971  0.2700
  261MOL0     H35976   2.021   9.822   4.304  2.3204  0.1415 -2.3864
  261MOL0     H35977   2.137  10.076   4.104  0.2241  4.0110  0.8645
  261MOL0     H35978   2.153  10.012   4.278  0.7031  0.7693 -0.9906
  261MOL0     H35979   2.057  10.151   4.250  0.8139  1.5214 -0.0991
  261MOL0     H35980   1.528  10.212   3.829  0.8188 -1.4337 -2.7022
  261MOL0     H35981   1.449  10.406   3.700 -0.0002 -1.0707  0.6989
  261MOL0     H35982   1.585  10.779   3.832 -0.6209 -1.6625 -0.2099
  261MOL0     H35983   1.717  10.791   3.722  0.0733 -3.1732 -0.0754
  261MOL0     H35984   1.591  10.984   3.653 -1.1539 -0.1697 -1.9428
  261MOL0     H35985   1.543  10.867   3.544 -1.7966 -0.2637 -0.5478
  261MOL0     H35986   1.373  10.960   3.767  2.0214  3.3480 -0.6568
  261MOL0     H35987   1.356  10.792   3.705  0.4810  0.4233  0.6527
  261MOL0     H35988   1.293  10.869   3.501 -0.8661  0.3829 -0.7027
  261MOL0     H35989   1.347  11.037   3.553 -1.3018  0.4986  2.2238
  261MOL0     H35990   1.110  11.038   3.525  2.5825  0.0565 -2.1738
  261MOL0     H35991   1.091  10.885   3.625 -0.1573  0.3797 -0.9794
  261MOL0     H35992   1.207  11.158   3.705 -0.7875 -0.1482  2.7428
  261MOL0     H35993   1.167  11.037   3.812  1.5172 -1.1504 -0.9999
  261MOL0     H35994   0.942  11.163   3.647  0.9285 -0.8935 -0.6843
  261MOL0     H35995   0.999  11.223   3.812  1.1542 -2.8173  2.9706
  261MOL0     H35996   0.910  10.934   3.777  2.6516  0.1750  1.8772
  261MOL0     H35997   0.791  11.066   3.805 -0.8386 -3.0594 -4.6372
  261MOL0     H35998   1.804  10.615   3.789 -1.7481  1.9119 -0.8819
  261MOL0     H35999   1.894  10.426   3.895  0.8026  0.7435 -1.5135
  261MOL0     H36000   1.664   9.981   4.006  0.6198  0.6408  0.5528
  261MOL0     H36001   1.646   9.759   4.139 -0.5521  1.3654 -2.3823
  261MOL0     H36002   1.829   9.545   3.165  0.5586  0.1605  0.8971
  261MOL0     H36003   1.878   9.781   3.130  0.6239 -2.9240 -3.3365
  261MOL0     H36004   1.862  10.161   3.259 -1.4267 -1.5368  0.5947
  261MOL0     H36005   1.950  10.393   3.333 -0.0002 -2.4053  0.6432
  261MOL0     H36006   1.747  10.733   3.187  1.0085 -2.4675 -0.0350
  261MOL0     H36007   1.660  10.753   3.335 -0.0111 -0.5157 -0.9355
  261MOL0     H36008   1.851  10.921   3.235 -0.1848  1.7498  1.6111
  261MOL0     H36009   1.946  10.812   3.351 -0.6810 -0.8700 -1.0066
  261MOL0     H36010   1.694  10.968   3.408 -0.5731 -1.3791  1.2332
  261MOL0     H36011   1.798  10.882   3.523 -3.4376  1.3482  0.5243
  261MOL0     H36012   1.821  11.136   3.530  2.3189  1.0284  2.1215
  261MOL0     H36013   1.896  11.143   3.378  0.0078  2.3387  2.5129
  261MOL0     H36014   2.177  11.021   3.664 -0.1765  0.1771 -0.8917
  261MOL0     H36015   1.584  10.558   3.202 -1.0342 -1.0863  0.1514
  261MOL0     H36016   1.398  10.435   3.161  1.7404  0.0774  0.9346
  261MOL0     H36017   1.475  10.369   3.009  0.5146 -1.0232  0.2185
  261MOL0     H36018   1.394  10.270   3.139 -1.7735  0.7465  1.0679
  262MOL0     O36019  10.241   7.225  10.898  0.0706  0.3112 -0.9337
  262MOL0     C36020  10.342   7.260  10.839  0.3067 -0.4473  0.0600
  262MOL0     O36021  10.441   7.342  10.884  0.1919 -0.2382 -0.8183
  262MOL0     C36022  10.444   7.393  11.010 -0.8292  1.0606 -0.1156
  262MOL0     C36023  10.504   7.522  11.047 -0.5030  0.1575  1.3684
  262MOL0     C36024  10.505   7.567  11.180 -0.4085 -0.1081 -0.3805
  262MOL0     C36025  10.465   7.476  11.284  0.2994  0.7393  0.0781
  262MOL0     O36026  10.459   7.513  11.413 -0.0597  0.3053  0.0413
  262MOL0     C36027  10.571   7.586  11.476  0.7455 -0.2515 -0.0873
  262MOL0     C36028  10.514   7.693  11.571 -1.1545  0.7825  0.2024
  262MOL0     C36029  10.422   7.795  11.525  0.1290 -0.2537  0.0794
  262MOL0     C36030  10.362   7.873  11.643  0.3046 -0.4187 -0.1534
  262MOL0     C36031  10.267   7.976  11.595  0.1636  0.4389  0.3495
  262MOL0     C36032  10.351   8.102  11.525 -0.1412  1.7094 -0.4274
  262MOL0     C36033  10.488   8.148  11.592 -0.2269  0.5713  0.2226
  262MOL0     C36034  10.569   8.248  11.513 -0.5053 -0.5884 -0.8924
  262MOL0     N36035  10.617   8.193  11.387 -0.6907  0.5549 -0.3592
  262MOL0     C36036  10.718   8.099  11.384  0.6941 -0.3940 -0.0318
  262MOL0     C36037  10.720   8.064  11.256 -0.4347  0.1629  0.9075
  262MOL0     C36038  10.804   7.946  11.207  0.9600 -0.1184  0.3787
  262MOL0     C36039  10.859   7.976  11.065  0.6772  1.2520 -0.5199
  262MOL0     C36040  11.004   7.923  11.051 -0.2912  0.6243 -0.0133
  262MOL0     C36041  11.041   7.930  10.901 -0.1161 -0.5034 -0.3002
  262MOL0     O36042  11.068   8.061  10.847  0.2254  0.4955  0.5746
  262MOL0     C36043  11.191   8.123  10.857 -0.6355  0.3109 -0.0079
  262MOL0     C36044  11.296   8.086  10.946  0.4699 -0.0606 -0.1974
  262MOL0     C36045  11.414   8.155  10.947  0.0178 -0.7471  0.0606
  262MOL0     C36046  11.515   8.087  11.042 -0.1520 -0.7291  0.5639
  262MOL0     C36047  11.447   8.253  10.852 -0.0594  0.3224 -0.9235
  262MOL0     C36048  11.580   8.318  10.840  0.2799  0.3555  0.5566
  262MOL0     O36049  11.651   8.326  10.950 -0.1676  0.0821 -0.5824
  262MOL0     C36050  11.787   8.342  10.934  0.7143  0.1896  0.5326
  262MOL0     C36051  11.870   8.236  10.954  0.4209  0.4598  0.2247
  262MOL0     C36052  12.013   8.245  10.927  0.1168  0.0294  0.2877
  262MOL0     C36053  12.068   8.368  10.892 -1.4173  0.6615 -0.1731
  262MOL0     O36054  12.207   8.357  10.871 -0.1927  0.0217  0.3695
  262MOL0     C36055  12.273   8.471  10.819 -1.1868  0.9390  0.2037
  262MOL0     C36056  12.422   8.475  10.860 -0.9640 -0.8430 -0.3084
  262MOL0     C36057  12.453   8.554  10.984  0.0753 -0.1791 -0.2587
  262MOL0     C36058  12.601   8.560  11.025  0.1287  0.0713 -0.4860
  262MOL0     C36059  12.626   8.656  11.134 -0.2186  1.2762  0.1222
  262MOL0     C36060  12.779   8.650  11.175  0.3332  0.3182  0.2638
  262MOL0     C36061  12.803   8.700  11.316 -0.5775 -0.3430  0.1606
  262MOL0     C36062  12.945   8.765  11.314  0.3550 -0.1265 -0.0720
  262MOL0    Cl36063  13.061   8.647  11.255 -0.0616  0.1922 -0.1152
  262MOL0     C36064  11.987   8.475  10.882  0.7247  0.2560  0.7488
  262MOL0     C36065  11.845   8.461  10.904 -0.0469 -1.2247  0.5235
  262MOL0     O36066  11.605   8.371  10.736  0.6136  0.0522 -0.4352
  262MOL0     C36067  11.335   8.294  10.775 -0.2143  0.4000  0.1610
  262MOL0     C36068  11.215   8.229  10.768 -0.4673 -0.2869 -0.2910
  262MOL0     N36069  10.622   8.140  11.189  0.6357 -0.1281  0.4361
  262MOL0     N36070  10.564   8.219  11.269  0.5355  0.4105 -0.3026
  262MOL0     C36071  10.412   7.351  11.249  0.2299  0.9183 -0.1152
  262MOL0     C36072  10.407   7.308  11.119  0.1630 -0.3453  0.6877
  262MOL0     C36073  10.363   7.191  10.699  0.2074 -0.2965 -0.9790
  262MOL0     C36074  10.496   7.190  10.647  0.4508 -1.0939  0.1933
  262MOL0     C36075  10.533   7.122  10.528 -0.7994  0.2163  0.9212
  262MOL0     C36076  10.433   7.044  10.464 -0.1717  0.0087 -0.3849
  262MOL0     O36077  10.454   6.966  10.354  0.3143 -0.7616  1.4261
  262MOL0     C36078  10.357   6.962  10.250 -0.7033  0.3196  0.4169
  262MOL0     C36079  10.407   6.878  10.135 -1.3884  0.2034 -0.3304
  262MOL0     C36080  10.310   6.883  10.022  0.8179 -0.6612 -0.6340
  262MOL0     C36081  10.302   7.023   9.958 -0.5815  0.2391  1.3267
  262MOL0     C36082  10.429   7.043   9.892 -0.2714  0.0069  0.5594
  262MOL0     C36083  10.530   7.081   9.830  0.1959 -0.3284  0.2402
  262MOL0     C36084  10.305   7.032  10.529  1.0314 -0.2499 -1.1650
  262MOL0     C36085  10.260   7.109  10.637 -0.4938 -0.0780 -1.0171
  262MOL0     C36086  10.114   7.088  10.678 -0.3375 -0.1058  0.7394
  262MOL0     H36087  10.531   7.588  10.965  0.2791 -0.4816  1.1007
  262MOL0     H36088  10.543   7.668  11.192 -1.8910  0.0848  4.8244
  262MOL0     H36089  10.635   7.639  11.405 -0.9262  3.0937  0.6705
  262MOL0     H36090  10.631   7.513  11.531  0.6215 -0.4980 -0.2793
  262MOL0     H36091  10.461   7.636  11.648  0.1899  2.9529  2.9196
  262MOL0     H36092  10.592   7.744  11.629  1.2670 -0.9123 -1.3658
  262MOL0     H36093  10.465   7.856  11.445  0.6118 -1.9542 -1.0244
  262MOL0     H36094  10.332   7.739  11.496 -1.9153  0.5778  4.0663
  262MOL0     H36095  10.318   7.809  11.721  2.1695 -0.5321  0.8548
  262MOL0     H36096  10.451   7.913  11.691  1.9888 -3.0162 -0.8795
  262MOL0     H36097  10.214   8.014  11.684 -0.4256  0.8846 -0.1834
  262MOL0     H36098  10.196   7.929  11.527  1.0211 -0.1484 -0.1510
  262MOL0     H36099  10.368   8.065  11.424 -0.8266 -0.0659  0.0811
  262MOL0     H36100  10.285   8.189  11.515 -2.4857  0.0176 -0.5618
  262MOL0     H36101  10.553   8.061  11.607 -2.2325 -0.6352  2.6422
  262MOL0     H36102  10.457   8.184  11.690  0.4194  1.2107  0.1991
  262MOL0     H36103  10.506   8.331  11.480 -0.2651 -0.7269 -1.7128
  262MOL0     H36104  10.656   8.287  11.566 -2.8925  2.5915  1.1115
  262MOL0     H36105  10.776   8.062  11.468  1.0113  0.5973  0.2044
  262MOL0     H36106  10.750   7.851  11.203 -1.7442  1.3480 -3.1048
  262MOL0     H36107  10.883   7.932  11.282 -0.8799 -4.3303  1.8592
  262MOL0     H36108  10.788   7.926  10.999 -0.6432 -0.7686  2.2293
  262MOL0     H36109  10.864   8.081  11.036 -2.7995  2.2198  1.7693
  262MOL0     H36110  11.068   7.984  11.115 -3.5759  1.2742  2.9277
  262MOL0     H36111  10.991   7.820  11.086  0.3065  0.1714 -1.0844
  262MOL0     H36112  11.107   7.850  10.864 -1.4949 -1.7667 -0.1227
  262MOL0     H36113  10.949   7.896  10.852  0.0337 -1.8239  0.2978
  262MOL0     H36114  11.282   8.005  11.018 -3.2156 -0.0105 -0.6832
  262MOL0     H36115  11.612   8.077  10.993 -1.4008  0.3325 -2.3129
  262MOL0     H36116  11.478   7.991  11.079 -4.1273  0.9761  1.6119
  262MOL0     H36117  11.537   8.154  11.126  4.9508 -0.8694 -0.3552
  262MOL0     H36118  11.826   8.147  10.998 -1.1030  1.4109  0.6666
  262MOL0     H36119  12.073   8.158  10.950  2.4168  1.0590 -1.4523
  262MOL0     H36120  12.253   8.449  10.714 -2.5859 -1.1353  0.8469
  262MOL0     H36121  12.232   8.571  10.840  1.7090  2.6702 -1.7208
  262MOL0     H36122  12.464   8.377  10.888 -0.8717 -1.0295 -1.0765
  262MOL0     H36123  12.485   8.510  10.778 -0.3301 -0.3206  0.3842
  262MOL0     H36124  12.394   8.511  11.065 -3.6675  1.6347 -1.8153
  262MOL0     H36125  12.425   8.659  10.968  2.4278  0.2764 -1.9761
  262MOL0     H36126  12.647   8.604  10.936  0.2286 -0.8450 -0.8964
  262MOL0     H36127  12.631   8.456  11.041  0.1369  0.1248 -0.1397
  262MOL0     H36128  12.600   8.755  11.097 -1.4134  0.1677 -2.2467
  262MOL0     H36129  12.556   8.627  11.214 -0.2931  1.0246 -0.0335
  262MOL0     H36130  12.838   8.707  11.102  0.8791  1.6480  1.6794
  262MOL0     H36131  12.818   8.548  11.170 -0.6797 -0.0097 -2.0576
  262MOL0     H36132  12.794   8.619  11.388 -2.0746 -1.4471 -1.1749
  262MOL0     H36133  12.719   8.767  11.337  0.0346  1.6976 -3.0675
  262MOL0     H36134  12.965   8.781  11.420 -2.6816 -0.5287  0.6628
  262MOL0     H36135  12.956   8.857  11.255  1.1683 -0.3330 -0.2641
  262MOL0     H36136  12.026   8.565  10.835  1.4580 -1.3243 -1.8905
  262MOL0     H36137  11.786   8.550  10.885  1.4318 -0.0754  1.0795
  262MOL0     H36138  11.355   8.382  10.715 -0.8425  0.5067  0.1087
  262MOL0     H36139  11.133   8.258  10.702 -1.5571  0.0207  1.1576
  262MOL0     H36140  10.379   7.279  11.323  2.3174  0.6558  0.6233
  262MOL0     H36141  10.363   7.208  11.119 -0.1814 -0.1970  1.1910
  262MOL0     H36142  10.560   7.255  10.706 -0.8322 -1.1220  1.6671
  262MOL0     H36143  10.632   7.134  10.486 -1.5188  0.1580 -0.8723
  262MOL0     H36144  10.264   6.915  10.284 -0.7359 -0.9283 -1.2729
  262MOL0     H36145  10.344   7.064  10.211  0.1036 -0.5467 -2.3115
  262MOL0     H36146  10.411   6.776  10.174  0.8663  1.1486  2.1957
  262MOL0     H36147  10.511   6.905  10.114 -0.5553 -3.7623 -2.2708
  262MOL0     H36148  10.324   6.811   9.941 -4.1179  0.6378 -2.9878
  262MOL0     H36149  10.215   6.859  10.070  0.7502  0.2593 -0.2976
  262MOL0     H36150  10.276   7.101  10.030 -2.3493  0.3354  0.6283
  262MOL0     H36151  10.215   7.023   9.892 -0.1483  0.2478  0.7433
  262MOL0     H36152  10.613   7.103   9.767 -1.3941 -0.6895 -2.1288
  262MOL0     H36153  10.238   6.957  10.488  0.6067 -0.9976  0.8118
  262MOL0     H36154  10.063   7.175  10.635  1.6393 -0.7524 -3.4911
  262MOL0     H36155  10.072   6.996  10.638  0.9671 -2.0500  3.5653
  262MOL0     H36156  10.092   7.086  10.785  1.5265 -0.3532  1.1477
  263MOL0     O36157   9.808   1.014   9.395  0.1420  0.1538 -0.1262
  263MOL0     C36158   9.921   1.017   9.337 -0.2546  0.2839 -0.7186
  263MOL0     O36159   9.976   0.917   9.266 -0.2441  0.0394 -0.2307
  263MOL0     C36160   9.891   0.812   9.225 -0.1994  0.3391 -0.6688
  263MOL0     C36161   9.905   0.677   9.272 -0.6388 -0.5042 -0.0195
  263MOL0     C36162   9.827   0.567   9.232  0.6942 -0.9261 -0.0111
  263MOL0     C36163   9.725   0.580   9.142  0.6171 -1.0426  1.0980
  263MOL0     O36164   9.652   0.466   9.105 -0.0856  0.2014  0.7002
  263MOL0     C36165   9.515   0.497   9.061  0.1996  0.6495 -0.1260
  263MOL0     C36166   9.511   0.482   8.909 -0.2803 -0.0493 -0.0325
  263MOL0     C36167   9.541   0.330   8.881  0.3370  1.2190  0.6610
  263MOL0     C36168   9.512   0.279   8.739  0.3045  0.4719  0.3247
  263MOL0     C36169   9.560   0.370   8.625 -1.6243 -0.3438 -0.3372
  263MOL0     C36170   9.710   0.388   8.626  0.0094  0.8109  0.0518
  263MOL0     C36171   9.760   0.484   8.515 -0.1396  0.0761  1.2205
  263MOL0     C36172   9.907   0.513   8.504  1.0325  0.0847 -0.9560
  263MOL0     N36173   9.970   0.587   8.614  0.2734  0.4411 -0.4062
  263MOL0     C36174  10.036   0.518   8.713  0.9363  0.6136  0.4418
  263MOL0     C36175  10.033   0.609   8.809  0.4866  0.2684 -0.1346
  263MOL0     C36176  10.086   0.557   8.944  0.0744 -0.1507  0.3213
  263MOL0     C36177  10.235   0.577   8.954  1.0274  0.1586  0.0317
  263MOL0     C36178  10.263   0.723   8.984 -0.1014 -0.1660  0.3019
  263MOL0     C36179  10.416   0.747   8.973 -0.3610 -0.0334  0.2092
  263MOL0     O36180  10.459   0.884   8.973 -0.1979  0.5550  0.6493
  263MOL0     C36181  10.481   0.953   9.089  0.0034 -0.0366 -0.9441
  263MOL0     C36182  10.515   1.095   9.067 -0.1251  0.1055 -0.0419
  263MOL0     C36183  10.540   1.167   9.180  0.0970 -0.4417  0.5509
  263MOL0     C36184  10.588   1.315   9.158 -0.2111  0.5282 -0.0104
  263MOL0     C36185  10.523   1.109   9.315 -0.3737 -0.6611  0.5284
  263MOL0     C36186  10.553   1.195   9.443 -0.4889  0.7490  0.1045
  263MOL0     O36187  10.495   1.134   9.552  0.7218  0.8070 -0.3053
  263MOL0     C36188  10.526   1.179   9.679  0.0156 -0.2081 -0.6449
  263MOL0     C36189  10.593   1.106   9.774 -0.8023 -0.3762  0.0422
  263MOL0     C36190  10.637   1.161   9.891 -0.9492  1.0475 -0.1790
  263MOL0     C36191  10.585   1.286   9.930 -1.1535 -0.4809 -1.2215
  263MOL0     O36192  10.623   1.344  10.047 -0.1788  0.1491 -0.2984
  263MOL0     C36193  10.620   1.270  10.172 -0.1349  0.7662 -0.2870
  263MOL0     C36194  10.559   1.358  10.290 -0.5022  0.0908  0.0440
  263MOL0     C36195  10.550   1.277  10.417 -0.4169  0.9784  0.7379
  263MOL0     C36196  10.552   1.358  10.542  0.8066  0.1584 -0.1956
  263MOL0     C36197  10.585   1.269  10.664  1.0284 -0.7680 -0.9777
  263MOL0     C36198  10.616   1.338  10.802  0.2115 -0.3335  0.1977
  263MOL0     C36199  10.603   1.229  10.910 -0.8544 -0.1652  0.8489
  263MOL0     C36200  10.565   1.292  11.043  0.2671  0.8555 -0.1129
  263MOL0    Cl36201  10.715   1.358  11.114  0.1794 -0.0204 -0.0479
  263MOL0     C36202  10.517   1.363   9.837 -0.1642 -0.4258  0.0968
  263MOL0     C36203  10.488   1.307   9.708  0.6192 -1.0497  1.2020
  263MOL0     O36204  10.651   1.268   9.441 -1.2054 -0.3574 -0.4584
  263MOL0     C36205  10.488   0.979   9.329  0.5057  0.0109  0.0302
  263MOL0     C36206  10.463   0.894   9.224  0.6753 -0.2308  0.4928
  263MOL0     N36207   9.979   0.728   8.767  0.4039 -0.2701 -0.4037
  263MOL0     N36208   9.939   0.714   8.647  0.6493  0.3367 -0.1921
  263MOL0     C36209   9.714   0.707   9.077  0.3402  0.0648  0.2663
  263MOL0     C36210   9.796   0.814   9.121  0.3999 -0.8967 -0.1279
  263MOL0     C36211   9.997   1.150   9.359 -0.2551  1.0108 -0.0659
  263MOL0     C36212  10.134   1.158   9.311 -0.2390 -0.6594  0.3499
  263MOL0     C36213  10.206   1.269   9.349 -1.1517  0.1018 -0.7848
  263MOL0     C36214  10.146   1.389   9.393 -0.1781 -0.5437 -0.2090
  263MOL0     O36215  10.227   1.495   9.428  0.1902 -0.3190  0.2756
  263MOL0     C36216  10.287   1.571   9.314 -0.0517 -0.3577 -0.6022
  263MOL0     C36217  10.307   1.716   9.355  0.6168 -0.5631  0.2534
  263MOL0     C36218  10.169   1.780   9.376  0.3398  0.3975 -0.7003
  263MOL0     C36219  10.199   1.932   9.381 -0.2453 -0.6061  0.4749
  263MOL0     C36220  10.253   2.000   9.262  0.5350  0.1628  0.1194
  263MOL0     C36221  10.295   2.056   9.160 -0.8820  0.7592 -0.5044
  263MOL0     C36222  10.010   1.378   9.430  0.4693 -0.2904  0.1651
  263MOL0     C36223   9.934   1.259   9.420  0.3342  0.9524 -0.5342
  263MOL0     C36224   9.792   1.265   9.475  0.7880 -0.3799  0.6647
  263MOL0     H36225   9.988   0.662   9.341 -2.0231 -1.4202  1.5141
  263MOL0     H36226   9.835   0.473   9.287  1.3025 -0.9665 -0.1564
  263MOL0     H36227   9.484   0.591   9.107 -0.1332 -0.9847  3.3058
  263MOL0     H36228   9.446   0.431   9.115 -1.6224 -0.0503 -3.0572
  263MOL0     H36229   9.412   0.515   8.874  0.4037  0.9663 -1.0730
  263MOL0     H36230   9.589   0.539   8.857 -1.3073  0.8113 -0.6808
  263MOL0     H36231   9.644   0.299   8.898 -0.8202 -3.1722  0.9105
  263MOL0     H36232   9.486   0.274   8.957  3.3625  1.5780  3.3548
  263MOL0     H36233   9.556   0.179   8.733 -0.2653  0.1678  1.1651
  263MOL0     H36234   9.407   0.275   8.711  0.9213 -0.8695 -2.0683
  263MOL0     H36235   9.511   0.467   8.613  1.4794  1.1034 -3.0748
  263MOL0     H36236   9.529   0.311   8.538 -2.8944 -1.2936  0.7293
  263MOL0     H36237   9.737   0.425   8.725 -0.9634 -5.3076  3.0219
  263MOL0     H36238   9.761   0.291   8.627 -1.8841 -0.2288  2.1536
  263MOL0     H36239   9.712   0.581   8.523 -0.5112  0.7232 -4.4351
  263MOL0     H36240   9.722   0.458   8.415 -3.0051  1.6367  1.8063
  263MOL0     H36241   9.953   0.415   8.485 -1.7524 -0.9829 -2.7816
  263MOL0     H36242   9.924   0.572   8.413 -1.3248  1.9301 -0.2807
  263MOL0     H36243  10.065   0.414   8.723  1.4412  0.6433 -0.5545
  263MOL0     H36244  10.081   0.448   8.952 -1.8381 -0.1343 -0.1882
  263MOL0     H36245  10.035   0.597   9.032 -0.7909 -0.9033  0.1786
  263MOL0     H36246  10.259   0.513   9.039 -0.8675 -0.7543 -0.0514
  263MOL0     H36247  10.279   0.545   8.859  0.0249  2.2785 -1.2326
  263MOL0     H36248  10.212   0.793   8.917  0.7882  0.1783 -0.0376
  263MOL0     H36249  10.234   0.751   9.085  0.9527 -2.7565  1.4215
  263MOL0     H36250  10.460   0.676   9.044 -1.8743 -0.7202  0.4903
  263MOL0     H36251  10.439   0.712   8.872 -0.7523  1.5122 -0.4586
  263MOL0     H36252  10.541   1.137   8.971 -0.7841  0.9548  0.1335
  263MOL0     H36253  10.587   1.345   9.053  3.8625 -2.0742 -1.0096
  263MOL0     H36254  10.692   1.317   9.190 -0.2398  4.3043  0.2415
  263MOL0     H36255  10.525   1.382   9.217  0.3020  2.4238 -1.5236
  263MOL0     H36256  10.623   1.003   9.760 -1.7882 -0.8958  1.5420
  263MOL0     H36257  10.689   1.098   9.963 -1.7891 -1.4862 -1.6507
  263MOL0     H36258  10.551   1.184  10.176 -1.2890  1.6857  0.2390
  263MOL0     H36259  10.719   1.233  10.199 -0.5481 -0.4356 -0.3188
  263MOL0     H36260  10.616   1.451  10.293  0.4565 -0.3433 -2.2481
  263MOL0     H36261  10.457   1.383  10.258 -0.9515 -1.7130 -0.0598
  263MOL0     H36262  10.616   1.190  10.422 -4.3858 -2.4575 -0.7248
  263MOL0     H36263  10.459   1.217  10.415 -0.0319  0.4080 -1.1861
  263MOL0     H36264  10.462   1.418  10.562  0.3501 -0.8638  0.9284
  263MOL0     H36265  10.631   1.431  10.521  0.6311 -0.5628 -4.1415
  263MOL0     H36266  10.501   1.199  10.667 -0.2959  0.7918  0.4340
  263MOL0     H36267  10.676   1.217  10.634  1.7110 -0.7755  0.9503
  263MOL0     H36268  10.561   1.433  10.809  0.6245  0.1763 -2.3655
  263MOL0     H36269  10.713   1.388  10.792 -0.2848  0.8320  0.9352
  263MOL0     H36270  10.699   1.176  10.910  0.1059  1.4269 -0.9305
  263MOL0     H36271  10.521   1.159  10.890 -0.2728 -0.8720  0.8985
  263MOL0     H36272  10.526   1.217  11.114  2.3056 -0.5943 -0.4474
  263MOL0     H36273  10.487   1.369  11.036  0.2860  1.2322  2.4996
  263MOL0     H36274  10.472   1.458   9.864 -0.4107 -0.3395 -0.6165
  263MOL0     H36275  10.422   1.354   9.636  1.5783 -1.5189 -0.0288
  263MOL0     H36276  10.488   0.935   9.428  3.4641  1.2093  0.6610
  263MOL0     H36277  10.424   0.794   9.235  0.7435 -0.4235 -0.7959
  263MOL0     H36278   9.648   0.719   8.992  1.0241 -0.3403 -0.3399
  263MOL0     H36279   9.774   0.914   9.084 -3.4091 -0.3727  2.9509
  263MOL0     H36280  10.187   1.074   9.266  1.3565  1.1742 -1.3422
  263MOL0     H36281  10.312   1.276   9.325 -1.0963  1.8696 -0.2355
  263MOL0     H36282  10.381   1.533   9.276 -1.4943 -1.8780 -2.8725
  263MOL0     H36283  10.220   1.567   9.228  0.5101 -2.8635 -0.9970
  263MOL0     H36284  10.362   1.755   9.269  0.8569 -0.9669  0.2259
  263MOL0     H36285  10.373   1.723   9.442 -2.0240 -3.3513  2.7429
  263MOL0     H36286  10.105   1.758   9.290 -1.4553 -1.7924  1.0563
  263MOL0     H36287  10.122   1.747   9.469  0.4578 -2.5952 -1.5633
  263MOL0     H36288  10.270   1.949   9.462  3.1402  0.1547 -2.3929
  263MOL0     H36289  10.115   1.993   9.414  0.0738 -0.4541  1.0077
  263MOL0     H36290  10.325   2.105   9.070  1.3360 -1.0868 -0.8575
  263MOL0     H36291   9.969   1.474   9.459 -1.9268 -1.7325  1.8689
  263MOL0     H36292   9.775   1.186   9.549 -1.1897  0.1933  0.8887
  263MOL0     H36293   9.778   1.362   9.525  2.7053  0.4735 -0.3809
  263MOL0     H36294   9.710   1.256   9.403 -1.8301  1.6031  3.1560
  264MOL0     O36295   4.154   2.539  10.217 -0.6855  0.8925 -0.0393
  264MOL0     C36296   4.200   2.455  10.138 -0.2496 -0.6262  0.6436
  264MOL0     O36297   4.254   2.334  10.170  0.1683 -0.3731 -0.2983
  264MOL0     C36298   4.274   2.295  10.301 -0.0368 -0.7610 -0.6102
  264MOL0     C36299   4.204   2.330  10.416  0.2360 -0.0492  0.4954
  264MOL0     C36300   4.241   2.276  10.535  0.7757  0.3554 -0.8661
  264MOL0     C36301   4.341   2.184  10.555 -0.3943 -0.3047  0.5459
  264MOL0     O36302   4.352   2.120  10.676 -0.7087  0.1536 -0.7363
  264MOL0     C36303   4.314   1.985  10.677  0.4458 -0.8450  0.1036
  264MOL0     C36304   4.313   1.926  10.818 -0.5730  0.7214 -0.5384
  264MOL0     C36305   4.200   1.994  10.897  0.7935 -0.2791  0.9949
  264MOL0     C36306   4.215   1.976  11.042 -0.3167 -0.3332 -0.2479
  264MOL0     C36307   4.296   2.074  11.132  0.4217  0.3923 -0.5156
  264MOL0     C36308   4.339   2.019  11.269 -0.2401 -0.3452  0.4355
  264MOL0     C36309   4.425   1.901  11.257 -0.7811 -0.0151 -0.3577
  264MOL0     C36310   4.496   1.841  11.387 -0.0671 -0.5858  0.5597
  264MOL0     N36311   4.478   1.694  11.417 -0.0055 -0.6279 -0.2243
  264MOL0     C36312   4.546   1.591  11.356 -0.0243 -0.1007  0.2214
  264MOL0     C36313   4.495   1.480  11.407 -0.1840  0.1929 -0.3746
  264MOL0     C36314   4.515   1.333  11.373  0.4921  0.6059  0.4013
  264MOL0     C36315   4.649   1.266  11.364 -0.8631 -0.8411  0.7613
  264MOL0     C36316   4.654   1.117  11.403 -0.1405  0.3998  0.1023
  264MOL0     C36317   4.595   1.019  11.305 -0.2152  0.1994  0.2050
  264MOL0     O36318   4.687   1.009  11.202 -0.1667  0.2217  0.3367
  264MOL0     C36319   4.654   0.930  11.092 -0.5897  0.8347 -0.4851
  264MOL0     C36320   4.538   0.848  11.078  0.1483  0.1116  0.9481
  264MOL0     C36321   4.520   0.767  10.964  0.4152  0.0146 -0.9666
  264MOL0     C36322   4.391   0.694  10.970 -0.0333 -0.0146 -0.4742
  264MOL0     C36323   4.623   0.757  10.868 -0.5426 -0.3890  0.6367
  264MOL0     C36324   4.627   0.670  10.737  0.6621 -0.5090 -0.4792
  264MOL0     O36325   4.732   0.681  10.653 -0.3478 -1.1981  0.2092
  264MOL0     C36326   4.733   0.589  10.550 -1.0928 -0.3600 -0.0434
  264MOL0     C36327   4.694   0.633  10.424  0.8869 -0.1109  0.6988
  264MOL0     C36328   4.713   0.558  10.305  0.3520  0.8251 -0.6684
  264MOL0     C36329   4.811   0.461  10.323  0.2050  0.6323 -0.0217
  264MOL0     O36330   4.868   0.386  10.231 -0.9193  0.2877  0.3786
  264MOL0     C36331   4.812   0.372  10.104 -0.0638  0.4949  0.5935
  264MOL0     C36332   4.851   0.241  10.040  0.2020 -0.3595 -0.1327
  264MOL0     C36333   4.848   0.243   9.893  0.4709 -0.2837  0.1966
  264MOL0     C36334   4.851   0.110   9.815 -0.0585 -0.5326  0.0466
  264MOL0     C36335   5.000   0.071   9.801 -0.1774  0.1126  1.0444
  264MOL0     C36336   5.038  -0.071   9.751 -0.3692  0.1590  0.2669
  264MOL0     C36337   5.186  -0.101   9.712  0.5096  0.4525  0.4670
  264MOL0     C36338   5.291  -0.027   9.804  0.5466 -0.2898  0.3143
  264MOL0    Cl36339   5.461  -0.061   9.732  0.1628 -0.5176  0.2772
  264MOL0     C36340   4.850   0.409  10.452 -0.2062 -1.2110  0.2954
  264MOL0     C36341   4.798   0.469  10.566 -0.6920 -0.2003  0.7452
  264MOL0     O36342   4.530   0.598  10.719 -0.4967  0.1547  0.0911
  264MOL0     C36343   4.737   0.844  10.885 -0.8896 -0.1196 -0.1341
  264MOL0     C36344   4.750   0.927  10.992  0.2065 -1.3186 -0.2826
  264MOL0     N36345   4.398   1.515  11.500  0.5120  0.3317  0.3138
  264MOL0     N36346   4.385   1.641  11.501 -0.1591  0.1887 -0.2958
  264MOL0     C36347   4.418   2.143  10.446  0.6003 -0.1306  0.3763
  264MOL0     C36348   4.389   2.208  10.320  0.1770  1.2831  0.1872
  264MOL0     C36349   4.207   2.504  10.001  0.6514 -0.1489 -1.3565
  264MOL0     C36350   4.285   2.611   9.963 -0.6243  0.1568  0.2119
  264MOL0     C36351   4.294   2.655   9.836  0.3145 -0.1808 -0.1560
  264MOL0     C36352   4.224   2.579   9.738  0.4082 -0.8358 -0.3629
  264MOL0     O36353   4.261   2.599   9.609  0.5722  0.3389  0.1497
  264MOL0     C36354   4.367   2.689   9.565 -0.0629  0.1452 -0.6272
  264MOL0     C36355   4.392   2.665   9.413 -0.1416  0.4464  0.7649
  264MOL0     C36356   4.505   2.736   9.343 -0.2630 -0.5250 -0.6418
  264MOL0     C36357   4.517   2.688   9.195  0.0282 -0.2342 -0.9592
  264MOL0     C36358   4.639   2.729   9.132  0.5249 -0.8261 -0.3676
  264MOL0     C36359   4.750   2.778   9.113 -0.4904  0.2191 -0.3242
  264MOL0     C36360   4.144   2.476   9.776 -0.0155  0.3778  0.3496
  264MOL0     C36361   4.131   2.432   9.905  0.8245  0.7724  0.3242
  264MOL0     C36362   4.038   2.315   9.946 -0.5828 -0.5399  0.1592
  264MOL0     H36363   4.119   2.398  10.405 -1.6990 -2.3266  0.5393
  264MOL0     H36364   4.182   2.298  10.624 -0.2259 -2.2118 -0.7772
  264MOL0     H36365   4.388   1.932  10.615  0.1719 -0.2697 -0.7323
  264MOL0     H36366   4.214   1.968  10.638 -0.4748 -2.9905  3.0847
  264MOL0     H36367   4.318   1.818  10.832 -1.2320  1.0103  2.9169
  264MOL0     H36368   4.410   1.956  10.859 -1.3542 -0.1800  2.1434
  264MOL0     H36369   4.191   2.102  10.881  1.5665 -0.4048 -0.4774
  264MOL0     H36370   4.110   1.939  10.869  1.2666 -0.5505 -0.0540
  264MOL0     H36371   4.120   1.959  11.094 -0.7999  1.3797 -0.4864
  264MOL0     H36372   4.276   1.886  11.032 -2.4195 -1.6007 -2.7862
  264MOL0     H36373   4.227   2.158  11.146  1.5987  1.1866  0.7360
  264MOL0     H36374   4.389   2.100  11.082  1.1224  2.0440  1.4938
  264MOL0     H36375   4.395   2.098  11.320 -1.2058  0.7889 -0.2084
  264MOL0     H36376   4.253   1.992  11.331 -1.2964 -4.0370 -2.2515
  264MOL0     H36377   4.504   1.930  11.186  2.5520  0.0109  3.0217
  264MOL0     H36378   4.354   1.826  11.223 -0.1742  0.0413 -1.8290
  264MOL0     H36379   4.602   1.861  11.371 -0.5679  0.6580 -1.5599
  264MOL0     H36380   4.452   1.897  11.470 -0.4209  1.3321 -0.8459
  264MOL0     H36381   4.621   1.604  11.279 -2.5661  0.6753 -2.2811
  264MOL0     H36382   4.470   1.317  11.275  0.4077 -1.8383  0.7925
  264MOL0     H36383   4.458   1.276  11.447 -0.9429  1.9346  0.3695
  264MOL0     H36384   4.692   1.278  11.264  2.2622 -3.6434  1.5777
  264MOL0     H36385   4.726   1.297  11.436  0.6701 -0.2281 -1.0529
  264MOL0     H36386   4.760   1.094  11.417 -0.3969 -2.0364 -1.3963
  264MOL0     H36387   4.595   1.116  11.495  0.2975  2.7501  0.4881
  264MOL0     H36388   4.587   0.933  11.371  0.5399  0.5425  0.7671
  264MOL0     H36389   4.496   1.046  11.269 -0.4113  0.7428  1.1309
  264MOL0     H36390   4.453   0.854  11.145  0.9498 -0.8154  2.0772
  264MOL0     H36391   4.413   0.588  10.984  2.3016  0.3282 -1.2482
  264MOL0     H36392   4.335   0.704  10.876  0.6252 -0.1056 -0.8787
  264MOL0     H36393   4.330   0.718  11.057 -1.6873  1.9738 -2.0598
  264MOL0     H36394   4.629   0.719  10.418 -0.7693 -1.3541 -0.2133
  264MOL0     H36395   4.658   0.578  10.213 -1.1522  1.9721  0.4351
  264MOL0     H36396   4.703   0.375  10.115 -0.2330 -1.7831  0.1721
  264MOL0     H36397   4.838   0.458  10.042 -0.1779  0.4299  0.4540
  264MOL0     H36398   4.957   0.226  10.065  1.8941  0.9537 -5.1780
  264MOL0     H36399   4.779   0.167  10.074  0.0150  0.2028  0.7127
  264MOL0     H36400   4.920   0.314   9.852 -1.5113  0.8266 -1.5269
  264MOL0     H36401   4.758   0.287   9.849  0.9221 -0.3388 -0.7950
  264MOL0     H36402   4.812   0.132   9.715 -2.2404  1.3454  1.2125
  264MOL0     H36403   4.787   0.036   9.862 -0.5287 -0.8295 -1.0309
  264MOL0     H36404   5.044   0.143   9.731  0.0138  0.4329  1.4935
  264MOL0     H36405   5.052   0.080   9.897  1.2156 -1.2542  0.4745
  264MOL0     H36406   4.973  -0.098   9.667  0.0389  1.8341 -0.6252
  264MOL0     H36407   5.005  -0.128   9.838  0.0142 -2.9466 -1.4817
  264MOL0     H36408   5.193  -0.063   9.610 -2.5413  0.0542  0.0263
  264MOL0     H36409   5.201  -0.209   9.719 -3.3050 -0.2052  0.5324
  264MOL0     H36410   5.287  -0.076   9.902 -2.5244 -3.3366 -1.1189
  264MOL0     H36411   5.276   0.081   9.802 -2.9129 -0.6563 -1.8968
  264MOL0     H36412   4.910   0.318  10.451  0.8057 -0.5544 -0.5347
  264MOL0     H36413   4.818   0.439  10.668  0.3285  2.0955  1.2683
  264MOL0     H36414   4.825   0.841  10.822  0.0890 -0.0639  1.1873
  264MOL0     H36415   4.832   0.997  11.008 -1.8457  1.3752 -0.8580
  264MOL0     H36416   4.495   2.072  10.475  0.3182 -1.1347 -1.2387
  264MOL0     H36417   4.438   2.172  10.230  1.6774  0.3279  1.3274
  264MOL0     H36418   4.344   2.667  10.036  3.1180 -1.8735 -0.9933
  264MOL0     H36419   4.343   2.748   9.810 -0.0455  0.1716  0.4128
  264MOL0     H36420   4.341   2.794   9.581  1.0138  0.5389 -1.3243
  264MOL0     H36421   4.460   2.673   9.620  1.6758  1.4039 -2.9892
  264MOL0     H36422   4.301   2.702   9.366 -1.5480 -2.1574  1.2344
  264MOL0     H36423   4.405   2.560   9.384 -1.5441  0.6565 -0.7475
  264MOL0     H36424   4.489   2.844   9.348  4.9194  0.4272  2.2627
  264MOL0     H36425   4.600   2.717   9.393 -0.3750 -0.7892 -0.5286
  264MOL0     H36426   4.437   2.741   9.142  1.6084  0.4771 -2.7384
  264MOL0     H36427   4.501   2.580   9.182  1.7604 -0.8810  1.5742
  264MOL0     H36428   4.843   2.830   9.111  0.5448 -1.5607 -0.6208
  264MOL0     H36429   4.082   2.438   9.695 -2.0858 -0.4894  2.2401
  264MOL0     H36430   4.092   2.235   9.996 -2.3587 -3.7824 -2.6651
  264MOL0     H36431   3.976   2.374  10.015 -1.9980 -1.1918 -0.4958
  264MOL0     H36432   3.962   2.281   9.875 -2.5251  0.9986  1.3915
  265MOL0     O36433   6.390   3.744  10.432 -0.4469  0.3694 -0.4830
  265MOL0     C36434   6.383   3.717  10.554 -0.7922 -0.1750 -0.3957
  265MOL0     O36435   6.465   3.630  10.617  0.0283  0.1613  0.6294
  265MOL0     C36436   6.491   3.504  10.576  0.3138 -0.4168  0.9496
  265MOL0     C36437   6.425   3.431  10.486  0.4276  0.1292  0.5963
  265MOL0     C36438   6.454   3.301  10.445  0.2312  0.5543  0.5206
  265MOL0     C36439   6.576   3.243  10.500  1.1385  0.0247  0.0921
  265MOL0     O36440   6.634   3.129  10.457  0.1286 -0.6929 -0.4860
  265MOL0     C36441   6.593   3.011  10.531  0.1331 -0.3270  0.8370
  265MOL0     C36442   6.725   2.966  10.600 -0.1882 -0.5383 -0.0838
  265MOL0     C36443   6.705   2.834  10.668  0.5947 -0.2110  0.6963
  265MOL0     C36444   6.792   2.813  10.791  0.1597  0.3865  0.6037
  265MOL0     C36445   6.744   2.691  10.870  0.8447  0.0864  0.3083
  265MOL0     C36446   6.843   2.635  10.974 -0.1561  0.2789  0.8299
  265MOL0     C36447   6.913   2.740  11.065  0.8450 -0.1482 -0.3124
  265MOL0     C36448   6.807   2.805  11.158 -0.6996 -0.6783 -0.4021
  265MOL0     N36449   6.861   2.880  11.270 -0.4315 -0.4871  0.1923
  265MOL0     C36450   6.774   2.954  11.353 -0.2089 -0.5488  0.2882
  265MOL0     C36451   6.853   3.033  11.430 -0.3845 -0.4249 -0.6033
  265MOL0     C36452   6.808   3.141  11.524 -0.4541  0.3886 -0.0565
  265MOL0     C36453   6.915   3.157  11.638  0.6377 -0.0665  0.1044
  265MOL0     C36454   6.853   3.232  11.757 -0.8925  0.3241  0.1890
  265MOL0     C36455   6.834   3.380  11.719 -0.1205 -0.0763  0.1203
  265MOL0     O36456   6.819   3.474  11.828 -0.8108  0.5192 -0.1971
  265MOL0     C36457   6.931   3.507  11.902  0.6687 -0.3320  0.0114
  265MOL0     C36458   6.901   3.547  12.025  0.6396 -0.2858  0.4322
  265MOL0     C36459   6.994   3.557  12.126 -0.1657  1.0171  0.3706
  265MOL0     C36460   6.938   3.561  12.269  0.7944  0.7860 -0.2000
  265MOL0     C36461   7.129   3.557  12.096 -0.5698  0.4343  0.9511
  265MOL0     C36462   7.242   3.586  12.193 -0.1452  1.2116 -0.0160
  265MOL0     O36463   7.354   3.510  12.178 -0.7275  0.4627 -0.9355
  265MOL0     C36464   7.429   3.514  12.297  0.0632  0.0217 -0.5293
  265MOL0     C36465   7.537   3.597  12.307 -0.8593 -0.1703 -1.3813
  265MOL0     C36466   7.602   3.602  12.439 -0.0786  1.0265  0.6115
  265MOL0     C36467   7.565   3.532  12.549  0.1539 -0.3978 -0.7078
  265MOL0     O36468   7.637   3.554  12.660 -0.0841  0.2934  0.0598
  265MOL0     C36469   7.636   3.451  12.764 -0.6054  1.1103 -0.7978
  265MOL0     C36470   7.515   3.446  12.860 -0.3005  0.2425 -0.2261
  265MOL0     C36471   7.544   3.337  12.970 -0.9853  1.0948 -1.1407
  265MOL0     C36472   7.438   3.318  13.071  0.5998 -0.1612  0.2840
  265MOL0     C36473   7.411   3.448  13.151  0.9825 -0.3460  0.0438
  265MOL0     C36474   7.286   3.434  13.220  0.3287 -0.9618  1.1956
  265MOL0     C36475   7.274   3.552  13.327 -0.3675  0.0174  0.3087
  265MOL0     C36476   7.183   3.670  13.265 -0.0832  0.3058  0.4109
  265MOL0    Cl36477   7.009   3.635  13.306  0.2581 -0.0642  0.0170
  265MOL0     C36478   7.465   3.440  12.532  0.4575 -0.4390 -0.0878
  265MOL0     C36479   7.395   3.430  12.408 -0.3896  0.2666  0.5199
  265MOL0     O36480   7.215   3.664  12.278 -0.4513  0.0034 -0.1051
  265MOL0     C36481   7.162   3.516  11.970  0.9871  0.0785 -0.1979
  265MOL0     C36482   7.063   3.479  11.880  0.7832 -0.4386 -0.8273
  265MOL0     N36483   6.983   3.000  11.395 -0.4407  0.2040 -0.7453
  265MOL0     N36484   6.988   2.911  11.296  0.1288 -0.2131  0.1477
  265MOL0     C36485   6.645   3.319  10.596  0.0187  0.0222  0.8218
  265MOL0     C36486   6.608   3.453  10.633  0.7565  0.3913  0.0529
  265MOL0     C36487   6.312   3.815  10.644  0.5087 -0.0952  0.1943
  265MOL0     C36488   6.390   3.878  10.748  0.5464  0.5342 -0.0782
  265MOL0     C36489   6.334   3.985  10.818  1.1581  0.6343 -0.3368
  265MOL0     C36490   6.197   4.018  10.807 -0.2718  0.3516  0.7536
  265MOL0     O36491   6.156   4.114  10.897  0.2618 -0.2208 -0.6149
  265MOL0     C36492   6.068   4.212  10.860  0.5903  0.3434 -0.1208
  265MOL0     C36493   6.043   4.312  10.974  0.8747  0.1985  0.2569
  265MOL0     C36494   6.156   4.325  11.065  1.0685 -1.2834  0.2790
  265MOL0     C36495   6.131   4.438  11.172 -0.0601  0.4489 -0.7672
  265MOL0     C36496   6.095   4.570  11.132 -0.6435  0.3704 -0.3071
  265MOL0     C36497   6.088   4.687  11.094  0.5857  1.1535  0.4944
  265MOL0     C36498   6.122   3.953  10.712  0.4048  0.1174 -0.7065
  265MOL0     C36499   6.177   3.858  10.625  0.6727  0.6376  0.2968
  265MOL0     C36500   6.085   3.776  10.536 -0.2120  0.6040 -0.4884
  265MOL0     H36501   6.334   3.477  10.448  0.6694 -0.8373 -1.3099
  265MOL0     H36502   6.387   3.252  10.375 -0.3265  0.0796  1.3646
  265MOL0     H36503   6.544   2.943  10.462 -1.2278  1.8158 -0.4285
  265MOL0     H36504   6.521   3.030  10.612 -2.4322 -1.4509 -1.0521
  265MOL0     H36505   6.809   2.965  10.529  0.9399  1.4820  1.1239
  265MOL0     H36506   6.746   3.041  10.676 -1.7270  0.2717 -0.4281
  265MOL0     H36507   6.596   2.825  10.680  0.2160  2.1106 -0.4233
  265MOL0     H36508   6.720   2.756  10.592 -1.0303 -0.0527  0.1658
  265MOL0     H36509   6.896   2.809  10.755 -0.2695  3.6806 -1.3629
  265MOL0     H36510   6.797   2.899  10.858  1.2789  2.6989 -2.2644
  265MOL0     H36511   6.714   2.610  10.802 -0.2310 -0.2308  1.1158
  265MOL0     H36512   6.646   2.727  10.903  0.0671 -0.2005 -1.5685
  265MOL0     H36513   6.796   2.556  11.032 -3.2813 -0.2294 -2.0722
  265MOL0     H36514   6.912   2.583  10.907 -2.6901  0.6662 -2.3242
  265MOL0     H36515   6.961   2.818  11.006  0.1021 -0.7570 -1.7619
  265MOL0     H36516   6.989   2.694  11.129 -0.4958 -3.7402 -1.0511
  265MOL0     H36517   6.753   2.882  11.102  1.4435  0.3877 -1.1154
  265MOL0     H36518   6.737   2.729  11.194  0.0529 -0.8757  0.6863
  265MOL0     H36519   6.666   2.956  11.340 -0.6738 -4.8608  1.6164
  265MOL0     H36520   6.702   3.131  11.546 -0.3984  0.9463  0.4996
  265MOL0     H36521   6.810   3.237  11.471  1.0903  0.6883  0.4634
  265MOL0     H36522   6.938   3.052  11.659 -1.5278 -0.8127 -0.9403
  265MOL0     H36523   7.003   3.212  11.602  0.7548 -2.2465 -3.4807
  265MOL0     H36524   6.756   3.192  11.789 -2.0261  3.2814  0.7844
  265MOL0     H36525   6.925   3.226  11.840  2.0068 -2.6643 -2.2765
  265MOL0     H36526   6.903   3.421  11.645 -0.2848  1.8589  0.9809
  265MOL0     H36527   6.735   3.360  11.675 -0.6592 -2.4843  2.2284
  265MOL0     H36528   6.794   3.562  12.038  0.5639 -1.3095  1.0070
  265MOL0     H36529   6.880   3.653  12.281  2.6313  2.0854 -0.9961
  265MOL0     H36530   7.009   3.552  12.352  0.3821  1.5202  0.2547
  265MOL0     H36531   6.872   3.474  12.276  0.9758  0.5631 -1.1520
  265MOL0     H36532   7.565   3.666  12.229  3.8855  0.5328  0.5867
  265MOL0     H36533   7.684   3.673  12.440 -0.0383  1.0330 -1.1061
  265MOL0     H36534   7.650   3.354  12.715 -3.6211  0.7597 -1.1733
  265MOL0     H36535   7.719   3.465  12.833  1.0038  2.4529 -2.8777
  265MOL0     H36536   7.505   3.539  12.918 -1.8157 -1.1934  1.9604
  265MOL0     H36537   7.420   3.445  12.806 -0.3119  3.1716 -0.4228
  265MOL0     H36538   7.639   3.356  13.021 -1.0276 -2.7853  0.7011
  265MOL0     H36539   7.557   3.243  12.917  2.2666  0.4145  0.6550
  265MOL0     H36540   7.452   3.229  13.132 -1.6340 -1.2838 -0.7303
  265MOL0     H36541   7.343   3.307  13.019 -0.4856  1.5943  1.7621
  265MOL0     H36542   7.487   3.457  13.229 -0.1873  0.7539  1.1115
  265MOL0     H36543   7.393   3.541  13.097 -5.0311 -0.5353  0.9704
  265MOL0     H36544   7.270   3.346  13.281 -2.3907  0.5127  2.8115
  265MOL0     H36545   7.202   3.432  13.150 -0.5631 -1.5522  2.2534
  265MOL0     H36546   7.373   3.596  13.340  0.4601 -1.9553  1.1376
  265MOL0     H36547   7.236   3.508  13.420 -0.1485 -0.7211  0.0598
  265MOL0     H36548   7.196   3.662  13.157  0.7761  2.4896  0.2985
  265MOL0     H36549   7.206   3.769  13.306 -0.3924 -0.7596  3.4048
  265MOL0     H36550   7.433   3.375  12.612  1.4434 -2.8086 -1.4986
  265MOL0     H36551   7.306   3.369  12.403 -1.6723  1.5708  3.8695
  265MOL0     H36552   7.267   3.510  11.944  1.6627  3.0975  1.3921
  265MOL0     H36553   7.094   3.433  11.786  0.4863 -1.8205 -0.2690
  265MOL0     H36554   6.733   3.273  10.641  0.7542  2.1416  1.6385
  265MOL0     H36555   6.672   3.515  10.696 -1.2739  0.6426  1.9667
  265MOL0     H36556   6.498   3.871  10.752  0.4510 -1.0527  0.0207
  265MOL0     H36557   6.387   4.042  10.894  2.0591  2.0135 -1.9491
  265MOL0     H36558   6.098   4.256  10.764  3.4954 -2.1914 -0.5290
  265MOL0     H36559   5.972   4.167  10.834 -2.3785  4.6478  2.1855
  265MOL0     H36560   5.963   4.271  11.037 -0.9877 -0.6226 -2.4790
  265MOL0     H36561   6.018   4.403  10.921  1.4785  0.9880  1.2862
  265MOL0     H36562   6.170   4.237  11.129 -2.0109 -0.3993  2.3570
  265MOL0     H36563   6.249   4.339  11.008 -0.1093 -1.1938 -1.6934
  265MOL0     H36564   6.228   4.444  11.223 -0.2918  0.3079 -0.3115
  265MOL0     H36565   6.061   4.411  11.251  1.1511 -0.6051 -0.0114
  265MOL0     H36566   6.078   4.787  11.055 -3.5356  0.2431 -1.2741
  265MOL0     H36567   6.019   3.986  10.701  0.2020 -1.0470 -2.7179
  265MOL0     H36568   6.012   3.730  10.604  1.3006 -0.2929  0.5910
  265MOL0     H36569   6.058   3.829  10.445  1.8889  0.6436 -1.1397
  265MOL0     H36570   6.144   3.689  10.508 -2.0976 -1.5362  1.7578
  266MOL0     O36571   9.956   3.468  10.071  0.2545 -0.4109 -1.1136
  266MOL0     C36572   9.860   3.402  10.116 -1.1148 -0.2699 -0.6033
  266MOL0     O36573   9.785   3.319  10.042 -1.0244  0.0970 -1.2808
  266MOL0     C36574   9.805   3.317   9.905  0.5188 -0.1089 -0.2008
  266MOL0     C36575   9.713   3.383   9.821  0.4185 -0.4256  0.8394
  266MOL0     C36576   9.722   3.363   9.681  0.1158  0.5508  0.2564
  266MOL0     C36577   9.825   3.282   9.624  0.4959 -0.2785 -0.5938
  266MOL0     O36578   9.833   3.265   9.486 -0.0117 -0.0417 -0.3922
  266MOL0     C36579   9.789   3.381   9.409  0.2470 -0.3799 -0.0801
  266MOL0     C36580   9.822   3.379   9.264 -0.1485  0.6372  0.1081
  266MOL0     C36581   9.978   3.381   9.240 -0.2364  1.0642  0.5860
  266MOL0     C36582  10.038   3.516   9.274 -0.2785  0.0323  0.0758
  266MOL0     C36583  10.187   3.510   9.247 -0.2765 -0.4284 -1.5594
  266MOL0     C36584  10.233   3.521   9.096  0.7660  0.0193 -0.9996
  266MOL0     C36585  10.383   3.570   9.079  0.5482 -0.3892  0.6088
  266MOL0     C36586  10.407   3.584   8.922  0.5053  0.1482 -1.1095
  266MOL0     N36587  10.535   3.650   8.900  0.2772 -0.1637 -0.5981
  266MOL0     C36588  10.609   3.610   8.799  0.2488 -0.0732  0.2872
  266MOL0     C36589  10.733   3.647   8.822  0.7205  0.2459  0.6220
  266MOL0     C36590  10.846   3.597   8.727 -0.1127 -0.2692 -0.3464
  266MOL0     C36591  10.911   3.722   8.656  0.6947  0.1035 -0.2972
  266MOL0     C36592  10.983   3.804   8.772  0.5478  0.1746  0.0420
  266MOL0     C36593  11.074   3.911   8.705 -0.1207 -0.6037 -0.6316
  266MOL0     O36594  11.146   3.973   8.816 -0.5734  0.4826 -0.1146
  266MOL0     C36595  11.109   4.100   8.835  0.5158 -0.3886 -0.8282
  266MOL0     C36596  11.175   4.206   8.770 -1.2200 -0.3839 -0.6222
  266MOL0     C36597  11.165   4.343   8.796  0.1623 -0.4896  0.3048
  266MOL0     C36598  11.265   4.438   8.726  0.2507  0.4052  0.1789
  266MOL0     C36599  11.065   4.372   8.896  0.9237 -0.6353  0.0754
  266MOL0     C36600  11.037   4.517   8.915 -0.3251  0.0285 -0.7010
  266MOL0     O36601  10.925   4.529   8.993 -0.3561 -0.3881 -0.4119
  266MOL0     C36602  10.876   4.650   9.033  0.0637  0.0821 -0.0146
  266MOL0     C36603  10.871   4.754   8.941  0.0580  0.5598  0.5738
  266MOL0     C36604  10.832   4.879   8.988  0.3183  0.2322 -0.3133
  266MOL0     C36605  10.774   4.895   9.118  0.0181 -0.2869 -0.8413
  266MOL0     O36606  10.738   5.020   9.156  0.2677  0.2048  0.4504
  266MOL0     C36607  10.761   5.061   9.294  0.5277  0.2306 -0.1020
  266MOL0     C36608  10.731   5.203   9.316 -0.2211  0.9964 -0.0740
  266MOL0     C36609  10.597   5.241   9.266  1.0036  0.2947  0.4573
  266MOL0     C36610  10.602   5.354   9.168 -0.8748  0.0873 -0.7578
  266MOL0     C36611  10.470   5.374   9.097 -0.4834 -0.9054 -0.6467
  266MOL0     C36612  10.480   5.505   9.024  0.7750 -0.7458 -0.5200
  266MOL0     C36613  10.363   5.542   8.940 -0.2513  0.2572  0.0719
  266MOL0     C36614  10.309   5.685   8.967  0.7236 -0.2872 -0.7686
  266MOL0    Cl36615  10.153   5.706   8.885 -0.2613 -0.2861 -0.1126
  266MOL0     C36616  10.773   4.786   9.210  0.2583  0.1110  0.4073
  266MOL0     C36617  10.840   4.666   9.170  1.3144  0.4714 -0.5371
  266MOL0     O36618  11.122   4.605   8.907  0.2281  0.6759 -0.0438
  266MOL0     C36619  10.982   4.267   8.958 -0.1065 -0.2622  0.2072
  266MOL0     C36620  11.014   4.137   8.932  0.4843 -0.1269  0.6744
  266MOL0     N36621  10.737   3.719   8.931  0.5763  0.3184 -0.2908
  266MOL0     N36622  10.619   3.724   8.985 -0.3642 -0.4923  0.4987
  266MOL0     C36623   9.909   3.207   9.709 -0.0971 -0.0144 -0.4039
  266MOL0     C36624   9.896   3.227   9.849  1.2503  1.3081 -0.5304
  266MOL0     C36625   9.838   3.413  10.262  0.0620  0.1706 -0.3342
  266MOL0     C36626   9.932   3.481  10.348 -0.4147 -0.7148  1.0287
  266MOL0     C36627   9.909   3.496  10.489  0.4765 -0.3642  0.9253
  266MOL0     C36628   9.796   3.438  10.551  0.3982  0.9003 -0.0888
  266MOL0     O36629   9.759   3.444  10.684 -0.4652 -0.9583  0.9137
  266MOL0     C36630   9.833   3.516  10.776 -0.1890 -0.0364 -0.5389
  266MOL0     C36631   9.785   3.504  10.916  0.7512 -0.3190  0.6109
  266MOL0     C36632   9.821   3.358  10.970  0.2422 -0.1546  0.0214
  266MOL0     C36633   9.753   3.321  11.106  0.1419  0.8846 -0.3096
  266MOL0     C36634   9.779   3.422  11.214  0.4641  0.0978 -0.3336
  266MOL0     C36635   9.791   3.498  11.309  0.2997 -0.1348 -0.2439
  266MOL0     C36636   9.721   3.357  10.471  0.8879  0.0529 -0.0798
  266MOL0     C36637   9.733   3.349  10.330  0.9750  0.0593  0.5044
  266MOL0     C36638   9.631   3.252  10.268  0.3571  0.3526  1.5999
  266MOL0     H36639   9.623   3.429   9.860  0.9669  0.1196  1.4904
  266MOL0     H36640   9.644   3.403   9.617 -1.5263 -3.0425 -0.2430
  266MOL0     H36641   9.829   3.475   9.447 -0.0025 -0.7342  1.0899
  266MOL0     H36642   9.680   3.371   9.403  0.1638 -0.4661  1.3042
  266MOL0     H36643   9.790   3.285   9.216  1.4743  0.7178 -1.2308
  266MOL0     H36644   9.778   3.472   9.227  0.7823  0.8973 -0.3766
  266MOL0     H36645  10.018   3.297   9.297  2.0768  0.9702 -1.0447
  266MOL0     H36646   9.987   3.344   9.138 -2.4630  1.2640  0.2739
  266MOL0     H36647  10.009   3.602   9.212 -1.1807  2.5235  3.6387
  266MOL0     H36648  10.018   3.541   9.379  1.9789 -0.5428  0.7026
  266MOL0     H36649  10.218   3.410   9.277 -2.4241 -1.0845 -1.3699
  266MOL0     H36650  10.239   3.587   9.305 -1.5205 -1.3997  0.9889
  266MOL0     H36651  10.239   3.424   9.046  1.6359  0.0745 -1.0068
  266MOL0     H36652  10.166   3.585   9.037 -1.8700 -2.0902 -0.5053
  266MOL0     H36653  10.442   3.487   9.117 -0.9679 -0.9739  1.7584
  266MOL0     H36654  10.390   3.665   9.133 -2.8309  0.5028 -0.2830
  266MOL0     H36655  10.402   3.482   8.883  0.8958 -0.4583  0.3469
  266MOL0     H36656  10.321   3.645   8.891  0.0229 -0.5325 -1.1419
  266MOL0     H36657  10.568   3.561   8.712 -2.3101  1.3528  0.5816
  266MOL0     H36658  10.818   3.536   8.641  1.4680  1.4041 -2.1263
  266MOL0     H36659  10.922   3.534   8.774 -2.8853 -1.9919  2.2209
  266MOL0     H36660  10.981   3.687   8.579  2.6555  2.0055  0.5016
  266MOL0     H36661  10.832   3.782   8.610  2.9816  0.9055 -3.5677
  266MOL0     H36662  10.917   3.873   8.826  0.3375 -1.1441  1.5635
  266MOL0     H36663  11.029   3.735   8.844 -2.0801 -1.9932 -0.1923
  266MOL0     H36664  11.134   3.871   8.623  2.5517  2.8476 -0.6019
  266MOL0     H36665  11.004   3.981   8.658  0.9462  0.4022 -0.7485
  266MOL0     H36666  11.228   4.179   8.679 -2.0490 -0.2770 -1.1426
  266MOL0     H36667  11.215   4.521   8.675 -1.5093 -0.3299  0.6305
  266MOL0     H36668  11.329   4.382   8.658  0.1318  1.9647 -1.2812
  266MOL0     H36669  11.333   4.484   8.799  1.2483 -0.3508 -0.2476
  266MOL0     H36670  10.908   4.729   8.842 -0.3889 -1.3362  0.8574
  266MOL0     H36671  10.842   4.965   8.923 -0.6563  1.0617  0.5922
  266MOL0     H36672  10.697   4.999   9.357 -1.6889  3.9591  1.6193
  266MOL0     H36673  10.861   5.043   9.334 -0.8800 -1.7540  2.8780
  266MOL0     H36674  10.728   5.229   9.422  0.3693  3.3105 -0.5482
  266MOL0     H36675  10.816   5.250   9.264  0.5251  0.3675  0.5549
  266MOL0     H36676  10.538   5.277   9.350  0.1388 -1.5840  0.6994
  266MOL0     H36677  10.544   5.156   9.223  1.5208 -0.2799  0.9350
  266MOL0     H36678  10.677   5.338   9.090 -0.5801  1.6078 -0.8306
  266MOL0     H36679  10.645   5.442   9.217  2.7810  0.3811 -4.0109
  266MOL0     H36680  10.448   5.298   9.021  1.1164 -3.0474  0.8916
  266MOL0     H36681  10.386   5.381   9.167  0.4049  0.3974  0.3294
  266MOL0     H36682  10.564   5.504   8.955  0.1042  1.9849 -1.5262
  266MOL0     H36683  10.491   5.590   9.093  0.6373  0.6348 -2.1353
  266MOL0     H36684  10.293   5.460   8.959 -0.6672 -0.0424 -2.4060
  266MOL0     H36685  10.378   5.532   8.832 -0.6598  1.1440 -0.0810
  266MOL0     H36686  10.384   5.761   8.943 -0.8197  1.1393 -1.2526
  266MOL0     H36687  10.287   5.701   9.073  3.2629 -1.2948 -0.0135
  266MOL0     H36688  10.739   4.801   9.312 -0.1781 -1.2198  0.4697
  266MOL0     H36689  10.839   4.587   9.244 -2.3266  0.6190 -0.2226
  266MOL0     H36690  10.901   4.280   9.028  0.4963 -0.3794  0.9432
  266MOL0     H36691  10.976   4.056   8.994  1.0428 -1.5464 -0.7656
  266MOL0     H36692   9.982   3.140   9.666 -0.1875 -0.3489 -0.0468
  266MOL0     H36693   9.963   3.177   9.918 -0.1200 -1.7755 -1.2633
  266MOL0     H36694  10.026   3.511  10.302 -1.4689 -0.3909 -1.0535
  266MOL0     H36695   9.991   3.541  10.544  1.4643  0.6635 -1.2514
  266MOL0     H36696   9.935   3.478  10.764 -0.0506  0.6962 -1.9371
  266MOL0     H36697   9.831   3.616  10.733 -0.7375 -0.6575 -2.0275
  266MOL0     H36698   9.676   3.506  10.929  0.4387 -0.2265 -1.6188
  266MOL0     H36699   9.835   3.580  10.977  0.4007 -0.9139  1.6690
  266MOL0     H36700   9.796   3.279  10.899 -0.1915 -0.7920  0.8682
  266MOL0     H36701   9.930   3.365  10.974  0.2742 -1.0839  1.0526
  266MOL0     H36702   9.792   3.227  11.147 -1.6207  0.2126 -0.0671
  266MOL0     H36703   9.645   3.318  11.093  0.3320  0.3900 -1.9309
  266MOL0     H36704   9.797   3.573  11.385  0.6142 -0.5532  0.1572
  266MOL0     H36705   9.637   3.311  10.521  0.9554  1.2378  1.1931
  266MOL0     H36706   9.677   3.165  10.220 -1.3309  0.6229 -0.6564
  266MOL0     H36707   9.554   3.220  10.339 -2.3466  2.3512 -0.2483
  266MOL0     H36708   9.570   3.310  10.199  0.8288 -0.9867 -0.0120
  267MOL0     O36709   0.798   1.833   5.853 -0.5618  0.4278 -1.5743
  267MOL0     C36710   0.748   1.802   5.754 -0.1010  0.5317  0.2518
  267MOL0     O36711   0.614   1.797   5.724  0.8256 -0.4685  0.5375
  267MOL0     C36712   0.534   1.845   5.829 -0.0900 -1.0634 -0.1609
  267MOL0     C36713   0.514   1.978   5.847  0.3793 -0.4534  0.9457
  267MOL0     C36714   0.421   2.021   5.942  0.7054  0.7467  0.6163
  267MOL0     C36715   0.339   1.925   6.012  0.4839 -0.7333  0.0656
  267MOL0     O36716   0.248   1.981   6.103 -0.1205  0.3248  0.7455
  267MOL0     C36717   0.123   1.915   6.131 -0.0069  0.2024  0.2624
  267MOL0     C36718   0.041   2.013   6.225 -1.7543 -0.0307 -0.3601
  267MOL0     C36719   0.041   2.161   6.204  0.1412  0.3150  0.2326
  267MOL0     C36720  -0.057   2.197   6.099  0.1591  0.6699  0.4283
  267MOL0     C36721  -0.084   2.344   6.072 -0.6460  0.4262 -0.3829
  267MOL0     C36722  -0.208   2.349   5.965  0.0640  0.0514 -0.0215
  267MOL0     C36723  -0.258   2.491   5.947 -0.1806  0.6507  0.5173
  267MOL0     C36724  -0.388   2.514   5.860 -0.5049  0.8994  0.4640
  267MOL0     N36725  -0.351   2.477   5.720 -0.6050 -0.5126  0.5687
  267MOL0     C36726  -0.338   2.580   5.628  0.1882  0.2861  0.7481
  267MOL0     C36727  -0.330   2.504   5.512 -0.1452 -0.0799  0.1229
  267MOL0     C36728  -0.328   2.567   5.374  0.4945 -0.9939 -0.9730
  267MOL0     C36729  -0.453   2.647   5.343 -0.7321  0.6687  0.1852
  267MOL0     C36730  -0.574   2.546   5.333 -1.1175 -0.0002  0.1347
  267MOL0     C36731  -0.680   2.618   5.258  0.6961 -0.1918 -0.1449
  267MOL0     O36732  -0.698   2.760   5.297  0.8935 -0.4751  0.0492
  267MOL0     C36733  -0.817   2.775   5.361 -0.1459  0.0710  0.4085
  267MOL0     C36734  -0.832   2.752   5.498 -0.1390 -0.0415  1.4579
  267MOL0     C36735  -0.965   2.746   5.545  0.6190  0.6943  1.0770
  267MOL0     C36736  -0.989   2.714   5.691  0.7397 -0.5201 -0.8397
  267MOL0     C36737  -1.073   2.770   5.460 -0.4337  0.3294 -0.4840
  267MOL0     C36738  -1.214   2.729   5.494  0.5952 -0.4635 -0.0769
  267MOL0     O36739  -1.257   2.756   5.616  0.2953 -0.1429  0.0813
  267MOL0     C36740  -1.386   2.727   5.661 -0.4707  1.2031  0.1186
  267MOL0     C36741  -1.492   2.771   5.590 -0.1977 -0.0456  0.1752
  267MOL0     C36742  -1.624   2.740   5.635 -0.4146 -0.0504  0.0683
  267MOL0     C36743  -1.643   2.658   5.749  0.3419 -0.9092  0.7551
  267MOL0     O36744  -1.773   2.636   5.800  0.3460 -0.2800  0.5619
  267MOL0     C36745  -1.885   2.612   5.719 -0.1308  0.3586 -0.0713
  267MOL0     C36746  -1.994   2.534   5.808 -0.3488 -0.0163  0.5200
  267MOL0     C36747  -2.127   2.519   5.731 -0.6393 -0.0950 -0.3669
  267MOL0     C36748  -2.136   2.404   5.626 -0.9593 -1.1258 -0.3600
  267MOL0     C36749  -2.286   2.367   5.591 -0.4116 -0.7788 -0.6498
  267MOL0     C36750  -2.289   2.246   5.517  0.8957 -0.6175 -0.7558
  267MOL0     C36751  -2.254   2.252   5.365  0.3051 -0.2037 -0.1952
  267MOL0     C36752  -2.369   2.240   5.268 -0.2759 -0.4066 -0.2519
  267MOL0    Cl36753  -2.453   2.404   5.261 -0.0578 -0.4785 -0.9438
  267MOL0     C36754  -1.534   2.618   5.824  0.0957 -0.8345  0.1680
  267MOL0     C36755  -1.404   2.644   5.779  0.4145 -0.4506 -0.3049
  267MOL0     O36756  -1.287   2.687   5.403  0.1322  0.6715 -0.0941
  267MOL0     C36757  -1.049   2.806   5.331  1.2553 -0.9526 -0.1302
  267MOL0     C36758  -0.925   2.820   5.285 -0.2756 -0.1048  0.6426
  267MOL0     N36759  -0.327   2.370   5.541  0.0282 -0.3310  0.2158
  267MOL0     N36760  -0.338   2.351   5.665  0.2771  0.9033 -0.1619
  267MOL0     C36761   0.349   1.787   5.984  0.5301  0.0450 -0.2037
  267MOL0     C36762   0.444   1.750   5.889  0.1288 -0.0434  1.0326
  267MOL0     C36763   0.840   1.765   5.632  0.1805 -0.2684 -0.0333
  267MOL0     C36764   0.806   1.812   5.507 -0.5271  0.5004  0.5010
  267MOL0     C36765   0.888   1.783   5.396  0.1709 -0.1279  0.3246
  267MOL0     C36766   1.011   1.727   5.408  0.7849  0.6170 -0.6583
  267MOL0     O36767   1.099   1.723   5.301 -0.1054 -0.5935  0.2029
  267MOL0     C36768   1.178   1.604   5.288  0.8443 -0.2149  0.3039
  267MOL0     C36769   1.221   1.586   5.137 -1.4403 -0.6841 -0.1490
  267MOL0     C36770   1.331   1.484   5.109  0.9610  0.6620 -1.1031
  267MOL0     C36771   1.352   1.470   4.961  0.0552  0.1001 -0.6861
  267MOL0     C36772   1.256   1.386   4.890 -0.0834 -0.7676  0.7537
  267MOL0     C36773   1.166   1.323   4.835  0.4040  0.5154  0.1823
  267MOL0     C36774   1.050   1.695   5.534 -0.0544 -0.3562  0.0890
  267MOL0     C36775   0.967   1.708   5.650  0.2762 -0.2162 -0.5160
  267MOL0     C36776   1.012   1.644   5.780  0.0832 -0.1119 -0.0833
  267MOL0     H36777   0.574   2.052   5.796 -2.8594  0.8121 -1.4093
  267MOL0     H36778   0.400   2.122   5.975 -2.5904  0.2723  0.3698
  267MOL0     H36779   0.138   1.818   6.177  3.7022  1.0861  1.2196
  267MOL0     H36780   0.079   1.912   6.031  0.8263 -1.1763 -0.0811
  267MOL0     H36781  -0.062   1.975   6.224 -1.4547 -0.8747 -0.1424
  267MOL0     H36782   0.081   1.997   6.326 -0.9349 -0.7786 -0.7906
  267MOL0     H36783   0.026   2.206   6.303 -4.2698  4.2550 -1.8376
  267MOL0     H36784   0.138   2.196   6.169 -0.3367  0.5595 -0.8771
  267MOL0     H36785  -0.032   2.156   6.001  4.6829  0.4614  1.4506
  267MOL0     H36786  -0.151   2.150   6.131  1.0275 -1.6704 -0.2786
  267MOL0     H36787   0.009   2.388   6.036  0.9061 -1.5993  0.8682
  267MOL0     H36788  -0.128   2.384   6.164 -3.7801  1.2742 -2.1219
  267MOL0     H36789  -0.176   2.307   5.869  0.5847  3.6069 -1.5774
  267MOL0     H36790  -0.288   2.294   6.015  1.0736  1.4491  3.3637
  267MOL0     H36791  -0.180   2.553   5.901 -1.5001  2.7918  1.0601
  267MOL0     H36792  -0.286   2.534   6.043 -0.3642 -1.3013  1.3768
  267MOL0     H36793  -0.466   2.449   5.902 -0.8737  0.5993 -0.6513
  267MOL0     H36794  -0.426   2.616   5.863 -2.1128  0.4229 -1.5684
  267MOL0     H36795  -0.339   2.686   5.648 -1.5374  0.2424  1.0482
  267MOL0     H36796  -0.312   2.487   5.302  1.0066 -1.4183 -0.3998
  267MOL0     H36797  -0.244   2.634   5.354  0.2597 -0.3119  0.1877
  267MOL0     H36798  -0.474   2.716   5.425 -1.5013 -0.1669  0.7102
  267MOL0     H36799  -0.424   2.706   5.257 -1.0779 -1.3047 -1.3600
  267MOL0     H36800  -0.560   2.451   5.281 -1.0829 -0.6945  1.3689
  267MOL0     H36801  -0.597   2.511   5.435 -1.7180  3.4617  1.3240
  267MOL0     H36802  -0.659   2.620   5.150 -1.5934  3.1919 -0.6680
  267MOL0     H36803  -0.777   2.567   5.260 -0.4441  1.7983 -1.7425
  267MOL0     H36804  -0.748   2.728   5.563 -0.3536  0.2074  1.8342
  267MOL0     H36805  -1.071   2.641   5.690 -0.4647  0.7437 -2.8013
  267MOL0     H36806  -1.019   2.805   5.744  0.6985 -0.6096 -0.7097
  267MOL0     H36807  -0.905   2.677   5.749  0.7548  0.5103 -0.1691
  267MOL0     H36808  -1.475   2.816   5.492 -2.5664  0.3918 -0.0751
  267MOL0     H36809  -1.702   2.777   5.568  1.8529  1.1580 -2.0777
  267MOL0     H36810  -1.920   2.708   5.681  0.8206  1.4451  1.6258
  267MOL0     H36811  -1.861   2.549   5.633 -1.0053  1.0217 -0.8209
  267MOL0     H36812  -1.958   2.433   5.826  1.3042  0.6843  1.3768
  267MOL0     H36813  -2.007   2.595   5.898  1.9021  0.5422  0.5116
  267MOL0     H36814  -2.141   2.618   5.685  1.5030  1.0920  1.4051
  267MOL0     H36815  -2.199   2.509   5.813  1.9817 -1.5287  1.9001
  267MOL0     H36816  -2.084   2.315   5.663  2.7734 -0.4189 -3.3251
  267MOL0     H36817  -2.078   2.410   5.533 -2.3235  2.2107 -1.1435
  267MOL0     H36818  -2.336   2.334   5.683  0.1230  1.8856  0.6769
  267MOL0     H36819  -2.342   2.448   5.545 -0.0782 -1.4933 -2.4067
  267MOL0     H36820  -2.385   2.193   5.524  0.8687 -0.4349  0.6239
  267MOL0     H36821  -2.220   2.175   5.564  0.1786 -0.7366  0.1507
  267MOL0     H36822  -2.183   2.171   5.345 -1.6139 -1.7687 -0.9916
  267MOL0     H36823  -2.206   2.346   5.339 -2.0229  0.8704 -0.8550
  267MOL0     H36824  -2.439   2.161   5.298  0.0700 -1.5821 -2.3439
  267MOL0     H36825  -2.330   2.213   5.169  0.8934  2.5913 -0.6931
  267MOL0     H36826  -1.560   2.570   5.917 -1.6250  0.1968  0.2689
  267MOL0     H36827  -1.318   2.616   5.838  2.5238  2.2032 -1.8778
  267MOL0     H36828  -1.125   2.831   5.259  3.8900  1.0128 -2.4496
  267MOL0     H36829  -0.911   2.847   5.181 -2.4900 -4.6662 -1.1474
  267MOL0     H36830   0.286   1.714   6.036  0.4275 -1.7805 -2.6892
  267MOL0     H36831   0.449   1.652   5.843 -2.9915 -0.9048  2.2658
  267MOL0     H36832   0.717   1.871   5.489 -1.1958 -0.8759 -0.9129
  267MOL0     H36833   0.853   1.812   5.298 -1.1888 -1.0532  0.4943
  267MOL0     H36834   1.276   1.617   5.335  0.9814 -2.1646  0.6443
  267MOL0     H36835   1.128   1.515   5.329 -1.1536 -0.1588 -1.7885
  267MOL0     H36836   1.270   1.676   5.098  0.0506 -0.3718  2.2773
  267MOL0     H36837   1.139   1.570   5.065 -2.5242  1.6679  0.4583
  267MOL0     H36838   1.429   1.506   5.151  1.2131 -0.0804 -1.2870
  267MOL0     H36839   1.301   1.387   5.149 -2.5935  1.4124 -1.5767
  267MOL0     H36840   1.452   1.438   4.932  0.2372 -0.0286  0.0699
  267MOL0     H36841   1.355   1.570   4.917  0.7066 -0.0703 -1.0391
  267MOL0     H36842   1.092   1.261   4.788  1.7713 -0.6437 -0.5104
  267MOL0     H36843   1.152   1.660   5.542  0.1983  0.6809  1.8995
  267MOL0     H36844   1.098   1.580   5.761 -1.2095 -1.8881 -0.2326
  267MOL0     H36845   1.043   1.728   5.843  0.7259  1.7766 -2.7597
  267MOL0     H36846   0.935   1.588   5.834  1.7747 -1.3805  1.1239
  268MOL0     O36847  10.142   8.370   7.551  0.1474 -0.1082  0.7226
  268MOL0     C36848  10.210   8.266   7.540  0.1071  0.0220  0.8113
  268MOL0     O36849  10.198   8.150   7.614 -0.6849  0.4617 -0.8786
  268MOL0     C36850  10.120   8.134   7.726  0.7612 -0.2326 -0.2830
  268MOL0     C36851  10.086   8.240   7.808 -0.2296 -0.2583  0.2782
  268MOL0     C36852  10.010   8.222   7.922 -1.1376  1.2259  0.5906
  268MOL0     C36853   9.980   8.096   7.961  0.3536 -0.2455  0.6790
  268MOL0     O36854   9.909   8.084   8.067  0.0309  0.6571 -0.7350
  268MOL0     C36855   9.987   8.022   8.172  0.2002 -0.4949 -0.0290
  268MOL0     C36856   9.931   8.039   8.313 -0.3264 -0.4757  0.1015
  268MOL0     C36857   9.915   8.184   8.359 -0.2958  0.4421  0.0174
  268MOL0     C36858   9.797   8.202   8.461  0.4138 -0.2424  0.0997
  268MOL0     C36859   9.801   8.355   8.507 -0.1849 -1.0751 -0.2535
  268MOL0     C36860   9.911   8.388   8.611 -0.7790  0.1125  0.1684
  268MOL0     C36861   9.880   8.506   8.695 -1.0302 -1.5291  0.6121
  268MOL0     C36862   9.997   8.550   8.780 -0.2924  0.1306 -0.2407
  268MOL0     N36863  10.097   8.607   8.684 -0.2538  0.6125 -0.0017
  268MOL0     C36864  10.094   8.737   8.649 -0.0678 -0.4514  0.4351
  268MOL0     C36865  10.210   8.753   8.582 -0.8658 -0.1563  0.6616
  268MOL0     C36866  10.264   8.874   8.509 -0.5288  0.0380  0.3379
  268MOL0     C36867  10.391   8.937   8.565 -0.0995 -0.5102 -0.4674
  268MOL0     C36868  10.451   9.031   8.460  0.1014 -0.9771  0.0685
  268MOL0     C36869  10.572   9.099   8.528  0.6109  0.1706  0.5275
  268MOL0     O36870  10.683   9.129   8.433 -1.0119  0.5047  1.2367
  268MOL0     C36871  10.766   9.026   8.389 -0.7954  0.7248  0.6442
  268MOL0     C36872  10.841   8.957   8.484 -1.0294 -0.3519 -0.8498
  268MOL0     C36873  10.939   8.864   8.446  0.4769  0.5398  0.4977
  268MOL0     C36874  10.978   8.764   8.551 -0.2055 -0.4897 -0.1881
  268MOL0     C36875  10.996   8.863   8.319  0.3868  0.9459  0.0270
  268MOL0     C36876  11.106   8.773   8.272  0.6153 -0.9888 -0.4510
  268MOL0     O36877  11.092   8.729   8.144  0.9197 -0.0622 -0.4899
  268MOL0     C36878  11.194   8.651   8.087 -0.7974 -0.7999  0.0939
  268MOL0     C36879  11.336   8.663   8.119 -0.3250  0.4009 -0.3244
  268MOL0     C36880  11.421   8.568   8.059  0.3042 -0.2606  0.2744
  268MOL0     C36881  11.372   8.490   7.954  0.5103 -0.6395  0.1376
  268MOL0     O36882  11.432   8.382   7.912  0.5830  0.1333  0.0996
  268MOL0     C36883  11.493   8.303   8.017 -1.5349  0.1455  0.2403
  268MOL0     C36884  11.547   8.170   7.972 -0.2346 -0.5546 -0.6683
  268MOL0     C36885  11.632   8.085   8.067  0.2501  0.3419  0.2664
  268MOL0     C36886  11.622   7.942   8.021 -0.3794 -0.6353  0.7367
  268MOL0     C36887  11.729   7.846   8.044 -0.6739  0.1383  1.0812
  268MOL0     C36888  11.721   7.717   7.959 -0.4325  0.1761  0.1770
  268MOL0     C36889  11.622   7.617   8.021 -0.4090  0.2027  1.1067
  268MOL0     C36890  11.621   7.478   7.950  0.9650 -0.1091 -0.1801
  268MOL0    Cl36891  11.759   7.370   7.982  0.4847  0.0477  0.3819
  268MOL0     C36892  11.243   8.494   7.906  1.0987  0.0067  0.9868
  268MOL0     C36893  11.155   8.575   7.971  0.2212  0.4189 -0.2916
  268MOL0     O36894  11.199   8.754   8.350 -0.4629 -0.6000  0.3545
  268MOL0     C36895  10.924   8.933   8.227 -0.0228 -0.4698  0.0969
  268MOL0     C36896  10.813   9.018   8.260 -0.6624  0.5173 -0.8314
  268MOL0     N36897  10.281   8.627   8.579 -1.1693  0.2829  0.2971
  268MOL0     N36898  10.219   8.537   8.648 -0.6923 -0.2693  0.0412
  268MOL0     C36899  10.014   7.990   7.882 -0.4680 -0.0030  0.4624
  268MOL0     C36900  10.087   8.007   7.762  0.7742 -0.3745  0.2300
  268MOL0     C36901  10.307   8.275   7.423 -0.5424 -0.3610  0.0882
  268MOL0     C36902  10.321   8.397   7.351 -1.2623  0.7023 -0.7787
  268MOL0     C36903  10.416   8.408   7.252  0.2932 -0.9265 -0.3165
  268MOL0     C36904  10.507   8.314   7.217  0.3050 -0.0675  0.3709
  268MOL0     O36905  10.596   8.334   7.116  0.7030  0.1529 -0.2500
  268MOL0     C36906  10.732   8.280   7.121  1.3379  0.1850 -0.7128
  268MOL0     C36907  10.828   8.367   7.040  0.7107 -1.1980  0.6437
  268MOL0     C36908  10.975   8.301   7.037 -0.0841 -0.7363  0.3552
  268MOL0     C36909  11.002   8.217   6.905  0.9016  1.2214 -0.3380
  268MOL0     C36910  11.018   8.281   6.776  0.2482 -1.5979 -0.1424
  268MOL0     C36911  11.051   8.307   6.660 -0.5955  0.4144  0.5531
  268MOL0     C36912  10.495   8.193   7.292  0.2263 -0.1610  0.6034
  268MOL0     C36913  10.389   8.169   7.380  0.1894  1.1111 -1.4556
  268MOL0     C36914  10.374   8.034   7.443 -0.1916 -1.4217  1.1170
  268MOL0     H36915  10.114   8.344   7.790 -0.2482 -0.1437  0.8909
  268MOL0     H36916   9.963   8.293   7.989 -0.7465 -1.5451  4.1273
  268MOL0     H36917  10.088   8.060   8.190  0.7894 -2.3107  0.7115
  268MOL0     H36918   9.997   7.914   8.158  0.6578 -0.4419 -0.1042
  268MOL0     H36919   9.829   8.003   8.298  0.1387 -0.8908 -2.4337
  268MOL0     H36920   9.990   7.988   8.390  1.3504  3.0449  1.4082
  268MOL0     H36921  10.006   8.225   8.402 -0.9286  1.5477  0.3521
  268MOL0     H36922   9.884   8.244   8.273  1.0645  1.0956 -0.0274
  268MOL0     H36923   9.697   8.185   8.419 -0.2926  1.9021  0.8067
  268MOL0     H36924   9.806   8.128   8.541 -0.6789 -3.0991 -2.2063
  268MOL0     H36925   9.701   8.378   8.544  0.2528 -0.0843  0.3812
  268MOL0     H36926   9.804   8.430   8.427 -1.3350 -2.9762 -2.1712
  268MOL0     H36927   9.910   8.303   8.679  1.0173  1.5676  2.1409
  268MOL0     H36928  10.010   8.392   8.563 -0.8103  1.9997  0.1843
  268MOL0     H36929   9.802   8.475   8.765  0.5181 -0.1348  3.1298
  268MOL0     H36930   9.848   8.597   8.644  3.0904 -0.9874 -1.4480
  268MOL0     H36931   9.976   8.628   8.854 -1.7516  3.5243 -3.8756
  268MOL0     H36932  10.036   8.462   8.832 -1.8174 -0.8336 -0.6684
  268MOL0     H36933  10.012   8.806   8.668 -2.6199 -2.9465 -0.8601
  268MOL0     H36934  10.185   8.949   8.497  0.6738  1.4711  1.0193
  268MOL0     H36935  10.288   8.835   8.410 -0.0678  0.0540  0.4371
  268MOL0     H36936  10.354   9.004   8.643  3.6461  2.1717 -0.6853
  268MOL0     H36937  10.464   8.867   8.608  1.0779  0.9034 -0.0910
  268MOL0     H36938  10.487   8.972   8.375  2.7357  0.3907  0.1141
  268MOL0     H36939  10.385   9.112   8.430  0.7402 -1.1342 -1.8536
  268MOL0     H36940  10.531   9.191   8.571 -4.6294 -1.0640 -1.1155
  268MOL0     H36941  10.613   9.043   8.612  1.1514  0.3149  0.3670
  268MOL0     H36942  10.818   8.970   8.590 -2.2089 -0.9035 -1.0177
  268MOL0     H36943  10.918   8.777   8.642  1.5028 -1.6316  1.1648
  268MOL0     H36944  11.082   8.782   8.577 -0.3852 -0.0386  0.2329
  268MOL0     H36945  10.991   8.663   8.511  1.2720 -0.3098 -0.2149
  268MOL0     H36946  11.380   8.749   8.169 -2.2893  2.5994 -2.1433
  268MOL0     H36947  11.529   8.570   8.065  0.4237  0.3411 -1.4213
  268MOL0     H36948  11.581   8.355   8.057  0.0592  0.3225 -3.1231
  268MOL0     H36949  11.421   8.273   8.094  0.5909 -4.0577  0.9041
  268MOL0     H36950  11.458   8.116   7.940  0.0591 -0.9089 -0.9000
  268MOL0     H36951  11.610   8.204   7.889  2.7688 -0.2657  1.5737
  268MOL0     H36952  11.589   8.089   8.168 -3.6848  0.3451 -1.2355
  268MOL0     H36953  11.739   8.107   8.058  0.1036  1.1558  0.4301
  268MOL0     H36954  11.614   7.948   7.912 -1.9767  1.3884  0.8862
  268MOL0     H36955  11.529   7.900   8.061 -1.9196  2.1830  0.4417
  268MOL0     H36956  11.831   7.882   8.030 -0.7014  0.7529  2.3416
  268MOL0     H36957  11.739   7.823   8.151  0.9507  1.8568  1.3511
  268MOL0     H36958  11.821   7.675   7.952 -0.3275  0.3776  0.4861
  268MOL0     H36959  11.692   7.753   7.859 -0.1256  0.8562  0.3311
  268MOL0     H36960  11.524   7.663   8.016  0.2790  1.6136 -0.2558
  268MOL0     H36961  11.649   7.603   8.126 -1.3358  0.3402  1.3689
  268MOL0     H36962  11.615   7.493   7.842 -0.5900  1.4890  0.0844
  268MOL0     H36963  11.532   7.426   7.987 -0.7080  3.9892  2.2583
  268MOL0     H36964  11.219   8.432   7.821 -0.5592  2.6917 -0.6654
  268MOL0     H36965  11.051   8.570   7.937  0.6683 -2.3565 -1.5350
  268MOL0     H36966  10.960   8.928   8.125 -0.2312 -4.0826  0.0685
  268MOL0     H36967  10.773   9.090   8.189  0.1724  1.8556  0.0259
  268MOL0     H36968  10.003   7.889   7.920  1.4904 -0.2262  0.5357
  268MOL0     H36969  10.129   7.928   7.700  3.9927  1.3789 -0.0341
  268MOL0     H36970  10.273   8.490   7.381 -1.2577  0.5565 -0.3208
  268MOL0     H36971  10.412   8.504   7.201 -1.0495  0.0893  1.6015
  268MOL0     H36972  10.759   8.272   7.227 -2.4213 -1.8335  0.2808
  268MOL0     H36973  10.729   8.175   7.088  0.5774 -1.2314  3.3469
  268MOL0     H36974  10.830   8.455   7.104 -1.7735 -0.3055 -0.4049
  268MOL0     H36975  10.785   8.390   6.942  0.9631 -2.4267  0.2257
  268MOL0     H36976  11.061   8.367   7.047 -1.0520  0.4248  1.3153
  268MOL0     H36977  10.990   8.239   7.127 -0.2970  1.2309  1.8227
  268MOL0     H36978  10.918   8.149   6.893  1.1171  0.9169 -0.1174
  268MOL0     H36979  11.082   8.148   6.935 -1.2087 -0.8188  0.9203
  268MOL0     H36980  11.085   8.332   6.561  1.2694  0.0728  1.0700
  268MOL0     H36981  10.550   8.109   7.250 -1.2963 -0.0819 -1.7283
  268MOL0     H36982  10.407   8.027   7.547 -0.3274 -0.7993  1.2037
  268MOL0     H36983  10.271   8.001   7.426 -0.7311  1.5656 -2.8482
  268MOL0     H36984  10.443   7.963   7.395 -0.6945 -2.3247  1.6976
  269MOL0     O36985   8.823   3.318   9.365 -0.1548  0.7521  0.6879
  269MOL0     C36986   8.798   3.249   9.269  0.4709  0.7046  0.1920
  269MOL0     O36987   8.685   3.162   9.260  0.1381 -0.3104 -0.0271
  269MOL0     C36988   8.584   3.161   9.357  0.3094  1.0075  0.4403
  269MOL0     C36989   8.581   3.077   9.462 -1.5478  0.0668 -0.7738
  269MOL0     C36990   8.489   3.074   9.568 -0.1300 -0.9140 -0.7678
  269MOL0     C36991   8.382   3.162   9.552 -0.0186 -0.6459 -0.2562
  269MOL0     O36992   8.293   3.152   9.657 -0.3089 -0.4400  0.3300
  269MOL0     C36993   8.196   3.248   9.667  0.8195  0.5431  0.0029
  269MOL0     C36994   8.115   3.181   9.768 -0.1065  0.1112 -0.1935
  269MOL0     C36995   7.997   3.276   9.812 -0.3217  0.0049  0.2436
  269MOL0     C36996   7.873   3.197   9.866  0.3291  0.0557  0.4157
  269MOL0     C36997   7.775   3.179   9.747 -0.1603 -0.4454  0.0224
  269MOL0     C36998   7.662   3.274   9.739  0.1632 -0.7117  1.3112
  269MOL0     C36999   7.577   3.268   9.617 -0.2489  0.0876  0.1867
  269MOL0     C37000   7.505   3.133   9.596  0.5239  0.7012  0.0316
  269MOL0     N37001   7.434   3.097   9.717  0.7049  0.8998  0.5370
  269MOL0     C37002   7.295   3.100   9.715 -0.0749  0.1130 -0.0430
  269MOL0     C37003   7.256   3.007   9.803 -0.2638 -0.1711 -0.8232
  269MOL0     C37004   7.127   2.956   9.843  0.1322  0.2332  0.2939
  269MOL0     C37005   7.070   3.019   9.969  0.2506 -0.0810  0.9160
  269MOL0     C37006   7.114   2.946  10.101  0.6047 -0.1252  0.3525
  269MOL0     C37007   7.078   3.024  10.220  0.8178  0.5469  0.0648
  269MOL0     O37008   7.107   2.954  10.340 -0.1237  0.6227 -0.3501
  269MOL0     C37009   7.068   3.019  10.460  0.5889 -0.6717  0.0746
  269MOL0     C37010   7.072   2.959  10.586 -0.4480  0.2581 -0.1116
  269MOL0     C37011   7.060   3.021  10.704 -0.9433  0.4700 -0.5286
  269MOL0     C37012   7.122   2.966  10.828  0.4780  0.2200 -0.2539
  269MOL0     C37013   6.997   3.141  10.705  0.3678 -0.5595 -0.7635
  269MOL0     C37014   6.944   3.213  10.827  0.4174 -0.5102  0.3930
  269MOL0     O37015   7.012   3.324  10.879 -0.4916 -0.1595 -0.1292
  269MOL0     C37016   6.964   3.376  10.989 -0.3252 -0.3250  0.5376
  269MOL0     C37017   6.985   3.316  11.114 -0.0826 -0.0721  0.6195
  269MOL0     C37018   6.926   3.378  11.228 -0.5014 -0.2022 -0.1011
  269MOL0     C37019   6.854   3.502  11.220 -1.2234 -0.3738  0.1715
  269MOL0     O37020   6.800   3.553  11.336  0.2716 -0.7812  0.2414
  269MOL0     C37021   6.703   3.657  11.326 -0.7603  0.4583  0.3165
  269MOL0     C37022   6.653   3.684  11.464  0.5555  0.2318 -0.1496
  269MOL0     C37023   6.748   3.747  11.566  0.2627  0.6714  0.4083
  269MOL0     C37024   6.698   3.729  11.709  0.2989 -0.2289 -0.3175
  269MOL0     C37025   6.578   3.827  11.733  0.1569  0.0754 -0.3950
  269MOL0     C37026   6.515   3.817  11.863  0.8318 -0.6622 -0.3627
  269MOL0     C37027   6.403   3.926  11.896 -0.2339 -1.3690  0.1906
  269MOL0     C37028   6.465   4.023  12.000  0.1708 -0.2551  1.0122
  269MOL0    Cl37029   6.357   4.148  12.058  0.4662 -0.3306 -0.3603
  269MOL0     C37030   6.835   3.553  11.087 -0.3329  0.4387 -0.5621
  269MOL0     C37031   6.891   3.493  10.974  0.3671 -0.0220  0.2438
  269MOL0     O37032   6.852   3.155  10.883  0.2970  0.1402 -0.0803
  269MOL0     C37033   6.978   3.206  10.591  0.2306 -0.2608  0.7716
  269MOL0     C37034   7.017   3.148  10.468 -0.0712 -0.2294 -0.5812
  269MOL0     N37035   7.370   2.957   9.863  0.6409  0.2860  0.4137
  269MOL0     N37036   7.471   3.004   9.808  0.0164  0.5410  0.2877
  269MOL0     C37037   8.373   3.245   9.435 -0.3188 -0.0385  0.5654
  269MOL0     C37038   8.470   3.246   9.330 -0.3789 -0.5865 -0.4784
  269MOL0     C37039   8.894   3.252   9.161  0.1130  0.3973  0.0290
  269MOL0     C37040   8.890   3.148   9.064 -0.7476  0.4125 -0.7775
  269MOL0     C37041   8.976   3.135   8.949 -0.3120 -0.3124 -0.2578
  269MOL0     C37042   9.059   3.243   8.911  1.1206 -0.2066 -0.0484
  269MOL0     O37043   9.126   3.267   8.794  0.0659  0.3745  0.1667
  269MOL0     C37044   9.128   3.162   8.687 -0.7641 -0.0416  0.3755
  269MOL0     C37045   9.008   3.157   8.600  0.9971 -0.7513  0.4260
  269MOL0     C37046   9.032   3.062   8.488  0.1931  0.8905  0.2981
  269MOL0     C37047   8.933   3.079   8.375 -0.7937 -0.2463 -0.1163
  269MOL0     C37048   8.976   2.998   8.264 -0.3335  0.2235  0.2988
  269MOL0     C37049   8.980   2.948   8.154  0.4287  0.3122 -0.2133
  269MOL0     C37050   9.072   3.338   9.010  0.6417  1.0029 -0.0505
  269MOL0     C37051   9.002   3.342   9.131  1.1315  0.7845  0.2931
  269MOL0     C37052   9.017   3.471   9.215 -0.8653  0.4947 -0.6844
  269MOL0     H37053   8.668   3.012   9.465 -2.6770 -1.4895  0.3412
  269MOL0     H37054   8.486   3.004   9.651 -2.1765 -3.6413 -2.9380
  269MOL0     H37055   8.138   3.261   9.575  0.7299  0.9502  0.1155
  269MOL0     H37056   8.234   3.344   9.704 -1.2560  0.5563  2.3134
  269MOL0     H37057   8.065   3.090   9.734 -2.1157 -0.0215  2.7283
  269MOL0     H37058   8.170   3.152   9.857 -2.6786 -1.2947  1.0592
  269MOL0     H37059   8.023   3.349   9.889 -0.7358  1.9501 -1.3827
  269MOL0     H37060   7.961   3.340   9.732 -1.3302 -1.0962 -0.2075
  269MOL0     H37061   7.907   3.098   9.898 -3.5011 -1.7279 -0.4067
  269MOL0     H37062   7.821   3.254   9.944  0.0642  3.0946 -1.7993
  269MOL0     H37063   7.725   3.082   9.760 -1.7981  0.6311  2.5287
  269MOL0     H37064   7.835   3.188   9.656 -0.2369  2.9875  0.1819
  269MOL0     H37065   7.588   3.261   9.819 -1.8550 -1.1119 -0.5345
  269MOL0     H37066   7.707   3.373   9.744  0.3154 -0.6967  0.0584
  269MOL0     H37067   7.646   3.284   9.533  1.3138  0.4931  1.4831
  269MOL0     H37068   7.503   3.348   9.631  1.9014  1.7822  2.9216
  269MOL0     H37069   7.420   3.135   9.528 -3.1271 -1.6632  4.0598
  269MOL0     H37070   7.578   3.060   9.560  0.8797  1.6346 -1.2184
  269MOL0     H37071   7.227   3.165   9.661  1.0368  0.9617 -0.4517
  269MOL0     H37072   7.138   2.848   9.858 -0.8167 -0.0890 -1.1242
  269MOL0     H37073   7.058   2.983   9.763  3.3752  2.3177 -2.0833
  269MOL0     H37074   7.103   3.123   9.972  0.2275  0.0451 -1.5228
  269MOL0     H37075   6.961   3.003   9.971  0.4510 -1.5514  1.9495
  269MOL0     H37076   7.065   2.848  10.103  0.7118 -0.1981 -0.2788
  269MOL0     H37077   7.221   2.922  10.103  0.8191  0.8631  1.1106
  269MOL0     H37078   7.124   3.123  10.216 -0.0267  0.9677  0.4051
  269MOL0     H37079   6.972   3.050  10.224  1.1776  2.2258 -0.7181
  269MOL0     H37080   7.114   2.859  10.585  0.3898  0.5995  0.1424
  269MOL0     H37081   7.051   3.004  10.902 -0.0356  1.1000 -1.1891
  269MOL0     H37082   7.226   2.992  10.849 -0.3797  3.4451  0.5300
  269MOL0     H37083   7.114   2.857  10.839 -0.7240  0.3300  0.1410
  269MOL0     H37084   7.038   3.222  11.103 -0.1937 -0.0136 -0.6722
  269MOL0     H37085   6.947   3.327  11.322 -2.1542 -2.3634 -0.8118
  269MOL0     H37086   6.751   3.747  11.289  1.3561 -0.9016 -0.4104
  269MOL0     H37087   6.619   3.647  11.256  0.4894  2.3689 -1.5380
  269MOL0     H37088   6.573   3.754  11.440  0.6557  0.3186 -0.2310
  269MOL0     H37089   6.605   3.601  11.517  0.7476  0.9971  1.2635
  269MOL0     H37090   6.759   3.852  11.540  1.0761  0.9283  1.6855
  269MOL0     H37091   6.845   3.697  11.559  0.5921  1.4665 -1.0595
  269MOL0     H37092   6.777   3.759  11.778 -0.4051  1.3970 -0.1786
  269MOL0     H37093   6.661   3.629  11.735 -1.6964  0.9748  1.8776
  269MOL0     H37094   6.614   3.930  11.731 -1.3068  0.6185  0.2195
  269MOL0     H37095   6.507   3.815  11.651  0.1147  0.3220 -0.3936
  269MOL0     H37096   6.594   3.817  11.939  0.0062  1.0197  0.5780
  269MOL0     H37097   6.472   3.717  11.869 -2.6737  0.4027 -3.8260
  269MOL0     H37098   6.313   3.877  11.934 -2.8286  1.2146 -2.0940
  269MOL0     H37099   6.373   3.991  11.813  0.9019 -0.4625  0.4625
  269MOL0     H37100   6.549   4.072  11.950  0.6182 -0.3876  1.6305
  269MOL0     H37101   6.497   3.963  12.085  0.2861 -1.3542  0.2045
  269MOL0     H37102   6.768   3.638  11.093  1.9071  2.2110  4.1473
  269MOL0     H37103   6.861   3.521  10.873 -1.8677 -3.8720 -0.3571
  269MOL0     H37104   6.950   3.311  10.589 -3.9320 -1.1695 -2.1462
  269MOL0     H37105   6.999   3.202  10.376  0.3016 -1.8351 -1.6274
  269MOL0     H37106   8.289   3.313   9.427 -0.7453 -0.4753  1.2003
  269MOL0     H37107   8.464   3.306   9.240  0.8789 -1.1981 -0.9842
  269MOL0     H37108   8.811   3.074   9.070 -0.2362 -0.1425 -0.8665
  269MOL0     H37109   8.979   3.048   8.884 -1.2006 -0.2782 -0.3591
  269MOL0     H37110   9.202   3.205   8.618 -0.8946  0.6091  0.6405
  269MOL0     H37111   9.161   3.066   8.727  4.1710  1.6456  1.1388
  269MOL0     H37112   8.969   3.252   8.562  2.2228 -1.2701 -2.3669
  269MOL0     H37113   8.931   3.114   8.665 -0.7750  0.6392 -0.6684
  269MOL0     H37114   9.136   3.071   8.456 -0.1976  2.1134 -0.7317
  269MOL0     H37115   9.003   2.963   8.523 -3.6064  1.6674 -0.2770
  269MOL0     H37116   8.919   3.187   8.361  1.0152 -0.1830 -1.8164
  269MOL0     H37117   8.836   3.044   8.412 -0.0889  0.8127  3.0936
  269MOL0     H37118   8.968   2.909   8.055 -1.5020 -0.2898  0.2183
  269MOL0     H37119   9.149   3.406   8.975  2.2719 -1.1654 -0.9360
  269MOL0     H37120   8.918   3.513   9.239 -0.4715  2.0579 -1.6700
  269MOL0     H37121   9.071   3.457   9.309 -0.2514  0.4045 -1.0455
  269MOL0     H37122   9.068   3.553   9.164 -0.5046  1.7502  1.5808
  270MOL0     O37123   8.833   9.127   1.010  0.2122 -0.1351  0.9370
  270MOL0     C37124   8.950   9.146   0.976 -0.9720  0.9949 -0.1832
  270MOL0     O37125   8.992   9.147   0.845  0.4098 -0.6952 -1.2295
  270MOL0     C37126   8.899   9.100   0.762 -0.1923  0.6495  1.3172
  270MOL0     C37127   8.827   9.185   0.683  0.4577 -0.7343  0.1768
  270MOL0     C37128   8.743   9.119   0.591  0.6861  0.0865  0.3781
  270MOL0     C37129   8.728   8.985   0.580  0.5187 -0.2947  1.0509
  270MOL0     O37130   8.622   8.944   0.495  0.4060 -0.4587  0.2903
  270MOL0     C37131   8.629   8.817   0.434 -0.2563  0.8106  0.7036
  270MOL0     C37132   8.488   8.765   0.404 -0.3093  0.0254 -0.4488
  270MOL0     C37133   8.399   8.858   0.319  0.6972 -0.1139  0.2597
  270MOL0     C37134   8.404   8.829   0.165  0.2550 -1.0459 -0.2200
  270MOL0     C37135   8.359   8.950   0.072  0.8473 -0.5892 -0.7178
  270MOL0     C37136   8.448   9.079   0.088 -0.0447  0.6027  0.8255
  270MOL0     C37137   8.395   9.177  -0.014 -0.8840 -0.6750  0.8363
  270MOL0     C37138   8.514   9.257  -0.077  0.0173  0.7501  0.0599
  270MOL0     N37139   8.605   9.172  -0.163 -0.2720 -0.4934 -0.4079
  270MOL0     C37140   8.719   9.217  -0.219  0.0864  0.3527  0.0918
  270MOL0     C37141   8.756   9.131  -0.315  0.0323 -0.1348 -0.5255
  270MOL0     C37142   8.879   9.136  -0.405 -0.4927 -0.2447  0.5441
  270MOL0     C37143   8.850   9.202  -0.536  0.3601  0.3169  0.1334
  270MOL0     C37144   8.812   9.096  -0.643  1.0190 -0.0053  0.9175
  270MOL0     C37145   8.744   9.173  -0.759  0.6523  0.5661  0.7762
  270MOL0     O37146   8.599   9.164  -0.754  0.3179 -0.9303 -0.4519
  270MOL0     C37147   8.531   9.264  -0.685 -0.6072  0.3433 -0.1351
  270MOL0     C37148   8.490   9.376  -0.748  0.4240 -0.1614  0.2390
  270MOL0     C37149   8.431   9.479  -0.670 -1.2945 -0.0992  0.6624
  270MOL0     C37150   8.395   9.595  -0.764 -0.7414  0.2256 -1.7012
  270MOL0     C37151   8.409   9.464  -0.525 -0.4750 -0.1751  0.1653
  270MOL0     C37152   8.347   9.568  -0.435 -0.5232  0.4020 -0.6498
  270MOL0     O37153   8.301   9.685  -0.495 -0.3309 -0.0371  0.4898
  270MOL0     C37154   8.253   9.778  -0.406  0.1856  0.0426  0.1713
  270MOL0     C37155   8.333   9.856  -0.317  0.4441  0.8512 -0.3568
  270MOL0     C37156   8.274   9.958  -0.252  1.2211 -0.0125  0.6428
  270MOL0     C37157   8.128   9.974  -0.249 -0.8811 -0.1471  0.0759
  270MOL0     O37158   8.084  10.073  -0.163  0.5646 -0.3151  0.0211
  270MOL0     C37159   7.951  10.060  -0.114 -0.1731  0.1258 -0.0194
  270MOL0     C37160   7.911  10.164  -0.003  0.4510  0.4546  1.0799
  270MOL0     C37161   7.922  10.305  -0.064  1.1713 -0.4958 -0.2437
  270MOL0     C37162   7.873  10.416   0.037  0.4323  0.4006  0.1340
  270MOL0     C37163   7.892  10.560  -0.006  0.3662 -0.0567  0.3630
  270MOL0     C37164   7.816  10.657   0.088 -0.0256  0.2254 -0.3511
  270MOL0     C37165   7.815  10.814   0.052  0.4126  0.0385  0.2975
  270MOL0     C37166   7.721  10.891   0.140 -0.7962  0.7753  1.2013
  270MOL0    Cl37167   7.552  10.874   0.095  0.1334 -0.1263 -0.2718
  270MOL0     C37168   8.054   9.896  -0.332  0.6510 -0.0434  0.3144
  270MOL0     C37169   8.112   9.802  -0.412 -0.5340 -0.9034  0.3336
  270MOL0     O37170   8.340   9.540  -0.317 -0.6466 -0.0745 -0.4434
  270MOL0     C37171   8.458   9.337  -0.471  0.1345  0.5402 -0.1203
  270MOL0     C37172   8.513   9.240  -0.553  0.0221 -0.4157 -0.4976
  270MOL0     N37173   8.659   9.027  -0.323  0.4493  0.1610  0.2691
  270MOL0     N37174   8.576   9.056  -0.230 -0.2117  1.0849  0.3595
  270MOL0     C37175   8.807   8.902   0.652  0.3949 -0.2648  0.5673
  270MOL0     C37176   8.897   8.963   0.739  1.0029  0.7234  0.2120
  270MOL0     C37177   9.067   9.171   1.069 -1.0555 -0.1691  0.2955
  270MOL0     C37178   9.199   9.198   1.013  0.2557 -0.9073  0.4502
  270MOL0     C37179   9.294   9.243   1.100 -0.3935  0.3180 -0.4022
  270MOL0     C37180   9.285   9.217   1.233  0.2899  0.0377 -0.1665
  270MOL0     O37181   9.381   9.254   1.321 -0.1303  0.0141 -0.4857
  270MOL0     C37182   9.460   9.158   1.398 -0.6303  0.4509  0.4949
  270MOL0     C37183   9.383   9.144   1.528  0.7325  0.1173 -0.7989
  270MOL0     C37184   9.467   9.119   1.651  0.3323 -0.2282 -0.8227
  270MOL0     C37185   9.541   8.985   1.648 -0.4118  0.1350  0.4693
  270MOL0     C37186   9.674   8.997   1.700  0.1990 -0.9757  0.2539
  270MOL0     C37187   9.789   9.013   1.747  0.9963 -0.1191  0.5045
  270MOL0     C37188   9.165   9.167   1.285 -0.3614 -0.0942  0.7632
  270MOL0     C37189   9.063   9.143   1.204  0.5211  0.0788 -0.3998
  270MOL0     C37190   8.940   9.082   1.272 -0.6598 -0.7470 -0.0194
  270MOL0     H37191   8.834   9.291   0.705  1.1781 -0.3688 -1.6831
  270MOL0     H37192   8.676   9.178   0.529 -1.5390 -1.5783  1.0606
  270MOL0     H37193   8.684   8.742   0.493 -1.5972 -1.6131 -0.9473
  270MOL0     H37194   8.678   8.841   0.339 -1.3786 -2.2410 -0.7733
  270MOL0     H37195   8.495   8.661   0.372  0.0042  0.0713 -0.5372
  270MOL0     H37196   8.435   8.767   0.499 -0.6992 -1.4422 -0.6127
  270MOL0     H37197   8.293   8.841   0.339  0.8141 -0.0571  0.9649
  270MOL0     H37198   8.421   8.960   0.352 -0.0206 -0.3024  1.3887
  270MOL0     H37199   8.511   8.820   0.149  0.6592  4.2423 -2.8645
  270MOL0     H37200   8.352   8.736   0.139 -2.1287 -0.9424  3.4824
  270MOL0     H37201   8.256   8.986   0.083  1.2085  1.4147 -3.1234
  270MOL0     H37202   8.357   8.916  -0.032 -0.1587  3.4802 -2.1981
  270MOL0     H37203   8.457   9.116   0.190 -1.1320  0.3125  1.0416
  270MOL0     H37204   8.548   9.046   0.059 -0.1197  0.3051  0.9070
  270MOL0     H37205   8.322   9.247   0.028  1.8636  1.1093  2.9195
  270MOL0     H37206   8.361   9.128  -0.106  1.0988 -0.6249  0.0270
  270MOL0     H37207   8.469   9.334  -0.140 -1.3527  1.6836  2.0390
  270MOL0     H37208   8.570   9.317  -0.004 -0.6803  1.3167  0.1448
  270MOL0     H37209   8.772   9.307  -0.192 -1.6953  1.2995  0.6031
  270MOL0     H37210   8.906   9.032  -0.423  0.5374  0.1658 -0.4299
  270MOL0     H37211   8.970   9.183  -0.366  0.5977 -3.3517  2.0044
  270MOL0     H37212   8.769   9.275  -0.529 -0.0649 -0.0905 -0.4552
  270MOL0     H37213   8.938   9.258  -0.567  0.3911 -0.1132 -0.5843
  270MOL0     H37214   8.905   9.048  -0.677  0.0473 -1.3187 -0.0198
  270MOL0     H37215   8.739   9.025  -0.604  0.9498 -0.0187  0.7653
  270MOL0     H37216   8.787   9.272  -0.774  1.7318 -0.1894 -1.7221
  270MOL0     H37217   8.769   9.131  -0.857 -0.9277  1.7546 -0.1860
  270MOL0     H37218   8.518   9.380  -0.853 -1.3762 -3.0013 -0.4718
  270MOL0     H37219   8.287   9.605  -0.779 -1.1753  2.1031  1.6869
  270MOL0     H37220   8.461   9.590  -0.851  1.3386 -1.7255 -0.1183
  270MOL0     H37221   8.425   9.680  -0.703  0.8029 -1.3349 -0.1706
  270MOL0     H37222   8.434   9.817  -0.305  0.7680  2.0936  1.3088
  270MOL0     H37223   8.329  10.026  -0.187 -3.0502  3.6292  0.9075
  270MOL0     H37224   7.868  10.075  -0.184 -3.1183  0.5232  3.3199
  270MOL0     H37225   7.935   9.963  -0.068  0.5278 -0.7278 -1.4846
  270MOL0     H37226   7.810  10.132   0.027  0.7231 -1.7290 -0.1710
  270MOL0     H37227   7.971  10.158   0.088 -0.9532 -0.4595  1.9952
  270MOL0     H37228   7.866  10.310  -0.158 -1.2056  1.6015  1.1597
  270MOL0     H37229   8.028  10.326  -0.080  0.6679  3.9951  0.9223
  270MOL0     H37230   7.930  10.405   0.130  1.3526  3.8747  0.0941
  270MOL0     H37231   7.768  10.393   0.056  0.5827 -0.5933 -0.1361
  270MOL0     H37232   8.000  10.579  -0.005  0.2784  0.6362 -0.9054
  270MOL0     H37233   7.854  10.582  -0.106 -0.0570  2.4622  1.0056
  270MOL0     H37234   7.855  10.650   0.190  3.0475 -0.2694 -1.4521
  270MOL0     H37235   7.712  10.623   0.096 -0.1733  0.9151  0.8890
  270MOL0     H37236   7.772  10.834  -0.046 -1.8626  0.9302  1.4055
  270MOL0     H37237   7.916  10.851   0.073 -0.4409  2.7438  0.0364
  270MOL0     H37238   7.755  10.994   0.136  1.8577 -0.0354 -2.6132
  270MOL0     H37239   7.729  10.867   0.247 -1.1486  0.1634  1.1024
  270MOL0     H37240   7.949   9.919  -0.340  0.3374 -0.7499  2.0303
  270MOL0     H37241   8.047   9.736  -0.469 -1.7778 -0.7577  1.5374
  270MOL0     H37242   8.455   9.316  -0.364 -0.9290  0.7832 -0.1000
  270MOL0     H37243   8.558   9.151  -0.510  0.9987  0.3073  0.0378
  270MOL0     H37244   8.810   8.794   0.643 -0.3725 -0.2884  0.5272
  270MOL0     H37245   8.969   8.906   0.798  2.1120 -0.7842 -2.4027
  270MOL0     H37246   9.207   9.207   0.905 -0.2102 -1.5446  0.3567
  270MOL0     H37247   9.385   9.280   1.052 -0.2691 -0.6559 -0.9557
  270MOL0     H37248   9.466   9.064   1.343  1.3742  1.2408 -0.7740
  270MOL0     H37249   9.563   9.180   1.428  0.5857 -1.8902 -1.6145
  270MOL0     H37250   9.311   9.063   1.528 -0.3310  0.9991 -2.4785
  270MOL0     H37251   9.336   9.241   1.546  3.1783  1.0059  1.4682
  270MOL0     H37252   9.531   9.205   1.673  0.8424 -0.3661 -1.7294
  270MOL0     H37253   9.400   9.116   1.737  1.5514 -2.0863  0.1165
  270MOL0     H37254   9.546   8.946   1.546 -1.4044 -0.6949  0.7208
  270MOL0     H37255   9.488   8.903   1.697 -2.2948  0.2716 -1.2055
  270MOL0     H37256   9.885   9.042   1.786  1.5604 -1.4054  0.1263
  270MOL0     H37257   9.138   9.156   1.389  0.3678  3.3646  1.4394
  270MOL0     H37258   8.855   9.151   1.275  1.5538  2.2767 -1.3722
  270MOL0     H37259   8.901   8.994   1.219  1.8285 -0.5012 -2.4470
  270MOL0     H37260   8.955   9.042   1.373 -4.4965  2.4437  2.1424
  271MOL0     O37261   0.999   1.804   0.151 -1.4556  0.2232  0.4804
  271MOL0     C37262   0.977   1.924   0.133  0.1141 -0.2008  0.4945
  271MOL0     O37263   1.010   2.002   0.023  0.8795  0.7535  0.8519
  271MOL0     C37264   1.077   1.927  -0.067 -0.4351  1.0746 -0.3852
  271MOL0     C37265   1.009   1.851  -0.168  0.2510 -0.3050  0.1800
  271MOL0     C37266   1.069   1.800  -0.275 -0.1912 -0.3475  0.7728
  271MOL0     C37267   1.206   1.814  -0.284 -0.0838  1.0038  0.6380
  271MOL0     O37268   1.275   1.748  -0.379 -0.0893 -0.4836 -0.5279
  271MOL0     C37269   1.213   1.696  -0.499 -0.9835  0.8602  2.2694
  271MOL0     C37270   1.320   1.605  -0.573  0.4487 -0.0329  1.0986
  271MOL0     C37271   1.332   1.465  -0.515  1.1646 -0.5694  0.5774
  271MOL0     C37272   1.407   1.467  -0.379  0.2751 -0.3059 -0.0382
  271MOL0     C37273   1.440   1.326  -0.335 -0.1969 -0.0344  0.4400
  271MOL0     C37274   1.517   1.339  -0.193 -0.0291  0.1867 -0.5031
  271MOL0     C37275   1.564   1.193  -0.162 -0.6712  0.8122  0.5728
  271MOL0     C37276   1.583   1.181  -0.010 -1.1319 -0.4623  0.3398
  271MOL0     N37277   1.670   1.072   0.027 -0.1064 -0.3867 -0.4847
  271MOL0     C37278   1.805   1.085   0.056  0.0252  0.9319  0.5471
  271MOL0     C37279   1.855   0.961   0.070  0.5871  0.3130  0.0274
  271MOL0     C37280   1.987   0.911   0.072  0.1343  0.5328 -0.5667
  271MOL0     C37281   2.052   0.870  -0.058  0.2821 -0.2425 -0.1723
  271MOL0     C37282   2.016   0.737  -0.112  0.0203 -0.1660 -0.1922
  271MOL0     C37283   2.094   0.716  -0.236  1.0379  0.0014 -0.3793
  271MOL0     O37284   2.233   0.706  -0.202 -0.1985  0.2389  0.9124
  271MOL0     C37285   2.296   0.582  -0.201 -0.1696 -0.5692  0.7983
  271MOL0     C37286   2.228   0.469  -0.190  0.0923 -0.4349  0.3574
  271MOL0     C37287   2.289   0.337  -0.211 -0.9335 -1.3098 -0.1444
  271MOL0     C37288   2.203   0.229  -0.169  1.2121  0.2082  0.5492
  271MOL0     C37289   2.430   0.331  -0.243  0.5679 -0.0363 -0.5626
  271MOL0     C37290   2.508   0.203  -0.269  1.0402 -0.7731 -0.1014
  271MOL0     O37291   2.639   0.227  -0.309  1.0071 -0.0132  0.4814
  271MOL0     C37292   2.696   0.118  -0.383  0.5408 -0.0337  0.8574
  271MOL0     C37293   2.692   0.124  -0.523  0.5396 -0.5681 -0.4499
  271MOL0     C37294   2.743   0.026  -0.600 -0.3895 -0.4486 -0.9441
  271MOL0     C37295   2.810  -0.080  -0.527 -1.0002 -0.5425  0.4496
  271MOL0     O37296   2.872  -0.183  -0.604 -0.6397 -0.5637 -0.0454
  271MOL0     C37297   2.791  -0.268  -0.681 -0.0751 -0.2898 -0.7300
  271MOL0     C37298   2.844  -0.408  -0.667 -1.0680 -0.0303 -0.0425
  271MOL0     C37299   2.991  -0.409  -0.728  0.1013 -0.4509  0.0055
  271MOL0     C37300   2.990  -0.461  -0.868 -0.8512 -0.3478 -0.4290
  271MOL0     C37301   3.126  -0.448  -0.927 -1.0177 -0.4905  0.3630
  271MOL0     C37302   3.129  -0.515  -1.069 -0.1068  0.7036  0.2243
  271MOL0     C37303   3.236  -0.466  -1.168  0.9290  0.1181  0.6344
  271MOL0     C37304   3.200  -0.511  -1.309 -0.3900 -0.1211 -0.5761
  271MOL0    Cl37305   3.311  -0.437  -1.423 -0.4177  0.0253  0.1745
  271MOL0     C37306   2.819  -0.084  -0.389  0.0317  0.0905  0.8050
  271MOL0     C37307   2.781   0.033  -0.327  0.4247  1.5535 -0.7677
  271MOL0     O37308   2.452   0.102  -0.244 -0.1484  1.1509 -0.3105
  271MOL0     C37309   2.499   0.457  -0.242  1.3780 -0.4359 -0.7878
  271MOL0     C37310   2.431   0.575  -0.226  0.0732 -0.8164 -0.2576
  271MOL0     N37311   1.751   0.874   0.054 -0.0484 -0.8692 -0.1012
  271MOL0     N37312   1.644   0.941   0.025  0.0031  1.7146  0.0078
  271MOL0     C37313   1.284   1.851  -0.176  0.1173  0.1987 -1.1292
  271MOL0     C37314   1.221   1.925  -0.066 -0.5648  0.1004  0.2424
  271MOL0     C37315   0.882   1.992   0.230 -0.7842 -0.2883 -0.2833
  271MOL0     C37316   0.888   1.936   0.358  0.3931 -0.7369 -0.4605
  271MOL0     C37317   0.813   1.987   0.460 -0.3620  0.7518  0.3592
  271MOL0     C37318   0.721   2.090   0.443  0.1413 -0.1678  1.3005
  271MOL0     O37319   0.656   2.160   0.542 -0.3754 -0.1720  0.2239
  271MOL0     C37320   0.661   2.110   0.684 -0.4967 -0.3535  0.3466
  271MOL0     C37321   0.577   1.977   0.699 -0.4718 -0.4485  0.2879
  271MOL0     C37322   0.442   2.022   0.753  0.0182  0.7079 -0.2786
  271MOL0     C37323   0.332   1.920   0.763 -0.3444  1.1539  0.0126
  271MOL0     C37324   0.289   1.850   0.641 -0.2996  0.3880  0.3589
  271MOL0     C37325   0.258   1.787   0.545 -0.2112 -0.4342 -1.0011
  271MOL0     C37326   0.711   2.140   0.313  0.0007  0.4073  0.7578
  271MOL0     C37327   0.792   2.098   0.208 -0.5336  0.2299 -0.6932
  271MOL0     C37328   0.775   2.177   0.078 -0.7478  0.1847  1.0007
  271MOL0     H37329   0.901   1.843  -0.172 -0.2031  3.5980  0.2626
  271MOL0     H37330   1.015   1.752  -0.355  2.5941 -2.4382 -0.0440
  271MOL0     H37331   1.181   1.778  -0.562 -0.3813 -0.0910  0.6736
  271MOL0     H37332   1.129   1.627  -0.487  0.9355 -3.2531 -3.4040
  271MOL0     H37333   1.279   1.586  -0.672  4.3579 -0.8633 -0.5643
  271MOL0     H37334   1.415   1.656  -0.593  0.8957 -0.8549  1.0726
  271MOL0     H37335   1.235   1.432  -0.477  0.9941  2.1305  2.7383
  271MOL0     H37336   1.359   1.390  -0.591  2.2713  1.5033 -1.1799
  271MOL0     H37337   1.505   1.512  -0.398 -0.0815  1.0004  1.0625
  271MOL0     H37338   1.360   1.524  -0.298 -0.2336 -0.7273 -0.0262
  271MOL0     H37339   1.507   1.272  -0.403 -0.5017 -2.2579  1.8000
  271MOL0     H37340   1.345   1.271  -0.330  0.4000 -1.0644  0.7036
  271MOL0     H37341   1.604   1.405  -0.197  0.5314 -0.4546  0.5470
  271MOL0     H37342   1.452   1.381  -0.116  1.9008 -2.5869  2.9546
  271MOL0     H37343   1.657   1.173  -0.217 -1.4307 -1.1884 -0.0917
  271MOL0     H37344   1.488   1.122  -0.197 -0.4511 -0.1391  1.9301
  271MOL0     H37345   1.634   1.265   0.039  0.2738 -1.2947  0.3636
  271MOL0     H37346   1.485   1.174   0.038 -1.3743  0.8118  0.0692
  271MOL0     H37347   1.862   1.177   0.052 -2.0989  2.2513 -1.4143
  271MOL0     H37348   1.980   0.830   0.145 -1.9375 -0.8446 -2.2105
  271MOL0     H37349   2.048   0.988   0.121 -1.7172  0.3785  2.2580
  271MOL0     H37350   2.025   0.950  -0.127  1.9806  1.1800  0.7411
  271MOL0     H37351   2.160   0.882  -0.049  1.2138 -3.6935 -3.9219
  271MOL0     H37352   2.040   0.664  -0.034 -1.9533  0.8136  1.4361
  271MOL0     H37353   1.911   0.732  -0.143  0.4709  1.0709 -2.0941
  271MOL0     H37354   2.057   0.628  -0.288 -0.6916  0.9006 -0.7679
  271MOL0     H37355   2.087   0.805  -0.300  1.0087  0.5980  0.4331
  271MOL0     H37356   2.122   0.471  -0.164  0.3202  0.4113  1.2723
  271MOL0     H37357   2.128   0.265  -0.098  2.4545 -0.4697  2.2651
  271MOL0     H37358   2.264   0.151  -0.123  2.4443  0.6723 -0.2389
  271MOL0     H37359   2.152   0.172  -0.248  2.2268 -1.0733  0.7883
  271MOL0     H37360   2.650   0.212  -0.571 -0.1960 -0.5171  0.2754
  271MOL0     H37361   2.733   0.022  -0.708 -0.7289 -0.2098 -0.9205
  271MOL0     H37362   2.684  -0.267  -0.659 -0.9872 -0.6330 -4.5469
  271MOL0     H37363   2.780  -0.237  -0.785 -2.1330  0.6596 -0.2656
  271MOL0     H37364   2.826  -0.453  -0.568  0.0281 -1.9441 -0.6666
  271MOL0     H37365   2.779  -0.470  -0.729 -1.5485  0.8642 -0.4523
  271MOL0     H37366   3.064  -0.465  -0.668  2.2203 -2.0439 -3.6773
  271MOL0     H37367   3.038  -0.312  -0.744 -0.8881 -0.1043 -0.9354
  271MOL0     H37368   2.926  -0.394  -0.928 -1.0937 -0.6685 -0.5318
  271MOL0     H37369   2.948  -0.562  -0.867  0.9468 -1.1325  1.5352
  271MOL0     H37370   3.157  -0.343  -0.936 -0.6157 -0.6766 -0.5136
  271MOL0     H37371   3.204  -0.504  -0.874  0.9670  0.8657 -0.9884
  271MOL0     H37372   3.032  -0.491  -1.114  0.7792  3.0370 -0.5970
  271MOL0     H37373   3.126  -0.624  -1.060 -3.1913  0.5101 -1.6170
  271MOL0     H37374   3.338  -0.488  -1.137 -0.5311 -2.9488  3.9463
  271MOL0     H37375   3.213  -0.359  -1.160 -1.5090 -0.0142 -2.7250
  271MOL0     H37376   3.101  -0.473  -1.336 -0.0299 -0.9634 -3.4486
  271MOL0     H37377   3.209  -0.619  -1.326  3.3544  0.0271 -0.4096
  271MOL0     H37378   2.894  -0.155  -0.354  0.3050 -0.8801 -1.5529
  271MOL0     H37379   2.818   0.043  -0.226 -1.8481  0.6384  0.2165
  271MOL0     H37380   2.605   0.460  -0.265  1.3327 -0.3763 -0.9979
  271MOL0     H37381   2.495   0.662  -0.226  1.2267 -1.5712  2.3204
  271MOL0     H37382   1.392   1.845  -0.185  0.2738  0.2972  0.4237
  271MOL0     H37383   1.284   1.972   0.009  0.4507 -2.9546  1.4208
  271MOL0     H37384   0.966   1.862   0.375  2.1228  0.6997 -1.7766
  271MOL0     H37385   0.827   1.957   0.564 -2.7554 -1.6965  0.0704
  271MOL0     H37386   0.763   2.088   0.718 -1.2021 -1.1158  2.0623
  271MOL0     H37387   0.617   2.189   0.745 -1.3624 -0.6739  0.1521
  271MOL0     H37388   0.617   1.912   0.777  0.4794 -1.2805 -0.8688
  271MOL0     H37389   0.565   1.918   0.608 -1.3402  0.1978 -0.0254
  271MOL0     H37390   0.452   2.060   0.855 -1.8908 -2.0542  1.0489
  271MOL0     H37391   0.402   2.104   0.693  0.9074  2.6157  1.5928
  271MOL0     H37392   0.236   1.965   0.785 -1.0255 -0.0881 -0.3042
  271MOL0     H37393   0.351   1.850   0.845 -0.2367  0.1405 -0.8436
  271MOL0     H37394   0.209   1.723   0.474  1.1416 -1.3298 -1.1641
  271MOL0     H37395   0.659   2.232   0.291  1.0086  0.4992 -1.4243
  271MOL0     H37396   0.803   2.113  -0.006  2.7529 -0.2407  2.3316
  271MOL0     H37397   0.674   2.218   0.062 -1.5295 -1.5445  1.2767
  271MOL0     H37398   0.848   2.258   0.078 -1.0380  0.6155 -2.4637
  272MOL0     O37399   3.696   8.213   2.216 -0.0493  0.0822  0.2448
  272MOL0     C37400   3.687   8.316   2.283 -0.4776  0.5548  0.2020
  272MOL0     O37401   3.774   8.361   2.372 -0.4321 -0.1963  0.0489
  272MOL0     C37402   3.886   8.294   2.406 -0.5450 -0.1798 -0.4940
  272MOL0     C37403   3.912   8.157   2.413  1.1319 -0.9916  0.1063
  272MOL0     C37404   4.020   8.111   2.484 -0.2776  0.4110 -1.4262
  272MOL0     C37405   4.112   8.195   2.549  0.1125 -0.4491 -0.2778
  272MOL0     O37406   4.194   8.137   2.638 -0.6516  0.6931 -0.1056
  272MOL0     C37407   4.254   8.219   2.739  0.0008 -0.2889 -0.2476
  272MOL0     C37408   4.342   8.137   2.829 -0.0234 -0.0553  0.3500
  272MOL0     C37409   4.281   8.016   2.895  0.1483 -0.1328 -0.8567
  272MOL0     C37410   4.388   7.942   2.986 -0.1878 -1.3133  0.7888
  272MOL0     C37411   4.492   7.854   2.912  1.0749 -0.3133 -0.1143
  272MOL0     C37412   4.623   7.842   2.981 -0.9868 -0.5811  0.2209
  272MOL0     C37413   4.730   7.776   2.895  0.3315  0.4427  0.2527
  272MOL0     C37414   4.880   7.796   2.930 -0.3337 -0.1372 -0.3426
  272MOL0     N37415   4.981   7.718   2.846 -0.8798 -0.8112 -0.4025
  272MOL0     C37416   4.957   7.592   2.800  0.5071  0.3879  0.2678
  272MOL0     C37417   5.056   7.562   2.712 -0.5101 -0.1945 -0.7776
  272MOL0     C37418   5.099   7.432   2.651 -0.1133  0.1321  0.7965
  272MOL0     C37419   5.074   7.428   2.492 -0.2344 -0.3314  0.2515
  272MOL0     C37420   5.122   7.295   2.425  0.0026  0.6220  0.5443
  272MOL0     C37421   5.134   7.308   2.273  0.2019  0.8289 -0.4516
  272MOL0     O37422   5.005   7.270   2.213  0.3888  0.3044  0.3657
  272MOL0     C37423   4.999   7.263   2.076 -0.6563 -0.3949  0.7216
  272MOL0     C37424   5.100   7.270   1.985  0.0098 -0.1508 -0.0097
  272MOL0     C37425   5.070   7.264   1.846 -0.5968  0.4443  0.7402
  272MOL0     C37426   5.196   7.263   1.754  0.5029  0.0298  0.9068
  272MOL0     C37427   4.937   7.242   1.806 -0.7616 -0.0421  0.0809
  272MOL0     C37428   4.918   7.199   1.664  0.0451  0.4080  0.3446
  272MOL0     O37429   5.015   7.119   1.599  0.2460  0.1228  0.1478
  272MOL0     C37430   5.016   7.091   1.470 -0.3562 -0.1534  0.1981
  272MOL0     C37431   5.139   7.082   1.403 -0.5338 -0.1994 -0.6041
  272MOL0     C37432   5.152   7.049   1.268 -0.0195  0.2375 -0.9164
  272MOL0     C37433   5.041   7.018   1.190  0.0051  0.7479 -0.6029
  272MOL0     O37434   5.076   6.994   1.061 -0.6752  0.3670 -0.5384
  272MOL0     C37435   4.975   6.979   0.962  0.3800 -0.2214 -0.0349
  272MOL0     C37436   4.907   7.113   0.922 -0.3031 -0.4703 -0.6477
  272MOL0     C37437   4.859   7.114   0.776 -0.4714 -0.4472  0.1669
  272MOL0     C37438   4.755   7.007   0.747 -0.0066  0.0958 -0.4859
  272MOL0     C37439   4.706   7.008   0.605  0.0068 -1.0889 -0.2186
  272MOL0     C37440   4.624   6.890   0.572 -0.3017  0.5245 -0.2032
  272MOL0     C37441   4.590   6.884   0.422 -1.0862 -0.9475  0.4550
  272MOL0     C37442   4.456   6.827   0.382  0.3614 -0.0361 -1.4989
  272MOL0    Cl37443   4.466   6.644   0.402 -0.0319 -0.1988 -0.2322
  272MOL0     C37444   4.918   7.018   1.253 -0.0225 -1.4623 -0.3170
  272MOL0     C37445   4.902   7.053   1.396 -0.1119  0.8770  0.2946
  272MOL0     O37446   4.810   7.230   1.619  0.0674 -0.7699 -0.1536
  272MOL0     C37447   4.837   7.246   1.903  0.2789 -0.3117  0.2446
  272MOL0     C37448   4.865   7.254   2.037 -0.4602 -0.1795 -0.0081
  272MOL0     N37449   5.129   7.681   2.692  0.3413  0.5698 -0.1497
  272MOL0     N37450   5.078   7.771   2.761  0.7381 -0.3564 -0.2143
  272MOL0     C37451   4.088   8.330   2.537 -0.0653  0.8298  1.3007
  272MOL0     C37452   3.984   8.377   2.459  0.8346 -0.2432 -0.1721
  272MOL0     C37453   3.563   8.396   2.250 -0.2696 -0.1194  0.2722
  272MOL0     C37454   3.454   8.318   2.202  0.7620 -0.4752  0.7827
  272MOL0     C37455   3.320   8.369   2.203 -0.2245  0.1090  0.6881
  272MOL0     C37456   3.301   8.505   2.256 -0.4775 -0.1687 -0.1464
  272MOL0     O37457   3.179   8.567   2.277 -0.6990  0.1752  0.2802
  272MOL0     C37458   3.083   8.484   2.334  1.2210  1.1131 -1.1929
  272MOL0     C37459   3.035   8.540   2.461  0.2361  0.6188  0.7909
  272MOL0     C37460   3.134   8.499   2.576  0.8199 -0.1948 -0.6368
  272MOL0     C37461   3.089   8.558   2.713  0.4760 -0.3162 -0.0525
  272MOL0     C37462   2.951   8.528   2.737  1.1644  0.2396 -0.8894
  272MOL0     C37463   2.840   8.499   2.756  0.0596  0.0372 -0.0208
  272MOL0     C37464   3.409   8.584   2.284  0.0677  0.3096 -0.0747
  272MOL0     C37465   3.540   8.525   2.292  0.7359 -0.6687 -0.1643
  272MOL0     C37466   3.645   8.610   2.350 -0.3737 -0.9229  0.1288
  272MOL0     H37467   3.834   8.092   2.374  1.2980  0.3224 -2.6675
  272MOL0     H37468   4.025   8.004   2.501  0.5282  0.4592 -1.3267
  272MOL0     H37469   4.171   8.257   2.799  0.3863  0.5911 -0.2526
  272MOL0     H37470   4.308   8.305   2.697  0.2129 -0.8499 -1.1536
  272MOL0     H37471   4.444   8.116   2.795  0.5178  0.9314  1.2953
  272MOL0     H37472   4.367   8.213   2.904 -3.4878  1.0726  0.5379
  272MOL0     H37473   4.199   8.067   2.947 -0.6540  0.6424 -2.8068
  272MOL0     H37474   4.220   7.948   2.835 -4.2238  2.7489 -0.2010
  272MOL0     H37475   4.440   8.021   3.041  1.6976  0.8610 -3.6029
  272MOL0     H37476   4.342   7.875   3.059  0.7843 -2.5780  0.2693
  272MOL0     H37477   4.507   7.887   2.809 -0.5205  1.5339  0.2018
  272MOL0     H37478   4.460   7.750   2.906  0.5396 -0.2246  0.9806
  272MOL0     H37479   4.652   7.947   2.994  2.6837 -1.2936 -1.1184
  272MOL0     H37480   4.623   7.800   3.082  0.4875 -1.2607 -0.0311
  272MOL0     H37481   4.716   7.819   2.795  2.6927  2.4825  0.7165
  272MOL0     H37482   4.699   7.672   2.881 -2.3787  1.0711  1.0803
  272MOL0     H37483   4.905   7.903   2.930 -1.0777  0.0870  1.9454
  272MOL0     H37484   4.889   7.774   3.036  0.0101  0.1975 -0.2974
  272MOL0     H37485   4.883   7.519   2.831  0.2202 -1.6686 -4.4165
  272MOL0     H37486   5.053   7.345   2.697  1.1526  0.0354  1.9310
  272MOL0     H37487   5.206   7.410   2.659  0.3000  0.6085 -2.0627
  272MOL0     H37488   4.965   7.430   2.484 -0.2725  1.8016  0.6199
  272MOL0     H37489   5.125   7.511   2.442  0.5197 -0.4039  0.8890
  272MOL0     H37490   5.228   7.287   2.450  0.7457  2.6432 -1.5930
  272MOL0     H37491   5.069   7.210   2.468  1.2424  1.6647  4.5573
  272MOL0     H37492   5.176   7.395   2.222 -0.3750  2.9054  2.3788
  272MOL0     H37493   5.202   7.225   2.251 -0.3476 -0.5809  2.5501
  272MOL0     H37494   5.206   7.273   2.008  0.2281  0.5698 -1.0558
  272MOL0     H37495   5.185   7.318   1.660  0.4710 -0.4070  0.6518
  272MOL0     H37496   5.230   7.167   1.716 -0.2525  0.1213 -0.0405
  272MOL0     H37497   5.286   7.311   1.793  0.9569  0.7205 -0.8652
  272MOL0     H37498   5.238   7.106   1.439 -0.2952 -1.5189 -0.3422
  272MOL0     H37499   5.250   7.058   1.223  0.4031  4.2593  0.4167
  272MOL0     H37500   5.037   6.936   0.882  1.1219 -1.3741  1.1263
  272MOL0     H37501   4.909   6.905   1.006  1.6273  0.7193  3.7713
  272MOL0     H37502   4.823   7.123   0.990 -0.9789 -3.0740 -0.9915
  272MOL0     H37503   4.988   7.185   0.937 -0.2913 -0.7156  0.5536
  272MOL0     H37504   4.937   7.104   0.700  0.1377 -3.4592  1.0231
  272MOL0     H37505   4.813   7.213   0.777 -0.1104 -0.2091  3.2445
  272MOL0     H37506   4.677   7.021   0.822 -1.0019 -2.7275 -0.8546
  272MOL0     H37507   4.797   6.907   0.765 -0.1379  0.1062 -0.1092
  272MOL0     H37508   4.645   7.097   0.585  0.1317 -0.8628  0.3906
  272MOL0     H37509   4.795   7.002   0.541 -0.7539 -2.1764 -1.2209
  272MOL0     H37510   4.530   6.881   0.628 -0.4315  2.4825 -0.0353
  272MOL0     H37511   4.680   6.798   0.589 -1.9695 -0.5144 -0.0751
  272MOL0     H37512   4.665   6.841   0.356 -0.8855  1.3584 -0.9347
  272MOL0     H37513   4.597   6.991   0.400  1.7238 -1.6333 -2.8444
  272MOL0     H37514   4.439   6.851   0.277  3.1525  0.5719 -1.8799
  272MOL0     H37515   4.367   6.870   0.429  0.5487  0.8849 -1.9761
  272MOL0     H37516   4.828   7.014   1.191 -0.0751  4.6871 -1.2488
  272MOL0     H37517   4.804   7.038   1.441 -0.2321  0.6106 -0.0511
  272MOL0     H37518   4.734   7.244   1.870  0.3266 -1.6927  0.1454
  272MOL0     H37519   4.794   7.250   2.120  2.1325  1.2749  2.4701
  272MOL0     H37520   4.148   8.411   2.578 -0.9557  0.3397  3.7205
  272MOL0     H37521   3.979   8.485   2.460 -1.9282 -0.2936 -0.2932
  272MOL0     H37522   3.471   8.219   2.162  0.0867  0.4657 -2.1313
  272MOL0     H37523   3.233   8.316   2.166  0.8112  1.7286 -5.0774
  272MOL0     H37524   3.001   8.460   2.265 -0.6129  5.3946 -0.8709
  272MOL0     H37525   3.126   8.387   2.359 -0.5372 -0.1579 -2.7556
  272MOL0     H37526   2.936   8.496   2.479  1.7641 -3.1474  0.9046
  272MOL0     H37527   3.022   8.646   2.439 -1.6742 -0.1032 -2.2557
  272MOL0     H37528   3.141   8.390   2.586  0.3258 -0.0806  1.5686
  272MOL0     H37529   3.234   8.542   2.561 -0.9483  5.1508  0.9227
  272MOL0     H37530   3.103   8.666   2.706 -0.4812  0.0154  2.2026
  272MOL0     H37531   3.140   8.517   2.800 -1.0490  1.1554  1.6259
  272MOL0     H37532   2.736   8.479   2.775  0.5240 -1.1417  1.4660
  272MOL0     H37533   3.399   8.685   2.323 -0.3628  0.5266 -0.7363
  272MOL0     H37534   3.727   8.624   2.280  0.8637  0.3134  1.7616
  272MOL0     H37535   3.606   8.712   2.364  1.4403 -0.4311  1.9743
  272MOL0     H37536   3.693   8.572   2.440 -5.0983 -3.3898  1.9453
  273MOL0     O37537   4.200   4.328   0.341 -0.5829 -0.5687 -0.0807
  273MOL0     C37538   4.240   4.223   0.386  0.3492 -1.0345 -0.2866
  273MOL0     O37539   4.272   4.119   0.307 -0.0555 -0.6716 -0.1873
  273MOL0     C37540   4.283   4.113   0.173  0.3423  0.3125  0.1046
  273MOL0     C37541   4.203   4.181   0.073  0.4462 -0.2159  0.3763
  273MOL0     C37542   4.216   4.158  -0.070 -0.4924 -0.9608 -0.8166
  273MOL0     C37543   4.322   4.071  -0.113  0.1629  0.2402  0.0699
  273MOL0     O37544   4.352   4.046  -0.242 -0.2376  0.3978 -0.5615
  273MOL0     C37545   4.315   4.142  -0.341 -0.4646 -0.3560 -0.3711
  273MOL0     C37546   4.426   4.140  -0.450  0.6774 -0.1153 -0.8222
  273MOL0     C37547   4.424   4.005  -0.526  0.1122  0.6242 -0.5717
  273MOL0     C37548   4.284   3.972  -0.585 -0.3937 -0.2615 -0.1071
  273MOL0     C37549   4.271   3.837  -0.662  1.4815  0.8985  0.5442
  273MOL0     C37550   4.375   3.840  -0.776 -0.4159  0.0748 -0.5984
  273MOL0     C37551   4.371   3.736  -0.877 -1.1427 -0.3486 -0.7322
  273MOL0     C37552   4.255   3.759  -0.972  0.4293 -0.1770 -0.8928
  273MOL0     N37553   4.278   3.690  -1.095  0.1361 -0.2308  0.7661
  273MOL0     C37554   4.379   3.724  -1.186  0.2319 -0.0699  0.1535
  273MOL0     C37555   4.368   3.644  -1.291  0.5572 -0.2349  0.4462
  273MOL0     C37556   4.457   3.640  -1.416 -0.4015  0.9217 -0.4205
  273MOL0     C37557   4.498   3.493  -1.442  0.1514 -0.4392  0.0766
  273MOL0     C37558   4.550   3.465  -1.584  0.2783  0.5808  0.3385
  273MOL0     C37559   4.583   3.316  -1.607 -0.6565 -0.0885  0.9731
  273MOL0     O37560   4.663   3.308  -1.724  0.5630 -0.0710 -0.4425
  273MOL0     C37561   4.706   3.190  -1.764 -0.2742 -0.6943 -0.5823
  273MOL0     C37562   4.792   3.185  -1.869 -0.7589 -0.2919  0.0743
  273MOL0     C37563   4.829   3.064  -1.932  0.4818  0.5950  0.1341
  273MOL0     C37564   4.909   3.078  -2.064 -0.1121  0.0650 -0.0790
  273MOL0     C37565   4.773   2.939  -1.889 -0.7016 -0.3808 -0.3438
  273MOL0     C37566   4.800   2.804  -1.945  0.0823 -0.2892  0.6994
  273MOL0     O37567   4.802   2.703  -1.853  0.0767  0.4146  0.0791
  273MOL0     C37568   4.856   2.587  -1.894 -0.1001 -0.0147  0.6636
  273MOL0     C37569   4.784   2.479  -1.939 -0.3434  0.5515  0.9544
  273MOL0     C37570   4.828   2.349  -1.953 -0.2734 -0.4162 -0.2720
  273MOL0     C37571   4.962   2.326  -1.922 -0.9013  0.1938  0.3409
  273MOL0     O37572   5.018   2.201  -1.920  0.2509  0.2552  0.1139
  273MOL0     C37573   4.982   2.114  -2.023 -0.3833 -0.7478 -0.7178
  273MOL0     C37574   5.090   2.007  -2.046 -0.4582 -0.4296  0.7048
  273MOL0     C37575   5.211   2.086  -2.117 -0.1938 -0.2600  0.1538
  273MOL0     C37576   5.328   2.001  -2.158  0.5770 -0.2348 -0.4726
  273MOL0     C37577   5.411   2.077  -2.268 -0.7855 -0.0308  0.4729
  273MOL0     C37578   5.500   2.200  -2.237  0.8489  0.3500  0.2411
  273MOL0     C37579   5.610   2.157  -2.142  0.1129  0.1024  0.0257
  273MOL0     C37580   5.627   2.258  -2.030 -0.3557 -0.5477 -0.5394
  273MOL0    Cl37581   5.497   2.247  -1.914 -0.4519  0.2698 -0.2654
  273MOL0     C37582   5.042   2.437  -1.888 -0.0459 -0.5759  0.2610
  273MOL0     C37583   4.987   2.563  -1.866  0.7372  1.2379 -0.5183
  273MOL0     O37584   4.833   2.795  -2.064  0.1599  0.4304 -0.2070
  273MOL0     C37585   4.691   2.946  -1.771 -0.3108  0.6038  0.9010
  273MOL0     C37586   4.657   3.065  -1.712  0.3173  0.8850 -0.1066
  273MOL0     N37587   4.264   3.557  -1.267 -0.4194  0.0815 -0.2007
  273MOL0     N37588   4.209   3.590  -1.153 -0.0755 -0.0757  0.3377
  273MOL0     C37589   4.379   3.987  -0.011 -0.5512 -0.0316 -0.8525
  273MOL0     C37590   4.371   4.023   0.125 -0.2837  0.6537 -0.8611
  273MOL0     C37591   4.250   4.213   0.537 -0.5858  0.7868  0.1591
  273MOL0     C37592   4.181   4.314   0.610 -0.4117  0.3641 -0.3959
  273MOL0     C37593   4.190   4.305   0.751  0.6460  0.4679  0.8867
  273MOL0     C37594   4.248   4.202   0.821 -0.6527 -0.6692 -0.7928
  273MOL0     O37595   4.236   4.205   0.955  0.7140  0.5350 -0.1974
  273MOL0     C37596   4.348   4.155   1.034  0.3738 -0.1693 -0.8057
  273MOL0     C37597   4.321   4.018   1.081 -0.3296  0.0249 -0.4432
  273MOL0     C37598   4.429   3.975   1.184  0.1773 -1.2912 -1.1552
  273MOL0     C37599   4.538   3.893   1.121 -0.1637  0.9380 -0.7905
  273MOL0     C37600   4.479   3.758   1.091  0.0092  0.1252  0.5147
  273MOL0     C37601   4.434   3.645   1.067  0.2285  0.2948  0.1336
  273MOL0     C37602   4.313   4.106   0.747  0.1458 -0.9583 -0.8132
  273MOL0     C37603   4.316   4.108   0.606 -0.1187  1.2026 -0.1704
  273MOL0     C37604   4.398   3.998   0.539 -0.4685  0.3031 -0.3872
  273MOL0     H37605   4.138   4.260   0.108  0.2914  0.4457 -1.3136
  273MOL0     H37606   4.145   4.201  -0.139  0.1035  1.3337 -0.0976
  273MOL0     H37607   4.327   4.235  -0.284  1.3850 -1.5421  1.3098
  273MOL0     H37608   4.216   4.140  -0.387  1.2673 -1.5403 -4.5518
  273MOL0     H37609   4.408   4.231  -0.509 -0.1997  0.4049  0.2077
  273MOL0     H37610   4.523   4.159  -0.402  0.9659 -0.4939 -1.2491
  273MOL0     H37611   4.503   4.018  -0.601  0.3160 -1.2414 -0.7322
  273MOL0     H37612   4.451   3.927  -0.453  1.8200  0.5858 -1.2069
  273MOL0     H37613   4.224   3.956  -0.495 -0.0207  0.9054  0.3819
  273MOL0     H37614   4.252   4.049  -0.656 -0.1880  0.4813  0.5869
  273MOL0     H37615   4.168   3.830  -0.698  0.7827 -0.5692  2.6846
  273MOL0     H37616   4.279   3.746  -0.602 -1.9493 -0.8101 -1.2860
  273MOL0     H37617   4.365   3.930  -0.837  0.3488  0.4341 -0.2082
  273MOL0     H37618   4.474   3.838  -0.728 -0.6043  0.3762 -0.1945
  273MOL0     H37619   4.373   3.634  -0.838  1.0458 -0.3644 -0.7876
  273MOL0     H37620   4.466   3.749  -0.929 -1.0416 -2.5124 -1.1718
  273MOL0     H37621   4.162   3.734  -0.919 -0.3151  5.4920  1.0931
  273MOL0     H37622   4.239   3.866  -0.987  2.7529  0.1957 -1.1407
  273MOL0     H37623   4.459   3.795  -1.166 -0.8279  0.9685  0.8576
  273MOL0     H37624   4.537   3.713  -1.403  1.6231 -0.8819 -1.9608
  273MOL0     H37625   4.396   3.661  -1.505  0.6386 -1.5295 -1.8044
  273MOL0     H37626   4.564   3.460  -1.361 -1.2750 -2.5192  0.4698
  273MOL0     H37627   4.412   3.428  -1.421  0.1181 -0.8278 -1.1735
  273MOL0     H37628   4.466   3.490  -1.649 -1.7855 -1.9342  1.8223
  273MOL0     H37629   4.635   3.523  -1.621 -0.4314  3.5093  2.8435
  273MOL0     H37630   4.626   3.264  -1.521 -0.1738  0.2787  0.9524
  273MOL0     H37631   4.492   3.258  -1.625 -0.1952 -0.7333  0.7079
  273MOL0     H37632   4.830   3.281  -1.902 -1.0262 -0.1080  0.2932
  273MOL0     H37633   5.017   3.076  -2.046 -0.0982 -2.1435 -0.1405
  273MOL0     H37634   4.878   3.175  -2.105 -2.0179 -0.9102 -1.1282
  273MOL0     H37635   4.900   3.003  -2.143 -2.8920 -0.1877  0.3847
  273MOL0     H37636   4.686   2.508  -1.975  0.9666  2.1219 -1.6592
  273MOL0     H37637   4.756   2.281  -1.997 -1.9635  0.5597  0.8573
  273MOL0     H37638   4.890   2.061  -1.996 -1.5147  0.9795 -1.0422
  273MOL0     H37639   4.958   2.171  -2.112  0.6586  1.1495  0.1600
  273MOL0     H37640   5.108   1.956  -1.951  0.5544  1.6674  1.7130
  273MOL0     H37641   5.057   1.944  -2.129 -0.0107 -0.5071  0.5828
  273MOL0     H37642   5.250   2.171  -2.059 -3.1850  1.6441 -0.4036
  273MOL0     H37643   5.170   2.134  -2.207  0.4313  0.8580  0.4472
  273MOL0     H37644   5.285   1.913  -2.207  2.1281 -0.4539 -1.5253
  273MOL0     H37645   5.381   1.959  -2.071  0.2531 -0.3122 -0.3120
  273MOL0     H37646   5.476   1.999  -2.310 -1.2056 -0.6860  1.0235
  273MOL0     H37647   5.362   2.115  -2.357  0.4390  1.7050  0.4975
  273MOL0     H37648   5.436   2.282  -2.201  0.7660  1.3502 -1.9973
  273MOL0     H37649   5.522   2.224  -2.341 -2.2554  0.9838 -0.3680
  273MOL0     H37650   5.701   2.149  -2.202  0.1420 -2.8192  0.3286
  273MOL0     H37651   5.584   2.068  -2.085 -1.0075  1.8265  2.4041
  273MOL0     H37652   5.629   2.365  -2.052  1.8525  0.1480  2.3623
  273MOL0     H37653   5.717   2.233  -1.972 -1.3028  1.7552  2.1782
  273MOL0     H37654   5.146   2.414  -1.867 -0.2240 -1.4289  0.2409
  273MOL0     H37655   5.040   2.649  -1.825 -0.5609  2.3052 -0.9725
  273MOL0     H37656   4.650   2.857  -1.723  1.3942 -1.1930 -0.7958
  273MOL0     H37657   4.592   3.052  -1.625 -0.4034 -1.6583 -0.9461
  273MOL0     H37658   4.452   3.914  -0.044 -0.7740 -1.1145  0.9224
  273MOL0     H37659   4.414   3.955   0.199  1.1015  1.8133 -0.5655
  273MOL0     H37660   4.139   4.399   0.557 -1.0406 -0.7694 -1.7772
  273MOL0     H37661   4.157   4.381   0.821  1.6790  0.3572  1.5064
  273MOL0     H37662   4.445   4.142   0.985  1.2495 -4.1556  1.5109
  273MOL0     H37663   4.354   4.232   1.112  1.4039 -0.0605 -0.9880
  273MOL0     H37664   4.318   3.947   0.997  0.0103 -0.7196  0.1540
  273MOL0     H37665   4.223   4.013   1.128  0.2827  3.1235  1.4019
  273MOL0     H37666   4.477   4.067   1.218 -4.3715  1.2034 -0.7157
  273MOL0     H37667   4.382   3.932   1.273  2.6336 -0.2973  0.7538
  273MOL0     H37668   4.624   3.881   1.188  0.8629 -2.5715 -2.5270
  273MOL0     H37669   4.562   3.931   1.021 -1.0698 -2.0887 -2.2527
  273MOL0     H37670   4.398   3.544   1.067  0.1518  0.2524  2.8353
  273MOL0     H37671   4.335   4.019   0.808 -0.0357  0.7980  1.9000
  273MOL0     H37672   4.365   3.969   0.439  0.9258  0.6868 -0.9808
  273MOL0     H37673   4.504   4.020   0.530 -0.5764  0.0836 -2.9767
  273MOL0     H37674   4.393   3.911   0.605  3.3327 -0.0554 -0.3617
  274MOL0     O37675   4.795  10.044  10.379 -0.3116  0.4384  0.4979
  274MOL0     C37676   4.804  10.042  10.500  0.5560 -0.6398 -0.8959
  274MOL0     O37677   4.881  10.128  10.587  0.8063 -0.9746  0.5608
  274MOL0     C37678   4.977  10.225  10.532 -0.1635 -0.1114  0.1101
  274MOL0     C37679   4.980  10.287  10.402  0.0034  0.2281 -0.9589
  274MOL0     C37680   5.071  10.381  10.371 -0.4679 -0.4509  0.4446
  274MOL0     C37681   5.177  10.412  10.459  0.2983  0.0440 -1.5568
  274MOL0     O37682   5.274  10.504  10.430  0.1596 -0.0607  0.1306
  274MOL0     C37683   5.364  10.552  10.531  0.1145  0.0242  0.5429
  274MOL0     C37684   5.492  10.626  10.472  0.3946  0.7638  0.3412
  274MOL0     C37685   5.458  10.754  10.384 -0.5036  0.2787  0.8506
  274MOL0     C37686   5.375  10.850  10.468  0.0044 -0.0178 -0.7536
  274MOL0     C37687   5.352  10.993  10.417 -0.8738  0.9416  0.4931
  274MOL0     C37688   5.361  11.107  10.514 -0.0019  0.0569 -0.3431
  274MOL0     C37689   5.358  11.234  10.435 -0.1297 -0.4215 -0.0690
  274MOL0     C37690   5.453  11.349  10.495 -0.9779 -0.2097 -0.9145
  274MOL0     N37691   5.417  11.395  10.629  0.0851  0.5183  0.0593
  274MOL0     C37692   5.291  11.402  10.678 -0.1830  0.2970 -0.4695
  274MOL0     C37693   5.305  11.426  10.815  0.9509 -1.2823  0.2851
  274MOL0     C37694   5.187  11.430  10.914 -0.5741  0.2043  0.2126
  274MOL0     C37695   5.224  11.368  11.055  0.5076  0.1070 -0.0027
  274MOL0     C37696   5.255  11.218  11.051  0.9767  0.0560  0.5269
  274MOL0     C37697   5.396  11.181  11.020 -0.2174 -0.6833 -0.3536
  274MOL0     O37698   5.427  11.050  11.065  0.3772 -0.0384  0.7906
  274MOL0     C37699   5.371  10.933  11.009 -0.3076  0.6006 -0.1493
  274MOL0     C37700   5.355  10.830  11.105 -0.7091 -0.9588  0.8153
  274MOL0     C37701   5.280  10.714  11.081 -0.9030 -0.6478  0.8048
  274MOL0     C37702   5.260  10.622  11.198  0.6132 -0.3107  0.1249
  274MOL0     C37703   5.225  10.686  10.959  0.0551 -1.0561  0.7857
  274MOL0     C37704   5.128  10.571  10.924 -0.7262 -0.7478  0.3085
  274MOL0     O37705   5.103  10.473  11.020 -0.3754 -0.5903  0.2242
  274MOL0     C37706   5.034  10.362  10.989  0.5480 -0.1022 -0.3622
  274MOL0     C37707   5.090  10.238  11.014 -0.3867  0.8725  0.4809
  274MOL0     C37708   5.007  10.122  11.009 -0.3896 -0.5813 -0.3765
  274MOL0     C37709   4.873  10.132  10.963  0.0257 -0.3531  0.6586
  274MOL0     O37710   4.776  10.031  10.979 -0.3549 -0.1894  0.2780
  274MOL0     C37711   4.777   9.976  11.119  0.3567 -0.0377 -0.2686
  274MOL0     C37712   4.630   9.964  11.149 -0.7539 -0.1296 -0.3583
  274MOL0     C37713   4.612   9.873  11.269  0.7813  0.1252 -0.8559
  274MOL0     C37714   4.629   9.723  11.239 -0.0102 -0.3635 -0.1619
  274MOL0     C37715   4.568   9.645  11.360 -0.1847 -0.6609  0.5166
  274MOL0     C37716   4.563   9.492  11.328  0.8273 -0.3283  0.2828
  274MOL0     C37717   4.501   9.421  11.446 -0.4251 -0.6244 -0.2908
  274MOL0     C37718   4.593   9.439  11.575  0.8121 -0.2994 -0.2148
  274MOL0    Cl37719   4.773   9.420  11.551  0.3945 -0.3330  0.4512
  274MOL0     C37720   4.823  10.252  10.910  0.5605  0.0343  1.2212
  274MOL0     C37721   4.907  10.371  10.928  0.0182  0.4196  0.1334
  274MOL0     O37722   5.089  10.567  10.811  0.0575  0.3424 -0.8464
  274MOL0     C37723   5.249  10.790  10.857  0.3377 -0.0214  0.0082
  274MOL0     C37724   5.318  10.911  10.880 -0.8152 -1.3112 -0.2937
  274MOL0     N37725   5.431  11.452  10.840 -0.4493  0.0781  0.2473
  274MOL0     N37726   5.502  11.441  10.733  0.0616  0.6059  0.2890
  274MOL0     C37727   5.167  10.353  10.588  0.3192 -0.7597 -0.7250
  274MOL0     C37728   5.068  10.258  10.626 -0.8275 -0.2289  0.2312
  274MOL0     C37729   4.717   9.941  10.582  0.5441 -0.1617 -0.1770
  274MOL0     C37730   4.771   9.891  10.700 -0.1287 -0.1103 -0.7229
  274MOL0     C37731   4.695   9.805  10.792 -0.2208  0.0069  0.2784
  274MOL0     C37732   4.574   9.759  10.741  0.3857 -0.4444  0.1908
  274MOL0     O37733   4.501   9.676  10.825  0.5666  0.2204  0.4921
  274MOL0     C37734   4.377   9.621  10.787  0.2188 -0.6699  0.2895
  274MOL0     C37735   4.301   9.554  10.900 -0.1889  0.3077 -1.0466
  274MOL0     C37736   4.250   9.656  10.993  0.3339  0.1655 -0.1563
  274MOL0     C37737   4.160   9.601  11.104  0.1241 -0.0355  0.4474
  274MOL0     C37738   4.123   9.709  11.198 -0.1944  0.4100  0.3588
  274MOL0     C37739   4.072   9.782  11.282  0.2443  0.5701  0.7156
  274MOL0     C37740   4.529   9.793  10.614 -0.7675 -0.2073  0.5405
  274MOL0     C37741   4.601   9.876  10.533 -0.1176 -0.2144  0.4692
  274MOL0     C37742   4.547   9.900  10.395 -0.0269  0.4394  0.2243
  274MOL0     H37743   4.908  10.253  10.327 -1.9452  1.1056  0.4414
  274MOL0     H37744   5.090  10.422  10.272  0.2499  1.6153  1.3861
  274MOL0     H37745   5.413  10.470  10.585 -0.0813 -1.4714 -1.4137
  274MOL0     H37746   5.312  10.623  10.596  4.7479  4.1098  0.4007
  274MOL0     H37747   5.569  10.641  10.547 -0.3798  2.6623  0.8213
  274MOL0     H37748   5.530  10.558  10.395 -0.2242 -2.3625  2.6008
  274MOL0     H37749   5.555  10.795  10.354  0.9467 -2.7434  0.9204
  274MOL0     H37750   5.413  10.727  10.288 -1.1593 -3.6081  2.0455
  274MOL0     H37751   5.276  10.804  10.476  1.6349 -3.8371 -0.3210
  274MOL0     H37752   5.420  10.855  10.567  1.4640  0.0565 -1.4015
  274MOL0     H37753   5.264  10.996  10.353  0.4676  0.5390 -1.4568
  274MOL0     H37754   5.435  11.011  10.348 -2.9780  0.4853 -2.2911
  274MOL0     H37755   5.278  11.101  10.586  0.9662 -0.1090  0.7938
  274MOL0     H37756   5.438  11.100  10.591 -1.4255 -3.5761  0.9472
  274MOL0     H37757   5.256  11.273  10.431  0.6656  1.9602  0.9941
  274MOL0     H37758   5.377  11.215  10.329  0.1037  1.3457 -0.3759
  274MOL0     H37759   5.556  11.313  10.499 -0.5559  1.0250  2.5016
  274MOL0     H37760   5.449  11.435  10.428  0.4352 -0.6185 -1.5566
  274MOL0     H37761   5.191  11.399  10.635 -0.3167 -2.3881 -0.1935
  274MOL0     H37762   5.094  11.386  10.876 -0.9910  1.9124 -0.8243
  274MOL0     H37763   5.157  11.532  10.938 -4.5473 -1.3406  3.0650
  274MOL0     H37764   5.319  11.411  11.088  2.0443 -1.8916 -1.5671
  274MOL0     H37765   5.136  11.392  11.115 -0.8027 -0.3967 -1.6512
  274MOL0     H37766   5.233  11.184  11.153 -0.5309 -1.3057 -0.2147
  274MOL0     H37767   5.194  11.165  10.977 -0.1821  1.6051  0.3331
  274MOL0     H37768   5.419  11.187  10.913  3.9692  0.7141  0.4321
  274MOL0     H37769   5.462  11.255  11.065 -1.6100  0.6451 -0.4405
  274MOL0     H37770   5.380  10.847  11.209  0.3832 -0.1902  0.4595
  274MOL0     H37771   5.274  10.688  11.284  0.7568 -0.0250 -0.1119
  274MOL0     H37772   5.333  10.541  11.184  0.6050  0.1790 -4.2114
  274MOL0     H37773   5.155  10.594  11.206  0.7791 -2.0597 -2.4820
  274MOL0     H37774   5.191  10.226  11.052 -0.0881  0.5159 -0.3850
  274MOL0     H37775   5.049  10.024  11.030 -1.8986 -1.2041 -0.1003
  274MOL0     H37776   4.821   9.877  11.104  1.6435  0.6030 -0.8558
  274MOL0     H37777   4.826  10.030  11.201 -4.9278  1.6237  2.2912
  274MOL0     H37778   4.594  10.062  11.182  0.1368  0.4919 -1.1502
  274MOL0     H37779   4.596   9.920  11.055  0.6749 -1.4894 -0.2745
  274MOL0     H37780   4.514   9.894  11.313  0.5668  3.1263 -2.4859
  274MOL0     H37781   4.682   9.911  11.344 -2.7430  4.7641  0.5617
  274MOL0     H37782   4.735   9.696  11.234  0.3089  0.6589  0.5703
  274MOL0     H37783   4.573   9.709  11.146 -1.0655 -2.0415  0.6964
  274MOL0     H37784   4.625   9.663  11.452  0.5795 -2.6397  0.4737
  274MOL0     H37785   4.467   9.676  11.389  0.7558  0.4755  2.8535
  274MOL0     H37786   4.665   9.456  11.313  0.5332 -0.1040 -2.8611
  274MOL0     H37787   4.504   9.475  11.238 -0.5754  1.2571  0.8359
  274MOL0     H37788   4.494   9.315  11.422  2.1489 -1.8891  3.5364
  274MOL0     H37789   4.402   9.465  11.463  1.0574  2.0768  2.3976
  274MOL0     H37790   4.572   9.371  11.657  1.3972  1.4532  1.4527
  274MOL0     H37791   4.573   9.542  11.606 -3.0533 -0.7513 -0.7430
  274MOL0     H37792   4.735  10.248  10.847  0.5223  0.9736  1.1945
  274MOL0     H37793   4.858  10.463  10.897 -2.7196 -0.9976 -0.0098
  274MOL0     H37794   5.227  10.776  10.752  0.6058 -0.6635  0.0331
  274MOL0     H37795   5.339  10.981  10.800 -0.0044  0.7044  1.5861
  274MOL0     H37796   5.233  10.373  10.672 -1.0213 -0.0624  0.2056
  274MOL0     H37797   5.084  10.204  10.719  1.0859  1.8877  1.2583
  274MOL0     H37798   4.866   9.933  10.731 -0.2104  0.7377 -1.5750
  274MOL0     H37799   4.734   9.767  10.886  0.5030 -2.2126 -0.8459
  274MOL0     H37800   4.314   9.703  10.752 -1.5750 -1.5756  1.2474
  274MOL0     H37801   4.402   9.559  10.700  2.2569  0.9297 -0.3486
  274MOL0     H37802   4.366   9.490  10.960 -0.7032  1.2261  0.5515
  274MOL0     H37803   4.221   9.497  10.852 -1.4250  2.1343 -1.2606
  274MOL0     H37804   4.340   9.704  11.031 -0.0903  1.2250 -0.4539
  274MOL0     H37805   4.196   9.735  10.941  0.8500  0.2124 -0.6199
  274MOL0     H37806   4.216   9.521  11.154  2.4142 -0.6919 -2.8776
  274MOL0     H37807   4.066   9.560  11.066 -0.1594  2.5738 -1.9174
  274MOL0     H37808   4.027   9.848  11.352 -0.0094 -2.2174  3.4189
  274MOL0     H37809   4.445   9.740  10.572  0.2251 -2.0411  0.7950
  274MOL0     H37810   4.624   9.878  10.321 -0.2377 -0.2275  0.2026
  274MOL0     H37811   4.460   9.840  10.366  2.7599 -2.6966 -2.5219
  274MOL0     H37812   4.517  10.004  10.377 -2.5502 -0.1108  0.8544
  275MOL0     O37813   9.437   5.016   9.362 -0.0114  0.4201 -0.0484
  275MOL0     C37814   9.405   5.129   9.321  0.4181  0.5436  0.4271
  275MOL0     O37815   9.295   5.152   9.236 -0.8537  0.1653 -0.2494
  275MOL0     C37816   9.217   5.048   9.187 -0.7919  0.4882  0.1528
  275MOL0     C37817   9.175   5.055   9.051  0.4040 -0.1025  0.2839
  275MOL0     C37818   9.096   4.951   9.003  0.5762 -0.7122  0.0922
  275MOL0     C37819   9.041   4.851   9.084 -0.7491  0.6015  0.4126
  275MOL0     O37820   8.969   4.749   9.021 -0.8616 -1.0154 -0.1252
  275MOL0     C37821   8.888   4.648   9.089  0.1551 -0.6718 -0.0995
  275MOL0     C37822   8.970   4.522   9.075 -0.1840 -0.1836 -1.0920
  275MOL0     C37823   8.967   4.416   9.192 -0.1145 -0.4385 -0.3102
  275MOL0     C37824   9.022   4.283   9.150 -0.7318  0.7583  0.3986
  275MOL0     C37825   9.069   4.196   9.264 -0.4217  0.4123  0.2338
  275MOL0     C37826   8.954   4.144   9.358  0.6425 -0.2721 -0.1057
  275MOL0     C37827   8.992   4.082   9.496  0.0924  0.5900  0.6068
  275MOL0     C37828   8.863   4.038   9.575 -0.3591 -0.2409  0.4785
  275MOL0     N37829   8.841   3.894   9.587 -0.8753  0.1214 -0.7171
  275MOL0     C37830   8.767   3.821   9.490  0.0365  0.9068 -0.3601
  275MOL0     C37831   8.757   3.702   9.548  0.9769  0.7011  1.2889
  275MOL0     C37832   8.676   3.598   9.496 -0.0144  1.1497  0.0982
  275MOL0     C37833   8.523   3.617   9.510  0.5358  0.8041 -0.0127
  275MOL0     C37834   8.474   3.576   9.651  0.2911  0.6933 -0.1044
  275MOL0     C37835   8.349   3.656   9.692  0.2077  0.6675  2.0609
  275MOL0     O37836   8.245   3.609   9.610 -0.2520 -0.2203 -0.5705
  275MOL0     C37837   8.119   3.616   9.661  0.0741 -0.2216 -0.2893
  275MOL0     C37838   8.016   3.592   9.572  0.0845  0.9241 -0.3736
  275MOL0     C37839   7.883   3.588   9.613  1.7174 -0.4220  0.8148
  275MOL0     C37840   7.781   3.575   9.497  0.3602  0.5396  0.2197
  275MOL0     C37841   7.850   3.622   9.743  0.1842  0.3532  0.3739
  275MOL0     C37842   7.708   3.635   9.801  0.5010  0.3549  0.1339
  275MOL0     O37843   7.598   3.625   9.719  0.0630 -1.1391 -0.3372
  275MOL0     C37844   7.476   3.662   9.777  0.8864 -0.4343  0.2379
  275MOL0     C37845   7.441   3.766   9.853 -0.4093 -0.9550  0.7492
  275MOL0     C37846   7.313   3.806   9.877 -0.2058 -0.1456 -0.2668
  275MOL0     C37847   7.202   3.727   9.831  0.1200 -0.5793  0.0717
  275MOL0     O37848   7.080   3.785   9.862 -0.2175  0.2601  0.1017
  275MOL0     C37849   6.969   3.702   9.888 -0.0326 -1.2116  0.2360
  275MOL0     C37850   6.853   3.799   9.922  0.5215 -0.2355  0.1927
  275MOL0     C37851   6.721   3.730   9.938 -0.2583 -0.4310 -0.1325
  275MOL0     C37852   6.620   3.832  10.007 -0.3679  1.1759 -0.4099
  275MOL0     C37853   6.491   3.759  10.054  0.8209 -0.2860  1.1045
  275MOL0     C37854   6.378   3.865  10.097 -0.4347 -0.2838 -0.0686
  275MOL0     C37855   6.243   3.797  10.113 -0.5852  0.6676 -0.3936
  275MOL0     C37856   6.127   3.885  10.106  0.6880  0.1973 -0.8011
  275MOL0    Cl37857   5.983   3.791  10.143  0.4585  0.2086  0.5747
  275MOL0     C37858   7.230   3.621   9.743 -0.3852  0.1490 -0.9222
  275MOL0     C37859   7.367   3.598   9.709 -0.1999 -0.0348 -0.2277
  275MOL0     O37860   7.695   3.652   9.926 -0.2801  0.3175  0.0510
  275MOL0     C37861   7.958   3.643   9.834 -0.0810 -0.4695  0.1255
  275MOL0     C37862   8.089   3.647   9.796 -0.0112 -0.7519 -0.4929
  275MOL0     N37863   8.822   3.695   9.666 -0.3476  0.6067 -1.1992
  275MOL0     N37864   8.888   3.806   9.688  0.4302  0.0372  0.2225
  275MOL0     C37865   9.084   4.834   9.217  0.1415 -0.2353 -0.2586
  275MOL0     C37866   9.178   4.933   9.264  0.3600 -0.0497  0.4610
  275MOL0     C37867   9.477   5.252   9.361  0.6967 -0.0944  0.1459
  275MOL0     C37868   9.472   5.363   9.282  0.3267  0.4177  0.1177
  275MOL0     C37869   9.539   5.490   9.316  0.2833 -0.3393  0.4745
  275MOL0     C37870   9.620   5.498   9.427  0.7972  0.2529  0.0415
  275MOL0     O37871   9.684   5.602   9.487  0.4213  0.4775 -0.3195
  275MOL0     C37872   9.657   5.724   9.429  0.4761 -0.5704 -0.1377
  275MOL0     C37873   9.746   5.834   9.475  0.6850 -0.4877  0.2303
  275MOL0     C37874   9.719   5.875   9.617 -0.2093 -0.4607  0.0400
  275MOL0     C37875   9.766   6.015   9.657  0.4150  0.6342  0.4852
  275MOL0     C37876   9.883   6.058   9.577  0.0190  0.3084  0.5290
  275MOL0     C37877   9.966   6.110   9.514 -0.1337 -0.8431 -0.3041
  275MOL0     C37878   9.622   5.382   9.511 -0.2900  0.8712  0.0773
  275MOL0     C37879   9.559   5.265   9.469  0.3952 -1.1099 -2.1254
  275MOL0     C37880   9.569   5.162   9.569 -0.3488  0.2871  0.1300
  275MOL0     H37881   9.226   5.125   8.986 -1.2011 -0.1181 -1.0457
  275MOL0     H37882   9.088   4.938   8.896  0.7716 -2.4019  0.2542
  275MOL0     H37883   8.796   4.635   9.031  1.1572  2.5490 -2.7279
  275MOL0     H37884   8.860   4.680   9.190  2.3697  0.6247  0.1680
  275MOL0     H37885   8.933   4.456   8.996  2.5168 -2.6213 -0.5212
  275MOL0     H37886   9.074   4.551   9.058  0.8358 -3.7433 -1.8205
  275MOL0     H37887   9.012   4.462   9.281  0.4392  0.3374 -0.9781
  275MOL0     H37888   8.861   4.400   9.214  0.1754 -2.7919 -0.4049
  275MOL0     H37889   8.946   4.226   9.095 -0.9981 -0.8585  2.3100
  275MOL0     H37890   9.100   4.300   9.075 -1.2514  3.4249  0.3815
  275MOL0     H37891   9.146   4.251   9.319 -0.8174  1.2559 -0.0393
  275MOL0     H37892   9.103   4.103   9.218  0.6849 -0.2157  2.2402
  275MOL0     H37893   8.878   4.219   9.383 -1.0740 -2.0192  0.2151
  275MOL0     H37894   8.907   4.062   9.303  0.8998 -1.2880  1.1494
  275MOL0     H37895   9.036   4.165   9.552  1.9627 -1.0044  1.6093
  275MOL0     H37896   9.067   4.003   9.485  0.1906  0.7495  0.1235
  275MOL0     H37897   8.883   4.084   9.673 -1.3833 -0.9416  1.0359
  275MOL0     H37898   8.779   4.081   9.521 -0.0747 -1.1839 -0.7390
  275MOL0     H37899   8.741   3.833   9.385  0.6198  1.4585 -0.4432
  275MOL0     H37900   8.701   3.499   9.535  4.8605  1.7305 -0.8860
  275MOL0     H37901   8.692   3.604   9.388 -3.7317  0.8621 -0.5768
  275MOL0     H37902   8.497   3.720   9.484 -1.4556  0.4563  0.4308
  275MOL0     H37903   8.470   3.549   9.442  0.3228 -0.2178  1.1279
  275MOL0     H37904   8.454   3.469   9.657  2.3508  0.3478  2.1348
  275MOL0     H37905   8.555   3.604   9.719  1.0186 -1.1116 -0.1765
  275MOL0     H37906   8.346   3.643   9.801  0.4241  1.4938  2.1715
  275MOL0     H37907   8.358   3.762   9.666 -3.9811  0.4284 -1.4397
  275MOL0     H37908   8.057   3.575   9.473 -1.2494 -1.4343 -0.6071
  275MOL0     H37909   7.728   3.669   9.478 -0.0202  0.7988  2.2766
  275MOL0     H37910   7.705   3.499   9.520  2.1765 -0.7383  2.3891
  275MOL0     H37911   7.839   3.547   9.409  1.5786 -4.2518  2.2548
  275MOL0     H37912   7.515   3.834   9.893 -1.3124  0.5648 -0.0780
  275MOL0     H37913   7.308   3.898   9.933  2.0862  0.5128 -1.0544
  275MOL0     H37914   6.942   3.640   9.801 -0.3642 -1.3377  0.4228
  275MOL0     H37915   6.987   3.630   9.968 -3.1727 -2.3391  0.0835
  275MOL0     H37916   6.887   3.857  10.008  1.7997  0.8701 -0.9886
  275MOL0     H37917   6.855   3.874   9.842  0.8147 -1.5418 -1.0680
  275MOL0     H37918   6.736   3.643  10.003  0.3987  0.4500  0.9389
  275MOL0     H37919   6.677   3.691   9.846  0.6198  1.8734 -1.6068
  275MOL0     H37920   6.599   3.918   9.943  1.9425  0.6450 -2.0104
  275MOL0     H37921   6.664   3.874  10.098 -1.6787  5.0944 -1.4188
  275MOL0     H37922   6.453   3.697   9.973  5.0510 -2.5451  0.5549
  275MOL0     H37923   6.507   3.699  10.144  2.3779  1.5149  2.1041
  275MOL0     H37924   6.369   3.933  10.012  5.0006 -0.9616 -1.5273
  275MOL0     H37925   6.391   3.932  10.183 -3.9728  2.3770 -1.3674
  275MOL0     H37926   6.242   3.739  10.206  1.9417 -0.7817 -1.1769
  275MOL0     H37927   6.240   3.724  10.031 -0.6664 -0.4639  0.5954
  275MOL0     H37928   6.114   3.910  10.001 -0.1274 -1.7768 -1.2066
  275MOL0     H37929   6.154   3.974  10.164 -0.0645  0.3942 -0.7527
  275MOL0     H37930   7.138   3.583   9.701 -0.5071 -1.0172  0.3383
  275MOL0     H37931   7.391   3.517   9.641 -3.6154 -1.7152  0.3508
  275MOL0     H37932   7.957   3.633   9.942  0.1862 -0.7026  0.1063
  275MOL0     H37933   8.164   3.670   9.872  0.7597  0.1102 -1.4838
  275MOL0     H37934   9.055   4.756   9.287 -0.7621  0.5788  0.2965
  275MOL0     H37935   9.207   4.929   9.369  0.4191  0.4758  0.4666
  275MOL0     H37936   9.418   5.373   9.189 -2.0420 -1.0668  1.2360
  275MOL0     H37937   9.525   5.558   9.232 -1.2449 -1.9320 -0.6391
  275MOL0     H37938   9.663   5.714   9.320  1.1679 -0.8951 -0.0787
  275MOL0     H37939   9.557   5.764   9.444  0.8305  1.2567 -2.2022
  275MOL0     H37940   9.732   5.922   9.411  0.7830 -1.3781 -1.0568
  275MOL0     H37941   9.854   5.813   9.471  0.4792 -1.3687 -1.9332
  275MOL0     H37942   9.615   5.860   9.647 -1.0611  1.8624 -1.4324
  275MOL0     H37943   9.777   5.811   9.683  1.2334  0.8498  0.0879
  275MOL0     H37944   9.780   6.017   9.766 -1.0555  0.7882  0.7019
  275MOL0     H37945   9.688   6.086   9.627  0.6799 -0.2507 -2.5938
  275MOL0     H37946  10.054   6.145   9.463 -1.2228 -2.8403 -3.8374
  275MOL0     H37947   9.668   5.375   9.609  0.1469  1.6749 -0.0638
  275MOL0     H37948   9.470   5.115   9.572  0.2055 -0.9046  0.4532
  275MOL0     H37949   9.648   5.091   9.543  2.0779  3.3872 -1.6684
  275MOL0     H37950   9.594   5.184   9.673  2.4010 -0.5102 -0.2867
  276MOL0     O37951   2.634   0.828   0.465  0.6250 -0.7069 -0.3304
  276MOL0     C37952   2.665   0.841   0.587  0.0931 -0.0165 -0.4463
  276MOL0     O37953   2.677   0.736   0.682  0.5933 -0.1579  0.0499
  276MOL0     C37954   2.710   0.609   0.634  0.0406 -1.1637  0.0941
  276MOL0     C37955   2.819   0.536   0.680  0.3870 -0.4897 -0.2975
  276MOL0     C37956   2.838   0.403   0.627 -0.4638  0.7925  0.3801
  276MOL0     C37957   2.738   0.337   0.556 -0.1872 -0.0449 -0.0401
  276MOL0     O37958   2.760   0.203   0.517  0.0673 -0.6548 -0.6367
  276MOL0     C37959   2.728   0.108   0.620  0.6417 -0.4886 -0.1904
  276MOL0     C37960   2.851   0.012   0.625  0.6217 -1.0027  0.5047
  276MOL0     C37961   2.873  -0.067   0.498  1.0083 -0.0963  0.4115
  276MOL0     C37962   3.014  -0.125   0.497  0.1327 -0.4510 -0.8408
  276MOL0     C37963   3.030  -0.230   0.384 -0.2642  1.0275  0.6919
  276MOL0     C37964   3.170  -0.269   0.353 -0.4111 -0.0450 -0.6125
  276MOL0     C37965   3.182  -0.409   0.282  0.4917 -0.1106 -0.1396
  276MOL0     C37966   3.325  -0.456   0.286 -0.4526  0.0037 -0.7151
  276MOL0     N37967   3.430  -0.356   0.252 -0.4477  1.1913  0.5075
  276MOL0     C37968   3.458  -0.295   0.137  0.0569 -0.2670 -0.0005
  276MOL0     C37969   3.548  -0.199   0.173 -0.2519 -0.0674  0.4059
  276MOL0     C37970   3.606  -0.086   0.081  0.1520  0.3011 -0.0555
  276MOL0     C37971   3.512  -0.035  -0.025  0.8262  0.1506  0.1436
  276MOL0     C37972   3.536  -0.100  -0.161  0.1402 -0.4291 -0.3312
  276MOL0     C37973   3.427  -0.060  -0.265 -0.2010 -0.6314 -0.1533
  276MOL0     O37974   3.296  -0.111  -0.218  0.3549 -0.4099  0.5537
  276MOL0     C37975   3.250  -0.228  -0.271 -0.3789  1.0773 -0.1164
  276MOL0     C37976   3.333  -0.326  -0.323 -0.3593 -0.8425  0.1788
  276MOL0     C37977   3.281  -0.457  -0.358 -0.1395 -0.4533 -0.5325
  276MOL0     C37978   3.382  -0.556  -0.418  0.6668 -0.6848  0.0180
  276MOL0     C37979   3.137  -0.484  -0.346 -0.4840  0.5255  0.4127
  276MOL0     C37980   3.068  -0.610  -0.372 -0.1307 -0.4238 -0.0925
  276MOL0     O37981   2.959  -0.634  -0.307 -0.0664 -1.1927  0.2151
  276MOL0     C37982   2.881  -0.738  -0.351 -0.2032 -0.8983  0.0887
  276MOL0     C37983   2.747  -0.698  -0.369 -0.8575 -0.8889 -0.0228
  276MOL0     C37984   2.645  -0.780  -0.421  0.3942  0.0870  0.1690
  276MOL0     C37985   2.678  -0.915  -0.429  0.4385  0.8698  0.1782
  276MOL0     O37986   2.596  -1.012  -0.472 -0.2743 -0.2831 -0.1652
  276MOL0     C37987   2.474  -0.972  -0.536 -0.1936 -0.9768 -0.2786
  276MOL0     C37988   2.429  -1.103  -0.593  0.2388 -0.3673 -0.2014
  276MOL0     C37989   2.293  -1.087  -0.654  0.0633  0.6417 -0.2611
  276MOL0     C37990   2.262  -1.219  -0.729  0.5933  0.7093  0.0984
  276MOL0     C37991   2.127  -1.217  -0.797  0.1974  0.7263  0.6192
  276MOL0     C37992   2.065  -1.356  -0.833 -0.1640  0.4389  0.0907
  276MOL0     C37993   2.139  -1.431  -0.939 -0.4245  0.1453 -0.2721
  276MOL0     C37994   2.069  -1.538  -1.024  0.1917  0.8479 -0.0570
  276MOL0    Cl37995   2.164  -1.555  -1.173 -0.2798 -0.4988  0.3511
  276MOL0     C37996   2.815  -0.958  -0.418  0.0614  0.1317 -0.4394
  276MOL0     C37997   2.922  -0.865  -0.381  1.0471  0.8229  0.5287
  276MOL0     O37998   3.107  -0.672  -0.471 -0.8367  0.8352  0.1653
  276MOL0     C37999   3.063  -0.384  -0.282 -0.0023 -0.2559 -0.0225
  276MOL0     C38000   3.116  -0.267  -0.258  0.3819 -0.1565 -1.5859
  276MOL0     N38001   3.579  -0.211   0.302  0.5067  0.5410 -0.1081
  276MOL0     N38002   3.509  -0.304   0.344  0.0503 -0.5485  0.4983
  276MOL0     C38003   2.619   0.401   0.531  0.5135 -0.1011  0.7541
  276MOL0     C38004   2.608   0.543   0.562  0.7452  0.0179 -0.4627
  276MOL0     C38005   2.661   0.970   0.653  0.1626 -0.3629  0.2370
  276MOL0     C38006   2.620   0.980   0.781  1.0444 -0.4264 -0.3509
  276MOL0     C38007   2.617   1.097   0.853  0.6247  0.7433 -0.5272
  276MOL0     C38008   2.665   1.217   0.803  0.0382  0.0718  0.7146
  276MOL0     O38009   2.666   1.329   0.884  0.0594 -0.7166  0.4500
  276MOL0     C38010   2.730   1.447   0.833 -0.6745 -0.1012  0.6084
  276MOL0     C38011   2.721   1.559   0.936  0.6889  0.1631  0.9001
  276MOL0     C38012   2.774   1.519   1.075  0.7896 -0.2512  0.6189
  276MOL0     C38013   2.928   1.476   1.075  0.0883 -0.3134  0.8714
  276MOL0     C38014   2.979   1.430   1.201 -1.0420  0.3514 -1.4591
  276MOL0     C38015   3.031   1.371   1.293 -0.3054  0.3923 -0.3151
  276MOL0     C38016   2.708   1.212   0.668  0.2378  0.5113  0.6254
  276MOL0     C38017   2.713   1.094   0.597  0.8225  0.9956 -0.1127
  276MOL0     C38018   2.779   1.096   0.463 -0.5833 -0.2200  0.3420
  276MOL0     H38019   2.902   0.579   0.736 -0.8098 -0.9863  1.9556
  276MOL0     H38020   2.935   0.356   0.642 -0.7171  0.8324  2.6120
  276MOL0     H38021   2.640   0.047   0.598  0.0984 -0.7388  2.3989
  276MOL0     H38022   2.707   0.154   0.717 -2.2516 -5.2054  1.7942
  276MOL0     H38023   2.944   0.065   0.646  1.3307 -1.8290 -0.4157
  276MOL0     H38024   2.838  -0.063   0.704  0.5803 -3.8192 -1.9504
  276MOL0     H38025   2.794  -0.142   0.485  0.6488  0.7478 -3.7797
  276MOL0     H38026   2.869  -0.015   0.402 -1.0485 -1.5839 -0.3899
  276MOL0     H38027   3.085  -0.043   0.481 -2.4132  2.8735  2.7865
  276MOL0     H38028   3.029  -0.182   0.590 -0.5147  1.5200  0.5376
  276MOL0     H38029   2.972  -0.201   0.296  1.7851 -1.2384 -1.5581
  276MOL0     H38030   2.986  -0.320   0.427 -1.9641  0.7220 -1.4767
  276MOL0     H38031   3.230  -0.192   0.303 -1.2811  0.7635 -0.4472
  276MOL0     H38032   3.218  -0.271   0.451 -0.8933 -2.9121 -0.3550
  276MOL0     H38033   3.149  -0.391   0.179 -1.8346 -2.3721  0.1169
  276MOL0     H38034   3.128  -0.493   0.325  3.3526 -1.9402  0.1349
  276MOL0     H38035   3.338  -0.505   0.383 -0.9613 -0.8645 -1.0740
  276MOL0     H38036   3.334  -0.538   0.215  0.0840 -1.5491  1.0893
  276MOL0     H38037   3.407  -0.309   0.042 -1.4060 -0.1766  0.7389
  276MOL0     H38038   3.701  -0.119   0.038 -0.1360  1.5743 -1.7789
  276MOL0     H38039   3.632  -0.001   0.144 -1.1649  0.5100  0.2396
  276MOL0     H38040   3.412  -0.065   0.007 -0.4882  0.1654 -3.5538
  276MOL0     H38041   3.522   0.074  -0.027  1.7834  0.0642 -0.8892
  276MOL0     H38042   3.635  -0.069  -0.198 -0.0875 -0.2125 -0.7660
  276MOL0     H38043   3.540  -0.209  -0.153 -2.9010 -0.5971 -0.0841
  276MOL0     H38044   3.428   0.049  -0.271 -0.0745 -0.6121  0.2122
  276MOL0     H38045   3.452  -0.090  -0.367 -0.6159  4.4807 -2.0042
  276MOL0     H38046   3.441  -0.315  -0.316 -0.6403  3.1338  0.5438
  276MOL0     H38047   3.407  -0.637  -0.349  0.9433 -0.7165 -0.1185
  276MOL0     H38048   3.474  -0.501  -0.440 -1.5117  3.4656  0.2969
  276MOL0     H38049   3.346  -0.610  -0.507 -2.7715  0.2014  0.7265
  276MOL0     H38050   2.713  -0.597  -0.347  0.3967 -0.2222 -0.9450
  276MOL0     H38051   2.541  -0.757  -0.441  0.9573 -0.9289 -5.6163
  276MOL0     H38052   2.407  -0.930  -0.459  1.6975 -0.5720  1.2107
  276MOL0     H38053   2.496  -0.895  -0.611 -1.0122  1.0315  1.4212
  276MOL0     H38054   2.507  -1.130  -0.665 -0.0113  1.2738 -1.1273
  276MOL0     H38055   2.425  -1.175  -0.510  1.7099  0.9858  1.1012
  276MOL0     H38056   2.280  -1.008  -0.729 -1.2025 -2.1288 -3.1695
  276MOL0     H38057   2.221  -1.073  -0.573  0.4438  0.0593  0.1813
  276MOL0     H38058   2.271  -1.306  -0.664  1.4562 -0.7984 -1.9290
  276MOL0     H38059   2.348  -1.244  -0.791 -0.2256 -4.1889  0.5809
  276MOL0     H38060   2.056  -1.169  -0.731 -2.1072  0.1133 -1.2665
  276MOL0     H38061   2.129  -1.157  -0.889 -0.0413 -0.7547 -0.4001
  276MOL0     H38062   1.961  -1.345  -0.864  0.7596  3.3201 -2.5332
  276MOL0     H38063   2.058  -1.410  -0.738 -0.2830 -1.3736 -0.9174
  276MOL0     H38064   2.240  -1.460  -0.907 -0.9308 -3.1900 -1.2770
  276MOL0     H38065   2.141  -1.351  -1.013 -2.5494 -0.5246 -1.1356
  276MOL0     H38066   1.972  -1.496  -1.053 -0.0165 -2.0779 -4.6417
  276MOL0     H38067   2.063  -1.635  -0.975  0.9793  0.8808  0.1168
  276MOL0     H38068   2.829  -1.065  -0.428  0.3504  0.1372 -0.1115
  276MOL0     H38069   3.020  -0.907  -0.360 -0.7887 -3.9894  0.7168
  276MOL0     H38070   2.960  -0.397  -0.250  0.5183 -0.5436  1.6684
  276MOL0     H38071   3.056  -0.201  -0.196 -0.3495 -2.4700  0.3275
  276MOL0     H38072   2.542   0.357   0.469 -0.4174  0.2276  1.6495
  276MOL0     H38073   2.519   0.591   0.524  0.9007  0.2839 -0.4966
  276MOL0     H38074   2.574   0.890   0.821  0.4057 -1.0596 -2.3926
  276MOL0     H38075   2.585   1.090   0.957 -3.3852 -0.5923 -1.6702
  276MOL0     H38076   2.829   1.421   0.796  0.3485  0.6666  2.6557
  276MOL0     H38077   2.668   1.471   0.747 -0.6844  1.3836  0.9915
  276MOL0     H38078   2.612   1.570   0.943  0.2409 -1.2649 -2.0540
  276MOL0     H38079   2.777   1.643   0.896  0.1752 -0.7534 -2.0395
  276MOL0     H38080   2.758   1.597   1.151  1.6507  0.9582 -0.4128
  276MOL0     H38081   2.712   1.433   1.105 -3.1698  2.5422  1.2621
  276MOL0     H38082   2.984   1.556   1.025 -0.4230 -1.2679 -1.3082
  276MOL0     H38083   2.927   1.401   0.996 -2.2524  1.2769 -0.7482
  276MOL0     H38084   3.078   1.316   1.372 -2.2579 -1.5580 -0.3994
  276MOL0     H38085   2.740   1.298   0.611  0.0225 -1.3905 -2.6303
  276MOL0     H38086   2.859   1.023   0.448 -1.7656 -1.0485 -2.6962
  276MOL0     H38087   2.706   1.090   0.382  1.2031  1.6067 -1.5355
  276MOL0     H38088   2.841   1.185   0.446 -1.7750  0.3589 -1.2104
  277MOL0     O38089   4.015  11.124   2.423 -0.0024  0.3767  0.7086
  277MOL0     C38090   4.093  11.214   2.404  0.9431 -0.0639  0.0177
  277MOL0     O38091   4.171  11.226   2.295 -0.9326 -1.1124 -0.3454
  277MOL0     C38092   4.204  11.127   2.204 -0.0803 -0.7614  0.0448
  277MOL0     C38093   4.226  10.999   2.247 -0.2285 -0.4205  0.8730
  277MOL0     C38094   4.269  10.902   2.146 -0.7952 -0.8478 -0.1380
  277MOL0     C38095   4.297  10.939   2.009  0.5675  0.1639 -0.0380
  277MOL0     O38096   4.318  10.836   1.916  0.2592 -0.1928 -0.4031
  277MOL0     C38097   4.379  10.871   1.789  0.3345  0.0810  0.1075
  277MOL0     C38098   4.526  10.895   1.803  0.6424 -0.6064  0.5613
  277MOL0     C38099   4.586  10.889   1.664 -0.5347  1.0024  0.6598
  277MOL0     C38100   4.727  10.819   1.664  0.4649  0.1768 -0.1059
  277MOL0     C38101   4.775  10.766   1.530 -0.1820  0.3461  0.1697
  277MOL0     C38102   4.692  10.647   1.492 -0.6200  0.3277  0.0474
  277MOL0     C38103   4.629  10.662   1.355 -0.5008 -0.1577  0.4495
  277MOL0     C38104   4.569  10.527   1.322 -0.4516 -0.7356 -0.5777
  277MOL0     N38105   4.499  10.538   1.190 -0.1437  0.7797 -0.1566
  277MOL0     C38106   4.405  10.448   1.148 -0.2516 -0.3463 -0.3366
  277MOL0     C38107   4.375  10.492   1.022 -0.4721  0.6789 -0.7124
  277MOL0     C38108   4.279  10.410   0.932  0.3690 -1.0631  0.2355
  277MOL0     C38109   4.167  10.490   0.865  0.2911 -0.8886  0.1729
  277MOL0     C38110   4.224  10.561   0.751  1.1236 -0.0634 -0.0253
  277MOL0     C38111   4.114  10.647   0.669  0.4060  0.7717 -0.2890
  277MOL0     O38112   3.995  10.578   0.623 -0.4123  0.0978  0.5218
  277MOL0     C38113   3.998  10.527   0.495 -0.8422  0.1287 -1.6066
  277MOL0     C38114   3.871  10.489   0.451  0.1629  0.2548  0.5826
  277MOL0     C38115   3.853  10.439   0.321  0.2808 -1.1514 -0.2783
  277MOL0     C38116   3.710  10.423   0.278  0.4627 -0.8547 -0.4487
  277MOL0     C38117   3.963  10.417   0.241  0.2881 -0.0557  0.8988
  277MOL0     C38118   3.946  10.387   0.098 -0.5650  1.1840 -0.0689
  277MOL0     O38119   3.851  10.294   0.056 -0.0532  0.9209  0.2901
  277MOL0     C38120   3.824  10.272  -0.073 -0.1863 -0.0730  1.2463
  277MOL0     C38121   3.875  10.166  -0.155 -0.7220  0.2663 -0.3969
  277MOL0     C38122   3.836  10.138  -0.284 -0.2988  1.1614 -1.7938
  277MOL0     C38123   3.732  10.210  -0.347  0.5450 -0.3695  0.2077
  277MOL0     O38124   3.687  10.178  -0.476  0.0514  0.7466  0.1513
  277MOL0     C38125   3.728  10.063  -0.549 -0.4729  0.1459 -0.0451
  277MOL0     C38126   3.662  10.047  -0.679  0.4367  0.0419  0.2326
  277MOL0     C38127   3.658  10.169  -0.758 -0.2271 -0.2561  0.5118
  277MOL0     C38128   3.588  10.135  -0.896  0.0057  0.2053 -0.6250
  277MOL0     C38129   3.610  10.248  -0.995  0.1981  0.3300 -0.0862
  277MOL0     C38130   3.754  10.247  -1.064 -0.2902 -0.2610  0.0726
  277MOL0     C38131   3.753  10.365  -1.158  0.8052 -0.0386 -0.4414
  277MOL0     C38132   3.871  10.364  -1.253 -1.3231  0.5999 -0.5526
  277MOL0    Cl38133   3.856  10.488  -1.368 -0.1702  0.2803  0.1750
  277MOL0     C38134   3.668  10.312  -0.262 -0.7329  0.3249  0.1824
  277MOL0     C38135   3.717  10.337  -0.134  0.1997  0.4089 -0.2445
  277MOL0     O38136   4.015  10.445   0.018 -0.2533  0.1164  0.3782
  277MOL0     C38137   4.091  10.446   0.290  0.2903 -0.1537  0.5887
  277MOL0     C38138   4.109  10.495   0.420  0.1600 -1.0892 -0.4395
  277MOL0     N38139   4.439  10.610   0.993  0.5972 -0.0722 -1.1096
  277MOL0     N38140   4.514  10.624   1.094  0.2318  0.1180 -0.3174
  277MOL0     C38141   4.279  11.076   1.974  0.9961 -0.0924 -0.2502
  277MOL0     C38142   4.234  11.161   2.072 -0.4158 -0.8835  0.1095
  277MOL0     C38143   4.105  11.318   2.503 -0.0128 -0.0695 -0.1425
  277MOL0     C38144   4.138  11.450   2.454 -0.1782 -0.2674  0.6307
  277MOL0     C38145   4.153  11.551   2.542  0.6892  0.1710  0.1929
  277MOL0     C38146   4.116  11.550   2.676  0.1844 -0.5407  0.6838
  277MOL0     O38147   4.135  11.665   2.747  0.2646  0.2215  0.2369
  277MOL0     C38148   4.136  11.668   2.884  0.3291  0.2138  0.2169
  277MOL0     C38149   4.204  11.794   2.937 -1.0269  0.5442  0.4707
  277MOL0     C38150   4.158  11.930   2.888 -0.0485  0.4805  0.4973
  277MOL0     C38151   4.003  11.942   2.866  0.4051 -0.3259  0.5107
  277MOL0     C38152   3.986  12.060   2.779  1.3252  0.2110 -0.7762
  277MOL0     C38153   3.962  12.147   2.695  0.9049 -0.6054 -0.0338
  277MOL0     C38154   4.078  11.421   2.727 -0.1849  0.2437  0.3404
  277MOL0     C38155   4.067  11.313   2.639 -0.1243  0.0821  0.1550
  277MOL0     C38156   4.018  11.184   2.703 -0.1389  0.3973 -0.2006
  277MOL0     H38157   4.218  10.963   2.349 -1.3364  1.9958  1.7132
  277MOL0     H38158   4.281  10.797   2.172  0.1505 -1.0919 -1.4226
  277MOL0     H38159   4.324  10.946   1.732 -1.6249 -0.7597  0.7901
  277MOL0     H38160   4.379  10.778   1.732 -0.5107 -0.9341  1.6540
  277MOL0     H38161   4.546  10.989   1.857  0.7824 -1.2156  1.5941
  277MOL0     H38162   4.566  10.810   1.857 -1.1557 -2.6464 -1.1304
  277MOL0     H38163   4.525  10.828   1.597 -0.3902  1.2780  0.2814
  277MOL0     H38164   4.601  10.990   1.626 -0.5253  1.0315  0.7403
  277MOL0     H38165   4.800  10.891   1.704  2.9462 -3.5184  2.6858
  277MOL0     H38166   4.713  10.727   1.722 -0.6041 -0.9386 -2.0467
  277MOL0     H38167   4.880  10.735   1.535 -0.2822  0.1963  1.7947
  277MOL0     H38168   4.770  10.849   1.459 -2.2534  0.4595  0.3882
  277MOL0     H38169   4.756  10.559   1.505  1.0642  1.9621  4.8301
  277MOL0     H38170   4.608  10.624   1.558  0.0331 -3.1652 -0.1456
  277MOL0     H38171   4.704  10.672   1.276 -0.0011 -0.8827  0.8251
  277MOL0     H38172   4.550  10.739   1.352  0.2424  0.5916 -1.0154
  277MOL0     H38173   4.648  10.451   1.316  1.9115  1.4885  0.2524
  277MOL0     H38174   4.503  10.493   1.402 -0.9412 -0.6041 -0.9193
  277MOL0     H38175   4.388  10.354   1.200 -0.0131  1.2170  2.7989
  277MOL0     H38176   4.241  10.327   0.993 -1.0719 -1.2214 -0.8295
  277MOL0     H38177   4.342  10.372   0.851  0.8831  1.2460 -0.5323
  277MOL0     H38178   4.090  10.422   0.828  3.2764 -4.0960 -0.6104
  277MOL0     H38179   4.117  10.560   0.933 -1.2438 -1.7186 -0.0546
  277MOL0     H38180   4.309  10.626   0.777  1.1706  0.0301 -0.3998
  277MOL0     H38181   4.268  10.486   0.685 -2.5355 -3.3655  0.9188
  277MOL0     H38182   4.092  10.729   0.738  0.1416  1.1093 -0.7705
  277MOL0     H38183   4.162  10.688   0.580 -1.8936  0.3840 -1.7656
  277MOL0     H38184   3.783  10.506   0.512 -0.3704  1.2630 -0.4313
  277MOL0     H38185   3.642  10.447   0.360 -0.3969 -2.2629 -0.7102
  277MOL0     H38186   3.683  10.319   0.256 -1.9000 -0.0408 -1.6931
  277MOL0     H38187   3.693  10.486   0.191  2.2170 -0.0397 -0.2331
  277MOL0     H38188   3.948  10.104  -0.103 -0.4626 -0.2644 -1.3677
  277MOL0     H38189   3.891  10.060  -0.335 -0.3961  0.0835 -0.3343
  277MOL0     H38190   3.836  10.055  -0.562 -0.2162 -0.6614  2.2257
  277MOL0     H38191   3.716   9.973  -0.488 -0.5235 -0.1229 -0.4460
  277MOL0     H38192   3.714   9.970  -0.735  1.2574 -2.7163  4.3755
  277MOL0     H38193   3.560  10.007  -0.672 -0.6488  1.9452 -2.5796
  277MOL0     H38194   3.758  10.207  -0.781  0.7377 -0.3361  4.0625
  277MOL0     H38195   3.616  10.253  -0.701 -0.1762 -0.7809  1.3310
  277MOL0     H38196   3.480  10.122  -0.885 -0.2263  0.9370 -1.8329
  277MOL0     H38197   3.628  10.039  -0.931 -1.0684 -1.8438  3.1248
  277MOL0     H38198   3.532  10.248  -1.073  0.5176 -1.7204 -0.4835
  277MOL0     H38199   3.603  10.342  -0.941 -2.2060  1.5454 -2.2960
  277MOL0     H38200   3.773  10.150  -1.111  1.8987 -0.6787  1.6823
  277MOL0     H38201   3.832  10.262  -0.989 -0.7649  2.2561  0.1321
  277MOL0     H38202   3.751  10.456  -1.096  4.5750 -0.5350  0.6169
  277MOL0     H38203   3.661  10.364  -1.218  2.6200 -0.0265 -3.4437
  277MOL0     H38204   3.881  10.262  -1.290  0.5148 -0.2973  2.1301
  277MOL0     H38205   3.960  10.377  -1.192 -1.7472 -0.8084  0.4035
  277MOL0     H38206   3.584  10.372  -0.295  1.4118  4.8229  2.0215
  277MOL0     H38207   3.665  10.423  -0.093  2.6642  2.8254 -1.8314
  277MOL0     H38208   4.178  10.423   0.229 -1.2283 -1.4182 -1.2279
  277MOL0     H38209   4.207  10.511   0.465  0.0088 -0.1528 -0.4418
  277MOL0     H38210   4.315  11.133   1.889  2.4699  1.1410  1.1324
  277MOL0     H38211   4.247  11.268   2.061  1.6525 -1.1656 -0.5443
  277MOL0     H38212   4.162  11.464   2.349 -0.7938 -0.1855  0.4939
  277MOL0     H38213   4.181  11.649   2.506  0.9519 -0.6672 -2.0359
  277MOL0     H38214   4.035  11.668   2.926 -0.6490  3.7594 -1.6518
  277MOL0     H38215   4.179  11.573   2.916 -2.7285 -2.3147 -2.5210
  277MOL0     H38216   4.308  11.783   2.904 -1.9297 -1.6043 -2.0674
  277MOL0     H38217   4.193  11.803   3.045 -1.3250  0.0908  0.4815
  277MOL0     H38218   4.180  12.007   2.962 -2.1593  0.1341  1.5426
  277MOL0     H38219   4.204  11.952   2.791 -0.2721  0.5888  0.4153
  277MOL0     H38220   3.948  11.972   2.956 -0.9021  2.4907 -1.1028
  277MOL0     H38221   3.953  11.861   2.813 -2.5354  0.3502  2.0171
  277MOL0     H38222   3.945  12.224   2.623  0.8585 -0.6349 -0.0543
  277MOL0     H38223   4.052  11.410   2.832 -0.1687  0.6281  0.3890
  277MOL0     H38224   4.069  11.096   2.662  1.9301  0.1119  2.6448
  277MOL0     H38225   4.041  11.186   2.810 -2.4886 -2.2489  0.4682
  277MOL0     H38226   3.911  11.165   2.694 -0.2106  0.6541  0.0764
  278MOL0     O38227   2.642   9.277   5.345  0.2020 -0.9185 -0.0292
  278MOL0     C38228   2.554   9.308   5.427 -1.0538  0.4327  0.8233
  278MOL0     O38229   2.579   9.328   5.558 -0.2248 -0.1277  0.3122
  278MOL0     C38230   2.701   9.289   5.613 -0.1777  0.9882  0.4375
  278MOL0     C38231   2.759   9.165   5.580  0.4306  0.1620 -0.2355
  278MOL0     C38232   2.869   9.111   5.654  0.2506  0.0496 -0.4869
  278MOL0     C38233   2.922   9.187   5.764  0.2593  1.5689  0.2864
  278MOL0     O38234   3.029   9.141   5.835 -0.6486 -0.2701 -0.8786
  278MOL0     C38235   3.030   9.006   5.887  0.6272  0.0814 -0.2569
  278MOL0     C38236   3.163   8.947   5.864 -0.1194  0.5099 -0.5843
  278MOL0     C38237   3.271   9.020   5.944  0.8942  0.5163  1.1095
  278MOL0     C38238   3.414   8.986   5.890  0.5435 -0.3178  0.0260
  278MOL0     C38239   3.520   9.077   5.962  0.2289  0.1183  0.0585
  278MOL0     C38240   3.665   9.009   5.965  0.1328  0.2713  0.2901
  278MOL0     C38241   3.756   9.105   6.044  0.0058 -0.3186 -0.6007
  278MOL0     C38242   3.902   9.069   6.025 -0.2279 -0.3562 -0.1964
  278MOL0     N38243   3.970   8.971   6.118  0.7571  0.5690  0.2329
  278MOL0     C38244   3.899   8.919   6.227  0.2419 -0.3324  0.3092
  278MOL0     C38245   3.987   8.832   6.280  0.3446  0.3673 -0.2760
  278MOL0     C38246   3.943   8.721   6.376 -0.4327  0.5865 -0.0669
  278MOL0     C38247   4.045   8.677   6.486 -0.7900  0.5794 -0.2536
  278MOL0     C38248   4.163   8.585   6.441  0.6215  0.1807  0.5509
  278MOL0     C38249   4.269   8.572   6.552 -0.3097  0.0502  0.5157
  278MOL0     O38250   4.394   8.544   6.487 -0.3487  0.3324  0.0588
  278MOL0     C38251   4.436   8.411   6.484 -0.0258 -0.4008 -0.2464
  278MOL0     C38252   4.376   8.338   6.379 -0.7032  0.7391 -1.2720
  278MOL0     C38253   4.408   8.202   6.375  0.6161  0.0849  0.1310
  278MOL0     C38254   4.317   8.128   6.279  1.0296 -0.4497 -0.2061
  278MOL0     C38255   4.510   8.146   6.461  1.6526 -0.8890  0.9539
  278MOL0     C38256   4.556   8.013   6.451  1.1303  0.3662 -0.3975
  278MOL0     O38257   4.594   7.958   6.569 -0.2550 -0.8841 -0.7607
  278MOL0     C38258   4.636   7.822   6.572 -0.0226 -1.4632  0.4624
  278MOL0     C38259   4.559   7.716   6.530 -0.0064 -0.8728 -0.8299
  278MOL0     C38260   4.619   7.589   6.524 -0.7106  0.7018  0.5295
  278MOL0     C38261   4.742   7.553   6.562  0.1005 -0.9235 -0.2932
  278MOL0     O38262   4.797   7.430   6.578 -0.8781 -0.0779  0.3091
  278MOL0     C38263   4.721   7.310   6.551  0.5963  0.5722  0.2827
  278MOL0     C38264   4.806   7.195   6.580 -0.4375  0.2741 -0.2278
  278MOL0     C38265   4.743   7.110   6.690 -0.9041  0.3903 -1.0882
  278MOL0     C38266   4.840   7.009   6.738 -1.0497  1.0288  1.0514
  278MOL0     C38267   4.797   6.936   6.871  0.3796  1.1392 -0.2131
  278MOL0     C38268   4.916   6.861   6.924 -0.1353  0.8634  0.1394
  278MOL0     C38269   4.879   6.766   7.038  0.7514  0.7880  0.3405
  278MOL0     C38270   4.915   6.833   7.173  0.8194  0.2362  0.2962
  278MOL0    Cl38271   4.864   6.729   7.299  0.0375 -0.1485  0.0366
  278MOL0     C38272   4.815   7.667   6.601  0.7319  1.1551 -0.7284
  278MOL0     C38273   4.772   7.800   6.604  0.1371  0.2442 -0.5033
  278MOL0     O38274   4.559   7.954   6.342  0.9229  0.0627 -0.7747
  278MOL0     C38275   4.565   8.230   6.554  0.3259  0.5414  0.6201
  278MOL0     C38276   4.537   8.366   6.564 -0.3718 -0.5584  0.1365
  278MOL0     N38277   4.102   8.829   6.207 -0.1318 -0.9954 -0.0836
  278MOL0     N38278   4.092   8.910   6.104  0.0887  1.1439  0.7603
  278MOL0     C38279   2.874   9.319   5.782  1.3816 -0.3345  0.0695
  278MOL0     C38280   2.755   9.367   5.717 -0.3304 -0.6798  0.9640
  278MOL0     C38281   2.412   9.348   5.368  0.0956 -0.1262 -0.1633
  278MOL0     C38282   2.358   9.466   5.422  1.7711  0.0863 -0.0640
  278MOL0     C38283   2.236   9.506   5.362  0.2250 -0.7961  0.2139
  278MOL0     C38284   2.175   9.438   5.257  0.3843  0.6395  0.5277
  278MOL0     O38285   2.072   9.499   5.184 -0.2327  0.3801 -0.6402
  278MOL0     C38286   2.104   9.600   5.094 -0.0149  0.8776  0.9442
  278MOL0     C38287   2.099   9.738   5.177 -0.2617  0.0729 -1.0792
  278MOL0     C38288   2.126   9.846   5.080  0.4726 -0.2396  0.1606
  278MOL0     C38289   2.083   9.984   5.127 -0.0031  0.1014  0.2601
  278MOL0     C38290   2.164  10.047   5.231  0.4349 -0.2811  0.3449
  278MOL0     C38291   2.231  10.092   5.321 -0.7976 -0.1143  1.2210
  278MOL0     C38292   2.229   9.315   5.209  0.0509  0.4211 -1.0104
  278MOL0     C38293   2.353   9.265   5.266  0.1014  0.3637  0.1610
  278MOL0     C38294   2.425   9.139   5.217 -0.4268 -0.3699 -0.1307
  278MOL0     H38295   2.721   9.116   5.491 -0.0973 -0.6406  0.4120
  278MOL0     H38296   2.925   9.018   5.646  1.6145  0.4232  3.0593
  278MOL0     H38297   2.952   8.942   5.846 -2.2208  2.5034  1.0154
  278MOL0     H38298   3.023   9.001   5.996 -1.3840 -4.0630 -0.4082
  278MOL0     H38299   3.162   8.852   5.917 -1.6453  1.1187  0.5534
  278MOL0     H38300   3.185   8.921   5.760 -0.5207 -1.9794 -0.0928
  278MOL0     H38301   3.261   9.129   5.945 -1.1603  0.3823  3.2699
  278MOL0     H38302   3.280   8.985   6.048  0.9400  0.0811  0.9609
  278MOL0     H38303   3.433   8.880   5.907 -0.8508 -0.8056 -1.2893
  278MOL0     H38304   3.417   8.984   5.781 -1.8492  0.1239 -0.1018
  278MOL0     H38305   3.489   9.103   6.064  0.1781  2.8505 -0.5699
  278MOL0     H38306   3.530   9.169   5.903  0.4003 -0.9177 -1.5801
  278MOL0     H38307   3.657   8.911   6.014  2.4474  0.6342  1.5200
  278MOL0     H38308   3.700   9.000   5.862 -0.6288  2.2986 -0.1980
  278MOL0     H38309   3.723   9.103   6.148 -0.7849 -0.2799 -0.8431
  278MOL0     H38310   3.733   9.205   6.007 -0.7864 -0.8370 -1.5495
  278MOL0     H38311   3.920   9.037   5.922 -1.9016 -0.8174 -0.3669
  278MOL0     H38312   3.958   9.163   6.027  0.0951 -0.5360  2.4225
  278MOL0     H38313   3.793   8.930   6.248  0.0834 -0.4497 -0.4118
  278MOL0     H38314   3.905   8.636   6.317 -1.8809  1.2400 -0.1208
  278MOL0     H38315   3.856   8.761   6.428 -0.6521  0.9643 -0.7138
  278MOL0     H38316   4.091   8.771   6.516 -0.3181 -0.1345  1.3737
  278MOL0     H38317   3.995   8.644   6.577  1.1680  1.4912  1.2295
  278MOL0     H38318   4.130   8.483   6.423  0.8700  0.1169  0.4568
  278MOL0     H38319   4.219   8.630   6.358  0.9831  1.3474  1.4037
  278MOL0     H38320   4.293   8.671   6.592  0.7742 -0.3784  0.9782
  278MOL0     H38321   4.223   8.511   6.630 -4.4799  1.8016 -0.3105
  278MOL0     H38322   4.297   8.387   6.323 -1.4560  3.3824  1.8411
  278MOL0     H38323   4.222   8.097   6.325 -0.3115  0.2251 -2.3780
  278MOL0     H38324   4.358   8.032   6.245 -0.8354 -1.3039 -0.1791
  278MOL0     H38325   4.288   8.174   6.184  1.1858  2.8435  1.2061
  278MOL0     H38326   4.463   7.753   6.495  0.8977  3.0455  0.3284
  278MOL0     H38327   4.558   7.510   6.481 -0.5354  1.5924 -1.4774
  278MOL0     H38328   4.625   7.308   6.604 -0.5762  4.7294 -1.2896
  278MOL0     H38329   4.685   7.314   6.448  1.2980  0.7551  0.0453
  278MOL0     H38330   4.825   7.124   6.499  0.7447 -1.9368  1.8588
  278MOL0     H38331   4.901   7.231   6.621 -1.5548  0.0371  2.7647
  278MOL0     H38332   4.662   7.054   6.641  1.0925 -1.3775 -2.5355
  278MOL0     H38333   4.688   7.165   6.767  0.2151 -0.6063  0.4746
  278MOL0     H38334   4.922   7.073   6.769 -1.0756  2.6505 -1.9404
  278MOL0     H38335   4.876   6.942   6.659  0.5653  1.4435  1.4067
  278MOL0     H38336   4.763   7.008   6.946  0.6442 -1.7721  2.9405
  278MOL0     H38337   4.707   6.876   6.853 -1.1733  2.6603  1.9807
  278MOL0     H38338   5.002   6.929   6.930 -0.1214  1.0774 -1.8912
  278MOL0     H38339   4.945   6.786   6.851 -0.9412  2.4808 -1.9458
  278MOL0     H38340   4.897   6.658   7.033 -1.6420  0.1336  3.1429
  278MOL0     H38341   4.770   6.760   7.034  0.7260  1.9849 -2.1388
  278MOL0     H38342   4.863   6.929   7.178  5.2438  2.9869 -1.0271
  278MOL0     H38343   5.023   6.849   7.175  0.6782  1.2011  1.1106
  278MOL0     H38344   4.909   7.630   6.639  0.4958 -2.4342 -3.1890
  278MOL0     H38345   4.845   7.877   6.623 -1.3335  1.0186  2.6285
  278MOL0     H38346   4.650   8.201   6.615 -0.1938 -0.8510  0.7172
  278MOL0     H38347   4.581   8.435   6.635  0.8335  0.6348 -1.6740
  278MOL0     H38348   2.931   9.376   5.854  3.2150 -1.9706 -0.0086
  278MOL0     H38349   2.731   9.472   5.729  2.4968 -0.0994  2.2041
  278MOL0     H38350   2.373   9.517   5.516 -0.2641 -1.4226  1.1719
  278MOL0     H38351   2.196   9.599   5.400  2.2518 -0.1364  0.8733
  278MOL0     H38352   2.206   9.584   5.058 -0.4674 -3.9141  1.1929
  278MOL0     H38353   2.033   9.614   5.011  0.3634 -2.2481 -0.0282
  278MOL0     H38354   2.173   9.732   5.257 -1.2719 -0.8764 -0.1851
  278MOL0     H38355   1.999   9.744   5.221  1.2564  1.3812  2.5710
  278MOL0     H38356   2.228   9.853   5.042 -0.0939  2.8048 -1.0544
  278MOL0     H38357   2.062   9.822   4.995 -0.4401  0.5340  0.6098
  278MOL0     H38358   1.978   9.978   5.156  0.8134 -1.2296  3.2964
  278MOL0     H38359   2.089  10.048   5.038 -3.1997  1.7417  1.0513
  278MOL0     H38360   2.298  10.129   5.396  1.9666 -1.1188 -0.6049
  278MOL0     H38361   2.180   9.256   5.133  1.9384 -0.8649 -1.3081
  278MOL0     H38362   2.357   9.092   5.145 -0.8852  1.2728 -0.8267
  278MOL0     H38363   2.515   9.149   5.156  0.1310 -5.2963 -0.5350
  278MOL0     H38364   2.451   9.078   5.304 -0.3238 -1.0276 -0.6175
  279MOL0     O38365   3.160  10.328   6.145  0.6355  0.1822  0.2023
  279MOL0     C38366   3.242  10.418   6.117 -0.6677  0.1664 -0.2271
  279MOL0     O38367   3.277  10.461   5.991  0.3763 -1.0572  0.8257
  279MOL0     C38368   3.220  10.392   5.894  0.9335  0.1505 -0.1179
  279MOL0     C38369   3.278  10.267   5.862  0.9653  0.7749 -0.6799
  279MOL0     C38370   3.224  10.185   5.758 -0.4185  0.3292  0.6725
  279MOL0     C38371   3.134  10.234   5.671  0.3824  1.1929 -0.5428
  279MOL0     O38372   3.081  10.151   5.578 -0.5301  0.3913 -0.4120
  279MOL0     C38373   3.011  10.201   5.462 -0.1563  0.2412  0.5057
  279MOL0     C38374   3.076  10.124   5.341 -0.6347 -0.3412 -0.4430
  279MOL0     C38375   3.051  10.183   5.196  0.0684  1.2544  0.2883
  279MOL0     C38376   3.070  10.083   5.075 -0.8688  0.2358 -1.1921
  279MOL0     C38377   3.201  10.010   5.061 -0.0419  0.3279 -0.2385
  279MOL0     C38378   3.329  10.096   5.076 -0.6129 -0.5883 -0.2932
  279MOL0     C38379   3.457  10.005   5.075 -0.0014 -0.0455  1.1909
  279MOL0     C38380   3.470   9.886   4.980  0.4046 -0.4500 -0.1751
  279MOL0     N38381   3.450   9.930   4.839  0.0773  0.2767 -1.2758
  279MOL0     C38382   3.509  10.029   4.759 -0.1862  0.5729  0.3880
  279MOL0     C38383   3.451  10.027   4.641 -0.2847  0.4475 -0.4636
  279MOL0     C38384   3.493  10.132   4.536 -0.1635  0.2808  0.2054
  279MOL0     C38385   3.421  10.257   4.547 -0.4716 -1.0614  0.3438
  279MOL0     C38386   3.483  10.388   4.482 -0.5873  0.5121  0.1729
  279MOL0     C38387   3.587  10.440   4.584 -0.5967 -0.3283 -0.1547
  279MOL0     O38388   3.523  10.539   4.680  0.0469  0.7722  0.1501
  279MOL0     C38389   3.597  10.616   4.754 -1.0469 -0.2525 -0.4567
  279MOL0     C38390   3.740  10.637   4.739  0.8430 -0.5799 -0.4510
  279MOL0     C38391   3.813  10.721   4.822 -0.0109  0.3572 -1.6262
  279MOL0     C38392   3.958  10.717   4.786 -0.3044  0.0361 -0.5307
  279MOL0     C38393   3.744  10.794   4.929  0.0365  0.1308  1.1240
  279MOL0     C38394   3.809  10.863   5.028  0.1975 -0.0879 -0.6582
  279MOL0     O38395   3.725  10.899   5.136 -0.1245 -0.0468  0.5274
  279MOL0     C38396   3.735  11.008   5.220 -0.2610  0.3691 -0.3123
  279MOL0     C38397   3.770  11.135   5.165  0.1217  0.1119  0.0424
  279MOL0     C38398   3.771  11.254   5.245 -0.0533  0.6750 -0.4542
  279MOL0     C38399   3.716  11.244   5.378 -0.1500  0.5244  0.6241
  279MOL0     O38400   3.697  11.361   5.445 -0.7145 -0.4035 -0.2801
  279MOL0     C38401   3.569  11.421   5.437  0.2289  0.6509  0.1820
  279MOL0     C38402   3.521  11.447   5.578 -0.2620  0.5190 -0.2396
  279MOL0     C38403   3.384  11.518   5.584  0.4873 -1.4160  0.9476
  279MOL0     C38404   3.288  11.471   5.690 -0.4141  0.6886 -0.2458
  279MOL0     C38405   3.166  11.577   5.710  1.2268  0.1923 -0.0197
  279MOL0     C38406   3.209  11.701   5.791 -0.3505 -0.4331  1.3991
  279MOL0     C38407   3.251  11.682   5.932  0.8370  0.3276 -0.2249
  279MOL0     C38408   3.370  11.773   5.965  0.1871 -0.0573 -0.0390
  279MOL0    Cl38409   3.520  11.686   5.907  0.2178  0.2160 -0.4433
  279MOL0     C38410   3.671  11.121   5.428  0.5656  0.1766 -0.5051
  279MOL0     C38411   3.694  11.003   5.353 -0.4471 -0.0612 -0.1067
  279MOL0     O38412   3.929  10.880   5.030 -0.1133  0.1810 -0.1489
  279MOL0     C38413   3.603  10.779   4.933 -0.0419  0.1711 -0.4270
  279MOL0     C38414   3.535  10.685   4.853 -0.8404 -1.1224 -0.3309
  279MOL0     N38415   3.362   9.921   4.644  0.0318 -1.1901 -0.1141
  279MOL0     N38416   3.355   9.870   4.763 -1.3665 -0.2579  0.4637
  279MOL0     C38417   3.084  10.360   5.698  0.3559 -0.1400  0.0547
  279MOL0     C38418   3.121  10.441   5.812 -0.0375  0.0766 -0.4799
  279MOL0     C38419   3.322  10.476   6.224 -0.4793  0.8639 -0.1534
  279MOL0     C38420   3.354  10.614   6.221  0.0432  0.1033  0.1975
  279MOL0     C38421   3.414  10.678   6.329  0.1251  0.8608 -0.0111
  279MOL0     C38422   3.460  10.599   6.444  0.0620 -0.0637  0.1260
  279MOL0     O38423   3.554  10.653   6.536  0.1376 -0.3648 -0.3049
  279MOL0     C38424   3.636  10.559   6.613  0.0497 -0.3862  0.4814
  279MOL0     C38425   3.753  10.645   6.652 -0.2525 -0.5792 -0.1895
  279MOL0     C38426   3.820  10.695   6.528 -0.4445  0.4120  0.1857
  279MOL0     C38427   3.923  10.804   6.560  1.5752  0.4126  0.9176
  279MOL0     C38428   4.033  10.736   6.632  0.5206 -0.9308  0.0188
  279MOL0     C38429   4.105  10.681   6.703  0.2691  0.2106  0.3373
  279MOL0     C38430   3.431  10.469   6.439 -0.0374 -0.6446  0.3212
  279MOL0     C38431   3.367  10.400   6.330  0.4928 -0.0438 -0.0525
  279MOL0     C38432   3.330  10.259   6.353 -0.2800 -0.0133 -0.1082
  279MOL0     H38433   3.363  10.224   5.915 -0.4001  1.6475  2.5096
  279MOL0     H38434   3.259  10.085   5.734 -2.4971 -0.7321  1.7478
  279MOL0     H38435   3.028  10.308   5.447 -0.7298  0.3764  0.8099
  279MOL0     H38436   2.903  10.181   5.470 -0.5607  1.7841 -0.4551
  279MOL0     H38437   3.182  10.129   5.364 -0.7787 -0.3145  0.2382
  279MOL0     H38438   3.055  10.016   5.346 -3.1158 -0.0062 -1.7103
  279MOL0     H38439   2.944  10.208   5.197 -0.5230 -1.0233 -0.2340
  279MOL0     H38440   3.109  10.275   5.179 -1.0838  1.7865 -0.9929
  279MOL0     H38441   2.997  10.001   5.073  0.4378 -1.2347  2.8084
  279MOL0     H38442   3.058  10.147   4.986 -0.2290 -0.5090 -1.8265
  279MOL0     H38443   3.196   9.961   4.963  1.4561 -2.9691  1.1910
  279MOL0     H38444   3.195   9.929   5.135  0.2174 -0.3372 -0.9298
  279MOL0     H38445   3.324  10.168   4.994  1.5838 -2.1418 -1.9199
  279MOL0     H38446   3.331  10.157   5.167  1.9963  0.4337 -0.9554
  279MOL0     H38447   3.467   9.973   5.179  3.9251 -1.2057  0.6105
  279MOL0     H38448   3.541  10.069   5.048 -2.0432  1.7308 -1.3708
  279MOL0     H38449   3.564   9.836   5.007 -0.1730 -0.7268  1.4590
  279MOL0     H38450   3.392   9.818   5.015  0.9044 -1.2224 -0.5406
  279MOL0     H38451   3.586  10.092   4.802  1.1054 -0.9865  0.4245
  279MOL0     H38452   3.491  10.090   4.435  0.8995 -0.4298  0.4667
  279MOL0     H38453   3.596  10.147   4.568 -1.1871  3.1318  2.6451
  279MOL0     H38454   3.323  10.236   4.502 -0.4740  0.3830 -0.3917
  279MOL0     H38455   3.392  10.287   4.648 -1.2953  2.0406 -0.7021
  279MOL0     H38456   3.542  10.370   4.392  0.6320 -0.2377  1.0929
  279MOL0     H38457   3.402  10.459   4.464 -0.8666  0.7062  1.9925
  279MOL0     H38458   3.641  10.357   4.630  0.2193  1.6842  2.8554
  279MOL0     H38459   3.662  10.496   4.528 -0.6494 -0.9319 -0.8414
  279MOL0     H38460   3.801  10.580   4.670  1.3615  1.1268 -1.4647
  279MOL0     H38461   3.992  10.814   4.749 -0.4151 -0.2330 -1.3529
  279MOL0     H38462   3.984  10.633   4.720 -0.2064 -0.8571  0.5978
  279MOL0     H38463   4.008  10.703   4.883  0.6451 -4.1245 -1.4285
  279MOL0     H38464   3.792  11.123   5.059 -3.3581 -1.0615 -0.6937
  279MOL0     H38465   3.809  11.347   5.204  1.3437  1.1630  1.7485
  279MOL0     H38466   3.577  11.518   5.388 -2.4026  0.6002 -0.4948
  279MOL0     H38467   3.491  11.368   5.381 -0.6793 -0.5362  2.4653
  279MOL0     H38468   3.508  11.349   5.625  1.2958  0.3241 -0.1800
  279MOL0     H38469   3.602  11.502   5.626 -1.7836 -0.6507  4.1280
  279MOL0     H38470   3.325  11.511   5.492  0.2389  0.4982  0.9316
  279MOL0     H38471   3.410  11.622   5.604  1.2642 -1.6775  1.3528
  279MOL0     H38472   3.334  11.442   5.786 -3.2602  0.3024  1.1141
  279MOL0     H38473   3.250  11.374   5.657 -3.2680  0.1842  3.6980
  279MOL0     H38474   3.130  11.601   5.610 -3.0404 -3.6125  0.2649
  279MOL0     H38475   3.092  11.515   5.761 -0.6152  2.2578 -0.0302
  279MOL0     H38476   3.127  11.774   5.793 -1.9987 -2.2077  1.0731
  279MOL0     H38477   3.286  11.752   5.732 -0.8251  0.3014  1.4064
  279MOL0     H38478   3.279  11.578   5.951 -1.0502 -0.0055  1.0299
  279MOL0     H38479   3.177  11.708   6.008  0.7993 -0.3132 -0.0400
  279MOL0     H38480   3.370  11.793   6.073 -1.4583  2.2256 -0.3885
  279MOL0     H38481   3.371  11.874   5.924 -2.2455  0.4779  1.0346
  279MOL0     H38482   3.631  11.119   5.529  1.9178 -1.1309  0.0380
  279MOL0     H38483   3.661  10.910   5.398 -2.2586  1.5210  2.1360
  279MOL0     H38484   3.537  10.840   4.995  0.4194  0.0044  0.2367
  279MOL0     H38485   3.427  10.684   4.864 -0.7829  0.2210  0.6055
  279MOL0     H38486   3.016  10.407   5.628  1.3240 -0.1586 -0.9273
  279MOL0     H38487   3.086  10.543   5.824 -2.1362 -0.6243 -0.3017
  279MOL0     H38488   3.332  10.676   6.135 -1.5197  0.3497  0.7360
  279MOL0     H38489   3.447  10.780   6.311  2.3748  0.4329  1.2065
  279MOL0     H38490   3.593  10.517   6.704  1.2386  0.1847  1.3384
  279MOL0     H38491   3.676  10.474   6.556  1.1257 -0.0183  0.6519
  279MOL0     H38492   3.828  10.585   6.706  1.1441  1.3668  0.1182
  279MOL0     H38493   3.728  10.722   6.726  1.3764  3.0823 -3.1266
  279MOL0     H38494   3.864  10.609   6.477 -0.3758 -0.3481  1.4774
  279MOL0     H38495   3.743  10.739   6.463 -0.2861  3.6722  1.9829
  279MOL0     H38496   3.872  10.877   6.623  1.0475 -0.2996  1.3313
  279MOL0     H38497   3.943  10.855   6.465 -1.5203  0.5151  0.2184
  279MOL0     H38498   4.175  10.634   6.769 -1.2845 -4.0334 -0.7045
  279MOL0     H38499   3.457  10.406   6.523 -1.2951 -2.7103 -0.7701
  279MOL0     H38500   3.394  10.204   6.424  1.6495  2.8138  0.4979
  279MOL0     H38501   3.235  10.252   6.406  0.6200 -0.8567  1.5033
  279MOL0     H38502   3.317  10.197   6.264 -0.5673  0.2059 -0.2186
  280MOL0     O38503   1.294   9.924   0.890  0.4144  0.2682  0.0668
  280MOL0     C38504   1.198   9.903   0.961  0.4293 -0.1623  0.4455
  280MOL0     O38505   1.194   9.843   1.087  0.1897  0.6008  0.0513
  280MOL0     C38506   1.305   9.771   1.130 -0.7804  0.2921 -1.3194
  280MOL0     C38507   1.272   9.644   1.183  0.3666  0.3723  0.2973
  280MOL0     C38508   1.362   9.557   1.245 -0.1400 -0.4292 -0.2931
  280MOL0     C38509   1.493   9.601   1.257  0.9692 -0.3889 -0.1267
  280MOL0     O38510   1.575   9.511   1.335 -1.1115 -0.9007  0.5191
  280MOL0     C38511   1.714   9.508   1.305  0.1826 -0.0577  0.7507
  280MOL0     C38512   1.731   9.433   1.169 -0.2118 -0.2922  0.3975
  280MOL0     C38513   1.878   9.401   1.136  0.4385  0.4842  0.0946
  280MOL0     C38514   1.938   9.289   1.233  0.3218 -0.8313  0.2467
  280MOL0     C38515   2.071   9.234   1.180 -0.1185 -0.2541 -0.0452
  280MOL0     C38516   2.056   9.121   1.075 -0.9133 -1.4044 -0.1426
  280MOL0     C38517   2.013   8.988   1.137 -0.3438  0.9661 -0.4615
  280MOL0     C38518   1.948   8.906   1.013 -0.6778  0.1940  0.1261
  280MOL0     N38519   2.047   8.903   0.909 -1.1928 -0.4647  0.3183
  280MOL0     C38520   2.147   8.808   0.891 -0.0556  0.8108  1.0590
  280MOL0     C38521   2.196   8.839   0.765  0.0005  0.4772  0.7312
  280MOL0     C38522   2.305   8.757   0.699 -0.5620 -0.1066 -0.1356
  280MOL0     C38523   2.240   8.643   0.614 -0.0456 -0.3190  0.6142
  280MOL0     C38524   2.161   8.697   0.489 -0.2864 -0.4332  0.8571
  280MOL0     C38525   2.066   8.588   0.426  0.5650  0.2162 -0.5040
  280MOL0     O38526   1.976   8.524   0.521  0.0481  1.0418 -0.1972
  280MOL0     C38527   1.890   8.604   0.592 -0.4493 -1.1181  0.0459
  280MOL0     C38528   1.814   8.705   0.533 -0.1209  0.2567 -0.8074
  280MOL0     C38529   1.731   8.795   0.608  0.5224  0.1810  1.6021
  280MOL0     C38530   1.659   8.907   0.530 -1.1050  0.1727 -0.7361
  280MOL0     C38531   1.715   8.765   0.745 -0.2445  0.0397  0.7510
  280MOL0     C38532   1.627   8.835   0.840  0.3266 -0.3857 -0.4033
  280MOL0     O38533   1.612   8.789   0.966  0.0566  0.1197  0.4734
  280MOL0     C38534   1.523   8.853   1.047  0.6374  0.8642 -0.1675
  280MOL0     C38535   1.410   8.776   1.084  1.1437  0.0826  0.0421
  280MOL0     C38536   1.317   8.825   1.182  0.7294  0.2993 -0.2791
  280MOL0     C38537   1.332   8.955   1.230 -1.0006  0.5740 -0.1798
  280MOL0     O38538   1.255   9.017   1.323  0.8093  0.3978 -0.3373
  280MOL0     C38539   1.149   8.948   1.383 -0.3131  0.3053  0.3877
  280MOL0     C38540   1.106   9.021   1.515  0.2127  0.3159  0.5509
  280MOL0     C38541   1.036   8.925   1.619 -0.4601 -0.4413  0.2464
  280MOL0     C38542   0.911   8.860   1.568 -0.2517  0.4039  0.3881
  280MOL0     C38543   0.819   8.813   1.686  0.1951 -0.3179  0.2415
  280MOL0     C38544   0.717   8.712   1.635  0.2118  0.0904  1.0646
  280MOL0     C38545   0.599   8.700   1.730  0.1995 -0.1994  0.7154
  280MOL0     C38546   0.505   8.606   1.665 -0.7290  0.3201  0.5607
  280MOL0    Cl38547   0.383   8.560   1.797 -0.0771  0.0195 -0.1064
  280MOL0     C38548   1.440   9.028   1.176  0.0810 -0.0464  0.5029
  280MOL0     C38549   1.533   8.981   1.083  0.3021 -0.4849 -0.7776
  280MOL0     O38550   1.577   8.943   0.805 -0.2421  0.5984  0.6985
  280MOL0     C38551   1.800   8.660   0.804 -0.1407  0.3133 -0.2119
  280MOL0     C38552   1.884   8.583   0.727 -0.6499 -0.5100  0.2947
  280MOL0     N38553   2.123   8.942   0.714  0.0357  0.0455 -0.3465
  280MOL0     N38554   2.051   8.989   0.804 -0.2021  0.2480  0.2562
  280MOL0     C38555   1.530   9.731   1.211 -0.3233  0.4651  0.2474
  280MOL0     C38556   1.439   9.815   1.143 -0.3149  0.3108  0.0526
  280MOL0     C38557   1.065   9.949   0.914 -0.1660  0.5182  0.5669
  280MOL0     C38558   1.064  10.069   0.855  1.0662 -0.6621 -0.0643
  280MOL0     C38559   0.947  10.125   0.792  0.3670  0.2547 -0.1675
  280MOL0     C38560   0.827  10.051   0.802 -0.2563 -0.3300 -0.5056
  280MOL0     O38561   0.710  10.091   0.764  0.1882  0.4192 -0.6884
  280MOL0     C38562   0.683  10.111   0.625 -0.6225 -0.3379 -0.1033
  280MOL0     C38563   0.578  10.223   0.608 -0.0355  0.6011 -0.2781
  280MOL0     C38564   0.537  10.273   0.461 -0.9650  0.3163  0.3711
  280MOL0     C38565   0.451  10.403   0.429 -0.2723 -0.1660 -0.7181
  280MOL0     C38566   0.311  10.382   0.435 -0.5455 -0.1378  0.7060
  280MOL0     C38567   0.198  10.342   0.451  0.3669  0.9830  0.3035
  280MOL0     C38568   0.830   9.931   0.879  0.3227 -0.1183 -0.0440
  280MOL0     C38569   0.944   9.879   0.938  0.1786  0.9030 -1.0934
  280MOL0     C38570   0.934   9.740   0.983  0.3471  0.8830  0.3074
  280MOL0     H38571   1.172   9.617   1.150  1.7743 -0.6053 -3.8650
  280MOL0     H38572   1.339   9.452   1.262  0.7195 -0.6870 -0.6663
  280MOL0     H38573   1.758   9.443   1.381  0.6900 -2.3884 -1.3972
  280MOL0     H38574   1.751   9.610   1.310 -1.8041  0.7072  0.7056
  280MOL0     H38575   1.682   9.335   1.170  3.4531 -2.3316  0.6906
  280MOL0     H38576   1.686   9.487   1.085 -3.7920  0.0540  2.3718
  280MOL0     H38577   1.876   9.367   1.032  1.4326 -2.3829  0.9125
  280MOL0     H38578   1.949   9.483   1.155  0.1924  0.5084  0.9341
  280MOL0     H38579   1.956   9.330   1.333  0.8423  0.8093 -0.4807
  280MOL0     H38580   1.870   9.206   1.253  0.3842 -0.8227  0.4904
  280MOL0     H38581   2.131   9.202   1.265 -1.8839 -3.4038  0.1602
  280MOL0     H38582   2.122   9.313   1.124  2.7857 -0.5651  1.9547
  280MOL0     H38583   1.991   9.160   0.997  1.3793  2.4143 -0.4290
  280MOL0     H38584   2.151   9.120   1.022 -0.6188  1.6295  0.1168
  280MOL0     H38585   1.942   9.012   1.216 -0.8049 -1.3264 -0.1194
  280MOL0     H38586   2.101   8.941   1.183 -1.0770  0.9592  0.9799
  280MOL0     H38587   1.920   8.807   1.050 -1.2420 -0.8015 -2.7045
  280MOL0     H38588   1.859   8.959   0.979  0.3922  0.9189 -1.6705
  280MOL0     H38589   2.181   8.732   0.960 -1.6842 -3.1424 -2.1281
  280MOL0     H38590   2.354   8.715   0.787 -3.2357  2.7610  2.9955
  280MOL0     H38591   2.374   8.826   0.651 -0.3106 -0.5221 -0.3777
  280MOL0     H38592   2.311   8.567   0.583  1.3523  0.9405  0.6004
  280MOL0     H38593   2.164   8.590   0.672 -0.5935 -0.5616 -0.2907
  280MOL0     H38594   2.103   8.789   0.503  1.9987  1.1371  0.5522
  280MOL0     H38595   2.238   8.713   0.414  1.3249 -1.3063  2.2558
  280MOL0     H38596   2.018   8.639   0.342  0.4991  1.2389  0.1341
  280MOL0     H38597   2.137   8.518   0.381  0.3500 -0.5588  0.3451
  280MOL0     H38598   1.822   8.703   0.425 -0.2505  0.2848 -0.8184
  280MOL0     H38599   1.676   9.004   0.577 -0.5420 -0.7752  1.1065
  280MOL0     H38600   1.550   8.900   0.537 -1.0109 -0.0348  0.9122
  280MOL0     H38601   1.682   8.901   0.423 -1.8504 -3.1523 -0.8123
  280MOL0     H38602   1.386   8.676   1.050  0.0324  0.5473 -0.5768
  280MOL0     H38603   1.229   8.770   1.214 -0.3615  3.2295  2.2611
  280MOL0     H38604   1.071   8.934   1.308  1.7590  0.6808 -1.9853
  280MOL0     H38605   1.193   8.850   1.407 -0.6977  0.5331  2.1546
  280MOL0     H38606   1.197   9.073   1.547  1.1758 -0.7899 -0.2916
  280MOL0     H38607   1.038   9.104   1.494  2.8572  2.3986 -0.3950
  280MOL0     H38608   1.005   8.999   1.694 -1.2273  0.7268 -1.1563
  280MOL0     H38609   1.098   8.850   1.669 -1.2511  0.4180  2.7007
  280MOL0     H38610   0.921   8.787   1.487  2.6458  1.8724 -0.7431
  280MOL0     H38611   0.852   8.935   1.513  0.2806  1.4375  1.1992
  280MOL0     H38612   0.869   8.761   1.769 -0.2580  0.0984  0.7830
  280MOL0     H38613   0.766   8.895   1.734 -0.1719 -0.6912  0.4826
  280MOL0     H38614   0.758   8.613   1.615 -1.0733 -0.0537 -1.2723
  280MOL0     H38615   0.672   8.758   1.546 -0.9091  0.8778  2.0103
  280MOL0     H38616   0.545   8.791   1.757 -0.5256 -0.0968 -0.9545
  280MOL0     H38617   0.639   8.664   1.825  2.3591 -0.2290 -0.1371
  280MOL0     H38618   0.562   8.519   1.631 -0.4639  1.4205 -2.0320
  280MOL0     H38619   0.453   8.656   1.583 -1.5140 -1.5342 -0.1277
  280MOL0     H38620   1.456   9.133   1.199  2.5070  0.1861 -1.8069
  280MOL0     H38621   1.616   9.040   1.045 -0.7600  0.6325 -1.3957
  280MOL0     H38622   1.794   8.652   0.912  0.5664  0.8602 -0.1317
  280MOL0     H38623   1.955   8.509   0.764 -0.2642 -0.2335  0.1068
  280MOL0     H38624   1.635   9.757   1.215  0.2552 -0.5939 -3.7477
  280MOL0     H38625   1.466   9.907   1.094 -1.8582  1.7383  1.7289
  280MOL0     H38626   1.151  10.133   0.845 -0.6757  1.7635 -0.4472
  280MOL0     H38627   0.949  10.215   0.732  0.3743 -0.9857 -2.1273
  280MOL0     H38628   0.780  10.138   0.582  0.6894 -1.3139  2.0300
  280MOL0     H38629   0.645  10.014   0.592 -0.6565  0.8764 -4.0775
  280MOL0     H38630   0.626  10.306   0.661  4.8912 -1.5939 -0.8151
  280MOL0     H38631   0.484  10.198   0.657  0.5291 -0.1339  0.4404
  280MOL0     H38632   0.637  10.285   0.417  0.0348 -2.3385  1.6629
  280MOL0     H38633   0.496  10.195   0.396  2.1826  1.5114 -3.4360
  280MOL0     H38634   0.485  10.438   0.330  2.4284  0.9620  0.5097
  280MOL0     H38635   0.471  10.482   0.502  0.4437 -0.6015 -0.4253
  280MOL0     H38636   0.097  10.310   0.467  0.1683  1.9491  1.1139
  280MOL0     H38637   0.734   9.883   0.895  0.8562 -1.1457  0.1865
  280MOL0     H38638   1.004   9.679   0.926 -0.3772  1.6503 -1.4765
  280MOL0     H38639   0.976   9.736   1.084  0.1442  0.8195  0.3916
  280MOL0     H38640   0.830   9.706   0.972  1.0859 -1.2728 -0.6298
  281MOL0     O38641   5.703   8.798   7.141 -0.4375 -0.5000 -0.2150
  281MOL0     C38642   5.630   8.782   7.046  0.4287  0.0091 -1.2783
  281MOL0     O38643   5.500   8.737   7.054 -0.2291  0.3638  0.6031
  281MOL0     C38644   5.451   8.702   7.171 -0.3902 -0.7562 -0.0448
  281MOL0     C38645   5.448   8.794   7.275  0.8128 -0.3658  0.0043
  281MOL0     C38646   5.402   8.766   7.401 -0.1518 -0.2735 -0.1394
  281MOL0     C38647   5.387   8.632   7.429 -0.3937 -0.0768  0.1257
  281MOL0     O38648   5.349   8.586   7.555 -0.3517  0.0590  0.5245
  281MOL0     C38649   5.396   8.647   7.672 -1.1568  0.4334  0.0077
  281MOL0     C38650   5.285   8.665   7.771  0.1108  0.0784 -0.2087
  281MOL0     C38651   5.178   8.763   7.727 -0.2084 -0.3737  0.0951
  281MOL0     C38652   5.074   8.782   7.836 -0.2460 -0.4315  0.0478
  281MOL0     C38653   4.966   8.876   7.775  0.4486 -0.2661  0.3359
  281MOL0     C38654   4.882   8.934   7.886  0.3324  0.0679  0.3762
  281MOL0     C38655   4.771   9.025   7.825  0.0573  0.6837 -0.6451
  281MOL0     C38656   4.814   9.155   7.759 -0.2473  0.6918  0.4598
  281MOL0     N38657   4.926   9.228   7.829  0.5728 -0.2647  0.3028
  281MOL0     C38658   4.907   9.281   7.951  0.5001 -1.1436 -0.4522
  281MOL0     C38659   5.026   9.354   7.962  0.9524  0.4336 -0.9069
  281MOL0     C38660   5.067   9.434   8.083  0.1818 -0.3463 -0.2737
  281MOL0     C38661   5.152   9.343   8.180 -0.2590 -0.2196 -0.0781
  281MOL0     C38662   5.222   9.429   8.291 -0.6950  0.1737  0.9958
  281MOL0     C38663   5.134   9.501   8.384 -0.1124  0.1701 -0.1775
  281MOL0     O38664   5.040   9.409   8.445 -0.0279 -0.6367  0.3601
  281MOL0     C38665   4.944   9.454   8.531  0.0422  1.3079 -0.4953
  281MOL0     C38666   4.824   9.376   8.540  0.6055 -0.3260  0.1499
  281MOL0     C38667   4.708   9.421   8.604  0.7079 -0.3622  0.8094
  281MOL0     C38668   4.578   9.332   8.596  0.2223 -0.1073 -0.2422
  281MOL0     C38669   4.719   9.547   8.670 -0.9204 -0.8048  0.2683
  281MOL0     C38670   4.611   9.617   8.747 -0.3393 -0.1248  0.1341
  281MOL0     O38671   4.626   9.743   8.781 -0.2493 -0.5513 -0.1940
  281MOL0     C38672   4.523   9.827   8.823  0.9505 -0.3632  0.2699
  281MOL0     C38673   4.555   9.962   8.832 -0.3004  0.1234 -0.3846
  281MOL0     C38674   4.453  10.053   8.869 -0.1771  0.1095 -1.0353
  281MOL0     C38675   4.326  10.021   8.913 -0.1710  0.7427 -0.4646
  281MOL0     O38676   4.226  10.097   8.979 -0.5473  0.6809 -0.5058
  281MOL0     C38677   4.262  10.239   8.976  0.6067  0.0785  0.4776
  281MOL0     C38678   4.140  10.309   9.045 -0.1156 -0.1916  0.3203
  281MOL0     C38679   4.166  10.305   9.195 -0.1231  0.6078  0.0163
  281MOL0     C38680   4.280  10.390   9.249  0.3681 -0.2970 -1.1022
  281MOL0     C38681   4.262  10.399   9.400 -0.7103  0.1242  0.7450
  281MOL0     C38682   4.384  10.481   9.443 -0.8005  0.6666 -0.1144
  281MOL0     C38683   4.390  10.485   9.589  0.0630  0.4411  0.0555
  281MOL0     C38684   4.528  10.516   9.644  0.3023  0.3319  0.2107
  281MOL0    Cl38685   4.636  10.387   9.640  0.0939 -0.2790  0.1971
  281MOL0     C38686   4.297   9.884   8.905 -0.3145 -0.0903  0.2519
  281MOL0     C38687   4.393   9.788   8.872 -0.3740  0.0701 -1.3030
  281MOL0     O38688   4.505   9.553   8.756  0.3218 -0.4141  0.4541
  281MOL0     C38689   4.837   9.622   8.660  0.0214 -0.5688 -1.6919
  281MOL0     C38690   4.949   9.573   8.600  0.0885 -0.7481  0.6499
  281MOL0     N38691   5.097   9.346   7.854  0.7498  0.3216 -0.9303
  281MOL0     N38692   5.041   9.264   7.772  0.2945  0.1253 -0.0035
  281MOL0     C38693   5.402   8.529   7.331  0.3363 -0.7208 -0.5511
  281MOL0     C38694   5.426   8.567   7.197  1.1921 -0.1010  0.4138
  281MOL0     C38695   5.694   8.811   6.907 -0.1771  0.1966  0.0437
  281MOL0     C38696   5.781   8.920   6.913  0.3050 -1.1584  0.0009
  281MOL0     C38697   5.834   8.971   6.796 -0.4507  0.0322  0.3342
  281MOL0     C38698   5.800   8.926   6.666 -0.1094  0.2532 -0.1723
  281MOL0     O38699   5.863   8.986   6.566 -0.1909  0.1306 -0.3858
  281MOL0     C38700   5.806   8.964   6.434  0.3392 -0.6135 -0.9470
  281MOL0     C38701   5.875   9.051   6.337 -0.1715 -0.2358 -0.4334
  281MOL0     C38702   5.857   9.002   6.186 -0.1319  0.6140 -0.2541
  281MOL0     C38703   5.713   8.967   6.158 -0.9753 -0.1994  0.2788
  281MOL0     C38704   5.640   9.092   6.176  0.1233 -0.3077 -0.9168
  281MOL0     C38705   5.567   9.187   6.197 -1.0153 -0.0701 -1.2324
  281MOL0     C38706   5.709   8.819   6.659 -0.1472  0.3638  0.3716
  281MOL0     C38707   5.648   8.771   6.782 -0.7444  0.4372  1.3867
  281MOL0     C38708   5.534   8.672   6.772 -0.2026 -0.0169 -0.3533
  281MOL0     H38709   5.496   8.890   7.260  2.8749 -1.4574 -0.6995
  281MOL0     H38710   5.381   8.853   7.462 -0.9516  0.2401 -1.1075
  281MOL0     H38711   5.446   8.743   7.664 -0.2887  0.1979  1.9934
  281MOL0     H38712   5.471   8.585   7.722  0.3909  1.9049 -0.4111
  281MOL0     H38713   5.231   8.570   7.777 -1.8372  1.2067  3.5236
  281MOL0     H38714   5.309   8.703   7.871 -3.1848  1.2899  0.2521
  281MOL0     H38715   5.233   8.855   7.703  0.2674 -0.6536  0.1053
  281MOL0     H38716   5.130   8.725   7.637  1.4340  1.1765 -1.5335
  281MOL0     H38717   5.020   8.690   7.861  0.0346 -0.6246 -0.0472
  281MOL0     H38718   5.134   8.822   7.919  1.6267 -0.0010 -1.4566
  281MOL0     H38719   4.900   8.816   7.712  1.3573 -3.5519  2.2953
  281MOL0     H38720   5.018   8.951   7.714  0.2118 -2.0588 -2.2506
  281MOL0     H38721   4.826   8.853   7.934 -1.5146  0.1814 -1.4280
  281MOL0     H38722   4.939   8.989   7.961 -2.1971  3.1989  0.2362
  281MOL0     H38723   4.703   9.056   7.906 -0.6397 -0.4698 -0.7633
  281MOL0     H38724   4.713   8.977   7.746 -1.4378  3.9398 -1.7025
  281MOL0     H38725   4.844   9.125   7.658 -1.8638  1.1078 -0.1750
  281MOL0     H38726   4.726   9.218   7.746 -0.2843  0.8015  1.1851
  281MOL0     H38727   4.817   9.269   8.011  0.3930 -0.0827 -0.3872
  281MOL0     H38728   4.975   9.479   8.122  0.5518 -0.1561  0.3986
  281MOL0     H38729   5.133   9.519   8.062  0.1197  0.3678  2.1163
  281MOL0     H38730   5.103   9.264   8.238 -0.6604  0.3305  0.3496
  281MOL0     H38731   5.235   9.299   8.126 -0.4787 -2.0794  1.0362
  281MOL0     H38732   5.300   9.366   8.335  0.1793  1.2711  1.0535
  281MOL0     H38733   5.272   9.508   8.234  0.2452 -0.1297  1.3758
  281MOL0     H38734   5.199   9.550   8.457  1.0236 -0.4756 -0.7289
  281MOL0     H38735   5.086   9.579   8.325  3.2165  0.1828 -3.2581
  281MOL0     H38736   4.805   9.298   8.467 -0.0902  0.8279 -0.9539
  281MOL0     H38737   4.534   9.310   8.694 -0.5142  0.4954 -0.4279
  281MOL0     H38738   4.595   9.237   8.545  1.1983 -0.9511  1.5479
  281MOL0     H38739   4.504   9.389   8.538  1.5489  0.0534 -1.8452
  281MOL0     H38740   4.651  10.000   8.798  1.6321 -1.8383  2.4803
  281MOL0     H38741   4.485  10.156   8.861 -1.1378  0.5566  0.3910
  281MOL0     H38742   4.353  10.256   9.035 -2.3147 -0.3634  5.6864
  281MOL0     H38743   4.256  10.276   8.873 -2.1210  0.1706  0.5971
  281MOL0     H38744   4.129  10.411   9.007 -1.7258 -0.9179 -1.2909
  281MOL0     H38745   4.044  10.262   9.020  1.3051 -2.5095 -1.1125
  281MOL0     H38746   4.193  10.206   9.234 -3.3708  0.1286  1.4141
  281MOL0     H38747   4.068  10.326   9.240 -2.2499 -2.5243 -2.6148
  281MOL0     H38748   4.269  10.490   9.206  2.2010 -0.2343 -1.4886
  281MOL0     H38749   4.372  10.341   9.215  0.4810 -0.1872 -0.9538
  281MOL0     H38750   4.175  10.449   9.444 -1.2162 -1.6362  1.8837
  281MOL0     H38751   4.265  10.296   9.437  1.5089 -0.5662 -1.0981
  281MOL0     H38752   4.385  10.586   9.411 -2.9802  0.7866  0.0597
  281MOL0     H38753   4.477  10.444   9.400 -0.6939  0.7883  0.0086
  281MOL0     H38754   4.358  10.388   9.628  0.0197 -0.3598 -1.8304
  281MOL0     H38755   4.320  10.559   9.629 -0.0293 -0.2253  1.1505
  281MOL0     H38756   4.519  10.550   9.748 -0.3888  1.6637 -0.2683
  281MOL0     H38757   4.573  10.604   9.598  1.8676 -0.1779  0.7226
  281MOL0     H38758   4.211   9.838   8.952  1.3403 -2.0299  1.6138
  281MOL0     H38759   4.359   9.685   8.866  1.6751 -0.6272 -1.8182
  281MOL0     H38760   4.851   9.716   8.712  2.6335 -3.7165  4.3991
  281MOL0     H38761   5.044   9.626   8.610  0.3225 -0.5652 -1.9352
  281MOL0     H38762   5.396   8.424   7.359  0.6938 -0.9048 -1.1295
  281MOL0     H38763   5.434   8.487   7.124 -2.4506  1.2226 -1.6906
  281MOL0     H38764   5.818   8.972   7.001 -0.9238  0.0234 -0.1323
  281MOL0     H38765   5.912   9.046   6.789 -2.0174  1.5968 -1.5995
  281MOL0     H38766   5.827   8.859   6.410 -4.4324 -2.5476  1.9852
  281MOL0     H38767   5.699   8.985   6.428  0.6641  0.9959 -1.9266
  281MOL0     H38768   5.981   9.041   6.363 -0.5836 -4.1937  0.3168
  281MOL0     H38769   5.845   9.156   6.344 -0.5785 -0.4052  0.4003
  281MOL0     H38770   5.901   9.079   6.121  0.5909  0.4511  0.0287
  281MOL0     H38771   5.914   8.909   6.186 -2.6278 -1.0452  2.1773
  281MOL0     H38772   5.673   8.895   6.231 -2.5190  0.9976  0.6737
  281MOL0     H38773   5.701   8.929   6.056  1.2471 -1.1103  0.2986
  281MOL0     H38774   5.516   9.280   6.209  2.5796  2.4825 -3.5630
  281MOL0     H38775   5.674   8.775   6.566  0.6194  0.3772  0.0696
  281MOL0     H38776   5.441   8.723   6.799 -1.8313 -2.9716 -0.0214
  281MOL0     H38777   5.536   8.641   6.667 -2.1792 -0.0823 -0.4030
  281MOL0     H38778   5.559   8.587   6.836  2.4276  2.4179  2.1549
  282MOL0     O38779   0.219   1.379   7.183  0.5843  0.2088  0.9456
  282MOL0     C38780   0.140   1.429   7.265  0.5558 -0.4977  1.2726
  282MOL0     O38781   0.100   1.556   7.260  0.3441  0.5338 -0.3474
  282MOL0     C38782   0.165   1.651   7.172  0.5488  0.2807  0.5764
  282MOL0     C38783   0.093   1.735   7.088 -0.9641 -0.6686  0.0345
  282MOL0     C38784   0.159   1.818   6.997 -0.0538  0.7764 -0.7229
  282MOL0     C38785   0.298   1.825   7.001  0.1354  0.0519 -0.3208
  282MOL0     O38786   0.372   1.910   6.930  0.7800 -0.1881 -0.5346
  282MOL0     C38787   0.380   1.890   6.791  0.1893  0.3803 -0.9375
  282MOL0     C38788   0.454   2.002   6.732  0.6040 -0.8276  1.3478
  282MOL0     C38789   0.430   2.021   6.587 -1.0533  0.3233  0.7918
  282MOL0     C38790   0.469   2.168   6.534  0.0442  0.9720  0.2055
  282MOL0     C38791   0.411   2.207   6.387 -0.1086  0.0763 -0.2455
  282MOL0     C38792   0.467   2.350   6.362  0.5498 -0.0938  0.8273
  282MOL0     C38793   0.400   2.404   6.236  0.2349  0.6958 -0.7609
  282MOL0     C38794   0.438   2.548   6.206  0.3185 -0.0581  0.4772
  282MOL0     N38795   0.416   2.638   6.321  0.3714  0.5262 -0.1304
  282MOL0     C38796   0.291   2.664   6.376 -0.0004 -0.4104 -0.8845
  282MOL0     C38797   0.319   2.739   6.486  0.5303 -0.8497  0.1202
  282MOL0     C38798   0.245   2.807   6.588  0.5760  0.7672  0.4919
  282MOL0     C38799   0.299   2.941   6.638  0.3372  0.2716  0.1422
  282MOL0     C38800   0.220   2.971   6.768 -0.0547  0.4450  0.5141
  282MOL0     C38801   0.271   3.105   6.819  0.0615 -0.4242  0.0414
  282MOL0     O38802   0.181   3.147   6.914  0.0433  0.1020 -0.2779
  282MOL0     C38803   0.195   3.108   7.044  0.1857  0.0474 -0.5042
  282MOL0     C38804   0.305   3.045   7.097 -0.1553 -0.4373 -0.8980
  282MOL0     C38805   0.314   3.014   7.237  0.2482  0.0730 -1.4122
  282MOL0     C38806   0.432   2.942   7.296  0.0366  0.2794 -0.2286
  282MOL0     C38807   0.200   3.030   7.319 -0.5671  0.0822 -0.5651
  282MOL0     C38808   0.188   3.013   7.463  0.0445  0.2790  0.3559
  282MOL0     O38809   0.068   2.952   7.511 -0.2074 -0.7769  0.7568
  282MOL0     C38810   0.027   2.929   7.639  0.5480 -0.7581  0.0066
  282MOL0     C38811  -0.022   2.801   7.662 -0.7370 -0.0143 -0.0815
  282MOL0     C38812  -0.067   2.765   7.790  0.6195 -0.0261 -0.1772
  282MOL0     C38813  -0.059   2.857   7.905  0.6493 -0.3351  0.3735
  282MOL0     O38814  -0.085   2.804   8.032  0.0059 -1.1200  0.2627
  282MOL0     C38815  -0.054   2.896   8.146 -1.0340  0.2320 -0.1436
  282MOL0     C38816  -0.086   2.826   8.276  0.0391 -1.4913  0.3506
  282MOL0     C38817  -0.053   2.922   8.403 -0.4350 -0.1167  0.0914
  282MOL0     C38818  -0.145   3.039   8.404  0.2516 -0.5286 -0.1757
  282MOL0     C38819  -0.132   3.122   8.528  0.1507  0.3702  0.2945
  282MOL0     C38820  -0.256   3.204   8.539  0.2784 -0.5915 -0.6381
  282MOL0     C38821  -0.231   3.304   8.653  0.5421  0.0703 -1.3080
  282MOL0     C38822  -0.347   3.389   8.691 -0.2447  0.5219  0.2174
  282MOL0    Cl38823  -0.306   3.519   8.793 -0.2043  0.2078  0.3679
  282MOL0     C38824   0.002   2.980   7.875  0.3161 -0.4481 -0.2258
  282MOL0     C38825   0.039   3.015   7.739 -1.3593  0.1092 -0.7536
  282MOL0     O38826   0.276   3.047   7.540 -0.0088 -0.3109  0.2569
  282MOL0     C38827   0.088   3.093   7.258  0.0197  0.4569  0.3020
  282MOL0     C38828   0.083   3.130   7.124 -0.0498 -0.4820  0.3201
  282MOL0     N38829   0.454   2.753   6.481 -0.5927  0.3168  0.5839
  282MOL0     N38830   0.518   2.684   6.396  0.6292  0.2065  0.2758
  282MOL0     C38831   0.373   1.747   7.089 -1.1231 -0.0312  0.6889
  282MOL0     C38832   0.310   1.660   7.172  0.8932  0.6095  0.3711
  282MOL0     C38833   0.096   1.344   7.381 -0.0006 -0.6525 -0.7849
  282MOL0     C38834   0.005   1.406   7.473 -0.3312 -0.8230 -0.2815
  282MOL0     C38835  -0.047   1.334   7.593  0.9203  1.2282 -0.3397
  282MOL0     C38836  -0.025   1.200   7.605 -1.0165 -0.0031  0.7758
  282MOL0     O38837  -0.090   1.135   7.715 -1.3057 -0.5187 -0.5676
  282MOL0     C38838  -0.008   1.138   7.835  0.2240  0.3416  0.4979
  282MOL0     C38839  -0.067   1.087   7.959 -0.0156  0.1560  0.5709
  282MOL0     C38840  -0.096   0.935   7.949  0.4315  0.1027 -0.8566
  282MOL0     C38841   0.027   0.847   7.965  0.2040  0.3166 -0.4263
  282MOL0     C38842   0.099   0.868   8.091  0.1488  0.6802 -1.0112
  282MOL0     C38843   0.155   0.866   8.203 -0.0323 -0.5930  0.9751
  282MOL0     C38844   0.082   1.147   7.531  0.6361  0.3595  0.0507
  282MOL0     C38845   0.146   1.216   7.417  0.0683  0.2871 -0.5840
  282MOL0     C38846   0.263   1.154   7.356 -0.4708  0.0711 -0.1944
  282MOL0     H38847  -0.014   1.740   7.103 -0.5353  1.9618  3.0077
  282MOL0     H38848   0.088   1.874   6.938 -1.0909  1.0027  0.7069
  282MOL0     H38849   0.281   1.869   6.749 -0.2867  0.5563  0.0688
  282MOL0     H38850   0.452   1.813   6.763  1.3062  1.3435 -0.8015
  282MOL0     H38851   0.404   2.087   6.779  2.0515  1.4546 -0.9702
  282MOL0     H38852   0.560   2.000   6.756  1.5119  0.2542 -1.9942
  282MOL0     H38853   0.493   1.955   6.526 -0.8599  1.6335 -0.4687
  282MOL0     H38854   0.326   1.995   6.568 -0.1903 -1.9488 -1.3386
  282MOL0     H38855   0.438   2.246   6.603  2.2140  1.8945  0.2061
  282MOL0     H38856   0.578   2.162   6.536  0.0613 -4.5994 -0.2150
  282MOL0     H38857   0.303   2.197   6.378  0.1458 -3.7592 -0.7654
  282MOL0     H38858   0.456   2.143   6.310  2.4720  2.3512 -0.8043
  282MOL0     H38859   0.454   2.414   6.449 -1.7931 -0.3583  0.7302
  282MOL0     H38860   0.575   2.333   6.350  0.2197 -0.9834 -1.4229
  282MOL0     H38861   0.291   2.396   6.250 -0.0410  0.1017 -2.9762
  282MOL0     H38862   0.425   2.335   6.155 -0.0690  3.0403 -2.9888
  282MOL0     H38863   0.544   2.539   6.178 -0.1332 -3.8217 -0.5272
  282MOL0     H38864   0.388   2.578   6.113  1.9402 -2.1699 -1.1742
  282MOL0     H38865   0.196   2.626   6.339  0.1703 -0.2682 -1.4698
  282MOL0     H38866   0.246   2.742   6.676  2.3369  1.9208  1.3890
  282MOL0     H38867   0.141   2.814   6.554  0.9178  0.3754 -0.6774
  282MOL0     H38868   0.408   2.943   6.650  0.6616  1.2787 -2.3593
  282MOL0     H38869   0.263   3.020   6.571 -1.6345 -0.5002  0.2178
  282MOL0     H38870   0.113   2.970   6.748  0.1076 -1.6252 -0.5157
  282MOL0     H38871   0.245   2.893   6.840  1.5428  0.5578  0.1238
  282MOL0     H38872   0.378   3.110   6.843  0.1022 -1.1670  0.0249
  282MOL0     H38873   0.268   3.181   6.741 -1.7223  0.3343  0.7969
  282MOL0     H38874   0.381   3.018   7.024 -0.7900  1.4684 -2.3278
  282MOL0     H38875   0.460   3.005   7.381 -1.4874  2.3919 -1.2165
  282MOL0     H38876   0.509   2.941   7.218 -0.5480 -1.1926 -0.8312
  282MOL0     H38877   0.410   2.838   7.323  0.1860  0.6025  1.1918
  282MOL0     H38878  -0.018   2.728   7.582 -0.1502  1.0000 -0.9957
  282MOL0     H38879  -0.087   2.660   7.808 -2.6396  0.5949  0.4224
  282MOL0     H38880   0.050   2.930   8.143 -1.5127  1.8937  0.8931
  282MOL0     H38881  -0.119   2.983   8.135 -1.1793  0.5264  2.4260
  282MOL0     H38882  -0.192   2.801   8.278 -0.1113 -0.9048  0.1100
  282MOL0     H38883  -0.021   2.739   8.287  1.2493 -0.2893  4.6743
  282MOL0     H38884   0.046   2.963   8.383 -0.7930  0.1505 -1.2051
  282MOL0     H38885  -0.053   2.862   8.495  1.0436 -2.0120 -1.0569
  282MOL0     H38886  -0.250   3.010   8.397 -1.0886  4.0408 -3.0180
  282MOL0     H38887  -0.131   3.096   8.311 -2.2965 -0.2671 -0.4623
  282MOL0     H38888  -0.128   3.058   8.617 -0.3735  0.1142  0.1397
  282MOL0     H38889  -0.035   3.172   8.527  0.2221  0.2541 -1.3737
  282MOL0     H38890  -0.342   3.138   8.559  0.7469 -0.0506  4.5142
  282MOL0     H38891  -0.274   3.258   8.445 -1.4264  0.8743  0.4449
  282MOL0     H38892  -0.146   3.365   8.620  1.2423 -0.5135 -0.6009
  282MOL0     H38893  -0.202   3.251   8.744 -3.2528  1.0501  0.7046
  282MOL0     H38894  -0.426   3.334   8.744 -0.4175  0.3286 -0.2417
  282MOL0     H38895  -0.387   3.422   8.595  1.6452 -1.2420 -1.2643
  282MOL0     H38896   0.025   3.052   7.953  0.1444 -1.1570  0.4897
  282MOL0     H38897   0.083   3.113   7.725  0.2214 -0.4859 -0.1378
  282MOL0     H38898   0.002   3.135   7.309  0.2464  1.2714  0.0185
  282MOL0     H38899   0.002   3.187   7.079  0.8485 -0.5338 -1.4868
  282MOL0     H38900   0.480   1.758   7.097 -1.2774  2.0483  0.2953
  282MOL0     H38901   0.380   1.605   7.233 -0.7523 -2.5440 -0.3135
  282MOL0     H38902  -0.027   1.508   7.454 -1.3652 -1.1779 -0.5248
  282MOL0     H38903  -0.133   1.365   7.653  1.4428 -0.5196  1.3956
  282MOL0     H38904   0.086   1.090   7.807  0.6031  1.1736  0.3099
  282MOL0     H38905   0.026   1.239   7.860 -0.3134  1.4626 -2.7777
  282MOL0     H38906  -0.164   1.132   7.981 -0.3914 -1.0181  1.4137
  282MOL0     H38907   0.003   1.118   8.037 -0.9043 -2.0356  2.3536
  282MOL0     H38908  -0.166   0.897   8.024 -0.5434 -0.5695 -2.0645
  282MOL0     H38909  -0.137   0.901   7.854 -0.5177  0.8455 -0.7254
  282MOL0     H38910   0.098   0.867   7.885 -0.0908  2.4260 -0.2120
  282MOL0     H38911  -0.009   0.744   7.951 -0.0408  0.6196 -2.3027
  282MOL0     H38912   0.211   0.869   8.294  0.3456 -0.3054  0.7347
  282MOL0     H38913   0.108   1.042   7.544 -1.0100 -0.0237  0.4186
  282MOL0     H38914   0.254   1.129   7.250 -0.1803  3.0792 -1.0047
  282MOL0     H38915   0.342   1.229   7.364 -1.1936  0.7939  0.3444
  282MOL0     H38916   0.294   1.069   7.418 -1.0133  0.7957  1.1083
  283MOL0     O38917   8.962  10.011   3.492  0.9667  0.1900 -0.1479
  283MOL0     C38918   8.841   9.977   3.489 -0.4183 -0.0140  0.3173
  283MOL0     O38919   8.749  10.041   3.423 -0.2249  0.6163  0.0311
  283MOL0     C38920   8.771  10.155   3.347 -0.1140  0.1008  0.5601
  283MOL0     C38921   8.669  10.256   3.347  0.4163  0.2673 -0.0086
  283MOL0     C38922   8.673  10.360   3.250 -0.2095 -0.9387 -0.0151
  283MOL0     C38923   8.790  10.375   3.170 -0.2151 -0.0745 -0.1861
  283MOL0     O38924   8.809  10.486   3.092 -1.1011 -0.7848 -1.4217
  283MOL0     C38925   8.821  10.603   3.180  0.3101  0.1731 -0.8379
  283MOL0     C38926   8.933  10.699   3.130  0.0501  0.1407  0.0740
  283MOL0     C38927   9.020  10.751   3.239 -0.4571 -0.4714 -0.0280
  283MOL0     C38928   9.124  10.851   3.172  0.0251 -0.0877  0.5507
  283MOL0     C38929   9.223  10.903   3.280  0.4805 -0.2253 -0.0166
  283MOL0     C38930   9.170  11.031   3.345 -0.8185 -0.4094  0.1931
  283MOL0     C38931   9.291  11.098   3.423  0.7539 -0.1090  0.1887
  283MOL0     C38932   9.239  11.219   3.500  1.2543  0.2557  0.3226
  283MOL0     N38933   9.174  11.336   3.441  0.0401  0.6099  1.1186
  283MOL0     C38934   9.232  11.422   3.345 -0.2359  0.9423  0.4647
  283MOL0     C38935   9.128  11.504   3.323 -0.6338  0.5725  0.1692
  283MOL0     C38936   9.135  11.628   3.233 -0.5481  0.1847  1.1658
  283MOL0     C38937   9.020  11.626   3.121 -0.1699 -0.3382  0.2967
  283MOL0     C38938   9.028  11.516   3.012  0.2157  0.1169 -0.5969
  283MOL0     C38939   8.990  11.383   3.073 -0.1833 -0.3693 -1.5110
  283MOL0     O38940   8.967  11.288   2.969  0.6490 -0.3453 -0.2132
  283MOL0     C38941   8.859  11.195   2.993 -0.0477  0.2589 -0.6292
  283MOL0     C38942   8.814  11.154   3.122  0.7251  0.4425  0.1276
  283MOL0     C38943   8.714  11.047   3.136  0.8185  0.1091  0.0584
  283MOL0     C38944   8.684  11.013   3.282 -0.0281 -0.7027 -0.4530
  283MOL0     C38945   8.666  10.978   3.026  0.0481  0.1611  0.7397
  283MOL0     C38946   8.561  10.871   3.031 -0.6428 -0.2861  0.5399
  283MOL0     O38947   8.549  10.787   2.921 -0.2226 -0.4232 -0.1818
  283MOL0     C38948   8.439  10.700   2.905  0.0445 -0.1812  0.3292
  283MOL0     C38949   8.466  10.571   2.873 -0.3512  0.2271  1.1865
  283MOL0     C38950   8.359  10.475   2.848  0.4546 -1.0981  0.2357
  283MOL0     C38951   8.228  10.522   2.880 -0.1306  0.1678 -0.0256
  283MOL0     O38952   8.113  10.449   2.864 -0.8298 -0.4214  1.0288
  283MOL0     C38953   8.119  10.322   2.927 -0.2634 -0.2213 -0.6903
  283MOL0     C38954   7.992  10.289   3.004  0.0285  0.3958  0.1229
  283MOL0     C38955   7.993  10.143   3.052 -0.8171 -0.3534 -0.4158
  283MOL0     C38956   7.877  10.105   3.141 -0.8635 -0.7631  0.1948
  283MOL0     C38957   7.883   9.962   3.192 -0.5169 -0.1189 -0.2819
  283MOL0     C38958   7.769   9.935   3.300 -0.8380  0.7240  0.7431
  283MOL0     C38959   7.629   9.928   3.254 -0.2143  0.4955 -0.2263
  283MOL0     C38960   7.533   9.907   3.369 -0.4443  0.5191 -0.4399
  283MOL0    Cl38961   7.579   9.775   3.485 -0.6086 -0.0872 -0.7123
  283MOL0     C38962   8.200  10.646   2.925  0.0513 -0.4950 -0.3417
  283MOL0     C38963   8.307  10.735   2.942 -0.2496 -0.4023  0.3249
  283MOL0     O38964   8.492  10.871   3.131  0.0172  0.5859 -0.1852
  283MOL0     C38965   8.722  11.012   2.900 -0.6258  0.1927 -0.4499
  283MOL0     C38966   8.824  11.112   2.884  0.4056 -0.4285  0.0821
  283MOL0     N38967   9.021  11.465   3.396 -0.2700 -0.4231  0.7447
  283MOL0     N38968   9.042  11.361   3.456  0.1554 -0.3536  0.3215
  283MOL0     C38969   8.879  10.277   3.170  0.5443 -0.3458  0.2914
  283MOL0     C38970   8.868  10.157   3.245 -0.4803 -0.8770 -0.3213
  283MOL0     C38971   8.813   9.841   3.531 -1.0517  0.5186  0.2955
  283MOL0     C38972   8.727   9.765   3.452  0.8014  0.7317 -0.6331
  283MOL0     C38973   8.706   9.630   3.473  0.5492  0.0139 -0.1483
  283MOL0     C38974   8.756   9.562   3.578  0.1107 -0.2037  0.4203
  283MOL0     O38975   8.720   9.427   3.583  0.3530 -0.6437  0.0677
  283MOL0     C38976   8.757   9.347   3.693 -0.1082 -1.3178 -0.4134
  283MOL0     C38977   8.668   9.226   3.705 -0.0361  0.2521 -0.6212
  283MOL0     C38978   8.653   9.135   3.583 -0.8173 -0.9047 -0.5890
  283MOL0     C38979   8.613   8.990   3.611 -0.5145  0.2732 -0.0731
  283MOL0     C38980   8.507   8.988   3.709 -0.5039  0.3684 -0.8735
  283MOL0     C38981   8.395   8.973   3.776 -1.5193 -0.2583  0.4867
  283MOL0     C38982   8.861   9.625   3.651 -0.0281  0.2414 -0.3131
  283MOL0     C38983   8.877   9.774   3.630 -0.0490  0.4426  0.2466
  283MOL0     C38984   8.984   9.827   3.727  0.6078  0.1162 -0.0060
  283MOL0     H38985   8.592  10.250   3.424 -1.4786  1.3431 -1.7198
  283MOL0     H38986   8.597  10.437   3.244  0.4388 -0.4196 -2.2094
  283MOL0     H38987   8.841  10.573   3.283  0.8661  1.4196 -0.5639
  283MOL0     H38988   8.728  10.660   3.188  0.5186  0.3950  0.1591
  283MOL0     H38989   9.004  10.645   3.066  1.6149  1.5862  0.5146
  283MOL0     H38990   8.884  10.779   3.075 -3.2294 -1.4163  0.5069
  283MOL0     H38991   8.956  10.803   3.310 -0.1018  2.4081 -1.6364
  283MOL0     H38992   9.075  10.667   3.281 -0.4597 -0.3196  0.2801
  283MOL0     H38993   9.182  10.807   3.090  0.3322  3.4994 -1.3572
  283MOL0     H38994   9.072  10.940   3.135  0.6157  1.6026  3.4605
  283MOL0     H38995   9.320  10.929   3.236  0.7843 -0.0115  0.7664
  283MOL0     H38996   9.249  10.826   3.353 -1.9423 -0.1708  1.0014
  283MOL0     H38997   9.114  11.095   3.277 -1.9086 -0.8182  0.6890
  283MOL0     H38998   9.092  10.995   3.413  1.3203 -2.2493  1.8527
  283MOL0     H38999   9.371  11.130   3.357  0.0715 -1.7886 -1.5731
  283MOL0     H39000   9.311  11.016   3.492 -0.9171 -2.3814 -1.8390
  283MOL0     H39001   9.162  11.170   3.562 -0.1203  0.2201 -1.3480
  283MOL0     H39002   9.321  11.256   3.563  1.1905 -1.1856  1.3132
  283MOL0     H39003   9.329  11.409   3.298 -0.0801 -0.8151  1.1812
  283MOL0     H39004   9.232  11.622   3.182 -0.9510 -1.6104  0.5509
  283MOL0     H39005   9.135  11.725   3.282 -0.5432  0.9181 -0.2329
  283MOL0     H39006   8.922  11.620   3.171 -0.0382 -1.0045  0.4805
  283MOL0     H39007   9.019  11.725   3.074 -0.7014  0.1892  1.3696
  283MOL0     H39008   8.974  11.543   2.921 -2.2534 -2.9038 -0.2010
  283MOL0     H39009   9.134  11.523   2.985 -0.5251  1.2035 -3.4851
  283MOL0     H39010   9.073  11.358   3.139  1.4666  3.5511 -1.8467
  283MOL0     H39011   8.894  11.396   3.125  0.4913  2.2968 -0.7693
  283MOL0     H39012   8.871  11.185   3.209  1.2040 -0.4809  0.1534
  283MOL0     H39013   8.603  11.074   3.323  2.3702  2.6421 -0.2811
  283MOL0     H39014   8.757  11.062   3.347 -0.0644 -0.7035 -0.4119
  283MOL0     H39015   8.665  10.907   3.300 -3.3109 -0.1678 -0.0928
  283MOL0     H39016   8.567  10.535   2.858 -0.7596 -0.0589 -1.3175
  283MOL0     H39017   8.377  10.371   2.822  1.2338 -0.5085 -1.7395
  283MOL0     H39018   8.135  10.243   2.852 -2.0676 -0.4131 -0.9226
  283MOL0     H39019   8.194  10.313   3.006 -3.5800 -2.3765  2.4881
  283MOL0     H39020   7.980  10.354   3.091  0.2373 -0.1517  0.5646
  283MOL0     H39021   7.912  10.314   2.934 -0.9724 -0.6441  0.8586
  283MOL0     H39022   8.086  10.127   3.108 -0.9090  3.7192  1.2646
  283MOL0     H39023   7.998  10.084   2.959  0.6003 -0.6977 -0.1467
  283MOL0     H39024   7.793  10.117   3.072 -0.6216  0.3654  0.0635
  283MOL0     H39025   7.861  10.172   3.226 -1.1986 -1.8698  1.0286
  283MOL0     H39026   7.870   9.897   3.106  0.9222 -1.6654  0.6123
  283MOL0     H39027   7.981   9.949   3.240 -1.2335  0.8972  1.5845
  283MOL0     H39028   7.780  10.005   3.384  1.8305  2.8076 -1.1903
  283MOL0     H39029   7.787   9.831   3.330  0.2336  1.0444  1.2742
  283MOL0     H39030   7.611   9.846   3.184  0.1106  1.2718 -1.2366
  283MOL0     H39031   7.602  10.023   3.206  0.5843  0.7758 -0.1333
  283MOL0     H39032   7.441   9.878   3.317  1.7204 -0.9069 -3.8471
  283MOL0     H39033   7.526   9.996   3.432  2.2102 -0.4360  1.4152
  283MOL0     H39034   8.100  10.673   2.956  0.5436  3.0291 -1.4245
  283MOL0     H39035   8.291  10.832   2.988 -1.7788 -1.3173  1.9009
  283MOL0     H39036   8.701  10.948   2.815  1.0552 -2.5436  1.0167
  283MOL0     H39037   8.865  11.144   2.789  1.0050  1.7265  1.0059
  283MOL0     H39038   8.965  10.302   3.109  0.5809  0.9759  0.8545
  283MOL0     H39039   8.955  10.092   3.241  2.0301  2.0809  1.4406
  283MOL0     H39040   8.683   9.814   3.366 -0.4787  0.6907 -0.0273
  283MOL0     H39041   8.634   9.576   3.412 -1.7964  0.4777  2.0377
  283MOL0     H39042   8.854   9.300   3.670  0.2660 -0.7132 -0.0949
  283MOL0     H39043   8.766   9.400   3.788 -0.3899 -0.4764 -0.8525
  283MOL0     H39044   8.565   9.260   3.721 -0.3543 -1.1423  0.4650
  283MOL0     H39045   8.687   9.158   3.788  1.8016  0.4545 -0.8378
  283MOL0     H39046   8.587   9.175   3.505 -0.7741 -0.3460 -0.3426
  283MOL0     H39047   8.749   9.137   3.530  0.2373 -1.7809  1.1946
  283MOL0     H39048   8.703   8.942   3.651 -0.1613  0.1473 -0.9787
  283MOL0     H39049   8.580   8.945   3.517 -1.7668  2.4934 -0.7558
  283MOL0     H39050   8.309   8.959   3.838 -2.4224  4.8273  0.8326
  283MOL0     H39051   8.915   9.550   3.707  0.0954 -1.1094 -2.1402
  283MOL0     H39052   9.017   9.756   3.803  0.9711  1.5675  1.2356
  283MOL0     H39053   9.072   9.859   3.670  2.9221 -1.9101  2.2064
  283MOL0     H39054   8.935   9.913   3.773  1.5496  1.7555 -1.8971
  284MOL0     O39055   8.077   4.680   0.428 -0.0460  0.3393 -0.4112
  284MOL0     C39056   8.013   4.746   0.349  0.4673 -0.0963 -0.9296
  284MOL0     O39057   7.895   4.801   0.387  0.3559  0.3070 -1.0204
  284MOL0     C39058   7.850   4.811   0.518 -0.2893 -0.6806  0.0815
  284MOL0     C39059   7.926   4.785   0.642 -0.1718 -1.4280  0.1357
  284MOL0     C39060   7.857   4.751   0.756  0.3599 -0.6049  0.5891
  284MOL0     C39061   7.717   4.742   0.761  0.1532 -0.1960  0.5301
  284MOL0     O39062   7.666   4.704   0.886 -0.2325  0.0247 -0.7691
  284MOL0     C39063   7.531   4.655   0.887  0.4280  0.1543 -0.0066
  284MOL0     C39064   7.527   4.551   1.003  0.5487 -0.9673  0.3224
  284MOL0     C39065   7.566   4.410   0.961  0.3608 -0.3384  0.4597
  284MOL0     C39066   7.522   4.309   1.064 -0.4172 -0.2597  0.1103
  284MOL0     C39067   7.587   4.169   1.049  0.4434 -1.5278  0.5531
  284MOL0     C39068   7.536   4.078   1.166  0.3088  0.0686 -0.6006
  284MOL0     C39069   7.596   3.932   1.135 -0.4047  0.2161 -0.1293
  284MOL0     C39070   7.577   3.841   1.250 -0.3922 -0.0358 -0.6885
  284MOL0     N39071   7.438   3.802   1.269 -0.1777  0.3683 -0.0350
  284MOL0     C39072   7.360   3.755   1.163 -0.4926  0.8743  0.6217
  284MOL0     C39073   7.254   3.698   1.225  0.5857  1.1543  1.4370
  284MOL0     C39074   7.131   3.641   1.156 -0.2623  0.2470  0.5802
  284MOL0     C39075   7.090   3.504   1.212  0.4205 -0.4672  0.8175
  284MOL0     C39076   6.951   3.490   1.135  0.0059  0.6180  0.5682
  284MOL0     C39077   6.872   3.363   1.174  1.0592  1.4612  0.2053
  284MOL0     O39078   6.737   3.376   1.143 -0.3308 -0.0974 -0.1332
  284MOL0     C39079   6.658   3.453   1.220  0.0274  1.0646 -0.4082
  284MOL0     C39080   6.677   3.509   1.348 -0.5588 -0.2651  0.2832
  284MOL0     C39081   6.572   3.568   1.423 -0.1466 -0.0811  0.1405
  284MOL0     C39082   6.611   3.625   1.560 -0.1218 -0.0783  0.4388
  284MOL0     C39083   6.444   3.577   1.368 -0.2379 -1.0827 -0.2917
  284MOL0     C39084   6.327   3.625   1.444  0.4013  0.6617 -0.7639
  284MOL0     O39085   6.334   3.731   1.522 -0.4174 -0.2543  0.3188
  284MOL0     C39086   6.222   3.776   1.590 -0.0016  0.1823 -0.2845
  284MOL0     C39087   6.089   3.773   1.549  0.2339 -0.1825  0.0830
  284MOL0     C39088   5.993   3.820   1.637 -0.1029  0.3770  0.3501
  284MOL0     C39089   6.019   3.877   1.759 -1.1588 -0.0413  1.3186
  284MOL0     O39090   5.918   3.912   1.840  0.2760 -0.3844  0.5021
  284MOL0     C39091   5.872   3.806   1.911  1.1155 -0.0158 -1.1027
  284MOL0     C39092   5.830   3.837   2.056  0.1990 -0.9251  0.1424
  284MOL0     C39093   5.725   3.949   2.051 -0.1681 -1.0348 -0.4502
  284MOL0     C39094   5.713   4.059   2.162  0.1586 -0.6401  0.4913
  284MOL0     C39095   5.831   4.158   2.138  1.2535  0.2410 -0.4706
  284MOL0     C39096   5.835   4.259   2.260 -0.3393  0.8688  0.3974
  284MOL0     C39097   5.871   4.193   2.394  1.1284 -0.3097 -0.6347
  284MOL0     C39098   5.913   4.301   2.490 -0.1393 -1.1045 -0.0613
  284MOL0    Cl39099   5.991   4.228   2.644 -0.1563  0.2652 -0.3698
  284MOL0     C39100   6.151   3.882   1.801  0.0395  0.5298  0.4005
  284MOL0     C39101   6.253   3.831   1.713 -0.7719  0.4773  0.1163
  284MOL0     O39102   6.236   3.538   1.440 -0.4472 -0.7235 -0.1506
  284MOL0     C39103   6.423   3.528   1.244 -0.4278  0.5588 -0.0503
  284MOL0     C39104   6.527   3.457   1.176 -0.9092  0.3029  0.5770
  284MOL0     N39105   7.265   3.714   1.367  0.2818 -0.6619 -1.1860
  284MOL0     N39106   7.382   3.772   1.383  0.2271 -0.0022 -0.1204
  284MOL0     C39107   7.652   4.801   0.649  0.0734  0.1451 -0.6150
  284MOL0     C39108   7.714   4.825   0.529 -0.4071  0.1598  0.0604
  284MOL0     C39109   8.066   4.790   0.221 -0.2497  0.2386  0.4306
  284MOL0     C39110   8.185   4.864   0.230  0.0847 -0.2322  0.8000
  284MOL0     C39111   8.263   4.893   0.122 -0.1141  0.1523  0.7458
  284MOL0     C39112   8.212   4.863  -0.005 -0.9918 -0.3142  0.3867
  284MOL0     O39113   8.257   4.890  -0.130  0.7010  0.0440 -0.2101
  284MOL0     C39114   8.339   5.006  -0.143  0.4410  0.4231 -0.2797
  284MOL0     C39115   8.486   4.984  -0.117  0.2662  0.6690 -0.4700
  284MOL0     C39116   8.563   5.116  -0.095  0.1099  0.2553 -0.3475
  284MOL0     C39117   8.566   5.164   0.048 -1.2307  0.3227 -1.0149
  284MOL0     C39118   8.665   5.270   0.051  0.1946 -0.0202 -0.0442
  284MOL0     C39119   8.761   5.342   0.050  0.3397 -0.5054 -0.1216
  284MOL0     C39120   8.085   4.795  -0.017  0.6972  0.2828  0.2901
  284MOL0     C39121   8.017   4.749   0.095 -0.7850  0.3781  1.1540
  284MOL0     C39122   7.894   4.671   0.081  0.5489  1.0562 -0.3604
  284MOL0     H39123   8.031   4.797   0.667 -0.1575 -2.2055  0.4558
  284MOL0     H39124   7.914   4.735   0.847 -1.6965  0.0202  2.0627
  284MOL0     H39125   7.500   4.620   0.788 -1.1467 -0.0196  0.5076
  284MOL0     H39126   7.461   4.730   0.925 -2.7268 -1.8246 -1.4725
  284MOL0     H39127   7.597   4.563   1.086  1.3247 -5.0320  0.4710
  284MOL0     H39128   7.424   4.560   1.038  0.4783  0.2603 -0.1441
  284MOL0     H39129   7.511   4.387   0.869 -0.2554  0.1273  0.7109
  284MOL0     H39130   7.674   4.398   0.944 -0.1508 -2.0720 -2.1926
  284MOL0     H39131   7.542   4.356   1.161  0.1175  0.7584 -0.4815
  284MOL0     H39132   7.415   4.291   1.051 -0.4451 -0.5861  0.7400
  284MOL0     H39133   7.694   4.186   1.063  0.1191 -0.8134  2.4385
  284MOL0     H39134   7.563   4.110   0.960 -1.8688 -2.7902  1.9078
  284MOL0     H39135   7.569   4.111   1.265 -1.3905  1.9829 -0.6070
  284MOL0     H39136   7.428   4.066   1.176 -0.0209  0.5444 -2.9180
  284MOL0     H39137   7.705   3.932   1.125 -0.4064 -1.8247 -0.5969
  284MOL0     H39138   7.563   3.879   1.045 -1.5445  2.7970 -1.3134
  284MOL0     H39139   7.616   3.744   1.217  1.8083  0.2125  0.9897
  284MOL0     H39140   7.635   3.880   1.333  0.9128  0.0131 -1.5956
  284MOL0     H39141   7.372   3.771   1.056  0.8934 -0.1804  0.5914
  284MOL0     H39142   7.154   3.647   1.049  0.9314 -0.4484  0.7702
  284MOL0     H39143   7.055   3.716   1.179  1.6781  1.4837  3.6938
  284MOL0     H39144   7.158   3.420   1.192  1.6192  0.7656 -0.5759
  284MOL0     H39145   7.081   3.514   1.321 -0.1031 -0.2180  0.7536
  284MOL0     H39146   6.884   3.568   1.172 -0.2249  0.7175 -0.0576
  284MOL0     H39147   6.972   3.504   1.029  1.1702  0.3941  0.7563
  284MOL0     H39148   6.912   3.274   1.125 -4.1953 -0.9190 -0.4615
  284MOL0     H39149   6.872   3.344   1.281  1.0362  0.0458 -0.0258
  284MOL0     H39150   6.779   3.500   1.383 -0.5746 -1.0953  0.1481
  284MOL0     H39151   6.708   3.582   1.586  0.0070  1.0488  1.9222
  284MOL0     H39152   6.543   3.592   1.639  3.0056 -0.0903  3.3080
  284MOL0     H39153   6.619   3.734   1.563 -1.0792 -0.0280  2.5824
  284MOL0     H39154   6.057   3.738   1.451 -2.2421  2.5634 -0.2062
  284MOL0     H39155   5.890   3.818   1.603  0.4720  1.0560 -1.5372
  284MOL0     H39156   5.781   3.775   1.858  1.2282 -1.3558 -0.5558
  284MOL0     H39157   5.938   3.719   1.903  2.4439  0.9992 -1.2966
  284MOL0     H39158   5.787   3.751   2.108  0.2127 -0.5896  0.7209
  284MOL0     H39159   5.919   3.869   2.112  0.5354 -3.0304  0.8847
  284MOL0     H39160   5.624   3.907   2.043 -0.3789 -0.4844 -0.7420
  284MOL0     H39161   5.743   4.005   1.959  1.2870  0.1954  0.5151
  284MOL0     H39162   5.720   4.010   2.260  0.0938  1.2789  1.4983
  284MOL0     H39163   5.621   4.118   2.153  0.0776 -0.9316 -0.7481
  284MOL0     H39164   5.928   4.108   2.126  0.8180  0.1442 -5.7205
  284MOL0     H39165   5.799   4.198   2.042 -1.4960 -2.4294 -0.8258
  284MOL0     H39166   5.750   4.324   2.283 -2.4018 -2.4389  3.0274
  284MOL0     H39167   5.910   4.333   2.228 -1.4495  1.9806  0.2881
  284MOL0     H39168   5.954   4.121   2.391 -0.0713 -1.7603 -0.4877
  284MOL0     H39169   5.780   4.142   2.428  0.7558 -0.3536 -1.6847
  284MOL0     H39170   5.836   4.375   2.515  0.0365 -1.1709  0.6951
  284MOL0     H39171   5.998   4.354   2.447  1.2010 -1.1031  2.4222
  284MOL0     H39172   6.172   3.932   1.895 -3.3657 -1.6671  2.5571
  284MOL0     H39173   6.358   3.846   1.737 -0.6949  1.3791 -0.7076
  284MOL0     H39174   6.325   3.530   1.196  0.4428  0.2275 -1.9260
  284MOL0     H39175   6.515   3.392   1.090 -0.1150  1.7761 -0.6663
  284MOL0     H39176   7.543   4.798   0.649  0.0707 -2.6797 -0.4914
  284MOL0     H39177   7.651   4.865   0.450  0.7333  0.7234 -0.5768
  284MOL0     H39178   8.227   4.888   0.328  1.3546 -0.4097  0.3225
  284MOL0     H39179   8.366   4.925   0.133  0.2821 -0.8324  0.1172
  284MOL0     H39180   8.325   5.045  -0.245  3.3181  1.7299 -0.2761
  284MOL0     H39181   8.304   5.086  -0.078 -1.9699 -1.2404  0.5825
  284MOL0     H39182   8.521   4.935  -0.208  4.0843  2.5251 -0.2130
  284MOL0     H39183   8.516   4.915  -0.038  0.5697 -1.2789 -2.2144
  284MOL0     H39184   8.666   5.121  -0.131  0.5134  4.0003  0.8384
  284MOL0     H39185   8.508   5.193  -0.149 -2.3782 -1.6012 -0.6671
  284MOL0     H39186   8.603   5.083   0.111  1.8442  1.3895 -1.2890
  284MOL0     H39187   8.463   5.192   0.074 -2.1734  0.8036 -4.6020
  284MOL0     H39188   8.849   5.403   0.049 -2.8678  4.7696  0.2016
  284MOL0     H39189   8.048   4.778  -0.118  1.8725  0.0531 -0.1084
  284MOL0     H39190   7.864   4.642  -0.020 -4.0677 -3.8426  1.9022
  284MOL0     H39191   7.923   4.570   0.115  0.2338  1.6343  1.7769
  284MOL0     H39192   7.809   4.710   0.137  0.9504  3.5992 -1.3821
  285MOL0     O39193   1.531   6.713   2.999 -0.1869  0.2290 -0.3913
  285MOL0     C39194   1.484   6.826   3.002 -0.0574  0.7573  0.1260
  285MOL0     O39195   1.401   6.871   3.105  0.0843 -0.4287  0.4619
  285MOL0     C39196   1.411   6.817   3.229  0.1823  0.3748 -0.4883
  285MOL0     C39197   1.533   6.786   3.302  0.5206 -0.4922  0.4049
  285MOL0     C39198   1.526   6.716   3.423  0.2129  0.1628 -0.7376
  285MOL0     C39199   1.402   6.691   3.485  0.3346  0.2637 -0.2420
  285MOL0     O39200   1.398   6.620   3.609  0.3697 -0.2784  0.7332
  285MOL0     C39201   1.278   6.561   3.664 -0.2455 -0.3604  0.0602
  285MOL0     C39202   1.306   6.416   3.658  0.0260  0.0144  0.5351
  285MOL0     C39203   1.183   6.345   3.719  1.0421 -1.0665 -0.1694
  285MOL0     C39204   1.219   6.205   3.746  0.1457  0.3455 -0.8767
  285MOL0     C39205   1.129   6.147   3.859  0.0723  0.0209  0.0694
  285MOL0     C39206   1.172   6.176   4.008 -0.7823  0.9670 -0.5276
  285MOL0     C39207   1.301   6.092   4.057 -0.3025 -0.9649 -1.0544
  285MOL0     C39208   1.342   6.148   4.199  0.4520 -1.1813 -0.8065
  285MOL0     N39209   1.374   6.292   4.197 -0.2757 -0.6086 -0.8135
  285MOL0     C39210   1.431   6.355   4.095  0.3442  0.7724  0.1214
  285MOL0     C39211   1.432   6.482   4.138 -0.7492 -0.3972 -0.0554
  285MOL0     C39212   1.494   6.597   4.063  0.3663  0.1502  0.6597
  285MOL0     C39213   1.393   6.703   4.025  0.1110 -0.7068  0.5987
  285MOL0     C39214   1.450   6.824   3.960 -0.5733  0.9434 -0.6981
  285MOL0     C39215   1.340   6.926   3.928  0.5202 -0.4759  0.1765
  285MOL0     O39216   1.402   7.003   3.824  0.1928 -0.0730  0.6715
  285MOL0     C39217   1.313   7.069   3.738  0.2920 -0.2505 -0.3630
  285MOL0     C39218   1.227   7.002   3.651  0.5456  0.2793 -0.0677
  285MOL0     C39219   1.148   7.077   3.561  0.0761  0.8644  0.1951
  285MOL0     C39220   1.057   6.995   3.471 -0.2574 -0.5170  0.7129
  285MOL0     C39221   1.162   7.222   3.560  1.0534  0.1242  0.7795
  285MOL0     C39222   1.076   7.309   3.481  0.2464  0.5879 -0.1441
  285MOL0     O39223   1.090   7.444   3.511 -0.1319 -0.5967  0.2354
  285MOL0     C39224   1.053   7.547   3.434  0.2747  0.0044  0.6519
  285MOL0     C39225   1.112   7.561   3.308  0.5148  0.7343 -1.3166
  285MOL0     C39226   1.078   7.662   3.220  0.5175  0.2088  0.6075
  285MOL0     C39227   0.994   7.759   3.271 -0.9783  0.5905 -0.4026
  285MOL0     O39228   0.966   7.854   3.183 -0.2781  0.4638 -0.4722
  285MOL0     C39229   0.906   7.972   3.226  0.6128 -0.4310 -0.3568
  285MOL0     C39230   0.859   8.055   3.106 -1.1880  1.1292 -0.0860
  285MOL0     C39231   0.830   8.198   3.167 -0.0656  0.6272 -0.0678
  285MOL0     C39232   0.840   8.314   3.062  0.3106 -0.0817 -0.2703
  285MOL0     C39233   0.983   8.360   3.042  0.5963  0.4191 -0.0401
  285MOL0     C39234   1.007   8.447   2.911  0.0194  0.5950  0.0375
  285MOL0     C39235   0.942   8.580   2.925  0.4092 -1.0501  0.0243
  285MOL0     C39236   0.983   8.662   2.805 -0.0122  0.1883  0.5130
  285MOL0    Cl39237   0.869   8.654   2.673 -0.1968 -0.1028 -0.1395
  285MOL0     C39238   0.931   7.744   3.400 -0.2652 -0.9034  0.3283
  285MOL0     C39239   0.955   7.638   3.486 -1.0143 -1.1310  0.3563
  285MOL0     O39240   0.990   7.262   3.413  0.9018 -0.6318 -0.2416
  285MOL0     C39241   1.233   7.284   3.656 -0.2034 -0.3934  0.2134
  285MOL0     C39242   1.309   7.208   3.745 -0.0989  0.3650  0.8202
  285MOL0     N39243   1.387   6.494   4.268  1.0789 -0.5078 -0.1474
  285MOL0     N39244   1.357   6.384   4.305  0.2616  0.3518 -0.1628
  285MOL0     C39245   1.286   6.729   3.419  0.2270  0.0883 -0.8682
  285MOL0     C39246   1.288   6.796   3.298  0.5727  0.6707 -0.0168
  285MOL0     C39247   1.511   6.931   2.889 -0.2127 -0.0880  0.1814
  285MOL0     C39248   1.438   7.051   2.898 -0.9507 -0.3064  0.5126
  285MOL0     C39249   1.447   7.154   2.801 -0.2697  0.0896 -0.3866
  285MOL0     C39250   1.538   7.135   2.692 -0.0189 -0.7392 -0.3798
  285MOL0     O39251   1.571   7.226   2.602  0.6462 -0.0699  0.3196
  285MOL0     C39252   1.476   7.293   2.524  0.0266  0.1045 -0.1593
  285MOL0     C39253   1.539   7.404   2.430  0.0620  0.4198 -1.0307
  285MOL0     C39254   1.431   7.485   2.361  0.5276  0.1858 -0.7502
  285MOL0     C39255   1.474   7.620   2.290  0.3465 -0.0841 -0.0665
  285MOL0     C39256   1.582   7.601   2.189  0.0853 -0.4152  0.6219
  285MOL0     C39257   1.686   7.596   2.123 -0.1713 -0.0070  0.0191
  285MOL0     C39258   1.608   7.015   2.693 -0.3819 -0.2703 -0.7126
  285MOL0     C39259   1.590   6.909   2.781  0.7621  0.4288  0.9168
  285MOL0     C39260   1.653   6.779   2.759 -0.1975  0.3981  0.1663
  285MOL0     H39261   1.633   6.797   3.261 -0.0463  1.0998 -0.6406
  285MOL0     H39262   1.619   6.685   3.470  0.7924  2.1898 -0.4810
  285MOL0     H39263   1.198   6.576   3.592 -1.0775 -1.6571  0.6859
  285MOL0     H39264   1.241   6.603   3.757  1.0628 -0.3294  0.5969
  285MOL0     H39265   1.311   6.377   3.556  1.5844 -1.5671  1.1521
  285MOL0     H39266   1.398   6.389   3.711  0.6069  1.4329  0.3048
  285MOL0     H39267   1.146   6.387   3.813  0.8291  0.5633 -0.9341
  285MOL0     H39268   1.103   6.340   3.644  1.0093 -0.0322 -0.2296
  285MOL0     H39269   1.204   6.147   3.654  2.2188 -0.1753 -0.9394
  285MOL0     H39270   1.320   6.186   3.784 -0.7567 -1.5924  0.7591
  285MOL0     H39271   1.121   6.038   3.851  0.1268 -0.0381  0.7606
  285MOL0     H39272   1.027   6.174   3.830 -0.3526 -0.3787  1.1515
  285MOL0     H39273   1.195   6.282   4.018  0.8627  0.4887  1.5883
  285MOL0     H39274   1.083   6.160   4.070  0.9112 -2.0685  1.4402
  285MOL0     H39275   1.384   6.104   3.987 -0.8988  1.3975 -1.4312
  285MOL0     H39276   1.288   5.983   4.063  0.8958 -1.1143 -0.9181
  285MOL0     H39277   1.271   6.113   4.275 -0.9150  1.8079 -0.5645
  285MOL0     H39278   1.436   6.096   4.218  1.1103 -0.9607 -3.1600
  285MOL0     H39279   1.467   6.319   3.999  2.0447  0.3086  0.8987
  285MOL0     H39280   1.543   6.570   3.970 -0.1823 -0.8037  0.6413
  285MOL0     H39281   1.572   6.642   4.125  3.3457  1.2251 -3.4304
  285MOL0     H39282   1.323   6.666   3.950  1.3265 -2.6078  0.3316
  285MOL0     H39283   1.337   6.720   4.118  0.7411 -3.2845  1.5184
  285MOL0     H39284   1.531   6.865   4.022  0.0957  0.3327 -1.1480
  285MOL0     H39285   1.499   6.809   3.864 -1.1012  3.0278 -1.3489
  285MOL0     H39286   1.256   6.869   3.887 -0.7577  0.2900  1.6086
  285MOL0     H39287   1.302   6.976   4.018  0.0203  1.5386 -1.0720
  285MOL0     H39288   1.217   6.894   3.650 -1.8238  0.4102  1.3383
  285MOL0     H39289   0.953   7.026   3.487 -0.4483 -0.7602 -0.0307
  285MOL0     H39290   1.049   6.888   3.491 -1.9805 -0.8080 -1.2132
  285MOL0     H39291   1.065   6.995   3.362 -0.2734 -2.7240  0.6720
  285MOL0     H39292   1.183   7.487   3.271  0.6335 -0.9117  1.8826
  285MOL0     H39293   1.130   7.664   3.125 -0.6150 -3.9487 -0.3163
  285MOL0     H39294   0.813   7.956   3.281 -0.4470  2.6048 -1.0896
  285MOL0     H39295   0.971   8.024   3.298  0.1953  0.3807 -0.5575
  285MOL0     H39296   0.937   8.071   3.031  1.3758 -1.7936  1.7253
  285MOL0     H39297   0.770   8.008   3.063 -2.3482 -0.0187  3.2852
  285MOL0     H39298   0.913   8.220   3.234  1.7923  1.0696 -2.3623
  285MOL0     H39299   0.737   8.195   3.224 -0.6591  0.7172 -1.0090
  285MOL0     H39300   0.772   8.395   3.089  0.1837 -0.3971  0.3810
  285MOL0     H39301   0.798   8.271   2.971  0.4242 -2.0836  0.5625
  285MOL0     H39302   1.021   8.419   3.126 -3.1708 -0.9685  2.9552
  285MOL0     H39303   1.038   8.265   3.047 -2.3172 -1.3058  3.3874
  285MOL0     H39304   0.975   8.389   2.824 -0.9586 -3.3642  2.7530
  285MOL0     H39305   1.115   8.461   2.900 -0.2699  3.4190  0.0885
  285MOL0     H39306   0.978   8.640   3.009  0.2487  0.3936 -0.9143
  285MOL0     H39307   0.834   8.574   2.942  0.2809  1.6135  0.6367
  285MOL0     H39308   1.086   8.640   2.776 -0.0553  1.0355 -0.3303
  285MOL0     H39309   0.981   8.769   2.826 -1.2575  0.2643  0.0637
  285MOL0     H39310   0.863   7.816   3.444  0.5509 -0.7917  1.4581
  285MOL0     H39311   0.896   7.631   3.576 -1.9578  0.0494 -0.1421
  285MOL0     H39312   1.239   7.392   3.669  2.1615 -0.0122 -2.7883
  285MOL0     H39313   1.385   7.252   3.808  0.1748  2.1240 -0.6571
  285MOL0     H39314   1.191   6.715   3.470  1.1632 -0.8537  0.7352
  285MOL0     H39315   1.201   6.840   3.250  0.3392  0.5800  0.3140
  285MOL0     H39316   1.365   7.059   2.977 -2.7280 -2.1756 -0.8336
  285MOL0     H39317   1.391   7.247   2.805  1.7446  1.3530  1.7006
  285MOL0     H39318   1.422   7.222   2.461  0.2019  0.3939 -0.6472
  285MOL0     H39319   1.407   7.345   2.591 -2.2787  0.4723 -2.6166
  285MOL0     H39320   1.617   7.366   2.364  2.1713 -2.0947  2.5640
  285MOL0     H39321   1.596   7.472   2.494  2.2502 -1.5658 -0.7863
  285MOL0     H39322   1.380   7.424   2.286  0.4700  3.9221 -4.1519
  285MOL0     H39323   1.357   7.519   2.434  1.6791 -0.0189  0.5579
  285MOL0     H39324   1.503   7.688   2.371  0.9047  0.9200 -1.0867
  285MOL0     H39325   1.393   7.674   2.239  0.1033 -0.3828  0.0043
  285MOL0     H39326   1.777   7.581   2.069  0.5337 -1.1545  1.4577
  285MOL0     H39327   1.672   6.999   2.607 -1.4583  1.2026 -1.8336
  285MOL0     H39328   1.728   6.747   2.833  0.7501 -1.7458 -1.6117
  285MOL0     H39329   1.576   6.701   2.754 -1.5786  1.7714 -1.0486
  285MOL0     H39330   1.694   6.789   2.658  0.1823  0.2380  0.3021
  286MOL0     O39331   3.636   0.741   5.534 -0.8976 -0.9310  0.1135
  286MOL0     C39332   3.573   0.686   5.441 -0.0704  0.0811 -0.4271
  286MOL0     O39333   3.589   0.554   5.417 -0.0012  0.3039  0.7331
  286MOL0     C39334   3.690   0.487   5.478  0.3389 -0.4166  0.1820
  286MOL0     C39335   3.823   0.518   5.455 -0.0519  0.0764  1.2486
  286MOL0     C39336   3.932   0.438   5.510 -0.2549 -0.3262  0.2552
  286MOL0     C39337   3.889   0.339   5.602 -0.6342  0.6373 -1.1510
  286MOL0     O39338   3.984   0.257   5.655  0.3557  0.5982 -0.2176
  286MOL0     C39339   4.114   0.314   5.680 -0.2115  0.3254  0.1756
  286MOL0     C39340   4.184   0.243   5.791  0.1678 -0.0033  0.8740
  286MOL0     C39341   4.185   0.090   5.760 -0.1890 -0.1291  0.6254
  286MOL0     C39342   4.285   0.049   5.648 -0.6224  0.3217  0.3798
  286MOL0     C39343   4.232  -0.069   5.567 -0.5818  0.3609  0.6904
  286MOL0     C39344   4.311  -0.075   5.438  0.2831  0.3054  0.2694
  286MOL0     C39345   4.263  -0.203   5.357  0.3003  1.0057 -0.7342
  286MOL0     C39346   4.115  -0.219   5.330  0.1976 -0.1643 -0.8915
  286MOL0     N39347   4.059  -0.110   5.242 -0.7517 -0.0660 -0.6281
  286MOL0     C39348   3.988   0.001   5.293 -0.1328 -0.2661  1.3742
  286MOL0     C39349   3.975   0.084   5.186  0.5332 -0.2037 -0.7228
  286MOL0     C39350   3.902   0.209   5.210  1.0263  0.0564  0.1427
  286MOL0     C39351   3.914   0.293   5.088  0.3042 -0.1264  0.7333
  286MOL0     C39352   3.853   0.430   5.086  0.4501  0.1607  0.4556
  286MOL0     C39353   3.820   0.488   4.951 -0.8491  0.1569 -0.4739
  286MOL0     O39354   3.692   0.437   4.904 -0.3137 -0.1702 -0.0209
  286MOL0     C39355   3.659   0.432   4.767  0.1432  0.3424 -0.7111
  286MOL0     C39356   3.748   0.462   4.662 -0.1845  0.7309  0.3161
  286MOL0     C39357   3.716   0.447   4.524 -1.0495 -0.4625 -0.2424
  286MOL0     C39358   3.812   0.493   4.416 -0.0017  0.2712  0.5334
  286MOL0     C39359   3.583   0.395   4.495 -0.8505 -0.3662  0.5728
  286MOL0     C39360   3.534   0.361   4.355  0.4678 -0.2866  0.4130
  286MOL0     O39361   3.429   0.276   4.342 -0.3281 -0.6081 -0.6905
  286MOL0     C39362   3.309   0.317   4.289 -0.7762 -0.3690 -0.4226
  286MOL0     C39363   3.290   0.423   4.193 -0.0872  0.6827 -0.4308
  286MOL0     C39364   3.170   0.459   4.142 -0.7916 -0.6934  0.9736
  286MOL0     C39365   3.058   0.399   4.204  0.3853  0.3410 -0.2827
  286MOL0     O39366   2.927   0.429   4.177  0.0398  0.4302  0.8056
  286MOL0     C39367   2.902   0.371   4.043 -0.2003  0.3756  0.0571
  286MOL0     C39368   2.749   0.370   4.018 -0.5581  0.5862 -0.5620
  286MOL0     C39369   2.673   0.280   4.117 -0.3947 -0.1030  0.2404
  286MOL0     C39370   2.526   0.300   4.108  0.3686  0.5007 -0.1896
  286MOL0     C39371   2.461   0.180   4.044 -0.5573 -0.2822 -0.2519
  286MOL0     C39372   2.312   0.197   4.025  0.3490 -0.1508 -0.3291
  286MOL0     C39373   2.263   0.094   3.918  0.0187  0.6598 -0.2652
  286MOL0     C39374   2.107   0.097   3.895 -0.1155 -0.4167 -0.9911
  286MOL0    Cl39375   2.012   0.036   4.036  0.2964 -0.2745  0.5105
  286MOL0     C39376   3.076   0.295   4.299  0.3988 -0.1522 -0.0374
  286MOL0     C39377   3.195   0.259   4.347 -0.1923 -0.2762  0.2699
  286MOL0     O39378   3.594   0.407   4.262  0.3016  0.2594  0.5099
  286MOL0     C39379   3.491   0.358   4.599  0.1618  0.6130  0.1860
  286MOL0     C39380   3.530   0.385   4.729  0.3223  0.0786 -0.3440
  286MOL0     N39381   4.041   0.026   5.078 -0.7754  0.4127 -0.1187
  286MOL0     N39382   4.089  -0.091   5.108 -0.7937 -1.2525  0.1063
  286MOL0     C39383   3.759   0.316   5.636  0.1330  1.5742  0.2029
  286MOL0     C39384   3.661   0.392   5.574  0.0592 -0.6675  0.2193
  286MOL0     C39385   3.463   0.751   5.366 -0.2545 -0.7873 -0.4738
  286MOL0     C39386   3.415   0.875   5.422 -0.9941  1.2919  0.2748
  286MOL0     C39387   3.288   0.912   5.393  0.6651 -0.5717 -0.0541
  286MOL0     C39388   3.214   0.853   5.294  0.5895 -0.4232  0.2807
  286MOL0     O39389   3.083   0.900   5.288 -0.2013 -0.5365 -0.4883
  286MOL0     C39390   2.981   0.795   5.266 -0.0784  0.5027  0.3950
  286MOL0     C39391   2.926   0.782   5.130  0.0433 -0.1280 -0.2186
  286MOL0     C39392   2.892   0.927   5.070 -0.5050 -0.0118 -0.4007
  286MOL0     C39393   2.982   0.961   4.945 -1.0836  0.2217 -0.3075
  286MOL0     C39394   2.973   1.100   4.897  0.0295 -0.9538  0.5543
  286MOL0     C39395   2.964   1.202   4.828 -0.0673  0.3267  1.1790
  286MOL0     C39396   3.266   0.750   5.223  0.0133 -0.3520  1.1215
  286MOL0     C39397   3.396   0.702   5.251  0.0998 -0.3971 -0.0980
  286MOL0     C39398   3.446   0.595   5.165  0.9213 -0.1600  0.2265
  286MOL0     H39399   3.846   0.592   5.379 -0.9555  1.5480  2.3433
  286MOL0     H39400   4.034   0.459   5.480 -0.6925  1.0539 -0.3571
  286MOL0     H39401   4.095   0.416   5.715  0.9814 -0.0628  2.1267
  286MOL0     H39402   4.171   0.312   5.587 -0.5126 -1.3819  0.0061
  286MOL0     H39403   4.284   0.286   5.797  0.2334  0.4403 -2.0902
  286MOL0     H39404   4.130   0.266   5.883 -0.6815  1.7116 -0.0097
  286MOL0     H39405   4.218   0.035   5.849  0.2317 -0.8717  0.0169
  286MOL0     H39406   4.088   0.056   5.724  0.0907 -0.3558  0.0868
  286MOL0     H39407   4.292   0.138   5.586  1.5372  1.1119  1.6551
  286MOL0     H39408   4.385   0.036   5.690  0.9975  1.7137 -2.7329
  286MOL0     H39409   4.129  -0.049   5.536 -0.4515 -1.5066 -1.1490
  286MOL0     H39410   4.233  -0.169   5.611  1.9375 -0.0457 -0.1447
  286MOL0     H39411   4.289   0.008   5.371 -1.1730 -2.7186 -3.3161
  286MOL0     H39412   4.420  -0.085   5.446  0.2664 -0.0401  0.0663
  286MOL0     H39413   4.293  -0.291   5.414  0.2958  1.5017  0.0659
  286MOL0     H39414   4.325  -0.206   5.267  1.1496  2.3584 -0.2309
  286MOL0     H39415   4.109  -0.310   5.268  1.3797 -0.3598 -0.7420
  286MOL0     H39416   4.055  -0.232   5.421  2.6657  1.0603  1.0100
  286MOL0     H39417   3.957   0.029   5.393 -0.5420  0.3392  1.0828
  286MOL0     H39418   3.941   0.262   5.298 -1.5175  0.9032  0.8673
  286MOL0     H39419   3.794   0.192   5.218  0.7403  2.0756  1.4388
  286MOL0     H39420   4.017   0.299   5.052 -0.1399  0.9459 -0.4011
  286MOL0     H39421   3.857   0.241   5.011  0.4276  0.8889 -0.0532
  286MOL0     H39422   3.774   0.451   5.158 -1.2350  1.2160 -1.5961
  286MOL0     H39423   3.937   0.483   5.133  1.7055 -0.4652 -1.0010
  286MOL0     H39424   3.819   0.597   4.947 -2.4966  0.2832  1.7003
  286MOL0     H39425   3.898   0.441   4.891 -1.0901 -0.3299 -0.4155
  286MOL0     H39426   3.843   0.505   4.693 -0.6224 -0.1436  3.1952
  286MOL0     H39427   3.765   0.585   4.380  0.1171  1.5655  3.3671
  286MOL0     H39428   3.828   0.422   4.336 -1.9135  1.5617 -1.0944
  286MOL0     H39429   3.911   0.515   4.459  1.2326 -1.5152 -1.2512
  286MOL0     H39430   3.381   0.471   4.156  1.8836 -1.5942  1.1241
  286MOL0     H39431   3.149   0.532   4.064 -1.8786 -0.0480  1.8461
  286MOL0     H39432   2.945   0.428   3.960  0.1011 -0.7963 -0.6149
  286MOL0     H39433   2.935   0.267   4.032 -2.0627 -0.1622 -0.9039
  286MOL0     H39434   2.719   0.474   4.029  0.6045  0.9949 -1.1139
  286MOL0     H39435   2.731   0.336   3.915  2.1567 -2.3098 -0.2493
  286MOL0     H39436   2.710   0.326   4.209  1.7057 -0.3221 -0.4435
  286MOL0     H39437   2.708   0.176   4.107  2.0812  0.8045 -1.6272
  286MOL0     H39438   2.510   0.385   4.042 -1.0470 -1.3074 -2.3501
  286MOL0     H39439   2.475   0.316   4.203 -2.1136  0.3184 -1.4141
  286MOL0     H39440   2.506   0.178   3.944 -0.7055  0.9816 -0.3651
  286MOL0     H39441   2.476   0.090   4.104 -1.6511 -1.2549 -1.3853
  286MOL0     H39442   2.300   0.304   4.005 -2.1291  0.0459  1.6607
  286MOL0     H39443   2.262   0.169   4.118  0.8337 -1.1400 -0.3587
  286MOL0     H39444   2.297  -0.008   3.935  1.3000  1.1945  0.5377
  286MOL0     H39445   2.299   0.115   3.817 -0.8313 -2.6003 -1.3538
  286MOL0     H39446   2.074   0.037   3.810 -1.9654 -1.6183  0.4697
  286MOL0     H39447   2.074   0.199   3.877  1.7354  1.0877  3.0150
  286MOL0     H39448   2.990   0.245   4.342 -2.3777  3.9918 -0.1508
  286MOL0     H39449   3.180   0.177   4.416 -2.8153  1.3320  1.8011
  286MOL0     H39450   3.394   0.315   4.575  1.0615 -2.6383  1.8888
  286MOL0     H39451   3.463   0.373   4.814 -1.0788  1.5895 -1.1757
  286MOL0     H39452   3.722   0.229   5.689 -1.9347  1.8175 -0.7726
  286MOL0     H39453   3.559   0.356   5.587  0.0873 -1.2320 -1.0583
  286MOL0     H39454   3.461   0.915   5.512  0.3762 -4.5138  2.6522
  286MOL0     H39455   3.244   0.993   5.450  2.2394  0.2687  0.0076
  286MOL0     H39456   3.015   0.693   5.286  0.5626  0.7257  0.4359
  286MOL0     H39457   2.889   0.814   5.322 -0.5882 -1.0711  0.1542
  286MOL0     H39458   2.831   0.729   5.118 -0.0050  0.0661 -0.6862
  286MOL0     H39459   3.001   0.736   5.065  0.5909  0.5421 -0.0676
  286MOL0     H39460   2.786   0.931   5.043 -1.4952 -2.2471  2.5960
  286MOL0     H39461   2.899   1.008   5.143  0.5355 -0.2094 -0.2716
  286MOL0     H39462   2.949   0.894   4.865 -1.2264 -3.8182  2.7918
  286MOL0     H39463   3.088   0.944   4.968 -0.8696  0.0286 -1.3931
  286MOL0     H39464   2.954   1.292   4.769  2.0545 -0.9469 -1.3553
  286MOL0     H39465   3.204   0.711   5.143 -1.0742 -1.9908  2.7063
  286MOL0     H39466   3.400   0.594   5.065 -2.3231  0.1712  1.5971
  286MOL0     H39467   3.554   0.606   5.148  0.5669  0.5834 -1.9422
  286MOL0     H39468   3.431   0.498   5.211  0.2258  0.5340  1.4975
  287MOL0     O39469   2.909  10.433   8.942 -0.6973  1.0964  0.4741
  287MOL0     C39470   2.953  10.387   9.050  0.2369 -0.0073  0.2497
  287MOL0     O39471   2.983  10.257   9.071  0.0380 -0.7873  0.3918
  287MOL0     C39472   2.996  10.162   8.971  0.6800 -1.0143 -0.0659
  287MOL0     C39473   2.887  10.153   8.877 -0.4061  0.5603  0.2619
  287MOL0     C39474   2.900  10.063   8.769 -0.2682 -0.1161 -0.2763
  287MOL0     C39475   3.013   9.983   8.761 -0.1033 -0.1474  0.2671
  287MOL0     O39476   3.038   9.892   8.665  0.4312 -0.1395  0.5505
  287MOL0     C39477   2.922   9.864   8.577 -0.5300  0.6895 -0.3231
  287MOL0     C39478   2.997   9.787   8.464  0.9483 -0.2044 -0.0076
  287MOL0     C39479   3.102   9.879   8.394 -0.0637  0.1407  0.0498
  287MOL0     C39480   3.170   9.792   8.299 -1.1034 -0.1443 -0.3185
  287MOL0     C39481   3.270   9.874   8.219  0.1646  0.0806  0.1631
  287MOL0     C39482   3.301   9.810   8.086  0.0233  0.5198  0.2390
  287MOL0     C39483   3.389   9.902   8.001  0.0808  0.6657 -0.0096
  287MOL0     C39484   3.455   9.827   7.879  0.9713 -0.2944 -0.1187
  287MOL0     N39485   3.506   9.932   7.792  0.7246 -0.3456 -0.0375
  287MOL0     C39486   3.614   9.896   7.708  0.6397 -0.6181  0.1550
  287MOL0     C39487   3.639  10.004   7.632 -0.1792 -0.0853 -0.2196
  287MOL0     C39488   3.749  10.019   7.535 -0.6458 -0.0888 -0.4344
  287MOL0     C39489   3.868  10.114   7.573  0.1046  0.0699  0.3266
  287MOL0     C39490   3.937  10.076   7.709  0.1865  0.4319  0.1069
  287MOL0     C39491   4.007   9.943   7.707 -0.4230 -0.3405  0.3631
  287MOL0     O39492   4.111   9.930   7.616 -0.7499  0.1752  1.0325
  287MOL0     C39493   4.159   9.815   7.588  0.0447  0.4599  1.0404
  287MOL0     C39494   4.189   9.720   7.685 -0.3513 -0.3497  0.6114
  287MOL0     C39495   4.269   9.599   7.661  0.0151 -0.4712 -0.2133
  287MOL0     C39496   4.303   9.513   7.784 -0.0237 -0.4981  0.1633
  287MOL0     C39497   4.325   9.577   7.534  0.2347  0.7068  0.1802
  287MOL0     C39498   4.395   9.453   7.489 -0.4403 -0.9003  0.4679
  287MOL0     O39499   4.383   9.356   7.568 -0.4957 -0.5107 -0.5233
  287MOL0     C39500   4.439   9.233   7.542 -0.0076 -0.3604  0.5129
  287MOL0     C39501   4.571   9.218   7.493  0.1418  0.2969  0.8344
  287MOL0     C39502   4.634   9.096   7.482  0.3027 -0.6678 -0.4905
  287MOL0     C39503   4.568   8.978   7.521  0.9908  0.2002  0.1101
  287MOL0     O39504   4.637   8.863   7.485  0.5490  0.0706 -0.0807
  287MOL0     C39505   4.576   8.735   7.511 -0.3418  0.3464  0.7035
  287MOL0     C39506   4.489   8.690   7.399  0.1931  1.1745  0.0717
  287MOL0     C39507   4.563   8.594   7.298 -0.1556  0.7001  0.8912
  287MOL0     C39508   4.664   8.673   7.202 -0.7816 -0.2562 -0.2610
  287MOL0     C39509   4.806   8.697   7.258 -0.0087  0.0786  0.4632
  287MOL0     C39510   4.915   8.690   7.160 -0.1266  1.0873 -0.0210
  287MOL0     C39511   4.929   8.545   7.101 -0.1582 -1.2783 -0.6762
  287MOL0     C39512   5.055   8.528   7.024 -0.2416 -0.1716  1.1625
  287MOL0    Cl39513   5.065   8.632   6.866  0.3734  0.1962  0.0945
  287MOL0     C39514   4.434   8.989   7.563 -0.3585  0.5821 -0.2831
  287MOL0     C39515   4.383   9.113   7.585  0.5599 -1.7865 -1.0913
  287MOL0     O39516   4.443   9.450   7.373 -0.5235  0.0714 -1.1859
  287MOL0     C39517   4.295   9.670   7.438  0.5887 -0.2192  0.5636
  287MOL0     C39518   4.216   9.784   7.466  0.9608 -0.7246  0.5521
  287MOL0     N39519   3.555  10.109   7.670 -0.8158  1.1594 -0.5990
  287MOL0     N39520   3.467  10.060   7.756  0.7987  0.0110  0.5112
  287MOL0     C39521   3.112   9.989   8.856  0.1886  0.2073 -0.1115
  287MOL0     C39522   3.099  10.071   8.960 -1.1160 -0.3184 -0.0855
  287MOL0     C39523   2.961  10.475   9.160 -0.1983  0.5656 -0.3154
  287MOL0     C39524   2.867  10.581   9.183  0.7991 -0.3465 -0.0430
  287MOL0     C39525   2.862  10.658   9.293 -0.4463 -0.5316 -1.0636
  287MOL0     C39526   2.965  10.649   9.395 -0.1444 -1.3881 -0.7440
  287MOL0     O39527   2.998  10.735   9.501  0.0833 -0.1870  0.6416
  287MOL0     C39528   2.893  10.821   9.547 -0.4936 -0.5571  0.2364
  287MOL0     C39529   2.785  10.755   9.641 -0.3916  0.2559  0.9789
  287MOL0     C39530   2.829  10.638   9.719 -0.6714 -1.0497 -0.2613
  287MOL0     C39531   2.721  10.602   9.820 -0.0930  0.8767  0.1355
  287MOL0     C39532   2.764  10.516   9.933 -0.3995  0.3915 -1.1644
  287MOL0     C39533   2.807  10.444  10.014  0.6767  0.6665 -0.2481
  287MOL0     C39534   3.055  10.544   9.369 -0.4176 -0.6650 -0.7373
  287MOL0     C39535   3.067  10.462   9.258 -0.3157  0.4734  0.4608
  287MOL0     C39536   3.176  10.369   9.249  0.8865  0.4084  0.8996
  287MOL0     H39537   2.805  10.222   8.898  0.7980  0.6848  6.9156
  287MOL0     H39538   2.825  10.068   8.690  0.7618  0.3442 -1.2587
  287MOL0     H39539   2.877   9.955   8.536 -0.2340  2.9714  3.9099
  287MOL0     H39540   2.842   9.803   8.620  0.1615 -0.6477 -0.8697
  287MOL0     H39541   3.055   9.705   8.506  0.8500 -1.4932 -2.2249
  287MOL0     H39542   2.918   9.748   8.398  1.8067 -0.7057 -0.7710
  287MOL0     H39543   3.049   9.957   8.339  0.8770 -0.9733 -2.5858
  287MOL0     H39544   3.168   9.925   8.468  1.8364  1.3275 -2.2568
  287MOL0     H39545   3.220   9.708   8.350  0.5896  0.7782 -0.3907
  287MOL0     H39546   3.102   9.749   8.225 -1.4050  3.3847 -2.3092
  287MOL0     H39547   3.357   9.893   8.282  0.0951 -1.6153  0.8325
  287MOL0     H39548   3.228   9.970   8.190  3.2314  0.8060 -2.3339
  287MOL0     H39549   3.354   9.715   8.092  0.2400  0.5763 -0.6137
  287MOL0     H39550   3.203   9.796   8.039 -0.4866  0.2208  1.3547
  287MOL0     H39551   3.454   9.946   8.077 -2.3545  3.6444  0.5762
  287MOL0     H39552   3.332   9.982   7.952 -1.0187  1.2163  2.0460
  287MOL0     H39553   3.529   9.751   7.905 -1.3413 -2.9823 -0.8273
  287MOL0     H39554   3.373   9.767   7.839 -1.2964  0.5245  2.9310
  287MOL0     H39555   3.663   9.800   7.696 -2.1318 -2.4828  2.2960
  287MOL0     H39556   3.706  10.050   7.440 -2.2551  3.0491  1.1720
  287MOL0     H39557   3.797   9.923   7.516  4.9724  2.1573  0.4460
  287MOL0     H39558   3.948  10.111   7.500  0.7756 -1.4629  1.0696
  287MOL0     H39559   3.817  10.210   7.573  1.7437  1.0008 -1.6021
  287MOL0     H39560   4.010  10.154   7.732  1.5447 -0.0280 -2.3537
  287MOL0     H39561   3.868  10.081   7.794 -0.1093 -1.7123  0.0244
  287MOL0     H39562   4.048   9.925   7.807 -2.2263 -4.1711  0.6154
  287MOL0     H39563   3.938   9.859   7.693  0.4926 -0.6827 -2.7590
  287MOL0     H39564   4.153   9.727   7.787 -2.5896  1.0921 -0.1985
  287MOL0     H39565   4.408   9.487   7.795 -0.1909 -0.8517  1.0161
  287MOL0     H39566   4.235   9.427   7.782 -1.4888  0.5837  0.9865
  287MOL0     H39567   4.283   9.566   7.878  0.1999  0.2624 -0.2123
  287MOL0     H39568   4.618   9.311   7.462 -0.2362  0.8160  1.7610
  287MOL0     H39569   4.737   9.085   7.450  0.1684 -2.2263 -0.4559
  287MOL0     H39570   4.651   8.657   7.529  0.5016  0.6980 -1.1045
  287MOL0     H39571   4.524   8.733   7.607  3.8039 -1.2113  3.2097
  287MOL0     H39572   4.394   8.650   7.435  0.0037  0.7325 -0.8851
  287MOL0     H39573   4.462   8.784   7.348  1.1807  0.4312 -1.9283
  287MOL0     H39574   4.497   8.543   7.228  0.6137  2.5971 -1.3627
  287MOL0     H39575   4.628   8.528   7.356 -1.1727  1.5214  3.0765
  287MOL0     H39576   4.620   8.770   7.177 -0.2669  0.6287  2.0691
  287MOL0     H39577   4.678   8.618   7.108 -1.4041 -1.0068  0.0778
  287MOL0     H39578   4.805   8.796   7.306  0.1243 -1.7149  4.6616
  287MOL0     H39579   4.841   8.619   7.326  2.2039 -0.0217 -0.6843
  287MOL0     H39580   5.007   8.716   7.213  1.4335 -2.1283 -0.8790
  287MOL0     H39581   4.908   8.760   7.076 -1.9239  1.5136  0.4461
  287MOL0     H39582   4.842   8.533   7.035  0.8039 -0.8762 -2.0683
  287MOL0     H39583   4.934   8.473   7.183  4.1483 -1.3770 -0.7949
  287MOL0     H39584   5.059   8.422   6.996 -1.5916  0.7883 -3.6740
  287MOL0     H39585   5.140   8.560   7.085  0.0644  2.3122 -0.4523
  287MOL0     H39586   4.378   8.899   7.589  3.0899 -0.9014  2.9173
  287MOL0     H39587   4.284   9.112   7.629  0.6746  0.8463 -0.6500
  287MOL0     H39588   4.329   9.659   7.336  0.6009 -0.5735  0.6046
  287MOL0     H39589   4.191   9.856   7.389 -1.4918 -1.5214  0.5239
  287MOL0     H39590   3.196   9.925   8.833 -0.8969 -0.3735 -2.8959
  287MOL0     H39591   3.171  10.056   9.039 -0.8131 -1.7704 -0.6215
  287MOL0     H39592   2.785  10.602   9.115 -1.9304  0.4652  3.2347
  287MOL0     H39593   2.782  10.731   9.300  2.9391  3.3680  3.7367
  287MOL0     H39594   2.941  10.907   9.594  1.6641 -2.7418  2.3025
  287MOL0     H39595   2.838  10.857   9.460 -2.6809 -1.1505  1.3055
  287MOL0     H39596   2.698  10.734   9.579 -0.8557  2.8043  0.6871
  287MOL0     H39597   2.757  10.841   9.702  0.4060  0.7070  0.7269
  287MOL0     H39598   2.847  10.553   9.653  1.6264  0.2932 -1.5042
  287MOL0     H39599   2.919  10.680   9.765 -2.3876  0.7393  1.7249
  287MOL0     H39600   2.648  10.541   9.767 -1.4865  0.2527  2.6246
  287MOL0     H39601   2.670  10.695   9.850 -0.8641  1.2619 -2.2036
  287MOL0     H39602   2.838  10.369  10.085 -0.6600  0.3606  0.0364
  287MOL0     H39603   3.137  10.522   9.437 -1.1733 -1.7171 -0.1406
  287MOL0     H39604   3.145  10.268   9.278  0.6272  0.3298  0.3722
  287MOL0     H39605   3.201  10.369   9.142 -0.6834  0.2983  0.5153
  287MOL0     H39606   3.269  10.402   9.297  1.0023 -0.8323  1.5556
  288MOL0     O39607   5.291   7.979   9.553  0.2189  0.4138 -0.1770
  288MOL0     C39608   5.285   7.870   9.502  0.2108  0.6746  0.6602
  288MOL0     O39609   5.300   7.853   9.369 -0.5697  0.2019 -0.3069
  288MOL0     C39610   5.301   7.967   9.286  0.0290 -0.0275 -0.8866
  288MOL0     C39611   5.196   7.995   9.208  0.4233 -0.1224 -0.5282
  288MOL0     C39612   5.200   8.100   9.112 -0.3184  0.4244 -0.5316
  288MOL0     C39613   5.316   8.177   9.100 -0.5384 -0.4087  0.6530
  288MOL0     O39614   5.328   8.259   8.991  0.2486 -0.7594  0.1821
  288MOL0     C39615   5.458   8.303   8.945 -0.2729  0.0846  0.6076
  288MOL0     C39616   5.443   8.344   8.798  0.2627 -0.2091 -0.1306
  288MOL0     C39617   5.540   8.465   8.776 -0.3642  0.0434  0.1791
  288MOL0     C39618   5.544   8.517   8.630  0.5609 -0.5815  0.5857
  288MOL0     C39619   5.657   8.618   8.605 -0.9686 -1.1523 -0.1478
  288MOL0     C39620   5.639   8.705   8.477 -0.7204  0.3030  0.9154
  288MOL0     C39621   5.661   8.606   8.355  0.5070  0.1339  0.2489
  288MOL0     C39622   5.671   8.662   8.218 -0.2883  0.4438 -0.3224
  288MOL0     N39623   5.807   8.710   8.202 -0.1320  0.1365  1.0591
  288MOL0     C39624   5.852   8.836   8.161  0.0426  0.2172  0.6736
  288MOL0     C39625   5.986   8.832   8.152  0.8807 -0.0730  0.3975
  288MOL0     C39626   6.069   8.966   8.133 -0.2007 -0.9532  1.2332
  288MOL0     C39627   6.199   8.931   8.060 -0.4863  0.8142  0.6127
  288MOL0     C39628   6.291   9.055   8.036 -0.6302 -0.2080 -0.1702
  288MOL0     C39629   6.337   9.112   8.173 -0.0703 -0.4681  1.2113
  288MOL0     O39630   6.405   9.016   8.255  0.1343  1.0077 -0.7177
  288MOL0     C39631   6.481   9.073   8.362  0.6875 -0.4558 -0.0123
  288MOL0     C39632   6.460   9.204   8.418 -0.8045 -0.1478 -0.2632
  288MOL0     C39633   6.569   9.268   8.493 -0.2376 -0.1160 -0.2587
  288MOL0     C39634   6.548   9.416   8.513  0.3262  0.7699  0.1234
  288MOL0     C39635   6.684   9.190   8.533 -0.2168  0.6317  0.8852
  288MOL0     C39636   6.794   9.244   8.619  0.0584 -0.4452 -0.0826
  288MOL0     O39637   6.914   9.193   8.589 -0.2794 -0.9223 -0.8372
  288MOL0     C39638   7.020   9.216   8.682  0.2403  0.8946  0.7137
  288MOL0     C39639   7.018   9.179   8.818  0.0706  0.0069 -0.2940
  288MOL0     C39640   7.124   9.214   8.900  0.0972 -0.2635 -0.4184
  288MOL0     C39641   7.242   9.285   8.847  0.6648 -0.1235  0.4328
  288MOL0     O39642   7.339   9.308   8.946  0.1633 -0.0234  0.4765
  288MOL0     C39643   7.462   9.376   8.902 -0.0479  0.2311  0.5530
  288MOL0     C39644   7.437   9.530   8.870 -0.1657  0.2201  0.3066
  288MOL0     C39645   7.386   9.605   9.003 -0.2307 -0.3507  0.3883
  288MOL0     C39646   7.373   9.755   8.998  0.1108  0.7013  0.6859
  288MOL0     C39647   7.290   9.849   9.099  0.3650  0.1282  0.7209
  288MOL0     C39648   7.322   9.805   9.242  0.3079  0.4891  0.1764
  288MOL0     C39649   7.245   9.892   9.346 -0.7627  0.9805  0.0594
  288MOL0     C39650   7.105   9.856   9.376 -0.2941 -0.0629  0.2532
  288MOL0    Cl39651   7.089   9.694   9.448 -0.1860  0.0447  0.0455
  288MOL0     C39652   7.242   9.308   8.711 -0.7763  0.1811 -0.0365
  288MOL0     C39653   7.130   9.283   8.640 -0.8012 -0.2085 -0.7963
  288MOL0     O39654   6.766   9.303   8.721  0.7993 -0.2705 -0.1417
  288MOL0     C39655   6.680   9.053   8.502  0.9643  0.4145 -0.7090
  288MOL0     C39656   6.587   8.998   8.411  0.0899 -0.0703  0.5978
  288MOL0     N39657   6.026   8.702   8.173  0.1968 -0.3847  0.3146
  288MOL0     N39658   5.920   8.630   8.216 -0.2646 -0.5969 -0.4591
  288MOL0     C39659   5.413   8.164   9.200 -0.0079  0.3934  0.0459
  288MOL0     C39660   5.409   8.058   9.293 -1.4291 -0.4558  0.2736
  288MOL0     C39661   5.271   7.741   9.567  0.3536 -0.1043 -0.2863
  288MOL0     C39662   5.380   7.674   9.600 -1.0389 -0.1747  0.4689
  288MOL0     C39663   5.366   7.552   9.673 -0.8927 -0.8250 -0.3585
  288MOL0     C39664   5.238   7.506   9.719 -0.3138  0.6048 -0.2493
  288MOL0     O39665   5.224   7.388   9.785 -0.4051 -0.4496  0.5409
  288MOL0     C39666   5.101   7.351   9.847  0.2884  0.0454 -0.4712
  288MOL0     C39667   5.117   7.223   9.935 -0.3764 -0.5181 -0.2597
  288MOL0     C39668   4.987   7.187  10.005 -0.5819  0.3566  0.3553
  288MOL0     C39669   5.003   7.140  10.154 -0.2499 -0.1226  0.0231
  288MOL0     C39670   4.876   7.071  10.193  0.2151 -0.8940 -0.3261
  288MOL0     C39671   4.778   7.008  10.237 -1.2213  0.8932 -0.2126
  288MOL0     C39672   5.124   7.581   9.676 -0.3035 -0.0812  0.0358
  288MOL0     C39673   5.140   7.695   9.605  0.8034 -0.2947  0.2256
  288MOL0     C39674   5.020   7.770   9.572  0.0128 -0.8823  1.2180
  288MOL0     H39675   5.111   7.929   9.215  1.3206 -1.4409 -1.6299
  288MOL0     H39676   5.123   8.097   9.036  0.7489  1.1286 -1.6814
  288MOL0     H39677   5.530   8.220   8.948 -0.9888 -0.8625 -3.2109
  288MOL0     H39678   5.496   8.379   9.013  1.7101  0.8436 -1.2654
  288MOL0     H39679   5.454   8.259   8.730 -2.0755  0.1030 -1.0222
  288MOL0     H39680   5.337   8.363   8.780 -0.0111 -1.5317 -0.0287
  288MOL0     H39681   5.487   8.536   8.840 -2.8021  1.0906 -2.7632
  288MOL0     H39682   5.638   8.437   8.816 -0.4129 -0.8110 -0.2796
  288MOL0     H39683   5.561   8.428   8.568 -1.1484  1.5112 -3.2006
  288MOL0     H39684   5.442   8.555   8.619 -0.1255 -2.2169  0.9777
  288MOL0     H39685   5.754   8.567   8.596  0.4336  1.4078 -0.4802
  288MOL0     H39686   5.668   8.686   8.690  1.3126 -0.8895 -0.5824
  288MOL0     H39687   5.544   8.758   8.462  0.1881  1.5506 -0.7513
  288MOL0     H39688   5.722   8.775   8.465  0.1033 -0.9410 -1.5665
  288MOL0     H39689   5.573   8.541   8.355  0.9495 -0.4793  1.0433
  288MOL0     H39690   5.743   8.537   8.375  0.5492 -1.0009 -3.2995
  288MOL0     H39691   5.650   8.590   8.138 -4.2398 -0.1445  1.0072
  288MOL0     H39692   5.601   8.746   8.208 -0.3700  0.2702 -1.3562
  288MOL0     H39693   5.788   8.924   8.164 -0.9589 -0.3947 -1.3229
  288MOL0     H39694   6.084   9.016   8.229  1.7727 -0.5685  0.7751
  288MOL0     H39695   6.007   9.038   8.078  2.8180  2.2804  1.6994
  288MOL0     H39696   6.250   8.857   8.122 -3.1193 -1.6570  0.0400
  288MOL0     H39697   6.171   8.888   7.963 -1.0926  2.1203  0.1816
  288MOL0     H39698   6.382   9.025   7.982 -0.9601  3.1109 -2.9162
  288MOL0     H39699   6.227   9.123   7.979  1.2242  0.9010 -1.0162
  288MOL0     H39700   6.412   9.189   8.153 -0.9400 -0.1401 -1.1061
  288MOL0     H39701   6.254   9.164   8.221 -0.7661 -0.3579 -0.0662
  288MOL0     H39702   6.375   9.259   8.378 -0.4368  0.7246  0.1255
  288MOL0     H39703   6.640   9.475   8.527 -0.7733  2.9270 -1.1256
  288MOL0     H39704   6.484   9.435   8.599  0.5554  3.1549 -0.1495
  288MOL0     H39705   6.505   9.474   8.431  1.2454  1.0079 -0.2099
  288MOL0     H39706   6.930   9.131   8.859 -0.0463 -0.2774 -0.8569
  288MOL0     H39707   7.123   9.195   9.007  0.5310 -0.7037 -0.4884
  288MOL0     H39708   7.531   9.362   8.985  1.1369  0.7351 -0.3277
  288MOL0     H39709   7.509   9.322   8.819 -0.3926  0.8042 -0.0256
  288MOL0     H39710   7.525   9.582   8.833 -0.7030 -1.2951 -3.6159
  288MOL0     H39711   7.361   9.538   8.791 -0.8170 -0.7412  0.8107
  288MOL0     H39712   7.450   9.576   9.087 -0.4789 -0.5225  0.5195
  288MOL0     H39713   7.288   9.566   9.032  0.0444  0.1196  2.0921
  288MOL0     H39714   7.355   9.792   8.897 -0.4473 -1.7780 -0.1930
  288MOL0     H39715   7.481   9.768   9.014 -0.0082  1.1619  1.1510
  288MOL0     H39716   7.334   9.947   9.081  4.6457 -1.7602 -0.2286
  288MOL0     H39717   7.181   9.838   9.092  0.4810 -0.9679  0.3692
  288MOL0     H39718   7.429   9.819   9.258  0.4800 -0.1672 -0.3911
  288MOL0     H39719   7.292   9.701   9.251 -0.0423  0.5022 -0.7281
  288MOL0     H39720   7.251   9.998   9.320 -0.3851  1.1267  0.7239
  288MOL0     H39721   7.299   9.902   9.440 -3.2138  0.7295  1.5736
  288MOL0     H39722   7.051   9.855   9.281  0.8536  1.3347 -0.4504
  288MOL0     H39723   7.050   9.927   9.438 -2.3644 -1.9458  0.6996
  288MOL0     H39724   7.322   9.362   8.663 -1.1396 -0.4462 -1.4022
  288MOL0     H39725   7.130   9.317   8.537  0.2627 -3.6543 -2.0467
  288MOL0     H39726   6.758   8.990   8.544  0.6178  1.9501  2.5651
  288MOL0     H39727   6.611   8.895   8.385  0.6439  0.2257 -0.0952
  288MOL0     H39728   5.497   8.233   9.207  0.8653 -0.7034  0.7479
  288MOL0     H39729   5.498   8.036   9.350  1.8526  3.1484 -2.8569
  288MOL0     H39730   5.478   7.707   9.569 -1.1221  0.2254  0.6287
  288MOL0     H39731   5.451   7.488   9.693  0.0045  0.5348  0.3582
  288MOL0     H39732   5.085   7.440   9.909 -1.2652  0.9632 -2.0889
  288MOL0     H39733   5.018   7.340   9.776  0.8917 -0.8208 -1.0683
  288MOL0     H39734   5.206   7.227   9.999  1.0404 -1.2441 -2.0791
  288MOL0     H39735   5.132   7.139   9.866  1.3106  0.2092 -0.8576
  288MOL0     H39736   4.920   7.273  10.012 -2.0397 -0.6310 -0.7934
  288MOL0     H39737   4.933   7.110   9.949  0.2624  0.3470 -0.4649
  288MOL0     H39738   5.038   7.223  10.216  1.0022  0.4243 -1.3772
  288MOL0     H39739   5.077   7.061  10.162 -0.7346 -0.3919  3.7024
  288MOL0     H39740   4.709   6.944  10.288  1.6214 -2.0002  0.3223
  288MOL0     H39741   5.024   7.548   9.704  0.6620 -3.8887 -0.4715
  288MOL0     H39742   4.926   7.720   9.600 -0.3428 -0.3287  1.0304
  288MOL0     H39743   5.023   7.865   9.627 -0.0996 -0.1257 -0.0583
  288MOL0     H39744   5.011   7.783   9.464 -0.5206 -0.7680  1.2725
  289MOL0     O39745   2.314   6.153   8.901  0.7698 -0.1136 -0.4816
  289MOL0     C39746   2.193   6.153   8.908  0.1444  1.1041  0.5912
  289MOL0     O39747   2.122   6.158   9.026 -0.3601  0.0828  0.3028
  289MOL0     C39748   2.191   6.199   9.148  0.2647  0.4574 -0.0641
  289MOL0     C39749   2.229   6.337   9.178 -0.7808 -0.3009 -0.2897
  289MOL0     C39750   2.285   6.368   9.301  0.2889  0.4593 -0.7172
  289MOL0     C39751   2.323   6.267   9.393 -0.7732 -0.2163 -0.5429
  289MOL0     O39752   2.395   6.289   9.502  0.1147 -0.4454 -0.7606
  289MOL0     C39753   2.387   6.419   9.560 -0.3401 -0.6498 -0.4753
  289MOL0     C39754   2.427   6.405   9.711 -0.4363  0.2347 -0.7595
  289MOL0     C39755   2.405   6.543   9.784 -0.8146 -0.0126 -0.4607
  289MOL0     C39756   2.522   6.572   9.877  0.1248 -0.5981 -0.4070
  289MOL0     C39757   2.465   6.672   9.981  0.2023  0.3558 -0.7314
  289MOL0     C39758   2.440   6.820   9.920  0.3197  0.0586 -0.9646
  289MOL0     C39759   2.368   6.910  10.024  0.1202  0.2962  1.0481
  289MOL0     C39760   2.458   6.963  10.139 -0.7838 -0.6877  1.0331
  289MOL0     N39761   2.395   7.044  10.247  0.0101  0.2320 -0.9548
  289MOL0     C39762   2.330   7.159  10.227 -0.2070  0.4225 -0.0685
  289MOL0     C39763   2.331   7.219  10.346 -0.1221  0.8143 -0.0045
  289MOL0     C39764   2.292   7.357  10.390  0.5845  0.9595  0.2454
  289MOL0     C39765   2.409   7.450  10.385 -0.0676  0.1711  0.6596
  289MOL0     C39766   2.494   7.464  10.257  0.2683  1.1004 -0.3900
  289MOL0     C39767   2.409   7.479  10.128 -0.6094 -0.1385  1.3344
  289MOL0     O39768   2.479   7.494  10.004 -0.6197  0.5241 -0.5385
  289MOL0     C39769   2.527   7.623   9.965  0.1672  0.2513 -0.2514
  289MOL0     C39770   2.486   7.747  10.022  0.4242  1.3425 -0.3520
  289MOL0     C39771   2.536   7.871   9.968 -0.5837  0.7537 -0.2136
  289MOL0     C39772   2.511   7.993  10.055  0.0998 -0.1036 -0.1612
  289MOL0     C39773   2.621   7.858   9.849 -0.2525  0.0575 -0.0364
  289MOL0     C39774   2.671   7.977   9.775 -0.2142  0.4714  0.9747
  289MOL0     O39775   2.789   7.965   9.702 -0.4896 -1.0633  0.4299
  289MOL0     C39776   2.837   8.083   9.643 -0.7871  0.3640  1.1972
  289MOL0     C39777   2.860   8.200   9.713 -0.4211  0.3009 -0.0007
  289MOL0     C39778   2.916   8.313   9.651  0.3098  0.0680  0.1558
  289MOL0     C39779   2.957   8.313   9.519  0.0063 -0.2488  0.4554
  289MOL0     O39780   3.007   8.425   9.462 -0.5136  0.3411 -0.4749
  289MOL0     C39781   2.931   8.476   9.345 -0.5172  1.5562 -0.2918
  289MOL0     C39782   3.008   8.586   9.268 -0.2955 -0.4223  0.4529
  289MOL0     C39783   3.031   8.701   9.375 -0.5355 -0.1400 -0.2924
  289MOL0     C39784   3.078   8.827   9.320  0.2093  0.6775  0.7003
  289MOL0     C39785   3.222   8.823   9.265 -0.4917 -0.8028 -0.2615
  289MOL0     C39786   3.273   8.961   9.238  0.5377  0.7307  0.2510
  289MOL0     C39787   3.385   8.982   9.132  0.7359  0.3864  0.1953
  289MOL0     C39788   3.372   8.904   9.000  0.5033 -0.2824  0.1648
  289MOL0    Cl39789   3.480   8.982   8.884  0.0600  0.2004  0.5025
  289MOL0     C39790   2.922   8.193   9.448 -0.2593 -0.1725 -0.4352
  289MOL0     C39791   2.873   8.084   9.505  0.1584  0.5696  0.2778
  289MOL0     O39792   2.598   8.071   9.771  0.4606  0.0818  0.3190
  289MOL0     C39793   2.649   7.728   9.787  0.1833 -0.8559  0.2774
  289MOL0     C39794   2.604   7.617   9.856  0.1417 -0.6728  0.4451
  289MOL0     N39795   2.397   7.138  10.442 -0.3774 -0.2198 -0.3929
  289MOL0     N39796   2.436   7.028  10.379 -0.2607 -0.3672 -0.4386
  289MOL0     C39797   2.289   6.143   9.351 -0.1415 -1.1388 -0.2789
  289MOL0     C39798   2.230   6.100   9.239  0.6368  0.4029  0.0056
  289MOL0     C39799   2.118   6.138   8.782  0.6458  0.2246 -0.3784
  289MOL0     C39800   2.177   6.133   8.658 -0.1901 -0.1765  0.9820
  289MOL0     C39801   2.106   6.129   8.537  0.2456 -0.2554 -0.2753
  289MOL0     C39802   1.963   6.129   8.530  0.2610 -1.2214 -0.2743
  289MOL0     O39803   1.905   6.116   8.413 -0.2888 -0.2897  0.2840
  289MOL0     C39804   1.763   6.092   8.415 -0.1025  0.1762 -0.1541
  289MOL0     C39805   1.718   6.046   8.273 -0.1577  0.1316 -0.1365
  289MOL0     C39806   1.691   6.171   8.171  0.3532  0.9591  0.2863
  289MOL0     C39807   1.811   6.226   8.089  0.6019  0.5352  0.6457
  289MOL0     C39808   1.783   6.361   8.037 -0.0344 -0.3147 -0.2713
  289MOL0     C39809   1.764   6.481   8.017  0.6567  0.0176  0.4395
  289MOL0     C39810   1.899   6.141   8.656 -0.8960 -1.1337  0.4306
  289MOL0     C39811   1.974   6.153   8.775  0.1844 -0.0881 -0.4466
  289MOL0     C39812   1.881   6.176   8.897 -0.4214  0.4755  0.3817
  289MOL0     H39813   2.217   6.417   9.106  0.5520 -0.0508 -0.2596
  289MOL0     H39814   2.309   6.469   9.332  2.5250 -0.1823 -0.1341
  289MOL0     H39815   2.287   6.463   9.558 -1.1738 -2.0084  3.3479
  289MOL0     H39816   2.455   6.487   9.509  1.0050 -1.2987  0.3908
  289MOL0     H39817   2.363   6.334   9.763  0.6522 -2.3112 -2.6497
  289MOL0     H39818   2.532   6.375   9.705 -0.6306 -1.1598  1.5598
  289MOL0     H39819   2.401   6.626   9.712  5.2492 -0.7175 -2.1599
  289MOL0     H39820   2.319   6.534   9.850  1.3947 -4.5135  2.2799
  289MOL0     H39821   2.550   6.478   9.925 -2.1801 -1.1792 -0.0805
  289MOL0     H39822   2.607   6.617   9.826 -0.5190 -0.5481 -1.4617
  289MOL0     H39823   2.540   6.686  10.060  1.0838  0.3572 -1.5591
  289MOL0     H39824   2.380   6.622  10.028  1.0299 -2.6305 -2.1295
  289MOL0     H39825   2.532   6.867   9.883 -0.2135 -0.2524 -2.7821
  289MOL0     H39826   2.378   6.812   9.830  0.5625 -0.3694 -1.0978
  289MOL0     H39827   2.287   6.852  10.072  1.5069 -3.4191 -0.7202
  289MOL0     H39828   2.331   7.005   9.984  2.4673  1.2572  1.0081
  289MOL0     H39829   2.510   6.881  10.189  0.3933 -0.9197 -0.5158
  289MOL0     H39830   2.527   7.028  10.085 -2.9863 -0.6513 -2.0039
  289MOL0     H39831   2.277   7.180  10.134 -0.8277 -1.0770 -0.0879
  289MOL0     H39832   2.246   7.359  10.489  0.1262  0.9339  0.0368
  289MOL0     H39833   2.207   7.376  10.324 -1.2590 -1.8121  1.6284
  289MOL0     H39834   2.372   7.553  10.388 -0.5026  0.0275  0.2016
  289MOL0     H39835   2.479   7.421  10.465  0.4504 -0.6909 -0.0901
  289MOL0     H39836   2.557   7.554  10.262  1.1526  0.6202 -2.1596
  289MOL0     H39837   2.558   7.376  10.250  0.5945  1.1794  1.1651
  289MOL0     H39838   2.354   7.386  10.108  3.0886 -2.1532 -0.6035
  289MOL0     H39839   2.332   7.554  10.147 -3.3997 -2.2715 -0.6577
  289MOL0     H39840   2.415   7.739  10.105 -0.0392  0.6381 -0.8021
  289MOL0     H39841   2.596   8.060  10.042 -1.2533  1.6489 -0.2715
  289MOL0     H39842   2.488   7.962  10.157  1.1641 -0.3279  0.0258
  289MOL0     H39843   2.433   8.056  10.011 -0.5715 -2.0786 -1.9949
  289MOL0     H39844   2.851   8.197   9.821  2.5264  2.3228  0.4458
  289MOL0     H39845   2.936   8.398   9.715  1.3898 -0.2937  0.3139
  289MOL0     H39846   2.918   8.398   9.270  2.0338  2.3441 -1.6545
  289MOL0     H39847   2.837   8.515   9.387 -1.0792  0.6625 -0.6841
  289MOL0     H39848   3.097   8.542   9.223 -0.7951 -1.2988  0.2852
  289MOL0     H39849   2.958   8.625   9.180  1.2728  0.0131 -0.2729
  289MOL0     H39850   3.092   8.664   9.458  0.1247 -0.7990 -1.0568
  289MOL0     H39851   2.932   8.724   9.416 -1.5772  1.2706 -3.2940
  289MOL0     H39852   3.077   8.899   9.402 -0.3944 -0.8745  2.0953
  289MOL0     H39853   3.008   8.859   9.241  2.1962  2.6792 -0.3813
  289MOL0     H39854   3.288   8.780   9.341 -0.9704 -2.0125 -0.5043
  289MOL0     H39855   3.237   8.757   9.178  0.4549  1.8054 -2.2225
  289MOL0     H39856   3.301   9.008   9.333  0.8213  1.0379  0.0185
  289MOL0     H39857   3.187   9.022   9.209 -0.5894 -0.6539  0.5455
  289MOL0     H39858   3.486   8.966   9.170  1.8881  0.2638 -2.6716
  289MOL0     H39859   3.388   9.089   9.109 -2.0037  0.2954 -0.9286
  289MOL0     H39860   3.266   8.910   8.976  0.1730  2.2603  1.9321
  289MOL0     H39861   3.387   8.797   9.015 -0.3465 -0.4998 -0.4605
  289MOL0     H39862   2.951   8.188   9.343  2.3274 -0.4826  0.2188
  289MOL0     H39863   2.861   8.002   9.436  2.1476  1.8537 -1.7631
  289MOL0     H39864   2.712   7.716   9.699  0.2532 -2.9426  0.5615
  289MOL0     H39865   2.607   7.522   9.802 -0.9676  0.8645 -2.6004
  289MOL0     H39866   2.317   6.068   9.424  1.1486 -1.1799 -0.7907
  289MOL0     H39867   2.197   5.997   9.226 -0.2730  0.9055 -2.1905
  289MOL0     H39868   2.285   6.144   8.655 -0.1503 -0.5476  1.0241
  289MOL0     H39869   2.153   6.123   8.440  1.6082 -0.5604  0.3705
  289MOL0     H39870   1.753   6.001   8.475  0.5086 -0.5285 -1.0869
  289MOL0     H39871   1.698   6.171   8.455 -0.3500  0.2690 -0.7380
  289MOL0     H39872   1.631   5.984   8.296 -1.0780  1.2838 -0.4003
  289MOL0     H39873   1.796   5.989   8.223  1.6120  2.5347 -0.3260
  289MOL0     H39874   1.618   6.134   8.098  2.7993  0.5101 -2.1066
  289MOL0     H39875   1.638   6.251   8.223 -1.5355 -0.2094  0.2251
  289MOL0     H39876   1.827   6.150   8.012  0.7448  0.2327  0.9686
  289MOL0     H39877   1.900   6.232   8.153  1.3781  1.3178 -0.4789
  289MOL0     H39878   1.752   6.584   7.994 -0.6982 -0.6805 -2.3711
  289MOL0     H39879   1.791   6.150   8.664 -0.8822 -0.6574  0.1348
  289MOL0     H39880   1.864   6.088   8.959  1.1330  1.0937  1.7691
  289MOL0     H39881   1.915   6.262   8.956 -0.6849  1.7370 -1.2400
  289MOL0     H39882   1.778   6.195   8.864 -0.3243 -2.0608 -1.7132
  290MOL0     O39883   3.834   2.969   1.358  0.6666 -0.1723 -0.1824
  290MOL0     C39884   3.786   2.900   1.452 -0.4366 -0.5362 -0.6122
  290MOL0     O39885   3.750   2.773   1.435  0.3163  0.3118  0.1565
  290MOL0     C39886   3.658   2.718   1.524  0.0733 -0.0204 -0.4688
  290MOL0     C39887   3.545   2.783   1.588  0.8545 -1.0510  0.5113
  290MOL0     C39888   3.472   2.713   1.676  0.3684  0.3556 -0.7779
  290MOL0     C39889   3.507   2.584   1.727 -0.9392 -1.1150  0.2471
  290MOL0     O39890   3.425   2.548   1.834 -0.3404  0.6286  0.1842
  290MOL0     C39891   3.427   2.415   1.874 -0.2364 -0.3407  0.1003
  290MOL0     C39892   3.300   2.343   1.826  0.6916 -1.4446 -0.6614
  290MOL0     C39893   3.168   2.392   1.904 -0.2750  0.7414  0.1497
  290MOL0     C39894   3.099   2.515   1.846  0.6777 -1.2621  0.0384
  290MOL0     C39895   3.004   2.583   1.944 -0.3099  0.3614  0.0364
  290MOL0     C39896   2.923   2.697   1.867 -0.1931  0.1067  0.9258
  290MOL0     C39897   2.819   2.779   1.947  0.3545 -0.0200  0.4204
  290MOL0     C39898   2.880   2.866   2.045  0.0431 -0.3925 -0.7508
  290MOL0     N39899   2.774   2.917   2.132  1.4271  0.0841 -0.6637
  290MOL0     C39900   2.744   2.878   2.263 -0.0629 -0.1554 -0.8814
  290MOL0     C39901   2.640   2.958   2.302 -0.6020 -0.0155  0.9986
  290MOL0     C39902   2.557   2.933   2.421 -0.2580 -0.0577 -0.5990
  290MOL0     C39903   2.466   3.053   2.472 -0.2872 -0.2333 -0.3778
  290MOL0     C39904   2.417   3.025   2.607 -0.2442  0.7677  0.2084
  290MOL0     C39905   2.349   2.883   2.608  0.1722 -0.6203  0.0427
  290MOL0     O39906   2.232   2.897   2.700 -1.0371  0.6445 -0.1197
  290MOL0     C39907   2.122   2.964   2.648  0.2555  0.2819 -0.2111
  290MOL0     C39908   2.072   2.976   2.516  0.0048  0.5140  0.7951
  290MOL0     C39909   1.967   3.069   2.482  0.4042  0.1508  0.7465
  290MOL0     C39910   1.948   3.090   2.327  0.0824  0.2569 -0.4245
  290MOL0     C39911   1.896   3.141   2.591 -1.3556  0.6680 -0.5725
  290MOL0     C39912   1.796   3.237   2.573  0.3849 -0.7276  0.9974
  290MOL0     O39913   1.785   3.288   2.445 -0.0617  0.2134  0.0405
  290MOL0     C39914   1.671   3.365   2.402 -0.0408  0.4524 -0.0969
  290MOL0     C39915   1.611   3.328   2.277  0.4911 -0.1898 -0.4715
  290MOL0     C39916   1.509   3.406   2.226  0.2690 -0.2438  0.0983
  290MOL0     C39917   1.448   3.506   2.302  0.0838  0.0047 -0.6099
  290MOL0     O39918   1.333   3.586   2.270 -0.2778 -0.3261  0.3023
  290MOL0     C39919   1.261   3.550   2.153 -0.0100 -0.3337 -0.5668
  290MOL0     C39920   1.152   3.656   2.128 -0.4078 -0.2422  0.3646
  290MOL0     C39921   1.074   3.656   1.992  0.3596 -0.4801 -0.8696
  290MOL0     C39922   0.978   3.533   1.982  0.0967  0.0885 -0.4561
  290MOL0     C39923   0.910   3.516   1.849 -0.2311  0.2669 -0.2091
  290MOL0     C39924   0.840   3.379   1.840  0.2879  0.7322  0.0669
  290MOL0     C39925   0.759   3.369   1.712 -0.8521  0.3554  1.0073
  290MOL0     C39926   0.702   3.231   1.698  0.1368 -1.1968  0.2781
  290MOL0    Cl39927   0.586   3.225   1.566 -0.3898  0.1512  0.0259
  290MOL0     C39928   1.498   3.525   2.433  0.2054 -0.0135 -0.0067
  290MOL0     C39929   1.615   3.466   2.481 -0.0570  0.5677 -0.7151
  290MOL0     O39930   1.719   3.263   2.666  0.0183  0.6672  0.1444
  290MOL0     C39931   1.931   3.100   2.721  0.4493  0.0943  0.0562
  290MOL0     C39932   2.038   3.012   2.748 -0.8769  1.1753 -0.4709
  290MOL0     N39933   2.611   3.035   2.190  0.3815 -0.5383 -0.2167
  290MOL0     N39934   2.680   3.010   2.089 -0.5185 -0.1808  0.1367
  290MOL0     C39935   3.613   2.519   1.659  0.0350 -0.2179 -0.8579
  290MOL0     C39936   3.680   2.583   1.558 -1.2647 -0.0198 -0.4582
  290MOL0     C39937   3.817   2.945   1.584  0.4038 -0.1288 -0.1293
  290MOL0     C39938   3.883   2.859   1.672  0.2102 -0.3419  0.4412
  290MOL0     C39939   3.922   2.906   1.794 -0.6778  1.5990  0.0575
  290MOL0     C39940   3.900   3.041   1.836  1.4249 -0.4419  0.4982
  290MOL0     O39941   3.939   3.108   1.951  0.2160  0.0485 -0.2599
  290MOL0     C39942   4.046   3.038   2.028  1.3641  0.3043  1.2748
  290MOL0     C39943   4.144   3.143   2.060  0.4766  0.8450  0.1829
  290MOL0     C39944   4.085   3.252   2.162 -1.2362 -0.3551 -0.6161
  290MOL0     C39945   4.167   3.380   2.158  0.3812 -0.5176 -0.2196
  290MOL0     C39946   4.120   3.484   2.248  0.9339  0.5386 -0.2819
  290MOL0     C39947   4.093   3.560   2.338 -0.1312 -0.4378  0.5019
  290MOL0     C39948   3.818   3.116   1.753  0.9796  0.7988 -0.4123
  290MOL0     C39949   3.789   3.076   1.624 -0.2475 -0.3844 -0.3942
  290MOL0     C39950   3.709   3.171   1.543  1.0723 -0.4079  0.1033
  290MOL0     H39951   3.517   2.888   1.578  0.2559 -0.9711  2.6432
  290MOL0     H39952   3.391   2.762   1.729  1.4360 -0.2000  1.5165
  290MOL0     H39953   3.423   2.421   1.984  1.6190  3.8676  0.1160
  290MOL0     H39954   3.512   2.367   1.826  1.3506  4.9050 -3.2380
  290MOL0     H39955   3.269   2.365   1.723 -0.1447  1.2438  0.0727
  290MOL0     H39956   3.322   2.236   1.835 -0.6170 -1.8292 -1.7767
  290MOL0     H39957   3.094   2.315   1.879  1.1384  0.0590 -2.1388
  290MOL0     H39958   3.188   2.404   2.011  0.0814 -2.7873  0.6080
  290MOL0     H39959   3.172   2.595   1.831 -0.1855 -0.6351 -0.9605
  290MOL0     H39960   3.051   2.495   1.750  0.5437 -2.8320  0.4040
  290MOL0     H39961   3.060   2.619   2.031  1.7624 -1.3306 -0.5127
  290MOL0     H39962   2.927   2.519   1.987  1.9939 -1.5498  1.5697
  290MOL0     H39963   2.997   2.760   1.817  1.2357 -2.0231  0.2194
  290MOL0     H39964   2.867   2.643   1.790  0.2727 -0.3515  0.9007
  290MOL0     H39965   2.770   2.699   2.003  2.5830 -0.0222  2.5720
  290MOL0     H39966   2.756   2.841   1.883 -0.5590  0.8318  2.0873
  290MOL0     H39967   2.944   2.809   2.113 -1.5191 -1.9338 -0.4917
  290MOL0     H39968   2.935   2.947   1.997  1.1643 -0.9732 -0.4869
  290MOL0     H39969   2.776   2.792   2.322  2.5360  0.5065 -1.1882
  290MOL0     H39970   2.622   2.892   2.499 -0.6739 -0.4374 -0.4447
  290MOL0     H39971   2.493   2.852   2.385  0.8719  0.0396 -3.0044
  290MOL0     H39972   2.516   3.149   2.485  0.6069 -0.9493  1.9671
  290MOL0     H39973   2.385   3.061   2.398 -1.0941  0.2292  0.5351
  290MOL0     H39974   2.503   3.019   2.674 -0.2674 -0.7522  0.1526
  290MOL0     H39975   2.350   3.103   2.643 -1.0202  0.1105  0.2273
  290MOL0     H39976   2.303   2.853   2.513 -2.8410  0.0844  1.1458
  290MOL0     H39977   2.410   2.795   2.627  0.6411  0.1511  2.4720
  290MOL0     H39978   2.116   2.908   2.444 -1.7664 -0.0750  0.2226
  290MOL0     H39979   2.001   3.180   2.293  1.7352 -2.1910 -5.3710
  290MOL0     H39980   1.841   3.101   2.311  0.0923  2.3055  0.5272
  290MOL0     H39981   1.985   2.994   2.289  0.0434 -0.1439  0.5367
  290MOL0     H39982   1.662   3.249   2.223 -1.3955 -2.3510  0.7356
  290MOL0     H39983   1.477   3.392   2.124 -1.2360 -0.9646  0.6461
  290MOL0     H39984   1.319   3.536   2.062 -1.9760  1.9507 -2.3326
  290MOL0     H39985   1.210   3.456   2.176 -0.8851  0.9039  3.4102
  290MOL0     H39986   1.089   3.649   2.216  1.0465  2.1273  1.6992
  290MOL0     H39987   1.199   3.755   2.126  1.5331 -1.0904 -1.6340
  290MOL0     H39988   1.139   3.651   1.904  1.5441 -1.5048  0.0305
  290MOL0     H39989   0.997   3.733   1.979 -1.7948 -2.4092 -0.1287
  290MOL0     H39990   0.899   3.548   2.056 -2.0590 -0.1845 -2.5715
  290MOL0     H39991   1.046   3.448   1.992  0.6723 -0.1272 -4.5781
  290MOL0     H39992   0.842   3.602   1.838  1.0705  1.1779 -1.5509
  290MOL0     H39993   0.984   3.528   1.770 -1.3615  4.0562 -0.9013
  290MOL0     H39994   0.770   3.377   1.923  0.3434 -1.6386  0.1305
  290MOL0     H39995   0.916   3.301   1.841 -0.5870 -0.1287  1.2321
  290MOL0     H39996   0.821   3.395   1.626 -0.4301  1.4361  1.6159
  290MOL0     H39997   0.676   3.440   1.716 -1.4915 -0.2229 -0.8793
  290MOL0     H39998   0.635   3.207   1.781 -2.4008 -1.7813 -1.8166
  290MOL0     H39999   0.779   3.153   1.688 -1.1635 -2.4249 -0.4595
  290MOL0     H40000   1.457   3.609   2.488 -0.4236  0.3391 -0.9867
  290MOL0     H40001   1.669   3.511   2.564  0.5393  4.0852 -2.8101
  290MOL0     H40002   1.868   3.145   2.798 -2.9084 -2.3452 -1.0228
  290MOL0     H40003   2.062   2.992   2.852  0.0646  0.8731 -0.7353
  290MOL0     H40004   3.655   2.424   1.690  0.7682  1.0902  2.5677
  290MOL0     H40005   3.757   2.535   1.499  1.0108 -0.9539  2.9907
  290MOL0     H40006   3.906   2.757   1.640  0.3914 -0.2779  0.3644
  290MOL0     H40007   3.960   2.828   1.860 -4.3487  2.1259  3.1545
  290MOL0     H40008   4.002   2.987   2.115 -2.0790  2.4991  1.0349
  290MOL0     H40009   4.096   2.970   1.959  1.4541  2.4543 -0.9510
  290MOL0     H40010   4.176   3.185   1.964  2.4489 -1.2786 -0.1879
  290MOL0     H40011   4.227   3.092   2.110 -0.5163 -0.3858  0.6289
  290MOL0     H40012   3.989   3.282   2.120  0.2935  3.0406 -1.9829
  290MOL0     H40013   4.105   3.220   2.265  0.1579  1.4405 -0.2721
  290MOL0     H40014   4.162   3.424   2.058  2.3901 -0.2469 -0.2424
  290MOL0     H40015   4.274   3.359   2.170  0.5233 -3.1184 -4.2953
  290MOL0     H40016   4.082   3.640   2.409  0.3729  1.8366 -1.8185
  290MOL0     H40017   3.791   3.212   1.796  2.5451 -0.3382  3.6307
  290MOL0     H40018   3.604   3.150   1.565  1.3250 -2.6140 -0.5192
  290MOL0     H40019   3.742   3.272   1.569  1.4309 -0.8325  1.3873
  290MOL0     H40020   3.722   3.169   1.434 -0.1293 -0.5837 -0.0475
  291MOL0     O40021   3.096   0.179   3.830 -0.1358  1.4742  0.6418
  291MOL0     C40022   3.138   0.103   3.744 -0.1796  0.1615  0.2167
  291MOL0     O40023   3.078   0.084   3.621 -0.9009  0.4850  0.4426
  291MOL0     C40024   2.982   0.165   3.564 -0.7930 -0.0143  0.0004
  291MOL0     C40025   2.864   0.207   3.632 -0.8633  0.3556  0.1434
  291MOL0     C40026   2.764   0.279   3.572  0.8680 -1.1716  0.0632
  291MOL0     C40027   2.790   0.321   3.445  0.3836  0.4351  1.2541
  291MOL0     O40028   2.698   0.416   3.400 -0.9623 -0.8429 -0.0969
  291MOL0     C40029   2.750   0.552   3.370 -0.5095 -0.2072 -0.3582
  291MOL0     C40030   2.827   0.623   3.482  0.5259  0.0820 -0.3135
  291MOL0     C40031   2.825   0.776   3.494  0.4848  1.0206  0.3931
  291MOL0     C40032   2.889   0.837   3.378 -0.3133 -0.9811  0.8663
  291MOL0     C40033   2.896   0.990   3.390 -0.4691 -0.0776  0.2729
  291MOL0     C40034   2.913   1.039   3.246  0.6879  0.1949  0.3523
  291MOL0     C40035   2.780   1.027   3.150  0.1886  1.7888 -0.2176
  291MOL0     C40036   2.751   1.169   3.117  1.2304  0.1337  0.0794
  291MOL0     N40037   2.851   1.255   3.055  0.7231 -0.1114 -1.0666
  291MOL0     C40038   2.895   1.372   3.108 -0.3739  0.1539 -0.1934
  291MOL0     C40039   3.001   1.407   3.014  0.3523 -1.1978  1.3227
  291MOL0     C40040   3.073   1.537   3.022  0.0310  0.3546  0.9191
  291MOL0     C40041   2.977   1.642   2.976  0.2666  0.4189  0.4467
  291MOL0     C40042   2.964   1.651   2.818 -0.1378  0.3050  0.2898
  291MOL0     C40043   3.097   1.701   2.752 -0.2249  0.2728 -0.1106
  291MOL0     O40044   3.141   1.819   2.823  0.1293 -0.1161  0.4229
  291MOL0     C40045   3.244   1.887   2.763  0.1927  0.5069  0.5682
  291MOL0     C40046   3.302   1.994   2.839  0.4651 -0.5067  1.2032
  291MOL0     C40047   3.409   2.080   2.795 -0.1321  0.7409  0.4507
  291MOL0     C40048   3.474   2.160   2.908 -0.9174 -0.0539 -0.0074
  291MOL0     C40049   3.460   2.058   2.663  0.3610 -0.7192 -0.0230
  291MOL0     C40050   3.571   2.134   2.608  0.2934  0.8495  0.7695
  291MOL0     O40051   3.617   2.246   2.677 -0.7544 -0.4101 -0.3838
  291MOL0     C40052   3.672   2.357   2.618  0.5448  0.1529 -0.4077
  291MOL0     C40053   3.601   2.474   2.618  0.2257 -0.7119  0.5820
  291MOL0     C40054   3.664   2.590   2.561 -0.3511  0.1648 -0.6976
  291MOL0     C40055   3.804   2.588   2.521  0.2775  0.0676 -0.1327
  291MOL0     O40056   3.878   2.686   2.466 -0.6440  0.4218  0.2457
  291MOL0     C40057   3.832   2.823   2.479  0.1349  0.4598  0.0991
  291MOL0     C40058   3.951   2.914   2.489 -0.4753  0.4299  0.1353
  291MOL0     C40059   3.926   3.057   2.436  0.1911 -0.7928  0.4089
  291MOL0     C40060   3.824   3.136   2.507 -0.2506  0.2371  1.1762
  291MOL0     C40061   3.863   3.284   2.499 -0.1435  0.0933  0.3182
  291MOL0     C40062   3.760   3.376   2.562  1.0091  0.4377 -0.0121
  291MOL0     C40063   3.777   3.531   2.527 -0.2105  0.7492 -0.1615
  291MOL0     C40064   3.807   3.614   2.648  0.3525 -0.0629 -0.0805
  291MOL0    Cl40065   3.981   3.620   2.678 -0.2996 -0.4067  0.3614
  291MOL0     C40066   3.876   2.470   2.519  0.3343  1.2751 -0.0756
  291MOL0     C40067   3.805   2.348   2.566 -0.3994 -0.5448  0.1569
  291MOL0     O40068   3.609   2.093   2.495  0.0090 -0.0124  0.3413
  291MOL0     C40069   3.406   1.948   2.593 -0.2426  0.1357 -0.6402
  291MOL0     C40070   3.299   1.863   2.639 -0.4546  0.2118 -0.7127
  291MOL0     N40071   3.010   1.309   2.920  0.4444  0.8245  1.2294
  291MOL0     N40072   2.919   1.216   2.945  0.5087  0.6344 -0.3747
  291MOL0     C40073   2.907   0.296   3.379 -0.5657  0.0178 -0.3616
  291MOL0     C40074   3.001   0.208   3.436 -1.1431  0.1160  0.5607
  291MOL0     C40075   3.260   0.037   3.780  0.2280 -0.2512 -0.2704
  291MOL0     C40076   3.283  -0.062   3.686 -0.2855 -0.1401 -0.4173
  291MOL0     C40077   3.403  -0.139   3.706 -0.0785  0.6773 -0.3869
  291MOL0     C40078   3.494  -0.123   3.798 -0.3189 -0.1794  0.4686
  291MOL0     O40079   3.607  -0.182   3.784  0.7473 -0.1522  0.2148
  291MOL0     C40080   3.697  -0.181   3.889 -0.3585  0.5097 -0.4280
  291MOL0     C40081   3.783  -0.297   3.864  0.3906 -1.5595  0.4835
  291MOL0     C40082   3.874  -0.272   3.740 -0.1196  0.0587  0.1941
  291MOL0     C40083   4.007  -0.192   3.770  0.6388 -0.0244  0.7084
  291MOL0     C40084   3.982  -0.044   3.762 -0.6894 -0.8552 -0.5376
  291MOL0     C40085   3.965   0.074   3.762 -0.0869  0.5406 -0.1836
  291MOL0     C40086   3.454  -0.034   3.898 -0.5617  0.0604 -0.2980
  291MOL0     C40087   3.342   0.049   3.891 -0.4596 -0.7831 -0.5025
  291MOL0     C40088   3.309   0.142   4.012 -0.8434  0.6436 -0.4343
  291MOL0     H40089   2.849   0.178   3.735 -1.3484 -1.2116 -0.3369
  291MOL0     H40090   2.683   0.313   3.635 -0.0278  1.7436 -2.3685
  291MOL0     H40091   2.666   0.616   3.343  0.2392  1.7752  1.6616
  291MOL0     H40092   2.822   0.563   3.287  0.1068 -1.7556 -0.0576
  291MOL0     H40093   2.783   0.593   3.578 -0.9616 -0.6795 -1.2042
  291MOL0     H40094   2.925   0.575   3.488 -0.2901 -1.5896  0.0966
  291MOL0     H40095   2.731   0.827   3.514 -0.1895 -0.0777  0.0860
  291MOL0     H40096   2.884   0.789   3.585  1.6533  0.5625 -0.2761
  291MOL0     H40097   2.986   0.788   3.367 -0.5377 -2.2977  3.7648
  291MOL0     H40098   2.826   0.815   3.292 -0.8588  1.9338  0.4004
  291MOL0     H40099   2.984   1.027   3.444  0.3889  1.2169 -1.8753
  291MOL0     H40100   2.811   1.045   3.433  0.0211  3.2629 -2.5484
  291MOL0     H40101   2.946   1.144   3.244  0.5778  0.2222 -1.1359
  291MOL0     H40102   2.988   0.976   3.197 -0.7136 -0.2409 -1.3134
  291MOL0     H40103   2.701   0.979   3.208 -0.5943 -0.5193 -2.9716
  291MOL0     H40104   2.801   0.964   3.064 -2.3010  2.7031 -1.5775
  291MOL0     H40105   2.658   1.172   3.059  1.2857 -1.6522 -0.1381
  291MOL0     H40106   2.729   1.210   3.216  0.8277 -2.5760  1.1824
  291MOL0     H40107   2.850   1.416   3.197 -0.4466 -0.9866  0.3467
  291MOL0     H40108   3.169   1.518   2.973 -0.9252 -0.3974 -0.7540
  291MOL0     H40109   3.096   1.555   3.127  0.5604 -1.3747  1.1262
  291MOL0     H40110   2.877   1.615   3.011 -0.5680 -2.5096 -3.4055
  291MOL0     H40111   2.999   1.738   3.023  0.1494  1.1022 -0.8324
  291MOL0     H40112   2.936   1.558   2.768  4.4251 -0.3213 -1.4822
  291MOL0     H40113   2.887   1.729   2.814 -0.6666  0.1826  4.1608
  291MOL0     H40114   3.173   1.622   2.748  0.9663  1.4191 -3.0322
  291MOL0     H40115   3.070   1.733   2.651  0.8363  2.0945  0.1305
  291MOL0     H40116   3.260   2.023   2.934 -5.2930  3.3799 -1.9290
  291MOL0     H40117   3.415   2.151   3.000 -1.1083  2.7228  0.2369
  291MOL0     H40118   3.470   2.268   2.888  2.8252  0.0626 -0.8076
  291MOL0     H40119   3.578   2.131   2.925 -1.2913 -1.4720 -0.0819
  291MOL0     H40120   3.501   2.473   2.659 -0.1512 -1.7566 -0.3072
  291MOL0     H40121   3.613   2.685   2.544 -2.8652 -0.7807  1.0485
  291MOL0     H40122   3.771   2.856   2.394 -1.0819  1.2202  1.2212
  291MOL0     H40123   3.765   2.826   2.565 -0.2942 -0.6039 -0.1860
  291MOL0     H40124   3.975   2.926   2.594  0.4591 -1.3251  0.1544
  291MOL0     H40125   4.035   2.868   2.436 -2.3655  0.3549 -3.1201
  291MOL0     H40126   3.891   3.057   2.333  3.0468 -2.1664 -0.6724
  291MOL0     H40127   4.022   3.110   2.445  0.1504 -0.8391  1.1416
  291MOL0     H40128   3.828   3.120   2.615  4.6882 -0.2193  1.1452
  291MOL0     H40129   3.728   3.117   2.458  1.4587 -3.3043 -1.1986
  291MOL0     H40130   3.956   3.300   2.555 -1.5366  1.5789  2.3564
  291MOL0     H40131   3.877   3.301   2.392  1.7635 -1.2211  0.3015
  291MOL0     H40132   3.748   3.355   2.669  0.6281 -1.8645 -0.4417
  291MOL0     H40133   3.665   3.331   2.530  1.5114 -1.3359  0.8167
  291MOL0     H40134   3.684   3.558   2.476 -0.6590 -1.1266 -0.3841
  291MOL0     H40135   3.852   3.546   2.450 -1.3872 -2.8161 -2.2004
  291MOL0     H40136   3.759   3.574   2.738  0.2123 -2.5914 -1.1844
  291MOL0     H40137   3.764   3.712   2.627 -0.5284 -0.6106 -0.8881
  291MOL0     H40138   3.981   2.459   2.492  0.2476  4.1757 -1.8907
  291MOL0     H40139   3.863   2.257   2.575  0.8588  0.1440 -0.6790
  291MOL0     H40140   3.440   1.923   2.493 -0.8516 -1.0281 -0.5729
  291MOL0     H40141   3.255   1.790   2.572 -0.8429  0.0664 -0.3059
  291MOL0     H40142   2.928   0.338   3.281 -0.1832  1.5325  0.3249
  291MOL0     H40143   3.092   0.187   3.380 -1.5849  0.6684 -0.3873
  291MOL0     H40144   3.227  -0.084   3.597 -0.6507 -0.2754 -0.1565
  291MOL0     H40145   3.445  -0.199   3.626  2.7612  1.6157  0.2768
  291MOL0     H40146   3.754  -0.088   3.901 -1.5126  0.9651  2.6545
  291MOL0     H40147   3.647  -0.196   3.985  1.5105 -0.9714  0.3802
  291MOL0     H40148   3.726  -0.390   3.860 -0.2603 -1.5182  4.7734
  291MOL0     H40149   3.845  -0.309   3.953 -2.8357  0.3758  3.2192
  291MOL0     H40150   3.908  -0.371   3.709  1.4142 -0.6953  3.6985
  291MOL0     H40151   3.810  -0.234   3.661 -0.0254 -2.8275 -1.3795
  291MOL0     H40152   4.075  -0.214   3.687  0.8526  3.2602 -0.1185
  291MOL0     H40153   4.034  -0.236   3.867  2.0182  1.3245  0.9759
  291MOL0     H40154   3.942   0.179   3.758  0.2743  0.5875 -1.3519
  291MOL0     H40155   3.533  -0.011   3.969 -1.2439 -0.9663  0.8396
  291MOL0     H40156   3.401   0.140   4.071 -0.0601 -4.0164 -1.4408
  291MOL0     H40157   3.283   0.244   3.984 -3.8632  0.3981  1.0786
  291MOL0     H40158   3.220   0.096   4.056  0.2151 -2.6495 -1.4066
  292MOL0     O40159   8.176   1.901   6.048 -0.5881 -0.2314  0.4697
  292MOL0     C40160   8.162   1.990   5.968 -0.3111 -0.2145  0.4089
  292MOL0     O40161   8.163   2.122   5.999  0.5491 -0.1179  0.2106
  292MOL0     C40162   8.237   2.158   6.102  0.3359  0.2523 -0.6665
  292MOL0     C40163   8.357   2.233   6.086 -0.5405  0.3262  0.0324
  292MOL0     C40164   8.435   2.271   6.195  0.2468  0.0910 -0.1472
  292MOL0     C40165   8.396   2.258   6.323  0.1053 -0.9008  0.5150
  292MOL0     O40166   8.460   2.302   6.436  0.8474  0.1152  0.7686
  292MOL0     C40167   8.590   2.255   6.469  0.5595  0.1565 -0.3331
  292MOL0     C40168   8.713   2.291   6.381  0.0466 -0.8763 -0.5775
  292MOL0     C40169   8.744   2.437   6.394  0.3298 -0.2195  0.4118
  292MOL0     C40170   8.841   2.468   6.283 -0.2542 -0.3140  0.6304
  292MOL0     C40171   8.896   2.607   6.316  0.0445  0.2759  0.1427
  292MOL0     C40172   8.998   2.602   6.437 -1.2893  0.0341 -1.0129
  292MOL0     C40173   9.083   2.734   6.427  0.5426 -0.7444 -0.2195
  292MOL0     C40174   9.164   2.733   6.556 -0.6170 -0.0036 -0.3208
  292MOL0     N40175   9.223   2.872   6.579  0.6652  0.1782  1.1299
  292MOL0     C40176   9.272   2.955   6.483  0.8803  0.5007 -0.7046
  292MOL0     C40177   9.260   3.086   6.526 -0.9415  0.1583  0.0106
  292MOL0     C40178   9.288   3.200   6.443 -1.9531  1.1271  0.3189
  292MOL0     C40179   9.420   3.261   6.448 -1.4299 -0.7032  0.2470
  292MOL0     C40180   9.465   3.333   6.579 -0.0929  0.3112  0.3421
  292MOL0     C40181   9.348   3.427   6.622  0.4439  0.5256 -0.3578
  292MOL0     O40182   9.393   3.530   6.707 -0.3881 -0.1336  0.3812
  292MOL0     C40183   9.299   3.597   6.774 -0.8197 -0.4091  0.4878
  292MOL0     C40184   9.164   3.610   6.721 -0.1801  0.0530 -1.2329
  292MOL0     C40185   9.067   3.681   6.783  0.3825  0.4022  0.2849
  292MOL0     C40186   8.930   3.690   6.727 -1.1864  0.6149  0.9142
  292MOL0     C40187   9.093   3.741   6.907  0.3147 -0.3238  0.2565
  292MOL0     C40188   8.991   3.815   6.977 -0.6581 -0.3557  0.7107
  292MOL0     O40189   8.971   3.938   6.935  0.3317 -0.2930  0.3182
  292MOL0     C40190   8.872   4.017   6.991  0.3592 -0.1220  0.4984
  292MOL0     C40191   8.807   4.105   6.903  0.7111  0.9329 -0.4086
  292MOL0     C40192   8.713   4.200   6.949  0.4022  0.1844 -0.7867
  292MOL0     C40193   8.684   4.208   7.088 -0.5776 -0.2882 -0.1526
  292MOL0     O40194   8.592   4.305   7.137  0.7197 -0.2970 -0.4073
  292MOL0     C40195   8.551   4.315   7.271 -0.5210  0.0345  0.3631
  292MOL0     C40196   8.645   4.385   7.379  0.1464  0.0436 -0.9587
  292MOL0     C40197   8.642   4.540   7.370  0.4294 -0.2798 -0.6581
  292MOL0     C40198   8.772   4.609   7.335 -0.1028 -0.2012 -0.6905
  292MOL0     C40199   8.833   4.584   7.202 -0.3043 -1.1128 -0.4479
  292MOL0     C40200   8.761   4.657   7.093  0.5314  1.4515  0.2295
  292MOL0     C40201   8.682   4.559   7.003  0.4008  0.3607  0.4484
  292MOL0     C40202   8.617   4.629   6.876  0.0825  0.0618  0.3760
  292MOL0    Cl40203   8.467   4.712   6.928  1.1247  0.3656 -0.5954
  292MOL0     C40204   8.756   4.127   7.181 -0.5375  0.5949  1.3192
  292MOL0     C40205   8.847   4.026   7.130 -1.0443  0.3579  0.1282
  292MOL0     O40206   8.934   3.760   7.075  0.9147 -0.3287  0.7836
  292MOL0     C40207   9.216   3.719   6.964 -0.6024 -0.7731  0.2486
  292MOL0     C40208   9.321   3.664   6.894 -0.4579 -0.0747 -0.6326
  292MOL0     N40209   9.206   3.076   6.656 -0.3721 -0.7441  0.5617
  292MOL0     N40210   9.186   2.956   6.685 -0.8603  0.6611 -0.8620
  292MOL0     C40211   8.277   2.192   6.347  1.2377 -0.7443 -0.0469
  292MOL0     C40212   8.201   2.142   6.239 -1.0490  0.3882  0.9951
  292MOL0     C40213   8.134   1.968   5.814  0.6817  0.3523 -0.4992
  292MOL0     C40214   8.144   2.084   5.724  0.4860  0.0178 -0.9967
  292MOL0     C40215   8.153   2.068   5.582 -0.6963 -0.4240  0.2302
  292MOL0     C40216   8.159   1.936   5.535 -0.0165 -0.4515  0.0338
  292MOL0     O40217   8.187   1.932   5.399  0.4822  0.6115  0.6513
  292MOL0     C40218   8.212   1.798   5.335 -1.3160  0.1892 -0.1199
  292MOL0     C40219   8.085   1.751   5.275  0.2654  0.2013  0.6180
  292MOL0     C40220   8.027   1.852   5.174  0.3614  0.2567  0.5294
  292MOL0     C40221   7.886   1.802   5.124  0.1549  0.3690  1.3149
  292MOL0     C40222   7.901   1.672   5.059  0.8186 -0.6424  0.3384
  292MOL0     C40223   7.904   1.556   5.028  1.0072  0.7352 -0.8621
  292MOL0     C40224   8.140   1.825   5.618 -0.2242 -0.3114 -1.0661
  292MOL0     C40225   8.124   1.835   5.762  0.4886 -0.2156 -0.0705
  292MOL0     C40226   8.105   1.719   5.847 -0.0417  0.5491  0.4529
  292MOL0     H40227   8.387   2.240   5.982 -0.9189  0.4267 -0.0717
  292MOL0     H40228   8.521   2.332   6.170 -0.1133  0.6972  0.0744
  292MOL0     H40229   8.586   2.150   6.498  0.2078 -0.0246 -1.0222
  292MOL0     H40230   8.607   2.296   6.569 -2.1626 -0.4263  0.4580
  292MOL0     H40231   8.794   2.243   6.437 -0.8247 -0.7833  0.8074
  292MOL0     H40232   8.717   2.249   6.280  1.1796 -2.7834  0.2097
  292MOL0     H40233   8.656   2.500   6.377  0.5982 -0.5021 -2.7311
  292MOL0     H40234   8.779   2.455   6.496 -0.3270  0.6920  0.4888
  292MOL0     H40235   8.922   2.396   6.286 -1.1357 -1.2935  2.3287
  292MOL0     H40236   8.787   2.473   6.188 -0.1658  1.6167  0.6382
  292MOL0     H40237   8.809   2.670   6.337 -1.0523 -1.0469 -0.2724
  292MOL0     H40238   8.953   2.644   6.230  1.4884 -1.0452  0.4864
  292MOL0     H40239   8.943   2.594   6.531  1.2878  0.0694  0.5803
  292MOL0     H40240   9.057   2.510   6.431 -0.5451  0.3869  0.4757
  292MOL0     H40241   9.020   2.822   6.439  4.1468  1.7808  2.0965
  292MOL0     H40242   9.141   2.742   6.334 -1.8395  3.7174 -1.5954
  292MOL0     H40243   9.104   2.702   6.642 -2.5604  0.9243 -1.3076
  292MOL0     H40244   9.244   2.659   6.542 -2.6151 -1.8980 -2.3041
  292MOL0     H40245   9.312   2.917   6.389  3.2547  1.1160 -0.0225
  292MOL0     H40246   9.216   3.272   6.481  0.4853  2.3279  3.1002
  292MOL0     H40247   9.259   3.171   6.341 -3.0487  1.2838  0.5744
  292MOL0     H40248   9.501   3.194   6.419 -0.1621  0.6798  0.4478
  292MOL0     H40249   9.421   3.341   6.373  4.0030 -0.4616  0.1741
  292MOL0     H40250   9.498   3.276   6.667  0.6190  4.3876  2.9893
  292MOL0     H40251   9.553   3.396   6.560 -1.6655  2.6289  0.4145
  292MOL0     H40252   9.300   3.471   6.534  0.7758 -0.3199 -0.9803
  292MOL0     H40253   9.272   3.371   6.678  0.8406  0.4914  0.1541
  292MOL0     H40254   9.141   3.558   6.629 -2.2852 -0.7587 -0.3188
  292MOL0     H40255   8.906   3.595   6.677 -0.3154  0.7798  0.1665
  292MOL0     H40256   8.939   3.750   6.636 -0.1110 -1.1176 -0.1703
  292MOL0     H40257   8.860   3.730   6.801  0.2165  0.0010  2.6781
  292MOL0     H40258   8.834   4.095   6.798 -1.7812 -0.0513 -1.0166
  292MOL0     H40259   8.666   4.277   6.887  3.2562  2.8248  0.0758
  292MOL0     H40260   8.449   4.356   7.269 -1.5108 -2.2656  0.4533
  292MOL0     H40261   8.547   4.212   7.308  0.6141 -0.9244 -1.9478
  292MOL0     H40262   8.608   4.343   7.472 -1.5712  2.3053 -0.5304
  292MOL0     H40263   8.745   4.341   7.368  0.5443  0.6705  0.0060
  292MOL0     H40264   8.605   4.579   7.465 -2.3424  1.3205 -2.2670
  292MOL0     H40265   8.563   4.561   7.296  1.0145 -1.0148 -1.5194
  292MOL0     H40266   8.834   4.586   7.422 -2.1986  0.7058  1.1398
  292MOL0     H40267   8.753   4.715   7.352 -0.7947 -0.9338  5.4958
  292MOL0     H40268   8.929   4.635   7.210 -2.1170  2.2446  3.0594
  292MOL0     H40269   8.848   4.477   7.184  2.0872 -1.2415  1.7994
  292MOL0     H40270   8.843   4.697   7.033 -0.3538  1.5203 -0.9808
  292MOL0     H40271   8.691   4.731   7.133  1.3983  1.4639  1.7855
  292MOL0     H40272   8.594   4.521   7.056 -0.1237  0.5299 -0.2857
  292MOL0     H40273   8.749   4.488   6.953  1.3618  2.8077 -2.0627
  292MOL0     H40274   8.577   4.557   6.804 -0.9325  0.3661  0.6235
  292MOL0     H40275   8.693   4.676   6.812  0.1835 -1.7584 -0.9074
  292MOL0     H40276   8.753   4.139   7.289  3.4171  1.0636  1.5245
  292MOL0     H40277   8.909   3.974   7.203 -1.2851  0.9488  0.7726
  292MOL0     H40278   9.230   3.756   7.065  0.6643 -3.8929  1.3565
  292MOL0     H40279   9.422   3.670   6.935 -0.3248  0.0297 -0.9682
  292MOL0     H40280   8.242   2.181   6.450  1.3527  3.0899  0.5407
  292MOL0     H40281   8.109   2.099   6.277 -0.1837 -2.3039  0.2696
  292MOL0     H40282   8.148   2.187   5.759 -2.8246 -0.3015  0.7801
  292MOL0     H40283   8.163   2.164   5.533 -2.0208  0.1704  1.0621
  292MOL0     H40284   8.297   1.823   5.270 -0.5902  0.0126  0.7484
  292MOL0     H40285   8.260   1.716   5.389 -0.1295 -0.8225 -2.5082
  292MOL0     H40286   8.015   1.724   5.354  1.1216 -1.3789  0.8763
  292MOL0     H40287   8.107   1.658   5.223 -0.3274 -0.7143  1.9700
  292MOL0     H40288   8.010   1.948   5.223 -2.4043 -0.3681  0.9711
  292MOL0     H40289   8.097   1.869   5.093 -1.3436  0.2603 -1.0125
  292MOL0     H40290   7.843   1.878   5.058 -0.9810 -0.1692  1.4228
  292MOL0     H40291   7.819   1.781   5.207 -1.6019 -0.9904 -0.3386
  292MOL0     H40292   7.934   1.456   5.006  1.0404  1.0022 -2.0823
  292MOL0     H40293   8.156   1.725   5.578 -0.4200 -1.1988  0.9548
  292MOL0     H40294   8.194   1.703   5.908 -0.4886 -0.1144  0.9439
  292MOL0     H40295   8.018   1.723   5.913  1.1707 -1.0327  2.2482
  292MOL0     H40296   8.084   1.627   5.791 -2.3600  2.4693 -2.1465
  293MOL0     O40297   6.472   4.768  11.018  0.5553  0.6327  0.6362
  293MOL0     C40298   6.557   4.846  10.980 -0.7017  1.0223 -0.0597
  293MOL0     O40299   6.692   4.822  10.973 -0.4488  1.0439  0.0629
  293MOL0     C40300   6.736   4.704  11.024 -1.0391 -0.0415 -0.2625
  293MOL0     C40301   6.798   4.615  10.932 -0.0681  1.1602 -0.0341
  293MOL0     C40302   6.870   4.501  10.969 -0.4228  0.0780 -0.3231
  293MOL0     C40303   6.881   4.467  11.103  0.4972 -0.8920 -0.1823
  293MOL0     O40304   6.941   4.343  11.117 -0.5181 -0.0526  0.3758
  293MOL0     C40305   6.952   4.274  11.234  0.0773  0.0794  0.2928
  293MOL0     C40306   6.910   4.130  11.208 -0.1073  0.7736 -0.5333
  293MOL0     C40307   6.990   4.056  11.094 -0.1087 -0.8813  0.0566
  293MOL0     C40308   6.996   3.903  11.115  0.6483 -0.6129  0.6599
  293MOL0     C40309   7.095   3.820  11.031 -0.7591 -1.2873 -0.5186
  293MOL0     C40310   7.063   3.836  10.880 -0.6304 -0.0461  0.4109
  293MOL0     C40311   7.166   3.743  10.812 -0.1787 -0.4292 -0.3679
  293MOL0     C40312   7.132   3.718  10.659 -0.3027  0.0674  1.0558
  293MOL0     N40313   7.259   3.685  10.582  0.7790 -0.1145  0.4003
  293MOL0     C40314   7.366   3.623  10.634  0.2920 -0.4885  0.0935
  293MOL0     C40315   7.473   3.651  10.556  0.2613 -0.0173 -0.5784
  293MOL0     C40316   7.623   3.622  10.558 -1.0424 -1.0118  0.3040
  293MOL0     C40317   7.649   3.556  10.701 -0.2996 -0.7301  0.6741
  293MOL0     C40318   7.795   3.531  10.733 -0.1953  0.0810 -0.5098
  293MOL0     C40319   7.815   3.413  10.842 -0.7818  0.2348  0.5968
  293MOL0     O40320   7.795   3.276  10.790  0.0155 -0.0011 -0.2681
  293MOL0     C40321   7.787   3.176  10.891 -0.0930 -0.4154  0.1491
  293MOL0     C40322   7.776   3.041  10.852  0.5752 -0.2153 -0.1774
  293MOL0     C40323   7.772   2.929  10.943  0.1705 -0.2608 -0.2509
  293MOL0     C40324   7.773   2.795  10.876 -0.7992  0.0169  1.2242
  293MOL0     C40325   7.773   2.965  11.081 -0.2626  0.5948 -0.1023
  293MOL0     C40326   7.771   2.869  11.196 -0.2457  0.6589 -0.1937
  293MOL0     O40327   7.771   2.923  11.321  0.2596 -0.1285 -0.8197
  293MOL0     C40328   7.737   2.847  11.429  0.0307 -1.0587 -0.8367
  293MOL0     C40329   7.834   2.754  11.479  0.0414 -0.1295  0.4623
  293MOL0     C40330   7.804   2.685  11.600  0.5873 -0.3082 -0.2720
  293MOL0     C40331   7.688   2.707  11.671  0.0609 -0.3030 -0.0230
  293MOL0     O40332   7.684   2.642  11.788  0.5001  0.2450  0.7547
  293MOL0     C40333   7.562   2.581  11.828  1.3762  0.9004  0.7445
  293MOL0     C40334   7.569   2.514  11.966  1.2275 -0.1199 -0.6815
  293MOL0     C40335   7.609   2.603  12.077 -0.3275  0.3600 -0.3979
  293MOL0     C40336   7.565   2.540  12.209  0.4816  0.7553  0.2584
  293MOL0     C40337   7.425   2.596  12.259  0.0755  1.5644  1.4092
  293MOL0     C40338   7.304   2.558  12.172 -0.0946  0.5311  0.0985
  293MOL0     C40339   7.167   2.615  12.222 -0.0023  0.0055 -0.6025
  293MOL0     C40340   7.056   2.553  12.137 -0.1705  0.6175  0.0754
  293MOL0    Cl40341   6.894   2.563  12.213  0.4569  0.0710  0.0234
  293MOL0     C40342   7.596   2.794  11.618 -0.8572  0.0685  0.5211
  293MOL0     C40343   7.613   2.862  11.498  0.2111 -0.0954  0.1821
  293MOL0     O40344   7.746   2.753  11.167 -0.7878 -0.2680  0.5424
  293MOL0     C40345   7.782   3.102  11.117 -0.5140 -0.0897 -0.0129
  293MOL0     C40346   7.800   3.203  11.027  1.0617  0.3140  0.3746
  293MOL0     N40347   7.426   3.721  10.449  1.0204 -0.2995 -0.1122
  293MOL0     N40348   7.298   3.735  10.463  0.4070  0.1914  0.0297
  293MOL0     C40349   6.832   4.562  11.204 -0.4577  0.2298 -1.1013
  293MOL0     C40350   6.756   4.672  11.164 -0.0063 -0.5111 -0.2604
  293MOL0     C40351   6.522   4.978  10.936  0.3617 -0.4591 -0.3278
  293MOL0     C40352   6.626   5.065  10.887  0.3961 -0.7498  0.6656
  293MOL0     C40353   6.599   5.191  10.836  0.1936  1.2495  0.0019
  293MOL0     C40354   6.486   5.258  10.850 -1.0649  0.4430 -0.4237
  293MOL0     O40355   6.490   5.383  10.799 -0.1070 -0.0726 -0.5539
  293MOL0     C40356   6.381   5.472  10.840 -1.5074 -0.4784  0.7632
  293MOL0     C40357   6.419   5.522  10.983 -0.1477 -0.4430  0.2834
  293MOL0     C40358   6.563   5.568  11.010  0.3956 -0.4829 -0.6371
  293MOL0     C40359   6.622   5.667  10.905 -1.1676 -1.1062 -0.0713
  293MOL0     C40360   6.543   5.787  10.918 -0.7023 -0.8007 -0.0777
  293MOL0     C40361   6.487   5.894  10.926  0.2871  0.9530  0.4311
  293MOL0     C40362   6.384   5.183  10.908  0.1324  0.3077  0.3434
  293MOL0     C40363   6.395   5.054  10.954 -0.2096 -0.1203 -0.3101
  293MOL0     C40364   6.271   4.998  11.014 -0.8291 -1.2072 -0.7514
  293MOL0     H40365   6.785   4.627  10.825 -1.7832  1.8271  0.2210
  293MOL0     H40366   6.923   4.446  10.892  1.2521  1.5588 -0.2959
  293MOL0     H40367   6.882   4.315  11.308 -2.4820 -0.6525 -1.5724
  293MOL0     H40368   7.049   4.283  11.284  0.1126  1.1180  0.0704
  293MOL0     H40369   6.929   4.075  11.300  0.6866  0.7473 -0.7066
  293MOL0     H40370   6.801   4.128  11.197 -0.3126 -1.0643  1.3462
  293MOL0     H40371   6.958   4.087  10.994  3.3370  1.0308 -0.6320
  293MOL0     H40372   7.087   4.106  11.094  0.0820 -1.2475  0.4118
  293MOL0     H40373   7.024   3.882  11.219  2.3958 -2.9348 -0.2052
  293MOL0     H40374   6.894   3.863  11.109  0.9660 -1.1984 -1.9102
  293MOL0     H40375   7.103   3.715  11.059 -0.2606 -1.5058 -1.4468
  293MOL0     H40376   7.196   3.860  11.047 -2.0983  2.4585 -0.4724
  293MOL0     H40377   6.964   3.794  10.859 -0.4174  0.0774 -0.9856
  293MOL0     H40378   7.082   3.938  10.844  3.0922 -0.0261  2.0872
  293MOL0     H40379   7.168   3.650  10.869 -1.1897 -1.1987 -1.5358
  293MOL0     H40380   7.268   3.782  10.815 -1.1744  2.4672 -1.1605
  293MOL0     H40381   7.053   3.645  10.637  2.0124 -1.8305 -1.6768
  293MOL0     H40382   7.099   3.812  10.614  3.3798  1.1334  0.2385
  293MOL0     H40383   7.372   3.574  10.730  1.6829  0.2181  0.3991
  293MOL0     H40384   7.694   3.704  10.548  0.2557 -2.0881  0.2772
  293MOL0     H40385   7.649   3.551  10.479  1.4592  1.1784 -1.0099
  293MOL0     H40386   7.599   3.626  10.770  1.0514  0.6945  0.2494
  293MOL0     H40387   7.606   3.455  10.694 -0.3254 -0.5818 -3.2160
  293MOL0     H40388   7.837   3.488  10.641 -3.7655 -1.2414 -1.6750
  293MOL0     H40389   7.842   3.625  10.764 -0.6387  0.2291 -0.2898
  293MOL0     H40390   7.919   3.410  10.874  0.4820  1.2180 -2.9776
  293MOL0     H40391   7.749   3.442  10.925 -1.1077  0.5817  0.2249
  293MOL0     H40392   7.776   3.029  10.744  1.1143  0.0227 -0.2086
  293MOL0     H40393   7.876   2.757  10.883 -1.9045 -3.5631  0.0418
  293MOL0     H40394   7.745   2.796  10.770 -0.8536  1.6883  1.2292
  293MOL0     H40395   7.702   2.723  10.917 -0.6810 -1.6964 -1.3449
  293MOL0     H40396   7.926   2.747  11.423  1.5763 -1.3669  3.0078
  293MOL0     H40397   7.873   2.610  11.638  3.1815  0.0419 -3.8473
  293MOL0     H40398   7.483   2.654  11.847 -0.1987 -0.4543 -0.3349
  293MOL0     H40399   7.537   2.513  11.746  0.9351  2.0866 -0.1336
  293MOL0     H40400   7.474   2.463  11.985  0.7975  1.3613  1.4264
  293MOL0     H40401   7.639   2.432  11.948 -1.2557 -2.3700 -0.7976
  293MOL0     H40402   7.557   2.699  12.071 -2.5728 -0.8049 -0.8320
  293MOL0     H40403   7.716   2.623  12.072  0.1877 -2.2397 -1.2817
  293MOL0     H40404   7.633   2.601  12.269  1.0001  0.2389  0.2021
  293MOL0     H40405   7.571   2.432  12.221 -0.5876  0.9322  3.5162
  293MOL0     H40406   7.413   2.553  12.359 -0.9988 -2.2300 -0.1962
  293MOL0     H40407   7.423   2.705  12.250  0.4124  1.3615 -3.5120
  293MOL0     H40408   7.309   2.448  12.169  2.6192  0.5237  1.6649
  293MOL0     H40409   7.316   2.592  12.069 -2.0609  1.3502  0.0891
  293MOL0     H40410   7.172   2.724  12.217  2.2007 -0.0152  0.0051
  293MOL0     H40411   7.151   2.582  12.325 -2.2858  1.3599 -0.4580
  293MOL0     H40412   7.083   2.447  12.137  0.2974  0.2445  7.0664
  293MOL0     H40413   7.059   2.589  12.034  1.0832  0.7223  0.1312
  293MOL0     H40414   7.496   2.801  11.659 -0.5484  3.3167  0.9955
  293MOL0     H40415   7.540   2.919  11.442  1.5295 -2.7206 -4.7729
  293MOL0     H40416   7.759   3.125  11.220 -2.5151 -1.7648 -0.0218
  293MOL0     H40417   7.824   3.306  11.053 -1.1061  0.7946  0.6348
  293MOL0     H40418   6.862   4.533  11.305  1.5864  1.9778 -1.1376
  293MOL0     H40419   6.707   4.738  11.235  1.4269  0.0913  0.1962
  293MOL0     H40420   6.725   5.023  10.871  0.8425  0.7573 -0.7691
  293MOL0     H40421   6.682   5.234  10.780  0.1655  0.4845 -0.6429
  293MOL0     H40422   6.359   5.556  10.773  1.9798  1.4516  1.7960
  293MOL0     H40423   6.286   5.420  10.854 -1.3766 -0.7741  0.5496
  293MOL0     H40424   6.379   5.444  11.049 -3.8768 -0.4237 -1.6589
  293MOL0     H40425   6.350   5.603  11.009 -0.5076 -0.6576  0.0241
  293MOL0     H40426   6.572   5.620  11.106  1.1453 -1.0084 -0.4154
  293MOL0     H40427   6.630   5.482  11.019  0.5622 -0.1852  1.5945
  293MOL0     H40428   6.623   5.629  10.802 -1.1112 -4.1893  0.9668
  293MOL0     H40429   6.725   5.687  10.937 -1.4030  0.1041 -0.0382
  293MOL0     H40430   6.457   5.997  10.922  0.2676  0.9479  0.4571
  293MOL0     H40431   6.286   5.223  10.930 -0.8218 -0.4176 -2.2269
  293MOL0     H40432   6.234   5.067  11.091 -0.1874  1.7614 -2.9446
  293MOL0     H40433   6.192   5.006  10.938 -2.8106  1.9555  1.3680
  293MOL0     H40434   6.282   4.902  11.065  1.7808 -0.0753  1.0491
  294MOL0     O40435   5.215   0.210   1.053  0.3695  0.2091  0.3575
  294MOL0     C40436   5.232   0.101   1.110 -0.2349  0.0146  0.4099
  294MOL0     O40437   5.273   0.084   1.240 -0.1407 -0.0154 -0.6116
  294MOL0     C40438   5.303   0.198   1.310 -0.7208  0.4553  0.4999
  294MOL0     C40439   5.212   0.275   1.380  0.6222 -0.7792 -0.0422
  294MOL0     C40440   5.233   0.399   1.439  0.2966 -0.0964  0.1216
  294MOL0     C40441   5.371   0.438   1.442 -0.1446  0.8670 -0.0149
  294MOL0     O40442   5.406   0.552   1.511  0.1128  0.1535 -0.2267
  294MOL0     C40443   5.543   0.604   1.505  1.1909  0.0621 -0.1136
  294MOL0     C40444   5.559   0.732   1.588 -0.8608 -0.1371 -0.3747
  294MOL0     C40445   5.451   0.832   1.571 -0.8680 -0.7818  0.3869
  294MOL0     C40446   5.457   0.895   1.424 -0.0055  0.1561 -0.1269
  294MOL0     C40447   5.579   0.985   1.394 -0.8574  0.0744 -0.7214
  294MOL0     C40448   5.570   1.062   1.259 -0.9274 -0.1638 -0.3514
  294MOL0     C40449   5.707   1.131   1.223 -0.8784 -0.1537  0.5502
  294MOL0     C40450   5.694   1.220   1.094 -0.5940 -0.2011  0.9815
  294MOL0     N40451   5.586   1.319   1.095 -0.1159 -0.1583  0.1437
  294MOL0     C40452   5.585   1.434   1.171 -0.0369 -1.0843 -0.3921
  294MOL0     C40453   5.496   1.515   1.109  0.0979 -0.5121 -0.4028
  294MOL0     C40454   5.458   1.650   1.154 -1.0920  0.2667  0.1162
  294MOL0     C40455   5.377   1.646   1.284 -0.7868  0.5096  1.4047
  294MOL0     C40456   5.359   1.779   1.349  0.7159  0.5559  0.4126
  294MOL0     C40457   5.258   1.767   1.465  0.1752 -0.4327  0.2279
  294MOL0     O40458   5.312   1.674   1.565  0.1036 -0.4060 -1.1330
  294MOL0     C40459   5.264   1.549   1.572 -0.1453  0.9784  0.1362
  294MOL0     C40460   5.340   1.462   1.650 -0.1700 -0.7983 -0.8328
  294MOL0     C40461   5.315   1.328   1.661  0.0509  0.4992  0.5053
  294MOL0     C40462   5.427   1.249   1.719 -0.1769  0.1996 -0.4732
  294MOL0     C40463   5.196   1.277   1.603 -0.8511  0.2777  0.6561
  294MOL0     C40464   5.145   1.132   1.607 -1.1105 -0.2978  0.0526
  294MOL0     O40465   5.042   1.089   1.526  0.3008 -0.3632  0.3217
  294MOL0     C40466   4.984   0.964   1.549 -0.0150 -0.6088  0.2763
  294MOL0     C40467   4.989   0.862   1.452  0.1837  0.4590 -0.4595
  294MOL0     C40468   4.923   0.738   1.459  0.0276 -0.0469 -0.0444
  294MOL0     C40469   4.841   0.720   1.569  0.5456  1.0419  1.1362
  294MOL0     O40470   4.745   0.619   1.567 -0.0567 -0.3534  0.1215
  294MOL0     C40471   4.775   0.498   1.494 -0.4778 -0.8442  0.9000
  294MOL0     C40472   4.698   0.380   1.551  0.3359 -0.1348  0.0445
  294MOL0     C40473   4.558   0.393   1.501  1.1120 -0.1376 -0.2070
  294MOL0     C40474   4.486   0.258   1.511  0.0366  0.8888  0.2063
  294MOL0     C40475   4.338   0.248   1.488 -0.5473  0.9194  0.0646
  294MOL0     C40476   4.271   0.350   1.581 -0.6699 -0.5219 -0.0090
  294MOL0     C40477   4.117   0.354   1.541  0.5885  0.3590  0.0127
  294MOL0     C40478   4.036   0.453   1.616 -0.9548  0.2539  0.5039
  294MOL0    Cl40479   4.039   0.607   1.540  0.0882  0.1474 -0.3565
  294MOL0     C40480   4.832   0.817   1.664  0.2136 -0.8193  0.1425
  294MOL0     C40481   4.901   0.938   1.652  0.2660 -0.2222 -1.0465
  294MOL0     O40482   5.204   1.061   1.692  0.3423 -0.9625  0.3889
  294MOL0     C40483   5.109   1.368   1.538  0.5857  0.4697  0.7772
  294MOL0     C40484   5.142   1.501   1.523  0.1770  0.8143 -0.5422
  294MOL0     N40485   5.440   1.449   0.995 -0.4783  0.7881 -0.3160
  294MOL0     N40486   5.500   1.334   0.996  0.0007 -1.2654  0.1996
  294MOL0     C40487   5.467   0.356   1.376 -0.8304 -0.2005 -0.3083
  294MOL0     C40488   5.431   0.244   1.317 -0.3320  0.3935  0.0484
  294MOL0     C40489   5.212  -0.027   1.024 -1.0411 -0.9303  0.0529
  294MOL0     C40490   5.305  -0.124   1.024 -0.1781 -0.9683 -0.1599
  294MOL0     C40491   5.298  -0.248   0.954 -0.3396  0.0516 -0.4511
  294MOL0     C40492   5.189  -0.267   0.868  0.8029  0.3352 -0.5854
  294MOL0     O40493   5.166  -0.392   0.809  0.2740 -0.0314 -0.3834
  294MOL0     C40494   5.270  -0.442   0.727 -0.4061 -0.3342 -0.1782
  294MOL0     C40495   5.331  -0.572   0.773  0.3800  0.4175  0.0885
  294MOL0     C40496   5.476  -0.592   0.733  0.0931  0.5046  0.0128
  294MOL0     C40497   5.493  -0.596   0.586 -0.2236 -0.2319  0.2787
  294MOL0     C40498   5.631  -0.600   0.551 -0.4825  0.1799 -0.3850
  294MOL0     C40499   5.744  -0.592   0.512 -0.7096  0.3181  0.6087
  294MOL0     C40500   5.100  -0.160   0.861 -1.3192 -0.7057 -1.1541
  294MOL0     C40501   5.101  -0.041   0.940 -0.6574  0.4351 -0.9736
  294MOL0     C40502   4.996   0.057   0.908 -0.3038  0.3453  0.2697
  294MOL0     H40503   5.111   0.235   1.375  0.7972 -1.3084  0.4934
  294MOL0     H40504   5.161   0.466   1.484  1.5459  0.0850  1.9621
  294MOL0     H40505   5.577   0.602   1.401 -2.1916  0.0722 -1.3441
  294MOL0     H40506   5.609   0.536   1.560  1.0114  0.8667  1.1340
  294MOL0     H40507   5.562   0.706   1.694 -1.9134 -0.3822 -0.3951
  294MOL0     H40508   5.650   0.781   1.553 -1.1441  1.3782  0.8897
  294MOL0     H40509   5.349   0.795   1.589 -0.9699 -0.1613  1.1451
  294MOL0     H40510   5.458   0.906   1.651 -0.6090 -3.3927  2.9252
  294MOL0     H40511   5.441   0.820   1.346  0.0564 -0.3042  0.3052
  294MOL0     H40512   5.379   0.971   1.409 -0.7396 -0.2483  1.4540
  294MOL0     H40513   5.672   0.927   1.394  1.3587  3.3662 -0.6055
  294MOL0     H40514   5.595   1.066   1.466  1.2603 -0.1095 -0.9065
  294MOL0     H40515   5.549   0.987   1.182 -0.7822 -1.9275  1.2249
  294MOL0     H40516   5.486   1.130   1.271 -0.6470 -0.0549  1.2661
  294MOL0     H40517   5.794   1.065   1.214 -0.2375  0.5384  1.4283
  294MOL0     H40518   5.740   1.200   1.301  2.1043 -3.8245  2.9167
  294MOL0     H40519   5.791   1.269   1.085  0.3313 -2.1376 -0.5317
  294MOL0     H40520   5.678   1.151   1.010 -0.8297 -2.4728  2.7914
  294MOL0     H40521   5.635   1.454   1.265 -0.1724  0.5713 -0.6332
  294MOL0     H40522   5.394   1.704   1.083 -0.0591  1.1909 -0.1330
  294MOL0     H40523   5.553   1.703   1.165 -1.6387  1.1206  0.8564
  294MOL0     H40524   5.279   1.605   1.258 -0.4241  1.0844 -1.1795
  294MOL0     H40525   5.429   1.579   1.352  1.4744  1.5042  0.7665
  294MOL0     H40526   5.453   1.812   1.394  1.9858 -0.2606 -1.5224
  294MOL0     H40527   5.333   1.852   1.272 -0.4197 -0.7693 -0.5199
  294MOL0     H40528   5.267   1.868   1.507  1.2070 -0.0683 -0.8138
  294MOL0     H40529   5.157   1.748   1.425  1.0082  0.0894 -2.3413
  294MOL0     H40530   5.426   1.509   1.697 -1.4209  0.0860  0.6444
  294MOL0     H40531   5.453   1.164   1.655  0.6926  1.8650 -2.4402
  294MOL0     H40532   5.391   1.202   1.811  0.6909 -3.1247 -1.6732
  294MOL0     H40533   5.518   1.308   1.736  0.6470 -0.9390 -0.7659
  294MOL0     H40534   5.064   0.874   1.374  0.9718 -1.1326 -0.0018
  294MOL0     H40535   4.926   0.660   1.384  0.7195 -0.9756  0.9344
  294MOL0     H40536   4.761   0.508   1.386  1.1403 -3.7038  0.3188
  294MOL0     H40537   4.882   0.476   1.490 -0.4908 -1.4788  2.7638
  294MOL0     H40538   4.741   0.283   1.524  0.7882 -0.8654  2.9774
  294MOL0     H40539   4.703   0.387   1.661  1.0412 -3.9595  0.3851
  294MOL0     H40540   4.564   0.417   1.395  3.2041  1.3795  0.1867
  294MOL0     H40541   4.506   0.469   1.561  1.0838 -0.3289  0.0120
  294MOL0     H40542   4.493   0.221   1.614  3.8463 -0.3060 -0.3107
  294MOL0     H40543   4.531   0.184   1.444 -3.2766 -2.3904  1.2743
  294MOL0     H40544   4.332   0.267   1.381  1.7090 -0.3468 -0.3522
  294MOL0     H40545   4.295   0.150   1.509 -2.1658  1.7645  0.8766
  294MOL0     H40546   4.317   0.448   1.563  2.8388 -2.1446 -0.7128
  294MOL0     H40547   4.286   0.325   1.686  0.7435  1.9809  0.4851
  294MOL0     H40548   4.080   0.252   1.558 -1.2407  1.2501  1.7582
  294MOL0     H40549   4.096   0.384   1.438 -1.5175  3.4148  1.1982
  294MOL0     H40550   4.072   0.458   1.719 -0.1541  0.2958  0.2257
  294MOL0     H40551   3.930   0.429   1.604 -1.1522  1.4198 -0.2702
  294MOL0     H40552   4.754   0.804   1.739  1.3856  0.5315  1.6784
  294MOL0     H40553   4.890   1.015   1.728  0.0488 -0.6608 -0.6288
  294MOL0     H40554   5.016   1.333   1.497 -0.5875  2.1809  1.8195
  294MOL0     H40555   5.072   1.562   1.467 -2.1786 -2.3031 -1.2567
  294MOL0     H40556   5.566   0.394   1.355  0.0556 -2.4237 -0.4539
  294MOL0     H40557   5.509   0.196   1.259 -0.7569  0.2816 -0.4355
  294MOL0     H40558   5.390  -0.102   1.088  1.0470  1.1907 -2.3432
  294MOL0     H40559   5.380  -0.319   0.960  0.0823  0.6170  0.7851
  294MOL0     H40560   5.225  -0.453   0.628  1.4870 -1.5560 -0.9649
  294MOL0     H40561   5.351  -0.371   0.712 -1.8715  0.8829 -3.1440
  294MOL0     H40562   5.273  -0.652   0.726 -0.0385  0.3998  0.6257
  294MOL0     H40563   5.319  -0.577   0.882  3.6586 -0.8445  0.4986
  294MOL0     H40564   5.544  -0.521   0.781  1.2749 -1.1964  0.9626
  294MOL0     H40565   5.513  -0.683   0.782  1.4088  1.3569  0.6588
  294MOL0     H40566   5.446  -0.505   0.547 -3.8970 -2.3703 -0.7586
  294MOL0     H40567   5.440  -0.671   0.527  0.4087  0.4996 -1.2627
  294MOL0     H40568   5.849  -0.593   0.489 -0.7259 -4.9463 -0.4713
  294MOL0     H40569   5.018  -0.182   0.793 -1.2443 -1.3561 -1.0341
  294MOL0     H40570   5.010   0.091   0.805 -0.6206 -3.6455 -1.2344
  294MOL0     H40571   4.902   0.006   0.932 -1.8562  3.4426  1.4007
  294MOL0     H40572   5.002   0.152   0.962  3.9297  0.7906 -0.6409
  295MOL0     O40573   2.182   5.632   1.906  0.0561 -0.1468  0.6025
  295MOL0     C40574   2.093   5.636   1.985  1.0229 -0.2411 -0.4722
  295MOL0     O40575   2.036   5.523   2.045 -0.8283  0.0368  0.7709
  295MOL0     C40576   2.085   5.402   2.006  0.0035  0.5341 -0.5029
  295MOL0     C40577   1.997   5.296   2.005  0.4017 -0.5241  0.8575
  295MOL0     C40578   2.035   5.167   1.966  0.0440  0.3736 -0.1100
  295MOL0     C40579   2.167   5.143   1.952 -0.4252 -0.3044 -0.2587
  295MOL0     O40580   2.231   5.031   1.911 -0.0574 -0.2556  0.6998
  295MOL0     C40581   2.158   4.907   1.929 -0.1381  0.1124  0.2410
  295MOL0     C40582   2.254   4.787   1.883  1.0521 -1.2054  0.4649
  295MOL0     C40583   2.399   4.800   1.924 -0.2791 -0.3423 -0.5273
  295MOL0     C40584   2.463   4.661   1.943  0.9673  0.1409  0.7828
  295MOL0     C40585   2.612   4.675   1.971 -0.3981  0.0589  0.2944
  295MOL0     C40586   2.701   4.739   1.854 -0.6181  0.2711 -0.7870
  295MOL0     C40587   2.701   4.654   1.722 -0.9211 -0.2321 -0.4640
  295MOL0     C40588   2.803   4.712   1.621  0.3924  0.4287 -1.5025
  295MOL0     N40589   2.807   4.610   1.517  0.1134  0.4976  0.9697
  295MOL0     C40590   2.706   4.614   1.424  0.1762  0.4965  0.1525
  295MOL0     C40591   2.745   4.510   1.339  0.0700 -0.5895 -0.9283
  295MOL0     C40592   2.664   4.452   1.231  0.6516 -0.2334  0.1292
  295MOL0     C40593   2.566   4.352   1.299 -0.2061  0.9032  0.3480
  295MOL0     C40594   2.515   4.261   1.188 -0.2232  0.2179  0.9111
  295MOL0     C40595   2.578   4.123   1.190  0.4277 -0.0412 -0.3260
  295MOL0     O40596   2.546   4.070   1.319 -0.4755  0.6474 -0.3826
  295MOL0     C40597   2.427   4.000   1.340  0.7154  0.6898 -0.0212
  295MOL0     C40598   2.402   3.955   1.465  0.4421  0.2336  0.1573
  295MOL0     C40599   2.296   3.871   1.488 -0.5213  0.1100  0.0193
  295MOL0     C40600   2.281   3.822   1.629 -0.0302 -0.1634  0.8943
  295MOL0     C40601   2.197   3.840   1.391 -0.7326 -0.7512 -1.1506
  295MOL0     C40602   2.069   3.768   1.423  0.9746 -0.7695  0.7177
  295MOL0     O40603   2.055   3.677   1.522 -0.3336  0.4046  0.5476
  295MOL0     C40604   1.930   3.642   1.571 -0.3751 -0.2830  0.2139
  295MOL0     C40605   1.878   3.697   1.676  0.2870 -0.6903  0.0327
  295MOL0     C40606   1.767   3.639   1.743 -0.6010  0.1200 -0.4257
  295MOL0     C40607   1.709   3.516   1.689  0.2927 -0.4206  0.1109
  295MOL0     O40608   1.600   3.465   1.755 -0.2911 -0.5678  0.9888
  295MOL0     C40609   1.525   3.358   1.703  1.2369 -0.7589  0.5553
  295MOL0     C40610   1.421   3.295   1.804 -0.0756 -0.7132  0.7610
  295MOL0     C40611   1.284   3.357   1.753  0.3656  0.2827 -0.3321
  295MOL0     C40612   1.218   3.272   1.635  0.4713  0.5031  0.5575
  295MOL0     C40613   1.123   3.364   1.561  0.2653 -0.2799  0.8498
  295MOL0     C40614   1.068   3.303   1.426 -0.5675  0.2247 -0.3838
  295MOL0     C40615   0.973   3.403   1.344 -0.3448  0.4560 -0.3561
  295MOL0     C40616   1.061   3.492   1.251 -0.5635  0.2811  0.2514
  295MOL0    Cl40617   0.944   3.628   1.232 -0.3557 -0.2107 -0.1842
  295MOL0     C40618   1.750   3.476   1.560  0.1339  0.8516  0.4354
  295MOL0     C40619   1.868   3.534   1.511  0.5837  0.2125  0.1306
  295MOL0     O40620   1.975   3.808   1.351 -0.6420  0.3197  0.6957
  295MOL0     C40621   2.217   3.893   1.260  0.9031  1.1256 -0.3990
  295MOL0     C40622   2.325   3.970   1.243  0.5266  0.3972  1.0369
  295MOL0     N40623   2.867   4.457   1.388 -1.0792  0.5062  0.4648
  295MOL0     N40624   2.903   4.515   1.503 -0.6682  0.0479  0.1375
  295MOL0     C40625   2.259   5.245   1.976  0.0478 -0.1252  0.5237
  295MOL0     C40626   2.223   5.377   1.991 -0.8143  0.7530  0.2243
  295MOL0     C40627   2.029   5.767   2.022  0.6217 -0.8711  0.5553
  295MOL0     C40628   2.061   5.878   1.937  0.7467 -0.0752  0.0711
  295MOL0     C40629   2.035   6.001   1.971  0.3926 -0.4145 -0.1620
  295MOL0     C40630   1.962   6.029   2.097 -1.1186  0.2282 -0.9734
  295MOL0     O40631   1.937   6.159   2.137  0.2281 -0.3787  0.1953
  295MOL0     C40632   1.875   6.234   2.021  0.1623  0.0085  0.7365
  295MOL0     C40633   1.804   6.363   2.077  0.3352 -0.0339 -0.0551
  295MOL0     C40634   1.890   6.475   2.136  1.2792  0.3948 -0.4851
  295MOL0     C40635   1.959   6.569   2.033  0.5358  0.4416 -0.0424
  295MOL0     C40636   2.020   6.678   2.101  0.2606 -0.0703 -1.0694
  295MOL0     C40637   2.085   6.767   2.151 -0.4606 -0.2628  0.8731
  295MOL0     C40638   1.910   5.919   2.173 -0.0875 -0.3432 -1.0597
  295MOL0     C40639   1.951   5.788   2.142  0.6720 -0.2153 -0.8339
  295MOL0     C40640   1.898   5.684   2.224 -0.2787 -0.4842 -0.2623
  295MOL0     H40641   1.892   5.313   2.024  0.1828  2.1841 -1.9115
  295MOL0     H40642   1.956   5.094   1.947  0.9605 -0.4895 -0.7431
  295MOL0     H40643   2.065   4.903   1.872  0.0961  0.5157 -0.1658
  295MOL0     H40644   2.143   4.891   2.036  2.2350 -4.5657  0.1609
  295MOL0     H40645   2.222   4.687   1.915  1.5447 -1.2595  0.7935
  295MOL0     H40646   2.252   4.796   1.774 -3.8868  2.6187  0.5214
  295MOL0     H40647   2.453   4.858   1.848 -2.1845  0.8083 -1.0576
  295MOL0     H40648   2.414   4.856   2.017  1.0780  2.9428 -2.5299
  295MOL0     H40649   2.423   4.606   2.028  2.8470 -2.0301  0.3813
  295MOL0     H40650   2.450   4.599   1.854  3.3957 -1.3631  1.3801
  295MOL0     H40651   2.654   4.576   1.993 -0.6550  0.1047  0.9850
  295MOL0     H40652   2.634   4.734   2.060  2.3168 -0.8982  0.3560
  295MOL0     H40653   2.671   4.840   1.824 -0.3937 -0.4829 -3.9060
  295MOL0     H40654   2.806   4.749   1.881 -0.0612  0.3762 -2.7830
  295MOL0     H40655   2.597   4.666   1.692 -1.7113  1.8454  2.6507
  295MOL0     H40656   2.708   4.546   1.734 -1.6529 -0.1453  0.8480
  295MOL0     H40657   2.769   4.808   1.581  0.7982  2.4575  2.4443
  295MOL0     H40658   2.898   4.730   1.673 -1.6664  1.4698  2.3002
  295MOL0     H40659   2.628   4.690   1.418  1.3847  1.7711  0.1171
  295MOL0     H40660   2.731   4.402   1.160  3.0081  1.9194  0.6659
  295MOL0     H40661   2.606   4.521   1.170 -1.7004 -1.7981  0.4832
  295MOL0     H40662   2.621   4.281   1.362 -1.3284 -0.3666 -0.0724
  295MOL0     H40663   2.482   4.390   1.359 -0.5441 -2.5443  2.3174
  295MOL0     H40664   2.405   4.257   1.188 -0.2725  1.2520  0.6108
  295MOL0     H40665   2.535   4.307   1.090 -1.4100 -2.1823 -0.5385
  295MOL0     H40666   2.530   4.057   1.117 -1.7747  0.6036  0.4553
  295MOL0     H40667   2.685   4.120   1.170  0.9059 -2.6456  1.9137
  295MOL0     H40668   2.483   3.982   1.532 -0.0526  1.9967  0.1112
  295MOL0     H40669   2.270   3.713   1.630 -1.1937 -0.0830  2.6534
  295MOL0     H40670   2.192   3.862   1.679  1.4461  2.4741  1.6028
  295MOL0     H40671   2.362   3.856   1.695 -1.5573  3.2064  1.2320
  295MOL0     H40672   1.927   3.790   1.706  1.5238  0.4678 -4.8070
  295MOL0     H40673   1.721   3.675   1.835  0.9960  0.1661  0.3893
  295MOL0     H40674   1.488   3.383   1.604  0.5679 -1.7695  0.5399
  295MOL0     H40675   1.599   3.282   1.678  0.6871 -1.0193 -0.3079
  295MOL0     H40676   1.420   3.188   1.780 -2.3817 -0.3200 -1.2641
  295MOL0     H40677   1.444   3.315   1.909 -2.3720 -2.7979  1.7700
  295MOL0     H40678   1.292   3.463   1.731  2.9850 -0.3303 -2.8955
  295MOL0     H40679   1.198   3.338   1.818 -1.5803 -4.7426 -3.7532
  295MOL0     H40680   1.177   3.176   1.668  0.1961  1.0553  1.8682
  295MOL0     H40681   1.301   3.251   1.566 -1.8226 -3.4692 -1.3887
  295MOL0     H40682   1.044   3.381   1.635  0.9078 -2.0068  1.9951
  295MOL0     H40683   1.172   3.455   1.524 -2.0936  0.9753  0.6513
  295MOL0     H40684   1.003   3.220   1.455 -1.5568  0.1741 -2.5521
  295MOL0     H40685   1.139   3.254   1.359 -0.7011  0.2819 -0.5690
  295MOL0     H40686   0.919   3.467   1.415 -1.0383 -0.7848  0.2725
  295MOL0     H40687   0.898   3.351   1.285  0.3844 -3.1025  1.5753
  295MOL0     H40688   1.083   3.437   1.159  2.3761 -1.8187  2.0224
  295MOL0     H40689   1.160   3.520   1.289  0.0790  1.0475 -1.8928
  295MOL0     H40690   1.691   3.402   1.508  3.0687 -1.3245 -0.0590
  295MOL0     H40691   1.911   3.509   1.415  3.5245  0.5149  1.2413
  295MOL0     H40692   2.160   3.868   1.171  2.6960 -2.5801 -0.7136
  295MOL0     H40693   2.345   4.007   1.143  0.0098  0.9913  1.1459
  295MOL0     H40694   2.360   5.206   1.965 -1.0806 -3.3883  0.5024
  295MOL0     H40695   2.306   5.446   1.978 -1.5780  1.1830 -3.1939
  295MOL0     H40696   2.113   5.861   1.843  1.0268 -0.4865  0.2957
  295MOL0     H40697   2.069   6.082   1.907  3.7399 -0.5847  1.2213
  295MOL0     H40698   1.946   6.269   1.944  0.2125 -0.8936  0.3577
  295MOL0     H40699   1.793   6.178   1.975 -1.3475  2.1125  0.7054
  295MOL0     H40700   1.745   6.325   2.161 -1.3269 -0.7792 -1.4951
  295MOL0     H40701   1.731   6.404   2.006 -0.7400  2.0260  2.0825
  295MOL0     H40702   1.819   6.542   2.185  2.7927  1.7124 -0.0183
  295MOL0     H40703   1.963   6.434   2.206  0.7105  2.3288  1.3393
  295MOL0     H40704   1.880   6.617   1.974 -0.5259  1.4282  2.0744
  295MOL0     H40705   2.039   6.521   1.977  0.7443  1.9833 -1.1115
  295MOL0     H40706   2.140   6.848   2.195 -1.9083  1.0810  0.2927
  295MOL0     H40707   1.864   5.946   2.267  1.9679  1.0308 -0.3658
  295MOL0     H40708   1.845   5.602   2.176  1.3444 -1.8367  0.1826
  295MOL0     H40709   1.974   5.649   2.294  2.1602  2.3086 -1.3115
  295MOL0     H40710   1.830   5.734   2.294 -3.0134 -1.9342 -1.6904
  296MOL0     O40711   7.987   5.393   7.883 -0.1909 -0.0144  0.2830
  296MOL0     C40712   8.105   5.370   7.888 -0.7579  0.3912  1.0023
  296MOL0     O40713   8.173   5.296   7.792  0.8083  0.0160 -0.0856
  296MOL0     C40714   8.108   5.251   7.681 -0.3743 -0.7607  0.3970
  296MOL0     C40715   7.994   5.168   7.689  0.0541  0.0129 -0.2811
  296MOL0     C40716   7.937   5.130   7.565 -0.8532  0.1904  0.2603
  296MOL0     C40717   7.994   5.177   7.441 -0.1912  0.7853  0.2869
  296MOL0     O40718   7.917   5.158   7.328 -0.1950  0.6311  0.3324
  296MOL0     C40719   7.903   5.281   7.249  0.8703  0.8578  0.1219
  296MOL0     C40720   7.769   5.271   7.165  0.0506  0.1637  0.2838
  296MOL0     C40721   7.768   5.367   7.041 -0.3265 -1.2663 -0.2291
  296MOL0     C40722   7.805   5.517   7.076 -0.4536 -0.0666  0.0077
  296MOL0     C40723   7.792   5.604   6.943  0.1701 -0.3367 -0.7448
  296MOL0     C40724   7.857   5.751   6.970  1.1404  0.2220 -0.0692
  296MOL0     C40725   7.767   5.834   7.061 -0.7920  0.1809  0.3053
  296MOL0     C40726   7.795   5.981   7.058  0.2042  1.2551  0.3827
  296MOL0     N40727   7.718   6.061   7.155 -0.7152  0.1450 -1.0000
  296MOL0     C40728   7.743   6.085   7.284 -0.4570 -0.3996 -0.1044
  296MOL0     C40729   7.635   6.158   7.329 -0.2437  1.1227 -0.2335
  296MOL0     C40730   7.607   6.194   7.481  0.3248 -0.9608 -0.2438
  296MOL0     C40731   7.734   6.240   7.553 -0.5077  0.4994 -0.1418
  296MOL0     C40732   7.737   6.216   7.713  0.3223 -0.1964 -0.4352
  296MOL0     C40733   7.878   6.223   7.754  1.0012 -0.5296  0.5720
  296MOL0     O40734   7.891   6.129   7.856 -0.1122 -0.2393 -1.0764
  296MOL0     C40735   8.019   6.109   7.898  0.2545  0.9710 -0.8253
  296MOL0     C40736   8.036   6.000   7.988  0.1793 -0.0899  0.2698
  296MOL0     C40737   8.153   5.963   8.043 -1.2273  0.8911 -0.1605
  296MOL0     C40738   8.148   5.857   8.158  0.6912 -0.8826 -0.6673
  296MOL0     C40739   8.270   6.021   7.997  0.7176  0.3272  0.2198
  296MOL0     C40740   8.408   5.984   8.049 -0.6290 -1.0567  0.0125
  296MOL0     O40741   8.492   5.910   7.962 -0.1618 -0.5365  0.2589
  296MOL0     C40742   8.611   5.880   8.023 -0.8845 -0.1425 -0.4433
  296MOL0     C40743   8.731   5.909   7.948 -0.4465  0.0834  0.0014
  296MOL0     C40744   8.860   5.873   7.988 -0.2659 -0.8508 -0.3001
  296MOL0     C40745   8.865   5.822   8.119  0.2715  0.4361  0.4442
  296MOL0     O40746   8.982   5.781   8.175 -1.1479 -0.0169 -0.5154
  296MOL0     C40747   9.099   5.834   8.126  0.1898 -0.1655  0.0030
  296MOL0     C40748   9.217   5.802   8.209  0.2782  0.2852  0.4044
  296MOL0     C40749   9.219   5.872   8.347 -1.1176  1.7854 -0.5451
  296MOL0     C40750   9.312   5.993   8.340  0.1925 -0.8320 -0.5539
  296MOL0     C40751   9.300   6.086   8.456  0.1327  0.2057 -0.9358
  296MOL0     C40752   9.406   6.206   8.452 -0.3545  0.4573 -1.1000
  296MOL0     C40753   9.531   6.176   8.530 -0.1483  0.6465  0.5533
  296MOL0     C40754   9.614   6.301   8.550 -0.0300 -0.5781  0.3415
  296MOL0    Cl40755   9.654   6.369   8.399 -0.2769 -0.3295 -0.0032
  296MOL0     C40756   8.749   5.778   8.184 -0.6674 -0.0944  0.5592
  296MOL0     C40757   8.623   5.803   8.147 -0.3206  0.2379 -0.7158
  296MOL0     O40758   8.432   6.009   8.167  0.2322  0.1345 -0.0255
  296MOL0     C40759   8.262   6.123   7.907 -0.0453  0.5637  0.2001
  296MOL0     C40760   8.142   6.170   7.861  0.6999 -0.2214 -0.5837
  296MOL0     N40761   7.541   6.181   7.232 -0.2386 -0.2878  0.0579
  296MOL0     N40762   7.593   6.131   7.129  0.1154 -0.6120  0.6040
  296MOL0     C40763   8.111   5.254   7.443  0.3619  0.0307  0.3565
  296MOL0     C40764   8.173   5.294   7.567  0.4990  0.3580  0.1966
  296MOL0     C40765   8.178   5.421   8.009  0.4149 -0.0928 -0.8205
  296MOL0     C40766   8.108   5.475   8.128 -0.6208 -0.0458  0.2071
  296MOL0     C40767   8.178   5.493   8.247  0.7646  0.1297 -0.4843
  296MOL0     C40768   8.319   5.483   8.243 -0.3642 -0.5029  0.0977
  296MOL0     O40769   8.380   5.518   8.359 -0.0203  0.1841  0.2084
  296MOL0     C40770   8.518   5.498   8.380 -0.0925  0.4614 -0.8463
  296MOL0     C40771   8.578   5.560   8.507  0.8547 -0.0216 -0.1266
  296MOL0     C40772   8.530   5.481   8.630 -0.3090  0.3988 -0.3614
  296MOL0     C40773   8.602   5.524   8.754  0.1768  0.0533 -0.2521
  296MOL0     C40774   8.522   5.485   8.873 -0.4576 -0.0132  0.6962
  296MOL0     C40775   8.453   5.453   8.967  0.0208 -0.3785 -0.1649
  296MOL0     C40776   8.393   5.451   8.130 -0.0659  0.3337 -0.5371
  296MOL0     C40777   8.323   5.425   8.017 -0.6916  0.2129  0.2804
  296MOL0     C40778   8.423   5.386   7.904 -0.1943  0.1318 -0.3202
  296MOL0     H40779   7.956   5.146   7.788  0.8524  0.9149  0.2359
  296MOL0     H40780   7.840   5.080   7.560  0.2844 -2.0490 -0.8132
  296MOL0     H40781   7.982   5.308   7.178 -0.6977  2.3343 -1.1694
  296MOL0     H40782   7.901   5.360   7.325 -0.4104  1.3685 -0.4057
  296MOL0     H40783   7.764   5.168   7.129  1.2889  0.2679 -0.2176
  296MOL0     H40784   7.692   5.282   7.242 -0.1958  2.8160 -0.2640
  296MOL0     H40785   7.836   5.324   6.966  0.0850 -0.6434 -0.2188
  296MOL0     H40786   7.663   5.361   7.014 -0.3366  1.8314 -1.2531
  296MOL0     H40787   7.750   5.545   7.166 -2.2236 -0.7447 -0.8334
  296MOL0     H40788   7.913   5.515   7.096 -0.3240  0.6968 -0.5600
  296MOL0     H40789   7.688   5.619   6.913  0.2092  0.7829 -0.3877
  296MOL0     H40790   7.851   5.562   6.861 -1.4078  0.0800 -2.1563
  296MOL0     H40791   7.957   5.736   7.013  1.9253  0.1211 -1.8608
  296MOL0     H40792   7.863   5.803   6.874  0.6968 -1.9203 -1.3319
  296MOL0     H40793   7.768   5.787   7.160 -5.2529 -1.9275 -0.4270
  296MOL0     H40794   7.663   5.833   7.028 -0.1375  1.6082 -2.0205
  296MOL0     H40795   7.902   5.994   7.073 -0.0357  2.0652  1.4869
  296MOL0     H40796   7.769   6.024   6.961 -0.5358 -2.1916 -1.0815
  296MOL0     H40797   7.832   6.047   7.333  0.5589 -1.4299 -2.5950
  296MOL0     H40798   7.581   6.099   7.528 -1.6400  0.1971  1.1711
  296MOL0     H40799   7.520   6.260   7.486  1.1467  0.1833 -0.7033
  296MOL0     H40800   7.817   6.187   7.506 -0.9329 -1.1768  0.9353
  296MOL0     H40801   7.746   6.349   7.547 -1.6108  0.5810 -1.8663
  296MOL0     H40802   7.673   6.288   7.766 -0.7201 -0.8637 -0.7578
  296MOL0     H40803   7.708   6.113   7.732  3.1899 -1.1886 -1.0066
  296MOL0     H40804   7.952   6.198   7.677 -0.6756  2.7844 -2.4422
  296MOL0     H40805   7.889   6.325   7.792 -0.7867  0.0712 -0.3640
  296MOL0     H40806   7.961   5.941   8.041  1.4388  1.2277  3.8603
  296MOL0     H40807   8.160   5.759   8.111  1.3941 -0.2446 -1.8690
  296MOL0     H40808   8.047   5.849   8.200 -0.3133  3.8548 -1.5476
  296MOL0     H40809   8.215   5.877   8.242  0.8567  0.7724 -1.1557
  296MOL0     H40810   8.714   5.942   7.846 -0.7479  1.1832  0.3862
  296MOL0     H40811   8.951   5.910   7.940 -0.2449 -0.6622 -0.1173
  296MOL0     H40812   9.113   5.784   8.029 -2.2725  1.3949 -1.2509
  296MOL0     H40813   9.091   5.942   8.108  1.4773  0.2188  1.5434
  296MOL0     H40814   9.209   5.693   8.209  0.0806  0.2729 -1.5841
  296MOL0     H40815   9.303   5.829   8.147 -1.0396 -0.1528 -1.6850
  296MOL0     H40816   9.252   5.807   8.429 -3.4384 -0.2829 -1.1316
  296MOL0     H40817   9.118   5.897   8.379 -0.6427  0.3889  2.4491
  296MOL0     H40818   9.288   6.034   8.242  0.1398 -3.8575 -1.9251
  296MOL0     H40819   9.413   5.952   8.336 -0.3406 -2.2571 -0.0684
  296MOL0     H40820   9.199   6.124   8.442  0.5690  0.8570 -2.5498
  296MOL0     H40821   9.316   6.028   8.547  2.4181  3.9852  1.3222
  296MOL0     H40822   9.364   6.295   8.501  0.7643  1.3077 -1.6458
  296MOL0     H40823   9.445   6.232   8.354  2.8212 -2.2495 -0.7442
  296MOL0     H40824   9.595   6.109   8.470 -0.6573  1.4492 -0.9222
  296MOL0     H40825   9.512   6.130   8.627  2.7619  1.4392  1.6044
  296MOL0     H40826   9.704   6.270   8.603 -0.0992 -1.5571 -0.0893
  296MOL0     H40827   9.547   6.370   8.603  1.4192 -0.2441  1.8556
  296MOL0     H40828   8.766   5.725   8.277 -1.2707  0.6589  1.1105
  296MOL0     H40829   8.534   5.779   8.204  0.1185 -1.9521 -0.8831
  296MOL0     H40830   8.347   6.175   7.864 -0.6798  0.0097 -1.8316
  296MOL0     H40831   8.134   6.239   7.778 -0.8018  0.9352  0.4669
  296MOL0     H40832   8.150   5.285   7.346 -2.2006 -0.6968 -0.9971
  296MOL0     H40833   8.251   5.369   7.572  1.9707 -1.0516 -0.6146
  296MOL0     H40834   7.999   5.480   8.122 -0.6604  2.2032  1.5627
  296MOL0     H40835   8.126   5.523   8.337  2.1832  1.1664  0.0326
  296MOL0     H40836   8.527   5.389   8.379 -1.1187  0.3434  0.0690
  296MOL0     H40837   8.573   5.535   8.294  0.4623  0.0429 -0.6806
  296MOL0     H40838   8.563   5.667   8.495  3.9946  0.1933 -5.4684
  296MOL0     H40839   8.685   5.540   8.493  0.9843  0.7970 -0.3458
  296MOL0     H40840   8.428   5.518   8.639  0.6590  3.5306 -1.0473
  296MOL0     H40841   8.522   5.373   8.613  0.3444  0.2761  0.0793
  296MOL0     H40842   8.616   5.631   8.768 -3.1240  0.4514  0.7288
  296MOL0     H40843   8.700   5.476   8.751  0.9816  1.2239  3.0885
  296MOL0     H40844   8.396   5.437   9.056 -1.7816  0.9390 -1.0260
  296MOL0     H40845   8.501   5.455   8.127  0.2148 -1.6489  2.4947
  296MOL0     H40846   8.400   5.282   7.878 -1.7598  0.0863  1.0387
  296MOL0     H40847   8.414   5.448   7.815  1.8791  1.1240  0.1204
  296MOL0     H40848   8.523   5.370   7.945 -0.8791 -0.9157  1.0379
  297MOL0     O40849   3.551   0.345   2.031 -0.2960  1.0063 -0.1176
  297MOL0     C40850   3.519   0.396   1.924  0.6884  1.0061 -0.2138
  297MOL0     O40851   3.597   0.477   1.858 -0.0474  0.3439 -0.0097
  297MOL0     C40852   3.701   0.550   1.915  0.0715 -0.6112  0.6417
  297MOL0     C40853   3.714   0.563   2.055  0.4142  0.5444 -0.8061
  297MOL0     C40854   3.833   0.619   2.098 -0.0743 -0.2737 -0.2873
  297MOL0     C40855   3.923   0.681   2.010 -1.3104  0.2948  0.1469
  297MOL0     O40856   4.037   0.749   2.055 -0.3521 -0.2181 -0.3703
  297MOL0     C40857   4.059   0.805   2.183 -0.2807  0.9679 -0.8570
  297MOL0     C40858   4.192   0.884   2.193  0.2872  0.1001 -0.3957
  297MOL0     C40859   4.199   0.943   2.330  1.3034  0.2536 -0.6851
  297MOL0     C40860   4.214   0.838   2.439 -0.4430 -0.5804  0.1433
  297MOL0     C40861   4.263   0.910   2.568 -0.4294 -0.7564  0.1503
  297MOL0     C40862   4.254   0.842   2.708 -0.3209  0.8432  0.8743
  297MOL0     C40863   4.341   0.924   2.812  1.1520  0.3473  0.0369
  297MOL0     C40864   4.329   0.852   2.947 -0.4658  0.0739  0.1814
  297MOL0     N40865   4.368   0.938   3.057 -0.5373 -0.3478 -0.7935
  297MOL0     C40866   4.493   0.995   3.087 -0.1975  0.3718  0.7346
  297MOL0     C40867   4.468   1.086   3.187 -0.7436  0.3206  0.2422
  297MOL0     C40868   4.575   1.166   3.256 -0.9267  1.1299  0.1740
  297MOL0     C40869   4.598   1.104   3.399 -0.0185  0.1041 -0.6428
  297MOL0     C40870   4.734   1.130   3.469 -0.9025  0.2301  0.1672
  297MOL0     C40871   4.757   1.279   3.490  1.0029  0.7175  0.0367
  297MOL0     O40872   4.867   1.305   3.578  0.2748  0.6235  0.1059
  297MOL0     C40873   4.960   1.373   3.507  1.1647 -0.2303 -0.5494
  297MOL0     C40874   5.033   1.301   3.413  0.0983 -0.6169  0.4757
  297MOL0     C40875   5.100   1.381   3.319 -1.3248  0.4613 -0.3341
  297MOL0     C40876   5.168   1.300   3.215 -0.5102  0.3121 -0.0390
  297MOL0     C40877   5.107   1.527   3.330 -0.3338  0.3637  0.1211
  297MOL0     C40878   5.158   1.615   3.215  0.0981  0.1641 -0.8091
  297MOL0     O40879   5.212   1.732   3.256 -0.1890  0.0737 -0.3442
  297MOL0     C40880   5.255   1.822   3.162 -0.0107 -0.9320  0.6129
  297MOL0     C40881   5.182   1.936   3.115  0.1155 -0.2388 -0.0287
  297MOL0     C40882   5.235   2.022   3.017  0.4871 -0.2361 -0.0956
  297MOL0     C40883   5.367   1.996   2.966  0.0355  0.1265  0.5538
  297MOL0     O40884   5.417   2.077   2.868 -0.0958 -0.4839 -0.2077
  297MOL0     C40885   5.487   2.001   2.766  0.5309  0.1471 -0.3162
  297MOL0     C40886   5.627   2.044   2.747  1.2677  0.1115  0.0888
  297MOL0     C40887   5.686   1.985   2.622 -0.9040 -0.7887  0.8976
  297MOL0     C40888   5.830   2.030   2.596  0.5262 -0.5630  0.1239
  297MOL0     C40889   5.885   1.968   2.473  0.0177 -0.5776  0.2947
  297MOL0     C40890   6.031   1.996   2.476 -0.6177 -0.1426 -0.4343
  297MOL0     C40891   6.107   1.981   2.339  0.0103  0.3410  0.7861
  297MOL0     C40892   6.247   2.040   2.350 -0.4052 -0.1097  0.3398
  297MOL0    Cl40893   6.353   1.938   2.424 -0.0371  0.0104 -0.2795
  297MOL0     C40894   5.449   1.905   3.030 -0.7968 -0.4940 -0.8537
  297MOL0     C40895   5.388   1.819   3.126 -0.0857 -0.2190 -0.2000
  297MOL0     O40896   5.180   1.565   3.101 -0.2089 -0.9391 -0.3579
  297MOL0     C40897   5.045   1.590   3.436  0.0554  0.0681  0.1204
  297MOL0     C40898   4.973   1.511   3.529 -0.2663  0.0178 -0.0271
  297MOL0     N40899   4.329   1.082   3.211 -0.1298  0.6702 -0.1801
  297MOL0     N40900   4.274   0.995   3.135 -0.2241  0.3997  0.0865
  297MOL0     C40901   3.898   0.674   1.876 -0.0365 -0.2058  0.5090
  297MOL0     C40902   3.786   0.606   1.830 -0.3981 -0.0937  0.3841
  297MOL0     C40903   3.387   0.357   1.861  0.1373 -0.5891  0.2513
  297MOL0     C40904   3.336   0.442   1.767 -0.5964 -0.2149  0.4076
  297MOL0     C40905   3.203   0.417   1.721  0.1900 -0.6628  0.0210
  297MOL0     C40906   3.141   0.301   1.732  0.2080  0.4728 -0.1311
  297MOL0     O40907   3.011   0.285   1.678 -0.2817 -0.5164  1.0072
  297MOL0     C40908   2.942   0.374   1.591 -0.4018  0.4477  0.2000
  297MOL0     C40909   3.005   0.393   1.453 -0.7003  0.0004 -0.0463
  297MOL0     C40910   2.928   0.300   1.358 -0.2522  0.3518  0.1787
  297MOL0     C40911   3.006   0.277   1.223 -0.1871  0.0633 -1.0297
  297MOL0     C40912   2.919   0.190   1.150 -0.1168  0.2019  0.3441
  297MOL0     C40913   2.864   0.119   1.068 -0.8985 -0.5383 -0.4536
  297MOL0     C40914   3.204   0.202   1.801  0.4703 -0.0879  0.1408
  297MOL0     C40915   3.327   0.228   1.867  0.2968  0.7283 -0.8747
  297MOL0     C40916   3.380   0.116   1.952  0.9857 -0.2571 -0.7046
  297MOL0     H40917   3.644   0.526   2.129 -0.7707 -1.8609 -2.9568
  297MOL0     H40918   3.856   0.614   2.204 -1.3244 -1.9537 -0.0502
  297MOL0     H40919   4.072   0.724   2.255  1.2679  2.0560  0.1450
  297MOL0     H40920   3.971   0.861   2.217  0.2951 -0.3646  3.3406
  297MOL0     H40921   4.274   0.812   2.187 -0.1300 -0.3859 -0.3032
  297MOL0     H40922   4.211   0.962   2.119 -2.2301  1.0753 -0.1189
  297MOL0     H40923   4.280   1.016   2.330  2.1643 -0.6475 -2.2716
  297MOL0     H40924   4.112   1.005   2.355  0.0180 -1.3680 -0.9446
  297MOL0     H40925   4.114   0.795   2.454 -0.1777 -1.8605 -1.4854
  297MOL0     H40926   4.287   0.766   2.402 -0.7135  0.6365 -3.0395
  297MOL0     H40927   4.192   0.993   2.562 -0.5741 -0.9240 -0.5706
  297MOL0     H40928   4.368   0.940   2.555 -0.2926 -1.2953 -0.0119
  297MOL0     H40929   4.147   0.830   2.724 -0.6935 -0.0443 -1.7248
  297MOL0     H40930   4.298   0.743   2.698 -2.1527  0.0556  0.1328
  297MOL0     H40931   4.312   1.029   2.828 -2.1361 -0.3696 -0.4958
  297MOL0     H40932   4.445   0.933   2.782  0.6061  2.8462 -1.4093
  297MOL0     H40933   4.227   0.813   2.946 -0.5697  0.3096  0.9395
  297MOL0     H40934   4.397   0.766   2.944 -1.0025 -0.3851  0.9549
  297MOL0     H40935   4.588   0.949   3.059 -0.8694 -0.2770 -0.5665
  297MOL0     H40936   4.552   1.270   3.280 -3.7724  0.6629 -0.1358
  297MOL0     H40937   4.657   1.174   3.185  1.2938  1.7046  2.6748
  297MOL0     H40938   4.525   1.148   3.467  1.5355 -0.9681  1.8471
  297MOL0     H40939   4.565   1.001   3.413 -2.6364  1.2648  2.8625
  297MOL0     H40940   4.718   1.071   3.560  0.1001 -0.2030  0.0734
  297MOL0     H40941   4.817   1.098   3.406  0.7179  3.5663  0.4112
  297MOL0     H40942   4.756   1.321   3.390  2.1666 -0.5636 -0.5607
  297MOL0     H40943   4.667   1.317   3.538 -0.1718 -2.3502  0.5318
  297MOL0     H40944   5.038   1.193   3.419 -0.2906 -0.5389  3.0869
  297MOL0     H40945   5.267   1.326   3.178 -0.9602  0.8972 -0.8585
  297MOL0     H40946   5.113   1.311   3.121  2.2329 -0.0592 -1.8008
  297MOL0     H40947   5.177   1.194   3.239 -0.8840  0.3382  0.2433
  297MOL0     H40948   5.081   1.962   3.146 -0.6744 -0.8752 -1.8786
  297MOL0     H40949   5.180   2.107   2.975 -1.0022 -1.1158 -0.0007
  297MOL0     H40950   5.479   1.892   2.771 -0.9694  0.1370 -1.7797
  297MOL0     H40951   5.436   2.021   2.671  0.0160  1.5193  0.2245
  297MOL0     H40952   5.622   2.153   2.731  3.9175 -0.0638 -3.0516
  297MOL0     H40953   5.688   2.008   2.831 -1.9146 -2.1348  1.6231
  297MOL0     H40954   5.628   2.003   2.531  0.9547  2.5699  0.1970
  297MOL0     H40955   5.693   1.876   2.626  0.2998 -0.8697 -1.6248
  297MOL0     H40956   5.894   2.001   2.680  1.5132  1.7086  0.2231
  297MOL0     H40957   5.833   2.139   2.591  1.2002 -0.6090 -3.8256
  297MOL0     H40958   5.865   1.860   2.472  0.5868 -0.7839  3.3937
  297MOL0     H40959   5.831   2.009   2.386 -0.3180  1.0866  1.2451
  297MOL0     H40960   6.080   1.920   2.538  0.4080  0.6773 -0.2105
  297MOL0     H40961   6.057   2.093   2.520 -0.6524  0.6713 -2.1059
  297MOL0     H40962   6.048   2.034   2.264 -0.0284  1.2089  1.4069
  297MOL0     H40963   6.118   1.878   2.306  2.5515  0.1342  2.0289
  297MOL0     H40964   6.248   2.134   2.405 -0.8520 -0.0705  0.2847
  297MOL0     H40965   6.291   2.056   2.251  5.2448 -3.1887  1.9147
  297MOL0     H40966   5.547   1.872   2.999  0.6572  1.1928  1.5605
  297MOL0     H40967   5.451   1.750   3.180 -1.5673 -1.1207  0.4271
  297MOL0     H40968   5.037   1.698   3.445  1.9115  0.1663  0.9471
  297MOL0     H40969   4.928   1.556   3.617  0.3854 -1.6116  1.1853
  297MOL0     H40970   3.964   0.728   1.809 -0.5449 -1.1751 -0.8230
  297MOL0     H40971   3.776   0.604   1.721 -0.0720 -0.2497  0.3578
  297MOL0     H40972   3.385   0.536   1.748 -0.0772 -0.0724  2.3363
  297MOL0     H40973   3.159   0.494   1.658  0.5640 -1.1085 -0.7966
  297MOL0     H40974   2.839   0.339   1.585 -0.1107 -0.2254 -1.8161
  297MOL0     H40975   2.930   0.471   1.640 -0.4695  0.8348 -0.5610
  297MOL0     H40976   3.105   0.350   1.444 -1.7965 -2.8025 -0.0204
  297MOL0     H40977   2.995   0.500   1.435 -0.1141 -0.0601 -0.7726
  297MOL0     H40978   2.901   0.205   1.404  5.4980 -1.8048 -0.0746
  297MOL0     H40979   2.837   0.357   1.334  0.2903  1.0395 -0.3035
  297MOL0     H40980   3.109   0.244   1.242  0.0872  1.2997 -0.2933
  297MOL0     H40981   3.009   0.377   1.177 -1.8728  0.6154 -0.0043
  297MOL0     H40982   2.823   0.045   1.001 -3.0388 -1.0022  1.2626
  297MOL0     H40983   3.165   0.101   1.791  2.3274 -0.8626  0.2911
  297MOL0     H40984   3.356   0.025   1.897 -5.2865  1.4017 -1.4429
  297MOL0     H40985   3.488   0.129   1.941  0.8612  2.9182  0.6451
  297MOL0     H40986   3.355   0.124   2.058  2.5950 -0.0600 -0.3048
  298MOL0     O40987  10.676   9.100   2.516 -0.1058  0.9287  0.0220
  298MOL0     C40988  10.580   9.165   2.484  0.7249 -0.3069 -0.9272
  298MOL0     O40989  10.469   9.180   2.550 -1.1842  0.1711 -0.4275
  298MOL0     C40990  10.479   9.163   2.685  0.5333 -0.0256  0.5074
  298MOL0     C40991  10.497   9.035   2.739  0.3735 -0.0319 -0.0782
  298MOL0     C40992  10.494   9.021   2.881 -0.2403  0.6011 -0.1638
  298MOL0     C40993  10.463   9.130   2.964  0.0338  0.4939  0.0943
  298MOL0     O40994  10.448   9.101   3.098  0.2417 -0.2465  0.6427
  298MOL0     C40995  10.313   9.116   3.140  0.1674 -0.8149 -0.5788
  298MOL0     C40996  10.210   9.029   3.075 -0.0045 -0.9432 -0.5658
  298MOL0     C40997  10.072   9.036   3.152  0.5981  0.7894  1.0792
  298MOL0     C40998  10.082   8.958   3.280  0.6139  0.2244  0.9864
  298MOL0     C40999   9.948   8.978   3.358 -0.4144  0.6290 -0.2310
  298MOL0     C41000   9.929   8.872   3.463  0.2249 -0.1286 -0.0948
  298MOL0     C41001   9.910   8.727   3.402  0.2307  0.1277 -0.3133
  298MOL0     C41002   9.829   8.637   3.492  0.4703  0.3873 -0.5847
  298MOL0     N41003   9.880   8.631   3.632 -0.0640  0.8785 -0.1562
  298MOL0     C41004   9.837   8.709   3.737 -0.4745  0.3410  0.2426
  298MOL0     C41005   9.927   8.687   3.834 -1.0394  0.2677 -0.1945
  298MOL0     C41006   9.924   8.747   3.973  0.0440  0.1955  0.2319
  298MOL0     C41007  10.041   8.711   4.068  0.6006  0.2186  0.6404
  298MOL0     C41008  10.182   8.765   4.033 -0.0133  0.2680 -0.5816
  298MOL0     C41009  10.194   8.920   4.015  0.6079  0.0673 -0.1825
  298MOL0     O41010  10.326   8.969   4.058  0.0623  0.3045  0.3971
  298MOL0     C41011  10.329   9.022   4.180  0.2249  0.6660 -1.3219
  298MOL0     C41012  10.423   8.976   4.275 -0.5111  0.4396  0.6679
  298MOL0     C41013  10.415   9.011   4.414 -0.8431  0.4654  1.1513
  298MOL0     C41014  10.508   8.939   4.515 -0.0387 -0.5270  0.0604
  298MOL0     C41015  10.324   9.116   4.458  0.1748  0.0806  0.4858
  298MOL0     C41016  10.330   9.173   4.601 -0.7283 -0.2288  0.4720
  298MOL0     O41017  10.443   9.188   4.661 -0.0835  0.2712 -0.6125
  298MOL0     C41018  10.446   9.205   4.802 -0.1742 -0.1594 -0.1243
  298MOL0     C41019  10.401   9.102   4.882  0.0769 -0.7929 -0.4720
  298MOL0     C41020  10.403   9.119   5.024  0.1657  0.0747 -0.0999
  298MOL0     C41021  10.454   9.238   5.077 -1.1317  0.1982 -0.3802
  298MOL0     O41022  10.482   9.236   5.215  0.4877 -0.1352 -0.6119
  298MOL0     C41023  10.559   9.350   5.270 -0.1054 -0.2085 -0.1717
  298MOL0     C41024  10.712   9.327   5.267 -0.4240  0.8922 -0.1819
  298MOL0     C41025  10.779   9.461   5.296  0.2673  0.1950 -0.2597
  298MOL0     C41026  10.934   9.466   5.275  0.2945 -0.9169 -0.1942
  298MOL0     C41027  11.017   9.378   5.372 -0.2947  0.2971  0.2034
  298MOL0     C41028  11.163   9.360   5.324 -0.7142 -0.0445 -0.3858
  298MOL0     C41029  11.239   9.269   5.423 -0.2684  1.1033 -0.5326
  298MOL0     C41030  11.383   9.237   5.381  0.5766  0.7292  0.6441
  298MOL0    Cl41031  11.475   9.161   5.512  0.1829  0.0762  0.0418
  298MOL0     C41032  10.498   9.341   4.987 -0.6030  0.5627  0.1304
  298MOL0     C41033  10.497   9.323   4.849  0.1409 -0.1834 -0.2929
  298MOL0     O41034  10.217   9.197   4.645  0.3689  0.4179 -0.1882
  298MOL0     C41035  10.234   9.161   4.358  0.8677  0.0788  0.5430
  298MOL0     C41036  10.230   9.117   4.229  0.4314  0.5490 -0.5423
  298MOL0     N41037  10.014   8.587   3.794 -1.0802  0.4074 -0.1861
  298MOL0     N41038   9.986   8.559   3.673 -0.1539 -0.1495  0.4373
  298MOL0     C41039  10.454   9.258   2.903 -0.0972  0.4085  0.2788
  298MOL0     C41040  10.453   9.268   2.766 -0.6338  0.1041 -0.5205
  298MOL0     C41041  10.585   9.228   2.349  0.0443  0.3326  1.2569
  298MOL0     C41042  10.592   9.135   2.241 -0.1504  0.0589  0.3342
  298MOL0     C41043  10.585   9.174   2.112 -0.7279 -1.4013  1.0851
  298MOL0     C41044  10.541   9.303   2.080 -0.9922 -0.5776  0.3007
  298MOL0     O41045  10.533   9.349   1.950  0.7299  0.0634 -1.2080
  298MOL0     C41046  10.539   9.260   1.842 -0.1103  0.8284 -0.3748
  298MOL0     C41047  10.464   9.335   1.727  0.3069 -0.7958 -0.1440
  298MOL0     C41048  10.317   9.369   1.759 -0.4141 -0.8848  0.0691
  298MOL0     C41049  10.219   9.398   1.635  0.5840  0.4623  0.6715
  298MOL0     C41050  10.098   9.468   1.678  0.3121  0.0813 -0.8783
  298MOL0     C41051   9.986   9.502   1.717 -0.6192  0.0845 -1.0135
  298MOL0     C41052  10.524   9.396   2.186  0.6703  1.4202  0.1314
  298MOL0     C41053  10.549   9.361   2.317 -0.2192  0.3023 -0.3505
  298MOL0     C41054  10.533   9.473   2.415  0.0268 -0.2061  0.3437
  298MOL0     H41055  10.533   8.950   2.682  1.4185 -0.8008  1.6469
  298MOL0     H41056  10.516   8.926   2.928  1.2925  1.9853  2.1223
  298MOL0     H41057  10.285   9.220   3.123 -1.0121 -0.7769  1.3263
  298MOL0     H41058  10.315   9.098   3.248 -2.6616  1.4149 -0.0525
  298MOL0     H41059  10.197   9.050   2.969 -0.5044 -3.7214 -1.1419
  298MOL0     H41060  10.253   8.929   3.070  4.0110  0.6451 -1.1058
  298MOL0     H41061  10.051   9.142   3.174  0.8852  0.7913  1.3558
  298MOL0     H41062  10.001   9.002   3.077 -0.0736  2.6928  0.7937
  298MOL0     H41063  10.106   8.855   3.252  0.6051  0.1925  1.0966
  298MOL0     H41064  10.164   8.992   3.343  2.5134 -0.0984 -1.1547
  298MOL0     H41065   9.866   8.982   3.285 -0.7587  0.4079  0.1376
  298MOL0     H41066   9.951   9.080   3.399  1.1736  0.2843  0.5569
  298MOL0     H41067  10.023   8.869   3.519  0.5240 -0.8761 -0.6073
  298MOL0     H41068   9.857   8.897   3.541 -0.0145  0.5165 -0.5182
  298MOL0     H41069  10.010   8.686   3.383  2.3086  3.2131  2.6823
  298MOL0     H41070   9.862   8.729   3.304  2.6897  2.3472 -1.6256
  298MOL0     H41071   9.727   8.672   3.508  0.5198 -0.0023  0.6159
  298MOL0     H41072   9.821   8.532   3.461 -0.8158 -0.6072  2.6728
  298MOL0     H41073   9.753   8.776   3.749 -0.3197  0.6494 -0.3647
  298MOL0     H41074   9.832   8.704   4.016 -0.4646  0.9270 -0.0974
  298MOL0     H41075   9.921   8.856   3.973  1.8403  0.2796 -0.7579
  298MOL0     H41076  10.014   8.759   4.163 -0.5040  3.7069 -1.2418
  298MOL0     H41077  10.041   8.602   4.069  1.1375  0.2171  1.1433
  298MOL0     H41078  10.241   8.744   4.123  0.2833 -0.4944 -0.9440
  298MOL0     H41079  10.232   8.720   3.946  2.6245  2.3354 -0.2616
  298MOL0     H41080  10.188   8.936   3.907  0.4640 -1.4274 -0.4177
  298MOL0     H41081  10.105   8.968   4.058 -0.6002 -2.3838  0.2664
  298MOL0     H41082  10.511   8.921   4.242  1.0993  3.3874 -0.3590
  298MOL0     H41083  10.563   8.849   4.484  1.8582 -0.0898  1.9453
  298MOL0     H41084  10.435   8.915   4.592 -2.8167  2.9851 -1.2110
  298MOL0     H41085  10.589   9.002   4.555 -2.3590  0.1957  4.1472
  298MOL0     H41086  10.374   9.009   4.832  1.6022 -1.8520  0.5713
  298MOL0     H41087  10.377   9.043   5.097 -1.5198  1.6409  1.0019
  298MOL0     H41088  10.538   9.445   5.221 -3.5633  0.9984  3.1819
  298MOL0     H41089  10.543   9.370   5.376  0.0035  1.5690 -0.4488
  298MOL0     H41090  10.735   9.247   5.338  0.5017 -0.1706 -1.6207
  298MOL0     H41091  10.743   9.278   5.175 -0.6703 -0.7980  0.5905
  298MOL0     H41092  10.747   9.486   5.397  1.3327 -0.1202  0.1670
  298MOL0     H41093  10.726   9.535   5.234 -0.8743 -0.2369  0.1682
  298MOL0     H41094  10.959   9.573   5.273 -3.0338  0.0337  1.4032
  298MOL0     H41095  10.953   9.429   5.174 -3.3404 -1.5024 -0.7762
  298MOL0     H41096  11.010   9.426   5.471 -1.7343  3.6495 -1.3485
  298MOL0     H41097  10.986   9.274   5.376 -0.3679  0.3416  1.9630
  298MOL0     H41098  11.217   9.455   5.324  1.2064 -1.0212  2.0979
  298MOL0     H41099  11.169   9.310   5.227  4.3802 -2.2871  0.7429
  298MOL0     H41100  11.178   9.180   5.441 -0.4794  0.7706 -2.5931
  298MOL0     H41101  11.244   9.319   5.520  1.9368 -0.8061  0.4083
  298MOL0     H41102  11.438   9.330   5.359  2.4011 -0.0211  1.7423
  298MOL0     H41103  11.394   9.176   5.291  1.2971  1.8409 -0.0505
  298MOL0     H41104  10.525   9.436   5.032  1.1822  0.8738 -1.4729
  298MOL0     H41105  10.521   9.399   4.775  3.8747 -0.0295  0.8513
  298MOL0     H41106  10.153   9.227   4.389  0.8372 -0.9293  2.8066
  298MOL0     H41107  10.156   9.150   4.155 -2.5918  0.7277  2.3191
  298MOL0     H41108  10.425   9.337   2.972  0.3971  0.5130  0.3687
  298MOL0     H41109  10.435   9.372   2.739  0.3974 -0.2001 -2.6142
  298MOL0     H41110  10.611   9.029   2.252 -0.9947 -0.0796  0.5156
  298MOL0     H41111  10.616   9.101   2.038 -0.2664 -0.8512  0.7172
  298MOL0     H41112  10.644   9.249   1.814 -0.3743  1.4634 -1.7359
  298MOL0     H41113  10.490   9.163   1.858 -0.9361  1.0755 -1.3196
  298MOL0     H41114  10.451   9.265   1.644 -0.4784 -1.5111  0.5562
  298MOL0     H41115  10.522   9.421   1.692  2.1240 -1.1579  1.7489
  298MOL0     H41116  10.280   9.286   1.820 -2.1737 -0.6664 -0.6531
  298MOL0     H41117  10.330   9.455   1.826 -0.2046 -1.5112  0.8525
  298MOL0     H41118  10.189   9.298   1.600 -0.2641  1.4312 -1.5299
  298MOL0     H41119  10.270   9.452   1.555 -3.6100  1.6855 -1.4379
  298MOL0     H41120   9.896   9.548   1.753  0.6387  2.6800 -0.9366
  298MOL0     H41121  10.486   9.490   2.147  2.2924  0.7564 -3.4254
  298MOL0     H41122  10.426   9.494   2.429  0.1621 -0.7498  2.7057
  298MOL0     H41123  10.564   9.467   2.520 -1.0484  1.8125  0.8387
  298MOL0     H41124  10.587   9.564   2.387 -1.3470  0.4946 -0.1206
  299MOL0     O41125   1.825   4.423   1.172 -0.3322  0.4522 -0.9738
  299MOL0     C41126   1.894   4.341   1.240  0.1005  0.5048 -0.6627
  299MOL0     O41127   1.997   4.275   1.183  0.1738  0.2546 -0.2931
  299MOL0     C41128   2.021   4.299   1.055  0.6208  0.0568  0.6154
  299MOL0     C41129   2.135   4.375   1.026  0.3064  0.4760  0.4703
  299MOL0     C41130   2.178   4.392   0.893  0.0228 -0.1187  0.3056
  299MOL0     C41131   2.105   4.342   0.787 -0.0478 -0.1176  0.0924
  299MOL0     O41132   2.132   4.342   0.656  1.3661  0.0074  0.1074
  299MOL0     C41133   2.205   4.456   0.615 -0.4312  0.0427 -0.2491
  299MOL0     C41134   2.244   4.434   0.473 -0.7780  1.2126  0.7235
  299MOL0     C41135   2.134   4.453   0.376  0.1705 -0.0821 -0.2036
  299MOL0     C41136   2.172   4.429   0.236  0.0893  0.4259 -0.7975
  299MOL0     C41137   2.050   4.415   0.143  0.5036 -0.8340 -0.1010
  299MOL0     C41138   2.079   4.328   0.015 -0.3645 -0.5019  0.8476
  299MOL0     C41139   1.999   4.365  -0.104  0.2298  0.4276 -0.1279
  299MOL0     C41140   2.036   4.286  -0.229 -0.0930  0.1310 -0.1723
  299MOL0     N41141   2.147   4.341  -0.298 -0.3315  0.1163  0.1303
  299MOL0     C41142   2.252   4.414  -0.245 -1.5227 -0.1579  0.0621
  299MOL0     C41143   2.319   4.454  -0.353  0.1213  0.5412 -0.1517
  299MOL0     C41144   2.445   4.545  -0.360  0.0126 -0.9633 -0.6150
  299MOL0     C41145   2.425   4.652  -0.471  0.4331 -0.5877 -0.1588
  299MOL0     C41146   2.558   4.709  -0.511 -0.4906  0.2596 -0.6788
  299MOL0     C41147   2.634   4.796  -0.416  0.9155  0.1334 -0.1729
  299MOL0     O41148   2.552   4.903  -0.369  0.5801 -0.5802 -0.4589
  299MOL0     C41149   2.607   5.018  -0.301 -0.5786  0.2839  0.5598
  299MOL0     C41150   2.738   5.027  -0.264 -0.4640 -1.0861 -0.7916
  299MOL0     C41151   2.785   5.139  -0.182 -0.1874 -0.4224 -0.4931
  299MOL0     C41152   2.926   5.133  -0.134  0.3784 -0.2228  0.1503
  299MOL0     C41153   2.703   5.245  -0.150 -0.6284  0.6883 -0.1409
  299MOL0     C41154   2.751   5.377  -0.098  0.1143  0.3390 -0.2841
  299MOL0     O41155   2.879   5.408  -0.109  0.0075 -0.1468  0.4701
  299MOL0     C41156   2.935   5.508  -0.038  0.1518  0.5038 -0.7018
  299MOL0     C41157   2.947   5.497   0.099  0.0968 -0.2058  0.6142
  299MOL0     C41158   2.970   5.617   0.170 -0.4397 -0.6344 -0.8618
  299MOL0     C41159   3.001   5.744   0.108  0.3790  0.0029 -0.3712
  299MOL0     O41160   3.031   5.858   0.170 -0.8980  1.0733  0.0388
  299MOL0     C41161   2.970   5.893   0.294  0.7390  0.2665 -0.4125
  299MOL0     C41162   2.821   5.918   0.284 -0.2678 -0.7703 -0.5227
  299MOL0     C41163   2.787   6.055   0.216 -0.2794 -0.2281 -0.9710
  299MOL0     C41164   2.780   6.163   0.329  1.5765 -0.0693 -0.0127
  299MOL0     C41165   2.729   6.284   0.251 -0.2494  0.4654 -1.4792
  299MOL0     C41166   2.708   6.398   0.356 -0.0978 -0.3167 -0.1736
  299MOL0     C41167   2.670   6.516   0.276 -0.1691  0.0715 -0.2152
  299MOL0     C41168   2.630   6.629   0.369  0.9189  0.0656  0.1354
  299MOL0    Cl41169   2.615   6.785   0.290 -0.0516  0.5514 -0.0143
  299MOL0     C41170   2.995   5.747  -0.029  0.5383 -0.3434 -0.2460
  299MOL0     C41171   2.958   5.633  -0.097 -0.4659  0.2748  0.9132
  299MOL0     O41172   2.670   5.444  -0.032  0.5163  0.2508  0.0253
  299MOL0     C41173   2.564   5.230  -0.184 -0.3812  0.2923 -0.1649
  299MOL0     C41174   2.521   5.108  -0.254  0.0839 -1.2643  1.0590
  299MOL0     N41175   2.265   4.391  -0.467  0.1674 -0.1387  0.0034
  299MOL0     N41176   2.164   4.321  -0.433 -0.5455 -0.1704  0.3781
  299MOL0     C41177   1.984   4.274   0.819 -0.8221  0.3248 -0.1780
  299MOL0     C41178   1.942   4.261   0.945 -0.7394  0.2249  0.4621
  299MOL0     C41179   1.865   4.300   1.384 -1.2016  0.2876  0.2300
  299MOL0     C41180   1.973   4.243   1.466 -0.0266  0.2931  0.6744
  299MOL0     C41181   1.940   4.198   1.600 -0.8072 -0.1338  0.6300
  299MOL0     C41182   1.814   4.218   1.656 -0.0795 -0.1000 -0.3901
  299MOL0     O41183   1.782   4.183   1.786 -0.0065  0.3175 -0.0850
  299MOL0     C41184   1.888   4.165   1.888  0.4342  0.1488  0.1275
  299MOL0     C41185   1.961   4.028   1.881  1.2953  0.1755  0.3289
  299MOL0     C41186   1.880   3.915   1.943  0.5587 -0.0343  0.0582
  299MOL0     C41187   1.860   3.926   2.097  0.5697  0.1787 -0.2203
  299MOL0     C41188   1.799   3.807   2.160 -0.0134  0.7362 -0.4057
  299MOL0     C41189   1.746   3.712   2.220 -0.8400 -0.5041  0.5362
  299MOL0     C41190   1.711   4.266   1.571  0.0833 -0.0794 -0.5624
  299MOL0     C41191   1.741   4.313   1.441  0.5054  0.6911  0.1609
  299MOL0     C41192   1.623   4.397   1.388  0.2943 -0.3748 -0.1039
  299MOL0     H41193   2.178   4.420   1.115  0.7453 -1.1977  1.1385
  299MOL0     H41194   2.267   4.448   0.867 -0.7057  1.8346  1.8452
  299MOL0     H41195   2.301   4.470   0.666  1.6787 -3.0923 -2.9016
  299MOL0     H41196   2.146   4.546   0.633  1.3480  0.9645  1.2997
  299MOL0     H41197   2.320   4.512   0.462 -1.1654  1.4797 -0.0973
  299MOL0     H41198   2.277   4.331   0.461 -1.3895  1.1598 -0.6947
  299MOL0     H41199   2.047   4.393   0.404  0.2734 -0.0375  0.2283
  299MOL0     H41200   2.120   4.562   0.376  0.6430 -0.0056  0.8823
  299MOL0     H41201   2.255   4.493   0.203  0.4475  0.8172  0.7871
  299MOL0     H41202   2.212   4.328   0.242  1.1260  0.9247  2.2809
  299MOL0     H41203   2.030   4.518   0.111  1.1044 -0.6150  0.2020
  299MOL0     H41204   1.966   4.373   0.199 -1.2167  0.4677 -1.5744
  299MOL0     H41205   2.188   4.337   0.008 -0.2786 -1.3227  0.9849
  299MOL0     H41206   2.074   4.225   0.051  0.0774 -1.3006 -1.2317
  299MOL0     H41207   1.994   4.472  -0.121  1.9157  0.3287 -1.5642
  299MOL0     H41208   1.894   4.347  -0.078  0.3493  1.5615  1.1857
  299MOL0     H41209   2.051   4.180  -0.208  0.0982  0.0312 -0.8063
  299MOL0     H41210   1.954   4.294  -0.301  1.0495 -0.7677 -1.6171
  299MOL0     H41211   2.257   4.457  -0.146 -3.1862  0.6251 -0.1462
  299MOL0     H41212   2.537   4.490  -0.380 -0.3719 -1.9351  0.1715
  299MOL0     H41213   2.462   4.600  -0.267 -0.8376 -1.2042 -0.3037
  299MOL0     H41214   2.391   4.602  -0.562  1.5238 -3.7561  1.0067
  299MOL0     H41215   2.354   4.729  -0.441  0.3645 -1.2495  1.5057
  299MOL0     H41216   2.612   4.616  -0.527  0.9979  0.0672  4.0090
  299MOL0     H41217   2.550   4.758  -0.609 -1.6209  1.4522 -0.0261
  299MOL0     H41218   2.660   4.742  -0.325  0.3423 -0.0395 -0.1029
  299MOL0     H41219   2.719   4.825  -0.479 -0.6205  2.9568 -1.1389
  299MOL0     H41220   2.814   4.950  -0.281 -2.2313 -3.8572  2.5210
  299MOL0     H41221   3.001   5.181  -0.197 -1.9928 -1.3721 -3.8894
  299MOL0     H41222   2.945   5.026  -0.128  0.4889 -0.3581 -1.9042
  299MOL0     H41223   2.943   5.169  -0.032  1.8872 -3.4021  1.1701
  299MOL0     H41224   2.929   5.409   0.159  0.5061 -0.5338  0.2598
  299MOL0     H41225   2.970   5.613   0.279  0.0038  2.6423 -0.6477
  299MOL0     H41226   2.991   5.819   0.373 -1.7633 -1.8778 -1.6080
  299MOL0     H41227   3.012   5.988   0.328 -0.9281  0.6032  0.8521
  299MOL0     H41228   2.762   5.843   0.231  0.5412 -0.7527 -1.4701
  299MOL0     H41229   2.771   5.925   0.382 -2.6430  0.7404 -1.7403
  299MOL0     H41230   2.692   6.055   0.161  0.0481  0.0206 -1.5465
  299MOL0     H41231   2.870   6.066   0.147  3.7454 -4.6480  2.4859
  299MOL0     H41232   2.874   6.165   0.386  1.6106 -4.7503  0.5295
  299MOL0     H41233   2.699   6.147   0.401 -1.5749  3.5657 -2.3465
  299MOL0     H41234   2.797   6.314   0.171 -0.0898  2.0256 -0.7963
  299MOL0     H41235   2.636   6.268   0.196 -0.4949  2.1128 -1.6076
  299MOL0     H41236   2.804   6.415   0.405  0.0221 -0.0893 -0.4836
  299MOL0     H41237   2.631   6.379   0.431  0.9011 -0.6583  0.7981
  299MOL0     H41238   2.580   6.499   0.216 -0.2041 -1.7433  0.2845
  299MOL0     H41239   2.757   6.539   0.214  0.2595 -1.1128 -0.0835
  299MOL0     H41240   2.707   6.645   0.446  2.3560  1.5156 -1.5162
  299MOL0     H41241   2.535   6.599   0.414  0.3098  2.0084  0.2307
  299MOL0     H41242   3.012   5.844  -0.076 -3.5788  0.3814 -0.5916
  299MOL0     H41243   2.933   5.639  -0.202 -2.2042  1.2079  1.3461
  299MOL0     H41244   2.496   5.310  -0.157  1.6572  2.4201 -1.0305
  299MOL0     H41245   2.418   5.087  -0.281  0.3991  0.0534 -1.4087
  299MOL0     H41246   1.924   4.237   0.736  1.7010 -0.8587 -1.5973
  299MOL0     H41247   1.848   4.210   0.962 -0.4512 -1.7753 -3.0099
  299MOL0     H41248   2.070   4.225   1.419 -0.2190 -0.5710  0.5957
  299MOL0     H41249   2.023   4.158   1.657 -0.0968  2.7254  1.7682
  299MOL0     H41250   1.966   4.242   1.890  1.8801 -1.2681  1.0998
  299MOL0     H41251   1.843   4.169   1.988  1.6692 -4.3443  1.0832
  299MOL0     H41252   2.054   4.035   1.938  1.1152 -1.2516  0.8230
  299MOL0     H41253   1.985   4.004   1.777  1.6847 -2.1736  0.9070
  299MOL0     H41254   1.787   3.887   1.891  0.7261  2.3411 -1.6849
  299MOL0     H41255   1.956   3.844   1.909  1.1483  0.1234  1.0254
  299MOL0     H41256   1.795   4.013   2.112 -0.9209 -0.8114 -0.7197
  299MOL0     H41257   1.956   3.944   2.146 -0.4271  0.5846  1.6808
  299MOL0     H41258   1.715   3.628   2.279 -1.2518 -0.0243  1.0038
  299MOL0     H41259   1.629   4.294   1.635  1.7305  0.9685  1.2016
  299MOL0     H41260   1.523   4.381   1.428  0.2905 -0.3227 -0.0912
  299MOL0     H41261   1.658   4.499   1.405 -0.6143 -0.1759  0.6530
  299MOL0     H41262   1.609   4.378   1.281  1.2442 -2.7432  0.1369
  300MOL0     O41263  10.575   5.894   8.834 -0.0913  0.3253 -0.4723
  300MOL0     C41264  10.694   5.901   8.794  0.3136 -0.4856  0.1212
  300MOL0     O41265  10.784   5.989   8.842 -0.2647  0.2911 -0.0253
  300MOL0     C41266  10.734   6.086   8.935 -1.0059  0.7429 -0.4212
  300MOL0     C41267  10.781   6.097   9.070  0.6804  0.0483 -0.3176
  300MOL0     C41268  10.720   6.199   9.151 -0.0330  0.4221 -0.2794
  300MOL0     C41269  10.624   6.288   9.104 -0.7993  1.2368  0.8374
  300MOL0     O41270  10.557   6.363   9.204 -0.0347 -0.6138 -0.2232
  300MOL0     C41271  10.444   6.436   9.163  0.0476  0.2144 -0.3291
  300MOL0     C41272  10.371   6.486   9.293  0.4620 -0.1690  1.2084
  300MOL0     C41273  10.236   6.549   9.275 -0.3074 -0.4924 -0.0422
  300MOL0     C41274  10.109   6.478   9.316  0.6739  0.3828 -0.7894
  300MOL0     C41275   9.983   6.556   9.260 -0.6214  0.2776  0.2448
  300MOL0     C41276   9.913   6.498   9.140  0.4207 -0.0208 -0.2151
  300MOL0     C41277   9.881   6.348   9.138 -0.1886  0.3009  0.9410
  300MOL0     C41278   9.767   6.317   9.032 -0.3217  1.0690  0.0951
  300MOL0     N41279   9.736   6.169   9.014  0.9869 -0.0722  0.0075
  300MOL0     C41280   9.813   6.074   8.963  0.0059  0.3950 -0.1436
  300MOL0     C41281   9.743   5.961   8.972  0.3567  0.5484  0.3681
  300MOL0     C41282   9.777   5.830   8.909 -0.4939 -0.3289  0.8195
  300MOL0     C41283   9.789   5.713   9.010  0.5740 -0.9820 -0.5613
  300MOL0     C41284   9.873   5.755   9.129 -0.7304  0.3843 -0.3572
  300MOL0     C41285   9.947   5.630   9.189 -0.0504 -0.9720  0.5987
  300MOL0     O41286   9.856   5.521   9.216  0.5650  0.4673 -0.4185
  300MOL0     C41287   9.917   5.400   9.246  0.0210 -1.4675  0.2315
  300MOL0     C41288   9.851   5.279   9.230 -0.1065  1.3008 -0.3767
  300MOL0     C41289   9.898   5.154   9.269  0.5230  0.1758  0.0496
  300MOL0     C41290   9.812   5.025   9.259  0.0024 -0.4693 -0.0770
  300MOL0     C41291  10.033   5.147   9.323  0.0792 -0.0325  0.7255
  300MOL0     C41292  10.104   5.025   9.349  1.1018  0.3331 -0.7904
  300MOL0     O41293  10.230   5.039   9.393  0.0250  0.9507  0.3107
  300MOL0     C41294  10.307   4.924   9.407 -0.1982 -0.4945 -0.2279
  300MOL0     C41295  10.331   4.845   9.295 -0.1213 -0.5151 -0.2988
  300MOL0     C41296  10.402   4.730   9.301 -0.4045 -0.4379  0.2752
  300MOL0     C41297  10.453   4.683   9.424  0.3905  1.4167  0.0105
  300MOL0     O41298  10.536   4.573   9.413  0.0300 -0.1760  0.6509
  300MOL0     C41299  10.575   4.499   9.527 -0.3023 -0.2821  0.0509
  300MOL0     C41300  10.621   4.365   9.479  0.7878  0.6049 -0.3033
  300MOL0     C41301  10.748   4.363   9.391  0.3175  0.5220  0.4428
  300MOL0     C41302  10.863   4.420   9.461 -0.9878  0.3181 -0.1496
  300MOL0     C41303  10.997   4.410   9.384 -0.7137  0.3920  1.2913
  300MOL0     C41304  11.047   4.271   9.396  0.4545  0.7619  0.6203
  300MOL0     C41305  11.193   4.254   9.357  0.2801 -0.2528  0.1300
  300MOL0     C41306  11.221   4.319   9.223  0.3891 -0.0412 -0.5271
  300MOL0    Cl41307  11.392   4.311   9.188 -0.1599  0.1689  0.3251
  300MOL0     C41308  10.437   4.765   9.535  0.6744  0.4211  0.8865
  300MOL0     C41309  10.366   4.889   9.526  0.0132  1.0735 -0.7898
  300MOL0     O41310  10.051   4.913   9.331  0.3924 -0.1092 -0.2410
  300MOL0     C41311  10.104   5.269   9.352  0.5562 -0.3022 -0.0479
  300MOL0     C41312  10.040   5.394   9.305  0.7450  0.5123 -0.5526
  300MOL0     N41313   9.617   5.991   9.020 -0.1708  0.0693 -1.0810
  300MOL0     N41314   9.618   6.114   9.038 -0.1479 -0.6782 -0.1338
  300MOL0     C41315  10.596   6.283   8.968  0.9149  0.4748 -0.1594
  300MOL0     C41316  10.647   6.183   8.889 -0.5180  0.1039  0.6490
  300MOL0     C41317  10.735   5.803   8.687 -0.2641  0.2221  0.2572
  300MOL0     C41318  10.689   5.680   8.702  0.7845  1.0523 -0.3702
  300MOL0     C41319  10.732   5.572   8.613 -0.2110  0.5960 -0.2141
  300MOL0     C41320  10.817   5.601   8.505 -0.1481 -0.0781  0.4067
  300MOL0     O41321  10.866   5.508   8.418 -0.4621  0.6246 -0.3323
  300MOL0     C41322  10.775   5.392   8.406 -0.2145  0.4516  0.4508
  300MOL0     C41323  10.812   5.296   8.284  0.0488  0.1569  0.4586
  300MOL0     C41324  10.687   5.253   8.187  0.0177 -0.1945  0.5176
  300MOL0     C41325  10.704   5.121   8.130  0.4745 -0.1601 -0.7625
  300MOL0     C41326  10.790   5.111   8.004  0.6273  0.3887 -1.2188
  300MOL0     C41327  10.840   5.109   7.894  0.5537 -0.2740 -0.0898
  300MOL0     C41328  10.879   5.724   8.496  0.2683 -0.2938 -0.0779
  300MOL0     C41329  10.837   5.826   8.588  0.1940  0.9362  0.6911
  300MOL0     C41330  10.888   5.963   8.572 -1.4663  0.3507  1.3759
  300MOL0     H41331  10.863   6.034   9.103  1.3226  0.9785 -0.1027
  300MOL0     H41332  10.735   6.203   9.258 -2.0345  1.1321  0.0303
  300MOL0     H41333  10.390   6.351   9.121  1.0403 -1.3846  1.4701
  300MOL0     H41334  10.458   6.514   9.088  3.3123 -0.6275 -0.7417
  300MOL0     H41335  10.362   6.403   9.365 -2.6936 -1.0268  0.0025
  300MOL0     H41336  10.438   6.560   9.337  2.6904  1.0211 -3.6150
  300MOL0     H41337  10.238   6.651   9.315  0.4315 -0.3973 -0.3179
  300MOL0     H41338  10.221   6.551   9.166 -1.2471 -2.8585  0.0001
  300MOL0     H41339  10.116   6.373   9.283 -2.0249 -1.4264  3.5678
  300MOL0     H41340  10.097   6.477   9.425 -3.0854 -0.8576 -1.0620
  300MOL0     H41341   9.991   6.664   9.243  1.6445  0.2132  0.5569
  300MOL0     H41342   9.899   6.549   9.329 -1.2973 -1.0457 -0.6730
  300MOL0     H41343   9.827   6.566   9.133  0.5536  0.4054  1.6038
  300MOL0     H41344   9.980   6.535   9.062 -0.6576  0.9016 -0.7237
  300MOL0     H41345   9.838   6.322   9.235 -1.5165 -0.8906  0.0626
  300MOL0     H41346   9.965   6.278   9.125 -0.0278  0.5121  0.8313
  300MOL0     H41347   9.674   6.369   9.056 -1.4724 -0.7188 -0.3260
  300MOL0     H41348   9.803   6.337   8.931 -1.7800 -1.1503 -0.9319
  300MOL0     H41349   9.913   6.080   8.921 -0.5921  0.0196 -1.7095
  300MOL0     H41350   9.880   5.834   8.872 -0.4631  1.0807  1.0007
  300MOL0     H41351   9.709   5.807   8.826  0.1100  0.7191  0.0038
  300MOL0     H41352   9.688   5.692   9.047  1.3519 -2.2349  0.9538
  300MOL0     H41353   9.838   5.625   8.967  2.2618 -2.6888  4.2007
  300MOL0     H41354   9.952   5.826   9.103  0.6110  0.8037  4.0619
  300MOL0     H41355   9.810   5.810   9.200 -1.6417 -0.7766 -0.2467
  300MOL0     H41356  10.029   5.590   9.129 -0.6439 -1.1066 -0.1352
  300MOL0     H41357   9.977   5.667   9.287  2.2311  1.0146 -0.7525
  300MOL0     H41358   9.752   5.298   9.189 -0.9742  3.9957  2.6054
  300MOL0     H41359   9.712   5.047   9.220 -0.3129 -0.2096  0.8611
  300MOL0     H41360   9.810   4.983   9.360  0.0573 -0.4619 -0.0732
  300MOL0     H41361   9.857   4.950   9.193 -1.3806  0.8713 -2.7510
  300MOL0     H41362  10.282   4.871   9.202 -2.1575 -1.1661  0.5294
  300MOL0     H41363  10.423   4.677   9.209  1.6096  1.9971 -0.7970
  300MOL0     H41364  10.643   4.549   9.596 -0.8931  1.5554 -0.6518
  300MOL0     H41365  10.480   4.477   9.576 -1.8992  2.4669 -1.5652
  300MOL0     H41366  10.621   4.296   9.564  0.8337  0.7062 -0.2205
  300MOL0     H41367  10.554   4.337   9.397  1.6757  4.2627 -2.4922
  300MOL0     H41368  10.728   4.418   9.299 -1.7079 -0.1452  0.4292
  300MOL0     H41369  10.764   4.255   9.377 -1.6146  0.3940 -1.2414
  300MOL0     H41370  10.874   4.371   9.559 -1.7853  0.8963  0.2386
  300MOL0     H41371  10.830   4.520   9.491 -2.8601  0.1455 -1.4811
  300MOL0     H41372  10.978   4.433   9.278  0.3756  4.5084  1.8152
  300MOL0     H41373  11.065   4.488   9.420  0.8572 -1.1911  1.8686
  300MOL0     H41374  10.991   4.208   9.326 -1.6084  0.3156  2.5613
  300MOL0     H41375  11.028   4.229   9.495  0.1410 -0.2040  0.1649
  300MOL0     H41376  11.218   4.149   9.340 -2.3505 -0.6891 -1.6555
  300MOL0     H41377  11.250   4.295   9.440 -1.6051 -0.7048  1.7179
  300MOL0     H41378  11.198   4.426   9.221  2.6526  0.5702  1.5740
  300MOL0     H41379  11.176   4.258   9.144  2.0460  0.6793 -2.1034
  300MOL0     H41380  10.480   4.729   9.629  1.1209 -0.8161  0.2325
  300MOL0     H41381  10.357   4.951   9.614  2.9759 -2.9817  2.8223
  300MOL0     H41382  10.204   5.265   9.393  0.9190 -2.9946 -0.9874
  300MOL0     H41383  10.088   5.490   9.325 -0.5812  1.1201 -0.1636
  300MOL0     H41384  10.509   6.338   8.933  0.8358  0.9280  0.7181
  300MOL0     H41385  10.636   6.171   8.781 -2.2569 -1.8213  0.9944
  300MOL0     H41386  10.621   5.659   8.783  0.5071  2.4112 -0.2232
  300MOL0     H41387  10.701   5.470   8.634 -1.4880  1.1465  0.7058
  300MOL0     H41388  10.766   5.325   8.492  1.7792 -1.8830 -0.9974
  300MOL0     H41389  10.678   5.431   8.376  1.0008  2.2175 -1.4947
  300MOL0     H41390  10.863   5.210   8.327 -4.6492 -3.8604 -1.0176
  300MOL0     H41391  10.879   5.344   8.212  2.7833  2.4667  4.1756
  300MOL0     H41392  10.597   5.257   8.249 -1.8126  2.4689 -2.0420
  300MOL0     H41393  10.683   5.331   8.111 -2.1653 -0.2776  0.4810
  300MOL0     H41394  10.602   5.099   8.097 -0.9928  3.1623  1.1212
  300MOL0     H41395  10.729   5.037   8.196  0.9802 -0.6054 -1.4991
  300MOL0     H41396  10.880   5.100   7.794  0.7425  3.6206 -0.5283
  300MOL0     H41397  10.954   5.753   8.423  2.1519 -0.7196  1.6110
  300MOL0     H41398  10.807   6.037   8.577  0.5903  2.6710  3.3982
  300MOL0     H41399  10.949   5.989   8.659 -0.1530  0.7721  0.3714
  300MOL0     H41400  10.952   5.973   8.483 -0.0193 -3.0167  1.9032
  301MOL0     O41401   7.302   4.254   1.493  0.1272 -0.2087 -0.2067
  301MOL0     C41402   7.182   4.269   1.518  0.2766  0.2774 -0.0556
  301MOL0     O41403   7.125   4.242   1.638 -0.1332 -0.0026  0.4129
  301MOL0     C41404   7.196   4.186   1.737  0.3038  0.1185 -0.7804
  301MOL0     C41405   7.294   4.087   1.727 -0.1680 -0.5944 -0.2412
  301MOL0     C41406   7.358   4.026   1.835  0.2072 -0.3314 -0.5447
  301MOL0     C41407   7.320   4.068   1.963  0.4019  0.3931 -0.0072
  301MOL0     O41408   7.351   4.008   2.087  0.2173 -0.5230  0.8976
  301MOL0     C41409   7.405   3.880   2.101 -0.3769  0.5499 -0.2362
  301MOL0     C41410   7.379   3.819   2.245 -0.5682 -0.0221 -0.6119
  301MOL0     C41411   7.257   3.725   2.241 -0.4477 -0.3251 -0.1491
  301MOL0     C41412   7.136   3.815   2.236  0.0247 -0.7532 -0.1593
  301MOL0     C41413   7.016   3.729   2.258  0.0067  0.2688 -0.1689
  301MOL0     C41414   6.902   3.818   2.243 -0.7829  0.8948  0.6492
  301MOL0     C41415   6.775   3.742   2.263  0.4914 -0.0692  0.0555
  301MOL0     C41416   6.760   3.643   2.140  0.5128 -0.2982 -0.3367
  301MOL0     N41417   6.630   3.638   2.085  0.0502 -0.0108 -0.4457
  301MOL0     C41418   6.519   3.600   2.152 -0.2534  0.6620 -1.2902
  301MOL0     C41419   6.417   3.602   2.061  0.1994  0.2762 -0.5569
  301MOL0     C41420   6.269   3.575   2.067  0.7398  0.2554 -0.3337
  301MOL0     C41421   6.216   3.469   1.970 -0.0677 -0.3060 -0.1848
  301MOL0     C41422   6.172   3.522   1.830  0.3033  0.4248  0.1189
  301MOL0     C41423   6.123   3.407   1.744 -0.3318  0.1792  0.4841
  301MOL0     O41424   5.988   3.377   1.772  0.7981 -0.4890 -0.9896
  301MOL0     C41425   5.934   3.255   1.715 -0.4108 -0.4502 -0.2684
  301MOL0     C41426   5.793   3.232   1.748 -0.0602  0.9233 -0.2474
  301MOL0     C41427   5.735   3.106   1.724 -0.0734  0.3893  0.0521
  301MOL0     C41428   5.613   3.077   1.801 -0.1173  0.4924  0.4258
  301MOL0     C41429   5.793   3.022   1.626 -0.6362 -0.7028 -0.6482
  301MOL0     C41430   5.714   2.903   1.567 -0.5565 -0.3647 -0.5442
  301MOL0     O41431   5.756   2.868   1.445 -0.4891  0.1912 -0.3906
  301MOL0     C41432   5.747   2.736   1.418  0.1872  0.1364  0.3697
  301MOL0     C41433   5.822   2.642   1.490 -0.7328 -0.7527  0.2068
  301MOL0     C41434   5.802   2.505   1.463 -0.9187  0.4587 -0.3441
  301MOL0     C41435   5.719   2.461   1.361  1.0317 -0.8719  0.4450
  301MOL0     O41436   5.709   2.328   1.346 -0.4122  0.6056  0.2508
  301MOL0     C41437   5.596   2.286   1.261 -0.2654 -0.9961 -0.3662
  301MOL0     C41438   5.577   2.138   1.244 -0.5925 -0.7697 -0.5573
  301MOL0     C41439   5.717   2.083   1.235 -0.0781  1.0327 -0.4541
  301MOL0     C41440   5.715   1.937   1.189  1.0931 -1.3297  0.0455
  301MOL0     C41441   5.860   1.879   1.167 -0.5169  0.7997 -0.2078
  301MOL0     C41442   5.847   1.726   1.145 -1.0970  0.3746 -0.4272
  301MOL0     C41443   5.976   1.654   1.120 -0.3906  0.1835 -0.3227
  301MOL0     C41444   5.953   1.511   1.107 -0.4598  0.5632  0.3363
  301MOL0    Cl41445   5.971   1.438   1.264  0.2704 -0.6979  0.4141
  301MOL0     C41446   5.649   2.556   1.295  0.2097 -0.2898  0.4832
  301MOL0     C41447   5.663   2.694   1.317  0.2350 -0.1026 -0.1659
  301MOL0     O41448   5.629   2.844   1.630 -0.6272 -0.3187  0.1405
  301MOL0     C41449   5.918   3.052   1.577 -0.6041  0.2791 -0.6274
  301MOL0     C41450   5.986   3.169   1.626  0.2245  0.6520  0.6168
  301MOL0     N41451   6.463   3.657   1.943 -0.4167  0.5669 -0.9211
  301MOL0     N41452   6.596   3.688   1.960  0.6157  0.6685 -0.5685
  301MOL0     C41453   7.237   4.173   1.982  1.1481  0.3135 -0.0800
  301MOL0     C41454   7.164   4.229   1.864  0.0111 -0.3846 -1.6317
  301MOL0     C41455   7.093   4.302   1.408 -0.1568 -0.5149  0.1924
  301MOL0     C41456   7.125   4.266   1.273 -0.2646 -0.9049  0.5179
  301MOL0     C41457   7.029   4.271   1.172 -0.5738  0.2811  0.2016
  301MOL0     C41458   6.899   4.314   1.191  0.1302  1.7485  0.1145
  301MOL0     O41459   6.818   4.339   1.087 -0.2597  0.0659  1.0586
  301MOL0     C41460   6.713   4.247   1.069 -0.5784 -0.1027  0.0886
  301MOL0     C41461   6.659   4.264   0.929  0.0137 -0.3588  0.5131
  301MOL0     C41462   6.762   4.205   0.828  0.0292  0.8689  0.6259
  301MOL0     C41463   6.689   4.173   0.701  0.1098 -0.1460  0.5626
  301MOL0     C41464   6.783   4.119   0.597 -0.5230  0.4514 -0.4255
  301MOL0     C41465   6.865   4.069   0.513  0.9268 -0.4815 -1.3817
  301MOL0     C41466   6.864   4.348   1.323 -0.1706  0.1671  0.4075
  301MOL0     C41467   6.956   4.346   1.430 -0.5818 -1.2945 -0.0965
  301MOL0     C41468   6.897   4.419   1.545  0.4220 -0.0529 -0.1962
  301MOL0     H41469   7.325   4.047   1.631  0.6331  0.1203 -0.2928
  301MOL0     H41470   7.424   3.942   1.815  1.4591  0.0467  1.6485
  301MOL0     H41471   7.514   3.886   2.098 -0.3157 -0.5504 -0.7593
  301MOL0     H41472   7.376   3.810   2.021 -0.6965  2.4888 -1.8911
  301MOL0     H41473   7.463   3.763   2.286 -1.8438 -0.8225  1.0309
  301MOL0     H41474   7.367   3.901   2.315  1.2458  0.4140 -0.7822
  301MOL0     H41475   7.253   3.659   2.154  1.3110 -1.4229  0.5409
  301MOL0     H41476   7.248   3.661   2.329 -0.7793  0.3139  0.2876
  301MOL0     H41477   7.119   3.897   2.306 -1.8388  0.5897 -2.0411
  301MOL0     H41478   7.127   3.851   2.132 -0.1963 -1.5629 -0.4259
  301MOL0     H41479   7.025   3.696   2.362 -0.9459 -4.9801 -1.5012
  301MOL0     H41480   7.023   3.645   2.189  0.5405  2.3780 -2.8454
  301MOL0     H41481   6.916   3.886   2.328 -5.0210  0.5205  1.8654
  301MOL0     H41482   6.897   3.875   2.150 -1.8174  0.7881  0.6283
  301MOL0     H41483   6.699   3.821   2.264  1.3637  0.8015  1.6466
  301MOL0     H41484   6.769   3.672   2.347 -1.8365 -0.7964 -0.6515
  301MOL0     H41485   6.830   3.676   2.063  1.3893 -0.6313  0.2945
  301MOL0     H41486   6.779   3.547   2.188  1.0866  0.2319  0.5379
  301MOL0     H41487   6.523   3.578   2.258  1.6489 -0.9181 -1.6502
  301MOL0     H41488   6.220   3.673   2.066 -1.8529 -0.9486 -1.4359
  301MOL0     H41489   6.250   3.530   2.164  0.4970  0.2633 -0.3752
  301MOL0     H41490   6.295   3.392   1.969  0.9737  0.5347  3.0370
  301MOL0     H41491   6.127   3.421   2.010  0.3524 -2.1469 -1.3304
  301MOL0     H41492   6.099   3.599   1.856 -0.5686 -1.4794  4.0445
  301MOL0     H41493   6.250   3.575   1.776 -2.0133  2.7139 -1.2346
  301MOL0     H41494   6.148   3.442   1.643 -1.1643  1.6534  0.7752
  301MOL0     H41495   6.189   3.324   1.772 -1.0084 -0.2592  0.8025
  301MOL0     H41496   5.748   3.300   1.820  0.0747 -0.8811  1.6444
  301MOL0     H41497   5.611   2.985   1.859  0.0132  0.1808 -0.0624
  301MOL0     H41498   5.529   3.071   1.732 -1.4899 -2.0669  2.1598
  301MOL0     H41499   5.589   3.162   1.866  1.7455  2.2038 -0.9789
  301MOL0     H41500   5.894   2.681   1.561  2.1035 -1.1567 -2.3066
  301MOL0     H41501   5.855   2.430   1.521 -0.9538  0.8145  0.1525
  301MOL0     H41502   5.504   2.335   1.295 -0.8838  1.8490 -5.2043
  301MOL0     H41503   5.627   2.318   1.161  1.9216 -3.0591 -0.4635
  301MOL0     H41504   5.516   2.092   1.322  0.4395  0.2504  0.9100
  301MOL0     H41505   5.520   2.131   1.151 -2.7278  1.6281  0.4851
  301MOL0     H41506   5.779   2.081   1.326 -1.0154 -2.4323  0.2540
  301MOL0     H41507   5.765   2.139   1.155  0.5062 -1.4591 -1.9429
  301MOL0     H41508   5.658   1.940   1.096  0.3068  1.6970  0.5238
  301MOL0     H41509   5.656   1.877   1.260  1.5081 -1.1270  0.5702
  301MOL0     H41510   5.893   1.920   1.071  0.9801 -1.6358 -0.8204
  301MOL0     H41511   5.938   1.899   1.241  0.3449  1.8765 -1.3602
  301MOL0     H41512   5.784   1.706   1.057 -1.5770  0.4315 -0.0945
  301MOL0     H41513   5.794   1.672   1.224 -0.2243  3.6414  2.5990
  301MOL0     H41514   6.043   1.658   1.206 -0.2300  2.0261 -0.4899
  301MOL0     H41515   6.019   1.712   1.038 -1.4669  1.4376 -0.0389
  301MOL0     H41516   6.026   1.476   1.033 -1.5647  1.1778 -1.1091
  301MOL0     H41517   5.852   1.496   1.067 -0.5723  1.1882  0.3754
  301MOL0     H41518   5.567   2.531   1.228  2.1252  0.6889 -2.3849
  301MOL0     H41519   5.587   2.760   1.276 -0.4517  1.1453  2.8420
  301MOL0     H41520   5.958   2.997   1.493  0.6388 -1.7130  1.1614
  301MOL0     H41521   6.087   3.172   1.585 -0.6971  0.5926 -1.7781
  301MOL0     H41522   7.200   4.210   2.077 -2.1855 -0.4883 -0.9148
  301MOL0     H41523   7.099   4.315   1.878  1.4639  0.5025  0.1092
  301MOL0     H41524   7.225   4.236   1.243  0.7164  1.0829  1.6279
  301MOL0     H41525   7.057   4.242   1.071 -1.2148 -2.7450  0.7704
  301MOL0     H41526   6.738   4.141   1.084 -0.5266 -0.1148 -0.0806
  301MOL0     H41527   6.630   4.271   1.136 -0.0907  2.5252 -0.1678
  301MOL0     H41528   6.633   4.366   0.900 -3.3137 -1.1242  0.3794
  301MOL0     H41529   6.573   4.196   0.920  0.8687 -1.2388 -1.9113
  301MOL0     H41530   6.841   4.281   0.819 -0.2481  1.6172  3.5301
  301MOL0     H41531   6.805   4.110   0.860 -2.0014 -0.0240  0.8373
  301MOL0     H41532   6.632   4.260   0.668 -1.0957 -1.3163 -0.5962
  301MOL0     H41533   6.614   4.099   0.730 -2.0199  1.7525  0.1645
  301MOL0     H41534   6.944   4.034   0.450  2.5289 -2.4832  1.5213
  301MOL0     H41535   6.761   4.378   1.334 -0.0281  1.1389 -0.6999
  301MOL0     H41536   6.956   4.421   1.637  0.7348  0.3900 -0.4069
  301MOL0     H41537   6.885   4.523   1.515 -5.3481  0.0465  1.2117
  301MOL0     H41538   6.795   4.389   1.570  0.2736  1.4338  1.1272
  302MOL0     O41539   3.930   4.106   8.464  0.0579 -0.4976  0.0879
  302MOL0     C41540   3.862   4.196   8.414 -0.3670  1.4124 -0.4546
  302MOL0     O41541   3.914   4.320   8.373  0.3098  0.1243 -0.5318
  302MOL0     C41542   4.043   4.356   8.405 -0.2207  1.1805 -0.7478
  302MOL0     C41543   4.065   4.426   8.522 -0.6293 -0.0510 -0.3276
  302MOL0     C41544   4.195   4.453   8.550 -0.1210 -0.7207 -0.4841
  302MOL0     C41545   4.308   4.426   8.469  0.6522 -1.0065 -0.0359
  302MOL0     O41546   4.442   4.444   8.502 -0.6176 -0.5256  0.5120
  302MOL0     C41547   4.477   4.572   8.555 -0.2280  0.0583 -0.1795
  302MOL0     C41548   4.457   4.686   8.451 -0.4119  0.6680 -0.8055
  302MOL0     C41549   4.520   4.822   8.495 -1.2615 -0.2472 -0.2089
  302MOL0     C41550   4.466   4.877   8.634 -0.1824  1.5147 -0.7546
  302MOL0     C41551   4.494   5.029   8.654  0.4235  0.9145  0.3373
  302MOL0     C41552   4.640   5.065   8.697  0.5566 -0.1653 -0.1403
  302MOL0     C41553   4.659   5.208   8.710  0.5262  0.0853 -0.8460
  302MOL0     C41554   4.810   5.249   8.741  0.3409 -0.6993  0.0398
  302MOL0     N41555   4.816   5.392   8.777 -0.3477  0.1569 -0.1940
  302MOL0     C41556   4.710   5.478   8.778 -0.9392 -0.0908  0.0076
  302MOL0     C41557   4.763   5.587   8.839  0.3422  0.7198  0.2340
  302MOL0     C41558   4.681   5.705   8.857 -0.4806 -0.6673 -0.3899
  302MOL0     C41559   4.664   5.740   9.004  0.0255  0.4348  0.2534
  302MOL0     C41560   4.582   5.865   9.025  0.6867  0.5998 -0.0323
  302MOL0     C41561   4.657   5.999   9.036  0.2405  0.2084 -0.3463
  302MOL0     O41562   4.760   5.978   9.142 -0.1296  0.6485  0.2158
  302MOL0     C41563   4.891   5.963   9.109 -0.1309 -0.1378  0.6303
  302MOL0     C41564   4.973   5.916   9.217  0.7596  0.4004  0.3171
  302MOL0     C41565   5.109   5.897   9.197  0.2160  0.2875 -0.6407
  302MOL0     C41566   5.162   5.813   9.318  0.5297 -0.5808  0.9403
  302MOL0     C41567   5.179   5.929   9.073  0.1949  1.0136  0.1064
  302MOL0     C41568   5.324   5.914   9.056 -1.0180 -0.1676  0.1840
  302MOL0     O41569   5.372   5.921   8.929  0.4150  0.8874 -0.4053
  302MOL0     C41570   5.488   5.982   8.895 -0.5797  0.0733 -0.0030
  302MOL0     C41571   5.529   5.961   8.761 -0.9107  0.1613  0.1961
  302MOL0     C41572   5.635   6.033   8.707  0.3122  0.8372 -0.9520
  302MOL0     C41573   5.705   6.124   8.784 -0.8640  0.5859 -0.0565
  302MOL0     O41574   5.788   6.205   8.714 -0.7945 -0.3391  0.0603
  302MOL0     C41575   5.924   6.205   8.763  0.6401 -0.2380  0.3686
  302MOL0     C41576   6.032   6.250   8.667  0.1192  1.3037  0.0177
  302MOL0     C41577   5.988   6.371   8.588 -0.6551 -0.7444 -0.3630
  302MOL0     C41578   6.092   6.387   8.469  0.0272  0.5491  0.4338
  302MOL0     C41579   6.069   6.513   8.393  1.0882 -0.0910  0.2382
  302MOL0     C41580   6.118   6.497   8.244  0.7280  0.0517  0.0418
  302MOL0     C41581   6.061   6.612   8.162  0.2905  0.0770 -1.3153
  302MOL0     C41582   6.156   6.639   8.052 -0.9227 -0.1161 -0.3777
  302MOL0    Cl41583   6.080   6.762   7.945  0.0827 -0.2310 -0.2594
  302MOL0     C41584   5.670   6.141   8.919 -0.3142  0.7430  0.2881
  302MOL0     C41585   5.573   6.066   8.974 -0.2367 -0.3454 -1.0046
  302MOL0     O41586   5.387   5.928   9.157  0.1135  0.6647 -0.6669
  302MOL0     C41587   5.096   5.978   8.968 -0.3357 -0.2865 -0.4107
  302MOL0     C41588   4.961   5.994   8.990  0.0770  0.0513 -0.4399
  302MOL0     N41589   4.898   5.566   8.871  0.3537  0.2120 -0.6488
  302MOL0     N41590   4.934   5.454   8.823  0.3309  0.6990 -0.4236
  302MOL0     C41591   4.280   4.350   8.358  0.1411 -0.0787  0.1211
  302MOL0     C41592   4.153   4.319   8.322  0.7666  1.2768  0.8488
  302MOL0     C41593   3.724   4.168   8.382 -0.1766  1.6809  0.5943
  302MOL0     C41594   3.697   4.042   8.325  1.0398 -0.5687 -0.3423
  302MOL0     C41595   3.575   4.007   8.288  0.9635  0.0287  0.5477
  302MOL0     C41596   3.469   4.087   8.313 -0.3204  0.6669 -0.2083
  302MOL0     O41597   3.348   4.043   8.254 -0.2556  0.1137 -0.0056
  302MOL0     C41598   3.238   4.125   8.253  0.5914  0.3958  0.1957
  302MOL0     C41599   3.161   4.116   8.383  0.9159  0.0477 -0.4626
  302MOL0     C41600   3.022   4.187   8.361 -0.6389 -0.5638  0.4509
  302MOL0     C41601   2.912   4.145   8.456 -0.0288 -1.7154  0.1085
  302MOL0     C41602   2.939   4.212   8.591 -0.1410 -0.1406 -0.3497
  302MOL0     C41603   2.945   4.254   8.702  0.3491  0.9694  0.3325
  302MOL0     C41604   3.483   4.207   8.389  0.2833 -0.2150  0.1531
  302MOL0     C41605   3.613   4.249   8.422 -0.2734  0.9487  0.6930
  302MOL0     C41606   3.632   4.379   8.494 -0.0109  0.0553  0.9069
  302MOL0     H41607   3.985   4.471   8.580  2.7632  0.9259  4.2001
  302MOL0     H41608   4.209   4.505   8.645  1.7179  1.2497 -1.7571
  302MOL0     H41609   4.575   4.570   8.604  0.3623  2.2445 -1.1642
  302MOL0     H41610   4.424   4.591   8.649  2.1817 -1.3214  1.5850
  302MOL0     H41611   4.504   4.659   8.356 -0.0110 -1.1752 -0.1116
  302MOL0     H41612   4.353   4.692   8.419 -0.3695 -1.7517 -1.5933
  302MOL0     H41613   4.628   4.813   8.513 -1.7855 -1.8053  2.9256
  302MOL0     H41614   4.496   4.895   8.417  0.0899  1.8987  1.2722
  302MOL0     H41615   4.363   4.849   8.657  0.2605  1.0660  0.7683
  302MOL0     H41616   4.509   4.821   8.717 -2.1037  1.5610  0.3056
  302MOL0     H41617   4.415   5.056   8.725 -1.4440  1.1185 -1.7148
  302MOL0     H41618   4.481   5.087   8.562  0.2873 -1.4264 -1.1878
  302MOL0     H41619   4.667   5.041   8.801  1.5004  0.5322 -0.2111
  302MOL0     H41620   4.711   5.010   8.635 -0.7462  0.2533 -2.0608
  302MOL0     H41621   4.593   5.251   8.786  2.3942  2.0661 -0.2196
  302MOL0     H41622   4.634   5.251   8.613 -2.9515 -0.6799 -0.4075
  302MOL0     H41623   4.840   5.199   8.833 -2.9421 -1.0417  1.0563
  302MOL0     H41624   4.879   5.226   8.659 -0.1755  2.4988 -1.4804
  302MOL0     H41625   4.612   5.466   8.733 -0.8423  3.6715 -1.5220
  302MOL0     H41626   4.587   5.697   8.802  0.8141  0.6692 -3.0274
  302MOL0     H41627   4.728   5.789   8.804 -0.2857 -3.4822 -5.2709
  302MOL0     H41628   4.608   5.658   9.050 -0.4134  0.1266 -0.8207
  302MOL0     H41629   4.762   5.737   9.053 -0.6267 -0.0077  1.5801
  302MOL0     H41630   4.512   5.876   8.942  1.7238 -1.7115 -1.2960
  302MOL0     H41631   4.525   5.845   9.117  3.2858  0.7596  1.7184
  302MOL0     H41632   4.686   6.019   8.933 -1.2601  3.7352 -0.2364
  302MOL0     H41633   4.594   6.081   9.071 -2.9659 -1.2186 -2.2789
  302MOL0     H41634   4.916   5.894   9.307 -2.5681  0.2734 -1.6853
  302MOL0     H41635   5.183   5.883   9.400 -0.5418 -0.4897  1.1498
  302MOL0     H41636   5.249   5.749   9.300 -0.2874 -1.4385 -0.0964
  302MOL0     H41637   5.086   5.739   9.345 -0.8097 -0.8001 -2.8039
  302MOL0     H41638   5.465   5.901   8.697 -0.8556  0.4394 -0.1241
  302MOL0     H41639   5.656   6.006   8.604 -0.4201 -0.4865 -0.7794
  302MOL0     H41640   5.930   6.263   8.855 -0.2442  0.6290 -0.0997
  302MOL0     H41641   5.953   6.100   8.780 -0.0036 -0.4916 -0.0458
  302MOL0     H41642   6.121   6.271   8.728  0.2792  0.4610  0.0799
  302MOL0     H41643   6.051   6.169   8.596 -2.6863  1.1581 -0.6583
  302MOL0     H41644   5.998   6.449   8.664 -1.0294 -3.3060  2.5235
  302MOL0     H41645   5.885   6.363   8.551 -0.9157  2.2474 -0.5564
  302MOL0     H41646   6.063   6.305   8.402 -0.8264 -1.4516  3.1033
  302MOL0     H41647   6.192   6.356   8.500 -0.8834  1.2118  4.6068
  302MOL0     H41648   5.963   6.538   8.406  1.2046  0.5030  0.0849
  302MOL0     H41649   6.126   6.594   8.440  0.5576 -1.2592  3.1117
  302MOL0     H41650   6.082   6.404   8.197  2.1678  1.4302 -4.3262
  302MOL0     H41651   6.227   6.491   8.237  0.8949 -1.6939  2.5458
  302MOL0     H41652   6.043   6.696   8.230 -1.2067  0.6454 -2.3618
  302MOL0     H41653   5.961   6.588   8.125 -0.2422  0.3435 -0.0888
  302MOL0     H41654   6.184   6.548   7.998  0.4317 -0.4239  0.7860
  302MOL0     H41655   6.252   6.680   8.084 -1.0241 -1.0775  1.3057
  302MOL0     H41656   5.721   6.216   8.978  0.6867 -1.5473  2.5668
  302MOL0     H41657   5.542   6.077   9.077 -1.1284 -4.6699 -0.6395
  302MOL0     H41658   5.133   6.020   8.874  0.4974  0.8699  0.4071
  302MOL0     H41659   4.906   6.042   8.909 -2.0651  0.3621  1.1109
  302MOL0     H41660   4.358   4.316   8.291 -0.3470  0.6017 -0.8164
  302MOL0     H41661   4.129   4.268   8.229 -1.6075  0.5421  1.7903
  302MOL0     H41662   3.772   3.969   8.296  1.0683 -0.8772  0.4982
  302MOL0     H41663   3.555   3.911   8.243  1.3899 -0.4711  1.3912
  302MOL0     H41664   3.258   4.229   8.225 -0.3631 -0.1091 -2.6312
  302MOL0     H41665   3.172   4.093   8.172 -0.6910  0.2042  1.2824
  302MOL0     H41666   3.211   4.165   8.467 -0.6444  1.9033 -0.5340
  302MOL0     H41667   3.134   4.012   8.406 -2.2427  0.9108  0.3288
  302MOL0     H41668   3.035   4.293   8.384 -1.6472 -0.7861  2.1873
  302MOL0     H41669   2.981   4.181   8.260 -1.7174  3.1779  0.5164
  302MOL0     H41670   2.896   4.037   8.465 -1.1480 -1.5778 -0.1070
  302MOL0     H41671   2.821   4.191   8.417 -1.1275 -2.4123  1.7323
  302MOL0     H41672   2.951   4.281   8.806 -1.3225  1.2126  0.3884
  302MOL0     H41673   3.388   4.251   8.418  1.1014  0.2137  2.3903
  302MOL0     H41674   3.698   4.452   8.446  0.2959  0.5148  1.9867
  302MOL0     H41675   3.535   4.428   8.502  1.1222  2.3582  1.3714
  302MOL0     H41676   3.683   4.360   8.589  1.4915  0.4058  0.2100
  303MOL0     O41677   8.122   3.425   2.859 -0.8422 -0.0458  0.1295
  303MOL0     C41678   8.241   3.418   2.885 -0.5481  0.7672 -0.2892
  303MOL0     O41679   8.343   3.333   2.827 -0.5743 -0.6412 -0.1462
  303MOL0     C41680   8.305   3.277   2.704 -0.4242 -0.5663  0.0675
  303MOL0     C41681   8.301   3.136   2.697 -0.4702  0.3421 -0.7946
  303MOL0     C41682   8.296   3.083   2.566  0.2379 -0.4752  0.3923
  303MOL0     C41683   8.282   3.171   2.453  0.4902 -0.0200 -0.7519
  303MOL0     O41684   8.255   3.122   2.329 -0.1765 -0.0699  0.0903
  303MOL0     C41685   8.124   3.057   2.330 -0.2861  1.1108 -0.2230
  303MOL0     C41686   8.008   3.154   2.345 -0.3128 -1.0914 -1.4808
  303MOL0     C41687   7.885   3.092   2.277 -0.1623 -0.4171 -0.5787
  303MOL0     C41688   7.871   3.160   2.141  0.4261  0.2419 -0.4154
  303MOL0     C41689   7.748   3.112   2.068  0.6826 -1.0522  0.1201
  303MOL0     C41690   7.753   3.183   1.925  0.4147 -0.1145 -0.3695
  303MOL0     C41691   7.619   3.177   1.844 -0.1901  0.0902 -0.9161
  303MOL0     C41692   7.552   3.034   1.841  0.3796 -0.1056  0.4595
  303MOL0     N41693   7.631   2.953   1.747 -0.0137  0.1599 -0.8435
  303MOL0     C41694   7.711   2.852   1.794 -0.1690 -0.1694  0.0959
  303MOL0     C41695   7.770   2.808   1.679  0.1694  0.0817  1.2525
  303MOL0     C41696   7.888   2.710   1.658 -0.6494 -1.2988 -0.1804
  303MOL0     C41697   8.023   2.781   1.628 -0.2714  0.1484 -0.5688
  303MOL0     C41698   8.067   2.900   1.715 -0.4059  0.5690  0.6888
  303MOL0     C41699   8.103   2.848   1.856 -0.2924  0.2590  0.0661
  303MOL0     O41700   8.233   2.788   1.840  0.6146 -0.1744 -0.4787
  303MOL0     C41701   8.283   2.762   1.961  0.3657  0.0633  0.2359
  303MOL0     C41702   8.318   2.624   1.985 -0.4747  0.0620 -0.2993
  303MOL0     C41703   8.387   2.589   2.099 -0.6883 -0.4378 -0.0059
  303MOL0     C41704   8.404   2.443   2.103  0.9781  0.6424 -0.2485
  303MOL0     C41705   8.436   2.691   2.192  1.0676  0.6439  0.0584
  303MOL0     C41706   8.505   2.666   2.321 -0.4024 -0.0228 -0.0703
  303MOL0     O41707   8.529   2.781   2.399  0.5911 -0.0767  0.2608
  303MOL0     C41708   8.619   2.771   2.498  0.1355  0.1147 -0.1817
  303MOL0     C41709   8.750   2.748   2.473 -0.1241  0.5790  0.8332
  303MOL0     C41710   8.840   2.727   2.578  0.0814 -0.6900  0.0405
  303MOL0     C41711   8.799   2.722   2.709 -0.5648 -0.0383  0.2781
  303MOL0     O41712   8.891   2.697   2.820 -0.0717  0.1218  0.3378
  303MOL0     C41713   8.835   2.713   2.957 -0.4360  0.7547 -0.7701
  303MOL0     C41714   8.937   2.689   3.059 -0.2247  0.6939  0.1906
  303MOL0     C41715   8.916   2.720   3.202  0.1720  0.0792 -0.6613
  303MOL0     C41716   8.898   2.870   3.232 -0.5546  0.4291  0.3581
  303MOL0     C41717   8.939   2.907   3.374  0.2704  0.6916  0.0315
  303MOL0     C41718   8.952   3.051   3.384  0.4694 -0.1512 -0.4320
  303MOL0     C41719   9.001   3.089   3.528 -0.3240 -0.1865  0.0962
  303MOL0     C41720   8.919   3.043   3.640  1.0997 -0.4234 -0.3884
  303MOL0    Cl41721   8.944   3.162   3.778 -0.1550  0.2896  0.1553
  303MOL0     C41722   8.658   2.731   2.729 -0.5524  0.3008 -0.0529
  303MOL0     C41723   8.569   2.767   2.631 -0.2427 -0.5633  0.2152
  303MOL0     O41724   8.547   2.548   2.351 -0.1413 -0.9555  0.1194
  303MOL0     C41725   8.393   2.826   2.163  0.3091 -0.1438 -0.5746
  303MOL0     C41726   8.313   2.861   2.055 -0.2511  0.3971 -0.6893
  303MOL0     N41727   7.717   2.880   1.577  0.2814 -0.3041  0.2965
  303MOL0     N41728   7.642   2.973   1.613  0.9504  0.4983 -0.1643
  303MOL0     C41729   8.272   3.306   2.466 -0.3189  0.0275 -0.6280
  303MOL0     C41730   8.297   3.362   2.585  0.8907  1.2930 -0.6379
  303MOL0     C41731   8.289   3.500   2.991  0.0527  0.2193 -0.8528
  303MOL0     C41732   8.359   3.450   3.102  0.8537  0.0402 -0.0334
  303MOL0     C41733   8.388   3.541   3.214  0.5953 -0.1848  0.0723
  303MOL0     C41734   8.353   3.671   3.208 -0.5882  0.2271  0.3819
  303MOL0     O41735   8.383   3.746   3.314  0.4787 -0.0303  0.1368
  303MOL0     C41736   8.374   3.890   3.327 -0.1921  0.1366  0.6149
  303MOL0     C41737   8.429   3.951   3.456 -0.9183 -0.4060 -0.1128
  303MOL0     C41738   8.329   3.979   3.561  0.1788 -0.1134 -0.9391
  303MOL0     C41739   8.347   4.125   3.606  0.4632 -0.0143  0.0615
  303MOL0     C41740   8.231   4.163   3.693 -0.4938  0.3610  0.0611
  303MOL0     C41741   8.125   4.181   3.748 -0.1177 -0.1489  1.2188
  303MOL0     C41742   8.285   3.716   3.093 -0.2673 -0.2813  1.2652
  303MOL0     C41743   8.250   3.633   2.984 -0.2340  0.6754  0.5419
  303MOL0     C41744   8.189   3.705   2.866  0.3030  0.7864  0.6015
  303MOL0     H41745   8.304   3.079   2.789 -3.3594 -0.3087 -0.9972
  303MOL0     H41746   8.296   2.975   2.558  2.7323 -0.4144 -2.0088
  303MOL0     H41747   8.111   2.989   2.414 -0.6672 -0.5071 -1.5436
  303MOL0     H41748   8.114   2.980   2.253 -0.1555 -1.4824  2.1791
  303MOL0     H41749   7.998   3.179   2.452  1.2439  0.7307 -1.6945
  303MOL0     H41750   8.032   3.253   2.306  0.1571  0.0851  1.4635
  303MOL0     H41751   7.892   2.985   2.255  0.4386 -0.5308  0.1044
  303MOL0     H41752   7.796   3.110   2.338  0.6059 -1.6102  0.9820
  303MOL0     H41753   7.860   3.268   2.146  0.4252  0.3682 -2.4374
  303MOL0     H41754   7.949   3.140   2.066 -1.0357 -1.3629 -1.6044
  303MOL0     H41755   7.656   3.131   2.124 -0.0078 -1.4549 -0.8376
  303MOL0     H41756   7.758   3.005   2.048  1.8194 -0.7065 -1.2998
  303MOL0     H41757   7.790   3.285   1.917  1.2130 -0.5327 -2.7832
  303MOL0     H41758   7.833   3.133   1.871  0.4825 -0.2502 -0.1459
  303MOL0     H41759   7.650   3.209   1.744  0.3526 -0.3398 -0.8882
  303MOL0     H41760   7.541   3.238   1.891  1.5254  0.5216  1.4905
  303MOL0     H41761   7.541   2.976   1.933 -3.2261  0.7612  0.7512
  303MOL0     H41762   7.448   3.035   1.807 -0.4669 -5.0484  2.0179
  303MOL0     H41763   7.748   2.828   1.893  1.7434  1.4317 -0.1843
  303MOL0     H41764   7.854   2.647   1.576  0.9029 -2.1342 -0.2233
  303MOL0     H41765   7.893   2.654   1.752 -0.0359 -1.2351 -0.1647
  303MOL0     H41766   8.101   2.704   1.626  0.0722  0.2832  2.6615
  303MOL0     H41767   8.018   2.827   1.529  0.9723  3.4365  0.7440
  303MOL0     H41768   8.151   2.947   1.665  1.3276  0.1510  3.0409
  303MOL0     H41769   7.974   2.957   1.730 -1.1523 -0.5654  0.4991
  303MOL0     H41770   8.104   2.934   1.923 -1.5790  2.7203 -2.8479
  303MOL0     H41771   8.040   2.767   1.894  1.3861 -1.3194 -0.3516
  303MOL0     H41772   8.293   2.555   1.906  2.0466 -0.7838 -0.4305
  303MOL0     H41773   8.388   2.404   2.204  0.7931 -1.7891 -1.1700
  303MOL0     H41774   8.511   2.425   2.090  1.2633 -0.6643  2.9657
  303MOL0     H41775   8.347   2.376   2.039  0.1598  2.6674 -1.7595
  303MOL0     H41776   8.782   2.755   2.369  0.0889 -4.1029  0.3869
  303MOL0     H41777   8.944   2.711   2.553 -0.5251 -1.0620 -2.5114
  303MOL0     H41778   8.789   2.812   2.967 -0.9156  0.3109  2.4325
  303MOL0     H41779   8.760   2.634   2.962  0.4856 -0.1409 -0.8671
  303MOL0     H41780   8.965   2.583   3.059  2.5004  1.3283  1.2653
  303MOL0     H41781   9.022   2.750   3.026  0.9794 -1.0775 -0.1207
  303MOL0     H41782   9.006   2.685   3.254 -0.9467 -1.0049  0.6240
  303MOL0     H41783   8.831   2.662   3.240  0.7898 -0.4474 -0.0400
  303MOL0     H41784   8.794   2.899   3.216 -1.0399 -1.1240  0.5278
  303MOL0     H41785   8.966   2.917   3.160  1.0431 -0.5866  1.1453
  303MOL0     H41786   8.869   2.848   3.433  1.0542 -2.1536 -1.6297
  303MOL0     H41787   9.038   2.863   3.391  1.0792  0.9990 -3.1174
  303MOL0     H41788   8.855   3.098   3.368 -0.7485 -0.7783  3.8403
  303MOL0     H41789   9.035   3.064   3.315 -0.5345 -3.3456 -2.4638
  303MOL0     H41790   8.998   3.198   3.525 -1.9904 -0.1816  0.9974
  303MOL0     H41791   9.101   3.051   3.551 -0.3584 -1.1462 -1.2451
  303MOL0     H41792   8.936   2.944   3.684  0.9440 -0.0634  0.5124
  303MOL0     H41793   8.811   3.058   3.626  0.9838  2.3742  2.3915
  303MOL0     H41794   8.612   2.726   2.828 -2.6219 -0.0790 -0.9760
  303MOL0     H41795   8.472   2.809   2.656 -0.0604 -0.0337  0.0553
  303MOL0     H41796   8.421   2.902   2.235 -1.7801  0.8347 -0.7138
  303MOL0     H41797   8.282   2.963   2.033 -2.3572 -0.0132  0.0710
  303MOL0     H41798   8.276   3.361   2.373 -1.7874 -1.1357 -1.4277
  303MOL0     H41799   8.314   3.469   2.583  1.3340  1.2156 -1.5465
  303MOL0     H41800   8.384   3.345   3.092 -1.6150 -0.6629  0.4183
  303MOL0     H41801   8.453   3.505   3.293  1.0866  3.6706  1.6337
  303MOL0     H41802   8.433   3.924   3.241  1.9893 -2.2137  1.0670
  303MOL0     H41803   8.272   3.929   3.318 -0.3939 -0.8404 -2.8822
  303MOL0     H41804   8.490   4.037   3.429 -2.5687  0.7139 -0.4473
  303MOL0     H41805   8.493   3.875   3.501 -0.7527  0.2194  0.7106
  303MOL0     H41806   8.229   3.960   3.521  0.7166  0.9544 -2.9550
  303MOL0     H41807   8.346   3.921   3.652  0.0688  0.1410 -0.7537
  303MOL0     H41808   8.347   4.199   3.525 -1.4993  2.5739  2.2277
  303MOL0     H41809   8.441   4.137   3.659  1.2423 -1.0693 -1.0273
  303MOL0     H41810   8.031   4.186   3.799 -0.0173  0.1999  1.3732
  303MOL0     H41811   8.253   3.819   3.082  0.9652 -0.0066 -0.0998
  303MOL0     H41812   8.151   3.801   2.904 -0.5918  1.6091 -2.1394
  303MOL0     H41813   8.272   3.721   2.797 -0.1783 -0.6439 -0.3298
  303MOL0     H41814   8.100   3.657   2.826  2.5918 -4.4563  1.0308
  304MOL0     O41815   5.813   2.560   4.389  0.5008 -0.1776 -0.0751
  304MOL0     C41816   5.886   2.629   4.453 -0.1827  0.2118 -0.6920
  304MOL0     O41817   6.008   2.583   4.496  0.5597 -0.1408 -0.8689
  304MOL0     C41818   6.038   2.452   4.489  0.1333  0.1708 -0.3096
  304MOL0     C41819   5.980   2.337   4.432  0.4303  0.6237 -0.3281
  304MOL0     C41820   6.023   2.210   4.472 -0.9186  0.3069  0.6258
  304MOL0     C41821   6.144   2.183   4.543  0.1620  0.2106 -0.1692
  304MOL0     O41822   6.180   2.053   4.564 -0.0693 -0.2077  0.2727
  304MOL0     C41823   6.319   2.014   4.551  0.1523 -0.4572 -0.1340
  304MOL0     C41824   6.319   1.859   4.567 -0.6781 -0.1530 -0.5877
  304MOL0     C41825   6.469   1.810   4.548 -0.3519 -0.6516  0.1970
  304MOL0     C41826   6.480   1.661   4.522 -0.1145 -0.7959  0.9677
  304MOL0     C41827   6.607   1.622   4.449 -0.0455 -0.3613 -0.5267
  304MOL0     C41828   6.741   1.640   4.528  1.8947 -0.1919  0.6332
  304MOL0     C41829   6.739   1.557   4.656  0.2866  1.3130  0.5832
  304MOL0     C41830   6.868   1.581   4.737 -0.7513  0.4117  1.7535
  304MOL0     N41831   7.002   1.545   4.674 -0.3332  1.2034  0.3861
  304MOL0     C41832   7.069   1.421   4.666  0.1913  0.6549  0.1737
  304MOL0     C41833   7.175   1.439   4.594  0.0457  0.2554 -0.7898
  304MOL0     C41834   7.257   1.329   4.541  0.7630 -0.4202 -0.9343
  304MOL0     C41835   7.368   1.324   4.647  0.3189  0.9024 -0.1433
  304MOL0     C41836   7.455   1.207   4.606 -0.3445 -0.0028 -0.1309
  304MOL0     C41837   7.568   1.162   4.696 -0.5640 -0.6462  0.6957
  304MOL0     O41838   7.653   1.288   4.706 -0.2295 -0.2950  0.6006
  304MOL0     C41839   7.791   1.260   4.706  0.4586 -0.1663  0.6327
  304MOL0     C41840   7.880   1.363   4.673  0.1163 -0.4812 -1.0552
  304MOL0     C41841   8.021   1.350   4.681  0.5570  0.9678 -1.6718
  304MOL0     C41842   8.100   1.483   4.649  0.5513 -0.9657 -0.1806
  304MOL0     C41843   8.088   1.232   4.722 -0.1037 -0.1347  0.3659
  304MOL0     C41844   8.240   1.210   4.710  0.4395  1.4271 -0.3838
  304MOL0     O41845   8.270   1.079   4.764  0.4145  0.3848 -0.0778
  304MOL0     C41846   8.399   1.031   4.766 -0.1271  0.5083 -1.1648
  304MOL0     C41847   8.429   0.893   4.743 -0.6063  0.1050 -0.2031
  304MOL0     C41848   8.566   0.850   4.738 -0.7980  0.0359 -0.0295
  304MOL0     C41849   8.672   0.942   4.774 -0.3877 -0.0643 -0.4538
  304MOL0     O41850   8.799   0.901   4.801  0.3339 -0.1480 -0.6402
  304MOL0     C41851   8.811   0.765   4.847 -0.6781 -0.6049  0.0313
  304MOL0     C41852   8.957   0.737   4.889 -1.6066 -0.1688 -0.2279
  304MOL0     C41853   9.003   0.814   5.020  0.1635 -0.5047  0.4573
  304MOL0     C41854   9.044   0.725   5.142  0.6089 -0.2357 -0.0387
  304MOL0     C41855   9.176   0.763   5.199  0.2589 -1.2436  0.1938
  304MOL0     C41856   9.220   0.652   5.299  0.2449  0.2317 -0.1146
  304MOL0     C41857   9.348   0.683   5.371  0.0358 -0.4866  1.1282
  304MOL0     C41858   9.348   0.819   5.445  0.2692  0.6334  1.0308
  304MOL0    Cl41859   9.197   0.856   5.526  0.4665 -0.3610 -0.2586
  304MOL0     C41860   8.639   1.078   4.801 -0.1155  1.1355 -0.3267
  304MOL0     C41861   8.508   1.119   4.792 -0.1040  0.0767 -0.3796
  304MOL0     O41862   8.322   1.292   4.674  0.2944 -0.0099 -0.3711
  304MOL0     C41863   7.996   1.125   4.751 -0.0284 -0.3250 -0.2690
  304MOL0     C41864   7.862   1.143   4.743 -0.2681 -0.4130  0.9130
  304MOL0     N41865   7.177   1.573   4.548 -0.4083  0.2082 -0.1121
  304MOL0     N41866   7.072   1.631   4.600 -0.8256 -0.1032 -0.4492
  304MOL0     C41867   6.214   2.294   4.587 -0.4411  0.1122 -0.3355
  304MOL0     C41868   6.161   2.419   4.555 -0.4328  0.2342 -0.3148
  304MOL0     C41869   5.875   2.778   4.457  1.2811 -0.3694 -0.6576
  304MOL0     C41870   5.897   2.841   4.588 -0.6850  0.1884  0.6322
  304MOL0     C41871   5.895   2.987   4.593  0.4856  0.1534 -0.2845
  304MOL0     C41872   5.857   3.063   4.482 -0.2376  1.2250  0.0156
  304MOL0     O41873   5.817   3.194   4.493  0.6156 -0.4342 -0.8061
  304MOL0     C41874   5.752   3.278   4.390 -0.3272 -0.3039  0.1906
  304MOL0     C41875   5.738   3.426   4.438  0.1067 -0.0504 -0.0371
  304MOL0     C41876   5.859   3.505   4.396 -0.3671 -0.5120  0.4752
  304MOL0     C41877   5.890   3.503   4.246 -0.0091 -0.0804 -0.7876
  304MOL0     C41878   5.968   3.629   4.213  0.2816  0.7695 -0.2965
  304MOL0     C41879   6.040   3.720   4.171 -0.0261  0.3007 -0.5616
  304MOL0     C41880   5.845   2.990   4.365  0.9012 -0.8716  0.8647
  304MOL0     C41881   5.852   2.851   4.348 -0.1319 -0.4510  0.2612
  304MOL0     C41882   5.813   2.795   4.211 -0.5060  0.4334 -0.0039
  304MOL0     H41883   5.883   2.341   4.382 -0.1794  2.1954  0.8817
  304MOL0     H41884   5.986   2.115   4.434  2.0223  0.2878 -2.7888
  304MOL0     H41885   6.376   2.063   4.630 -0.1851 -0.9376  0.4172
  304MOL0     H41886   6.355   2.027   4.449 -1.0973 -1.7336 -0.7905
  304MOL0     H41887   6.263   1.826   4.656 -1.6739 -1.4654 -1.6604
  304MOL0     H41888   6.255   1.809   4.494 -1.7480 -1.0381  0.8875
  304MOL0     H41889   6.513   1.853   4.457 -2.6854 -0.0370 -0.7101
  304MOL0     H41890   6.528   1.844   4.633 -0.0418 -0.5791 -0.0444
  304MOL0     H41891   6.452   1.608   4.613  0.5451 -1.6010  0.7127
  304MOL0     H41892   6.405   1.637   4.447  1.9281 -1.6167 -0.9383
  304MOL0     H41893   6.619   1.673   4.353 -1.7570 -1.2517 -1.2545
  304MOL0     H41894   6.600   1.515   4.428  1.5960 -0.5457 -0.2535
  304MOL0     H41895   6.809   1.597   4.454 -1.5218 -2.8002 -1.3143
  304MOL0     H41896   6.754   1.748   4.545  3.0098 -0.3164  0.6537
  304MOL0     H41897   6.732   1.451   4.628  1.6250  0.9690  1.4433
  304MOL0     H41898   6.657   1.586   4.723 -0.8339  1.0297 -0.6324
  304MOL0     H41899   6.868   1.686   4.768 -3.3463  0.1604  2.9060
  304MOL0     H41900   6.849   1.515   4.823 -0.5607  1.1161  2.3440
  304MOL0     H41901   7.037   1.325   4.707 -0.9766  0.8842 -0.1671
  304MOL0     H41902   7.298   1.361   4.445  0.9233  4.7884  0.5471
  304MOL0     H41903   7.195   1.238   4.539  0.3821 -0.4354  2.9452
  304MOL0     H41904   7.434   1.410   4.660  2.7625 -1.1762  2.6681
  304MOL0     H41905   7.327   1.295   4.744 -0.1642 -3.9006 -1.5054
  304MOL0     H41906   7.387   1.122   4.604 -0.6217  0.2245 -2.5876
  304MOL0     H41907   7.499   1.224   4.507  3.6684 -0.9186  1.2938
  304MOL0     H41908   7.531   1.148   4.798  2.8743 -1.7779  1.9336
  304MOL0     H41909   7.619   1.073   4.657  2.6481  0.8438  1.1988
  304MOL0     H41910   7.829   1.457   4.653  2.5342  1.4222  0.9370
  304MOL0     H41911   8.165   1.479   4.561 -0.5730  0.8863 -1.1574
  304MOL0     H41912   8.154   1.510   4.739  2.0870 -0.5799 -1.1826
  304MOL0     H41913   8.033   1.568   4.632 -0.4525 -1.7126 -0.0657
  304MOL0     H41914   8.351   0.820   4.726 -0.2554  0.0804 -1.8359
  304MOL0     H41915   8.576   0.744   4.719 -3.8428 -0.5651  1.1697
  304MOL0     H41916   8.752   0.743   4.936  1.2805 -0.1329  1.5102
  304MOL0     H41917   8.800   0.684   4.774  0.4490 -1.2352  0.5327
  304MOL0     H41918   8.952   0.633   4.922  1.3886 -0.6321 -0.9090
  304MOL0     H41919   9.031   0.756   4.811 -0.7137 -1.0156  0.3798
  304MOL0     H41920   8.926   0.883   5.056  2.1042  1.3310  1.3192
  304MOL0     H41921   9.086   0.882   4.996 -1.9895  3.3545  2.8212
  304MOL0     H41922   9.070   0.633   5.090 -0.6051  1.3133 -3.7270
  304MOL0     H41923   8.969   0.714   5.221  1.1418 -1.3141  0.3345
  304MOL0     H41924   9.243   0.778   5.114  0.6315  3.1723  1.0098
  304MOL0     H41925   9.159   0.859   5.249  3.5699 -1.3849  1.8738
  304MOL0     H41926   9.211   0.560   5.241  0.1068  0.6589 -0.7871
  304MOL0     H41927   9.146   0.647   5.379 -1.6625  0.8567 -1.7680
  304MOL0     H41928   9.429   0.675   5.298 -0.3502 -1.0374  0.7471
  304MOL0     H41929   9.366   0.595   5.434 -2.2068 -3.6016 -2.2020
  304MOL0     H41930   9.362   0.900   5.374  0.1120  3.1192  3.6721
  304MOL0     H41931   9.434   0.817   5.513  1.9188 -0.0367 -1.0001
  304MOL0     H41932   8.713   1.149   4.836 -0.2687  0.2931  1.8993
  304MOL0     H41933   8.488   1.223   4.817  0.8627  0.2170 -0.1431
  304MOL0     H41934   8.037   1.027   4.771  0.4538 -0.0331  0.1917
  304MOL0     H41935   7.799   1.057   4.764 -2.3867 -0.1244 -3.1692
  304MOL0     H41936   6.313   2.287   4.632 -0.3172 -1.2234 -0.7836
  304MOL0     H41937   6.217   2.505   4.590 -1.4986  1.3561 -1.2784
  304MOL0     H41938   5.932   2.798   4.682 -1.7827  0.6348  1.2714
  304MOL0     H41939   5.890   3.044   4.685 -0.1249  0.4226 -0.4768
  304MOL0     H41940   5.798   3.274   4.291 -0.9197 -2.2337 -0.0515
  304MOL0     H41941   5.647   3.249   4.376 -0.4230  0.9285 -1.9819
  304MOL0     H41942   5.731   3.435   4.547  0.3942  2.0888 -0.1620
  304MOL0     H41943   5.653   3.476   4.391 -0.7108 -0.3163  1.1158
  304MOL0     H41944   5.843   3.609   4.425  0.7846 -0.3793  0.6948
  304MOL0     H41945   5.946   3.465   4.450 -0.3543 -0.2837  0.6228
  304MOL0     H41946   5.793   3.505   4.195 -0.4837  4.3328 -0.1466
  304MOL0     H41947   5.952   3.422   4.206  1.6055  1.2418 -1.0870
  304MOL0     H41948   6.111   3.794   4.138  0.4683 -0.2183 -0.6789
  304MOL0     H41949   5.804   3.048   4.283  1.7735  1.7716  2.1781
  304MOL0     H41950   5.844   2.873   4.141 -0.1663  1.0794  0.8468
  304MOL0     H41951   5.891   2.722   4.186  1.8655  2.8017 -0.0357
  304MOL0     H41952   5.708   2.778   4.188  0.4588 -1.5437 -3.7750
  305MOL0     O41953   5.535  10.727   9.408  0.2848  0.2203 -0.0480
  305MOL0     C41954   5.412  10.747   9.410 -0.3535  0.1227  0.4622
  305MOL0     O41955   5.351  10.865   9.388  0.1907  0.1577 -0.5249
  305MOL0     C41956   5.431  10.975   9.387 -0.1916 -0.9331 -0.5061
  305MOL0     C41957   5.476  11.029   9.264 -0.2113 -0.4659 -0.5501
  305MOL0     C41958   5.557  11.144   9.263 -0.6385  0.3986 -1.3470
  305MOL0     C41959   5.574  11.213   9.380  0.5320 -0.6758  0.8322
  305MOL0     O41960   5.666  11.315   9.379  0.4609  0.7225  0.3095
  305MOL0     C41961   5.643  11.424   9.474  0.9317 -0.9549 -0.5663
  305MOL0     C41962   5.749  11.528   9.461  0.6580 -0.4626  0.2913
  305MOL0     C41963   5.892  11.474   9.469 -1.0935 -0.0210  0.0586
  305MOL0     C41964   5.995  11.553   9.385 -0.0173 -0.7376 -0.3921
  305MOL0     C41965   6.132  11.494   9.404 -0.5321  0.9897  0.2183
  305MOL0     C41966   6.233  11.581   9.323  0.6870  0.4462  0.0324
  305MOL0     C41967   6.370  11.540   9.354 -0.7580  0.0370  0.4842
  305MOL0     C41968   6.475  11.588   9.241  0.0257  0.2307  0.1397
  305MOL0     N41969   6.496  11.731   9.234 -0.1174 -0.1099  1.0168
  305MOL0     C41970   6.483  11.820   9.129 -0.8672  0.2705  0.6573
  305MOL0     C41971   6.491  11.941   9.173 -0.0738 -0.8295  0.2033
  305MOL0     C41972   6.491  12.060   9.089  1.2336 -0.2567 -0.9858
  305MOL0     C41973   6.348  12.125   9.105 -0.4789  0.4864  0.1588
  305MOL0     C41974   6.221  12.033   9.122 -0.3905 -0.0646  1.1804
  305MOL0     C41975   6.089  12.114   9.152 -0.1365  0.7100 -0.6311
  305MOL0     O41976   5.986  12.099   9.054 -0.4509  0.3913  0.0735
  305MOL0     C41977   5.890  12.000   9.057 -0.9875  0.1753 -0.4725
  305MOL0     C41978   5.766  12.034   9.009 -0.8517 -0.0141  0.1806
  305MOL0     C41979   5.656  11.944   9.005 -0.9846 -0.1821 -1.1744
  305MOL0     C41980   5.522  11.992   8.943 -0.3892 -0.1184 -0.2393
  305MOL0     C41981   5.672  11.812   9.064  0.3624  1.1901 -1.3560
  305MOL0     C41982   5.570  11.706   9.051  0.1675 -0.0604  0.2402
  305MOL0     O41983   5.618  11.597   9.005  0.4525 -0.7668  0.1092
  305MOL0     C41984   5.542  11.501   8.941 -0.7026  0.0909  0.8340
  305MOL0     C41985   5.568  11.371   8.983 -0.2653  0.0247  0.6303
  305MOL0     C41986   5.478  11.268   8.938 -0.1342  0.0161 -0.9520
  305MOL0     C41987   5.379  11.304   8.843 -0.5379  0.8979  0.6173
  305MOL0     O41988   5.293  11.206   8.800 -0.2359  0.1658  0.0935
  305MOL0     C41989   5.336  11.161   8.671 -0.3343 -0.6671  0.0393
  305MOL0     C41990   5.215  11.098   8.606 -0.3907  0.4239 -0.5977
  305MOL0     C41991   5.096  11.198   8.583 -1.0386 -0.3097 -0.2387
  305MOL0     C41992   4.984  11.139   8.498  0.4809  0.0217  1.0630
  305MOL0     C41993   4.884  11.246   8.458  0.2860 -0.5886  0.5516
  305MOL0     C41994   4.807  11.313   8.572 -0.1017  0.2069  0.0818
  305MOL0     C41995   4.706  11.417   8.526 -0.3781  0.2673 -0.2922
  305MOL0     C41996   4.764  11.557   8.515 -0.2546  0.7250 -0.0226
  305MOL0    Cl41997   4.822  11.604   8.683 -0.4550 -0.1237  0.3758
  305MOL0     C41998   5.372  11.433   8.796  0.2527  0.7137  0.7881
  305MOL0     C41999   5.454  11.536   8.838 -0.6677  0.0441 -0.3862
  305MOL0     O42000   5.451  11.731   9.082  0.4959 -0.7019 -0.1640
  305MOL0     C42001   5.793  11.787   9.141  0.2493 -0.1216 -0.2969
  305MOL0     C42002   5.901  11.883   9.132 -0.5802  0.6755  1.4173
  305MOL0     N42003   6.491  11.933   9.309  0.1580  0.2364 -0.4889
  305MOL0     N42004   6.510  11.805   9.345 -0.4339  0.3477  0.2095
  305MOL0     C42005   5.512  11.175   9.494  0.5453  1.6445 -0.2178
  305MOL0     C42006   5.434  11.058   9.499 -0.0353 -0.9196 -0.1941
  305MOL0     C42007   5.319  10.642   9.415 -1.4762  0.7817 -0.1826
  305MOL0     C42008   5.321  10.577   9.539  0.2363  1.0881  0.3500
  305MOL0     C42009   5.237  10.473   9.575  0.3436  1.1374  0.5487
  305MOL0     C42010   5.145  10.423   9.481  0.4312 -0.2072 -0.4810
  305MOL0     O42011   5.061  10.325   9.518  0.0842 -0.0528  0.6303
  305MOL0     C42012   4.967  10.255   9.435 -0.4940 -0.7016 -0.2658
  305MOL0     C42013   4.976  10.112   9.486 -0.0129  0.8461 -0.0807
  305MOL0     C42014   5.073  10.014   9.412  0.3039  0.4303 -0.7393
  305MOL0     C42015   5.047   9.867   9.467 -0.5465  0.7178  0.3703
  305MOL0     C42016   5.152   9.774   9.408 -0.1640 -0.2104 -0.5046
  305MOL0     C42017   5.234   9.703   9.354  1.3386 -0.3975  0.4493
  305MOL0     C42018   5.151  10.480   9.348 -1.2349 -0.1460  0.0806
  305MOL0     C42019   5.233  10.587   9.314 -0.3470  0.9746 -1.4154
  305MOL0     C42020   5.239  10.631   9.173 -0.0214 -0.7930 -0.1213
  305MOL0     H42021   5.451  10.966   9.178  0.6053  0.1939 -1.2958
  305MOL0     H42022   5.618  11.169   9.176  0.8790 -1.4358 -0.8797
  305MOL0     H42023   5.654  11.391   9.577  1.1949  0.6240 -0.0655
  305MOL0     H42024   5.544  11.463   9.447  1.7710  0.8437 -1.2034
  305MOL0     H42025   5.749  11.576   9.362  0.1582 -1.7220 -0.3432
  305MOL0     H42026   5.733  11.597   9.545 -2.1432 -0.3035 -0.2772
  305MOL0     H42027   5.936  11.484   9.569  2.9747 -0.6738 -1.4814
  305MOL0     H42028   5.895  11.368   9.444 -1.8609 -0.3222  1.1393
  305MOL0     H42029   5.975  11.550   9.278  0.8399  1.9458 -0.7054
  305MOL0     H42030   6.000  11.659   9.412  3.7073 -1.0908  0.8678
  305MOL0     H42031   6.137  11.390   9.371 -1.0920  0.6620  1.1338
  305MOL0     H42032   6.168  11.504   9.506  0.7204  2.6282 -0.3452
  305MOL0     H42033   6.215  11.574   9.215 -1.3251  2.0985  0.2026
  305MOL0     H42034   6.212  11.683   9.357  1.2247  0.0745  1.5320
  305MOL0     H42035   6.380  11.431   9.357  1.6148  0.0321 -2.4489
  305MOL0     H42036   6.398  11.590   9.447  0.0371  2.0808 -0.7893
  305MOL0     H42037   6.565  11.533   9.269  1.4742  0.4597 -3.5215
  305MOL0     H42038   6.455  11.547   9.142  0.9850 -1.5849  0.6416
  305MOL0     H42039   6.476  11.796   9.023  1.5436  0.1610  0.4864
  305MOL0     H42040   6.508  12.044   8.983  1.0153  1.1317 -1.2464
  305MOL0     H42041   6.565  12.137   9.114 -0.1781  1.1719 -0.9800
  305MOL0     H42042   6.348  12.185   9.197  0.8931  1.6545 -0.5656
  305MOL0     H42043   6.335  12.185   9.015  2.8101  4.1333  1.8348
  305MOL0     H42044   6.198  11.979   9.029 -1.5741  3.0686 -0.4804
  305MOL0     H42045   6.246  11.958   9.197  1.9706 -2.3811 -1.6505
  305MOL0     H42046   6.056  12.086   9.253  0.6974 -2.7674 -1.2193
  305MOL0     H42047   6.115  12.220   9.160  1.0654  0.4251 -0.6024
  305MOL0     H42048   5.761  12.138   8.977  1.6124  1.3063  3.4788
  305MOL0     H42049   5.453  12.034   9.017  1.3730  0.2782  1.2443
  305MOL0     H42050   5.464  11.914   8.894 -1.0205  1.2076 -1.6798
  305MOL0     H42051   5.550  12.072   8.874  3.6259 -0.7260  0.4666
  305MOL0     H42052   5.653  11.363   9.049  0.7331 -0.2096 -0.6412
  305MOL0     H42053   5.467  11.165   8.971  0.3944  0.1931 -0.1989
  305MOL0     H42054   5.372  11.242   8.608  0.9142 -1.2088  0.0276
  305MOL0     H42055   5.419  11.090   8.675 -1.6301 -2.3150 -0.5490
  305MOL0     H42056   5.253  11.053   8.514  0.3045  4.1039 -2.3031
  305MOL0     H42057   5.178  11.033   8.686 -0.6918  1.3729  0.0526
  305MOL0     H42058   5.126  11.288   8.527  1.3676 -1.1540 -0.3947
  305MOL0     H42059   5.057  11.230   8.680 -2.3746 -1.2949 -0.4138
  305MOL0     H42060   4.919  11.069   8.551 -1.2915  2.4035  2.2633
  305MOL0     H42061   5.017  11.092   8.405 -0.7387 -0.4909  0.8635
  305MOL0     H42062   4.937  11.325   8.404 -0.0145 -0.1113  0.9442
  305MOL0     H42063   4.815  11.194   8.392  0.1902  1.9599 -1.5120
  305MOL0     H42064   4.877  11.346   8.648 -1.1646  0.1232  1.1203
  305MOL0     H42065   4.752  11.232   8.621  0.0134 -0.1557 -0.3699
  305MOL0     H42066   4.629  11.412   8.604 -0.3622 -1.3232 -0.3391
  305MOL0     H42067   4.670  11.377   8.430  1.2995 -1.2111 -0.3425
  305MOL0     H42068   4.694  11.637   8.489  0.1380  1.4691  1.1277
  305MOL0     H42069   4.841  11.551   8.438 -1.5440 -3.8028 -1.2868
  305MOL0     H42070   5.300  11.444   8.716  1.4658 -0.6419 -0.5667
  305MOL0     H42071   5.446  11.637   8.800 -0.6705  0.0449 -0.3842
  305MOL0     H42072   5.815  11.692   9.190 -1.1334  0.0444  0.6861
  305MOL0     H42073   5.991  11.859   9.188 -0.2483  1.8836  1.4355
  305MOL0     H42074   5.526  11.233   9.585 -1.8317  0.5451  0.9395
  305MOL0     H42075   5.379  11.033   9.589 -1.8076  3.7612  0.2839
  305MOL0     H42076   5.382  10.612   9.621  1.5785 -0.5108  0.0794
  305MOL0     H42077   5.229  10.430   9.675 -2.6389  1.4747  0.5458
  305MOL0     H42078   4.869  10.302   9.447 -0.5291 -0.6008 -0.9273
  305MOL0     H42079   5.004  10.254   9.332  1.1355 -1.0298  0.2845
  305MOL0     H42080   4.873  10.080   9.470  0.4616 -1.8321  1.5841
  305MOL0     H42081   4.997  10.104   9.593  1.0202  2.3436 -0.1365
  305MOL0     H42082   5.057  10.020   9.303 -3.3931  3.0050 -0.2571
  305MOL0     H42083   5.174  10.044   9.441 -0.1493 -1.3208  3.1983
  305MOL0     H42084   4.949   9.838   9.431 -0.7640  3.0541 -1.0865
  305MOL0     H42085   5.063   9.866   9.576  1.1066  3.9131  0.2620
  305MOL0     H42086   5.307   9.642   9.304  0.2596 -1.7447  0.4655
  305MOL0     H42087   5.081  10.433   9.279 -1.1950 -1.0251  0.6193
  305MOL0     H42088   5.171  10.714   9.149 -0.5797 -1.4325 -0.8216
  305MOL0     H42089   5.343  10.659   9.153  0.0574 -0.8902  0.1530
  305MOL0     H42090   5.207  10.556   9.100  0.1636  1.0523 -2.2447
  306MOL0     O42091   8.485   1.024   3.911  0.0624  0.8857 -0.3038
  306MOL0     C42092   8.460   0.942   3.823 -0.5335  0.7213  0.0898
  306MOL0     O42093   8.372   0.952   3.725 -0.6893  0.2426 -0.3439
  306MOL0     C42094   8.273   1.036   3.739 -0.2507  0.1584  0.9293
  306MOL0     C42095   8.297   1.173   3.713 -0.3674  0.6247 -0.5755
  306MOL0     C42096   8.197   1.259   3.741  0.1337  0.6764 -0.4409
  306MOL0     C42097   8.070   1.219   3.791  0.5247 -0.2367  0.6234
  306MOL0     O42098   7.974   1.318   3.805  0.2755  0.3771 -0.4320
  306MOL0     C42099   7.835   1.288   3.784 -0.3290 -0.2365  0.2464
  306MOL0     C42100   7.742   1.412   3.775  0.2192  0.2082 -0.4775
  306MOL0     C42101   7.745   1.493   3.647 -0.0186 -0.5719  0.8689
  306MOL0     C42102   7.768   1.636   3.680 -1.0602 -0.1081 -1.5037
  306MOL0     C42103   7.784   1.717   3.545  0.4723 -0.0143  0.7028
  306MOL0     C42104   7.820   1.859   3.562  0.4416 -0.1398  0.2098
  306MOL0     C42105   7.730   1.937   3.659 -0.3861 -0.2867  0.2922
  306MOL0     C42106   7.586   1.946   3.614  0.0498 -0.4718 -0.8045
  306MOL0     N42107   7.580   2.003   3.470  0.7422  0.5710 -0.1820
  306MOL0     C42108   7.514   1.936   3.366 -0.1892 -0.8783  0.0752
  306MOL0     C42109   7.501   2.034   3.261  0.8908  0.1033 -0.7957
  306MOL0     C42110   7.434   1.996   3.127 -0.1313  0.2452 -0.1444
  306MOL0     C42111   7.375   2.113   3.049 -0.3482  0.5061 -1.2335
  306MOL0     C42112   7.488   2.207   2.985 -0.0862  0.2016 -0.1434
  306MOL0     C42113   7.416   2.290   2.880  0.0814  0.5311 -0.1060
  306MOL0     O42114   7.378   2.201   2.768 -0.4074  0.6423 -0.3031
  306MOL0     C42115   7.313   2.265   2.663  0.3373 -0.1757 -0.6992
  306MOL0     C42116   7.302   2.401   2.640  0.0084  0.3206 -0.7238
  306MOL0     C42117   7.244   2.447   2.525  0.1666  0.0701  0.1286
  306MOL0     C42118   7.237   2.590   2.513  0.3420  0.6446 -0.1511
  306MOL0     C42119   7.179   2.350   2.438  0.2834  0.5029 -0.6853
  306MOL0     C42120   7.090   2.390   2.328  0.4119  0.1949 -0.4268
  306MOL0     O42121   7.092   2.300   2.227  0.3135 -0.9864  0.2426
  306MOL0     C42122   7.024   2.332   2.114 -1.3135  0.7191  0.6049
  306MOL0     C42123   6.888   2.333   2.106  0.9085 -1.7671 -0.0466
  306MOL0     C42124   6.828   2.359   1.984 -0.1513  0.5275 -0.3424
  306MOL0     C42125   6.899   2.404   1.874  0.8919  1.1142 -0.0908
  306MOL0     O42126   6.839   2.467   1.771 -0.3788  0.4220  0.3834
  306MOL0     C42127   6.887   2.593   1.711  0.6180  0.5301 -0.0682
  306MOL0     C42128   6.825   2.625   1.571 -0.1560 -0.0130  1.1646
  306MOL0     C42129   6.674   2.651   1.570  0.6377 -0.6193 -0.3670
  306MOL0     C42130   6.613   2.704   1.437 -0.6848  0.3937 -0.0431
  306MOL0     C42131   6.478   2.638   1.420  0.0727  0.2917 -0.2180
  306MOL0     C42132   6.406   2.678   1.282 -0.0577  0.8784 -0.6569
  306MOL0     C42133   6.262   2.628   1.280 -0.4984 -0.1513 -0.2345
  306MOL0     C42134   6.181   2.677   1.152 -0.2394 -1.2172  0.9316
  306MOL0    Cl42135   6.010   2.617   1.155  0.0999 -0.2147 -0.3829
  306MOL0     C42136   7.035   2.414   1.884 -0.5431  0.6460  0.3334
  306MOL0     C42137   7.102   2.377   2.008 -0.9413  0.1916 -0.7904
  306MOL0     O42138   7.030   2.496   2.329 -0.1300  0.3931 -0.9797
  306MOL0     C42139   7.202   2.213   2.460 -0.1342 -0.1764 -0.0654
  306MOL0     C42140   7.266   2.179   2.576  0.3763  0.0323 -0.7966
  306MOL0     N42141   7.557   2.154   3.307  0.1665 -0.1059  0.2938
  306MOL0     N42142   7.598   2.131   3.427 -0.4649  1.5710 -0.6984
  306MOL0     C42143   8.040   1.080   3.804  0.4118  0.8764 -0.1975
  306MOL0     C42144   8.143   0.986   3.773  0.5898 -0.4869  0.9103
  306MOL0     C42145   8.540   0.809   3.818 -1.4416  0.1291  0.0605
  306MOL0     C42146   8.516   0.723   3.707  0.8733  0.0199 -0.4896
  306MOL0     C42147   8.586   0.602   3.691 -0.3337  0.2505 -0.2727
  306MOL0     C42148   8.668   0.551   3.793 -0.4794 -0.2356 -0.3012
  306MOL0     O42149   8.736   0.432   3.801  0.3029 -0.0581 -0.3174
  306MOL0     C42150   8.678   0.314   3.733  0.5302  0.3005  0.1154
  306MOL0     C42151   8.675   0.210   3.845 -0.5929  1.2078 -0.2738
  306MOL0     C42152   8.568   0.237   3.949  0.3087  0.8043 -0.8882
  306MOL0     C42153   8.631   0.195   4.086  0.2942 -0.3898 -0.4053
  306MOL0     C42154   8.541   0.198   4.205 -0.0863  0.3843  0.0723
  306MOL0     C42155   8.473   0.209   4.310  0.1239  0.1154 -0.0811
  306MOL0     C42156   8.686   0.638   3.897  0.1231 -0.4451  0.1195
  306MOL0     C42157   8.626   0.760   3.917 -0.8776 -0.0894  0.7311
  306MOL0     C42158   8.663   0.831   4.048 -0.2591 -1.0366 -0.3532
  306MOL0     H42159   8.398   1.212   3.701  0.3999 -0.5379  1.5910
  306MOL0     H42160   8.228   1.363   3.737  1.3063  0.5564  2.8486
  306MOL0     H42161   7.791   1.225   3.863 -1.2708  1.6085  1.2574
  306MOL0     H42162   7.838   1.251   3.681  1.7399  2.3748 -0.7217
  306MOL0     H42163   7.642   1.368   3.785  0.5834 -0.5686 -0.1377
  306MOL0     H42164   7.753   1.474   3.864 -1.8229 -0.2107  0.1329
  306MOL0     H42165   7.821   1.450   3.582  1.1339  2.5030  0.0089
  306MOL0     H42166   7.642   1.496   3.610  0.0676 -2.4609  0.3831
  306MOL0     H42167   7.684   1.671   3.740 -0.6978  2.2619 -2.2652
  306MOL0     H42168   7.862   1.650   3.734 -2.1543  1.2630  0.1564
  306MOL0     H42169   7.684   1.711   3.500  1.1392  2.5370 -1.3655
  306MOL0     H42170   7.862   1.679   3.477  2.0317  3.4015  0.3899
  306MOL0     H42171   7.920   1.870   3.604  0.9727  0.3418 -1.1302
  306MOL0     H42172   7.833   1.906   3.464  2.8134  0.6554  0.8326
  306MOL0     H42173   7.769   2.039   3.664  3.1345 -1.3554 -1.8380
  306MOL0     H42174   7.726   1.896   3.760  0.3502 -3.0044 -0.6935
  306MOL0     H42175   7.527   1.856   3.632  0.4574 -0.3554  1.4649
  306MOL0     H42176   7.536   2.014   3.683 -1.8828  0.2837 -2.8306
  306MOL0     H42177   7.483   1.832   3.371 -1.5920 -0.5623 -1.1354
  306MOL0     H42178   7.355   1.927   3.159 -0.2743 -0.3084 -1.6054
  306MOL0     H42179   7.506   1.948   3.060  2.7396  2.3608  1.2200
  306MOL0     H42180   7.301   2.072   2.980  1.5381 -2.8377 -1.4887
  306MOL0     H42181   7.319   2.178   3.116 -0.1614  0.6903 -1.2545
  306MOL0     H42182   7.542   2.260   3.064  1.6529  1.9729 -2.4035
  306MOL0     H42183   7.563   2.148   2.931 -2.4047 -0.0879 -3.3162
  306MOL0     H42184   7.324   2.331   2.923  0.7472  0.3035  1.5964
  306MOL0     H42185   7.478   2.373   2.845 -0.3060  1.4344  1.2921
  306MOL0     H42186   7.355   2.476   2.698  1.7118 -1.3137 -0.0898
  306MOL0     H42187   7.132   2.616   2.529 -0.1674 -0.3225 -1.7613
  306MOL0     H42188   7.263   2.626   2.413  1.3992 -0.6547 -0.3599
  306MOL0     H42189   7.303   2.648   2.579  1.9224  0.1775 -1.2719
  306MOL0     H42190   6.835   2.298   2.195 -0.4353 -0.6004 -0.3421
  306MOL0     H42191   6.720   2.346   1.974 -0.1904 -1.1749  1.6794
  306MOL0     H42192   6.852   2.677   1.772  0.0470  2.2951 -2.6621
  306MOL0     H42193   6.996   2.592   1.713  0.6851 -2.6083  0.7181
  306MOL0     H42194   6.876   2.710   1.526  1.2452 -1.7372 -0.7125
  306MOL0     H42195   6.833   2.535   1.509  0.9098 -0.6325  2.1471
  306MOL0     H42196   6.666   2.718   1.656 -0.0124  0.1934 -1.0433
  306MOL0     H42197   6.619   2.561   1.601  1.8437 -0.7427  1.6457
  306MOL0     H42198   6.662   2.672   1.345 -1.6245 -0.7441 -0.1616
  306MOL0     H42199   6.600   2.812   1.444  2.0656  0.7983 -0.0634
  306MOL0     H42200   6.489   2.530   1.431 -1.1599  0.2574  0.9057
  306MOL0     H42201   6.409   2.678   1.495 -0.0892  2.5456 -1.4646
  306MOL0     H42202   6.454   2.627   1.198 -1.3989 -0.4912 -0.6417
  306MOL0     H42203   6.409   2.787   1.275  2.7085  1.1865  2.5162
  306MOL0     H42204   6.208   2.680   1.359  1.1911  0.0983  0.8191
  306MOL0     H42205   6.254   2.519   1.286 -1.7878 -0.3116 -3.0809
  306MOL0     H42206   6.238   2.642   1.066  0.6544 -1.7155  1.7118
  306MOL0     H42207   6.166   2.786   1.155  0.3353 -0.9745 -2.0724
  306MOL0     H42208   7.086   2.448   1.794  0.4875  0.3434  0.7875
  306MOL0     H42209   7.210   2.384   2.018 -0.5240 -0.0053 -4.0449
  306MOL0     H42210   7.158   2.132   2.403  0.6407 -2.0259  1.8166
  306MOL0     H42211   7.273   2.072   2.592 -1.8459  0.0111  0.2993
  306MOL0     H42212   7.941   1.052   3.838  0.4922  0.6873 -0.1128
  306MOL0     H42213   8.132   0.879   3.776  0.7878 -0.5331  0.1927
  306MOL0     H42214   8.438   0.738   3.633 -1.8446 -2.9494  1.5351
  306MOL0     H42215   8.572   0.531   3.610 -0.7738 -2.7765  2.2760
  306MOL0     H42216   8.581   0.341   3.691 -0.6889 -1.5922  1.5465
  306MOL0     H42217   8.736   0.283   3.645  1.3577  1.3284  0.2818
  306MOL0     H42218   8.772   0.192   3.891 -2.1839 -3.9046  1.9010
  306MOL0     H42219   8.671   0.110   3.800 -1.6099  0.6608  0.9536
  306MOL0     H42220   8.536   0.341   3.959 -1.0136  0.3222  0.2625
  306MOL0     H42221   8.481   0.172   3.935  1.0030 -0.5825  0.8028
  306MOL0     H42222   8.714   0.264   4.104 -0.0979  0.4257 -1.5476
  306MOL0     H42223   8.681   0.099   4.073 -1.3115 -1.1014 -1.8179
  306MOL0     H42224   8.406   0.236   4.389 -2.1668 -1.2262 -1.4415
  306MOL0     H42225   8.745   0.598   3.980 -0.8146  2.4329  2.3511
  306MOL0     H42226   8.772   0.834   4.044 -0.0485 -4.0269  0.7391
  306MOL0     H42227   8.624   0.931   4.066 -2.1159 -1.8405  0.4097
  306MOL0     H42228   8.639   0.774   4.138  3.7062 -3.4137 -0.5850
  307MOL0     O42229  10.067   7.586   6.949 -0.0124 -0.6066  0.2949
  307MOL0     C42230  10.062   7.672   6.862  1.3161 -0.9745  0.4476
  307MOL0     O42231  10.048   7.807   6.873 -0.6588 -0.5105 -1.2759
  307MOL0     C42232  10.006   7.851   6.997  0.2221 -0.3872  0.0234
  307MOL0     C42233  10.090   7.849   7.112 -0.3431 -0.3123  0.1227
  307MOL0     C42234  10.044   7.899   7.235 -0.0745  0.1762  0.0664
  307MOL0     C42235   9.912   7.951   7.248  0.6312  0.4179  0.1368
  307MOL0     O42236   9.847   7.990   7.361  0.8575  0.0107 -0.8806
  307MOL0     C42237   9.885   8.122   7.402 -0.4014  0.2920  0.3014
  307MOL0     C42238   9.804   8.172   7.523  0.5404  0.4108 -0.0157
  307MOL0     C42239   9.700   8.278   7.494 -0.7764  0.4166  0.6359
  307MOL0     C42240   9.564   8.215   7.505  0.1316 -0.8618  0.7715
  307MOL0     C42241   9.445   8.315   7.460  0.0976 -1.2993 -0.2870
  307MOL0     C42242   9.314   8.289   7.534 -0.7232  0.4284 -0.5334
  307MOL0     C42243   9.266   8.137   7.530 -0.3014 -0.7708  0.3269
  307MOL0     C42244   9.138   8.120   7.606  0.6811 -0.6176  0.2753
  307MOL0     N42245   9.171   8.168   7.737  0.7473 -0.3051 -0.5376
  307MOL0     C42246   9.111   8.275   7.803  0.4409 -0.3074  0.7907
  307MOL0     C42247   9.163   8.280   7.937  1.2502 -0.2526  0.8050
  307MOL0     C42248   9.130   8.378   8.038  0.2082  0.1853 -0.6522
  307MOL0     C42249   8.977   8.422   8.028  0.7256  0.6128 -0.6639
  307MOL0     C42250   8.929   8.485   8.157 -0.6410 -0.1771  0.5810
  307MOL0     C42251   8.935   8.403   8.280  0.4029 -0.8476  0.4798
  307MOL0     O42252   8.854   8.290   8.272  1.0009 -0.1413 -0.0774
  307MOL0     C42253   8.864   8.213   8.394 -1.4756  0.0739 -0.1526
  307MOL0     C42254   8.971   8.116   8.399 -0.1972 -0.4296 -0.4837
  307MOL0     C42255   8.995   8.040   8.517  0.0302 -0.0309  0.0434
  307MOL0     C42256   9.110   7.940   8.503  0.7708  0.3702 -0.2816
  307MOL0     C42257   8.906   8.056   8.629  0.4078  0.9138 -0.4078
  307MOL0     C42258   8.931   7.996   8.763 -0.6113  0.2940  1.2626
  307MOL0     O42259   8.823   7.983   8.837 -0.2301 -1.2939  0.4263
  307MOL0     C42260   8.846   7.932   8.960 -0.3271  0.5139 -0.3227
  307MOL0     C42261   8.813   7.793   8.981  0.7448 -0.4541 -1.0238
  307MOL0     C42262   8.853   7.737   9.107  0.3729 -0.7467 -0.8899
  307MOL0     C42263   8.930   7.806   9.203 -0.7020  0.1655 -0.6812
  307MOL0     O42264   8.970   7.744   9.320 -0.0241  0.3871  0.2114
  307MOL0     C42265   9.094   7.779   9.376  0.4638 -0.1913  0.0322
  307MOL0     C42266   9.130   7.699   9.499  0.7728 -0.1458 -0.1127
  307MOL0     C42267   9.157   7.551   9.463 -0.0489  0.4156 -0.7193
  307MOL0     C42268   9.212   7.468   9.574 -0.7092 -0.2859  0.1267
  307MOL0     C42269   9.169   7.319   9.578 -0.1251  0.8018  0.5007
  307MOL0     C42270   9.022   7.286   9.604  0.0883 -0.3930 -0.0211
  307MOL0     C42271   8.955   7.332   9.726  0.2662 -0.9119 -0.1823
  307MOL0     C42272   8.815   7.270   9.728  0.1763 -0.1284 -0.1344
  307MOL0    Cl42273   8.804   7.101   9.780  0.2279 -0.1507 -0.6030
  307MOL0     C42274   8.954   7.947   9.178  0.3675  1.1075  0.6903
  307MOL0     C42275   8.900   8.009   9.062 -0.3483 -0.9971 -0.9610
  307MOL0     O42276   9.041   7.949   8.788  0.3480 -0.5593 -0.5971
  307MOL0     C42277   8.784   8.135   8.609 -1.0264  0.1520 -0.0472
  307MOL0     C42278   8.765   8.215   8.495  0.0116  0.3010  0.9179
  307MOL0     N42279   9.250   8.174   7.942  0.9432  0.1329 -0.7833
  307MOL0     N42280   9.242   8.102   7.831 -0.3157 -0.3230 -0.4602
  307MOL0     C42281   9.829   7.964   7.128 -0.1678  0.1454 -0.2378
  307MOL0     C42282   9.872   7.898   7.003  0.1941 -0.9835 -0.8968
  307MOL0     C42283  10.062   7.628   6.716  0.6715 -0.7120  0.8018
  307MOL0     C42284  10.067   7.720   6.614  0.7470  0.0777 -0.0371
  307MOL0     C42285  10.062   7.680   6.487 -0.0680  0.5917 -0.0602
  307MOL0     C42286  10.040   7.548   6.450  0.1065 -0.5085 -1.2936
  307MOL0     O42287  10.039   7.507   6.319  0.5452 -0.0847  0.6889
  307MOL0     C42288  10.122   7.394   6.294 -0.6011 -0.0297  0.1641
  307MOL0     C42289  10.189   7.433   6.157 -0.4362  0.5535 -0.3196
  307MOL0     C42290  10.079   7.428   6.052 -0.0308 -0.3064 -0.1957
  307MOL0     C42291  10.132   7.405   5.911 -0.2709 -0.4534  0.1542
  307MOL0     C42292  10.027   7.395   5.813 -0.4201  0.0820  0.0626
  307MOL0     C42293   9.954   7.382   5.714 -0.1076  0.4008 -0.2821
  307MOL0     C42294  10.037   7.453   6.550  0.4114 -0.8573  0.1268
  307MOL0     C42295  10.057   7.491   6.674 -0.3841  0.2604  0.1434
  307MOL0     C42296  10.085   7.375   6.774  0.5204 -0.0494  0.1527
  307MOL0     H42297  10.197   7.833   7.118  0.0186  1.1456 -1.5341
  307MOL0     H42298  10.111   7.902   7.320  0.8829  1.1852 -0.6921
  307MOL0     H42299   9.881   8.186   7.314  1.0850 -1.4132 -1.1027
  307MOL0     H42300   9.984   8.101   7.443 -0.0074  0.9570 -0.2824
  307MOL0     H42301   9.753   8.092   7.579 -0.1499 -0.0151 -1.2054
  307MOL0     H42302   9.874   8.233   7.579 -0.0043  1.1184 -0.0881
  307MOL0     H42303   9.713   8.365   7.559 -2.7774  1.2838 -0.0417
  307MOL0     H42304   9.705   8.312   7.390  3.4579 -2.0676 -0.2365
  307MOL0     H42305   9.551   8.118   7.457 -0.3919 -0.6798  0.5304
  307MOL0     H42306   9.553   8.199   7.613  3.2358 -2.5227  0.9392
  307MOL0     H42307   9.416   8.309   7.355 -0.2038  0.9224 -0.3755
  307MOL0     H42308   9.450   8.423   7.479 -1.5426 -0.8479 -2.0803
  307MOL0     H42309   9.328   8.316   7.639  0.3528 -0.7938 -0.3299
  307MOL0     H42310   9.242   8.353   7.482 -0.1518  0.8748 -0.7865
  307MOL0     H42311   9.344   8.073   7.570 -1.4887  0.4409  5.1724
  307MOL0     H42312   9.261   8.111   7.423 -1.9724  1.5285 -0.2537
  307MOL0     H42313   9.061   8.181   7.557  0.1557 -0.8894  0.7553
  307MOL0     H42314   9.094   8.022   7.628  1.0786 -1.2151 -1.4516
  307MOL0     H42315   9.054   8.349   7.748  1.4974 -0.8828 -1.1650
  307MOL0     H42316   9.194   8.466   8.033 -0.8235  1.0405  0.7050
  307MOL0     H42317   9.142   8.327   8.134  1.7257  1.5036 -0.1038
  307MOL0     H42318   8.945   8.484   7.944 -0.6998  2.6033  1.2249
  307MOL0     H42319   8.921   8.329   8.022  2.6292 -0.5923 -0.4695
  307MOL0     H42320   8.990   8.575   8.170 -0.0172 -0.3859 -0.7396
  307MOL0     H42321   8.828   8.525   8.144 -1.8121 -3.4482 -1.6534
  307MOL0     H42322   9.042   8.394   8.301  1.2144  2.0070 -1.8567
  307MOL0     H42323   8.890   8.462   8.360  1.0314 -4.2333  3.5908
  307MOL0     H42324   9.039   8.113   8.315  0.2191  0.9299 -0.2282
  307MOL0     H42325   9.178   7.953   8.418  1.9413  1.0303  0.7104
  307MOL0     H42326   9.076   7.837   8.515 -1.4742  0.8250 -2.0217
  307MOL0     H42327   9.169   7.961   8.593 -2.8365  3.4426  1.6866
  307MOL0     H42328   8.760   7.739   8.903  2.2181 -1.3010 -1.4769
  307MOL0     H42329   8.810   7.639   9.125  1.7084 -1.1989 -0.0456
  307MOL0     H42330   9.174   7.764   9.303  1.1368 -0.5237  0.8290
  307MOL0     H42331   9.101   7.885   9.404  0.7373  0.2472 -1.5768
  307MOL0     H42332   9.221   7.738   9.545  1.5087  0.4243 -1.9529
  307MOL0     H42333   9.052   7.694   9.574  0.1793 -0.8198 -0.7582
  307MOL0     H42334   9.225   7.535   9.379  0.5619 -0.7504 -0.0321
  307MOL0     H42335   9.066   7.500   9.429  1.0244  0.9843 -4.9835
  307MOL0     H42336   9.183   7.523   9.664 -1.2427  1.2783 -0.9531
  307MOL0     H42337   9.321   7.469   9.568 -0.7025 -1.7016 -0.5037
  307MOL0     H42338   9.196   7.273   9.483  0.4561  0.1973  0.9459
  307MOL0     H42339   9.227   7.280   9.663  0.0878  0.3495  0.1536
  307MOL0     H42340   9.008   7.178   9.593 -0.2959 -0.1786 -1.8936
  307MOL0     H42341   8.966   7.331   9.522  3.0215 -0.1864 -2.0792
  307MOL0     H42342   8.943   7.441   9.720  2.1020 -0.6144  0.7837
  307MOL0     H42343   9.007   7.306   9.819 -0.6770  1.2125  1.0189
  307MOL0     H42344   8.766   7.276   9.631  0.2471 -0.9252 -0.2290
  307MOL0     H42345   8.759   7.321   9.806  3.0733  0.6009  1.6406
  307MOL0     H42346   9.003   8.003   9.256 -1.0453  0.7927  1.8433
  307MOL0     H42347   8.905   8.118   9.057 -0.4173 -1.0486 -2.5786
  307MOL0     H42348   8.720   8.135   8.696  0.2643  3.5313  1.0730
  307MOL0     H42349   8.684   8.287   8.485  0.9527  1.0481 -4.1432
  307MOL0     H42350   9.729   8.005   7.133  0.1914  0.9128  1.2899
  307MOL0     H42351   9.814   7.895   6.911  1.1403 -0.3170 -1.5377
  307MOL0     H42352  10.062   7.827   6.633  1.3922  0.2025 -0.5355
  307MOL0     H42353  10.069   7.765   6.419  0.2845 -0.8342 -1.8810
  307MOL0     H42354  10.201   7.382   6.368 -1.6046  4.4866  2.3352
  307MOL0     H42355  10.068   7.301   6.275 -0.6215  0.1492 -0.7100
  307MOL0     H42356  10.274   7.370   6.129 -0.6308  0.3202 -0.3868
  307MOL0     H42357  10.230   7.534   6.162 -1.3104  1.0018 -1.4947
  307MOL0     H42358  10.012   7.344   6.076 -2.0739  0.6794 -2.0603
  307MOL0     H42359  10.019   7.519   6.043  1.3086  0.4935 -1.5297
  307MOL0     H42360  10.180   7.307   5.910 -1.5827 -1.1279 -0.7898
  307MOL0     H42361  10.199   7.484   5.878 -3.1796  1.6554 -1.1745
  307MOL0     H42362   9.884   7.360   5.636 -1.7287 -2.1891  1.7324
  307MOL0     H42363  10.023   7.349   6.523  2.6566 -0.7574 -1.7257
  307MOL0     H42364  10.174   7.397   6.833  0.1064 -0.9232  1.1355
  307MOL0     H42365  10.007   7.364   6.849 -0.7973 -1.0591 -1.2891
  307MOL0     H42366  10.094   7.277   6.726  0.2045 -0.2785  0.5528
  308MOL0     O42367  11.575   6.051   6.617 -0.6184 -0.3564 -0.6245
  308MOL0     C42368  11.691   6.042   6.662 -0.3715  0.2674 -0.0730
  308MOL0     O42369  11.805   6.047   6.584  0.5178 -0.1219 -0.6575
  308MOL0     C42370  11.809   6.124   6.468 -0.0790 -0.1921  0.1062
  308MOL0     C42371  11.728   6.230   6.437 -0.7034 -0.0300 -0.5397
  308MOL0     C42372  11.736   6.308   6.318  0.0764  0.0456 -0.2483
  308MOL0     C42373  11.827   6.270   6.218  0.3854 -0.5497  0.5472
  308MOL0     O42374  11.847   6.341   6.104 -0.3214 -0.1808  0.5544
  308MOL0     C42375  11.741   6.419   6.046  0.2193  0.4373  0.3339
  308MOL0     C42376  11.789   6.550   5.993 -0.3052  0.9225 -0.2626
  308MOL0     C42377  11.865   6.631   6.103 -0.3369 -0.4262 -0.2311
  308MOL0     C42378  11.775   6.676   6.219 -0.0104  0.7814 -0.6509
  308MOL0     C42379  11.835   6.748   6.339 -0.3921  0.2296 -0.5108
  308MOL0     C42380  11.793   6.898   6.349 -0.6250  0.0526  0.1914
  308MOL0     C42381  11.846   6.986   6.235  0.8097  0.1372 -0.3728
  308MOL0     C42382  11.852   7.138   6.256 -0.4115 -0.4501 -0.3451
  308MOL0     N42383  11.720   7.199   6.276  0.0308  0.3783  0.6185
  308MOL0     C42384  11.715   7.332   6.294 -0.0905 -0.9113  0.3474
  308MOL0     C42385  11.586   7.358   6.291  0.1919 -0.0969  1.0450
  308MOL0     C42386  11.522   7.502   6.299  0.4678 -0.2959 -1.0242
  308MOL0     C42387  11.420   7.507   6.418 -1.2466  0.8748  0.7215
  308MOL0     C42388  11.332   7.626   6.407  0.2559 -0.9361 -0.6874
  308MOL0     C42389  11.229   7.623   6.525  0.3696  0.3929  0.7816
  308MOL0     O42390  11.275   7.660   6.646 -1.0054 -0.1555 -0.3648
  308MOL0     C42391  11.291   7.797   6.673  0.4027 -0.6134 -0.0354
  308MOL0     C42392  11.346   7.825   6.798 -1.0250 -0.2254 -0.2937
  308MOL0     C42393  11.367   7.959   6.844 -0.5068  0.3010  0.7060
  308MOL0     C42394  11.435   7.972   6.971 -0.7629  0.5889 -0.0525
  308MOL0     C42395  11.349   8.062   6.755 -0.6649  0.6701 -0.6301
  308MOL0     C42396  11.406   8.198   6.781  0.0130 -0.4045  0.0016
  308MOL0     O42397  11.399   8.285   6.670  0.0231 -0.1030 -0.1880
  308MOL0     C42398  11.480   8.393   6.665  0.4060  0.3942  0.7448
  308MOL0     C42399  11.442   8.495   6.583  0.6988 -0.5519  0.3250
  308MOL0     C42400  11.515   8.612   6.567  0.0021  0.1998 -0.6104
  308MOL0     C42401  11.635   8.618   6.633 -0.3366  0.6793  0.1099
  308MOL0     O42402  11.713   8.729   6.608 -0.5593  0.5614 -0.5017
  308MOL0     C42403  11.737   8.805   6.727  0.1836  0.8743  0.1789
  308MOL0     C42404  11.888   8.832   6.738  0.1405 -0.0472  0.9735
  308MOL0     C42405  11.918   8.902   6.868 -1.2435  0.1741 -0.4028
  308MOL0     C42406  12.070   8.929   6.891  0.2740  0.2170  0.0040
  308MOL0     C42407  12.085   9.058   6.972 -0.6407  0.5655  0.1002
  308MOL0     C42408  12.049   9.188   6.896 -0.8368 -0.9792 -0.4903
  308MOL0     C42409  12.111   9.306   6.978 -0.0701  0.5401 -0.2166
  308MOL0     C42410  12.071   9.440   6.915  0.2088  0.1642 -0.4491
  308MOL0    Cl42411  11.897   9.475   6.949 -0.0227  0.3520  0.1600
  308MOL0     C42412  11.671   8.520   6.722 -0.3201 -0.2055  0.1535
  308MOL0     C42413  11.595   8.406   6.734  0.3079  0.3398  0.6982
  308MOL0     O42414  11.428   8.231   6.897 -0.2723 -0.7510 -0.8113
  308MOL0     C42415  11.273   8.034   6.643  0.3628 -0.8938  0.2038
  308MOL0     C42416  11.246   7.906   6.603 -0.0779 -0.8260  0.1363
  308MOL0     N42417  11.512   7.234   6.272  0.0140 -0.9690  0.4806
  308MOL0     N42418  11.597   7.141   6.263 -0.5444  0.4560  0.3633
  308MOL0     C42419  11.901   6.160   6.244  0.0667 -0.1182  0.1431
  308MOL0     C42420  11.898   6.091   6.366  0.8246  0.3229  0.2370
  308MOL0     C42421  11.707   6.003   6.804 -0.2977  0.3591 -0.0940
  308MOL0     C42422  11.828   5.957   6.845  0.3165  0.7216  0.5160
  308MOL0     C42423  11.870   5.934   6.975 -0.1010 -0.2916 -0.0476
  308MOL0     C42424  11.793   5.962   7.084  0.2172 -0.2922 -0.2328
  308MOL0     O42425  11.828   5.904   7.198 -0.0292  0.4974 -0.7362
  308MOL0     C42426  11.740   5.820   7.275 -0.0168  0.0803 -0.4448
  308MOL0     C42427  11.802   5.687   7.313 -0.3064  0.0542 -0.3055
  308MOL0     C42428  11.759   5.652   7.457 -1.1323  0.1224 -1.1765
  308MOL0     C42429  11.834   5.736   7.554 -0.5671  1.0741  0.0907
  308MOL0     C42430  11.792   5.696   7.691  0.7968 -0.3199  0.2932
  308MOL0     C42431  11.746   5.674   7.806 -1.0546 -0.2844  0.3768
  308MOL0     C42432  11.665   6.001   7.049 -0.2357  0.0211 -0.5834
  308MOL0     C42433  11.621   6.019   6.913 -0.9247  0.0426  0.3426
  308MOL0     C42434  11.479   6.073   6.889 -0.2655  0.5425 -0.9532
  308MOL0     H42435  11.663   6.254   6.522  1.6347 -3.9820  2.7319
  308MOL0     H42436  11.672   6.396   6.321 -0.9899 -0.5573 -2.7574
  308MOL0     H42437  11.661   6.460   6.107  0.4076 -1.1978  1.7902
  308MOL0     H42438  11.700   6.356   5.966  0.2167  0.4545  0.3218
  308MOL0     H42439  11.853   6.527   5.907  1.1880  1.1010  0.7703
  308MOL0     H42440  11.706   6.603   5.947  0.2687 -0.2210 -2.8587
  308MOL0     H42441  11.953   6.579   6.144  0.7476  1.2143 -0.3604
  308MOL0     H42442  11.912   6.723   6.066  0.0387  0.8849  3.1299
  308MOL0     H42443  11.695   6.742   6.186 -1.9236 -1.5279 -0.9495
  308MOL0     H42444  11.734   6.583   6.260  1.3948  0.2979 -0.2734
  308MOL0     H42445  11.944   6.738   6.340 -0.3768 -0.2203 -2.6432
  308MOL0     H42446  11.796   6.709   6.433  2.0238  1.8555  1.3236
  308MOL0     H42447  11.684   6.903   6.359 -0.8712 -0.7967 -1.5730
  308MOL0     H42448  11.842   6.941   6.437 -2.0503  0.6732  0.7083
  308MOL0     H42449  11.775   6.966   6.154 -0.4382  0.7920  0.5441
  308MOL0     H42450  11.940   6.947   6.194  0.0264 -0.5034 -1.6612
  308MOL0     H42451  11.908   7.179   6.340  0.4073 -0.1547 -1.0213
  308MOL0     H42452  11.901   7.179   6.168  2.0740 -2.1941  0.1010
  308MOL0     H42453  11.785   7.409   6.326 -2.0266  2.1310 -2.2372
  308MOL0     H42454  11.467   7.526   6.208 -1.9238 -1.2057  0.0675
  308MOL0     H42455  11.600   7.578   6.304 -1.3600  1.7374 -1.6057
  308MOL0     H42456  11.361   7.416   6.405  3.0751 -1.8327 -2.2600
  308MOL0     H42457  11.481   7.513   6.509  1.2480  6.4798 -0.9043
  308MOL0     H42458  11.390   7.719   6.410 -0.6459 -0.2883 -2.2812
  308MOL0     H42459  11.280   7.611   6.312 -0.4752  0.7685 -0.5872
  308MOL0     H42460  11.138   7.677   6.497  0.9066  1.4625  1.0762
  308MOL0     H42461  11.208   7.516   6.537  2.6636 -0.8170 -3.7972
  308MOL0     H42462  11.368   7.743   6.865  0.8668 -0.7088 -1.4313
  308MOL0     H42463  11.526   8.018   6.931 -0.8474  1.4376  0.6905
  308MOL0     H42464  11.466   7.877   7.014  0.9797  1.6860  1.2593
  308MOL0     H42465  11.390   8.043   7.042 -2.2917  0.6194 -0.9971
  308MOL0     H42466  11.344   8.498   6.538  0.5017 -0.6829  0.7437
  308MOL0     H42467  11.490   8.697   6.504  2.2908  2.7515  1.6702
  308MOL0     H42468  11.694   8.905   6.714  1.9542  1.4508 -2.2479
  308MOL0     H42469  11.692   8.766   6.818 -0.5253  1.9283  0.2958
  308MOL0     H42470  11.939   8.737   6.720  0.1098  0.6964 -5.5683
  308MOL0     H42471  11.926   8.889   6.654 -0.1408 -0.1832  0.7502
  308MOL0     H42472  11.894   8.836   6.951 -3.0246  1.8437  0.4748
  308MOL0     H42473  11.852   8.987   6.886  0.3505  1.3488  0.1636
  308MOL0     H42474  12.109   8.949   6.790 -0.7615  0.3014 -0.3895
  308MOL0     H42475  12.114   8.846   6.946  0.1143 -2.0807 -3.0257
  308MOL0     H42476  12.023   9.051   7.062  0.8729  0.3058  1.1542
  308MOL0     H42477  12.188   9.067   7.006 -0.5613 -0.8493  0.3265
  308MOL0     H42478  11.947   9.201   6.861 -0.3731  0.1597 -1.4982
  308MOL0     H42479  12.113   9.198   6.808 -1.2979  4.0321 -0.5301
  308MOL0     H42480  12.220   9.299   6.971  0.2638  4.8112 -4.4239
  308MOL0     H42481  12.085   9.305   7.084 -2.1264  1.1589 -0.6630
  308MOL0     H42482  12.092   9.438   6.807  0.9243 -0.1357 -0.3022
  308MOL0     H42483  12.124   9.525   6.960 -2.5650  1.7762  0.0495
  308MOL0     H42484  11.767   8.530   6.772 -0.2404 -2.0016  0.4206
  308MOL0     H42485  11.628   8.325   6.798  0.0153 -0.3134  0.0398
  308MOL0     H42486  11.259   8.113   6.570  0.1484 -1.9977 -0.9731
  308MOL0     H42487  11.194   7.891   6.509  0.0424  0.6888 -0.1946
  308MOL0     H42488  11.978   6.130   6.175 -0.6791 -0.4768 -0.5495
  308MOL0     H42489  11.963   6.007   6.384 -0.1116 -0.5631 -0.3653
  308MOL0     H42490  11.899   5.933   6.766  1.3648 -0.0147  1.6351
  308MOL0     H42491  11.969   5.891   6.985 -0.2394 -0.7721 -0.6126
  308MOL0     H42492  11.702   5.872   7.363 -0.2483 -1.2184  0.2450
  308MOL0     H42493  11.655   5.793   7.211 -1.2546  3.8477 -0.6917
  308MOL0     H42494  11.911   5.690   7.308 -0.3247 -0.7248 -1.4504
  308MOL0     H42495  11.771   5.603   7.249  0.4733 -1.7091  1.5307
  308MOL0     H42496  11.652   5.672   7.468 -0.7864  1.2863  0.4760
  308MOL0     H42497  11.789   5.549   7.480  1.3574  0.7748 -1.1923
  308MOL0     H42498  11.803   5.841   7.549 -2.6170  0.5392  0.7463
  308MOL0     H42499  11.943   5.730   7.556 -0.5581  1.3222  0.7181
  308MOL0     H42500  11.704   5.654   7.902 -0.7096 -0.8333  0.4198
  308MOL0     H42501  11.600   5.996   7.136  0.6638 -2.1873  0.0118
  308MOL0     H42502  11.434   6.100   6.984  2.0038 -0.5809  0.5353
  308MOL0     H42503  11.483   6.163   6.826 -1.2116  0.6169 -0.9182
  308MOL0     H42504  11.414   5.998   6.844 -0.1501 -0.5315  0.6066
  309MOL0     O42505   7.448   9.918   5.353  0.4327  0.4353 -1.0380
  309MOL0     C42506   7.413  10.035   5.380  0.2965  0.1345 -1.3917
  309MOL0     O42507   7.460  10.114   5.483 -0.0704  0.1874 -0.2444
  309MOL0     C42508   7.466  10.057   5.603 -0.3592  0.4962  0.1226
  309MOL0     C42509   7.577  10.081   5.672 -0.4992  0.0603  0.6701
  309MOL0     C42510   7.586  10.022   5.801 -0.2336  0.0964 -0.6241
  309MOL0     C42511   7.477   9.954   5.860  0.0376  0.4344 -0.0548
  309MOL0     O42512   7.484   9.907   5.992  0.5186 -0.3559  0.2708
  309MOL0     C42513   7.573   9.978   6.081  0.2300  0.4521 -1.0784
  309MOL0     C42514   7.699   9.897   6.108  0.0260 -0.2863 -0.0644
  309MOL0     C42515   7.658   9.776   6.202 -0.0194  0.1026  0.6269
  309MOL0     C42516   7.777   9.676   6.215 -0.5591  1.1564 -0.4051
  309MOL0     C42517   7.766   9.549   6.310 -0.6677  0.1370 -0.8548
  309MOL0     C42518   7.694   9.590   6.448 -0.3421 -0.0580 -0.2796
  309MOL0     C42519   7.730   9.492   6.561 -0.1193  0.1434  0.1186
  309MOL0     C42520   7.619   9.485   6.670 -0.6489  0.7108 -0.0089
  309MOL0     N42521   7.637   9.374   6.769  0.0338 -0.4956  0.2422
  309MOL0     C42522   7.623   9.239   6.744  0.3333  0.0043  0.2744
  309MOL0     C42523   7.644   9.176   6.859 -0.1606 -0.5191  0.6500
  309MOL0     C42524   7.633   9.028   6.883  0.8913 -0.8724 -0.2904
  309MOL0     C42525   7.763   8.972   6.831  0.4542  0.0838  0.4722
  309MOL0     C42526   7.748   8.817   6.819 -0.2142 -0.4268 -0.2495
  309MOL0     C42527   7.884   8.755   6.783  0.8134  0.2802 -0.4345
  309MOL0     O42528   7.909   8.785   6.640 -0.4815 -0.0437 -0.3306
  309MOL0     C42529   7.935   8.674   6.561  0.4315 -0.1964  0.2867
  309MOL0     C42530   7.886   8.648   6.434  0.9523  0.2261  0.1775
  309MOL0     C42531   7.929   8.536   6.360  0.3077 -0.5012  0.1167
  309MOL0     C42532   7.858   8.518   6.231 -0.5295  0.1258 -0.9390
  309MOL0     C42533   8.026   8.446   6.410 -1.1731  0.0798 -0.3053
  309MOL0     C42534   8.087   8.344   6.320 -0.2337  0.3496 -0.9282
  309MOL0     O42535   8.214   8.293   6.346 -0.1480  0.6411 -0.4493
  309MOL0     C42536   8.220   8.160   6.318 -0.5371  0.4162 -0.3079
  309MOL0     C42537   8.161   8.082   6.413  0.1777  0.4529 -0.2615
  309MOL0     C42538   8.155   7.936   6.404  0.1817 -0.0668 -0.0028
  309MOL0     C42539   8.227   7.875   6.297 -0.0855  0.5328 -0.5646
  309MOL0     O42540   8.250   7.736   6.289  0.6865  0.9978 -0.4011
  309MOL0     C42541   8.346   7.703   6.389  0.2095  0.4021  0.6205
  309MOL0     C42542   8.401   7.556   6.366 -0.5962 -0.0193  0.4839
  309MOL0     C42543   8.483   7.513   6.491  0.0008 -0.2750  0.8215
  309MOL0     C42544   8.574   7.399   6.464 -1.6228 -0.0929 -1.0968
  309MOL0     C42545   8.506   7.258   6.494  0.8307 -1.2635 -0.8630
  309MOL0     C42546   8.584   7.144   6.460 -0.3261  0.3851  0.2731
  309MOL0     C42547   8.716   7.122   6.544  1.1184 -0.2308 -0.0331
  309MOL0     C42548   8.791   7.004   6.492 -0.2661 -0.0215 -0.8799
  309MOL0    Cl42549   8.734   6.842   6.546  0.2843  0.2407 -0.2024
  309MOL0     C42550   8.296   7.959   6.210  0.3138 -0.3309 -1.1688
  309MOL0     C42551   8.298   8.104   6.222 -0.0882  1.1368  0.0453
  309MOL0     O42552   8.004   8.286   6.244  0.2470  0.6737 -0.3496
  309MOL0     C42553   8.074   8.465   6.546 -0.2941  0.3434  0.1244
  309MOL0     C42554   8.028   8.581   6.612 -0.3299  0.2171 -1.0240
  309MOL0     N42555   7.667   9.271   6.957 -0.2761  1.0295  0.5658
  309MOL0     N42556   7.665   9.394   6.900  0.0358  0.4341 -0.2458
  309MOL0     C42557   7.368   9.932   5.784 -0.3077 -0.1920  0.2224
  309MOL0     C42558   7.362   9.983   5.658  0.9490  0.2616  0.7112
  309MOL0     C42559   7.306  10.096   5.298  0.0340 -0.9035  0.7846
  309MOL0     C42560   7.254  10.223   5.327 -0.8068  1.0424 -0.8834
  309MOL0     C42561   7.154  10.283   5.251  0.0276  0.4396  1.0066
  309MOL0     C42562   7.084  10.203   5.152 -0.4839  0.4019 -0.2336
  309MOL0     O42563   6.975  10.259   5.086 -0.5869  0.0524 -0.4199
  309MOL0     C42564   6.953  10.213   4.954  0.5164 -0.1289 -0.1379
  309MOL0     C42565   6.853  10.303   4.875  0.1724  0.6257 -0.2680
  309MOL0     C42566   6.708  10.290   4.926  0.4906 -0.0541  0.5309
  309MOL0     C42567   6.616  10.387   4.844  0.4553 -0.0680  0.4075
  309MOL0     C42568   6.678  10.519   4.823 -0.4374  0.4458  0.0191
  309MOL0     C42569   6.725  10.617   4.772 -0.4828 -0.1843 -0.0856
  309MOL0     C42570   7.141  10.088   5.115 -0.0762  0.0505  0.2017
  309MOL0     C42571   7.250  10.028   5.186  0.2248 -0.7740 -0.2986
  309MOL0     C42572   7.274   9.890   5.153 -0.4635  0.1968  0.4397
  309MOL0     H42573   7.648  10.141   5.615  2.0429 -3.7868 -0.5934
  309MOL0     H42574   7.679  10.025   5.855 -0.6762  0.3036  0.1489
  309MOL0     H42575   7.521   9.986   6.177 -1.4448  1.0136 -1.9965
  309MOL0     H42576   7.598  10.082   6.055  0.1562  0.2575 -1.9512
  309MOL0     H42577   7.739   9.872   6.009 -1.6943 -2.2329 -0.3410
  309MOL0     H42578   7.765   9.972   6.153  0.6526  0.0612 -1.4793
  309MOL0     H42579   7.631   9.805   6.304  0.0694  3.3655 -0.1816
  309MOL0     H42580   7.569   9.719   6.172  0.5500  0.1304 -1.2341
  309MOL0     H42581   7.804   9.645   6.114  1.4160  2.9216 -0.4891
  309MOL0     H42582   7.857   9.740   6.255 -1.2333  2.5992 -1.3019
  309MOL0     H42583   7.861   9.496   6.316 -0.4791  0.6042  0.8545
  309MOL0     H42584   7.689   9.485   6.265 -1.8006 -0.7919  2.1117
  309MOL0     H42585   7.729   9.690   6.474 -2.9905  1.2183 -1.1898
  309MOL0     H42586   7.589   9.585   6.418  0.5524 -0.5275 -3.9045
  309MOL0     H42587   7.822   9.520   6.614  0.3779 -3.4085  1.3932
  309MOL0     H42588   7.742   9.390   6.526  0.6916  0.3352 -0.1953
  309MOL0     H42589   7.631   9.577   6.728  2.3226 -0.2257  1.0236
  309MOL0     H42590   7.523   9.468   6.621 -0.5571 -0.0251  0.0554
  309MOL0     H42591   7.602   9.192   6.648  4.5527 -0.8281 -0.4580
  309MOL0     H42592   7.548   8.991   6.825 -1.0307  1.9000  0.5821
  309MOL0     H42593   7.612   8.995   6.985  1.3626 -0.4133 -0.0423
  309MOL0     H42594   7.783   9.012   6.732  0.1862  1.0993  0.8152
  309MOL0     H42595   7.846   8.989   6.900  1.2790  0.3479 -0.5645
  309MOL0     H42596   7.711   8.774   6.913 -0.9097  0.9196  0.1303
  309MOL0     H42597   7.677   8.788   6.741 -2.2691 -0.1201  1.4055
  309MOL0     H42598   7.969   8.801   6.835  0.5572  0.5001 -0.2064
  309MOL0     H42599   7.883   8.648   6.804  1.9474  0.4570  0.6595
  309MOL0     H42600   7.809   8.712   6.391 -0.6266 -1.2965  0.6243
  309MOL0     H42601   7.930   8.536   6.150  1.5993  1.7820  1.1861
  309MOL0     H42602   7.772   8.585   6.215 -2.8085 -2.3690  0.0013
  309MOL0     H42603   7.816   8.417   6.234 -1.1691  0.4146  0.4172
  309MOL0     H42604   8.124   8.133   6.501 -2.5985 -2.4158  0.3911
  309MOL0     H42605   8.098   7.871   6.469 -1.8322  1.6171  0.0006
  309MOL0     H42606   8.427   7.776   6.390  1.0551 -0.4841 -0.4464
  309MOL0     H42607   8.297   7.705   6.487  1.5420 -2.6200  1.4597
  309MOL0     H42608   8.317   7.487   6.359 -0.5310 -0.0138 -0.6429
  309MOL0     H42609   8.470   7.539   6.283  1.5142  2.7013  1.5353
  309MOL0     H42610   8.417   7.499   6.577  1.3076  2.7097  2.4729
  309MOL0     H42611   8.531   7.606   6.525 -1.5181  0.7552  0.2743
  309MOL0     H42612   8.666   7.410   6.523 -3.0731  3.6690  0.8129
  309MOL0     H42613   8.612   7.402   6.362  1.9342  0.2499  0.0921
  309MOL0     H42614   8.483   7.254   6.601  0.2401  1.3896 -0.8238
  309MOL0     H42615   8.414   7.251   6.434  2.3603 -2.4225 -3.2229
  309MOL0     H42616   8.596   7.153   6.352 -2.5561  0.1976 -0.0297
  309MOL0     H42617   8.513   7.062   6.475  0.2993 -0.2532 -0.1844
  309MOL0     H42618   8.683   7.113   6.647 -0.6056  1.0822 -0.4333
  309MOL0     H42619   8.780   7.211   6.546  1.0036 -0.1646  0.6356
  309MOL0     H42620   8.892   7.007   6.535 -1.3195 -2.5296  2.2455
  309MOL0     H42621   8.792   7.007   6.383  0.5816  3.7332 -0.8931
  309MOL0     H42622   8.348   7.912   6.127 -0.0602  0.2739 -1.7495
  309MOL0     H42623   8.362   8.174   6.169  0.5101  2.3983  2.3110
  309MOL0     H42624   8.148   8.394   6.582 -1.7925  0.4854  3.8249
  309MOL0     H42625   8.084   8.603   6.703 -1.3275 -1.4098  0.0445
  309MOL0     H42626   7.279   9.885   5.825 -1.2203  0.7367 -0.6348
  309MOL0     H42627   7.268   9.966   5.606  0.8925  1.6165  0.3219
  309MOL0     H42628   7.280  10.258   5.427  0.1265 -1.6410 -0.0802
  309MOL0     H42629   7.113  10.382   5.269 -1.8204  0.1411 -1.1060
  309MOL0     H42630   7.049  10.207   4.902  0.2392 -2.2181 -0.4820
  309MOL0     H42631   6.903  10.117   4.970 -1.0783  0.9907  2.1481
  309MOL0     H42632   6.855  10.263   4.773 -3.2683 -0.7806  0.0672
  309MOL0     H42633   6.889  10.406   4.879 -1.1035  1.1907 -1.8280
  309MOL0     H42634   6.675  10.187   4.910  0.2773 -0.0957  1.2208
  309MOL0     H42635   6.711  10.319   5.031  0.6692  1.3462  0.1702
  309MOL0     H42636   6.526  10.392   4.905  2.0078 -2.4006  3.1419
  309MOL0     H42637   6.588  10.342   4.748 -0.3487  0.8329  0.2144
  309MOL0     H42638   6.753  10.716   4.743  0.4119  0.4998  2.8250
  309MOL0     H42639   7.100  10.028   5.034 -1.8355  1.6756 -0.1702
  309MOL0     H42640   7.378   9.861   5.138 -1.2938 -2.5580 -0.4898
  309MOL0     H42641   7.238   9.838   5.243 -0.6575  1.8459  1.3498
  309MOL0     H42642   7.205   9.855   5.076 -1.0836 -1.0082  1.5086
  310MOL0     O42643   2.153   7.737   3.638  0.0878 -0.5173  1.5999
  310MOL0     C42644   2.177   7.625   3.682 -0.3014 -0.4833  0.2464
  310MOL0     O42645   2.133   7.578   3.802 -0.7184  0.1397  0.1946
  310MOL0     C42646   2.061   7.668   3.880  0.8690 -0.0261  0.4907
  310MOL0     C42647   2.138   7.758   3.952 -0.3689  0.4018 -0.5101
  310MOL0     C42648   2.070   7.848   4.029 -0.0416 -0.3354 -0.2241
  310MOL0     C42649   1.928   7.848   4.043  0.1073  0.0003  0.0024
  310MOL0     O42650   1.853   7.938   4.110  0.5229 -0.7452 -0.6529
  310MOL0     C42651   1.902   7.983   4.248  0.2748  0.3290 -0.4238
  310MOL0     C42652   1.954   8.123   4.252  0.7637  0.2689  0.3690
  310MOL0     C42653   1.869   8.231   4.181 -0.0599  0.7626  1.3461
  310MOL0     C42654   1.906   8.377   4.220  1.0554 -1.1968 -0.7286
  310MOL0     C42655   1.832   8.486   4.143  0.1209 -0.5551  0.6265
  310MOL0     C42656   1.882   8.496   3.997 -0.6751  0.2204  0.9171
  310MOL0     C42657   1.844   8.622   3.919 -1.0366 -0.1324 -0.4309
  310MOL0     C42658   1.904   8.620   3.778  0.2575  0.0821  0.2050
  310MOL0     N42659   1.907   8.753   3.723 -0.1544 -0.2708  0.1731
  310MOL0     C42660   2.004   8.843   3.762 -0.6224  0.8849 -0.1328
  310MOL0     C42661   1.963   8.957   3.709  0.0424 -0.7854 -0.0250
  310MOL0     C42662   2.054   9.075   3.697 -0.5649  0.2197  0.8426
  310MOL0     C42663   2.163   9.100   3.798  0.3219 -0.1471 -0.4975
  310MOL0     C42664   2.227   9.234   3.756  0.0361 -0.6438  0.1949
  310MOL0     C42665   2.351   9.251   3.839 -0.9342  0.5152  0.2492
  310MOL0     O42666   2.443   9.176   3.757 -0.3505  0.5958 -0.0348
  310MOL0     C42667   2.574   9.151   3.791 -0.1748 -0.2254  0.2468
  310MOL0     C42668   2.636   9.193   3.909 -0.7195 -0.0164  0.7841
  310MOL0     C42669   2.768   9.151   3.942  1.1437 -0.6949 -0.0846
  310MOL0     C42670   2.823   9.209   4.068 -0.3123  0.5688 -0.8708
  310MOL0     C42671   2.842   9.081   3.848  0.8701  0.0916  0.1902
  310MOL0     C42672   2.979   9.034   3.871  0.0453 -0.4393  0.4830
  310MOL0     O42673   3.057   9.042   3.762 -0.6919 -0.4425  0.2921
  310MOL0     C42674   3.198   9.028   3.774 -0.0071 -0.2081 -0.1018
  310MOL0     C42675   3.269   9.011   3.659  0.0679  0.5529 -0.4236
  310MOL0     C42676   3.410   9.019   3.663 -0.2298  0.0445  0.1913
  310MOL0     C42677   3.483   9.026   3.783  0.0151 -0.6759  0.9430
  310MOL0     O42678   3.622   9.011   3.770  0.6816 -0.6597  0.4759
  310MOL0     C42679   3.673   8.898   3.840 -0.2992 -0.0426 -0.1637
  310MOL0     C42680   3.778   8.825   3.759  0.5994 -0.5819 -0.9194
  310MOL0     C42681   3.890   8.919   3.737 -0.3834 -0.1820  0.4268
  310MOL0     C42682   3.957   8.881   3.601 -0.6866 -0.7100 -0.6289
  310MOL0     C42683   4.063   8.778   3.630 -0.1350  0.2104 -0.6106
  310MOL0     C42684   4.169   8.778   3.518  0.4144  0.3848 -0.5294
  310MOL0     C42685   4.091   8.762   3.382 -0.0548 -0.3243  0.3989
  310MOL0     C42686   4.194   8.715   3.273 -0.4038 -0.4555 -0.8221
  310MOL0    Cl42687   4.305   8.853   3.228 -0.1306 -0.2404 -0.3675
  310MOL0     C42688   3.411   9.050   3.903  0.1648 -0.3856  0.5322
  310MOL0     C42689   3.274   9.058   3.894  0.0894  0.4977 -0.9311
  310MOL0     O42690   3.010   8.985   3.976 -0.0296 -0.1609 -0.0393
  310MOL0     C42691   2.774   9.051   3.727 -0.1145 -0.2850 -0.2023
  310MOL0     C42692   2.642   9.083   3.699 -0.4485 -0.8307  0.4667
  310MOL0     N42693   1.837   8.943   3.648 -0.6135 -0.1190 -0.2535
  310MOL0     N42694   1.803   8.823   3.657 -0.0774 -0.1281 -0.0921
  310MOL0     C42695   1.863   7.748   3.975 -0.2088 -0.5553 -0.1773
  310MOL0     C42696   1.923   7.662   3.884 -0.0211  0.4119 -0.3206
  310MOL0     C42697   2.269   7.539   3.599 -0.1733  0.5872 -0.6531
  310MOL0     C42698   2.310   7.580   3.466  0.3677 -0.3195  0.0099
  310MOL0     C42699   2.382   7.494   3.382  1.0193  0.4303  0.2790
  310MOL0     C42700   2.432   7.374   3.429  0.7833 -0.1863 -0.6700
  310MOL0     O42701   2.504   7.297   3.341  0.1092  0.0383  0.4144
  310MOL0     C42702   2.580   7.193   3.400 -0.6446  0.0241 -0.7450
  310MOL0     C42703   2.673   7.124   3.305  0.5122  0.0011 -0.4074
  310MOL0     C42704   2.811   7.192   3.336 -0.2924  0.1651 -0.1694
  310MOL0     C42705   2.901   7.121   3.438  0.1773 -0.2364 -0.7962
  310MOL0     C42706   3.043   7.144   3.412 -0.5153 -0.6511 -0.1273
  310MOL0     C42707   3.161   7.166   3.385  0.1752  0.5748  0.5537
  310MOL0     C42708   2.405   7.340   3.565 -1.0728  0.5132  0.0244
  310MOL0     C42709   2.333   7.420   3.649  0.3474 -1.3166 -1.0020
  310MOL0     C42710   2.330   7.380   3.793  0.0584  0.5589 -0.6453
  310MOL0     H42711   2.244   7.771   3.935 -0.5436  0.6584 -1.4831
  310MOL0     H42712   2.122   7.927   4.082  1.4156 -1.4315  0.0326
  310MOL0     H42713   1.978   7.918   4.292  0.6758  0.7756 -0.4517
  310MOL0     H42714   1.811   7.975   4.309  0.2421 -1.9669 -0.6797
  310MOL0     H42715   1.962   8.145   4.358  1.4350 -3.8324  1.3113
  310MOL0     H42716   2.055   8.130   4.210  1.2289 -0.1766  1.3834
  310MOL0     H42717   1.872   8.217   4.073 -0.3748 -1.2278  1.5522
  310MOL0     H42718   1.764   8.224   4.213 -0.7014 -2.4477 -0.9397
  310MOL0     H42719   1.887   8.384   4.327  1.7643 -0.4573 -0.6449
  310MOL0     H42720   2.012   8.388   4.195  0.5759 -0.7701 -2.7639
  310MOL0     H42721   1.831   8.577   4.203 -1.0907 -0.1453  0.0173
  310MOL0     H42722   1.725   8.465   4.147 -0.1782  0.9952  3.0821
  310MOL0     H42723   1.991   8.489   3.992 -0.6237  1.3644  0.2466
  310MOL0     H42724   1.855   8.413   3.932  1.0838  1.7855 -2.0000
  310MOL0     H42725   1.863   8.713   3.977  1.7077 -0.3069 -0.9338
  310MOL0     H42726   1.735   8.628   3.908 -1.2286 -0.8831  0.8526
  310MOL0     H42727   2.005   8.578   3.771 -0.1564 -1.0264  0.7817
  310MOL0     H42728   1.841   8.562   3.710 -0.1538  1.0250 -0.2456
  310MOL0     H42729   2.094   8.825   3.819 -0.4928  0.8042 -0.3605
  310MOL0     H42730   1.998   9.169   3.702 -1.1584 -0.1634  1.5719
  310MOL0     H42731   2.109   9.069   3.603  0.4378 -1.1748  1.4836
  310MOL0     H42732   2.112   9.110   3.894  0.7714  1.5459 -0.4113
  310MOL0     H42733   2.240   9.022   3.793  0.0962 -0.3761 -0.3994
  310MOL0     H42734   2.250   9.250   3.651 -0.5303  0.7318  0.2456
  310MOL0     H42735   2.152   9.308   3.789 -2.1754 -3.7211  2.6851
  310MOL0     H42736   2.388   9.353   3.824  4.3191 -0.9240  1.4048
  310MOL0     H42737   2.340   9.218   3.943 -1.1150 -1.1166 -0.2658
  310MOL0     H42738   2.578   9.251   3.979 -0.2031 -2.4654  3.4302
  310MOL0     H42739   2.801   9.316   4.081 -0.1203  0.3691  1.6750
  310MOL0     H42740   2.932   9.203   4.082 -0.8254 -1.9497  4.0884
  310MOL0     H42741   2.783   9.149   4.149 -0.6696 -0.8188 -2.0382
  310MOL0     H42742   3.217   8.974   3.571 -2.4638  1.3747  0.6410
  310MOL0     H42743   3.463   8.999   3.570  0.2659 -0.9756  0.6780
  310MOL0     H42744   3.712   8.926   3.938  1.7748 -0.2459 -0.8958
  310MOL0     H42745   3.595   8.823   3.860 -1.4941  1.6557  2.1033
  310MOL0     H42746   3.809   8.735   3.812 -1.6936 -0.2730  1.1112
  310MOL0     H42747   3.717   8.801   3.671 -2.2403 -1.9730  1.2867
  310MOL0     H42748   3.951   8.921   3.828  1.4291  1.2554 -0.7561
  310MOL0     H42749   3.866   9.025   3.720  2.9463  1.2130  3.1830
  310MOL0     H42750   4.016   8.965   3.563  1.6174 -1.1914  1.6257
  310MOL0     H42751   3.889   8.853   3.520 -0.1582 -3.0780 -0.3259
  310MOL0     H42752   4.106   8.793   3.729  0.4601  0.0416 -0.8432
  310MOL0     H42753   4.010   8.682   3.631  0.6662 -0.2648 -1.6786
  310MOL0     H42754   4.229   8.692   3.549 -0.3202  0.3493  0.8942
  310MOL0     H42755   4.226   8.872   3.518 -0.2404  0.8211  0.9363
  310MOL0     H42756   4.034   8.851   3.353 -4.4929 -2.4302  1.7565
  310MOL0     H42757   4.014   8.686   3.400 -1.8086  0.7593 -2.0398
  310MOL0     H42758   4.145   8.686   3.180  3.6937  1.7624 -3.9843
  310MOL0     H42759   4.245   8.627   3.315 -0.6983 -0.7309 -1.0343
  310MOL0     H42760   3.466   9.075   3.993  1.0253  0.6838 -0.2579
  310MOL0     H42761   3.222   9.092   3.982  1.6515 -3.4549  1.8147
  310MOL0     H42762   2.819   9.007   3.639 -1.6207  1.1817 -1.7963
  310MOL0     H42763   2.604   9.037   3.608  2.6014 -0.7054 -0.9738
  310MOL0     H42764   1.757   7.751   3.997 -0.5714 -0.2055 -1.9027
  310MOL0     H42765   1.871   7.590   3.822 -0.5232 -1.4936  2.1698
  310MOL0     H42766   2.286   7.676   3.423  2.6862  1.5628  2.6085
  310MOL0     H42767   2.406   7.520   3.279  0.9987 -0.2146  0.1055
  310MOL0     H42768   2.627   7.229   3.493  0.9177 -1.3942 -0.9437
  310MOL0     H42769   2.510   7.121   3.444 -2.6633  1.7361 -0.9638
  310MOL0     H42770   2.639   7.130   3.201  0.6882 -1.2803 -0.5543
  310MOL0     H42771   2.666   7.022   3.344 -0.9440  1.1578  2.7179
  310MOL0     H42772   2.862   7.183   3.239  0.8317  0.4887  0.3791
  310MOL0     H42773   2.797   7.297   3.359 -1.6824  0.1863 -1.0037
  310MOL0     H42774   2.883   7.014   3.428 -0.6492 -0.1759 -0.1166
  310MOL0     H42775   2.870   7.148   3.539 -0.0808 -0.7130 -0.7482
  310MOL0     H42776   3.262   7.182   3.351  0.2671  1.1772  1.0855
  310MOL0     H42777   2.449   7.252   3.609 -1.7990 -0.6748 -1.5079
  310MOL0     H42778   2.344   7.457   3.869 -0.7409 -2.0253  2.2942
  310MOL0     H42779   2.235   7.333   3.821  0.3831 -0.8238 -1.7617
  310MOL0     H42780   2.410   7.308   3.810 -0.8707 -0.0471  1.4003
  311MOL0     O42781   6.709   3.774   0.806  0.1454 -0.1321  0.3087
  311MOL0     C42782   6.663   3.749   0.918 -0.6313 -1.0450 -0.4458
  311MOL0     O42783   6.552   3.672   0.941 -0.0278 -0.3576  0.8770
  311MOL0     C42784   6.505   3.590   0.840  0.9463  0.2602  0.5558
  311MOL0     C42785   6.420   3.632   0.741 -0.1215 -0.6636  0.4839
  311MOL0     C42786   6.373   3.539   0.645 -0.2282 -0.9823 -0.2770
  311MOL0     C42787   6.425   3.410   0.638  0.1411  0.2400 -0.2390
  311MOL0     O42788   6.377   3.310   0.568 -0.1086 -0.2751  0.7837
  311MOL0     C42789   6.346   3.326   0.420 -1.2684 -0.3475 -1.2660
  311MOL0     C42790   6.235   3.226   0.381 -0.0158  0.4727  0.8908
  311MOL0     C42791   6.214   3.208   0.229  1.0017 -0.0705  0.4521
  311MOL0     C42792   6.119   3.094   0.207  0.0080  0.0556  0.5303
  311MOL0     C42793   6.056   3.102   0.060  0.1224 -0.3165 -1.0592
  311MOL0     C42794   5.917   3.046   0.057 -0.5145 -0.4247 -0.2395
  311MOL0     C42795   5.899   2.903   0.100  0.2150  0.4086 -0.5165
  311MOL0     C42796   5.746   2.871   0.086 -0.9274 -0.2509 -0.4859
  311MOL0     N42797   5.677   2.945   0.195 -0.1975  0.2135 -1.2342
  311MOL0     C42798   5.690   2.920   0.330 -0.4931 -0.0800 -0.5628
  311MOL0     C42799   5.628   3.020   0.395 -0.0533 -0.6948 -0.9759
  311MOL0     C42800   5.602   3.048   0.537  1.3677  0.1020  0.5586
  311MOL0     C42801   5.669   3.178   0.582  0.8452 -0.0408 -0.4439
  311MOL0     C42802   5.811   3.207   0.541  0.0140  0.4645  0.9417
  311MOL0     C42803   5.911   3.084   0.556 -0.5598 -0.0355  0.9059
  311MOL0     O42804   5.866   3.016   0.677 -0.4944 -0.1191 -0.9276
  311MOL0     C42805   5.928   3.060   0.802  0.1090  0.1636  1.0467
  311MOL0     C42806   6.013   3.172   0.820 -0.5679 -0.2777  0.6033
  311MOL0     C42807   6.078   3.207   0.942 -0.6346 -0.1936  0.1998
  311MOL0     C42808   6.180   3.317   0.935  0.1420  0.2836  1.0276
  311MOL0     C42809   6.058   3.127   1.055  0.0098  0.1152 -0.8049
  311MOL0     C42810   6.113   3.156   1.189  0.0330 -0.1002 -0.5767
  311MOL0     O42811   6.201   3.070   1.251  0.4260  0.4377  0.5000
  311MOL0     C42812   6.260   3.103   1.372 -0.0478  0.0790  0.2088
  311MOL0     C42813   6.295   2.993   1.453 -0.8042  0.7950  0.5430
  311MOL0     C42814   6.347   3.017   1.577 -0.8568  0.1653  0.0387
  311MOL0     C42815   6.376   3.145   1.621 -1.1612 -1.6204 -0.2148
  311MOL0     O42816   6.412   3.156   1.753 -0.2211  0.2320 -0.3832
  311MOL0     C42817   6.508   3.257   1.772  0.1588  0.2069  0.1654
  311MOL0     C42818   6.595   3.209   1.887 -0.6023 -0.1639 -0.1594
  311MOL0     C42819   6.726   3.297   1.903  0.0537  0.1134  0.2103
  311MOL0     C42820   6.795   3.284   2.049  0.6359  0.4619 -0.2537
  311MOL0     C42821   6.921   3.365   2.047 -0.0013 -0.1299 -0.9976
  311MOL0     C42822   7.041   3.291   1.988 -0.7424  0.0736 -0.3261
  311MOL0     C42823   7.096   3.175   2.073 -0.3906 -0.3003  0.0120
  311MOL0     C42824   7.255   3.160   2.054  0.3027 -0.0120 -0.0851
  311MOL0    Cl42825   7.318   3.006   2.138  0.2263  0.0578 -0.2789
  311MOL0     C42826   6.362   3.256   1.524  0.1447 -0.4814  0.0064
  311MOL0     C42827   6.303   3.233   1.406  0.5492  0.0901 -0.2825
  311MOL0     O42828   6.084   3.267   1.219 -0.4634  0.1593  0.1492
  311MOL0     C42829   5.976   3.017   1.042 -0.5827 -1.1607 -0.1672
  311MOL0     C42830   5.913   2.986   0.914  0.1791  1.2417 -0.9170
  311MOL0     N42831   5.565   3.093   0.296  0.0876  0.3424 -0.2014
  311MOL0     N42832   5.592   3.045   0.177 -0.3186 -0.1860  0.1155
  311MOL0     C42833   6.521   3.374   0.740 -0.4344 -0.0809  0.3768
  311MOL0     C42834   6.557   3.458   0.838 -0.6834  0.5968 -0.6566
  311MOL0     C42835   6.725   3.812   1.042  0.2141 -0.5879 -0.2737
  311MOL0     C42836   6.641   3.824   1.155 -0.5201  0.3170  0.7867
  311MOL0     C42837   6.673   3.881   1.276  0.5473 -1.6789 -0.5073
  311MOL0     C42838   6.804   3.936   1.296  0.4272 -0.1218 -0.0233
  311MOL0     O42839   6.833   4.005   1.406 -0.6560 -0.7430 -0.1969
  311MOL0     C42840   6.956   3.963   1.476 -0.0351  0.1236  0.1409
  311MOL0     C42841   6.933   3.994   1.618 -0.0317  0.2678 -0.8475
  311MOL0     C42842   6.816   3.936   1.686  0.4140 -0.0630 -0.1852
  311MOL0     C42843   6.837   3.938   1.837  0.2572 -1.0299  0.1726
  311MOL0     C42844   6.810   4.070   1.903  0.3015 -0.0990  0.3316
  311MOL0     C42845   6.778   4.170   1.974 -0.0587 -0.5353  0.2325
  311MOL0     C42846   6.889   3.920   1.179 -0.8872 -0.0188 -0.8923
  311MOL0     C42847   6.855   3.863   1.060 -0.7867  0.1002  0.6422
  311MOL0     C42848   6.962   3.870   0.954  0.0427 -0.0317  0.2010
  311MOL0     H42849   6.385   3.735   0.733  1.4511  0.0462  2.1202
  311MOL0     H42850   6.293   3.568   0.577 -0.9621 -1.2011  0.4772
  311MOL0     H42851   6.439   3.298   0.370  0.5485  2.5124  0.2459
  311MOL0     H42852   6.340   3.430   0.384  0.0169 -0.0786 -0.7532
  311MOL0     H42853   6.241   3.126   0.427 -5.5015 -0.5310  0.0741
  311MOL0     H42854   6.146   3.268   0.428  0.0876  0.2253  1.3165
  311MOL0     H42855   6.157   3.292   0.188 -4.5765 -3.0513  1.0789
  311MOL0     H42856   6.300   3.197   0.162 -0.7155 -0.0166 -1.8910
  311MOL0     H42857   6.173   2.998   0.208  1.1213  0.6661  0.7427
  311MOL0     H42858   6.041   3.094   0.283  0.1167  0.0884  0.6413
  311MOL0     H42859   6.128   3.061  -0.012  0.3130  2.0372 -2.3295
  311MOL0     H42860   6.049   3.207   0.031  2.5972  0.0043 -0.6783
  311MOL0     H42861   5.851   3.111   0.116  3.0345  0.8551  2.7150
  311MOL0     H42862   5.881   3.065  -0.045 -1.8863  1.2038  0.4941
  311MOL0     H42863   5.919   2.896   0.208 -3.1443 -1.4056  0.1056
  311MOL0     H42864   5.968   2.829   0.059  2.7577  1.7748  0.9841
  311MOL0     H42865   5.721   2.925  -0.006 -0.7094 -0.0831 -0.4466
  311MOL0     H42866   5.729   2.763   0.081 -1.9087 -0.2416  1.4978
  311MOL0     H42867   5.749   2.839   0.373 -1.4601 -1.4555 -1.7395
  311MOL0     H42868   5.638   2.969   0.605  0.3682  0.8115  1.9755
  311MOL0     H42869   5.494   3.051   0.553  1.3646 -0.2455  0.6183
  311MOL0     H42870   5.607   3.265   0.558  1.2884  0.7315  1.0833
  311MOL0     H42871   5.668   3.178   0.692 -0.7416 -0.9723 -0.4209
  311MOL0     H42872   5.811   3.237   0.436 -0.8914 -0.8348  0.5434
  311MOL0     H42873   5.845   3.289   0.605  2.2359  1.1128 -0.9377
  311MOL0     H42874   5.900   3.014   0.473  1.7980  1.0024 -0.3532
  311MOL0     H42875   6.011   3.124   0.572 -0.9811  0.6886  1.8537
  311MOL0     H42876   6.018   3.245   0.740 -0.3494  2.5512  3.0077
  311MOL0     H42877   6.283   3.290   0.959  0.3489  0.5354  0.4456
  311MOL0     H42878   6.167   3.399   1.006  4.0704  2.8937 -0.9043
  311MOL0     H42879   6.188   3.348   0.830 -0.1895  0.6152  1.0963
  311MOL0     H42880   6.285   2.887   1.432  1.0818  0.9624 -1.5951
  311MOL0     H42881   6.373   2.932   1.639  0.2683 -1.1984 -2.1650
  311MOL0     H42882   6.567   3.273   1.682 -3.4897  0.7863 -2.3109
  311MOL0     H42883   6.451   3.347   1.796  1.4485  0.8520  0.8639
  311MOL0     H42884   6.531   3.211   1.975 -0.1723 -1.5255  0.1946
  311MOL0     H42885   6.626   3.105   1.871  1.5486  0.4447 -0.3521
  311MOL0     H42886   6.703   3.404   1.898 -1.9668 -0.2978  0.0027
  311MOL0     H42887   6.797   3.275   1.823 -0.9133 -3.9189  0.2679
  311MOL0     H42888   6.816   3.180   2.076  3.9055  2.2600  5.9984
  311MOL0     H42889   6.726   3.321   2.125 -3.3645 -2.3081 -2.1733
  311MOL0     H42890   6.903   3.457   1.990  0.5326  0.0155 -0.9358
  311MOL0     H42891   6.957   3.392   2.146 -1.1055 -0.6412 -0.4359
  311MOL0     H42892   7.119   3.366   1.975  1.7656 -2.3837 -0.2751
  311MOL0     H42893   7.022   3.263   1.884  2.0846 -0.9075 -0.6724
  311MOL0     H42894   7.045   3.088   2.033  3.3436 -0.8285 -4.4761
  311MOL0     H42895   7.071   3.191   2.179  0.2451 -3.2023  0.6955
  311MOL0     H42896   7.310   3.250   2.082  1.0236  0.1356 -1.8480
  311MOL0     H42897   7.276   3.139   1.948  2.5419  2.5826 -0.2451
  311MOL0     H42898   6.396   3.358   1.540 -1.9031  0.1276  0.7019
  311MOL0     H42899   6.285   3.313   1.335  1.7358 -1.0486 -1.9298
  311MOL0     H42900   5.965   2.949   1.125 -0.7089  1.8021  2.4532
  311MOL0     H42901   5.854   2.895   0.912  1.9721  0.0189 -0.8128
  311MOL0     H42902   6.566   3.275   0.737  0.0439  0.1541 -0.3684
  311MOL0     H42903   6.639   3.419   0.897  0.1275  3.4366  0.2324
  311MOL0     H42904   6.542   3.784   1.141 -1.0010  1.1798  1.6026
  311MOL0     H42905   6.593   3.883   1.349 -1.2559 -5.8032 -2.0750
  311MOL0     H42906   6.984   3.859   1.457 -0.8516 -0.2486  0.9040
  311MOL0     H42907   7.038   4.016   1.427 -0.6557  2.2336  1.2407
  311MOL0     H42908   6.916   4.101   1.627 -0.7739  0.0847  0.1743
  311MOL0     H42909   7.021   3.962   1.674  1.4836  3.1408 -1.4118
  311MOL0     H42910   6.730   4.002   1.667 -0.4007 -1.2090 -0.5853
  311MOL0     H42911   6.799   3.834   1.651 -0.1400  0.3584 -1.2166
  311MOL0     H42912   6.935   3.898   1.866  1.5732  2.4212  0.9469
  311MOL0     H42913   6.759   3.874   1.881  1.1443 -0.7419  2.3325
  311MOL0     H42914   6.746   4.258   2.027 -3.7573 -0.1876 -2.1744
  311MOL0     H42915   6.990   3.953   1.202 -0.4094 -1.2882 -1.0794
  311MOL0     H42916   6.928   3.909   0.858 -0.7455  3.2131  1.6627
  311MOL0     H42917   7.049   3.927   0.989 -1.1259  1.8515  0.1777
  311MOL0     H42918   6.993   3.767   0.933  1.5990  0.8686 -2.3103
  312MOL0     O42919   0.024  11.443   7.034 -0.5396  0.0105  0.7553
  312MOL0     C42920   0.021  11.342   6.956  0.6915  0.5181 -1.0395
  312MOL0     O42921   0.124  11.284   6.901 -0.6436 -0.7175  0.2997
  312MOL0     C42922   0.225  11.364   6.849  0.6635  0.6415  0.5791
  312MOL0     C42923   0.254  11.356   6.708 -0.3214  0.1505 -0.3405
  312MOL0     C42924   0.354  11.436   6.650  0.4321 -1.0490 -0.1890
  312MOL0     C42925   0.416  11.538   6.726  0.8384  0.4973  0.5047
  312MOL0     O42926   0.493  11.624   6.657  0.1760 -0.5501 -0.5729
  312MOL0     C42927   0.556  11.728   6.729 -1.1834 -0.5822 -0.1044
  312MOL0     C42928   0.621  11.821   6.621  0.4444  0.9074 -0.6100
  312MOL0     C42929   0.528  11.935   6.578 -0.1705  0.7109  0.2381
  312MOL0     C42930   0.408  11.901   6.500 -0.6453  0.0412 -0.3019
  312MOL0     C42931   0.306  12.010   6.485 -0.9608  0.0798  0.8406
  312MOL0     C42932   0.171  11.953   6.418  0.0567 -0.9352 -0.8353
  312MOL0     C42933   0.189  11.873   6.291 -1.2990 -0.1357  0.4469
  312MOL0     C42934   0.058  11.838   6.220 -0.5811  1.5186  0.2585
  312MOL0     N42935  -0.003  11.978   6.178  0.0083  0.8241  0.6244
  312MOL0     C42936  -0.011  12.012   6.039  0.0866  0.5514  0.2685
  312MOL0     C42937  -0.119  12.089   6.033  0.8709  0.3327 -0.0215
  312MOL0     C42938  -0.160  12.152   5.902 -1.0808 -1.0226  0.0450
  312MOL0     C42939  -0.309  12.106   5.869 -0.0484 -1.1073 -0.2032
  312MOL0     C42940  -0.317  11.959   5.847  1.1899 -0.4288 -0.7991
  312MOL0     C42941  -0.452  11.914   5.790 -0.3199 -0.1483 -0.2309
  312MOL0     O42942  -0.564  11.944   5.876  0.0161  0.7721 -0.1554
  312MOL0     C42943  -0.694  11.922   5.826  0.2600  0.2866  0.2769
  312MOL0     C42944  -0.724  11.881   5.697  0.4145 -0.3801  0.6740
  312MOL0     C42945  -0.857  11.876   5.651 -0.2377  0.5289 -0.1056
  312MOL0     C42946  -0.876  11.847   5.507  0.0034 -0.5751  0.6179
  312MOL0     C42947  -0.964  11.905   5.737 -0.4889 -0.4051  0.0982
  312MOL0     C42948  -1.108  11.884   5.707 -0.0508 -0.0869  1.2859
  312MOL0     O42949  -1.201  11.944   5.789  0.4469 -0.0773 -0.2576
  312MOL0     C42950  -1.340  11.924   5.756  0.4119  0.0212  0.5586
  312MOL0     C42951  -1.390  11.963   5.622  0.2986 -0.4410  0.3992
  312MOL0     C42952  -1.530  11.961   5.598  0.4152 -0.3037  0.0872
  312MOL0     C42953  -1.615  11.907   5.689  1.0115 -0.3741  0.1354
  312MOL0     O42954  -1.752  11.908   5.664  0.2224 -0.2704  0.4811
  312MOL0     C42955  -1.840  11.813   5.729  0.2090 -0.2229  1.3419
  312MOL0     C42956  -1.978  11.870   5.779 -0.8141  0.6335  0.2182
  312MOL0     C42957  -2.079  11.946   5.683  0.3246  0.5807  0.9455
  312MOL0     C42958  -2.140  11.833   5.596  0.5173 -0.6584 -0.6043
  312MOL0     C42959  -2.181  11.874   5.454 -0.2968 -0.0359 -0.5789
  312MOL0     C42960  -2.242  11.753   5.370 -1.1017 -0.9082  0.5409
  312MOL0     C42961  -2.208  11.769   5.223 -0.0559 -0.6539  0.0109
  312MOL0     C42962  -2.285  11.671   5.132 -0.4972 -0.1795  0.2385
  312MOL0    Cl42963  -2.254  11.494   5.176 -0.1671  0.0171  0.4468
  312MOL0     C42964  -1.557  11.881   5.820  0.4268  0.4908  0.0144
  312MOL0     C42965  -1.421  11.883   5.856 -0.0584 -0.5245 -1.2198
  312MOL0     O42966  -1.134  11.803   5.608  0.0120 -0.1242 -0.3724
  312MOL0     C42967  -0.936  11.954   5.865  0.2232  0.9510  1.0614
  312MOL0     C42968  -0.800  11.964   5.910 -1.0794  0.7982 -0.3606
  312MOL0     N42969  -0.169  12.094   6.168 -0.7941  0.7167 -0.8592
  312MOL0     N42970  -0.100  12.028   6.258  0.7332  0.1013 -0.0385
  312MOL0     C42971   0.387  11.543   6.867  0.2160 -0.1791 -0.5386
  312MOL0     C42972   0.296  11.463   6.923  0.0117 -0.8080  0.0826
  312MOL0     C42973  -0.095  11.252   6.972 -0.0496  0.5555  0.0974
  312MOL0     C42974  -0.070  11.117   7.007 -0.4934  0.2496  0.0565
  312MOL0     C42975  -0.168  11.020   7.022 -0.3531  0.7848  0.5111
  312MOL0     C42976  -0.304  11.069   7.025 -0.2832 -1.0401 -0.0899
  312MOL0     O42977  -0.413  10.998   7.052 -0.1188  0.3042  0.8878
  312MOL0     C42978  -0.410  10.857   7.054 -0.1407 -0.0889  0.9448
  312MOL0     C42979  -0.557  10.821   7.084 -0.0048 -0.2267 -0.1967
  312MOL0     C42980  -0.669  10.907   7.012 -0.2842  0.4005 -0.2049
  312MOL0     C42981  -0.709  11.020   7.098  0.1655 -1.2308  0.0902
  312MOL0     C42982  -0.832  11.073   7.033 -0.5255 -0.4967 -0.1889
  312MOL0     C42983  -0.927  11.123   6.975  0.1624 -1.1049  0.3770
  312MOL0     C42984  -0.333  11.208   6.999 -0.5832 -0.3884 -0.6162
  312MOL0     C42985  -0.229  11.299   6.966  0.3684  1.1622 -1.0387
  312MOL0     C42986  -0.263  11.447   6.951  0.1052  0.8380 -0.2002
  312MOL0     H42987   0.200  11.284   6.647 -0.1003 -0.9018  0.6545
  312MOL0     H42988   0.363  11.421   6.543 -5.3698  0.6124 -1.2797
  312MOL0     H42989   0.631  11.686   6.797 -3.2891 -2.2564  1.3140
  312MOL0     H42990   0.492  11.791   6.792  0.3820  1.6589 -0.6403
  312MOL0     H42991   0.720  11.845   6.661 -0.0273 -1.4665  2.4027
  312MOL0     H42992   0.648  11.767   6.530  2.1172  0.9695 -0.1816
  312MOL0     H42993   0.501  11.990   6.668 -0.9360 -1.5958  1.4863
  312MOL0     H42994   0.590  11.988   6.504 -0.6047  0.7531 -0.1006
  312MOL0     H42995   0.423  11.863   6.398 -1.3396  0.7721 -0.6931
  312MOL0     H42996   0.360  11.818   6.553 -0.4087  1.9112  3.0706
  312MOL0     H42997   0.340  12.094   6.424  1.7690 -1.5228 -0.0180
  312MOL0     H42998   0.269  12.042   6.583  1.8984  2.6025  1.2352
  312MOL0     H42999   0.119  11.889   6.490 -2.4662 -0.9604 -2.5649
  312MOL0     H43000   0.106  12.041   6.419 -0.6611 -1.4466 -1.6609
  312MOL0     H43001   0.247  11.782   6.308 -0.7944  0.3207  1.2358
  312MOL0     H43002   0.259  11.923   6.224 -1.4222  0.1706  0.5480
  312MOL0     H43003   0.077  11.770   6.137 -1.1649 -1.5847  2.4898
  312MOL0     H43004   0.009  11.777   6.296  0.9979 -2.6729 -1.7701
  312MOL0     H43005   0.049  11.977   5.956 -1.5608  2.6370 -1.9720
  312MOL0     H43006  -0.095  12.133   5.815 -1.0145 -2.8970  0.4690
  312MOL0     H43007  -0.133  12.253   5.934 -0.1642 -0.9459 -0.8959
  312MOL0     H43008  -0.382  12.136   5.944 -0.5074  3.3360 -2.1144
  312MOL0     H43009  -0.344  12.155   5.778  0.4743 -1.3965 -0.5650
  312MOL0     H43010  -0.231  11.931   5.785 -0.8957 -0.0394 -4.1036
  312MOL0     H43011  -0.296  11.918   5.946  0.3546  0.3373 -0.2898
  312MOL0     H43012  -0.466  11.957   5.690  0.6394 -1.7139 -1.0959
  312MOL0     H43013  -0.453  11.805   5.775  1.7761 -0.3432  0.7129
  312MOL0     H43014  -0.648  11.872   5.620 -1.7708  2.4718 -2.0788
  312MOL0     H43015  -0.927  11.751   5.497 -0.4345 -0.1631 -2.0210
  312MOL0     H43016  -0.778  11.838   5.459  0.3139 -1.2717  1.3619
  312MOL0     H43017  -0.934  11.927   5.460 -1.4662 -0.4086  2.6349
  312MOL0     H43018  -1.329  12.001   5.541  1.0345  0.7406  1.4692
  312MOL0     H43019  -1.561  11.976   5.495  1.9649 -0.6102 -0.4556
  312MOL0     H43020  -1.856  11.741   5.648 -1.2667 -0.0657  1.4768
  312MOL0     H43021  -1.784  11.764   5.809  3.5637 -2.5500 -2.0518
  312MOL0     H43022  -2.013  11.782   5.833 -0.5992  1.2610  1.4317
  312MOL0     H43023  -1.956  11.941   5.860 -1.1213 -0.0472  0.9138
  312MOL0     H43024  -2.013  12.015   5.630  0.2729  0.4643  0.7257
  312MOL0     H43025  -2.155  12.001   5.739 -1.0350  2.0304 -2.1085
  312MOL0     H43026  -2.216  11.770   5.642 -0.7461  0.6479 -0.8505
  312MOL0     H43027  -2.059  11.760   5.585  2.2604  1.5318 -4.6352
  312MOL0     H43028  -2.246  11.962   5.454 -1.3302 -0.5743 -4.8385
  312MOL0     H43029  -2.095  11.914   5.399  0.7360 -1.9610 -0.4582
  312MOL0     H43030  -2.350  11.747   5.388 -1.3424  2.0697  0.5465
  312MOL0     H43031  -2.195  11.663   5.412 -0.6647 -0.4474  1.0447
  312MOL0     H43032  -2.101  11.747   5.215 -0.4524 -1.9747 -3.2009
  312MOL0     H43033  -2.216  11.869   5.181  0.5301 -1.0234 -1.0180
  312MOL0     H43034  -2.272  11.699   5.027  2.4946  3.6985  1.3741
  312MOL0     H43035  -2.390  11.694   5.150 -0.1913  0.7294  0.9495
  312MOL0     H43036  -1.629  11.851   5.896 -0.5873  0.2016 -1.0202
  312MOL0     H43037  -1.387  11.874   5.959 -2.0149 -1.4576 -0.6025
  312MOL0     H43038  -1.019  11.979   5.930 -2.4600 -1.2522 -1.2709
  312MOL0     H43039  -0.775  12.011   6.005  0.2155 -0.3427 -0.1067
  312MOL0     H43040   0.439  11.618   6.926 -1.6615  3.6182 -3.2852
  312MOL0     H43041   0.279  11.476   7.029  0.8598 -2.1122  0.4121
  312MOL0     H43042   0.035  11.093   7.017 -0.2158  0.0670 -2.5763
  312MOL0     H43043  -0.138  10.917   7.038  0.7493  1.0762  0.3805
  312MOL0     H43044  -0.374  10.819   6.959  0.8314  0.3544  1.1256
  312MOL0     H43045  -0.342  10.815   7.128  0.6012 -0.2713  0.1722
  312MOL0     H43046  -0.585  10.844   7.187 -0.5308 -0.4178 -0.2978
  312MOL0     H43047  -0.567  10.715   7.063  1.5552 -0.2182 -1.1800
  312MOL0     H43048  -0.644  10.949   6.914  0.3112  0.3580 -0.0778
  312MOL0     H43049  -0.756  10.841   7.006 -1.1737  1.2997  1.8856
  312MOL0     H43050  -0.648  11.110   7.098 -1.0686 -0.3658  0.3540
  312MOL0     H43051  -0.735  10.979   7.196 -1.9867 -0.8904 -0.2852
  312MOL0     H43052  -1.016  11.147   6.920 -0.9804 -0.4111  2.4075
  312MOL0     H43053  -0.438  11.229   7.015 -1.1300 -1.4007 -2.6349
  312MOL0     H43054  -0.203  11.495   6.874  1.7631 -1.7437 -0.6680
  312MOL0     H43055  -0.370  11.449   6.929  0.1933  0.2389 -0.7076
  312MOL0     H43056  -0.245  11.498   7.046  0.8476 -1.0401  0.7327
  313MOL0     O43057   2.131   9.525   7.532 -0.6213 -0.3488 -0.7604
  313MOL0     C43058   2.186   9.451   7.616  0.1681  0.4074 -0.1360
  313MOL0     O43059   2.269   9.486   7.708  0.3070 -0.0369 -0.6579
  313MOL0     C43060   2.341   9.601   7.698 -0.0811  0.2789  0.7007
  313MOL0     C43061   2.391   9.657   7.576 -0.4548  0.4517 -0.1357
  313MOL0     C43062   2.454   9.779   7.580  0.2614  0.8296  0.5009
  313MOL0     C43063   2.487   9.843   7.703  0.6644 -0.7489 -0.3404
  313MOL0     O43064   2.551   9.960   7.710  0.5341 -0.2280 -0.2484
  313MOL0     C43065   2.570  10.028   7.584  0.1116  0.1409  0.6623
  313MOL0     C43066   2.617  10.173   7.601 -0.0310 -0.4689  0.0815
  313MOL0     C43067   2.761  10.185   7.642 -0.2436  0.1152  0.9714
  313MOL0     C43068   2.794  10.325   7.699  0.5841 -0.2501  0.1557
  313MOL0     C43069   2.942  10.335   7.761 -0.1292  0.3471 -0.1597
  313MOL0     C43070   2.948  10.306   7.908 -0.3427 -0.1122  0.3197
  313MOL0     C43071   3.092  10.317   7.956  0.8124  0.3761 -0.4653
  313MOL0     C43072   3.156  10.469   7.961 -1.0430 -0.2344 -0.1657
  313MOL0     N43073   3.063  10.563   8.017 -0.5920 -0.1345  0.1401
  313MOL0     C43074   2.979  10.637   7.938  0.5505 -0.3901  0.0351
  313MOL0     C43075   2.888  10.683   8.035  0.1017 -0.5538  0.8952
  313MOL0     C43076   2.782  10.785   8.005  1.3676 -0.0620  0.5447
  313MOL0     C43077   2.829  10.934   8.027  0.0328  0.0366  0.2181
  313MOL0     C43078   2.757  11.014   8.134 -0.8068  0.4929  0.4002
  313MOL0     C43079   2.635  11.086   8.071 -0.0057 -1.0546 -1.0105
  313MOL0     O43080   2.573  11.160   8.177 -0.4186 -0.0995 -0.1427
  313MOL0     C43081   2.454  11.216   8.148  0.1815  0.9448  0.3589
  313MOL0     C43082   2.371  11.196   8.033 -0.7099  0.0869 -0.5919
  313MOL0     C43083   2.239  11.249   8.017 -0.2628  0.5400  0.3926
  313MOL0     C43084   2.157  11.212   7.888 -0.4357 -0.0624 -0.7519
  313MOL0     C43085   2.190  11.325   8.124  0.0230 -0.3043  0.3760
  313MOL0     C43086   2.046  11.374   8.133 -0.2203 -0.2402  0.0299
  313MOL0     O43087   2.013  11.465   8.237  0.2839  0.0998 -0.2761
  313MOL0     C43088   1.888  11.524   8.237  0.9005  0.1185 -0.6318
  313MOL0     C43089   1.783  11.476   8.320  0.3842 -0.6999 -0.3098
  313MOL0     C43090   1.660  11.538   8.326  0.3581  0.6623  0.8012
  313MOL0     C43091   1.628  11.643   8.231 -0.6152  0.1154  0.5868
  313MOL0     O43092   1.514  11.718   8.237 -0.3514 -0.7166 -0.9207
  313MOL0     C43093   1.489  11.808   8.353 -0.1741 -0.5040 -0.4037
  313MOL0     C43094   1.373  11.895   8.308  0.2209 -0.6593  0.6926
  313MOL0     C43095   1.410  11.995   8.198 -0.8335 -0.1825 -0.0471
  313MOL0     C43096   1.530  12.077   8.231  0.3180  0.1208  0.4354
  313MOL0     C43097   1.545  12.190   8.129 -0.0140 -0.1632 -0.4590
  313MOL0     C43098   1.565  12.158   7.980 -0.4393 -0.0438  0.1176
  313MOL0     C43099   1.604  12.293   7.909 -0.1481  0.2639  0.2279
  313MOL0     C43100   1.666  12.272   7.772 -0.4530  0.2521  0.4872
  313MOL0    Cl43101   1.561  12.207   7.639 -0.1686  0.0792 -0.0206
  313MOL0     C43102   1.728  11.679   8.134 -0.8982 -0.4592  0.8791
  313MOL0     C43103   1.863  11.622   8.144  1.0807  0.8804 -0.2144
  313MOL0     O43104   1.972  11.355   8.038  0.0704  0.1987  0.0086
  313MOL0     C43105   2.275  11.347   8.241  0.0204 -0.2509 -0.4054
  313MOL0     C43106   2.400  11.295   8.248  1.3036 -0.1568 -0.5289
  313MOL0     N43107   2.917  10.622   8.151  0.4083 -0.2310 -0.4269
  313MOL0     N43108   3.029  10.565   8.143 -0.6598 -0.0990  0.0344
  313MOL0     C43109   2.447   9.783   7.822  0.1399 -0.1248 -0.2461
  313MOL0     C43110   2.377   9.663   7.819 -0.4953  0.5186 -0.2038
  313MOL0     C43111   2.123   9.321   7.635 -0.9884 -0.9610 -1.1528
  313MOL0     C43112   2.020   9.308   7.722 -0.4295  0.4615 -0.0056
  313MOL0     C43113   1.953   9.186   7.743  0.1108 -0.2236 -0.4358
  313MOL0     C43114   1.988   9.066   7.674  1.4683 -0.0125 -0.1450
  313MOL0     O43115   1.897   8.962   7.689  0.0251 -0.1941 -0.0614
  313MOL0     C43116   1.954   8.834   7.718  0.3117 -0.4499 -0.2409
  313MOL0     C43117   1.909   8.729   7.606 -0.3363  0.0317 -0.5311
  313MOL0     C43118   1.749   8.687   7.613 -0.4962 -1.1114  1.3369
  313MOL0     C43119   1.699   8.636   7.745  0.8272  0.7993 -0.3627
  313MOL0     C43120   1.791   8.571   7.835  0.5210  0.2680 -0.0775
  313MOL0     C43121   1.865   8.543   7.933  0.6079  0.7948  0.5392
  313MOL0     C43122   2.097   9.073   7.585  0.0411  0.5299 -1.0343
  313MOL0     C43123   2.161   9.197   7.563 -0.0833  0.1995  0.6743
  313MOL0     C43124   2.279   9.205   7.463  0.0016  0.2453 -0.5009
  313MOL0     H43125   2.377   9.603   7.483  0.4614 -0.4356  0.2281
  313MOL0     H43126   2.489   9.820   7.485 -0.3188 -0.3073 -0.2245
  313MOL0     H43127   2.478  10.033   7.526 -1.3189 -1.7815  2.6083
  313MOL0     H43128   2.646   9.977   7.525  0.4821  1.2352  0.1640
  313MOL0     H43129   2.611  10.217   7.501 -4.8129 -0.8798 -0.0680
  313MOL0     H43130   2.558  10.230   7.674  0.6938 -1.4038  1.4534
  313MOL0     H43131   2.795  10.109   7.714  4.1936 -1.2609 -2.1047
  313MOL0     H43132   2.823  10.167   7.554  1.3281 -1.8470  2.3927
  313MOL0     H43133   2.779  10.397   7.618 -1.4800  2.1337  2.4837
  313MOL0     H43134   2.724  10.350   7.778 -2.6185 -0.8831 -2.2632
  313MOL0     H43135   2.965  10.442   7.755  1.7282 -0.0851 -1.7312
  313MOL0     H43136   3.020  10.280   7.708  2.1165  1.8462  1.4071
  313MOL0     H43137   2.883  10.381   7.954  0.6933  0.3183  1.1071
  313MOL0     H43138   2.900  10.211   7.934 -1.8985  0.3725 -0.6304
  313MOL0     H43139   3.169  10.249   7.919 -1.5115 -2.1738 -1.0017
  313MOL0     H43140   3.090  10.282   8.060  2.1877  3.1906  0.5900
  313MOL0     H43141   3.247  10.477   8.021 -1.2018 -2.9698  0.5894
  313MOL0     H43142   3.176  10.498   7.857  0.0237  0.4555  0.2141
  313MOL0     H43143   2.977  10.660   7.832 -0.1872  0.0114  0.1296
  313MOL0     H43144   2.698  10.758   8.069 -0.0027  0.4367 -0.9863
  313MOL0     H43145   2.747  10.766   7.903  1.6262  0.3074  0.3850
  313MOL0     H43146   2.933  10.929   8.060 -0.0796 -1.4484  0.3848
  313MOL0     H43147   2.833  10.978   7.927 -0.0337 -3.2670 -1.3660
  313MOL0     H43148   2.730  10.945   8.213 -3.1599 -1.0176 -1.5775
  313MOL0     H43149   2.814  11.096   8.180 -2.9884  1.6404  1.1752
  313MOL0     H43150   2.660  11.145   7.982  2.6618 -0.4074  0.0665
  313MOL0     H43151   2.562  11.011   8.040 -1.2112 -0.7709  0.9634
  313MOL0     H43152   2.409  11.132   7.954 -3.9072 -0.3044 -1.9608
  313MOL0     H43153   2.068  11.154   7.911 -2.4752  1.9416 -3.0257
  313MOL0     H43154   2.228  11.151   7.832  1.7986  0.1904  1.5946
  313MOL0     H43155   2.132  11.296   7.822 -5.3375 -0.3007  0.4005
  313MOL0     H43156   1.806  11.396   8.390  0.4611  2.2493  3.3313
  313MOL0     H43157   1.585  11.498   8.394 -1.0461  0.1147 -0.9795
  313MOL0     H43158   1.465  11.739   8.434  2.1656 -1.9546 -0.8560
  313MOL0     H43159   1.576  11.867   8.383  1.3685 -2.9231  0.1978
  313MOL0     H43160   1.289  11.835   8.272  0.8583 -1.3847  0.3876
  313MOL0     H43161   1.334  11.947   8.396  0.3829 -2.5285  1.9282
  313MOL0     H43162   1.331  12.065   8.167  0.6218  1.3498 -0.4419
  313MOL0     H43163   1.444  11.934   8.113  1.4066  1.2116 -0.2312
  313MOL0     H43164   1.627  12.028   8.237  1.2797  1.6912 -1.2580
  313MOL0     H43165   1.511  12.120   8.330  0.6399 -2.9764  1.9836
  313MOL0     H43166   1.464  12.263   8.138 -0.4050 -0.6805  0.3385
  313MOL0     H43167   1.623  12.251   8.175 -1.2723  1.1533  0.0148
  313MOL0     H43168   1.480  12.108   7.934 -1.2906  2.9663 -1.8541
  313MOL0     H43169   1.657  12.097   7.976 -0.8898 -0.6563 -1.9506
  313MOL0     H43170   1.674  12.345   7.975 -1.9850 -0.5240  2.9876
  313MOL0     H43171   1.518  12.355   7.882  0.6215  0.9525 -0.7420
  313MOL0     H43172   1.751  12.203   7.782  1.0119  2.0952  1.4710
  313MOL0     H43173   1.697  12.372   7.739 -0.0311 -1.3173 -4.8389
  313MOL0     H43174   1.713  11.748   8.051  0.6316 -1.6859 -0.5005
  313MOL0     H43175   1.935  11.646   8.066  2.1627  0.7942  0.7374
  313MOL0     H43176   2.229  11.403   8.322 -1.3165 -1.4864 -0.2644
  313MOL0     H43177   2.456  11.317   8.339 -2.5878  1.2482  1.7422
  313MOL0     H43178   2.480   9.829   7.915  0.4733  0.7596 -0.7887
  313MOL0     H43179   2.341   9.619   7.912 -0.1934  0.2766 -0.1997
  313MOL0     H43180   1.980   9.385   7.787 -2.0786 -2.2646  2.5138
  313MOL0     H43181   1.867   9.194   7.809 -0.3448  0.8065 -1.1137
  313MOL0     H43182   2.063   8.840   7.722  0.4592  1.7162 -3.4731
  313MOL0     H43183   1.920   8.797   7.815 -3.1990  1.9514 -0.3580
  313MOL0     H43184   1.967   8.637   7.607  0.4929  0.5332 -1.1663
  313MOL0     H43185   1.930   8.762   7.504 -1.5099  0.1527 -0.7503
  313MOL0     H43186   1.684   8.771   7.587 -0.2928 -1.5843 -0.8835
  313MOL0     H43187   1.721   8.609   7.541  3.0646 -0.2579 -1.2685
  313MOL0     H43188   1.609   8.582   7.717  0.9602  0.2080  0.3379
  313MOL0     H43189   1.666   8.727   7.797  1.3075 -0.4244  2.2186
  313MOL0     H43190   1.944   8.511   7.998  0.8103  2.9357  1.4397
  313MOL0     H43191   2.129   8.992   7.520  1.0925 -1.2983  1.5775
  313MOL0     H43192   2.372   9.164   7.505 -0.3508  0.1642  0.2250
  313MOL0     H43193   2.263   9.138   7.377  1.4436  1.2737 -1.6206
  313MOL0     H43194   2.289   9.308   7.428  1.4135  1.2551  2.4894
  314MOL0     O43195   1.387   7.926   0.738 -0.8657 -0.0650 -0.3515
  314MOL0     C43196   1.466   7.935   0.641  0.1010 -1.1032 -1.6912
  314MOL0     O43197   1.433   7.948   0.507 -0.0126 -0.1258  0.5986
  314MOL0     C43198   1.305   7.948   0.468  0.1860  0.1864 -0.7962
  314MOL0     C43199   1.195   7.996   0.545 -0.5655  0.6074 -0.3570
  314MOL0     C43200   1.063   7.978   0.500  0.1866 -0.3273 -0.4774
  314MOL0     C43201   1.033   7.906   0.385  0.2215 -0.0790 -0.7552
  314MOL0     O43202   0.906   7.894   0.364 -0.0024 -0.1965 -0.0804
  314MOL0     C43203   0.860   7.916   0.229  1.1200 -0.8639  0.3574
  314MOL0     C43204   0.713   7.947   0.219 -0.1419  0.8436  0.1750
  314MOL0     C43205   0.682   8.054   0.322  0.3461  0.5954 -0.4221
  314MOL0     C43206   0.545   8.123   0.282 -0.1690  1.5980 -0.1732
  314MOL0     C43207   0.515   8.252   0.366  0.5414 -0.4008 -0.4820
  314MOL0     C43208   0.458   8.221   0.508  0.2317  1.1784 -0.2766
  314MOL0     C43209   0.398   8.355   0.570 -0.2555  0.6485  0.5189
  314MOL0     C43210   0.511   8.441   0.646 -0.7510 -0.1526  0.3471
  314MOL0     N43211   0.498   8.587   0.646 -0.7600  0.3298  0.2704
  314MOL0     C43212   0.532   8.657   0.532 -0.1726 -0.2437 -0.4687
  314MOL0     C43213   0.484   8.780   0.552 -0.9015 -0.1510  0.0719
  314MOL0     C43214   0.495   8.881   0.455 -0.3598 -0.2275  1.1636
  314MOL0     C43215   0.636   8.927   0.423 -0.4248 -0.6709 -0.3307
  314MOL0     C43216   0.713   8.982   0.541  0.5499  0.4711  0.0455
  314MOL0     C43217   0.790   9.109   0.501  0.0010 -0.2462  0.1845
  314MOL0     O43218   0.712   9.232   0.511 -0.2189 -1.0702 -0.2960
  314MOL0     C43219   0.780   9.355   0.510  0.3726 -0.4532 -0.9213
  314MOL0     C43220   0.714   9.474   0.534 -0.8983 -0.2723  0.1621
  314MOL0     C43221   0.777   9.604   0.529 -0.6283 -0.2431 -0.0655
  314MOL0     C43222   0.689   9.717   0.564 -0.0784 -0.6850 -1.0514
  314MOL0     C43223   0.910   9.609   0.487  0.4615  0.3796 -0.5044
  314MOL0     C43224   0.988   9.739   0.489 -0.2336  1.2327  0.3700
  314MOL0     O43225   1.127   9.729   0.487 -0.4808  0.5448 -0.5494
  314MOL0     C43226   1.196   9.846   0.456 -0.2022  0.2238 -0.5724
  314MOL0     C43227   1.176   9.969   0.513  0.4158 -0.8430 -0.2733
  314MOL0     C43228   1.256  10.084   0.468  0.0311  0.9610 -1.2411
  314MOL0     C43229   1.372  10.065   0.393  0.5848 -0.2819 -1.0538
  314MOL0     O43230   1.458  10.165   0.356  1.2571 -0.1194  0.4673
  314MOL0     C43231   1.409  10.263   0.271  0.4345 -0.7422 -0.2676
  314MOL0     C43232   1.496  10.386   0.272  0.7450 -0.6940 -1.5456
  314MOL0     C43233   1.452  10.512   0.192 -0.2506 -0.0142 -0.1127
  314MOL0     C43234   1.435  10.488   0.044 -0.0547  0.3711  0.2856
  314MOL0     C43235   1.411  10.621  -0.011 -0.3013  0.0921  0.7120
  314MOL0     C43236   1.277  10.676   0.037  0.3676 -1.6450  0.0622
  314MOL0     C43237   1.233  10.810  -0.028 -0.2013  0.3648  0.0438
  314MOL0     C43238   1.319  10.929  -0.004 -0.7157  0.4466 -0.4205
  314MOL0    Cl43239   1.331  10.957   0.178 -0.0020 -0.2008 -0.1523
  314MOL0     C43240   1.397   9.942   0.345  0.3596  0.6928  0.4374
  314MOL0     C43241   1.306   9.834   0.377  0.3598 -0.4046 -0.8646
  314MOL0     O43242   0.922   9.841   0.473  0.0669  0.2043 -0.7337
  314MOL0     C43243   0.974   9.489   0.464 -0.1343 -0.6070  0.4209
  314MOL0     C43244   0.918   9.371   0.474 -0.5082 -0.4339  1.0735
  314MOL0     N43245   0.416   8.787   0.676  0.0001 -0.4641  0.2021
  314MOL0     N43246   0.424   8.667   0.731  0.1289  0.8815 -0.4176
  314MOL0     C43247   1.139   7.866   0.300  0.0630 -0.5132  0.0697
  314MOL0     C43248   1.269   7.894   0.339 -0.2876 -0.0875 -0.4660
  314MOL0     C43249   1.612   7.902   0.652  0.3811  0.0678 -0.8060
  314MOL0     C43250   1.686   7.868   0.533  1.3226 -0.7900 -0.2838
  314MOL0     C43251   1.816   7.841   0.538  0.4122  0.1745  0.0778
  314MOL0     C43252   1.884   7.831   0.663 -0.0196 -0.9664  0.3831
  314MOL0     O43253   2.015   7.791   0.670  0.3683 -0.0024  0.0932
  314MOL0     C43254   2.070   7.703   0.573 -0.5212  0.5820  0.2490
  314MOL0     C43255   2.162   7.774   0.473  1.1661  0.6004  0.8809
  314MOL0     C43256   2.228   7.676   0.380 -0.1971  0.2188 -0.2216
  314MOL0     C43257   2.304   7.750   0.261  1.6297 -0.1373  0.0925
  314MOL0     C43258   2.364   7.659   0.169  0.4383 -0.2669 -1.1707
  314MOL0     C43259   2.392   7.571   0.085 -0.7915 -0.1915  0.6630
  314MOL0     C43260   1.816   7.858   0.786 -1.0636  0.5602  1.2312
  314MOL0     C43261   1.684   7.897   0.778  0.0615  0.2271  0.4017
  314MOL0     C43262   1.621   7.930   0.912  0.4303 -0.3426 -0.7325
  314MOL0     H43263   1.207   8.046   0.641 -1.3378 -0.3390  0.2542
  314MOL0     H43264   0.985   8.014   0.567  2.1126  2.5946  0.3641
  314MOL0     H43265   0.877   7.828   0.165  0.2170 -2.6428  2.4389
  314MOL0     H43266   0.910   8.003   0.185 -0.7618 -0.2991 -0.8086
  314MOL0     H43267   0.695   7.984   0.118  1.2064 -0.8066 -0.7181
  314MOL0     H43268   0.650   7.857   0.218  1.6667 -0.4965 -1.7503
  314MOL0     H43269   0.668   8.001   0.416 -1.6781  0.7920 -0.5716
  314MOL0     H43270   0.769   8.119   0.331  0.8760 -0.3859  2.4737
  314MOL0     H43271   0.558   8.154   0.178  0.8880  0.1657 -0.5088
  314MOL0     H43272   0.466   8.048   0.287 -0.8132  2.0669 -2.4597
  314MOL0     H43273   0.434   8.308   0.319  0.0286  0.5426  1.4161
  314MOL0     H43274   0.603   8.318   0.372 -0.9111  1.6673 -0.8074
  314MOL0     H43275   0.381   8.144   0.509  4.8416 -4.0673  0.2270
  314MOL0     H43276   0.540   8.171   0.559 -0.5850 -1.3430 -1.2722
  314MOL0     H43277   0.310   8.325   0.629  0.6316 -2.3302  0.5129
  314MOL0     H43278   0.355   8.414   0.488  0.3436  2.4857  1.4837
  314MOL0     H43279   0.499   8.410   0.751 -3.8870 -0.0604  0.1304
  314MOL0     H43280   0.610   8.421   0.606 -0.7507 -0.2318  0.3867
  314MOL0     H43281   0.600   8.620   0.456 -0.1262 -1.9741  0.3676
  314MOL0     H43282   0.427   8.963   0.479  1.1088  0.5770  2.7990
  314MOL0     H43283   0.461   8.832   0.363  2.0121 -2.5601  1.4189
  314MOL0     H43284   0.691   8.841   0.382  1.0967 -0.1343  0.4952
  314MOL0     H43285   0.637   9.008   0.349  1.0976 -1.6286 -1.4327
  314MOL0     H43286   0.647   9.009   0.624  0.9676 -0.8227  0.8367
  314MOL0     H43287   0.782   8.905   0.579  0.8237  0.7073  0.0235
  314MOL0     H43288   0.871   9.121   0.574  0.1516  1.9259 -0.2582
  314MOL0     H43289   0.834   9.101   0.401 -0.4953  0.5021 -0.1018
  314MOL0     H43290   0.610   9.460   0.561 -0.2405 -3.0173  1.7283
  314MOL0     H43291   0.739   9.773   0.644 -0.1645 -0.0805 -1.4249
  314MOL0     H43292   0.589   9.695   0.602  0.5511  1.2135  2.1071
  314MOL0     H43293   0.675   9.790   0.485 -2.8121 -0.7596 -0.7034
  314MOL0     H43294   1.091   9.986   0.580 -0.0282  1.1125 -1.2521
  314MOL0     H43295   1.237  10.188   0.495  0.1193  1.4225 -2.8186
  314MOL0     H43296   1.425  10.241   0.165  1.2525  0.9064 -0.5283
  314MOL0     H43297   1.303  10.285   0.285  0.1630 -0.7322 -2.0979
  314MOL0     H43298   1.496  10.409   0.379  0.7214 -3.0482 -0.9747
  314MOL0     H43299   1.599  10.359   0.245  0.7947  0.7323 -2.8632
  314MOL0     H43300   1.535  10.581   0.210  0.6399 -0.6822 -1.4626
  314MOL0     H43301   1.366  10.541   0.253 -0.3710 -1.7450  0.6060
  314MOL0     H43302   1.364  10.407   0.024  3.3116 -2.4162 -1.3443
  314MOL0     H43303   1.526  10.457  -0.008  1.9490  4.8618  0.6570
  314MOL0     H43304   1.491  10.690   0.018 -0.1266 -0.8235  2.5323
  314MOL0     H43305   1.410  10.617  -0.121  1.2203 -0.1892  0.6923
  314MOL0     H43306   1.278  10.700   0.144  1.3118  1.3770 -0.5170
  314MOL0     H43307   1.195  10.606   0.019 -2.2298  1.3126 -0.6047
  314MOL0     H43308   1.131  10.828   0.005 -1.0289  0.7163 -2.5004
  314MOL0     H43309   1.212  10.795  -0.134 -2.5134 -1.2763  0.6845
  314MOL0     H43310   1.267  11.011  -0.057 -0.4462  1.5670  0.9841
  314MOL0     H43311   1.420  10.923  -0.045  0.3402  1.8473  1.8051
  314MOL0     H43312   1.476   9.914   0.277  0.0379  1.2770 -0.1896
  314MOL0     H43313   1.322   9.742   0.321 -0.5494  0.2137 -2.1847
  314MOL0     H43314   1.082   9.499   0.462 -0.1631 -0.2904 -0.8358
  314MOL0     H43315   0.979   9.281   0.471  0.5156  0.2263  1.3333
  314MOL0     H43316   1.114   7.832   0.200  0.6520  1.1561 -0.6758
  314MOL0     H43317   1.341   7.873   0.261  1.8647 -0.6102  1.5515
  314MOL0     H43318   1.636   7.867   0.437  0.0346 -0.8519  0.3692
  314MOL0     H43319   1.866   7.822   0.444  1.5985  1.1010  0.5113
  314MOL0     H43320   2.126   7.646   0.648  3.0752  3.3072 -0.1371
  314MOL0     H43321   1.988   7.645   0.530  0.5273 -0.2564 -0.6789
  314MOL0     H43322   2.233   7.833   0.532 -0.2874  2.5360  0.8288
  314MOL0     H43323   2.091   7.835   0.416 -0.6260 -0.8230  1.4750
  314MOL0     H43324   2.298   7.607   0.429  0.5238  2.2866  1.8503
  314MOL0     H43325   2.159   7.599   0.346  2.0439 -2.3624  0.7140
  314MOL0     H43326   2.382   7.815   0.302 -0.2616  1.4451  1.3884
  314MOL0     H43327   2.226   7.808   0.212 -0.9019 -3.1629  0.2346
  314MOL0     H43328   2.407   7.496   0.010  1.4414  0.4578  0.4064
  314MOL0     H43329   1.862   7.846   0.883  0.1845  1.0668  0.7163
  314MOL0     H43330   1.696   7.959   0.987 -2.2296 -2.4653  3.0443
  314MOL0     H43331   1.557   8.019   0.906  1.9661  1.0080  1.4216
  314MOL0     H43332   1.563   7.846   0.951 -0.4405  0.2129 -0.8097
  315MOL0     O43333   0.492  10.949   7.168 -0.1745 -0.2220 -0.1122
  315MOL0     C43334   0.377  10.996   7.159 -0.9394 -0.2150 -0.1515
  315MOL0     O43335   0.290  10.966   7.056 -0.3636  0.0319 -0.2878
  315MOL0     C43336   0.282  10.832   7.014 -0.0184  1.0713  0.8135
  315MOL0     C43337   0.155  10.777   7.028 -0.0799  0.2808  0.3645
  315MOL0     C43338   0.128  10.649   6.976  0.3918  0.1638  0.3144
  315MOL0     C43339   0.228  10.574   6.917 -0.4012 -0.0335  0.1725
  315MOL0     O43340   0.206  10.441   6.882  1.3362 -0.2264  0.4146
  315MOL0     C43341   0.086  10.420   6.796 -0.7366  0.0078  0.4553
  315MOL0     C43342  -0.013  10.310   6.849  0.0043 -0.8649 -0.3437
  315MOL0     C43343  -0.086  10.237   6.733  0.3858 -0.4065  0.2117
  315MOL0     C43344  -0.112  10.334   6.612 -0.5683  0.3863  0.0651
  315MOL0     C43345  -0.182  10.241   6.510  0.3405  0.7004  0.3080
  315MOL0     C43346  -0.225  10.309   6.382  0.1688 -0.0552  0.3556
  315MOL0     C43347  -0.272  10.212   6.271  0.4520  1.6923  0.5699
  315MOL0     C43348  -0.406  10.150   6.288  0.2681  0.2915  1.2686
  315MOL0     N43349  -0.515  10.243   6.278  0.2185  0.8925 -0.1581
  315MOL0     C43350  -0.563  10.306   6.167  0.0802 -0.1715  0.3500
  315MOL0     C43351  -0.660  10.387   6.222  0.0959  0.1708  0.8224
  315MOL0     C43352  -0.752  10.480   6.151  0.3611  0.0752 -1.1356
  315MOL0     C43353  -0.872  10.419   6.071 -0.6795 -0.2321 -0.2288
  315MOL0     C43354  -0.945  10.316   6.156  1.1427  0.0096 -0.3891
  315MOL0     C43355  -1.075  10.271   6.093 -0.3446  0.7132 -0.3212
  315MOL0     O43356  -1.174  10.376   6.124 -0.7178 -0.5741  0.1377
  315MOL0     C43357  -1.293  10.354   6.066 -0.7911  0.2888 -0.1583
  315MOL0     C43358  -1.320  10.416   5.947 -0.5618 -0.2451  0.1054
  315MOL0     C43359  -1.434  10.385   5.875  1.2142  0.6237  0.4427
  315MOL0     C43360  -1.449  10.441   5.743  0.7535  0.8804  0.5564
  315MOL0     C43361  -1.518  10.279   5.925 -0.6801 -0.3996 -0.4232
  315MOL0     C43362  -1.633  10.225   5.843 -0.2507 -0.2898 -0.7620
  315MOL0     O43363  -1.723  10.320   5.790 -0.4356  0.7824 -0.5321
  315MOL0     C43364  -1.802  10.273   5.687  0.0959  0.2026  0.3167
  315MOL0     C43365  -1.778  10.322   5.562  0.4378 -1.5715 -0.0832
  315MOL0     C43366  -1.851  10.282   5.455 -0.5986 -1.0019 -0.5369
  315MOL0     C43367  -1.970  10.218   5.469 -1.0231  0.9976 -0.1943
  315MOL0     O43368  -2.051  10.172   5.367  0.0822  0.0922 -0.9233
  315MOL0     C43369  -2.034  10.236   5.235 -0.2790 -0.1225 -0.3902
  315MOL0     C43370  -2.148  10.195   5.145  0.6437 -0.1007  0.4048
  315MOL0     C43371  -2.146  10.045   5.115  0.0919 -0.6613  0.9922
  315MOL0     C43372  -2.261  10.000   5.022  0.5470  0.3870 -0.5253
  315MOL0     C43373  -2.250   9.862   4.960 -0.6093  0.8917 -0.0011
  315MOL0     C43374  -2.351   9.850   4.841  0.4457 -0.4298 -0.0820
  315MOL0     C43375  -2.313   9.722   4.766  0.5453  0.3913  0.1705
  315MOL0     C43376  -2.422   9.696   4.662  0.7755 -0.8265 -0.1415
  315MOL0    Cl43377  -2.386   9.556   4.545 -0.0840  0.2534 -0.2373
  315MOL0     C43378  -2.000  10.166   5.592 -0.4997  0.3458  0.3158
  315MOL0     C43379  -1.914  10.193   5.704  0.2974 -0.2179 -0.4924
  315MOL0     O43380  -1.619  10.109   5.813  0.9531  0.1047  0.7161
  315MOL0     C43381  -1.477  10.203   6.037  0.2260 -0.0001 -0.0495
  315MOL0     C43382  -1.370  10.251   6.106  1.0364 -0.3936 -0.8328
  315MOL0     N43383  -0.657  10.377   6.355  0.8744 -0.0923 -0.1594
  315MOL0     N43384  -0.575  10.293   6.394 -0.3722 -0.4545  0.0251
  315MOL0     C43385   0.354  10.628   6.902  0.1398  0.4204 -0.7172
  315MOL0     C43386   0.383  10.754   6.953  0.5384 -0.1523  0.4025
  315MOL0     C43387   0.338  11.099   7.253 -0.2471 -0.2835  0.6264
  315MOL0     C43388   0.262  11.209   7.214 -0.3341 -0.1551  0.0525
  315MOL0     C43389   0.183  11.295   7.299  0.2457  0.1320 -0.4278
  315MOL0     C43390   0.200  11.280   7.429 -0.0013  0.0910 -0.1575
  315MOL0     O43391   0.144  11.362   7.523 -0.5317  0.2494  0.7543
  315MOL0     C43392   0.214  11.475   7.559 -0.0748  0.2956 -0.4029
  315MOL0     C43393   0.144  11.593   7.532  0.6339 -0.4362 -0.5055
  315MOL0     C43394   0.010  11.611   7.613  0.1191  0.3149  0.2943
  315MOL0     C43395  -0.079  11.709   7.539 -0.6124 -0.6194  0.1582
  315MOL0     C43396  -0.208  11.715   7.603  0.6470 -0.8447 -0.1019
  315MOL0     C43397  -0.316  11.731   7.660 -0.4760 -0.3715 -0.1329
  315MOL0     C43398   0.286  11.171   7.471 -0.2209 -0.3014  0.7473
  315MOL0     C43399   0.368  11.090   7.393  0.8331  0.1924  0.3421
  315MOL0     C43400   0.441  10.973   7.454  1.0025  0.3241 -0.9614
  315MOL0     H43401   0.071  10.838   7.058 -1.2766 -2.0012  1.9995
  315MOL0     H43402   0.029  10.605   6.975  0.3154  0.2948 -1.5000
  315MOL0     H43403   0.125  10.397   6.696  2.2751 -1.5764  1.8632
  315MOL0     H43404   0.020  10.508   6.792 -0.8258  0.0902  2.5622
  315MOL0     H43405   0.053  10.243   6.905  1.7739  1.6129  0.7140
  315MOL0     H43406  -0.081  10.347   6.926  0.5764 -2.7586  1.1372
  315MOL0     H43407  -0.028  10.151   6.698  0.4229 -0.2658 -0.0768
  315MOL0     H43408  -0.184  10.209   6.772 -1.4404  3.9425 -0.5782
  315MOL0     H43409  -0.179  10.419   6.624  0.0045  0.8685 -0.0873
  315MOL0     H43410  -0.020  10.379   6.572  0.3014 -1.9005 -0.6855
  315MOL0     H43411  -0.262  10.175   6.544  1.1567 -0.7041 -0.4026
  315MOL0     H43412  -0.108  10.165   6.483  0.7783  2.3065 -3.5855
  315MOL0     H43413  -0.306  10.380   6.404 -0.8645 -0.8855 -0.6499
  315MOL0     H43414  -0.133  10.354   6.344  1.2119 -3.7545 -1.9534
  315MOL0     H43415  -0.193  10.136   6.262  0.4872  1.8117 -0.2933
  315MOL0     H43416  -0.274  10.255   6.170  0.2530  2.0320  0.7198
  315MOL0     H43417  -0.424  10.078   6.207  0.1633 -1.3188  2.6843
  315MOL0     H43418  -0.412  10.106   6.387  0.5622  3.4199  2.8101
  315MOL0     H43419  -0.551  10.289   6.061 -4.5134 -2.7972 -0.0449
  315MOL0     H43420  -0.698  10.558   6.096  0.2935  0.7261 -0.3021
  315MOL0     H43421  -0.805  10.535   6.229  1.7409  0.5668 -0.4954
  315MOL0     H43422  -0.949  10.494   6.050  0.3183  0.5772 -1.0803
  315MOL0     H43423  -0.840  10.380   5.974 -1.1361 -2.1342  0.3553
  315MOL0     H43424  -0.889  10.223   6.170 -0.1954 -0.9078 -0.8701
  315MOL0     H43425  -0.965  10.360   6.255  3.7384  1.2419 -0.3210
  315MOL0     H43426  -1.071  10.253   5.985 -1.5765 -2.7028  0.0678
  315MOL0     H43427  -1.117  10.182   6.141 -3.4332  2.7350  0.9850
  315MOL0     H43428  -1.245  10.481   5.903  0.2954 -2.5153 -2.0236
  315MOL0     H43429  -1.350  10.445   5.698  0.2960  1.8609 -0.4251
  315MOL0     H43430  -1.481  10.546   5.738  0.1319  0.6409 -1.1981
  315MOL0     H43431  -1.508  10.377   5.678 -0.6215  2.2312  0.4078
  315MOL0     H43432  -1.710  10.400   5.530 -2.4043  0.8988 -0.5497
  315MOL0     H43433  -1.806  10.317   5.363 -2.2676  1.5710 -0.4782
  315MOL0     H43434  -2.035  10.344   5.256  2.7042 -0.0138 -0.4241
  315MOL0     H43435  -1.937  10.207   5.194  1.5733  1.9718  2.1656
  315MOL0     H43436  -2.246  10.220   5.187  0.6065  3.4354 -1.3830
  315MOL0     H43437  -2.126  10.240   5.048  3.5032 -0.3461  0.8442
  315MOL0     H43438  -2.155   9.994   5.212  0.2283  0.0296  1.3774
  315MOL0     H43439  -2.048  10.021   5.074  1.4128  2.2454  2.1963
  315MOL0     H43440  -2.264  10.075   4.942 -0.1185  0.8576 -0.0661
  315MOL0     H43441  -2.363  10.006   5.060  0.1227  0.6673 -1.6875
  315MOL0     H43442  -2.146   9.862   4.925  1.2636  0.7120  4.7526
  315MOL0     H43443  -2.261   9.784   5.036 -0.1193 -1.7430 -2.4701
  315MOL0     H43444  -2.353   9.934   4.772  2.5498  1.6115  2.1456
  315MOL0     H43445  -2.452   9.840   4.881 -0.6434  1.7930 -2.0670
  315MOL0     H43446  -2.305   9.638   4.837  0.4082  0.1120 -0.1438
  315MOL0     H43447  -2.223   9.731   4.705  1.7030  0.8741  1.8608
  315MOL0     H43448  -2.419   9.790   4.607  2.9989 -0.3123  0.7152
  315MOL0     H43449  -2.525   9.684   4.696 -0.1403 -0.2220 -2.4850
  315MOL0     H43450  -2.102  10.135   5.611 -1.5754  3.9537  1.3824
  315MOL0     H43451  -1.935  10.157   5.804 -2.1480  0.5868 -0.6563
  315MOL0     H43452  -1.540  10.128   6.083 -3.7975  3.2408  0.2691
  315MOL0     H43453  -1.345  10.186   6.189  1.1986  0.5878 -0.0891
  315MOL0     H43454   0.442  10.577   6.863  0.5197 -0.9289  1.7155
  315MOL0     H43455   0.484  10.791   6.939  1.6718 -3.3953 -1.1302
  315MOL0     H43456   0.241  11.217   7.107  1.7281  3.2817 -0.2139
  315MOL0     H43457   0.099  11.357   7.270 -0.0471 -0.1488 -0.1856
  315MOL0     H43458   0.256  11.462   7.660 -0.9843 -2.6250 -0.3174
  315MOL0     H43459   0.298  11.492   7.492  1.0580  1.0044  1.1205
  315MOL0     H43460   0.128  11.587   7.424  1.5317  0.6845 -0.7131
  315MOL0     H43461   0.214  11.675   7.550 -0.8734  0.9541 -0.7957
  315MOL0     H43462  -0.037  11.516   7.640 -1.1263  0.1697 -2.0795
  315MOL0     H43463   0.025  11.666   7.706 -2.4071  3.6772 -1.0798
  315MOL0     H43464  -0.088  11.660   7.441  0.6613 -0.2920 -0.1347
  315MOL0     H43465  -0.027  11.803   7.519  2.8220 -3.0339 -4.3590
  315MOL0     H43466  -0.415  11.741   7.701 -0.5103 -2.4607  0.4102
  315MOL0     H43467   0.307  11.165   7.577 -0.1438  2.7314  0.9750
  315MOL0     H43468   0.541  11.005   7.487  0.0453  0.2864  2.3151
  315MOL0     H43469   0.382  10.925   7.532  1.0143 -1.0187 -1.7533
  315MOL0     H43470   0.461  10.885   7.393 -1.8682 -1.9715  1.1847
  316MOL0     O43471   8.755   8.266   7.717 -0.4111 -0.6024  0.1294
  316MOL0     C43472   8.695   8.251   7.827 -0.0223  0.4370 -0.5525
  316MOL0     O43473   8.682   8.134   7.897  0.3889  0.1598 -0.0098
  316MOL0     C43474   8.773   8.039   7.865 -0.0418 -0.5088 -0.5985
  316MOL0     C43475   8.870   8.023   7.959  1.0549 -0.4435 -0.0217
  316MOL0     C43476   8.962   7.922   7.932 -0.0528  0.3575  0.2742
  316MOL0     C43477   8.958   7.845   7.816  0.2858  1.0714 -0.3579
  316MOL0     O43478   9.042   7.745   7.784  0.2949 -0.1971 -0.4537
  316MOL0     C43479   9.072   7.655   7.889 -0.2139 -1.0897  0.3035
  316MOL0     C43480   9.146   7.545   7.825  0.7148  0.9768 -0.9466
  316MOL0     C43481   9.056   7.427   7.782  0.6735 -0.0991 -0.4016
  316MOL0     C43482   8.951   7.449   7.671 -0.6521  0.2228 -0.3515
  316MOL0     C43483   8.870   7.322   7.631 -0.4088 -0.1262  0.3935
  316MOL0     C43484   8.744   7.347   7.544  1.3395  0.8419  0.4457
  316MOL0     C43485   8.685   7.217   7.499  0.3753 -0.0925 -0.3672
  316MOL0     C43486   8.745   7.133   7.379 -0.3404  0.3349 -0.0710
  316MOL0     N43487   8.680   7.157   7.242  0.2481  0.6632 -0.2768
  316MOL0     C43488   8.628   7.269   7.190 -0.7022 -0.1722  0.3103
  316MOL0     C43489   8.596   7.233   7.059 -0.6032 -0.5412 -0.3864
  316MOL0     C43490   8.549   7.321   6.950  0.3227 -1.4905  0.5923
  316MOL0     C43491   8.620   7.463   6.942 -1.0920 -0.4853 -0.8354
  316MOL0     C43492   8.573   7.538   6.816  0.8978 -1.0720 -0.0436
  316MOL0     C43493   8.640   7.683   6.819 -0.0383 -0.7032  0.1299
  316MOL0     O43494   8.591   7.764   6.718  0.2905  0.3859  0.3860
  316MOL0     C43495   8.593   7.904   6.730  0.0722  0.0898  0.3657
  316MOL0     C43496   8.560   7.985   6.620  0.1127 -0.2167 -0.7132
  316MOL0     C43497   8.574   8.124   6.625  0.0758  0.3048 -1.0876
  316MOL0     C43498   8.569   8.189   6.495  1.6920 -0.3025 -0.1758
  316MOL0     C43499   8.617   8.192   6.746 -0.1936  1.3168  0.9974
  316MOL0     C43500   8.634   8.332   6.763 -0.2578  0.2257  0.0567
  316MOL0     O43501   8.575   8.398   6.860  0.1896  0.0683 -0.9346
  316MOL0     C43502   8.549   8.531   6.840  0.1316  0.0727  0.4258
  316MOL0     C43503   8.415   8.570   6.810  0.0811  0.6728 -0.6028
  316MOL0     C43504   8.396   8.706   6.819  0.4064 -0.3816 -0.1259
  316MOL0     C43505   8.496   8.801   6.851 -0.6149 -0.7116  1.0232
  316MOL0     O43506   8.482   8.932   6.870  0.0060 -1.0306  0.3006
  316MOL0     C43507   8.347   8.977   6.903  0.7723  0.9749  0.4844
  316MOL0     C43508   8.351   9.133   6.912 -0.9166  0.0521  0.8740
  316MOL0     C43509   8.376   9.194   7.052 -0.3880  0.3095  0.1415
  316MOL0     C43510   8.347   9.337   7.075  0.0847 -0.2121 -0.1721
  316MOL0     C43511   8.444   9.438   7.007  0.7226 -0.7193  0.2881
  316MOL0     C43512   8.568   9.471   7.089 -0.2118 -0.0820  0.3556
  316MOL0     C43513   8.660   9.576   7.034 -1.0439 -0.0854  0.0596
  316MOL0     C43514   8.791   9.587   7.119  0.8299 -0.4458 -0.3441
  316MOL0    Cl43515   8.764   9.684   7.263  0.7864  0.7265 -0.0579
  316MOL0     C43516   8.626   8.754   6.867 -0.6276 -0.4968  0.5782
  316MOL0     C43517   8.654   8.616   6.866  0.3410  0.1606  0.2524
  316MOL0     O43518   8.691   8.384   6.670 -0.0772  0.4601  0.4587
  316MOL0     C43519   8.649   8.109   6.858 -0.4242  0.7565 -0.2300
  316MOL0     C43520   8.637   7.970   6.845 -0.6408 -2.0308 -0.6419
  316MOL0     N43521   8.642   7.101   7.038 -0.3782 -0.4517 -0.9351
  316MOL0     N43522   8.674   7.056   7.153  0.4847 -0.6194 -0.2092
  316MOL0     C43523   8.859   7.859   7.723  0.1213  0.0412 -0.3026
  316MOL0     C43524   8.760   7.964   7.751 -1.3139 -0.3034 -0.3550
  316MOL0     C43525   8.612   8.364   7.879 -0.6016 -0.7725  0.1098
  316MOL0     C43526   8.609   8.379   8.019  0.9619 -0.2112  0.4272
  316MOL0     C43527   8.529   8.466   8.085 -0.6738 -1.5472  1.1932
  316MOL0     C43528   8.462   8.565   8.006  0.8061  0.4762  0.5721
  316MOL0     O43529   8.371   8.652   8.062 -0.4748 -0.6516 -0.3418
  316MOL0     C43530   8.299   8.632   8.180  0.9683  0.2021 -0.4084
  316MOL0     C43531   8.174   8.544   8.149 -0.3341 -0.5571 -0.1659
  316MOL0     C43532   8.186   8.399   8.180  0.1744  0.1600  0.3325
  316MOL0     C43533   8.222   8.365   8.325  0.4817 -0.4273  0.4257
  316MOL0     C43534   8.285   8.237   8.337 -0.4418 -0.9784  0.2439
  316MOL0     C43535   8.340   8.134   8.333 -0.4341  0.3277  0.3235
  316MOL0     C43536   8.488   8.572   7.866  0.2488  0.2206  0.1506
  316MOL0     C43537   8.565   8.472   7.802  0.3278 -0.3909  0.1954
  316MOL0     C43538   8.577   8.487   7.646  0.6426 -0.3334  0.2764
  316MOL0     H43539   8.865   8.085   8.048 -2.2828  1.1501 -1.1628
  316MOL0     H43540   9.049   7.907   7.995  1.3413  0.1321 -1.6125
  316MOL0     H43541   8.985   7.613   7.939  0.5631 -0.2672  2.4682
  316MOL0     H43542   9.138   7.690   7.969  0.0218  0.0568 -0.3691
  316MOL0     H43543   9.200   7.566   7.732  1.4535  0.8984 -0.5457
  316MOL0     H43544   9.227   7.515   7.893 -0.4003 -0.6861 -0.2963
  316MOL0     H43545   9.125   7.355   7.736  0.6595 -1.4278  1.5282
  316MOL0     H43546   9.001   7.379   7.864 -0.6055 -0.3398 -1.3764
  316MOL0     H43547   8.871   7.512   7.712 -0.8590  0.6067 -1.3273
  316MOL0     H43548   8.990   7.494   7.580 -1.6433  1.9760  0.0406
  316MOL0     H43549   8.846   7.270   7.725  2.0306  0.6111  1.4975
  316MOL0     H43550   8.936   7.254   7.576 -1.5882 -1.6636  0.8229
  316MOL0     H43551   8.662   7.398   7.595  0.9638  1.6670 -0.9438
  316MOL0     H43552   8.780   7.414   7.465 -1.0095  2.4608  0.6670
  316MOL0     H43553   8.579   7.226   7.474 -0.2703  0.4501  2.3341
  316MOL0     H43554   8.686   7.146   7.582  0.3857  0.5081  0.1580
  316MOL0     H43555   8.851   7.156   7.367 -0.9361  2.9698 -1.0762
  316MOL0     H43556   8.741   7.025   7.396  0.4350  0.4484  0.9086
  316MOL0     H43557   8.625   7.367   7.237  3.0160  0.1256  0.2165
  316MOL0     H43558   8.444   7.345   6.968 -0.0807  2.0359 -4.5173
  316MOL0     H43559   8.549   7.270   6.853  1.2627  1.1645 -0.8955
  316MOL0     H43560   8.589   7.531   7.022  1.3739  0.3233 -0.4793
  316MOL0     H43561   8.729   7.451   6.945 -1.1966 -1.3496  0.9069
  316MOL0     H43562   8.602   7.485   6.725  1.2825 -2.1653  0.6932
  316MOL0     H43563   8.464   7.541   6.817  0.7211  0.0776  5.2463
  316MOL0     H43564   8.616   7.736   6.912  3.4092  1.2265  0.0766
  316MOL0     H43565   8.749   7.683   6.828 -0.0225 -0.1124 -0.0646
  316MOL0     H43566   8.523   7.930   6.533 -2.2296 -1.3896  0.9120
  316MOL0     H43567   8.661   8.242   6.473  0.9846  0.5201 -1.2367
  316MOL0     H43568   8.482   8.255   6.483  0.3204 -2.3092 -2.2194
  316MOL0     H43569   8.569   8.104   6.427  2.9028 -3.9780  3.9335
  316MOL0     H43570   8.351   8.491   6.772  0.2180  0.4375 -0.3479
  316MOL0     H43571   8.290   8.728   6.803  0.6646  1.6632  0.6722
  316MOL0     H43572   8.275   8.953   6.825  2.5684 -2.7896 -0.2166
  316MOL0     H43573   8.322   8.931   6.999 -1.3788 -0.8101 -0.8503
  316MOL0     H43574   8.423   9.161   6.835 -0.3410 -2.7330  0.2986
  316MOL0     H43575   8.258   9.170   6.867 -1.6735  0.7986  2.9399
  316MOL0     H43576   8.483   9.183   7.070 -0.7855 -0.5766  2.2252
  316MOL0     H43577   8.325   9.128   7.124  0.7808 -3.0164 -1.8824
  316MOL0     H43578   8.363   9.366   7.180 -1.9902  2.3072 -0.4420
  316MOL0     H43579   8.241   9.354   7.051 -0.1283  2.0311  1.9048
  316MOL0     H43580   8.472   9.388   6.915 -0.3398 -0.2836 -0.2893
  316MOL0     H43581   8.403   9.538   6.989  2.8611  0.1712  0.1900
  316MOL0     H43582   8.626   9.378   7.087  0.3117  0.2512 -0.5106
  316MOL0     H43583   8.545   9.501   7.191  2.4714 -0.3520  1.1095
  316MOL0     H43584   8.621   9.678   7.028  0.4304  0.4609 -0.6667
  316MOL0     H43585   8.693   9.544   6.934  0.1831  3.2522 -0.7519
  316MOL0     H43586   8.872   9.642   7.072  1.9299 -1.5597  0.1909
  316MOL0     H43587   8.839   9.491   7.138  1.1999 -0.0842  0.6002
  316MOL0     H43588   8.708   8.817   6.900  0.7266 -2.2050  0.6171
  316MOL0     H43589   8.755   8.582   6.886  0.6889  1.2328  0.4007
  316MOL0     H43590   8.694   8.141   6.952  3.7678 -1.5534 -1.2143
  316MOL0     H43591   8.681   7.913   6.926 -2.6924 -0.7728  1.5034
  316MOL0     H43592   8.863   7.798   7.633  1.3422 -1.6233  0.8130
  316MOL0     H43593   8.678   7.973   7.681 -2.7110 -0.8341  1.1422
  316MOL0     H43594   8.651   8.303   8.084 -0.7641 -1.3693  0.2435
  316MOL0     H43595   8.518   8.456   8.193  1.3380 -1.6496  1.4239
  316MOL0     H43596   8.362   8.594   8.261  1.5622  1.4985 -0.2344
  316MOL0     H43597   8.249   8.723   8.214 -0.9320 -1.9308  3.0597
  316MOL0     H43598   8.143   8.553   8.044 -0.3830 -2.0769 -0.3109
  316MOL0     H43599   8.091   8.582   8.209  1.4547  0.5019  1.7801
  316MOL0     H43600   8.093   8.349   8.151  0.1605 -0.0334  0.7122
  316MOL0     H43601   8.258   8.368   8.104 -0.1132  0.0940  0.0861
  316MOL0     H43602   8.131   8.366   8.387 -0.3560 -0.4488 -0.7723
  316MOL0     H43603   8.303   8.432   8.353  0.9625 -0.0330 -1.7411
  316MOL0     H43604   8.405   8.053   8.305  0.0156  0.4872  0.8830
  316MOL0     H43605   8.445   8.647   7.800 -0.6698 -0.9615 -0.6258
  316MOL0     H43606   8.679   8.515   7.619  0.0793  0.4043 -1.1988
  316MOL0     H43607   8.540   8.398   7.596 -1.4499 -0.6015  2.1611
  316MOL0     H43608   8.506   8.566   7.619 -1.6135 -2.1109  0.7557
  317MOL0     O43609   4.781   3.956   1.816  0.1323 -0.8598  0.8530
  317MOL0     C43610   4.840   3.987   1.720 -1.1197 -0.0875 -0.1586
  317MOL0     O43611   4.840   3.913   1.592 -0.0688  0.2312  0.2491
  317MOL0     C43612   4.768   3.795   1.574 -0.1268 -0.6350  0.1876
  317MOL0     C43613   4.734   3.705   1.676 -0.5108  0.3247 -0.1522
  317MOL0     C43614   4.669   3.584   1.642 -0.6767 -0.0930 -0.1741
  317MOL0     C43615   4.647   3.546   1.509 -0.7818 -1.5975  0.3562
  317MOL0     O43616   4.575   3.434   1.479  0.4547  0.5868 -0.3076
  317MOL0     C43617   4.513   3.424   1.347  0.0226 -0.5223 -0.2248
  317MOL0     C43618   4.420   3.307   1.344  1.3504 -0.3368 -0.9968
  317MOL0     C43619   4.378   3.296   1.204  0.1675  0.1602 -0.0921
  317MOL0     C43620   4.336   3.149   1.163  0.1904  0.0825  1.3049
  317MOL0     C43621   4.276   3.143   1.021 -1.1726 -0.3980  0.3779
  317MOL0     C43622   4.211   3.007   0.976  0.2978  0.0496  0.4120
  317MOL0     C43623   4.165   3.004   0.830  0.3251 -0.8115  0.4817
  317MOL0     C43624   4.044   3.102   0.821 -0.0681  0.0847  0.0152
  317MOL0     N43625   4.003   3.126   0.682 -0.0544 -0.9170 -0.1969
  317MOL0     C43626   3.922   3.052   0.600  0.2452 -0.0605 -0.6452
  317MOL0     C43627   3.900   3.142   0.500  0.6103  0.5695  0.3477
  317MOL0     C43628   3.806   3.111   0.381 -0.1293 -0.8403  0.5282
  317MOL0     C43629   3.679   3.031   0.426  0.5304  0.3987  0.8255
  317MOL0     C43630   3.568   3.043   0.316  0.3338 -0.4619 -0.0118
  317MOL0     C43631   3.461   2.936   0.342  0.1348  0.3476 -0.5957
  317MOL0     O43632   3.402   2.949   0.473  0.6658  0.8223 -0.2080
  317MOL0     C43633   3.301   2.859   0.510 -0.3530  0.2666  0.0418
  317MOL0     C43634   3.226   2.771   0.423 -0.0304  0.2016 -0.4593
  317MOL0     C43635   3.129   2.676   0.455  0.2254 -0.2867 -1.0300
  317MOL0     C43636   3.067   2.585   0.342 -0.2217  0.8292 -0.1729
  317MOL0     C43637   3.090   2.684   0.590  0.2073  0.7161 -1.5749
  317MOL0     C43638   2.992   2.595   0.652 -0.0589  0.2143 -0.4750
  317MOL0     O43639   2.975   2.611   0.790  0.5606  0.2880 -0.3312
  317MOL0     C43640   2.879   2.535   0.845 -0.3315  0.1199 -0.7929
  317MOL0     C43641   2.867   2.392   0.844 -0.0250 -0.0181 -0.6304
  317MOL0     C43642   2.781   2.323   0.925  0.0479  0.5896  0.5126
  317MOL0     C43643   2.704   2.396   1.018  0.3814  0.4008 -0.5734
  317MOL0     O43644   2.612   2.339   1.102 -0.3208 -0.3072 -0.1115
  317MOL0     C43645   2.627   2.383   1.235  0.8037 -1.0582 -0.4369
  317MOL0     C43646   2.507   2.331   1.305 -0.8254 -0.0467 -0.2267
  317MOL0     C43647   2.508   2.391   1.443  0.7881  0.6173 -1.6445
  317MOL0     C43648   2.383   2.349   1.530  0.1511 -0.5606  0.1675
  317MOL0     C43649   2.398   2.208   1.580  0.8895  0.3167  0.5433
  317MOL0     C43650   2.258   2.152   1.610  0.0549  0.5983 -0.0252
  317MOL0     C43651   2.262   1.999   1.623 -0.4782  0.4683  0.0035
  317MOL0     C43652   2.119   1.964   1.667 -0.7368  0.4031  0.4244
  317MOL0    Cl43653   2.004   1.962   1.535  0.3028 -0.4169  0.0876
  317MOL0     C43654   2.693   2.536   1.003  0.3921 -0.1891 -0.4425
  317MOL0     C43655   2.782   2.605   0.930  0.7317  0.2630 -0.9291
  317MOL0     O43656   2.923   2.527   0.578 -0.2106  0.7211 -0.3140
  317MOL0     C43657   3.147   2.787   0.669 -0.0138  0.7760 -0.0718
  317MOL0     C43658   3.249   2.873   0.637  0.5145  0.0125 -0.7967
  317MOL0     N43659   3.964   3.265   0.523  0.8674  0.7247 -0.7111
  317MOL0     N43660   4.039   3.245   0.624  0.4340 -0.0241  0.3307
  317MOL0     C43661   4.703   3.629   1.409 -0.1451 -0.5755 -0.5716
  317MOL0     C43662   4.750   3.751   1.437  0.1245 -0.7407  0.2878
  317MOL0     C43663   4.908   4.114   1.731  0.6799  0.5150  0.2912
  317MOL0     C43664   4.943   4.165   1.602  0.4576  0.2370 -1.5057
  317MOL0     C43665   4.999   4.291   1.601  0.4279  0.6333 -0.3293
  317MOL0     C43666   5.008   4.374   1.715  0.4343  1.0386  1.0506
  317MOL0     O43667   5.051   4.498   1.708  0.1978  0.3089  0.4092
  317MOL0     C43668   4.959   4.608   1.740 -0.5536 -0.1154 -0.2977
  317MOL0     C43669   4.840   4.614   1.647 -0.7609  0.4058 -0.6424
  317MOL0     C43670   4.748   4.726   1.680  0.0479 -0.0014  0.4416
  317MOL0     C43671   4.621   4.759   1.590 -0.2480  0.3247  0.7545
  317MOL0     C43672   4.660   4.795   1.455 -0.8833 -0.2154  0.6583
  317MOL0     C43673   4.692   4.821   1.340  0.7940  0.0903 -0.3028
  317MOL0     C43674   4.969   4.324   1.838 -0.1352 -0.3625 -0.1339
  317MOL0     C43675   4.921   4.200   1.849  0.9772  0.9183  0.1127
  317MOL0     C43676   4.906   4.145   1.988  0.1236  0.2603  0.3413
  317MOL0     H43677   4.751   3.719   1.783 -1.5816 -1.6951  0.3316
  317MOL0     H43678   4.633   3.520   1.722  1.5558  0.9589  1.7947
  317MOL0     H43679   4.587   3.393   1.273 -1.4583  1.7595 -2.8375
  317MOL0     H43680   4.471   3.519   1.312 -1.8946 -0.6350  1.5563
  317MOL0     H43681   4.478   3.221   1.379 -0.7955 -2.1258 -1.5742
  317MOL0     H43682   4.337   3.332   1.411  3.2802 -0.0168  1.4125
  317MOL0     H43683   4.298   3.370   1.190  1.1941  1.4713  0.7544
  317MOL0     H43684   4.459   3.321   1.135  0.3469  2.6224  0.9192
  317MOL0     H43685   4.430   3.094   1.171 -0.1756 -1.0894 -1.4781
  317MOL0     H43686   4.271   3.123   1.247  0.2234  0.7639  1.5521
  317MOL0     H43687   4.360   3.166   0.954 -2.3967 -1.9520 -1.8242
  317MOL0     H43688   4.211   3.230   1.009 -0.0751  0.4233  0.2177
  317MOL0     H43689   4.280   2.924   0.992 -0.3346 -0.6895 -0.6062
  317MOL0     H43690   4.125   2.979   1.037  1.0422  0.0844  1.5018
  317MOL0     H43691   4.142   2.903   0.793  2.9954 -0.8022 -1.4514
  317MOL0     H43692   4.246   3.044   0.768  0.9595  2.1684  3.0005
  317MOL0     H43693   3.961   3.063   0.881  0.5606 -2.8043 -0.8684
  317MOL0     H43694   4.086   3.198   0.855  2.4956 -1.2667  0.9462
  317MOL0     H43695   3.884   2.952   0.614  0.5738 -0.2544 -1.1029
  317MOL0     H43696   3.856   3.059   0.299 -1.9007 -0.4435 -0.8871
  317MOL0     H43697   3.771   3.207   0.342  0.0897  1.2797  4.9671
  317MOL0     H43698   3.709   2.926   0.433  0.6314  0.2212 -1.4176
  317MOL0     H43699   3.639   3.065   0.521 -0.3700  0.4430  0.4421
  317MOL0     H43700   3.517   3.140   0.308 -2.4028 -1.7879  0.2207
  317MOL0     H43701   3.620   3.025   0.221  1.0113 -0.1230  0.2918
  317MOL0     H43702   3.388   2.935   0.260 -1.2213  0.9991  0.5507
  317MOL0     H43703   3.522   2.845   0.338  0.3441  0.5114 -1.3256
  317MOL0     H43704   3.255   2.772   0.319  1.1139 -0.3560 -0.1630
  317MOL0     H43705   2.959   2.602   0.348 -0.4917 -0.6988 -0.2985
  317MOL0     H43706   3.098   2.481   0.356  1.3794  1.4003  0.8712
  317MOL0     H43707   3.101   2.614   0.242  2.8753 -1.7520 -0.0341
  317MOL0     H43708   2.931   2.343   0.772  1.0376 -0.6599  0.7205
  317MOL0     H43709   2.759   2.217   0.916  0.5754  0.6451 -2.8357
  317MOL0     H43710   2.721   2.354   1.283  1.6150  2.7710  0.5954
  317MOL0     H43711   2.629   2.492   1.245  0.7569 -1.2212  1.7482
  317MOL0     H43712   2.415   2.366   1.257 -1.2438  1.1676  1.3745
  317MOL0     H43713   2.515   2.222   1.297  5.1450 -0.0481  1.2296
  317MOL0     H43714   2.495   2.498   1.428  1.1109  0.9159  0.0115
  317MOL0     H43715   2.600   2.367   1.498  0.5018  1.7309 -0.6367
  317MOL0     H43716   2.296   2.368   1.466  3.1303  2.7490 -3.4270
  317MOL0     H43717   2.390   2.410   1.620  1.8129  1.4384 -1.2044
  317MOL0     H43718   2.451   2.162   1.496  1.0622  3.5019 -1.2343
  317MOL0     H43719   2.462   2.202   1.668 -0.7238  1.4013  1.8350
  317MOL0     H43720   2.193   2.196   1.534  1.4620  2.7044 -0.0925
  317MOL0     H43721   2.220   2.201   1.700 -1.1123  0.2374 -0.2916
  317MOL0     H43722   2.323   1.957   1.704 -2.8179  0.3259  1.8022
  317MOL0     H43723   2.282   1.942   1.532  0.5644 -3.0522  2.2387
  317MOL0     H43724   2.094   2.035   1.746 -0.4731  1.5386 -0.4886
  317MOL0     H43725   2.113   1.858   1.693  0.1986 -0.4426 -2.4811
  317MOL0     H43726   2.615   2.585   1.061 -2.4815 -0.7128 -3.5553
  317MOL0     H43727   2.787   2.713   0.941  0.9544  0.1492  0.1276
  317MOL0     H43728   3.093   2.804   0.761  1.8938  0.1117  1.2232
  317MOL0     H43729   3.283   2.950   0.705  2.1407 -0.7225 -0.7527
  317MOL0     H43730   4.703   3.614   1.301 -2.1393 -4.2569 -0.2488
  317MOL0     H43731   4.778   3.829   1.367  1.4710  0.6962  2.3102
  317MOL0     H43732   4.935   4.104   1.512  0.8429  1.8261 -2.6462
  317MOL0     H43733   5.044   4.336   1.514 -0.1282  4.3204  1.1275
  317MOL0     H43734   4.921   4.589   1.841  0.7896 -2.6920 -0.1845
  317MOL0     H43735   5.015   4.702   1.748 -1.2696  0.3174 -0.3088
  317MOL0     H43736   4.791   4.516   1.640 -5.3264  2.2325  1.5115
  317MOL0     H43737   4.881   4.645   1.550 -2.5324  0.1222 -1.5263
  317MOL0     H43738   4.718   4.706   1.783  0.9124  0.7408  0.8451
  317MOL0     H43739   4.806   4.817   1.695 -2.9149  1.5330  4.0084
  317MOL0     H43740   4.561   4.844   1.625 -2.1715  0.3616 -2.3029
  317MOL0     H43741   4.561   4.668   1.588 -2.4677  1.7197 -1.3907
  317MOL0     H43742   4.718   4.841   1.238 -1.9028 -0.0578 -1.0798
  317MOL0     H43743   4.978   4.391   1.923  0.5879 -0.9867  0.2899
  317MOL0     H43744   4.801   4.157   2.015 -0.3715 -1.9830 -0.4261
  317MOL0     H43745   4.932   4.039   1.990  1.4760  0.5101 -1.6391
  317MOL0     H43746   4.972   4.199   2.057 -0.8133  0.8714  0.7878
  318MOL0     O43747   4.929  10.869   7.535 -0.3546  0.0223  0.2549
  318MOL0     C43748   4.935  10.929   7.640 -1.3286 -1.0884  0.9736
  318MOL0     O43749   4.841  10.930   7.741 -0.6978 -0.2417  0.8835
  318MOL0     C43750   4.723  10.867   7.714 -0.2116  0.1102 -1.2334
  318MOL0     C43751   4.693  10.767   7.802  1.0433  0.8474 -0.4764
  318MOL0     C43752   4.563  10.702   7.770  0.0297  0.4197 -0.3184
  318MOL0     C43753   4.474  10.749   7.681  0.3782  0.5130  0.0584
  318MOL0     O43754   4.355  10.692   7.645  0.3101  0.0293 -0.5451
  318MOL0     C43755   4.260  10.697   7.756 -0.2143  0.4576  0.1431
  318MOL0     C43756   4.251  10.559   7.826  0.7639  0.9141 -0.2596
  318MOL0     C43757   4.182  10.556   7.963  0.0815 -0.8668  0.2287
  318MOL0     C43758   4.031  10.597   7.954 -0.2783  0.5631 -0.0522
  318MOL0     C43759   3.963  10.493   7.861  0.1193 -1.0585 -0.2766
  318MOL0     C43760   3.817  10.529   7.855 -0.1169 -0.5690 -1.3558
  318MOL0     C43761   3.727  10.437   7.778 -0.0158  1.4544 -0.2722
  318MOL0     C43762   3.580  10.424   7.833 -0.2150 -0.6516 -1.2892
  318MOL0     N43763   3.503  10.550   7.813 -0.0889 -0.1597  0.5717
  318MOL0     C43764   3.511  10.660   7.891 -0.6435  0.4593 -0.4259
  318MOL0     C43765   3.454  10.757   7.811 -0.6396 -0.2102 -0.4633
  318MOL0     C43766   3.441  10.898   7.855 -0.5758  0.7843  0.3885
  318MOL0     C43767   3.360  10.998   7.764  0.5830  0.4208 -0.4508
  318MOL0     C43768   3.218  11.024   7.804  0.0541 -0.6048  0.4036
  318MOL0     C43769   3.153  11.147   7.728  0.3735 -0.0382 -0.6314
  318MOL0     O43770   3.034  11.193   7.801  0.0313  0.3702  0.1986
  318MOL0     C43771   2.915  11.221   7.732 -1.4180 -0.1209 -0.7252
  318MOL0     C43772   2.825  11.295   7.807 -0.1399 -0.1522 -0.2838
  318MOL0     C43773   2.704  11.336   7.759 -0.4826 -1.1983  0.5528
  318MOL0     C43774   2.614  11.426   7.851  1.5373 -0.4924 -0.0934
  318MOL0     C43775   2.666  11.305   7.623  0.4910  0.1366 -0.1149
  318MOL0     C43776   2.532  11.329   7.550  0.4522 -0.2704 -0.0376
  318MOL0     O43777   2.539  11.309   7.411  0.2472 -0.0958  0.1402
  318MOL0     C43778   2.420  11.331   7.341  0.0961 -0.0008 -0.8329
  318MOL0     C43779   2.371  11.460   7.338 -0.4576 -0.5344 -1.0971
  318MOL0     C43780   2.247  11.484   7.281  0.4724 -0.0668 -0.0120
  318MOL0     C43781   2.170  11.375   7.232 -0.4253  0.3239  0.3558
  318MOL0     O43782   2.033  11.404   7.211  0.0974  0.7714  0.1290
  318MOL0     C43783   1.948  11.326   7.120 -0.8510  1.2019  0.2504
  318MOL0     C43784   2.011  11.303   6.986 -0.8477 -0.7099  0.4378
  318MOL0     C43785   2.047  11.436   6.902 -0.1942  0.5956 -0.4486
  318MOL0     C43786   2.102  11.403   6.763 -0.7844 -0.2809  0.3682
  318MOL0     C43787   2.116  11.529   6.686 -0.1498 -0.4908 -0.3283
  318MOL0     C43788   2.188  11.474   6.560  0.2662  0.1258  0.0544
  318MOL0     C43789   2.212  11.576   6.453 -0.0401  0.2444 -0.0833
  318MOL0     C43790   2.287  11.520   6.333  0.1980  0.5415  0.4921
  318MOL0    Cl43791   2.441  11.443   6.388 -0.2312  0.0276  0.2869
  318MOL0     C43792   2.209  11.242   7.253 -1.1188  0.4279 -0.5291
  318MOL0     C43793   2.343  11.218   7.302 -0.2367 -0.0324 -0.4860
  318MOL0     O43794   2.424  11.358   7.617 -0.1748 -0.7190 -0.3111
  318MOL0     C43795   2.755  11.224   7.545  0.9093 -0.3489  0.2478
  318MOL0     C43796   2.880  11.188   7.604 -0.4596  0.1778 -0.2438
  318MOL0     N43797   3.400  10.702   7.701  0.7646  0.1131 -0.0735
  318MOL0     N43798   3.424  10.579   7.701 -0.2156  1.0518  0.0601
  318MOL0     C43799   4.515  10.849   7.601 -0.6123  0.9534 -0.1915
  318MOL0     C43800   4.636  10.914   7.613 -0.7498  0.0329 -0.2788
  318MOL0     C43801   5.044  11.028   7.672  0.0400  0.2870 -0.6987
  318MOL0     C43802   5.032  11.106   7.790 -0.2405 -0.4423  0.5095
  318MOL0     C43803   5.121  11.203   7.830 -0.1939  0.6742 -0.7598
  318MOL0     C43804   5.234  11.228   7.754  0.9198  0.5468  1.1677
  318MOL0     O43805   5.323  11.328   7.791 -0.0618 -0.5675  0.9999
  318MOL0     C43806   5.456  11.301   7.739  0.1848 -0.3958  0.9775
  318MOL0     C43807   5.558  11.398   7.799  0.0862 -0.5646  1.2631
  318MOL0     C43808   5.693  11.389   7.732  0.2217 -0.0711  0.3185
  318MOL0     C43809   5.737  11.536   7.691 -0.2198 -1.1299 -0.4672
  318MOL0     C43810   5.879  11.519   7.666  0.3675  1.4527 -0.0629
  318MOL0     C43811   5.990  11.497   7.632 -1.3465  0.3137 -0.6673
  318MOL0     C43812   5.244  11.154   7.628  0.7504 -0.1199 -0.1044
  318MOL0     C43813   5.156  11.053   7.592  0.7706  0.0039 -0.6785
  318MOL0     C43814   5.204  10.961   7.476 -0.3973 -0.6719  0.1743
  318MOL0     H43815   4.752  10.740   7.890 -3.8751 -1.0419  2.6700
  318MOL0     H43816   4.540  10.606   7.816  1.1370  0.1108 -0.3969
  318MOL0     H43817   4.163  10.726   7.714 -1.0319  2.1116  2.9125
  318MOL0     H43818   4.282  10.784   7.819 -0.4819  0.6558 -0.0352
  318MOL0     H43819   4.206  10.479   7.766 -0.6719  1.0420  0.6069
  318MOL0     H43820   4.348  10.520   7.858 -0.2768 -0.7673  1.0129
  318MOL0     H43821   4.212  10.455   7.994  2.0945 -1.1915 -2.3868
  318MOL0     H43822   4.233  10.620   8.036  0.8758 -1.0298 -0.1669
  318MOL0     H43823   3.986  10.600   8.053  0.7148 -1.5251  0.5222
  318MOL0     H43824   4.019  10.698   7.913  0.0714  0.6586  0.0778
  318MOL0     H43825   3.977  10.400   7.916 -2.7916 -1.6361 -0.3493
  318MOL0     H43826   4.004  10.491   7.760  4.3635  0.1333  1.2387
  318MOL0     H43827   3.785  10.534   7.960 -0.4816  2.5250 -1.5147
  318MOL0     H43828   3.810  10.628   7.808  0.7942 -0.7561 -1.9073
  318MOL0     H43829   3.767  10.335   7.784  0.1699  1.4538 -1.3613
  318MOL0     H43830   3.730  10.460   7.671  0.7612  2.4538 -0.0479
  318MOL0     H43831   3.528  10.339   7.789 -0.1438 -0.8811 -0.9361
  318MOL0     H43832   3.589  10.417   7.942  0.2313  2.3953 -1.0219
  318MOL0     H43833   3.569  10.671   7.982 -1.0920 -0.7505  0.0294
  318MOL0     H43834   3.529  10.957   7.882 -0.7227  0.7021  1.0665
  318MOL0     H43835   3.388  10.898   7.951 -2.4039 -3.0273 -0.4557
  318MOL0     H43836   3.407  11.097   7.761 -0.1364  0.8423  1.0587
  318MOL0     H43837   3.345  10.962   7.662 -0.2482 -0.3968 -0.0570
  318MOL0     H43838   3.152  10.938   7.795 -0.3168 -0.3449  0.6267
  318MOL0     H43839   3.214  11.044   7.912 -2.5683 -0.3339  0.3093
  318MOL0     H43840   3.226  11.225   7.708  0.9868  0.5955  3.4243
  318MOL0     H43841   3.128  11.106   7.629 -1.1219  2.3915 -1.3399
  318MOL0     H43842   2.851  11.317   7.910 -0.8538  1.4944 -0.4292
  318MOL0     H43843   2.583  11.513   7.792 -1.9349 -0.4627  1.5434
  318MOL0     H43844   2.674  11.453   7.938  3.4372 -1.4029 -1.0443
  318MOL0     H43845   2.526  11.374   7.889  0.0066  2.2341  0.3203
  318MOL0     H43846   2.422  11.550   7.370 -1.3153 -0.7888  1.2315
  318MOL0     H43847   2.201  11.582   7.275 -1.8221 -0.9614  1.5939
  318MOL0     H43848   1.930  11.236   7.178  0.9778  0.5213 -0.1920
  318MOL0     H43849   1.852  11.379   7.117 -0.2463  3.1920  5.6781
  318MOL0     H43850   2.107  11.253   7.000  1.0384  1.9846 -1.6880
  318MOL0     H43851   1.940  11.243   6.928  1.8789 -2.0270 -1.7487
  318MOL0     H43852   2.111  11.511   6.951  1.5771 -2.0696  1.6043
  318MOL0     H43853   1.947  11.480   6.894 -1.9894 -3.1818 -0.7464
  318MOL0     H43854   2.043  11.324   6.714  1.9769 -2.2864  0.0295
  318MOL0     H43855   2.197  11.349   6.774 -0.7475 -0.4489 -0.6597
  318MOL0     H43856   2.016  11.566   6.662  0.6070  2.4725  0.5805
  318MOL0     H43857   2.155  11.616   6.741  0.5051  0.2947 -1.9719
  318MOL0     H43858   2.120  11.397   6.521 -1.1389 -0.2173  2.9074
  318MOL0     H43859   2.280  11.431   6.600 -1.3401 -4.0612 -0.1848
  318MOL0     H43860   2.263  11.659   6.502  0.3169  0.0808 -0.1693
  318MOL0     H43861   2.120  11.614   6.409 -0.1829 -1.1474 -1.0663
  318MOL0     H43862   2.323  11.593   6.260  1.3290  1.2694  1.7388
  318MOL0     H43863   2.221  11.455   6.274 -1.0212  3.1081 -1.1764
  318MOL0     H43864   2.143  11.160   7.226  1.4798 -1.0369 -2.9843
  318MOL0     H43865   2.381  11.118   7.318 -2.5164 -1.1953 -1.8349
  318MOL0     H43866   2.722  11.188   7.448 -3.2072  0.1324  1.3102
  318MOL0     H43867   2.953  11.134   7.543 -0.9157  0.4838 -1.0733
  318MOL0     H43868   4.444  10.887   7.528 -0.5881  1.6454  0.1332
  318MOL0     H43869   4.649  11.005   7.555 -1.5757 -0.5730 -1.4421
  318MOL0     H43870   4.949  11.097   7.860 -0.1183 -2.1280  0.4861
  318MOL0     H43871   5.091  11.258   7.919 -2.6370 -0.2252 -0.9577
  318MOL0     H43872   5.493  11.201   7.764 -0.3836 -0.4423  1.6885
  318MOL0     H43873   5.461  11.319   7.631  4.9302  1.3495  1.2171
  318MOL0     H43874   5.553  11.394   7.908 -2.0707 -2.6079  1.1799
  318MOL0     H43875   5.509  11.496   7.802 -0.4575 -0.8665  3.2152
  318MOL0     H43876   5.755  11.331   7.802 -0.6636  0.7820  1.8695
  318MOL0     H43877   5.690  11.322   7.646  1.3372  0.3897 -0.1000
  318MOL0     H43878   5.720  11.607   7.773 -0.8278 -2.2905  0.4352
  318MOL0     H43879   5.686  11.569   7.600  0.9656  0.3275 -0.6453
  318MOL0     H43880   6.084  11.458   7.599 -1.2224  0.1098 -0.0778
  318MOL0     H43881   5.315  11.186   7.553 -2.8644  2.7162 -2.6782
  318MOL0     H43882   5.313  10.953   7.481 -0.3983 -0.8150 -0.0371
  318MOL0     H43883   5.161  10.861   7.475  2.0242 -1.7844  0.8714
  318MOL0     H43884   5.159  11.003   7.385 -1.9139  0.1237  1.2267
  319MOL0     O43885   8.267   3.349  10.423 -0.2463  0.5339 -0.0105
  319MOL0     C43886   8.214   3.372  10.523  0.1828 -0.2411 -0.7044
  319MOL0     O43887   8.170   3.497  10.567  0.5597  0.7300 -0.7181
  319MOL0     C43888   8.149   3.597  10.478  0.0516 -0.2603  0.6085
  319MOL0     C43889   8.019   3.631  10.437 -0.0527 -0.3330  0.4543
  319MOL0     C43890   7.984   3.748  10.365 -0.1190  0.4408  0.1071
  319MOL0     C43891   8.089   3.826  10.329  0.1688 -0.4278 -0.1931
  319MOL0     O43892   8.071   3.934  10.261 -0.1954  0.4521  0.1210
  319MOL0     C43893   7.973   4.030  10.301  0.1969  0.3218 -0.0304
  319MOL0     C43894   7.975   4.144  10.205 -0.5383  0.1923  0.1974
  319MOL0     C43895   8.102   4.231  10.221 -0.4990 -0.6106 -0.0812
  319MOL0     C43896   8.094   4.323  10.346 -0.1347  0.8222  0.2533
  319MOL0     C43897   8.230   4.386  10.369 -0.0043 -0.8095 -0.8895
  319MOL0     C43898   8.333   4.286  10.399 -0.0846  0.7712  0.5698
  319MOL0     C43899   8.442   4.334  10.501  0.7002  0.6046 -0.4917
  319MOL0     C43900   8.375   4.351  10.636 -0.7339  0.4146 -0.4668
  319MOL0     N43901   8.475   4.395  10.730  0.4873  0.2663  0.2450
  319MOL0     C43902   8.461   4.515  10.803 -0.6287  0.5474 -0.4757
  319MOL0     C43903   8.566   4.525  10.886 -0.3869  0.6009 -0.3436
  319MOL0     C43904   8.611   4.638  10.980  0.4472 -0.0274 -0.4735
  319MOL0     C43905   8.736   4.614  11.064 -0.2174 -0.9083 -0.0640
  319MOL0     C43906   8.815   4.745  11.093 -0.2947  0.2159 -0.1160
  319MOL0     C43907   8.785   4.801  11.231 -1.2735  1.3398  0.0027
  319MOL0     O43908   8.885   4.893  11.248  0.7489  0.0981  0.4989
  319MOL0     C43909   8.911   4.939  11.378 -0.8118 -0.7020 -0.1545
  319MOL0     C43910   8.996   5.051  11.386  0.5415  0.7578  0.1557
  319MOL0     C43911   9.043   5.101  11.514 -1.2876 -0.7421  0.3868
  319MOL0     C43912   9.135   5.220  11.501  0.8856 -1.0607 -0.2861
  319MOL0     C43913   8.988   5.049  11.636  1.0461  0.1688  0.1410
  319MOL0     C43914   9.008   5.100  11.774 -0.1715  1.5428  0.7997
  319MOL0     O43915   9.133   5.139  11.793 -0.6624  0.0279 -0.8948
  319MOL0     C43916   9.160   5.214  11.911  0.5035  0.3628  0.4679
  319MOL0     C43917   9.194   5.148  12.024 -0.8897 -0.3829  0.0613
  319MOL0     C43918   9.215   5.211  12.151 -0.2729  1.3381  0.7442
  319MOL0     C43919   9.187   5.350  12.158  0.1554 -0.5326 -0.7518
  319MOL0     O43920   9.206   5.435  12.267 -0.1452  0.1647  0.0300
  319MOL0     C43921   9.288   5.390  12.380  1.0476  0.0736 -0.0686
  319MOL0     C43922   9.388   5.500  12.417  0.3059  0.4832  0.5361
  319MOL0     C43923   9.474   5.545  12.294 -0.2549 -0.3777  0.7133
  319MOL0     C43924   9.532   5.431  12.225  0.5079  0.4683  0.7328
  319MOL0     C43925   9.650   5.471  12.135  1.2174 -0.4880 -0.3821
  319MOL0     C43926   9.606   5.584  12.037  0.2192 -0.4049  0.1605
  319MOL0     C43927   9.726   5.641  11.955  0.4442 -0.3795 -0.2144
  319MOL0     C43928   9.661   5.694  11.832 -0.3569  0.5563 -0.3917
  319MOL0    Cl43929   9.765   5.757  11.700 -0.0363  0.2431 -0.2799
  319MOL0     C43930   9.154   5.420  12.040 -0.3970 -0.4292 -0.1346
  319MOL0     C43931   9.141   5.357  11.911 -0.6054  0.7925  0.0908
  319MOL0     O43932   8.911   5.127  11.844  0.3100  0.1852  0.8023
  319MOL0     C43933   8.878   4.953  11.620 -0.2691 -0.3439  0.0449
  319MOL0     C43934   8.844   4.904  11.496  0.0079 -0.5192 -0.2032
  319MOL0     N43935   8.641   4.409  10.864 -0.3638 -0.2607  0.4425
  319MOL0     N43936   8.576   4.322  10.787 -0.2938 -0.7575  0.4751
  319MOL0     C43937   8.226   3.803  10.364 -0.5519 -0.0704  0.1387
  319MOL0     C43938   8.250   3.685  10.442 -0.2709 -0.1920  0.1622
  319MOL0     C43939   8.201   3.257  10.626 -0.3949  0.5421  0.3191
  319MOL0     C43940   8.162   3.271  10.763 -0.2555  0.4528 -0.6708
  319MOL0     C43941   8.161   3.160  10.855  0.2536 -0.5822  0.1221
  319MOL0     C43942   8.186   3.044  10.810  0.4855  0.4023  0.2896
  319MOL0     O43943   8.219   2.941  10.894  0.9626  0.0382  0.1347
  319MOL0     C43944   8.167   2.938  11.035  0.4366 -0.6684  0.4615
  319MOL0     C43945   8.174   2.791  11.087  0.1467  0.0143  0.1238
  319MOL0     C43946   8.314   2.742  11.124  0.2174 -0.1042 -0.0222
  319MOL0     C43947   8.353   2.777  11.273 -0.3378 -0.5054  0.4336
  319MOL0     C43948   8.420   2.659  11.331  0.2084  0.5713  0.8177
  319MOL0     C43949   8.467   2.553  11.363 -0.3138 -0.2161  0.5577
  319MOL0     C43950   8.207   3.017  10.674  0.2867  0.3644  0.1140
  319MOL0     C43951   8.211   3.119  10.583 -0.1650  0.0688 -0.4631
  319MOL0     C43952   8.248   3.067  10.450 -0.2858 -0.3543 -0.4836
  319MOL0     H43953   7.934   3.565  10.450 -2.8228  2.5475 -1.5334
  319MOL0     H43954   7.884   3.756  10.324  0.6201  2.3037 -1.4908
  319MOL0     H43955   7.997   4.060  10.403  0.6770 -1.0883  0.2931
  319MOL0     H43956   7.878   3.977  10.296  0.5728 -1.1412  4.3344
  319MOL0     H43957   7.960   4.113  10.101  1.9976  0.5431 -0.3375
  319MOL0     H43958   7.894   4.214  10.227  0.0023  1.0067 -0.3435
  319MOL0     H43959   8.189   4.165  10.218  1.6764  2.1467 -1.3050
  319MOL0     H43960   8.108   4.305  10.141  1.6069 -0.7523 -0.1164
  319MOL0     H43961   8.027   4.409  10.337 -0.9098  0.2279  0.1941
  319MOL0     H43962   8.060   4.268  10.434  0.1271  0.5381  0.1790
  319MOL0     H43963   8.212   4.455  10.453 -1.2983 -1.0346 -0.9695
  319MOL0     H43964   8.259   4.447  10.284  2.1663 -0.2927  0.1300
  319MOL0     H43965   8.287   4.203  10.455  0.5944  2.8726  4.5726
  319MOL0     H43966   8.391   4.260  10.310  1.9012  0.2826  1.9409
  319MOL0     H43967   8.482   4.431  10.470  1.3370  0.2199 -0.9153
  319MOL0     H43968   8.525   4.262  10.503  0.0003 -0.2100  1.1470
  319MOL0     H43969   8.281   4.406  10.640  0.4578  2.6489 -1.2209
  319MOL0     H43970   8.350   4.250  10.668  0.4190  0.2288 -0.1178
  319MOL0     H43971   8.389   4.593  10.782 -0.9759  0.2350 -0.4587
  319MOL0     H43972   8.529   4.662  11.049  1.1239  0.8397  0.0529
  319MOL0     H43973   8.636   4.720  10.913  1.7573 -0.0222 -0.0039
  319MOL0     H43974   8.719   4.564  11.160  1.1563  0.1647  0.7733
  319MOL0     H43975   8.810   4.563  11.001  1.9838  1.9820 -0.0336
  319MOL0     H43976   8.915   4.706  11.113  0.9309  2.7133 -0.9120
  319MOL0     H43977   8.820   4.815  11.009  0.8353 -0.9650 -1.0645
  319MOL0     H43978   8.685   4.844  11.238 -1.3691  1.1316 -0.0716
  319MOL0     H43979   8.797   4.719  11.303  2.9937  2.1354  0.4760
  319MOL0     H43980   9.034   5.092  11.293  1.5181 -0.4248  0.0070
  319MOL0     H43981   9.111   5.295  11.577 -1.0270 -1.7738 -0.1225
  319MOL0     H43982   9.143   5.256  11.398  1.4662 -1.4985 -0.4035
  319MOL0     H43983   9.237   5.185  11.521  1.7860  2.0197  1.0413
  319MOL0     H43984   9.216   5.042  12.018  1.3771 -0.0113  0.8155
  319MOL0     H43985   9.229   5.146  12.236 -2.8568 -1.2557 -0.6467
  319MOL0     H43986   9.219   5.366  12.461  1.1672 -0.3227 -0.0813
  319MOL0     H43987   9.333   5.293  12.359 -0.4054 -0.4476 -0.9696
  319MOL0     H43988   9.337   5.589  12.454 -2.7289  0.5881 -3.2032
  319MOL0     H43989   9.450   5.468  12.501 -1.9718 -4.0011  0.8233
  319MOL0     H43990   9.548   5.615  12.334 -2.0156  0.5947  2.4292
  319MOL0     H43991   9.398   5.593  12.231  0.2552  3.0922  2.4833
  319MOL0     H43992   9.456   5.384  12.163  2.1857  0.9669 -1.8833
  319MOL0     H43993   9.577   5.358  12.292 -1.9220  0.5071  2.5248
  319MOL0     H43994   9.739   5.504  12.190 -0.2745  2.1636  0.6033
  319MOL0     H43995   9.680   5.392  12.065 -1.1145 -0.7272 -1.1853
  319MOL0     H43996   9.566   5.670  12.092  2.0712  0.4148  0.2726
  319MOL0     H43997   9.534   5.539  11.968  1.3348  2.7677 -3.3991
  319MOL0     H43998   9.807   5.568  11.939  0.8171  0.4021 -2.2732
  319MOL0     H43999   9.773   5.728  12.002 -0.6134  0.7251 -1.1322
  319MOL0     H44000   9.586   5.767  11.865 -1.2908  0.5049 -2.3072
  319MOL0     H44001   9.616   5.611  11.777 -0.3370  2.0969 -2.8802
  319MOL0     H44002   9.133   5.525  12.054  0.8866 -0.3405  1.5052
  319MOL0     H44003   9.106   5.400  11.819  0.8722  1.6234 -0.1131
  319MOL0     H44004   8.812   4.925  11.702  0.5120 -1.6560  0.2463
  319MOL0     H44005   8.767   4.828  11.492 -0.1463 -0.2932 -2.4422
  319MOL0     H44006   8.310   3.858  10.322 -2.4264  2.0348 -1.0604
  319MOL0     H44007   8.349   3.648  10.463 -0.9262 -0.1291  4.2614
  319MOL0     H44008   8.141   3.370  10.802 -0.1940  0.4348 -0.5893
  319MOL0     H44009   8.143   3.168  10.962  2.6666 -1.1257  0.6439
  319MOL0     H44010   8.224   3.007  11.097  0.0320  0.2529 -0.1660
  319MOL0     H44011   8.066   2.980  11.039  0.9121  0.4064  1.4577
  319MOL0     H44012   8.132   2.735  11.002 -2.4864  2.1250 -0.0998
  319MOL0     H44013   8.108   2.782  11.173  1.4711 -2.5343  0.9821
  319MOL0     H44014   8.319   2.634  11.109  0.6196 -0.4108  1.9887
  319MOL0     H44015   8.385   2.782  11.051  2.1863 -3.1742  0.0014
  319MOL0     H44016   8.277   2.826  11.335  0.1896 -2.0728  2.4119
  319MOL0     H44017   8.428   2.856  11.269  0.2999 -0.8345  3.5482
  319MOL0     H44018   8.525   2.466  11.387 -0.0703 -0.4433 -0.8111
  319MOL0     H44019   8.233   2.914  10.651 -1.0207  0.4794 -2.1369
  319MOL0     H44020   8.218   2.962  10.443 -3.0855  0.2819  0.4613
  319MOL0     H44021   8.187   3.118  10.375 -1.6447  1.3990  1.7156
  319MOL0     H44022   8.352   3.091  10.427 -0.2587  1.0721  0.9658
  320MOL0     O44023   1.140   1.170   3.087 -0.0317 -0.1992 -0.1416
  320MOL0     C44024   1.023   1.208   3.104  0.8972 -0.3430 -0.3621
  320MOL0     O44025   0.913   1.192   3.024 -0.0301 -0.0468  0.0871
  320MOL0     C44026   0.921   1.102   2.914  0.2735  0.3258  0.1683
  320MOL0     C44027   0.964   0.967   2.926  1.4347  0.2982  0.2422
  320MOL0     C44028   0.951   0.885   2.816  1.3723 -0.3882  1.3359
  320MOL0     C44029   0.895   0.922   2.697 -0.1016 -0.1383  0.6455
  320MOL0     O44030   0.907   0.852   2.576 -0.2233 -0.4426 -0.6119
  320MOL0     C44031   0.941   0.711   2.577  0.3360 -0.8871  0.4137
  320MOL0     C44032   0.892   0.637   2.450 -0.0687  0.0867  0.7721
  320MOL0     C44033   0.768   0.702   2.377 -0.2010  0.0607 -1.6820
  320MOL0     C44034   0.730   0.628   2.251  0.3944  0.9385 -1.0064
  320MOL0     C44035   0.581   0.639   2.210  0.3804 -0.4604 -0.2593
  320MOL0     C44036   0.543   0.787   2.185  0.0557  0.1585  0.8136
  320MOL0     C44037   0.392   0.811   2.177  0.0990  0.0406 -1.1663
  320MOL0     C44038   0.346   0.953   2.153 -0.1377 -1.1368  0.6887
  320MOL0     N44039   0.208   0.955   2.107  0.0987  0.2611 -0.1096
  320MOL0     C44040   0.144   0.871   2.010 -0.4666  0.5539 -0.0532
  320MOL0     C44041   0.041   0.935   1.957 -0.5886 -0.8334 -0.2756
  320MOL0     C44042  -0.057   0.900   1.859  0.0203  0.2182  0.2897
  320MOL0     C44043   0.002   0.808   1.749  0.1003  0.2268  0.7720
  320MOL0     C44044  -0.084   0.793   1.624 -0.6467 -0.4142  0.1919
  320MOL0     C44045  -0.005   0.700   1.529 -0.1223  0.8736  0.2092
  320MOL0     O44046  -0.086   0.680   1.415 -0.5817  0.5340 -0.0116
  320MOL0     C44047  -0.126   0.558   1.368 -0.5945  1.3533  0.2247
  320MOL0     C44048  -0.127   0.538   1.230 -0.9800 -0.1204 -0.0791
  320MOL0     C44049  -0.156   0.412   1.181  0.4095 -0.5107  0.0738
  320MOL0     C44050  -0.130   0.393   1.031  0.1313 -0.0311  0.5514
  320MOL0     C44051  -0.209   0.307   1.269  0.8284 -0.1458  0.3506
  320MOL0     C44052  -0.270   0.180   1.222  0.3308 -0.7217  0.5352
  320MOL0     O44053  -0.332   0.095   1.313 -0.5842  0.0537  0.2561
  320MOL0     C44054  -0.378  -0.024   1.261 -0.0912  0.0167  0.5316
  320MOL0     C44055  -0.299  -0.125   1.197 -0.7721 -0.3225  0.5741
  320MOL0     C44056  -0.358  -0.244   1.156  0.2865  0.9518 -0.5654
  320MOL0     C44057  -0.495  -0.267   1.184  1.5211 -0.2343 -0.4641
  320MOL0     O44058  -0.555  -0.385   1.163  0.7868  0.3111 -0.2610
  320MOL0     C44059  -0.600  -0.454   1.278  1.4878 -0.0873 -0.5075
  320MOL0     C44060  -0.635  -0.599   1.243 -0.6792 -0.4816  0.3747
  320MOL0     C44061  -0.512  -0.674   1.201 -0.2159  0.0721 -1.0839
  320MOL0     C44062  -0.456  -0.750   1.326 -0.8866  0.9187  0.5795
  320MOL0     C44063  -0.367  -0.875   1.298 -0.0836 -0.0661  0.3349
  320MOL0     C44064  -0.243  -0.847   1.217  0.3562  0.9679  0.1992
  320MOL0     C44065  -0.134  -0.750   1.263 -0.4915 -0.6698 -0.0043
  320MOL0     C44066  -0.127  -0.608   1.193 -0.2851  0.3091 -0.1356
  320MOL0    Cl44067  -0.052  -0.634   1.026 -0.2871 -0.4025  0.2404
  320MOL0     C44068  -0.572  -0.163   1.240  0.5058  0.0794  0.0247
  320MOL0     C44069  -0.511  -0.041   1.269 -0.6775  0.1153 -0.0525
  320MOL0     O44070  -0.257   0.150   1.106  0.2211 -0.9156  0.3873
  320MOL0     C44071  -0.215   0.333   1.400  0.2069 -0.4837  0.1374
  320MOL0     C44072  -0.170   0.451   1.452 -0.0765  0.1294 -0.2964
  320MOL0     N44073   0.044   1.062   2.014 -0.0109  1.2727  0.3013
  320MOL0     N44074   0.137   1.074   2.107 -0.1274  0.0484  0.5397
  320MOL0     C44075   0.848   1.053   2.695  1.2330 -0.8767 -0.5223
  320MOL0     C44076   0.855   1.137   2.807  0.6643 -0.5149  0.5623
  320MOL0     C44077   0.996   1.270   3.234  0.3207  0.0383  0.3608
  320MOL0     C44078   1.098   1.330   3.307 -0.5144 -0.2467  0.1948
  320MOL0     C44079   1.074   1.390   3.434  1.1716 -0.1322  0.0896
  320MOL0     C44080   0.942   1.389   3.486 -0.2496 -0.0271  0.0065
  320MOL0     O44081   0.915   1.426   3.612 -0.1188 -0.1068 -0.0273
  320MOL0     C44082   1.009   1.491   3.691 -0.4246  0.5403  0.2853
  320MOL0     C44083   0.959   1.530   3.828 -0.0273 -0.0546  0.9787
  320MOL0     C44084   1.067   1.575   3.933 -0.7128  0.4529  0.5958
  320MOL0     C44085   1.017   1.643   4.061  0.8105  0.6810  0.0507
  320MOL0     C44086   0.900   1.584   4.123 -0.6374  0.3921  0.1550
  320MOL0     C44087   0.803   1.539   4.178  0.6739  0.3763 -0.2991
  320MOL0     C44088   0.841   1.319   3.417  0.1019 -1.2441  1.0607
  320MOL0     C44089   0.862   1.253   3.292  0.3794  0.2636 -0.4554
  320MOL0     C44090   0.759   1.164   3.246  0.0666  0.3204 -0.1810
  320MOL0     H44091   1.006   0.928   3.019  0.1298 -0.1174  0.6825
  320MOL0     H44092   0.984   0.782   2.824  1.5968 -0.5319 -0.8630
  320MOL0     H44093   0.892   0.674   2.667  1.3917  2.2491  2.4533
  320MOL0     H44094   1.047   0.686   2.592  0.3783 -0.0851  1.5855
  320MOL0     H44095   0.965   0.629   2.368 -3.5125 -2.4395 -2.4050
  320MOL0     H44096   0.864   0.535   2.479 -0.1346 -0.8732 -2.2876
  320MOL0     H44097   0.686   0.690   2.449  0.3216  2.4484 -0.5860
  320MOL0     H44098   0.788   0.803   2.342 -0.8745  1.0222  0.5247
  320MOL0     H44099   0.789   0.648   2.161  0.0221 -2.0812 -2.0234
  320MOL0     H44100   0.749   0.522   2.268 -0.5887  0.7012 -1.3375
  320MOL0     H44101   0.519   0.603   2.292 -1.7282 -0.4497 -1.7634
  320MOL0     H44102   0.561   0.589   2.114 -1.1717  1.3529 -0.9561
  320MOL0     H44103   0.596   0.841   2.265  1.8498 -0.6025  0.1801
  320MOL0     H44104   0.588   0.811   2.088  1.1826 -0.2335  1.2254
  320MOL0     H44105   0.344   0.765   2.263  1.6315 -0.5482 -0.5913
  320MOL0     H44106   0.360   0.739   2.101  2.8519 -2.6517  0.0074
  320MOL0     H44107   0.363   1.015   2.242  2.8657  0.5486 -0.8953
  320MOL0     H44108   0.406   0.998   2.074 -3.7285  0.2922 -1.5202
  320MOL0     H44109   0.161   0.766   1.990 -0.3858  0.5940 -0.2013
  320MOL0     H44110  -0.087   0.997   1.817 -1.9226  0.9569  3.0473
  320MOL0     H44111  -0.150   0.857   1.899 -0.0460  1.0953  1.1301
  320MOL0     H44112   0.104   0.844   1.738  0.2580  0.5331  2.9040
  320MOL0     H44113   0.014   0.706   1.786 -1.1862 -0.9267 -1.6805
  320MOL0     H44114  -0.183   0.749   1.642  0.9355 -3.1590  3.1437
  320MOL0     H44115  -0.092   0.894   1.584 -0.5259 -0.8142 -0.8896
  320MOL0     H44116   0.091   0.744   1.500  0.6517 -0.2977  0.9448
  320MOL0     H44117   0.027   0.609   1.579 -1.5126  1.4738  2.3420
  320MOL0     H44118  -0.105   0.627   1.173  1.5860  0.0793  1.0451
  320MOL0     H44119  -0.054   0.315   1.024  1.9268  1.6045  0.6508
  320MOL0     H44120  -0.104   0.490   0.987 -0.2732  0.4451  1.3435
  320MOL0     H44121  -0.225   0.362   0.987 -0.0810 -0.3692  1.2449
  320MOL0     H44122  -0.192  -0.109   1.183 -1.1036  3.1613  0.9468
  320MOL0     H44123  -0.305  -0.329   1.114  1.2583 -0.8858  3.8547
  320MOL0     H44124  -0.513  -0.459   1.346  0.6656 -0.4482  0.5492
  320MOL0     H44125  -0.687  -0.407   1.324  1.0714  1.0138 -2.3403
  320MOL0     H44126  -0.682  -0.652   1.327 -3.0675 -0.4210 -0.8387
  320MOL0     H44127  -0.702  -0.596   1.157  1.1749  1.3433 -1.1160
  320MOL0     H44128  -0.433  -0.610   1.160  0.6739  1.2840  2.2185
  320MOL0     H44129  -0.541  -0.748   1.126  1.1773  0.5902 -2.1652
  320MOL0     H44130  -0.530  -0.783   1.400  0.5335 -0.0711  1.6354
  320MOL0     H44131  -0.394  -0.672   1.371 -1.6462  0.8477  1.7771
  320MOL0     H44132  -0.339  -0.923   1.392  2.5446  4.3293  2.1240
  320MOL0     H44133  -0.427  -0.933   1.228 -0.7935  1.9790 -0.8550
  320MOL0     H44134  -0.279  -0.824   1.117  0.1219  1.5007  0.4055
  320MOL0     H44135  -0.187  -0.941   1.214 -1.1820  0.0537 -1.5830
  320MOL0     H44136  -0.034  -0.793   1.250 -0.5810 -1.1573  0.8415
  320MOL0     H44137  -0.148  -0.734   1.371 -3.2284  1.2706 -0.5335
  320MOL0     H44138  -0.055  -0.555   1.257 -0.6115 -1.6253  1.9214
  320MOL0     H44139  -0.217  -0.550   1.171  0.8485  2.0685 -0.4307
  320MOL0     H44140  -0.680  -0.177   1.248  0.1885  1.7907 -0.6829
  320MOL0     H44141  -0.565   0.041   1.315 -3.4377 -2.9711  2.7535
  320MOL0     H44142  -0.259   0.257   1.464 -0.5598 -0.9112 -0.8750
  320MOL0     H44143  -0.180   0.467   1.559  1.9666 -0.9934  0.1030
  320MOL0     H44144   0.811   1.106   2.608  0.9367  1.4905  0.9722
  320MOL0     H44145   0.823   1.241   2.805 -1.1601 -1.0170 -2.9625
  320MOL0     H44146   1.203   1.323   3.281 -1.1227 -1.5441 -2.3281
  320MOL0     H44147   1.162   1.430   3.484  1.2463  2.0689 -1.6187
  320MOL0     H44148   1.089   1.419   3.711  0.1535  1.0440 -0.1517
  320MOL0     H44149   1.052   1.580   3.643 -1.0791  0.7813  0.1407
  320MOL0     H44150   0.901   1.448   3.872 -0.9135  0.0541  0.0546
  320MOL0     H44151   0.883   1.608   3.824 -1.7856 -1.6933  0.6569
  320MOL0     H44152   1.120   1.483   3.962  0.7111  1.3820  1.0317
  320MOL0     H44153   1.138   1.643   3.885 -2.3992  3.0168  1.5342
  320MOL0     H44154   1.014   1.751   4.051  2.0172  0.6869 -0.3926
  320MOL0     H44155   1.098   1.623   4.132  0.5270  0.2164  0.2491
  320MOL0     H44156   0.727   1.488   4.233  1.4868  1.1599  1.6369
  320MOL0     H44157   0.745   1.303   3.466  1.4205 -1.4871  3.6951
  320MOL0     H44158   0.720   1.209   3.154 -0.3676 -1.9081 -1.1307
  320MOL0     H44159   0.812   1.070   3.231  1.1590  0.7566  0.7454
  320MOL0     H44160   0.677   1.158   3.317  0.6015 -0.7356  0.3606
  321MOL0     O44161  11.418   5.307   4.221  0.4021  0.6369  1.1907
  321MOL0     C44162  11.433   5.256   4.106  0.7109 -0.0268 -0.4371
  321MOL0     O44163  11.328   5.203   4.032 -0.5939 -0.1917  0.1456
  321MOL0     C44164  11.190   5.238   4.051  0.2597 -0.0507  0.7176
  321MOL0     C44165  11.146   5.352   4.118  0.4329 -0.2004 -0.3982
  321MOL0     C44166  11.005   5.381   4.127  0.1998  0.8935  0.2148
  321MOL0     C44167  10.912   5.312   4.063  0.2264 -0.0845  0.6787
  321MOL0     O44168  10.777   5.355   4.082  0.0922  0.2242  0.3033
  321MOL0     C44169  10.693   5.315   3.974  0.4266 -0.6263  0.8989
  321MOL0     C44170  10.589   5.420   3.951 -0.1269  0.3549  0.2352
  321MOL0     C44171  10.535   5.427   3.808 -0.7317 -0.7384  0.2925
  321MOL0     C44172  10.468   5.291   3.763 -0.4275 -0.6287  0.3814
  321MOL0     C44173  10.386   5.325   3.640 -0.1125  0.5546  0.3073
  321MOL0     C44174  10.298   5.208   3.602 -0.5620 -0.6509  0.0012
  321MOL0     C44175  10.211   5.237   3.484  0.1549 -0.1475  0.6182
  321MOL0     C44176  10.131   5.110   3.448 -0.7389  0.6371 -0.3585
  321MOL0     N44177  10.034   5.146   3.342  1.2067  1.2539  0.4892
  321MOL0     C44178  10.069   5.161   3.212 -0.1280  0.1209  0.6757
  321MOL0     C44179   9.960   5.145   3.138 -0.4213  0.3639 -0.5351
  321MOL0     C44180   9.950   5.143   2.992 -0.4001 -0.5413  0.1687
  321MOL0     C44181  10.080   5.141   2.918 -0.2599 -0.0185  0.6210
  321MOL0     C44182  10.063   5.080   2.780  0.8179  0.1963  1.1443
  321MOL0     C44183  10.199   5.070   2.709  0.7240 -0.0342 -0.7916
  321MOL0     O44184  10.193   5.039   2.571 -0.3956  0.5247 -0.6382
  321MOL0     C44185  10.214   4.907   2.549  0.0694  0.7351  0.5692
  321MOL0     C44186  10.327   4.844   2.597  0.4514 -0.7203 -0.2587
  321MOL0     C44187  10.365   4.717   2.562  0.0455 -0.1886  0.8575
  321MOL0     C44188  10.486   4.655   2.633  0.1215  0.4982 -0.6466
  321MOL0     C44189  10.291   4.644   2.465  0.1149  0.4651 -0.5861
  321MOL0     C44190  10.298   4.492   2.429  0.8268 -0.2511  0.7622
  321MOL0     O44191  10.184   4.437   2.371 -0.3388 -0.8038  0.6346
  321MOL0     C44192  10.182   4.303   2.356 -0.1405  0.7216 -0.0349
  321MOL0     C44193  10.147   4.251   2.231 -0.0082 -0.6414 -0.2865
  321MOL0     C44194  10.128   4.114   2.213 -0.6675 -0.0536 -0.4980
  321MOL0     C44195  10.154   4.025   2.315  0.0437  0.1267 -0.3068
  321MOL0     O44196  10.148   3.887   2.302 -0.9898  0.2756 -0.0412
  321MOL0     C44197  10.040   3.835   2.212 -0.6255 -0.1208  0.2121
  321MOL0     C44198  10.042   3.686   2.219  0.2788  0.9027  0.0758
  321MOL0     C44199   9.926   3.618   2.146 -0.0111  0.4504 -0.2799
  321MOL0     C44200   9.932   3.467   2.160 -0.0706 -0.0361 -0.8285
  321MOL0     C44201   9.885   3.429   2.303 -0.2508  0.1137  0.0880
  321MOL0     C44202   9.896   3.273   2.325  0.3565  0.1931  0.5784
  321MOL0     C44203   9.827   3.206   2.447  0.5732 -0.2512 -0.7200
  321MOL0     C44204   9.857   3.055   2.476 -0.1355 -0.2649 -0.0592
  321MOL0    Cl44205   9.719   2.963   2.554 -0.3418 -0.5147  0.1969
  321MOL0     C44206  10.206   4.077   2.431 -0.4861 -0.7312 -0.1785
  321MOL0     C44207  10.222   4.216   2.453  0.3147  0.3030  0.2958
  321MOL0     O44208  10.403   4.435   2.446  0.0043 -0.8106  0.3076
  321MOL0     C44209  10.188   4.715   2.403 -0.1525 -0.8732  0.0966
  321MOL0     C44210  10.142   4.840   2.448 -0.0056  0.0473  0.0413
  321MOL0     N44211   9.855   5.156   3.223  0.8059 -0.2693 -0.0682
  321MOL0     N44212   9.899   5.165   3.343 -0.6047 -0.1989  0.7942
  321MOL0     C44213  10.949   5.195   4.000  0.3552  0.4669  0.7152
  321MOL0     C44214  11.084   5.159   3.986 -0.1898  0.1226 -0.2342
  321MOL0     C44215  11.563   5.247   4.062 -1.2450 -0.0152  0.8075
  321MOL0     C44216  11.587   5.162   3.955  0.8287 -0.8711  0.1067
  321MOL0     C44217  11.711   5.152   3.881 -0.0900 -0.2630 -0.1856
  321MOL0     C44218  11.812   5.231   3.930 -0.6905  0.4967 -0.2908
  321MOL0     O44219  11.937   5.233   3.872 -0.5948 -0.1380  1.5025
  321MOL0     C44220  11.947   5.160   3.749 -0.4309  0.4006 -0.7447
  321MOL0     C44221  12.099   5.168   3.688  0.7613  0.0382 -0.2959
  321MOL0     C44222  12.119   5.107   3.547 -0.1665  0.5494  1.2708
  321MOL0     C44223  12.266   5.079   3.513 -0.0002  0.0145  0.3460
  321MOL0     C44224  12.340   5.196   3.473 -0.7884  0.0314  0.9267
  321MOL0     C44225  12.380   5.300   3.428  0.3977 -0.3720  0.0186
  321MOL0     C44226  11.791   5.320   4.033 -0.7622 -0.6888 -0.1169
  321MOL0     C44227  11.672   5.330   4.099  0.2286  1.1608  0.3544
  321MOL0     C44228  11.649   5.445   4.190  0.0629 -0.9720  0.2843
  321MOL0     H44229  11.212   5.428   4.158 -0.1043  0.2485 -0.3553
  321MOL0     H44230  10.979   5.471   4.182  1.7723 -0.6722  3.8641
  321MOL0     H44231  10.653   5.216   3.998  3.5962 -2.0533  0.8171
  321MOL0     H44232  10.754   5.304   3.884 -1.6051 -0.3098 -0.5939
  321MOL0     H44233  10.515   5.393   4.026  2.0265  0.1085  2.3887
  321MOL0     H44234  10.631   5.515   3.986  0.5610 -0.4584  1.6930
  321MOL0     H44235  10.453   5.499   3.814 -2.0595 -2.1931 -0.0109
  321MOL0     H44236  10.613   5.453   3.736 -2.0809  0.9347 -0.6265
  321MOL0     H44237  10.532   5.203   3.751 -0.2797 -0.2913 -1.5293
  321MOL0     H44238  10.402   5.275   3.849 -0.3026 -0.3346  0.5342
  321MOL0     H44239  10.462   5.336   3.562  0.9540 -2.4753  0.7620
  321MOL0     H44240  10.324   5.415   3.646 -3.0665 -1.4078  1.8949
  321MOL0     H44241  10.361   5.122   3.582  3.0255  1.9674 -1.0551
  321MOL0     H44242  10.242   5.176   3.690 -1.4729 -2.4128 -1.1439
  321MOL0     H44243  10.273   5.265   3.399  1.7836 -0.7771  1.5625
  321MOL0     H44244  10.147   5.319   3.518 -2.0701 -0.8350 -1.5968
  321MOL0     H44245  10.196   5.029   3.413  0.1366  1.1645  0.0215
  321MOL0     H44246  10.075   5.087   3.539  0.1771  5.2969  1.6224
  321MOL0     H44247  10.170   5.150   3.175 -0.4339  0.0071 -0.1486
  321MOL0     H44248   9.903   5.237   2.963  0.6634 -0.9981 -3.6604
  321MOL0     H44249   9.893   5.059   2.952 -2.5175  1.1172 -0.4627
  321MOL0     H44250  10.127   5.240   2.915  1.0791 -0.5393  2.6086
  321MOL0     H44251  10.153   5.079   2.971  0.6690  0.3878 -0.1569
  321MOL0     H44252  10.017   4.981   2.780  2.0403 -0.4858 -1.7839
  321MOL0     H44253   9.991   5.151   2.739 -0.2473  0.0547  2.6980
  321MOL0     H44254  10.249   5.167   2.717 -0.6751  0.7482 -1.1965
  321MOL0     H44255  10.261   5.000   2.765 -1.7337 -2.6135 -1.0599
  321MOL0     H44256  10.399   4.913   2.641 -0.2893  1.4962 -2.3025
  321MOL0     H44257  10.570   4.672   2.566 -0.4471 -1.8163 -2.0421
  321MOL0     H44258  10.466   4.550   2.656 -4.5221  0.8421 -2.0942
  321MOL0     H44259  10.503   4.707   2.728 -2.1866 -0.0606  0.1371
  321MOL0     H44260  10.115   4.320   2.153  1.6188 -0.0931 -0.5117
  321MOL0     H44261  10.090   4.078   2.118 -1.4186 -0.6408  0.0142
  321MOL0     H44262   9.945   3.870   2.251 -1.5030 -1.9356 -0.1689
  321MOL0     H44263  10.043   3.864   2.106 -0.6773 -0.1447  0.2044
  321MOL0     H44264  10.142   3.652   2.188  1.0039  4.5700 -2.2119
  321MOL0     H44265  10.052   3.663   2.325  0.4080  1.2328  0.1378
  321MOL0     H44266   9.955   3.642   2.043  1.3026  1.8794  0.3720
  321MOL0     H44267   9.824   3.659   2.154  0.0792  0.3530  1.8749
  321MOL0     H44268  10.037   3.440   2.149 -0.3319 -0.6528 -2.0783
  321MOL0     H44269   9.878   3.414   2.081  2.5233 -2.2876 -1.2330
  321MOL0     H44270   9.944   3.475   2.383 -4.3218  3.9132  1.2404
  321MOL0     H44271   9.785   3.468   2.322  1.3789  4.1105  1.5756
  321MOL0     H44272  10.001   3.244   2.330 -0.2783 -2.3454  0.6441
  321MOL0     H44273   9.853   3.220   2.240 -2.4574  2.5156  0.4173
  321MOL0     H44274   9.720   3.207   2.426  0.6082  4.5733 -1.6049
  321MOL0     H44275   9.852   3.274   2.529  3.4649 -1.9688 -0.0392
  321MOL0     H44276   9.946   3.053   2.540  0.3030  4.8520 -0.0446
  321MOL0     H44277   9.888   2.998   2.388  0.8785 -2.8469  1.8429
  321MOL0     H44278  10.232   4.010   2.512  1.3725 -3.9409 -3.1455
  321MOL0     H44279  10.253   4.251   2.551  1.8147 -1.9186  0.6939
  321MOL0     H44280  10.134   4.662   2.325 -0.1055  1.0815 -1.3288
  321MOL0     H44281  10.058   4.892   2.403 -0.4949 -3.9479 -4.4555
  321MOL0     H44282  10.882   5.122   3.955  2.2053 -0.4016 -0.7637
  321MOL0     H44283  11.105   5.075   3.919 -3.3063  0.3155 -1.6498
  321MOL0     H44284  11.507   5.092   3.931 -0.6414  1.2976 -1.7358
  321MOL0     H44285  11.717   5.084   3.797  1.0758 -2.0057  1.2413
  321MOL0     H44286  11.932   5.052   3.754  3.2436 -0.4265 -3.1210
  321MOL0     H44287  11.873   5.198   3.679 -1.8435 -2.1742 -0.7889
  321MOL0     H44288  12.175   5.125   3.754  4.9788  1.2278 -3.9148
  321MOL0     H44289  12.133   5.270   3.674  1.0894  0.1852  1.3345
  321MOL0     H44290  12.061   5.015   3.544  2.6186 -1.3978  2.2969
  321MOL0     H44291  12.069   5.169   3.472 -0.9170 -0.8616  0.5702
  321MOL0     H44292  12.268   5.003   3.433  0.7702 -0.7602  1.0790
  321MOL0     H44293  12.316   5.031   3.598  1.4287  5.0558  2.6866
  321MOL0     H44294  12.410   5.390   3.378 -0.4770 -0.7056 -1.1654
  321MOL0     H44295  11.875   5.387   4.050 -0.4031 -0.9136 -0.9344
  321MOL0     H44296  11.732   5.515   4.178 -1.2245  0.7965  1.3102
  321MOL0     H44297  11.556   5.493   4.158  0.1875 -0.8311  0.1318
  321MOL0     H44298  11.639   5.406   4.291  0.9601  1.9081  1.5625
  322MOL0     O44299   5.877   9.356   3.520 -0.0274  0.1752 -0.3626
  322MOL0     C44300   5.792   9.271   3.509 -1.0340  0.1594  0.1200
  322MOL0     O44301   5.803   9.164   3.426 -0.0669  0.8427  0.2179
  322MOL0     C44302   5.885   9.172   3.318  0.5456 -0.7360 -0.3395
  322MOL0     C44303   6.028   9.192   3.326 -0.7200 -0.0015  0.1293
  322MOL0     C44304   6.098   9.202   3.208 -0.5336 -0.9575  0.3327
  322MOL0     C44305   6.038   9.173   3.086  0.1624 -0.5691  0.7330
  322MOL0     O44306   6.111   9.198   2.967  0.0779  0.5486 -0.3680
  322MOL0     C44307   6.107   9.334   2.916  0.3278  1.2126  0.0615
  322MOL0     C44308   6.237   9.363   2.842 -0.5557  0.7447  0.0140
  322MOL0     C44309   6.274   9.508   2.823 -0.5714  0.1298  0.0864
  322MOL0     C44310   6.249   9.575   2.680  0.4087 -0.5498  0.3287
  322MOL0     C44311   6.295   9.720   2.675 -0.8383  0.4579 -0.0260
  322MOL0     C44312   6.442   9.729   2.661  0.2134 -0.6714 -0.0102
  322MOL0     C44313   6.486   9.862   2.592  0.1665  0.8798  0.3124
  322MOL0     C44314   6.397   9.992   2.617 -0.2990 -0.3405 -0.3211
  322MOL0     N44315   6.366  10.036   2.754 -0.2440 -0.1324 -0.4934
  322MOL0     C44316   6.321  10.165   2.777 -0.2340 -1.1467 -0.2009
  322MOL0     C44317   6.320  10.175   2.912  1.3139 -0.2712  0.8481
  322MOL0     C44318   6.279  10.288   3.000 -0.7515  0.6857 -0.2296
  322MOL0     C44319   6.139  10.338   2.974  1.2325 -0.2072  0.4076
  322MOL0     C44320   6.084  10.441   3.077  0.9116  0.2895  0.4199
  322MOL0     C44321   5.962  10.512   3.020  0.1816  0.7447  1.1309
  322MOL0     O44322   5.872  10.402   2.993  0.9064  0.1832  0.7037
  322MOL0     C44323   5.751  10.425   2.926  0.1943  0.2734  0.0321
  322MOL0     C44324   5.672  10.316   2.928 -0.0366  0.4179  0.3926
  322MOL0     C44325   5.547  10.317   2.868  0.1938 -0.7314  0.8794
  322MOL0     C44326   5.473  10.194   2.878 -0.0986 -0.0002 -0.1701
  322MOL0     C44327   5.495  10.430   2.800  0.0891  0.4285 -0.0781
  322MOL0     C44328   5.367  10.440   2.729 -0.4652  0.2089  0.8252
  322MOL0     O44329   5.358  10.537   2.637 -0.3455 -0.7932 -0.2021
  322MOL0     C44330   5.257  10.516   2.547 -0.0001 -0.1580 -0.1189
  322MOL0     C44331   5.134  10.589   2.561  0.5411 -0.7054  0.0948
  322MOL0     C44332   5.036  10.583   2.458  0.1966 -0.4064  0.0694
  322MOL0     C44333   5.055  10.497   2.352  0.5599 -0.2829  0.0463
  322MOL0     O44334   4.960  10.500   2.252  0.5114  0.1702 -0.0639
  322MOL0     C44335   4.954  10.399   2.150 -0.2611 -0.2765  0.0454
  322MOL0     C44336   4.824  10.422   2.068 -0.4368  0.2441 -0.0598
  322MOL0     C44337   4.694  10.404   2.156  0.6852 -0.2125 -0.0159
  322MOL0     C44338   4.580  10.428   2.053 -0.0412 -0.2539 -1.1821
  322MOL0     C44339   4.442  10.446   2.137 -0.2438  0.1948 -0.4185
  322MOL0     C44340   4.318  10.469   2.044 -0.3057  0.0015  0.0752
  322MOL0     C44341   4.287  10.359   1.946  0.9458  0.7251 -0.4956
  322MOL0     C44342   4.226  10.249   2.026 -0.4826  0.5831 -0.6810
  322MOL0    Cl44343   4.173  10.116   1.919  0.2703  0.3321  0.2922
  322MOL0     C44344   5.165  10.408   2.345  0.1491 -0.4556 -0.3249
  322MOL0     C44345   5.272  10.427   2.434 -0.1552  0.1140 -0.3893
  322MOL0     O44346   5.286  10.350   2.751 -0.2570  0.0812 -0.5044
  322MOL0     C44347   5.585  10.539   2.789  0.3603 -0.0353  0.4348
  322MOL0     C44348   5.708  10.537   2.854  0.2353  0.0716  0.1948
  322MOL0     N44349   6.366  10.059   2.967 -0.8676  0.1378  0.1362
  322MOL0     N44350   6.394   9.976   2.873  0.5445 -0.1495  0.0503
  322MOL0     C44351   5.892   9.154   3.085 -0.5678 -0.6645  1.4889
  322MOL0     C44352   5.823   9.152   3.201 -0.5306  1.1001  0.8841
  322MOL0     C44353   5.669   9.289   3.598 -0.6387 -0.2118 -0.3819
  322MOL0     C44354   5.690   9.338   3.730 -1.3449  0.1907  0.6460
  322MOL0     C44355   5.589   9.344   3.829 -0.0594 -0.1102 -0.2700
  322MOL0     C44356   5.461   9.300   3.811  0.0861 -0.1334 -0.0722
  322MOL0     O44357   5.369   9.285   3.913  0.0343  0.0918 -0.0846
  322MOL0     C44358   5.403   9.297   4.048 -1.6246  0.4887 -0.7979
  322MOL0     C44359   5.399   9.444   4.093  0.1825  0.7664  0.2984
  322MOL0     C44360   5.254   9.496   4.097  0.8547  0.8814 -0.3046
  322MOL0     C44361   5.228   9.603   4.191  0.1039 -0.1713  0.3776
  322MOL0     C44362   5.324   9.708   4.178 -1.4669 -0.0870 -0.2608
  322MOL0     C44363   5.411   9.795   4.185 -0.1015  0.2299  0.0839
  322MOL0     C44364   5.440   9.245   3.677  0.4496 -0.6700 -0.1000
  322MOL0     C44365   5.534   9.247   3.570  0.1358  0.1406 -0.5319
  322MOL0     C44366   5.502   9.199   3.432  0.3377 -0.2039 -0.7304
  322MOL0     H44367   6.073   9.213   3.422  1.7099 -2.0292 -0.4441
  322MOL0     H44368   6.207   9.204   3.206 -0.4807  1.7487 -2.7860
  322MOL0     H44369   6.090   9.403   2.998  0.5551  0.0777  1.0916
  322MOL0     H44370   6.024   9.354   2.848  0.4608  0.6150 -0.2848
  322MOL0     H44371   6.320   9.308   2.888 -0.0965  1.7434  0.4020
  322MOL0     H44372   6.232   9.317   2.743 -1.7496 -3.1037  1.6771
  322MOL0     H44373   6.238   9.571   2.905 -2.2622 -0.5773 -0.0695
  322MOL0     H44374   6.381   9.528   2.837  0.2305 -1.5552 -2.8564
  322MOL0     H44375   6.277   9.522   2.588  2.4550 -0.0807  0.6451
  322MOL0     H44376   6.139   9.572   2.685  0.3334  1.2364  0.5518
  322MOL0     H44377   6.263   9.764   2.770  0.3403 -0.9921  1.1077
  322MOL0     H44378   6.248   9.776   2.594  1.3874 -0.8004 -2.3462
  322MOL0     H44379   6.498   9.717   2.754  0.7837  1.8506  0.0542
  322MOL0     H44380   6.471   9.644   2.599  0.0091 -0.0526 -0.9664
  322MOL0     H44381   6.488   9.845   2.484 -4.0715  0.1757  0.1880
  322MOL0     H44382   6.592   9.870   2.619  0.7529 -2.4367 -0.5727
  322MOL0     H44383   6.451  10.077   2.575 -0.5112 -0.0330  0.0202
  322MOL0     H44384   6.302   9.977   2.565 -1.6431  1.7657  1.3311
  322MOL0     H44385   6.299  10.241   2.703 -1.1608 -2.7710 -1.6742
  322MOL0     H44386   6.349  10.369   2.975 -0.6395  0.7847  0.3823
  322MOL0     H44387   6.299  10.265   3.105 -1.3770 -0.2912 -0.3156
  322MOL0     H44388   6.139  10.389   2.877 -0.0041 -0.1861  0.4034
  322MOL0     H44389   6.077  10.248   2.961  1.6256 -0.4200 -0.0192
  322MOL0     H44390   6.062  10.396   3.174  1.4187 -0.8948 -0.0005
  322MOL0     H44391   6.155  10.521   3.101  2.1091 -0.6501  0.1073
  322MOL0     H44392   5.921  10.587   3.088  2.1230  0.7259  2.3908
  322MOL0     H44393   5.986  10.568   2.928 -0.2976 -0.6133  0.1543
  322MOL0     H44394   5.715  10.230   2.978 -2.1816 -0.7630  0.3445
  322MOL0     H44395   5.448  10.160   2.777  0.0817 -1.3309  0.2199
  322MOL0     H44396   5.386  10.211   2.942  0.6947  3.1630  0.2740
  322MOL0     H44397   5.530  10.113   2.925 -2.3807 -2.3112 -1.1553
  322MOL0     H44398   5.128  10.660   2.643 -2.6023  1.8028 -2.0713
  322MOL0     H44399   4.946  10.642   2.470  0.7137  0.7172 -1.3732
  322MOL0     H44400   5.040  10.386   2.083 -0.8134 -0.4345 -0.6414
  322MOL0     H44401   4.953  10.312   2.216 -0.0546 -1.0823 -0.9820
  322MOL0     H44402   4.832  10.524   2.030  1.2281 -0.3617 -1.4170
  322MOL0     H44403   4.817  10.353   1.984  0.5793  0.1683 -0.0889
  322MOL0     H44404   4.686  10.484   2.229  2.2480  0.6402 -0.7199
  322MOL0     H44405   4.684  10.302   2.195  0.4190 -0.6009 -1.0422
  322MOL0     H44406   4.577  10.338   1.992  0.7662 -2.9716  2.4250
  322MOL0     H44407   4.604  10.515   1.991  1.7011 -0.7527 -1.2364
  322MOL0     H44408   4.421  10.373   2.216 -0.3084  1.7680  1.1029
  322MOL0     H44409   4.459  10.534   2.201  0.4743 -0.4234  0.2668
  322MOL0     H44410   4.327  10.563   1.990  0.7975 -0.5447 -0.7236
  322MOL0     H44411   4.228  10.475   2.106 -0.7681 -0.5610 -0.5189
  322MOL0     H44412   4.383  10.329   1.903  3.1704  3.3874  2.1245
  322MOL0     H44413   4.205  10.384   1.878  0.4769  0.8343  0.1037
  322MOL0     H44414   4.149  10.281   2.097  0.8717  0.1371  1.0652
  322MOL0     H44415   4.299  10.209   2.096  0.3253 -1.6645 -2.6764
  322MOL0     H44416   5.171  10.332   2.268  0.4483 -0.1206 -0.6352
  322MOL0     H44417   5.370  10.384   2.415  0.6964  1.0402  1.6027
  322MOL0     H44418   5.562  10.634   2.744 -1.3874 -0.2780  0.7222
  322MOL0     H44419   5.772  10.624   2.850 -0.8869  1.0419  2.1746
  322MOL0     H44420   5.850   9.150   2.985  2.1251  1.0883  0.1708
  322MOL0     H44421   5.716   9.143   3.183 -0.4013  0.7991  0.2379
  322MOL0     H44422   5.788   9.378   3.753 -1.1331 -0.3191  0.6347
  322MOL0     H44423   5.630   9.381   3.923  2.1759 -0.8056 -0.8931
  322MOL0     H44424   5.334   9.233   4.103 -1.0843 -0.4522 -1.1848
  322MOL0     H44425   5.497   9.255   4.085 -1.0582  2.8745  0.6528
  322MOL0     H44426   5.448   9.497   4.011 -0.3170 -0.3247 -0.7385
  322MOL0     H44427   5.433   9.448   4.197 -0.4862 -1.2017  0.6405
  322MOL0     H44428   5.218   9.524   3.997  3.4097  1.0234 -1.2413
  322MOL0     H44429   5.185   9.419   4.135  0.4255  1.2903 -0.2463
  322MOL0     H44430   5.227   9.568   4.294 -0.3210  0.2201  0.5100
  322MOL0     H44431   5.133   9.649   4.160  0.5382  0.0242 -0.7280
  322MOL0     H44432   5.480   9.876   4.194  1.5629 -1.3666  4.2684
  322MOL0     H44433   5.343   9.199   3.659 -2.4578  3.2361  3.5258
  322MOL0     H44434   5.538   9.272   3.359  0.7713  0.5227  0.1769
  322MOL0     H44435   5.546   9.101   3.411 -1.0062 -0.5596 -2.0460
  322MOL0     H44436   5.393   9.200   3.425  0.1766 -0.1826  1.0884
  323MOL0     O44437   7.264   6.439   5.054  0.3392 -0.4298 -0.3263
  323MOL0     C44438   7.230   6.376   4.954  1.2492  0.6979  0.5869
  323MOL0     O44439   7.231   6.248   4.938  0.3058 -0.0956  0.0342
  323MOL0     C44440   7.273   6.172   5.049 -0.8299  0.8427  0.5556
  323MOL0     C44441   7.189   6.132   5.146  1.1992  0.1926 -0.6246
  323MOL0     C44442   7.243   6.051   5.245 -0.8533  0.3673 -1.0104
  323MOL0     C44443   7.377   6.007   5.252 -0.0545 -0.3617 -0.1955
  323MOL0     O44444   7.418   5.910   5.343  0.8472  0.4871  0.1443
  323MOL0     C44445   7.314   5.823   5.392  0.6134  0.4967  0.2510
  323MOL0     C44446   7.372   5.703   5.451 -0.4216  1.0875 -1.2266
  323MOL0     C44447   7.265   5.621   5.533  0.1015 -0.0041  0.0174
  323MOL0     C44448   7.183   5.539   5.443  0.3175 -0.0135 -0.1025
  323MOL0     C44449   7.048   5.489   5.509 -0.0418  0.9369 -0.0335
  323MOL0     C44450   6.975   5.604   5.579  0.0116 -0.6220 -0.5286
  323MOL0     C44451   6.826   5.583   5.601  1.0104 -0.3671 -0.5867
  323MOL0     C44452   6.784   5.615   5.752  0.1040 -0.0595  0.1314
  323MOL0     N44453   6.865   5.564   5.863  0.0584  0.4657  0.6557
  323MOL0     C44454   6.884   5.626   5.975  0.4834  0.0413 -0.2191
  323MOL0     C44455   6.946   5.544   6.059  0.5853  0.2786  0.2145
  323MOL0     C44456   6.967   5.578   6.202  0.5532  0.1492 -0.1921
  323MOL0     C44457   6.944   5.456   6.301 -0.0201 -0.0169  0.8036
  323MOL0     C44458   6.972   5.471   6.446 -0.5984 -0.3590 -0.4403
  323MOL0     C44459   6.871   5.567   6.510  0.7409 -0.4176 -0.9872
  323MOL0     O44460   6.915   5.574   6.648  0.5353 -0.1749  0.2761
  323MOL0     C44461   6.834   5.656   6.723 -0.1330 -0.4088  0.4409
  323MOL0     C44462   6.692   5.649   6.715 -0.2269  0.4480 -0.7020
  323MOL0     C44463   6.613   5.722   6.807  0.2445  0.4327 -0.2811
  323MOL0     C44464   6.469   5.677   6.816 -0.4682  0.4058 -0.2895
  323MOL0     C44465   6.676   5.799   6.917 -0.1065  0.0219  0.0497
  323MOL0     C44466   6.604   5.872   7.027 -0.7137 -0.5450 -1.1055
  323MOL0     O44467   6.470   5.904   7.018 -0.0410  0.1832  0.2160
  323MOL0     C44468   6.390   5.977   7.101  0.5700  0.9785 -0.4262
  323MOL0     C44469   6.413   5.982   7.239  0.3021  0.2613  0.1560
  323MOL0     C44470   6.323   6.055   7.318 -0.9068  0.3637 -0.2718
  323MOL0     C44471   6.213   6.119   7.267  0.1157 -1.4295 -0.1350
  323MOL0     O44472   6.109   6.184   7.341  0.2435  0.9270  0.2542
  323MOL0     C44473   6.091   6.142   7.477 -0.2768 -0.1396 -0.5485
  323MOL0     C44474   6.027   6.000   7.479  0.0434 -1.0741 -0.0701
  323MOL0     C44475   5.888   6.002   7.403  0.4921 -0.4939 -0.0837
  323MOL0     C44476   5.820   5.859   7.401  0.4044 -0.7927  0.6927
  323MOL0     C44477   5.722   5.855   7.287 -1.0687  1.3003 -1.5810
  323MOL0     C44478   5.636   5.732   7.287 -1.2036  0.4432  0.7915
  323MOL0     C44479   5.700   5.626   7.181 -0.8480 -0.2414  0.8685
  323MOL0     C44480   5.677   5.486   7.224  0.0674  0.0259 -0.4049
  323MOL0    Cl44481   5.794   5.449   7.355 -0.2123  0.5345 -0.2720
  323MOL0     C44482   6.186   6.106   7.127  0.4378  0.2526 -0.1754
  323MOL0     C44483   6.280   6.043   7.045 -0.1275  0.1705  0.0747
  323MOL0     O44484   6.670   5.894   7.130 -0.3790 -0.6001 -0.0483
  323MOL0     C44485   6.816   5.793   6.924  0.2064  0.0617 -0.4610
  323MOL0     C44486   6.892   5.712   6.829  0.3266 -0.0866 -0.3707
  323MOL0     N44487   6.954   5.420   5.987  0.3618  0.1617 -0.1779
  323MOL0     N44488   6.905   5.435   5.865  0.2245  0.1130 -0.1044
  323MOL0     C44489   7.468   6.058   5.159  1.2110 -0.1941  0.5792
  323MOL0     C44490   7.411   6.134   5.048 -0.5623  0.0208  0.2181
  323MOL0     C44491   7.176   6.465   4.844 -0.2794 -0.4328  0.3545
  323MOL0     C44492   7.182   6.607   4.863 -0.0035  0.1764  0.5524
  323MOL0     C44493   7.135   6.705   4.775 -1.1724 -0.3471  0.6753
  323MOL0     C44494   7.080   6.660   4.657 -0.0396  0.0203  0.7054
  323MOL0     O44495   7.030   6.741   4.558  0.1840  0.3916  0.0014
  323MOL0     C44496   7.060   6.875   4.561 -0.1838  0.8564  0.0303
  323MOL0     C44497   6.984   6.939   4.449  0.8936  0.5027  0.7791
  323MOL0     C44498   6.829   6.950   4.459  0.6778  0.9875 -0.7202
  323MOL0     C44499   6.755   7.043   4.356  0.3677 -0.6608  0.0953
  323MOL0     C44500   6.809   7.181   4.387  0.3324 -1.0752 -0.2418
  323MOL0     C44501   6.845   7.294   4.427 -0.5010  0.9644  0.5087
  323MOL0     C44502   7.082   6.526   4.627  0.3751 -0.8506  0.1597
  323MOL0     C44503   7.125   6.428   4.710  0.3248 -0.3667 -0.9447
  323MOL0     C44504   7.089   6.277   4.675  0.8015  0.5479 -0.0911
  323MOL0     H44505   7.088   6.171   5.146  1.8298  1.9012 -1.0584
  323MOL0     H44506   7.183   6.038   5.335  0.9201 -0.4884  0.0923
  323MOL0     H44507   7.238   5.785   5.322  1.0012 -1.6583  0.9200
  323MOL0     H44508   7.265   5.886   5.467 -0.1776  2.6654 -1.9573
  323MOL0     H44509   7.417   5.636   5.377 -0.6604 -0.0521 -0.3631
  323MOL0     H44510   7.443   5.738   5.527 -0.9766 -1.4796  0.6158
  323MOL0     H44511   7.317   5.547   5.595  0.7444 -0.9915 -1.6477
  323MOL0     H44512   7.225   5.699   5.598 -0.0694  2.1838 -2.5286
  323MOL0     H44513   7.147   5.590   5.353  1.7741 -0.7867 -1.1624
  323MOL0     H44514   7.243   5.454   5.409  1.3422  1.0529 -1.0191
  323MOL0     H44515   7.069   5.416   5.588  1.7773 -0.9902 -2.1858
  323MOL0     H44516   6.985   5.438   5.436 -0.9554 -0.2952  1.5300
  323MOL0     H44517   7.026   5.613   5.675  2.8207 -1.8728 -1.7863
  323MOL0     H44518   6.987   5.697   5.524  1.4463  0.3279  1.3009
  323MOL0     H44519   6.814   5.475   5.582  2.6339 -2.4416  6.9017
  323MOL0     H44520   6.760   5.647   5.542 -0.1666  0.2136  1.2899
  323MOL0     H44521   6.772   5.723   5.764 -0.8032 -0.3583  2.1503
  323MOL0     H44522   6.683   5.585   5.780  0.3116 -0.9324 -0.0216
  323MOL0     H44523   6.838   5.717   6.012 -2.2269 -1.0305 -0.6841
  323MOL0     H44524   6.895   5.656   6.227 -2.0795 -1.2165 -2.9118
  323MOL0     H44525   7.071   5.609   6.216  0.2174  1.4333 -0.3985
  323MOL0     H44526   6.844   5.412   6.294 -0.4141  0.7895  1.2394
  323MOL0     H44527   7.014   5.378   6.269 -3.2543 -2.5428 -0.6748
  323MOL0     H44528   6.985   5.374   6.494  0.4620 -0.4014 -0.7781
  323MOL0     H44529   7.071   5.518   6.457 -1.2605  0.6779  1.6023
  323MOL0     H44530   6.858   5.660   6.454 -1.8834 -0.6252 -0.8902
  323MOL0     H44531   6.767   5.535   6.497  0.4446 -0.0123  0.1865
  323MOL0     H44532   6.640   5.592   6.638 -0.8828 -0.4445  0.3785
  323MOL0     H44533   6.402   5.760   6.841  1.2226  1.3018  1.4820
  323MOL0     H44534   6.442   5.606   6.896 -1.9674  2.1492  0.8390
  323MOL0     H44535   6.441   5.630   6.721 -1.6927 -2.8844  1.5333
  323MOL0     H44536   6.493   5.925   7.286  1.1307  0.8254 -0.5521
  323MOL0     H44537   6.336   6.049   7.426 -0.6183  0.9143 -0.2717
  323MOL0     H44538   6.178   6.151   7.543  0.6665  2.8393 -2.0344
  323MOL0     H44539   6.020   6.201   7.536  0.5649  0.8217 -0.4820
  323MOL0     H44540   6.096   5.930   7.431 -2.4076 -2.6161 -1.5331
  323MOL0     H44541   6.017   5.983   7.587  1.1158 -0.6189  0.1156
  323MOL0     H44542   5.905   6.044   7.304  2.8617 -0.4310  0.2826
  323MOL0     H44543   5.822   6.069   7.459 -0.2458 -0.9395 -0.4018
  323MOL0     H44544   5.764   5.850   7.495 -1.0585 -3.0613 -0.3191
  323MOL0     H44545   5.896   5.780   7.401  1.1815 -0.0670  0.1444
  323MOL0     H44546   5.661   5.943   7.304  0.5570  2.3850 -1.1689
  323MOL0     H44547   5.767   5.864   7.187 -2.1654 -3.3131 -2.7636
  323MOL0     H44548   5.538   5.762   7.250 -2.0386 -1.0130  1.7192
  323MOL0     H44549   5.618   5.685   7.384 -0.4759 -0.2370  0.6122
  323MOL0     H44550   5.807   5.631   7.160 -1.3047  0.5015 -1.6003
  323MOL0     H44551   5.663   5.646   7.080  4.6990 -0.3787 -1.5508
  323MOL0     H44552   5.675   5.410   7.146 -1.4793 -3.4901  2.7270
  323MOL0     H44553   5.579   5.487   7.274  0.5916  1.7365  0.6958
  323MOL0     H44554   6.095   6.147   7.084 -0.5300  0.6311  2.0831
  323MOL0     H44555   6.255   6.022   6.941  0.8238  0.0582 -0.1396
  323MOL0     H44556   6.869   5.833   7.009 -0.5467 -2.8977  1.5619
  323MOL0     H44557   6.996   5.703   6.858 -0.4767 -1.2701  2.5631
  323MOL0     H44558   7.570   6.020   5.164  0.7802 -1.7788 -1.4988
  323MOL0     H44559   7.473   6.159   4.962  0.5701 -0.5543  0.8390
  323MOL0     H44560   7.235   6.638   4.952  0.1361 -1.3909  1.0516
  323MOL0     H44561   7.153   6.812   4.781  3.6992 -0.9378  0.0457
  323MOL0     H44562   7.033   6.923   4.655  3.7096  6.0513 -1.0402
  323MOL0     H44563   7.165   6.900   4.542 -0.8377  3.1682 -0.9890
  323MOL0     H44564   7.019   6.878   4.365  0.4629 -4.1581  3.6605
  323MOL0     H44565   7.023   7.040   4.432  2.5537 -0.3095 -0.5867
  323MOL0     H44566   6.788   6.849   4.461  0.5187  1.0250 -1.7101
  323MOL0     H44567   6.795   6.985   4.557 -0.3135 -0.3353 -0.5649
  323MOL0     H44568   6.646   7.032   4.363  0.0250  2.1571  0.1470
  323MOL0     H44569   6.790   7.013   4.256 -1.6782 -0.7559 -0.6341
  323MOL0     H44570   6.866   7.388   4.475  1.4188 -0.6198  3.0434
  323MOL0     H44571   7.028   6.500   4.537  0.6418  1.0413 -0.6012
  323MOL0     H44572   6.999   6.257   4.734 -0.8429  0.2747 -2.5176
  323MOL0     H44573   7.068   6.264   4.568 -2.1153  0.3545  0.4072
  323MOL0     H44574   7.162   6.201   4.705  0.6966  0.3281 -0.3918
  324MOL0     O44575   4.774   7.142   8.169  1.2505 -0.3306  0.2319
  324MOL0     C44576   4.834   7.217   8.095 -1.0068  0.5717 -0.0370
  324MOL0     O44577   4.953   7.182   8.036  0.2482  0.2936 -0.2116
  324MOL0     C44578   4.996   7.049   8.043 -0.5604 -0.1121 -0.2424
  324MOL0     C44579   4.916   6.942   7.992 -0.8200 -0.0003 -0.3734
  324MOL0     C44580   4.976   6.807   7.995  0.8872 -0.3246 -0.0423
  324MOL0     C44581   5.101   6.781   8.041 -0.1814 -0.7644  0.3857
  324MOL0     O44582   5.163   6.661   8.033  0.3784  0.1467 -0.1089
  324MOL0     C44583   5.079   6.546   8.042  0.7914  1.0343 -0.1201
  324MOL0     C44584   5.163   6.419   8.066  0.4564 -0.4537 -0.5449
  324MOL0     C44585   5.269   6.414   7.959  0.3373 -0.5050  0.2788
  324MOL0     C44586   5.358   6.292   7.973  0.2647  0.4250  0.6064
  324MOL0     C44587   5.483   6.314   7.889 -0.5455  0.6720  0.0603
  324MOL0     C44588   5.580   6.198   7.868 -0.3739  0.2582 -0.0660
  324MOL0     C44589   5.723   6.232   7.817 -0.2957 -0.8498 -0.2777
  324MOL0     C44590   5.810   6.313   7.923 -0.0676  0.0552 -1.3050
  324MOL0     N44591   5.942   6.324   7.861 -0.5347 -0.2101 -0.4979
  324MOL0     C44592   5.974   6.424   7.777  0.2130 -1.2685  0.7865
  324MOL0     C44593   6.093   6.397   7.727  0.0739 -0.0905  0.3545
  324MOL0     C44594   6.172   6.465   7.624  0.2480 -0.3857  0.3399
  324MOL0     C44595   6.206   6.618   7.642  0.0992  0.6235  1.9005
  324MOL0     C44596   6.304   6.654   7.538  0.2967 -1.5542  0.2870
  324MOL0     C44597   6.272   6.626   7.389 -0.1890  0.2089 -0.5120
  324MOL0     O44598   6.143   6.682   7.366  0.3243 -1.0483 -0.2300
  324MOL0     C44599   6.088   6.684   7.243  0.1721 -0.1608  0.7862
  324MOL0     C44600   5.958   6.716   7.223  0.5225 -0.0058  0.6817
  324MOL0     C44601   5.883   6.708   7.098 -0.2951  0.3473  0.2464
  324MOL0     C44602   5.736   6.746   7.094 -0.6774  0.3837  0.1916
  324MOL0     C44603   5.956   6.659   6.980 -0.4190  0.4345 -0.0546
  324MOL0     C44604   5.900   6.639   6.853 -0.4250 -0.0591  0.7305
  324MOL0     O44605   5.826   6.741   6.793 -0.0751 -0.3606 -0.3043
  324MOL0     C44606   5.764   6.705   6.676  0.3622 -0.1374  0.3017
  324MOL0     C44607   5.828   6.717   6.551  0.3059  0.6804 -0.7864
  324MOL0     C44608   5.765   6.659   6.439 -0.1019  0.1195  0.6460
  324MOL0     C44609   5.630   6.624   6.444 -0.6732  0.4606  0.1689
  324MOL0     O44610   5.565   6.579   6.333 -0.4191 -0.3132  0.5952
  324MOL0     C44611   5.523   6.680   6.238 -0.1464 -0.4496  0.3546
  324MOL0     C44612   5.437   6.798   6.293  0.3925  0.4484  0.1319
  324MOL0     C44613   5.297   6.740   6.327  0.9106 -0.4906  0.6006
  324MOL0     C44614   5.193   6.853   6.341 -0.1549  0.3865 -0.1939
  324MOL0     C44615   5.048   6.819   6.342  0.7732  0.5311 -0.6365
  324MOL0     C44616   5.007   6.717   6.455  0.4687 -0.2797 -0.5349
  324MOL0     C44617   4.859   6.684   6.452  0.5032 -0.2432 -0.3778
  324MOL0     C44618   4.830   6.565   6.538  0.2227  0.9289 -1.2782
  324MOL0    Cl44619   4.660   6.526   6.550 -0.1236 -0.4257 -0.1437
  324MOL0     C44620   5.565   6.609   6.564  0.6080 -0.0679 -0.1984
  324MOL0     C44621   5.636   6.657   6.681  1.0784  0.1794  0.7666
  324MOL0     O44622   5.933   6.537   6.797 -0.2876  0.4399 -0.4661
  324MOL0     C44623   6.102   6.636   7.006  0.0383  0.5866  1.1630
  324MOL0     C44624   6.166   6.656   7.125 -0.1088  1.2226 -1.0075
  324MOL0     N44625   6.130   6.278   7.785  0.5452  0.3769  0.1107
  324MOL0     N44626   6.041   6.236   7.858 -0.1702 -0.3460 -0.9300
  324MOL0     C44627   5.173   6.889   8.098  0.2403 -0.3197 -0.0359
  324MOL0     C44628   5.120   7.018   8.110  0.4293 -0.7311 -0.3883
  324MOL0     C44629   4.761   7.339   8.067 -0.1883 -1.2981 -0.1191
  324MOL0     C44630   4.620   7.336   8.083  0.8113  0.0095  0.6075
  324MOL0     C44631   4.538   7.452   8.055 -0.1179 -0.4882 -0.3284
  324MOL0     C44632   4.598   7.579   8.038 -0.7501 -0.4080 -1.0150
  324MOL0     O44633   4.543   7.707   8.028  0.4922 -0.1179  0.2063
  324MOL0     C44634   4.406   7.725   8.076 -0.2316 -0.4352 -0.2231
  324MOL0     C44635   4.378   7.877   8.116 -0.4228 -0.6930 -0.0938
  324MOL0     C44636   4.425   7.974   8.013 -0.1420  0.6014  0.7487
  324MOL0     C44637   4.405   8.111   8.064  0.0747 -0.0898 -0.4261
  324MOL0     C44638   4.270   8.150   8.089 -0.2653 -0.3305  0.1856
  324MOL0     C44639   4.152   8.186   8.098  0.7511 -0.3305 -0.7675
  324MOL0     C44640   4.737   7.575   8.033  0.1778 -0.4188  0.4590
  324MOL0     C44641   4.820   7.465   8.042  0.0913 -0.3768 -0.4958
  324MOL0     C44642   4.967   7.485   8.025 -0.1807  0.8889  0.0476
  324MOL0     H44643   4.819   6.970   7.952 -0.6334  1.1477 -0.0560
  324MOL0     H44644   4.910   6.734   7.949  1.0848  1.5934 -3.7062
  324MOL0     H44645   5.025   6.523   7.950 -2.4247  0.6318  1.7279
  324MOL0     H44646   5.016   6.542   8.132  1.5450 -0.9329  0.3795
  324MOL0     H44647   5.204   6.429   8.167  0.7951  1.5760 -0.8316
  324MOL0     H44648   5.106   6.327   8.076  0.1369 -0.2778 -0.7121
  324MOL0     H44649   5.224   6.414   7.859 -0.8672  1.9763  0.7324
  324MOL0     H44650   5.332   6.504   7.962 -1.1270  0.5879 -0.4853
  324MOL0     H44651   5.378   6.274   8.079 -0.3101  2.3245  1.0735
  324MOL0     H44652   5.300   6.203   7.947  1.0013 -0.2119  1.0962
  324MOL0     H44653   5.527   6.403   7.935  4.1837 -0.6731 -1.3243
  324MOL0     H44654   5.450   6.342   7.789  4.1072  0.0098 -1.9066
  324MOL0     H44655   5.587   6.144   7.963 -1.9810 -1.7014 -0.9887
  324MOL0     H44656   5.538   6.127   7.795  0.6754  1.4783 -1.9258
  324MOL0     H44657   5.725   6.280   7.719  0.1164 -1.7136 -0.7032
  324MOL0     H44658   5.773   6.135   7.813  1.4691 -0.1133  1.6333
  324MOL0     H44659   5.766   6.407   7.956 -1.7840 -0.4808 -1.9461
  324MOL0     H44660   5.814   6.250   8.012 -0.1470  0.1098 -1.2623
  324MOL0     H44661   5.909   6.508   7.755 -0.7543 -1.3842  2.9599
  324MOL0     H44662   6.123   6.431   7.533  1.5635 -1.1950 -0.1048
  324MOL0     H44663   6.269   6.424   7.595  0.5099  0.5568 -0.1667
  324MOL0     H44664   6.115   6.678   7.642  1.3327  2.6163  0.1595
  324MOL0     H44665   6.252   6.635   7.740  3.6694 -2.8266  1.1115
  324MOL0     H44666   6.312   6.763   7.551  0.0445 -1.2338 -1.8672
  324MOL0     H44667   6.401   6.608   7.556  1.7120  1.9641  2.8811
  324MOL0     H44668   6.353   6.678   7.337  0.5499  1.8304  2.0948
  324MOL0     H44669   6.279   6.519   7.365 -0.7704  0.1708 -0.5214
  324MOL0     H44670   5.903   6.736   7.315 -3.0036 -1.3753 -0.9516
  324MOL0     H44671   5.702   6.775   7.194  0.5773  1.7372  0.2524
  324MOL0     H44672   5.686   6.654   7.064  0.5559  0.0819 -1.0713
  324MOL0     H44673   5.718   6.830   7.027 -1.0963 -1.3835 -2.0086
  324MOL0     H44674   5.933   6.742   6.542  0.0483  1.8406 -0.7098
  324MOL0     H44675   5.814   6.637   6.344 -1.9860 -1.1896 -0.1014
  324MOL0     H44676   5.611   6.723   6.189 -0.6423 -0.1942 -0.3327
  324MOL0     H44677   5.470   6.636   6.154  1.4426 -0.2847 -0.7876
  324MOL0     H44678   5.479   6.855   6.376 -1.8977  0.5245  1.3166
  324MOL0     H44679   5.421   6.864   6.207 -1.8985 -1.2900 -0.9078
  324MOL0     H44680   5.301   6.697   6.428  5.0711  1.7370  1.5955
  324MOL0     H44681   5.255   6.669   6.255  0.7012  1.1821 -0.9942
  324MOL0     H44682   5.211   6.926   6.261 -0.6106  1.3973  0.6049
  324MOL0     H44683   5.213   6.905   6.435  2.0963 -2.2268  0.9066
  324MOL0     H44684   4.993   6.910   6.368  0.0853  0.2038 -0.9054
  324MOL0     H44685   5.015   6.774   6.248 -0.3985  0.4323 -0.1951
  324MOL0     H44686   5.048   6.747   6.552  2.7317  1.0922 -1.8334
  324MOL0     H44687   5.070   6.631   6.431  0.0938 -0.5748 -0.4886
  324MOL0     H44688   4.835   6.659   6.348 -1.8465  0.6550 -0.1111
  324MOL0     H44689   4.803   6.771   6.488  0.0346  0.3538 -2.4314
  324MOL0     H44690   4.861   6.570   6.643  0.3148  1.0394 -1.3107
  324MOL0     H44691   4.884   6.479   6.496 -1.6366 -1.5085  1.0105
  324MOL0     H44692   5.464   6.570   6.551  0.1725 -0.0403  2.5110
  324MOL0     H44693   5.591   6.663   6.780 -3.3152  3.7475 -1.0749
  324MOL0     H44694   6.153   6.605   6.916 -0.9991  0.0324  0.7416
  324MOL0     H44695   6.272   6.635   7.132 -0.6130 -1.4219 -0.0515
  324MOL0     H44696   5.263   6.870   8.156  0.9945  1.8021 -0.4350
  324MOL0     H44697   5.170   7.096   8.166 -1.6864 -0.3627  1.1140
  324MOL0     H44698   4.561   7.245   8.081  1.5348 -0.4701  0.6141
  324MOL0     H44699   4.430   7.445   8.052 -0.1337 -1.5394  1.2901
  324MOL0     H44700   4.332   7.694   8.002 -1.0936  0.8166  0.0754
  324MOL0     H44701   4.377   7.675   8.169  1.2929 -0.4409  0.2755
  324MOL0     H44702   4.427   7.903   8.210 -0.7356  0.7425 -0.3049
  324MOL0     H44703   4.269   7.873   8.124 -0.6987 -0.7186 -2.7392
  324MOL0     H44704   4.524   7.958   7.970 -0.2071 -2.1911  1.4266
  324MOL0     H44705   4.362   7.967   7.924  0.5613  1.0658  0.2015
  324MOL0     H44706   4.448   8.180   7.991 -0.1941 -0.3161 -0.8021
  324MOL0     H44707   4.467   8.130   8.152  2.7206 -1.7310 -1.7912
  324MOL0     H44708   4.053   8.209   8.131  1.6102  1.1796  0.9885
  324MOL0     H44709   4.781   7.669   8.001  0.0883  1.2656  4.6748
  324MOL0     H44710   5.004   7.432   7.936 -1.9269  1.8489 -1.3205
  324MOL0     H44711   4.984   7.593   8.015  1.8956  0.5788 -0.2842
  324MOL0     H44712   5.017   7.448   8.115  0.7284  0.8961 -0.4343
  325MOL0     O44713   2.799   6.776   9.104  0.1935  0.2381 -0.4078
  325MOL0     C44714   2.681   6.788   9.093  0.5388 -0.5046  0.0708
  325MOL0     O44715   2.585   6.734   9.170 -0.1180 -0.9102 -0.2210
  325MOL0     C44716   2.641   6.671   9.283 -0.0004  0.4900  0.9872
  325MOL0     C44717   2.634   6.733   9.405 -0.1268  0.1947 -0.4832
  325MOL0     C44718   2.684   6.660   9.520 -0.6522  0.5365  0.9262
  325MOL0     C44719   2.750   6.539   9.511 -0.1553  0.0385  0.2413
  325MOL0     O44720   2.811   6.486   9.623 -0.2557  0.4587 -0.6982
  325MOL0     C44721   2.830   6.347   9.630 -0.5944 -0.5450  0.1837
  325MOL0     C44722   2.806   6.305   9.777  0.2957 -0.8773 -0.6207
  325MOL0     C44723   2.836   6.162   9.787  0.8497 -0.0169  0.0224
  325MOL0     C44724   2.961   6.128   9.873  0.0843  0.3672 -0.3052
  325MOL0     C44725   2.987   5.970   9.869  0.9012 -0.4565  0.2305
  325MOL0     C44726   2.908   5.919   9.994  0.4757  0.9335 -0.0111
  325MOL0     C44727   2.886   5.764   9.995 -0.4121 -0.4926 -0.1476
  325MOL0     C44728   3.011   5.674   9.980  0.0034 -0.1720  0.4828
  325MOL0     N44729   3.092   5.656  10.100 -0.1489  0.2569 -1.0921
  325MOL0     C44730   3.192   5.743  10.141  0.0224  0.5231 -0.5376
  325MOL0     C44731   3.252   5.679  10.244  0.9961 -0.8590 -0.4710
  325MOL0     C44732   3.363   5.734  10.329 -0.2276  1.4552  0.1651
  325MOL0     C44733   3.311   5.847  10.417  0.4781  0.2743  0.0041
  325MOL0     C44734   3.411   5.889  10.518 -0.0891  0.0440  0.6508
  325MOL0     C44735   3.371   5.980  10.627  0.1214  0.4026  0.4599
  325MOL0     O44736   3.485   6.016  10.705  0.3505 -0.9165 -0.2001
  325MOL0     C44737   3.464   6.131  10.782  0.5403 -0.0676  0.2925
  325MOL0     C44738   3.568   6.200  10.834  0.1048  0.2823 -0.1969
  325MOL0     C44739   3.562   6.313  10.916 -0.5086  0.3456 -0.5293
  325MOL0     C44740   3.696   6.376  10.949  0.2608 -0.4825 -0.6067
  325MOL0     C44741   3.435   6.361  10.962  0.8907  0.1823  0.0929
  325MOL0     C44742   3.407   6.474  11.051 -0.1730 -0.1245 -0.4807
  325MOL0     O44743   3.271   6.500  11.062 -0.1576 -0.2263  0.2600
  325MOL0     C44744   3.228   6.616  11.113  0.0967  0.5008 -0.0923
  325MOL0     C44745   3.259   6.663  11.238 -0.2866  0.0561  0.0878
  325MOL0     C44746   3.194   6.783  11.278  0.5206 -1.0724  0.3043
  325MOL0     C44747   3.107   6.864  11.197  0.2827 -0.3363  0.7701
  325MOL0     O44748   3.032   6.979  11.236 -0.7690 -0.0400 -0.4635
  325MOL0     C44749   2.969   7.058  11.128 -0.1805  0.0510 -0.1212
  325MOL0     C44750   2.816   7.028  11.126 -0.0321 -0.1062 -0.1851
  325MOL0     C44751   2.758   7.101  11.004 -0.3364  0.9954 -0.0932
  325MOL0     C44752   2.603   7.081  11.003 -0.8883  1.0637  0.0169
  325MOL0     C44753   2.539   7.168  10.895 -0.7479  0.0683 -0.2671
  325MOL0     C44754   2.390   7.150  10.897  0.5530  0.1069 -0.0274
  325MOL0     C44755   2.315   7.254  10.808 -0.4281 -0.8929  0.3010
  325MOL0     C44756   2.184   7.188  10.751  0.6491  0.2139 -0.9018
  325MOL0    Cl44757   2.080   7.128  10.891 -0.0270 -0.4377  0.5193
  325MOL0     C44758   3.079   6.802  11.076  0.8810  0.0103  0.3548
  325MOL0     C44759   3.137   6.685  11.039  0.4316  0.1097  0.0690
  325MOL0     O44760   3.507   6.530  11.093  0.4587 -0.1235 -0.1971
  325MOL0     C44761   3.326   6.283  10.909  0.2257  0.1504  0.0604
  325MOL0     C44762   3.336   6.177  10.825 -0.0802  0.4491 -0.3811
  325MOL0     N44763   3.199   5.550  10.242 -0.3670 -0.1203 -0.4063
  325MOL0     N44764   3.092   5.545  10.173 -0.1079 -0.0973 -1.3389
  325MOL0     C44765   2.747   6.476   9.385 -0.1769 -1.0595  0.1502
  325MOL0     C44766   2.695   6.539   9.270  0.4768 -0.3589 -0.8635
  325MOL0     C44767   2.615   6.843   8.962 -0.1456 -0.4055 -0.1004
  325MOL0     C44768   2.488   6.803   8.922 -0.3763 -0.0326  0.0973
  325MOL0     C44769   2.427   6.869   8.810 -0.7292 -0.0772 -0.4540
  325MOL0     C44770   2.495   6.964   8.732  0.9239 -0.4238  0.3095
  325MOL0     O44771   2.429   7.020   8.628  0.8282 -0.2588  0.3126
  325MOL0     C44772   2.497   7.091   8.529  0.3579 -0.0606  0.6435
  325MOL0     C44773   2.386   7.111   8.424 -0.5460 -0.4711  1.5136
  325MOL0     C44774   2.269   7.196   8.467  0.4100  0.3073 -1.1781
  325MOL0     C44775   2.307   7.341   8.493 -0.1275  0.8036 -0.2689
  325MOL0     C44776   2.193   7.432   8.482 -0.1930  0.1630  0.4396
  325MOL0     C44777   2.106   7.515   8.499 -1.1224  0.6351  0.4680
  325MOL0     C44778   2.624   7.001   8.773  0.2774 -0.3363 -0.3540
  325MOL0     C44779   2.682   6.954   8.889 -0.1205  0.0782  1.2213
  325MOL0     C44780   2.813   7.012   8.930 -1.2107 -0.1435 -0.5241
  325MOL0     H44781   2.594   6.834   9.412 -0.4718  0.1086 -1.1460
  325MOL0     H44782   2.675   6.718   9.612  1.5765  0.9925  0.9377
  325MOL0     H44783   2.928   6.304   9.605 -1.5765 -2.2804 -0.8937
  325MOL0     H44784   2.755   6.289   9.575  0.4817  0.3106 -2.3212
  325MOL0     H44785   2.865   6.369   9.843 -1.7299  0.4488 -0.0016
  325MOL0     H44786   2.706   6.337   9.808  1.6552  4.4023 -0.6926
  325MOL0     H44787   2.748   6.122   9.840 -1.5410  3.2015 -1.1788
  325MOL0     H44788   2.840   6.121   9.686  1.7234 -0.5973  0.2817
  325MOL0     H44789   3.048   6.177   9.829 -1.5403  2.3885 -1.4454
  325MOL0     H44790   2.947   6.170   9.974 -1.1145 -3.7046  1.4409
  325MOL0     H44791   3.092   5.938   9.869  1.2818  0.7378 -1.0872
  325MOL0     H44792   2.945   5.928   9.778  0.2069 -2.2221  1.3032
  325MOL0     H44793   2.955   5.948  10.089 -0.9736  3.5516 -0.0061
  325MOL0     H44794   2.809   5.964   9.989 -1.5963 -2.9614  1.5734
  325MOL0     H44795   2.823   5.743   9.908  0.5046  0.2545 -1.0020
  325MOL0     H44796   2.835   5.740  10.089 -0.0428 -1.5789 -0.2132
  325MOL0     H44797   2.961   5.579   9.962 -2.1035  0.7954  0.9079
  325MOL0     H44798   3.073   5.707   9.895 -2.0528 -0.6475 -1.2794
  325MOL0     H44799   3.221   5.845  10.119  2.1536  0.5027  1.7205
  325MOL0     H44800   3.440   5.766  10.258  0.4539  1.4063  0.8668
  325MOL0     H44801   3.409   5.655  10.390 -1.2744  0.1154 -0.7370
  325MOL0     H44802   3.274   5.932  10.360 -2.1232 -0.8146 -0.0904
  325MOL0     H44803   3.221   5.802  10.460  0.3944 -0.4496 -0.8950
  325MOL0     H44804   3.459   5.801  10.561  0.5340  0.3088  0.5025
  325MOL0     H44805   3.484   5.951  10.465 -0.4898 -0.8559 -1.0338
  325MOL0     H44806   3.334   6.073  10.585 -3.1674 -1.7760 -1.9990
  325MOL0     H44807   3.282   5.946  10.681  0.6840 -5.1188 -1.4475
  325MOL0     H44808   3.667   6.166  10.805  0.0774  0.2469 -0.2495
  325MOL0     H44809   3.691   6.480  10.915 -2.7105  0.3166  1.7972
  325MOL0     H44810   3.782   6.329  10.901  0.2045  0.2415 -1.4241
  325MOL0     H44811   3.713   6.384  11.057 -3.1854  0.2003  0.0064
  325MOL0     H44812   3.323   6.603  11.302  0.4540  0.7299  0.0070
  325MOL0     H44813   3.201   6.831  11.375 -1.0573  0.5064 -0.3270
  325MOL0     H44814   2.981   7.161  11.160  0.1801 -0.9432  3.3883
  325MOL0     H44815   3.023   7.052  11.033  0.3249  0.6269  0.1259
  325MOL0     H44816   2.802   6.920  11.135  0.1304 -0.1489 -0.4231
  325MOL0     H44817   2.772   7.078  11.213  1.2523  1.3099 -0.2918
  325MOL0     H44818   2.804   7.064  10.911  0.0616  1.8811 -0.2568
  325MOL0     H44819   2.779   7.208  11.004  1.7143  0.6594  1.1460
  325MOL0     H44820   2.572   7.120  11.100  0.9259  1.0185  0.6412
  325MOL0     H44821   2.587   6.973  10.999 -0.3361  0.8719  1.9484
  325MOL0     H44822   2.546   7.271  10.932  1.1231  0.6250 -1.9510
  325MOL0     H44823   2.593   7.163  10.799  2.2062  0.0857  1.2781
  325MOL0     H44824   2.355   7.170  10.999  0.7287 -0.4997  0.1526
  325MOL0     H44825   2.364   7.047  10.873 -1.0899  0.2736  0.8894
  325MOL0     H44826   2.375   7.288  10.723 -1.4320 -1.4929 -0.6731
  325MOL0     H44827   2.282   7.345  10.859  1.1555  0.4051 -0.8712
  325MOL0     H44828   2.191   7.108  10.676  0.2043  0.8583 -1.6493
  325MOL0     H44829   2.132   7.269  10.698  0.4261 -0.5730 -1.9366
  325MOL0     H44830   3.004   6.835  11.004  1.9271  0.2246 -0.6662
  325MOL0     H44831   3.121   6.660  10.935  0.3770  0.5670 -0.0362
  325MOL0     H44832   3.229   6.308  10.951  0.3912 -1.0614  1.2225
  325MOL0     H44833   3.240   6.129  10.811 -1.1337  2.9350 -2.3062
  325MOL0     H44834   2.791   6.378   9.374  0.0253 -1.0454  0.7578
  325MOL0     H44835   2.696   6.481   9.178  0.3926 -1.6312 -0.0752
  325MOL0     H44836   2.423   6.734   8.974  0.8674 -0.9483  0.4876
  325MOL0     H44837   2.324   6.854   8.780 -1.6674  0.6851  2.1550
  325MOL0     H44838   2.539   7.185   8.566 -0.6614  0.1334  1.3496
  325MOL0     H44839   2.570   7.024   8.483 -0.9812 -2.9611  2.4671
  325MOL0     H44840   2.341   7.015   8.398  1.2467 -1.0229  0.3413
  325MOL0     H44841   2.429   7.159   8.336 -1.8477 -0.7281  0.7059
  325MOL0     H44842   2.191   7.182   8.391 -1.2632  0.4758  0.4306
  325MOL0     H44843   2.210   7.155   8.550 -0.4659  0.6024 -1.6500
  325MOL0     H44844   2.381   7.376   8.422 -1.5952 -0.6282 -2.6230
  325MOL0     H44845   2.354   7.342   8.592  1.4177  0.8067 -0.9779
  325MOL0     H44846   2.028   7.586   8.518 -1.4079  0.3384  0.4150
  325MOL0     H44847   2.689   7.075   8.727 -0.8726  0.3305 -0.9510
  325MOL0     H44848   2.816   7.113   8.887 -0.2231 -0.8721 -2.2768
  325MOL0     H44849   2.821   7.030   9.037  3.0605  1.1842 -0.8954
  325MOL0     H44850   2.902   6.961   8.891 -0.4960 -0.4962  1.4654
  326MOL0     O44851   9.931   2.757   9.872  0.0521 -0.0634  0.7920
  326MOL0     C44852   9.928   2.845   9.790  0.6371  0.1158  0.1499
  326MOL0     O44853   9.816   2.913   9.749 -0.3873  0.3270 -0.8097
  326MOL0     C44854   9.698   2.882   9.800 -0.7239 -0.8307 -0.0777
  326MOL0     C44855   9.627   2.777   9.745  0.2115  0.1654  0.9444
  326MOL0     C44856   9.495   2.752   9.782 -0.4229  0.6003 -0.1223
  326MOL0     C44857   9.425   2.833   9.881  0.2362 -0.2011 -0.6243
  326MOL0     O44858   9.296   2.810   9.913  0.5354 -0.6167  0.4279
  326MOL0     C44859   9.228   2.922   9.979 -0.1539  0.2071 -0.5403
  326MOL0     C44860   9.084   2.894   9.984 -1.1470  0.7401 -0.7883
  326MOL0     C44861   9.019   2.959  10.106 -0.6157  0.3836 -0.6285
  326MOL0     C44862   8.872   2.914  10.131  0.2781  0.0291 -0.1337
  326MOL0     C44863   8.828   2.956  10.273  0.2272  0.6841 -0.4025
  326MOL0     C44864   8.845   3.110  10.316 -0.3144 -1.6937  0.7412
  326MOL0     C44865   8.724   3.199  10.259 -0.1664  0.1438  0.0419
  326MOL0     C44866   8.752   3.348  10.272 -0.5426 -0.3747  0.1671
  326MOL0     N44867   8.779   3.376  10.409  0.9587 -0.5401  0.5580
  326MOL0     C44868   8.896   3.417  10.463 -0.6416 -0.3111 -0.8213
  326MOL0     C44869   8.856   3.474  10.584 -0.2373 -0.5063  0.1107
  326MOL0     C44870   8.963   3.541  10.672  0.1266 -0.2993  0.3290
  326MOL0     C44871   8.944   3.688  10.695  0.3125  0.2012  0.5338
  326MOL0     C44872   9.027   3.741  10.802 -0.2999 -0.2900 -0.6090
  326MOL0     C44873   9.046   3.894  10.805  1.2615 -0.6530 -0.0177
  326MOL0     O44874   8.919   3.953  10.840  0.6159  1.0462 -0.7486
  326MOL0     C44875   8.882   3.986  10.968 -0.4279  0.0930  0.3482
  326MOL0     C44876   8.928   3.926  11.078 -0.7404  0.8527 -0.0091
  326MOL0     C44877   8.915   3.963  11.212 -0.9931  0.2720 -0.7272
  326MOL0     C44878   8.982   3.878  11.317  0.0798  0.4240  0.2662
  326MOL0     C44879   8.847   4.090  11.229  0.7681 -0.4020 -0.0522
  326MOL0     C44880   8.819   4.157  11.364  0.4405 -0.0921  0.1334
  326MOL0     O44881   8.875   4.104  11.476  0.1870  1.1080  0.7228
  326MOL0     C44882   8.862   4.167  11.599 -0.0084  1.0531  0.1984
  326MOL0     C44883   8.736   4.200  11.666  0.5437 -0.8076  0.2440
  326MOL0     C44884   8.739   4.248  11.795 -0.5435 -0.7858 -0.0972
  326MOL0     C44885   8.860   4.256  11.864 -0.8534 -0.4095 -0.1094
  326MOL0     O44886   8.852   4.282  11.997 -0.2060 -0.3745 -0.7189
  326MOL0     C44887   8.732   4.245  12.072  0.3587  0.6933 -0.1059
  326MOL0     C44888   8.769   4.246  12.227  1.0303  0.2713  0.6590
  326MOL0     C44889   8.878   4.144  12.266 -0.5455 -0.5955 -0.0666
  326MOL0     C44890   8.912   4.175  12.417 -1.0841  0.1494 -0.3736
  326MOL0     C44891   9.032   4.092  12.467 -0.5186 -0.6139  0.4832
  326MOL0     C44892   9.100   4.122  12.602 -0.5419  0.1140 -0.5967
  326MOL0     C44893   9.009   4.138  12.727  0.2614  0.1778  0.3997
  326MOL0     C44894   9.091   4.168  12.849  0.0670  0.4220 -0.0655
  326MOL0    Cl44895   8.998   4.142  12.998 -0.8579 -0.3024 -0.0989
  326MOL0     C44896   8.977   4.228  11.807 -0.3403 -0.0290 -0.3380
  326MOL0     C44897   8.978   4.180  11.677 -0.4730 -0.9696 -0.1131
  326MOL0     O44898   8.748   4.261  11.368  0.2631  0.0514  0.1818
  326MOL0     C44899   8.786   4.155  11.118 -0.6228 -0.5885  0.2515
  326MOL0     C44900   8.810   4.103  10.988  0.5137  0.6287 -0.6813
  326MOL0     N44901   8.719   3.462  10.605  0.4205  0.2391  0.4770
  326MOL0     N44902   8.678   3.396  10.501  0.2462 -0.3915  0.3895
  326MOL0     C44903   9.504   2.934   9.945  0.5451  0.5122  0.1090
  326MOL0     C44904   9.634   2.955   9.902 -1.1509  0.4221  0.0305
  326MOL0     C44905  10.042   2.859   9.712  0.7393 -0.5382 -0.1691
  326MOL0     C44906  10.039   2.815   9.580 -0.0588 -0.5845  0.5187
  326MOL0     C44907  10.160   2.795   9.511  0.5668 -0.2740  0.1346
  326MOL0     C44908  10.278   2.843   9.561  1.1773 -0.9641  0.0701
  326MOL0     O44909  10.394   2.830   9.494 -0.4128  0.1504  0.0367
  326MOL0     C44910  10.465   2.954   9.473 -1.2379  1.0387 -0.1512
  326MOL0     C44911  10.405   3.042   9.366  0.6312  0.3048  0.1495
  326MOL0     C44912  10.382   2.958   9.239 -0.9274  0.7071 -0.3961
  326MOL0     C44913  10.305   3.049   9.136  0.1196  0.0774 -0.6199
  326MOL0     C44914  10.391   3.151   9.075 -0.6428  0.0070  0.6874
  326MOL0     C44915  10.468   3.237   9.039  0.9060  0.5956  0.1803
  326MOL0     C44916  10.273   2.906   9.688 -0.7843  0.9495 -0.0376
  326MOL0     C44917  10.165   2.901   9.766 -0.1057 -0.6010 -0.4109
  326MOL0     C44918  10.182   2.963   9.910  0.0615 -0.4587  1.1073
  326MOL0     H44919   9.679   2.721   9.667  1.7674  3.0316 -0.2029
  326MOL0     H44920   9.441   2.672   9.731  0.8452 -0.8743  0.7508
  326MOL0     H44921   9.236   3.021   9.933 -1.2667  1.5452  1.9635
  326MOL0     H44922   9.269   2.925  10.081  2.0445  0.5349 -1.3725
  326MOL0     H44923   9.032   2.926   9.893 -1.0444  0.8906 -0.7946
  326MOL0     H44924   9.078   2.785   9.990  3.9266  0.2827  0.0322
  326MOL0     H44925   9.072   2.936  10.199 -0.7918 -0.4726 -0.7339
  326MOL0     H44926   9.004   3.067  10.096  4.4485  1.9747  3.7876
  326MOL0     H44927   8.807   2.960  10.057 -2.6274  2.1153  3.4018
  326MOL0     H44928   8.863   2.805  10.130 -1.5617  0.1162  1.5222
  326MOL0     H44929   8.889   2.895  10.339 -2.4005  0.2704  1.8325
  326MOL0     H44930   8.721   2.936  10.288 -0.1422  3.9900  2.9783
  326MOL0     H44931   8.830   3.115  10.424 -1.2983 -0.6891  0.5813
  326MOL0     H44932   8.940   3.156  10.285 -0.4213 -0.7786  1.7121
  326MOL0     H44933   8.630   3.169  10.305  1.9861 -3.1804  2.7947
  326MOL0     H44934   8.709   3.174  10.154 -2.5210 -1.5885  0.7147
  326MOL0     H44935   8.838   3.371  10.209 -1.4230 -1.4572 -1.5088
  326MOL0     H44936   8.674   3.417  10.241  2.3961  2.5561 -1.3250
  326MOL0     H44937   8.999   3.429  10.430  0.1393  8.6104  2.0033
  326MOL0     H44938   9.068   3.518  10.649  1.4138  4.4636  0.3578
  326MOL0     H44939   8.947   3.493  10.769 -0.8933 -1.7056 -0.4898
  326MOL0     H44940   8.969   3.744  10.604  1.7952 -0.5039  0.4852
  326MOL0     H44941   8.838   3.714  10.707 -0.4164 -2.0578 -0.4530
  326MOL0     H44942   9.000   3.712  10.904  2.7710  0.9388  0.6813
  326MOL0     H44943   9.133   3.718  10.784 -0.0937 -0.2906  0.5314
  326MOL0     H44944   9.128   3.929  10.869  3.1513 -2.0548 -1.5694
  326MOL0     H44945   9.081   3.939  10.711 -2.6213  2.8128 -0.1126
  326MOL0     H44946   8.985   3.834  11.073 -1.3221  0.4437  0.6908
  326MOL0     H44947   9.060   3.930  11.373 -0.1430  0.2467  0.7555
  326MOL0     H44948   9.027   3.787  11.275 -1.8843 -0.4311 -0.1067
  326MOL0     H44949   8.911   3.851  11.396  1.1217 -0.5369  0.9128
  326MOL0     H44950   8.647   4.204  11.604  0.1877 -0.2476  0.7850
  326MOL0     H44951   8.651   4.282  11.848 -0.1228 -0.4264  0.3908
  326MOL0     H44952   8.655   4.320  12.054  0.7627  1.1904  0.2013
  326MOL0     H44953   8.701   4.141  12.058  1.7386  0.1257  0.7535
  326MOL0     H44954   8.810   4.345  12.248 -1.7356  2.1204 -1.9465
  326MOL0     H44955   8.675   4.238  12.282  0.5955 -0.2337 -0.1405
  326MOL0     H44956   8.969   4.163  12.208 -0.3670 -1.4017 -0.0599
  326MOL0     H44957   8.834   4.044  12.263 -0.4463 -0.6391 -0.0664
  326MOL0     H44958   8.831   4.154  12.488 -0.3818 -0.5330  0.2455
  326MOL0     H44959   8.935   4.280  12.432 -2.5298  0.6886 -1.6765
  326MOL0     H44960   9.003   3.987  12.481  0.6925 -1.0139  0.0704
  326MOL0     H44961   9.112   4.102  12.393  2.3865  0.5924  3.5307
  326MOL0     H44962   9.164   4.211  12.595 -2.2625  1.8049  2.9639
  326MOL0     H44963   9.161   4.033  12.620  0.1979  0.7479  0.0889
  326MOL0     H44964   8.956   4.043  12.736  1.6048 -0.6026  0.3184
  326MOL0     H44965   8.931   4.213  12.709  1.1843  1.1695  0.4531
  326MOL0     H44966   9.121   4.273  12.850  2.4647 -0.1898  1.4562
  326MOL0     H44967   9.187   4.115  12.848 -0.4541 -0.5882 -2.2916
  326MOL0     H44968   9.063   4.229  11.873 -0.0572 -0.4200 -0.6951
  326MOL0     H44969   9.064   4.131  11.633  0.2914 -0.4457  0.7722
  326MOL0     H44970   8.730   4.247  11.126 -1.2752 -1.0736  1.4840
  326MOL0     H44971   8.764   4.146  10.900  0.9017  2.2835 -0.1014
  326MOL0     H44972   9.467   2.993  10.028  1.0502  0.7956  0.1408
  326MOL0     H44973   9.710   3.017   9.947  0.2684  1.2880 -3.2586
  326MOL0     H44974   9.950   2.794   9.521  0.1900  2.0453 -0.9369
  326MOL0     H44975  10.151   2.751   9.413  1.2474 -0.5372  0.1850
  326MOL0     H44976  10.458   3.009   9.567 -0.7569  0.2304  0.3789
  326MOL0     H44977  10.571   2.931   9.460 -0.8082  2.1203  1.1955
  326MOL0     H44978  10.472   3.127   9.353  1.2119 -0.0440  0.7513
  326MOL0     H44979  10.307   3.082   9.392  1.2580  1.8631  0.2418
  326MOL0     H44980  10.473   2.920   9.193  0.3086 -0.1377  2.4894
  326MOL0     H44981  10.317   2.872   9.254  1.9435 -1.3357  1.4475
  326MOL0     H44982  10.228   3.104   9.192  0.5717  0.1624 -0.0761
  326MOL0     H44983  10.272   2.987   9.052  2.0622  0.7850 -1.9626
  326MOL0     H44984  10.531   3.311   8.994 -1.6350  2.5318 -0.4165
  326MOL0     H44985  10.365   2.923   9.742 -0.0179 -1.4036 -0.4850
  326MOL0     H44986  10.174   3.069   9.885 -0.5129 -0.8736 -0.6481
  326MOL0     H44987  10.104   2.947   9.985 -3.9136  3.4347 -1.7121
  326MOL0     H44988  10.285   2.951   9.946  0.0792 -0.8632  0.9324
  327MOL0     O44989   1.759   2.598   1.743 -0.3319 -0.3783 -0.9485
  327MOL0     C44990   1.768   2.618   1.864 -1.6843 -0.5042 -0.4248
  327MOL0     O44991   1.800   2.522   1.951 -0.4225  0.1673  0.7411
  327MOL0     C44992   1.764   2.388   1.923  0.7103 -0.7804 -0.4160
  327MOL0     C44993   1.849   2.315   1.848  0.7695  0.3418 -0.0686
  327MOL0     C44994   1.809   2.196   1.798 -0.4425 -0.3164  0.3864
  327MOL0     C44995   1.689   2.145   1.835  0.2142  0.3539  0.9362
  327MOL0     O44996   1.656   2.029   1.770  0.1036  0.4905 -0.7885
  327MOL0     C44997   1.515   2.022   1.745  0.4688  0.1966  0.4489
  327MOL0     C44998   1.484   1.906   1.659  0.4674 -0.1693  0.1291
  327MOL0     C44999   1.497   1.770   1.723  0.0170  0.8861 -0.7926
  327MOL0     C45000   1.431   1.661   1.644 -0.3043 -0.2536  0.2001
  327MOL0     C45001   1.505   1.525   1.654  0.0225 -0.1455  0.2617
  327MOL0     C45002   1.448   1.429   1.557 -0.5835 -0.0358  0.2098
  327MOL0     C45003   1.485   1.286   1.587  0.5557 -0.7116  0.1963
  327MOL0     C45004   1.358   1.221   1.654  0.6136  0.2994  0.0004
  327MOL0     N45005   1.373   1.079   1.693 -0.1392 -0.0869 -0.6096
  327MOL0     C45006   1.453   1.032   1.798  0.2347 -0.1964 -0.1579
  327MOL0     C45007   1.417   0.899   1.811 -0.3252 -0.0821  0.1662
  327MOL0     C45008   1.469   0.794   1.893  0.1223 -0.6313  0.1244
  327MOL0     C45009   1.422   0.808   2.043 -0.2896 -0.3681  0.7337
  327MOL0     C45010   1.483   0.690   2.126 -0.6417 -0.4402  0.2147
  327MOL0     C45011   1.458   0.699   2.278  0.4471 -0.3252 -0.4850
  327MOL0     O45012   1.316   0.708   2.293 -0.1007  0.8162 -0.7091
  327MOL0     C45013   1.246   0.597   2.258  0.3204  0.4781 -0.3542
  327MOL0     C45014   1.252   0.460   2.317 -0.4228  0.2297 -0.0821
  327MOL0     C45015   1.171   0.355   2.272 -0.9605  0.3103  0.2841
  327MOL0     C45016   1.198   0.231   2.354 -0.6158 -0.1061  0.3190
  327MOL0     C45017   1.082   0.377   2.157 -0.8989 -0.6689  0.1127
  327MOL0     C45018   1.001   0.272   2.090 -0.0095 -0.3166 -1.2391
  327MOL0     O45019   0.968   0.299   1.963  0.3881 -0.4851 -0.3930
  327MOL0     C45020   0.965   0.205   1.867  0.3656 -0.5189 -0.3883
  327MOL0     C45021   0.930   0.250   1.742  0.1449 -0.6310  0.3499
  327MOL0     C45022   0.949   0.168   1.626 -0.5811  0.0754  0.5322
  327MOL0     C45023   1.005   0.043   1.644 -0.3518  0.7784  0.4799
  327MOL0     O45024   1.022  -0.026   1.524 -0.2616  0.1133 -0.0530
  327MOL0     C45025   1.117  -0.136   1.531 -0.1533 -0.0160 -0.8843
  327MOL0     C45026   1.140  -0.195   1.392  0.2772 -0.1797 -0.4525
  327MOL0     C45027   1.222  -0.103   1.306  0.6916  0.0049 -0.3345
  327MOL0     C45028   1.274  -0.167   1.172 -0.0098  0.5940  0.3378
  327MOL0     C45029   1.389  -0.088   1.102  0.3292  0.6124 -0.9236
  327MOL0     C45030   1.400   0.067   1.094  0.2030 -1.3910  0.1070
  327MOL0     C45031   1.498   0.104   1.201  0.1778 -0.2845 -1.1569
  327MOL0     C45032   1.460   0.257   1.249 -0.9180  1.1241 -0.8962
  327MOL0    Cl45033   1.466   0.370   1.120 -0.3758  0.3306  0.2033
  327MOL0     C45034   1.053  -0.002   1.775  0.2921  0.0185  0.3567
  327MOL0     C45035   1.029   0.076   1.887  0.4580  0.3905 -0.9636
  327MOL0     O45036   0.965   0.170   2.151  0.3639 -0.0611  0.7181
  327MOL0     C45037   1.073   0.507   2.121 -0.3539 -0.5939  0.0632
  327MOL0     C45038   1.155   0.612   2.156  0.2099 -0.0181  0.8600
  327MOL0     N45039   1.325   0.880   1.705  0.2000 -0.1718 -0.2808
  327MOL0     N45040   1.288   0.986   1.646 -0.0557 -0.7691  0.0569
  327MOL0     C45041   1.602   2.217   1.916 -0.5972 -0.3762  0.3371
  327MOL0     C45042   1.638   2.344   1.963 -0.1546  0.3194 -0.2157
  327MOL0     C45043   1.764   2.764   1.900  1.1275  0.0799  0.3685
  327MOL0     C45044   1.800   2.856   1.809  0.2084 -0.0443  0.0138
  327MOL0     C45045   1.792   2.992   1.828 -0.5640 -0.7831  0.8959
  327MOL0     C45046   1.750   3.045   1.950  0.7378 -0.1446  0.9337
  327MOL0     O45047   1.745   3.178   1.998  1.2753  0.7461  0.2052
  327MOL0     C45048   1.821   3.280   1.924  0.3904 -0.1626 -0.7274
  327MOL0     C45049   1.965   3.266   1.977 -0.3962  1.2850 -0.7186
  327MOL0     C45050   2.043   3.381   1.930 -0.4881 -0.4681  0.6870
  327MOL0     C45051   2.194   3.349   1.939  0.3275 -0.5870 -0.2441
  327MOL0     C45052   2.239   3.309   2.073  0.5497  0.2804  0.2421
  327MOL0     C45053   2.270   3.272   2.183  0.0318 -0.1107  1.4267
  327MOL0     C45054   1.690   2.952   2.038 -0.7150 -0.3528  0.2530
  327MOL0     C45055   1.702   2.813   2.020  0.4526  0.4972  0.8884
  327MOL0     C45056   1.638   2.727   2.132  0.0739 -0.6453 -0.1386
  327MOL0     H45057   1.929   2.374   1.804  0.2042 -1.3106 -3.6338
  327MOL0     H45058   1.869   2.142   1.725  1.8036  0.5921  1.4804
  327MOL0     H45059   1.471   2.110   1.696 -0.5845 -0.2698  0.5382
  327MOL0     H45060   1.461   2.001   1.837  0.4817  2.7413  1.1149
  327MOL0     H45061   1.381   1.912   1.624  0.2630  1.5258  0.9421
  327MOL0     H45062   1.555   1.923   1.577 -1.0049 -1.0722 -1.4020
  327MOL0     H45063   1.599   1.744   1.752 -0.6073 -2.4195 -1.1980
  327MOL0     H45064   1.444   1.767   1.819  1.0089 -0.6628 -0.2625
  327MOL0     H45065   1.322   1.659   1.652 -0.5375  2.4015 -1.0957
  327MOL0     H45066   1.437   1.687   1.538  1.7548  0.6246  0.4933
  327MOL0     H45067   1.486   1.502   1.760 -0.4101  5.3020  1.6783
  327MOL0     H45068   1.611   1.534   1.631 -0.3991 -1.0598 -2.2725
  327MOL0     H45069   1.341   1.447   1.551 -0.9046 -2.2202 -2.8945
  327MOL0     H45070   1.486   1.455   1.457 -1.9176  0.6056 -0.1528
  327MOL0     H45071   1.565   1.280   1.660 -0.4088  1.1019  1.4701
  327MOL0     H45072   1.502   1.244   1.487 -0.3387  1.1041 -0.7784
  327MOL0     H45073   1.335   1.284   1.740 -1.0110  1.6300 -1.3217
  327MOL0     H45074   1.269   1.219   1.589  0.4283 -3.1273  0.1715
  327MOL0     H45075   1.532   1.082   1.853 -2.5800  1.0372  3.0663
  327MOL0     H45076   1.576   0.780   1.875  0.0005 -1.6402  0.1721
  327MOL0     H45077   1.430   0.705   1.844 -0.8882  1.1065 -2.4167
  327MOL0     H45078   1.460   0.903   2.081 -1.9854 -0.9548  4.3333
  327MOL0     H45079   1.314   0.807   2.059 -0.1966  0.5888  1.5080
  327MOL0     H45080   1.460   0.589   2.091  1.3912 -1.2936  1.1493
  327MOL0     H45081   1.591   0.687   2.109 -0.2353  2.1250  1.7704
  327MOL0     H45082   1.482   0.607   2.331  2.6588  0.9799  0.9066
  327MOL0     H45083   1.512   0.782   2.325  1.1767 -1.1709  0.1893
  327MOL0     H45084   1.322   0.436   2.396  1.6790  0.2711 -1.8191
  327MOL0     H45085   1.301   0.223   2.390 -0.7236 -4.6031  0.2450
  327MOL0     H45086   1.189   0.136   2.300 -1.0945 -2.1960  3.8121
  327MOL0     H45087   1.136   0.232   2.444  1.7091 -5.3736  2.4399
  327MOL0     H45088   0.889   0.347   1.714  1.9750 -0.5461 -2.3533
  327MOL0     H45089   0.922   0.211   1.530 -0.0285 -1.0614 -0.1599
  327MOL0     H45090   1.205  -0.096   1.582  0.1628 -2.1941  0.4210
  327MOL0     H45091   1.070  -0.220   1.583 -0.1490 -0.3427 -1.4043
  327MOL0     H45092   1.197  -0.286   1.410 -0.7874 -0.8439 -0.3539
  327MOL0     H45093   1.044  -0.225   1.349 -1.1228  2.5290  0.5544
  327MOL0     H45094   1.301  -0.049   1.358  0.8182 -1.5242  1.1862
  327MOL0     H45095   1.148  -0.026   1.285  0.9354  0.5848  0.8330
  327MOL0     H45096   1.183  -0.152   1.113 -0.6580  1.5600  1.5462
  327MOL0     H45097   1.296  -0.274   1.175 -1.4406  0.2096 -1.2461
  327MOL0     H45098   1.479  -0.128   1.149  0.7708  0.9443 -1.4832
  327MOL0     H45099   1.379  -0.134   1.003 -2.4959  0.6484 -0.7533
  327MOL0     H45100   1.305   0.118   1.110 -0.2603 -2.3254  0.3788
  327MOL0     H45101   1.414   0.091   0.988 -2.3384 -5.3227 -1.3305
  327MOL0     H45102   1.601   0.097   1.164  0.4229  2.0969 -1.0968
  327MOL0     H45103   1.491   0.038   1.288 -3.2057  0.9554 -0.3176
  327MOL0     H45104   1.529   0.286   1.328  0.6918 -3.8361 -0.1351
  327MOL0     H45105   1.360   0.258   1.295  0.6059 -2.3940  3.1192
  327MOL0     H45106   1.106  -0.096   1.787  0.7401  0.3146  0.7516
  327MOL0     H45107   1.058   0.038   1.984 -0.8432  0.7116 -0.4211
  327MOL0     H45108   0.997   0.539   2.051 -0.5909 -1.0897  0.0956
  327MOL0     H45109   1.139   0.703   2.098 -1.6400 -0.5885  0.4054
  327MOL0     H45110   1.498   2.188   1.931 -0.6514 -0.1062  0.4886
  327MOL0     H45111   1.569   2.398   2.026 -1.2010 -0.2039 -0.8854
  327MOL0     H45112   1.848   2.814   1.722 -1.9661 -1.2523 -0.6869
  327MOL0     H45113   1.822   3.062   1.751 -1.1502  0.4491  1.7613
  327MOL0     H45114   1.824   3.267   1.815 -1.1668 -1.9825 -0.5932
  327MOL0     H45115   1.777   3.380   1.930 -0.8529 -0.7796  2.7761
  327MOL0     H45116   2.006   3.169   1.947 -5.3540 -1.9626  1.6155
  327MOL0     H45117   1.948   3.259   2.084 -2.1681 -0.3666 -1.0480
  327MOL0     H45118   2.027   3.401   1.824 -0.9952  0.1543  0.8757
  327MOL0     H45119   2.009   3.469   1.985 -1.5899 -1.1431  1.0995
  327MOL0     H45120   2.245   3.440   1.907  1.4380 -0.9216  0.5125
  327MOL0     H45121   2.227   3.273   1.868 -0.3619  0.7945 -2.1010
  327MOL0     H45122   2.301   3.223   2.273 -1.9165 -2.5403  0.9129
  327MOL0     H45123   1.648   2.987   2.132 -0.7504 -1.9423  0.8681
  327MOL0     H45124   1.651   2.619   2.122 -1.7797 -0.9477  0.2922
  327MOL0     H45125   1.695   2.755   2.222  1.9091  1.8939 -1.9544
  327MOL0     H45126   1.532   2.750   2.143 -0.0746 -0.3236 -2.0272
  328MOL0     O45127  10.000  10.797   3.704 -0.3110  1.0764 -0.0212
  328MOL0     C45128   9.896  10.816   3.768 -0.3673  1.0075 -0.3272
  328MOL0     O45129   9.895  10.868   3.892 -0.3166  0.7523 -0.5353
  328MOL0     C45130  10.020  10.889   3.950 -0.2504 -0.0993 -0.8300
  328MOL0     C45131  10.103  10.787   3.998 -0.8200  0.7697  0.0859
  328MOL0     C45132  10.228  10.821   4.057 -0.8135 -0.1186  0.9895
  328MOL0     C45133  10.260  10.963   4.077 -0.8657  1.0927  1.4024
  328MOL0     O45134  10.379  11.024   4.132  0.5821 -0.2497  0.4061
  328MOL0     C45135  10.482  10.919   4.161 -0.3154 -0.5340 -0.0843
  328MOL0     C45136  10.619  10.988   4.198  0.0607  0.9316 -0.9971
  328MOL0     C45137  10.604  11.089   4.309  0.1472  0.4874 -0.3641
  328MOL0     C45138  10.737  11.115   4.383  0.2025  0.8571  0.9130
  328MOL0     C45139  10.725  11.245   4.466 -0.1808  0.3274  1.1298
  328MOL0     C45140  10.854  11.257   4.552 -0.0791 -0.1113  0.0117
  328MOL0     C45141  10.843  11.345   4.668  0.6979  0.6832  0.1778
  328MOL0     C45142  10.792  11.490   4.632 -0.0489  0.3167 -0.5122
  328MOL0     N45143  10.900  11.585   4.614 -0.2910 -1.1373 -0.8001
  328MOL0     C45144  11.006  11.564   4.537  0.3492 -1.0066 -0.1038
  328MOL0     C45145  11.094  11.658   4.577 -0.8489 -0.2139  0.2308
  328MOL0     C45146  11.242  11.680   4.533  1.1138  0.4076 -0.0154
  328MOL0     C45147  11.282  11.622   4.392  0.6887 -0.4029  0.3230
  328MOL0     C45148  11.201  11.692   4.276 -0.2828  0.4439 -0.3598
  328MOL0     C45149  11.200  11.622   4.142 -0.1394  0.1714 -0.4292
  328MOL0     O45150  11.161  11.486   4.149  0.1982  1.5317  0.1892
  328MOL0     C45151  11.075  11.439   4.045 -1.1384 -0.0975  1.1942
  328MOL0     C45152  11.106  11.460   3.911  0.9032 -0.0227  0.0749
  328MOL0     C45153  11.012  11.412   3.810  0.6171  0.5982 -0.0718
  328MOL0     C45154  11.053  11.424   3.662  0.1524  0.0880  0.2012
  328MOL0     C45155  10.893  11.347   3.850  0.0063 -0.7064 -0.7629
  328MOL0     C45156  10.779  11.308   3.759 -0.5216 -0.2898  0.0479
  328MOL0     O45157  10.684  11.220   3.809 -0.6056  0.0399  0.4254
  328MOL0     C45158  10.621  11.128   3.727  0.5344 -0.4882 -0.9666
  328MOL0     C45159  10.501  11.092   3.778  0.6646  0.8230 -1.0139
  328MOL0     C45160  10.422  10.996   3.718  0.8059  0.1805 -0.3260
  328MOL0     C45161  10.468  10.929   3.610  0.2001  0.6561 -0.8934
  328MOL0     O45162  10.409  10.820   3.539 -0.0028 -1.0952 -0.2727
  328MOL0     C45163  10.272  10.786   3.569  0.4194  0.8597  0.5106
  328MOL0     C45164  10.232  10.672   3.460 -0.2608 -0.3414 -0.3796
  328MOL0     C45165  10.245  10.731   3.320 -0.2725 -0.8042  0.9085
  328MOL0     C45166  10.217  10.628   3.217  0.0038 -0.1651  0.2158
  328MOL0     C45167  10.264  10.694   3.086 -0.4296  0.1258  0.2995
  328MOL0     C45168  10.212  10.617   2.954 -0.0257 -0.1675  0.2437
  328MOL0     C45169  10.063  10.597   2.941 -0.3130 -1.0037 -0.1888
  328MOL0     C45170  10.013  10.455   2.912 -0.4158  0.8563  0.0161
  328MOL0    Cl45171   9.842  10.459   2.915 -0.3671  0.6978  0.1089
  328MOL0     C45172  10.593  10.955   3.557  1.2025  0.5639  0.7011
  328MOL0     C45173  10.674  11.056   3.621 -0.2333  0.0540  1.1208
  328MOL0     O45174  10.777  11.349   3.643 -0.8666 -0.1248  0.0487
  328MOL0     C45175  10.872  11.321   3.982 -0.5815 -0.3631 -0.6618
  328MOL0     C45176  10.970  11.360   4.076  0.3722  0.1023 -0.6609
  328MOL0     N45177  11.034  11.742   4.681 -0.6285  0.4108 -0.0129
  328MOL0     N45178  10.911  11.692   4.696 -0.8948 -0.8118  0.2969
  328MOL0     C45179  10.175  11.054   4.021  0.2638 -0.5061  0.7148
  328MOL0     C45180  10.049  11.025   3.966  0.3883  0.2693  0.2547
  328MOL0     C45181   9.772  10.772   3.693 -0.6051 -0.6928 -0.3858
  328MOL0     C45182   9.792  10.706   3.562  0.6479 -0.7592 -0.0334
  328MOL0     C45183   9.681  10.669   3.487 -0.4304  0.0125 -1.0644
  328MOL0     C45184   9.548  10.678   3.541 -0.9037  0.3048 -0.2081
  328MOL0     O45185   9.433  10.640   3.477 -0.4494  0.4565  0.4591
  328MOL0     C45186   9.437  10.565   3.349 -0.4527 -0.1630 -0.6275
  328MOL0     C45187   9.453  10.412   3.373  0.0796  0.4637  0.1768
  328MOL0     C45188   9.328  10.362   3.448 -0.5582  0.6784  0.4720
  328MOL0     C45189   9.308  10.210   3.439 -0.7814  1.0120  0.2750
  328MOL0     C45190   9.434  10.127   3.465  0.0945 -0.0766 -0.2145
  328MOL0     C45191   9.526  10.049   3.470  1.0454  1.6424  0.1568
  328MOL0     C45192   9.535  10.726   3.668  0.0893  0.7022 -0.5977
  328MOL0     C45193   9.642  10.773   3.741  0.8214  0.2414 -0.3818
  328MOL0     C45194   9.603  10.833   3.873  0.6726 -0.3944  0.2969
  328MOL0     H45195  10.078  10.682   3.989 -1.1745  0.6840  1.6888
  328MOL0     H45196  10.301  10.743   4.076  1.2394  1.6582  0.7340
  328MOL0     H45197  10.512  10.858   4.076  1.4594 -0.4509  0.4405
  328MOL0     H45198  10.446  10.845   4.232  1.5494  0.7922  2.4033
  328MOL0     H45199  10.690  10.913   4.234  2.7460  4.0598  0.7814
  328MOL0     H45200  10.663  11.035   4.110  1.8527 -0.3290 -0.8325
  328MOL0     H45201  10.566  11.183   4.267  0.6729  0.8380 -0.0660
  328MOL0     H45202  10.533  11.059   4.387  0.5727  0.2087 -0.0858
  328MOL0     H45203  10.758  11.028   4.447  2.1260  0.1760 -0.5636
  328MOL0     H45204  10.817  11.127   4.310  0.0736 -0.3187  0.5504
  328MOL0     H45205  10.646  11.220   4.536 -1.3173 -0.6164 -0.4353
  328MOL0     H45206  10.698  11.327   4.399  0.2990  1.1858  1.9560
  328MOL0     H45207  10.889  11.162   4.594  0.3815 -0.4170 -1.0135
  328MOL0     H45208  10.940  11.289   4.493 -0.0511  2.9046  1.5405
  328MOL0     H45209  10.930  11.353   4.734  0.1393 -1.3850  1.2522
  328MOL0     H45210  10.771  11.288   4.727  2.5550 -0.0141  1.8559
  328MOL0     H45211  10.730  11.494   4.542  1.1107  0.4102 -1.3472
  328MOL0     H45212  10.736  11.519   4.721 -1.3965 -2.7624 -0.2376
  328MOL0     H45213  11.026  11.489   4.461  0.2460 -1.1288 -0.0095
  328MOL0     H45214  11.298  11.637   4.616  0.4289  1.9553  1.3220
  328MOL0     H45215  11.275  11.783   4.519 -1.0146  1.1467 -0.0810
  328MOL0     H45216  11.387  11.640   4.366  0.2132  0.4677 -1.1441
  328MOL0     H45217  11.272  11.513   4.391  1.0535 -0.4891  2.3394
  328MOL0     H45218  11.094  11.687   4.296 -1.2478 -0.3507 -4.7911
  328MOL0     H45219  11.233  11.796   4.275  1.2566  0.0201  0.3234
  328MOL0     H45220  11.140  11.679   4.070 -2.1266 -0.1897  0.8557
  328MOL0     H45221  11.303  11.625   4.104  0.7081  1.1406  1.7730
  328MOL0     H45222  11.191  11.526   3.897 -0.0746  1.1014 -0.8390
  328MOL0     H45223  10.975  11.482   3.612 -0.4215 -2.9113 -2.7584
  328MOL0     H45224  11.062  11.324   3.617  0.2033  0.0829  0.2237
  328MOL0     H45225  11.151  11.470   3.646  1.6392 -2.8720  0.1937
  328MOL0     H45226  10.460  11.139   3.867 -0.2095 -2.6828  0.6387
  328MOL0     H45227  10.329  10.964   3.764  0.7269  0.0468 -0.5765
  328MOL0     H45228  10.270  10.748   3.671  0.9241  2.4356  1.1372
  328MOL0     H45229  10.207  10.873   3.555 -2.6050 -0.9889  2.1586
  328MOL0     H45230  10.306  10.592   3.470  1.9741  1.5621 -0.8467
  328MOL0     H45231  10.129  10.637   3.474 -0.5026  0.3297 -0.4154
  328MOL0     H45232  10.344  10.772   3.304 -2.2415  3.6391 -1.6578
  328MOL0     H45233  10.177  10.815   3.304  1.0714  0.7187  2.6860
  328MOL0     H45234  10.110  10.612   3.204 -0.5087  3.6495 -1.4461
  328MOL0     H45235  10.272  10.534   3.230  1.3821  0.5401 -0.3325
  328MOL0     H45236  10.223  10.794   3.068 -0.4393  0.1231  0.3114
  328MOL0     H45237  10.372  10.705   3.085 -0.1451 -2.0845  1.4833
  328MOL0     H45238  10.259  10.518   2.956 -2.2625 -1.3031  1.9287
  328MOL0     H45239  10.240  10.681   2.870 -2.9592  1.5073  0.3894
  328MOL0     H45240  10.041  10.644   2.844  1.4185 -3.0827 -1.6900
  328MOL0     H45241  10.006  10.642   3.023 -0.5901  0.4166 -1.1219
  328MOL0     H45242  10.057  10.384   2.983 -0.9268  1.8117  1.3193
  328MOL0     H45243  10.038  10.426   2.810 -0.2922 -3.1720  1.0432
  328MOL0     H45244  10.638  10.890   3.483 -1.4968  0.4801 -0.9919
  328MOL0     H45245  10.776  11.062   3.584 -0.3089  0.2239  0.9362
  328MOL0     H45246  10.777  11.282   4.018  0.0674 -1.7344 -0.3751
  328MOL0     H45247  10.951  11.332   4.179 -0.8164  0.3754 -0.7941
  328MOL0     H45248  10.203  11.159   4.021  1.5560 -0.7813 -1.9024
  328MOL0     H45249   9.969  11.089   3.929 -0.6064 -0.8922  0.3137
  328MOL0     H45250   9.891  10.708   3.518  2.2033  2.0686  3.1265
  328MOL0     H45251   9.706  10.651   3.383  0.2722 -1.5595 -0.6446
  328MOL0     H45252   9.346  10.589   3.293  1.3153  2.9689 -2.4563
  328MOL0     H45253   9.519  10.596   3.284 -0.7916  1.0207 -0.5169
  328MOL0     H45254   9.544  10.396   3.430  0.4263  2.8060  0.3670
  328MOL0     H45255   9.458  10.358   3.277 -0.7753 -1.2116  1.0299
  328MOL0     H45256   9.327  10.397   3.551  1.3140  1.1874  0.3551
  328MOL0     H45257   9.233  10.392   3.401 -0.9659  1.0739  1.5267
  328MOL0     H45258   9.263  10.178   3.344 -2.2128 -1.0210  1.5608
  328MOL0     H45259   9.236  10.187   3.518  0.4391 -1.2649  0.8080
  328MOL0     H45260   9.615   9.995   3.496 -0.7240 -0.0438  3.2252
  328MOL0     H45261   9.438  10.726   3.717  0.2987 -0.1452 -0.1542
  328MOL0     H45262   9.648  10.933   3.875  0.1529 -0.1382 -0.4448
  328MOL0     H45263   9.498  10.855   3.894  0.3710 -2.3710  1.0558
  328MOL0     H45264   9.627  10.778   3.964 -0.4705  1.2057  1.6363
  329MOL0     O45265   9.222   5.351   8.320  0.1694 -0.7466  0.2382
  329MOL0     C45266   9.336   5.329   8.283 -0.5329 -0.4735  0.1209
  329MOL0     O45267   9.393   5.208   8.257  0.2814 -0.8040  0.0092
  329MOL0     C45268   9.320   5.107   8.307  0.1141  0.6121  0.2223
  329MOL0     C45269   9.211   5.067   8.229  0.1202 -0.6569  0.1570
  329MOL0     C45270   9.109   4.990   8.274  0.5728 -0.5188 -0.4975
  329MOL0     C45271   9.110   4.937   8.409 -0.9530 -0.1368  0.9283
  329MOL0     O45272   9.017   4.850   8.471 -0.1769  0.1507  0.1462
  329MOL0     C45273   8.889   4.833   8.412  0.5094 -0.1990 -0.1868
  329MOL0     C45274   8.796   4.767   8.520 -0.6437  0.7740 -0.8194
  329MOL0     C45275   8.848   4.637   8.577 -0.4188  0.2241  0.9795
  329MOL0     C45276   8.742   4.570   8.662 -0.1799  0.7451  0.2216
  329MOL0     C45277   8.813   4.451   8.717  0.2492 -0.4021  1.1326
  329MOL0     C45278   8.712   4.384   8.804  0.5673  0.4878 -0.3147
  329MOL0     C45279   8.742   4.242   8.845 -0.0147  0.5857 -1.7778
  329MOL0     C45280   8.615   4.174   8.893  0.3239  0.4374  0.1146
  329MOL0     N45281   8.664   4.041   8.936  0.3799  0.0433 -0.3825
  329MOL0     C45282   8.672   3.935   8.846 -0.3435 -0.5650  0.0025
  329MOL0     C45283   8.723   3.827   8.917  0.5746 -0.4541  0.1499
  329MOL0     C45284   8.765   3.697   8.867 -0.3785 -0.0583 -0.2544
  329MOL0     C45285   8.784   3.588   8.972 -0.2698  0.6288  0.0730
  329MOL0     C45286   8.677   3.563   9.064  1.1017  0.0520  0.1760
  329MOL0     C45287   8.567   3.491   8.988 -0.1230  0.3556 -0.1020
  329MOL0     O45288   8.604   3.367   8.953 -0.1512  0.2787  0.0285
  329MOL0     C45289   8.517   3.294   8.875 -0.0282 -0.1857  0.2319
  329MOL0     C45290   8.584   3.216   8.782  0.3109  1.3090 -0.1990
  329MOL0     C45291   8.513   3.143   8.693 -0.0392 -0.1017 -0.5891
  329MOL0     C45292   8.599   3.061   8.605  0.1172 -0.4949 -0.3215
  329MOL0     C45293   8.374   3.145   8.685 -0.5654  0.1542 -0.2876
  329MOL0     C45294   8.289   3.061   8.604  0.2457  0.8634 -0.1878
  329MOL0     O45295   8.158   3.060   8.637 -0.4392  0.0141 -0.1183
  329MOL0     C45296   8.074   2.976   8.584  0.8703  1.2160  0.8102
  329MOL0     C45297   7.947   3.022   8.544  0.0541  0.1790 -0.2640
  329MOL0     C45298   7.852   2.926   8.495  0.5956  1.0435 -0.7763
  329MOL0     C45299   7.881   2.787   8.492  0.4247 -0.0681 -0.5655
  329MOL0     O45300   7.776   2.710   8.458 -0.4087 -0.4334  0.3736
  329MOL0     C45301   7.792   2.572   8.476 -0.6588 -0.4915  0.3310
  329MOL0     C45302   7.645   2.524   8.506 -1.1600  0.9071 -0.6792
  329MOL0     C45303   7.557   2.528   8.388  0.4740 -0.3944  1.0942
  329MOL0     C45304   7.410   2.477   8.418 -0.1761 -0.3864 -1.2404
  329MOL0     C45305   7.316   2.516   8.310  0.4981 -0.4824  0.5535
  329MOL0     C45306   7.171   2.499   8.347  0.3685 -0.2560 -0.6091
  329MOL0     C45307   7.139   2.352   8.384 -0.5106 -0.3368 -0.4261
  329MOL0     C45308   7.000   2.335   8.444  0.4139 -0.1784  0.1036
  329MOL0    Cl45309   6.974   2.164   8.452  0.0791  0.5915  0.2198
  329MOL0     C45310   8.008   2.747   8.541  0.1174  0.7148 -0.3962
  329MOL0     C45311   8.100   2.842   8.593 -0.3231  0.5866  0.4902
  329MOL0     O45312   8.334   2.983   8.517 -0.7358 -0.5097  0.5851
  329MOL0     C45313   8.308   3.235   8.774 -0.2804 -0.0252 -0.1871
  329MOL0     C45314   8.377   3.301   8.869  0.0496  0.0661 -0.1452
  329MOL0     N45315   8.740   3.877   9.044 -0.4330  0.5701 -0.6052
  329MOL0     N45316   8.705   4.000   9.056 -0.5559  0.3282 -0.6532
  329MOL0     C45317   9.222   4.974   8.482 -0.1033 -0.5373  0.0631
  329MOL0     C45318   9.330   5.058   8.436  0.0224 -0.2060 -0.6292
  329MOL0     C45319   9.400   5.448   8.230 -0.6108 -0.0734  0.0075
  329MOL0     C45320   9.397   5.486   8.101  0.0933 -0.0405  0.0360
  329MOL0     C45321   9.473   5.604   8.064  0.1798 -0.5109 -0.9116
  329MOL0     C45322   9.531   5.686   8.161 -0.5444  0.5616  0.2678
  329MOL0     O45323   9.582   5.811   8.123  0.2748  0.0476 -0.9925
  329MOL0     C45324   9.553   5.862   7.991 -0.1256 -0.5250  0.3706
  329MOL0     C45325   9.551   6.006   7.973 -0.1716  0.0352  0.2880
  329MOL0     C45326   9.692   6.050   8.017  0.2232  0.1990 -0.7302
  329MOL0     C45327   9.694   6.200   8.048 -0.4083  0.1553 -0.1874
  329MOL0     C45328   9.811   6.237   8.132  0.0761 -0.6711  0.5136
  329MOL0     C45329   9.906   6.264   8.197  1.1885 -0.3467 -0.2443
  329MOL0     C45330   9.538   5.641   8.294 -0.9438  1.3014  0.2670
  329MOL0     C45331   9.468   5.527   8.325  0.2041 -0.1812  0.3943
  329MOL0     C45332   9.446   5.499   8.465 -0.3414  0.6174  0.1968
  329MOL0     H45333   9.208   5.106   8.127 -0.1440  0.0849  0.4372
  329MOL0     H45334   9.023   4.957   8.218  0.0925  0.1575 -0.1802
  329MOL0     H45335   8.893   4.769   8.324  1.2284 -1.7655  0.9385
  329MOL0     H45336   8.838   4.924   8.379 -1.1046 -0.5615  1.1681
  329MOL0     H45337   8.781   4.831   8.607  1.1052  0.3375 -0.1514
  329MOL0     H45338   8.703   4.741   8.469 -1.6740 -3.7118  2.7047
  329MOL0     H45339   8.891   4.565   8.507 -1.2149 -1.3405  2.0180
  329MOL0     H45340   8.936   4.663   8.637 -0.4287 -1.8792  1.9967
  329MOL0     H45341   8.703   4.633   8.743  0.8324 -0.7000  1.9236
  329MOL0     H45342   8.651   4.536   8.613  0.7410 -2.1334  0.3126
  329MOL0     H45343   8.900   4.483   8.774 -0.0468 -0.4131  1.5921
  329MOL0     H45344   8.826   4.382   8.633 -1.7642 -1.1578  1.3719
  329MOL0     H45345   8.709   4.450   8.892  0.2857 -1.5394  1.2817
  329MOL0     H45346   8.612   4.376   8.761  1.2258 -3.4860 -1.5374
  329MOL0     H45347   8.815   4.244   8.926 -0.3701  4.2605 -1.3965
  329MOL0     H45348   8.778   4.177   8.764 -4.4994 -1.5929 -2.3422
  329MOL0     H45349   8.564   4.232   8.970  1.0967  0.4603  0.6238
  329MOL0     H45350   8.545   4.167   8.809  3.2783  0.2119 -2.4889
  329MOL0     H45351   8.657   3.946   8.739  1.9372 -0.1556 -0.3197
  329MOL0     H45352   8.851   3.724   8.804 -0.4895  2.6817  0.6406
  329MOL0     H45353   8.688   3.655   8.801  0.5383 -1.3016 -0.5884
  329MOL0     H45354   8.812   3.503   8.909  1.8102  2.4448 -1.6628
  329MOL0     H45355   8.871   3.618   9.031 -0.1550  1.7312 -0.6112
  329MOL0     H45356   8.699   3.500   9.151 -0.7331 -0.8281  0.0415
  329MOL0     H45357   8.640   3.658   9.103  1.3843 -0.1228  0.8897
  329MOL0     H45358   8.480   3.482   9.055 -0.8887  0.1956 -1.0878
  329MOL0     H45359   8.519   3.550   8.909 -0.4960  0.0831 -0.0823
  329MOL0     H45360   8.692   3.214   8.772  0.5430 -3.1358  1.0844
  329MOL0     H45361   8.578   3.085   8.500 -2.0827 -2.0665 -0.3057
  329MOL0     H45362   8.566   2.959   8.628 -0.4585  0.4443  3.6319
  329MOL0     H45363   8.708   3.071   8.611  0.4758 -0.9532 -3.7939
  329MOL0     H45364   7.927   3.128   8.532 -0.6413  0.3035  1.6855
  329MOL0     H45365   7.755   2.953   8.456  0.6492  3.3164  0.4919
  329MOL0     H45366   7.831   2.521   8.387 -0.5009  0.5332 -0.1992
  329MOL0     H45367   7.853   2.548   8.563 -1.3060 -2.1070  0.3732
  329MOL0     H45368   7.663   2.418   8.527 -0.4129  1.2977  0.7588
  329MOL0     H45369   7.602   2.565   8.597 -2.4172 -3.0885  0.7603
  329MOL0     H45370   7.596   2.468   8.305 -2.3505 -1.8649  0.7197
  329MOL0     H45371   7.565   2.630   8.349  3.7164 -0.8119  0.3696
  329MOL0     H45372   7.368   2.529   8.505 -0.7261  0.9313 -2.2657
  329MOL0     H45373   7.415   2.369   8.437  1.6452 -0.1434 -0.0315
  329MOL0     H45374   7.338   2.619   8.283  1.4901 -0.5595  1.0264
  329MOL0     H45375   7.341   2.444   8.231 -1.7908  0.0266 -0.7129
  329MOL0     H45376   7.098   2.540   8.276 -0.4526  0.9060  0.8376
  329MOL0     H45377   7.167   2.559   8.438  1.8002 -3.7754  1.9580
  329MOL0     H45378   7.199   2.323   8.471 -0.1855  0.8673 -0.2250
  329MOL0     H45379   7.149   2.291   8.294  0.7421  1.1885 -1.3911
  329MOL0     H45380   6.916   2.365   8.380 -1.3375 -2.0040  1.3924
  329MOL0     H45381   6.990   2.384   8.541  3.4422 -1.5069  1.1822
  329MOL0     H45382   8.031   2.641   8.556 -1.3324  0.4116 -0.2151
  329MOL0     H45383   8.192   2.802   8.635 -0.4859 -0.4348 -0.1049
  329MOL0     H45384   8.201   3.249   8.786 -0.7166 -3.1567  0.4254
  329MOL0     H45385   8.311   3.362   8.931  1.8781 -1.7211  3.9285
  329MOL0     H45386   9.234   4.916   8.573  0.9288 -0.6061 -0.1053
  329MOL0     H45387   9.418   5.072   8.497 -0.7041 -1.2988  0.7375
  329MOL0     H45388   9.338   5.428   8.031 -1.0468 -0.2811  1.1479
  329MOL0     H45389   9.487   5.620   7.957 -0.8192 -1.6236 -1.2293
  329MOL0     H45390   9.628   5.820   7.923 -0.3680  1.0463 -0.9070
  329MOL0     H45391   9.451   5.836   7.963 -0.2972  1.7881 -1.4909
  329MOL0     H45392   9.472   6.054   8.032  0.9980  0.5120  1.5262
  329MOL0     H45393   9.516   6.019   7.871  0.1849 -1.5031 -0.0563
  329MOL0     H45394   9.731   5.993   8.102 -3.8499 -0.9505  0.6323
  329MOL0     H45395   9.764   6.035   7.936  1.0506 -0.4059  0.0944
  329MOL0     H45396   9.613   6.220   8.119  0.1332 -0.8037  0.7200
  329MOL0     H45397   9.677   6.265   7.961  2.0024 -0.2024 -0.9823
  329MOL0     H45398   9.967   6.304   8.275 -0.3674  1.6852  0.0361
  329MOL0     H45399   9.586   5.703   8.369  0.5336  1.1950 -0.5424
  329MOL0     H45400   9.498   5.403   8.469 -0.0795  0.6953 -1.1052
  329MOL0     H45401   9.492   5.574   8.530  2.5858  0.5684 -1.6682
  329MOL0     H45402   9.341   5.487   8.497 -0.2906  0.8852  0.4722
  330MOL0     O45403   3.351   9.600   9.258  0.4764 -0.1843 -0.4746
  330MOL0     C45404   3.369   9.647   9.147 -0.4002 -0.2343 -0.0481
  330MOL0     O45405   3.451   9.757   9.129  0.0747 -1.0458 -0.4835
  330MOL0     C45406   3.452   9.851   9.241  0.3229  1.5481 -0.0647
  330MOL0     C45407   3.334   9.880   9.315 -0.2181  0.4321  0.5703
  330MOL0     C45408   3.342   9.977   9.419  0.9447  0.2260  0.1110
  330MOL0     C45409   3.458  10.043   9.448 -1.0710 -0.6043  0.2371
  330MOL0     O45410   3.458  10.150   9.529  0.6309 -0.6815  0.3354
  330MOL0     C45411   3.504  10.280   9.472 -0.2183  0.5584  0.0181
  330MOL0     C45412   3.434  10.404   9.539  0.5462 -0.3065 -0.2840
  330MOL0     C45413   3.483  10.425   9.674  0.7022  0.1608 -0.5371
  330MOL0     C45414   3.420  10.567   9.712 -0.5876  0.3206 -1.0770
  330MOL0     C45415   3.486  10.594   9.849 -0.3384  0.0958 -0.4352
  330MOL0     C45416   3.452  10.736   9.882  0.7670  0.3050  1.1333
  330MOL0     C45417   3.466  10.799  10.027 -0.6276  0.1259  0.8895
  330MOL0     C45418   3.605  10.769  10.097  0.6879  0.0419 -0.4152
  330MOL0     N45419   3.607  10.844  10.221  0.5077 -0.0177  0.8779
  330MOL0     C45420   3.702  10.938  10.237  0.8998  0.0057 -0.2352
  330MOL0     C45421   3.656  11.012  10.336 -0.5595 -0.3228  0.4183
  330MOL0     C45422   3.716  11.149  10.391  0.8484  0.4038 -0.5939
  330MOL0     C45423   3.749  11.248  10.277 -1.3841 -0.6214 -0.8650
  330MOL0     C45424   3.869  11.341  10.329 -0.1990 -0.1043 -0.6122
  330MOL0     C45425   3.915  11.438  10.215 -0.1209 -0.3136 -0.7028
  330MOL0     O45426   3.956  11.364  10.102  0.3710  0.3533 -0.2384
  330MOL0     C45427   4.079  11.376  10.048  0.0501 -0.2188  0.4118
  330MOL0     C45428   4.149  11.496  10.053 -0.2872  0.0469 -0.1907
  330MOL0     C45429   4.274  11.514   9.988  0.0353 -0.4067  0.6029
  330MOL0     C45430   4.326  11.652   9.981  0.0072 -0.7883  1.2699
  330MOL0     C45431   4.338  11.405   9.919 -0.0515 -0.0350 -0.2847
  330MOL0     C45432   4.473  11.412   9.847  1.3219  0.0488 -0.6295
  330MOL0     O45433   4.494  11.304   9.765 -0.2188  0.1293  0.4397
  330MOL0     C45434   4.626  11.266   9.723  0.4468 -0.0623  0.2801
  330MOL0     C45435   4.654  11.267   9.588  0.0339  0.6450 -0.0194
  330MOL0     C45436   4.779  11.240   9.540  0.8616  0.6167 -0.1824
  330MOL0     C45437   4.895  11.228   9.624  0.3021  0.6291 -0.5297
  330MOL0     O45438   5.025  11.196   9.582 -0.5732  0.2804  0.0165
  330MOL0     C45439   5.045  11.218   9.437  0.3022  0.0693  0.4405
  330MOL0     C45440   5.040  11.088   9.362 -0.3260 -0.1412  0.4099
  330MOL0     C45441   5.026  11.118   9.215 -0.5509 -0.3437  0.0139
  330MOL0     C45442   5.050  10.992   9.126  0.4551 -0.3872  0.6381
  330MOL0     C45443   4.997  11.014   8.987 -0.3196 -0.0791  0.7104
  330MOL0     C45444   4.837  11.029   8.963  0.6218 -0.9170  0.8273
  330MOL0     C45445   4.781  11.164   8.920  0.3599 -0.2398 -0.3041
  330MOL0     C45446   4.628  11.183   8.969 -0.6879  0.1943  0.6677
  330MOL0    Cl45447   4.604  11.224   9.144 -0.1534  0.3313 -0.5476
  330MOL0     C45448   4.863  11.224   9.762 -0.2696  0.2298  0.7886
  330MOL0     C45449   4.733  11.248   9.809  0.1937  0.6424  0.4423
  330MOL0     O45450   4.551  11.499   9.876 -0.6727  0.0844 -0.6118
  330MOL0     C45451   4.268  11.280   9.934  0.4157  1.3403 -0.6213
  330MOL0     C45452   4.140  11.266   9.992 -0.2637 -0.3754 -0.0560
  330MOL0     N45453   3.539  10.944  10.391 -0.1256 -0.0830  0.5742
  330MOL0     N45454   3.510  10.839  10.316 -0.7067  0.7423 -0.5195
  330MOL0     C45455   3.573  10.013   9.374  0.1875 -0.3102  0.3639
  330MOL0     C45456   3.571   9.918   9.275 -0.3152  0.3238 -0.0119
  330MOL0     C45457   3.340   9.565   9.032 -0.1845  0.4390  0.4307
  330MOL0     C45458   3.346   9.623   8.905 -0.2051  0.6702  1.4850
  330MOL0     C45459   3.304   9.547   8.793 -0.7674  0.4492 -0.7721
  330MOL0     C45460   3.272   9.408   8.800  0.3627  0.4800 -0.2698
  330MOL0     O45461   3.230   9.333   8.688 -0.0360 -0.1571 -0.3887
  330MOL0     C45462   3.171   9.206   8.709 -0.1229  0.8330 -0.4816
  330MOL0     C45463   3.146   9.155   8.565 -0.0958 -0.7851  0.2857
  330MOL0     C45464   3.089   9.015   8.553 -0.9082 -0.2869  0.0973
  330MOL0     C45465   3.065   8.970   8.408  0.6194  0.7681 -0.9751
  330MOL0     C45466   3.032   8.830   8.396 -0.9612 -0.4073 -0.1700
  330MOL0     C45467   2.998   8.712   8.381 -1.0985 -1.0875 -0.6480
  330MOL0     C45468   3.291   9.344   8.926 -1.0674 -0.4495 -0.1532
  330MOL0     C45469   3.308   9.426   9.041 -0.0551  0.1841  0.2527
  330MOL0     C45470   3.293   9.354   9.173 -0.9704 -0.2294 -0.9458
  330MOL0     H45471   3.243   9.822   9.314  0.3539 -0.6138 -2.4580
  330MOL0     H45472   3.255   9.992   9.481  0.3621  1.4325 -0.9662
  330MOL0     H45473   3.480  10.269   9.366  1.6105 -2.6988 -0.1773
  330MOL0     H45474   3.613  10.286   9.468 -0.2046 -0.3467 -3.3875
  330MOL0     H45475   3.460  10.490   9.476 -0.5471 -0.7694 -1.4116
  330MOL0     H45476   3.326  10.386   9.544  0.5452 -0.2008  4.5645
  330MOL0     H45477   3.448  10.345   9.739 -1.0188  1.7270  0.5781
  330MOL0     H45478   3.592  10.423   9.676  0.6982 -0.2891 -0.7547
  330MOL0     H45479   3.458  10.642   9.641  2.4684  0.0707  0.1555
  330MOL0     H45480   3.312  10.555   9.711 -0.5290 -0.3626 -2.4822
  330MOL0     H45481   3.594  10.576   9.855 -0.6359 -1.4131  2.3635
  330MOL0     H45482   3.442  10.520   9.917  0.1429  2.9233  3.3091
  330MOL0     H45483   3.513  10.804   9.822 -0.4665  1.4347  1.1069
  330MOL0     H45484   3.345  10.742   9.862  0.3092  0.1373  3.3160
  330MOL0     H45485   3.389  10.753  10.090  1.1725 -2.5130  1.3509
  330MOL0     H45486   3.441  10.905  10.028  0.3789  0.4204 -1.2784
  330MOL0     H45487   3.625  10.662  10.109  1.0707  0.1784  0.2292
  330MOL0     H45488   3.675  10.804  10.021 -1.2651  0.7142 -1.9759
  330MOL0     H45489   3.778  10.963  10.163 -0.3585  0.5952 -1.3766
  330MOL0     H45490   3.806  11.125  10.449 -0.5591 -1.5441  0.9282
  330MOL0     H45491   3.645  11.199  10.458  0.6080  3.5393 -2.9386
  330MOL0     H45492   3.803  11.203  10.193  3.3158 -0.6743  1.8030
  330MOL0     H45493   3.657  11.293  10.240 -1.0320  0.4508 -0.4890
  330MOL0     H45494   3.832  11.404  10.410 -0.8298 -0.2611 -0.7717
  330MOL0     H45495   3.952  11.285  10.374 -1.1375  0.9496  2.7230
  330MOL0     H45496   3.840  11.509  10.179  0.1510 -0.8171 -2.3079
  330MOL0     H45497   3.983  11.502  10.272 -1.6026  1.2430 -0.5967
  330MOL0     H45498   4.106  11.575  10.114  1.0074 -0.8197  1.9556
  330MOL0     H45499   4.246  11.726   9.979  0.8256  0.1487  2.2376
  330MOL0     H45500   4.387  11.670   9.892  3.8113 -1.6700  3.4792
  330MOL0     H45501   4.394  11.669  10.065  2.9126 -3.3033 -0.3466
  330MOL0     H45502   4.570  11.280   9.521 -0.4354 -2.3163 -0.1299
  330MOL0     H45503   4.773  11.230   9.432  0.5349 -5.5639  0.0622
  330MOL0     H45504   4.973  11.288   9.394  1.7766  1.2826 -0.1463
  330MOL0     H45505   5.137  11.278   9.431  1.0169 -0.6313  2.8995
  330MOL0     H45506   5.130  11.029   9.377  0.5481  1.0961  0.2590
  330MOL0     H45507   4.945  11.038   9.381 -0.6747  0.2507 -0.2535
  330MOL0     H45508   5.093  11.196   9.177 -4.0834  3.0745  0.1657
  330MOL0     H45509   4.927  11.161   9.198 -0.3218  0.6860  1.1778
  330MOL0     H45510   5.007  10.900   9.168 -0.8409  0.8013  2.0429
  330MOL0     H45511   5.158  10.975   9.118  0.0475 -2.4843 -2.3468
  330MOL0     H45512   5.048  11.106   8.955  2.2701 -2.4740 -2.7000
  330MOL0     H45513   5.047  10.934   8.932 -0.2689 -0.5023  1.3654
  330MOL0     H45514   4.791  10.996   9.057  2.9580 -3.4531  1.2028
  330MOL0     H45515   4.798  10.955   8.893 -3.6873  3.0367 -1.5385
  330MOL0     H45516   4.769  11.165   8.811 -1.2950 -1.5810 -0.1757
  330MOL0     H45517   4.839  11.243   8.968  0.0810 -1.2928  1.8858
  330MOL0     H45518   4.562  11.100   8.942  1.9146 -1.0738 -2.4217
  330MOL0     H45519   4.579  11.255   8.903  0.1336 -4.3513 -5.8221
  330MOL0     H45520   4.943  11.211   9.835  0.2727 -0.5233  0.0722
  330MOL0     H45521   4.737  11.248   9.918  2.0062  2.9016  0.4477
  330MOL0     H45522   4.319  11.197   9.887  1.0352  1.5556 -0.3359
  330MOL0     H45523   4.100  11.165   9.994  2.6558 -1.6168  0.4291
  330MOL0     H45524   3.664  10.068   9.393  1.0740 -0.3372 -3.0559
  330MOL0     H45525   3.663   9.896   9.220 -0.0027  0.8056  0.3074
  330MOL0     H45526   3.377   9.727   8.898  0.1646  0.4904 -0.0766
  330MOL0     H45527   3.299   9.586   8.692  0.4549 -3.4764 -2.5696
  330MOL0     H45528   3.239   9.134   8.755 -0.5654 -0.5585 -1.8952
  330MOL0     H45529   3.076   9.211   8.763 -0.5275  1.7469 -1.2611
  330MOL0     H45530   3.244   9.154   8.516 -0.3826 -2.5997 -0.3480
  330MOL0     H45531   3.081   9.224   8.510  1.1884  1.6979  1.7114
  330MOL0     H45532   3.149   8.939   8.603 -0.4214  1.3247  2.1029
  330MOL0     H45533   2.999   9.025   8.614  0.5601  1.5758  2.1292
  330MOL0     H45534   3.158   8.983   8.350  2.4298 -0.5391  1.4593
  330MOL0     H45535   2.979   9.024   8.367 -0.3818  0.6754  0.9193
  330MOL0     H45536   2.980   8.606   8.372 -2.1358 -0.9612 -0.2121
  330MOL0     H45537   3.262   9.241   8.940 -4.3840  0.1781 -1.4627
  330MOL0     H45538   3.218   9.404   9.235 -1.4017 -1.7806 -0.1472
  330MOL0     H45539   3.254   9.252   9.162 -0.6031 -0.2168 -2.6369
  330MOL0     H45540   3.387   9.352   9.228 -0.6746  0.7528 -1.3961
  331MOL0     O45541   3.086   2.556   7.167 -0.5997  1.0295  0.3589
  331MOL0     C45542   3.153   2.578   7.062 -0.0994  0.1851  0.0093
  331MOL0     O45543   3.192   2.708   7.025 -0.4263 -0.1417  0.0849
  331MOL0     C45544   3.209   2.797   7.126 -0.2813 -0.7966  0.3634
  331MOL0     C45545   3.096   2.853   7.189  0.5636  0.4546  1.1204
  331MOL0     C45546   3.108   2.924   7.306 -0.3906 -0.4064  0.0764
  331MOL0     C45547   3.233   2.960   7.358 -0.5750 -0.0420 -0.0148
  331MOL0     O45548   3.237   3.039   7.474  0.2471  0.3608  0.5156
  331MOL0     C45549   3.353   3.104   7.512 -1.4216  1.1953  0.4402
  331MOL0     C45550   3.333   3.181   7.644  1.2505  0.1536  0.3639
  331MOL0     C45551   3.273   3.324   7.608 -0.4580  1.1200 -0.4108
  331MOL0     C45552   3.208   3.384   7.734  0.0958 -0.5497  0.7736
  331MOL0     C45553   3.058   3.372   7.733  1.0943 -0.8690 -0.5982
  331MOL0     C45554   3.008   3.230   7.743  0.4895  0.0659 -0.1790
  331MOL0     C45555   2.860   3.223   7.747 -0.3462  0.4788  0.1151
  331MOL0     C45556   2.817   3.223   7.892  0.3146 -0.1559 -0.7416
  331MOL0     N45557   2.675   3.183   7.904  0.0560 -0.4063  0.5302
  331MOL0     C45558   2.626   3.068   7.955 -0.6217 -0.1378 -0.6444
  331MOL0     C45559   2.493   3.097   7.974  0.1446 -0.1063 -0.0451
  331MOL0     C45560   2.415   2.995   8.030  0.2748  0.1503  0.0187
  331MOL0     C45561   2.379   3.033   8.175  0.2244  0.1510  0.3462
  331MOL0     C45562   2.305   2.923   8.254  0.7437 -0.3454  0.0804
  331MOL0     C45563   2.226   2.978   8.379 -0.1395  0.2926 -0.0018
  331MOL0     O45564   2.318   3.039   8.469 -0.0580 -0.4682 -0.2891
  331MOL0     C45565   2.255   3.098   8.577  1.2099  0.1854  1.0495
  331MOL0     C45566   2.131   3.062   8.635  0.6043  0.9041 -0.8294
  331MOL0     C45567   2.085   3.114   8.757 -0.2081  0.7452  0.4247
  331MOL0     C45568   1.950   3.071   8.825 -1.2705 -0.6876 -0.1728
  331MOL0     C45569   2.174   3.202   8.824  0.3601 -0.3503  0.4135
  331MOL0     C45570   2.140   3.255   8.959 -0.5677 -0.7187  0.0686
  331MOL0     O45571   2.247   3.284   9.038 -0.3055 -0.6475  0.3702
  331MOL0     C45572   2.247   3.281   9.180  0.4146 -0.0682 -0.7627
  331MOL0     C45573   2.381   3.294   9.234  0.4026  0.3520  0.0922
  331MOL0     C45574   2.404   3.327   9.373  0.3624  0.2504  0.5996
  331MOL0     C45575   2.292   3.338   9.459 -0.2131 -0.4531 -0.0727
  331MOL0     O45576   2.329   3.378   9.589  0.5671  0.1186 -0.3215
  331MOL0     C45577   2.228   3.447   9.672 -0.6501 -1.4650  0.6609
  331MOL0     C45578   2.257   3.602   9.672  0.5103 -0.1186  0.8971
  331MOL0     C45579   2.152   3.680   9.773 -0.2208  0.5959  0.9356
  331MOL0     C45580   2.195   3.827   9.801  0.4710 -0.1501 -0.0328
  331MOL0     C45581   2.200   3.926   9.681 -0.2826 -0.3727  0.0626
  331MOL0     C45582   2.225   4.068   9.728 -0.0108 -0.5474 -0.3242
  331MOL0     C45583   2.230   4.166   9.611  0.6464 -0.6277 -0.0799
  331MOL0     C45584   2.216   4.317   9.650 -0.3187  0.5947 -0.9448
  331MOL0    Cl45585   2.238   4.426   9.511  0.1772  0.2114 -0.2737
  331MOL0     C45586   2.162   3.308   9.407 -0.1084 -0.2029  1.1014
  331MOL0     C45587   2.139   3.277   9.269 -0.1003  0.0844 -0.3164
  331MOL0     O45588   2.024   3.272   8.990 -0.8468  0.5618  0.7539
  331MOL0     C45589   2.296   3.240   8.753 -0.1430  1.1807  0.0841
  331MOL0     C45590   2.327   3.188   8.629 -0.0086 -0.0115 -0.4185
  331MOL0     N45591   2.467   3.225   7.932 -0.3492  0.7875 -0.4206
  331MOL0     N45592   2.576   3.279   7.889  0.7280  0.9732 -0.0392
  331MOL0     C45593   3.349   2.910   7.298  0.6262 -0.2712  0.3578
  331MOL0     C45594   3.331   2.835   7.184  0.3660  0.1039 -0.6165
  331MOL0     C45595   3.174   2.466   6.963 -0.4430  0.4864  0.4568
  331MOL0     C45596   3.229   2.502   6.841 -0.4989 -1.0057 -0.3181
  331MOL0     C45597   3.249   2.409   6.735  0.1331 -0.5355  1.2004
  331MOL0     C45598   3.214   2.276   6.745 -0.0725  0.3494 -0.5883
  331MOL0     O45599   3.205   2.186   6.646  0.6702  0.2372  0.1383
  331MOL0     C45600   3.219   2.236   6.511 -0.7336 -0.1491 -0.3445
  331MOL0     C45601   3.110   2.330   6.468  0.0137 -0.5300  0.8913
  331MOL0     C45602   3.121   2.350   6.314 -0.0594 -1.0087  0.3125
  331MOL0     C45603   3.033   2.454   6.242 -0.8774 -0.2733 -0.1975
  331MOL0     C45604   2.884   2.413   6.253 -0.3454 -0.1374  0.2617
  331MOL0     C45605   2.764   2.403   6.258 -0.7520  0.1458  0.4612
  331MOL0     C45606   3.160   2.239   6.870 -1.3843  0.1153  0.5063
  331MOL0     C45607   3.130   2.330   6.973  1.0042  0.0488  0.3349
  331MOL0     C45608   3.076   2.274   7.100 -0.6468 -0.3990  0.0602
  331MOL0     H45609   2.996   2.832   7.152  1.0207 -3.7016  1.7560
  331MOL0     H45610   3.018   2.958   7.357 -0.5662 -1.8463  0.7898
  331MOL0     H45611   3.399   3.161   7.431  0.5866 -2.0453 -0.9013
  331MOL0     H45612   3.426   3.026   7.536  0.9042  2.4747 -1.9611
  331MOL0     H45613   3.267   3.120   7.706  0.5577 -0.7981 -1.2433
  331MOL0     H45614   3.437   3.191   7.677  1.0439  0.0080  1.0765
  331MOL0     H45615   3.356   3.383   7.569  3.5143 -2.7786  1.2254
  331MOL0     H45616   3.202   3.316   7.525 -1.1349 -1.6589  0.3123
  331MOL0     H45617   3.244   3.328   7.821  2.7386 -2.9587 -1.6704
  331MOL0     H45618   3.242   3.488   7.746  2.1146 -1.0318 -0.2504
  331MOL0     H45619   3.011   3.416   7.644  1.2725  1.1087  0.2276
  331MOL0     H45620   3.026   3.430   7.820  2.6942 -4.3581  2.6125
  331MOL0     H45621   3.040   3.172   7.656 -4.6510  1.2775 -3.3239
  331MOL0     H45622   3.047   3.175   7.829 -0.6451  2.6606  2.1901
  331MOL0     H45623   2.827   3.137   7.687  0.7244  1.6154 -2.2364
  331MOL0     H45624   2.816   3.299   7.683  1.2830 -0.5050 -2.3393
  331MOL0     H45625   2.865   3.144   7.951 -1.3124 -1.6294 -1.2887
  331MOL0     H45626   2.822   3.323   7.934  1.2435 -1.2499  1.9446
  331MOL0     H45627   2.670   2.971   7.978 -2.0793 -1.2228 -2.1264
  331MOL0     H45628   2.465   2.900   8.052 -3.3000 -1.6021  1.5226
  331MOL0     H45629   2.319   2.985   7.979  1.7786 -0.1261 -2.9644
  331MOL0     H45630   2.468   3.055   8.235 -0.4269 -0.5997  1.6370
  331MOL0     H45631   2.313   3.120   8.169  1.1776  0.8243 -0.7438
  331MOL0     H45632   2.248   2.870   8.178  0.7137  0.0558 -0.1846
  331MOL0     H45633   2.383   2.855   8.289  1.7958  0.6407 -0.2750
  331MOL0     H45634   2.151   3.057   8.367  0.5454  0.6930 -1.9206
  331MOL0     H45635   2.184   2.891   8.431  3.5565 -0.5948  1.8348
  331MOL0     H45636   2.076   2.981   8.589  1.7379 -0.7396  0.6164
  331MOL0     H45637   1.901   3.009   8.750  0.8024  0.1038 -2.3146
  331MOL0     H45638   1.881   3.153   8.848 -0.0268  0.4667 -0.3979
  331MOL0     H45639   1.983   3.019   8.915 -1.6969 -0.0270  0.3729
  331MOL0     H45640   2.459   3.264   9.165  0.2934  3.3246 -1.4781
  331MOL0     H45641   2.509   3.344   9.394  0.2864 -0.4558  1.6133
  331MOL0     H45642   2.129   3.429   9.630 -0.8902 -0.0334  0.5652
  331MOL0     H45643   2.231   3.423   9.779  0.6690  1.9063  1.4998
  331MOL0     H45644   2.361   3.625   9.700  0.7044 -1.4645  1.3842
  331MOL0     H45645   2.252   3.651   9.574 -0.5968  1.7498  1.8376
  331MOL0     H45646   2.134   3.621   9.864 -3.1099  0.1102  0.1614
  331MOL0     H45647   2.052   3.689   9.728  0.7837  0.7465 -1.3999
  331MOL0     H45648   2.289   3.826   9.858 -0.4104 -0.3904  1.4859
  331MOL0     H45649   2.122   3.850   9.879  0.0775 -2.4851  0.3851
  331MOL0     H45650   2.282   3.903   9.612  0.8587 -0.3625  1.3625
  331MOL0     H45651   2.108   3.927   9.623  0.7915  0.5219 -1.7132
  331MOL0     H45652   2.323   4.083   9.775 -1.3425  2.2274  1.8728
  331MOL0     H45653   2.153   4.097   9.805 -0.2517 -2.6774  0.3156
  331MOL0     H45654   2.147   4.133   9.547  1.4160 -0.4414 -1.2043
  331MOL0     H45655   2.322   4.140   9.557  0.0115 -4.9224  0.5070
  331MOL0     H45656   2.283   4.342   9.733  2.0969 -0.0479 -2.5697
  331MOL0     H45657   2.113   4.315   9.685 -0.6214 -3.3982 -1.5742
  331MOL0     H45658   2.072   3.307   9.468 -1.1117  0.0278 -0.3123
  331MOL0     H45659   2.037   3.261   9.234  0.2660 -1.8096 -0.6353
  331MOL0     H45660   2.351   3.321   8.800 -1.2287  1.7594  0.3854
  331MOL0     H45661   2.424   3.206   8.583 -0.1393 -3.0496 -2.1703
  331MOL0     H45662   3.453   2.938   7.316  0.6546  0.8135 -1.2598
  331MOL0     H45663   3.413   2.778   7.142  0.0144 -0.2951 -0.7698
  331MOL0     H45664   3.271   2.601   6.829  0.4288 -1.3483  0.0263
  331MOL0     H45665   3.305   2.444   6.649 -0.2945  0.3897  1.2917
  331MOL0     H45666   3.314   2.289   6.508 -2.5363  3.3988 -0.4317
  331MOL0     H45667   3.226   2.153   6.441  0.6369  0.5193 -1.0424
  331MOL0     H45668   3.124   2.430   6.509  3.0265 -0.0818 -0.9123
  331MOL0     H45669   3.009   2.294   6.487 -1.1775  0.5587 -2.4887
  331MOL0     H45670   3.215   2.402   6.294 -0.7142 -0.8521 -2.8640
  331MOL0     H45671   3.106   2.262   6.251  1.4516 -0.9999 -0.1118
  331MOL0     H45672   3.053   2.460   6.135 -0.3705  1.0808 -0.0452
  331MOL0     H45673   3.057   2.554   6.280 -0.8832 -0.9139  1.5715
  331MOL0     H45674   2.657   2.399   6.259 -0.8286  1.1304 -1.3682
  331MOL0     H45675   3.132   2.134   6.870 -0.9617 -0.0007  0.7172
  331MOL0     H45676   3.058   2.167   7.087 -0.6839 -0.2275 -1.4311
  331MOL0     H45677   3.142   2.279   7.187  2.4044 -0.5645 -2.0685
  331MOL0     H45678   2.984   2.326   7.127  0.2332  1.8371 -1.0535
  332MOL0     O45679  10.672   4.510   8.045  0.4168  0.1440  0.4852
  332MOL0     C45680  10.596   4.586   7.980  0.0745 -0.0240  0.1924
  332MOL0     O45681  10.459   4.568   7.991 -0.2812 -0.7729  0.8151
  332MOL0     C45682  10.405   4.510   8.105 -0.4159 -0.7861 -1.0110
  332MOL0     C45683  10.358   4.388   8.096 -0.2589 -0.0262 -0.3788
  332MOL0     C45684  10.291   4.327   8.212  0.2056  1.4732 -0.3827
  332MOL0     C45685  10.280   4.404   8.331 -0.5185  0.7182  0.1024
  332MOL0     O45686  10.214   4.352   8.431  0.0699  0.1160 -0.6408
  332MOL0     C45687  10.071   4.393   8.442  0.1340  0.4154 -0.7063
  332MOL0     C45688   9.978   4.283   8.466 -0.7077 -0.0151 -0.0432
  332MOL0     C45689   9.974   4.193   8.343  0.5763  1.1495  0.3888
  332MOL0     C45690   9.863   4.088   8.338  1.2939 -0.2031 -0.1529
  332MOL0     C45691   9.893   3.966   8.254 -0.2057 -0.4998 -0.2009
  332MOL0     C45692   9.935   3.989   8.112 -0.3820  0.9139 -0.2149
  332MOL0     C45693   9.843   4.052   8.017 -0.6754 -0.3197  0.9684
  332MOL0     C45694   9.714   3.973   8.001  0.3874 -0.0306 -0.1038
  332MOL0     N45695   9.619   4.057   7.905  0.5478  0.8252  0.0005
  332MOL0     C45696   9.621   4.053   7.768  0.0522  0.2539 -0.1142
  332MOL0     C45697   9.525   4.143   7.739  0.4095  0.3474 -0.8345
  332MOL0     C45698   9.489   4.182   7.605 -0.6395 -0.0495  0.9133
  332MOL0     C45699   9.551   4.309   7.547 -0.1566 -0.8631  0.3330
  332MOL0     C45700   9.505   4.430   7.629 -0.2050  0.2274  0.2033
  332MOL0     C45701   9.488   4.555   7.546  1.1765  0.5274 -0.4659
  332MOL0     O45702   9.365   4.544   7.467 -0.7258  0.5861 -1.1009
  332MOL0     C45703   9.304   4.654   7.431  0.2211  0.0819  0.1881
  332MOL0     C45704   9.375   4.757   7.378  0.1767 -0.1076  0.6445
  332MOL0     C45705   9.310   4.866   7.312  2.0079  0.7921 -0.2194
  332MOL0     C45706   9.402   4.981   7.267 -0.1702 -0.3454  0.0977
  332MOL0     C45707   9.160   4.868   7.318 -2.0445  0.2981 -0.1598
  332MOL0     C45708   9.093   4.991   7.275  0.6487 -0.2795 -0.3616
  332MOL0     O45709   8.953   4.967   7.271 -0.1048 -0.0772  0.9085
  332MOL0     C45710   8.863   5.072   7.250 -0.5434  0.6455  0.2413
  332MOL0     C45711   8.726   5.039   7.246 -0.0544 -0.3574 -0.2678
  332MOL0     C45712   8.630   5.130   7.204  1.3953  0.0834  0.7273
  332MOL0     C45713   8.657   5.264   7.164  0.6021  0.3683  0.4863
  332MOL0     O45714   8.562   5.352   7.120  0.7500 -0.1270  0.2622
  332MOL0     C45715   8.424   5.310   7.091  0.3151  0.1628  0.0433
  332MOL0     C45716   8.360   5.401   6.975  0.0736  0.3254 -0.4095
  332MOL0     C45717   8.320   5.537   7.039 -0.2205 -0.3088 -0.0584
  332MOL0     C45718   8.235   5.626   6.952  1.0519 -0.5724  0.5556
  332MOL0     C45719   8.286   5.647   6.816 -0.0335 -0.3551  0.1899
  332MOL0     C45720   8.191   5.722   6.722 -0.6169  0.0378 -0.5739
  332MOL0     C45721   8.243   5.864   6.671 -0.0329  0.5666  0.6981
  332MOL0     C45722   8.130   5.924   6.590  0.4334  0.0500 -0.8089
  332MOL0    Cl45723   7.989   5.976   6.682 -0.0250  0.2017  0.6409
  332MOL0     C45724   8.793   5.307   7.181  0.7053 -0.0992 -0.3057
  332MOL0     C45725   8.893   5.213   7.224  0.1867 -0.4394  0.1718
  332MOL0     O45726   9.150   5.098   7.273 -0.1477  0.1712  0.0497
  332MOL0     C45727   9.093   4.763   7.381  0.7088  0.0684 -0.0869
  332MOL0     C45728   9.159   4.655   7.437 -0.1679 -0.6060 -0.4560
  332MOL0     N45729   9.464   4.194   7.854 -0.4317  0.0934 -0.1010
  332MOL0     N45730   9.526   4.143   7.952 -0.1548 -0.6991  0.3346
  332MOL0     C45731  10.329   4.533   8.340  0.9147 -0.0088 -0.0990
  332MOL0     C45732  10.383   4.587   8.229 -0.8752  0.0464  0.6681
  332MOL0     C45733  10.654   4.663   7.866 -0.0010 -0.4888 -0.0909
  332MOL0     C45734  10.750   4.587   7.791 -0.8845  0.4021 -0.2425
  332MOL0     C45735  10.810   4.644   7.694 -0.1587 -0.3893  0.9654
  332MOL0     C45736  10.789   4.771   7.653 -0.0263 -0.7489  0.2791
  332MOL0     O45737  10.873   4.814   7.552  0.6126  0.1991 -0.1217
  332MOL0     C45738  10.891   4.953   7.520  0.3798 -1.1678 -0.0062
  332MOL0     C45739  10.933   4.985   7.374  0.2590  0.0272  0.1795
  332MOL0     C45740  10.885   4.890   7.265  0.9907 -1.0090  0.4908
  332MOL0     C45741  10.729   4.893   7.234 -0.8561 -0.5785 -0.2442
  332MOL0     C45742  10.676   4.788   7.151  0.2773  0.1481 -0.5519
  332MOL0     C45743  10.629   4.689   7.090 -0.4826 -0.5881 -0.2369
  332MOL0     C45744  10.703   4.853   7.724  1.3042  0.5368 -0.0251
  332MOL0     C45745  10.624   4.792   7.825  0.9599 -0.1151 -1.0375
  332MOL0     C45746  10.516   4.878   7.900  0.6741  0.9926  0.0762
  332MOL0     H45747  10.366   4.356   7.993  0.4133  2.3138 -1.1149
  332MOL0     H45748  10.260   4.224   8.197  2.4777  0.7238 -0.2861
  332MOL0     H45749  10.023   4.435   8.353 -1.0121  0.4413 -0.0908
  332MOL0     H45750  10.060   4.465   8.524  1.5584  0.6011 -0.6602
  332MOL0     H45751  10.022   4.226   8.548 -0.5485 -0.2427 -0.2855
  332MOL0     H45752   9.879   4.316   8.499 -1.5234 -0.8873 -1.5027
  332MOL0     H45753   9.944   4.262   8.264  1.3410  4.8356  3.0759
  332MOL0     H45754  10.070   4.141   8.334 -0.0124  0.3982 -2.8792
  332MOL0     H45755   9.844   4.047   8.437 -0.8398 -1.2956 -0.9328
  332MOL0     H45756   9.766   4.127   8.304  1.9877  1.1401 -0.6766
  332MOL0     H45757   9.813   3.891   8.248 -1.2386  0.6922 -2.8004
  332MOL0     H45758   9.981   3.925   8.306  1.6806  1.8461 -1.3121
  332MOL0     H45759  10.031   4.041   8.119 -0.8133  1.5280  1.7565
  332MOL0     H45760   9.953   3.890   8.067 -2.3158  0.3260  0.2141
  332MOL0     H45761   9.893   4.070   7.922  0.1432 -1.1741  1.2218
  332MOL0     H45762   9.822   4.152   8.055  0.7863  1.0594 -1.5928
  332MOL0     H45763   9.724   3.874   7.956  0.4891  1.7044 -4.3987
  332MOL0     H45764   9.673   3.968   8.102  0.4504  1.8950  0.0513
  332MOL0     H45765   9.686   4.003   7.697 -0.1892  2.0321 -1.6640
  332MOL0     H45766   9.380   4.191   7.610 -0.6862 -0.9877  2.0588
  332MOL0     H45767   9.509   4.098   7.537  0.0372  0.9549 -0.1685
  332MOL0     H45768   9.660   4.301   7.539 -0.1227  0.7056 -4.0991
  332MOL0     H45769   9.514   4.313   7.444  0.6043  1.7121  0.0952
  332MOL0     H45770   9.408   4.411   7.675  0.4465 -0.4722  1.3328
  332MOL0     H45771   9.578   4.457   7.705 -0.1640 -3.1215  1.4796
  332MOL0     H45772   9.475   4.641   7.612  1.7988  3.0225 -3.3518
  332MOL0     H45773   9.586   4.560   7.498  2.1301 -0.3145  1.3192
  332MOL0     H45774   9.483   4.762   7.372  0.1585 -0.5711 -0.4030
  332MOL0     H45775   9.392   5.016   7.164  3.2255 -1.1256 -0.6353
  332MOL0     H45776   9.507   4.949   7.275 -0.8159 -2.1623  2.1199
  332MOL0     H45777   9.380   5.067   7.331 -0.7100  0.6778 -1.3907
  332MOL0     H45778   8.697   4.939   7.275 -2.0801  0.2689  0.0059
  332MOL0     H45779   8.531   5.084   7.199  1.8970 -1.0756  1.2803
  332MOL0     H45780   8.412   5.214   7.040 -0.6361  0.8439 -1.0502
  332MOL0     H45781   8.365   5.309   7.183 -1.2710 -0.3787 -0.9414
  332MOL0     H45782   8.444   5.429   6.910  1.5411 -2.6600  0.0204
  332MOL0     H45783   8.289   5.337   6.921  0.3986  1.4878 -2.3339
  332MOL0     H45784   8.403   5.604   7.062 -1.8784  1.1987  1.9642
  332MOL0     H45785   8.272   5.515   7.135  1.6977 -1.6767  0.6373
  332MOL0     H45786   8.224   5.728   6.989 -0.2016  0.5682 -2.5720
  332MOL0     H45787   8.141   5.571   6.960  1.2948 -1.2492 -0.7912
  332MOL0     H45788   8.386   5.690   6.824  0.8585 -1.9070 -1.8758
  332MOL0     H45789   8.309   5.555   6.762  1.4617 -0.4486  0.9242
  332MOL0     H45790   8.092   5.733   6.768 -0.4753  0.8651 -0.4643
  332MOL0     H45791   8.159   5.665   6.634  1.1565  2.0471 -2.6600
  332MOL0     H45792   8.321   5.846   6.597 -0.6712 -1.9573  0.5683
  332MOL0     H45793   8.279   5.923   6.755  1.6336  1.8310 -0.8295
  332MOL0     H45794   8.103   5.838   6.527 -0.4719 -0.5334  0.3453
  332MOL0     H45795   8.167   6.008   6.530  1.7228 -0.4749 -0.7765
  332MOL0     H45796   8.812   5.410   7.152  2.0686  0.2144  1.5335
  332MOL0     H45797   8.990   5.261   7.226 -0.5525  1.3163 -2.0990
  332MOL0     H45798   8.985   4.769   7.389  0.2716 -2.0204 -2.7321
  332MOL0     H45799   9.098   4.575   7.477 -2.6167  0.5048 -1.7779
  332MOL0     H45800  10.334   4.597   8.428  0.7456 -0.2851  0.1137
  332MOL0     H45801  10.416   4.688   8.252  0.4148 -0.6492  2.0376
  332MOL0     H45802  10.770   4.485   7.820  1.2769  0.5072 -1.1881
  332MOL0     H45803  10.876   4.583   7.633  0.8992 -0.0605  1.7465
  332MOL0     H45804  10.805   5.018   7.542  0.6112 -1.3311  1.4793
  332MOL0     H45805  10.966   4.998   7.586 -0.4159 -1.4357  1.1126
  332MOL0     H45806  11.043   4.986   7.369  0.3862 -1.0183  1.9672
  332MOL0     H45807  10.885   5.082   7.364 -1.0103 -0.5185  0.8331
  332MOL0     H45808  10.933   4.931   7.176 -2.4276  3.0312  0.1472
  332MOL0     H45809  10.913   4.788   7.292  2.2258 -0.2290  2.2969
  332MOL0     H45810  10.713   4.988   7.181  1.9666  1.3196  1.9882
  332MOL0     H45811  10.668   4.905   7.324  1.4691 -0.9096  1.4765
  332MOL0     H45812  10.599   4.609   7.027  1.8012 -2.1138  0.4733
  332MOL0     H45813  10.674   4.956   7.706  2.9006  0.7345 -1.7702
  332MOL0     H45814  10.499   4.982   7.868  0.8118  1.1258  0.4366
  332MOL0     H45815  10.419   4.828   7.892  0.4557  0.8501  2.7455
  332MOL0     H45816  10.542   4.889   8.006  1.8848 -0.4678 -0.0437
  333MOL0     O45817   3.541   0.978   1.592 -0.0742  0.5486 -0.5629
  333MOL0     C45818   3.626   0.901   1.546 -0.7637 -0.2167 -0.2900
  333MOL0     O45819   3.740   0.939   1.489 -0.2621 -0.3568 -0.0402
  333MOL0     C45820   3.781   1.071   1.500 -0.1981 -0.9038 -0.7057
  333MOL0     C45821   3.917   1.088   1.516 -0.0995 -0.6505  0.4688
  333MOL0     C45822   3.965   1.224   1.511  0.1324  0.6612  1.3392
  333MOL0     C45823   3.893   1.337   1.480  0.0443  0.7102  0.0506
  333MOL0     O45824   3.951   1.458   1.507 -0.4223  0.9550  0.0128
  333MOL0     C45825   3.896   1.569   1.447  0.1275 -0.3757 -0.5939
  333MOL0     C45826   3.969   1.597   1.317  0.2629 -0.2243  0.4618
  333MOL0     C45827   3.906   1.714   1.247  0.0482 -0.1927  0.7511
  333MOL0     C45828   3.958   1.743   1.104  0.5308  0.5207 -1.0201
  333MOL0     C45829   4.108   1.758   1.094  0.1545  0.1657 -0.2132
  333MOL0     C45830   4.180   1.868   1.180  0.1793 -0.3854  0.1957
  333MOL0     C45831   4.131   2.012   1.150  0.6793  0.4606  0.6015
  333MOL0     C45832   4.193   2.104   1.238  0.5909 -0.3862  0.5255
  333MOL0     N45833   4.339   2.120   1.214  0.7285 -0.1525 -0.0063
  333MOL0     C45834   4.387   2.206   1.116 -0.1745  0.1592 -0.0947
  333MOL0     C45835   4.528   2.216   1.141  0.0289 -0.9927 -0.5436
  333MOL0     C45836   4.631   2.301   1.068  0.4594 -0.5381 -0.0186
  333MOL0     C45837   4.648   2.260   0.921  1.0318 -0.7567 -0.1835
  333MOL0     C45838   4.744   2.345   0.838  0.5195 -0.1149  0.0883
  333MOL0     C45839   4.742   2.297   0.694  0.1156 -0.6488 -0.8427
  333MOL0     O45840   4.618   2.336   0.622  0.5993  0.1754  0.1097
  333MOL0     C45841   4.606   2.305   0.492 -1.2471  0.0932  0.7516
  333MOL0     C45842   4.716   2.257   0.412  0.3065 -0.5196  0.1948
  333MOL0     C45843   4.716   2.242   0.270  0.9468  1.1191 -0.6002
  333MOL0     C45844   4.847   2.197   0.212  0.6990  1.0285 -0.5997
  333MOL0     C45845   4.595   2.271   0.188 -0.2957 -0.2636 -0.3553
  333MOL0     C45846   4.580   2.238   0.044  0.0867  0.4300 -0.2579
  333MOL0     O45847   4.573   2.341  -0.035  0.6410 -0.1040 -0.3210
  333MOL0     C45848   4.540   2.327  -0.172  0.0664  0.2934 -0.2609
  333MOL0     C45849   4.611   2.253  -0.264 -0.7672  0.0245 -0.3508
  333MOL0     C45850   4.595   2.251  -0.405 -0.0675 -1.0037 -0.6001
  333MOL0     C45851   4.492   2.335  -0.455 -0.5841 -0.0973  0.8540
  333MOL0     O45852   4.479   2.327  -0.597 -0.6835  0.1803 -0.3021
  333MOL0     C45853   4.365   2.376  -0.667  0.0119  0.0149 -0.4839
  333MOL0     C45854   4.391   2.527  -0.686  0.0830 -1.1987 -0.5418
  333MOL0     C45855   4.265   2.609  -0.675 -0.2816  0.9688 -1.1584
  333MOL0     C45856   4.296   2.746  -0.727  0.0243  0.7778  0.0866
  333MOL0     C45857   4.174   2.837  -0.719 -0.2725  0.4754  1.0054
  333MOL0     C45858   4.187   2.976  -0.793  0.0369 -0.1454  0.3678
  333MOL0     C45859   4.300   3.059  -0.710  1.3217  0.1868 -0.4494
  333MOL0     C45860   4.269   3.205  -0.746 -0.0397 -0.0965 -0.5105
  333MOL0    Cl45861   4.361   3.324  -0.647  0.3759 -0.1476 -0.5276
  333MOL0     C45862   4.418   2.414  -0.366 -0.1892  0.1120 -0.7474
  333MOL0     C45863   4.445   2.411  -0.229 -0.5553  0.0290  0.4787
  333MOL0     O45864   4.581   2.121   0.009  0.5241  0.3865  0.4450
  333MOL0     C45865   4.494   2.319   0.271  0.1308  0.1258  0.1379
  333MOL0     C45866   4.498   2.330   0.415  0.1710 -0.0520 -0.2646
  333MOL0     N45867   4.555   2.156   1.265 -0.0752  1.0439  0.1581
  333MOL0     N45868   4.442   2.109   1.303  0.2164 -0.1146 -0.6613
  333MOL0     C45869   3.756   1.311   1.462 -0.2353  1.1662  0.4221
  333MOL0     C45870   3.702   1.180   1.462  0.1350  0.7891 -0.2389
  333MOL0     C45871   3.586   0.760   1.509  0.5592 -0.0316  0.4922
  333MOL0     C45872   3.686   0.682   1.456 -0.0848  0.6987 -0.4644
  333MOL0     C45873   3.659   0.555   1.406  1.0749 -0.4125  0.4245
  333MOL0     C45874   3.533   0.497   1.409  0.8673 -0.6732  0.3045
  333MOL0     O45875   3.494   0.375   1.357 -0.7436  0.9039 -0.4661
  333MOL0     C45876   3.602   0.303   1.288  0.7510  0.6356 -0.1550
  333MOL0     C45877   3.540   0.178   1.219 -0.8704  0.1080  0.4574
  333MOL0     C45878   3.418   0.213   1.130 -0.4857  0.6010 -0.5187
  333MOL0     C45879   3.356   0.090   1.066 -0.1211  0.3080  0.4833
  333MOL0     C45880   3.262   0.152   0.982  0.1596  0.1913  0.4552
  333MOL0     C45881   3.178   0.220   0.923 -0.2923 -0.5226  0.1283
  333MOL0     C45882   3.432   0.573   1.466 -0.3405  0.8679 -0.1912
  333MOL0     C45883   3.453   0.701   1.522 -0.4593 -0.0075  0.6114
  333MOL0     C45884   3.337   0.774   1.575 -0.0139 -0.6048  0.1108
  333MOL0     H45885   3.976   0.999   1.537 -2.3459 -1.9866  1.5823
  333MOL0     H45886   4.072   1.246   1.517  0.7599 -0.1607 -3.1497
  333MOL0     H45887   3.914   1.657   1.509 -2.9549  0.4123 -0.6434
  333MOL0     H45888   3.787   1.560   1.436 -0.4962  0.1807  3.5500
  333MOL0     H45889   4.074   1.610   1.345 -0.0975 -0.1347  1.8822
  333MOL0     H45890   3.966   1.517   1.243 -2.9468  0.0744  0.1189
  333MOL0     H45891   3.798   1.703   1.247  0.0925 -0.9994  2.7176
  333MOL0     H45892   3.933   1.801   1.307 -0.3576 -0.4183  1.2647
  333MOL0     H45893   3.934   1.664   1.032 -1.2329 -0.4404  0.5384
  333MOL0     H45894   3.920   1.840   1.069  1.7490  0.2916 -3.1232
  333MOL0     H45895   4.133   1.781   0.989  0.7231  0.9393  0.0792
  333MOL0     H45896   4.145   1.660   1.124 -0.0725  0.1793  0.1108
  333MOL0     H45897   4.173   1.834   1.284 -2.0106 -2.3481 -0.5207
  333MOL0     H45898   4.284   1.874   1.145  0.1930 -1.4396  0.0035
  333MOL0     H45899   4.024   2.007   1.172  0.8047  0.5312  1.2558
  333MOL0     H45900   4.143   2.034   1.044  0.9655 -0.7443  0.3698
  333MOL0     H45901   4.154   2.206   1.230 -2.9674 -1.4787  2.1373
  333MOL0     H45902   4.180   2.076   1.343  0.0713  3.0453  1.4847
  333MOL0     H45903   4.342   2.265   1.037 -1.5652  1.4277  1.5647
  333MOL0     H45904   4.731   2.284   1.109  1.0007  0.8814 -0.6974
  333MOL0     H45905   4.600   2.405   1.079 -1.2169 -0.8157 -1.6503
  333MOL0     H45906   4.670   2.154   0.911  1.2663 -0.5155 -3.4450
  333MOL0     H45907   4.551   2.269   0.870  1.0524  1.0947  0.0402
  333MOL0     H45908   4.714   2.450   0.838  0.6724  0.0625 -3.3653
  333MOL0     H45909   4.846   2.329   0.875 -0.3124 -1.7194  1.8441
  333MOL0     H45910   4.825   2.347   0.644 -1.8692  0.9428 -2.8037
  333MOL0     H45911   4.767   2.191   0.688  2.1695 -0.5593  3.1983
  333MOL0     H45912   4.813   2.232   0.455  0.4872  0.8072  0.5892
  333MOL0     H45913   4.908   2.284   0.185  0.4074  0.8746 -1.8150
  333MOL0     H45914   4.833   2.128   0.128  3.2932  0.6338 -0.7745
  333MOL0     H45915   4.896   2.127   0.280 -0.4425  0.7431 -0.0374
  333MOL0     H45916   4.694   2.199  -0.221  1.8783  1.6618 -3.0435
  333MOL0     H45917   4.658   2.197  -0.474  0.9517  1.6763 -1.8952
  333MOL0     H45918   4.346   2.319  -0.759  1.6934 -2.7313  0.7351
  333MOL0     H45919   4.278   2.362  -0.601  3.0653 -0.2229  3.8745
  333MOL0     H45920   4.460   2.549  -0.604  0.5032 -3.7882 -0.0888
  333MOL0     H45921   4.441   2.546  -0.781  4.4348  1.4571  1.9609
  333MOL0     H45922   4.237   2.612  -0.569  5.3845 -0.1441  0.7217
  333MOL0     H45923   4.202   2.551  -0.743 -0.5405 -0.8470  0.5205
  333MOL0     H45924   4.318   2.727  -0.833  3.3663  0.2736  0.7831
  333MOL0     H45925   4.382   2.795  -0.682  0.4460  2.3674 -2.2700
  333MOL0     H45926   4.084   2.789  -0.758  0.6062  0.6366 -1.3842
  333MOL0     H45927   4.141   2.858  -0.617 -0.9769 -0.2838  0.9417
  333MOL0     H45928   4.097   3.035  -0.774  0.7969  2.3945 -3.0698
  333MOL0     H45929   4.207   2.957  -0.899 -1.1395 -2.0600  0.4401
  333MOL0     H45930   4.402   3.040  -0.742  1.1791 -1.6939  0.0743
  333MOL0     H45931   4.288   3.066  -0.602 -2.3777  0.3553 -0.7295
  333MOL0     H45932   4.162   3.218  -0.732  0.1702  2.1849 -0.6985
  333MOL0     H45933   4.285   3.219  -0.854  0.3853 -1.4670 -0.6471
  333MOL0     H45934   4.341   2.480  -0.405  1.0417  1.7344 -0.5275
  333MOL0     H45935   4.392   2.482  -0.167 -0.5165  1.8048 -1.3984
  333MOL0     H45936   4.401   2.343   0.219  0.4618  1.8548  0.2974
  333MOL0     H45937   4.413   2.370   0.469 -0.1842  0.9945 -1.5529
  333MOL0     H45938   3.690   1.398   1.466  0.4540  1.6697  1.3025
  333MOL0     H45939   3.600   1.149   1.445  0.6419 -0.5115 -1.0083
  333MOL0     H45940   3.787   0.720   1.441 -0.3408  2.0365  0.9361
  333MOL0     H45941   3.736   0.492   1.363  0.8132 -0.4870  0.0587
  333MOL0     H45942   3.646   0.368   1.213  0.5924  1.0201  0.0817
  333MOL0     H45943   3.669   0.276   1.370 -1.5406  1.4374  2.1267
  333MOL0     H45944   3.527   0.101   1.295  2.8458 -2.0694 -0.8538
  333MOL0     H45945   3.610   0.132   1.149 -2.4054 -0.5458 -0.6966
  333MOL0     H45946   3.338   0.265   1.184 -3.2132 -1.1152 -2.6540
  333MOL0     H45947   3.462   0.290   1.067 -0.1071  3.3199  2.7610
  333MOL0     H45948   3.313   0.023   1.140 -0.7364 -0.8658 -0.8950
  333MOL0     H45949   3.418   0.033   0.996 -1.0767  1.4323 -1.3855
  333MOL0     H45950   3.107   0.288   0.882  1.7519  1.0468 -1.0247
  333MOL0     H45951   3.339   0.517   1.463  0.3124 -0.2207 -2.0787
  333MOL0     H45952   3.310   0.865   1.520  0.0088  0.8309  2.3380
  333MOL0     H45953   3.244   0.718   1.585  0.1022 -1.0707 -1.2907
  333MOL0     H45954   3.362   0.807   1.677 -2.8595  2.5369 -0.0297
  334MOL0     O45955   1.229   7.240   6.158 -0.8410 -0.1545  0.2270
  334MOL0     C45956   1.298   7.339   6.156  0.0894 -0.1586 -0.7328
  334MOL0     O45957   1.320   7.416   6.265 -0.7326 -0.4597  1.3736
  334MOL0     C45958   1.288   7.376   6.387 -0.1134  0.3728 -0.5987
  334MOL0     C45959   1.164   7.313   6.430  0.4873 -0.3236  0.1394
  334MOL0     C45960   1.146   7.296   6.565  0.5397  1.3707  0.1116
  334MOL0     C45961   1.241   7.321   6.663 -0.2944 -0.4917  0.0890
  334MOL0     O45962   1.213   7.302   6.799  0.0258  0.1184  1.2591
  334MOL0     C45963   1.320   7.277   6.887  0.1464  0.2571 -0.1930
  334MOL0     C45964   1.359   7.406   6.964  0.0522  0.0348 -0.2290
  334MOL0     C45965   1.257   7.513   7.018  0.5013  0.0756 -0.1340
  334MOL0     C45966   1.322   7.648   7.033  0.5877  0.4982 -0.1990
  334MOL0     C45967   1.214   7.748   7.096 -0.3171 -0.3096 -0.2499
  334MOL0     C45968   1.273   7.892   7.120  0.3349 -0.1731  0.6460
  334MOL0     C45969   1.173   7.981   7.200 -1.0015  1.0030  0.1309
  334MOL0     C45970   1.058   8.035   7.112  0.2520 -0.5047 -0.2239
  334MOL0     N45971   1.099   8.156   7.052 -0.3460 -0.8231  0.7754
  334MOL0     C45972   1.019   8.220   6.961 -0.0151 -0.0117 -0.1446
  334MOL0     C45973   1.086   8.317   6.897  0.3340 -0.8663 -0.1209
  334MOL0     C45974   1.045   8.386   6.771 -0.1308  0.0523 -0.4251
  334MOL0     C45975   1.045   8.279   6.654 -0.2528  0.8643 -0.0028
  334MOL0     C45976   1.013   8.353   6.523  0.8034  0.1405 -0.5464
  334MOL0     C45977   0.946   8.267   6.419  0.5984  0.4309  0.4529
  334MOL0     O45978   0.804   8.249   6.445 -0.6336  0.2716  0.2377
  334MOL0     C45979   0.713   8.337   6.406  0.7257 -0.3895  0.0271
  334MOL0     C45980   0.598   8.343   6.488 -0.4999 -0.1307  0.4863
  334MOL0     C45981   0.496   8.429   6.453  0.2547 -0.5430  0.3681
  334MOL0     C45982   0.375   8.411   6.543  0.4076 -0.1087  0.0918
  334MOL0     C45983   0.504   8.521   6.340 -0.1952  0.6194 -0.6177
  334MOL0     C45984   0.397   8.614   6.311  0.0552  0.2812  0.2201
  334MOL0     O45985   0.440   8.712   6.231  1.2714  0.3904 -0.7332
  334MOL0     C45986   0.366   8.819   6.192  0.9718 -0.2862 -0.1059
  334MOL0     C45987   0.247   8.874   6.254  0.5172 -0.2869  0.7921
  334MOL0     C45988   0.180   8.990   6.208 -0.3615 -0.3203  0.9113
  334MOL0     C45989   0.227   9.057   6.102  0.0265  0.3470 -0.3873
  334MOL0     O45990   0.176   9.173   6.054 -0.1665 -0.7382 -0.4583
  334MOL0     C45991   0.203   9.283   6.142  0.2017  0.5855  0.7659
  334MOL0     C45992   0.194   9.422   6.078  0.2971 -0.9329 -0.6562
  334MOL0     C45993   0.271   9.439   5.946 -1.2996 -0.5464 -0.8609
  334MOL0     C45994   0.420   9.414   5.955  0.3112  0.3758 -1.5615
  334MOL0     C45995   0.499   9.446   5.834 -0.2503 -0.4036  0.2803
  334MOL0     C45996   0.645   9.387   5.830  0.6896  0.3495  0.4387
  334MOL0     C45997   0.745   9.500   5.788  0.4236  0.0100 -1.3591
  334MOL0     C45998   0.891   9.452   5.786  0.3213 -0.1373 -0.9478
  334MOL0    Cl45999   0.967   9.479   5.949 -0.3585 -0.6401  0.1594
  334MOL0     C46000   0.345   9.015   6.040 -0.0733  0.4100 -0.2703
  334MOL0     C46001   0.420   8.898   6.083  0.7785 -0.6589 -0.1862
  334MOL0     O46002   0.283   8.583   6.331 -0.1238 -0.0652 -0.8350
  334MOL0     C46003   0.629   8.523   6.272  1.1166 -0.2928 -0.3530
  334MOL0     C46004   0.733   8.433   6.305  0.1065  0.4719  0.6182
  334MOL0     N46005   1.215   8.306   6.946  0.1706 -0.8725 -0.1418
  334MOL0     N46006   1.220   8.215   7.034 -0.1289 -0.0855 -0.1221
  334MOL0     C46007   1.362   7.381   6.620  0.5378  0.6601  0.5751
  334MOL0     C46008   1.384   7.402   6.487  0.2154  0.4051 -0.2499
  334MOL0     C46009   1.331   7.400   6.027 -0.7996 -0.9195  0.2841
  334MOL0     C46010   1.447   7.478   6.039 -0.5503 -0.4773  0.4346
  334MOL0     C46011   1.511   7.524   5.926 -0.4719  0.1687 -0.1694
  334MOL0     C46012   1.455   7.504   5.803  1.3224 -1.5402 -0.2529
  334MOL0     O46013   1.526   7.536   5.684  0.8959 -0.0337 -0.2376
  334MOL0     C46014   1.636   7.621   5.674 -0.2209 -0.2425  0.6690
  334MOL0     C46015   1.598   7.773   5.690  0.2251  0.5987 -0.4007
  334MOL0     C46016   1.725   7.863   5.634  0.4630  0.2969  0.4554
  334MOL0     C46017   1.685   7.974   5.527 -0.0296 -0.3761  0.9381
  334MOL0     C46018   1.661   7.918   5.395 -0.8551  0.4421  0.3276
  334MOL0     C46019   1.652   7.871   5.283  0.4591 -0.2646 -0.6741
  334MOL0     C46020   1.330   7.441   5.797 -0.0182  0.6748 -0.1434
  334MOL0     C46021   1.266   7.381   5.906  0.2275 -0.8137  0.5135
  334MOL0     C46022   1.132   7.304   5.888 -0.6329 -0.2763 -0.4375
  334MOL0     H46023   1.089   7.280   6.359 -1.4770 -3.2205  3.2587
  334MOL0     H46024   1.054   7.243   6.589  2.3282 -1.7323  0.7528
  334MOL0     H46025   1.410   7.246   6.834  0.7674  1.9308 -0.1820
  334MOL0     H46026   1.295   7.196   6.957  2.9691  2.6181  4.0093
  334MOL0     H46027   1.410   7.372   7.055 -1.9971 -0.6878  0.6967
  334MOL0     H46028   1.429   7.464   6.902 -0.4815  1.7939  0.7230
  334MOL0     H46029   1.171   7.516   6.951  0.0912 -0.3113  0.3573
  334MOL0     H46030   1.207   7.471   7.106 -1.2174  0.5987 -0.8240
  334MOL0     H46031   1.408   7.638   7.100  0.8569 -2.5246 -0.8467
  334MOL0     H46032   1.359   7.687   6.937  3.2338  0.1407  0.6026
  334MOL0     H46033   1.182   7.703   7.191  3.0267 -1.3155  0.5371
  334MOL0     H46034   1.124   7.750   7.035 -1.4078 -3.4153  1.0494
  334MOL0     H46035   1.377   7.902   7.153  0.6769  2.4203 -0.8960
  334MOL0     H46036   1.278   7.939   7.021  3.4654 -1.1818  0.2263
  334MOL0     H46037   1.230   8.064   7.242  0.1272  1.8027 -2.7676
  334MOL0     H46038   1.138   7.925   7.287  0.1266 -1.4192 -0.8716
  334MOL0     H46039   1.033   7.951   7.045  2.3660 -1.1469 -0.2790
  334MOL0     H46040   0.964   8.045   7.168  0.7933 -1.1742  0.8467
  334MOL0     H46041   0.920   8.181   6.938  1.0353 -1.1008 -3.3244
  334MOL0     H46042   1.133   8.447   6.752  0.7779 -0.7505  1.0209
  334MOL0     H46043   0.950   8.438   6.783  0.0077  1.3963 -4.0342
  334MOL0     H46044   1.148   8.243   6.659 -0.2761  0.9506  3.0324
  334MOL0     H46045   0.991   8.184   6.660  0.1913  0.6695  1.3063
  334MOL0     H46046   0.955   8.440   6.555 -0.1122 -0.5367 -0.3387
  334MOL0     H46047   1.109   8.396   6.493  0.4324  1.1867 -0.2664
  334MOL0     H46048   0.971   8.314   6.323  2.9027  0.8272  1.1706
  334MOL0     H46049   0.991   8.168   6.422  0.3306  0.3303  2.8427
  334MOL0     H46050   0.596   8.266   6.564 -0.3787 -2.0403 -1.3242
  334MOL0     H46051   0.286   8.362   6.502  1.1360  0.1658 -1.9320
  334MOL0     H46052   0.348   8.510   6.583  1.6186 -0.6886  2.4687
  334MOL0     H46053   0.398   8.363   6.638 -0.6958  1.9039  1.4756
  334MOL0     H46054   0.194   8.825   6.336  0.4639 -0.3614  0.7141
  334MOL0     H46055   0.088   9.026   6.254 -1.8257 -2.6164 -0.0352
  334MOL0     H46056   0.128   9.277   6.222 -0.4929  0.0890  0.0907
  334MOL0     H46057   0.299   9.276   6.194 -0.1296  2.5765  1.7426
  334MOL0     H46058   0.091   9.443   6.048 -0.2524 -1.2515  0.9490
  334MOL0     H46059   0.225   9.491   6.157  0.5524 -0.2379 -1.3515
  334MOL0     H46060   0.247   9.540   5.911 -0.8255  0.0076  0.3454
  334MOL0     H46061   0.234   9.371   5.869  0.2801  0.6918 -2.8241
  334MOL0     H46062   0.435   9.311   5.991 -0.7727  0.9542  0.7320
  334MOL0     H46063   0.458   9.475   6.037  1.4050 -1.0344 -0.9737
  334MOL0     H46064   0.454   9.393   5.750 -2.1304 -2.7224  2.5804
  334MOL0     H46065   0.489   9.555   5.829  0.5275 -0.3046  0.6108
  334MOL0     H46066   0.662   9.307   5.757  5.5863 -0.4239  2.0776
  334MOL0     H46067   0.675   9.353   5.929  2.2539 -3.5491 -1.1837
  334MOL0     H46068   0.724   9.585   5.853  1.2905 -1.7288  1.3615
  334MOL0     H46069   0.733   9.532   5.684  1.2595  2.2299 -0.8241
  334MOL0     H46070   0.944   9.520   5.719  2.3999  2.1805  2.7106
  334MOL0     H46071   0.911   9.356   5.737 -0.6092 -0.7495 -0.1836
  334MOL0     H46072   0.369   9.065   5.946  3.6928  1.5718  1.1080
  334MOL0     H46073   0.503   8.858   6.026  1.0900  0.1499 -0.3170
  334MOL0     H46074   0.653   8.590   6.189  1.1957 -1.1092 -1.0047
  334MOL0     H46075   0.824   8.441   6.246 -0.6869 -1.3521 -0.9292
  334MOL0     H46076   1.434   7.417   6.692  5.7714  1.8773 -4.5403
  334MOL0     H46077   1.471   7.460   6.459 -0.0229  1.4606  1.0893
  334MOL0     H46078   1.493   7.485   6.137 -3.5134 -0.1715  1.9150
  334MOL0     H46079   1.610   7.564   5.942 -1.6817  3.6977 -0.5967
  334MOL0     H46080   1.714   7.590   5.744 -0.7191 -0.4312  1.1531
  334MOL0     H46081   1.682   7.609   5.576  1.0126 -1.8529  1.3963
  334MOL0     H46082   1.587   7.800   5.795  0.5430  1.3713 -0.5627
  334MOL0     H46083   1.498   7.780   5.644  0.2250 -1.5418 -0.8193
  334MOL0     H46084   1.774   7.911   5.720  1.1849  1.5601 -0.6177
  334MOL0     H46085   1.798   7.808   5.574 -0.5539  1.3316 -1.8733
  334MOL0     H46086   1.767   8.045   5.511  0.9988 -1.0431  2.9491
  334MOL0     H46087   1.598   8.030   5.563 -0.8446  0.5787 -2.1887
  334MOL0     H46088   1.660   7.820   5.190  0.7215 -1.6273  0.0661
  334MOL0     H46089   1.292   7.448   5.695  3.0615  0.0502 -1.4616
  334MOL0     H46090   1.075   7.333   5.977  0.7957  0.2207  0.3473
  334MOL0     H46091   1.072   7.337   5.803 -2.6519  1.2853  1.4603
  334MOL0     H46092   1.165   7.200   5.886  0.5716 -0.0242  1.9481
  335MOL0     O46093   6.319   9.312  11.348 -0.6096  0.3035 -0.3290
  335MOL0     C46094   6.369   9.202  11.376  0.8189  0.0778  0.2590
  335MOL0     O46095   6.319   9.083  11.347  0.3680 -0.3001 -0.2906
  335MOL0     C46096   6.186   9.075  11.324  0.3056  0.2307  1.2433
  335MOL0     C46097   6.148   9.002  11.208 -0.3904 -0.1090 -0.2990
  335MOL0     C46098   6.011   8.995  11.182 -0.2232 -0.3565 -0.1571
  335MOL0     C46099   5.910   9.036  11.267 -0.4417  0.5786 -0.0998
  335MOL0     O46100   5.785   9.001  11.218 -0.2318 -0.0993  0.3517
  335MOL0     C46101   5.667   9.054  11.287 -0.4132  0.7409 -0.4947
  335MOL0     C46102   5.631   9.192  11.234  0.3051 -0.3274  0.0612
  335MOL0     C46103   5.585   9.181  11.075  0.2547 -0.2726  0.0506
  335MOL0     C46104   5.582   9.318  11.016  0.4424 -0.2484  0.6129
  335MOL0     C46105   5.693   9.337  10.904  0.0242 -0.0725  0.0068
  335MOL0     C46106   5.831   9.357  10.961 -0.3008  0.6450  0.1912
  335MOL0     C46107   5.942   9.328  10.866 -0.4793 -0.2631  0.6321
  335MOL0     C46108   5.944   9.432  10.757 -0.8710  0.4014 -0.6281
  335MOL0     N46109   6.081   9.435  10.711 -0.7961 -0.6275  0.4668
  335MOL0     C46110   6.139   9.335  10.633  0.0880 -0.1276 -0.3216
  335MOL0     C46111   6.275   9.350  10.648  0.3823 -0.0624 -0.2592
  335MOL0     C46112   6.389   9.273  10.594  0.0077 -0.7895 -0.0884
  335MOL0     C46113   6.414   9.310  10.442  0.0110  0.3213 -0.2914
  335MOL0     C46114   6.536   9.249  10.375 -0.6828  0.1281  0.2339
  335MOL0     C46115   6.560   9.101  10.404  0.0245 -0.2406  0.1030
  335MOL0     O46116   6.441   9.029  10.356  0.0648  0.3567 -0.1075
  335MOL0     C46117   6.422   8.896  10.395  0.3447 -0.4954 -0.6113
  335MOL0     C46118   6.321   8.829  10.332 -0.9706 -0.1322  0.0791
  335MOL0     C46119   6.286   8.694  10.360 -1.1983 -0.1356 -0.0469
  335MOL0     C46120   6.170   8.637  10.284 -0.0619  0.5179 -0.3131
  335MOL0     C46121   6.357   8.626  10.471  0.3384 -0.0867 -0.2034
  335MOL0     C46122   6.319   8.495  10.524 -0.5754 -0.1241  0.8479
  335MOL0     O46123   6.232   8.414  10.453 -0.0036  0.6753 -0.4638
  335MOL0     C46124   6.186   8.296  10.503  0.1661  0.2639 -0.7852
  335MOL0     C46125   6.173   8.186  10.420  1.2024 -0.2055 -0.0246
  335MOL0     C46126   6.108   8.074  10.459  1.2493 -0.0365  0.1440
  335MOL0     C46127   6.059   8.060  10.588  0.4301 -0.7836 -0.6239
  335MOL0     O46128   5.975   7.959  10.616  0.1383 -0.2385  0.1207
  335MOL0     C46129   6.040   7.835  10.648  0.6905  0.2884 -0.2556
  335MOL0     C46130   6.068   7.817  10.794 -0.0277 -0.6279  0.4064
  335MOL0     C46131   5.943   7.852  10.884 -0.0881 -0.5003 -1.0078
  335MOL0     C46132   5.996   7.878  11.027 -0.1940 -0.7369  0.2658
  335MOL0     C46133   5.886   7.933  11.126 -0.4480  0.1826 -0.3594
  335MOL0     C46134   5.753   7.875  11.148  0.9750  0.4957  0.0278
  335MOL0     C46135   5.764   7.719  11.170  0.6392 -0.5610 -0.9698
  335MOL0     C46136   5.634   7.649  11.176 -0.2814 -0.4036 -0.5550
  335MOL0    Cl46137   5.524   7.701  11.056 -0.1914 -0.4078 -0.2578
  335MOL0     C46138   6.077   8.171  10.676 -0.4595  0.5991  0.6308
  335MOL0     C46139   6.130   8.293  10.634 -0.0787  0.0643 -0.8624
  335MOL0     O46140   6.364   8.461  10.636 -0.8728 -0.3942  0.3553
  335MOL0     C46141   6.474   8.689  10.524 -0.0882 -0.4060 -1.2498
  335MOL0     C46142   6.499   8.823  10.487 -0.1314  1.5273 -0.1347
  335MOL0     N46143   6.292   9.463  10.741 -0.6423 -0.8761  1.3573
  335MOL0     N46144   6.176   9.509  10.767 -0.1205 -0.3515  0.0109
  335MOL0     C46145   5.949   9.097  11.384  0.4872  0.6353 -0.8478
  335MOL0     C46146   6.085   9.114  11.412 -0.6329 -0.2254  0.1256
  335MOL0     C46147   6.496   9.211  11.463 -0.0502  0.2922  0.9645
  335MOL0     C46148   6.545   9.084  11.507 -0.1989  0.1363  0.1912
  335MOL0     C46149   6.667   9.086  11.577 -0.5906 -0.6193  0.3248
  335MOL0     C46150   6.735   9.209  11.605 -0.3864  0.6196 -0.2025
  335MOL0     O46151   6.862   9.209  11.659  0.6332  0.4128 -0.0972
  335MOL0     C46152   6.965   9.140  11.590  0.1328  0.1867 -0.3227
  335MOL0     C46153   7.097   9.111  11.670  1.2176 -0.2131 -1.4497
  335MOL0     C46154   7.159   9.245  11.724 -0.8794  0.4156  0.8991
  335MOL0     C46155   7.281   9.236  11.810  0.4795  0.2287 -0.0953
  335MOL0     C46156   7.292   9.343  11.914  0.7046 -0.2578 -1.4476
  335MOL0     C46157   7.301   9.432  11.999  0.1483 -0.2749 -0.0141
  335MOL0     C46158   6.682   9.327  11.572 -0.4437  0.2030 -0.6311
  335MOL0     C46159   6.568   9.333  11.494  0.6833 -0.1203  0.7862
  335MOL0     C46160   6.540   9.462  11.438 -0.2454 -0.7180 -0.0006
  335MOL0     H46161   6.227   8.969  11.143  0.2458  0.4047  0.2024
  335MOL0     H46162   5.991   8.948  11.086  0.7003 -4.4394  1.4352
  335MOL0     H46163   5.666   9.041  11.396  0.4775  1.4657 -0.3834
  335MOL0     H46164   5.587   8.996  11.241  0.8884  0.1684 -2.1349
  335MOL0     H46165   5.546   9.226  11.294  0.8228 -2.6116  2.2522
  335MOL0     H46166   5.717   9.258  11.254  3.1119 -2.7607 -2.9097
  335MOL0     H46167   5.665   9.117  11.037  0.6358 -1.9086  3.2742
  335MOL0     H46168   5.485   9.141  11.057  0.4579  0.1612 -2.3838
  335MOL0     H46169   5.482   9.333  10.975  0.7791  1.6554  0.3945
  335MOL0     H46170   5.595   9.393  11.095 -3.6645  0.8741  0.4039
  335MOL0     H46171   5.670   9.429  10.849  2.1263  1.8164  2.0727
  335MOL0     H46172   5.691   9.253  10.834  0.9664 -0.7039  0.7084
  335MOL0     H46173   5.847   9.461  10.993 -0.1541  0.5122  0.5499
  335MOL0     H46174   5.846   9.302  11.054  1.1783  1.6920  0.6163
  335MOL0     H46175   5.931   9.235  10.810 -3.0037  1.5254 -2.1524
  335MOL0     H46176   6.034   9.356  10.919 -1.3614  2.2602  0.9635
  335MOL0     H46177   5.870   9.411  10.680 -1.1717  1.6699 -0.7057
  335MOL0     H46178   5.915   9.530  10.795  2.4644  1.0934  0.4604
  335MOL0     H46179   6.085   9.266  10.569  1.4266  0.0083 -1.6717
  335MOL0     H46180   6.353   9.170  10.596  1.1884 -1.2868 -2.1454
  335MOL0     H46181   6.476   9.286  10.659  0.1881 -0.4117 -0.4018
  335MOL0     H46182   6.333   9.268  10.382  1.8230 -1.6855 -1.4716
  335MOL0     H46183   6.431   9.418  10.439 -0.3084  0.5397  2.8215
  335MOL0     H46184   6.524   9.271  10.269  2.6033  0.7464 -0.1302
  335MOL0     H46185   6.626   9.311  10.387 -1.5682  1.7216 -1.0267
  335MOL0     H46186   6.654   9.079  10.352  1.1917  3.2265  0.4582
  335MOL0     H46187   6.581   9.090  10.511  3.5787 -1.7023 -0.6071
  335MOL0     H46188   6.266   8.890  10.262  0.1741  0.8563  0.0218
  335MOL0     H46189   6.087   8.622  10.354 -2.3820  2.3529 -2.4929
  335MOL0     H46190   6.190   8.539  10.240  1.7020 -0.4099  2.2530
  335MOL0     H46191   6.142   8.709  10.206  0.8101  0.5381 -0.6149
  335MOL0     H46192   6.197   8.190  10.314 -0.8375 -2.1941 -0.6378
  335MOL0     H46193   6.083   7.992  10.392 -2.9741 -1.4704  3.0192
  335MOL0     H46194   5.968   7.757  10.620  1.3108 -0.3445 -0.0974
  335MOL0     H46195   6.125   7.829  10.580 -0.1459  0.8706 -1.3877
  335MOL0     H46196   6.103   7.713  10.795  1.8002 -0.0525  0.7297
  335MOL0     H46197   6.142   7.890  10.827 -1.0474  1.0432 -0.8470
  335MOL0     H46198   5.881   7.763  10.897  0.7957 -0.7673  2.3448
  335MOL0     H46199   5.876   7.936  10.864 -1.9453 -0.8224  2.9260
  335MOL0     H46200   6.076   7.952  11.032 -0.5677 -0.2846 -0.3615
  335MOL0     H46201   6.044   7.782  11.047  3.2941 -0.0259 -3.4541
  335MOL0     H46202   5.926   7.962  11.223 -3.8752  0.5046  1.1010
  335MOL0     H46203   5.854   8.029  11.085 -1.0008  0.4407  0.6456
  335MOL0     H46204   5.691   7.901  11.062  0.9020 -1.5408 -0.5842
  335MOL0     H46205   5.725   7.927  11.241  0.2812 -1.2238  0.8100
  335MOL0     H46206   5.814   7.706  11.266  0.0734  1.9938 -0.2500
  335MOL0     H46207   5.837   7.664  11.110  1.7121  0.7223 -0.9020
  335MOL0     H46208   5.586   7.680  11.269  0.5899  2.4504 -0.9422
  335MOL0     H46209   5.647   7.541  11.187 -3.0119 -0.6683  0.8405
  335MOL0     H46210   6.046   8.147  10.777 -2.5463 -4.0606 -0.8559
  335MOL0     H46211   6.129   8.376  10.705 -1.3079 -1.4596  0.9809
  335MOL0     H46212   6.541   8.637  10.592 -1.0340  0.5975  0.5036
  335MOL0     H46213   6.570   8.878  10.549 -0.4599  0.8315  0.8911
  335MOL0     H46214   5.878   9.134  11.457  1.0839  0.4907 -0.1744
  335MOL0     H46215   6.112   9.164  11.505  3.9919 -1.8461 -0.0807
  335MOL0     H46216   6.492   8.990  11.499  0.4447 -0.0377 -4.3376
  335MOL0     H46217   6.716   9.002  11.625  0.0902 -0.7550 -0.5609
  335MOL0     H46218   6.918   9.048  11.556  0.3037  0.2453 -0.7176
  335MOL0     H46219   6.994   9.195  11.500 -0.7310 -1.1888 -1.4856
  335MOL0     H46220   7.174   9.062  11.609 -0.2038 -1.9395 -1.9334
  335MOL0     H46221   7.068   9.052  11.757 -0.1791  0.6939 -1.2734
  335MOL0     H46222   7.181   9.311  11.639 -1.3439  0.7703  1.0457
  335MOL0     H46223   7.094   9.310  11.783 -3.9480  2.1046 -3.7445
  335MOL0     H46224   7.364   9.240  11.739  0.8471  0.8589  0.3534
  335MOL0     H46225   7.275   9.137  11.855 -4.6063  0.3649  0.0439
  335MOL0     H46226   7.290   9.499  12.082  0.4945 -1.7087  1.2235
  335MOL0     H46227   6.738   9.415  11.601  1.2748 -1.3448  1.0428
  335MOL0     H46228   6.633   9.517  11.453  1.3014 -3.5154  1.5930
  335MOL0     H46229   6.512   9.463  11.332  0.0853  0.7817 -0.1011
  335MOL0     H46230   6.471   9.524  11.496  1.5612 -0.1169  1.5821
  336MOL0     O46231   1.208   9.806   2.785 -0.6654 -0.9614  0.3642
  336MOL0     C46232   1.097   9.835   2.756  0.7668  0.0037  0.1863
  336MOL0     O46233   1.041   9.796   2.640 -0.2076 -0.3834  1.1381
  336MOL0     C46234   1.108   9.717   2.550 -0.2841  1.0515  0.3597
  336MOL0     C46235   1.029   9.619   2.492  0.3949  0.7643 -1.3908
  336MOL0     C46236   1.076   9.516   2.412 -0.5845  0.2227 -0.1143
  336MOL0     C46237   1.204   9.548   2.347  0.4928 -1.1695 -0.6108
  336MOL0     O46238   1.273   9.483   2.253 -0.2284  0.5834 -0.6959
  336MOL0     C46239   1.192   9.412   2.163 -0.1271 -0.3164 -0.0121
  336MOL0     C46240   1.083   9.485   2.084 -0.1765 -1.0532  0.2131
  336MOL0     C46241   1.017   9.382   1.999 -0.6939 -0.1079  0.9641
  336MOL0     C46242   0.902   9.324   2.090 -0.3101 -0.5398 -0.1214
  336MOL0     C46243   0.815   9.216   2.018  0.0454 -0.2937 -0.0107
  336MOL0     C46244   0.667   9.229   2.059 -0.7194 -0.3396 -0.3512
  336MOL0     C46245   0.593   9.089   2.046 -0.5965  0.0510  0.6238
  336MOL0     C46246   0.439   9.099   2.056  0.8369 -0.7051 -0.5317
  336MOL0     N46247   0.413   9.156   2.194 -0.1909  0.0397  0.7409
  336MOL0     C46248   0.420   9.092   2.317  0.5136  0.2463  0.0595
  336MOL0     C46249   0.375   9.191   2.405 -0.6144 -0.3713  0.3829
  336MOL0     C46250   0.360   9.168   2.554 -0.5119 -0.4953  1.0519
  336MOL0     C46251   0.220   9.225   2.592 -0.7173  0.0090 -0.5764
  336MOL0     C46252   0.157   9.145   2.711 -1.2450 -0.3245 -0.5879
  336MOL0     C46253   0.205   9.199   2.846 -0.6973 -0.1865  0.4879
  336MOL0     O46254   0.340   9.143   2.859 -0.3254 -0.1194 -0.3128
  336MOL0     C46255   0.424   9.176   2.966 -0.0369  0.5016  0.1994
  336MOL0     C46256   0.541   9.098   2.985 -0.3815  0.0693 -0.9799
  336MOL0     C46257   0.622   9.099   3.099  0.1067 -0.1623  0.4566
  336MOL0     C46258   0.728   9.012   3.107 -0.8414  0.3162 -0.0945
  336MOL0     C46259   0.578   9.185   3.202 -0.5360  0.1022  0.0689
  336MOL0     C46260   0.642   9.189   3.336 -0.1436  1.6850  0.4584
  336MOL0     O46261   0.775   9.126   3.353 -0.2099  1.2057  0.3709
  336MOL0     C46262   0.860   9.149   3.466 -0.3788 -0.1784  0.2117
  336MOL0     C46263   0.971   9.062   3.477  0.5802 -0.4962 -0.6021
  336MOL0     C46264   1.051   9.067   3.593  0.6265  0.0825  0.1818
  336MOL0     C46265   1.016   9.143   3.702  0.2486  0.6079 -1.1220
  336MOL0     O46266   1.096   9.116   3.808 -0.0936 -0.2060 -0.1086
  336MOL0     C46267   1.054   9.166   3.932 -0.8383 -0.0161 -0.2365
  336MOL0     C46268   1.086   9.314   3.967  0.5050  1.2234  0.8270
  336MOL0     C46269   1.209   9.336   4.048  0.1082  0.5991 -0.6923
  336MOL0     C46270   1.205   9.270   4.194 -0.5713  0.2306  0.3933
  336MOL0     C46271   1.327   9.321   4.273  0.4023 -0.1336  0.7174
  336MOL0     C46272   1.300   9.295   4.415  0.2034 -0.1185 -0.0939
  336MOL0     C46273   1.405   9.355   4.503  0.7857 -0.1154  0.3272
  336MOL0     C46274   1.375   9.319   4.650  0.3090 -0.2381  0.1915
  336MOL0    Cl46275   1.458   9.427   4.771 -0.1437  0.3881 -0.0009
  336MOL0     C46276   0.919   9.239   3.685  0.6723  0.2780  0.6460
  336MOL0     C46277   0.833   9.239   3.572 -0.8709 -0.3595  0.1514
  336MOL0     O46278   0.578   9.255   3.417 -0.4761  0.3976 -0.7070
  336MOL0     C46279   0.463   9.270   3.178 -0.1831 -0.0928 -0.3172
  336MOL0     C46280   0.380   9.264   3.064 -0.3151 -0.0829 -0.0683
  336MOL0     N46281   0.344   9.306   2.332 -1.2582  0.7179 -0.4687
  336MOL0     N46282   0.365   9.279   2.210  0.3300  0.2861  0.0141
  336MOL0     C46283   1.280   9.655   2.401 -0.0514  0.3942  1.0667
  336MOL0     C46284   1.241   9.729   2.506  0.0295 -0.3438  0.5356
  336MOL0     C46285   0.999   9.886   2.872 -0.5089  1.2409  0.7272
  336MOL0     C46286   0.875   9.930   2.829  0.5384 -0.5307 -0.1123
  336MOL0     C46287   0.787   9.975   2.922  0.1837 -0.5782 -1.0901
  336MOL0     C46288   0.814   9.976   3.061  0.5512 -0.3778  1.6207
  336MOL0     O46289   0.733  10.030   3.155  0.0746 -0.3815  0.4375
  336MOL0     C46290   0.644   9.937   3.207  1.3188 -0.4196  0.1421
  336MOL0     C46291   0.497   9.965   3.175 -0.3660  0.2764 -0.4835
  336MOL0     C46292   0.432  10.073   3.267 -0.2349 -0.1452 -0.3438
  336MOL0     C46293   0.461  10.216   3.215  0.0884  0.0752 -0.1263
  336MOL0     C46294   0.383  10.325   3.292  0.6669  1.0779 -0.9766
  336MOL0     C46295   0.316  10.413   3.351 -0.5491 -0.6992 -0.1337
  336MOL0     C46296   0.937   9.941   3.100 -0.6091 -0.5911  0.2676
  336MOL0     C46297   1.035   9.892   3.008  0.4025 -0.3097  0.1612
  336MOL0     C46298   1.168   9.845   3.064 -0.6208 -0.3412  0.5177
  336MOL0     H46299   0.929   9.616   2.533  0.2795  1.0062 -1.6556
  336MOL0     H46300   1.022   9.429   2.377 -2.0432  1.7553 -1.8980
  336MOL0     H46301   1.135   9.347   2.230 -2.0465  0.3025 -0.9794
  336MOL0     H46302   1.258   9.351   2.100  1.4975  1.8138 -0.4854
  336MOL0     H46303   1.006   9.541   2.138  0.2044  0.1648 -0.4804
  336MOL0     H46304   1.135   9.563   2.028 -1.0626 -2.4010 -2.6583
  336MOL0     H46305   0.981   9.422   1.904  1.9433 -0.1996 -0.1423
  336MOL0     H46306   1.079   9.299   1.964 -0.8332  1.5534 -4.0771
  336MOL0     H46307   0.949   9.280   2.179  0.1230  2.3519  1.1976
  336MOL0     H46308   0.841   9.408   2.123  0.7620  0.7803 -1.3629
  336MOL0     H46309   0.846   9.114   2.041 -0.7079 -1.5393 -3.8392
  336MOL0     H46310   0.819   9.223   1.909 -1.6626 -1.2392 -0.1573
  336MOL0     H46311   0.654   9.247   2.166 -1.7464  1.8009 -0.7708
  336MOL0     H46312   0.620   9.304   1.994  0.0488 -0.5106 -1.1155
  336MOL0     H46313   0.630   9.020   2.122  0.2587 -2.9356 -2.2796
  336MOL0     H46314   0.619   9.034   1.955 -0.5501 -1.7542  1.6975
  336MOL0     H46315   0.394   9.162   1.979 -0.5772  1.0625  1.5816
  336MOL0     H46316   0.394   9.001   2.042 -0.0103 -0.2790 -0.8467
  336MOL0     H46317   0.454   8.993   2.346  1.1107  0.6725  0.8820
  336MOL0     H46318   0.435   9.214   2.620 -1.0502  1.8113  0.1613
  336MOL0     H46319   0.359   9.062   2.579 -1.7119 -0.4976  1.0336
  336MOL0     H46320   0.235   9.333   2.609  0.1509 -0.2907  0.7697
  336MOL0     H46321   0.153   9.219   2.506 -0.7681  0.4926 -0.5766
  336MOL0     H46322   0.048   9.141   2.709 -1.2430 -0.0670 -2.1925
  336MOL0     H46323   0.194   9.042   2.718 -0.4173  0.0304  0.6259
  336MOL0     H46324   0.194   9.308   2.852 -2.2989 -0.1304 -2.1112
  336MOL0     H46325   0.160   9.151   2.933 -0.1005  0.8335  1.3842
  336MOL0     H46326   0.564   9.045   2.893  2.8264  1.9121 -1.3721
  336MOL0     H46327   0.731   8.944   3.022  1.5702  0.8824 -0.5376
  336MOL0     H46328   0.722   8.943   3.192 -0.1719 -1.7989 -1.6762
  336MOL0     H46329   0.826   9.061   3.104  0.1821 -1.6457 -0.6937
  336MOL0     H46330   0.984   8.986   3.401  2.5619  0.6602 -1.4986
  336MOL0     H46331   1.140   9.008   3.609  1.0971  1.5875  4.4352
  336MOL0     H46332   0.945   9.174   3.943 -0.6655  1.0927  0.8864
  336MOL0     H46333   1.099   9.098   4.004  3.0700  3.1080  0.6041
  336MOL0     H46334   1.109   9.352   3.867 -2.5650 -3.0661 -1.8714
  336MOL0     H46335   1.004   9.370   4.012 -1.3945 -0.2855 -0.5683
  336MOL0     H46336   1.230   9.444   4.055 -1.0716  0.7334  2.6596
  336MOL0     H46337   1.288   9.284   3.994 -1.6363 -2.2199 -0.7110
  336MOL0     H46338   1.199   9.161   4.198  0.4255  0.1729  0.6281
  336MOL0     H46339   1.117   9.304   4.249 -0.2449 -0.6315  1.4922
  336MOL0     H46340   1.425   9.286   4.239  1.1692  1.9814  0.6189
  336MOL0     H46341   1.341   9.423   4.235  3.2377 -1.6634 -3.0324
  336MOL0     H46342   1.277   9.188   4.422 -0.9235  0.1309  0.2343
  336MOL0     H46343   1.214   9.351   4.452  1.7073  3.2206 -1.2385
  336MOL0     H46344   1.408   9.463   4.486 -1.8916  0.1511  1.0638
  336MOL0     H46345   1.501   9.320   4.463  0.9849  1.9138 -1.1635
  336MOL0     H46346   1.398   9.214   4.672 -1.2452 -0.4112  1.1832
  336MOL0     H46347   1.269   9.331   4.673  1.1476  3.2999  3.0270
  336MOL0     H46348   0.902   9.313   3.762  2.5943 -0.7680  2.1473
  336MOL0     H46349   0.744   9.301   3.575  0.3514  1.7735 -2.8841
  336MOL0     H46350   0.431   9.324   3.267  0.9707  1.3438 -0.7279
  336MOL0     H46351   0.294   9.328   3.044 -1.5427 -1.6111  0.1643
  336MOL0     H46352   1.375   9.682   2.354 -1.4883 -0.1971 -2.5582
  336MOL0     H46353   1.294   9.810   2.555  3.7188 -1.5728 -1.0640
  336MOL0     H46354   0.850   9.917   2.724  0.5548 -1.8823  0.0237
  336MOL0     H46355   0.694  10.013   2.880 -0.5660 -2.5764 -1.3264
  336MOL0     H46356   0.676   9.837   3.178  0.3978 -0.9382  0.8775
  336MOL0     H46357   0.652   9.926   3.316  1.8112 -1.4766  0.0128
  336MOL0     H46358   0.449   9.867   3.186  2.3749 -1.0356  0.8271
  336MOL0     H46359   0.476   9.996   3.072 -1.9990 -0.4227 -0.3977
  336MOL0     H46360   0.326  10.046   3.260 -0.1124 -1.4166  1.6963
  336MOL0     H46361   0.446  10.060   3.375 -0.3568 -0.4255 -0.3582
  336MOL0     H46362   0.430  10.219   3.110 -0.8431 -0.9223  0.0978
  336MOL0     H46363   0.568  10.241   3.216  0.0553  0.2206 -0.2501
  336MOL0     H46364   0.262  10.474   3.420  0.9088  1.1094 -0.4874
  336MOL0     H46365   0.971   9.943   3.203 -1.1490 -2.0442  0.5077
  336MOL0     H46366   1.163   9.827   3.172  2.3180 -2.8954  0.3713
  336MOL0     H46367   1.207   9.748   3.034  2.0002  0.0714  2.2396
  336MOL0     H46368   1.249   9.914   3.038 -0.8796  0.0080  0.6208
  337MOL0     O46369   7.731  10.478   3.570  0.3123  0.0264  0.7820
  337MOL0     C46370   7.697  10.462   3.453  0.5090 -0.0180  0.3125
  337MOL0     O46371   7.626  10.349   3.409 -0.4158 -0.3607 -0.3844
  337MOL0     C46372   7.570  10.267   3.504 -0.6776 -0.2918 -1.1087
  337MOL0     C46373   7.441  10.278   3.543 -0.3872  0.4879  0.2348
  337MOL0     C46374   7.388  10.214   3.654  0.0615 -0.2678 -0.2605
  337MOL0     C46375   7.473  10.123   3.721  0.1937  0.3428 -0.5121
  337MOL0     O46376   7.420  10.061   3.827 -0.8213 -0.1391 -0.5488
  337MOL0     C46377   7.381   9.927   3.800 -0.1720 -0.2706 -0.7266
  337MOL0     C46378   7.385   9.844   3.929  0.0241  0.7778 -0.9071
  337MOL0     C46379   7.299   9.910   4.043 -1.5515 -0.2318  0.3562
  337MOL0     C46380   7.157   9.943   4.008 -0.3430  0.6983 -0.0346
  337MOL0     C46381   7.064  10.001   4.118  1.0072 -0.4895 -0.3203
  337MOL0     C46382   7.054   9.924   4.249 -0.0763 -0.9519  0.0233
  337MOL0     C46383   6.982   9.790   4.234 -0.1816 -0.9003  0.1414
  337MOL0     C46384   6.973   9.727   4.374 -0.8304  1.1918 -0.1339
  337MOL0     N46385   6.890   9.606   4.370 -0.5984  0.0175  0.3905
  337MOL0     C46386   6.882   9.491   4.282 -0.1265 -0.8189  0.1162
  337MOL0     C46387   6.800   9.402   4.338 -0.0614  0.2611  0.2573
  337MOL0     C46388   6.769   9.266   4.281  0.3826  0.2601 -1.1463
  337MOL0     C46389   6.615   9.255   4.289 -0.2962 -0.3283  0.5201
  337MOL0     C46390   6.576   9.112   4.224 -1.1104 -0.1621 -0.6920
  337MOL0     C46391   6.528   9.128   4.083  1.2636 -0.2500 -0.7644
  337MOL0     O46392   6.555   9.006   4.015 -0.1183 -0.6869  0.1068
  337MOL0     C46393   6.452   8.929   3.975  0.0785 -0.4596  0.0410
  337MOL0     C46394   6.486   8.835   3.877 -0.3138  0.6567  0.2972
  337MOL0     C46395   6.402   8.724   3.851 -1.0280 -0.5451  0.7369
  337MOL0     C46396   6.451   8.610   3.755  0.0939 -0.5768  0.6269
  337MOL0     C46397   6.278   8.712   3.909 -0.2118 -0.0193  0.7711
  337MOL0     C46398   6.186   8.600   3.891 -0.3751  0.4403 -0.5560
  337MOL0     O46399   6.048   8.620   3.874  0.0977 -0.7056 -0.6157
  337MOL0     C46400   5.952   8.527   3.859 -0.4439 -0.3658 -0.1830
  337MOL0     C46401   5.963   8.384   3.840 -0.7404 -0.1083 -0.3999
  337MOL0     C46402   5.855   8.303   3.844  0.2674 -0.0262 -0.8999
  337MOL0     C46403   5.728   8.343   3.886  1.1598  0.7272 -0.1287
  337MOL0     O46404   5.633   8.243   3.874 -0.3673  0.0399  0.4353
  337MOL0     C46405   5.503   8.275   3.939  0.4015  0.9459  0.0125
  337MOL0     C46406   5.445   8.138   3.973  0.7755 -0.0449  0.0587
  337MOL0     C46407   5.529   8.065   4.083 -0.5111  0.1940 -0.6792
  337MOL0     C46408   5.446   7.937   4.121  1.1015  0.0805  0.4051
  337MOL0     C46409   5.534   7.861   4.226 -0.1305 -1.1713 -0.0671
  337MOL0     C46410   5.551   7.927   4.359  0.2236 -0.3790 -0.7230
  337MOL0     C46411   5.692   7.973   4.394  0.0691 -0.1352 -0.1310
  337MOL0     C46412   5.704   8.031   4.538 -0.7414  0.0585 -0.1747
  337MOL0    Cl46413   5.597   8.170   4.572  0.3832 -0.2399  0.1682
  337MOL0     C46414   5.715   8.480   3.905  0.2563 -0.5852 -2.1979
  337MOL0     C46415   5.825   8.571   3.888  0.1399  0.0735 -0.3457
  337MOL0     O46416   6.241   8.493   3.909  0.1283  0.6509 -0.1682
  337MOL0     C46417   6.243   8.805   3.998  0.1651 -0.2356  0.5714
  337MOL0     C46418   6.330   8.906   4.041 -0.1611 -0.1649  0.1904
  337MOL0     N46419   6.762   9.449   4.459 -1.1360  0.7754 -0.0265
  337MOL0     N46420   6.814   9.572   4.474 -0.0500 -0.8274  0.1755
  337MOL0     C46421   7.597  10.102   3.672  0.2540 -0.1838 -0.3109
  337MOL0     C46422   7.649  10.177   3.566  0.3388  0.1891 -0.9167
  337MOL0     C46423   7.752  10.550   3.341 -0.1108 -0.5858 -0.8078
  337MOL0     C46424   7.723  10.521   3.207  1.3228 -0.4561 -0.4549
  337MOL0     C46425   7.782  10.603   3.104 -0.4021  0.1755 -0.7242
  337MOL0     C46426   7.841  10.729   3.147  0.4321 -0.1447 -0.4727
  337MOL0     O46427   7.893  10.818   3.059  0.4315  0.7279  0.1195
  337MOL0     C46428   7.853  10.816   2.915 -0.3521 -0.6691 -0.4214
  337MOL0     C46429   7.882  10.952   2.860 -0.0250  0.5619 -0.2001
  337MOL0     C46430   7.785  11.051   2.916  0.2391 -0.6152  1.3830
  337MOL0     C46431   7.771  11.172   2.830 -0.7845 -0.1383 -0.1800
  337MOL0     C46432   7.656  11.254   2.864 -0.1316 -0.1598  0.7869
  337MOL0     C46433   7.556  11.318   2.887  0.3153 -0.0377  1.1269
  337MOL0     C46434   7.870  10.757   3.278 -0.5461 -1.1000  0.8485
  337MOL0     C46435   7.823  10.666   3.375 -0.8127  0.5656  0.9882
  337MOL0     C46436   7.859  10.702   3.514 -0.5114 -0.2833  0.7377
  337MOL0     H46437   7.394  10.367   3.502 -0.2597  0.4774  0.0591
  337MOL0     H46438   7.285  10.232   3.682  0.0489  0.3539 -0.6851
  337MOL0     H46439   7.458   9.883   3.735  0.7218  2.0842 -1.3571
  337MOL0     H46440   7.279   9.919   3.762 -0.1256  2.0325 -1.4715
  337MOL0     H46441   7.343   9.744   3.913 -1.1296  1.1104 -0.0830
  337MOL0     H46442   7.488   9.834   3.963  0.0385  0.5077 -1.0245
  337MOL0     H46443   7.312   9.850   4.134 -0.2609 -0.8727 -0.2163
  337MOL0     H46444   7.342  10.008   4.063  2.3975 -1.7287  0.1696
  337MOL0     H46445   7.156  10.011   3.923 -0.1694  2.7762  1.5431
  337MOL0     H46446   7.109   9.851   3.972  0.6003  0.2046 -0.0930
  337MOL0     H46447   6.960  10.014   4.086  0.5993  3.4419  1.9311
  337MOL0     H46448   7.100  10.103   4.136 -3.1356  2.0471 -4.2245
  337MOL0     H46449   7.155   9.898   4.283  0.3195 -2.1320 -1.9137
  337MOL0     H46450   7.009   9.981   4.331  1.3756 -1.4039  1.1828
  337MOL0     H46451   7.028   9.727   4.157 -4.1758  0.8400 -4.1798
  337MOL0     H46452   6.879   9.805   4.201 -0.5263 -0.3876  1.3916
  337MOL0     H46453   7.076   9.693   4.389  0.6183  4.8767 -0.5520
  337MOL0     H46454   6.947   9.804   4.447 -0.2491  2.8232 -1.5463
  337MOL0     H46455   6.935   9.463   4.192 -2.1354 -0.7558 -1.1395
  337MOL0     H46456   6.818   9.189   4.341  2.4270  1.6019 -0.9871
  337MOL0     H46457   6.808   9.269   4.179 -2.4702  2.7136 -2.3266
  337MOL0     H46458   6.577   9.265   4.391 -0.5854  1.6319  0.2703
  337MOL0     H46459   6.559   9.329   4.231  1.8815  1.8411  1.0312
  337MOL0     H46460   6.657   9.039   4.221 -0.6975  0.0469  2.1000
  337MOL0     H46461   6.499   9.051   4.274 -0.6869 -1.1463 -1.2036
  337MOL0     H46462   6.426   9.166   4.082  0.7766 -1.2881  1.8609
  337MOL0     H46463   6.597   9.205   4.047 -1.2998  1.6924 -1.7608
  337MOL0     H46464   6.583   8.834   3.828 -0.3437 -1.3273  0.2163
  337MOL0     H46465   6.479   8.519   3.808 -0.5230 -0.5066  1.0804
  337MOL0     H46466   6.541   8.642   3.701 -0.4275 -1.9662 -1.1500
  337MOL0     H46467   6.368   8.584   3.689 -2.0105  1.2365  2.3899
  337MOL0     H46468   6.066   8.368   3.809 -0.3044  0.8282  0.4697
  337MOL0     H46469   5.892   8.203   3.822  1.8989  0.8569 -2.3736
  337MOL0     H46470   5.507   8.349   4.019 -0.2638  0.3482  0.6144
  337MOL0     H46471   5.429   8.312   3.866  0.9731  1.8528 -0.1317
  337MOL0     H46472   5.344   8.148   4.014  1.1817 -0.1125  1.0974
  337MOL0     H46473   5.446   8.071   3.886 -0.8326 -0.6429  0.4657
  337MOL0     H46474   5.544   8.112   4.181  2.1644 -0.1752 -0.8236
  337MOL0     H46475   5.627   8.038   4.042  0.0313  2.0470 -0.6867
  337MOL0     H46476   5.448   7.874   4.031 -2.2652 -0.2107  0.3950
  337MOL0     H46477   5.339   7.944   4.142  0.5998 -1.6197 -1.2737
  337MOL0     H46478   5.496   7.759   4.242 -3.6432 -0.1022 -0.6236
  337MOL0     H46479   5.633   7.841   4.185  0.1785 -1.4816  0.8016
  337MOL0     H46480   5.520   7.850   4.429 -1.1913 -0.2213 -1.1491
  337MOL0     H46481   5.482   8.012   4.362  0.7981  0.3025 -3.3584
  337MOL0     H46482   5.716   8.055   4.325 -1.1386 -1.5201 -2.3352
  337MOL0     H46483   5.760   7.888   4.380 -0.9447 -0.8763 -0.6562
  337MOL0     H46484   5.805   8.068   4.557 -0.2691 -1.2431 -0.0487
  337MOL0     H46485   5.688   7.943   4.601 -2.4071  0.7794  0.4913
  337MOL0     H46486   5.616   8.511   3.937  1.3033 -1.6056  2.7293
  337MOL0     H46487   5.803   8.675   3.909  2.9721  0.8581 -0.8072
  337MOL0     H46488   6.146   8.797   4.048 -0.2038  2.0363  0.3405
  337MOL0     H46489   6.295   8.979   4.113  2.2144  2.3197 -0.9696
  337MOL0     H46490   7.661  10.032   3.726  1.6519  1.6792  0.5362
  337MOL0     H46491   7.755  10.175   3.542  0.6000 -0.2198  0.1756
  337MOL0     H46492   7.661  10.435   3.186  3.0659 -1.8040 -0.3185
  337MOL0     H46493   7.774  10.570   3.001  0.1724 -0.5540 -0.5480
  337MOL0     H46494   7.919  10.751   2.858 -1.6627  0.2742 -3.2120
  337MOL0     H46495   7.748  10.791   2.900 -0.4393 -1.1038  0.7664
  337MOL0     H46496   7.876  10.955   2.751 -0.5040 -0.2985 -0.2032
  337MOL0     H46497   7.977  10.994   2.895 -1.4363  4.8013 -0.8733
  337MOL0     H46498   7.684  11.010   2.920 -1.2808  2.2744 -1.9352
  337MOL0     H46499   7.812  11.083   3.017 -0.4279 -1.2470  1.7674
  337MOL0     H46500   7.775  11.156   2.722 -0.9427  3.0588 -0.7582
  337MOL0     H46501   7.855  11.238   2.855  1.0739 -3.0102  1.8369
  337MOL0     H46502   7.463  11.363   2.917 -1.3051 -2.1812 -0.3617
  337MOL0     H46503   7.894  10.861   3.295 -2.2806 -0.6780  0.9067
  337MOL0     H46504   7.770  10.714   3.576 -2.2027 -1.6350 -1.2569
  337MOL0     H46505   7.913  10.622   3.565 -1.5070 -0.5218  1.4496
  337MOL0     H46506   7.919  10.792   3.526 -0.4552 -0.2709  0.3875
  338MOL0     O46507   6.145   6.656   9.528 -0.9772  0.2304  0.9906
  338MOL0     C46508   6.113   6.537   9.525  0.6226  0.0776  0.2136
  338MOL0     O46509   6.153   6.443   9.432 -0.0946  0.3541 -0.4512
  338MOL0     C46510   6.251   6.479   9.344 -0.5795 -0.4552 -0.3270
  338MOL0     C46511   6.383   6.422   9.358  0.5545  0.5409 -0.0220
  338MOL0     C46512   6.485   6.430   9.264 -0.3807  0.1394 -0.0032
  338MOL0     C46513   6.468   6.499   9.150  0.3879 -0.2184 -0.2294
  338MOL0     O46514   6.570   6.485   9.056  0.1088 -0.3042  0.3217
  338MOL0     C46515   6.549   6.563   8.935 -0.0138 -0.9651  0.0110
  338MOL0     C46516   6.660   6.539   8.832 -0.0319 -0.1324 -0.6005
  338MOL0     C46517   6.712   6.673   8.773  0.3301  0.0237 -0.7428
  338MOL0     C46518   6.788   6.764   8.868  0.3789  0.5500  0.5399
  338MOL0     C46519   6.855   6.879   8.799  0.2229 -0.1531 -0.9852
  338MOL0     C46520   6.977   6.934   8.882  0.3075  0.3719 -0.3216
  338MOL0     C46521   7.051   7.050   8.823 -0.2720 -0.4489 -0.3956
  338MOL0     C46522   7.096   7.028   8.678  0.2685  0.8223  0.3095
  338MOL0     N46523   7.191   7.134   8.652  0.5348  0.0344  0.2635
  338MOL0     C46524   7.302   7.155   8.728  0.4590 -0.6525 -0.3042
  338MOL0     C46525   7.356   7.272   8.676  0.4053  0.9883  0.1697
  338MOL0     C46526   7.491   7.320   8.726 -0.4917 -0.8456  0.0212
  338MOL0     C46527   7.477   7.388   8.860 -0.2718  0.9312  1.8128
  338MOL0     C46528   7.613   7.400   8.932  0.1057 -0.0831 -0.8785
  338MOL0     C46529   7.604   7.471   9.063  0.4157  0.6655 -0.1927
  338MOL0     O46530   7.562   7.609   9.053  0.2087  0.4937  0.2343
  338MOL0     C46531   7.539   7.688   9.168  0.0021  0.4443 -0.1451
  338MOL0     C46532   7.501   7.823   9.149 -0.2786 -0.2514  0.6024
  338MOL0     C46533   7.479   7.907   9.260 -0.4115  0.2170 -0.7097
  338MOL0     C46534   7.407   8.034   9.234  0.3265 -0.8557 -0.5062
  338MOL0     C46535   7.508   7.864   9.396  0.7009 -0.1011 -0.8073
  338MOL0     C46536   7.488   7.948   9.519 -0.9256  0.8976 -0.5654
  338MOL0     O46537   7.475   7.882   9.638 -0.8454 -0.1168  0.0855
  338MOL0     C46538   7.456   7.940   9.765  1.1738  0.1979  0.4425
  338MOL0     C46539   7.390   8.062   9.779 -0.0621  0.0159 -0.5114
  338MOL0     C46540   7.376   8.113   9.910 -0.4152 -0.2529 -0.3613
  338MOL0     C46541   7.422   8.048  10.021  0.4474 -0.4568 -0.6502
  338MOL0     O46542   7.417   8.103  10.144  0.1448 -0.1827 -0.4280
  338MOL0     C46543   7.469   8.228  10.170  0.7168 -0.1954  0.1879
  338MOL0     C46544   7.480   8.237  10.321  0.0057 -0.4012  0.1255
  338MOL0     C46545   7.530   8.365  10.377 -0.3212 -0.1347 -0.7471
  338MOL0     C46546   7.602   8.344  10.508 -0.2837  0.4885  0.6193
  338MOL0     C46547   7.636   8.481  10.574 -0.6390  0.4803 -0.2204
  338MOL0     C46548   7.778   8.522  10.523 -0.0044 -0.2508 -0.9770
  338MOL0     C46549   7.848   8.615  10.625 -0.5218  0.5286  0.3347
  338MOL0     C46550   7.996   8.629  10.589 -0.2140  0.2671 -0.1190
  338MOL0    Cl46551   8.075   8.475  10.636  0.0658  0.1651 -0.1784
  338MOL0     C46552   7.483   7.925  10.006  0.9209 -0.3527 -0.4609
  338MOL0     C46553   7.495   7.871   9.883 -0.5594  1.0335  1.2696
  338MOL0     O46554   7.499   8.069   9.508  0.1513  0.4176 -0.6883
  338MOL0     C46555   7.546   7.721   9.412  0.3407 -0.7121  0.1331
  338MOL0     C46556   7.558   7.639   9.306 -0.4514  0.1428  1.1781
  338MOL0     N46557   7.284   7.319   8.572 -0.2265  0.8172  0.6419
  338MOL0     N46558   7.183   7.237   8.561  0.9676  0.1177  0.6067
  338MOL0     C46559   6.343   6.568   9.133  0.7368 -0.3222  0.1756
  338MOL0     C46560   6.239   6.556   9.230  0.3520 -0.1485  0.1802
  338MOL0     C46561   6.006   6.489   9.614  0.1063  0.6931  0.0662
  338MOL0     C46562   6.028   6.508   9.755 -0.2809  0.7990 -0.1846
  338MOL0     C46563   5.938   6.468   9.849 -0.9610  0.6080 -0.2674
  338MOL0     C46564   5.824   6.395   9.807 -0.7568  0.6492  0.0942
  338MOL0     O46565   5.727   6.342   9.886 -0.0809 -0.0335  0.1640
  338MOL0     C46566   5.643   6.442   9.948 -0.5273  0.1532  0.2261
  338MOL0     C46567   5.534   6.368  10.011  0.3208  0.3511  0.1607
  338MOL0     C46568   5.559   6.305  10.147  0.3127  0.1253 -0.4079
  338MOL0     C46569   5.442   6.229  10.189  0.0068 -0.5943 -0.1126
  338MOL0     C46570   5.416   6.106  10.114 -1.1962 -0.5932  0.1397
  338MOL0     C46571   5.416   6.007  10.042 -0.3172  0.6065  0.2220
  338MOL0     C46572   5.803   6.374   9.669 -0.6514 -1.1970 -0.3792
  338MOL0     C46573   5.891   6.424   9.567  0.2366  0.4770 -0.7330
  338MOL0     C46574   5.842   6.420   9.421  0.3025 -0.0315 -0.2648
  338MOL0     H46575   6.404   6.357   9.443  1.3289  3.1601  1.9412
  338MOL0     H46576   6.575   6.370   9.265  1.8962  3.2965 -0.7267
  338MOL0     H46577   6.553   6.668   8.967 -1.1201 -1.5659  2.3438
  338MOL0     H46578   6.452   6.547   8.887  0.4349  1.4763 -1.9288
  338MOL0     H46579   6.744   6.492   8.882  1.0302  1.7335 -0.5296
  338MOL0     H46580   6.620   6.488   8.743 -0.0606  2.4462 -2.1690
  338MOL0     H46581   6.784   6.650   8.695  1.3599  0.3904  0.0678
  338MOL0     H46582   6.629   6.727   8.728  1.2306  1.1794 -1.0803
  338MOL0     H46583   6.715   6.802   8.939 -1.0630 -2.9198  1.1204
  338MOL0     H46584   6.871   6.718   8.922  0.0399 -1.2936 -0.4261
  338MOL0     H46585   6.782   6.956   8.770  1.4042  1.0255 -0.9206
  338MOL0     H46586   6.886   6.836   8.704 -1.5008 -2.1971 -0.7012
  338MOL0     H46587   6.935   6.960   8.979  0.4511  1.8086 -0.6138
  338MOL0     H46588   7.059   6.864   8.899  1.9886  2.2034 -0.4869
  338MOL0     H46589   7.133   7.081   8.890  0.2123  2.4293 -2.1520
  338MOL0     H46590   6.979   7.131   8.806  0.1766 -0.4295 -2.4303
  338MOL0     H46591   7.133   6.927   8.660 -0.7797  0.3274  0.8376
  338MOL0     H46592   7.020   7.037   8.600  3.3069  1.2440 -2.8770
  338MOL0     H46593   7.334   7.102   8.817 -2.1551 -1.7846  0.0493
  338MOL0     H46594   7.550   7.382   8.658  0.1593 -0.0549  1.2863
  338MOL0     H46595   7.562   7.238   8.734 -0.6676 -1.1293 -1.0887
  338MOL0     H46596   7.432   7.485   8.836 -0.1544  0.0708 -2.8078
  338MOL0     H46597   7.410   7.328   8.923  0.9649  0.1686  2.4417
  338MOL0     H46598   7.642   7.295   8.945 -0.5129 -0.4259 -2.0678
  338MOL0     H46599   7.685   7.448   8.865  1.6008  1.0069  1.3993
  338MOL0     H46600   7.539   7.412   9.128  2.8264 -0.5496  1.2324
  338MOL0     H46601   7.703   7.465   9.110 -0.5262 -1.0643  1.7367
  338MOL0     H46602   7.498   7.862   9.048  2.6678  0.1643  0.5989
  338MOL0     H46603   7.380   8.039   9.128 -0.7736 -0.8521 -0.2347
  338MOL0     H46604   7.458   8.128   9.260 -1.5907  0.2078 -0.4011
  338MOL0     H46605   7.314   8.042   9.291 -0.6860 -0.4675 -2.1526
  338MOL0     H46606   7.343   8.117   9.699  2.5550  1.5330 -1.1494
  338MOL0     H46607   7.316   8.199   9.937 -1.5221 -0.7959 -1.0392
  338MOL0     H46608   7.567   8.238  10.122  0.4335 -2.5060 -0.9872
  338MOL0     H46609   7.401   8.302  10.126  1.6226 -0.4596 -1.7314
  338MOL0     H46610   7.377   8.218  10.354  0.1139  0.8633  1.2466
  338MOL0     H46611   7.540   8.154  10.359  1.3056  0.5322  0.1569
  338MOL0     H46612   7.436   8.416  10.400 -1.7587 -1.3949 -3.3555
  338MOL0     H46613   7.586   8.425  10.304 -1.0294 -0.2668 -1.4152
  338MOL0     H46614   7.693   8.284  10.494  0.1655  0.5724  2.8853
  338MOL0     H46615   7.541   8.284  10.575 -1.0646 -1.1423 -1.4239
  338MOL0     H46616   7.567   8.554  10.530 -1.4233  0.3462  0.7598
  338MOL0     H46617   7.632   8.480  10.683 -1.3202  0.5143 -0.2413
  338MOL0     H46618   7.762   8.566  10.424 -3.5093  3.7831  1.0974
  338MOL0     H46619   7.844   8.434  10.522  1.1906  0.5632  0.9799
  338MOL0     H46620   7.833   8.580  10.727 -1.9351 -1.0812 -0.3743
  338MOL0     H46621   7.800   8.713  10.633  0.1340  0.7366  2.3697
  338MOL0     H46622   8.037   8.721  10.632 -0.5932  0.0967  0.6295
  338MOL0     H46623   8.007   8.628  10.480  1.1260 -1.4096 -0.0177
  338MOL0     H46624   7.504   7.867  10.096  3.2870 -0.6371 -1.1281
  338MOL0     H46625   7.545   7.775   9.877 -3.8199 -0.7749  0.5105
  338MOL0     H46626   7.572   7.677   9.508  1.5550  1.5104  0.9094
  338MOL0     H46627   7.587   7.535   9.314  1.7179  0.6844  1.0323
  338MOL0     H46628   6.324   6.632   9.048  1.1868 -2.5470 -1.7251
  338MOL0     H46629   6.146   6.608   9.211  0.7507  0.0069 -1.4813
  338MOL0     H46630   6.119   6.559   9.783 -0.0517 -0.8899  2.4974
  338MOL0     H46631   5.959   6.502   9.950 -1.0969 -1.0917  0.3701
  338MOL0     H46632   5.703   6.486  10.028  2.4560 -3.6960  0.4181
  338MOL0     H46633   5.601   6.515   9.878 -1.6991  0.2587  1.0190
  338MOL0     H46634   5.503   6.286   9.945  0.8282  2.2779 -2.6785
  338MOL0     H46635   5.455   6.440  10.031 -0.1282 -0.0299 -0.2062
  338MOL0     H46636   5.642   6.235  10.162  0.6277  1.1669  4.4537
  338MOL0     H46637   5.572   6.386  10.219 -1.2894  0.0887 -0.0617
  338MOL0     H46638   5.351   6.289  10.198  0.4443 -0.0536  0.8779
  338MOL0     H46639   5.457   6.194  10.292 -3.8524 -1.4422  0.3390
  338MOL0     H46640   5.405   5.918   9.984 -0.1790 -0.0218  1.1444
  338MOL0     H46641   5.711   6.324   9.640 -1.0081  0.8415 -3.1389
  338MOL0     H46642   5.745   6.468   9.410 -0.9988 -1.9479  1.9695
  338MOL0     H46643   5.913   6.486   9.369  1.5935  0.0176  1.4720
  338MOL0     H46644   5.842   6.320   9.377  1.5804 -0.0771 -0.1985
  339MOL0     O46645   8.864   1.362   2.328  0.5050 -0.5466 -0.1518
  339MOL0     C46646   8.899   1.434   2.239  0.1473  0.0723 -0.0497
  339MOL0     O46647   8.978   1.392   2.134 -0.2746 -0.2711  0.3892
  339MOL0     C46648   9.017   1.262   2.143 -0.0644 -0.6491  0.5944
  339MOL0     C46649   9.126   1.217   2.219  0.0561  0.6311  0.6404
  339MOL0     C46650   9.145   1.077   2.226 -0.3434  0.1812  1.0209
  339MOL0     C46651   9.066   0.978   2.152  0.1120 -0.9984  0.4538
  339MOL0     O46652   9.099   0.847   2.145 -0.1912 -0.3887  0.5459
  339MOL0     C46653   9.187   0.788   2.245  0.6128 -0.4119  1.1596
  339MOL0     C46654   9.186   0.645   2.241  1.2792  1.5205  0.5468
  339MOL0     C46655   9.268   0.578   2.132 -0.4273 -0.6504  0.0156
  339MOL0     C46656   9.247   0.431   2.134  0.4513  0.2603 -0.0435
  339MOL0     C46657   9.316   0.363   2.017 -0.1106 -0.2263 -0.9807
  339MOL0     C46658   9.265   0.397   1.867  0.0624 -0.3659 -0.0999
  339MOL0     C46659   9.347   0.303   1.762 -0.5465 -0.1307  1.1610
  339MOL0     C46660   9.479   0.371   1.712 -0.0751  0.0983 -0.3646
  339MOL0     N46661   9.461   0.486   1.619 -0.9188  0.2150  0.0783
  339MOL0     C46662   9.511   0.611   1.636 -1.1427 -0.5884 -0.3092
  339MOL0     C46663   9.464   0.681   1.529  0.0330 -0.0821 -0.0517
  339MOL0     C46664   9.499   0.825   1.495  0.3653  0.3254 -0.1081
  339MOL0     C46665   9.563   0.831   1.356 -0.4433  0.1556  0.6144
  339MOL0     C46666   9.463   0.794   1.244  0.1238  0.4607 -0.2045
  339MOL0     C46667   9.494   0.846   1.104 -0.1745 -0.1007  0.5486
  339MOL0     O46668   9.442   0.978   1.095 -0.9187  0.3788 -0.7171
  339MOL0     C46669   9.432   1.035   0.972  0.2847 -0.6294 -0.2095
  339MOL0     C46670   9.361   1.152   0.979  0.3762 -0.8132 -0.1399
  339MOL0     C46671   9.323   1.228   0.864  0.2894  1.0520  0.3711
  339MOL0     C46672   9.260   1.361   0.889  0.6115 -0.2955 -0.1338
  339MOL0     C46673   9.355   1.171   0.736 -1.1000 -1.1409 -0.8321
  339MOL0     C46674   9.313   1.235   0.609 -1.3350  0.2608 -0.1695
  339MOL0     O46675   9.215   1.329   0.609  0.6872  0.0687 -0.3557
  339MOL0     C46676   9.175   1.380   0.490 -0.0632  0.2894 -0.3259
  339MOL0     C46677   9.161   1.309   0.373 -1.1554 -0.0012  0.5632
  339MOL0     C46678   9.132   1.387   0.251  0.7857  0.6257  0.1376
  339MOL0     C46679   9.094   1.520   0.253 -1.1779 -0.9948 -0.1824
  339MOL0     O46680   9.034   1.591   0.149  0.6247 -1.0524  0.2995
  339MOL0     C46681   9.037   1.528   0.026  0.1895  0.4411 -0.4734
  339MOL0     C46682   9.021   1.650  -0.074 -0.3229  0.0246  0.3646
  339MOL0     C46683   9.168   1.707  -0.090 -0.0499  0.3601 -0.8019
  339MOL0     C46684   9.150   1.833  -0.172 -0.1870 -0.5066  0.0305
  339MOL0     C46685   9.103   1.962  -0.092 -0.2715 -0.3757  0.3464
  339MOL0     C46686   9.187   2.018   0.024  0.5303  0.7852 -0.6305
  339MOL0     C46687   9.146   2.159   0.056  0.0955  0.5984  0.1723
  339MOL0     C46688   9.245   2.212   0.168 -0.2051 -0.0145  0.0051
  339MOL0    Cl46689   9.176   2.381   0.201 -0.2526 -0.5768  0.5289
  339MOL0     C46690   9.104   1.583   0.379 -0.3052 -0.9434  0.0638
  339MOL0     C46691   9.141   1.517   0.494  0.4590 -0.2610  0.3372
  339MOL0     O46692   9.366   1.189   0.512 -0.0245  0.1183  0.4477
  339MOL0     C46693   9.418   1.045   0.731  0.5721  0.7992 -0.8707
  339MOL0     C46694   9.452   0.978   0.844 -0.8296 -0.3608  0.1743
  339MOL0     N46695   9.372   0.598   1.459 -0.5852  0.4056 -0.2759
  339MOL0     N46696   9.374   0.481   1.512 -0.5195 -0.4259 -0.0472
  339MOL0     C46697   8.960   1.030   2.075  0.0849 -0.3402  0.3825
  339MOL0     C46698   8.935   1.173   2.066 -0.5472 -0.5623 -0.1760
  339MOL0     C46699   8.845   1.573   2.240  0.2374 -0.7517  0.5572
  339MOL0     C46700   8.846   1.642   2.120 -0.6269  0.0815 -0.0604
  339MOL0     C46701   8.793   1.765   2.104  0.5581  0.6417  0.6979
  339MOL0     C46702   8.739   1.822   2.226  0.4586 -0.5274  0.7914
  339MOL0     O46703   8.706   1.958   2.230 -0.2417 -0.1001  0.6393
  339MOL0     C46704   8.694   2.039   2.102  0.3904  1.0189  0.0812
  339MOL0     C46705   8.813   2.137   2.096  0.7680 -0.9039 -0.3006
  339MOL0     C46706   8.798   2.238   2.203 -0.0488 -0.9071 -0.6789
  339MOL0     C46707   8.890   2.362   2.203  0.4865  0.2453 -0.1827
  339MOL0     C46708   9.032   2.330   2.178 -0.6767  0.1724 -0.5906
  339MOL0     C46709   9.146   2.293   2.175  0.4013  0.5332  0.4641
  339MOL0     C46710   8.750   1.762   2.345 -0.2931  0.0464 -0.0483
  339MOL0     C46711   8.786   1.635   2.357  0.6933  0.2715  0.4446
  339MOL0     C46712   8.789   1.573   2.496 -0.1795 -0.1715  0.3168
  339MOL0     H46713   9.171   1.286   2.290  0.6369  1.0637 -0.1362
  339MOL0     H46714   9.221   1.040   2.294 -1.4483  0.2006  2.2900
  339MOL0     H46715   9.157   0.830   2.341 -1.0891  2.5426 -0.4969
  339MOL0     H46716   9.289   0.819   2.222  1.1304 -1.7698  1.5067
  339MOL0     H46717   9.210   0.604   2.339  0.4835 -0.4131 -0.0203
  339MOL0     H46718   9.080   0.628   2.219  1.3316  1.4476  0.3451
  339MOL0     H46719   9.232   0.624   2.039 -3.0789 -1.4999  0.5438
  339MOL0     H46720   9.374   0.606   2.134 -0.9083  1.5671 -1.6645
  339MOL0     H46721   9.292   0.391   2.224  1.6024 -0.1154 -0.7690
  339MOL0     H46722   9.141   0.404   2.124  0.7585 -0.2581 -2.6217
  339MOL0     H46723   9.289   0.260   2.043 -2.3687  0.4176 -0.6032
  339MOL0     H46724   9.424   0.381   2.026  0.1443 -2.0615  0.1364
  339MOL0     H46725   9.163   0.359   1.862 -0.0413 -0.3904  1.7629
  339MOL0     H46726   9.259   0.503   1.839 -0.7298 -0.7405 -1.4179
  339MOL0     H46727   9.275   0.273   1.685 -2.7109 -0.9331  3.3676
  339MOL0     H46728   9.379   0.208   1.806 -2.5748 -1.0509  0.7848
  339MOL0     H46729   9.541   0.403   1.796  0.6143  1.1802 -1.2581
  339MOL0     H46730   9.533   0.300   1.649  1.4441  1.0919 -0.2221
  339MOL0     H46731   9.584   0.652   1.705  0.0793 -1.0427 -1.3128
  339MOL0     H46732   9.555   0.874   1.574 -1.2803 -1.7436  2.5295
  339MOL0     H46733   9.401   0.875   1.491 -0.4303 -1.1223  0.3457
  339MOL0     H46734   9.600   0.931   1.334  0.9974 -0.1174  1.6154
  339MOL0     H46735   9.644   0.758   1.357 -1.4997 -1.2816 -3.0051
  339MOL0     H46736   9.459   0.687   1.222 -2.3306  0.4551 -0.0368
  339MOL0     H46737   9.362   0.828   1.269  0.0857  1.8560 -2.0052
  339MOL0     H46738   9.601   0.845   1.081 -0.3356  2.1905 -0.5785
  339MOL0     H46739   9.441   0.782   1.033 -2.1642 -0.6989  2.4700
  339MOL0     H46740   9.333   1.203   1.070  3.1719  2.4907 -0.9184
  339MOL0     H46741   9.289   1.392   0.990 -1.1992 -0.9831  0.6380
  339MOL0     H46742   9.152   1.351   0.894  0.3492  1.3823 -1.4916
  339MOL0     H46743   9.278   1.438   0.813 -2.2720  0.1156 -0.5092
  339MOL0     H46744   9.182   1.203   0.368 -0.2258  0.0979 -5.6808
  339MOL0     H46745   9.121   1.336   0.157  0.0850  2.1410 -0.6397
  339MOL0     H46746   9.130   1.474   0.008  0.0666  0.3426 -0.8205
  339MOL0     H46747   8.950   1.464   0.009  0.3814  0.4875 -1.7216
  339MOL0     H46748   8.986   1.623  -0.174 -1.4070  2.1089  0.1195
  339MOL0     H46749   8.951   1.723  -0.033 -0.5841 -1.0642  1.9751
  339MOL0     H46750   9.233   1.635  -0.142  1.8352 -0.2530  2.1443
  339MOL0     H46751   9.219   1.716   0.006 -1.6598 -1.8339  0.3469
  339MOL0     H46752   9.085   1.812  -0.257 -1.3222 -0.1532  0.7943
  339MOL0     H46753   9.249   1.871  -0.202 -0.7192  2.3493  1.5037
  339MOL0     H46754   9.106   2.038  -0.170 -0.8587 -2.0752 -1.4155
  339MOL0     H46755   8.999   1.942  -0.068 -0.7908  2.3554  0.6933
  339MOL0     H46756   9.293   2.017  -0.005  0.5675  1.1329 -0.5024
  339MOL0     H46757   9.168   1.953   0.111  1.1126 -0.0311 -1.0964
  339MOL0     H46758   9.043   2.162   0.090 -0.3979 -1.3540 -0.9731
  339MOL0     H46759   9.153   2.225  -0.031  0.6407  1.6118  0.9692
  339MOL0     H46760   9.347   2.222   0.130  1.0884 -1.3501  2.8267
  339MOL0     H46761   9.248   2.141   0.251 -1.5016  0.2829  0.3269
  339MOL0     H46762   9.071   1.686   0.382 -0.6373 -0.8978 -2.7096
  339MOL0     H46763   9.127   1.563   0.591 -0.5963 -0.4329  0.2766
  339MOL0     H46764   9.442   1.000   0.635  4.4641  0.4202  0.0894
  339MOL0     H46765   9.480   0.873   0.837  0.9597 -0.1619  2.6306
  339MOL0     H46766   8.896   0.953   2.033  1.3859 -1.0566 -0.3726
  339MOL0     H46767   8.862   1.214   1.996 -0.6559 -1.0848 -0.3773
  339MOL0     H46768   8.887   1.592   2.033 -0.2161 -1.3887  0.9372
  339MOL0     H46769   8.812   1.812   2.008 -2.5625 -1.1051 -0.9258
  339MOL0     H46770   8.699   1.987   2.006  1.3792 -3.6004  2.3263
  339MOL0     H46771   8.599   2.090   2.085 -1.3116 -1.8537  0.2517
  339MOL0     H46772   8.803   2.191   2.001 -2.4608 -0.2000  0.3137
  339MOL0     H46773   8.905   2.079   2.088  0.8449 -0.5982 -1.8879
  339MOL0     H46774   8.697   2.277   2.191  0.4904  0.5462 -0.6430
  339MOL0     H46775   8.822   2.176   2.290 -0.9201  1.3581  1.2724
  339MOL0     H46776   8.878   2.426   2.291 -1.1489 -0.6839  0.3036
  339MOL0     H46777   8.860   2.417   2.113 -0.3811 -3.8391 -2.6343
  339MOL0     H46778   9.246   2.257   2.169  0.5146  0.9547 -0.3375
  339MOL0     H46779   8.698   1.817   2.423  1.5357 -0.7976  1.8557
  339MOL0     H46780   8.758   1.653   2.564 -1.0017  1.7364 -2.1415
  339MOL0     H46781   8.739   1.476   2.501 -1.1998  0.0664 -2.8928
  339MOL0     H46782   8.895   1.552   2.515  0.4545  1.9736 -0.5733
  340MOL0     O46783   4.307  11.573  11.346  0.6480 -0.5756  0.6350
  340MOL0     C46784   4.258  11.512  11.250 -0.4536 -0.9354  0.5872
  340MOL0     O46785   4.167  11.569  11.167  0.4797  0.2902 -0.0535
  340MOL0     C46786   4.066  11.629  11.235 -0.7164  0.1213  0.0600
  340MOL0     C46787   4.013  11.597  11.361  0.1729 -0.1421 -0.0006
  340MOL0     C46788   3.891  11.652  11.396 -0.9516 -1.0273  0.2185
  340MOL0     C46789   3.817  11.740  11.317 -0.4073 -0.1328 -0.4174
  340MOL0     O46790   3.686  11.770  11.350  0.2069 -0.0556 -0.5322
  340MOL0     C46791   3.630  11.892  11.304  0.2728 -0.3432  0.0433
  340MOL0     C46792   3.522  11.919  11.411 -0.1530 -0.8296  0.1047
  340MOL0     C46793   3.456  12.061  11.387 -0.2549  0.0786  0.3294
  340MOL0     C46794   3.417  12.111  11.529  0.1190 -0.5657  0.6182
  340MOL0     C46795   3.289  12.195  11.508  0.6997 -0.8681  0.4216
  340MOL0     C46796   3.255  12.289  11.624 -1.6754 -0.7746 -0.1016
  340MOL0     C46797   3.114  12.364  11.611  0.2765  0.2617 -0.3054
  340MOL0     C46798   3.067  12.430  11.743 -0.4188  0.1651  0.2365
  340MOL0     N46799   3.133  12.561  11.752 -0.8671  0.3046 -0.9941
  340MOL0     C46800   3.068  12.671  11.787  0.9502 -0.1128 -0.6892
  340MOL0     C46801   3.154  12.758  11.841 -1.4852 -0.3041  0.0137
  340MOL0     C46802   3.133  12.886  11.915 -0.9737  0.6549 -0.8084
  340MOL0     C46803   3.070  12.982  11.819  0.7387 -0.6510  0.2191
  340MOL0     C46804   3.143  13.002  11.681  0.4660  0.6259  0.0020
  340MOL0     C46805   3.255  13.095  11.708  0.0061 -0.3349 -0.1647
  340MOL0     O46806   3.311  13.113  11.572  0.3107 -0.1922  0.1045
  340MOL0     C46807   3.421  13.047  11.523 -0.0530 -1.3326 -1.0124
  340MOL0     C46808   3.462  12.938  11.590 -1.2361 -0.2440 -0.2101
  340MOL0     C46809   3.554  12.844  11.540  0.1728 -0.7332  0.0799
  340MOL0     C46810   3.562  12.712  11.619  0.4001 -0.8725  0.8553
  340MOL0     C46811   3.613  12.871  11.411  0.5830  0.5769  0.4206
  340MOL0     C46812   3.719  12.792  11.347 -1.1310 -1.4857  0.0637
  340MOL0     O46813   3.783  12.834  11.235  0.7031 -0.1672 -0.5586
  340MOL0     C46814   3.869  12.754  11.161  0.3499  0.5222  0.6229
  340MOL0     C46815   3.913  12.620  11.179  0.0141 -0.6918  0.5259
  340MOL0     C46816   3.981  12.548  11.074  0.7035 -0.7554 -0.5093
  340MOL0     C46817   4.026  12.614  10.967 -0.8456  0.3903  0.0923
  340MOL0     O46818   4.111  12.538  10.887 -0.4343 -0.4564  0.3247
  340MOL0     C46819   4.118  12.575  10.748 -0.2617 -0.1616 -0.2109
  340MOL0     C46820   4.199  12.472  10.675 -0.3458  0.2071 -0.0929
  340MOL0     C46821   4.228  12.503  10.525 -1.1990 -0.0733  0.5834
  340MOL0     C46822   4.334  12.390  10.475 -0.8800 -0.2860  0.2101
  340MOL0     C46823   4.373  12.408  10.325  0.1273 -0.5713 -0.1258
  340MOL0     C46824   4.262  12.384  10.223  0.2589 -1.1878  0.3021
  340MOL0     C46825   4.195  12.247  10.212  0.9031  0.5346  0.1791
  340MOL0     C46826   4.296  12.132  10.217  0.4662 -0.4747 -0.3482
  340MOL0    Cl46827   4.417  12.135  10.090  0.1851  0.3826 -0.4437
  340MOL0     C46828   3.992  12.753  10.949  0.8753 -0.6034 -0.6589
  340MOL0     C46829   3.902  12.813  11.046 -0.9348  0.2274  0.3422
  340MOL0     O46830   3.753  12.686  11.405 -0.1990 -0.2975  0.2009
  340MOL0     C46831   3.565  12.988  11.350 -0.0763  0.0434 -0.3578
  340MOL0     C46832   3.464  13.074  11.400 -0.3453  0.4977 -0.5918
  340MOL0     N46833   3.279  12.696  11.838 -0.0104 -0.6367 -0.0166
  340MOL0     N46834   3.263  12.581  11.792  0.2234  0.1859  0.2062
  340MOL0     C46835   3.878  11.774  11.197  0.1813 -1.1939 -0.6142
  340MOL0     C46836   3.999  11.721  11.155  0.0282  0.0550  1.5760
  340MOL0     C46837   4.319  11.379  11.222 -0.3982 -0.0882 -0.4758
  340MOL0     C46838   4.244  11.281  11.162 -0.1612 -0.6198 -0.0167
  340MOL0     C46839   4.299  11.159  11.136  0.0622  0.7860 -0.2650
  340MOL0     C46840   4.433  11.119  11.145 -0.6578  0.0028 -0.3449
  340MOL0     O46841   4.499  11.010  11.108 -0.1538  0.2506  0.9403
  340MOL0     C46842   4.428  10.887  11.133  0.2621 -0.0467 -0.4272
  340MOL0     C46843   4.427  10.867  11.278 -1.1287  0.2086 -0.4469
  340MOL0     C46844   4.559  10.799  11.334  0.1762  0.4106  0.8488
  340MOL0     C46845   4.542  10.782  11.490  0.1551  0.2082 -0.8474
  340MOL0     C46846   4.642  10.676  11.526 -0.1720  1.0444  0.7337
  340MOL0     C46847   4.684  10.571  11.569 -0.2559 -0.6446  0.6514
  340MOL0     C46848   4.513  11.225  11.198  0.4896  0.0537  0.7016
  340MOL0     C46849   4.460  11.343  11.248  0.7316 -0.9513  0.0062
  340MOL0     C46850   4.557  11.443  11.312 -0.8538 -0.3589 -0.3174
  340MOL0     H46851   4.063  11.525  11.425 -0.3981  0.1350  0.7669
  340MOL0     H46852   3.851  11.625  11.493  0.1218 -0.3011  0.8919
  340MOL0     H46853   3.584  11.888  11.205 -3.1668  2.8593  1.2471
  340MOL0     H46854   3.699  11.976  11.316 -0.1374 -0.0209  0.1774
  340MOL0     H46855   3.443  11.843  11.407 -0.0025 -0.9597 -1.8725
  340MOL0     H46856   3.571  11.922  11.509  0.6580 -0.8941 -0.2857
  340MOL0     H46857   3.519  12.136  11.338 -1.0616  1.1605  0.9078
  340MOL0     H46858   3.373  12.048  11.317 -0.3378  1.1062  0.2173
  340MOL0     H46859   3.389  12.033  11.600  1.3625  1.1030  3.1027
  340MOL0     H46860   3.500  12.170  11.568  1.0601 -1.4466 -0.0212
  340MOL0     H46861   3.208  12.128  11.476  0.7801 -0.9454  0.3758
  340MOL0     H46862   3.293  12.273  11.432 -0.7093  2.2360  3.2941
  340MOL0     H46863   3.256  12.230  11.716  0.0443 -1.4661 -0.5247
  340MOL0     H46864   3.336  12.362  11.637 -1.8365 -0.9022  1.9835
  340MOL0     H46865   3.039  12.287  11.590  1.2560 -1.1014  1.0283
  340MOL0     H46866   3.113  12.440  11.532  2.4432  2.4459  1.5839
  340MOL0     H46867   2.959  12.438  11.752 -0.3369 -0.0027  1.6143
  340MOL0     H46868   3.106  12.373  11.827 -1.1954  0.7824  1.0315
  340MOL0     H46869   2.960  12.684  11.795  0.1762 -4.4097 -1.8917
  340MOL0     H46870   3.229  12.928  11.947 -1.3674  2.5355 -1.9327
  340MOL0     H46871   3.069  12.867  12.002  2.8525 -1.1573  1.9161
  340MOL0     H46872   2.974  12.930  11.807  2.0865 -2.7435 -3.1122
  340MOL0     H46873   3.064  13.082  11.862 -1.7268  0.8919 -3.2852
  340MOL0     H46874   3.179  12.909  11.636 -1.1652 -2.3079  4.1652
  340MOL0     H46875   3.082  13.060  11.611  0.0244 -0.1351 -0.2549
  340MOL0     H46876   3.216  13.191  11.744 -2.1548 -1.1793 -0.1357
  340MOL0     H46877   3.318  13.054  11.788 -1.7559 -2.3374  0.2766
  340MOL0     H46878   3.418  12.902  11.683  0.5752 -3.0574 -0.3160
  340MOL0     H46879   3.524  12.731  11.720  1.1842  2.3506  0.6686
  340MOL0     H46880   3.669  12.693  11.634  0.2630 -0.5907  2.3154
  340MOL0     H46881   3.506  12.633  11.570 -0.3805 -1.0104  1.9452
  340MOL0     H46882   3.870  12.565  11.262 -0.6698  0.8095  1.2202
  340MOL0     H46883   3.985  12.439  11.068 -1.2236 -0.9079  0.1034
  340MOL0     H46884   4.020  12.585  10.700 -0.4787 -1.0194  0.0227
  340MOL0     H46885   4.161  12.675  10.746  0.0188 -0.2694  0.2467
  340MOL0     H46886   4.294  12.477  10.729 -0.3366 -0.3558 -0.0538
  340MOL0     H46887   4.158  12.371  10.682  3.0104 -1.4124 -1.2231
  340MOL0     H46888   4.288  12.595  10.521 -1.6019  0.2195  1.2134
  340MOL0     H46889   4.133  12.498  10.471 -1.9881 -1.4044  2.0133
  340MOL0     H46890   4.295  12.289  10.487  2.9201 -2.0313 -0.4654
  340MOL0     H46891   4.429  12.395  10.530 -0.4076 -0.3403 -0.5790
  340MOL0     H46892   4.388  12.517  10.324 -0.8702 -0.4025  0.8789
  340MOL0     H46893   4.468  12.360  10.301 -0.4561 -0.8465 -1.9874
  340MOL0     H46894   4.293  12.427  10.127  1.6726  0.2477  1.3414
  340MOL0     H46895   4.178  12.445  10.259  1.4456  1.1921 -0.7436
  340MOL0     H46896   4.136  12.241  10.120  0.0495  1.3917  0.6548
  340MOL0     H46897   4.126  12.244  10.296  0.3245  1.8096 -0.2303
  340MOL0     H46898   4.236  12.041  10.223  0.3919 -0.3730  0.5902
  340MOL0     H46899   4.345  12.122  10.315 -0.6770 -4.1905 -0.0130
  340MOL0     H46900   4.041  12.811  10.872  0.4975 -1.2475 -1.3976
  340MOL0     H46901   3.872  12.917  11.039 -0.7539  0.1971 -1.6174
  340MOL0     H46902   3.620  13.014  11.260  0.3057 -1.2354 -0.5098
  340MOL0     H46903   3.433  13.157  11.338 -2.0062  0.4729  0.1653
  340MOL0     H46904   3.821  11.825  11.120  0.4390 -1.2826 -0.8678
  340MOL0     H46905   4.034  11.749  11.056  1.3762  0.6525  2.1933
  340MOL0     H46906   4.151  11.301  11.111  1.0430 -0.5352 -2.3519
  340MOL0     H46907   4.230  11.079  11.108  1.9463 -2.7156  3.7543
  340MOL0     H46908   4.334  10.887  11.077 -0.8671  1.1197  1.3716
  340MOL0     H46909   4.487  10.806  11.090 -0.7984 -0.8903 -0.3295
  340MOL0     H46910   4.354  10.790  11.304 -1.5119  0.6748 -0.1174
  340MOL0     H46911   4.407  10.954  11.341 -1.4136 -1.8725  2.5440
  340MOL0     H46912   4.588  10.707  11.282  0.2036  0.9614 -0.1452
  340MOL0     H46913   4.642  10.869  11.321  1.0988 -1.0657 -1.9928
  340MOL0     H46914   4.448  10.733  11.517  1.2305 -1.7048 -0.3533
  340MOL0     H46915   4.554  10.876  11.544  0.2066 -0.0452 -0.4085
  340MOL0     H46916   4.708  10.477  11.614  0.8408  0.0447  1.5784
  340MOL0     H46917   4.621  11.214  11.194  0.3724 -3.3725  2.6980
  340MOL0     H46918   4.537  11.466  11.417  0.8209 -0.6962  0.1069
  340MOL0     H46919   4.656  11.397  11.310 -0.3508  0.4811  2.0670
  340MOL0     H46920   4.553  11.540  11.261 -1.2916 -0.1252  0.1492
  341MOL0     O46921   4.453   9.925   2.467  0.2893  0.6036  0.7328
  341MOL0     C46922   4.447   9.804   2.447  0.4172 -0.1401  0.8475
  341MOL0     O46923   4.418   9.711   2.545 -0.0291 -0.8680  0.1659
  341MOL0     C46924   4.447   9.732   2.677  0.1074 -0.4960  0.1519
  341MOL0     C46925   4.366   9.673   2.764  0.6674 -0.0663 -0.3284
  341MOL0     C46926   4.370   9.700   2.903 -0.0921 -0.8477  0.2094
  341MOL0     C46927   4.451   9.801   2.965 -0.0545 -0.0907  0.0536
  341MOL0     O46928   4.435   9.842   3.095  0.3795  0.2222 -0.3190
  341MOL0     C46929   4.443   9.985   3.104  0.2565  0.1573  0.3337
  341MOL0     C46930   4.393  10.041   3.245 -0.1158  0.0098 -0.1312
  341MOL0     C46931   4.492  10.006   3.356  0.9177  0.3236  0.5101
  341MOL0     C46932   4.424  10.001   3.491 -0.7270 -0.2300 -0.3024
  341MOL0     C46933   4.371  10.132   3.540 -0.2158  0.1180  0.3397
  341MOL0     C46934   4.281  10.126   3.670 -0.0938 -0.4394 -0.3222
  341MOL0     C46935   4.151  10.050   3.655  0.3404 -0.3370  0.2584
  341MOL0     C46936   4.070  10.124   3.547  0.7714 -0.8315 -1.0497
  341MOL0     N46937   3.926  10.134   3.587  0.3871 -1.0684  0.3341
  341MOL0     C46938   3.845  10.032   3.635  0.7940 -0.4313  0.4797
  341MOL0     C46939   3.719  10.071   3.596 -0.7076  0.1942 -1.1226
  341MOL0     C46940   3.595   9.992   3.615 -0.1288  0.7142  0.5030
  341MOL0     C46941   3.563   9.971   3.757 -0.7629  0.6923  0.0559
  341MOL0     C46942   3.447   9.880   3.788  1.0774  0.3397  0.2886
  341MOL0     C46943   3.296   9.930   3.768  0.7344 -0.0132  0.4092
  341MOL0     O46944   3.254   9.985   3.899  0.6911 -0.2665  0.5507
  341MOL0     C46945   3.152  10.076   3.910 -0.3720 -0.2433  0.6897
  341MOL0     C46946   3.063  10.121   3.801 -0.4149  0.9056 -0.6665
  341MOL0     C46947   2.966  10.221   3.812 -0.6130 -0.6365 -0.2651
  341MOL0     C46948   2.879  10.251   3.695 -0.4775  0.2727  1.1478
  341MOL0     C46949   2.951  10.285   3.941  0.0790 -0.5518  0.4266
  341MOL0     C46950   2.864  10.401   3.972  0.4212  0.3076  0.3478
  341MOL0     O46951   2.863  10.455   4.096 -0.1315 -0.4459 -0.1844
  341MOL0     C46952   2.772  10.550   4.128 -0.3644 -0.0811 -1.1409
  341MOL0     C46953   2.692  10.537   4.241 -0.4107 -0.1338  0.1782
  341MOL0     C46954   2.598  10.637   4.279 -0.9206  0.0219 -0.7483
  341MOL0     C46955   2.581  10.755   4.200 -0.0852  1.0801 -0.5140
  341MOL0     O46956   2.489  10.850   4.244 -0.6999 -0.0022  0.0266
  341MOL0     C46957   2.538  10.981   4.232 -0.3020 -0.0614  0.0296
  341MOL0     C46958   2.468  11.073   4.328  1.4896 -0.0687  0.1170
  341MOL0     C46959   2.312  11.081   4.281  0.0741 -0.4200  1.0524
  341MOL0     C46960   2.237  11.208   4.335  0.0682 -0.0449 -0.2608
  341MOL0     C46961   2.101  11.181   4.287 -0.1159  1.0079  0.1631
  341MOL0     C46962   2.011  11.298   4.327  0.8744 -0.1795 -0.3430
  341MOL0     C46963   1.888  11.290   4.231  0.1532  0.2756  0.6528
  341MOL0     C46964   1.804  11.425   4.220 -0.6383 -0.3961  0.2343
  341MOL0    Cl46965   1.717  11.448   4.363  0.2197 -0.6349 -0.2941
  341MOL0     C46966   2.646  10.765   4.079 -0.5361 -0.0422  0.1768
  341MOL0     C46967   2.736  10.662   4.048 -1.0566 -0.4082  0.7034
  341MOL0     O46968   2.786  10.436   3.879 -0.2960  0.0910  0.3392
  341MOL0     C46969   3.036  10.239   4.047 -0.5220 -0.1194  0.5888
  341MOL0     C46970   3.139  10.146   4.029  0.3134 -0.4997 -0.4614
  341MOL0     N46971   3.720  10.195   3.536 -0.5533 -0.6320 -0.6153
  341MOL0     N46972   3.847  10.231   3.525 -1.2670 -0.4824 -0.6481
  341MOL0     C46973   4.549   9.845   2.876  0.2979  0.1181 -0.5373
  341MOL0     C46974   4.547   9.820   2.734 -0.0520 -0.1714  0.1568
  341MOL0     C46975   4.444   9.755   2.306 -0.5326  0.1690  0.2199
  341MOL0     C46976   4.520   9.644   2.273 -0.0996  0.4735 -0.9443
  341MOL0     C46977   4.501   9.567   2.161 -1.1067 -0.2265 -0.4065
  341MOL0     C46978   4.397   9.596   2.076 -1.0330  0.3954  0.3522
  341MOL0     O46979   4.367   9.526   1.959 -0.0316 -0.4237  0.4103
  341MOL0     C46980   4.432   9.396   1.931 -0.6588 -0.2675 -1.0653
  341MOL0     C46981   4.361   9.346   1.807  0.0172 -0.4614 -0.3959
  341MOL0     C46982   4.215   9.290   1.826 -0.1113  0.7237  1.4013
  341MOL0     C46983   4.131   9.301   1.697  0.5783  0.5279  0.7444
  341MOL0     C46984   3.991   9.289   1.732 -0.0016  0.1965 -0.7001
  341MOL0     C46985   3.872   9.267   1.750 -0.9049 -0.1987 -0.8026
  341MOL0     C46986   4.317   9.706   2.100  0.9277 -0.5686  0.3513
  341MOL0     C46987   4.343   9.794   2.212 -0.0042  0.4238  0.6062
  341MOL0     C46988   4.250   9.910   2.231  0.3347 -0.2332  0.3926
  341MOL0     H46989   4.286   9.619   2.714 -0.8229 -0.6345  2.4562
  341MOL0     H46990   4.307   9.658   2.981  0.6082  3.0501  3.2279
  341MOL0     H46991   4.372  10.024   3.031  2.6576 -2.0697 -3.5885
  341MOL0     H46992   4.547  10.017   3.094  0.0635  0.1834 -2.4972
  341MOL0     H46993   4.406  10.149   3.233 -1.0728 -0.0228 -1.6060
  341MOL0     H46994   4.293   9.998   3.252  1.7323 -4.6824  1.2021
  341MOL0     H46995   4.528   9.904   3.344 -1.0288 -0.4603  1.0529
  341MOL0     H46996   4.573  10.079   3.351  3.3175 -2.2916 -2.0306
  341MOL0     H46997   4.340   9.932   3.481 -1.3647  0.3302  0.9029
  341MOL0     H46998   4.488   9.959   3.569  1.7363  0.2805 -1.9511
  341MOL0     H46999   4.312  10.170   3.457  0.4066 -0.1621 -0.2465
  341MOL0     H47000   4.459  10.194   3.561  1.3527 -1.2554 -1.7508
  341MOL0     H47001   4.336  10.090   3.757 -1.8905 -2.1407  0.1976
  341MOL0     H47002   4.256  10.228   3.703  2.9695  0.1439  0.4687
  341MOL0     H47003   4.105  10.033   3.753 -0.4426 -0.6842 -0.1603
  341MOL0     H47004   4.182   9.949   3.628  0.9592 -1.2993  3.9338
  341MOL0     H47005   4.110  10.226   3.548 -0.1607 -0.4561 -0.4361
  341MOL0     H47006   4.095  10.098   3.444 -0.9287 -0.5897 -1.5599
  341MOL0     H47007   3.869   9.929   3.655  1.3935 -1.0434 -2.8445
  341MOL0     H47008   3.607   9.897   3.562  1.0570  1.7191 -1.1256
  341MOL0     H47009   3.511  10.050   3.578 -1.7072  0.0612  2.8489
  341MOL0     H47010   3.643   9.920   3.811 -2.9232 -0.2484  2.5947
  341MOL0     H47011   3.535  10.066   3.803 -0.9444  1.6932 -2.0386
  341MOL0     H47012   3.462   9.792   3.725 -2.4063  1.0370 -1.7631
  341MOL0     H47013   3.461   9.840   3.889  4.3804  1.2790  0.3337
  341MOL0     H47014   3.311  10.007   3.692  1.9453 -1.4611 -0.8898
  341MOL0     H47015   3.222   9.856   3.736 -0.2511  0.9151  0.4784
  341MOL0     H47016   3.063  10.074   3.703 -3.9312  2.2323 -1.4258
  341MOL0     H47017   2.903  10.343   3.642 -1.5639 -0.9012 -1.5861
  341MOL0     H47018   2.773  10.249   3.722 -0.3400  1.2499  1.7755
  341MOL0     H47019   2.891  10.174   3.618 -0.2700  2.3885 -1.0652
  341MOL0     H47020   2.710  10.447   4.298  0.2233 -1.4959 -2.0524
  341MOL0     H47021   2.535  10.621   4.366  0.2638 -1.0100 -0.0567
  341MOL0     H47022   2.644  10.990   4.258 -0.6466  4.4316  0.8505
  341MOL0     H47023   2.536  11.007   4.126 -2.9386 -2.4904 -0.6388
  341MOL0     H47024   2.482  11.044   4.432  2.9764  3.7640  1.1719
  341MOL0     H47025   2.515  11.172   4.331  0.9125  0.2098  3.2211
  341MOL0     H47026   2.254  10.988   4.283 -2.6889  0.9771 -2.6136
  341MOL0     H47027   2.314  11.102   4.174 -0.9463 -1.0032  0.9029
  341MOL0     H47028   2.285  11.300   4.301  0.0559  1.3088  2.9716
  341MOL0     H47029   2.232  11.224   4.443 -4.4550 -0.1036 -0.2461
  341MOL0     H47030   2.106  11.159   4.179  0.7474 -1.5156  0.6483
  341MOL0     H47031   2.070  11.089   4.336  0.7833  0.1031 -0.8998
  341MOL0     H47032   2.051  11.392   4.286  1.4567 -1.0561 -1.8860
  341MOL0     H47033   1.979  11.303   4.431 -1.4198  1.8765 -1.0426
  341MOL0     H47034   1.825  11.211   4.274  0.0586  0.4416  0.8166
  341MOL0     H47035   1.915  11.270   4.127 -1.1356 -2.1186  0.6920
  341MOL0     H47036   1.740  11.421   4.131  0.8704 -1.5420 -0.8497
  341MOL0     H47037   1.876  11.506   4.210  2.8789 -3.3333 -0.2912
  341MOL0     H47038   2.630  10.847   4.009 -0.8754  0.8943  1.3276
  341MOL0     H47039   2.787  10.673   3.952 -1.1715 -3.8042  0.1364
  341MOL0     H47040   3.036  10.283   4.146 -1.1534  1.7639 -0.2168
  341MOL0     H47041   3.211  10.130   4.108  0.5754 -0.4153 -0.6812
  341MOL0     H47042   4.629   9.912   2.905  0.6385  0.1955 -1.6148
  341MOL0     H47043   4.621   9.852   2.661 -1.0009 -2.1947 -1.8382
  341MOL0     H47044   4.590   9.609   2.347 -0.6808 -2.7941 -1.7875
  341MOL0     H47045   4.563   9.478   2.151 -0.5261 -0.1056  1.6397
  341MOL0     H47046   4.537   9.400   1.900 -0.8103 -2.2959 -2.0485
  341MOL0     H47047   4.434   9.322   2.011  1.1418 -1.5928 -2.2705
  341MOL0     H47048   4.423   9.267   1.764  1.0356 -0.2198  0.5865
  341MOL0     H47049   4.376   9.424   1.732  3.5483 -1.1698 -0.6082
  341MOL0     H47050   4.231   9.186   1.855  0.2283  1.1218  2.6978
  341MOL0     H47051   4.174   9.354   1.904 -2.2011  1.1449  0.0584
  341MOL0     H47052   4.162   9.215   1.638 -0.6541  0.0210  0.8031
  341MOL0     H47053   4.153   9.388   1.635  0.5141 -0.3485 -0.5447
  341MOL0     H47054   3.766   9.259   1.769 -1.0905  0.3843 -1.5658
  341MOL0     H47055   4.227   9.728   2.044  0.3399  1.3474  1.8935
  341MOL0     H47056   4.174   9.910   2.152  0.2930  0.7949  0.4234
  341MOL0     H47057   4.197   9.901   2.326 -1.3224 -1.5047 -0.5881
  341MOL0     H47058   4.310  10.001   2.229 -3.1045  2.3795  2.8378
  342MOL0     O47059   0.326   7.917  11.227  0.0350 -0.3136 -0.2015
  342MOL0     C47060   0.437   7.906  11.272  0.1513 -0.9324 -0.7161
  342MOL0     O47061   0.486   8.006  11.359  0.0501 -0.0051  0.1140
  342MOL0     C47062   0.424   8.130  11.350 -0.1157 -1.4309  0.4507
  342MOL0     C47063   0.484   8.233  11.280 -0.0639  0.8562  0.2185
  342MOL0     C47064   0.433   8.362  11.279  0.3546  0.1293  0.4081
  342MOL0     C47065   0.312   8.387  11.345  0.5400  0.8134 -0.3420
  342MOL0     O47066   0.238   8.500  11.353  0.4831 -0.7934  0.3515
  342MOL0     C47067   0.260   8.584  11.240  0.3944  0.0983  0.4699
  342MOL0     C47068   0.145   8.687  11.240 -0.9420  0.4923 -0.1826
  342MOL0     C47069   0.015   8.644  11.174  1.2495 -0.8666  0.9258
  342MOL0     C47070  -0.052   8.518  11.241 -1.0112 -0.2588 -0.2496
  342MOL0     C47071  -0.188   8.476  11.180 -0.5463  0.9060 -0.4483
  342MOL0     C47072  -0.256   8.365  11.261 -0.2415 -0.3333  0.4423
  342MOL0     C47073  -0.387   8.328  11.192  0.0614 -0.0775  0.3722
  342MOL0     C47074  -0.472   8.223  11.269  0.1918 -0.3258 -0.3573
  342MOL0     N47075  -0.526   8.274  11.396 -0.4443 -0.2722 -0.7692
  342MOL0     C47076  -0.561   8.405  11.427  0.6192  0.2339 -0.5216
  342MOL0     C47077  -0.631   8.386  11.547  0.0521 -0.3385  0.9260
  342MOL0     C47078  -0.707   8.502  11.608  0.3866 -0.1045  0.3369
  342MOL0     C47079  -0.745   8.479  11.753 -0.5696 -0.6823 -0.0204
  342MOL0     C47080  -0.844   8.580  11.797  0.8240 -0.5448  0.6167
  342MOL0     C47081  -0.920   8.535  11.915  0.7021 -0.3862 -0.4176
  342MOL0     O47082  -1.016   8.435  11.883  0.2059 -0.1007  0.2692
  342MOL0     C47083  -1.068   8.355  11.990 -0.1484  0.2916 -0.0910
  342MOL0     C47084  -1.185   8.288  11.965  0.3335 -0.2630 -0.3415
  342MOL0     C47085  -1.251   8.209  12.061  0.0569  0.0660 -1.0636
  342MOL0     C47086  -1.390   8.158  12.014  0.3379 -0.1678 -0.2224
  342MOL0     C47087  -1.186   8.201  12.202 -0.6399 -0.6777 -0.1776
  342MOL0     C47088  -1.248   8.135  12.322 -0.6768 -0.1022  1.0022
  342MOL0     O47089  -1.178   8.133  12.432  0.0178 -0.0326  0.1106
  342MOL0     C47090  -1.148   8.002  12.464 -0.2308 -0.5116  1.0813
  342MOL0     C47091  -1.025   7.956  12.415 -0.1713  0.6550 -0.1115
  342MOL0     C47092  -0.972   7.829  12.443 -0.1895  0.7952 -0.5271
  342MOL0     C47093  -1.049   7.736  12.518 -0.4346 -0.1237  0.5912
  342MOL0     O47094  -0.996   7.620  12.557  0.0018 -0.3459  0.5331
  342MOL0     C47095  -1.083   7.503  12.550 -0.8753 -0.5851 -0.1792
  342MOL0     C47096  -0.998   7.381  12.531  0.1352 -0.4097  0.6723
  342MOL0     C47097  -0.950   7.374  12.378  0.2625 -0.5132 -0.0184
  342MOL0     C47098  -0.795   7.382  12.363 -0.3686 -0.1450  0.2814
  342MOL0     C47099  -0.736   7.405  12.226  0.6488  0.1311  0.5553
  342MOL0     C47100  -0.584   7.389  12.217  0.5870 -0.0615 -0.1106
  342MOL0     C47101  -0.532   7.258  12.273  1.2501 -0.2797  0.1432
  342MOL0     C47102  -0.386   7.245  12.288  0.0852  0.3177 -0.7103
  342MOL0    Cl47103  -0.311   7.257  12.125  0.2896 -0.3539 -0.1735
  342MOL0     C47104  -1.182   7.782  12.553 -1.5079  0.5136  1.2336
  342MOL0     C47105  -1.229   7.911  12.530 -0.2463 -0.0636  0.2589
  342MOL0     O47106  -1.359   8.095  12.312  0.5038  0.8696  0.2190
  342MOL0     C47107  -1.064   8.272  12.218 -0.8094  0.4224  0.3104
  342MOL0     C47108  -1.016   8.349  12.116 -0.8372 -1.3704  0.7875
  342MOL0     N47109  -0.608   8.255  11.590  0.1763 -0.1879 -0.2191
  342MOL0     N47110  -0.554   8.191  11.503 -0.3381 -0.0905  0.8031
  342MOL0     C47111   0.250   8.289  11.424 -0.3666  0.5114  0.5450
  342MOL0     C47112   0.307   8.161  11.426  1.1879  0.0947  0.2957
  342MOL0     C47113   0.507   7.781  11.250  0.2945 -0.6706  0.0512
  342MOL0     C47114   0.458   7.674  11.310  0.3063 -0.6590  1.1259
  342MOL0     C47115   0.517   7.555  11.299 -0.1232  0.9618 -1.0335
  342MOL0     C47116   0.637   7.545  11.220  0.4751  0.8513 -0.0439
  342MOL0     O47117   0.687   7.414  11.215 -0.8129 -0.3884 -0.1401
  342MOL0     C47118   0.816   7.408  11.153  0.0009  0.5483  0.6442
  342MOL0     C47119   0.807   7.368  11.008 -0.0009 -0.4399  0.5500
  342MOL0     C47120   0.915   7.264  10.963 -0.2859 -0.0796  0.1816
  342MOL0     C47121   0.893   7.213  10.810 -0.4162 -0.1124 -0.4563
  342MOL0     C47122   0.977   7.110  10.751 -0.2606  0.7225 -0.6677
  342MOL0     C47123   1.053   7.035  10.689  0.8074  1.2159 -0.3728
  342MOL0     C47124   0.682   7.661  11.166 -0.8028  0.1465  0.0256
  342MOL0     C47125   0.621   7.786  11.171 -0.6324  0.7197  0.0624
  342MOL0     C47126   0.676   7.910  11.098  0.1099  0.5044 -0.9158
  342MOL0     H47127   0.578   8.204  11.235  0.1407 -0.0955  1.2314
  342MOL0     H47128   0.480   8.440  11.219 -1.6797  4.2130  3.6556
  342MOL0     H47129   0.243   8.541  11.141 -1.6272  3.3653 -0.7701
  342MOL0     H47130   0.355   8.638  11.240  1.1144 -1.0596  2.7498
  342MOL0     H47131   0.123   8.720  11.342  2.6439  1.5219  0.3936
  342MOL0     H47132   0.187   8.773  11.188 -1.3842  0.9208  0.1591
  342MOL0     H47133  -0.055   8.728  11.167  2.6200  0.1991 -0.9813
  342MOL0     H47134   0.042   8.630  11.069 -0.1096  1.5001  0.1814
  342MOL0     H47135   0.012   8.429  11.242  1.0250  1.1434 -0.4465
  342MOL0     H47136  -0.077   8.549  11.342  0.4355  2.9371 -0.7579
  342MOL0     H47137  -0.165   8.425  11.086  2.2798 -0.5507  0.8930
  342MOL0     H47138  -0.248   8.567  11.169  0.4714  1.9198  1.8891
  342MOL0     H47139  -0.197   8.273  11.258  0.7876  0.2157 -4.1397
  342MOL0     H47140  -0.251   8.403  11.363  1.5594  5.7640 -1.4351
  342MOL0     H47141  -0.380   8.288  11.090 -1.0881  1.1466 -0.2207
  342MOL0     H47142  -0.444   8.416  11.161 -0.2448 -0.8364 -1.3558
  342MOL0     H47143  -0.547   8.182  11.201  0.4515  0.7433 -1.3223
  342MOL0     H47144  -0.407   8.137  11.290  1.2216  0.4289 -0.3379
  342MOL0     H47145  -0.561   8.499  11.373 -1.1523  0.3312 -0.3878
  342MOL0     H47146  -0.788   8.536  11.543 -1.5471  0.1986  2.7470
  342MOL0     H47147  -0.640   8.587  11.589  0.4448 -0.1156  0.4890
  342MOL0     H47148  -0.783   8.378  11.772 -2.6327  0.4737  2.6505
  342MOL0     H47149  -0.658   8.476  11.819 -2.8144  1.0609  3.3318
  342MOL0     H47150  -0.783   8.669  11.809  1.9285 -1.3037  0.7800
  342MOL0     H47151  -0.912   8.604  11.715  0.0242  0.2482  1.4847
  342MOL0     H47152  -0.844   8.491  11.979  2.3618  1.5763 -0.9491
  342MOL0     H47153  -0.964   8.623  11.964 -0.9073 -1.9715  1.1310
  342MOL0     H47154  -1.220   8.303  11.864 -2.0025 -2.4277  0.0203
  342MOL0     H47155  -1.414   8.052  12.030  0.9012 -0.0584  1.5958
  342MOL0     H47156  -1.386   8.172  11.906  2.2898  1.1170 -0.0171
  342MOL0     H47157  -1.469   8.219  12.058  0.9379  0.4322  0.0290
  342MOL0     H47158  -0.975   8.022  12.345 -5.1448  4.2445 -0.8812
  342MOL0     H47159  -0.877   7.798  12.400 -0.0491 -0.2204  0.4919
  342MOL0     H47160  -1.134   7.499  12.647  2.0993  0.2045  1.5716
  342MOL0     H47161  -1.172   7.503  12.487 -2.7900  3.2044  2.1090
  342MOL0     H47162  -0.910   7.403  12.591  3.1718  1.7655 -3.9496
  342MOL0     H47163  -1.043   7.286  12.562  0.1556 -0.5696  0.2192
  342MOL0     H47164  -0.991   7.451  12.312 -2.6802 -3.4269 -1.8499
  342MOL0     H47165  -0.989   7.277  12.347  1.1848 -1.0743  0.4967
  342MOL0     H47166  -0.753   7.295  12.413 -3.3217 -1.9304 -0.0878
  342MOL0     H47167  -0.763   7.467  12.425 -2.5402  2.1517 -1.5094
  342MOL0     H47168  -0.780   7.331  12.159  2.5934  0.4786 -1.2025
  342MOL0     H47169  -0.751   7.506  12.188 -1.1895  0.8275  2.9003
  342MOL0     H47170  -0.537   7.472  12.271  0.0110 -0.5090  1.1129
  342MOL0     H47171  -0.552   7.403  12.114  0.6072  0.6422 -0.0134
  342MOL0     H47172  -0.577   7.169  12.226 -0.4563  0.5399  0.1781
  342MOL0     H47173  -0.578   7.242  12.370  0.8321 -3.6321 -0.4543
  342MOL0     H47174  -0.360   7.149  12.332 -1.2358 -0.5320 -1.6930
  342MOL0     H47175  -0.353   7.320  12.360  0.9831 -0.9005  0.1934
  342MOL0     H47176  -1.245   7.708  12.602  0.3761 -0.5940  2.0966
  342MOL0     H47177  -1.332   7.939  12.548 -0.3208  1.6007 -2.2113
  342MOL0     H47178  -1.002   8.277  12.307  0.8367  0.9687 -0.8271
  342MOL0     H47179  -0.915   8.386  12.130 -1.2241  0.9563 -1.6848
  342MOL0     H47180   0.160   8.320  11.477 -0.4586  1.2897 -0.0448
  342MOL0     H47181   0.265   8.084  11.490  0.5118  0.5816  0.4521
  342MOL0     H47182   0.366   7.687  11.366 -0.5516  0.0633 -0.3610
  342MOL0     H47183   0.471   7.472  11.351 -3.1816  3.9152  1.4868
  342MOL0     H47184   0.890   7.488  11.168  2.9003 -1.8357  0.1737
  342MOL0     H47185   0.860   7.327  11.212  0.7616 -1.9921 -3.0413
  342MOL0     H47186   0.815   7.451  10.937 -4.8310 -0.9323 -0.9233
  342MOL0     H47187   0.708   7.324  10.993 -0.6082  1.5338 -1.9030
  342MOL0     H47188   1.016   7.305  10.970  0.2067 -1.3010  0.4485
  342MOL0     H47189   0.904   7.175  11.027 -0.1698 -0.5487 -0.4423
  342MOL0     H47190   0.908   7.298  10.742  0.0398  0.3773  0.2464
  342MOL0     H47191   0.798   7.162  10.794 -0.8799  1.2405 -2.3583
  342MOL0     H47192   1.131   6.970  10.654  0.1146 -1.3829  2.4658
  342MOL0     H47193   0.768   7.649  11.101 -1.6670 -2.8536 -0.7353
  342MOL0     H47194   0.619   7.934  11.008 -0.8169 -0.1735 -0.5285
  342MOL0     H47195   0.678   7.994  11.168 -1.5170  0.0344 -0.2501
  342MOL0     H47196   0.770   7.878  11.052  1.5004  2.4709  0.3827
  343MOL0     O47197  11.564   2.145   5.240 -0.0824 -1.3476 -0.0563
  343MOL0     C47198  11.440   2.162   5.235  0.0529 -0.2768  0.5769
  343MOL0     O47199  11.371   2.278   5.196 -0.1783 -0.0276  0.0524
  343MOL0     C47200  11.438   2.362   5.112  0.3545 -0.0098  0.4885
  343MOL0     C47201  11.561   2.424   5.141  1.5137 -0.2827 -0.7207
  343MOL0     C47202  11.631   2.499   5.042  0.0875 -0.7497  0.4983
  343MOL0     C47203  11.564   2.535   4.925 -0.0745  0.2498 -0.6312
  343MOL0     O47204  11.632   2.635   4.859  0.2663  0.7207 -0.7716
  343MOL0     C47205  11.556   2.715   4.773  0.5861 -0.6391 -0.1028
  343MOL0     C47206  11.635   2.804   4.689 -0.2791 -0.3342  0.2459
  343MOL0     C47207  11.741   2.886   4.760  0.4176  0.3371  0.3110
  343MOL0     C47208  11.712   3.035   4.753 -0.0698 -0.6713 -0.0686
  343MOL0     C47209  11.780   3.113   4.865  1.0537  0.1688  0.5908
  343MOL0     C47210  11.929   3.133   4.834  0.0633 -0.5763 -0.1066
  343MOL0     C47211  12.007   3.214   4.939  0.3182 -0.5768 -0.5595
  343MOL0     C47212  12.082   3.111   5.036  0.6025 -0.8579  0.7589
  343MOL0     N47213  12.167   3.175   5.137  0.7231  0.2137 -0.8445
  343MOL0     C47214  12.255   3.275   5.102 -0.0129 -0.2544 -0.0840
  343MOL0     C47215  12.288   3.329   5.222 -0.3692 -0.4954  0.6110
  343MOL0     C47216  12.399   3.426   5.231  0.3149  0.1949  0.5940
  343MOL0     C47217  12.330   3.567   5.215 -0.3665 -0.7137 -0.2482
  343MOL0     C47218  12.415   3.671   5.292  0.5236 -0.4825  0.1941
  343MOL0     C47219  12.384   3.807   5.219 -1.4115  0.3768  0.2791
  343MOL0     O47220  12.252   3.854   5.267 -0.0747  0.3835  0.4114
  343MOL0     C47221  12.172   3.941   5.204  0.1214  0.0476 -0.3404
  343MOL0     C47222  12.043   3.944   5.236  0.2338  0.8526 -0.2478
  343MOL0     C47223  11.953   4.028   5.172 -0.1108 -0.0884 -0.0070
  343MOL0     C47224  11.812   4.007   5.237  0.1338  0.6123  0.6680
  343MOL0     C47225  11.996   4.118   5.066 -0.8241  0.1702  0.1136
  343MOL0     C47226  11.913   4.229   5.017  0.0684  0.0265 -0.3045
  343MOL0     O47227  11.989   4.317   4.942  0.3728 -1.0662  0.2440
  343MOL0     C47228  11.920   4.433   4.902 -0.3029  0.6715 -0.4210
  343MOL0     C47229  11.937   4.547   4.971 -0.1115  0.3010 -0.7054
  343MOL0     C47230  11.860   4.660   4.933 -0.1883 -0.2210 -0.5850
  343MOL0     C47231  11.779   4.654   4.827 -0.3681 -0.2087  0.8367
  343MOL0     O47232  11.706   4.757   4.772 -0.5416  1.1182 -0.9403
  343MOL0     C47233  11.612   4.808   4.869 -0.6568  0.3310 -0.2696
  343MOL0     C47234  11.542   4.921   4.795  0.1538 -0.7644 -0.3072
  343MOL0     C47235  11.630   5.053   4.778  0.2262  0.0089 -0.8865
  343MOL0     C47236  11.659   5.128   4.901 -0.0138 -0.3077 -0.0463
  343MOL0     C47237  11.528   5.186   4.966  0.6199  0.1205 -0.3997
  343MOL0     C47238  11.562   5.262   5.094  0.2057  0.1558  0.5376
  343MOL0     C47239  11.440   5.334   5.137  1.4693  0.4978 -1.0988
  343MOL0     C47240  11.454   5.370   5.287 -0.3689 -0.3351 -0.5855
  343MOL0    Cl47241  11.559   5.511   5.322  0.5850 -0.1553 -0.4513
  343MOL0     C47242  11.760   4.536   4.758 -0.6071  0.3253  0.8365
  343MOL0     C47243  11.828   4.418   4.806 -0.1475  0.2446  0.7005
  343MOL0     O47244  11.790   4.241   5.045 -0.5222 -0.2893 -0.4603
  343MOL0     C47245  12.135   4.115   5.027 -0.4142  0.3502  0.4239
  343MOL0     C47246  12.218   4.032   5.098  0.7305  0.0686  0.0199
  343MOL0     N47247  12.230   3.257   5.322  0.3007  0.1630 -0.0946
  343MOL0     N47248  12.154   3.164   5.271  0.6294  0.1884 -0.0926
  343MOL0     C47249  11.427   2.490   4.905 -0.6933  0.2902 -0.2167
  343MOL0     C47250  11.368   2.402   5.005  0.0322  0.0714  0.1516
  343MOL0     C47251  11.360   2.045   5.276 -0.5657  0.3005 -0.4010
  343MOL0     C47252  11.431   1.926   5.319 -0.4270  0.3217  0.1528
  343MOL0     C47253  11.362   1.812   5.365 -0.2843  0.0261  0.2831
  343MOL0     C47254  11.218   1.805   5.360 -0.9310 -0.3560  0.5926
  343MOL0     O47255  11.133   1.698   5.391  0.8988 -0.4253 -0.3474
  343MOL0     C47256  11.189   1.567   5.436 -0.3242  0.5194  0.3932
  343MOL0     C47257  11.197   1.553   5.591 -0.0249  0.2862 -1.1065
  343MOL0     C47258  11.064   1.550   5.666 -0.6348 -0.7565 -1.0678
  343MOL0     C47259  11.102   1.514   5.813  0.2599  0.3279 -0.0407
  343MOL0     C47260  10.990   1.530   5.908 -0.2378  0.2769 -0.0441
  343MOL0     C47261  10.898   1.550   5.984  0.7993  0.6039 -0.5782
  343MOL0     C47262  11.152   1.923   5.324 -0.3900 -0.7347 -0.8497
  343MOL0     C47263  11.218   2.040   5.290 -0.1699  0.0803  0.1624
  343MOL0     C47264  11.137   2.165   5.293  0.2619  0.1018 -0.1720
  343MOL0     H47265  11.600   2.394   5.238 -3.5234  1.2374  2.2025
  343MOL0     H47266  11.735   2.527   5.058 -0.8168  2.2014  1.9478
  343MOL0     H47267  11.484   2.775   4.830  1.0455 -1.1445  1.0413
  343MOL0     H47268  11.496   2.654   4.705 -0.2450  0.7935 -0.7017
  343MOL0     H47269  11.680   2.742   4.611 -1.6831 -1.0026 -0.0698
  343MOL0     H47270  11.574   2.867   4.623 -0.7904  0.2842  1.2774
  343MOL0     H47271  11.757   2.850   4.862  3.7005  0.4669 -0.0600
  343MOL0     H47272  11.835   2.865   4.707  0.1190 -1.7269  0.5015
  343MOL0     H47273  11.743   3.081   4.659 -3.3081  1.0537 -0.4233
  343MOL0     H47274  11.608   3.068   4.749  0.9514  2.9329 -0.4848
  343MOL0     H47275  11.775   3.053   4.956  0.0551 -1.8226 -0.7147
  343MOL0     H47276  11.742   3.215   4.877  1.3700  0.4959 -0.9241
  343MOL0     H47277  11.978   3.038   4.810  1.7329 -0.0575  1.0386
  343MOL0     H47278  11.939   3.196   4.745 -0.7092 -0.7264 -0.3017
  343MOL0     H47279  11.941   3.287   4.986  0.0938 -1.1083 -0.0483
  343MOL0     H47280  12.093   3.266   4.894  0.8494 -2.5601 -1.9834
  343MOL0     H47281  12.016   3.037   5.083  0.0710 -1.0721 -0.2833
  343MOL0     H47282  12.144   3.058   4.963 -0.9145 -2.7717  0.7485
  343MOL0     H47283  12.285   3.300   5.001  0.8340  1.4610  0.5372
  343MOL0     H47284  12.473   3.396   5.157  0.0440 -0.8297  0.7223
  343MOL0     H47285  12.443   3.415   5.331  1.0455  2.0367  0.5022
  343MOL0     H47286  12.323   3.591   5.108 -0.7830  1.0549  0.1427
  343MOL0     H47287  12.226   3.564   5.249 -0.1253 -3.2507  0.4431
  343MOL0     H47288  12.389   3.682   5.397  0.7047 -0.7050  0.2638
  343MOL0     H47289  12.518   3.636   5.282  1.1839  1.5580 -0.8595
  343MOL0     H47290  12.469   3.876   5.229 -0.2019 -0.6367 -2.0686
  343MOL0     H47291  12.388   3.789   5.111  3.1670  0.1460  0.2923
  343MOL0     H47292  12.025   3.858   5.299  1.8991 -0.7148 -1.7592
  343MOL0     H47293  11.803   3.927   5.310 -2.5458  0.7594  0.5929
  343MOL0     H47294  11.740   3.977   5.160  2.2377  0.7020 -1.4678
  343MOL0     H47295  11.790   4.101   5.289 -1.0332 -0.2679  1.7891
  343MOL0     H47296  11.986   4.549   5.068 -1.2790  0.1517 -0.0926
  343MOL0     H47297  11.857   4.756   4.982  2.2147 -0.6710  0.5574
  343MOL0     H47298  11.537   4.732   4.893 -0.0063 -0.2321 -0.0229
  343MOL0     H47299  11.652   4.847   4.963  3.9545 -0.3805 -1.6903
  343MOL0     H47300  11.533   4.884   4.692 -0.7929 -1.3352 -0.0342
  343MOL0     H47301  11.450   4.942   4.850 -0.0285  0.6072 -1.0890
  343MOL0     H47302  11.585   5.122   4.706 -2.0382 -0.8060 -0.3298
  343MOL0     H47303  11.729   5.026   4.738  0.5379  1.2364 -0.9854
  343MOL0     H47304  11.726   5.214   4.890 -2.5252  2.1142  2.2754
  343MOL0     H47305  11.708   5.056   4.966 -0.7854 -1.4440 -0.6820
  343MOL0     H47306  11.484   5.255   4.894  2.2481 -0.9236 -2.4785
  343MOL0     H47307  11.456   5.107   4.986  0.2950  0.0461 -1.7966
  343MOL0     H47308  11.644   5.334   5.086 -1.0112  1.5941  0.5878
  343MOL0     H47309  11.595   5.181   5.161 -1.0049 -2.7869 -2.1511
  343MOL0     H47310  11.349   5.275   5.118  1.2911  0.8853 -1.4574
  343MOL0     H47311  11.416   5.421   5.076  0.4122  1.4702  0.6124
  343MOL0     H47312  11.492   5.279   5.333 -5.0710 -1.7166  1.1289
  343MOL0     H47313  11.352   5.394   5.320 -0.5640  1.8374 -2.4513
  343MOL0     H47314  11.686   4.525   4.680  1.3106 -0.5302 -0.9346
  343MOL0     H47315  11.818   4.324   4.751 -1.7658  1.3873 -1.1154
  343MOL0     H47316  12.176   4.173   4.946  1.1814 -0.3018  0.7180
  343MOL0     H47317  12.317   4.010   5.059 -0.8191 -2.7491 -2.7896
  343MOL0     H47318  11.376   2.515   4.813  0.9726  0.2856 -1.1918
  343MOL0     H47319  11.272   2.357   4.983  1.4425 -2.0970 -2.2645
  343MOL0     H47320  11.539   1.918   5.330 -0.4944  0.1232  0.7097
  343MOL0     H47321  11.430   1.735   5.401 -1.9877 -1.0696  1.2670
  343MOL0     H47322  11.132   1.481   5.398  0.3079 -1.5522  3.7118
  343MOL0     H47323  11.289   1.549   5.397 -1.7206  0.5619 -3.7157
  343MOL0     H47324  11.243   1.648   5.619 -0.9091  1.0145 -2.0219
  343MOL0     H47325  11.253   1.468   5.632 -0.6002  0.4020 -0.0502
  343MOL0     H47326  11.011   1.646   5.667 -3.1875 -2.0433  0.8830
  343MOL0     H47327  10.994   1.472   5.635  0.2452 -1.0372 -2.4499
  343MOL0     H47328  11.188   1.567   5.855  0.8022 -1.2379  0.9143
  343MOL0     H47329  11.124   1.407   5.803 -2.8530 -0.2534 -2.7044
  343MOL0     H47330  10.818   1.547   6.055 -1.3445 -2.7983 -2.8246
  343MOL0     H47331  11.044   1.918   5.333 -0.7112  1.8012 -2.1774
  343MOL0     H47332  11.029   2.158   5.310  0.2210  1.2402  0.0838
  343MOL0     H47333  11.173   2.242   5.362  1.5974 -2.3144  2.0196
  343MOL0     H47334  11.138   2.205   5.191  3.0975 -1.2088 -0.7624
  344MOL0     O47335   1.121   9.342   0.815 -0.2280 -0.1994  0.1389
  344MOL0     C47336   1.140   9.356   0.931 -0.2501 -0.7735  0.2409
  344MOL0     O47337   1.261   9.382   0.992 -0.4884  0.1062 -0.3467
  344MOL0     C47338   1.377   9.398   0.913  0.4407  0.5629  0.5867
  344MOL0     C47339   1.417   9.520   0.869  0.1190 -0.7327  0.7545
  344MOL0     C47340   1.539   9.525   0.799  0.1026 -0.0035 -0.1719
  344MOL0     C47341   1.621   9.415   0.774  0.4728 -0.8481  0.3122
  344MOL0     O47342   1.743   9.447   0.722 -0.5562 -0.1841  0.2393
  344MOL0     C47343   1.827   9.331   0.685 -0.5042 -0.0565  0.6554
  344MOL0     C47344   1.964   9.394   0.667 -0.5935 -0.0961  0.2507
  344MOL0     C47345   2.052   9.431   0.787  0.4523  1.3909  0.9904
  344MOL0     C47346   2.196   9.477   0.759  1.1659 -0.5968  0.7741
  344MOL0     C47347   2.271   9.513   0.887  0.0100 -0.8086 -0.3463
  344MOL0     C47348   2.411   9.524   0.852  0.2674  0.0584  0.3323
  344MOL0     C47349   2.501   9.577   0.964  0.8695 -0.1077  0.3835
  344MOL0     C47350   2.652   9.582   0.925  0.5787  0.1440 -0.4498
  344MOL0     N47351   2.714   9.687   0.843 -0.4070  0.0249 -1.0037
  344MOL0     C47352   2.711   9.693   0.706 -0.0097 -0.4421  0.8946
  344MOL0     C47353   2.771   9.806   0.674 -0.5409  0.0451 -0.1080
  344MOL0     C47354   2.788   9.843   0.535 -0.5488  0.6415  0.5250
  344MOL0     C47355   2.926   9.809   0.480  0.7092  0.6058 -0.5812
  344MOL0     C47356   2.935   9.815   0.324 -0.7865 -0.1271 -0.0479
  344MOL0     C47357   2.915   9.953   0.259  0.9541  0.5114 -0.1238
  344MOL0     O47358   2.781   9.991   0.269  0.2145  0.0053 -0.5688
  344MOL0     C47359   2.678   9.945   0.177  0.5483 -0.4811 -0.6628
  344MOL0     C47360   2.540   9.977   0.209  0.1103  0.4221 -0.1669
  344MOL0     C47361   2.439   9.962   0.121 -0.5522 -0.2240  0.1161
  344MOL0     C47362   2.310  10.035   0.154 -0.0308 -1.0227 -0.0059
  344MOL0     C47363   2.451   9.897  -0.007 -0.7637  0.3653 -0.2756
  344MOL0     C47364   2.349   9.860  -0.106  0.1795  0.0068  0.1926
  344MOL0     O47365   2.223   9.869  -0.066  0.0965  0.2853  1.1338
  344MOL0     C47366   2.110   9.818  -0.134 -0.1071  0.2426  0.7156
  344MOL0     C47367   2.122   9.704  -0.204  0.0373  0.0014 -0.0335
  344MOL0     C47368   2.012   9.644  -0.266 -0.2487 -0.7881 -0.1774
  344MOL0     C47369   1.883   9.700  -0.250  0.3359  0.6183  0.0694
  344MOL0     O47370   1.769   9.655  -0.312  0.3613  0.2803 -0.2821
  344MOL0     C47371   1.794   9.551  -0.408 -0.0681  0.5671 -0.3415
  344MOL0     C47372   1.676   9.505  -0.501  0.1416  0.7000 -0.5700
  344MOL0     C47373   1.721   9.379  -0.588 -1.0056 -0.0442 -1.1924
  344MOL0     C47374   1.599   9.290  -0.612  0.7673 -0.2411 -0.9262
  344MOL0     C47375   1.622   9.195  -0.726 -0.5882  0.1504 -0.6522
  344MOL0     C47376   1.543   9.061  -0.733 -0.0325  0.4871 -0.5212
  344MOL0     C47377   1.588   8.965  -0.623  1.1334  0.3169 -0.1571
  344MOL0     C47378   1.713   8.884  -0.654  0.0395 -0.0387 -0.3682
  344MOL0    Cl47379   1.782   8.839  -0.486  0.2982  0.0558 -0.3046
  344MOL0     C47380   1.867   9.817  -0.181  0.5875 -0.9432 -1.0339
  344MOL0     C47381   1.981   9.870  -0.120  0.4021 -0.4873 -0.5700
  344MOL0     O47382   2.391   9.854  -0.229 -0.2014  0.3920 -0.1221
  344MOL0     C47383   2.587   9.864  -0.040 -0.4553  0.4608  0.0325
  344MOL0     C47384   2.697   9.887   0.047 -0.5936 -0.9025  0.3528
  344MOL0     N47385   2.822   9.853   0.785  0.8343 -0.1623 -0.2063
  344MOL0     N47386   2.793   9.791   0.889 -0.0457 -0.7670  0.2558
  344MOL0     C47387   1.571   9.291   0.815  0.7924 -0.5460  0.3612
  344MOL0     C47388   1.450   9.288   0.889 -0.0050 -0.9910  0.5144
  344MOL0     C47389   1.029   9.331   1.024 -0.1916 -0.0362  0.0671
  344MOL0     C47390   1.063   9.311   1.162 -0.7301 -0.2230  0.2377
  344MOL0     C47391   0.965   9.280   1.252 -0.5888 -0.1982 -1.3846
  344MOL0     C47392   0.832   9.270   1.218 -0.0417  0.3990  0.2181
  344MOL0     O47393   0.721   9.262   1.308 -0.0486 -0.0366  0.2893
  344MOL0     C47394   0.700   9.376   1.393  0.9228  0.0117 -0.0387
  344MOL0     C47395   0.701   9.337   1.545  0.7715 -0.0823 -0.2589
  344MOL0     C47396   0.572   9.264   1.577 -0.0988 -0.5544  0.2791
  344MOL0     C47397   0.597   9.184   1.702 -0.2380 -0.2224  0.4033
  344MOL0     C47398   0.477   9.105   1.719  0.0491 -0.7784  0.6292
  344MOL0     C47399   0.381   9.026   1.724 -0.1268 -1.0833 -0.0313
  344MOL0     C47400   0.796   9.302   1.082 -0.6569  0.3901 -0.7330
  344MOL0     C47401   0.899   9.311   0.987  0.6865 -1.5776  0.3084
  344MOL0     C47402   0.842   9.320   0.838 -0.0001  0.6777 -0.4044
  344MOL0     H47403   1.352   9.607   0.868  4.0603  2.6062 -2.2568
  344MOL0     H47404   1.571   9.621   0.759 -2.0745 -0.3050 -2.9553
  344MOL0     H47405   1.799   9.301   0.584 -0.3357  1.8952 -0.0183
  344MOL0     H47406   1.829   9.247   0.755 -2.2374  0.2775  1.1598
  344MOL0     H47407   2.035   9.330   0.613 -1.6382  0.3241 -1.6987
  344MOL0     H47408   1.949   9.485   0.609 -0.9414  0.6692  1.4990
  344MOL0     H47409   1.991   9.505   0.840 -2.5706 -0.8901  0.9763
  344MOL0     H47410   2.051   9.350   0.862 -0.0649  1.7771  1.4074
  344MOL0     H47411   2.257   9.397   0.717  1.7998  1.0889 -1.7848
  344MOL0     H47412   2.196   9.571   0.703  2.9803  0.7119  2.8203
  344MOL0     H47413   2.269   9.435   0.963  3.2333 -0.7226 -0.0588
  344MOL0     H47414   2.237   9.607   0.931  2.7429 -0.9103  2.2953
  344MOL0     H47415   2.450   9.424   0.830  0.5815 -0.1110  1.5694
  344MOL0     H47416   2.418   9.589   0.765  0.3636 -2.3494 -1.5537
  344MOL0     H47417   2.498   9.510   1.050  1.8192 -0.4740  0.1407
  344MOL0     H47418   2.466   9.677   0.993 -1.3452 -0.2219 -1.6120
  344MOL0     H47419   2.694   9.590   1.026 -0.3946  3.2956 -0.1719
  344MOL0     H47420   2.677   9.487   0.877 -0.4513 -0.1100 -0.5043
  344MOL0     H47421   2.660   9.626   0.637 -0.7577 -1.0813  2.0364
  344MOL0     H47422   2.779   9.951   0.518  2.3064  1.7120  4.4610
  344MOL0     H47423   2.716   9.793   0.469  0.2851  1.9110 -1.4492
  344MOL0     H47424   3.008   9.869   0.521 -0.0083  0.7728  0.6495
  344MOL0     H47425   2.954   9.706   0.502 -0.4371  0.1960 -1.0086
  344MOL0     H47426   3.037   9.783   0.302 -0.0733  0.3114  2.3155
  344MOL0     H47427   2.859   9.746   0.286  0.7364 -1.0946 -1.4255
  344MOL0     H47428   2.988  10.026   0.297 -0.8265  0.5468  3.6011
  344MOL0     H47429   2.942   9.951   0.153 -2.0443  1.2523 -0.9984
  344MOL0     H47430   2.517  10.039   0.295  0.7989  1.3764 -0.6542
  344MOL0     H47431   2.244   9.955   0.188 -0.1820 -1.4323 -1.2333
  344MOL0     H47432   2.267  10.076   0.062 -0.2700 -2.0817 -0.3735
  344MOL0     H47433   2.311  10.120   0.223 -2.2029 -0.5503 -0.4835
  344MOL0     H47434   2.212   9.650  -0.233 -0.1855 -0.5409  0.2695
  344MOL0     H47435   2.034   9.565  -0.337 -1.9201 -1.3589 -0.0891
  344MOL0     H47436   1.879   9.587  -0.468 -1.0039 -0.2470 -2.2276
  344MOL0     H47437   1.823   9.457  -0.359 -0.0548  0.4871 -0.4995
  344MOL0     H47438   1.587   9.486  -0.441 -0.5926  1.3506 -1.4268
  344MOL0     H47439   1.651   9.583  -0.573 -0.6983 -0.4555 -1.5583
  344MOL0     H47440   1.792   9.311  -0.540  0.6910 -0.4412 -4.0558
  344MOL0     H47441   1.762   9.404  -0.686 -1.9104 -0.9540 -1.8320
  344MOL0     H47442   1.505   9.339  -0.643  0.5202 -1.1078 -1.5715
  344MOL0     H47443   1.570   9.248  -0.515 -1.0172  2.7189 -0.0393
  344MOL0     H47444   1.603   9.256  -0.815 -0.8022 -0.1038 -0.7824
  344MOL0     H47445   1.729   9.177  -0.735 -0.5366 -0.4061  0.9486
  344MOL0     H47446   1.546   9.009  -0.830 -2.1305  0.6957 -0.7491
  344MOL0     H47447   1.437   9.081  -0.712 -0.0234 -0.3077  0.3593
  344MOL0     H47448   1.501   8.901  -0.609  0.6772  0.8732 -0.3642
  344MOL0     H47449   1.593   9.029  -0.534  0.1896  1.1618 -0.6827
  344MOL0     H47450   1.786   8.941  -0.711  1.7215 -0.6951  1.0423
  344MOL0     H47451   1.689   8.799  -0.719  1.9877 -0.2320 -0.9134
  344MOL0     H47452   1.771   9.866  -0.169  0.5956 -1.2097  0.2380
  344MOL0     H47453   1.957   9.958  -0.061 -0.4258 -0.3738 -1.0530
  344MOL0     H47454   2.609   9.823  -0.139 -1.1163  3.5100 -1.4902
  344MOL0     H47455   2.802   9.862   0.029  0.3426  2.7927 -0.0902
  344MOL0     H47456   1.624   9.197   0.806  2.1418  0.3304 -1.3421
  344MOL0     H47457   1.409   9.199   0.937 -2.2359 -0.0369  0.4786
  344MOL0     H47458   1.162   9.324   1.204 -0.5204  0.8939 -0.5595
  344MOL0     H47459   1.001   9.265   1.353  1.8551 -0.1009 -2.1741
  344MOL0     H47460   0.772   9.457   1.375 -0.5303  1.0130 -1.8141
  344MOL0     H47461   0.606   9.426   1.365  0.6412  0.2077  1.2006
  344MOL0     H47462   0.705   9.419   1.617  0.3092 -0.7493  0.5418
  344MOL0     H47463   0.792   9.279   1.564  0.3635 -0.2342  1.3823
  344MOL0     H47464   0.496   9.340   1.591  3.0231  2.9066  0.0442
  344MOL0     H47465   0.544   9.193   1.498  4.9693 -3.2178  0.4168
  344MOL0     H47466   0.615   9.256   1.782 -0.0629 -0.1438  0.2966
  344MOL0     H47467   0.687   9.124   1.685  1.0942  2.2220 -2.1272
  344MOL0     H47468   0.307   8.950   1.738  0.6920 -1.8937 -0.0300
  344MOL0     H47469   0.694   9.318   1.048  0.3567  0.0204 -4.3687
  344MOL0     H47470   0.891   9.238   0.784 -1.1530  1.8505 -3.4773
  344MOL0     H47471   0.733   9.322   0.831 -0.2562  0.5827  2.3634
  344MOL0     H47472   0.891   9.407   0.792  3.2801 -0.2082  1.1164
  345MOL0     O47473   9.219   0.180   8.074  0.4630  0.4063  0.2527
  345MOL0     C47474   9.162   0.123   8.169 -0.3948 -0.8389 -0.6319
  345MOL0     O47475   9.097   0.002   8.160 -0.1100 -0.1802 -0.0550
  345MOL0     C47476   9.092  -0.056   8.041  0.2418  0.2861  0.4816
  345MOL0     C47477   9.026  -0.004   7.918  0.0248  0.5404  1.2278
  345MOL0     C47478   9.029  -0.075   7.793 -0.2739  0.8853 -0.3423
  345MOL0     C47479   9.103  -0.198   7.787 -0.2261 -0.3663 -0.5387
  345MOL0     O47480   9.125  -0.258   7.668 -0.1126 -0.0420  0.0572
  345MOL0     C47481   9.067  -0.386   7.641 -0.3098 -0.6424  0.5599
  345MOL0     C47482   8.916  -0.359   7.624  0.0928  0.2777 -1.0211
  345MOL0     C47483   8.877  -0.272   7.512  0.3083 -0.2898 -0.0217
  345MOL0     C47484   8.729  -0.269   7.481  0.1950 -0.4715  0.2011
  345MOL0     C47485   8.649  -0.189   7.586 -0.7416 -0.4576 -0.3032
  345MOL0     C47486   8.502  -0.207   7.592 -0.7043  0.5314  0.0253
  345MOL0     C47487   8.447  -0.188   7.732  0.0265 -0.1669 -0.0177
  345MOL0     C47488   8.295  -0.209   7.763 -0.4779  0.3413  0.4432
  345MOL0     N47489   8.234  -0.340   7.710  0.5219  0.3769 -0.0219
  345MOL0     C47490   8.305  -0.459   7.695  0.8443  0.3875  1.7944
  345MOL0     C47491   8.210  -0.554   7.671  0.3161  0.2321  0.5301
  345MOL0     C47492   8.239  -0.697   7.624 -0.2594  0.7222 -0.2314
  345MOL0     C47493   8.138  -0.732   7.520  0.3422  0.1591  1.2254
  345MOL0     C47494   8.140  -0.876   7.472  0.3023 -0.5572  0.1148
  345MOL0     C47495   8.027  -0.905   7.377 -0.5284  0.6673 -0.3825
  345MOL0     O47496   8.047  -0.831   7.259  0.1054  0.4258 -0.3257
  345MOL0     C47497   8.108  -0.895   7.153 -0.2218 -0.1717 -0.6255
  345MOL0     C47498   8.164  -1.022   7.154  1.3056  0.3752 -0.0663
  345MOL0     C47499   8.209  -1.069   7.022  0.3077  1.6067  0.4336
  345MOL0     C47500   8.275  -1.209   7.022 -0.0540 -0.5991  0.8514
  345MOL0     C47501   8.216  -0.989   6.906  0.2019 -0.1823 -0.6840
  345MOL0     C47502   8.278  -1.025   6.772  0.6335 -0.3093 -1.1143
  345MOL0     O47503   8.290  -1.158   6.747  0.1466 -0.2374 -0.1391
  345MOL0     C47504   8.376  -1.197   6.649  0.0795  0.2157 -0.3705
  345MOL0     C47505   8.509  -1.213   6.695 -0.1345 -0.9716  0.5299
  345MOL0     C47506   8.598  -1.272   6.616 -0.1801 -0.8771  0.1875
  345MOL0     C47507   8.564  -1.302   6.482  0.3676 -0.1895 -0.1546
  345MOL0     O47508   8.673  -1.351   6.406 -0.2234 -0.2828  0.1145
  345MOL0     C47509   8.657  -1.414   6.276  0.1169  0.0768  0.9237
  345MOL0     C47510   8.777  -1.473   6.196 -0.0048  1.0170 -0.4823
  345MOL0     C47511   8.912  -1.397   6.231 -0.8735  1.1587  0.3465
  345MOL0     C47512   8.916  -1.276   6.140  0.1969 -1.0631  0.3815
  345MOL0     C47513   9.036  -1.177   6.165 -0.0913  0.3760  0.3568
  345MOL0     C47514   9.042  -1.119   6.308 -0.4618 -0.8637 -0.3702
  345MOL0     C47515   9.134  -0.991   6.328 -0.0912 -0.6716  0.6061
  345MOL0     C47516   9.135  -0.934   6.465 -0.5181  0.6417 -0.2988
  345MOL0    Cl47517   9.223  -0.776   6.442  0.2794  0.0061 -0.0442
  345MOL0     C47518   8.434  -1.263   6.424  0.3784  1.0888 -0.6090
  345MOL0     C47519   8.338  -1.212   6.513 -0.2335 -0.2967 -0.7211
  345MOL0     O47520   8.322  -0.932   6.705  0.2262 -0.0173  0.3939
  345MOL0     C47521   8.154  -0.864   6.916  0.1118 -0.3643  0.3548
  345MOL0     C47522   8.106  -0.816   7.035 -0.6447 -0.7499 -1.0388
  345MOL0     N47523   8.088  -0.488   7.691 -0.5650  0.4515  0.1185
  345MOL0     N47524   8.100  -0.362   7.706  0.1937 -0.3233 -0.5556
  345MOL0     C47525   9.170  -0.253   7.901 -0.0276 -0.2363  0.1341
  345MOL0     C47526   9.154  -0.182   8.022  0.0408  1.3142 -1.5120
  345MOL0     C47527   9.142   0.188   8.302 -0.2307 -1.5895  0.8184
  345MOL0     C47528   9.046   0.131   8.392 -0.0735 -0.3232 -0.2746
  345MOL0     C47529   9.047   0.180   8.525 -0.3192 -0.0377  0.3399
  345MOL0     C47530   9.127   0.287   8.571 -0.6909  0.4961 -0.3319
  345MOL0     O47531   9.138   0.340   8.689  0.2919 -0.0332  0.0895
  345MOL0     C47532   9.034   0.316   8.787 -1.1403 -1.2218  0.8329
  345MOL0     C47533   9.048   0.199   8.883 -0.3286  0.8424  0.2658
  345MOL0     C47534   8.910   0.122   8.895  0.4439  0.4819 -0.5088
  345MOL0     C47535   8.809   0.180   8.991 -0.2987  0.3948  0.0288
  345MOL0     C47536   8.685   0.111   8.978  0.2924  0.8520 -0.5724
  345MOL0     C47537   8.587   0.050   8.967  0.4433 -0.1521  0.1955
  345MOL0     C47538   9.220   0.339   8.482 -0.5669  0.2986 -0.4190
  345MOL0     C47539   9.231   0.289   8.350  0.0109 -0.2222 -0.2662
  345MOL0     C47540   9.322   0.374   8.260  0.7861  0.0943 -0.0699
  345MOL0     H47541   8.980   0.094   7.919 -2.0675 -0.3875  0.9372
  345MOL0     H47542   8.983  -0.020   7.711  0.2452  2.2610  0.2519
  345MOL0     H47543   9.064  -0.447   7.732  1.3557 -0.6492  0.6450
  345MOL0     H47544   9.117  -0.432   7.555  1.5889  0.0543  1.2508
  345MOL0     H47545   8.865  -0.453   7.606 -0.0292 -0.7285  3.4340
  345MOL0     H47546   8.879  -0.311   7.715  1.5171  1.1567 -0.8663
  345MOL0     H47547   8.904  -0.166   7.516 -1.2162  0.2906 -2.5825
  345MOL0     H47548   8.923  -0.305   7.418  0.1490  0.9163 -0.5343
  345MOL0     H47549   8.694  -0.222   7.388 -2.6235 -2.8165 -0.0664
  345MOL0     H47550   8.697  -0.373   7.474 -0.6199 -0.1568 -1.4020
  345MOL0     H47551   8.683  -0.086   7.580  2.6579 -1.4156  0.3220
  345MOL0     H47552   8.693  -0.225   7.679 -1.4062 -1.2319 -0.2731
  345MOL0     H47553   8.473  -0.124   7.529  1.3114 -1.2925 -3.6467
  345MOL0     H47554   8.480  -0.309   7.559  0.7643  0.4453 -0.7688
  345MOL0     H47555   8.477  -0.084   7.750 -0.7669 -0.0806  0.9052
  345MOL0     H47556   8.510  -0.247   7.799  2.5501  2.4250  0.1227
  345MOL0     H47557   8.274  -0.214   7.870 -0.5717  3.3769  0.6568
  345MOL0     H47558   8.241  -0.124   7.719  0.0216  0.2050 -0.4758
  345MOL0     H47559   8.412  -0.476   7.688  0.5070 -1.4896  0.7285
  345MOL0     H47560   8.249  -0.762   7.711  1.5044  1.5441  0.2236
  345MOL0     H47561   8.335  -0.713   7.573 -0.4206 -3.0310  0.3559
  345MOL0     H47562   8.035  -0.706   7.546 -0.0705  1.4864 -1.4549
  345MOL0     H47563   8.151  -0.667   7.434 -0.2662 -1.1560  0.1037
  345MOL0     H47564   8.241  -0.906   7.442 -0.6397 -2.1149 -1.7135
  345MOL0     H47565   8.119  -0.924   7.568  0.2395  0.0639  0.4120
  345MOL0     H47566   8.019  -1.013   7.368  1.0648  0.3281  1.5277
  345MOL0     H47567   7.940  -0.868   7.431  1.2252  0.1606  3.1141
  345MOL0     H47568   8.171  -1.080   7.246 -0.4467 -3.0030 -1.8997
  345MOL0     H47569   8.374  -1.202   6.974 -1.8103 -3.2582 -3.7887
  345MOL0     H47570   8.213  -1.282   6.969 -2.5076 -0.4069  3.2367
  345MOL0     H47571   8.279  -1.254   7.121 -2.8540 -1.5247  0.6170
  345MOL0     H47572   8.539  -1.181   6.794 -0.0206  1.0438 -0.1072
  345MOL0     H47573   8.697  -1.299   6.651  1.2891  3.8292  0.3024
  345MOL0     H47574   8.602  -1.508   6.289  0.2567  0.1857  2.5940
  345MOL0     H47575   8.601  -1.348   6.209 -1.6232 -2.8413 -0.7492
  345MOL0     H47576   8.799  -1.575   6.227  1.0481  1.5410  0.5744
  345MOL0     H47577   8.767  -1.466   6.087  0.4550 -1.9203 -0.7894
  345MOL0     H47578   8.999  -1.463   6.217  0.1004  2.0123  2.0020
  345MOL0     H47579   8.914  -1.375   6.338  0.5199 -1.0150  0.8248
  345MOL0     H47580   8.828  -1.212   6.139  1.2617  0.4757 -0.7196
  345MOL0     H47581   8.913  -1.310   6.036 -2.2159 -1.5482  0.5523
  345MOL0     H47582   9.127  -1.234   6.144 -0.4668 -1.3966  3.0214
  345MOL0     H47583   9.023  -1.095   6.094  0.5685  0.1346 -0.0491
  345MOL0     H47584   9.068  -1.201   6.376 -0.6466 -1.3760 -0.9076
  345MOL0     H47585   8.943  -1.095   6.347 -0.2135 -2.3653  1.3153
  345MOL0     H47586   9.085  -0.914   6.268  2.2008 -0.6069 -1.3276
  345MOL0     H47587   9.234  -1.017   6.294  0.3435  2.3832 -0.7434
  345MOL0     H47588   9.190  -0.991   6.541 -2.0950  0.6087  0.8533
  345MOL0     H47589   9.037  -0.917   6.510 -1.2876 -2.0208 -0.8172
  345MOL0     H47590   8.404  -1.277   6.321  0.1913 -0.9569 -0.3101
  345MOL0     H47591   8.236  -1.190   6.483 -0.7409 -2.6602 -0.9329
  345MOL0     H47592   8.152  -0.784   6.842 -3.2523 -0.4117  0.2009
  345MOL0     H47593   8.077  -0.711   7.043  4.1483  1.0618 -3.1998
  345MOL0     H47594   9.232  -0.342   7.901  2.0195  1.1331  0.6276
  345MOL0     H47595   9.203  -0.215   8.113 -2.5857  2.3133  0.3956
  345MOL0     H47596   8.984   0.043   8.377  0.7504 -1.0697  0.5527
  345MOL0     H47597   8.988   0.124   8.598  0.1002 -1.6865 -0.5435
  345MOL0     H47598   9.035   0.411   8.840  1.8765 -0.7953  0.2310
  345MOL0     H47599   8.934   0.310   8.744 -0.7428 -6.8217 -0.1422
  345MOL0     H47600   9.067   0.241   8.983 -1.1691 -0.1654  0.8723
  345MOL0     H47601   9.123   0.126   8.852 -2.4514 -2.3966  2.1765
  345MOL0     H47602   8.860   0.102   8.800 -3.5660  1.2053  1.2440
  345MOL0     H47603   8.921   0.022   8.939  0.5944  1.7610  2.6297
  345MOL0     H47604   8.803   0.284   8.960  2.2378  0.2255 -1.3107
  345MOL0     H47605   8.850   0.173   9.092 -0.7056 -1.2911  0.1078
  345MOL0     H47606   8.490   0.004   8.968 -0.1937  1.1657  0.6644
  345MOL0     H47607   9.279   0.416   8.531 -1.6037 -0.1519  1.6031
  345MOL0     H47608   9.274   0.464   8.221  1.3595 -1.1586 -4.1050
  345MOL0     H47609   9.416   0.404   8.307  1.1437 -4.1597  2.4924
  345MOL0     H47610   9.354   0.308   8.179 -1.3304 -2.4167  1.0111
  346MOL0     O47611   8.246   4.440   2.702 -0.4997  0.2639 -0.1344
  346MOL0     C47612   8.324   4.533   2.668  0.3723  0.3224  0.4504
  346MOL0     O47613   8.376   4.548   2.547 -0.1785  0.0861  0.2168
  346MOL0     C47614   8.381   4.431   2.474 -0.4528 -0.0781 -0.4687
  346MOL0     C47615   8.338   4.418   2.342  0.2575 -0.8461  0.5181
  346MOL0     C47616   8.370   4.308   2.264  0.3943 -0.5576 -0.2610
  346MOL0     C47617   8.432   4.194   2.321 -0.5623  0.1427  0.4351
  346MOL0     O47618   8.444   4.073   2.261 -0.3541  0.6424  0.3336
  346MOL0     C47619   8.407   4.041   2.122 -0.4845  0.5634  0.5603
  346MOL0     C47620   8.435   3.897   2.110  0.2911 -0.2064 -0.0179
  346MOL0     C47621   8.451   3.882   1.961  0.1291  0.5716 -0.2409
  346MOL0     C47622   8.470   3.733   1.918 -0.5367 -0.1502 -0.0505
  346MOL0     C47623   8.455   3.725   1.776  0.2262  0.6456  0.1153
  346MOL0     C47624   8.470   3.576   1.725 -0.3524  1.0366  0.4550
  346MOL0     C47625   8.383   3.549   1.598  0.2147  0.9055 -0.4465
  346MOL0     C47626   8.460   3.468   1.494 -0.1035 -0.2943  0.5640
  346MOL0     N47627   8.576   3.540   1.426  0.0137 -0.8650 -0.4468
  346MOL0     C47628   8.572   3.652   1.342  0.1488  0.3417  0.2577
  346MOL0     C47629   8.707   3.663   1.286 -0.2511  0.0998  0.3554
  346MOL0     C47630   8.749   3.758   1.176  0.8012  0.1734 -0.0319
  346MOL0     C47631   8.724   3.695   1.041 -0.5121  0.2967  0.3284
  346MOL0     C47632   8.763   3.781   0.916 -0.0579 -0.1395 -0.4110
  346MOL0     C47633   8.772   3.697   0.786 -0.6146 -0.5908  0.1336
  346MOL0     O47634   8.849   3.767   0.694 -0.2800 -0.1480  0.5727
  346MOL0     C47635   8.848   3.734   0.556 -0.5397  0.0639 -0.3993
  346MOL0     C47636   8.786   3.622   0.498 -0.3255 -0.1488  0.1227
  346MOL0     C47637   8.809   3.592   0.362  0.2363  0.1690 -1.3851
  346MOL0     C47638   8.771   3.449   0.312 -0.2405 -1.1867 -0.5056
  346MOL0     C47639   8.883   3.695   0.280 -0.1121  0.3157  0.4144
  346MOL0     C47640   8.925   3.669   0.135  0.2134  0.2316 -0.9034
  346MOL0     O47641   8.836   3.608   0.053  0.4843 -0.1739  0.4371
  346MOL0     C47642   8.866   3.579  -0.082 -0.5321 -0.2659 -0.9784
  346MOL0     C47643   8.981   3.505  -0.102  0.6919 -0.4242  0.1569
  346MOL0     C47644   9.013   3.457  -0.232 -0.8873 -0.0772  0.9138
  346MOL0     C47645   8.933   3.497  -0.349  0.1888  0.4974 -0.2244
  346MOL0     O47646   8.962   3.467  -0.486  0.2570 -0.2574  0.1411
  346MOL0     C47647   9.106   3.458  -0.513  0.1783  0.4099 -0.6893
  346MOL0     C47648   9.136   3.315  -0.536 -0.1951  0.8898 -0.4577
  346MOL0     C47649   9.062   3.247  -0.649 -0.2219  0.6278 -0.1741
  346MOL0     C47650   9.118   3.107  -0.672  0.4723 -0.0262  0.3366
  346MOL0     C47651   9.074   3.058  -0.811 -0.0945 -0.7246 -0.0510
  346MOL0     C47652   9.147   3.111  -0.932  0.5306  0.6688  0.2856
  346MOL0     C47653   9.305   3.075  -0.946 -0.1458  1.1188 -0.9427
  346MOL0     C47654   9.337   2.915  -0.945 -0.1783  0.1795 -0.0431
  346MOL0    Cl47655   9.280   2.854  -1.104 -0.0661 -0.2507  0.5111
  346MOL0     C47656   8.819   3.576  -0.316 -0.4238 -0.0959 -0.4008
  346MOL0     C47657   8.785   3.602  -0.190 -0.2861  0.6141 -0.3740
  346MOL0     O47658   9.040   3.695   0.109 -0.8293  0.1179 -0.0186
  346MOL0     C47659   8.938   3.802   0.345  0.4797  0.1427 -0.1630
  346MOL0     C47660   8.928   3.817   0.479 -1.0165 -0.2613  0.1811
  346MOL0     N47661   8.783   3.573   1.353  0.2881  0.1847  0.5702
  346MOL0     N47662   8.706   3.503   1.435 -1.3235  0.2115  0.5319
  346MOL0     C47663   8.494   4.210   2.448  0.1271  0.1479  0.0704
  346MOL0     C47664   8.460   4.319   2.523  0.9799 -0.1238 -0.1644
  346MOL0     C47665   8.355   4.633   2.766 -0.2015 -0.8824 -0.3707
  346MOL0     C47666   8.352   4.773   2.727 -0.4551  0.4363  1.3649
  346MOL0     C47667   8.404   4.875   2.808  0.0330 -0.4210 -0.0524
  346MOL0     C47668   8.440   4.850   2.943 -0.6264  0.0552 -0.4246
  346MOL0     O47669   8.471   4.964   3.024  0.0691 -0.5192  0.6894
  346MOL0     C47670   8.489   4.965   3.172  0.1309  0.4355  0.0895
  346MOL0     C47671   8.526   5.112   3.223 -0.3115 -0.3221  0.4139
  346MOL0     C47672   8.419   5.217   3.239 -0.1821 -0.1867  0.1350
  346MOL0     C47673   8.311   5.221   3.126 -0.5042  0.9665 -0.2521
  346MOL0     C47674   8.203   5.315   3.171 -0.2962 -0.8378 -0.3775
  346MOL0     C47675   8.127   5.385   3.216  0.3311  0.2910  0.0911
  346MOL0     C47676   8.423   4.717   2.983  0.2657  0.3402  0.4819
  346MOL0     C47677   8.387   4.614   2.899  0.0132 -0.2824  0.1071
  346MOL0     C47678   8.408   4.476   2.948  0.3942  0.2631 -0.1889
  346MOL0     H47679   8.290   4.498   2.287  1.0068 -2.6470 -3.1491
  346MOL0     H47680   8.319   4.288   2.170  1.0943 -0.0249 -0.7687
  346MOL0     H47681   8.464   4.103   2.052 -1.3708  1.4301  0.5898
  346MOL0     H47682   8.300   4.061   2.112 -0.7136 -0.6673  0.3492
  346MOL0     H47683   8.528   3.888   2.168  0.2399  2.7015  0.6586
  346MOL0     H47684   8.360   3.831   2.154  2.5012 -2.8916  0.0482
  346MOL0     H47685   8.368   3.920   1.901  0.1814  0.3239 -0.4737
  346MOL0     H47686   8.540   3.942   1.938  2.1713 -2.2961 -0.2810
  346MOL0     H47687   8.564   3.700   1.963 -0.4943  1.1309  0.8388
  346MOL0     H47688   8.386   3.683   1.969 -1.3420  1.6065  0.4173
  346MOL0     H47689   8.530   3.785   1.725 -2.2291  2.6456 -1.3309
  346MOL0     H47690   8.355   3.744   1.737 -0.4929 -1.7906  0.5606
  346MOL0     H47691   8.576   3.562   1.702 -0.1823 -0.1339  1.7733
  346MOL0     H47692   8.443   3.496   1.795 -0.4843 -0.7354 -1.4871
  346MOL0     H47693   8.367   3.642   1.542 -0.0361 -0.5611 -2.9850
  346MOL0     H47694   8.284   3.507   1.619  0.0360  1.7673  0.4698
  346MOL0     H47695   8.493   3.369   1.527 -0.6569 -0.4195  0.7530
  346MOL0     H47696   8.379   3.450   1.423  0.0883  1.2650 -0.0965
  346MOL0     H47697   8.482   3.711   1.331  0.5316  0.8932  0.0330
  346MOL0     H47698   8.855   3.781   1.190  0.7628  0.4658 -0.2124
  346MOL0     H47699   8.693   3.851   1.178  1.0820  0.4108 -1.7882
  346MOL0     H47700   8.789   3.606   1.046  1.6790  1.8470  1.2959
  346MOL0     H47701   8.626   3.648   1.032  0.6912 -2.5462  0.9195
  346MOL0     H47702   8.696   3.865   0.893  1.7919  1.0301 -1.9013
  346MOL0     H47703   8.864   3.814   0.941  0.0025  1.0802 -2.0989
  346MOL0     H47704   8.812   3.595   0.799 -1.3766 -1.1458 -1.6211
  346MOL0     H47705   8.666   3.689   0.761 -0.8793  2.5016 -0.0323
  346MOL0     H47706   8.742   3.545   0.562  0.8319 -0.7560  0.2085
  346MOL0     H47707   8.743   3.457   0.207  3.2105 -0.3991 -1.4952
  346MOL0     H47708   8.687   3.410   0.371  0.5610 -0.4920  1.1617
  346MOL0     H47709   8.853   3.376   0.317 -3.1750 -4.9463 -1.9342
  346MOL0     H47710   9.054   3.481  -0.026  0.8977  2.5721  1.0306
  346MOL0     H47711   9.107   3.412  -0.263 -0.4350 -0.2620  2.4682
  346MOL0     H47712   9.133   3.498  -0.611  0.1413 -2.7931 -2.1327
  346MOL0     H47713   9.168   3.515  -0.443 -2.5953  2.0909  0.5421
  346MOL0     H47714   9.241   3.300  -0.563 -0.3101 -0.9610  0.0418
  346MOL0     H47715   9.116   3.270  -0.438 -0.8149  1.9363 -0.0825
  346MOL0     H47716   9.065   3.310  -0.738 -0.8069  2.6751  1.1835
  346MOL0     H47717   8.959   3.232  -0.615 -0.1182  1.4261  0.5269
  346MOL0     H47718   9.092   3.043  -0.588  2.9021  0.2062  1.3684
  346MOL0     H47719   9.228   3.108  -0.664  0.4529 -1.3400  0.9844
  346MOL0     H47720   9.078   2.949  -0.820 -2.4313 -0.6641 -2.9491
  346MOL0     H47721   8.972   3.095  -0.822 -0.1770  0.8103  3.9955
  346MOL0     H47722   9.136   3.220  -0.928  0.4080  0.6975 -0.6832
  346MOL0     H47723   9.092   3.065  -1.015 -1.5342 -2.5466  3.1656
  346MOL0     H47724   9.346   3.107  -0.850 -0.4369 -0.2397 -0.3361
  346MOL0     H47725   9.357   3.120  -1.031  0.5856  0.5251 -0.8269
  346MOL0     H47726   9.292   2.877  -0.853  0.2062  1.3566  0.6539
  346MOL0     H47727   9.445   2.907  -0.929 -0.0427 -1.5313 -1.5327
  346MOL0     H47728   8.751   3.617  -0.390 -1.7605 -0.5483  0.5506
  346MOL0     H47729   8.689   3.651  -0.172  0.0368  0.9651  0.4421
  346MOL0     H47730   9.006   3.855   0.279  3.4241 -3.2215 -0.1214
  346MOL0     H47731   8.999   3.886   0.524 -0.1982 -0.2630 -1.0544
  346MOL0     H47732   8.548   4.126   2.491  0.5429  0.5180  0.2663
  346MOL0     H47733   8.477   4.315   2.630  0.2906 -1.8457 -0.0864
  346MOL0     H47734   8.325   4.807   2.628  1.0770 -1.7915  0.0826
  346MOL0     H47735   8.423   4.971   2.760  2.3574 -1.9705 -2.5285
  346MOL0     H47736   8.398   4.929   3.222 -0.9687  1.3007 -1.2246
  346MOL0     H47737   8.575   4.904   3.201  0.1894  0.2335 -0.4948
  346MOL0     H47738   8.596   5.161   3.155 -1.0799 -0.3587 -0.4137
  346MOL0     H47739   8.588   5.096   3.312 -0.9785  2.7836  1.5752
  346MOL0     H47740   8.369   5.196   3.334  2.2010  2.2156  2.0532
  346MOL0     H47741   8.469   5.313   3.257 -1.8665  0.7155  0.1688
  346MOL0     H47742   8.274   5.118   3.126 -0.5058  0.9441  1.1916
  346MOL0     H47743   8.353   5.236   3.026  2.5723 -2.6953  0.2486
  346MOL0     H47744   8.068   5.462   3.262  1.4577  0.6566  0.9893
  346MOL0     H47745   8.442   4.705   3.090  2.0293  3.3479  0.6313
  346MOL0     H47746   8.312   4.424   2.943  0.8955 -1.0092  1.9914
  346MOL0     H47747   8.478   4.419   2.886  0.7581 -0.5245  0.9235
  346MOL0     H47748   8.447   4.471   3.050 -0.3363  3.6174  0.3668
  347MOL0     O47749  11.327  11.052  10.745 -0.9424 -0.4186  0.2865
  347MOL0     C47750  11.341  10.930  10.748  0.0072  0.3169  0.8528
  347MOL0     O47751  11.280  10.841  10.666  0.1665 -0.3766  0.2911
  347MOL0     C47752  11.182  10.873  10.580 -0.4161 -1.0447  0.7455
  347MOL0     C47753  11.064  10.798  10.580  0.2082 -0.4165  0.5771
  347MOL0     C47754  10.955  10.833  10.492  0.0896  0.0410  0.5726
  347MOL0     C47755  10.961  10.944  10.407  0.2697 -0.0104  0.1589
  347MOL0     O47756  10.845  10.969  10.340  1.0007 -0.0497  0.1392
  347MOL0     C47757  10.877  11.031  10.203  0.1449  0.5467 -0.3132
  347MOL0     C47758  10.752  10.985  10.119  0.7394 -0.2767 -0.1108
  347MOL0     C47759  10.646  11.094  10.139 -0.3298 -0.2362  0.1720
  347MOL0     C47760  10.672  11.223  10.064  0.7224  0.1278  0.9416
  347MOL0     C47761  10.531  11.285  10.018  0.0253  0.5157 -0.3842
  347MOL0     C47762  10.527  11.437   9.967 -0.7373  0.1527  0.3384
  347MOL0     C47763  10.578  11.525  10.078  1.0208  0.2957 -0.5805
  347MOL0     C47764  10.601  11.664  10.015 -0.2690  0.4583 -0.2788
  347MOL0     N47765  10.629  11.758  10.125 -0.6958  0.4812  0.7720
  347MOL0     C47766  10.756  11.783  10.184 -1.0943 -0.1993  0.0262
  347MOL0     C47767  10.732  11.856  10.296 -1.1017 -0.8195 -0.1387
  347MOL0     C47768  10.833  11.922  10.369  0.0822 -0.6496 -0.2021
  347MOL0     C47769  10.809  11.868  10.518 -0.2047 -0.8070 -0.3075
  347MOL0     C47770  10.871  11.957  10.623 -0.1855 -0.1428  0.8728
  347MOL0     C47771  10.883  11.887  10.762 -0.0547 -0.1166  0.4894
  347MOL0     O47772  10.968  11.769  10.753 -0.2924 -0.2927  0.2227
  347MOL0     C47773  10.982  11.682  10.861 -0.1652 -0.9932  0.9266
  347MOL0     C47774  11.029  11.556  10.837  0.3823  0.8954  0.7076
  347MOL0     C47775  11.043  11.458  10.932  0.2562  0.7634  0.3045
  347MOL0     C47776  11.122  11.329  10.894  0.4443  0.2973  0.3046
  347MOL0     C47777  10.997  11.479  11.069 -0.0251  1.3394 -0.0152
  347MOL0     C47778  10.999  11.376  11.174  1.3799  0.2435  0.6589
  347MOL0     O47779  11.022  11.427  11.294  0.9211 -0.5168  0.0873
  347MOL0     C47780  11.051  11.357  11.408  1.5451  0.4871 -0.3791
  347MOL0     C47781  11.094  11.224  11.415  0.2238 -0.1562  1.3550
  347MOL0     C47782  11.155  11.172  11.525 -0.2807  0.5627 -0.4976
  347MOL0     C47783  11.137  11.250  11.648 -0.0170  0.4588  1.2328
  347MOL0     O47784  11.218  11.205  11.754  0.2236 -0.1281  0.4250
  347MOL0     C47785  11.164  11.092  11.833  0.0307 -0.1196  0.7463
  347MOL0     C47786  11.276  11.057  11.923 -0.1552  0.4646 -0.5443
  347MOL0     C47787  11.306  11.176  12.017 -0.6589 -0.2592  0.2409
  347MOL0     C47788  11.388  11.122  12.135 -0.3988 -0.8981  0.5869
  347MOL0     C47789  11.310  11.083  12.259  0.3489  0.2252 -0.1064
  347MOL0     C47790  11.195  10.981  12.242  0.8860  0.5429  1.0336
  347MOL0     C47791  11.129  10.959  12.379  0.2359  0.2845 -0.0465
  347MOL0     C47792  10.987  11.018  12.398 -1.6295  1.0764  0.9498
  347MOL0    Cl47793  10.880  10.950  12.271 -0.2265  0.3483 -0.1048
  347MOL0     C47794  11.070  11.379  11.650  0.4458 -0.3286  0.5451
  347MOL0     C47795  11.030  11.421  11.524  0.4912  0.5738 -0.6319
  347MOL0     O47796  10.968  11.267  11.140  0.1426  0.0342 -0.1193
  347MOL0     C47797  10.954  11.608  11.092  0.1619  0.0136 -0.3193
  347MOL0     C47798  10.952  11.709  10.998 -0.7245  1.1522  0.5316
  347MOL0     N47799  10.598  11.865  10.307  0.3114 -0.2373  0.2587
  347MOL0     N47800  10.535  11.803  10.213  0.0013 -0.6722  0.0863
  347MOL0     C47801  11.068  11.024  10.420 -0.3465  0.0892  0.5026
  347MOL0     C47802  11.184  10.986  10.491 -0.3736 -0.1357  0.0723
  347MOL0     C47803  11.443  10.874  10.841  0.6417  0.2638 -0.4859
  347MOL0     C47804  11.542  10.955  10.908 -0.3910  0.5316  0.1213
  347MOL0     C47805  11.633  10.904  10.995 -0.2905 -0.7150  0.5080
  347MOL0     C47806  11.643  10.769  11.012  0.2635  0.0436  0.0418
  347MOL0     O47807  11.729  10.711  11.103 -0.2705  0.0549  0.5834
  347MOL0     C47808  11.811  10.795  11.191 -1.4282  0.7333  0.6281
  347MOL0     C47809  11.921  10.715  11.259  0.2603 -0.3291 -0.0517
  347MOL0     C47810  11.856  10.628  11.377 -0.6832  0.7157  0.4587
  347MOL0     C47811  11.952  10.512  11.420 -0.3871  0.8164 -0.1209
  347MOL0     C47812  12.089  10.572  11.456  0.0037  0.8830  0.2110
  347MOL0     C47813  12.194  10.624  11.481 -0.3473  0.1539  0.0946
  347MOL0     C47814  11.552  10.678  10.952 -0.6915  0.3467 -0.3338
  347MOL0     C47815  11.448  10.730  10.868 -0.0118 -1.1016 -0.5874
  347MOL0     C47816  11.352  10.628  10.818 -0.0539 -0.9294  0.1716
  347MOL0     H47817  11.046  10.713  10.644 -0.1074 -0.0675  0.9576
  347MOL0     H47818  10.872  10.763  10.493  1.4574 -1.6481 -0.2622
  347MOL0     H47819  10.970  10.987  10.163  1.3593  1.6103  1.2572
  347MOL0     H47820  10.901  11.137  10.211  0.5678  0.5918 -1.7673
  347MOL0     H47821  10.787  10.979  10.016 -0.0674  2.4399 -0.6311
  347MOL0     H47822  10.709  10.889  10.148 -2.3210  1.1620  0.6211
  347MOL0     H47823  10.545  11.060  10.112 -0.5089  1.3772 -1.4048
  347MOL0     H47824  10.636  11.118  10.245 -0.2328 -2.0818  0.6331
  347MOL0     H47825  10.727  11.302  10.116  1.5348  0.8249 -0.8881
  347MOL0     H47826  10.732  11.209   9.973 -2.2062  0.3000 -1.1717
  347MOL0     H47827  10.459  11.285  10.100 -1.9635 -1.3830 -2.0353
  347MOL0     H47828  10.489  11.217   9.943  3.2054 -1.1654 -0.8157
  347MOL0     H47829  10.603  11.448   9.889  0.5168 -0.8331  1.3688
  347MOL0     H47830  10.425  11.463   9.939  0.5266  2.1425 -2.9308
  347MOL0     H47831  10.666  11.492  10.134  1.6225 -0.5335 -1.9612
  347MOL0     H47832  10.502  11.542  10.156  0.8872 -0.9825 -0.4084
  347MOL0     H47833  10.678  11.672   9.938  1.5532  0.4938  1.4754
  347MOL0     H47834  10.512  11.702   9.963  0.3066  1.7336 -0.3665
  347MOL0     H47835  10.856  11.758  10.150 -0.2519  0.7434  1.6565
  347MOL0     H47836  10.819  12.030  10.363 -3.7308 -1.0882 -2.9597
  347MOL0     H47837  10.937  11.901  10.343  0.1452 -1.8793  0.8898
  347MOL0     H47838  10.702  11.852  10.530  0.1360 -4.6305 -1.0242
  347MOL0     H47839  10.867  11.776  10.533  1.5335  0.4478  1.2281
  347MOL0     H47840  10.970  11.978  10.583 -0.5867  0.2779  0.0696
  347MOL0     H47841  10.814  12.050  10.633  0.9827  0.4223  2.6817
  347MOL0     H47842  10.931  11.951  10.837  0.1385  2.0336 -1.3722
  347MOL0     H47843  10.778  11.865  10.787 -0.0031 -1.6125 -0.4950
  347MOL0     H47844  11.069  11.530  10.740  1.9527  1.0483  1.2789
  347MOL0     H47845  11.154  11.332  10.790 -2.1675  2.0459 -0.5554
  347MOL0     H47846  11.046  11.250  10.894  0.9426 -0.1922 -0.7923
  347MOL0     H47847  11.204  11.308  10.963 -0.7081 -2.6860  0.9144
  347MOL0     H47848  11.108  11.165  11.326 -1.2292  3.3204 -1.4177
  347MOL0     H47849  11.206  11.077  11.529 -0.6882  0.3449 -0.4513
  347MOL0     H47850  11.069  11.119  11.880 -0.3963  0.5070 -0.4385
  347MOL0     H47851  11.133  11.010  11.768  0.8299 -0.9944  1.4306
  347MOL0     H47852  11.244  10.975  11.988  2.9141 -1.0315 -0.7217
  347MOL0     H47853  11.366  11.047  11.861  0.5344  0.6582  0.3960
  347MOL0     H47854  11.213  11.219  12.054 -1.7344 -0.3725 -2.1774
  347MOL0     H47855  11.362  11.254  11.965  0.7196 -0.1351  1.8270
  347MOL0     H47856  11.473  11.183  12.164  0.9311 -2.0863 -0.6476
  347MOL0     H47857  11.431  11.027  12.100  0.8124  0.8546 -3.2276
  347MOL0     H47858  11.386  11.032  12.318 -0.2281 -2.8595 -1.8396
  347MOL0     H47859  11.272  11.166  12.320  0.2512 -0.8408  1.3272
  347MOL0     H47860  11.237  10.885  12.210 -1.5420 -1.6190  3.8161
  347MOL0     H47861  11.118  11.010  12.170 -1.7138 -1.1070  2.9806
  347MOL0     H47862  11.196  11.002  12.454 -0.3635 -1.1041  1.3338
  347MOL0     H47863  11.119  10.854  12.406 -1.6265 -0.3465 -2.7324
  347MOL0     H47864  11.007  11.124  12.381  2.6914  0.1239 -1.5789
  347MOL0     H47865  10.951  10.995  12.499  0.1403 -1.6040  1.0666
  347MOL0     H47866  11.067  11.448  11.734 -1.8734  1.4172 -0.8698
  347MOL0     H47867  10.990  11.521  11.508 -0.6632 -0.1821 -3.0189
  347MOL0     H47868  10.934  11.630  11.197  2.1784  1.6416 -0.2061
  347MOL0     H47869  10.945  11.808  11.043 -0.7567  0.4315  2.1750
  347MOL0     H47870  11.084  11.110  10.356  0.2072 -0.2588  0.1664
  347MOL0     H47871  11.277  11.041  10.478  0.2061 -1.1600 -0.2094
  347MOL0     H47872  11.540  11.064  10.898  1.7601  0.4893 -1.6663
  347MOL0     H47873  11.711  10.969  11.035 -0.5089 -0.7856  1.0546
  347MOL0     H47874  11.860  10.881  11.144 -1.8330  0.9295  0.5683
  347MOL0     H47875  11.749  10.839  11.269 -1.0583  1.0899  0.7257
  347MOL0     H47876  11.998  10.785  11.292 -0.7784  0.2325  1.2484
  347MOL0     H47877  11.952  10.644  11.182 -3.7055 -0.3858 -1.8076
  347MOL0     H47878  11.856  10.694  11.465  0.5486 -1.9337  2.5748
  347MOL0     H47879  11.761  10.585  11.345  0.7388 -2.3718  0.1001
  347MOL0     H47880  11.960  10.440  11.338  1.7324 -0.3564  1.0222
  347MOL0     H47881  11.911  10.470  11.513 -2.0875  1.2791 -0.6357
  347MOL0     H47882  12.277  10.692  11.485 -0.5370  0.5397 -1.5551
  347MOL0     H47883  11.558  10.575  10.986 -2.8570  0.9119  1.9612
  347MOL0     H47884  11.379  10.598  10.716  1.0081  2.3568 -0.6439
  347MOL0     H47885  11.344  10.540  10.882  0.9387 -1.8817 -0.9618
  347MOL0     H47886  11.252  10.669  10.806 -0.2749 -1.9423 -1.9015
  348MOL0     O47887   7.259   2.279   5.017 -0.3266  0.6930 -0.2815
  348MOL0     C47888   7.157   2.300   4.958 -0.2416 -0.0345 -0.0537
  348MOL0     O47889   7.127   2.295   4.821  0.3353  0.2542  0.0992
  348MOL0     C47890   7.237   2.317   4.744 -0.7714 -0.4248 -0.0584
  348MOL0     C47891   7.313   2.210   4.713  0.4153  0.8053 -0.7067
  348MOL0     C47892   7.431   2.219   4.635 -0.0782 -0.4294  0.0077
  348MOL0     C47893   7.448   2.348   4.567 -0.6255  0.3380  1.0726
  348MOL0     O47894   7.564   2.360   4.486  0.2435  0.0384 -1.0071
  348MOL0     C47895   7.596   2.259   4.391 -0.1076  0.9476 -0.7459
  348MOL0     C47896   7.714   2.300   4.299 -0.4538 -0.1373 -0.7691
  348MOL0     C47897   7.752   2.448   4.267 -0.6559  0.6003 -0.2011
  348MOL0     C47898   7.824   2.542   4.367  0.2989  0.0735 -0.2044
  348MOL0     C47899   7.817   2.694   4.314 -0.0420 -0.3079  0.1987
  348MOL0     C47900   7.692   2.763   4.306  0.0657  0.3665  0.1654
  348MOL0     C47901   7.703   2.914   4.268  0.7413  1.0285 -0.6109
  348MOL0     C47902   7.566   2.970   4.226 -0.3949 -0.3047 -1.0611
  348MOL0     N47903   7.587   3.104   4.163  0.5038 -0.3382 -0.1211
  348MOL0     C47904   7.665   3.208   4.212 -0.0069  0.1891  0.4929
  348MOL0     C47905   7.655   3.306   4.117  0.1429  0.4676  0.0701
  348MOL0     C47906   7.723   3.432   4.117 -0.9893  0.6865 -0.0608
  348MOL0     C47907   7.702   3.510   4.251 -0.7215  0.1525  0.9103
  348MOL0     C47908   7.565   3.589   4.270  0.5426  0.9821 -1.5462
  348MOL0     C47909   7.432   3.517   4.233  0.8475  0.3780 -1.1480
  348MOL0     O47910   7.408   3.400   4.319 -0.5239 -0.0761  0.0433
  348MOL0     C47911   7.298   3.324   4.298 -0.0163  0.6731  0.1859
  348MOL0     C47912   7.202   3.297   4.391  0.4240  0.6359  0.1465
  348MOL0     C47913   7.077   3.232   4.367  0.4488  0.2054 -0.1777
  348MOL0     C47914   7.000   3.192   4.485 -0.0106 -0.9563 -0.2270
  348MOL0     C47915   7.047   3.190   4.233 -0.2260 -0.4528 -0.6711
  348MOL0     C47916   6.914   3.141   4.192  0.3636  0.1065  0.3331
  348MOL0     O47917   6.898   3.078   4.079  1.0190 -0.5832 -0.4280
  348MOL0     C47918   6.782   2.997   4.059 -0.0711 -0.4317 -0.3227
  348MOL0     C47919   6.744   2.960   3.932  0.1707  0.5940  0.1863
  348MOL0     C47920   6.644   2.869   3.914 -0.0923 -0.3042 -0.1109
  348MOL0     C47921   6.566   2.822   4.016  0.3174 -0.1312 -0.1679
  348MOL0     O47922   6.467   2.729   3.996 -0.0639 -0.6195  0.0995
  348MOL0     C47923   6.344   2.769   3.938 -0.0811  0.3531 -0.4732
  348MOL0     C47924   6.230   2.742   4.039  0.2883  0.7426 -0.3094
  348MOL0     C47925   6.248   2.765   4.182 -0.1380 -0.7346 -0.0990
  348MOL0     C47926   6.255   2.916   4.211  0.2421 -0.1868 -0.1459
  348MOL0     C47927   6.264   2.925   4.369 -0.1321 -0.7201  0.1533
  348MOL0     C47928   6.201   3.057   4.407 -0.0959  0.0694 -0.2803
  348MOL0     C47929   6.286   3.177   4.369 -0.1022  0.4835  0.3280
  348MOL0     C47930   6.199   3.295   4.396 -0.4575  0.0722  0.0635
  348MOL0    Cl47931   6.265   3.430   4.309 -0.0200  0.1263  0.0767
  348MOL0     C47932   6.600   2.852   4.150 -0.5744  0.5182 -0.4734
  348MOL0     C47933   6.712   2.941   4.171  0.0431 -0.0981 -0.3049
  348MOL0     O47934   6.819   3.192   4.255  0.0461  0.2778 -0.0971
  348MOL0     C47935   7.147   3.215   4.135  0.6204  0.0166 -0.4439
  348MOL0     C47936   7.265   3.283   4.170 -0.4209  0.2142  0.8694
  348MOL0     N47937   7.588   3.253   4.006 -0.1087  0.1296 -0.5013
  348MOL0     N47938   7.555   3.123   4.039  0.1447  0.1862  0.4321
  348MOL0     C47939   7.364   2.455   4.580 -0.5357  0.4809 -0.4488
  348MOL0     C47940   7.259   2.441   4.672  0.0939  0.0049  0.5198
  348MOL0     C47941   7.050   2.338   5.053  0.0047  0.2721 -0.6587
  348MOL0     C47942   6.977   2.452   5.028  0.3309 -0.1816 -0.8682
  348MOL0     C47943   6.881   2.485   5.120 -0.7772  0.4651 -0.6602
  348MOL0     C47944   6.850   2.410   5.235 -0.1177 -0.4448  0.4725
  348MOL0     O47945   6.752   2.462   5.313 -0.6477 -0.4087  0.8446
  348MOL0     C47946   6.785   2.479   5.456  0.1803 -0.2704  0.9012
  348MOL0     C47947   6.802   2.630   5.511  0.3015  0.0000 -0.5412
  348MOL0     C47948   6.881   2.719   5.412  0.1779 -0.5365  0.7076
  348MOL0     C47949   6.917   2.862   5.450  0.0234  0.2151 -0.1793
  348MOL0     C47950   6.993   2.864   5.572 -0.3654 -0.0565  0.4053
  348MOL0     C47951   7.058   2.871   5.669 -0.0572  0.0717  0.0514
  348MOL0     C47952   6.928   2.291   5.261  0.2694 -0.9295 -0.4662
  348MOL0     C47953   7.017   2.252   5.162 -0.6364 -0.7065 -0.2132
  348MOL0     C47954   7.070   2.118   5.187 -0.6382 -0.0531 -0.1884
  348MOL0     H47955   7.287   2.115   4.758 -0.1164  0.4159 -1.8012
  348MOL0     H47956   7.507   2.148   4.606  1.2972  1.5097 -1.4507
  348MOL0     H47957   7.508   2.220   4.340  1.7506 -0.7684 -2.8137
  348MOL0     H47958   7.633   2.170   4.443 -0.0413  0.5315 -1.4863
  348MOL0     H47959   7.802   2.251   4.342 -1.3967  1.6451  3.7268
  348MOL0     H47960   7.706   2.251   4.202  3.5144 -2.3891 -0.1890
  348MOL0     H47961   7.812   2.444   4.176 -0.0898  2.5886  0.0384
  348MOL0     H47962   7.662   2.492   4.223  0.4035 -0.4415 -3.6780
  348MOL0     H47963   7.774   2.540   4.464 -1.0517  0.8446 -0.8651
  348MOL0     H47964   7.930   2.514   4.372  0.2897  0.2745  1.6016
  348MOL0     H47965   7.870   2.703   4.219  1.3208  1.3843  1.0554
  348MOL0     H47966   7.882   2.747   4.385  2.6052 -1.8254 -0.9558
  348MOL0     H47967   7.632   2.721   4.225  1.4319  0.5082 -0.9609
  348MOL0     H47968   7.640   2.740   4.400  0.6704 -0.6749  0.2515
  348MOL0     H47969   7.767   2.920   4.180  0.0680  0.6809 -1.1326
  348MOL0     H47970   7.734   2.968   4.358  0.9620 -2.2449  1.4741
  348MOL0     H47971   7.517   2.902   4.155  1.0136  1.1111 -3.5546
  348MOL0     H47972   7.493   2.973   4.307 -0.6641 -1.4843 -1.2460
  348MOL0     H47973   7.724   3.211   4.303  0.7426  1.0047 -0.0019
  348MOL0     H47974   7.690   3.502   4.039  0.5941  2.2693  0.5967
  348MOL0     H47975   7.829   3.413   4.093 -2.0326 -4.3440 -1.8889
  348MOL0     H47976   7.706   3.439   4.335  0.0245  1.5730  2.1143
  348MOL0     H47977   7.789   3.574   4.267 -1.3866  0.7780  2.2244
  348MOL0     H47978   7.565   3.606   4.378  3.0890  0.0239 -1.3200
  348MOL0     H47979   7.572   3.677   4.205  1.7825  0.1745 -2.5574
  348MOL0     H47980   7.354   3.593   4.244  1.8569  1.1400  1.0682
  348MOL0     H47981   7.433   3.476   4.131  0.9261  0.5147 -1.2011
  348MOL0     H47982   7.213   3.334   4.493 -2.7756 -1.3078  1.3632
  348MOL0     H47983   7.072   3.167   4.564  0.1035  0.6188  0.2020
  348MOL0     H47984   6.933   3.107   4.472 -0.4504 -0.2403 -3.3741
  348MOL0     H47985   6.939   3.275   4.520 -0.6594 -0.5411 -2.2445
  348MOL0     H47986   6.790   2.989   3.838 -1.4717 -2.8256 -1.8552
  348MOL0     H47987   6.615   2.849   3.811 -0.6191 -4.0274  0.6207
  348MOL0     H47988   6.349   2.877   3.922 -2.5295  0.7423  0.9227
  348MOL0     H47989   6.319   2.719   3.844 -1.9234  2.9155 -1.4949
  348MOL0     H47990   6.134   2.789   4.014  0.0048 -0.0262 -0.7372
  348MOL0     H47991   6.205   2.636   4.027  0.6019 -0.3261  5.5994
  348MOL0     H47992   6.335   2.714   4.224 -0.1518 -2.2011 -1.7346
  348MOL0     H47993   6.160   2.730   4.236 -1.8368  5.1226  1.6591
  348MOL0     H47994   6.173   2.974   4.167 -0.7601  0.4181  2.3125
  348MOL0     H47995   6.353   2.948   4.175  0.4493  3.1114  2.7757
  348MOL0     H47996   6.204   2.845   4.413  0.0780 -2.1227 -1.9857
  348MOL0     H47997   6.361   2.909   4.415 -1.6193 -5.0321  2.3429
  348MOL0     H47998   6.185   3.058   4.515  0.5850 -1.4314 -0.1382
  348MOL0     H47999   6.104   3.062   4.356 -0.7840 -0.2449  0.9372
  348MOL0     H48000   6.310   3.176   4.263 -2.3849 -3.2097 -0.3120
  348MOL0     H48001   6.367   3.191   4.442  0.5785 -1.1234 -0.0697
  348MOL0     H48002   6.194   3.334   4.499 -1.2703  0.7696 -0.2291
  348MOL0     H48003   6.099   3.280   4.354 -0.2748  1.3250 -0.8751
  348MOL0     H48004   6.559   2.801   4.236  0.7942 -3.1932 -1.8069
  348MOL0     H48005   6.743   2.972   4.270  1.4355  0.3474 -0.8525
  348MOL0     H48006   7.123   3.196   4.031 -0.6127  2.5283 -0.6904
  348MOL0     H48007   7.344   3.282   4.096 -1.7030  1.7795 -0.6233
  348MOL0     H48008   7.386   2.550   4.531 -1.7457  0.1472 -1.7019
  348MOL0     H48009   7.206   2.533   4.695 -1.4482 -0.3791 -1.2385
  348MOL0     H48010   6.992   2.518   4.944 -0.2510  1.3837  0.2054
  348MOL0     H48011   6.813   2.569   5.106  0.5671  1.5715 -0.7790
  348MOL0     H48012   6.701   2.430   5.505 -2.1823 -0.6222 -3.0621
  348MOL0     H48013   6.875   2.421   5.475 -0.2792 -0.5784  2.1701
  348MOL0     H48014   6.839   2.632   5.614 -2.1569 -1.2018  0.4390
  348MOL0     H48015   6.701   2.667   5.530 -0.5413 -1.7784 -1.3351
  348MOL0     H48016   6.970   2.661   5.388  0.4808  0.2063  0.0005
  348MOL0     H48017   6.829   2.732   5.316  2.5541  2.0092 -0.3908
  348MOL0     H48018   6.827   2.921   5.472 -0.4644  0.5331 -2.7600
  348MOL0     H48019   6.962   2.909   5.363 -1.3658 -0.8861 -1.5643
  348MOL0     H48020   7.100   2.886   5.767  0.2938 -4.3448  0.7829
  348MOL0     H48021   6.912   2.229   5.348 -0.2081 -0.5430 -0.2698
  348MOL0     H48022   7.139   2.079   5.112  0.3750  1.3658 -0.0480
  348MOL0     H48023   7.128   2.118   5.280 -1.7702 -2.1285  0.5667
  348MOL0     H48024   6.998   2.039   5.205  0.6060 -1.4806 -1.2291
  349MOL0     O48025  10.023  11.161   2.031 -0.3597  0.6444 -0.6174
  349MOL0     C48026  10.119  11.164   1.957 -0.5383  0.4898 -0.5253
  349MOL0     O48027  10.121  11.148   1.820 -0.0146  0.0762 -0.0257
  349MOL0     C48028  10.013  11.174   1.748  0.5774  0.5061 -0.0031
  349MOL0     C48029  10.011  11.103   1.629  1.3385  0.2381  0.9770
  349MOL0     C48030   9.917  11.120   1.533 -0.6398 -0.1877 -0.0978
  349MOL0     C48031   9.801  11.188   1.568 -0.7680 -0.4991  0.1473
  349MOL0     O48032   9.704  11.187   1.472 -0.2257 -0.0603  0.2378
  349MOL0     C48033   9.575  11.197   1.515  0.9766  0.6402  0.0133
  349MOL0     C48034   9.473  11.162   1.406  0.8807  0.0489  0.7153
  349MOL0     C48035   9.485  11.020   1.352 -0.6349  1.8721  0.3248
  349MOL0     C48036   9.394  10.997   1.230  0.4711  0.4724  1.4043
  349MOL0     C48037   9.389  10.847   1.207 -0.4932 -0.4131 -0.4856
  349MOL0     C48038   9.283  10.792   1.113  1.3520 -0.3308  0.7000
  349MOL0     C48039   9.338  10.752   0.973 -0.3266  0.3746 -0.9700
  349MOL0     C48040   9.389  10.879   0.908  0.4102 -0.1320 -0.3854
  349MOL0     N48041   9.387  10.858   0.764 -1.1565 -0.4256  0.1273
  349MOL0     C48042   9.493  10.791   0.696 -0.0267  0.1651  0.7093
  349MOL0     C48043   9.442  10.783   0.565  0.4000 -0.7056  0.0211
  349MOL0     C48044   9.512  10.708   0.448  0.2458 -0.6918 -0.1702
  349MOL0     C48045   9.541  10.796   0.326 -0.5784  0.2492  0.0213
  349MOL0     C48046   9.606  10.714   0.218 -0.4176 -0.0466  1.1374
  349MOL0     C48047   9.616  10.805   0.102 -0.5819  0.5160  0.5223
  349MOL0     O48048   9.482  10.839   0.061 -0.5787  0.0709 -0.4100
  349MOL0     C48049   9.465  10.898  -0.060  0.9605 -1.3527 -0.4658
  349MOL0     C48050   9.383  10.830  -0.149  0.2017  0.1326 -0.5977
  349MOL0     C48051   9.339  10.882  -0.280  0.7258  0.7250 -0.0575
  349MOL0     C48052   9.217  10.818  -0.348 -0.7862 -0.0476  0.7870
  349MOL0     C48053   9.406  11.001  -0.318 -0.1681 -0.5925 -0.1866
  349MOL0     C48054   9.364  11.071  -0.442  0.3052 -0.2376  0.1002
  349MOL0     O48055   9.390  11.207  -0.440  1.1652  0.1004  0.7800
  349MOL0     C48056   9.371  11.285  -0.555  0.6508  0.6372  0.2815
  349MOL0     C48057   9.323  11.415  -0.533  0.5945 -0.3359  0.6115
  349MOL0     C48058   9.309  11.507  -0.636  0.5158 -0.5368  0.8792
  349MOL0     C48059   9.340  11.468  -0.767 -0.1245 -1.4171  0.0064
  349MOL0     O48060   9.314  11.563  -0.858  0.3486  0.1639  0.0056
  349MOL0     C48061   9.422  11.648  -0.891 -0.2135 -0.6954 -0.1581
  349MOL0     C48062   9.367  11.795  -0.930 -0.4986 -0.3640 -0.0555
  349MOL0     C48063   9.291  11.873  -0.815  0.7126  0.4520 -0.0739
  349MOL0     C48064   9.244  12.006  -0.858  1.1097 -0.1299 -0.9515
  349MOL0     C48065   9.138  12.008  -0.975 -0.1569  0.9897 -0.5597
  349MOL0     C48066   8.993  11.978  -0.919  0.0649  0.1578  0.2942
  349MOL0     C48067   8.884  11.982  -1.030  0.1280 -0.3878 -0.0187
  349MOL0     C48068   8.871  11.864  -1.121 -0.7428 -0.6943 -0.1152
  349MOL0    Cl48069   8.985  11.873  -1.260  0.6068  0.1379 -0.1197
  349MOL0     C48070   9.382  11.338  -0.791  0.0114  0.2208 -0.2727
  349MOL0     C48071   9.415  11.254  -0.685  0.2111 -0.5738  0.7462
  349MOL0     O48072   9.326  11.002  -0.540  0.5044  0.5890 -0.3465
  349MOL0     C48073   9.505  11.064  -0.232  0.2203 -0.2995 -0.7523
  349MOL0     C48074   9.534  11.018  -0.105  0.0062 -0.4091 -0.2873
  349MOL0     N48075   9.312  10.837   0.564  0.1751  0.6380 -0.3500
  349MOL0     N48076   9.279  10.862   0.686  0.2412  0.3513  0.4915
  349MOL0     C48077   9.798  11.259   1.690  0.7871 -0.4310 -0.6428
  349MOL0     C48078   9.910  11.253   1.775  0.3809 -0.5710 -0.1603
  349MOL0     C48079  10.232  11.219   2.030 -1.0696  0.5410 -0.6905
  349MOL0     C48080  10.297  11.140   2.118 -0.9792  1.0782 -0.0733
  349MOL0     C48081  10.410  11.180   2.191 -0.0074  0.2254  0.4565
  349MOL0     C48082  10.454  11.312   2.184  0.2159  1.1700  0.7583
  349MOL0     O48083  10.560  11.369   2.251  0.1344 -0.5008 -0.6038
  349MOL0     C48084  10.626  11.290   2.349  0.0556 -0.0730  0.2194
  349MOL0     C48085  10.557  11.284   2.490  0.2624  0.3273 -0.1795
  349MOL0     C48086  10.543  11.412   2.574  0.2578 -0.1233  0.3643
  349MOL0     C48087  10.527  11.538   2.492 -0.4923 -0.3657  0.4389
  349MOL0     C48088  10.483  11.647   2.578 -0.1659  0.0243  0.2929
  349MOL0     C48089  10.465  11.748   2.653  0.1378  0.2312 -0.6558
  349MOL0     C48090  10.387  11.397   2.100 -0.4263  0.2508  0.7344
  349MOL0     C48091  10.272  11.356   2.021 -0.4831  0.6419  0.0087
  349MOL0     C48092  10.210  11.447   1.917 -0.9891  0.5343  0.1132
  349MOL0     H48093  10.095  11.037   1.612  3.1781  1.8373  3.0804
  349MOL0     H48094   9.906  11.063   1.441 -0.4069  0.7513 -0.7323
  349MOL0     H48095   9.548  11.298   1.547 -0.0798 -0.0699  1.4870
  349MOL0     H48096   9.563  11.137   1.606  2.5566  1.7778  1.0182
  349MOL0     H48097   9.370  11.184   1.438  0.3966  3.9639 -2.6569
  349MOL0     H48098   9.486  11.228   1.320  0.9579 -1.9600 -0.8960
  349MOL0     H48099   9.591  11.011   1.324 -1.2751 -1.1260 -1.5052
  349MOL0     H48100   9.461  10.939   1.422 -0.3600  0.2954 -1.3428
  349MOL0     H48101   9.290  11.031   1.243 -1.0039 -0.9085 -4.1434
  349MOL0     H48102   9.437  11.053   1.146 -1.4354 -0.2897 -0.1683
  349MOL0     H48103   9.373  10.805   1.307  1.6075  1.6568  0.8152
  349MOL0     H48104   9.489  10.811   1.180 -0.7122 -0.9131 -0.6489
  349MOL0     H48105   9.244  10.700   1.157  0.0416  0.3133  0.9424
  349MOL0     H48106   9.199  10.860   1.100  1.0238 -0.4632  1.9733
  349MOL0     H48107   9.248  10.720   0.919 -0.5962  0.4609 -0.5734
  349MOL0     H48108   9.418  10.677   0.976 -0.0572  0.6965  1.6926
  349MOL0     H48109   9.323  10.964   0.931  0.3982 -0.3113  0.2640
  349MOL0     H48110   9.490  10.894   0.946 -0.9268  0.7923  3.2174
  349MOL0     H48111   9.593  10.766   0.730  0.1209 -2.1985 -1.2165
  349MOL0     H48112   9.454  10.625   0.406 -0.4932 -0.0450 -0.4531
  349MOL0     H48113   9.605  10.674   0.494  0.2659  1.3685  1.4705
  349MOL0     H48114   9.447  10.842   0.295  0.5118  3.6231  1.2048
  349MOL0     H48115   9.609  10.875   0.361 -0.1011  0.1382 -0.6443
  349MOL0     H48116   9.706  10.687   0.252 -1.1364 -3.6620  0.7735
  349MOL0     H48117   9.555  10.621   0.189 -0.2624  0.7710 -2.1857
  349MOL0     H48118   9.663  10.898   0.136 -0.7313  0.9933 -0.5352
  349MOL0     H48119   9.686  10.774   0.024  0.9166  2.4539  0.9865
  349MOL0     H48120   9.337  10.741  -0.107 -0.4289  1.6230  2.0422
  349MOL0     H48121   9.172  10.738  -0.289  0.3031  0.6955  2.7101
  349MOL0     H48122   9.234  10.771  -0.445  1.6154 -2.5237  2.2910
  349MOL0     H48123   9.144  10.896  -0.372  0.6268  0.0801 -4.3221
  349MOL0     H48124   9.294  11.456  -0.437 -1.7682  1.4779 -0.7534
  349MOL0     H48125   9.261  11.604  -0.628 -4.5242 -2.7369  0.9605
  349MOL0     H48126   9.478  11.671  -0.800 -0.4586  0.7659 -0.3536
  349MOL0     H48127   9.487  11.605  -0.967  1.5035  0.3153  0.6875
  349MOL0     H48128   9.449  11.856  -0.967  0.1605 -0.2646  1.4763
  349MOL0     H48129   9.305  11.785  -1.020 -0.1597 -0.9803 -0.2266
  349MOL0     H48130   9.361  11.877  -0.731  1.8432  2.7645 -1.0197
  349MOL0     H48131   9.206  11.808  -0.793 -0.6152  2.5225  1.3216
  349MOL0     H48132   9.334  12.057  -0.892 -0.4950  1.3096 -3.3210
  349MOL0     H48133   9.204  12.055  -0.769 -1.6305 -1.5232 -1.2782
  349MOL0     H48134   9.147  12.114  -0.999 -2.2793  1.6641  1.2752
  349MOL0     H48135   9.174  11.948  -1.060  0.7370  2.9582 -1.6216
  349MOL0     H48136   8.972  12.055  -0.844  1.4652  1.8134 -0.9357
  349MOL0     H48137   8.984  11.877  -0.877  2.6923 -0.7036 -0.9985
  349MOL0     H48138   8.880  12.068  -1.098 -1.9925 -2.9105 -3.3801
  349MOL0     H48139   8.793  11.980  -0.969  1.7370 -0.3271  2.5596
  349MOL0     H48140   8.769  11.852  -1.159 -0.4551 -1.7787 -0.5753
  349MOL0     H48141   8.897  11.777  -1.061 -0.0430 -1.1454 -1.0419
  349MOL0     H48142   9.403  11.311  -0.894 -0.4487  3.9800 -1.5143
  349MOL0     H48143   9.453  11.153  -0.695  0.9850 -0.2265  0.0167
  349MOL0     H48144   9.558  11.152  -0.269 -2.3168  1.7739  0.1721
  349MOL0     H48145   9.595  11.077  -0.037  1.6488 -1.0176 -1.1779
  349MOL0     H48146   9.713  11.318   1.723  1.7157  0.6425 -0.1325
  349MOL0     H48147   9.903  11.321   1.860  3.5377  1.4738 -1.3550
  349MOL0     H48148  10.253  11.042   2.134  0.5431  0.4726  0.5358
  349MOL0     H48149  10.449  11.112   2.266  0.4124 -0.2059 -0.1406
  349MOL0     H48150  10.671  11.199   2.308  3.2988  2.3749 -2.1224
  349MOL0     H48151  10.720  11.341   2.373  0.7592 -1.8470  1.4601
  349MOL0     H48152  10.616  11.216   2.551  0.8321  0.4991 -0.5379
  349MOL0     H48153  10.459  11.236   2.479 -0.1520  1.7902 -4.9286
  349MOL0     H48154  10.472  11.384   2.652 -1.2966  0.1688 -0.9051
  349MOL0     H48155  10.641  11.425   2.621  1.2186  1.3871 -1.8729
  349MOL0     H48156  10.439  11.524   2.427 -0.8391 -0.5601  0.9455
  349MOL0     H48157  10.614  11.567   2.432 -2.2257  2.3576 -0.9932
  349MOL0     H48158  10.471  11.831   2.720 -0.1733  0.2276 -0.6214
  349MOL0     H48159  10.409  11.502   2.084 -0.2730 -0.0931 -1.7749
  349MOL0     H48160  10.266  11.541   1.916 -0.5051  0.3332  2.3605
  349MOL0     H48161  10.198  11.398   1.820  0.0514 -0.1115  0.2923
  349MOL0     H48162  10.106  11.465   1.947 -0.6574  2.1424  0.4175
  350MOL0     O48163   0.406   0.319   7.145 -0.1832  0.6686 -0.5770
  350MOL0     C48164   0.382   0.213   7.205  0.1586 -1.0759 -0.7265
  350MOL0     O48165   0.276   0.193   7.289  0.1165  0.6161 -0.1041
  350MOL0     C48166   0.154   0.244   7.268  1.1457 -0.0924  0.4374
  350MOL0     C48167   0.046   0.187   7.193 -0.0190 -0.1828  0.0070
  350MOL0     C48168  -0.070   0.261   7.159 -0.7111  0.7592 -0.1171
  350MOL0     C48169  -0.073   0.395   7.189  0.0178  1.6403  1.1062
  350MOL0     O48170  -0.184   0.460   7.144  0.3742 -0.2560 -0.2907
  350MOL0     C48171  -0.215   0.592   7.196 -0.7307  0.6993 -0.1568
  350MOL0     C48172  -0.265   0.601   7.349 -0.3890  0.3957  1.0190
  350MOL0     C48173  -0.411   0.539   7.368 -0.3177 -0.0714 -0.8215
  350MOL0     C48174  -0.447   0.538   7.511 -0.7072  0.2514 -0.9743
  350MOL0     C48175  -0.597   0.498   7.524 -0.2154  0.1940  0.6936
  350MOL0     C48176  -0.623   0.461   7.666 -0.3013 -1.8073  1.0220
  350MOL0     C48177  -0.780   0.443   7.675  0.0453  0.6148  0.2035
  350MOL0     C48178  -0.829   0.442   7.811  0.6280  0.1441  0.2498
  350MOL0     N48179  -0.835   0.307   7.861 -0.2036  0.2818  0.2378
  350MOL0     C48180  -0.729   0.249   7.925  0.0462 -0.7282 -0.3364
  350MOL0     C48181  -0.762   0.118   7.940 -0.0811 -0.8472  1.1349
  350MOL0     C48182  -0.683   0.009   8.003 -0.1625  0.4897  1.1127
  350MOL0     C48183  -0.554  -0.012   7.922 -0.4046  0.3301 -0.2742
  350MOL0     C48184  -0.457  -0.099   7.998  0.4206  0.0798  0.5734
  350MOL0     C48185  -0.332  -0.118   7.912  0.0572  0.3658  0.5956
  350MOL0     O48186  -0.340  -0.152   7.773 -0.5585 -0.2228  0.1354
  350MOL0     C48187  -0.386  -0.273   7.737  0.3890  0.2005  0.9123
  350MOL0     C48188  -0.452  -0.289   7.619  0.4234  0.3156  0.0589
  350MOL0     C48189  -0.496  -0.410   7.577  0.0014  1.0158  0.5065
  350MOL0     C48190  -0.586  -0.410   7.454  0.0974 -0.1750  0.4097
  350MOL0     C48191  -0.494  -0.521   7.655  0.0023  0.0742  0.5873
  350MOL0     C48192  -0.542  -0.654   7.623 -0.2435  0.2708  0.4630
  350MOL0     O48193  -0.504  -0.718   7.495 -0.9144 -0.0014 -0.2040
  350MOL0     C48194  -0.551  -0.840   7.452 -1.6323 -0.3466 -0.4087
  350MOL0     C48195  -0.452  -0.932   7.424 -0.2481 -0.2524 -0.4779
  350MOL0     C48196  -0.484  -1.061   7.379 -0.2540  0.0627 -0.4895
  350MOL0     C48197  -0.615  -1.099   7.365 -0.2573  0.2782  0.1691
  350MOL0     O48198  -0.640  -1.228   7.325 -1.1839  0.2214 -0.7803
  350MOL0     C48199  -0.753  -1.293   7.366 -0.1742 -0.7734 -0.1358
  350MOL0     C48200  -0.737  -1.446   7.346  0.6645  0.2507 -0.8923
  350MOL0     C48201  -0.858  -1.517   7.416  0.5135 -0.4100  0.0809
  350MOL0     C48202  -0.835  -1.676   7.421 -0.8424 -1.1803  0.2369
  350MOL0     C48203  -0.857  -1.740   7.279  0.3628  0.4028 -0.9714
  350MOL0     C48204  -0.870  -1.897   7.282 -0.0639  0.5339 -0.8847
  350MOL0     C48205  -0.736  -1.972   7.313 -0.0529 -0.7460  0.1312
  350MOL0     C48206  -0.630  -1.966   7.197  0.2939 -0.6229 -0.0442
  350MOL0    Cl48207  -0.683  -2.017   7.033 -0.2612 -0.0014  0.1248
  350MOL0     C48208  -0.716  -1.007   7.389  0.7644  0.0572 -0.0127
  350MOL0     C48209  -0.681  -0.880   7.434  0.9367 -0.4462  0.0255
  350MOL0     O48210  -0.604  -0.720   7.707  0.4686 -0.2692  0.8380
  350MOL0     C48211  -0.448  -0.505   7.783 -0.5280  0.5540  0.8248
  350MOL0     C48212  -0.386  -0.388   7.822 -1.5207 -0.4592 -0.5573
  350MOL0     N48213  -0.892   0.101   7.882 -0.2191 -0.5069 -0.0814
  350MOL0     N48214  -0.931   0.212   7.835 -1.4529  0.8412 -0.3125
  350MOL0     C48215   0.032   0.452   7.264 -0.6837  0.0257  0.0679
  350MOL0     C48216   0.145   0.373   7.313  0.1381 -0.0745  0.2188
  350MOL0     C48217   0.490   0.106   7.211 -0.8124  0.1760  0.3165
  350MOL0     C48218   0.447  -0.024   7.244  0.3725  0.9638 -0.2193
  350MOL0     C48219   0.535  -0.140   7.239 -0.3937 -0.2314  0.2789
  350MOL0     C48220   0.660  -0.124   7.181 -0.3433 -0.0639  0.0106
  350MOL0     O48221   0.747  -0.231   7.136  0.2466  0.4469  1.2505
  350MOL0     C48222   0.705  -0.369   7.158  0.0842  0.3033  1.4111
  350MOL0     C48223   0.755  -0.417   7.296 -0.0581  0.2700  0.5892
  350MOL0     C48224   0.899  -0.356   7.333  0.4404  0.0349  0.0255
  350MOL0     C48225   1.005  -0.407   7.238 -1.0795  0.3283  0.5454
  350MOL0     C48226   1.029  -0.551   7.247  1.0147 -0.3640  1.5569
  350MOL0     C48227   1.036  -0.670   7.251  0.5163 -0.7036 -0.5330
  350MOL0     C48228   0.700   0.004   7.150  0.1245  0.0946  0.1406
  350MOL0     C48229   0.618   0.124   7.157  0.4059 -0.2460  0.3391
  350MOL0     C48230   0.669   0.249   7.094 -0.2489  0.0555  0.8115
  350MOL0     H48231   0.070   0.084   7.167  0.4023  0.0382 -0.5209
  350MOL0     H48232  -0.159   0.228   7.107  0.2458 -0.6766 -0.9191
  350MOL0     H48233  -0.288   0.624   7.122 -0.3279 -0.3331 -1.0397
  350MOL0     H48234  -0.120   0.645   7.189  1.6598 -2.7106  2.4945
  350MOL0     H48235  -0.198   0.558   7.425  1.3043 -0.0412 -0.6400
  350MOL0     H48236  -0.273   0.709   7.364  0.8862  0.8762 -1.3111
  350MOL0     H48237  -0.480   0.604   7.313 -0.5560  0.5801  0.2221
  350MOL0     H48238  -0.415   0.446   7.311 -0.2345  2.0467 -4.6258
  350MOL0     H48239  -0.387   0.467   7.568  1.1200  2.0279 -0.5691
  350MOL0     H48240  -0.428   0.633   7.563 -5.7438  0.3523  1.2520
  350MOL0     H48241  -0.623   0.416   7.456 -0.8149  0.1139  1.0204
  350MOL0     H48242  -0.659   0.582   7.491 -3.2957 -2.3620 -0.5394
  350MOL0     H48243  -0.577   0.370   7.706  1.4966 -0.6928  1.6563
  350MOL0     H48244  -0.583   0.540   7.730 -0.1800 -0.4695 -0.6396
  350MOL0     H48245  -0.815   0.357   7.616 -0.7556  1.5069 -0.6691
  350MOL0     H48246  -0.820   0.530   7.622 -0.4580 -1.1159 -2.4649
  350MOL0     H48247  -0.755   0.494   7.872  0.2021 -1.4104  2.1993
  350MOL0     H48248  -0.931   0.480   7.819 -0.4166 -1.9712 -1.5200
  350MOL0     H48249  -0.635   0.296   7.954  1.5981 -2.7002 -1.8813
  350MOL0     H48250  -0.748  -0.079   7.993  1.0735 -0.3240 -0.1553
  350MOL0     H48251  -0.657   0.030   8.107  3.4597  1.5794  0.0921
  350MOL0     H48252  -0.589  -0.065   7.833 -1.8915 -1.8441  1.4913
  350MOL0     H48253  -0.518   0.088   7.897  0.1547 -0.3574 -2.4710
  350MOL0     H48254  -0.428  -0.055   8.094  0.8606 -0.6942  0.8038
  350MOL0     H48255  -0.505  -0.196   8.014 -1.0563  0.9252  1.5664
  350MOL0     H48256  -0.273  -0.026   7.901  1.8703 -0.6097  1.5925
  350MOL0     H48257  -0.265  -0.182   7.971  0.8780  1.2917  0.7045
  350MOL0     H48258  -0.460  -0.202   7.554 -1.1806 -1.4190 -2.2128
  350MOL0     H48259  -0.647  -0.319   7.452  3.4805  2.4089  3.0386
  350MOL0     H48260  -0.660  -0.491   7.456 -3.2899  2.6412  3.1273
  350MOL0     H48261  -0.529  -0.404   7.361 -1.2555  1.9693 -0.3588
  350MOL0     H48262  -0.350  -0.904   7.448 -0.9232  1.0111  1.1793
  350MOL0     H48263  -0.401  -1.128   7.361 -1.4869 -1.4978 -0.5235
  350MOL0     H48264  -0.771  -1.261   7.469 -1.5402  0.9476 -0.8442
  350MOL0     H48265  -0.836  -1.258   7.304 -0.5475 -0.5355  0.4875
  350MOL0     H48266  -0.733  -1.475   7.241  0.5468 -0.7014 -0.6461
  350MOL0     H48267  -0.648  -1.484   7.398  0.4067 -1.2206 -1.4624
  350MOL0     H48268  -0.958  -1.491   7.379 -0.3971 -2.2984  1.0881
  350MOL0     H48269  -0.857  -1.480   7.519  1.8331  1.3009 -0.5137
  350MOL0     H48270  -0.902  -1.722   7.494 -1.1265  0.5691  1.1266
  350MOL0     H48271  -0.730  -1.694   7.445  0.3663  2.3641 -1.6736
  350MOL0     H48272  -0.955  -1.719   7.236 -0.2812 -2.3318 -1.0389
  350MOL0     H48273  -0.791  -1.707   7.198 -1.4909  1.2725 -2.2092
  350MOL0     H48274  -0.916  -1.930   7.188 -2.6751  0.7409  0.2470
  350MOL0     H48275  -0.949  -1.931   7.349  1.8020 -1.1367  0.5659
  350MOL0     H48276  -0.749  -2.076   7.343 -1.3328 -1.1586 -1.6813
  350MOL0     H48277  -0.696  -1.918   7.399 -4.0501  1.3450  0.9067
  350MOL0     H48278  -0.540  -2.020   7.228  1.7551  1.0525 -1.1768
  350MOL0     H48279  -0.605  -1.859   7.199  2.0362 -0.9955 -0.1486
  350MOL0     H48280  -0.822  -1.028   7.380  0.2208  2.8236 -1.1391
  350MOL0     H48281  -0.761  -0.814   7.464 -0.9040 -0.7304 -3.6882
  350MOL0     H48282  -0.447  -0.590   7.851 -0.9379 -0.0618  0.0731
  350MOL0     H48283  -0.324  -0.390   7.911  0.4918  0.4003 -1.8679
  350MOL0     H48284   0.025   0.554   7.298 -1.0596 -0.0948  0.3595
  350MOL0     H48285   0.228   0.418   7.367  0.6087  1.7319 -1.8775
  350MOL0     H48286   0.349  -0.026   7.290  2.4247  1.3863  4.9443
  350MOL0     H48287   0.494  -0.235   7.269 -0.6818 -0.7310 -1.5705
  350MOL0     H48288   0.597  -0.384   7.143  0.1785 -0.0989  1.1156
  350MOL0     H48289   0.750  -0.425   7.076  1.2529  0.0297  2.2212
  350MOL0     H48290   0.740  -0.526   7.301 -0.3539  0.2589 -0.2913
  350MOL0     H48291   0.687  -0.374   7.370  0.9906  2.8442  0.1519
  350MOL0     H48292   0.890  -0.247   7.325 -3.7198 -0.2468 -2.0776
  350MOL0     H48293   0.920  -0.380   7.438  5.3266 -0.3076 -0.8140
  350MOL0     H48294   1.101  -0.360   7.262 -0.2472 -1.2104  0.3643
  350MOL0     H48295   0.978  -0.376   7.137  0.0707 -0.6618 -0.1053
  350MOL0     H48296   1.053  -0.775   7.264  0.5528 -0.4439  1.8525
  350MOL0     H48297   0.799   0.014   7.106  0.4426 -1.4820  0.4378
  350MOL0     H48298   0.773   0.229   7.065  0.4312  3.2091  0.7354
  350MOL0     H48299   0.621   0.281   7.001  3.1456  0.3989 -0.9764
  350MOL0     H48300   0.665   0.328   7.169  1.1610 -0.9097  1.9584
  351MOL0     O48301   0.129   1.161   1.333  0.0061 -0.1730 -0.3869
  351MOL0     C48302   0.192   1.059   1.318  0.3943 -0.1804  0.7108
  351MOL0     O48303   0.277   1.015   1.409 -0.3518 -0.6498  0.2001
  351MOL0     C48304   0.315   1.065   1.527 -0.1474 -0.6156 -0.5767
  351MOL0     C48305   0.295   1.201   1.564  0.4544  0.5635  0.0328
  351MOL0     C48306   0.336   1.259   1.690  1.0873 -0.3527 -0.0650
  351MOL0     C48307   0.412   1.178   1.767  0.7046  0.6839  0.8263
  351MOL0     O48308   0.469   1.217   1.886 -0.4829  0.1522 -0.1804
  351MOL0     C48309   0.401   1.297   1.973  0.7003 -0.6219 -0.5059
  351MOL0     C48310   0.470   1.281   2.113 -0.4804  0.0550  0.3426
  351MOL0     C48311   0.604   1.366   2.108 -0.1257  0.0556  0.1533
  351MOL0     C48312   0.684   1.338   2.239  0.9227  0.8158  0.2858
  351MOL0     C48313   0.819   1.411   2.239 -0.4944  0.2378  0.0474
  351MOL0     C48314   0.897   1.374   2.365  0.5287 -0.7713  0.2304
  351MOL0     C48315   1.034   1.442   2.352  0.5199 -0.0124  1.0112
  351MOL0     C48316   1.118   1.432   2.478 -0.5939 -0.2914 -0.2948
  351MOL0     N48317   1.059   1.521   2.583  0.1867  0.3036  0.6914
  351MOL0     C48318   0.977   1.463   2.672 -0.1228  0.4359  0.1456
  351MOL0     C48319   0.927   1.570   2.746  0.5811 -0.2409  1.0576
  351MOL0     C48320   0.850   1.557   2.875  0.3949 -0.4270  0.4930
  351MOL0     C48321   0.921   1.611   3.004  0.3975 -0.6849  0.3551
  351MOL0     C48322   0.871   1.751   3.042  0.0680 -0.0248 -0.4524
  351MOL0     C48323   0.718   1.763   3.063 -0.2364  0.6115  0.4820
  351MOL0     O48324   0.679   1.882   3.121  0.7431 -0.7072 -0.1287
  351MOL0     C48325   0.646   1.883   3.250 -0.1893 -0.2600  0.9497
  351MOL0     C48326   0.712   1.814   3.349  0.1543  1.0533  0.2927
  351MOL0     C48327   0.694   1.836   3.486  0.7247  0.2340 -0.3414
  351MOL0     C48328   0.791   1.748   3.567  0.1901  0.8100  0.1096
  351MOL0     C48329   0.588   1.919   3.526  0.3872 -0.8749 -0.3480
  351MOL0     C48330   0.564   1.958   3.671  0.9348  0.0016  1.2629
  351MOL0     O48331   0.594   1.877   3.771 -0.3317 -0.2505 -0.3584
  351MOL0     C48332   0.561   1.893   3.907  0.4891 -0.3481 -0.1423
  351MOL0     C48333   0.457   1.977   3.957 -0.9368 -0.1657  1.4663
  351MOL0     C48334   0.417   1.965   4.087 -0.0106 -0.6996 -0.3170
  351MOL0     C48335   0.472   1.888   4.190 -0.3850 -0.6997  0.3150
  351MOL0     O48336   0.415   1.882   4.313 -0.0009  0.7331 -0.0427
  351MOL0     C48337   0.487   1.826   4.425  0.5247  0.8096 -0.5341
  351MOL0     C48338   0.405   1.858   4.556  0.3456  0.4234 -0.1558
  351MOL0     C48339   0.394   2.004   4.578  0.5591  0.2591  0.5177
  351MOL0     C48340   0.358   2.045   4.719  0.8470 -0.2600 -0.5358
  351MOL0     C48341   0.418   2.179   4.754  0.0952 -0.5226 -0.3539
  351MOL0     C48342   0.333   2.234   4.872  1.2760 -0.3762 -0.2028
  351MOL0     C48343   0.369   2.170   4.999 -0.4291  0.6152 -0.4614
  351MOL0     C48344   0.312   2.235   5.123  1.1111  0.1861  0.4980
  351MOL0    Cl48345   0.398   2.398   5.153 -0.0358 -0.4606 -0.0007
  351MOL0     C48346   0.581   1.802   4.140 -0.5433  0.2718  0.4286
  351MOL0     C48347   0.624   1.807   4.005  0.1166 -0.5755 -1.7893
  351MOL0     O48348   0.525   2.075   3.683 -0.3005  1.0937 -0.4170
  351MOL0     C48349   0.520   1.990   3.421  0.8541 -0.1751 -0.6097
  351MOL0     C48350   0.537   1.958   3.292 -1.3800  0.2871 -0.6412
  351MOL0     N48351   0.987   1.682   2.697 -0.2477  0.6189  0.2234
  351MOL0     N48352   1.068   1.649   2.601 -0.2890 -0.4101 -0.0070
  351MOL0     C48353   0.440   1.052   1.720 -0.3994  0.9312 -0.0197
  351MOL0     C48354   0.387   0.987   1.609  0.1548 -0.0398  0.1011
  351MOL0     C48355   0.192   0.984   1.188 -0.7155 -0.4681 -0.3542
  351MOL0     C48356   0.226   0.847   1.194  0.1634 -0.2489  0.5886
  351MOL0     C48357   0.219   0.772   1.082 -0.2920  0.8027 -0.2405
  351MOL0     C48358   0.180   0.815   0.957 -0.6461 -0.0112  0.8142
  351MOL0     O48359   0.175   0.748   0.837 -0.3747  0.0839  0.1218
  351MOL0     C48360   0.245   0.627   0.822 -0.3347  0.4020  0.3255
  351MOL0     C48361   0.272   0.592   0.674  0.1658  0.7888 -0.5400
  351MOL0     C48362   0.148   0.573   0.579 -0.8033 -0.2967 -0.3460
  351MOL0     C48363   0.051   0.448   0.625 -0.5762 -0.1114  0.4629
  351MOL0     C48364   0.017   0.348   0.519 -0.5505  0.6572 -1.2412
  351MOL0     C48365  -0.008   0.268   0.434  0.3178  0.2818  0.3736
  351MOL0     C48366   0.141   0.945   0.946 -0.0092 -0.1780 -0.4310
  351MOL0     C48367   0.147   1.030   1.059  0.5131 -0.6055 -0.5161
  351MOL0     C48368   0.112   1.169   1.035  0.3364 -0.8163  0.4064
  351MOL0     H48369   0.253   1.263   1.486 -1.3078  0.1425  0.5922
  351MOL0     H48370   0.327   1.363   1.721  3.2652  0.2660 -1.2332
  351MOL0     H48371   0.301   1.252   1.973  1.7434 -3.0878 -1.0576
  351MOL0     H48372   0.390   1.403   1.947 -1.8979 -0.8384 -0.6097
  351MOL0     H48373   0.397   1.317   2.186  0.0181  0.8709  0.4542
  351MOL0     H48374   0.503   1.180   2.138 -1.6437 -0.9491 -1.8964
  351MOL0     H48375   0.672   1.331   2.031  1.8362  1.0483  1.3509
  351MOL0     H48376   0.579   1.471   2.089 -2.4942 -0.9865 -3.6784
  351MOL0     H48377   0.629   1.381   2.322 -1.8749 -0.3035 -0.8463
  351MOL0     H48378   0.711   1.232   2.251  0.6633  0.7866  0.6379
  351MOL0     H48379   0.805   1.519   2.230 -0.6118  0.2299  0.1479
  351MOL0     H48380   0.881   1.383   2.153  1.0951  0.3028  1.1289
  351MOL0     H48381   0.841   1.411   2.451  3.1364 -0.9602  2.1403
  351MOL0     H48382   0.919   1.268   2.381  0.3454 -1.0022 -0.9501
  351MOL0     H48383   1.029   1.552   2.347 -0.9565  0.1270  3.7389
  351MOL0     H48384   1.079   1.417   2.256 -1.5031  3.6888 -1.1600
  351MOL0     H48385   1.123   1.324   2.494  1.0735 -0.4294 -1.5306
  351MOL0     H48386   1.220   1.467   2.464 -1.1593  1.4448 -0.3512
  351MOL0     H48387   0.942   1.361   2.677 -0.4658  0.4495 -1.3438
  351MOL0     H48388   0.820   1.453   2.893 -0.1907 -0.4937 -0.7569
  351MOL0     H48389   0.759   1.614   2.855  2.3931  3.3936  1.2436
  351MOL0     H48390   0.882   1.544   3.081 -0.7348 -1.9654 -1.2370
  351MOL0     H48391   1.030   1.608   3.004  0.4379  0.4289 -0.3092
  351MOL0     H48392   0.924   1.784   3.131 -0.9307  1.9072 -0.5324
  351MOL0     H48393   0.906   1.816   2.962  2.2584 -1.0869 -0.4278
  351MOL0     H48394   0.668   1.773   2.966  1.2842 -1.2984 -0.5826
  351MOL0     H48395   0.676   1.677   3.114  2.2027 -1.8428 -1.3638
  351MOL0     H48396   0.788   1.744   3.317  1.2765  2.5557 -0.4249
  351MOL0     H48397   0.744   1.656   3.603  1.9375  1.1573  3.7684
  351MOL0     H48398   0.843   1.798   3.650  2.3544 -0.8229 -0.1779
  351MOL0     H48399   0.881   1.721   3.511  0.0329 -1.2686  0.7688
  351MOL0     H48400   0.396   2.041   3.894 -1.1100  0.4120  2.2056
  351MOL0     H48401   0.337   2.031   4.116  2.8921  3.0958 -0.1964
  351MOL0     H48402   0.491   1.717   4.427 -2.1662  0.5266 -2.8965
  351MOL0     H48403   0.588   1.863   4.446  0.3856  0.1890  1.3647
  351MOL0     H48404   0.304   1.816   4.555  0.2260  0.6674  1.0229
  351MOL0     H48405   0.454   1.807   4.639 -0.9678 -0.7982 -0.1063
  351MOL0     H48406   0.314   2.049   4.519  0.7518  0.5506  0.4742
  351MOL0     H48407   0.489   2.057   4.563  0.9623  0.3832  2.9666
  351MOL0     H48408   0.393   1.960   4.777  1.4830 -0.7998 -1.6807
  351MOL0     H48409   0.249   2.045   4.735  0.7469 -2.2030 -1.0021
  351MOL0     H48410   0.525   2.172   4.774  0.0973  1.0824  0.3580
  351MOL0     H48411   0.413   2.243   4.665 -1.0871 -0.6656 -0.4042
  351MOL0     H48412   0.229   2.219   4.843  0.9951  1.9639 -0.5746
  351MOL0     H48413   0.360   2.340   4.873  1.0448 -0.3148 -0.3357
  351MOL0     H48414   0.476   2.153   5.009 -0.5317 -0.4774 -1.0545
  351MOL0     H48415   0.320   2.072   4.992 -1.8923  0.9108  3.3205
  351MOL0     H48416   0.333   2.171   5.210  0.7664  0.5212  0.8322
  351MOL0     H48417   0.204   2.250   5.117  1.3872  1.5022 -2.5943
  351MOL0     H48418   0.642   1.734   4.199  0.0624  0.9290  0.5708
  351MOL0     H48419   0.688   1.725   3.974 -0.7644 -2.7933  1.6394
  351MOL0     H48420   0.436   2.054   3.446 -0.6323 -2.0100 -0.6376
  351MOL0     H48421   0.464   1.995   3.220 -1.4288  0.4344 -0.5158
  351MOL0     H48422   0.504   0.992   1.785 -2.8167  0.5313  2.1443
  351MOL0     H48423   0.399   0.881   1.590  0.1866  0.1532 -1.0035
  351MOL0     H48424   0.269   0.798   1.280 -1.8376 -1.2657  1.0653
  351MOL0     H48425   0.237   0.665   1.081 -1.2661  0.6306 -0.9336
  351MOL0     H48426   0.337   0.625   0.881  0.5398  0.7889 -0.9968
  351MOL0     H48427   0.177   0.554   0.867  0.7296 -0.5110  0.5181
  351MOL0     H48428   0.333   0.501   0.672 -0.4143  0.1421  3.3019
  351MOL0     H48429   0.340   0.668   0.634  0.0613 -0.0577 -2.4220
  351MOL0     H48430   0.093   0.668   0.580 -0.6089 -0.1810 -0.6044
  351MOL0     H48431   0.183   0.569   0.475 -3.2245  0.3483 -1.2592
  351MOL0     H48432  -0.043   0.480   0.673 -1.1503  0.7696 -1.1792
  351MOL0     H48433   0.098   0.391   0.706 -2.2179  0.8411  2.1809
  351MOL0     H48434  -0.029   0.197   0.356 -2.5957 -0.3352  1.5751
  351MOL0     H48435   0.106   0.975   0.848 -1.0653  2.3901  0.6156
  351MOL0     H48436   0.180   1.230   1.095  0.4767 -1.4143  0.8605
  351MOL0     H48437   0.120   1.192   0.928  0.7135 -2.8782 -0.0437
  351MOL0     H48438   0.012   1.201   1.065  1.2089  2.4033  0.2544
  352MOL0     O48439   4.998   7.698   1.172  0.1721 -0.3185 -0.6529
  352MOL0     C48440   4.891   7.746   1.214 -0.8250  0.8632 -0.2528
  352MOL0     O48441   4.814   7.836   1.144 -0.1355  0.4269 -0.2938
  352MOL0     C48442   4.876   7.919   1.055  0.2055 -0.0045  0.6327
  352MOL0     C48443   4.938   7.875   0.935 -0.0841 -0.4035  0.2915
  352MOL0     C48444   4.972   7.967   0.835 -0.9529 -0.5389 -0.1823
  352MOL0     C48445   4.964   8.112   0.867 -0.7251 -0.6275  0.1667
  352MOL0     O48446   5.019   8.211   0.790 -0.6786 -0.0584 -0.0718
  352MOL0     C48447   5.134   8.186   0.704 -0.2050  0.8120 -0.2301
  352MOL0     C48448   5.216   8.326   0.707  0.0571  0.2029 -0.4848
  352MOL0     C48449   5.284   8.347   0.844 -0.0227  0.7332  0.2662
  352MOL0     C48450   5.362   8.477   0.843 -0.3612  0.3383 -0.9048
  352MOL0     C48451   5.479   8.480   0.937  0.5546  0.1011  0.2284
  352MOL0     C48452   5.436   8.516   1.074  0.0969  0.0865  0.0941
  352MOL0     C48453   5.392   8.650   1.107  0.8643 -0.4698  0.2805
  352MOL0     C48454   5.318   8.658   1.238  0.6265  0.2865  0.3708
  352MOL0     N48455   5.190   8.583   1.253 -0.8876 -1.1030  0.1221
  352MOL0     C48456   5.142   8.553   1.382 -0.0403 -0.5931 -0.4936
  352MOL0     C48457   5.013   8.516   1.361 -0.1153 -1.3894  0.2927
  352MOL0     C48458   4.919   8.519   1.482  0.1930 -0.8200  0.2170
  352MOL0     C48459   4.811   8.419   1.464 -0.4810 -0.0702 -0.3350
  352MOL0     C48460   4.744   8.396   1.603 -0.4380  0.8162 -0.1910
  352MOL0     C48461   4.702   8.521   1.677  0.0005 -0.9504  0.7887
  352MOL0     O48462   4.633   8.496   1.797 -0.0399  0.0718 -0.1063
  352MOL0     C48463   4.515   8.428   1.799 -0.2201  0.0408  0.6744
  352MOL0     C48464   4.421   8.424   1.695  0.2118 -0.2677 -0.3537
  352MOL0     C48465   4.306   8.354   1.698  1.0749 -0.8186 -0.6275
  352MOL0     C48466   4.214   8.363   1.571  1.3104  0.9987  1.0718
  352MOL0     C48467   4.267   8.292   1.822 -1.1632  0.1724  0.1194
  352MOL0     C48468   4.142   8.201   1.841 -0.7388 -0.8239  0.8082
  352MOL0     O48469   4.117   8.155   1.967  0.0644  0.4383  0.3815
  352MOL0     C48470   4.049   8.029   1.976 -0.1055  0.7614 -0.0018
  352MOL0     C48471   3.944   8.035   2.063 -0.2055 -0.5359  0.0990
  352MOL0     C48472   3.867   7.926   2.091  0.0506 -0.3474 -0.3174
  352MOL0     C48473   3.889   7.806   2.024 -0.4952 -0.2506 -0.5900
  352MOL0     O48474   3.817   7.694   2.070  0.3907 -0.4846  0.6112
  352MOL0     C48475   3.853   7.561   2.031  0.0063 -0.6997 -0.0218
  352MOL0     C48476   3.815   7.520   1.892  0.1859  0.2781  0.1877
  352MOL0     C48477   3.664   7.528   1.859 -0.0613  1.3050  0.8092
  352MOL0     C48478   3.634   7.453   1.729 -0.6833 -0.5067  0.0374
  352MOL0     C48479   3.489   7.480   1.699  1.3193 -1.0061  0.0982
  352MOL0     C48480   3.461   7.440   1.559  0.3664  0.0975  0.7512
  352MOL0     C48481   3.311   7.452   1.517 -0.1722 -0.2330 -0.5707
  352MOL0     C48482   3.301   7.439   1.368 -0.2255  0.1569 -0.9104
  352MOL0    Cl48483   3.379   7.565   1.269  0.1900 -0.0515  0.4077
  352MOL0     C48484   3.993   7.804   1.930 -0.4261  0.1502  0.1506
  352MOL0     C48485   4.081   7.917   1.916  0.0072  0.4325  0.2206
  352MOL0     O48486   4.103   8.150   1.744  1.0692  1.5097 -0.0358
  352MOL0     C48487   4.353   8.306   1.928  0.8733  0.1623  0.8519
  352MOL0     C48488   4.468   8.381   1.915  0.7921  0.8450 -0.1140
  352MOL0     N48489   4.987   8.512   1.219 -0.3230 -0.0616 -0.1050
  352MOL0     N48490   5.103   8.538   1.163  0.5880 -0.7442  0.1359
  352MOL0     C48491   4.921   8.147   1.002  0.0162  0.1614  0.3726
  352MOL0     C48492   4.877   8.054   1.087 -0.3562 -0.0575  0.0814
  352MOL0     C48493   4.829   7.705   1.348 -0.2191 -0.1900 -0.5043
  352MOL0     C48494   4.711   7.772   1.392  0.3106 -0.3526 -0.5868
  352MOL0     C48495   4.650   7.745   1.512  0.8960 -0.0808 -1.4269
  352MOL0     C48496   4.698   7.644   1.589 -0.7827 -0.7880  1.0847
  352MOL0     O48497   4.637   7.617   1.711 -0.1380 -0.4827  0.7228
  352MOL0     C48498   4.670   7.503   1.787 -0.1783  0.0910 -0.0724
  352MOL0     C48499   4.570   7.476   1.905 -0.5043  0.0300 -0.1899
  352MOL0     C48500   4.429   7.458   1.842 -0.6947  0.1244  0.2198
  352MOL0     C48501   4.336   7.395   1.941 -0.1175  0.0951  0.3653
  352MOL0     C48502   4.234   7.315   1.875 -0.0975 -0.4645  0.3862
  352MOL0     C48503   4.148   7.253   1.811  0.7795  1.2629  0.2509
  352MOL0     C48504   4.811   7.570   1.545  0.1911  0.1501 -0.0983
  352MOL0     C48505   4.873   7.603   1.433  0.1949  0.4235 -0.0231
  352MOL0     C48506   4.975   7.489   1.393  0.6410  0.3304  0.2548
  352MOL0     H48507   4.947   7.768   0.918 -2.5040 -0.9928  2.0863
  352MOL0     H48508   5.014   7.921   0.746 -3.8074 -0.6919 -1.5560
  352MOL0     H48509   5.101   8.170   0.601  1.8196  0.9441 -0.9289
  352MOL0     H48510   5.190   8.097   0.734 -1.1412  1.0086  2.2904
  352MOL0     H48511   5.287   8.333   0.625 -1.4960  2.7302 -1.7316
  352MOL0     H48512   5.146   8.410   0.702 -0.0516  0.3120  1.7314
  352MOL0     H48513   5.199   8.343   0.914 -1.5569  2.0331 -1.4231
  352MOL0     H48514   5.352   8.264   0.863  0.5766  1.4194  1.2018
  352MOL0     H48515   5.403   8.486   0.742  1.8332  0.2794 -0.0909
  352MOL0     H48516   5.295   8.562   0.854 -0.5208  0.6960 -3.9156
  352MOL0     H48517   5.549   8.558   0.906  3.6300 -1.5482  2.4566
  352MOL0     H48518   5.517   8.378   0.954 -1.0772 -0.3410  1.4823
  352MOL0     H48519   5.358   8.444   1.101  0.8468 -0.3565  1.1595
  352MOL0     H48520   5.517   8.500   1.146 -1.1251  4.3939  2.7780
  352MOL0     H48521   5.317   8.685   1.036  1.4545 -2.3567 -1.3495
  352MOL0     H48522   5.475   8.720   1.092 -1.9137  2.6822 -1.6705
  352MOL0     H48523   5.387   8.619   1.314  0.0285  1.1711  1.4102
  352MOL0     H48524   5.301   8.766   1.245  1.5430  0.4412  0.3668
  352MOL0     H48525   5.192   8.586   1.473 -0.8671  0.1157 -0.2859
  352MOL0     H48526   4.876   8.617   1.503  3.7083  0.2717  3.3839
  352MOL0     H48527   4.980   8.494   1.569  1.4498  0.5443 -0.2440
  352MOL0     H48528   4.739   8.459   1.392 -0.8377 -2.8839 -1.6662
  352MOL0     H48529   4.854   8.325   1.429  0.1072  1.0440 -2.8146
  352MOL0     H48530   4.656   8.335   1.581  0.2008  0.5322 -2.1677
  352MOL0     H48531   4.814   8.353   1.676  2.0414  3.5663 -0.7587
  352MOL0     H48532   4.791   8.575   1.708  0.7257 -2.3650  1.2828
  352MOL0     H48533   4.634   8.590   1.627  0.5022 -0.8011  0.2920
  352MOL0     H48534   4.433   8.486   1.606 -2.3217  0.5817 -0.1984
  352MOL0     H48535   4.200   8.268   1.519 -0.2666  2.9447 -2.3702
  352MOL0     H48536   4.260   8.414   1.487 -0.3472 -1.6907 -1.6919
  352MOL0     H48537   4.115   8.406   1.589  0.3662 -1.0038  1.0387
  352MOL0     H48538   3.924   8.120   2.128 -2.0636 -1.4952  0.8525
  352MOL0     H48539   3.795   7.941   2.171  2.5474 -0.7830  2.1623
  352MOL0     H48540   3.962   7.556   2.040  0.1019 -2.2523 -1.5216
  352MOL0     H48541   3.816   7.488   2.103 -0.2684 -0.6749 -0.1357
  352MOL0     H48542   3.868   7.581   1.819  1.4454  1.0296  1.6958
  352MOL0     H48543   3.846   7.415   1.885  0.5085  0.3515  0.5484
  352MOL0     H48544   3.648   7.635   1.841 -0.8083  1.1852  0.7212
  352MOL0     H48545   3.600   7.483   1.935  0.6016 -1.2837 -0.0683
  352MOL0     H48546   3.658   7.348   1.741  1.0743  0.1374  3.1365
  352MOL0     H48547   3.683   7.499   1.642  0.3091 -3.2903 -0.9581
  352MOL0     H48548   3.419   7.421   1.759 -0.1016  0.7715  0.2991
  352MOL0     H48549   3.474   7.588   1.709 -1.9471 -1.2408 -0.7918
  352MOL0     H48550   3.491   7.334   1.556 -0.6836 -0.2770  2.3392
  352MOL0     H48551   3.524   7.501   1.493  1.7319  0.5474  2.3904
  352MOL0     H48552   3.286   7.556   1.540  0.0492 -0.5609  1.2194
  352MOL0     H48553   3.235   7.388   1.563 -3.1166  1.7669 -2.2876
  352MOL0     H48554   3.195   7.421   1.345 -0.1990 -1.9927  0.3349
  352MOL0     H48555   3.351   7.345   1.344 -1.8281 -1.1414  0.5657
  352MOL0     H48556   4.007   7.715   1.868 -1.2911 -1.5125  2.2299
  352MOL0     H48557   4.160   7.913   1.843 -0.3248 -0.6723 -0.0880
  352MOL0     H48558   4.336   8.284   2.033  2.4469  2.2125  1.6163
  352MOL0     H48559   4.525   8.399   2.006 -2.3958 -1.3532  2.5434
  352MOL0     H48560   4.924   8.252   1.029  4.5241  0.6192 -0.9957
  352MOL0     H48561   4.840   8.077   1.186 -1.0386  1.9749 -0.5821
  352MOL0     H48562   4.669   7.851   1.330 -0.7095  0.0049  0.5214
  352MOL0     H48563   4.555   7.789   1.540  0.1993 -1.1511 -2.0355
  352MOL0     H48564   4.673   7.417   1.720  5.2663  0.7945 -1.2097
  352MOL0     H48565   4.767   7.517   1.835 -1.2105 -0.6395  2.4108
  352MOL0     H48566   4.560   7.568   1.964  0.8680  0.2422 -0.2498
  352MOL0     H48567   4.594   7.392   1.971  1.9824  1.2835  0.6504
  352MOL0     H48568   4.388   7.557   1.820  2.7492  1.8526  0.7896
  352MOL0     H48569   4.420   7.400   1.750 -4.9196  0.9758 -0.0889
  352MOL0     H48570   4.274   7.467   1.995 -0.0699  0.5328 -0.1579
  352MOL0     H48571   4.394   7.341   2.016 -0.0965  2.9827  2.5765
  352MOL0     H48572   4.068   7.189   1.780  1.5026 -0.5634  1.9300
  352MOL0     H48573   4.839   7.488   1.611 -1.1504 -0.5447 -0.3551
  352MOL0     H48574   4.938   7.424   1.314  1.9011  0.7839 -0.7462
  352MOL0     H48575   5.067   7.527   1.347  1.8399 -3.6411 -0.9865
  352MOL0     H48576   4.993   7.435   1.486  1.0287 -1.0578 -0.6083
  353MOL0     O48577   5.754  10.092   2.240 -0.2056  0.2623 -0.2317
  353MOL0     C48578   5.658  10.146   2.196  0.2328 -0.1589 -0.2348
  353MOL0     O48579   5.532  10.115   2.228  0.1051 -0.7014 -0.3321
  353MOL0     C48580   5.511   9.994   2.300  0.2194  0.1754  0.2216
  353MOL0     C48581   5.519  10.000   2.439 -0.8506 -0.4684 -0.0634
  353MOL0     C48582   5.508   9.886   2.515  0.1440 -0.5765 -0.0302
  353MOL0     C48583   5.473   9.760   2.456 -0.2110 -0.2473 -0.3139
  353MOL0     O48584   5.479   9.643   2.537 -0.6278 -0.1486  0.8240
  353MOL0     C48585   5.609   9.582   2.552  0.7896 -0.1480 -0.4246
  353MOL0     C48586   5.610   9.445   2.627  0.1497  0.4704 -0.3223
  353MOL0     C48587   5.573   9.484   2.771 -0.5970 -0.0490 -0.0692
  353MOL0     C48588   5.586   9.366   2.872  0.6437  0.3378 -0.2628
  353MOL0     C48589   5.571   9.403   3.025  0.4611  1.5602  0.1095
  353MOL0     C48590   5.658   9.516   3.081  0.1763  0.6651  0.4917
  353MOL0     C48591   5.805   9.485   3.113  0.5473 -0.7377  0.1523
  353MOL0     C48592   5.893   9.614   3.131 -0.3985 -0.0579  0.1111
  353MOL0     N48593   5.893   9.698   3.009 -1.1165 -0.4867 -0.3878
  353MOL0     C48594   5.932   9.835   2.992  0.0336  0.8379 -0.0998
  353MOL0     C48595   5.926   9.856   2.857 -0.4025  0.0800  0.2213
  353MOL0     C48596   5.945   9.990   2.784 -0.1759  0.0032 -0.3530
  353MOL0     C48597   5.834  10.089   2.758 -0.1657  0.5580 -0.8190
  353MOL0     C48598   5.811  10.102   2.609 -1.0126  0.5317  0.1597
  353MOL0     C48599   5.929  10.156   2.525 -0.1497  0.1399 -1.0069
  353MOL0     O48600   5.993  10.264   2.587  0.9451  0.2356 -0.0645
  353MOL0     C48601   5.953  10.393   2.573  0.7856  0.4888  0.3076
  353MOL0     C48602   5.833  10.431   2.521  0.9741 -0.0197  0.4977
  353MOL0     C48603   5.793  10.560   2.518  0.0139  0.6392 -0.3299
  353MOL0     C48604   5.664  10.585   2.441 -0.2312  0.0572  0.0527
  353MOL0     C48605   5.878  10.658   2.566  0.2906 -1.1478  0.5020
  353MOL0     C48606   5.841  10.807   2.572  0.8511  0.1470 -0.1668
  353MOL0     O48607   5.921  10.905   2.525  0.3176  0.0946 -0.2315
  353MOL0     C48608   5.915  11.030   2.581  0.3631 -0.0403  0.7784
  353MOL0     C48609   6.007  11.080   2.675 -0.8434  0.2400 -0.0855
  353MOL0     C48610   5.993  11.213   2.731  0.3189  0.1876  0.6941
  353MOL0     C48611   5.873  11.289   2.696 -0.1550  0.5183 -0.6250
  353MOL0     O48612   5.867  11.417   2.737  0.3180 -0.5513 -0.1720
  353MOL0     C48613   5.942  11.505   2.656 -0.5267  0.1340 -0.4034
  353MOL0     C48614   5.961  11.646   2.732  0.7980 -0.3625 -0.4143
  353MOL0     C48615   5.836  11.728   2.761  0.7712 -0.4494 -0.0281
  353MOL0     C48616   5.768  11.674   2.890  0.2338 -0.0924 -0.4628
  353MOL0     C48617   5.650  11.746   2.938 -0.0413 -1.2286 -0.7451
  353MOL0     C48618   5.685  11.869   3.026  0.2085  0.5140  0.2898
  353MOL0     C48619   5.733  11.832   3.167  0.7830  0.5330  0.2994
  353MOL0     C48620   5.748  11.954   3.249 -0.4339 -0.2326  0.4072
  353MOL0    Cl48621   5.841  12.068   3.166 -0.0288 -0.0483 -0.4468
  353MOL0     C48622   5.785  11.240   2.607  0.2080 -0.4798  0.3443
  353MOL0     C48623   5.801  11.109   2.553  0.2918 -0.6985 -0.9170
  353MOL0     O48624   5.722  10.824   2.605  0.0500  0.3414  0.7100
  353MOL0     C48625   6.001  10.621   2.625  0.9935 -0.2185  0.0293
  353MOL0     C48626   6.037  10.486   2.630  0.8604  0.9685 -0.4143
  353MOL0     N48627   5.888   9.737   2.797  0.2384 -0.4758 -0.2162
  353MOL0     N48628   5.871   9.645   2.886 -0.7236 -0.3833 -0.5623
  353MOL0     C48629   5.473   9.756   2.311  0.3412 -0.5835 -0.7482
  353MOL0     C48630   5.497   9.865   2.240  0.3541 -0.2833  0.1260
  353MOL0     C48631   5.669  10.276   2.128  1.0192 -0.3631 -0.4179
  353MOL0     C48632   5.782  10.360   2.160  0.9892 -0.5098  0.2775
  353MOL0     C48633   5.790  10.492   2.110  0.5848 -1.0125  0.1515
  353MOL0     C48634   5.683  10.550   2.028 -0.9003  0.2613 -0.2417
  353MOL0     O48635   5.689  10.670   1.953 -0.0657 -0.6064 -0.6249
  353MOL0     C48636   5.785  10.767   1.996  0.2879  0.5560 -0.1424
  353MOL0     C48637   5.715  10.880   2.073 -0.1270 -0.1143 -0.3020
  353MOL0     C48638   5.793  11.014   2.091  0.9335  0.0426  0.1100
  353MOL0     C48639   5.710  11.128   2.031 -0.4009  0.5690  0.4861
  353MOL0     C48640   5.623  11.192   2.125  0.6990  0.1193  0.1829
  353MOL0     C48641   5.547  11.228   2.218 -0.2855  0.5482  0.4221
  353MOL0     C48642   5.585  10.454   1.985 -0.8676  0.4415 -0.4317
  353MOL0     C48643   5.563  10.327   2.053 -0.5387  0.8349 -0.9319
  353MOL0     C48644   5.457  10.249   1.993  0.9288  0.2611  0.4515
  353MOL0     H48645   5.533  10.098   2.484 -0.8629 -1.1583  1.5316
  353MOL0     H48646   5.534   9.901   2.619  0.2490  2.3071 -0.4053
  353MOL0     H48647   5.677   9.649   2.606  1.5913 -0.4267 -1.0557
  353MOL0     H48648   5.647   9.570   2.450  1.3448  3.2722 -0.7673
  353MOL0     H48649   5.530   9.392   2.575 -0.4191  2.5639 -1.7312
  353MOL0     H48650   5.709   9.401   2.615  1.6524  3.7732 -1.3039
  353MOL0     H48651   5.635   9.568   2.802 -0.7073 -0.4875  1.3932
  353MOL0     H48652   5.471   9.523   2.767 -0.7711 -0.4893 -0.0175
  353MOL0     H48653   5.502   9.298   2.853  1.0064  0.5945 -3.4244
  353MOL0     H48654   5.674   9.306   2.848  1.8720  1.9036  0.1811
  353MOL0     H48655   5.581   9.320   3.096 -0.3777  1.1030 -0.2887
  353MOL0     H48656   5.473   9.447   3.045  0.1230  0.7491  0.2697
  353MOL0     H48657   5.639   9.591   3.004  2.0694  0.8004  0.1047
  353MOL0     H48658   5.607   9.560   3.168 -2.3707 -0.4130 -0.3561
  353MOL0     H48659   5.839   9.428   3.026  1.3216  0.8096 -0.5991
  353MOL0     H48660   5.803   9.414   3.196 -0.3421 -0.1960  0.6158
  353MOL0     H48661   5.859   9.670   3.219 -1.0084 -1.6618  0.9398
  353MOL0     H48662   5.990   9.572   3.157 -0.4442 -1.7239 -2.1807
  353MOL0     H48663   5.969   9.911   3.061  2.2095  1.6940 -2.0566
  353MOL0     H48664   5.982   9.960   2.686 -0.7881 -1.3467 -0.1933
  353MOL0     H48665   6.023  10.038   2.844  3.0577 -1.5461 -2.9668
  353MOL0     H48666   5.744  10.038   2.794 -0.4799 -0.8777 -3.3415
  353MOL0     H48667   5.860  10.187   2.799 -1.0235  2.1788 -3.8577
  353MOL0     H48668   5.796  10.003   2.564 -0.7008 -1.0415  3.2702
  353MOL0     H48669   5.728  10.172   2.592 -1.4663 -0.0528 -0.0743
  353MOL0     H48670   6.000  10.074   2.516 -1.7715 -1.4346 -0.0884
  353MOL0     H48671   5.902  10.172   2.420 -0.4295 -1.9140 -1.2944
  353MOL0     H48672   5.779  10.361   2.458  0.1113  2.6382 -2.0071
  353MOL0     H48673   5.671  10.660   2.362  0.1140  0.7427  0.7118
  353MOL0     H48674   5.581  10.620   2.504 -1.5909  3.3224 -3.2042
  353MOL0     H48675   5.643  10.491   2.389  2.6808 -0.9257  0.5044
  353MOL0     H48676   6.093  11.015   2.690 -0.7182 -0.2380 -2.4329
  353MOL0     H48677   6.062  11.256   2.803  0.0693  0.1981  0.9305
  353MOL0     H48678   6.038  11.460   2.633 -0.2715 -0.3536  1.4189
  353MOL0     H48679   5.889  11.516   2.562  1.4789  2.3305 -1.3839
  353MOL0     H48680   5.999  11.622   2.832 -1.7150  0.7146  0.8834
  353MOL0     H48681   6.040  11.702   2.682  0.0730 -0.3366 -1.5731
  353MOL0     H48682   5.769  11.726   2.675 -0.5579 -1.1731  0.9774
  353MOL0     H48683   5.871  11.831   2.770  2.2274 -0.8229 -1.0269
  353MOL0     H48684   5.847  11.666   2.966  0.5449  2.1438 -0.4824
  353MOL0     H48685   5.720  11.580   2.861  1.7735 -0.9872 -0.2200
  353MOL0     H48686   5.589  11.763   2.849  0.9612 -0.9351 -1.3902
  353MOL0     H48687   5.605  11.672   3.005 -0.8510  0.5817  0.8319
  353MOL0     H48688   5.596  11.933   3.033 -1.0463 -0.7787 -2.2949
  353MOL0     H48689   5.762  11.923   2.971 -2.4031  0.4332 -3.8668
  353MOL0     H48690   5.835  11.792   3.169  0.7398  0.2633 -1.4863
  353MOL0     H48691   5.663  11.758   3.208 -1.0545 -0.4368 -4.0248
  353MOL0     H48692   5.797  11.923   3.341  1.2428  0.1894 -0.3005
  353MOL0     H48693   5.652  11.998   3.276  0.7307  1.8035  1.5080
  353MOL0     H48694   5.710  11.309   2.571  0.2091 -0.1584  0.9391
  353MOL0     H48695   5.720  11.064   2.498 -1.8748 -1.4343  2.5864
  353MOL0     H48696   6.067  10.699   2.661  1.0780 -0.6666  0.8806
  353MOL0     H48697   6.133  10.450   2.664 -0.6693 -2.7446  0.4663
  353MOL0     H48698   5.481   9.658   2.264  2.2379 -0.5476 -0.5843
  353MOL0     H48699   5.508   9.864   2.132  2.3692  2.3514  0.1988
  353MOL0     H48700   5.864  10.324   2.221  2.8247  0.7872 -1.3112
  353MOL0     H48701   5.882  10.547   2.128  0.2559  0.0798 -1.3674
  353MOL0     H48702   5.866  10.727   2.058  1.5596  0.8930 -1.5122
  353MOL0     H48703   5.821  10.801   1.898  0.0127 -0.8325 -0.7347
  353MOL0     H48704   5.668  10.852   2.167  1.3348  2.0130  1.1674
  353MOL0     H48705   5.628  10.903   2.012 -0.6338 -3.3093 -0.9175
  353MOL0     H48706   5.816  11.033   2.196  0.1968  0.8560  0.1370
  353MOL0     H48707   5.881  11.019   2.026  3.7056  0.8693  3.6324
  353MOL0     H48708   5.661  11.107   1.936 -0.2312  1.9308  0.0708
  353MOL0     H48709   5.787  11.203   2.009 -2.2585  2.7325  0.8736
  353MOL0     H48710   5.489  11.253   2.305  3.0592  2.6636  2.2601
  353MOL0     H48711   5.501  10.481   1.922 -1.2771  0.0371 -0.0652
  353MOL0     H48712   5.446  10.142   2.014 -0.7918  0.5444  1.1614
  353MOL0     H48713   5.360  10.299   1.997 -0.0810 -1.1945 -2.4282
  353MOL0     H48714   5.470  10.258   1.884  1.2240  4.0329  0.6752
  354MOL0     O48715  10.256  10.921   9.263 -0.3861 -0.3396  0.3138
  354MOL0     C48716  10.322  10.982   9.347 -0.6931 -0.5687  0.8678
  354MOL0     O48717  10.461  11.004   9.328  0.1859  0.3580 -0.1337
  354MOL0     C48718  10.520  10.900   9.260  0.2627 -0.8356 -0.5197
  354MOL0     C48719  10.495  10.768   9.306 -0.0227 -0.8302 -0.3514
  354MOL0     C48720  10.573  10.663   9.249 -0.0451  0.6376 -0.4716
  354MOL0     C48721  10.666  10.682   9.144  0.4959  0.4363  0.1898
  354MOL0     O48722  10.725  10.571   9.104 -0.2962  0.4095 -0.3614
  354MOL0     C48723  10.759  10.556   8.962 -0.3453  0.5255  0.2524
  354MOL0     C48724  10.905  10.598   8.931  1.0017 -0.4290 -0.0289
  354MOL0     C48725  11.004  10.516   9.003  0.3651 -0.1315  0.0196
  354MOL0     C48726  11.034  10.397   8.920  1.1367 -0.9448 -0.0305
  354MOL0     C48727  11.096  10.285   9.000  0.1194 -0.2619  0.1594
  354MOL0     C48728  11.029  10.254   9.134 -0.7162 -1.1237 -0.1867
  354MOL0     C48729  10.888  10.193   9.129 -0.2070  0.1827 -0.2329
  354MOL0     C48730  10.835  10.112   9.004  0.7917 -0.5973 -0.6524
  354MOL0     N48731  10.700  10.057   9.026  0.4062 -0.2906  0.0706
  354MOL0     C48732  10.584  10.117   8.983  0.0851  0.7347 -0.1874
  354MOL0     C48733  10.482  10.031   9.028  0.2769  0.2698 -0.7697
  354MOL0     C48734  10.333  10.053   8.999 -0.3051  0.0558  0.3968
  354MOL0     C48735  10.257  10.080   9.127  0.2976  0.1921  0.6424
  354MOL0     C48736  10.120  10.140   9.097  0.4295  0.9046  1.1614
  354MOL0     C48737  10.016  10.034   9.047 -0.4938 -1.1076 -0.4195
  354MOL0     O48738   9.957   9.966   9.160 -0.0867 -1.1743  1.0850
  354MOL0     C48739   9.875  10.024   9.255 -0.5509 -0.0857 -0.8315
  354MOL0     C48740   9.907  10.032   9.392 -0.7569 -0.1439 -0.3665
  354MOL0     C48741   9.820  10.084   9.491 -0.6927 -1.0513  0.4434
  354MOL0     C48742   9.879  10.082   9.625  0.3417  0.5333 -0.3977
  354MOL0     C48743   9.704  10.142   9.443 -0.9343  0.2742 -1.7456
  354MOL0     C48744   9.610  10.206   9.538 -0.3258 -0.3135 -0.1632
  354MOL0     O48745   9.509  10.279   9.489  0.4943  0.7165  0.7567
  354MOL0     C48746   9.389  10.302   9.558  0.1050 -0.1289  0.5726
  354MOL0     C48747   9.348  10.435   9.576  0.0064 -0.9489 -1.3282
  354MOL0     C48748   9.223  10.466   9.625 -0.8044 -1.9230  0.3308
  354MOL0     C48749   9.133  10.373   9.658 -0.1194  0.1307 -0.3920
  354MOL0     O48750   9.014  10.424   9.691  0.0184  0.6326 -0.3567
  354MOL0     C48751   8.895  10.341   9.669 -0.6600  0.5320  0.9065
  354MOL0     C48752   8.800  10.361   9.780  0.9827 -0.6289 -0.1907
  354MOL0     C48753   8.660  10.319   9.737  0.8375  0.5889 -0.2357
  354MOL0     C48754   8.578  10.290   9.866 -0.3532  0.3482  0.6363
  354MOL0     C48755   8.437  10.234   9.828  0.0952 -0.6362 -0.4897
  354MOL0     C48756   8.349  10.235   9.958  0.4602 -0.5761  1.0420
  354MOL0     C48757   8.390  10.149  10.075  0.0410 -0.3833  0.1042
  354MOL0     C48758   8.266  10.083  10.135  0.2748  0.1098  0.3689
  354MOL0    Cl48759   8.136  10.199  10.150  0.1534  0.1251  0.2134
  354MOL0     C48760   9.167  10.240   9.652  0.1637 -0.5564 -0.0450
  354MOL0     C48761   9.297  10.205   9.613 -0.1013  1.0008  0.3267
  354MOL0     O48762   9.621  10.177   9.659  0.5656 -0.1283  0.2900
  354MOL0     C48763   9.674  10.131   9.308 -0.2409  0.0485  0.6930
  354MOL0     C48764   9.756  10.073   9.215 -0.7965 -0.0408 -0.0547
  354MOL0     N48765  10.535   9.935   9.110  0.0345  0.0225  0.8704
  354MOL0     N48766  10.668   9.949   9.100  0.2010 -0.2411  0.8021
  354MOL0     C48767  10.682  10.809   9.095 -1.0948 -0.4481  0.0859
  354MOL0     C48768  10.609  10.909   9.151 -0.1792 -0.6848 -0.8429
  354MOL0     C48769  10.271  11.043   9.475  0.8574 -0.9189  0.3477
  354MOL0     C48770  10.348  11.144   9.528  0.1409  0.3554  0.1244
  354MOL0     C48771  10.309  11.201   9.651 -0.5394 -0.1440 -0.1287
  354MOL0     C48772  10.199  11.163   9.723 -0.0871  0.0684 -0.8698
  354MOL0     O48773  10.175  11.230   9.845  0.6322 -0.0050 -0.5004
  354MOL0     C48774  10.059  11.193   9.927 -0.5757 -0.0804  0.1909
  354MOL0     C48775  10.024  11.294  10.036  0.5613 -0.7888  0.2750
  354MOL0     C48776  10.148  11.337  10.123 -0.3578 -0.0644  0.0722
  354MOL0     C48777  10.108  11.454  10.224 -0.0814  0.2369 -0.4494
  354MOL0     C48778  10.149  11.587  10.170  0.7554  0.7854 -0.1777
  354MOL0     C48779  10.184  11.691  10.131 -0.7724 -0.2851  0.1217
  354MOL0     C48780  10.122  11.059   9.667 -0.3626  0.4507 -0.1201
  354MOL0     C48781  10.154  11.003   9.546  0.7914  0.3529 -0.0890
  354MOL0     C48782  10.053  10.896   9.486  0.5231 -0.9758 -0.5018
  354MOL0     H48783  10.427  10.741   9.386 -1.5554  2.4285 -0.4017
  354MOL0     H48784  10.552  10.565   9.291  0.1395  1.5684  1.9362
  354MOL0     H48785  10.686  10.613   8.904  1.2985  0.2428 -2.2718
  354MOL0     H48786  10.741  10.451   8.938 -1.6607  0.7247  0.3109
  354MOL0     H48787  10.918  10.594   8.822  2.7810  3.3356 -0.0965
  354MOL0     H48788  10.926  10.702   8.956  0.5840  0.0929 -1.6708
  354MOL0     H48789  11.103  10.564   9.003 -0.7444  2.4815 -2.7212
  354MOL0     H48790  10.965  10.499   9.103 -0.1890  0.3813 -0.1073
  354MOL0     H48791  10.933  10.372   8.884 -0.4578  3.5482  0.7091
  354MOL0     H48792  11.111  10.424   8.847  0.5307 -3.3914 -1.7177
  354MOL0     H48793  11.203  10.303   9.017  0.8358 -1.0181 -2.9710
  354MOL0     H48794  11.094  10.192   8.942 -0.4127  2.0047 -3.7506
  354MOL0     H48795  11.094  10.186   9.189 -2.1650 -1.3745  1.3100
  354MOL0     H48796  11.034  10.341   9.201 -0.9348 -0.6168 -0.8199
  354MOL0     H48797  10.818  10.272   9.160 -2.8763 -2.2874  0.4746
  354MOL0     H48798  10.890  10.123   9.213 -0.5493  0.6865  0.2031
  354MOL0     H48799  10.829  10.177   8.916 -0.2082 -1.4349 -1.2098
  354MOL0     H48800  10.907  10.032   8.984  2.0903  0.3694 -0.0222
  354MOL0     H48801  10.577  10.212   8.930 -1.8107  0.0116 -1.3395
  354MOL0     H48802  10.293   9.958   8.961  2.4214 -0.2659 -2.0085
  354MOL0     H48803  10.326  10.134   8.926 -1.0565 -1.1803 -0.9659
  354MOL0     H48804  10.252   9.986   9.183 -0.5477 -0.5325 -0.6203
  354MOL0     H48805  10.321  10.154   9.177  1.7598  0.3659 -1.3648
  354MOL0     H48806  10.070  10.181   9.186 -4.9888 -3.3745  0.6714
  354MOL0     H48807  10.118  10.221   9.024  0.0526 -0.6897 -0.6739
  354MOL0     H48808   9.936  10.081   8.989 -0.0195  0.0719 -0.1267
  354MOL0     H48809  10.063   9.960   8.981 -0.1061 -0.3632 -0.9887
  354MOL0     H48810  10.000   9.983   9.418 -0.1144  1.1516 -0.1821
  354MOL0     H48811   9.857  10.180   9.670 -0.8455 -0.4923  1.3922
  354MOL0     H48812   9.987  10.067   9.621 -0.1670 -6.0838 -0.0512
  354MOL0     H48813   9.844  10.003   9.693  1.6952 -0.1725 -0.4771
  354MOL0     H48814   9.409  10.517   9.540 -1.6114  2.8868  3.5110
  354MOL0     H48815   9.201  10.572   9.633 -0.6034 -1.8378 -0.1576
  354MOL0     H48816   8.850  10.374   9.575  0.0124  0.8620  0.6979
  354MOL0     H48817   8.906  10.233   9.659 -1.9744  0.3062  1.6902
  354MOL0     H48818   8.828  10.317   9.877  3.0323  1.9864  0.5227
  354MOL0     H48819   8.789  10.465   9.814 -4.2197 -1.5984  2.0700
  354MOL0     H48820   8.656  10.229   9.676 -0.9318  2.3425 -2.9079
  354MOL0     H48821   8.615  10.405   9.687  1.3650  1.3367  0.5408
  354MOL0     H48822   8.575  10.384   9.922 -0.9480 -0.6418  2.3433
  354MOL0     H48823   8.624  10.211   9.927 -2.3135  0.0058  1.7338
  354MOL0     H48824   8.395  10.301   9.752  1.6269 -0.2932 -1.0565
  354MOL0     H48825   8.432  10.127   9.808 -5.0249 -0.9809  1.1279
  354MOL0     H48826   8.258  10.195   9.914  1.9021  0.8945 -3.9555
  354MOL0     H48827   8.325  10.338   9.986 -3.5885 -1.0411 -0.0859
  354MOL0     H48828   8.437  10.215  10.149 -2.6943  2.7355 -0.6937
  354MOL0     H48829   8.468  10.078  10.048 -0.0511  0.0742 -1.4981
  354MOL0     H48830   8.280  10.049  10.238 -0.5529  1.6381  1.0166
  354MOL0     H48831   8.233   9.991  10.086 -0.9100  0.0062  1.3159
  354MOL0     H48832   9.105  10.159   9.690  0.8510 -0.6912  0.8411
  354MOL0     H48833   9.312  10.098   9.619  1.9175  1.2030 -0.2413
  354MOL0     H48834   9.589  10.182   9.264  0.4502  1.1263  0.5665
  354MOL0     H48835   9.731  10.071   9.109  0.5830 -2.6842 -0.4394
  354MOL0     H48836  10.736  10.829   9.003 -1.6206 -1.1792 -0.3902
  354MOL0     H48837  10.631  11.010   9.118  1.1685 -0.0294  1.7529
  354MOL0     H48838  10.440  11.184   9.485  0.3462  1.4486  1.5112
  354MOL0     H48839  10.349  11.296   9.685  0.1606 -1.3440  2.7751
  354MOL0     H48840   9.975  11.199   9.857 -0.3801  3.7411  0.0713
  354MOL0     H48841  10.071  11.093   9.970 -2.9764 -0.3857  0.3120
  354MOL0     H48842   9.938  11.257  10.091  0.8816 -3.4689 -0.8289
  354MOL0     H48843   9.988  11.390   9.998  2.4824  0.2449  0.9259
  354MOL0     H48844  10.184  11.259  10.190  3.2639  0.1296 -1.4545
  354MOL0     H48845  10.226  11.371  10.055 -0.2000 -0.2672  0.1508
  354MOL0     H48846  10.151  11.442  10.323 -0.2520  1.3759 -0.2133
  354MOL0     H48847  10.001  11.460  10.249  0.3432  3.6343  1.1762
  354MOL0     H48848  10.227  11.780  10.090 -0.5663 -0.3981  0.0905
  354MOL0     H48849  10.035  11.024   9.721  0.2666  2.6750  2.5115
  354MOL0     H48850   9.985  10.853   9.561  1.1272  0.6177  1.0083
  354MOL0     H48851   9.992  10.941   9.407  0.5194 -2.9659 -1.7139
  354MOL0     H48852  10.110  10.818   9.434 -0.2468 -2.0181  0.1614
  355MOL0     O48853   2.814   7.440  11.551 -0.1598 -0.4655  0.2067
  355MOL0     C48854   2.761   7.331  11.547 -1.0352  0.2793 -0.0463
  355MOL0     O48855   2.724   7.262  11.435 -0.3094 -0.8058 -0.0223
  355MOL0     C48856   2.712   7.343  11.320  0.5314 -0.0621 -0.6885
  355MOL0     C48857   2.583   7.364  11.261 -0.0029 -0.3044 -0.4582
  355MOL0     C48858   2.568   7.429  11.140  0.0944  0.9399 -0.8091
  355MOL0     C48859   2.682   7.460  11.068  0.3910 -0.1664  0.8663
  355MOL0     O48860   2.658   7.526  10.950  0.0959  0.3614 -1.1015
  355MOL0     C48861   2.737   7.478  10.836  0.6899  1.1746 -0.7132
  355MOL0     C48862   2.727   7.570  10.713  0.4721  0.2818 -0.4164
  355MOL0     C48863   2.781   7.515  10.582 -0.1503  0.5014  0.1852
  355MOL0     C48864   2.780   7.630  10.475  0.2912  0.6056  0.3365
  355MOL0     C48865   2.823   7.594  10.324  0.0373  0.3183 -1.3345
  355MOL0     C48866   2.820   7.723  10.242 -0.3535 -0.2100  0.0813
  355MOL0     C48867   2.868   7.695  10.104  0.3325 -0.0607 -0.8758
  355MOL0     C48868   3.021   7.691  10.086 -0.4783 -0.2103  0.1668
  355MOL0     N48869   3.080   7.824  10.112 -0.1449 -0.4842 -0.1929
  355MOL0     C48870   3.032   7.947  10.073 -0.2737  0.2348  0.1862
  355MOL0     C48871   3.117   8.037  10.127 -0.7159 -0.3137 -0.0204
  355MOL0     C48872   3.096   8.184  10.114  1.4244 -0.6137  0.2315
  355MOL0     C48873   2.954   8.230  10.158  0.1013  0.1899 -0.2689
  355MOL0     C48874   2.951   8.258  10.311  0.2144  0.3693 -0.4022
  355MOL0     C48875   2.958   8.133  10.403  0.4229  0.0247 -0.0462
  355MOL0     O48876   2.946   8.186  10.534 -0.3114 -0.6359 -0.1278
  355MOL0     C48877   3.065   8.200  10.610  0.0089  0.0028  0.7546
  355MOL0     C48878   3.096   8.309  10.694  0.6460  0.0986 -0.1641
  355MOL0     C48879   3.217   8.326  10.750  0.1211  0.4302 -0.4857
  355MOL0     C48880   3.240   8.451  10.832 -1.2188  0.1474 -0.7622
  355MOL0     C48881   3.329   8.238  10.711  0.1231  0.1241  0.1534
  355MOL0     C48882   3.473   8.253  10.752  0.0199  0.0302 -0.2446
  355MOL0     O48883   3.560   8.159  10.701  0.5220  0.8215  0.1737
  355MOL0     C48884   3.692   8.156  10.733  0.8539  0.4040  0.4172
  355MOL0     C48885   3.782   8.155  10.625 -0.3291  0.3042 -0.0293
  355MOL0     C48886   3.917   8.156  10.650 -0.6359 -0.3388  0.2960
  355MOL0     C48887   3.969   8.135  10.779  0.1899  0.0907  0.0942
  355MOL0     O48888   4.103   8.121  10.807  0.2873 -0.6459 -0.6056
  355MOL0     C48889   4.180   8.055  10.702  0.8412 -0.0033 -0.9201
  355MOL0     C48890   4.304   7.983  10.770  0.9179  0.0354 -0.1914
  355MOL0     C48891   4.277   7.864  10.877 -0.5551 -1.3847  0.5420
  355MOL0     C48892   4.229   7.933  11.015  0.4231 -0.9486  0.8985
  355MOL0     C48893   4.256   7.854  11.144  0.2177  0.0803 -0.0620
  355MOL0     C48894   4.188   7.931  11.261  0.1332  0.6490 -0.2729
  355MOL0     C48895   4.266   7.893  11.397  0.1034 -0.5788 -0.5907
  355MOL0     C48896   4.223   7.975  11.515 -0.5621 -0.1181 -1.0310
  355MOL0    Cl48897   4.046   7.973  11.533 -0.4610 -0.1694 -0.1755
  355MOL0     C48898   3.885   8.150  10.889 -0.2427 -0.0550  0.2997
  355MOL0     C48899   3.745   8.158  10.865  0.7601 -0.0710  0.6533
  355MOL0     O48900   3.505   8.345  10.820  0.1701 -0.0716  0.1461
  355MOL0     C48901   3.299   8.136  10.619 -0.6617 -0.1212 -0.0134
  355MOL0     C48902   3.168   8.106  10.586 -0.7643  0.0921 -0.8508
  355MOL0     N48903   3.216   7.980  10.195  0.1708  0.4951 -0.5642
  355MOL0     N48904   3.195   7.853  10.183 -1.3097 -0.6920 -0.2260
  355MOL0     C48905   2.806   7.445  11.126 -0.7241  0.2751  0.1837
  355MOL0     C48906   2.821   7.380  11.247 -1.0106  0.5287 -0.6827
  355MOL0     C48907   2.805   7.244  11.669 -0.0069  0.3815 -0.2104
  355MOL0     C48908   2.937   7.203  11.699  0.1506 -0.0679 -1.5541
  355MOL0     C48909   2.961   7.109  11.802  0.9029  0.4092 -0.8971
  355MOL0     C48910   2.854   7.056  11.882 -0.6145  0.5528 -0.0001
  355MOL0     O48911   2.872   6.968  11.985  0.3266 -0.0475  0.1443
  355MOL0     C48912   2.999   6.902  11.999 -0.5065 -0.2478  0.0314
  355MOL0     C48913   2.989   6.819  12.121  0.1785 -0.2637 -0.1364
  355MOL0     C48914   2.990   6.903  12.250  0.0026  0.2648  0.9826
  355MOL0     C48915   3.000   6.818  12.376  0.0294  0.4299 -0.4262
  355MOL0     C48916   2.877   6.749  12.412  0.7595 -0.0003  0.2822
  355MOL0     C48917   2.775   6.691  12.414  0.2566  0.3859 -0.7294
  355MOL0     C48918   2.727   7.102  11.859 -0.4472 -0.6094  0.3816
  355MOL0     C48919   2.702   7.187  11.749  0.0971  0.1312  0.3729
  355MOL0     C48920   2.555   7.238  11.746 -0.2683 -0.2876  0.1142
  355MOL0     H48921   2.496   7.326  11.314  0.0187 -0.2840 -0.4079
  355MOL0     H48922   2.473   7.448  11.091 -0.9141  0.6121  0.9175
  355MOL0     H48923   2.729   7.370  10.819  1.1999  1.4902 -3.4679
  355MOL0     H48924   2.845   7.478  10.857  1.0347 -0.0333 -2.2812
  355MOL0     H48925   2.619   7.585  10.706  0.5167  0.9338  0.1654
  355MOL0     H48926   2.781   7.660  10.744  3.0636 -2.4396  4.2126
  355MOL0     H48927   2.884   7.478  10.581 -0.0557  0.7105  1.0730
  355MOL0     H48928   2.714   7.435  10.549 -1.0047  1.0176  0.6244
  355MOL0     H48929   2.678   7.670  10.480  0.2038  0.3127  5.0510
  355MOL0     H48930   2.853   7.700  10.516  1.3822 -0.1654 -0.2321
  355MOL0     H48931   2.760   7.516  10.280  1.9809 -0.2044 -3.3802
  355MOL0     H48932   2.924   7.559  10.347 -0.8905 -0.3146  2.3653
  355MOL0     H48933   2.716   7.756  10.241 -0.3589 -0.1698  1.1427
  355MOL0     H48934   2.886   7.793  10.294  0.9340  0.3683 -2.1518
  355MOL0     H48935   2.831   7.778  10.043 -2.2880 -2.2137 -2.4317
  355MOL0     H48936   2.810   7.607  10.073 -0.5518  1.0542 -2.5405
  355MOL0     H48937   3.066   7.617  10.152  0.5240  0.5858  0.4034
  355MOL0     H48938   3.053   7.671   9.984  0.3734  2.5022 -0.1743
  355MOL0     H48939   2.946   7.962  10.008 -0.5389  0.4290  0.5775
  355MOL0     H48940   3.098   8.193  10.005 -2.5330 -3.2960 -0.2946
  355MOL0     H48941   3.179   8.246  10.149 -0.0635  1.7459 -0.1773
  355MOL0     H48942   2.926   8.325  10.112 -0.7632 -0.1599 -0.4911
  355MOL0     H48943   2.870   8.162  10.143 -1.3619  1.2750  2.3886
  355MOL0     H48944   3.034   8.326  10.331  0.9452 -0.5272 -0.2914
  355MOL0     H48945   2.859   8.315  10.326  1.1517  1.6881  0.5377
  355MOL0     H48946   2.879   8.057  10.400  0.1604  0.2714  0.4952
  355MOL0     H48947   3.051   8.084  10.372 -0.5941 -0.6065 -2.3800
  355MOL0     H48948   3.011   8.372  10.721 -1.8566 -2.4599 -1.4676
  355MOL0     H48949   3.152   8.516  10.832 -2.4565 -1.4440 -0.7882
  355MOL0     H48950   3.324   8.509  10.794 -0.9314  1.0414  1.1278
  355MOL0     H48951   3.269   8.404  10.927  3.8083 -2.1449 -3.0445
  355MOL0     H48952   3.761   8.168  10.520  2.2149 -1.2769 -0.8223
  355MOL0     H48953   3.976   8.161  10.559 -4.3363  3.2367 -2.3026
  355MOL0     H48954   4.112   7.977  10.666 -0.6477  0.8164 -0.0104
  355MOL0     H48955   4.214   8.128  10.629 -0.1598 -0.0508 -1.4510
  355MOL0     H48956   4.375   7.933  10.704 -0.5435 -0.8110 -1.1785
  355MOL0     H48957   4.356   8.067  10.816  1.3692 -1.9486  3.2498
  355MOL0     H48958   4.373   7.813  10.890  0.5188  0.8488  2.1151
  355MOL0     H48959   4.207   7.794  10.830  0.6951 -2.7197  0.6222
  355MOL0     H48960   4.122   7.952  11.003  0.6057 -0.0763  0.5906
  355MOL0     H48961   4.263   8.037  11.021 -1.4940  0.0926 -2.6965
  355MOL0     H48962   4.225   7.749  11.142 -0.0776  0.1224  1.5183
  355MOL0     H48963   4.364   7.862  11.163  0.0512 -0.2270  1.0868
  355MOL0     H48964   4.080   7.921  11.277  0.2405  0.4309  0.3390
  355MOL0     H48965   4.214   8.034  11.234 -1.8870  1.2607 -0.0500
  355MOL0     H48966   4.373   7.897  11.378  0.0152  0.6264 -0.9373
  355MOL0     H48967   4.254   7.789  11.428  2.5964 -0.5303  0.7772
  355MOL0     H48968   4.257   8.078  11.505  1.6861 -0.1901  3.3009
  355MOL0     H48969   4.275   7.947  11.608  1.0323  3.1481 -0.8142
  355MOL0     H48970   3.939   8.142  10.983  3.5273 -1.8281 -1.8088
  355MOL0     H48971   3.677   8.143  10.949  0.9076 -1.3196  0.5657
  355MOL0     H48972   3.361   8.054  10.583 -0.1626  1.2207 -2.5166
  355MOL0     H48973   3.149   8.014  10.532  3.0595 -2.4129  1.6081
  355MOL0     H48974   2.901   7.480  11.086 -1.1220  2.5383  1.0579
  355MOL0     H48975   2.922   7.365  11.284 -0.9545  2.0782 -0.1304
  355MOL0     H48976   3.017   7.218  11.627  4.0215 -0.4007  2.2337
  355MOL0     H48977   3.062   7.086  11.833  0.0468 -0.8297  1.1802
  355MOL0     H48978   3.020   6.840  11.911  1.5554  0.1907  0.1559
  355MOL0     H48979   3.082   6.973  12.010  1.7832 -2.7764  0.3176
  355MOL0     H48980   3.068   6.743  12.115  0.8863  0.4221  0.2065
  355MOL0     H48981   2.893   6.767  12.117 -2.0801  3.3896  1.2343
  355MOL0     H48982   3.072   6.974  12.256 -1.0324  1.4016  2.4982
  355MOL0     H48983   2.895   6.957  12.258  0.4547  1.4204 -0.8783
  355MOL0     H48984   3.021   6.887  12.458 -2.0123  1.1095 -0.4181
  355MOL0     H48985   3.083   6.748  12.365  1.6381  1.9401  1.3860
  355MOL0     H48986   2.683   6.637  12.404 -0.2031  1.3844 -2.2159
  355MOL0     H48987   2.652   7.077  11.933  0.1537 -3.8997  0.0323
  355MOL0     H48988   2.567   7.344  11.723  0.9901 -0.5418 -0.4977
  355MOL0     H48989   2.513   7.204  11.650 -2.3748  2.8010 -0.1863
  355MOL0     H48990   2.487   7.210  11.827 -0.1337  0.1129  0.3649
  356MOL0     O48991  10.564   5.531   9.860 -0.6593  0.3398  0.7885
  356MOL0     C48992  10.669   5.464   9.880  0.1440  0.3187  0.6045
  356MOL0     O48993  10.785   5.515   9.944 -0.8262 -0.7948  0.2947
  356MOL0     C48994  10.778   5.640  10.002  0.0796  0.8189 -0.4227
  356MOL0     C48995  10.798   5.753   9.919 -0.7091  0.0248  0.1138
  356MOL0     C48996  10.812   5.876   9.974 -0.3212 -0.3848  0.5259
  356MOL0     C48997  10.791   5.891  10.112 -0.1206 -0.2692 -0.0063
  356MOL0     O48998  10.816   6.019  10.157 -0.2400  0.7674 -0.0025
  356MOL0     C48999  10.823   6.042  10.300  1.0825  0.7143 -0.5127
  356MOL0     C49000  10.875   6.180  10.316 -0.5562 -0.5453  0.1460
  356MOL0     C49001  11.030   6.193  10.297 -0.4452 -0.0452  0.0257
  356MOL0     C49002  11.074   6.140  10.154  0.3083 -0.3202  0.3845
  356MOL0     C49003  11.217   6.189  10.119 -0.2241  1.1158  0.3624
  356MOL0     C49004  11.323   6.114  10.199  0.4751  0.3762  0.3350
  356MOL0     C49005  11.453   6.114  10.120 -0.2502 -0.1415 -0.7088
  356MOL0     C49006  11.573   6.055  10.186  0.2901  0.2657  0.6553
  356MOL0     N49007  11.569   5.909  10.209  0.4875  0.0283 -0.2126
  356MOL0     C49008  11.507   5.838  10.307 -0.0787  0.2218 -0.8339
  356MOL0     C49009  11.547   5.703  10.294  0.1410  0.0254 -0.5974
  356MOL0     C49010  11.525   5.579  10.379  0.0030 -0.6003 -0.2462
  356MOL0     C49011  11.635   5.478  10.368  0.2594  0.2253  0.8463
  356MOL0     C49012  11.592   5.343  10.425  0.3659  0.4225  0.5056
  356MOL0     C49013  11.568   5.338  10.575  0.5316  0.1652 -0.4926
  356MOL0     O49014  11.537   5.197  10.601  0.0695 -0.0114  0.2652
  356MOL0     C49015  11.414   5.140  10.603  0.4978 -1.0100  0.0575
  356MOL0     C49016  11.403   5.009  10.655 -1.3611 -0.3425 -1.3392
  356MOL0     C49017  11.285   4.941  10.669 -0.4853  0.4809  0.5072
  356MOL0     C49018  11.274   4.806  10.734  0.3370 -0.1996  0.3224
  356MOL0     C49019  11.163   5.004  10.631  0.4271 -1.7729  0.5915
  356MOL0     C49020  11.032   4.946  10.649  0.7906  0.6413 -0.2182
  356MOL0     O49021  11.002   4.833  10.588  0.1751  1.0718  0.3449
  356MOL0     C49022  10.913   4.733  10.634 -0.7288  0.2737  0.6828
  356MOL0     C49023  10.869   4.728  10.768 -1.0484  0.2286  0.4353
  356MOL0     C49024  10.791   4.626  10.811  0.4121  0.7548  0.3049
  356MOL0     C49025  10.757   4.514  10.728 -0.4254  0.0867  0.4426
  356MOL0     O49026  10.681   4.409  10.759  0.2530  0.1763  0.0609
  356MOL0     C49027  10.568   4.427  10.854  0.4076  0.7414 -0.2662
  356MOL0     C49028  10.461   4.326  10.841 -0.2965  0.3743  0.2375
  356MOL0     C49029  10.309   4.357  10.889 -0.1483 -0.9472  0.4131
  356MOL0     C49030  10.239   4.224  10.905  0.1860  0.0165  0.0352
  356MOL0     C49031  10.092   4.253  10.932 -0.1095  0.3416 -0.4579
  356MOL0     C49032  10.081   4.313  11.077  0.2743  0.2243 -0.0788
  356MOL0     C49033   9.953   4.262  11.141  0.4985  0.1337 -0.6848
  356MOL0     C49034   9.833   4.331  11.083  1.0676  0.5276  0.4471
  356MOL0    Cl49035   9.691   4.308  11.197 -0.3241 -0.2472  0.2983
  356MOL0     C49036  10.808   4.518  10.596  0.0640 -0.7060  0.3463
  356MOL0     C49037  10.875   4.631  10.546  0.4033 -0.3466 -0.0171
  356MOL0     O49038  10.954   5.014  10.702  0.1565  0.3816 -0.3998
  356MOL0     C49039  11.170   5.128  10.569  0.2915  0.2692 -0.5301
  356MOL0     C49040  11.295   5.202  10.553 -0.1681  0.0617 -0.1984
  356MOL0     N49041  11.629   5.696  10.193 -0.5381 -0.0389 -0.1008
  356MOL0     N49042  11.631   5.815  10.128  0.1644 -0.3824 -0.5406
  356MOL0     C49043  10.758   5.783  10.193 -0.2396 -0.6151 -0.5582
  356MOL0     C49044  10.747   5.656  10.140 -0.5049  0.4927  0.1982
  356MOL0     C49045  10.664   5.328   9.820  0.3051  0.3996  0.2629
  356MOL0     C49046  10.770   5.242   9.847  0.8035  0.4790  0.2802
  356MOL0     C49047  10.781   5.115   9.780  0.0067 -0.0530 -0.6017
  356MOL0     C49048  10.698   5.078   9.679  0.7708 -0.2158 -0.4986
  356MOL0     O49049  10.716   4.980   9.587 -0.9349  0.0695  0.0925
  356MOL0     C49050  10.789   4.856   9.614  0.0665  0.6873 -0.1110
  356MOL0     C49051  10.929   4.871   9.559  0.3990 -0.9854 -0.6890
  356MOL0     C49052  11.029   4.764   9.601 -0.9979 -0.6157 -0.1420
  356MOL0     C49053  11.164   4.761   9.526 -0.6000  0.0984  0.5433
  356MOL0     C49054  11.157   4.746   9.373 -1.1741 -0.3682 -0.5799
  356MOL0     C49055  11.138   4.732   9.255 -0.1933 -1.3944 -0.3688
  356MOL0     C49056  10.589   5.163   9.654  0.9610  0.0315  0.8566
  356MOL0     C49057  10.565   5.283   9.725  0.5698 -0.0958 -1.0211
  356MOL0     C49058  10.460   5.363   9.669  1.1852 -0.0976 -0.2245
  356MOL0     H49059  10.801   5.729   9.813  0.1432  0.7163 -0.0281
  356MOL0     H49060  10.835   5.959   9.908  0.3280 -2.2057 -1.6976
  356MOL0     H49061  10.878   5.965  10.356 -0.1671  3.4214  5.2783
  356MOL0     H49062  10.725   6.038  10.348  1.4350 -0.4316  0.1376
  356MOL0     H49063  10.818   6.243  10.248 -2.0472 -2.7246 -0.7475
  356MOL0     H49064  10.854   6.215  10.417 -0.1103 -0.0062  0.0580
  356MOL0     H49065  11.045   6.299  10.320 -1.3731  0.0838  0.0437
  356MOL0     H49066  11.093   6.146  10.373  0.2778 -0.0041 -0.5364
  356MOL0     H49067  11.058   6.033  10.144 -5.1936  0.3179 -0.9331
  356MOL0     H49068  10.993   6.174  10.089 -1.8111 -2.7802  1.5318
  356MOL0     H49069  11.220   6.297  10.135 -0.7917  1.2853 -0.6133
  356MOL0     H49070  11.233   6.171  10.012  2.8189  2.1783  0.5353
  356MOL0     H49071  11.330   6.142  10.305  0.4695  1.3351  0.0919
  356MOL0     H49072  11.294   6.010  10.187 -0.9732  0.9395 -1.6087
  356MOL0     H49073  11.482   6.216  10.091  0.4309 -0.5591 -1.5478
  356MOL0     H49074  11.442   6.057  10.027 -0.9376 -2.2376  0.5857
  356MOL0     H49075  11.653   6.074  10.114 -0.4344 -1.6931 -0.7561
  356MOL0     H49076  11.592   6.117  10.274 -0.3132  1.3686  0.0313
  356MOL0     H49077  11.441   5.871  10.387  1.1127 -0.4623  0.4587
  356MOL0     H49078  11.430   5.528  10.360  0.3853 -0.8936 -1.4862
  356MOL0     H49079  11.530   5.612  10.483  4.4767 -2.5610  0.3614
  356MOL0     H49080  11.657   5.463  10.262  0.7260  1.8368  0.6820
  356MOL0     H49081  11.728   5.508  10.419  3.1867  0.5048 -4.0701
  356MOL0     H49082  11.506   5.296  10.376  1.4231  0.0172 -1.0378
  356MOL0     H49083  11.675   5.274  10.407 -0.7123 -0.9912  0.7025
  356MOL0     H49084  11.659   5.375  10.622 -1.6631  3.5695  1.5632
  356MOL0     H49085  11.477   5.398  10.589 -0.3529 -1.1792 -0.3675
  356MOL0     H49086  11.493   4.961  10.692 -1.2031 -0.2124 -1.5514
  356MOL0     H49087  11.224   4.733  10.671  1.3556  0.5527 -1.4168
  356MOL0     H49088  11.208   4.826  10.819  0.4214  2.9509 -0.2094
  356MOL0     H49089  11.375   4.771  10.761  1.2011  1.0316 -1.1377
  356MOL0     H49090  10.908   4.806  10.833  2.3312  1.2379 -2.4939
  356MOL0     H49091  10.746   4.630  10.910 -1.7247 -0.3153 -0.5685
  356MOL0     H49092  10.594   4.435  10.960  1.8273 -1.0135 -0.4457
  356MOL0     H49093  10.517   4.520  10.824  0.4240  0.6758 -0.4994
  356MOL0     H49094  10.464   4.299  10.735 -0.7796  2.2090 -0.2830
  356MOL0     H49095  10.504   4.245  10.901  1.7905 -1.0245 -2.8429
  356MOL0     H49096  10.247   4.427  10.832  0.6485 -0.1718  0.4737
  356MOL0     H49097  10.309   4.402  10.989 -2.3163 -1.6847  0.7985
  356MOL0     H49098  10.274   4.157  10.984 -2.3334 -0.1490  1.1132
  356MOL0     H49099  10.245   4.176  10.807 -0.3208 -1.0679  0.5186
  356MOL0     H49100  10.061   4.325  10.857 -1.5632  0.7331  0.4769
  356MOL0     H49101  10.030   4.163  10.919  0.6918 -0.0157 -2.1433
  356MOL0     H49102  10.091   4.422  11.071  2.4158  0.2969  2.8196
  356MOL0     H49103  10.162   4.279  11.141 -1.3041  1.4540  2.7654
  356MOL0     H49104   9.958   4.290  11.246  3.2253  2.4874 -1.3016
  356MOL0     H49105   9.940   4.154  11.137  2.8175 -0.2018 -0.4753
  356MOL0     H49106   9.815   4.272  10.993 -1.7767  2.3429 -0.2930
  356MOL0     H49107   9.853   4.434  11.051 -1.5834  0.6837 -1.0250
  356MOL0     H49108  10.781   4.437  10.528 -0.9531 -2.3937  2.6314
  356MOL0     H49109  10.901   4.641  10.441  0.2463 -1.1089 -0.1319
  356MOL0     H49110  11.071   5.161  10.538  1.1632  1.5670 -2.1354
  356MOL0     H49111  11.302   5.295  10.497  1.0526 -0.7151 -1.4117
  356MOL0     H49112  10.724   5.802  10.294 -1.9376  1.3055 -1.4107
  356MOL0     H49113  10.722   5.575  10.208 -0.0180  2.5310  3.0261
  356MOL0     H49114  10.836   5.271   9.928  2.3331 -0.0442 -0.7279
  356MOL0     H49115  10.869   5.059   9.811  0.8121  1.6707  0.3761
  356MOL0     H49116  10.786   4.819   9.716 -2.4337  1.0628  0.0037
  356MOL0     H49117  10.739   4.780   9.553  0.8164 -0.6821  0.9294
  356MOL0     H49118  10.977   4.965   9.589  0.1561 -0.7018 -1.1800
  356MOL0     H49119  10.911   4.879   9.452 -1.1959  1.1379 -0.3399
  356MOL0     H49120  11.065   4.790   9.701  1.9292 -0.7142 -1.0834
  356MOL0     H49121  10.985   4.664   9.604 -1.1716 -0.5208  2.6631
  356MOL0     H49122  11.228   4.684   9.571 -0.5795 -0.5612 -0.5900
  356MOL0     H49123  11.212   4.858   9.546  1.3835 -1.2871  3.2803
  356MOL0     H49124  11.139   4.739   9.148  2.2024  0.8815 -0.3161
  356MOL0     H49125  10.547   5.148   9.555  1.4923 -1.8544  0.8875
  356MOL0     H49126  10.386   5.311   9.608  2.7218 -1.0434 -1.3546
  356MOL0     H49127  10.401   5.414   9.746  0.7792 -0.1354 -0.5096
  356MOL0     H49128  10.505   5.439   9.605 -3.2138  1.5965 -1.6800
  357MOL0     O49129   4.877   7.610   7.161  1.0457  0.2061 -0.5579
  357MOL0     C49130   4.788   7.553   7.087  0.0211 -0.5673 -0.6814
  357MOL0     O49131   4.809   7.431   7.016  0.1253 -0.6875 -0.3918
  357MOL0     C49132   4.915   7.349   7.055 -0.7473 -1.0162  0.3118
  357MOL0     C49133   4.903   7.297   7.179 -0.4467  0.0255  0.0789
  357MOL0     C49134   4.996   7.204   7.234 -0.8519  0.0785  0.1811
  357MOL0     C49135   5.113   7.172   7.155  0.7179 -0.3317 -0.5336
  357MOL0     O49136   5.193   7.092   7.225 -0.2412  0.0354  0.3331
  357MOL0     C49137   5.328   7.089   7.183  0.2965  0.4409  0.5173
  357MOL0     C49138   5.402   7.207   7.231  0.8257 -0.5719  0.2916
  357MOL0     C49139   5.391   7.235   7.386 -0.5342 -0.0101  0.8163
  357MOL0     C49140   5.502   7.144   7.449  0.1433 -0.3923 -0.1928
  357MOL0     C49141   5.520   7.177   7.601 -0.0344 -1.2257 -0.1091
  357MOL0     C49142   5.581   7.323   7.632 -0.4497  0.0570 -0.5717
  357MOL0     C49143   5.723   7.352   7.558  0.0154  0.9001  0.1436
  357MOL0     C49144   5.805   7.474   7.616  0.1562 -0.1388 -0.1850
  357MOL0     N49145   5.853   7.460   7.761  0.1238 -0.6969 -0.1781
  357MOL0     C49146   5.927   7.354   7.809  0.1166 -1.2214 -0.0828
  357MOL0     C49147   5.935   7.376   7.943  0.5899 -0.3422 -0.5539
  357MOL0     C49148   5.977   7.282   8.055 -0.4018 -0.4238  0.0201
  357MOL0     C49149   6.107   7.305   8.109 -0.1257  0.0910 -0.0172
  357MOL0     C49150   6.150   7.220   8.230  0.1562 -1.1376  0.6306
  357MOL0     C49151   6.205   7.080   8.195 -0.5308  0.5135  0.2412
  357MOL0     O49152   6.262   7.016   8.312 -0.3088  0.0384 -0.4192
  357MOL0     C49153   6.179   6.957   8.400  0.6581 -0.4546  0.2561
  357MOL0     C49154   6.227   6.921   8.527  0.5999  0.4768 -0.6838
  357MOL0     C49155   6.152   6.853   8.626 -0.4067  0.2794 -0.2318
  357MOL0     C49156   6.221   6.817   8.754  0.6240 -0.4916  0.3415
  357MOL0     C49157   6.017   6.832   8.597 -0.2762  0.0856 -0.0466
  357MOL0     C49158   5.927   6.741   8.680 -0.2172 -0.2621  0.7891
  357MOL0     O49159   5.967   6.715   8.814  0.5119  0.4897  0.2769
  357MOL0     C49160   5.878   6.653   8.897  0.0186  0.2855  0.6105
  357MOL0     C49161   5.926   6.542   8.967 -0.1706 -0.6344  1.1259
  357MOL0     C49162   5.839   6.478   9.055  0.4660 -0.3560  0.7087
  357MOL0     C49163   5.701   6.512   9.069  0.2494 -0.2417  0.4286
  357MOL0     O49164   5.625   6.434   9.161 -0.6087 -0.1587 -0.5373
  357MOL0     C49165   5.489   6.478   9.189  0.2985  0.2650 -0.8250
  357MOL0     C49166   5.447   6.411   9.318 -0.4834  0.4091  0.5050
  357MOL0     C49167   5.455   6.261   9.296  0.9147  0.4002 -0.2498
  357MOL0     C49168   5.377   6.187   9.404  0.4197  0.3533 -1.2063
  357MOL0     C49169   5.431   6.217   9.555  0.3432 -0.1391 -0.1864
  357MOL0     C49170   5.342   6.173   9.668 -0.3749 -0.5609  0.2965
  357MOL0     C49171   5.193   6.194   9.639  0.5920 -0.1650 -0.8965
  357MOL0     C49172   5.109   6.169   9.765  0.1505  0.1543  0.5501
  357MOL0    Cl49173   5.159   6.286   9.882  0.2116 -0.4115  0.1522
  357MOL0     C49174   5.649   6.622   8.989  0.3273  0.2085 -0.0640
  357MOL0     C49175   5.747   6.691   8.904  0.4689 -1.1983 -0.5353
  357MOL0     O49176   5.835   6.678   8.616  0.4610  0.1176 -0.0111
  357MOL0     C49177   5.964   6.860   8.468 -0.7974 -0.1850 -0.5567
  357MOL0     C49178   6.040   6.932   8.380 -0.3908  0.0169  0.4102
  357MOL0     N49179   5.859   7.491   7.974 -0.0350 -0.6723  0.9683
  357MOL0     N49180   5.823   7.551   7.863 -0.7415  0.1866  0.3895
  357MOL0     C49181   5.120   7.220   7.018  0.9345  0.0417 -0.8945
  357MOL0     C49182   5.023   7.311   6.971 -0.4976  0.7280  0.5243
  357MOL0     C49183   4.653   7.611   7.066 -0.1117  0.5658  0.0440
  357MOL0     C49184   4.618   7.634   6.933  0.2396 -0.2001  0.1953
  357MOL0     C49185   4.497   7.707   6.900  0.3253  0.1984 -0.6050
  357MOL0     C49186   4.410   7.742   7.007  0.2477  0.4609  0.6154
  357MOL0     O49187   4.292   7.801   6.960  1.2481  0.6687  0.3771
  357MOL0     C49188   4.191   7.836   7.056  0.3654  0.1362 -0.0971
  357MOL0     C49189   4.067   7.895   7.003  0.7155 -1.2325  0.1242
  357MOL0     C49190   3.967   7.922   7.125 -0.5672 -0.0176  0.0366
  357MOL0     C49191   3.840   8.009   7.089  0.2632 -0.5317 -0.2917
  357MOL0     C49192   3.769   8.064   7.210  0.0560  0.3643 -0.3260
  357MOL0     C49193   3.714   8.099   7.312 -0.9031 -0.5009 -0.2477
  357MOL0     C49194   4.443   7.709   7.138 -0.2359 -1.0152  0.1466
  357MOL0     C49195   4.570   7.659   7.170 -0.0394 -1.8661  0.0431
  357MOL0     C49196   4.619   7.642   7.313  0.4125  0.1617  0.2910
  357MOL0     H49197   4.821   7.334   7.240  1.2920  2.0790  1.2700
  357MOL0     H49198   4.984   7.180   7.339 -0.2746  1.9065  0.7025
  357MOL0     H49199   5.344   7.056   7.080 -3.6486  2.2683 -0.9022
  357MOL0     H49200   5.355   7.003   7.244 -0.5993 -0.8125 -0.8066
  357MOL0     H49201   5.509   7.197   7.211  1.5999  1.6402  2.6453
  357MOL0     H49202   5.373   7.298   7.177 -2.2311 -0.4988  1.8320
  357MOL0     H49203   5.409   7.342   7.397 -0.6239  0.1160 -0.1640
  357MOL0     H49204   5.293   7.223   7.433 -0.2984 -0.1379  1.2849
  357MOL0     H49205   5.480   7.039   7.428  1.0053  0.1521 -5.1410
  357MOL0     H49206   5.593   7.155   7.389 -0.7769 -3.2830 -2.3615
  357MOL0     H49207   5.595   7.108   7.638  0.7260  0.0460  0.8005
  357MOL0     H49208   5.421   7.168   7.647 -1.2798  3.8448 -1.1544
  357MOL0     H49209   5.508   7.398   7.602 -3.0687 -1.7875  0.8054
  357MOL0     H49210   5.600   7.324   7.740  0.7764  2.1132 -0.7610
  357MOL0     H49211   5.692   7.379   7.457 -2.2373 -0.8355  0.2808
  357MOL0     H49212   5.781   7.260   7.563 -1.8565 -0.2781  3.2089
  357MOL0     H49213   5.883   7.511   7.549 -1.1611  0.2639 -1.5517
  357MOL0     H49214   5.729   7.553   7.621  0.9120  0.5580  0.7119
  357MOL0     H49215   5.967   7.278   7.743 -0.4937  1.0163 -3.2368
  357MOL0     H49216   5.993   7.183   8.012  1.1870  0.9068 -2.6875
  357MOL0     H49217   5.903   7.271   8.136 -2.6598 -5.7213 -2.2698
  357MOL0     H49218   6.179   7.310   8.027 -0.9653 -1.5531 -0.8987
  357MOL0     H49219   6.107   7.403   8.157 -0.3920  0.0028  0.1640
  357MOL0     H49220   6.232   7.271   8.280  3.6560 -2.9537 -2.6821
  357MOL0     H49221   6.070   7.201   8.302 -2.8014 -1.3506 -2.4267
  357MOL0     H49222   6.139   7.018   8.134  0.0978  1.2191 -1.2070
  357MOL0     H49223   6.285   7.101   8.123 -3.7009  3.6556 -2.7554
  357MOL0     H49224   6.330   6.941   8.552  0.2549  3.2994 -1.1251
  357MOL0     H49225   6.169   6.850   8.845  0.4292  2.3866 -0.7137
  357MOL0     H49226   6.325   6.849   8.758  1.1992 -2.1433 -0.6418
  357MOL0     H49227   6.234   6.709   8.763 -2.1144 -1.1175 -1.7925
  357MOL0     H49228   6.032   6.517   8.976  0.7288  1.4593 -1.9744
  357MOL0     H49229   5.879   6.389   9.101  0.0818 -0.5016  0.7624
  357MOL0     H49230   5.471   6.586   9.192  0.7275  0.3812  3.9969
  357MOL0     H49231   5.423   6.448   9.107 -1.0087  1.4973 -0.2592
  357MOL0     H49232   5.511   6.438   9.401  1.3364 -0.7019 -0.4784
  357MOL0     H49233   5.352   6.449   9.358 -0.1318  1.1901  0.6239
  357MOL0     H49234   5.557   6.222   9.306  0.1616 -1.4738  0.7244
  357MOL0     H49235   5.414   6.238   9.197 -0.3380  1.7000 -0.0612
  357MOL0     H49236   5.374   6.077   9.397 -0.2894  0.3086 -0.4029
  357MOL0     H49237   5.271   6.213   9.399  0.0854 -0.5288  0.4387
  357MOL0     H49238   5.529   6.170   9.570  0.0490 -1.8567 -2.9237
  357MOL0     H49239   5.445   6.325   9.559  0.1945  0.1693 -4.1199
  357MOL0     H49240   5.386   6.229   9.750 -2.0126  2.7444 -0.8997
  357MOL0     H49241   5.369   6.071   9.695  1.0258 -0.4496 -0.5570
  357MOL0     H49242   5.157   6.131   9.558  2.1807  1.6129 -3.1338
  357MOL0     H49243   5.177   6.297   9.604 -2.0059  0.1386  0.8969
  357MOL0     H49244   5.134   6.066   9.790  2.4001  0.2346 -1.0729
  357MOL0     H49245   5.004   6.185   9.738  0.4965  0.0226 -0.9856
  357MOL0     H49246   5.543   6.644   8.987 -0.0573 -1.3876  1.3144
  357MOL0     H49247   5.706   6.774   8.849 -1.7939 -0.4543  2.0557
  357MOL0     H49248   5.864   6.833   8.437 -0.1428  0.5485 -3.5999
  357MOL0     H49249   5.995   6.945   8.282  0.8360 -0.7354 -0.2688
  357MOL0     H49250   5.219   7.223   6.974  0.9020  2.0846 -0.9038
  357MOL0     H49251   5.046   7.361   6.877  0.2641  0.6976  0.6887
  357MOL0     H49252   4.688   7.596   6.859  1.9371 -0.1748  1.7016
  357MOL0     H49253   4.482   7.735   6.796  0.0386  0.5571 -0.4678
  357MOL0     H49254   4.174   7.740   7.107  1.0303 -1.6360 -2.9980
  357MOL0     H49255   4.234   7.912   7.122  1.3529  0.4913 -1.1125
  357MOL0     H49256   4.007   7.823   6.946  1.9575 -1.6137 -0.7412
  357MOL0     H49257   4.090   7.990   6.955  1.1157 -0.6144  1.4800
  357MOL0     H49258   3.938   7.820   7.152 -0.3528 -0.4472 -1.2743
  357MOL0     H49259   4.020   7.971   7.207  1.2323  1.3214 -1.8231
  357MOL0     H49260   3.773   7.944   7.031  0.6519 -0.2638 -1.0515
  357MOL0     H49261   3.868   8.092   7.025 -2.9782  1.8979  1.1041
  357MOL0     H49262   3.667   8.133   7.402 -0.1238 -1.4701  0.5546
  357MOL0     H49263   4.379   7.737   7.221  0.1649  2.8840 -0.6392
  357MOL0     H49264   4.715   7.691   7.335  1.6598 -1.7481 -0.5917
  357MOL0     H49265   4.538   7.674   7.380  0.5913 -1.1643  1.1697
  357MOL0     H49266   4.632   7.535   7.327 -1.2159 -0.4944 -2.5815
  358MOL0     O49267   2.887   5.783  11.177  0.0917 -0.5067  0.0175
  358MOL0     C49268   2.839   5.854  11.085  0.0166  0.0001  0.2370
  358MOL0     O49269   2.865   5.846  10.954  0.4452 -0.0980 -0.1915
  358MOL0     C49270   2.991   5.791  10.918 -0.5982 -0.2531 -0.6208
  358MOL0     C49271   3.010   5.683  10.828 -0.2823 -0.1055  0.3524
  358MOL0     C49272   3.136   5.643  10.793 -0.5991  0.3111 -0.5405
  358MOL0     C49273   3.248   5.698  10.853  0.3741 -0.9014 -0.0942
  358MOL0     O49274   3.376   5.663  10.805 -0.1041 -0.2115  0.0902
  358MOL0     C49275   3.462   5.617  10.913  0.2319 -0.5271  0.6450
  358MOL0     C49276   3.586   5.551  10.856  0.4591  0.7777 -0.6131
  358MOL0     C49277   3.655   5.648  10.749  0.2505 -0.0468 -0.7068
  358MOL0     C49278   3.804   5.679  10.782  0.3018 -0.0723  0.3692
  358MOL0     C49279   3.871   5.762  10.666  0.1689 -0.3565 -0.0352
  358MOL0     C49280   3.828   5.908  10.662 -0.5124  0.2697  0.5774
  358MOL0     C49281   3.925   5.981  10.561  0.2985 -0.4473 -0.1727
  358MOL0     C49282   3.865   6.007  10.422  0.0448  0.0669 -0.3352
  358MOL0     N49283   3.851   5.885  10.352  0.8155  0.3931  0.0116
  358MOL0     C49284   3.946   5.827  10.268  0.5065 -0.5917 -0.2760
  358MOL0     C49285   3.895   5.721  10.213  0.3227  1.5680  0.3712
  358MOL0     C49286   3.954   5.624  10.111  0.1542  0.1466 -0.8805
  358MOL0     C49287   4.004   5.482  10.148  0.4765 -0.6647 -0.5261
  358MOL0     C49288   3.900   5.395  10.226  0.5499  0.2074  0.4382
  358MOL0     C49289   3.955   5.265  10.308  0.3223  0.0268 -0.7630
  358MOL0     O49290   4.023   5.323  10.416 -0.2177 -0.3364 -0.3862
  358MOL0     C49291   4.065   5.250  10.522  0.1417  0.8785 -0.0363
  358MOL0     C49292   4.078   5.319  10.645  0.2610 -0.0197 -0.0870
  358MOL0     C49293   4.122   5.266  10.767 -1.1322 -0.5284  0.6941
  358MOL0     C49294   4.163   5.354  10.888  0.2418 -0.4267  0.1087
  358MOL0     C49295   4.160   5.126  10.762  0.1388 -0.2843  1.0161
  358MOL0     C49296   4.217   5.049  10.875  0.8585 -0.0252 -0.0214
  358MOL0     O49297   4.228   5.109  10.992 -0.1709 -0.7474  0.0217
  358MOL0     C49298   4.277   5.041  11.110 -0.0696 -0.4110 -0.0752
  358MOL0     C49299   4.215   5.087  11.225 -1.1490 -0.3370 -0.9239
  358MOL0     C49300   4.271   5.041  11.348  0.0354 -0.9923 -0.6134
  358MOL0     C49301   4.366   4.939  11.355 -0.3553  0.6017 -0.5273
  358MOL0     O49302   4.387   4.888  11.483 -0.3774  0.5356  0.0450
  358MOL0     C49303   4.419   4.748  11.492  0.2713  0.1794 -0.6894
  358MOL0     C49304   4.399   4.701  11.635 -0.4187 -0.5271 -0.9163
  358MOL0     C49305   4.250   4.712  11.662  0.4700 -0.0718 -0.5245
  358MOL0     C49306   4.199   4.624  11.783 -0.6626  0.2241  0.0140
  358MOL0     C49307   4.049   4.661  11.838 -1.1164 -0.1596 -0.8656
  358MOL0     C49308   3.935   4.608  11.753 -0.8802  0.5069  0.6677
  358MOL0     C49309   3.813   4.562  11.824 -0.4236 -0.1184 -0.7223
  358MOL0     C49310   3.710   4.512  11.730 -0.2724  0.0169  0.3412
  358MOL0    Cl49311   3.570   4.460  11.823  0.0170 -0.4443 -0.1660
  358MOL0     C49312   4.429   4.895  11.233  0.1276  0.1035 -0.9683
  358MOL0     C49313   4.387   4.958  11.110 -0.0811  0.5357 -0.0173
  358MOL0     O49314   4.268   4.943  10.849 -0.5719 -0.1340  0.5960
  358MOL0     C49315   4.135   5.053  10.643 -0.0987  0.7183  0.6848
  358MOL0     C49316   4.090   5.112  10.522  0.8557 -0.7474 -0.1249
  358MOL0     N49317   3.755   5.719  10.244  0.0057  0.5223 -0.2447
  358MOL0     N49318   3.727   5.816  10.323  0.3090 -0.1265 -0.2864
  358MOL0     C49319   3.228   5.813  10.932 -0.1502 -0.6917 -0.9351
  358MOL0     C49320   3.102   5.854  10.974 -0.4800 -0.7045 -0.2101
  358MOL0     C49321   2.737   5.944  11.140 -0.0940  1.2533  0.2890
  358MOL0     C49322   2.711   6.060  11.067  0.7075 -0.0010  0.0774
  358MOL0     C49323   2.609   6.148  11.112  0.3153  0.2613 -0.0330
  358MOL0     C49324   2.527   6.116  11.225  0.1429 -1.0176  1.4655
  358MOL0     O49325   2.405   6.182  11.251  0.1476  0.0115 -0.0619
  358MOL0     C49326   2.298   6.153  11.158 -0.5241 -0.5417  0.0122
  358MOL0     C49327   2.249   6.008  11.186  1.0075  0.0345  0.1161
  358MOL0     C49328   2.182   5.979  11.320 -0.4123  0.0448  0.2799
  358MOL0     C49329   2.079   6.069  11.370  0.2483 -0.1665 -0.0905
  358MOL0     C49330   1.970   6.083  11.280  0.5595  0.1169 -0.1941
  358MOL0     C49331   1.867   6.110  11.225 -0.4452  1.0341  0.5800
  358MOL0     C49332   2.559   6.000  11.285  0.0919  0.2618 -0.2154
  358MOL0     C49333   2.659   5.909  11.256 -0.2143 -0.1226  1.0082
  358MOL0     C49334   2.654   5.787  11.342  0.1255 -1.1722 -0.8346
  358MOL0     H49335   2.922   5.625  10.799 -0.6049 -0.0224  1.1477
  358MOL0     H49336   3.141   5.557  10.727  0.0048 -0.2647  0.2359
  358MOL0     H49337   3.403   5.545  10.971 -3.3575  1.2862 -0.4827
  358MOL0     H49338   3.497   5.698  10.977 -0.1101 -1.1722  1.6626
  358MOL0     H49339   3.652   5.509  10.932  0.5548 -3.0729 -2.5791
  358MOL0     H49340   3.555   5.458  10.808 -1.3453  0.1763  1.5554
  358MOL0     H49341   3.636   5.615  10.647 -0.7985  1.0256 -0.8777
  358MOL0     H49342   3.602   5.743  10.757 -2.1400 -1.4051  0.8867
  358MOL0     H49343   3.806   5.731  10.879 -0.2882 -1.8687  1.3877
  358MOL0     H49344   3.848   5.579  10.795 -1.1613 -0.9577 -1.1405
  358MOL0     H49345   3.862   5.707  10.571  1.9817  0.1266 -0.5315
  358MOL0     H49346   3.979   5.764  10.679  0.1845  3.2793  0.2642
  358MOL0     H49347   3.722   5.924  10.639 -0.7293 -0.6739  0.8663
  358MOL0     H49348   3.851   5.959  10.756  1.4799  3.2145 -1.3326
  358MOL0     H49349   4.018   5.924  10.550  0.4060 -0.4209  0.5289
  358MOL0     H49350   3.953   6.077  10.606 -2.6511  0.5408 -0.2294
  358MOL0     H49351   3.767   6.053  10.437  1.0033  2.6167 -1.3465
  358MOL0     H49352   3.923   6.087  10.374 -0.7299  1.9588  1.7110
  358MOL0     H49353   4.047   5.868  10.265 -0.6774  2.6213 -0.3799
  358MOL0     H49354   4.040   5.670  10.061 -1.8911 -0.2312 -5.1429
  358MOL0     H49355   3.878   5.602  10.036 -1.1221  0.0327  0.3949
  358MOL0     H49356   4.038   5.428  10.059 -1.7059  0.4321 -2.1187
  358MOL0     H49357   4.094   5.496  10.209  0.0746 -5.0231  1.5191
  358MOL0     H49358   3.835   5.465  10.280 -0.0624 -0.2174  0.2643
  358MOL0     H49359   3.847   5.354  10.139  1.4593 -0.2518  0.0899
  358MOL0     H49360   3.870   5.203  10.335  0.8935 -0.7507 -0.7214
  358MOL0     H49361   4.018   5.196  10.252 -0.4219 -3.2344  2.0377
  358MOL0     H49362   4.080   5.427  10.639  0.0524  0.1092  1.7119
  358MOL0     H49363   4.130   5.456  10.867 -3.6572 -1.9739 -2.6139
  358MOL0     H49364   4.271   5.358  10.904 -0.0770  0.4992  2.3418
  358MOL0     H49365   4.108   5.333  10.980 -0.7128  2.2205  0.2118
  358MOL0     H49366   4.138   5.163  11.221 -0.1832  0.7965  0.7766
  358MOL0     H49367   4.229   5.070  11.444  4.4825 -0.7610  1.5463
  358MOL0     H49368   4.358   4.686  11.425  0.0744 -2.3094  1.6318
  358MOL0     H49369   4.522   4.742  11.455  0.1665 -1.5699 -0.7710
  358MOL0     H49370   4.430   4.598  11.654 -1.2197 -0.7169 -0.5859
  358MOL0     H49371   4.457   4.760  11.707  0.3863  1.9506 -3.4491
  358MOL0     H49372   4.180   4.687  11.582 -1.9635  1.0601  1.1374
  358MOL0     H49373   4.228   4.817  11.682 -1.8535 -1.0598  2.8979
  358MOL0     H49374   4.278   4.632  11.859  0.9658 -1.4028 -1.4193
  358MOL0     H49375   4.202   4.519  11.754 -0.0365  0.0561  0.6496
  358MOL0     H49376   4.026   4.630  11.940 -0.2783  2.0605  0.0737
  358MOL0     H49377   4.044   4.771  11.836  0.6089 -0.0270  0.1489
  358MOL0     H49378   3.958   4.523  11.688 -1.2216 -0.4809  1.7814
  358MOL0     H49379   3.904   4.685  11.683  0.2015 -1.4603 -2.1472
  358MOL0     H49380   3.778   4.640  11.892  1.4298  1.2981 -1.3254
  358MOL0     H49381   3.835   4.471  11.880 -2.6874 -3.0093 -4.0126
  358MOL0     H49382   3.747   4.424  11.677  2.9025 -0.4297  2.9892
  358MOL0     H49383   3.677   4.595  11.666 -0.3272 -0.4444 -0.2434
  358MOL0     H49384   4.517   4.832  11.236  1.4161  1.8548  1.7672
  358MOL0     H49385   4.426   4.928  11.013 -3.0155 -0.3777 -1.0217
  358MOL0     H49386   4.146   4.945  10.637  2.2234  0.9983 -1.9177
  358MOL0     H49387   4.072   5.056  10.430  1.2752  1.6059 -1.7380
  358MOL0     H49388   3.318   5.863  10.966 -0.6185 -1.8027  2.2869
  358MOL0     H49389   3.091   5.940  11.038  0.6392 -2.4590  2.5011
  358MOL0     H49390   2.730   6.070  10.961 -2.8410  0.6062 -0.6373
  358MOL0     H49391   2.576   6.227  11.046  0.9692 -0.1808 -0.9161
  358MOL0     H49392   2.219   6.225  11.181 -2.3279 -2.7275  1.0737
  358MOL0     H49393   2.337   6.154  11.055 -0.2904 -2.4485  0.0491
  358MOL0     H49394   2.328   5.938  11.159 -0.5999 -2.0690  0.5528
  358MOL0     H49395   2.187   5.972  11.104  0.9274 -1.7727  0.9100
  358MOL0     H49396   2.138   5.879  11.321 -1.6313  0.5526 -0.3072
  358MOL0     H49397   2.256   5.972  11.401  0.7012 -2.2979 -0.8274
  358MOL0     H49398   2.114   6.171  11.387 -0.0419  0.1684 -1.4068
  358MOL0     H49399   2.041   6.023  11.462 -0.8224  2.2778  0.7602
  358MOL0     H49400   1.786   6.144  11.164  0.9942 -1.2615 -2.9935
  358MOL0     H49401   2.496   5.988  11.373  0.5698 -2.8614 -0.1852
  358MOL0     H49402   2.749   5.783  11.397 -0.5657  0.6974  0.6063
  358MOL0     H49403   2.563   5.793  11.402  0.5522  1.2611 -0.3159
  358MOL0     H49404   2.645   5.702  11.274 -1.3256  1.6102 -4.4523
  359MOL0     O49405   2.998   5.239   7.494 -0.0955 -0.8612  0.2196
  359MOL0     C49406   3.044   5.156   7.560 -0.5303  1.0726 -0.2725
  359MOL0     O49407   3.162   5.169   7.633  0.0708  0.3015  0.4798
  359MOL0     C49408   3.240   5.289   7.613 -0.2784  0.6469 -0.7093
  359MOL0     C49409   3.304   5.334   7.733  0.5200  0.5439 -0.2029
  359MOL0     C49410   3.353   5.459   7.743 -0.1081  0.0091 -0.4587
  359MOL0     C49411   3.373   5.536   7.630 -0.1624  0.5867  0.8921
  359MOL0     O49412   3.451   5.644   7.627 -0.5767  0.1851 -0.3111
  359MOL0     C49413   3.386   5.769   7.586 -0.2739 -0.3329 -0.1641
  359MOL0     C49414   3.449   5.886   7.665 -0.0793 -0.0423  0.6374
  359MOL0     C49415   3.430   5.896   7.814 -0.4674  0.4354  0.1630
  359MOL0     C49416   3.285   5.928   7.865  0.3574 -0.1798  0.2565
  359MOL0     C49417   3.268   5.957   8.018 -0.4749  0.2870 -0.0773
  359MOL0     C49418   3.304   5.826   8.092  0.1796  0.1010  0.4338
  359MOL0     C49419   3.246   5.818   8.238 -0.0563 -0.0604 -0.1884
  359MOL0     C49420   3.096   5.863   8.266  0.4671 -0.6445  0.1526
  359MOL0     N49421   3.064   5.863   8.407  0.5582 -0.3113  0.0249
  359MOL0     C49422   3.060   5.752   8.488  0.4227 -0.6344 -0.2249
  359MOL0     C49423   3.009   5.791   8.602  0.7272 -0.7350  0.3078
  359MOL0     C49424   2.976   5.721   8.722 -0.4100  0.6635 -0.6871
  359MOL0     C49425   3.024   5.795   8.847  0.3728 -1.1431  0.2599
  359MOL0     C49426   3.166   5.861   8.848  0.5251  0.6142 -0.7102
  359MOL0     C49427   3.277   5.758   8.843 -0.4123  0.7568 -0.5376
  359MOL0     O49428   3.244   5.650   8.932  0.3308  0.3313 -0.7912
  359MOL0     C49429   3.329   5.541   8.937 -0.3404 -0.0040 -0.4532
  359MOL0     C49430   3.468   5.547   8.911  0.7533  0.7489 -0.3825
  359MOL0     C49431   3.555   5.428   8.923 -0.0989  0.4732 -0.5727
  359MOL0     C49432   3.699   5.439   8.891 -0.1917  0.0919 -0.1369
  359MOL0     C49433   3.493   5.307   8.961  0.5336  0.5174  0.1611
  359MOL0     C49434   3.566   5.182   8.995  0.6230  0.1553  0.6496
  359MOL0     O49435   3.496   5.064   8.981  0.7435  0.8029 -0.8182
  359MOL0     C49436   3.527   4.971   9.074 -0.1010  0.5887  0.3820
  359MOL0     C49437   3.537   4.837   9.025  0.1372 -1.0343 -0.0202
  359MOL0     C49438   3.576   4.731   9.109  1.3216 -1.0658  0.3795
  359MOL0     C49439   3.599   4.750   9.243 -0.5944 -0.5448  0.8412
  359MOL0     O49440   3.643   4.655   9.335 -0.8348  0.8053  0.0279
  359MOL0     C49441   3.634   4.523   9.302 -0.5690 -0.5721  0.0132
  359MOL0     C49442   3.666   4.437   9.423 -0.0081  0.7311  0.0864
  359MOL0     C49443   3.648   4.287   9.399 -1.1335 -0.4461 -0.1676
  359MOL0     C49444   3.759   4.218   9.308  0.2445 -0.1680 -0.8193
  359MOL0     C49445   3.740   4.068   9.297  0.6592  0.0349 -0.3330
  359MOL0     C49446   3.856   4.004   9.229  0.5252 -0.9960  0.6452
  359MOL0     C49447   3.842   3.860   9.200 -0.4009  0.6249  1.3282
  359MOL0     C49448   3.979   3.795   9.209 -1.4693 -0.1291  0.0305
  359MOL0    Cl49449   4.034   3.765   9.372 -0.3180  0.2949  0.0581
  359MOL0     C49450   3.595   4.886   9.289 -0.4195 -0.3787 -0.3477
  359MOL0     C49451   3.565   4.986   9.203  0.5427 -0.6370  0.1748
  359MOL0     O49452   3.673   5.197   9.055 -0.1490  0.2761 -0.7303
  359MOL0     C49453   3.354   5.304   8.978  0.3542  0.2798  0.2254
  359MOL0     C49454   3.277   5.419   8.972  0.1567  0.2877 -0.9837
  359MOL0     N49455   2.965   5.920   8.587  0.2579 -0.4185  0.9119
  359MOL0     N49456   3.009   5.974   8.471 -0.1727  0.2363 -0.1942
  359MOL0     C49457   3.347   5.480   7.506  0.1382 -0.0086  0.2828
  359MOL0     C49458   3.269   5.363   7.502  0.1015  1.4032  1.1111
  359MOL0     C49459   2.951   5.037   7.588 -1.0597  0.2712 -0.1132
  359MOL0     C49460   2.978   4.960   7.702 -1.3085  0.4820  0.4014
  359MOL0     C49461   2.912   4.840   7.734 -0.1888  0.4297  0.3741
  359MOL0     C49462   2.797   4.804   7.661  0.8433  0.3966 -0.3617
  359MOL0     O49463   2.735   4.682   7.688 -0.1496  0.6217 -0.1345
  359MOL0     C49464   2.597   4.664   7.658  0.0318  0.7081 -0.0749
  359MOL0     C49465   2.565   4.526   7.581 -0.0315 -0.0715 -1.3169
  359MOL0     C49466   2.415   4.526   7.549 -0.3039  0.3837 -0.4084
  359MOL0     C49467   2.388   4.385   7.486 -0.1472 -0.4375 -0.1921
  359MOL0     C49468   2.435   4.372   7.343 -0.5836  0.1977  0.2056
  359MOL0     C49469   2.475   4.381   7.222  0.0259 -0.0422  0.1241
  359MOL0     C49470   2.762   4.897   7.564  0.0296 -0.2186  0.1273
  359MOL0     C49471   2.833   5.006   7.528 -0.1670  0.2086 -0.1359
  359MOL0     C49472   2.770   5.063   7.400  0.4267  0.4541 -0.3153
  359MOL0     H49473   3.285   5.268   7.817 -2.3873  2.2506  0.6305
  359MOL0     H49474   3.394   5.506   7.831  0.9171  2.6243 -2.2160
  359MOL0     H49475   3.282   5.770   7.619 -0.4371 -0.4170 -0.6668
  359MOL0     H49476   3.395   5.791   7.479  2.7555  0.0568  0.0833
  359MOL0     H49477   3.557   5.875   7.645  0.4549  2.0408  2.0941
  359MOL0     H49478   3.409   5.979   7.624  0.7922  0.0348 -0.0845
  359MOL0     H49479   3.456   5.798   7.854 -0.7030  0.4574  0.3717
  359MOL0     H49480   3.500   5.969   7.856  1.0315  0.3338 -2.0059
  359MOL0     H49481   3.239   6.019   7.825 -1.3359 -0.6424  1.0405
  359MOL0     H49482   3.210   5.852   7.838  0.7881 -0.4558 -0.1939
  359MOL0     H49483   3.168   5.994   8.039 -0.4484  0.8752 -0.9484
  359MOL0     H49484   3.325   6.044   8.053 -0.6792 -0.1085  1.3326
  359MOL0     H49485   3.270   5.740   8.034 -0.9738  0.1383  1.0364
  359MOL0     H49486   3.411   5.802   8.097  0.1473 -1.3501 -3.1063
  359MOL0     H49487   3.307   5.869   8.314  0.6128 -0.0126 -0.7524
  359MOL0     H49488   3.258   5.713   8.269 -0.9343 -0.6926 -1.9054
  359MOL0     H49489   3.080   5.958   8.213 -0.6869 -0.9429 -0.0673
  359MOL0     H49490   3.034   5.793   8.209  1.0109  0.0120 -1.3102
  359MOL0     H49491   3.098   5.652   8.471  0.4075 -0.6259 -0.3088
  359MOL0     H49492   3.026   5.624   8.714 -0.4183  0.8312 -4.0748
  359MOL0     H49493   2.869   5.713   8.745  0.1432  0.3487  2.1469
  359MOL0     H49494   2.957   5.880   8.862  0.5953 -0.7126 -1.0223
  359MOL0     H49495   3.007   5.728   8.931 -0.0885  0.0244  1.1104
  359MOL0     H49496   3.184   5.932   8.767  0.0510 -0.0422 -1.4089
  359MOL0     H49497   3.174   5.909   8.946 -3.0354  1.8119 -0.8887
  359MOL0     H49498   3.305   5.718   8.746  1.4947 -1.9469  1.0092
  359MOL0     H49499   3.366   5.811   8.879 -1.2176  0.1812  2.6449
  359MOL0     H49500   3.518   5.635   8.871  0.2640  0.2973 -2.0873
  359MOL0     H49501   3.710   5.528   8.829  2.3857  0.6118  0.9262
  359MOL0     H49502   3.734   5.349   8.839  0.7606 -0.5601  1.5244
  359MOL0     H49503   3.752   5.456   8.985  1.0665  0.8334 -0.9558
  359MOL0     H49504   3.532   4.823   8.917  1.4920  0.6505 -0.3357
  359MOL0     H49505   3.596   4.637   9.058  0.3528 -1.8556  1.4086
  359MOL0     H49506   3.534   4.495   9.266  0.1156 -0.8376 -1.7416
  359MOL0     H49507   3.702   4.505   9.219 -2.6457  1.5939 -2.3105
  359MOL0     H49508   3.770   4.450   9.453 -0.0509  1.4695 -0.0481
  359MOL0     H49509   3.595   4.468   9.500 -0.3111  0.1205  0.0572
  359MOL0     H49510   3.562   4.271   9.333  0.0506 -0.1502 -1.8612
  359MOL0     H49511   3.645   4.238   9.497  0.1933 -0.5294 -0.1489
  359MOL0     H49512   3.856   4.245   9.351  1.2929 -1.3776 -2.3003
  359MOL0     H49513   3.761   4.261   9.207 -0.9824 -0.0811 -0.8225
  359MOL0     H49514   3.725   4.023   9.396  0.4402 -1.2997 -0.9424
  359MOL0     H49515   3.644   4.062   9.244 -0.2154 -2.1853  1.3511
  359MOL0     H49516   3.946   4.031   9.285  1.4576 -0.9583 -0.8105
  359MOL0     H49517   3.880   4.058   9.137 -1.2009  2.4216  2.0533
  359MOL0     H49518   3.807   3.830   9.101  3.9700 -4.4428  0.8818
  359MOL0     H49519   3.786   3.800   9.272 -2.2673 -0.2342 -0.7324
  359MOL0     H49520   4.051   3.867   9.170 -2.0827  1.2804  1.3906
  359MOL0     H49521   3.977   3.709   9.142  0.7681 -0.1972 -0.0184
  359MOL0     H49522   3.605   4.896   9.396  2.0283 -1.7835 -0.3765
  359MOL0     H49523   3.575   5.084   9.248 -1.7263  0.2543 -1.1242
  359MOL0     H49524   3.311   5.210   9.011 -1.2224  1.4708  1.7548
  359MOL0     H49525   3.170   5.405   8.981  0.4157 -1.3117  0.0118
  359MOL0     H49526   3.363   5.543   7.419 -1.2289  2.1088  1.4679
  359MOL0     H49527   3.235   5.328   7.405 -0.7236  3.3202  0.6642
  359MOL0     H49528   3.066   4.977   7.763 -2.1213 -0.9602  2.0481
  359MOL0     H49529   2.954   4.775   7.811  2.8614  1.1979 -0.5033
  359MOL0     H49530   2.538   4.657   7.750 -1.4103 -0.2165 -1.0323
  359MOL0     H49531   2.554   4.748   7.603  1.8379  0.2083 -2.4364
  359MOL0     H49532   2.590   4.438   7.642 -4.4501 -0.5830  0.1102
  359MOL0     H49533   2.619   4.514   7.487  1.8547 -1.1213 -0.1771
  359MOL0     H49534   2.353   4.546   7.637 -0.7451 -0.7652 -0.4380
  359MOL0     H49535   2.402   4.604   7.474  2.8938 -1.4661 -3.1870
  359MOL0     H49536   2.285   4.356   7.506  0.5682 -2.3350  0.8890
  359MOL0     H49537   2.442   4.311   7.545  1.7409 -0.2213 -1.5364
  359MOL0     H49538   2.512   4.378   7.122  1.2688 -1.7347  0.5743
  359MOL0     H49539   2.662   4.872   7.531 -0.1406 -0.2256  0.6381
  359MOL0     H49540   2.662   5.067   7.411  0.4781  0.1424  0.2973
  359MOL0     H49541   2.800   5.166   7.378  0.5607  0.5683  0.3871
  359MOL0     H49542   2.794   5.004   7.310  0.7837  1.0189 -0.6017
  360MOL0     O49543   4.881   9.464  10.760 -0.7990 -0.1357 -0.0827
  360MOL0     C49544   4.796   9.386  10.707 -0.1215  0.1763  0.1594
  360MOL0     O49545   4.792   9.359  10.573 -0.9021 -0.3123  1.0385
  360MOL0     C49546   4.866   9.445  10.499 -0.0772 -0.2339  0.4895
  360MOL0     C49547   4.995   9.406  10.467  0.1089  0.3735  0.0624
  360MOL0     C49548   5.068   9.481  10.375 -0.3293 -0.4917 -0.0488
  360MOL0     C49549   5.025   9.608  10.328  0.8183  0.4590 -0.0762
  360MOL0     O49550   5.096   9.693  10.243  0.2520 -1.0481  0.1385
  360MOL0     C49551   5.165   9.626  10.132 -0.1147 -0.7953 -0.6654
  360MOL0     C49552   5.246   9.720  10.055  0.2372  0.5830  0.1744
  360MOL0     C49553   5.304   9.645   9.938 -0.4884 -0.6806  0.8316
  360MOL0     C49554   5.401   9.734   9.852  1.1690  0.3568 -0.6326
  360MOL0     C49555   5.409   9.673   9.716 -0.1305  1.1669  0.8213
  360MOL0     C49556   5.552   9.682   9.642 -0.5852  0.2846 -0.5960
  360MOL0     C49557   5.599   9.831   9.608  0.1582  0.6454  0.0202
  360MOL0     C49558   5.649   9.918   9.712 -0.2801  0.7319  0.1549
  360MOL0     N49559   5.669  10.051   9.665  0.2772 -0.8468 -0.0818
  360MOL0     C49560   5.635  10.164   9.728  0.2639 -0.0813  0.2985
  360MOL0     C49561   5.676  10.262   9.644  0.0138  0.7403  0.6018
  360MOL0     C49562   5.675  10.413   9.664  0.6106  0.5315  0.1383
  360MOL0     C49563   5.813  10.489   9.667  0.5861  0.7350  1.1602
  360MOL0     C49564   5.885  10.493   9.532 -0.1993 -0.1323  0.7574
  360MOL0     C49565   6.011  10.577   9.531  0.1381  0.6508  0.1523
  360MOL0     O49566   6.110  10.549   9.625 -0.1447 -0.4032 -0.2076
  360MOL0     C49567   6.210  10.463   9.580  0.5478 -0.3014 -0.2864
  360MOL0     C49568   6.255  10.444   9.447  0.0449 -0.2474 -1.0423
  360MOL0     C49569   6.334  10.329   9.422 -0.1033 -0.2835  0.8645
  360MOL0     C49570   6.386  10.321   9.275 -0.4650 -0.0964 -1.5357
  360MOL0     C49571   6.359  10.225   9.512 -0.4007 -0.9543 -0.4328
  360MOL0     C49572   6.432  10.098   9.491 -0.4896  0.1125 -1.1943
  360MOL0     O49573   6.444  10.003   9.589  0.3464 -0.2885  0.0794
  360MOL0     C49574   6.536   9.899   9.569  0.3544 -0.3755  0.6024
  360MOL0     C49575   6.555   9.829   9.445  0.2918 -0.4482 -0.6170
  360MOL0     C49576   6.648   9.729   9.435 -0.4243  0.5792  0.2703
  360MOL0     C49577   6.716   9.684   9.555  0.2438 -0.3776  0.3335
  360MOL0     O49578   6.798   9.574   9.554  0.4286  0.0052  0.6204
  360MOL0     C49579   6.790   9.484   9.448  0.6109  0.4077 -0.2109
  360MOL0     C49580   6.876   9.364   9.476 -0.0696 -0.6968 -1.0371
  360MOL0     C49581   6.912   9.284   9.353 -0.5433 -0.7570 -0.2031
  360MOL0     C49582   6.797   9.265   9.258  0.1652  0.5627  0.1166
  360MOL0     C49583   6.832   9.134   9.184 -0.1382  1.0511  0.3814
  360MOL0     C49584   6.713   9.049   9.139 -0.0436  0.6413 -0.6484
  360MOL0     C49585   6.615   9.126   9.053  0.1196  0.0614  0.3417
  360MOL0     C49586   6.498   9.034   9.003 -0.4135 -0.8911 -0.4019
  360MOL0    Cl49587   6.558   8.948   8.857 -0.3130 -0.0978  0.0743
  360MOL0     C49588   6.697   9.755   9.669  0.2155 -0.2536  0.0669
  360MOL0     C49589   6.612   9.864   9.680  0.2062 -0.0456  0.4896
  360MOL0     O49590   6.498  10.098   9.388 -0.4259  0.2025  0.5537
  360MOL0     C49591   6.326  10.254   9.643 -0.1445 -0.4337 -0.5993
  360MOL0     C49592   6.258  10.369   9.681  0.8759 -0.2894 -0.4195
  360MOL0     N49593   5.728  10.200   9.531  0.4823 -1.0347  0.1606
  360MOL0     N49594   5.717  10.074   9.544 -0.4519  0.8777  0.0182
  360MOL0     C49595   4.893   9.649  10.368  0.1542  0.1059 -0.2526
  360MOL0     C49596   4.817   9.564  10.451 -0.1336  0.2066 -0.6974
  360MOL0     C49597   4.689   9.311  10.785 -0.7337 -0.0836 -0.3999
  360MOL0     C49598   4.620   9.194  10.731  0.0719 -0.0611 -0.3343
  360MOL0     C49599   4.540   9.112  10.811  0.5928 -0.7125 -0.0844
  360MOL0     C49600   4.510   9.132  10.949 -0.3347 -0.3065  0.1612
  360MOL0     O49601   4.430   9.051  11.026  0.4662  0.3713 -0.4455
  360MOL0     C49602   4.409   8.912  10.989 -0.3281 -0.3850  0.6895
  360MOL0     C49603   4.406   8.825  11.114  0.4132  1.1876  0.7504
  360MOL0     C49604   4.303   8.880  11.219 -0.1924 -0.7582  0.0076
  360MOL0     C49605   4.159   8.909  11.175  0.2846 -0.2758  0.3646
  360MOL0     C49606   4.054   8.931  11.280 -0.1017  0.2134 -0.5064
  360MOL0     C49607   3.979   8.971  11.364  0.0281  0.5104 -0.4373
  360MOL0     C49608   4.573   9.253  10.998  0.1900 -0.5412 -0.5286
  360MOL0     C49609   4.657   9.333  10.928  0.5787  0.5911  0.0561
  360MOL0     C49610   4.701   9.459  10.993  0.0836  0.6994  0.2397
  360MOL0     H49611   5.032   9.313  10.507 -0.5809 -0.6587 -1.6243
  360MOL0     H49612   5.160   9.439  10.336 -0.3684  0.9551 -1.8616
  360MOL0     H49613   5.091   9.594  10.059 -3.2909  1.2234  1.4180
  360MOL0     H49614   5.235   9.544  10.153  3.0229  2.4057  3.0348
  360MOL0     H49615   5.180   9.800  10.022 -3.8087 -3.1446 -1.8743
  360MOL0     H49616   5.325   9.753  10.122  0.8153 -0.5569  0.0865
  360MOL0     H49617   5.360   9.558   9.972  0.7999 -1.7672 -3.4190
  360MOL0     H49618   5.221   9.607   9.877  1.1107 -0.0288 -1.9659
  360MOL0     H49619   5.349   9.830   9.842 -3.0121 -1.7057 -1.0546
  360MOL0     H49620   5.500   9.740   9.898 -0.0029  0.4626  2.0961
  360MOL0     H49621   5.330   9.716   9.653 -2.8226 -1.7141  1.9886
  360MOL0     H49622   5.385   9.568   9.732 -0.4967  0.7064 -2.1925
  360MOL0     H49623   5.633   9.633   9.696 -1.8197  0.4055  1.4512
  360MOL0     H49624   5.535   9.628   9.548 -0.4059  0.6453 -0.8380
  360MOL0     H49625   5.514   9.892   9.576  0.0278 -0.1808 -1.2693
  360MOL0     H49626   5.674   9.823   9.529  2.2368 -0.6534  2.0237
  360MOL0     H49627   5.575   9.921   9.792 -0.2830  1.8383  0.1298
  360MOL0     H49628   5.743   9.872   9.744 -1.0648 -3.3318 -2.6321
  360MOL0     H49629   5.586  10.170   9.825  1.1794 -0.3021  0.7814
  360MOL0     H49630   5.635  10.419   9.766  1.0554 -0.3300  0.3698
  360MOL0     H49631   5.607  10.463   9.594  1.4675  2.8348  0.8477
  360MOL0     H49632   5.785  10.593   9.688 -2.4778 -0.1007  1.8330
  360MOL0     H49633   5.878  10.451   9.746 -0.3036 -1.6318  0.8499
  360MOL0     H49634   5.910  10.401   9.478  0.1742  0.6749 -0.4740
  360MOL0     H49635   5.804  10.534   9.471  0.0615  3.9622  2.7973
  360MOL0     H49636   6.049  10.576   9.428  1.2624 -2.1030  0.5151
  360MOL0     H49637   5.983  10.681   9.550  0.8757  1.0619 -0.8985
  360MOL0     H49638   6.253  10.527   9.377  2.1287  2.0161  1.3358
  360MOL0     H49639   6.493  10.302   9.287 -0.9877 -1.3453  2.9545
  360MOL0     H49640   6.374  10.415   9.221 -1.1595  0.5696 -0.2548
  360MOL0     H49641   6.332  10.241   9.223  1.5040 -2.2967 -0.3891
  360MOL0     H49642   6.509   9.863   9.352  1.2888 -0.2025 -1.0360
  360MOL0     H49643   6.676   9.681   9.342 -1.4448 -2.5401  1.4404
  360MOL0     H49644   6.686   9.458   9.428  0.8594 -0.9430  0.1356
  360MOL0     H49645   6.841   9.534   9.365  0.6669 -0.9076 -0.9923
  360MOL0     H49646   6.973   9.395   9.516 -0.9597  0.1961  0.5129
  360MOL0     H49647   6.812   9.301   9.539 -0.3983  0.8519  0.2510
  360MOL0     H49648   6.955   9.188   9.381  1.0788  0.6465  2.5383
  360MOL0     H49649   6.986   9.326   9.284 -0.7359  0.6075  0.3726
  360MOL0     H49650   6.792   9.350   9.189 -0.5122  0.3736 -0.0706
  360MOL0     H49651   6.696   9.257   9.301 -1.4002 -2.2378 -3.5575
  360MOL0     H49652   6.850   9.175   9.084 -2.0851 -1.8174 -1.3107
  360MOL0     H49653   6.924   9.084   9.217 -1.1320  0.9606  3.3389
  360MOL0     H49654   6.658   9.001   9.220  1.0263  2.2900  1.1262
  360MOL0     H49655   6.751   8.972   9.071  1.1072  0.3689  0.2745
  360MOL0     H49656   6.673   9.171   8.972  0.6769  4.2638  2.7265
  360MOL0     H49657   6.568   9.210   9.106  0.1584  0.1576  0.2224
  360MOL0     H49658   6.424   9.111   8.977  0.6359  0.6418  0.9124
  360MOL0     H49659   6.449   8.967   9.073 -1.8653 -1.2379 -1.6829
  360MOL0     H49660   6.740   9.715   9.760  1.7774 -0.0121 -0.5324
  360MOL0     H49661   6.615   9.916   9.775  0.8926  2.4759 -0.8189
  360MOL0     H49662   6.364  10.191   9.722  0.7083  1.5020  0.5893
  360MOL0     H49663   6.227  10.387   9.783  6.1191  3.0243  0.9461
  360MOL0     H49664   4.857   9.749  10.347 -2.3743 -0.3711  1.4606
  360MOL0     H49665   4.716   9.592  10.479 -0.4816 -0.3355 -1.3812
  360MOL0     H49666   4.648   9.164  10.631 -0.7765 -1.1405 -0.2651
  360MOL0     H49667   4.494   9.028  10.760 -0.6433  0.0963 -0.3311
  360MOL0     H49668   4.315   8.918  10.933 -0.8318  2.3122  1.6944
  360MOL0     H49669   4.479   8.871  10.916 -1.2445 -1.0286  0.1465
  360MOL0     H49670   4.503   8.838  11.164  1.0865 -0.0907 -0.1540
  360MOL0     H49671   4.379   8.725  11.079  0.1324  1.5798 -0.1829
  360MOL0     H49672   4.299   8.809  11.303  3.4357 -2.5062 -1.0865
  360MOL0     H49673   4.358   8.964  11.262  3.3879 -2.8716 -0.0576
  360MOL0     H49674   4.135   8.827  11.107 -1.2063  0.0589  0.4597
  360MOL0     H49675   4.177   9.004  11.124  4.4064 -0.9490  0.1579
  360MOL0     H49676   3.914   9.027  11.428 -2.3314  0.0427 -2.2585
  360MOL0     H49677   4.550   9.292  11.097  0.4383  0.5950 -0.9015
  360MOL0     H49678   4.687   9.547  10.931  1.9757  2.1423  1.7341
  360MOL0     H49679   4.642   9.466  11.085  0.3516 -0.7989  0.5650
  360MOL0     H49680   4.806   9.458  11.026  0.5182  2.4722 -0.9416
  361MOL0     O49681   9.822   0.327   4.906  0.1634 -0.3693 -0.3460
  361MOL0     C49682   9.842   0.299   5.022 -0.0251 -0.5786 -0.2155
  361MOL0     O49683   9.914   0.381   5.101 -0.3543 -0.0382  0.3436
  361MOL0     C49684  10.019   0.450   5.043  0.2236  0.1441  1.0742
  361MOL0     C49685  10.111   0.394   4.959 -0.2498 -0.5700 -0.0371
  361MOL0     C49686  10.224   0.479   4.918  0.1151  0.6594 -0.0393
  361MOL0     C49687  10.243   0.604   4.972  0.3605  0.2142  0.7943
  361MOL0     O49688  10.345   0.687   4.936  0.2563 -0.2096  0.1407
  361MOL0     C49689  10.440   0.644   4.827 -0.2312 -0.5801  0.5411
  361MOL0     C49690  10.383   0.674   4.689  0.6450 -0.5310 -0.1803
  361MOL0     C49691  10.489   0.657   4.580 -0.0276  0.8114  0.1820
  361MOL0     C49692  10.513   0.519   4.548  0.6718  0.1620 -0.1669
  361MOL0     C49693  10.612   0.497   4.432 -0.0898  0.8295  0.0512
  361MOL0     C49694  10.636   0.349   4.415 -0.6559 -0.2208 -0.1235
  361MOL0     C49695  10.727   0.301   4.297 -0.6551  0.8037 -0.3510
  361MOL0     C49696  10.760   0.151   4.307 -0.5021 -0.6744 -0.9233
  361MOL0     N49697  10.630   0.075   4.295  0.0775 -0.0476 -0.0597
  361MOL0     C49698  10.570   0.027   4.179  0.4052  0.1124 -0.8677
  361MOL0     C49699  10.473  -0.061   4.220  0.1912  0.1578 -1.4514
  361MOL0     C49700  10.393  -0.140   4.127  0.6040 -0.0563  0.1586
  361MOL0     C49701  10.251  -0.104   4.122  0.8112  0.7373 -1.5306
  361MOL0     C49702  10.225   0.025   4.051 -0.6855 -1.5351  1.0358
  361MOL0     C49703  10.074   0.056   4.015 -1.4642  0.6364  0.1798
  361MOL0     O49704  10.064   0.122   3.890 -0.8048 -0.5989 -0.0072
  361MOL0     C49705  10.011   0.253   3.881  0.7664  0.3910  0.1439
  361MOL0     C49706  10.010   0.310   3.754  1.3432  0.1522  0.3227
  361MOL0     C49707   9.944   0.430   3.728 -0.5893  0.4401 -0.4919
  361MOL0     C49708   9.936   0.473   3.580 -0.3163 -0.1478 -0.9001
  361MOL0     C49709   9.910   0.513   3.834  0.0887 -0.2348  0.0820
  361MOL0     C49710   9.869   0.650   3.831 -0.3433  1.1346  0.4387
  361MOL0     O49711   9.944   0.734   3.753  0.3637  0.3306 -0.4760
  361MOL0     C49712   9.911   0.867   3.743  0.7713  0.5662  0.3349
  361MOL0     C49713   9.862   0.941   3.843  0.1424  0.2985  0.7392
  361MOL0     C49714   9.858   1.081   3.837  1.3266  0.1811 -0.1799
  361MOL0     C49715   9.894   1.148   3.720  0.1472  0.4065  0.0168
  361MOL0     O49716   9.880   1.282   3.699 -0.2136 -0.0742  0.1739
  361MOL0     C49717   9.816   1.362   3.798  0.4757  0.0758 -1.2176
  361MOL0     C49718   9.832   1.508   3.761  0.8518 -1.8146 -0.3794
  361MOL0     C49719   9.730   1.554   3.658 -0.2747  0.8930  0.5702
  361MOL0     C49720   9.767   1.551   3.512 -0.0056  0.9854 -0.0963
  361MOL0     C49721   9.655   1.605   3.416  0.2024 -1.1978  0.2580
  361MOL0     C49722   9.597   1.735   3.462  0.9276  0.3177  0.6934
  361MOL0     C49723   9.516   1.789   3.340  0.1643 -0.1663 -0.4366
  361MOL0     C49724   9.465   1.941   3.371 -0.1848 -0.2150 -0.0760
  361MOL0    Cl49725   9.424   2.016   3.208  0.0051 -0.0164  0.0288
  361MOL0     C49726   9.947   1.073   3.619 -0.3487 -0.0344  0.3238
  361MOL0     C49727   9.948   0.929   3.629 -0.4862 -0.2948 -0.5855
  361MOL0     O49728   9.768   0.677   3.893 -0.2962  0.5063 -0.3728
  361MOL0     C49729   9.931   0.466   3.961  0.0242  0.2567 -0.0468
  361MOL0     C49730   9.962   0.331   3.983 -0.1420 -0.7330  0.0573
  361MOL0     N49731  10.466  -0.061   4.360  0.3033  1.3646  0.4111
  361MOL0     N49732  10.563   0.015   4.405 -0.6676 -1.1111 -0.0922
  361MOL0     C49733  10.144   0.653   5.069  0.1181 -0.1876  0.2978
  361MOL0     C49734  10.033   0.576   5.105  0.2702 -0.5164  0.4021
  361MOL0     C49735   9.793   0.172   5.075  0.1355  0.1014  0.1715
  361MOL0     C49736   9.750   0.076   4.978  1.0812 -0.3761  0.3159
  361MOL0     C49737   9.711  -0.054   5.020 -0.6904  0.2634  0.5573
  361MOL0     C49738   9.723  -0.090   5.145  0.6360  0.5746 -0.0822
  361MOL0     O49739   9.680  -0.218   5.172  0.3093  0.0834  0.6106
  361MOL0     C49740   9.657  -0.273   5.300  0.5997 -0.5479  0.4883
  361MOL0     C49741   9.579  -0.395   5.283  0.9079  0.2424  0.3164
  361MOL0     C49742   9.650  -0.523   5.238  0.2712 -0.6684  0.0789
  361MOL0     C49743   9.755  -0.501   5.119  0.4358 -0.3220  0.2492
  361MOL0     C49744   9.883  -0.437   5.153  0.0476  0.8652 -0.7916
  361MOL0     C49745   9.992  -0.386   5.189  0.1887  0.4588 -0.0058
  361MOL0     C49746   9.737   0.002   5.245 -0.0091 -0.4755 -0.1190
  361MOL0     C49747   9.768   0.141   5.215  0.0222  0.2565  0.6850
  361MOL0     C49748   9.750   0.247   5.324 -0.0437  1.0435  0.8996
  361MOL0     H49749  10.118   0.301   4.904  0.9953 -2.1603  2.5834
  361MOL0     H49750  10.278   0.428   4.839  0.1511  0.7413 -0.0688
  361MOL0     H49751  10.467   0.538   4.838 -0.2827 -0.3928  3.4684
  361MOL0     H49752  10.540   0.685   4.841  0.2621 -1.3935 -0.4514
  361MOL0     H49753  10.303   0.604   4.666  0.9024 -2.7470  4.5216
  361MOL0     H49754  10.346   0.777   4.697  1.7470 -0.2640  2.9358
  361MOL0     H49755  10.454   0.707   4.489 -1.0835 -0.8935 -0.3882
  361MOL0     H49756  10.583   0.707   4.605 -0.6608  2.5339 -0.7210
  361MOL0     H49757  10.565   0.475   4.633  0.8669  0.6165 -0.0481
  361MOL0     H49758  10.422   0.462   4.523 -0.8347  1.4656  2.0060
  361MOL0     H49759  10.708   0.549   4.444  1.2002 -1.2452 -0.8304
  361MOL0     H49760  10.563   0.529   4.340  0.5952 -1.3531 -1.1310
  361MOL0     H49761  10.681   0.298   4.501 -0.4806 -0.7665 -0.5351
  361MOL0     H49762  10.542   0.295   4.406 -1.8070  1.7418 -0.4526
  361MOL0     H49763  10.826   0.348   4.303  0.4193 -1.1011 -1.9574
  361MOL0     H49764  10.682   0.320   4.199 -2.1578  1.8886  0.5105
  361MOL0     H49765  10.832   0.117   4.232 -1.6003 -4.9807 -0.2862
  361MOL0     H49766  10.803   0.134   4.406 -0.7815  0.9146 -0.5043
  361MOL0     H49767  10.585   0.037   4.072 -1.5835 -4.3840 -1.8036
  361MOL0     H49768  10.410  -0.242   4.162  2.0091  0.4142  0.8948
  361MOL0     H49769  10.426  -0.136   4.022 -2.0596  0.6901 -0.7245
  361MOL0     H49770  10.195  -0.186   4.074 -1.9664  1.2609  0.5470
  361MOL0     H49771  10.213  -0.100   4.224  0.6083  1.0543 -1.6159
  361MOL0     H49772  10.267   0.110   4.106 -0.6730 -1.7672  1.3932
  361MOL0     H49773  10.281   0.015   3.958 -2.0108  0.1836 -0.0009
  361MOL0     H49774  10.038  -0.046   4.002 -0.6050  0.4351 -0.7260
  361MOL0     H49775  10.019   0.097   4.100 -0.3699  0.6566  0.9007
  361MOL0     H49776  10.055   0.267   3.665  2.7694  2.7779 -0.2934
  361MOL0     H49777  10.028   0.521   3.546  1.3621 -1.4413  1.5387
  361MOL0     H49778   9.849   0.539   3.570  0.7804  1.2059 -1.7372
  361MOL0     H49779   9.906   0.393   3.512 -1.2635  1.2970 -2.2556
  361MOL0     H49780   9.844   0.898   3.941 -0.1209 -2.6480 -0.4915
  361MOL0     H49781   9.833   1.141   3.924 -2.7489 -0.9443 -0.3797
  361MOL0     H49782   9.712   1.330   3.812  0.4201  0.3229 -1.0747
  361MOL0     H49783   9.873   1.357   3.891  0.9182  2.0822 -1.3580
  361MOL0     H49784   9.810   1.567   3.851 -3.5905 -3.4055 -0.1435
  361MOL0     H49785   9.936   1.532   3.741  0.7056 -0.5591  0.2869
  361MOL0     H49786   9.704   1.659   3.675 -2.8885  0.3776  0.1609
  361MOL0     H49787   9.635   1.500   3.666 -1.6191  2.9473 -0.5294
  361MOL0     H49788   9.798   1.451   3.480  0.8220  2.2918 -3.8513
  361MOL0     H49789   9.851   1.616   3.487  1.7474 -1.6328 -1.3731
  361MOL0     H49790   9.710   1.624   3.323  1.6756 -1.5199  1.0354
  361MOL0     H49791   9.583   1.531   3.381 -1.9596  2.6383 -4.8029
  361MOL0     H49792   9.679   1.798   3.498  1.1258 -0.1684  1.1099
  361MOL0     H49793   9.526   1.725   3.545  2.3402 -0.3810  1.8606
  361MOL0     H49794   9.421   1.735   3.336 -0.6046  0.9469  1.4049
  361MOL0     H49795   9.583   1.788   3.253  0.5078  2.4156 -0.2647
  361MOL0     H49796   9.542   2.004   3.416  1.0569 -1.7841  0.0861
  361MOL0     H49797   9.374   1.923   3.428 -0.7131 -2.1874 -1.4294
  361MOL0     H49798   9.966   1.116   3.521  3.2252 -0.5017  0.6919
  361MOL0     H49799   9.994   0.871   3.550  0.5029 -0.1362 -0.1437
  361MOL0     H49800   9.910   0.527   4.049 -1.9071  0.0754 -0.3296
  361MOL0     H49801   9.962   0.303   4.088 -3.7072  1.3724  0.7871
  361MOL0     H49802  10.164   0.747   5.119 -2.8390  1.3995 -1.2312
  361MOL0     H49803   9.963   0.609   5.181 -0.5696  0.7461 -0.8639
  361MOL0     H49804   9.741   0.097   4.872  0.5120 -0.8423  0.2618
  361MOL0     H49805   9.706  -0.125   4.938 -2.0553  0.7556  0.1926
  361MOL0     H49806   9.751  -0.287   5.353  3.2990  4.6872 -2.0870
  361MOL0     H49807   9.586  -0.199   5.341  0.2607 -1.1807  1.0606
  361MOL0     H49808   9.501  -0.372   5.210 -0.1932  0.3471  1.5006
  361MOL0     H49809   9.527  -0.416   5.377 -1.7801  1.1643 -0.8763
  361MOL0     H49810   9.700  -0.578   5.318 -1.3397 -1.6551  0.4483
  361MOL0     H49811   9.571  -0.583   5.192 -0.8517  3.1563 -3.6908
  361MOL0     H49812   9.713  -0.425   5.052 -2.1183  0.3233  2.3935
  361MOL0     H49813   9.773  -0.591   5.061  2.0700  0.4441 -0.4970
  361MOL0     H49814  10.088  -0.339   5.197  0.3457 -0.0438  1.3529
  361MOL0     H49815   9.717  -0.025   5.348  1.4564  2.1123  0.9653
  361MOL0     H49816   9.696   0.202   5.407  0.4694 -4.9291 -1.4824
  361MOL0     H49817   9.848   0.287   5.350  0.8669 -1.9806  2.6751
  361MOL0     H49818   9.688   0.323   5.276  1.2904  1.0940 -0.8644
  362MOL0     O49819  11.057   2.000   8.964 -0.6985 -0.1979 -0.5569
  362MOL0     C49820  11.129   2.053   8.885 -0.4217 -0.9281  0.5971
  362MOL0     O49821  11.095   2.090   8.753 -1.3597  0.5804 -0.3253
  362MOL0     C49822  10.970   2.123   8.708 -0.4307 -0.4161 -0.8926
  362MOL0     C49823  10.968   2.148   8.573  0.6786  0.4038 -0.5547
  362MOL0     C49824  10.844   2.196   8.516 -0.2228  0.3996 -0.8371
  362MOL0     C49825  10.719   2.197   8.587 -0.3700 -0.1275  0.5783
  362MOL0     O49826  10.611   2.243   8.524  0.4536  0.3416  0.2882
  362MOL0     C49827  10.485   2.183   8.555  0.0679 -0.0125  0.1835
  362MOL0     C49828  10.439   2.108   8.426  0.4776  1.3622  0.2915
  362MOL0     C49829  10.315   2.025   8.446  0.3036 -0.0821 -0.2750
  362MOL0     C49830  10.347   1.912   8.537 -0.8849  0.1567 -0.6413
  362MOL0     C49831  10.264   1.788   8.512 -0.2972  0.8059  0.8419
  362MOL0     C49832  10.127   1.799   8.584  0.3325 -0.1996  0.3320
  362MOL0     C49833  10.032   1.683   8.544  0.1132 -0.3362 -0.3632
  362MOL0     C49834   9.897   1.703   8.613 -0.9855  0.0494 -0.1376
  362MOL0     N49835   9.906   1.733   8.755 -0.0187  0.8624  0.4966
  362MOL0     C49836   9.907   1.619   8.834  0.4513 -0.4190 -1.0826
  362MOL0     C49837   9.918   1.671   8.960  0.4429 -0.5778 -0.3506
  362MOL0     C49838   9.932   1.588   9.085 -0.4362 -0.2271 -0.8477
  362MOL0     C49839   9.878   1.449   9.084  0.0026 -0.7008 -0.0773
  362MOL0     C49840   9.720   1.450   9.067 -0.3085  0.1370  0.3995
  362MOL0     C49841   9.653   1.319   9.099  0.3510 -0.4974  0.3474
  362MOL0     O49842   9.516   1.326   9.053  0.3245  0.4372 -0.1277
  362MOL0     C49843   9.432   1.214   9.060 -0.2906 -0.9392 -1.4636
  362MOL0     C49844   9.457   1.099   9.140 -0.2103  0.5649 -0.2750
  362MOL0     C49845   9.382   0.983   9.124  0.3678  0.0821 -0.3224
  362MOL0     C49846   9.405   0.866   9.212  0.2157 -0.1498 -0.1501
  362MOL0     C49847   9.259   0.984   9.049 -1.0184 -0.1251  0.4146
  362MOL0     C49848   9.168   0.865   9.030 -0.4096  0.0133  0.6412
  362MOL0     O49849   9.083   0.873   8.920 -0.1743 -0.1995  0.5200
  362MOL0     C49850   8.980   0.779   8.916  1.1934 -0.1991  0.9558
  362MOL0     C49851   8.972   0.676   8.816  0.7374 -0.1458 -0.1821
  362MOL0     C49852   8.858   0.598   8.800 -0.8943  0.9961  0.7474
  362MOL0     C49853   8.747   0.611   8.881 -1.1861  0.5503 -0.3975
  362MOL0     O49854   8.641   0.527   8.862  0.1519  0.3079 -0.2792
  362MOL0     C49855   8.568   0.492   8.980 -0.7120 -0.9303  0.4262
  362MOL0     C49856   8.418   0.531   8.963  0.5965 -0.8059  0.6922
  362MOL0     C49857   8.339   0.521   9.093  0.2352 -0.1253  0.4602
  362MOL0     C49858   8.211   0.447   9.087  0.0644  0.7957 -1.5511
  362MOL0     C49859   8.130   0.486   9.205  0.7665  0.8922  0.0003
  362MOL0     C49860   7.998   0.399   9.199  0.1050 -1.5004 -0.2962
  362MOL0     C49861   7.897   0.461   9.287  0.9454  0.1909 -1.1333
  362MOL0     C49862   7.781   0.509   9.212 -0.0358 -1.5434  0.1206
  362MOL0    Cl49863   7.839   0.671   9.146  0.0389  0.6004  0.2199
  362MOL0     C49864   8.751   0.721   8.972  0.0497  1.1739  0.4230
  362MOL0     C49865   8.865   0.801   8.984  0.1952  0.1812 -0.9321
  362MOL0     O49866   9.176   0.773   9.103  0.4313  0.7071  0.1245
  362MOL0     C49867   9.231   1.104   8.984 -0.4883  0.1556  0.0041
  362MOL0     C49868   9.318   1.212   8.992 -0.5216  0.2309 -0.0094
  362MOL0     N49869   9.911   1.811   8.943 -0.0773  0.2882  1.0857
  362MOL0     N49870   9.893   1.847   8.819 -0.0310  0.6818 -0.3105
  362MOL0     C49871  10.725   2.152   8.718 -0.9624 -0.2573 -0.6029
  362MOL0     C49872  10.849   2.116   8.779 -0.0953  0.1453  1.1576
  362MOL0     C49873  11.281   2.052   8.906  0.3883 -0.3673  0.9064
  362MOL0     C49874  11.347   2.176   8.897 -0.5761 -0.1466 -0.3827
  362MOL0     C49875  11.485   2.180   8.918  1.1236 -0.1874  0.3109
  362MOL0     C49876  11.564   2.071   8.933 -0.1236 -0.3659 -0.2549
  362MOL0     O49877  11.699   2.084   8.937  0.0847  0.7134  0.5360
  362MOL0     C49878  11.778   1.964   8.925  0.0480 -0.4686  0.2808
  362MOL0     C49879  11.930   1.992   8.888  0.3132  0.0065  0.2266
  362MOL0     C49880  11.943   2.083   8.758 -0.9516 -1.0621  0.5638
  362MOL0     C49881  12.090   2.117   8.735 -0.2383  0.0817  0.0598
  362MOL0     C49882  12.100   2.156   8.598 -0.2286  0.3948 -0.0010
  362MOL0     C49883  12.110   2.191   8.481  0.9097 -0.2166 -0.8181
  362MOL0     C49884  11.494   1.950   8.938 -0.8500  0.1564 -1.0700
  362MOL0     C49885  11.351   1.936   8.937  0.1272  0.0190  0.1110
  362MOL0     C49886  11.288   1.799   8.949 -0.5947  0.3122  0.0025
  362MOL0     H49887  11.063   2.125   8.527  1.8590  0.1426  1.8734
  362MOL0     H49888  10.838   2.211   8.409  0.3482 -0.4562 -0.9894
  362MOL0     H49889  10.414   2.261   8.584 -1.4264 -2.1828  2.8593
  362MOL0     H49890  10.480   2.111   8.638  1.0487 -0.5723 -0.2271
  362MOL0     H49891  10.421   2.180   8.346 -1.5641  4.9103  3.6041
  362MOL0     H49892  10.523   2.044   8.395 -0.3161 -0.0818  1.0339
  362MOL0     H49893  10.221   2.075   8.469 -1.1109 -2.7173  0.0434
  362MOL0     H49894  10.272   1.990   8.352 -3.0488  0.8430  0.7731
  362MOL0     H49895  10.452   1.885   8.518 -0.2284  2.3672 -0.5024
  362MOL0     H49896  10.331   1.941   8.641  0.5908  0.8935 -0.5884
  362MOL0     H49897  10.317   1.699   8.546 -2.7461 -1.3031 -0.5038
  362MOL0     H49898  10.261   1.776   8.404  0.0826 -0.6244  0.9686
  362MOL0     H49899  10.145   1.796   8.692  0.4755  2.2735  0.4472
  362MOL0     H49900  10.082   1.896   8.559 -1.1636 -0.7434  0.7780
  362MOL0     H49901  10.078   1.592   8.584  0.7615  0.6466  1.2383
  362MOL0     H49902  10.017   1.670   8.437  0.2540  0.6246 -0.5068
  362MOL0     H49903   9.835   1.780   8.565 -2.0746  1.0673  2.6484
  362MOL0     H49904   9.847   1.606   8.604 -2.8180  1.0702 -1.6909
  362MOL0     H49905   9.902   1.514   8.805 -3.4757 -0.5214 -0.5687
  362MOL0     H49906   9.880   1.632   9.171  2.2194 -0.4373  0.9599
  362MOL0     H49907  10.038   1.580   9.108 -0.2887 -0.8418 -1.6952
  362MOL0     H49908   9.926   1.386   9.008  0.6700 -3.3750  2.4244
  362MOL0     H49909   9.901   1.404   9.180 -1.7105 -1.4312  0.0152
  362MOL0     H49910   9.683   1.519   9.144 -1.8606 -0.8164  0.5570
  362MOL0     H49911   9.690   1.489   8.969  2.0068 -0.1220 -0.4672
  362MOL0     H49912   9.708   1.244   9.043 -0.3066  1.6499 -3.4981
  362MOL0     H49913   9.659   1.301   9.207 -2.4712  1.4822  0.9400
  362MOL0     H49914   9.547   1.105   9.200 -1.0688  0.9198  1.0273
  362MOL0     H49915   9.413   0.776   9.151 -2.4108  0.1244 -1.0035
  362MOL0     H49916   9.324   0.870   9.285 -0.4965 -1.3312 -0.8447
  362MOL0     H49917   9.501   0.871   9.265 -0.0097  0.6079  0.2038
  362MOL0     H49918   9.061   0.652   8.758  1.1761  2.0644 -0.4947
  362MOL0     H49919   8.860   0.513   8.734  5.3632  1.5645 -0.3216
  362MOL0     H49920   8.578   0.385   8.997  0.5447 -0.9902 -0.5372
  362MOL0     H49921   8.592   0.540   9.076 -3.4947 -1.5519  1.5224
  362MOL0     H49922   8.398   0.636   8.937 -2.9480  0.1834  5.9421
  362MOL0     H49923   8.377   0.464   8.886  2.1964  3.8299 -4.9729
  362MOL0     H49924   8.321   0.623   9.129 -0.7587 -0.0239 -0.2821
  362MOL0     H49925   8.414   0.479   9.161  1.2981 -1.4163 -1.4377
  362MOL0     H49926   8.228   0.339   9.087 -1.3715  0.5340 -0.1681
  362MOL0     H49927   8.168   0.469   8.988  2.1051  0.3842 -2.5835
  362MOL0     H49928   8.171   0.457   9.303 -2.8868 -0.7510  1.2116
  362MOL0     H49929   8.110   0.593   9.202  1.0312  0.9565  0.4369
  362MOL0     H49930   8.024   0.298   9.230 -0.4235 -1.4247  0.4459
  362MOL0     H49931   7.961   0.397   9.096 -1.5876  0.1815  0.2095
  362MOL0     H49932   7.927   0.546   9.348  1.9015 -0.7075 -0.3283
  362MOL0     H49933   7.871   0.367   9.336  1.8786  0.0303 -0.9462
  362MOL0     H49934   7.697   0.528   9.280  1.4535  1.0417  1.3643
  362MOL0     H49935   7.736   0.446   9.135 -1.7817  1.0898 -1.1708
  362MOL0     H49936   8.668   0.740   9.039  0.9627  0.5172  1.7912
  362MOL0     H49937   8.867   0.881   9.058 -1.4454 -1.7388  1.3317
  362MOL0     H49938   9.149   1.109   8.913  0.9998 -2.9668 -2.2112
  362MOL0     H49939   9.295   1.296   8.927 -0.1610  0.7076  0.4773
  362MOL0     H49940  10.639   2.152   8.785  0.6337  0.4760  1.5595
  362MOL0     H49941  10.842   2.085   8.882  2.4887  2.5828  2.1910
  362MOL0     H49942  11.298   2.273   8.894 -1.5239 -0.1857  4.4443
  362MOL0     H49943  11.540   2.271   8.896 -0.0342  0.1112 -1.6133
  362MOL0     H49944  11.773   1.909   9.019 -1.3502  0.2941  0.6737
  362MOL0     H49945  11.738   1.898   8.847  2.4434 -1.6073 -0.0743
  362MOL0     H49946  11.976   1.898   8.857 -3.7706 -2.2021  0.2026
  362MOL0     H49947  11.976   2.033   8.979  3.9787  0.9528 -1.8301
  362MOL0     H49948  11.920   2.025   8.668  3.7843 -2.3392 -0.0771
  362MOL0     H49949  11.877   2.170   8.763 -2.5672 -2.0978 -1.3739
  362MOL0     H49950  12.141   2.021   8.744  1.9663  1.0660 -1.0651
  362MOL0     H49951  12.123   2.194   8.806 -0.0086 -1.0189  1.1751
  362MOL0     H49952  12.093   2.246   8.390 -5.6066 -3.2952 -1.9883
  362MOL0     H49953  11.554   1.863   8.959 -0.2094  0.7841 -0.2254
  362MOL0     H49954  11.190   1.804   8.899 -0.8225 -0.5157  0.3375
  362MOL0     H49955  11.350   1.722   8.901 -0.3538  0.5208 -0.0236
  362MOL0     H49956  11.273   1.764   9.051 -1.5777  1.2462  0.1938
  363MOL0     O49957   4.014  11.072   9.197 -0.4405 -0.2908  0.3241
  363MOL0     C49958   4.037  10.974   9.260  1.1737 -0.3946 -0.3174
  363MOL0     O49959   4.001  10.849   9.225  0.4851  0.7468 -0.2357
  363MOL0     C49960   3.919  10.810   9.120 -0.9121  0.5093  0.8670
  363MOL0     C49961   3.841  10.898   9.042 -0.4230 -0.0162 -0.2779
  363MOL0     C49962   3.767  10.856   8.926 -0.6931 -0.7009 -0.2905
  363MOL0     C49963   3.772  10.721   8.890 -0.0460  0.3235  0.6637
  363MOL0     O49964   3.711  10.679   8.771 -0.7145 -0.1434 -0.0260
  363MOL0     C49965   3.717  10.545   8.724 -0.5384  0.4353 -0.0697
  363MOL0     C49966   3.837  10.528   8.626  0.3727  0.3391  0.3005
  363MOL0     C49967   3.821  10.396   8.544 -0.9221  0.5181  0.1702
  363MOL0     C49968   3.859  10.279   8.635 -0.0525  0.5077  0.8702
  363MOL0     C49969   3.875  10.134   8.576 -0.6318  0.6411  0.0690
  363MOL0     C49970   4.018  10.105   8.491 -0.0737  0.1248 -0.1890
  363MOL0     C49971   4.144  10.144   8.567  0.1142 -0.2752  1.0886
  363MOL0     C49972   4.274  10.101   8.494 -0.4113 -0.2734 -0.3239
  363MOL0     N49973   4.318  10.192   8.380  0.2324 -0.5531  0.1099
  363MOL0     C49974   4.438  10.175   8.315 -0.3822  1.6744 -0.0853
  363MOL0     C49975   4.450  10.263   8.219  0.8223 -0.3301  0.6902
  363MOL0     C49976   4.567  10.262   8.114  0.3356 -0.4874 -0.5718
  363MOL0     C49977   4.543  10.151   7.997 -0.3090 -0.3218 -0.5075
  363MOL0     C49978   4.416  10.184   7.913 -0.4266 -0.8205 -0.1638
  363MOL0     C49979   4.375  10.068   7.821  0.1654  0.4791  0.1627
  363MOL0     O49980   4.468  10.052   7.712 -0.1281 -0.0723  0.4730
  363MOL0     C49981   4.455  10.153   7.612  0.1995  0.0845 -1.0524
  363MOL0     C49982   4.339  10.200   7.558  0.4960 -0.3317 -0.5936
  363MOL0     C49983   4.331  10.312   7.471 -0.0250  0.1457  0.2102
  363MOL0     C49984   4.192  10.340   7.418  0.2735 -0.1897 -0.4306
  363MOL0     C49985   4.441  10.386   7.448  0.1830  0.6800  0.1612
  363MOL0     C49986   4.450  10.503   7.370  1.6973 -1.1859 -0.1377
  363MOL0     O49987   4.542  10.593   7.402 -0.2748 -0.1112 -0.3700
  363MOL0     C49988   4.557  10.703   7.323  1.0225 -0.7586 -0.6215
  363MOL0     C49989   4.458  10.779   7.259  0.2374  0.8638 -0.3130
  363MOL0     C49990   4.505  10.895   7.192  0.1575 -0.5361 -0.6579
  363MOL0     C49991   4.639  10.932   7.177  0.6121  0.7970  0.5403
  363MOL0     O49992   4.671  11.058   7.120  0.5677  0.0802  0.3635
  363MOL0     C49993   4.810  11.082   7.105  0.0835 -0.3665 -0.2978
  363MOL0     C49994   4.826  11.226   7.056  0.2608  0.4150 -0.3907
  363MOL0     C49995   4.970  11.264   7.008 -0.3256  0.1995  0.1668
  363MOL0     C49996   5.068  11.153   6.979  0.4717 -0.6640 -1.0051
  363MOL0     C49997   5.194  11.208   6.912 -1.2789 -0.7848  0.0381
  363MOL0     C49998   5.292  11.090   6.884 -0.7175 -1.7127 -0.4181
  363MOL0     C49999   5.355  11.040   7.018  0.6362  0.1847  0.3223
  363MOL0     C50000   5.492  11.004   7.004 -0.3239 -0.1383  0.1616
  363MOL0    Cl50001   5.502  10.855   6.897 -0.1955  0.1613  0.9067
  363MOL0     C50002   4.733  10.853   7.246  0.3966  0.0668  1.1071
  363MOL0     C50003   4.690  10.753   7.330  0.0544 -0.6764  0.3076
  363MOL0     O50004   4.383  10.510   7.267 -0.3797 -0.2578 -0.1460
  363MOL0     C50005   4.569  10.339   7.494  0.6162  0.2374 -0.9573
  363MOL0     C50006   4.577  10.228   7.577  0.5884  0.2754 -0.3177
  363MOL0     N50007   4.331  10.332   8.209 -0.1063 -0.7254 -0.8458
  363MOL0     N50008   4.252  10.288   8.303  0.8379  0.5684 -0.3999
  363MOL0     C50009   3.836  10.630   8.971 -0.5803 -0.3536  0.1459
  363MOL0     C50010   3.905  10.671   9.086  0.7565  0.2221 -0.4893
  363MOL0     C50011   4.117  10.979   9.381 -0.9006  0.4000 -0.6981
  363MOL0     C50012   4.090  10.876   9.479  0.3202 -0.4871  0.4963
  363MOL0     C50013   4.174  10.853   9.586  0.6777  0.0403  0.8526
  363MOL0     C50014   4.275  10.948   9.616 -0.2356 -0.2255 -0.9240
  363MOL0     O50015   4.366  10.942   9.725 -0.3914  0.4045 -0.2831
  363MOL0     C50016   4.336  10.840   9.819 -0.1674 -0.4775  0.2087
  363MOL0     C50017   4.463  10.821   9.895 -0.8786  0.8592 -0.5918
  363MOL0     C50018   4.506  10.945   9.980  1.3760  0.2228  0.9081
  363MOL0     C50019   4.636  10.908  10.057  0.1001 -0.1556 -0.1964
  363MOL0     C50020   4.635  10.927  10.210  0.0334  0.0065 -0.2387
  363MOL0     C50021   4.632  10.945  10.332  0.3309  0.0572  0.1502
  363MOL0     C50022   4.303  11.046   9.524  0.8210  0.0410  0.3708
  363MOL0     C50023   4.229  11.071   9.406 -1.1385  1.1882 -0.6486
  363MOL0     C50024   4.274  11.180   9.313 -0.0432  0.3470  0.9902
  363MOL0     H50025   3.827  11.003   9.065  0.0242  0.0011 -0.0680
  363MOL0     H50026   3.703  10.921   8.868 -2.0493  1.0095  2.9070
  363MOL0     H50027   3.631  10.529   8.659 -0.0496 -0.1897 -0.5727
  363MOL0     H50028   3.722  10.471   8.804  0.2511 -0.2273 -0.7156
  363MOL0     H50029   3.828  10.614   8.558 -1.9060  2.1077  2.6436
  363MOL0     H50030   3.934  10.525   8.677  0.9712 -0.4048 -0.8199
  363MOL0     H50031   3.722  10.375   8.503 -0.7493  0.7981 -0.4004
  363MOL0     H50032   3.893  10.394   8.461 -0.6905  5.3299  0.0014
  363MOL0     H50033   3.951  10.298   8.690  0.6621  0.3836 -0.2602
  363MOL0     H50034   3.787  10.288   8.717  2.1185  2.3682  2.7080
  363MOL0     H50035   3.792  10.112   8.507  1.3337 -1.2344 -1.8608
  363MOL0     H50036   3.875  10.061   8.657 -1.1137  0.3131 -0.2207
  363MOL0     H50037   4.029   9.998   8.468  1.3173 -0.4314  2.6784
  363MOL0     H50038   4.013  10.159   8.396  2.2172  0.6040 -0.0742
  363MOL0     H50039   4.147  10.128   8.675  1.9121  0.4467  1.1679
  363MOL0     H50040   4.137  10.253   8.558  3.6093 -0.1051 -4.3147
  363MOL0     H50041   4.362  10.107   8.559  2.0199  1.4480 -3.4691
  363MOL0     H50042   4.257   9.999   8.461  0.1974 -1.4111  2.5334
  363MOL0     H50043   4.510  10.099   8.343  1.2993  2.7494 -1.3348
  363MOL0     H50044   4.662  10.251   8.168 -0.1263 -1.5302  0.0484
  363MOL0     H50045   4.577  10.355   8.056 -1.0510 -0.4143 -0.7114
  363MOL0     H50046   4.632  10.140   7.935  0.2626 -0.6411  0.3457
  363MOL0     H50047   4.528  10.057   8.051  0.1742 -0.5570 -0.7736
  363MOL0     H50048   4.330  10.218   7.972 -0.8562  3.3055 -2.7992
  363MOL0     H50049   4.427  10.271   7.849 -3.4848  0.3577  0.7185
  363MOL0     H50050   4.374   9.980   7.886 -0.9973  2.8175  3.6306
  363MOL0     H50051   4.275  10.082   7.778  0.6600  1.5824 -0.6614
  363MOL0     H50052   4.250  10.142   7.582 -1.9496  3.3063 -0.1450
  363MOL0     H50053   4.206  10.316   7.312 -1.0325 -0.3811 -0.5752
  363MOL0     H50054   4.173  10.445   7.439 -0.6412 -0.6952  1.5018
  363MOL0     H50055   4.116  10.274   7.462  0.5971 -0.4326 -0.2367
  363MOL0     H50056   4.357  10.740   7.264  0.4823  0.2650  0.1682
  363MOL0     H50057   4.425  10.961   7.157  1.6365  2.7067  1.6453
  363MOL0     H50058   4.860  11.067   7.201  0.5435 -0.6179 -0.5751
  363MOL0     H50059   4.855  11.014   7.033 -3.5821 -1.3867 -1.8868
  363MOL0     H50060   4.761  11.254   6.972  0.7208 -0.0159 -0.9008
  363MOL0     H50061   4.786  11.286   7.138 -0.5198 -1.9954  1.0895
  363MOL0     H50062   5.013  11.329   7.084 -2.0680  1.9355 -0.2160
  363MOL0     H50063   4.967  11.321   6.914 -0.3197  2.4681  1.4595
  363MOL0     H50064   5.019  11.085   6.909  0.8258 -1.4276 -0.5314
  363MOL0     H50065   5.089  11.095   7.070 -0.6889 -1.8732 -1.4737
  363MOL0     H50066   5.162  11.247   6.815 -0.6762 -0.8622 -0.2001
  363MOL0     H50067   5.249  11.281   6.974 -2.3648  1.2639 -1.2953
  363MOL0     H50068   5.374  11.129   6.821 -2.6262  4.1997  0.1164
  363MOL0     H50069   5.237  11.013   6.829  0.0968 -2.9740  0.4844
  363MOL0     H50070   5.305  10.947   7.044 -0.2511 -1.3667 -5.5251
  363MOL0     H50071   5.342  11.106   7.104  0.1615 -1.4866  1.5772
  363MOL0     H50072   5.546  10.984   7.097 -0.6790 -1.7776  0.0487
  363MOL0     H50073   5.547  11.079   6.947  0.9319  0.0069  1.5268
  363MOL0     H50074   4.839  10.862   7.264  0.2918 -0.7874  2.3082
  363MOL0     H50075   4.776  10.714   7.383  0.2339  0.6366  1.0170
  363MOL0     H50076   4.654  10.404   7.479 -0.0212  1.0744 -1.0637
  363MOL0     H50077   4.672  10.206   7.624 -0.3776  0.7116  1.9808
  363MOL0     H50078   3.843  10.522   8.969 -1.1493 -0.4535  1.8503
  363MOL0     H50079   3.953  10.603   9.156 -2.8727  0.7062  2.8232
  363MOL0     H50080   4.011  10.807   9.450 -0.6151  0.9311 -0.4733
  363MOL0     H50081   4.152  10.767   9.649  0.0629 -0.9180 -0.6101
  363MOL0     H50082   4.242  10.863   9.870 -1.0212  0.0322 -1.5095
  363MOL0     H50083   4.315  10.742   9.775 -2.2212 -0.3719  0.8665
  363MOL0     H50084   4.539  10.808   9.818 -1.0842 -2.1373 -0.3855
  363MOL0     H50085   4.459  10.731   9.957  0.8748  0.0945 -1.5429
  363MOL0     H50086   4.526  11.032   9.917 -0.0719  0.8970  1.3515
  363MOL0     H50087   4.418  10.987  10.030  0.4991  0.5473 -0.8304
  363MOL0     H50088   4.724  10.961  10.020 -0.2821 -0.9892 -2.4365
  363MOL0     H50089   4.669  10.807  10.030  4.3370  1.3949 -1.5975
  363MOL0     H50090   4.626  10.945  10.439 -1.0825 -1.9602  0.1379
  363MOL0     H50091   4.381  11.119   9.544 -0.3609  1.7422 -0.8969
  363MOL0     H50092   4.201  11.260   9.332  1.3811  1.8917  0.1597
  363MOL0     H50093   4.380  11.205   9.323  1.0028 -3.0230 -0.4366
  363MOL0     H50094   4.260  11.151   9.209  1.9594  0.9298  0.5126
  364MOL0     O50095   0.947   6.633   3.410 -0.3203 -0.4204  0.3320
  364MOL0     C50096   0.864   6.544   3.432 -0.4686 -0.4159  0.5882
  364MOL0     O50097   0.818   6.514   3.556  0.2138  0.5339 -0.3607
  364MOL0     C50098   0.860   6.561   3.673 -0.1611 -0.3402  0.1974
  364MOL0     C50099   0.877   6.697   3.694 -0.2374  0.4823 -0.7759
  364MOL0     C50100   0.932   6.741   3.818  0.0813  0.1393  0.0306
  364MOL0     C50101   0.952   6.656   3.928  0.6260 -0.2867  0.1279
  364MOL0     O50102   0.981   6.713   4.048  0.1662 -0.4006  0.2879
  364MOL0     C50103   0.980   6.635   4.169 -0.2662 -0.4291 -0.2718
  364MOL0     C50104   1.028   6.728   4.285 -0.0240 -0.6625 -0.8730
  364MOL0     C50105   0.934   6.845   4.314 -0.1078 -0.1161 -0.5229
  364MOL0     C50106   1.022   6.954   4.394  0.6759 -0.0499  0.4324
  364MOL0     C50107   0.913   7.026   4.477 -0.1590  0.3575 -0.6378
  364MOL0     C50108   0.964   7.148   4.565 -0.2511  1.3948  0.7645
  364MOL0     C50109   0.865   7.254   4.585  0.2566 -1.3167  0.3802
  364MOL0     C50110   0.908   7.366   4.680 -0.7745 -0.1537  0.1545
  364MOL0     N50111   0.808   7.464   4.730 -0.2430 -0.0005  0.6223
  364MOL0     C50112   0.745   7.565   4.654  0.0060 -0.1352 -0.1504
  364MOL0     C50113   0.658   7.609   4.738  0.1542 -0.0421  0.0318
  364MOL0     C50114   0.551   7.716   4.712 -0.2348  0.6282  0.3291
  364MOL0     C50115   0.589   7.862   4.662 -0.2573  0.2449  0.9142
  364MOL0     C50116   0.620   7.969   4.768 -0.6800 -0.2315 -0.9021
  364MOL0     C50117   0.741   7.922   4.851 -0.4996  0.0194 -0.0125
  364MOL0     O50118   0.784   8.023   4.942 -1.0101 -0.2287  0.6015
  364MOL0     C50119   0.896   8.102   4.904 -0.0812 -0.1548 -1.4287
  364MOL0     C50120   0.981   8.091   4.785 -0.1359 -0.5466 -0.3676
  364MOL0     C50121   1.090   8.176   4.765 -0.0093 -0.2137 -0.5417
  364MOL0     C50122   1.178   8.149   4.639  0.1882  0.0787  0.5701
  364MOL0     C50123   1.109   8.291   4.853  0.8287  0.5278  0.6894
  364MOL0     C50124   1.222   8.387   4.835 -0.7964  0.1943  0.3989
  364MOL0     O50125   1.212   8.504   4.903 -0.2180  0.1165 -0.1552
  364MOL0     C50126   1.326   8.577   4.902 -0.6565  0.3297  0.4514
  364MOL0     C50127   1.388   8.617   4.779  0.4135  0.3830  0.6912
  364MOL0     C50128   1.507   8.686   4.772  0.0143  0.2636  0.6244
  364MOL0     C50129   1.573   8.714   4.891 -0.2041 -0.5685  0.5727
  364MOL0     O50130   1.697   8.781   4.885  0.3411 -0.5496  0.0687
  364MOL0     C50131   1.791   8.721   4.794  0.3354  0.9639  0.0268
  364MOL0     C50132   1.927   8.790   4.804 -0.4157 -0.0200  0.0993
  364MOL0     C50133   2.036   8.707   4.724  0.7513 -1.1797 -0.3602
  364MOL0     C50134   2.172   8.718   4.799 -0.6353 -0.6281  0.2090
  364MOL0     C50135   2.214   8.865   4.761 -0.1623  0.4323 -0.8571
  364MOL0     C50136   2.361   8.880   4.777  0.2154 -0.1349 -0.3250
  364MOL0     C50137   2.406   8.880   4.919  0.0416 -0.5168 -0.3155
  364MOL0     C50138   2.553   8.902   4.937 -0.1975  0.7933  0.1277
  364MOL0    Cl50139   2.614   9.057   4.884  0.1790  0.1146  0.3900
  364MOL0     C50140   1.523   8.680   5.012  0.3404 -0.5825 -0.3048
  364MOL0     C50141   1.400   8.605   5.018 -0.4974  0.4985 -0.9659
  364MOL0     O50142   1.325   8.342   4.772  0.1944 -0.3646 -0.9734
  364MOL0     C50143   1.023   8.301   4.970 -0.1736  0.0100  0.2311
  364MOL0     C50144   0.921   8.206   4.988 -0.5592 -0.4809 -0.3502
  364MOL0     N50145   0.662   7.530   4.857  0.2756  0.3798  0.2175
  364MOL0     N50146   0.750   7.445   4.848 -0.8966 -1.1600  0.4561
  364MOL0     C50147   0.924   6.522   3.905 -1.0241 -0.7101  0.1121
  364MOL0     C50148   0.885   6.475   3.774 -0.0695 -0.0048  0.1626
  364MOL0     C50149   0.807   6.478   3.315  0.4134  0.0069  0.2918
  364MOL0     C50150   0.742   6.354   3.344 -0.7134  0.7571 -0.0225
  364MOL0     C50151   0.674   6.274   3.249 -0.4733 -0.9836 -0.1130
  364MOL0     C50152   0.681   6.317   3.107  0.8072  0.2293  0.7022
  364MOL0     O50153   0.609   6.246   3.006 -0.1795 -0.0994  0.2108
  364MOL0     C50154   0.610   6.281   2.869 -0.3346 -0.6042  0.6752
  364MOL0     C50155   0.740   6.222   2.812  0.5598 -0.3561 -0.2965
  364MOL0     C50156   0.750   6.259   2.671 -0.8976 -0.3228  0.6253
  364MOL0     C50157   0.882   6.215   2.619 -0.3044  1.0826 -0.9182
  364MOL0     C50158   0.910   6.265   2.482  0.4936  0.1099  0.2894
  364MOL0     C50159   0.947   6.291   2.371 -0.8669 -0.3515 -0.8592
  364MOL0     C50160   0.750   6.437   3.085  0.7878 -0.7511 -0.1104
  364MOL0     C50161   0.805   6.515   3.183 -0.0700 -0.6576 -0.4665
  364MOL0     C50162   0.853   6.651   3.138 -0.0286  0.2355 -0.0949
  364MOL0     H50163   0.857   6.761   3.609  1.0443 -1.1758 -2.3969
  364MOL0     H50164   0.939   6.850   3.819  1.0413  0.1042 -1.1109
  364MOL0     H50165   1.047   6.548   4.170 -1.1445 -1.1784  2.8283
  364MOL0     H50166   0.879   6.601   4.193 -0.4265  0.3461  0.1689
  364MOL0     H50167   1.045   6.669   4.375  2.2012  1.3255  0.1333
  364MOL0     H50168   1.125   6.769   4.255  0.0748  1.1094  1.5617
  364MOL0     H50169   0.898   6.875   4.216 -0.1647 -2.9949 -1.4544
  364MOL0     H50170   0.850   6.809   4.376  0.1792  1.3049  0.7615
  364MOL0     H50171   1.095   6.909   4.463 -0.4310  0.2151  1.8368
  364MOL0     H50172   1.071   7.022   4.324  0.2072 -0.9214 -0.7553
  364MOL0     H50173   0.874   6.949   4.544 -2.9817  1.6867 -0.5653
  364MOL0     H50174   0.832   7.059   4.411 -0.5827  0.3946 -0.1085
  364MOL0     H50175   0.994   7.114   4.664 -0.4403  1.8949  0.9971
  364MOL0     H50176   1.055   7.191   4.523  0.4296 -0.5099  0.1888
  364MOL0     H50177   0.770   7.216   4.623 -1.7324  1.4056 -1.4478
  364MOL0     H50178   0.840   7.300   4.488  0.3987  2.3532  1.9228
  364MOL0     H50179   0.942   7.309   4.767  0.3678  1.7729  1.0403
  364MOL0     H50180   0.993   7.424   4.643 -1.3924  0.2792 -0.6387
  364MOL0     H50181   0.751   7.594   4.549 -0.7580 -0.9784 -0.4413
  364MOL0     H50182   0.481   7.736   4.794 -1.6638  1.7211 -1.0844
  364MOL0     H50183   0.489   7.666   4.637  0.4484  0.1881  0.0529
  364MOL0     H50184   0.686   7.844   4.615  0.6895  0.0509  2.8466
  364MOL0     H50185   0.517   7.897   4.587  2.2817  0.6055 -1.5326
  364MOL0     H50186   0.631   8.065   4.717 -0.7943 -0.8254 -2.0676
  364MOL0     H50187   0.529   7.990   4.825 -0.8882 -1.5168 -0.7383
  364MOL0     H50188   0.712   7.840   4.917 -2.5263  2.7278  2.7325
  364MOL0     H50189   0.819   7.893   4.780 -2.3407  0.7461 -2.4443
  364MOL0     H50190   0.966   8.009   4.716  1.6874 -1.9692  0.7983
  364MOL0     H50191   1.281   8.118   4.657  0.2375  0.1006  0.3268
  364MOL0     H50192   1.187   8.249   4.594  0.3780  1.0145  2.5475
  364MOL0     H50193   1.133   8.077   4.571 -0.9272  0.4450  0.8926
  364MOL0     H50194   1.335   8.598   4.687 -0.0225 -2.7386  1.4589
  364MOL0     H50195   1.541   8.722   4.676  2.9309  3.1739  2.5318
  364MOL0     H50196   1.805   8.615   4.816  0.4386  0.5859 -1.7422
  364MOL0     H50197   1.761   8.714   4.689 -3.3935 -4.6112  1.0345
  364MOL0     H50198   1.937   8.892   4.763  2.2124  0.6964  2.2253
  364MOL0     H50199   1.952   8.798   4.910 -1.1269 -0.9844  0.3429
  364MOL0     H50200   2.028   8.736   4.619 -0.5375 -0.8433 -0.1839
  364MOL0     H50201   2.018   8.599   4.722 -0.2152 -1.0278 -0.2985
  364MOL0     H50202   2.245   8.643   4.767 -2.0216 -0.9649 -2.4571
  364MOL0     H50203   2.158   8.707   4.907 -2.7016 -0.5534  0.0011
  364MOL0     H50204   2.190   8.898   4.660 -1.4292  0.4782 -0.5665
  364MOL0     H50205   2.155   8.939   4.816 -1.2037 -1.1842  0.3395
  364MOL0     H50206   2.397   8.973   4.733  1.7676 -0.6839 -0.3059
  364MOL0     H50207   2.409   8.794   4.729 -2.3394 -2.8289  1.5523
  364MOL0     H50208   2.386   8.777   4.949 -1.1162 -0.5582 -1.1661
  364MOL0     H50209   2.354   8.944   4.990 -1.1449 -2.1098  0.3097
  364MOL0     H50210   2.608   8.820   4.888 -0.0999 -0.9160  2.9088
  364MOL0     H50211   2.582   8.887   5.041  3.4437 -0.5692 -0.9065
  364MOL0     H50212   1.592   8.699   5.093 -3.1480  0.7607  2.6172
  364MOL0     H50213   1.372   8.568   5.116  1.6152 -1.6734 -1.0897
  364MOL0     H50214   1.034   8.377   5.046  1.4599  0.9073 -0.8628
  364MOL0     H50215   0.869   8.213   5.083 -0.5673  0.5299 -0.4234
  364MOL0     H50216   0.961   6.443   3.969 -2.5083 -2.6226 -1.2907
  364MOL0     H50217   0.890   6.368   3.757  3.5978  0.0693 -0.0369
  364MOL0     H50218   0.734   6.319   3.446 -0.3569  1.1347  0.1370
  364MOL0     H50219   0.624   6.179   3.268 -0.4762 -1.0353 -0.3719
  364MOL0     H50220   0.524   6.238   2.817  0.0443 -0.1846 -0.3309
  364MOL0     H50221   0.598   6.389   2.856  1.2515 -0.5957 -1.2975
  364MOL0     H50222   0.737   6.114   2.828 -1.4899 -0.2595  0.1707
  364MOL0     H50223   0.834   6.255   2.858 -0.3638  3.2033 -0.6461
  364MOL0     H50224   0.670   6.208   2.615  0.9980 -2.2932 -0.4183
  364MOL0     H50225   0.727   6.366   2.665 -0.3737 -0.2705 -1.4950
  364MOL0     H50226   0.869   6.106   2.614 -1.0219  1.1078  0.1683
  364MOL0     H50227   0.963   6.240   2.688  0.5770  0.4734 -1.6947
  364MOL0     H50228   0.987   6.334   2.281  1.0194  3.4482  1.5449
  364MOL0     H50229   0.768   6.465   2.982 -1.1163  0.4782 -0.1679
  364MOL0     H50230   0.828   6.717   3.222  0.3039 -1.3336  1.2712
  364MOL0     H50231   0.961   6.654   3.125  0.3000  0.3169  2.2307
  364MOL0     H50232   0.795   6.689   3.053 -0.5561 -1.7717 -0.6713
  365MOL0     O50233  11.458   8.253   5.795 -0.0981 -0.0341 -0.5065
  365MOL0     C50234  11.379   8.172   5.752  0.2088 -0.2443 -0.2504
  365MOL0     O50235  11.325   8.063   5.820  0.0182 -0.5790 -0.0538
  365MOL0     C50236  11.390   8.025   5.930  0.3517 -0.6501 -0.2232
  365MOL0     C50237  11.318   8.016   6.051  0.0187 -0.9774 -0.1602
  365MOL0     C50238  11.371   7.960   6.164 -0.0242  0.2196  0.6133
  365MOL0     C50239  11.505   7.921   6.169 -1.7125  0.1415  0.2678
  365MOL0     O50240  11.553   7.854   6.273  0.2800  0.0313  0.0517
  365MOL0     C50241  11.676   7.895   6.341 -0.0964  0.2912  0.5004
  365MOL0     C50242  11.659   7.846   6.481 -0.0685  0.3081  0.4079
  365MOL0     C50243  11.777   7.856   6.581  0.7838  0.6780 -0.4389
  365MOL0     C50244  11.735   7.897   6.722  0.3682  0.5292  0.8945
  365MOL0     C50245  11.867   7.934   6.786  0.1903  0.9787 -0.4802
  365MOL0     C50246  11.928   8.074   6.742  0.7197  0.0049  0.5345
  365MOL0     C50247  12.063   8.101   6.815 -0.1888 -0.3345  0.4837
  365MOL0     C50248  12.039   8.147   6.959 -0.1508  0.6329  0.5323
  365MOL0     N50249  12.172   8.167   7.013 -0.2457 -0.6511 -0.5721
  365MOL0     C50250  12.215   8.282   7.083 -0.0915  0.1729 -0.1621
  365MOL0     C50251  12.320   8.245   7.160 -0.5406  0.0705 -0.5321
  365MOL0     C50252  12.396   8.338   7.263  0.4467  0.8746 -0.1702
  365MOL0     C50253  12.480   8.449   7.195  0.2654 -0.1779  1.6792
  365MOL0     C50254  12.405   8.586   7.198 -0.3417  0.0203  0.1216
  365MOL0     C50255  12.444   8.674   7.083 -0.9855 -0.6465 -0.2462
  365MOL0     O50256  12.349   8.629   6.990 -0.2067 -0.0068 -0.1109
  365MOL0     C50257  12.339   8.684   6.860 -0.0653 -0.6667  0.1857
  365MOL0     C50258  12.401   8.805   6.837  0.7512  0.3983  0.2659
  365MOL0     C50259  12.379   8.877   6.709 -1.3037 -0.2013  0.9419
  365MOL0     C50260  12.446   9.014   6.703 -0.5575 -0.4821 -0.3536
  365MOL0     C50261  12.323   8.807   6.604  0.0602 -0.2427  0.7159
  365MOL0     C50262  12.330   8.844   6.461 -0.4039 -0.2376  0.2083
  365MOL0     O50263  12.353   8.971   6.420 -0.4465 -0.8514 -0.3564
  365MOL0     C50264  12.373   9.007   6.289  0.1415  0.0787 -0.1940
  365MOL0     C50265  12.506   9.004   6.233  0.1736 -0.3398 -0.0990
  365MOL0     C50266  12.521   9.019   6.090  0.8702 -0.1493 -0.2302
  365MOL0     C50267  12.415   9.039   6.002 -0.4403 -0.3085  0.3464
  365MOL0     O50268  12.449   9.042   5.867  0.2590 -0.2470 -0.4653
  365MOL0     C50269  12.353   8.994   5.775 -0.4239  0.8432  0.8852
  365MOL0     C50270  12.399   8.854   5.737 -0.7188  0.1833 -0.8533
  365MOL0     C50271  12.354   8.744   5.835 -0.2455  0.0783  0.4352
  365MOL0     C50272  12.383   8.612   5.762  0.1718  0.0444  0.3811
  365MOL0     C50273  12.328   8.507   5.864  0.0595  1.1365 -0.7252
  365MOL0     C50274  12.390   8.372   5.833 -0.5051 -0.0288 -0.7900
  365MOL0     C50275  12.313   8.251   5.894 -0.8656 -0.7565 -0.0327
  365MOL0     C50276  12.397   8.127   5.887 -0.2259 -0.9929 -0.1409
  365MOL0    Cl50277  12.454   8.064   6.053  0.1860  0.0710  0.3129
  365MOL0     C50278  12.296   9.066   6.064 -0.0049  0.1756 -0.2401
  365MOL0     C50279  12.272   9.046   6.202  0.1317  0.5560  0.2012
  365MOL0     O50280  12.336   8.749   6.383 -0.0052 -0.3446 -0.0956
  365MOL0     C50281  12.251   8.686   6.636 -0.1742 -0.3608  0.0695
  365MOL0     C50282  12.261   8.627   6.760  1.4680  0.1007  0.3810
  365MOL0     N50283  12.318   8.108   7.162 -0.1212  0.2471 -1.1266
  365MOL0     N50284  12.234   8.062   7.072 -0.4501 -0.4831 -0.8697
  365MOL0     C50285  11.581   7.929   6.050 -0.2172 -0.1482 -0.9153
  365MOL0     C50286  11.525   7.986   5.936 -0.3974  0.6455 -0.0971
  365MOL0     C50287  11.316   8.196   5.617  0.7702 -0.3179  0.6660
  365MOL0     C50288  11.185   8.142   5.603  0.0876 -0.6554  1.0453
  365MOL0     C50289  11.107   8.183   5.494 -0.3402 -0.6817 -0.0584
  365MOL0     C50290  11.166   8.244   5.379  0.4965  0.7600 -0.5846
  365MOL0     O50291  11.104   8.263   5.263  0.2717 -0.2773 -0.1039
  365MOL0     C50292  10.972   8.224   5.240 -0.8868 -0.2181  0.2368
  365MOL0     C50293  10.945   8.251   5.084  0.3966  0.0298 -0.6370
  365MOL0     C50294  10.982   8.133   5.004  0.4485 -0.4901  0.2783
  365MOL0     C50295  10.920   8.141   4.871 -0.0961 -0.4050 -0.1946
  365MOL0     C50296  10.933   8.010   4.809 -0.8323  0.4938  0.3720
  365MOL0     C50297  10.938   7.897   4.772  0.4237  0.8477 -0.1123
  365MOL0     C50298  11.301   8.279   5.382 -0.6910  0.4269 -0.0232
  365MOL0     C50299  11.369   8.272   5.505 -0.2806  1.1014  0.3567
  365MOL0     C50300  11.506   8.324   5.511  0.9143 -0.4837 -0.5595
  365MOL0     H50301  11.211   8.028   6.040  0.1945 -1.4243 -3.4080
  365MOL0     H50302  11.311   7.941   6.252  0.8485 -1.4068  0.8895
  365MOL0     H50303  11.680   8.004   6.330  0.3151  0.2211 -0.0934
  365MOL0     H50304  11.764   7.852   6.293 -0.1508 -0.6846  1.2322
  365MOL0     H50305  11.574   7.904   6.520 -0.4852 -0.6180  0.9065
  365MOL0     H50306  11.616   7.745   6.482  0.8822 -0.1325 -1.1969
  365MOL0     H50307  11.814   7.754   6.594  3.5417  0.8687 -4.7808
  365MOL0     H50308  11.848   7.926   6.535  1.3918  0.1439 -0.3348
  365MOL0     H50309  11.679   7.992   6.721 -0.6859 -0.0444 -1.2645
  365MOL0     H50310  11.670   7.820   6.765 -3.2502  3.1882  0.6387
  365MOL0     H50311  11.942   7.855   6.773 -0.5768  0.3832 -1.4221
  365MOL0     H50312  11.832   7.940   6.889 -0.3844 -3.2912 -0.2228
  365MOL0     H50313  11.948   8.074   6.634  1.7360  3.0850  0.6241
  365MOL0     H50314  11.860   8.159   6.745  0.0238 -0.4945 -0.5336
  365MOL0     H50315  12.119   8.177   6.760  3.3961 -2.7792  0.3605
  365MOL0     H50316  12.137   8.020   6.811  0.7840  0.5404  0.2068
  365MOL0     H50317  11.979   8.239   6.954 -0.6382  0.2911 -0.1479
  365MOL0     H50318  11.981   8.073   7.014  0.2096 -0.3559 -0.3798
  365MOL0     H50319  12.165   8.379   7.082 -1.7900 -0.6567  0.1782
  365MOL0     H50320  12.476   8.288   7.318 -0.0656  0.4121  0.1695
  365MOL0     H50321  12.325   8.378   7.336  1.7232  1.5313  0.7497
  365MOL0     H50322  12.574   8.465   7.249  1.5880 -0.0449 -0.5364
  365MOL0     H50323  12.502   8.433   7.089 -0.0807  3.6260  0.8687
  365MOL0     H50324  12.296   8.580   7.206 -0.4676  1.2143 -0.5831
  365MOL0     H50325  12.439   8.631   7.291 -1.3579 -2.1723  1.6485
  365MOL0     H50326  12.420   8.776   7.114  2.5867  0.5534 -0.9576
  365MOL0     H50327  12.545   8.658   7.043 -0.7747 -0.9465  0.3869
  365MOL0     H50328  12.452   8.848   6.923 -1.4540 -2.7501  3.4097
  365MOL0     H50329  12.438   9.070   6.797  1.6248 -1.2675  0.3592
  365MOL0     H50330  12.411   9.075   6.620 -3.9766 -1.9864 -0.2092
  365MOL0     H50331  12.553   9.012   6.681 -0.5960  3.2965 -1.4943
  365MOL0     H50332  12.589   8.990   6.301  1.7761  0.0556 -1.9023
  365MOL0     H50333  12.617   8.997   6.044 -0.1342 -3.0776 -1.1861
  365MOL0     H50334  12.251   8.982   5.812  0.2166 -0.0563  2.4618
  365MOL0     H50335  12.355   9.048   5.680  0.0412 -0.7291 -0.0335
  365MOL0     H50336  12.352   8.840   5.639  0.0202 -1.1071 -1.0402
  365MOL0     H50337  12.504   8.846   5.709 -0.9561 -1.9062 -1.3078
  365MOL0     H50338  12.254   8.761   5.874  0.8381  4.2230  1.9283
  365MOL0     H50339  12.411   8.748   5.928 -4.4635 -0.1875  3.3061
  365MOL0     H50340  12.489   8.601   5.737  0.2625  4.3601 -2.2014
  365MOL0     H50341  12.338   8.608   5.663  1.9533 -0.5720 -0.4512
  365MOL0     H50342  12.346   8.522   5.971  2.8011  1.7005 -1.1902
  365MOL0     H50343  12.219   8.500   5.861 -0.0142  1.3080  0.9128
  365MOL0     H50344  12.488   8.375   5.882 -1.3229  1.7074  0.8749
  365MOL0     H50345  12.403   8.360   5.725  1.5665 -1.6656 -0.4266
  365MOL0     H50346  12.218   8.236   5.842 -1.1000  2.1618 -0.6049
  365MOL0     H50347  12.295   8.274   5.999 -1.2101  2.2194 -0.6413
  365MOL0     H50348  12.491   8.140   5.833  0.1499  2.0948  1.0223
  365MOL0     H50349  12.342   8.042   5.845 -1.4162 -0.3309  0.0412
  365MOL0     H50350  12.218   9.105   5.998 -1.7609  2.4890  2.9519
  365MOL0     H50351  12.170   9.067   6.233 -0.2395  0.4587 -0.9220
  365MOL0     H50352  12.195   8.631   6.561 -3.4263 -0.2509  2.2275
  365MOL0     H50353  12.250   8.520   6.776  2.1456  0.1671  1.4312
  365MOL0     H50354  11.676   7.876   6.054 -0.7050 -0.9579  0.8285
  365MOL0     H50355  11.588   7.978   5.848  0.8462 -2.9854  0.9469
  365MOL0     H50356  11.136   8.082   5.679 -2.8097 -4.2772 -3.1668
  365MOL0     H50357  11.004   8.151   5.502  0.2990 -2.3738  2.3249
  365MOL0     H50358  10.944   8.127   5.282 -0.6156  0.1661  1.3242
  365MOL0     H50359  10.909   8.294   5.296 -3.3594 -2.1857  0.0878
  365MOL0     H50360  11.007   8.337   5.058  1.3825  0.1104  1.6735
  365MOL0     H50361  10.838   8.269   5.082  0.0507 -1.6638  0.1024
  365MOL0     H50362  11.091   8.131   4.991  0.4429 -4.0160 -0.3473
  365MOL0     H50363  10.954   8.048   5.066 -0.9366  0.2518  0.6972
  365MOL0     H50364  10.967   8.221   4.814 -3.7403  0.6959 -1.9943
  365MOL0     H50365  10.812   8.157   4.879 -0.2476 -1.6576  0.6473
  365MOL0     H50366  10.945   7.796   4.736 -2.0647  0.1369  1.1659
  365MOL0     H50367  11.352   8.330   5.300 -1.2878 -1.4563 -1.6681
  365MOL0     H50368  11.522   8.392   5.427  0.3302  0.3715 -0.0053
  365MOL0     H50369  11.507   8.399   5.591  0.5778  2.2898 -2.9684
  365MOL0     H50370  11.575   8.244   5.538 -2.8603 -3.3399  1.7446
  366MOL0     O50371   3.571  10.943   6.789 -0.1740  0.0082  0.4527
  366MOL0     C50372   3.543  10.975   6.674  0.0398  0.0359  0.4656
  366MOL0     O50373   3.416  10.960   6.617 -0.1273 -0.9134 -1.1216
  366MOL0     C50374   3.316  10.931   6.705 -0.3148  0.0469 -0.2167
  366MOL0     C50375   3.221  10.851   6.641  0.6612 -1.2266 -0.7978
  366MOL0     C50376   3.094  10.850   6.712 -0.3693  0.1579  0.2561
  366MOL0     C50377   3.086  10.892   6.839  0.2586 -0.2887  0.2366
  366MOL0     O50378   2.960  10.878   6.899  0.8891 -0.3162  0.0901
  366MOL0     C50379   2.891  11.010   6.928 -0.0707  1.0507  0.1782
  366MOL0     C50380   2.838  11.001   7.065 -0.6356  0.1182 -0.6279
  366MOL0     C50381   2.740  10.884   7.084 -0.3284 -0.0153 -0.3509
  366MOL0     C50382   2.654  10.891   7.212 -1.0111  0.4871 -0.2939
  366MOL0     C50383   2.738  10.875   7.343 -0.8146 -0.1365 -0.3369
  366MOL0     C50384   2.660  10.887   7.473  0.6366  0.6780  0.4894
  366MOL0     C50385   2.553  10.775   7.487 -0.2746 -1.1183 -0.4753
  366MOL0     C50386   2.628  10.648   7.517 -0.3473 -0.0727  0.7597
  366MOL0     N50387   2.526  10.547   7.538  0.0145  0.3674  0.0044
  366MOL0     C50388   2.438  10.534   7.642  0.5892  0.4128  1.1068
  366MOL0     C50389   2.358  10.430   7.612  0.1972 -0.2262 -0.6239
  366MOL0     C50390   2.247  10.404   7.710 -0.0106  1.4336  0.3274
  366MOL0     C50391   2.150  10.291   7.676  0.1759  0.2272  0.4688
  366MOL0     C50392   2.208  10.154   7.713  0.0770  0.1887 -0.4604
  366MOL0     C50393   2.128  10.025   7.672 -0.1094 -0.5282  2.3915
  366MOL0     O50394   1.997  10.034   7.718  0.4673  0.4544  1.2869
  366MOL0     C50395   1.918   9.919   7.691  0.9362  0.6512  0.9036
  366MOL0     C50396   1.782   9.958   7.680 -0.2997  0.1387  0.4476
  366MOL0     C50397   1.683   9.862   7.678  0.5639 -0.1683  0.6724
  366MOL0     C50398   1.534   9.900   7.682 -0.2968 -0.8510  1.1673
  366MOL0     C50399   1.721   9.726   7.680  0.0218 -0.1448  0.5507
  366MOL0     C50400   1.636   9.604   7.682  0.6736  0.1367  0.0538
  366MOL0     O50401   1.684   9.480   7.624 -0.1059 -0.2597  0.6247
  366MOL0     C50402   1.633   9.366   7.678 -0.1853 -0.7627  1.0672
  366MOL0     C50403   1.624   9.347   7.814  0.2241 -0.6002 -0.0488
  366MOL0     C50404   1.573   9.228   7.873  0.1109  0.0669 -0.1075
  366MOL0     C50405   1.530   9.122   7.786  0.3926  0.1588  0.6980
  366MOL0     O50406   1.458   9.006   7.818 -0.0578  0.0007 -0.3828
  366MOL0     C50407   1.346   9.019   7.915 -0.6022 -0.7520 -0.0334
  366MOL0     C50408   1.235   8.913   7.893  0.2368 -0.6192 -0.8470
  366MOL0     C50409   1.132   8.947   7.999 -0.3504 -0.2349 -0.7008
  366MOL0     C50410   1.043   9.064   7.950 -0.0763 -0.4603  0.2280
  366MOL0     C50411   0.993   9.151   8.063  1.0358  0.1540  1.4475
  366MOL0     C50412   0.843   9.120   8.109  0.0391  0.2098 -0.0504
  366MOL0     C50413   0.787   9.242   8.192  1.0123  0.9679 -0.1191
  366MOL0     C50414   0.663   9.197   8.273 -0.2911  0.0118 -0.7509
  366MOL0    Cl50415   0.540   9.100   8.183  0.0912  0.2646 -0.4504
  366MOL0     C50416   1.542   9.142   7.638  0.3111 -0.0715 -0.1823
  366MOL0     C50417   1.590   9.262   7.592 -0.4364  0.6445  0.1944
  366MOL0     O50418   1.530   9.610   7.747  0.1250 -0.1828 -0.2675
  366MOL0     C50419   1.857   9.688   7.702 -0.7770 -0.5280  0.4958
  366MOL0     C50420   1.954   9.790   7.698 -0.5060  0.7582 -0.1154
  366MOL0     N50421   2.396  10.385   7.492 -1.0313 -1.3607  0.2764
  366MOL0     N50422   2.509  10.448   7.452 -1.2882  0.8802 -0.8635
  366MOL0     C50423   3.184  10.960   6.907 -0.7266  0.8446 -1.1421
  366MOL0     C50424   3.295  10.989   6.831 -0.2471 -0.4618  0.4543
  366MOL0     C50425   3.644  11.030   6.577 -0.4385 -0.9946  0.3790
  366MOL0     C50426   3.621  11.014   6.434 -0.1175  0.5613 -0.7664
  366MOL0     C50427   3.707  11.050   6.332 -0.2962 -0.4179  0.4487
  366MOL0     C50428   3.819  11.120   6.375 -0.4677 -0.8699 -0.0454
  366MOL0     O50429   3.898  11.173   6.278 -0.4947 -0.4240 -0.1550
  366MOL0     C50430   3.859  11.311   6.253  0.5342  0.6162 -0.0107
  366MOL0     C50431   3.844  11.317   6.107 -0.4685 -0.4169  0.9229
  366MOL0     C50432   3.798  11.449   6.036 -0.1764  0.4503 -1.2059
  366MOL0     C50433   3.731  11.416   5.896  0.7547 -0.2760 -0.1069
  366MOL0     C50434   3.835  11.350   5.811  0.2806  0.5162  1.1886
  366MOL0     C50435   3.915  11.306   5.737 -0.6443 -0.9219 -0.1947
  366MOL0     C50436   3.848  11.138   6.507  1.0593  0.0800  0.5465
  366MOL0     C50437   3.763  11.105   6.610  0.7167 -0.1887  0.1847
  366MOL0     C50438   3.812  11.131   6.746  0.8179  0.4469  0.5027
  366MOL0     H50439   3.224  10.813   6.539 -1.4614 -0.1523 -1.3224
  366MOL0     H50440   3.011  10.807   6.656  0.6258 -0.3552 -0.8644
  366MOL0     H50441   2.815  11.017   6.850 -1.5787 -1.6053  1.2835
  366MOL0     H50442   2.962  11.093   6.924 -1.1821  1.9776 -1.9370
  366MOL0     H50443   2.925  10.997   7.132  0.6426  2.5669 -1.9802
  366MOL0     H50444   2.791  11.096   7.094 -1.3609 -1.0293  2.2835
  366MOL0     H50445   2.675  10.864   6.998  0.5492 -0.5427 -0.8994
  366MOL0     H50446   2.797  10.792   7.095 -0.5429 -0.1874 -0.6619
  366MOL0     H50447   2.584  10.974   7.210  0.0087  1.3935  0.5017
  366MOL0     H50448   2.593  10.800   7.212 -1.0404  0.4892 -1.6259
  366MOL0     H50449   2.813  10.955   7.341 -1.0653  0.1208  0.1985
  366MOL0     H50450   2.791  10.780   7.335 -1.1504 -0.1431 -4.5194
  366MOL0     H50451   2.727  10.896   7.559 -1.4981 -1.7089  2.5909
  366MOL0     H50452   2.613  10.983   7.447  1.4612  0.4367 -2.0876
  366MOL0     H50453   2.500  10.754   7.393  1.8249 -2.0910 -1.4978
  366MOL0     H50454   2.475  10.801   7.559 -2.3126 -0.2168 -2.8411
  366MOL0     H50455   2.694  10.622   7.434 -2.0844  0.0443 -0.7530
  366MOL0     H50456   2.701  10.662   7.596  0.3294  2.8438 -0.2479
  366MOL0     H50457   2.423  10.610   7.718  0.5211  2.0607 -0.4848
  366MOL0     H50458   2.190  10.497   7.701 -2.1702  0.0616 -1.2148
  366MOL0     H50459   2.279  10.403   7.814 -0.7316  0.0262  0.5589
  366MOL0     H50460   2.057  10.310   7.731  1.6446  0.5207  2.9881
  366MOL0     H50461   2.128  10.292   7.568  1.4500 -1.1208  0.1640
  366MOL0     H50462   2.312  10.137   7.683  0.7251 -0.0310  1.7425
  366MOL0     H50463   2.193  10.153   7.821 -3.9028 -1.3704 -0.8613
  366MOL0     H50464   2.130  10.013   7.563  1.7831  1.2196  2.1652
  366MOL0     H50465   2.183   9.935   7.702  2.2316  0.3895  1.1856
  366MOL0     H50466   1.749  10.061   7.689 -1.1339  0.0131 -0.9937
  366MOL0     H50467   1.485   9.848   7.765 -2.3013  0.3850  0.8396
  366MOL0     H50468   1.486   9.870   7.588  0.9639 -2.9340  1.1207
  366MOL0     H50469   1.525  10.008   7.699  1.4746 -0.3483 -0.6536
  366MOL0     H50470   1.648   9.420   7.890  5.3976 -2.6174  0.6789
  366MOL0     H50471   1.538   9.219   7.975 -0.1630 -0.5030 -0.2476
  366MOL0     H50472   1.386   9.009   8.016 -0.8934  0.2499  0.1952
  366MOL0     H50473   1.294   9.114   7.901 -2.0074 -0.9063  3.1662
  366MOL0     H50474   1.195   8.921   7.792  1.7661 -1.9636 -1.5920
  366MOL0     H50475   1.275   8.812   7.888 -2.2961 -1.6730 -1.4597
  366MOL0     H50476   1.176   8.960   8.098 -0.0099 -0.1322 -0.8612
  366MOL0     H50477   1.082   8.850   8.005  1.0870 -1.1599 -2.5246
  366MOL0     H50478   0.955   9.021   7.902 -2.0791  2.2587  1.1961
  366MOL0     H50479   1.090   9.131   7.877  0.7084  1.6458  2.5102
  366MOL0     H50480   1.063   9.142   8.146  1.9919 -1.4694  0.5332
  366MOL0     H50481   0.984   9.257   8.038 -0.8490 -0.0420  1.1278
  366MOL0     H50482   0.836   9.030   8.171  0.2308 -0.1628 -0.5676
  366MOL0     H50483   0.769   9.096   8.033 -0.2549 -0.2216  0.3625
  366MOL0     H50484   0.764   9.325   8.125 -2.2255  1.8921  1.9364
  366MOL0     H50485   0.858   9.271   8.271 -0.1091  0.5397  1.0716
  366MOL0     H50486   0.611   9.285   8.313 -0.8580  0.2145 -1.8626
  366MOL0     H50487   0.694   9.144   8.363 -0.2650  0.0310 -0.7479
  366MOL0     H50488   1.501   9.065   7.574 -1.7106 -3.1613  4.2507
  366MOL0     H50489   1.593   9.270   7.484  1.0139 -0.4161  0.1290
  366MOL0     H50490   1.885   9.584   7.711 -2.7240 -0.9596  2.3872
  366MOL0     H50491   2.059   9.764   7.709 -0.7227 -0.2300 -0.3051
  366MOL0     H50492   3.182  10.986   7.013  1.6313  0.3256 -0.8991
  366MOL0     H50493   3.367  11.057   6.874 -0.5696 -0.8602  1.6829
  366MOL0     H50494   3.522  10.976   6.411 -0.1969 -0.5802  1.2135
  366MOL0     H50495   3.701  11.035   6.225  5.1571 -2.2419  0.0925
  366MOL0     H50496   3.760  11.330   6.296  1.0819  0.9488  1.1306
  366MOL0     H50497   3.928  11.384   6.296 -0.5356  0.9366  1.2533
  366MOL0     H50498   3.765  11.246   6.082 -0.2801  0.0686 -1.2456
  366MOL0     H50499   3.936  11.279   6.061 -0.7810 -2.0112  1.5515
  366MOL0     H50500   3.735  11.511   6.100  1.2773  1.7312 -0.9570
  366MOL0     H50501   3.878  11.519   6.012 -0.0392  0.7360 -0.0051
  366MOL0     H50502   3.695  11.507   5.848 -1.3203 -0.1947  1.4550
  366MOL0     H50503   3.648  11.347   5.913  1.5958 -1.3203 -0.1498
  366MOL0     H50504   3.980  11.260   5.665  1.9675  2.0945  0.0559
  366MOL0     H50505   3.930  11.205   6.530  1.3137 -0.3610  0.9384
  366MOL0     H50506   3.916  11.161   6.762  0.4266  1.8113  0.6661
  366MOL0     H50507   3.766  11.217   6.797  1.4233  0.9672  0.1804
  366MOL0     H50508   3.778  11.047   6.807 -1.9525  0.9549 -0.1955
  367MOL0     O50509   7.094   9.066  10.936  0.0868 -0.1472  0.1836
  367MOL0     C50510   6.985   9.122  10.959  0.0372 -0.8140 -0.5088
  367MOL0     O50511   6.866   9.087  10.894  0.3981 -0.8523 -0.3597
  367MOL0     C50512   6.880   9.006  10.780 -0.2230 -0.1678 -0.4516
  367MOL0     C50513   6.822   8.877  10.772 -0.0369  0.9625 -0.5701
  367MOL0     C50514   6.823   8.815  10.648 -0.5440 -0.6953 -0.0682
  367MOL0     C50515   6.858   8.883  10.526 -0.6623  0.0373  0.2574
  367MOL0     O50516   6.843   8.826  10.402  0.0051 -0.6534 -0.2809
  367MOL0     C50517   6.927   8.712  10.394 -0.0003 -0.3557 -0.4254
  367MOL0     C50518   7.047   8.773  10.320 -0.8324  0.8404  0.0923
  367MOL0     C50519   7.148   8.664  10.263 -0.6305  0.1323 -0.2657
  367MOL0     C50520   7.286   8.722  10.221  0.4007  0.0853  0.5253
  367MOL0     C50521   7.333   8.672  10.089 -0.4766  0.4188  0.0080
  367MOL0     C50522   7.481   8.698  10.051  0.3619  0.0097 -0.0468
  367MOL0     C50523   7.510   8.853  10.055 -0.2550 -0.0677 -0.3395
  367MOL0     C50524   7.653   8.890  10.033  0.3506 -1.3196 -0.2389
  367MOL0     N50525   7.690   8.869   9.888 -0.4020  0.0304 -0.3955
  367MOL0     C50526   7.758   8.765   9.841 -0.9964  0.3576 -0.5284
  367MOL0     C50527   7.814   8.798   9.724  1.0453  0.1797  0.3105
  367MOL0     C50528   7.927   8.738   9.650  0.1554 -0.1976  1.0464
  367MOL0     C50529   8.067   8.780   9.693 -0.0506 -1.0543  0.3210
  367MOL0     C50530   8.166   8.708   9.598 -0.4873  1.0036 -0.0945
  367MOL0     C50531   8.314   8.724   9.616  0.3937 -0.4104 -1.1514
  367MOL0     O50532   8.379   8.694   9.493  0.5119  0.0022 -0.2279
  367MOL0     C50533   8.521   8.690   9.487  0.5999  0.0823 -0.1960
  367MOL0     C50534   8.604   8.751   9.576 -0.2041 -0.4997  0.4536
  367MOL0     C50535   8.748   8.745   9.564 -0.4951 -0.6089 -0.1997
  367MOL0     C50536   8.820   8.814   9.672  1.0570 -0.5273  0.2136
  367MOL0     C50537   8.803   8.673   9.454 -0.1779 -1.4349 -0.0451
  367MOL0     C50538   8.955   8.658   9.432  0.1348  0.3461  0.4282
  367MOL0     O50539   9.034   8.641   9.549  0.3241  0.4816 -0.2635
  367MOL0     C50540   9.167   8.675   9.541 -0.5526 -0.2149 -0.1104
  367MOL0     C50541   9.212   8.783   9.619 -0.2784  0.0821 -0.3798
  367MOL0     C50542   9.351   8.826   9.619 -0.7211  1.3470  1.1425
  367MOL0     C50543   9.441   8.765   9.538 -0.5235  0.3795 -1.1218
  367MOL0     O50544   9.569   8.813   9.545 -0.1294 -0.5473 -1.2577
  367MOL0     C50545   9.655   8.825   9.430  0.0658  0.0733  0.1028
  367MOL0     C50546   9.724   8.957   9.431  0.1066  0.1089 -0.1740
  367MOL0     C50547   9.774   9.000   9.292  0.7531  0.5500  0.5388
  367MOL0     C50548   9.865   9.115   9.324  0.2114 -0.4206 -0.5605
  367MOL0     C50549   9.957   9.150   9.215  0.0400  0.2181  0.7487
  367MOL0     C50550  10.064   9.039   9.185  0.0918  0.0723 -0.4673
  367MOL0     C50551  10.149   9.088   9.072  0.9139  0.5275 -0.1725
  367MOL0     C50552  10.099   9.045   8.934 -0.7456 -0.2627 -0.1678
  367MOL0    Cl50553  10.191   9.146   8.823 -0.6974  0.1646  0.3420
  367MOL0     C50554   9.396   8.652   9.460  0.5136 -0.9576 -0.9080
  367MOL0     C50555   9.263   8.605   9.467 -0.2772 -0.3955 -0.4618
  367MOL0     O50556   8.994   8.654   9.316 -0.4886  0.7287  0.0897
  367MOL0     C50557   8.711   8.626   9.365 -0.4553  0.2078 -1.0563
  367MOL0     C50558   8.573   8.627   9.381 -0.0837  0.1724 -0.2073
  367MOL0     N50559   7.765   8.921   9.695 -0.5241 -1.3198  0.5209
  367MOL0     N50560   7.680   8.958   9.779 -0.4093  0.0992 -1.1752
  367MOL0     C50561   6.917   9.006  10.538 -0.1640 -0.1267 -0.7173
  367MOL0     C50562   6.927   9.068  10.660  0.6133 -0.0587  0.1080
  367MOL0     C50563   6.979   9.240  11.040 -0.0803  0.3423  0.4069
  367MOL0     C50564   7.067   9.347  11.019 -0.3585 -0.3516 -0.0801
  367MOL0     C50565   7.061   9.453  11.114 -0.6142 -0.2621  0.1609
  367MOL0     C50566   6.964   9.460  11.212 -0.1256  0.6647  0.0493
  367MOL0     O50567   6.968   9.564  11.304  0.3342 -0.4207 -0.0713
  367MOL0     C50568   7.015   9.541  11.434  0.3831  0.2078  0.0573
  367MOL0     C50569   7.162   9.593  11.434 -0.1535  0.2125 -0.1322
  367MOL0     C50570   7.202   9.617  11.580 -0.9059  0.2607  0.0953
  367MOL0     C50571   7.329   9.709  11.575 -0.4384  0.0707  0.1499
  367MOL0     C50572   7.356   9.769  11.713  0.5570  0.0866 -0.1973
  367MOL0     C50573   7.382   9.824  11.819 -0.5783  0.8440 -0.6577
  367MOL0     C50574   6.870   9.350  11.219  0.3289 -0.2521 -0.4159
  367MOL0     C50575   6.879   9.247  11.134 -0.5525  0.7572  0.3180
  367MOL0     C50576   6.780   9.141  11.158 -0.0611  1.0887  0.0582
  367MOL0     H50577   6.776   8.823  10.854  0.5382 -1.2428 -1.6305
  367MOL0     H50578   6.780   8.717  10.636  0.2355 -0.9959 -0.4541
  367MOL0     H50579   6.879   8.634  10.334 -0.6113 -0.7023  0.4923
  367MOL0     H50580   6.952   8.670  10.492 -0.6782  0.3954  0.0836
  367MOL0     H50581   7.007   8.811  10.226 -0.9077  0.5092 -0.0106
  367MOL0     H50582   7.096   8.856  10.373 -2.4809  2.1253 -0.3257
  367MOL0     H50583   7.180   8.591  10.337  0.3410  0.1542 -0.6581
  367MOL0     H50584   7.101   8.619  10.175 -0.5748 -2.0911  0.7983
  367MOL0     H50585   7.263   8.829  10.219  1.4206  0.3128  0.4346
  367MOL0     H50586   7.363   8.699  10.296  1.2991 -1.4091 -0.7838
  367MOL0     H50587   7.284   8.710   9.999 -1.2307 -3.3897 -1.4031
  367MOL0     H50588   7.328   8.563  10.077  0.1372  0.6872 -4.9021
  367MOL0     H50589   7.545   8.649  10.125  0.2026 -0.1181  0.0086
  367MOL0     H50590   7.506   8.659   9.952  1.1231  0.0907  0.1037
  367MOL0     H50591   7.477   8.892  10.152 -2.4056  2.5156 -1.9404
  367MOL0     H50592   7.444   8.906   9.985 -3.0853 -1.1801  1.3355
  367MOL0     H50593   7.671   8.995  10.058 -0.5536 -1.1756 -0.1810
  367MOL0     H50594   7.718   8.827  10.094 -0.1883 -2.4514 -0.7982
  367MOL0     H50595   7.782   8.669   9.885 -1.0142 -0.0374 -1.3597
  367MOL0     H50596   7.906   8.764   9.546  0.1531  0.4218  1.2004
  367MOL0     H50597   7.921   8.629   9.657  0.9817 -0.2132  1.5737
  367MOL0     H50598   8.077   8.889   9.691  0.9076 -0.8292  5.2432
  367MOL0     H50599   8.071   8.759   9.800 -1.0502 -1.0163  0.3778
  367MOL0     H50600   8.142   8.602   9.606 -1.0930  1.0291 -1.3102
  367MOL0     H50601   8.147   8.748   9.498 -5.1647 -1.6627 -0.5460
  367MOL0     H50602   8.328   8.824   9.657  1.0969 -1.4325  1.2536
  367MOL0     H50603   8.359   8.672   9.701 -1.7054 -0.0734  0.2341
  367MOL0     H50604   8.562   8.815   9.652  1.2059 -1.0206  1.7420
  367MOL0     H50605   8.816   8.754   9.764 -0.1933 -3.1772 -1.4503
  367MOL0     H50606   8.759   8.903   9.693  0.1571 -0.7827 -1.2416
  367MOL0     H50607   8.922   8.839   9.643  0.5445 -1.0988 -2.2760
  367MOL0     H50608   9.148   8.833   9.691 -0.1983 -0.4596  0.0795
  367MOL0     H50609   9.392   8.905   9.681 -1.8764  1.0659  2.3227
  367MOL0     H50610   9.718   8.735   9.430 -1.8374 -1.4308 -2.9435
  367MOL0     H50611   9.594   8.827   9.339 -1.9864 -1.9409  1.3128
  367MOL0     H50612   9.686   9.037   9.496  4.0375  1.2581  0.9787
  367MOL0     H50613   9.817   8.929   9.481 -0.0429 -0.7180 -0.3441
  367MOL0     H50614   9.692   9.020   9.223 -0.2898 -0.4109  1.4603
  367MOL0     H50615   9.828   8.915   9.247 -0.1679  0.2110  0.0445
  367MOL0     H50616   9.929   9.111   9.414  0.7850  0.6170 -0.9068
  367MOL0     H50617   9.808   9.203   9.355 -1.0789 -1.7223  1.0050
  367MOL0     H50618   9.899   9.159   9.123 -3.0632 -0.1241  2.5098
  367MOL0     H50619  10.003   9.249   9.226 -1.3620  0.8762  0.9780
  367MOL0     H50620  10.021   8.942   9.159  0.9018 -1.3084  2.8120
  367MOL0     H50621  10.140   9.022   9.262  0.2466  1.8840 -0.1759
  367MOL0     H50622  10.252   9.051   9.078  1.5914  2.0066 -1.8613
  367MOL0     H50623  10.147   9.196   9.062  1.0526  0.4726 -0.8298
  367MOL0     H50624   9.992   9.061   8.922 -0.4181  2.8646  0.1767
  367MOL0     H50625  10.115   8.939   8.916  0.2365 -0.0036 -0.9579
  367MOL0     H50626   9.474   8.608   9.397 -0.6000  0.3936 -3.3606
  367MOL0     H50627   9.234   8.524   9.401  2.2225  0.6251 -3.0067
  367MOL0     H50628   8.745   8.560   9.286  2.9538 -0.8087  1.0485
  367MOL0     H50629   8.512   8.570   9.312  4.1682 -1.4371 -3.0586
  367MOL0     H50630   6.959   9.063  10.456  3.0203 -0.6082  0.4467
  367MOL0     H50631   6.996   9.152  10.663  3.2007 -1.8752 -2.7182
  367MOL0     H50632   7.134   9.351  10.934  1.0861 -0.7918  0.9819
  367MOL0     H50633   7.128   9.537  11.098  0.9980 -1.1000  2.0949
  367MOL0     H50634   6.950   9.595  11.503  1.3586 -1.0745  2.1020
  367MOL0     H50635   7.007   9.434  11.455  2.1080  0.2924  1.4160
  367MOL0     H50636   7.154   9.689  11.383 -0.2077 -0.0617 -0.6439
  367MOL0     H50637   7.228   9.526  11.377  1.3836  0.2780  1.4947
  367MOL0     H50638   7.123   9.666  11.636 -2.9650 -1.0720 -1.4889
  367MOL0     H50639   7.233   9.523  11.626 -0.7340  0.7140  0.9247
  367MOL0     H50640   7.310   9.791  11.505 -1.1505 -0.4246 -0.2509
  367MOL0     H50641   7.412   9.644  11.545  1.1308  1.6220  0.9107
  367MOL0     H50642   7.398   9.881  11.909  1.1859  2.8441 -2.1284
  367MOL0     H50643   6.807   9.340  11.307  0.2825  1.6380 -0.1765
  367MOL0     H50644   6.738   9.141  11.259 -3.6242 -1.1195 -1.2513
  367MOL0     H50645   6.695   9.164  11.093 -0.5041 -0.6233 -0.0154
  367MOL0     H50646   6.825   9.042  11.141  1.7765  2.0657 -1.1155
  368MOL0     O50647   1.946   1.151   8.938 -0.2809 -0.6310  0.4837
  368MOL0     C50648   1.935   1.080   9.038 -0.3472  0.5474  0.3322
  368MOL0     O50649   1.824   1.019   9.092 -0.0843 -0.3301  0.2274
  368MOL0     C50650   1.707   1.051   9.015 -0.8506  0.1735 -0.8736
  368MOL0     C50651   1.679   0.968   8.913 -0.1287  0.1734  0.0122
  368MOL0     C50652   1.568   0.980   8.830 -0.3774  0.4495  1.0048
  368MOL0     C50653   1.488   1.092   8.841 -1.0159 -1.3490 -1.0640
  368MOL0     O50654   1.391   1.109   8.744  0.3002  0.2089 -0.2817
  368MOL0     C50655   1.355   1.240   8.706 -0.4766  0.2442  0.8237
  368MOL0     C50656   1.475   1.322   8.661 -0.0013 -0.3698  0.3131
  368MOL0     C50657   1.450   1.453   8.593  0.3838  0.1159  0.4916
  368MOL0     C50658   1.581   1.502   8.522  0.5502  0.3591  0.7646
  368MOL0     C50659   1.622   1.420   8.394 -0.7089  1.0191  0.6315
  368MOL0     C50660   1.725   1.503   8.313 -0.0259  1.2106 -0.5374
  368MOL0     C50661   1.784   1.443   8.179 -0.1933  0.1601  0.3881
  368MOL0     C50662   1.841   1.552   8.104 -0.1721 -0.2215  0.6294
  368MOL0     N50663   1.918   1.497   7.984  0.0288 -0.6226 -0.4176
  368MOL0     C50664   1.863   1.500   7.861  0.8787 -0.4253  1.9718
  368MOL0     C50665   1.958   1.435   7.780  1.0223  0.5704  0.8025
  368MOL0     C50666   1.959   1.413   7.633  0.1386  0.2374  0.8242
  368MOL0     C50667   1.935   1.267   7.596  0.3698 -0.0768  0.8026
  368MOL0     C50668   2.051   1.166   7.629 -0.8127 -0.1133  0.5172
  368MOL0     C50669   2.026   1.018   7.591  0.4740 -0.1462 -0.6245
  368MOL0     O50670   2.127   0.926   7.632 -0.2821 -0.7508  0.3002
  368MOL0     C50671   2.088   0.843   7.730 -0.4236  0.8826 -0.6239
  368MOL0     C50672   2.095   0.703   7.718  0.1292  0.1878  1.2057
  368MOL0     C50673   2.087   0.620   7.829  0.4481  0.2520  0.3983
  368MOL0     C50674   2.065   0.471   7.796 -0.2513 -0.8839  0.9877
  368MOL0     C50675   2.071   0.672   7.961 -1.2053 -0.1599 -0.2031
  368MOL0     C50676   2.084   0.594   8.091  0.3837 -0.8530  0.4010
  368MOL0     O50677   2.029   0.645   8.205  0.2609  0.1200 -0.1071
  368MOL0     C50678   2.028   0.554   8.315  0.4017  0.6319 -0.1123
  368MOL0     C50679   2.108   0.585   8.426 -0.2691  0.7901 -0.4786
  368MOL0     C50680   2.106   0.501   8.541  0.5146 -0.6452  0.5662
  368MOL0     C50681   2.032   0.389   8.547 -0.5059 -0.4573 -0.1771
  368MOL0     O50682   2.020   0.314   8.660 -0.0322 -0.5212  0.6618
  368MOL0     C50683   2.145   0.283   8.726 -0.0501 -0.9005  0.1255
  368MOL0     C50684   2.164   0.373   8.855  0.2347  0.2233 -0.0299
  368MOL0     C50685   2.042   0.379   8.941  0.4732  0.7878  0.7827
  368MOL0     C50686   2.065   0.426   9.086  0.3928 -0.0135 -0.6351
  368MOL0     C50687   1.925   0.459   9.156  0.1873  0.6869  0.4868
  368MOL0     C50688   1.871   0.604   9.156  0.1441 -0.2406 -0.7797
  368MOL0     C50689   1.730   0.594   9.197  0.3855  0.2969 -0.6707
  368MOL0     C50690   1.644   0.721   9.214  0.1513 -0.3497 -0.8159
  368MOL0    Cl50691   1.479   0.667   9.192  0.3819  0.0018 -0.0073
  368MOL0     C50692   1.965   0.347   8.431 -0.0822  0.1653  0.0550
  368MOL0     C50693   1.967   0.429   8.310  0.4568  0.2169  0.2116
  368MOL0     O50694   2.170   0.497   8.081 -0.1310  0.5575  0.2489
  368MOL0     C50695   2.063   0.810   7.967  1.0170  0.0135  0.2243
  368MOL0     C50696   2.072   0.899   7.858 -0.2588 -0.8210  0.0188
  368MOL0     N50697   2.059   1.387   7.854  0.3162 -0.6182  0.1640
  368MOL0     N50698   2.037   1.426   7.976 -0.3853  0.0123 -0.9633
  368MOL0     C50699   1.515   1.188   8.946 -0.0474 -0.1520  0.3982
  368MOL0     C50700   1.623   1.162   9.025 -0.3314 -0.4679 -0.4241
  368MOL0     C50701   2.056   1.060   9.128 -0.7547 -0.7560 -1.0707
  368MOL0     C50702   2.060   0.948   9.228 -0.6376  0.4555  0.9116
  368MOL0     C50703   2.163   0.925   9.319  0.1751  0.1253  0.1200
  368MOL0     C50704   2.279   0.996   9.316 -0.5152 -0.3863 -0.5698
  368MOL0     O50705   2.384   0.977   9.407 -0.2442  0.6149  0.1638
  368MOL0     C50706   2.393   0.837   9.451  0.7178  0.6920  0.0150
  368MOL0     C50707   2.317   0.813   9.587  0.6372 -0.0395 -0.0741
  368MOL0     C50708   2.400   0.796   9.709 -0.1239  0.5009  0.5326
  368MOL0     C50709   2.495   0.676   9.706  0.5382  1.0013  0.1197
  368MOL0     C50710   2.578   0.675   9.826 -0.5742 -0.0921  0.1223
  368MOL0     C50711   2.634   0.677   9.934 -0.1483  0.4235  0.1886
  368MOL0     C50712   2.278   1.104   9.224 -0.3442 -0.4378 -0.3282
  368MOL0     C50713   2.173   1.135   9.134  0.2624  0.0615 -0.0583
  368MOL0     C50714   2.177   1.269   9.063 -0.0099  0.1165 -0.2031
  368MOL0     H50715   1.751   0.887   8.906 -2.4341 -1.9364 -0.8350
  368MOL0     H50716   1.555   0.914   8.744 -0.8172  0.3078  1.1801
  368MOL0     H50717   1.302   1.291   8.787 -2.0055 -0.6205  0.3922
  368MOL0     H50718   1.290   1.252   8.619 -1.6408  2.9396  1.9593
  368MOL0     H50719   1.549   1.332   8.741 -1.3500 -3.0209  2.0085
  368MOL0     H50720   1.520   1.264   8.580 -3.2125  0.4637 -2.2833
  368MOL0     H50721   1.377   1.451   8.512  5.1066 -0.5872 -4.3963
  368MOL0     H50722   1.416   1.528   8.665 -3.1403 -0.6105 -0.2294
  368MOL0     H50723   1.562   1.605   8.490  1.9192  0.6329  0.7685
  368MOL0     H50724   1.665   1.495   8.591  1.3005 -0.4807 -0.2057
  368MOL0     H50725   1.539   1.389   8.331  0.7882 -3.4389  0.5382
  368MOL0     H50726   1.655   1.325   8.437  0.3604  2.2198  2.6771
  368MOL0     H50727   1.677   1.597   8.283  1.1706  1.3628 -2.1045
  368MOL0     H50728   1.806   1.511   8.387 -0.6825  2.1056  0.1034
  368MOL0     H50729   1.708   1.395   8.117  0.0294  0.8715 -0.4692
  368MOL0     H50730   1.866   1.379   8.211  1.0760  0.4904 -1.9673
  368MOL0     H50731   1.764   1.617   8.061  1.0022  0.8605  0.1333
  368MOL0     H50732   1.906   1.605   8.173 -2.5143  0.0891  2.7458
  368MOL0     H50733   1.764   1.538   7.837  2.3033  1.8308 -1.0665
  368MOL0     H50734   2.049   1.448   7.582  0.2375 -1.0570  0.0648
  368MOL0     H50735   1.878   1.470   7.587  1.0073 -1.3094 -3.0367
  368MOL0     H50736   1.852   1.237   7.660  0.6801 -0.2233  1.1392
  368MOL0     H50737   1.906   1.268   7.490  2.4436 -1.4766  0.1642
  368MOL0     H50738   2.129   1.203   7.563  0.5106 -1.9332  1.0059
  368MOL0     H50739   2.088   1.185   7.730 -2.0771 -0.1020  0.9973
  368MOL0     H50740   1.929   0.984   7.629 -0.9679  2.2300 -1.9258
  368MOL0     H50741   2.029   1.019   7.482 -1.6108  1.9833 -0.7738
  368MOL0     H50742   2.121   0.653   7.625  0.5192  0.3883  1.2039
  368MOL0     H50743   2.153   0.409   7.814  0.8898  0.4580  0.2790
  368MOL0     H50744   2.015   0.459   7.699  0.2869  2.1375  0.2192
  368MOL0     H50745   1.986   0.448   7.868  1.1628 -1.2709  2.4643
  368MOL0     H50746   2.164   0.678   8.417  0.3742  0.5764  1.0558
  368MOL0     H50747   2.171   0.543   8.617  2.9280 -1.6807 -0.7642
  368MOL0     H50748   2.136   0.185   8.773  1.2744 -0.8946  0.4489
  368MOL0     H50749   2.234   0.294   8.664  0.4437 -1.2595  0.7576
  368MOL0     H50750   2.248   0.321   8.904  0.5280  0.5635 -0.1649
  368MOL0     H50751   2.185   0.477   8.830  4.3018 -0.1556  0.9372
  368MOL0     H50752   1.994   0.282   8.962 -3.1593  2.8883  3.3085
  368MOL0     H50753   1.959   0.437   8.900 -0.1644  1.6493  3.1392
  368MOL0     H50754   2.134   0.510   9.095 -0.3242  0.3863  2.3493
  368MOL0     H50755   2.107   0.344   9.145 -1.7779 -0.1812  0.7740
  368MOL0     H50756   1.848   0.387   9.126  0.4752  0.7102 -0.3396
  368MOL0     H50757   1.967   0.440   9.255  2.3461  1.5851 -0.1866
  368MOL0     H50758   1.876   0.646   9.055 -1.4032 -1.6918 -1.5118
  368MOL0     H50759   1.935   0.660   9.225  0.3082 -1.7406  0.3163
  368MOL0     H50760   1.739   0.542   9.293  2.5550  0.7143 -0.6015
  368MOL0     H50761   1.682   0.535   9.119 -1.9151  2.4347 -1.0270
  368MOL0     H50762   1.668   0.792   9.135 -0.8351  0.8449 -0.0858
  368MOL0     H50763   1.673   0.770   9.308  3.2892  0.4252 -2.0379
  368MOL0     H50764   1.907   0.256   8.437 -3.5172  2.1410 -0.5359
  368MOL0     H50765   1.923   0.388   8.220 -4.8570 -0.2033  2.5898
  368MOL0     H50766   2.050   0.851   8.066 -1.2187 -2.9523  1.2958
  368MOL0     H50767   2.064   1.004   7.883  0.0244 -1.2192  1.9757
  368MOL0     H50768   1.460   1.281   8.962  0.4253  0.2167 -0.0785
  368MOL0     H50769   1.641   1.230   9.108  0.1502 -2.2515  0.9986
  368MOL0     H50770   1.973   0.882   9.229 -0.3655 -0.0285 -1.6452
  368MOL0     H50771   2.136   0.842   9.383 -3.0235  1.3522  0.5582
  368MOL0     H50772   2.343   0.770   9.379  0.4366 -0.4264  1.2059
  368MOL0     H50773   2.499   0.812   9.448  0.8603  0.7001  2.6044
  368MOL0     H50774   2.262   0.720   9.575  0.7550 -0.1073 -0.0931
  368MOL0     H50775   2.243   0.892   9.604 -0.3110 -0.7707 -0.7416
  368MOL0     H50776   2.470   0.878   9.731 -1.8196  1.7451  1.5721
  368MOL0     H50777   2.329   0.793   9.792  0.1657  1.2663  0.8247
  368MOL0     H50778   2.565   0.680   9.621  2.1641 -0.1896  1.3332
  368MOL0     H50779   2.454   0.575   9.705  1.9643  0.3906 -1.2086
  368MOL0     H50780   2.667   0.666  10.036  3.1566  2.5076 -0.5194
  368MOL0     H50781   2.364   1.170   9.229 -0.5846  0.0226 -1.7704
  368MOL0     H50782   2.080   1.314   9.038 -0.6264 -1.2865 -0.3960
  368MOL0     H50783   2.255   1.329   9.112  0.1428  0.3094 -0.6758
  368MOL0     H50784   2.217   1.257   8.962 -0.9625 -0.5878 -0.5095
  369MOL0     O50785   0.446  10.430  10.000  1.0105 -0.5012  0.3650
  369MOL0     C50786   0.422  10.476   9.889  1.0435  0.1648 -0.4530
  369MOL0     O50787   0.379  10.606   9.863 -0.7292 -0.5502  0.2924
  369MOL0     C50788   0.363  10.715   9.943 -0.1900 -0.5058 -0.2459
  369MOL0     C50789   0.300  10.835   9.892  1.2354  0.6934 -0.3451
  369MOL0     C50790   0.292  10.954   9.971 -0.6802 -0.5687  0.4965
  369MOL0     C50791   0.353  10.957  10.094 -0.3424 -0.4672 -0.9280
  369MOL0     O50792   0.323  11.072  10.161  0.1351  0.2587 -1.2196
  369MOL0     C50793   0.410  11.109  10.268  0.2126  0.3503 -0.9036
  369MOL0     C50794   0.545  11.157  10.208 -0.4055 -0.2673  0.2692
  369MOL0     C50795   0.625  11.229  10.313  0.1123 -0.1501 -0.0160
  369MOL0     C50796   0.772  11.242  10.258 -0.1155 -0.7395  0.5354
  369MOL0     C50797   0.871  11.315  10.359  0.2749  0.1994  0.1909
  369MOL0     C50798   1.012  11.338  10.302  0.6135  0.5366 -0.7437
  369MOL0     C50799   1.105  11.429  10.386 -0.5484 -0.9466 -0.4712
  369MOL0     C50800   1.250  11.446  10.346 -0.1191 -0.6464  1.1294
  369MOL0     N50801   1.305  11.584  10.376  0.3069  0.0185 -0.0994
  369MOL0     C50802   1.235  11.696  10.333 -0.3177 -0.3219 -0.0690
  369MOL0     C50803   1.315  11.792  10.359 -0.4294 -0.6946  0.2552
  369MOL0     C50804   1.285  11.942  10.332 -0.1563  0.1173 -0.6185
  369MOL0     C50805   1.376  12.039  10.404 -0.6458 -0.1056  0.0554
  369MOL0     C50806   1.321  12.172  10.366 -0.0605 -0.1707  0.4581
  369MOL0     C50807   1.402  12.268  10.446 -1.1543 -0.2932  0.8075
  369MOL0     O50808   1.531  12.284  10.386  0.5363 -0.2942 -0.3930
  369MOL0     C50809   1.560  12.345  10.267 -0.1886 -0.4004  0.3689
  369MOL0     C50810   1.463  12.410  10.188 -0.9145  0.3308 -0.6486
  369MOL0     C50811   1.504  12.489  10.085  0.3524 -0.2487  0.4238
  369MOL0     C50812   1.390  12.566  10.009  0.7686 -0.4499 -1.1482
  369MOL0     C50813   1.641  12.501  10.042  0.3510 -0.6460  0.5743
  369MOL0     C50814   1.695  12.569   9.917  0.7998  0.2778 -0.2432
  369MOL0     O50815   1.817  12.550   9.880 -0.1166  0.0393 -0.0336
  369MOL0     C50816   1.884  12.646   9.808 -0.0770 -0.1372 -1.1074
  369MOL0     C50817   1.985  12.608   9.725  0.7524  0.1166  0.7307
  369MOL0     C50818   2.065  12.701   9.659  0.8176 -0.5444 -0.1241
  369MOL0     C50819   2.035  12.840   9.668 -0.4631 -0.3970 -0.2003
  369MOL0     O50820   2.118  12.913   9.585  0.3794 -0.3549  0.6023
  369MOL0     C50821   2.066  13.004   9.484  0.6935 -0.0431 -0.2007
  369MOL0     C50822   1.941  13.085   9.523  0.7530 -0.5529  0.3975
  369MOL0     C50823   1.884  13.173   9.412 -0.4435  0.1949  0.6329
  369MOL0     C50824   1.786  13.290   9.456 -0.5177  0.2881 -0.0702
  369MOL0     C50825   1.743  13.381   9.333 -0.2320  0.0354 -0.7969
  369MOL0     C50826   1.611  13.450   9.344  0.4708 -0.2154 -0.5805
  369MOL0     C50827   1.572  13.524   9.219 -0.2988  1.1141  0.0647
  369MOL0     C50828   1.559  13.675   9.236  0.3958  0.0331  0.3027
  369MOL0    Cl50829   1.479  13.768   9.104  0.3377 -0.1573 -0.5026
  369MOL0     C50830   1.945  12.884   9.768 -0.2278  0.2316 -0.3700
  369MOL0     C50831   1.870  12.785   9.826 -0.1026 -1.2208 -0.3068
  369MOL0     O50832   1.606  12.625   9.847 -0.2978 -0.3218 -0.1087
  369MOL0     C50833   1.731  12.436  10.118 -0.1135 -0.3583 -0.4833
  369MOL0     C50834   1.698  12.356  10.230  0.0031  0.7258 -0.4289
  369MOL0     N50835   1.429  11.748  10.418  0.8092 -0.0535 -0.0307
  369MOL0     N50836   1.423  11.618  10.424 -0.1507  0.1706  0.6839
  369MOL0     C50837   0.423  10.843  10.141  0.4088  0.5413 -1.4581
  369MOL0     C50838   0.432  10.726  10.066 -0.7525  0.3050  0.2704
  369MOL0     C50839   0.435  10.383   9.784  0.1382 -0.5705  0.4573
  369MOL0     C50840   0.510  10.421   9.671  0.4801 -0.6929 -0.1251
  369MOL0     C50841   0.539  10.339   9.564 -0.7268 -0.8806  0.3581
  369MOL0     C50842   0.495  10.204   9.573 -0.5991  0.2302  0.8238
  369MOL0     O50843   0.514  10.106   9.478  0.2555  0.2354  0.1438
  369MOL0     C50844   0.582  10.143   9.353  0.3073  0.0247 -0.8579
  369MOL0     C50845   0.738  10.161   9.380  0.4524  0.8230  0.5267
  369MOL0     C50846   0.817  10.022   9.375  0.8843 -0.6946  0.1219
  369MOL0     C50847   0.950  10.036   9.428  0.3481  0.0375 -0.6413
  369MOL0     C50848   1.026   9.914   9.402  0.2357 -0.3033 -0.2677
  369MOL0     C50849   1.100   9.813   9.387  0.2619 -0.0198 -0.4858
  369MOL0     C50850   0.424  10.161   9.680 -0.6018  0.6813  0.2841
  369MOL0     C50851   0.392  10.244   9.786 -0.2132  0.0448  0.1951
  369MOL0     C50852   0.298  10.188   9.892 -0.0886 -0.0790  0.5810
  369MOL0     H50853   0.252  10.824   9.796  2.7009 -0.5376 -0.9733
  369MOL0     H50854   0.231  11.038   9.943 -2.7881 -2.1295  0.1548
  369MOL0     H50855   0.422  11.023  10.334  0.6298 -1.7804 -3.6048
  369MOL0     H50856   0.363  11.190  10.325 -0.2048  0.6885 -1.7090
  369MOL0     H50857   0.607  11.070  10.188  0.3136 -1.2890  5.5295
  369MOL0     H50858   0.539  11.229  10.126  2.0030 -1.2402 -0.8384
  369MOL0     H50859   0.575  11.324  10.336  0.5046 -0.0531  0.4427
  369MOL0     H50860   0.632  11.168  10.404  1.0447  0.5473  0.3983
  369MOL0     H50861   0.819  11.145  10.235 -3.4539 -2.9652  2.2923
  369MOL0     H50862   0.769  11.303  10.168 -0.3143 -0.9253  0.4148
  369MOL0     H50863   0.866  11.262  10.454  0.1724  1.3822  0.8749
  369MOL0     H50864   0.831  11.416  10.372 -1.7786 -0.7640  1.9819
  369MOL0     H50865   1.058  11.239  10.289 -0.9673 -0.1900 -1.0727
  369MOL0     H50866   1.005  11.380  10.201  3.0929  0.4428 -1.0300
  369MOL0     H50867   1.096  11.401  10.492  1.0971 -0.0539 -0.0700
  369MOL0     H50868   1.053  11.525  10.376  1.6953  0.3297 -0.4590
  369MOL0     H50869   1.303  11.372  10.407  2.3617 -1.0142 -1.2417
  369MOL0     H50870   1.271  11.416  10.243 -0.3076  2.7220 -0.0186
  369MOL0     H50871   1.148  11.700  10.268  0.4448 -0.8222 -1.1602
  369MOL0     H50872   1.178  11.950  10.356  0.1121  0.0400  0.6471
  369MOL0     H50873   1.298  11.962  10.226 -1.8029 -1.2138 -1.1274
  369MOL0     H50874   1.370  11.999  10.506  0.9029 -3.4215 -1.0055
  369MOL0     H50875   1.481  12.024  10.377  0.2487  0.6412  2.7578
  369MOL0     H50876   1.331  12.192  10.259  3.6157  0.3086  0.7674
  369MOL0     H50877   1.218  12.185  10.400 -0.1658  0.1433  0.0189
  369MOL0     H50878   1.348  12.363  10.452 -3.1750 -1.4686  2.4875
  369MOL0     H50879   1.417  12.236  10.549 -1.7085  0.9748  1.3070
  369MOL0     H50880   1.365  12.403  10.234 -0.0541 -0.5612  1.1982
  369MOL0     H50881   1.374  12.539   9.904 -4.5272  1.7183 -1.2270
  369MOL0     H50882   1.412  12.673  10.003  0.2778 -0.3795 -1.8272
  369MOL0     H50883   1.288  12.554  10.047  1.6337 -0.1113  1.4569
  369MOL0     H50884   2.011  12.503   9.722 -1.1280 -0.4554  2.2990
  369MOL0     H50885   2.135  12.670   9.582  0.2669  0.9372 -1.2634
  369MOL0     H50886   2.146  13.055   9.430 -0.8333  0.9802 -1.5556
  369MOL0     H50887   2.021  12.936   9.412  2.8881 -1.0822 -0.6793
  369MOL0     H50888   1.860  13.021   9.558 -1.4320  1.1006 -1.3066
  369MOL0     H50889   1.963  13.151   9.608  1.8959  1.0496 -1.0618
  369MOL0     H50890   1.844  13.108   9.335 -1.2265  0.9587  0.3784
  369MOL0     H50891   1.961  13.231   9.360 -0.5778 -0.4274 -0.2726
  369MOL0     H50892   1.835  13.355   9.529  1.9532 -0.6856 -0.7768
  369MOL0     H50893   1.703  13.240   9.506  0.7207 -3.8905 -1.7519
  369MOL0     H50894   1.815  13.462   9.318 -2.2316  2.4016  1.4099
  369MOL0     H50895   1.733  13.316   9.246 -0.7280 -2.2030  0.8301
  369MOL0     H50896   1.613  13.517   9.430  3.2733 -0.3376 -0.4663
  369MOL0     H50897   1.531  13.379   9.366 -1.3580  1.9157  0.0446
  369MOL0     H50898   1.471  13.486   9.196  0.9677 -1.6598 -1.3838
  369MOL0     H50899   1.639  13.504   9.135  0.4192 -0.5395  0.9772
  369MOL0     H50900   1.666  13.701   9.236  0.9742 -2.1344  0.6022
  369MOL0     H50901   1.508  13.695   9.330  0.3948  6.0164 -0.5938
  369MOL0     H50902   1.917  12.987   9.793 -0.4203  0.2558 -0.6803
  369MOL0     H50903   1.803  12.817   9.905  2.1941 -0.7788  1.5966
  369MOL0     H50904   1.836  12.448  10.092 -0.0840  0.3277 -0.0814
  369MOL0     H50905   1.774  12.310  10.292 -1.4600 -2.6704 -0.8996
  369MOL0     H50906   0.486  10.840  10.229 -0.7269 -0.3457 -0.6507
  369MOL0     H50907   0.502  10.652  10.102 -1.2159  0.0112  0.5796
  369MOL0     H50908   0.545  10.524   9.666 -1.9740  0.4371  2.7823
  369MOL0     H50909   0.595  10.378   9.480 -0.8555  1.1683  1.1748
  369MOL0     H50910   0.565  10.071   9.273  1.1692  0.6815 -1.6524
  369MOL0     H50911   0.543  10.233   9.304 -0.4748 -1.0491 -2.2652
  369MOL0     H50912   0.754  10.207   9.478 -1.7497 -1.9686  2.3385
  369MOL0     H50913   0.771  10.231   9.302 -0.1515  1.9634  1.2684
  369MOL0     H50914   0.755   9.943   9.420 -0.0015 -0.1966 -0.1976
  369MOL0     H50915   0.824  10.009   9.267  0.0695  0.0628 -0.0274
  369MOL0     H50916   0.933  10.072   9.530 -1.7606  2.5649 -1.7596
  369MOL0     H50917   0.991  10.119   9.370 -1.6226  0.6240 -1.2441
  369MOL0     H50918   1.155   9.724   9.365  1.0422  0.4563 -0.4975
  369MOL0     H50919   0.391  10.058   9.679  4.1870 -1.1615 -2.4759
  369MOL0     H50920   0.240  10.259   9.953 -0.6284 -0.8845  1.0283
  369MOL0     H50921   0.223  10.137   9.830  2.5208 -2.8916 -0.5071
  369MOL0     H50922   0.345  10.114   9.958 -2.0766 -1.1316  0.9063
  370MOL0     O50923   0.384   1.418   0.802  0.5519  0.2408  0.0536
  370MOL0     C50924   0.482   1.347   0.829  0.4525 -0.3546  0.5964
  370MOL0     O50925   0.570   1.371   0.929  0.5108  0.2486 -0.0434
  370MOL0     C50926   0.550   1.484   1.007  0.5869 -0.4616  0.3361
  370MOL0     C50927   0.571   1.607   0.945  1.3748 -0.7372  0.7982
  370MOL0     C50928   0.586   1.719   1.030 -0.1924 -0.5646  0.5026
  370MOL0     C50929   0.572   1.699   1.173  0.8162 -0.4885  0.0600
  370MOL0     O50930   0.580   1.801   1.271 -0.8052  0.5361  0.3529
  370MOL0     C50931   0.480   1.813   1.372  0.8972 -1.1503 -0.0333
  370MOL0     C50932   0.501   1.951   1.446  0.0572  0.1930  0.2313
  370MOL0     C50933   0.639   1.942   1.498 -0.0780  0.2545 -0.0321
  370MOL0     C50934   0.678   2.085   1.555  0.4657  1.1216 -0.4367
  370MOL0     C50935   0.826   2.130   1.531  0.5411  0.4088 -0.7796
  370MOL0     C50936   0.848   2.272   1.598 -0.0963  0.0815 -0.0549
  370MOL0     C50937   0.999   2.313   1.565  0.8165 -0.1455 -1.0501
  370MOL0     C50938   1.006   2.477   1.564 -0.1849 -0.1440  0.9452
  370MOL0     N50939   0.916   2.530   1.453  0.0727 -0.4354 -0.1427
  370MOL0     C50940   0.821   2.628   1.465  0.3877  0.4539  0.1590
  370MOL0     C50941   0.748   2.623   1.346  0.0731 -0.4182 -1.1919
  370MOL0     C50942   0.638   2.717   1.297 -0.0879 -0.5032  0.3093
  370MOL0     C50943   0.677   2.827   1.198 -0.5039  0.8111 -0.1121
  370MOL0     C50944   0.557   2.919   1.169 -0.0417 -0.8363 -0.7671
  370MOL0     C50945   0.580   3.041   1.073 -0.6095  0.7100 -0.9655
  370MOL0     O50946   0.654   3.139   1.158 -1.4215  0.6350  0.1875
  370MOL0     C50947   0.617   3.270   1.136 -0.7216 -0.0168  0.1400
  370MOL0     C50948   0.630   3.360   1.243  0.1415 -0.1635  1.0566
  370MOL0     C50949   0.591   3.493   1.231  0.0152 -0.1883 -0.6403
  370MOL0     C50950   0.586   3.578   1.356 -0.2031  0.7171 -0.6950
  370MOL0     C50951   0.556   3.544   1.104  0.4207  0.4590 -0.3565
  370MOL0     C50952   0.502   3.679   1.073  0.7632  0.4061 -0.0591
  370MOL0     O50953   0.453   3.715   0.951  0.3561  0.5184  0.6658
  370MOL0     C50954   0.407   3.845   0.930 -1.4079 -0.4606  0.3741
  370MOL0     C50955   0.274   3.872   0.908  0.5607  0.8758 -0.3516
  370MOL0     C50956   0.222   4.002   0.898 -0.1007 -0.6823 -0.0835
  370MOL0     C50957   0.313   4.110   0.891 -0.6338 -0.5066 -0.3895
  370MOL0     O50958   0.278   4.243   0.875 -0.5498 -0.0510  0.3153
  370MOL0     C50959   0.326   4.331   0.982  0.1541  0.3417 -0.0848
  370MOL0     C50960   0.378   4.451   0.913 -0.5707  0.7816  0.4169
  370MOL0     C50961   0.263   4.528   0.842  0.2995 -0.1225 -0.1228
  370MOL0     C50962   0.282   4.674   0.854  0.1703 -0.4969  1.0071
  370MOL0     C50963   0.168   4.749   0.783  0.1436  0.1824 -0.4845
  370MOL0     C50964   0.165   4.748   0.628  0.0513 -0.4526  0.1625
  370MOL0     C50965   0.070   4.851   0.563  0.0188 -0.1924  1.1750
  370MOL0     C50966   0.088   4.856   0.409 -0.0223 -0.0249 -0.9897
  370MOL0    Cl50967  -0.046   4.958   0.347  0.4054 -0.4383  0.2742
  370MOL0     C50968   0.448   4.076   0.890  0.2128  0.0552  0.7385
  370MOL0     C50969   0.497   3.952   0.918  1.2670  0.8959 -0.3739
  370MOL0     O50970   0.530   3.761   1.158  0.2264 -0.1743 -0.0950
  370MOL0     C50971   0.562   3.457   0.992  0.9599  0.3989 -0.1689
  370MOL0     C50972   0.587   3.321   1.013  0.5637 -0.1830 -0.0317
  370MOL0     N50973   0.818   2.537   1.263  0.2721 -0.6783  0.0245
  370MOL0     N50974   0.919   2.485   1.324 -0.6745  0.1413 -0.3945
  370MOL0     C50975   0.531   1.574   1.227 -0.0743 -0.3597 -0.3127
  370MOL0     C50976   0.526   1.469   1.140  0.0537  0.3433  0.2194
  370MOL0     C50977   0.499   1.222   0.749 -0.3957  0.1903  0.6949
  370MOL0     C50978   0.385   1.144   0.707 -0.2501 -0.2688  0.3632
  370MOL0     C50979   0.403   1.032   0.629 -0.4073  0.0565  0.0222
  370MOL0     C50980   0.524   0.987   0.580  0.7857  0.4362 -0.3971
  370MOL0     O50981   0.520   0.864   0.507 -0.5469 -0.5107 -0.1498
  370MOL0     C50982   0.647   0.840   0.444 -0.0590 -0.3164  0.7206
  370MOL0     C50983   0.662   0.698   0.393 -0.1331  0.5208 -0.3127
  370MOL0     C50984   0.793   0.681   0.304  0.3327 -0.6118 -0.3330
  370MOL0     C50985   0.805   0.544   0.220  0.5071  0.0124  0.3111
  370MOL0     C50986   0.926   0.534   0.144 -0.7326 -0.4177  0.2622
  370MOL0     C50987   1.011   0.520   0.053  0.3806  0.4198 -0.8184
  370MOL0     C50988   0.634   1.064   0.615 -0.8084 -0.0240  0.7257
  370MOL0     C50989   0.628   1.180   0.695 -0.5341  0.9655 -1.3751
  370MOL0     C50990   0.752   1.246   0.732  0.5864 -0.4196  0.8894
  370MOL0     H50991   0.592   1.623   0.840  1.1441 -0.8571  0.7347
  370MOL0     H50992   0.623   1.814   0.993 -0.8269 -0.8985 -1.0577
  370MOL0     H50993   0.492   1.727   1.439 -2.4286 -0.5711  1.5088
  370MOL0     H50994   0.381   1.812   1.326  1.6891  1.4375 -2.0115
  370MOL0     H50995   0.485   2.037   1.380  0.5988  0.3037  0.2368
  370MOL0     H50996   0.428   1.953   1.527  1.5224  2.2570  1.5944
  370MOL0     H50997   0.652   1.864   1.575  1.0834 -1.9239 -2.2831
  370MOL0     H50998   0.714   1.921   1.422  0.0386 -0.2021  0.2041
  370MOL0     H50999   0.616   2.166   1.517 -2.4874 -0.0959  1.4764
  370MOL0     H51000   0.657   2.088   1.662 -2.5942 -0.1518 -0.9198
  370MOL0     H51001   0.842   2.135   1.423  0.7418  1.6353 -0.7067
  370MOL0     H51002   0.890   2.053   1.575 -1.0531  0.4462  1.8517
  370MOL0     H51003   0.779   2.345   1.554 -2.7168 -2.2220 -0.0446
  370MOL0     H51004   0.829   2.271   1.706 -1.0184  1.8549 -0.1576
  370MOL0     H51005   1.039   2.264   1.476  2.6839  1.4186 -1.1245
  370MOL0     H51006   1.068   2.296   1.648  0.2456  3.1219  0.2264
  370MOL0     H51007   0.976   2.519   1.660 -3.7571  0.1652 -0.1663
  370MOL0     H51008   1.104   2.517   1.533 -1.1424  1.6299  0.0681
  370MOL0     H51009   0.803   2.692   1.551  2.9535  2.6164 -0.7707
  370MOL0     H51010   0.595   2.769   1.383  0.7573  0.4835  0.1497
  370MOL0     H51011   0.556   2.664   1.248  0.4214 -1.0450  0.0326
  370MOL0     H51012   0.762   2.880   1.241  0.0348 -0.4823  0.4620
  370MOL0     H51013   0.695   2.784   1.099  0.1706  2.6994 -0.8579
  370MOL0     H51014   0.477   2.859   1.123  1.0315 -2.1746 -0.9745
  370MOL0     H51015   0.525   2.952   1.268  1.2137  1.1869 -0.9799
  370MOL0     H51016   0.630   3.011   0.980  1.5945  0.7072  0.1468
  370MOL0     H51017   0.483   3.080   1.042 -1.4501 -1.1343 -0.7595
  370MOL0     H51018   0.674   3.326   1.336  0.4145 -0.0441  0.9721
  370MOL0     H51019   0.679   3.634   1.344  0.0047  0.6513  0.4391
  370MOL0     H51020   0.585   3.506   1.439 -1.4717 -0.2338 -1.4938
  370MOL0     H51021   0.497   3.642   1.365 -0.4643  0.4074 -1.0538
  370MOL0     H51022   0.199   3.794   0.919  0.2627  1.2794  0.6905
  370MOL0     H51023   0.116   4.026   0.904 -0.7782 -3.5896  1.3262
  370MOL0     H51024   0.242   4.352   1.049 -0.6692 -0.9901 -0.6669
  370MOL0     H51025   0.403   4.282   1.043 -0.9185 -4.1503 -1.8913
  370MOL0     H51026   0.436   4.513   0.981  1.4452 -0.5464 -0.0202
  370MOL0     H51027   0.444   4.420   0.831 -0.9902  2.3299 -0.5454
  370MOL0     H51028   0.171   4.502   0.896  0.7022 -2.3393 -0.4214
  370MOL0     H51029   0.249   4.495   0.738  3.1624 -0.3245 -0.5086
  370MOL0     H51030   0.381   4.702   0.818 -0.9934  0.4721 -1.7011
  370MOL0     H51031   0.290   4.693   0.962  0.6906  2.8977  0.4868
  370MOL0     H51032   0.071   4.716   0.824 -0.0659  1.0711 -0.2586
  370MOL0     H51033   0.178   4.855   0.807 -0.3330 -0.0984  1.0758
  370MOL0     H51034   0.135   4.650   0.589 -1.1441  0.2164 -0.6562
  370MOL0     H51035   0.268   4.776   0.604 -1.2527  1.7371 -3.7214
  370MOL0     H51036   0.093   4.954   0.591  1.9688 -0.2708  0.0675
  370MOL0     H51037  -0.033   4.821   0.583  0.5929 -1.6453  2.1655
  370MOL0     H51038   0.098   4.754   0.370 -1.2443  0.0970 -1.6754
  370MOL0     H51039   0.174   4.916   0.379 -1.6563  2.6483 -0.6861
  370MOL0     H51040   0.516   4.154   0.859 -0.8232  0.6362 -0.1294
  370MOL0     H51041   0.602   3.926   0.913  1.0653  0.0078 -0.2153
  370MOL0     H51042   0.538   3.478   0.888  1.7981 -0.4907 -0.5583
  370MOL0     H51043   0.583   3.262   0.922  0.7084  0.3236 -0.3752
  370MOL0     H51044   0.550   1.553   1.332  2.7024  1.0409 -0.4290
  370MOL0     H51045   0.515   1.367   1.175 -2.2521 -0.5908 -2.7487
  370MOL0     H51046   0.284   1.168   0.737  1.4754  2.4011  5.3070
  370MOL0     H51047   0.316   0.984   0.587 -0.6471  1.5554 -1.2831
  370MOL0     H51048   0.648   0.912   0.361 -1.1050  0.9160  1.7330
  370MOL0     H51049   0.735   0.855   0.507  0.9129  0.3817 -0.7292
  370MOL0     H51050   0.575   0.677   0.330 -0.2810  3.1926 -1.1379
  370MOL0     H51051   0.667   0.627   0.477  1.5839  1.9998  0.9325
  370MOL0     H51052   0.770   0.762   0.234  3.4248  1.0035  0.3289
  370MOL0     H51053   0.881   0.713   0.360 -1.2667  2.3838  0.7137
  370MOL0     H51054   0.716   0.541   0.157  0.7622  1.2928 -0.1502
  370MOL0     H51055   0.795   0.468   0.297  0.4310  0.7999  1.0977
  370MOL0     H51056   1.062   0.498  -0.039  3.0734  0.4732  0.5409
  370MOL0     H51057   0.735   1.046   0.581  0.3585  2.4541  2.5655
  370MOL0     H51058   0.774   1.229   0.838  2.3785  0.4170  0.6899
  370MOL0     H51059   0.830   1.195   0.675  0.2883 -0.3910  0.4552
  370MOL0     H51060   0.753   1.351   0.702 -0.0473 -0.4014  0.9205
  371MOL0     O51061   2.675   9.528  10.570  0.9564  0.6781  0.4142
  371MOL0     C51062   2.551   9.549  10.562  0.4704 -0.5068 -0.4361
  371MOL0     O51063   2.481   9.512  10.456  0.7268 -0.6136 -0.4067
  371MOL0     C51064   2.551   9.442  10.355  0.3244  0.0620 -0.2230
  371MOL0     C51065   2.627   9.513  10.270  0.1278 -0.5205  1.2972
  371MOL0     C51066   2.681   9.447  10.157  0.5258 -0.3661 -0.1585
  371MOL0     C51067   2.666   9.308  10.142  0.3406 -0.6455 -0.2842
  371MOL0     O51068   2.717   9.247  10.035 -0.3827  0.5746 -0.3898
  371MOL0     C51069   2.861   9.222  10.025 -0.3958 -0.8741 -0.3890
  371MOL0     C51070   2.956   9.340   9.999 -0.9511  0.4753  0.8507
  371MOL0     C51071   3.039   9.398  10.120 -0.4792 -0.0418  0.5736
  371MOL0     C51072   3.114   9.530  10.081  0.1788  1.1579  0.7841
  371MOL0     C51073   3.195   9.580  10.197 -0.2424  1.0213  0.5288
  371MOL0     C51074   3.113   9.615  10.322 -0.1407  0.1678  0.1257
  371MOL0     C51075   2.995   9.722  10.297 -0.5179 -0.1194 -0.4233
  371MOL0     C51076   2.922   9.759  10.428  0.0029  0.5963  0.7232
  371MOL0     N51077   2.805   9.843  10.409 -0.0335  0.3322 -0.5223
  371MOL0     C51078   2.791   9.942  10.312  0.5520  0.8690 -0.3481
  371MOL0     C51079   2.654   9.959  10.309  0.0125 -0.2228 -0.8548
  371MOL0     C51080   2.593  10.042  10.205 -0.0141  0.3870 -0.0869
  371MOL0     C51081   2.520  10.163  10.238  0.0464 -0.6868  0.1900
  371MOL0     C51082   2.460  10.212  10.110  0.1065  0.7241 -0.9435
  371MOL0     C51083   2.436  10.364  10.117 -0.0177  0.2761 -0.0999
  371MOL0     O51084   2.345  10.416  10.019 -0.7194  0.2913  0.0950
  371MOL0     C51085   2.371  10.546   9.979 -0.1280  0.5571  0.0580
  371MOL0     C51086   2.357  10.584   9.845 -0.6628  0.5851  0.7278
  371MOL0     C51087   2.384  10.714   9.801 -0.2971 -0.1567  0.2137
  371MOL0     C51088   2.354  10.746   9.654 -0.8569  0.3600 -0.2317
  371MOL0     C51089   2.400  10.819   9.907  0.2032  0.3667 -0.2687
  371MOL0     C51090   2.413  10.957   9.871 -0.1070 -0.2076  0.3989
  371MOL0     O51091   2.377  11.059   9.961  0.0190  0.1883  0.8568
  371MOL0     C51092   2.408  11.185   9.935  1.1413  1.2598  0.2245
  371MOL0     C51093   2.471  11.268  10.028 -0.1970 -0.2717  0.1045
  371MOL0     C51094   2.509  11.394  10.010  0.6110 -0.8171  1.2599
  371MOL0     C51095   2.470  11.453   9.885 -0.5927  0.6063 -0.2116
  371MOL0     O51096   2.510  11.577   9.861  0.4351 -0.2008  0.3025
  371MOL0     C51097   2.423  11.661   9.773  0.3584  0.0328 -0.3686
  371MOL0     C51098   2.479  11.804   9.775 -0.9594  0.5963 -0.9670
  371MOL0     C51099   2.572  11.813   9.648 -0.5757  0.1647  0.8296
  371MOL0     C51100   2.704  11.730   9.645 -0.5609  0.1768 -0.2772
  371MOL0     C51101   2.813  11.757   9.760 -0.4077 -0.0347 -0.1856
  371MOL0     C51102   2.853  11.909   9.747  0.7353 -0.2897 -0.2565
  371MOL0     C51103   2.976  11.946   9.837  0.2301  0.2584 -0.0407
  371MOL0     C51104   2.964  12.084   9.909 -0.1934 -0.2963  0.7106
  371MOL0    Cl51105   2.945  12.220   9.782 -0.1761  0.0365 -0.1086
  371MOL0     C51106   2.402  11.371   9.786  0.6124  0.1388  0.2560
  371MOL0     C51107   2.372  11.236   9.811 -0.1203  0.0842  0.3540
  371MOL0     O51108   2.468  10.977   9.762 -0.1872 -0.2499  0.2631
  371MOL0     C51109   2.414  10.782  10.042  0.2618 -0.1104 -0.7816
  371MOL0     C51110   2.404  10.649  10.075  0.3204 -0.1715 -0.2498
  371MOL0     N51111   2.592   9.899  10.411 -0.0409 -0.2416 -0.1380
  371MOL0     N51112   2.684   9.826  10.472  0.4449 -0.0600  0.4570
  371MOL0     C51113   2.585   9.234  10.229 -0.0710 -0.5895 -0.4164
  371MOL0     C51114   2.521   9.304  10.332 -0.8860  0.4100 -0.6674
  371MOL0     C51115   2.471   9.624  10.670 -0.0571  0.1996 -0.2660
  371MOL0     C51116   2.340   9.666  10.636 -0.5084  0.4959  0.3974
  371MOL0     C51117   2.267   9.756  10.717  0.2273  0.3982 -0.1129
  371MOL0     C51118   2.302   9.782  10.846 -0.4587  1.0037  0.1219
  371MOL0     O51119   2.203   9.849  10.921 -0.0693  0.8313 -0.6299
  371MOL0     C51120   2.245   9.921  11.039  0.3839 -0.3967  0.0402
  371MOL0     C51121   2.118   9.978  11.108  0.1836  0.4887  0.2884
  371MOL0     C51122   2.148  10.089  11.206 -0.8126 -0.5800 -0.8172
  371MOL0     C51123   2.024  10.156  11.260 -0.1588  0.3863 -0.2532
  371MOL0     C51124   1.965  10.253  11.169  0.3697 -0.1877  2.2744
  371MOL0     C51125   1.919  10.347  11.112 -0.0412  0.2924  0.0471
  371MOL0     C51126   2.440   9.751  10.882  0.1973 -0.9096 -1.4278
  371MOL0     C51127   2.516   9.664  10.802 -0.6036  0.1813 -0.0664
  371MOL0     C51128   2.650   9.615  10.859  0.6730 -0.8713  0.7517
  371MOL0     H51129   2.656   9.616  10.289  2.6460 -1.2262  1.7362
  371MOL0     H51130   2.754   9.497  10.094 -0.0551 -0.4234 -0.8907
  371MOL0     H51131   2.893   9.157   9.943  1.0331  0.6962 -1.1286
  371MOL0     H51132   2.892   9.184  10.123 -0.1883  1.7462  0.6581
  371MOL0     H51133   3.025   9.306   9.921  0.2291 -0.9503  2.4404
  371MOL0     H51134   2.904   9.427   9.957  2.0794  2.0113 -0.0042
  371MOL0     H51135   2.962   9.426  10.193 -1.6304 -1.7061  0.0746
  371MOL0     H51136   3.106   9.318  10.153 -0.2138  0.0670  0.2983
  371MOL0     H51137   3.181   9.518   9.995 -1.7119  1.2251 -0.7639
  371MOL0     H51138   3.037   9.598  10.043 -1.1515 -0.1121  1.1285
  371MOL0     H51139   3.240   9.675  10.165  0.3186 -0.0807 -2.2397
  371MOL0     H51140   3.272   9.510  10.229 -0.6224  1.5100  2.7121
  371MOL0     H51141   3.054   9.531  10.360 -0.4762  1.2543  2.1444
  371MOL0     H51142   3.179   9.638  10.406 -0.9137  0.4377  0.6703
  371MOL0     H51143   2.937   9.682  10.213 -1.4195  3.3670 -1.6491
  371MOL0     H51144   3.038   9.814  10.257  0.5358 -0.3464  0.1537
  371MOL0     H51145   2.905   9.668  10.486  2.1105  1.4598  2.8351
  371MOL0     H51146   2.977   9.826  10.495 -0.0608 -1.3520  2.8720
  371MOL0     H51147   2.869   9.984  10.250  3.5734  0.5484  2.9064
  371MOL0     H51148   2.514   9.980  10.161 -3.9455  2.3557  3.4359
  371MOL0     H51149   2.668  10.079  10.134 -0.4714  3.1056  0.7179
  371MOL0     H51150   2.451  10.158  10.322 -2.2184  1.6883 -1.3737
  371MOL0     H51151   2.595  10.235  10.271  1.6487 -2.4545  0.5655
  371MOL0     H51152   2.517  10.188  10.021 -0.4099 -0.4247 -0.9918
  371MOL0     H51153   2.357  10.174  10.111 -0.0557  0.9381  1.9931
  371MOL0     H51154   2.392  10.389  10.214  0.1875 -3.1847  1.0297
  371MOL0     H51155   2.533  10.415  10.122  0.7988 -1.2204 -0.0885
  371MOL0     H51156   2.346  10.512   9.764 -1.7220  0.2751  1.1202
  371MOL0     H51157   2.280  10.680   9.609 -1.5266  1.6412 -1.0745
  371MOL0     H51158   2.444  10.728   9.594 -1.6152 -0.4529 -1.1440
  371MOL0     H51159   2.306  10.842   9.632  0.5671  1.0783 -0.3393
  371MOL0     H51160   2.495  11.217  10.121  3.2635 -0.2757 -0.6438
  371MOL0     H51161   2.570  11.460  10.071  1.4424  0.5619 -0.9480
  371MOL0     H51162   2.434  11.610   9.677  1.1235 -0.0868 -0.2253
  371MOL0     H51163   2.317  11.659   9.797  0.9433 -0.7102  2.5472
  371MOL0     H51164   2.405  11.884   9.767  2.3301  3.9519 -0.3562
  371MOL0     H51165   2.537  11.828   9.865  0.5781 -0.8189 -1.5206
  371MOL0     H51166   2.593  11.920   9.637 -3.3070  0.6381 -0.5481
  371MOL0     H51167   2.522  11.783   9.556  3.3088  0.0283 -1.4460
  371MOL0     H51168   2.741  11.762   9.547 -1.7447 -1.6282 -1.4007
  371MOL0     H51169   2.690  11.621   9.636 -2.5897  0.4145 -0.6245
  371MOL0     H51170   2.776  11.723   9.857  0.6295 -1.4243 -0.2467
  371MOL0     H51171   2.896  11.691   9.735  1.6041  1.9331  0.9588
  371MOL0     H51172   2.776  11.984   9.765  0.1933 -0.8184 -0.3561
  371MOL0     H51173   2.884  11.928   9.644 -1.6228  1.4345 -0.7217
  371MOL0     H51174   3.067  11.956   9.778  0.8364 -1.9740  0.4026
  371MOL0     H51175   3.001  11.871   9.913  1.5735 -1.4079 -2.0138
  371MOL0     H51176   3.042  12.096   9.985 -0.0619 -0.6647  0.6363
  371MOL0     H51177   2.871  12.091   9.967  0.6006  2.7259  1.7934
  371MOL0     H51178   2.367  11.407   9.690 -0.7272  0.4681  0.8431
  371MOL0     H51179   2.311  11.183   9.739  0.1130  2.1954 -1.5174
  371MOL0     H51180   2.441  10.862  10.110 -0.7595  0.6467 -1.2281
  371MOL0     H51181   2.418  10.616  10.178 -0.0080  0.0679 -0.1252
  371MOL0     H51182   2.577   9.126  10.222  1.7528 -0.6549 -2.6080
  371MOL0     H51183   2.442   9.251  10.385 -0.1426  0.1344  0.1931
  371MOL0     H51184   2.306   9.653  10.534 -0.2246  0.4580  0.3056
  371MOL0     H51185   2.178   9.792  10.668  1.6441  4.4684 -0.0280
  371MOL0     H51186   2.286   9.850  11.111 -0.9857  1.5889  2.9858
  371MOL0     H51187   2.318  10.000  11.016  0.2861  0.1066  1.4046
  371MOL0     H51188   2.069   9.893  11.157  1.2085  1.2018  2.7185
  371MOL0     H51189   2.050  10.012  11.029 -2.0185 -3.9474 -0.0169
  371MOL0     H51190   2.211  10.052  11.287 -4.5396 -1.9642  1.6791
  371MOL0     H51191   2.210  10.163  11.153 -0.1799 -1.6726 -1.6441
  371MOL0     H51192   2.039  10.212  11.353  0.2661 -2.0059  1.1951
  371MOL0     H51193   1.952  10.079  11.288 -0.7494  0.9348 -0.2584
  371MOL0     H51194   1.886  10.435  11.060  0.7085 -0.6419 -2.0835
  371MOL0     H51195   2.470   9.801  10.974  1.5980 -1.3207 -1.6280
  371MOL0     H51196   2.688   9.522  10.816 -1.3222 -2.0531  1.3965
  371MOL0     H51197   2.728   9.691  10.845 -0.5822  0.4319  0.5555
  371MOL0     H51198   2.633   9.597  10.966  4.4571 -0.8923  1.4930
  372MOL0     O51199   6.020   1.695   3.235  0.0196 -0.4011  0.0418
  372MOL0     C51200   5.986   1.712   3.351 -0.1832  0.1508  0.5387
  372MOL0     O51201   5.906   1.817   3.385 -0.4792 -0.6400  0.2198
  372MOL0     C51202   5.910   1.924   3.301  0.2538 -1.0907 -0.2965
  372MOL0     C51203   6.004   2.021   3.319 -0.6333 -1.4409  0.2433
  372MOL0     C51204   6.000   2.139   3.247 -0.0628 -0.1625  0.5699
  372MOL0     C51205   5.892   2.154   3.159  0.4897  0.2973 -0.2309
  372MOL0     O51206   5.864   2.266   3.083  0.4702  0.3434 -0.7337
  372MOL0     C51207   5.881   2.388   3.162 -0.7351  0.5099  0.0751
  372MOL0     C51208   5.809   2.495   3.078 -0.2814 -0.0749  0.2550
  372MOL0     C51209   5.660   2.465   3.045  0.7859 -0.5319 -0.0437
  372MOL0     C51210   5.623   2.562   2.932  0.1360  0.2156  1.5330
  372MOL0     C51211   5.468   2.548   2.902 -0.8179  0.4504  0.2137
  372MOL0     C51212   5.418   2.411   2.864  0.6573  0.4825 -0.2038
  372MOL0     C51213   5.279   2.395   2.808  0.7488 -0.9465 -0.6553
  372MOL0     C51214   5.264   2.474   2.673  0.7386 -0.0192 -0.3796
  372MOL0     N51215   5.165   2.401   2.591 -0.3682 -0.0421 -0.2679
  372MOL0     C51216   5.189   2.271   2.552  0.9338  0.8738  0.3065
  372MOL0     C51217   5.060   2.235   2.510  0.5098  0.7234  1.0442
  372MOL0     C51218   5.021   2.104   2.468  1.3329  0.0961  0.6137
  372MOL0     C51219   4.987   2.020   2.588 -0.5253  1.3604  0.4914
  372MOL0     C51220   5.101   1.958   2.669  0.5280 -0.4744  1.1480
  372MOL0     C51221   5.037   1.850   2.756 -0.1919  0.1443 -0.2779
  372MOL0     O51222   5.014   1.732   2.674  0.3961  0.1637  0.2593
  372MOL0     C51223   5.113   1.644   2.683 -0.1168  0.2375  1.0416
  372MOL0     C51224   5.201   1.641   2.578 -1.0203 -0.2467  0.4503
  372MOL0     C51225   5.305   1.545   2.574 -0.3402  0.3364  0.4847
  372MOL0     C51226   5.407   1.565   2.463  0.9838  0.7814 -0.6919
  372MOL0     C51227   5.317   1.458   2.685 -0.4786 -0.3447  0.1338
  372MOL0     C51228   5.423   1.356   2.701  0.7536 -0.0378  1.0284
  372MOL0     O51229   5.526   1.337   2.611 -0.6152 -0.2263  0.9900
  372MOL0     C51230   5.609   1.227   2.619 -0.9659  0.8159 -0.2216
  372MOL0     C51231   5.679   1.203   2.734  0.2226  0.0629 -0.0322
  372MOL0     C51232   5.766   1.098   2.740  0.6160 -0.7048  0.4513
  372MOL0     C51233   5.779   1.014   2.620 -1.0643 -0.1471 -0.3165
  372MOL0     O51234   5.878   0.916   2.610  0.7051 -0.1437 -0.2224
  372MOL0     C51235   5.948   0.883   2.725 -0.0046  0.6435  0.5964
  372MOL0     C51236   6.044   0.763   2.723  0.5153 -0.7032  0.6220
  372MOL0     C51237   6.166   0.796   2.636 -0.0050 -0.3141 -0.0110
  372MOL0     C51238   6.253   0.676   2.641  0.7247  0.5264  0.1094
  372MOL0     C51239   6.381   0.701   2.571 -0.2790 -0.4151  0.1843
  372MOL0     C51240   6.390   0.764   2.436  0.9380 -1.1709 -0.0421
  372MOL0     C51241   6.345   0.662   2.320 -0.4390  0.8174 -0.3921
  372MOL0     C51242   6.456   0.645   2.210  0.3758 -0.0314 -0.1994
  372MOL0    Cl51243   6.616   0.609   2.290  0.3467  0.7865 -0.2228
  372MOL0     C51244   5.705   1.040   2.505 -0.2926  0.4462 -0.2119
  372MOL0     C51245   5.629   1.153   2.505  0.2448 -0.5052  0.4953
  372MOL0     O51246   5.405   1.282   2.790  0.0238 -0.2867 -0.1920
  372MOL0     C51247   5.229   1.470   2.794 -0.2333 -0.5344  1.0322
  372MOL0     C51248   5.132   1.570   2.794  0.3485  0.4955  0.0003
  372MOL0     N51249   4.973   2.342   2.519 -0.3052  0.0324  0.1881
  372MOL0     N51250   5.034   2.440   2.579  0.8177 -0.6068  0.6227
  372MOL0     C51251   5.789   2.058   3.137 -0.4228  0.3635  0.2144
  372MOL0     C51252   5.805   1.939   3.206 -0.5151  0.4920 -0.1055
  372MOL0     C51253   6.046   1.624   3.456 -0.6542  0.1102  0.3531
  372MOL0     C51254   6.030   1.673   3.593 -0.4381 -0.6096  0.7794
  372MOL0     C51255   6.086   1.602   3.696  0.7025 -0.1740  0.2110
  372MOL0     C51256   6.177   1.493   3.681 -1.1078  0.1701 -0.5316
  372MOL0     O51257   6.255   1.442   3.790 -0.5452 -0.2894  0.6228
  372MOL0     C51258   6.387   1.374   3.762  0.0815 -0.2398  0.8260
  372MOL0     C51259   6.452   1.347   3.898  0.5413  0.6385 -0.5846
  372MOL0     C51260   6.454   1.482   3.978  0.7977  0.2167  0.0270
  372MOL0     C51261   6.511   1.451   4.111  0.3644  1.5509  0.8197
  372MOL0     C51262   6.408   1.389   4.197 -0.5563  0.3731 -0.2002
  372MOL0     C51263   6.332   1.344   4.279  0.3711  0.4254  0.5107
  372MOL0     C51264   6.203   1.453   3.547 -0.1442 -0.0169  0.5994
  372MOL0     C51265   6.133   1.515   3.441 -0.1966  0.6531  0.5387
  372MOL0     C51266   6.157   1.445   3.315  0.3880 -1.1802  0.6444
  372MOL0     H51267   6.087   2.015   3.390  0.7394  1.6673 -0.9328
  372MOL0     H51268   6.071   2.220   3.253  0.0308 -0.3167  1.9140
  372MOL0     H51269   5.988   2.397   3.181 -1.0186  1.9411  1.2341
  372MOL0     H51270   5.822   2.378   3.254 -1.2786  2.4641 -0.0228
  372MOL0     H51271   5.809   2.589   3.135 -4.9361  1.5338 -1.8460
  372MOL0     H51272   5.873   2.495   2.990 -2.1022 -0.4570 -1.1324
  372MOL0     H51273   5.645   2.366   3.003 -3.4217 -0.1949  0.2766
  372MOL0     H51274   5.585   2.487   3.121  0.8368  1.6450 -0.5496
  372MOL0     H51275   5.635   2.667   2.957 -0.2270  2.2186 -4.7830
  372MOL0     H51276   5.675   2.540   2.838 -0.5622 -1.4715  1.5074
  372MOL0     H51277   5.447   2.609   2.813 -1.5163 -0.0045  0.0569
  372MOL0     H51278   5.407   2.595   2.979 -3.4260  0.0332 -1.4756
  372MOL0     H51279   5.479   2.372   2.782 -2.2084 -0.7623 -1.9218
  372MOL0     H51280   5.436   2.346   2.950 -1.1250 -1.3016 -1.0770
  372MOL0     H51281   5.195   2.424   2.871  1.3720  2.4530 -1.1760
  372MOL0     H51282   5.260   2.289   2.790  0.5975 -1.6531  2.9303
  372MOL0     H51283   5.235   2.578   2.688  0.5518 -0.2731  1.2268
  372MOL0     H51284   5.359   2.478   2.619  0.2778  1.1647 -1.1475
  372MOL0     H51285   5.280   2.213   2.556  0.2685 -0.6191 -2.6794
  372MOL0     H51286   5.102   2.059   2.409  0.1371 -1.1074 -0.1763
  372MOL0     H51287   4.936   2.110   2.399  0.0940  2.3370  2.2209
  372MOL0     H51288   4.910   2.064   2.652 -1.2100 -0.2311  0.8119
  372MOL0     H51289   4.948   1.933   2.535  2.1051  0.4202 -0.0396
  372MOL0     H51290   5.169   1.927   2.589  0.0104  1.2863 -0.0461
  372MOL0     H51291   5.154   2.029   2.732  0.4636  0.3178  0.3370
  372MOL0     H51292   5.118   1.827   2.826 -0.7829 -2.3037 -0.3027
  372MOL0     H51293   4.948   1.901   2.794  1.6297  3.3338  0.0567
  372MOL0     H51294   5.179   1.703   2.491 -0.1381 -1.9222 -1.0366
  372MOL0     H51295   5.509   1.548   2.496  0.4329 -1.3631  0.0114
  372MOL0     H51296   5.410   1.668   2.424  2.5019  1.9793  2.2497
  372MOL0     H51297   5.377   1.501   2.379  0.6327  0.1980 -0.1220
  372MOL0     H51298   5.678   1.267   2.822  1.2699  0.0919 -0.0262
  372MOL0     H51299   5.814   1.080   2.836  2.0353 -0.1232 -0.1213
  372MOL0     H51300   6.005   0.975   2.743  1.7745 -0.1609 -0.6881
  372MOL0     H51301   5.868   0.861   2.796 -2.2002  2.6430 -1.0711
  372MOL0     H51302   6.060   0.730   2.826  0.5494  1.2695  1.2837
  372MOL0     H51303   5.988   0.686   2.669  0.3608  0.4940 -0.9897
  372MOL0     H51304   6.222   0.884   2.668 -0.5257  1.2789 -3.1055
  372MOL0     H51305   6.136   0.821   2.534  0.0013  3.7374  0.8222
  372MOL0     H51306   6.204   0.591   2.594 -0.0727  1.9366 -1.7299
  372MOL0     H51307   6.282   0.657   2.744  2.1581  1.6281 -0.0575
  372MOL0     H51308   6.453   0.750   2.637  1.8527 -3.8733  0.6607
  372MOL0     H51309   6.443   0.611   2.564  0.2662 -0.0615  0.3270
  372MOL0     H51310   6.490   0.805   2.417  0.1886  0.7290 -0.1093
  372MOL0     H51311   6.327   0.853   2.438 -0.0099 -1.7993 -0.9178
  372MOL0     H51312   6.253   0.690   2.268 -0.1740  0.8059 -0.8693
  372MOL0     H51313   6.327   0.570   2.376  2.1097  1.2296  1.2394
  372MOL0     H51314   6.455   0.729   2.140  2.6639 -0.4306 -0.7868
  372MOL0     H51315   6.432   0.555   2.152  3.1151 -0.7992 -0.3213
  372MOL0     H51316   5.710   0.982   2.414  1.1563 -0.6504  0.5354
  372MOL0     H51317   5.560   1.172   2.423  0.8165  0.2787  0.1882
  372MOL0     H51318   5.235   1.402   2.879 -0.6587 -0.3964  1.1752
  372MOL0     H51319   5.057   1.584   2.871 -1.0078  0.4166 -1.2681
  372MOL0     H51320   5.711   2.071   3.063  2.3847 -0.5561 -3.1963
  372MOL0     H51321   5.731   1.862   3.185 -0.8414  0.6504  0.4317
  372MOL0     H51322   5.962   1.751   3.627 -0.5021 -1.2078  2.0750
  372MOL0     H51323   6.062   1.644   3.793  0.9420  2.6100 -0.8545
  372MOL0     H51324   6.363   1.282   3.708  1.1895 -0.7883  1.2385
  372MOL0     H51325   6.454   1.426   3.693 -1.1696 -3.2398 -2.9934
  372MOL0     H51326   6.547   1.293   3.898  0.6355  0.5640  2.6898
  372MOL0     H51327   6.385   1.272   3.942 -1.0841  2.7818  0.7542
  372MOL0     H51328   6.514   1.560   3.931  0.2618  0.4543 -0.2650
  372MOL0     H51329   6.354   1.523   3.994  1.0002  1.9827 -2.6652
  372MOL0     H51330   6.539   1.542   4.165  0.5418  1.3286  1.1060
  372MOL0     H51331   6.604   1.393   4.111 -0.4637  0.1601 -0.6428
  372MOL0     H51332   6.266   1.303   4.353  0.9985 -0.2499  0.7100
  372MOL0     H51333   6.270   1.371   3.522  2.6303  2.5273 -1.0316
  372MOL0     H51334   6.209   1.349   3.311 -1.2005 -2.1519  1.9787
  372MOL0     H51335   6.054   1.432   3.279 -0.0915  1.0326  1.0334
  372MOL0     H51336   6.204   1.518   3.249  0.1308 -1.7731 -0.2105
  373MOL0     O51337   2.610   1.909   5.115  0.3844 -0.3009  1.1122
  373MOL0     C51338   2.521   1.832   5.082  0.5518  0.7765  0.0198
  373MOL0     O51339   2.515   1.701   5.138 -0.5057  0.7080  0.2615
  373MOL0     C51340   2.627   1.632   5.196  1.0169  0.9156  0.7514
  373MOL0     C51341   2.598   1.544   5.298 -0.4728  1.7128  0.4798
  373MOL0     C51342   2.691   1.460   5.361 -0.7838 -0.3324 -0.4663
  373MOL0     C51343   2.827   1.482   5.323  0.0592 -0.1794 -0.0513
  373MOL0     O51344   2.929   1.419   5.386 -0.0590 -0.6328 -0.0478
  373MOL0     C51345   2.947   1.463   5.521 -0.0771 -0.8685 -0.0638
  373MOL0     C51346   3.061   1.404   5.600  0.5199 -1.2270  0.8298
  373MOL0     C51347   3.109   1.483   5.718 -0.7694 -0.7385  0.3341
  373MOL0     C51348   3.237   1.422   5.765 -0.3960  0.1229  0.1520
  373MOL0     C51349   3.290   1.491   5.895  0.4200 -0.4610  0.6710
  373MOL0     C51350   3.327   1.642   5.875  0.0809 -0.5875 -0.0433
  373MOL0     C51351   3.447   1.699   5.968 -0.0418  0.4723  0.0371
  373MOL0     C51352   3.415   1.738   6.119  0.6339 -1.5128 -0.0658
  373MOL0     N51353   3.378   1.621   6.201 -0.4890  0.1789  0.6822
  373MOL0     C51354   3.478   1.520   6.236  0.2656  0.0336 -0.0471
  373MOL0     C51355   3.400   1.426   6.295  0.1702  0.1413 -0.2369
  373MOL0     C51356   3.436   1.287   6.339 -1.6667  0.0925 -0.2319
  373MOL0     C51357   3.510   1.205   6.228 -0.0154  0.1524 -0.9517
  373MOL0     C51358   3.413   1.159   6.123 -0.0128 -0.7117  0.6649
  373MOL0     C51359   3.478   1.075   6.008  0.3226 -0.2954 -0.0252
  373MOL0     O51360   3.389   1.055   5.892  0.2053 -0.1739  0.2278
  373MOL0     C51361   3.378   0.937   5.828 -0.7264  0.2509  0.0775
  373MOL0     C51362   3.261   0.914   5.764 -1.1161 -1.0948  0.3878
  373MOL0     C51363   3.222   0.789   5.699 -0.7161 -0.4617  0.8976
  373MOL0     C51364   3.087   0.783   5.639  0.1519  0.1205  0.9802
  373MOL0     C51365   3.322   0.686   5.700  0.4962 -0.0644 -0.6706
  373MOL0     C51366   3.298   0.548   5.650 -0.0803  0.5045 -0.3625
  373MOL0     O51367   3.192   0.529   5.562 -0.6793 -0.3672  0.5018
  373MOL0     C51368   3.193   0.420   5.485 -0.2217  0.1096  0.3290
  373MOL0     C51369   3.082   0.336   5.469 -0.4890  0.0162 -0.1845
  373MOL0     C51370   3.081   0.218   5.399 -0.1108  0.0686  0.1706
  373MOL0     C51371   3.202   0.176   5.334  0.6407 -0.2426 -0.3133
  373MOL0     O51372   3.211   0.060   5.259 -0.7390 -0.6925 -0.2366
  373MOL0     C51373   3.132   0.064   5.141 -0.0481  0.2876 -0.3388
  373MOL0     C51374   3.225   0.117   5.031  0.3977 -0.4421 -0.2232
  373MOL0     C51375   3.338   0.020   4.991 -0.5738  0.0941  0.0002
  373MOL0     C51376   3.467   0.072   4.924 -0.6519 -0.5253  0.0280
  373MOL0     C51377   3.564  -0.043   4.926  0.3417  1.1403  1.0348
  373MOL0     C51378   3.715  -0.005   4.901  0.4014  0.6567 -0.2698
  373MOL0     C51379   3.731   0.056   4.766 -1.3633 -0.3691  0.0024
  373MOL0     C51380   3.877   0.093   4.740  0.0191  1.6717  0.5423
  373MOL0    Cl51381   3.928   0.106   4.568 -0.0467  0.1760 -0.0809
  373MOL0     C51382   3.319   0.253   5.356 -0.3532 -0.4727 -1.0441
  373MOL0     C51383   3.314   0.372   5.426  0.5612 -0.6846 -0.3409
  373MOL0     O51384   3.373   0.463   5.691 -0.6535 -0.1278  0.2590
  373MOL0     C51385   3.441   0.704   5.774 -0.8536  0.2815 -0.0059
  373MOL0     C51386   3.469   0.829   5.832  0.5132 -0.1789 -1.2171
  373MOL0     N51387   3.265   1.465   6.292 -0.3872  0.0324  0.6260
  373MOL0     N51388   3.253   1.586   6.249  0.2315  0.2514  0.8429
  373MOL0     C51389   2.855   1.571   5.225  0.8235 -0.0644  0.5018
  373MOL0     C51390   2.758   1.646   5.159  0.9474  0.5641 -0.3925
  373MOL0     C51391   2.415   1.874   4.993 -0.1510 -0.5331 -0.0278
  373MOL0     C51392   2.449   1.980   4.906  0.6786 -0.2580  1.5497
  373MOL0     C51393   2.355   2.033   4.816  0.6507 -0.5221 -0.1762
  373MOL0     C51394   2.224   1.979   4.809 -0.5988  0.0034  0.4642
  373MOL0     O51395   2.116   2.028   4.731 -0.6115 -0.1096 -0.0087
  373MOL0     C51396   2.141   2.158   4.681  0.3599  0.2684 -0.0212
  373MOL0     C51397   2.015   2.219   4.632  0.3072  0.0565  0.0190
  373MOL0     C51398   1.923   2.255   4.743  0.2933  0.1745 -0.4534
  373MOL0     C51399   1.804   2.333   4.689  0.7540  0.1072 -0.6476
  373MOL0     C51400   1.704   2.348   4.797  0.2805 -0.1373  1.3381
  373MOL0     C51401   1.634   2.373   4.896  0.1638 -0.2234 -0.2393
  373MOL0     C51402   2.198   1.869   4.885  0.3855 -0.3518 -0.4590
  373MOL0     C51403   2.290   1.824   4.984  0.3884 -0.5208 -0.5874
  373MOL0     C51404   2.232   1.719   5.080 -1.6693  0.1250  0.4253
  373MOL0     H51405   2.502   1.560   5.345 -0.6983  0.7295  0.3662
  373MOL0     H51406   2.661   1.404   5.449  0.4608  0.1590  0.3104
  373MOL0     H51407   2.854   1.447   5.576 -0.2060 -0.8747 -0.2811
  373MOL0     H51408   2.973   1.569   5.513  0.2854 -0.9175  0.3997
  373MOL0     H51409   3.016   1.308   5.627 -3.6628  0.1535 -0.4167
  373MOL0     H51410   3.145   1.394   5.530  2.6109 -1.6463  3.2265
  373MOL0     H51411   3.124   1.588   5.688 -5.0308 -0.2025 -0.6136
  373MOL0     H51412   3.034   1.487   5.797 -0.9739  1.1135  0.0979
  373MOL0     H51413   3.214   1.316   5.775  0.7924 -0.1302  0.3375
  373MOL0     H51414   3.315   1.425   5.688 -0.4056  0.9640  0.1581
  373MOL0     H51415   3.380   1.438   5.927  0.0259 -1.6752 -0.1486
  373MOL0     H51416   3.230   1.477   5.985  0.4457  1.4933  1.0445
  373MOL0     H51417   3.364   1.659   5.774 -1.5245  1.1665 -0.4014
  373MOL0     H51418   3.234   1.696   5.897  1.3918  1.4448  0.7691
  373MOL0     H51419   3.491   1.792   5.933 -2.3719  3.0214  3.1853
  373MOL0     H51420   3.536   1.635   5.965  0.0862  0.5985  0.7797
  373MOL0     H51421   3.502   1.792   6.158  0.2670 -1.2196  0.3546
  373MOL0     H51422   3.328   1.804   6.123  0.7628 -1.3846  1.1399
  373MOL0     H51423   3.586   1.520   6.223  0.7275  3.2356  2.5313
  373MOL0     H51424   3.346   1.230   6.364 -0.3500 -1.8860  0.1454
  373MOL0     H51425   3.501   1.286   6.427 -2.6141 -0.9658  0.4769
  373MOL0     H51426   3.593   1.262   6.184  2.0251  0.4832  2.9105
  373MOL0     H51427   3.550   1.115   6.276 -2.0887 -1.1755 -1.5859
  373MOL0     H51428   3.336   1.098   6.170 -2.7213  0.8047 -1.4965
  373MOL0     H51429   3.363   1.246   6.078  2.3892  1.2884  1.6213
  373MOL0     H51430   3.570   1.115   5.964  0.8879 -2.1895 -0.6782
  373MOL0     H51431   3.502   0.978   6.053 -1.5819 -0.5464  0.5084
  373MOL0     H51432   3.192   0.996   5.777  0.1627 -0.2029  1.8291
  373MOL0     H51433   3.028   0.702   5.682 -0.7025 -0.2812 -0.8512
  373MOL0     H51434   3.097   0.771   5.530  1.4898 -0.4299  1.1492
  373MOL0     H51435   3.025   0.869   5.667 -3.7379 -1.6350 -1.3560
  373MOL0     H51436   2.986   0.369   5.507 -0.5481  1.2494 -1.3401
  373MOL0     H51437   2.992   0.156   5.396  0.0353 -0.3987  2.7502
  373MOL0     H51438   3.096  -0.037   5.118  0.6314  0.2096 -1.0983
  373MOL0     H51439   3.041   0.122   5.157 -1.8460 -2.6184  0.8718
  373MOL0     H51440   3.167   0.136   4.940 -0.3603 -3.4288 -0.4657
  373MOL0     H51441   3.255   0.219   5.055  0.2834 -0.4539 -0.0334
  373MOL0     H51442   3.299  -0.055   4.922 -2.9982  1.9285 -0.7309
  373MOL0     H51443   3.367  -0.011   5.092  0.1733  2.4609  0.5845
  373MOL0     H51444   3.505   0.159   4.980  2.0765 -1.6748  0.1197
  373MOL0     H51445   3.449   0.109   4.823 -1.2275  2.2233  1.0469
  373MOL0     H51446   3.569  -0.102   5.018  3.6586 -3.1484 -1.4728
  373MOL0     H51447   3.529  -0.116   4.852  0.3980 -0.0037  2.1160
  373MOL0     H51448   3.779  -0.089   4.925  2.5731  2.3815  0.2910
  373MOL0     H51449   3.727   0.063   4.987 -2.2850  0.0327  0.7054
  373MOL0     H51450   3.676   0.150   4.759  1.1856  1.4189  2.1266
  373MOL0     H51451   3.711  -0.005   4.677  1.6126  0.9024 -1.6587
  373MOL0     H51452   3.933   0.012   4.788 -1.2234  0.8721  0.7048
  373MOL0     H51453   3.905   0.179   4.802  0.4112  1.0552  1.2433
  373MOL0     H51454   3.412   0.215   5.316  1.2212  0.3411  1.5981
  373MOL0     H51455   3.405   0.430   5.435 -0.3692  1.2194 -2.2450
  373MOL0     H51456   3.514   0.626   5.792 -0.7028  0.8960  2.5255
  373MOL0     H51457   3.559   0.852   5.888 -0.5767  4.0486 -0.8401
  373MOL0     H51458   2.956   1.575   5.187  0.5016 -1.4295 -0.5580
  373MOL0     H51459   2.782   1.696   5.066  2.4993 -2.2694 -1.6445
  373MOL0     H51460   2.547   2.027   4.899  0.3267  0.2688 -0.3307
  373MOL0     H51461   2.382   2.117   4.753 -0.5621 -1.5870 -2.1843
  373MOL0     H51462   2.180   2.226   4.757 -2.4706 -2.2919  4.1219
  373MOL0     H51463   2.205   2.136   4.595 -0.2991 -1.3480 -0.1348
  373MOL0     H51464   1.948   2.162   4.566 -2.6018  0.9566  1.9896
  373MOL0     H51465   2.037   2.311   4.577  3.8115 -0.8876 -0.3851
  373MOL0     H51466   1.895   2.167   4.801  3.6360 -1.2051 -0.7578
  373MOL0     H51467   1.977   2.324   4.809  0.7006 -0.3648 -0.2203
  373MOL0     H51468   1.763   2.266   4.613 -0.8183  0.3083 -0.0152
  373MOL0     H51469   1.824   2.433   4.649  2.6027 -0.1319 -0.4104
  373MOL0     H51470   1.577   2.396   4.984  3.1897  1.3090  1.5094
  373MOL0     H51471   2.095   1.838   4.874 -0.0251  0.4891  0.8366
  373MOL0     H51472   2.253   1.747   5.184  1.4152 -1.1035  0.2336
  373MOL0     H51473   2.123   1.708   5.071 -2.2042  2.4321  2.7418
  373MOL0     H51474   2.290   1.631   5.051 -1.5154  1.0742 -2.4085
  374MOL0     O51475   5.884   0.174   7.009 -1.1561  0.4473 -0.0653
  374MOL0     C51476   5.960   0.227   6.924  0.3090 -0.3893  0.5209
  374MOL0     O51477   5.954   0.356   6.888 -0.1556 -0.5706 -0.1662
  374MOL0     C51478   5.832   0.416   6.914  0.6384 -0.7171 -0.6385
  374MOL0     C51479   5.825   0.543   6.983 -0.3444  0.5619  0.4121
  374MOL0     C51480   5.709   0.594   7.021  0.7824 -0.4450  0.2619
  374MOL0     C51481   5.586   0.549   6.972  0.2818 -0.3474 -0.1022
  374MOL0     O51482   5.468   0.623   6.991 -0.5084  0.8538 -0.0699
  374MOL0     C51483   5.402   0.654   6.868 -0.4271  0.0570  0.7658
  374MOL0     C51484   5.411   0.810   6.859 -0.3479 -0.2617  0.9398
  374MOL0     C51485   5.349   0.862   6.728  0.3496  0.5018 -0.6253
  374MOL0     C51486   5.230   0.956   6.770  0.7000 -0.7099  0.5404
  374MOL0     C51487   5.170   1.029   6.644 -0.8919 -0.2511 -0.4315
  374MOL0     C51488   5.061   1.123   6.688  0.3633 -0.5664  1.3785
  374MOL0     C51489   5.138   1.262   6.713  0.6220  0.1806  0.6327
  374MOL0     C51490   5.049   1.379   6.747  0.1059 -0.3316 -0.1441
  374MOL0     N51491   4.966   1.418   6.635 -0.1293 -0.8220 -0.1029
  374MOL0     C51492   5.007   1.500   6.534  0.1246  0.0086 -0.1766
  374MOL0     C51493   4.900   1.513   6.439 -0.1767 -0.0566  0.2635
  374MOL0     C51494   4.893   1.600   6.321 -0.8421 -0.1952  0.4339
  374MOL0     C51495   5.022   1.605   6.241  0.6429 -0.5815 -0.0907
  374MOL0     C51496   5.014   1.702   6.118 -1.1462  0.5471 -0.8617
  374MOL0     C51497   5.149   1.701   6.047 -0.2549 -0.1972 -0.2234
  374MOL0     O51498   5.255   1.734   6.136  0.6217  0.0052  0.0690
  374MOL0     C51499   5.357   1.786   6.074  0.1243 -0.0502 -0.6751
  374MOL0     C51500   5.390   1.916   6.100 -0.3109 -0.5061  0.4563
  374MOL0     C51501   5.493   1.983   6.030  0.0357 -0.7766 -0.1163
  374MOL0     C51502   5.533   2.120   6.083 -0.8369  0.0141  0.5660
  374MOL0     C51503   5.566   1.922   5.923 -0.0198  0.1076 -0.1854
  374MOL0     C51504   5.684   1.980   5.847 -0.3520  0.1409  0.0439
  374MOL0     O51505   5.749   1.903   5.761  0.0093 -0.1580  0.0986
  374MOL0     C51506   5.841   1.976   5.688  1.1546  0.1688 -0.0038
  374MOL0     C51507   5.794   2.063   5.594 -0.3583  0.3704  0.5351
  374MOL0     C51508   5.886   2.149   5.524 -0.4640  0.0706 -0.6847
  374MOL0     C51509   6.026   2.131   5.540  0.6633 -0.4592  0.0685
  374MOL0     O51510   6.120   2.210   5.484 -0.7048 -0.0325  0.2321
  374MOL0     C51511   6.132   2.342   5.530  0.0739 -0.3179  0.7755
  374MOL0     C51512   6.280   2.384   5.536  0.3025  0.3554 -0.3333
  374MOL0     C51513   6.298   2.534   5.547 -0.5451 -0.2885 -0.0336
  374MOL0     C51514   6.225   2.598   5.664  0.4048  0.0998  0.3511
  374MOL0     C51515   6.248   2.754   5.650 -0.0388 -0.4313 -0.2726
  374MOL0     C51516   6.388   2.802   5.608  0.4204 -0.1007  0.0797
  374MOL0     C51517   6.400   2.949   5.630 -0.0102  0.1325 -0.0319
  374MOL0     C51518   6.539   2.997   5.642  0.0736  0.3477  0.0256
  374MOL0    Cl51519   6.617   2.896   5.771 -0.3765  0.1912 -0.9255
  374MOL0     C51520   6.068   2.039   5.632 -0.1810 -0.2507  0.0588
  374MOL0     C51521   5.975   1.964   5.710  0.0450  0.5601  0.3501
  374MOL0     O51522   5.702   2.095   5.869  0.2152 -0.3577  0.4949
  374MOL0     C51523   5.539   1.782   5.907  0.1685 -1.3137 -0.0957
  374MOL0     C51524   5.431   1.721   5.974 -0.3813  0.2991 -0.6281
  374MOL0     N51525   4.795   1.438   6.493 -0.0398 -0.8063  0.0054
  374MOL0     N51526   4.838   1.382   6.609  0.0768  0.2931 -0.4363
  374MOL0     C51527   5.583   0.426   6.900  0.7074 -0.9459  0.8686
  374MOL0     C51528   5.705   0.369   6.874  0.3592  0.0173 -0.6061
  374MOL0     C51529   6.063   0.135   6.860  0.9684  0.1505  0.5018
  374MOL0     C51530   6.018   0.011   6.813 -0.1018  0.3059  0.1035
  374MOL0     C51531   6.107  -0.076   6.741  0.6488  0.1990 -0.7834
  374MOL0     C51532   6.247  -0.045   6.728  0.3049  0.7367  0.8442
  374MOL0     O51533   6.331  -0.130   6.674  0.0339  0.7303  0.2559
  374MOL0     C51534   6.328  -0.123   6.525 -0.4139  0.6137 -0.5156
  374MOL0     C51535   6.416  -0.019   6.472  0.5401  0.3641 -0.5155
  374MOL0     C51536   6.556  -0.003   6.525 -0.9583 -0.3162  0.1219
  374MOL0     C51537   6.653  -0.118   6.486  0.4220  0.5011  0.6109
  374MOL0     C51538   6.615  -0.249   6.540 -0.5120 -0.3993  0.2934
  374MOL0     C51539   6.571  -0.349   6.588  1.2655 -0.1660 -0.4543
  374MOL0     C51540   6.287   0.073   6.779  0.8047 -0.1452  0.0406
  374MOL0     C51541   6.199   0.161   6.844  0.1134 -0.3255 -0.0222
  374MOL0     C51542   6.266   0.293   6.880 -0.5211 -1.2344 -0.5147
  374MOL0     H51543   5.912   0.589   7.030  0.0220 -0.3778  0.6713
  374MOL0     H51544   5.713   0.683   7.084  3.2010 -0.3362  0.0433
  374MOL0     H51545   5.303   0.607   6.876 -0.0915 -0.4551  2.1316
  374MOL0     H51546   5.446   0.619   6.774 -2.3409  0.3334 -0.2796
  374MOL0     H51547   5.361   0.850   6.948  0.9225  2.9638  0.3102
  374MOL0     H51548   5.518   0.829   6.867 -0.3707  0.3588 -0.1435
  374MOL0     H51549   5.425   0.913   6.668  2.0061 -0.6270  0.4626
  374MOL0     H51550   5.305   0.779   6.672 -1.0050  0.3524  0.6116
  374MOL0     H51551   5.153   0.896   6.819 -0.4462  0.9794  0.9337
  374MOL0     H51552   5.259   1.029   6.846  2.6300 -1.1125  0.2326
  374MOL0     H51553   5.134   0.960   6.566  2.5058 -0.5315 -1.9019
  374MOL0     H51554   5.250   1.081   6.591 -0.6700 -0.1681 -0.0160
  374MOL0     H51555   4.982   1.130   6.613 -0.7598 -2.6721  2.2823
  374MOL0     H51556   5.007   1.099   6.781 -1.7936 -0.9500  0.0921
  374MOL0     H51557   5.214   1.296   6.642  1.5430  2.0890  2.4341
  374MOL0     H51558   5.196   1.254   6.805  0.9181 -3.4855  0.2783
  374MOL0     H51559   4.985   1.338   6.825 -2.0939  0.2772 -1.5425
  374MOL0     H51560   5.111   1.462   6.781 -0.1178 -0.5215  0.7370
  374MOL0     H51561   5.107   1.541   6.530 -0.8333  2.4280 -1.2782
  374MOL0     H51562   4.870   1.698   6.364 -1.0282 -0.3085  0.5902
  374MOL0     H51563   4.812   1.566   6.256  0.3199  0.7840 -1.6478
  374MOL0     H51564   5.097   1.647   6.310 -1.3658  2.9750  0.2075
  374MOL0     H51565   5.038   1.506   6.197 -0.7383  0.1289 -2.3380
  374MOL0     H51566   4.942   1.664   6.045  0.2664 -1.4343 -1.3008
  374MOL0     H51567   4.996   1.802   6.159 -2.2351  0.3273 -0.7770
  374MOL0     H51568   5.164   1.600   6.008 -1.3320 -0.0559 -1.0384
  374MOL0     H51569   5.145   1.777   5.969 -0.1926 -0.7809 -0.8075
  374MOL0     H51570   5.339   1.965   6.182 -0.8438  1.8609 -1.1807
  374MOL0     H51571   5.640   2.135   6.102 -1.1680 -0.8420  3.6012
  374MOL0     H51572   5.502   2.130   6.187  1.8758 -1.5771  1.6372
  374MOL0     H51573   5.489   2.197   6.019 -4.5641 -1.5120  1.0311
  374MOL0     H51574   5.689   2.064   5.567  0.2524  1.5555 -2.1163
  374MOL0     H51575   5.849   2.217   5.448  0.9987 -0.8927 -2.3136
  374MOL0     H51576   6.058   2.404   5.479 -3.0009 -3.6624  0.7403
  374MOL0     H51577   6.091   2.356   5.630  1.4179 -2.9738  1.8153
  374MOL0     H51578   6.312   2.341   5.631  0.6538  3.9540  1.3324
  374MOL0     H51579   6.337   2.336   5.455 -1.5386 -0.6366 -1.0875
  374MOL0     H51580   6.264   2.585   5.456 -0.2365 -0.6400 -0.3479
  374MOL0     H51581   6.404   2.553   5.566 -0.8658  0.3783  1.1642
  374MOL0     H51582   6.252   2.555   5.761 -0.3788 -1.1194  0.0409
  374MOL0     H51583   6.118   2.584   5.652  0.8670 -0.8579 -4.5198
  374MOL0     H51584   6.188   2.785   5.564 -1.1502  1.3223  1.0597
  374MOL0     H51585   6.226   2.809   5.742  1.7139 -0.9518  0.4907
  374MOL0     H51586   6.404   2.785   5.502  2.6479 -1.1695  0.5327
  374MOL0     H51587   6.464   2.746   5.664  0.5236 -0.4262 -0.3820
  374MOL0     H51588   6.347   2.994   5.715  1.7495  1.2995  0.5024
  374MOL0     H51589   6.365   3.003   5.541  1.3908  2.5033  0.7517
  374MOL0     H51590   6.537   3.103   5.667 -0.1349  0.2147  0.5885
  374MOL0     H51591   6.577   2.977   5.541 -1.3699 -5.4054  0.2439
  374MOL0     H51592   6.173   2.018   5.647 -0.3684  0.2622  2.5713
  374MOL0     H51593   6.013   1.895   5.784  1.7893  1.1482  0.0438
  374MOL0     H51594   5.597   1.717   5.842  0.9926  0.1557 -0.8778
  374MOL0     H51595   5.401   1.617   5.968 -2.9507  1.0297 -1.8121
  374MOL0     H51596   5.490   0.376   6.875 -0.9331  1.8958  0.8665
  374MOL0     H51597   5.705   0.286   6.805  2.0107 -0.7279  0.2348
  374MOL0     H51598   5.912  -0.009   6.829 -0.2842  1.9409  1.1501
  374MOL0     H51599   6.076  -0.172   6.703  0.3792 -0.9706  2.1166
  374MOL0     H51600   6.349  -0.227   6.495 -1.0047 -1.1688  4.2953
  374MOL0     H51601   6.222  -0.110   6.504 -0.9339  1.8897  2.4263
  374MOL0     H51602   6.365   0.076   6.493 -2.1736 -1.1320  0.1133
  374MOL0     H51603   6.418  -0.027   6.362 -0.9199  1.2906 -0.6455
  374MOL0     H51604   6.591   0.092   6.484  0.9465 -0.0186  2.2911
  374MOL0     H51605   6.566   0.027   6.629  1.5157  5.3475 -1.3876
  374MOL0     H51606   6.756  -0.105   6.522  0.8791 -1.4983  0.1585
  374MOL0     H51607   6.669  -0.125   6.378 -1.1444  2.2244  0.2223
  374MOL0     H51608   6.527  -0.435   6.635  1.2702 -1.6693 -2.9962
  374MOL0     H51609   6.395   0.082   6.779  1.1350 -3.0756  1.1938
  374MOL0     H51610   6.238   0.386   6.830  2.4956  1.7325  2.7600
  374MOL0     H51611   6.249   0.322   6.984 -1.6937  3.4838 -1.8051
  374MOL0     H51612   6.375   0.285   6.872  0.0532  3.7937 -1.2365
  375MOL0     O51613   3.044   0.731   6.732  0.0615  0.4419 -0.0937
  375MOL0     C51614   3.161   0.708   6.762  0.4699  0.3437  0.8147
  375MOL0     O51615   3.231   0.595   6.729 -0.3943 -0.7813  0.1075
  375MOL0     C51616   3.163   0.504   6.648 -0.6299 -0.2462  0.4190
  375MOL0     C51617   3.113   0.543   6.522  0.8714 -0.2568  0.2122
  375MOL0     C51618   3.043   0.451   6.440 -1.2082  0.3209  0.0436
  375MOL0     C51619   3.019   0.322   6.483 -0.4148  0.4540  0.3295
  375MOL0     O51620   2.962   0.216   6.413 -0.6424  0.5980  0.2174
  375MOL0     C51621   3.001   0.211   6.282 -0.4194 -1.6723 -0.1263
  375MOL0     C51622   2.958   0.089   6.214  0.4016 -0.0223  0.6337
  375MOL0     C51623   3.048  -0.029   6.217  0.4656 -0.1347  0.1346
  375MOL0     C51624   2.996  -0.115   6.099  0.5512  0.2056  0.1851
  375MOL0     C51625   3.072  -0.238   6.095 -0.2445  0.7074 -0.1010
  375MOL0     C51626   3.062  -0.307   5.961 -0.7007  0.2945  0.6721
  375MOL0     C51627   2.925  -0.365   5.954  0.8123 -0.1699  0.2557
  375MOL0     C51628   2.897  -0.429   5.810  0.5950 -0.0776 -0.2414
  375MOL0     N51629   2.882  -0.330   5.704  0.1266  0.0590 -0.1283
  375MOL0     C51630   2.768  -0.254   5.680 -0.4079  0.1230 -0.8136
  375MOL0     C51631   2.797  -0.183   5.566  0.1552 -0.2053  0.8078
  375MOL0     C51632   2.703  -0.081   5.495  0.5337  0.0461  0.1509
  375MOL0     C51633   2.638  -0.129   5.371 -0.4303 -0.3277 -0.1513
  375MOL0     C51634   2.736  -0.129   5.258 -0.3913 -0.8005 -0.5269
  375MOL0     C51635   2.669  -0.164   5.131 -0.2119 -0.1676  0.7742
  375MOL0     O51636   2.753  -0.233   5.037  0.1258 -0.4602 -0.7706
  375MOL0     C51637   2.844  -0.171   4.961 -0.4205 -0.0271  0.5673
  375MOL0     C51638   2.840  -0.027   4.927 -0.0401  0.3713  0.5172
  375MOL0     C51639   2.938   0.032   4.826 -0.7478  0.7228 -0.7770
  375MOL0     C51640   2.906   0.181   4.797 -1.4228  0.0824 -0.1143
  375MOL0     C51641   3.029  -0.056   4.771  0.0110 -0.8991  0.9029
  375MOL0     C51642   3.131  -0.019   4.667  0.2510 -0.2192 -0.5574
  375MOL0     O51643   3.184  -0.119   4.593 -0.1710  0.5123  0.7073
  375MOL0     C51644   3.287  -0.088   4.505 -0.8118  0.4219 -0.5155
  375MOL0     C51645   3.402  -0.022   4.547 -0.1286 -0.0686 -0.1876
  375MOL0     C51646   3.515   0.000   4.466  0.0048 -1.0458  1.0177
  375MOL0     C51647   3.514  -0.043   4.329 -0.4547 -0.4534 -0.7100
  375MOL0     O51648   3.612  -0.024   4.236 -0.2810  0.1375 -0.1278
  375MOL0     C51649   3.749  -0.027   4.288 -0.7016 -0.7120 -0.3960
  375MOL0     C51650   3.863  -0.023   4.181  1.2383 -0.1462  0.2146
  375MOL0     C51651   3.902   0.112   4.136  0.2494 -0.2123  0.2696
  375MOL0     C51652   3.789   0.189   4.065 -0.4329  0.5797 -1.3940
  375MOL0     C51653   3.847   0.318   4.004  0.6948 -0.2556 -0.4980
  375MOL0     C51654   3.745   0.423   3.962 -0.1848 -0.6601  0.3224
  375MOL0     C51655   3.621   0.346   3.910 -1.0538 -0.7699 -0.3943
  375MOL0     C51656   3.519   0.446   3.852  0.1250  0.0313  0.2728
  375MOL0    Cl51657   3.493   0.602   3.945 -0.4138  0.5842  0.2177
  375MOL0     C51658   3.402  -0.116   4.287  0.0563 -0.0563  0.0989
  375MOL0     C51659   3.289  -0.138   4.376 -0.3274 -0.2109  0.1531
  375MOL0     O51660   3.144   0.101   4.641 -0.3466 -0.3795  0.4304
  375MOL0     C51661   3.028  -0.187   4.810  1.5018 -0.2548  0.2978
  375MOL0     C51662   2.943  -0.248   4.896 -0.2324  0.1147 -1.5172
  375MOL0     N51663   2.920  -0.225   5.520 -0.2263 -0.6219 -1.1839
  375MOL0     N51664   2.971  -0.292   5.611 -0.0400  0.5661 -1.1108
  375MOL0     C51665   3.068   0.283   6.611  0.3596  0.1878  1.0371
  375MOL0     C51666   3.142   0.374   6.687 -0.9422 -0.4850 -0.2473
  375MOL0     C51667   3.246   0.816   6.828 -0.5528 -0.7156 -1.0113
  375MOL0     C51668   3.382   0.822   6.792  0.5626  0.1750  0.6090
  375MOL0     C51669   3.467   0.909   6.864 -0.3920 -0.5382 -0.5274
  375MOL0     C51670   3.428   0.989   6.975  0.8005 -0.5334 -0.7777
  375MOL0     O51671   3.502   1.071   7.058  0.1080 -0.2220  0.5762
  375MOL0     C51672   3.646   1.069   7.060 -0.1034  0.4618 -0.5422
  375MOL0     C51673   3.696   1.016   7.200  0.3693 -0.8204 -0.5238
  375MOL0     C51674   3.838   0.975   7.213  1.0005 -0.3120  0.5909
  375MOL0     C51675   3.875   0.967   7.358  0.5614 -0.7382  0.4368
  375MOL0     C51676   3.882   1.105   7.418  0.0382  0.2007  0.6568
  375MOL0     C51677   3.886   1.224   7.456 -0.7609  0.0719  0.4281
  375MOL0     C51678   3.293   0.984   7.009  1.3338  0.2056 -0.0404
  375MOL0     C51679   3.207   0.903   6.935 -0.7911 -0.7444  0.1985
  375MOL0     C51680   3.060   0.924   6.964  0.0487  1.3797 -0.8627
  375MOL0     H51681   3.112   0.646   6.490 -3.7407 -0.1306  0.1679
  375MOL0     H51682   2.997   0.471   6.344 -2.0151 -1.1526  0.0917
  375MOL0     H51683   3.109   0.213   6.270 -0.2235 -1.9179  1.3966
  375MOL0     H51684   2.945   0.291   6.232  0.5409 -1.7739 -1.4103
  375MOL0     H51685   2.864   0.055   6.259  0.9526 -1.2054  0.9324
  375MOL0     H51686   2.941   0.111   6.109  1.6728  0.5702  0.5392
  375MOL0     H51687   3.153  -0.001   6.199  1.1439 -1.5374  1.6246
  375MOL0     H51688   3.046  -0.079   6.314  1.6532  0.4190  0.4681
  375MOL0     H51689   2.889  -0.136   6.114  0.7066  1.2355  3.6100
  375MOL0     H51690   3.017  -0.078   5.999 -0.1340 -1.2063 -0.5000
  375MOL0     H51691   3.044  -0.310   6.173  0.8947 -1.4904 -1.6306
  375MOL0     H51692   3.179  -0.216   6.105  0.1594 -0.3130 -1.8423
  375MOL0     H51693   3.103  -0.248   5.879 -1.4500  3.3983  2.3847
  375MOL0     H51694   3.129  -0.394   5.969 -2.3923 -1.0787  0.4830
  375MOL0     H51695   2.847  -0.294   5.984  1.3429  0.1138  1.0211
  375MOL0     H51696   2.926  -0.449   6.024 -0.9708 -0.4958 -0.0746
  375MOL0     H51697   2.978  -0.497   5.782  1.5690  1.0254 -0.1341
  375MOL0     H51698   2.804  -0.487   5.803  0.7083 -0.3847  0.7132
  375MOL0     H51699   2.684  -0.230   5.744 -1.0746  0.2913 -1.7391
  375MOL0     H51700   2.766   0.008   5.483 -0.7446  0.7851 -1.5525
  375MOL0     H51701   2.617  -0.057   5.558 -1.6477 -1.4658 -2.0645
  375MOL0     H51702   2.586  -0.223   5.390 -1.9321  0.6058  0.4864
  375MOL0     H51703   2.557  -0.060   5.346  0.4674  0.9877  0.4943
  375MOL0     H51704   2.778  -0.028   5.246 -0.9951 -0.6096 -1.1311
  375MOL0     H51705   2.819  -0.197   5.281  0.6568  0.6896  0.3406
  375MOL0     H51706   2.595  -0.243   5.146 -0.7122 -0.3693 -2.2376
  375MOL0     H51707   2.605  -0.085   5.090  0.4622 -0.0303 -0.0248
  375MOL0     H51708   2.772   0.044   4.974  2.0005  1.8777  1.3624
  375MOL0     H51709   2.837   0.180   4.713  0.1045 -0.3154 -1.4006
  375MOL0     H51710   2.998   0.237   4.781 -0.5733 -1.5814 -1.2652
  375MOL0     H51711   2.862   0.228   4.886  0.0040 -0.4582  0.9131
  375MOL0     H51712   3.393   0.012   4.650 -3.1651 -1.8653  0.2512
  375MOL0     H51713   3.598   0.055   4.510 -1.6368  1.6482  0.9856
  375MOL0     H51714   3.753   0.062   4.351 -2.8436 -1.9521  1.6699
  375MOL0     H51715   3.760  -0.118   4.348 -2.3495  0.1491  1.3442
  375MOL0     H51716   3.948  -0.069   4.231  2.0118 -0.6049 -1.4503
  375MOL0     H51717   3.824  -0.081   4.097 -1.1430  1.0134  0.4123
  375MOL0     H51718   3.988   0.104   4.069  1.5423  1.8485  1.5895
  375MOL0     H51719   3.928   0.167   4.227 -0.4359 -3.9313  2.9511
  375MOL0     H51720   3.708   0.221   4.132  1.6195  3.7138 -0.2112
  375MOL0     H51721   3.742   0.124   3.991 -0.0159 -2.6459  0.9735
  375MOL0     H51722   3.903   0.360   4.088 -2.3352 -0.6788  1.9282
  375MOL0     H51723   3.918   0.288   3.927  0.5943 -1.3079 -0.1942
  375MOL0     H51724   3.798   0.478   3.884 -0.6727  0.4105  0.7182
  375MOL0     H51725   3.715   0.491   4.042  1.5093  0.3590  0.1380
  375MOL0     H51726   3.569   0.302   3.996 -2.4356 -4.2651 -2.7847
  375MOL0     H51727   3.637   0.269   3.834 -3.7908 -1.0186 -0.8406
  375MOL0     H51728   3.424   0.394   3.864  1.2411 -3.0718 -2.6493
  375MOL0     H51729   3.537   0.461   3.745 -1.4246 -1.9382 -0.3225
  375MOL0     H51730   3.417  -0.152   4.186 -0.2121  1.0873 -0.3601
  375MOL0     H51731   3.208  -0.206   4.354 -1.6882  1.5210 -0.3897
  375MOL0     H51732   3.091  -0.261   4.760  1.2847  0.8622 -1.7410
  375MOL0     H51733   2.941  -0.354   4.917 -2.9230  0.8175  3.0895
  375MOL0     H51734   3.054   0.187   6.659 -0.8999 -0.7058 -0.9726
  375MOL0     H51735   3.181   0.350   6.786  1.2744  1.3352 -0.5951
  375MOL0     H51736   3.406   0.765   6.703 -2.4301  3.4350 -2.6352
  375MOL0     H51737   3.565   0.938   6.828 -0.3007 -0.0738  0.0804
  375MOL0     H51738   3.686   1.001   6.984 -0.0559  1.3044 -1.2944
  375MOL0     H51739   3.681   1.171   7.040 -0.1208  0.2239 -1.8503
  375MOL0     H51740   3.642   0.928   7.237  1.1127  0.0122  2.9536
  375MOL0     H51741   3.669   1.098   7.267 -0.3043 -1.8155  0.4672
  375MOL0     H51742   3.855   0.881   7.159  4.4862  0.7468 -0.4650
  375MOL0     H51743   3.908   1.049   7.173  0.9482  0.2366  1.4775
  375MOL0     H51744   3.979   0.931   7.364  0.9098  0.4020  3.1811
  375MOL0     H51745   3.810   0.901   7.415 -0.0225 -2.2499 -1.8709
  375MOL0     H51746   3.872   1.326   7.487 -2.0725  0.0386 -0.0203
  375MOL0     H51747   3.255   1.048   7.088 -2.5187 -1.4744 -0.2762
  375MOL0     H51748   3.005   0.830   6.972 -3.2578  3.2119 -0.1027
  375MOL0     H51749   3.051   0.962   7.066  0.8161 -0.8618  0.0806
  375MOL0     H51750   2.996   0.989   6.902 -2.2268 -0.5515 -0.6731
  376MOL0     O51751   9.347   9.329  11.186  0.4203  0.3934  0.2705
  376MOL0     C51752   9.356   9.428  11.118  0.1401 -0.3456 -0.0353
  376MOL0     O51753   9.283   9.539  11.134  0.2008  0.1306 -0.7427
  376MOL0     C51754   9.166   9.528  11.206  0.0740  0.6358 -1.3007
  376MOL0     C51755   9.156   9.500  11.343  0.7734  0.1589 -0.1538
  376MOL0     C51756   9.040   9.506  11.427  0.1096 -0.4260  0.0031
  376MOL0     C51757   8.923   9.551  11.370 -0.5818  0.7087 -0.7829
  376MOL0     O51758   8.801   9.572  11.435  0.5276  0.3452  0.7125
  376MOL0     C51759   8.801   9.536  11.574  0.4007  0.2519  0.7078
  376MOL0     C51760   8.693   9.621  11.647 -0.2638  0.6397  0.7902
  376MOL0     C51761   8.641   9.556  11.777  1.4135  0.1278 -0.0858
  376MOL0     C51762   8.526   9.636  11.844  0.8353  0.5441  0.6248
  376MOL0     C51763   8.509   9.577  11.981  0.3251 -0.0938  0.2150
  376MOL0     C51764   8.442   9.436  11.982 -0.3635  0.1530  0.4032
  376MOL0     C51765   8.416   9.383  12.123  0.2487  0.1933 -0.4320
  376MOL0     C51766   8.312   9.457  12.210 -0.8888 -0.3779  0.0224
  376MOL0     N51767   8.191   9.386  12.214  0.3580 -0.6963 -0.2320
  376MOL0     C51768   8.089   9.382  12.127 -1.1332  0.2718 -0.2753
  376MOL0     C51769   8.002   9.289  12.169  0.1333 -0.0657 -0.4599
  376MOL0     C51770   7.864   9.247  12.104 -0.2702  0.0783 -0.5886
  376MOL0     C51771   7.866   9.104  12.044 -0.0260  0.3977  0.1582
  376MOL0     C51772   7.839   8.999  12.158 -0.1521 -0.0748 -0.1609
  376MOL0     C51773   7.802   8.873  12.100  1.3842  0.4170 -0.3657
  376MOL0     O51774   7.912   8.809  12.035  0.1963  0.4704  0.1579
  376MOL0     C51775   7.882   8.702  11.954  0.1554  0.9914  0.0569
  376MOL0     C51776   7.976   8.654  11.865  0.8019 -0.6083 -0.0293
  376MOL0     C51777   7.956   8.559  11.767 -0.3764  0.3671  0.3833
  376MOL0     C51778   8.083   8.531  11.687  1.0366 -0.6654 -0.5751
  376MOL0     C51779   7.830   8.499  11.762  0.2066  0.6449 -0.7167
  376MOL0     C51780   7.787   8.392  11.663 -0.3749  0.3323  1.0603
  376MOL0     O51781   7.688   8.310  11.704  0.6767 -0.5505  0.7635
  376MOL0     C51782   7.613   8.241  11.610  0.6565  0.8814  0.1799
  376MOL0     C51783   7.490   8.265  11.548 -0.3850 -0.2895  1.1153
  376MOL0     C51784   7.424   8.162  11.479  0.4761  0.2541  0.3513
  376MOL0     C51785   7.480   8.036  11.445 -0.5012 -0.8335  0.3170
  376MOL0     O51786   7.415   7.950  11.356 -1.3915 -0.0862 -0.4650
  376MOL0     C51787   7.482   7.825  11.351 -0.3846 -0.1083  0.1893
  376MOL0     C51788   7.405   7.716  11.275 -0.0989 -0.2373 -0.1141
  376MOL0     C51789   7.502   7.596  11.246 -0.2255 -0.0463 -0.2311
  376MOL0     C51790   7.447   7.510  11.134 -0.3479  0.0525 -0.3938
  376MOL0     C51791   7.521   7.378  11.113 -0.0005 -0.5515  0.2699
  376MOL0     C51792   7.679   7.390  11.112  0.0621  0.1276  0.0588
  376MOL0     C51793   7.752   7.255  11.094 -0.2611  0.2864  0.2136
  376MOL0     C51794   7.710   7.157  10.974 -0.8069 -0.3905 -0.8762
  376MOL0    Cl51795   7.824   7.014  10.993  0.0644 -0.3348 -0.0050
  376MOL0     C51796   7.601   8.015  11.507 -0.0138 -0.4073 -1.0489
  376MOL0     C51797   7.667   8.112  11.583 -0.4194 -0.1790  0.4414
  376MOL0     O51798   7.834   8.392  11.552  0.6757 -0.3227 -0.5435
  376MOL0     C51799   7.740   8.530  11.867  0.7031 -0.8750 -0.5012
  376MOL0     C51800   7.761   8.634  11.961  0.3379  0.4144  1.0655
  376MOL0     N51801   8.046   9.256  12.302  0.4837 -0.6724 -1.1986
  376MOL0     N51802   8.165   9.296  12.309  0.6342  0.3311 -0.8535
  376MOL0     C51803   8.930   9.583  11.236 -0.0867 -0.4686 -0.1193
  376MOL0     C51804   9.047   9.577  11.154  0.5114  0.0334 -0.1732
  376MOL0     C51805   9.474   9.451  11.022  0.0581 -0.3040 -0.2361
  376MOL0     C51806   9.488   9.576  10.969  0.4522 -0.0315 -0.6341
  376MOL0     C51807   9.582   9.601  10.874 -0.7163  0.2873  0.0024
  376MOL0     C51808   9.688   9.506  10.840 -0.4037  0.2049  0.3863
  376MOL0     O51809   9.783   9.510  10.739 -0.6622 -0.1102 -0.2127
  376MOL0     C51810   9.915   9.560  10.781  0.4821  0.4622  1.0069
  376MOL0     C51811   9.927   9.697  10.715 -0.3559 -0.3053 -0.9392
  376MOL0     C51812   9.945   9.697  10.563  0.0650 -0.3570  0.8610
  376MOL0     C51813   9.973   9.835  10.514 -0.4964  0.9495 -0.5496
  376MOL0     C51814  10.110   9.894  10.543 -0.6317 -0.0257  0.8413
  376MOL0     C51815  10.215   9.945  10.573  0.9821  0.2739 -0.6343
  376MOL0     C51816   9.683   9.389  10.917  0.1920  0.9647 -0.7725
  376MOL0     C51817   9.579   9.351  11.004  0.5852  0.1151 -0.9044
  376MOL0     C51818   9.596   9.223  11.087  0.1171 -0.5444  0.0892
  376MOL0     H51819   9.232   9.447  11.400  1.0967  1.8777  1.0771
  376MOL0     H51820   9.055   9.473  11.529 -0.4428  0.6816  0.4476
  376MOL0     H51821   8.895   9.550  11.629 -0.6657 -2.0844  3.3317
  376MOL0     H51822   8.764   9.433  11.572  0.2643  0.2833 -1.4218
  376MOL0     H51823   8.739   9.716  11.677  2.3347 -0.2801 -0.0492
  376MOL0     H51824   8.610   9.647  11.580  2.6316 -0.4932 -3.7186
  376MOL0     H51825   8.596   9.458  11.757  0.0596 -0.5928  5.0841
  376MOL0     H51826   8.721   9.539  11.850  1.7420  1.4832 -0.1101
  376MOL0     H51827   8.557   9.740  11.856  1.1225  0.2923  2.1922
  376MOL0     H51828   8.440   9.644  11.777  2.2138  3.9389 -1.0203
  376MOL0     H51829   8.457   9.645  12.049  0.0075 -0.5827  0.4717
  376MOL0     H51830   8.611   9.576  12.020  0.4084  3.0152  0.3219
  376MOL0     H51831   8.357   9.428  11.913  0.2037  1.8015 -0.5488
  376MOL0     H51832   8.517   9.369  11.938 -0.7730  0.1496 -0.3105
  376MOL0     H51833   8.508   9.395  12.180  1.1779  3.9481 -2.3971
  376MOL0     H51834   8.396   9.277  12.106  1.4306 -0.1511  0.2335
  376MOL0     H51835   8.342   9.474  12.314  1.8268  1.5199 -0.9601
  376MOL0     H51836   8.276   9.550  12.165 -0.7006 -1.0642 -1.6202
  376MOL0     H51837   8.096   9.429  12.030  3.1547 -0.6817 -0.6098
  376MOL0     H51838   7.829   9.325  12.036 -0.0738  2.1811  1.6012
  376MOL0     H51839   7.798   9.254  12.190 -0.3831 -1.8935 -0.4821
  376MOL0     H51840   7.787   9.104  11.968  1.3870  0.5872 -1.3707
  376MOL0     H51841   7.958   9.098  11.984 -1.1490  2.6415 -1.9802
  376MOL0     H51842   7.928   8.988  12.219  1.0586 -2.2186 -2.1531
  376MOL0     H51843   7.762   9.040  12.224 -1.9581 -0.3327 -1.9895
  376MOL0     H51844   7.764   8.802  12.174  2.3048 -1.1495 -1.3581
  376MOL0     H51845   7.721   8.880  12.027  0.4828 -1.7729  0.3273
  376MOL0     H51846   8.065   8.716  11.864 -1.8160  3.5684 -2.3075
  376MOL0     H51847   8.123   8.624  11.645  3.2220 -1.0513  0.4830
  376MOL0     H51848   8.075   8.453  11.611  1.7510 -1.4097  0.1003
  376MOL0     H51849   8.165   8.505  11.754  1.2521  2.9255  0.7874
  376MOL0     H51850   7.449   8.365  11.560  1.2255  0.8476 -1.6595
  376MOL0     H51851   7.325   8.169  11.435  0.3839 -4.9662 -0.9539
  376MOL0     H51852   7.580   7.844  11.307 -0.8734 -0.1028 -0.9178
  376MOL0     H51853   7.500   7.793  11.455  3.6778  3.4998  0.8776
  376MOL0     H51854   7.318   7.692  11.337  1.1558  1.2766  2.4107
  376MOL0     H51855   7.371   7.759  11.181  0.1283 -1.0242 -0.5674
  376MOL0     H51856   7.506   7.543  11.341 -3.1834  2.5821  1.5585
  376MOL0     H51857   7.602   7.626  11.212 -0.1354 -0.9563 -0.7962
  376MOL0     H51858   7.449   7.571  11.043  0.1626  2.0227  0.8731
  376MOL0     H51859   7.341   7.501  11.160 -0.1008  0.2091  0.7074
  376MOL0     H51860   7.485   7.316  11.196  0.2670 -0.5416  0.3950
  376MOL0     H51861   7.489   7.327  11.022 -1.1350  1.7868 -0.7048
  376MOL0     H51862   7.716   7.414  11.212 -0.9664 -2.2631  1.0976
  376MOL0     H51863   7.716   7.461  11.037 -1.6205  0.7605 -0.2261
  376MOL0     H51864   7.743   7.191  11.183  1.9564 -0.4846 -0.0593
  376MOL0     H51865   7.858   7.277  11.080  0.3125 -0.2335  3.0687
  376MOL0     H51866   7.730   7.202  10.877 -0.3932 -1.3036 -1.2238
  376MOL0     H51867   7.605   7.124  10.979 -0.9099  0.0430  0.0866
  376MOL0     H51868   7.662   7.925  11.508 -1.6082 -1.5362 -1.9153
  376MOL0     H51869   7.764   8.103  11.630 -0.5844  1.7470  1.2770
  376MOL0     H51870   7.644   8.481  11.874 -0.5038  1.2888 -1.1254
  376MOL0     H51871   7.695   8.660  12.044  0.6600  3.1467  0.5704
  376MOL0     H51872   8.841   9.600  11.178  0.2021 -1.2839 -0.8183
  376MOL0     H51873   9.046   9.619  11.054  0.4762 -1.6417 -0.9058
  376MOL0     H51874   9.408   9.648  10.980 -0.2823 -0.4882 -2.5490
  376MOL0     H51875   9.580   9.688  10.808 -1.1189 -0.6070 -1.2056
  376MOL0     H51876   9.917   9.562  10.890  1.6237  1.5383  1.0018
  376MOL0     H51877   9.992   9.495  10.737  1.5227  1.3598  1.4477
  376MOL0     H51878  10.016   9.737  10.764 -0.8193 -0.7129  0.2810
  376MOL0     H51879   9.844   9.761  10.745  1.3840  2.1379 -1.0800
  376MOL0     H51880  10.026   9.629  10.535  0.5491 -0.4138  2.3045
  376MOL0     H51881   9.859   9.652  10.513  1.1318 -0.8608 -0.5919
  376MOL0     H51882   9.898   9.901  10.556 -3.2955 -3.4786  2.2926
  376MOL0     H51883   9.964   9.823  10.405  3.1967  0.0534 -0.8894
  376MOL0     H51884  10.307   9.998  10.587  0.4076  1.8342 -2.3012
  376MOL0     H51885   9.762   9.318  10.896  0.6558  1.2807 -0.1596
  376MOL0     H51886   9.510   9.155  11.082  0.8698 -1.4880 -0.1862
  376MOL0     H51887   9.692   9.177  11.061  0.3636 -1.2240  2.0507
  376MOL0     H51888   9.601   9.257  11.191  1.1201  0.7171 -0.3423
  377MOL0     O51889  10.287   7.508   5.103  0.5744  0.5210  0.2996
  377MOL0     C51890  10.339   7.587   5.184  1.1031  0.3317  0.3620
  377MOL0     O51891  10.468   7.648   5.161  0.3067  0.1133 -0.1107
  377MOL0     C51892  10.532   7.617   5.045  0.3790  0.0838  0.7876
  377MOL0     C51893  10.672   7.578   5.053  0.5160 -0.2456 -0.4621
  377MOL0     C51894  10.744   7.559   4.943 -0.5445  0.4613  0.2618
  377MOL0     C51895  10.696   7.568   4.810 -0.7522  0.2335  1.1540
  377MOL0     O51896  10.787   7.562   4.702  1.0379 -0.4481 -0.7345
  377MOL0     C51897  10.724   7.575   4.566 -0.5776  0.0479  0.4052
  377MOL0     C51898  10.830   7.552   4.460 -0.1396  0.0483 -0.3084
  377MOL0     C51899  10.771   7.580   4.322  0.3773  0.0012  0.5593
  377MOL0     C51900  10.873   7.542   4.208 -0.1331  0.4164 -0.2584
  377MOL0     C51901  10.840   7.596   4.068  0.6996  0.6671  0.1070
  377MOL0     C51902  10.824   7.748   4.053  0.0232 -0.3841  0.4101
  377MOL0     C51903  10.959   7.817   4.041 -0.7923  0.1914 -0.4830
  377MOL0     C51904  10.950   7.967   4.030  1.2140 -1.4440 -0.0512
  377MOL0     N51905  11.079   8.031   3.995  0.5041  0.1156 -0.6513
  377MOL0     C51906  11.204   8.017   4.054  0.1091 -0.0649 -0.6316
  377MOL0     C51907  11.293   8.068   3.976 -0.2221  0.0153 -0.1795
  377MOL0     C51908  11.441   8.095   3.997 -0.3204  0.2407  0.7064
  377MOL0     C51909  11.517   7.987   4.074  0.3108 -0.7960 -0.0039
  377MOL0     C51910  11.661   8.022   4.108 -0.7199 -0.1580  0.1900
  377MOL0     C51911  11.750   8.067   3.987 -0.1020 -0.0867 -0.3388
  377MOL0     O51912  11.769   7.958   3.897 -1.0299 -0.0005  0.8808
  377MOL0     C51913  11.828   7.971   3.774 -0.1261 -0.5478  0.2350
  377MOL0     C51914  11.832   7.860   3.698  0.3386 -0.1046 -0.1516
  377MOL0     C51915  11.872   7.860   3.564 -0.8879 -0.4146  0.2719
  377MOL0     C51916  11.873   7.723   3.491  0.4469 -0.4822 -0.1582
  377MOL0     C51917  11.914   7.987   3.504 -0.1182  0.9713 -0.4888
  377MOL0     C51918  11.968   7.993   3.367 -0.0143  0.8056  0.1906
  377MOL0     O51919  11.900   8.064   3.269 -0.4897 -0.6616  0.1160
  377MOL0     C51920  11.970   8.110   3.159  0.0757  1.1164 -0.2165
  377MOL0     C51921  11.963   8.250   3.130 -0.0300  0.7914  0.4808
  377MOL0     C51922  12.040   8.302   3.015  0.2892  0.3961 -0.2651
  377MOL0     C51923  12.112   8.213   2.937  0.4124 -0.6406  0.0771
  377MOL0     O51924  12.169   8.272   2.826  0.0358 -0.3071 -0.1538
  377MOL0     C51925  12.234   8.186   2.730 -0.5150 -0.3798 -0.0532
  377MOL0     C51926  12.285   8.270   2.611 -0.1802  0.3016  0.5002
  377MOL0     C51927  12.160   8.299   2.522 -0.9746  0.1563 -0.3864
  377MOL0     C51928  12.206   8.397   2.407  0.3613  0.6002  0.3987
  377MOL0     C51929  12.104   8.429   2.296  0.3865  0.8855 -0.2006
  377MOL0     C51930  12.047   8.301   2.221 -1.2140 -0.5668  0.0245
  377MOL0     C51931  12.166   8.239   2.150 -0.1778  0.3049  0.4560
  377MOL0     C51932  12.127   8.121   2.057  0.0259 -0.6061 -0.4449
  377MOL0    Cl51933  11.982   8.163   1.950  0.1226  0.6838  0.5822
  377MOL0     C51934  12.122   8.081   2.972 -0.4171  0.2160 -0.1407
  377MOL0     C51935  12.048   8.029   3.077 -0.7917  0.3891  0.1620
  377MOL0     O51936  12.075   7.929   3.360  0.4054 -0.7638  0.5095
  377MOL0     C51937  11.905   8.098   3.582 -0.0315 -0.7022  0.0533
  377MOL0     C51938  11.864   8.093   3.715 -0.9630 -0.3202  0.4871
  377MOL0     N51939  11.225   8.106   3.857 -0.2522  0.2616 -0.2094
  377MOL0     N51940  11.100   8.085   3.875  0.0510 -0.7982  1.2102
  377MOL0     C51941  10.558   7.598   4.798  0.3799 -0.4537 -0.7126
  377MOL0     C51942  10.479   7.618   4.919  0.6339  0.1736 -0.6914
  377MOL0     C51943  10.287   7.610   5.322  0.3455 -0.1495  0.0610
  377MOL0     C51944  10.377   7.665   5.421 -0.0113  0.0350 -0.4896
  377MOL0     C51945  10.339   7.696   5.555  0.1838 -0.1173  0.5089
  377MOL0     C51946  10.203   7.665   5.596  0.4830 -0.9501 -0.1925
  377MOL0     O51947  10.165   7.685   5.731  0.0793  0.3249  0.7828
  377MOL0     C51948  10.031   7.744   5.738 -1.1761 -0.8402 -0.6987
  377MOL0     C51949   9.994   7.789   5.885  0.3549 -0.3249  0.8480
  377MOL0     C51950  10.103   7.883   5.939 -0.5442  0.3169  0.6197
  377MOL0     C51951  10.052   7.969   6.050  0.1083 -0.5293  0.9560
  377MOL0     C51952  10.140   8.084   6.079  0.5990 -0.1963  0.6221
  377MOL0     C51953  10.216   8.178   6.086 -0.4301 -0.2156 -0.2519
  377MOL0     C51954  10.119   7.608   5.500 -0.0956  0.1973 -0.1166
  377MOL0     C51955  10.155   7.583   5.368 -1.4438 -1.0563  0.2018
  377MOL0     C51956  10.047   7.532   5.279  0.1340 -0.7699 -0.1820
  377MOL0     H51957  10.721   7.563   5.149 -1.5816  0.0506  0.7149
  377MOL0     H51958  10.846   7.527   4.960 -0.2378  1.6595  0.7843
  377MOL0     H51959  10.677   7.673   4.555 -0.4981  0.0510  0.0616
  377MOL0     H51960  10.648   7.496   4.560  0.5792 -1.1775  1.2755
  377MOL0     H51961  10.926   7.598   4.484  0.2663 -0.8970 -0.0296
  377MOL0     H51962  10.862   7.447   4.457 -0.1754  0.0657 -2.3586
  377MOL0     H51963  10.684   7.517   4.303  0.0744  0.7793 -0.6729
  377MOL0     H51964  10.750   7.685   4.301  2.8054  0.1152 -1.9955
  377MOL0     H51965  10.966   7.590   4.239 -0.3047 -0.1875  1.3176
  377MOL0     H51966  10.892   7.434   4.206  0.4807  0.5249 -0.3064
  377MOL0     H51967  10.738   7.563   4.045  0.8998 -0.0934  0.2843
  377MOL0     H51968  10.914   7.560   3.996  5.1145  0.9630  4.0063
  377MOL0     H51969  10.782   7.766   3.954 -0.7396  1.1565  0.9911
  377MOL0     H51970  10.759   7.798   4.126  0.1217  3.2349 -1.7465
  377MOL0     H51971  11.011   7.773   3.955 -0.9035  2.3222 -1.7391
  377MOL0     H51972  11.013   7.790   4.132 -2.0074 -3.5493 -0.7035
  377MOL0     H51973  10.875   7.997   3.956 -1.4903 -0.2031  2.9696
  377MOL0     H51974  10.900   8.009   4.118 -3.0040  0.6453 -3.0882
  377MOL0     H51975  11.230   7.978   4.152 -1.6922 -0.7220 -0.3635
  377MOL0     H51976  11.446   8.188   4.054  0.9119  0.3405  0.4718
  377MOL0     H51977  11.479   8.108   3.895  0.2430 -0.6379  0.7958
  377MOL0     H51978  11.464   7.976   4.169  2.0877  0.4852  1.2049
  377MOL0     H51979  11.498   7.886   4.036 -1.2652 -0.4893 -0.0974
  377MOL0     H51980  11.663   8.113   4.169  0.1712  1.9394 -2.7451
  377MOL0     H51981  11.717   7.949   4.167  2.8263  2.0694 -0.1293
  377MOL0     H51982  11.713   8.158   3.939  0.7891 -0.3942 -1.6689
  377MOL0     H51983  11.853   8.079   4.020  1.2984  0.5319 -4.2977
  377MOL0     H51984  11.809   7.760   3.732 -2.3055  0.7762  0.8957
  377MOL0     H51985  11.772   7.696   3.457  1.7352 -2.4417 -2.7828
  377MOL0     H51986  11.910   7.648   3.561  0.9129  2.4985  3.0278
  377MOL0     H51987  11.948   7.716   3.412 -0.9834 -1.6101 -1.5000
  377MOL0     H51988  11.900   8.309   3.195  1.3057  1.6232  1.0605
  377MOL0     H51989  12.026   8.407   2.991  0.2431  1.0057  2.2201
  377MOL0     H51990  12.321   8.130   2.765 -0.4190 -0.2019 -0.0056
  377MOL0     H51991  12.164   8.112   2.690 -2.1651  1.8282 -1.5199
  377MOL0     H51992  12.332   8.360   2.651  0.9507  0.4055 -0.9736
  377MOL0     H51993  12.361   8.217   2.552 -0.5557  3.0979 -2.8451
  377MOL0     H51994  12.087   8.359   2.577 -0.3121 -0.6258  1.4016
  377MOL0     H51995  12.123   8.213   2.466  1.0396 -0.9669 -0.0871
  377MOL0     H51996  12.288   8.351   2.352 -0.2438 -0.2292  0.1706
  377MOL0     H51997  12.235   8.492   2.453  0.5285  1.5157 -1.5290
  377MOL0     H51998  12.019   8.478   2.345  1.1814  2.1707 -0.0517
  377MOL0     H51999  12.142   8.496   2.218 -1.7915  0.8322 -1.3899
  377MOL0     H52000  11.964   8.322   2.154 -0.4839 -0.7156 -0.9506
  377MOL0     H52001  12.010   8.220   2.284  1.6625 -3.4399 -1.6864
  377MOL0     H52002  12.222   8.201   2.236 -2.2366  0.2034  1.8344
  377MOL0     H52003  12.227   8.318   2.105  2.3020 -0.7776  1.7291
  377MOL0     H52004  12.100   8.042   2.127  0.0620 -0.5146 -0.3265
  377MOL0     H52005  12.209   8.086   1.993  1.3169 -1.0649  1.3723
  377MOL0     H52006  12.170   8.004   2.912 -0.2907 -1.4902  2.0152
  377MOL0     H52007  12.041   7.922   3.095  1.9876 -0.3377 -2.2569
  377MOL0     H52008  11.936   8.192   3.539 -1.3982 -1.4715 -2.8585
  377MOL0     H52009  11.848   8.178   3.781 -3.0536 -0.7966  0.6416
  377MOL0     H52010  10.510   7.626   4.705 -0.1723 -2.7617 -1.1728
  377MOL0     H52011  10.379   7.658   4.924 -0.4211 -2.3213  0.1177
  377MOL0     H52012  10.478   7.684   5.386  1.1187 -3.3646  0.5049
  377MOL0     H52013  10.405   7.755   5.618 -0.0099  1.6390 -0.8477
  377MOL0     H52014  10.028   7.833   5.674 -0.6454 -1.0498 -1.0225
  377MOL0     H52015   9.949   7.681   5.704 -0.3347 -2.7629  0.6599
  377MOL0     H52016   9.986   7.711   5.961  1.4098 -3.0862 -1.6853
  377MOL0     H52017   9.895   7.836   5.876  0.5420 -0.1734 -0.7032
  377MOL0     H52018  10.182   7.825   5.987 -0.1374 -1.4542 -1.9421
  377MOL0     H52019  10.134   7.945   5.854 -2.9690 -1.0599 -1.3903
  377MOL0     H52020  10.036   7.910   6.140 -2.7047 -0.5566  0.5387
  377MOL0     H52021   9.959   8.022   6.027  1.3880  2.8484  2.9039
  377MOL0     H52022  10.286   8.259   6.085 -2.0869  1.2752  0.1517
  377MOL0     H52023  10.025   7.565   5.532  0.6585 -2.1663 -0.8824
  377MOL0     H52024  10.004   7.610   5.215  0.2744  1.2146  2.0307
  377MOL0     H52025  10.092   7.456   5.215  2.6908  1.7038 -1.5673
  377MOL0     H52026   9.977   7.492   5.352  3.9524 -1.7047  3.3748
  378MOL0     O52027   3.794   5.197   1.090 -0.4919 -0.1593 -0.8615
  378MOL0     C52028   3.869   5.104   1.128 -0.0262  0.4329  0.5372
  378MOL0     O52029   3.832   4.982   1.189  0.4125 -0.3665  0.5090
  378MOL0     C52030   3.711   4.939   1.247 -1.0115 -0.5991  0.4043
  378MOL0     C52031   3.710   4.803   1.285 -0.3779  0.8940 -0.6921
  378MOL0     C52032   3.591   4.741   1.323  1.1007  0.4707 -0.0362
  378MOL0     C52033   3.472   4.814   1.337 -0.3102  0.6860  0.7340
  378MOL0     O52034   3.350   4.757   1.361  0.0200  0.3742  0.1438
  378MOL0     C52035   3.333   4.666   1.470  0.1249  0.0386  0.2952
  378MOL0     C52036   3.312   4.746   1.599 -0.5366  0.6070  0.3450
  378MOL0     C52037   3.304   4.632   1.705  0.0606  0.6042 -0.1450
  378MOL0     C52038   3.279   4.692   1.842 -0.2605  0.3331  0.0152
  378MOL0     C52039   3.236   4.583   1.947 -0.2256  0.2602  0.3080
  378MOL0     C52040   3.089   4.547   1.947  0.7884  0.9841 -0.1220
  378MOL0     C52041   3.037   4.452   2.062  0.0990 -0.6238  0.6112
  378MOL0     C52042   2.898   4.410   2.033 -0.5367  0.1078  0.0125
  378MOL0     N52043   2.878   4.271   2.063 -0.1781 -0.0673 -0.3941
  378MOL0     C52044   2.939   4.163   2.003  0.7631  0.5898 -0.2364
  378MOL0     C52045   2.893   4.051   2.070  0.1702  0.0861 -0.2076
  378MOL0     C52046   2.922   3.911   2.042 -1.0704  0.3630 -0.0533
  378MOL0     C52047   2.974   3.841   2.166  1.4897  0.7346 -0.3244
  378MOL0     C52048   3.112   3.778   2.152  0.2523  0.4827 -0.1170
  378MOL0     C52049   3.128   3.655   2.238 -0.2911 -0.1242 -0.3194
  378MOL0     O52050   3.255   3.584   2.208  0.3016  0.5918  0.0439
  378MOL0     C52051   3.296   3.471   2.268  0.3695  0.2375 -0.4749
  378MOL0     C52052   3.405   3.399   2.217 -0.4604 -0.3540 -0.0643
  378MOL0     C52053   3.441   3.270   2.254 -0.1453  0.5721  0.3345
  378MOL0     C52054   3.566   3.207   2.188 -0.3102  0.4294 -0.4246
  378MOL0     C52055   3.376   3.214   2.371 -0.3100 -0.4012 -0.3218
  378MOL0     C52056   3.416   3.096   2.450 -0.9682 -0.4877  0.5903
  378MOL0     O52057   3.340   3.057   2.554  0.0489 -0.7728 -0.5741
  378MOL0     C52058   3.403   2.987   2.650 -0.5796  0.2054 -0.2064
  378MOL0     C52059   3.355   2.860   2.679 -0.1329 -0.2749  0.4574
  378MOL0     C52060   3.425   2.784   2.766  0.0058 -0.8703  0.0399
  378MOL0     C52061   3.525   2.841   2.852 -0.0321  0.4447 -0.1533
  378MOL0     O52062   3.588   2.766   2.955 -0.0153 -0.5759  0.5269
  378MOL0     C52063   3.718   2.707   2.922  0.5325  0.0435 -0.7096
  378MOL0     C52064   3.824   2.812   2.955 -0.1343  0.6280 -0.7085
  378MOL0     C52065   3.961   2.737   2.945  0.6619  0.2974  0.4018
  378MOL0     C52066   4.094   2.831   2.952 -0.3057  0.1903  0.8414
  378MOL0     C52067   4.238   2.767   2.944  0.0184 -0.3933 -0.8104
  378MOL0     C52068   4.347   2.861   2.994 -0.3764 -0.0614 -0.6149
  378MOL0     C52069   4.491   2.799   2.949  0.2146 -1.2676  0.1661
  378MOL0     C52070   4.597   2.898   2.973  0.6165  0.3888  0.2808
  378MOL0    Cl52071   4.581   3.030   2.845  0.3857 -0.0195  0.0768
  378MOL0     C52072   3.575   2.967   2.824  0.6424 -0.1028  0.4397
  378MOL0     C52073   3.515   3.035   2.717 -0.2465  0.5517 -1.0179
  378MOL0     O52074   3.513   3.028   2.408  0.1236  0.4989  0.2210
  378MOL0     C52075   3.271   3.291   2.432  1.0409  0.0303  0.1567
  378MOL0     C52076   3.228   3.412   2.383 -0.3848 -0.0723 -0.5052
  378MOL0     N52077   2.820   4.101   2.180  0.5049  0.1210  0.5161
  378MOL0     N52078   2.803   4.230   2.173  0.2662 -0.5689  0.8613
  378MOL0     C52079   3.476   4.955   1.306  0.9480 -0.4440  0.5130
  378MOL0     C52080   3.594   5.018   1.265 -0.1466 -0.9829 -0.4269
  378MOL0     C52081   4.008   5.117   1.102 -0.8599 -0.2528 -0.2580
  378MOL0     C52082   4.062   5.025   1.011  0.3313  0.1589 -0.6507
  378MOL0     C52083   4.198   5.030   0.979 -0.6564  0.1189 -0.6255
  378MOL0     C52084   4.278   5.126   1.049  0.3378  0.4881 -0.9331
  378MOL0     O52085   4.411   5.127   1.043 -1.1216 -0.0953  0.1107
  378MOL0     C52086   4.491   5.020   0.979  0.2286  0.7740 -1.5263
  378MOL0     C52087   4.505   5.040   0.826 -0.7948  0.1932 -0.0290
  378MOL0     C52088   4.582   4.913   0.766  0.5898  1.2763  0.0072
  378MOL0     C52089   4.707   4.863   0.847 -0.1208  0.8245 -0.0388
  378MOL0     C52090   4.762   4.752   0.770  0.4961  0.0974  0.1196
  378MOL0     C52091   4.787   4.661   0.697 -0.1022 -0.2996  0.1431
  378MOL0     C52092   4.223   5.216   1.142 -0.1681  0.1126  0.1754
  378MOL0     C52093   4.085   5.218   1.168 -0.6856  1.1942 -0.0207
  378MOL0     C52094   4.029   5.318   1.255  0.1105 -0.1336  0.3854
  378MOL0     H52095   3.796   4.739   1.271 -0.6138 -0.3154  2.4838
  378MOL0     H52096   3.588   4.633   1.337 -4.4778 -0.0473 -2.6897
  378MOL0     H52097   3.413   4.593   1.483  0.0389  0.0907  1.1878
  378MOL0     H52098   3.236   4.618   1.457 -1.6062  3.6847 -2.2549
  378MOL0     H52099   3.401   4.809   1.613  0.4875 -0.6532 -0.3054
  378MOL0     H52100   3.219   4.803   1.598 -1.8385 -1.4241  1.1391
  378MOL0     H52101   3.226   4.561   1.674 -1.5012  1.8415  0.7763
  378MOL0     H52102   3.399   4.580   1.716  0.2136  0.8956 -0.0903
  378MOL0     H52103   3.377   4.737   1.860  0.9351 -0.9487 -2.6356
  378MOL0     H52104   3.189   4.755   1.841 -0.7367 -0.2743 -2.2395
  378MOL0     H52105   3.263   4.622   2.046  1.0853  0.0520  0.0513
  378MOL0     H52106   3.281   4.486   1.926  0.8981  1.2999 -2.6704
  378MOL0     H52107   3.042   4.645   1.957 -3.1766 -0.6562 -0.6710
  378MOL0     H52108   3.062   4.508   1.848 -0.6032 -1.2902  1.0556
  378MOL0     H52109   3.038   4.504   2.159  0.9868 -0.3039  0.4469
  378MOL0     H52110   3.107   4.369   2.077  1.1288  0.2566  0.7985
  378MOL0     H52111   2.837   4.475   2.096  0.8743  3.0421 -1.4728
  378MOL0     H52112   2.860   4.416   1.931 -2.3383 -2.2662  0.4588
  378MOL0     H52113   3.006   4.159   1.918 -1.0349  3.4721 -1.9436
  378MOL0     H52114   3.002   3.904   1.968  1.1322 -1.7159  2.3363
  378MOL0     H52115   2.823   3.874   2.013 -0.8940 -0.3286  0.2204
  378MOL0     H52116   2.980   3.905   2.254  2.2394 -0.2841  0.4040
  378MOL0     H52117   2.901   3.763   2.188  2.4011  0.3652  1.6000
  378MOL0     H52118   3.121   3.742   2.049  1.6201 -0.8619  0.4369
  378MOL0     H52119   3.183   3.854   2.185  0.5674  0.7445 -1.3377
  378MOL0     H52120   3.129   3.680   2.345  0.0998  2.5997 -0.8728
  378MOL0     H52121   3.042   3.590   2.218  1.8778 -2.9907 -0.9267
  378MOL0     H52122   3.467   3.433   2.135 -0.7689 -1.8034 -0.9219
  378MOL0     H52123   3.595   3.279   2.110  0.4848  0.5379 -0.0359
  378MOL0     H52124   3.556   3.104   2.154  1.5982  0.7285 -2.1232
  378MOL0     H52125   3.649   3.205   2.259  1.2507  1.0536 -2.1438
  378MOL0     H52126   3.270   2.821   2.623 -0.1149  0.5179 -0.1387
  378MOL0     H52127   3.396   2.681   2.784  0.4594 -0.8391  0.9857
  378MOL0     H52128   3.727   2.627   2.996  1.0338 -0.9417 -1.8048
  378MOL0     H52129   3.724   2.656   2.826 -0.2827 -1.7615  0.1469
  378MOL0     H52130   3.820   2.891   2.879  0.0810  0.3209 -1.0412
  378MOL0     H52131   3.808   2.852   3.055  1.5750  6.2201 -2.2931
  378MOL0     H52132   3.954   2.691   2.846  0.1027  0.7173  0.2418
  378MOL0     H52133   3.963   2.670   3.032 -1.3171  3.9622  3.5668
  378MOL0     H52134   4.081   2.869   3.054  3.2393 -1.3347  2.0113
  378MOL0     H52135   4.099   2.911   2.878  4.3410 -0.1803  0.4598
  378MOL0     H52136   4.229   2.677   3.006 -0.3055  1.9059  2.7222
  378MOL0     H52137   4.265   2.742   2.841  0.0457  0.0342 -0.9075
  378MOL0     H52138   4.348   2.858   3.103  2.7933 -1.3330 -0.5519
  378MOL0     H52139   4.331   2.967   2.973 -2.5110 -0.4771 -1.2764
  378MOL0     H52140   4.492   2.780   2.842  0.1311  0.3137 -0.1279
  378MOL0     H52141   4.523   2.707   2.999  0.6674 -1.0940  0.2015
  378MOL0     H52142   4.693   2.849   2.955  0.4324  0.1214  0.0265
  378MOL0     H52143   4.600   2.943   3.072  0.8214 -0.9172  0.8809
  378MOL0     H52144   3.656   3.017   2.876  1.0980  2.8452 -2.7718
  378MOL0     H52145   3.553   3.131   2.685 -0.1905  0.7816 -0.2874
  378MOL0     H52146   3.213   3.249   2.514 -1.7677 -2.0829 -2.6518
  378MOL0     H52147   3.148   3.465   2.433  0.9394 -0.3822  2.1563
  378MOL0     H52148   3.384   5.009   1.325  0.2852 -0.4846 -2.1751
  378MOL0     H52149   3.583   5.123   1.242 -0.5381 -1.2096 -1.2923
  378MOL0     H52150   3.988   4.946   1.000 -1.4760  1.6826 -0.0177
  378MOL0     H52151   4.248   4.959   0.914  0.1599  0.6773 -0.6230
  378MOL0     H52152   4.593   5.022   1.020  0.0991 -3.5025 -0.4671
  378MOL0     H52153   4.446   4.921   0.992 -1.2014  1.6895  1.1362
  378MOL0     H52154   4.560   5.131   0.800  4.0481 -2.3950 -0.0067
  378MOL0     H52155   4.405   5.032   0.782 -1.1196 -1.4674  0.9248
  378MOL0     H52156   4.514   4.828   0.779 -1.2925  2.6323 -0.6352
  378MOL0     H52157   4.601   4.927   0.659  0.7697  0.7268 -0.0377
  378MOL0     H52158   4.675   4.819   0.942 -0.6348 -0.5224 -0.8043
  378MOL0     H52159   4.772   4.947   0.873  1.5174 -1.2875  3.3155
  378MOL0     H52160   4.825   4.581   0.637 -1.2660 -1.5510  1.0043
  378MOL0     H52161   4.292   5.285   1.188 -0.5065  0.2069  0.5468
  378MOL0     H52162   3.980   5.271   1.340  0.3799 -0.2780  0.4628
  378MOL0     H52163   4.102   5.392   1.289  0.6217 -0.5188  0.1451
  378MOL0     H52164   3.952   5.383   1.213 -0.5724 -0.1734  1.5334
  379MOL0     O52165   9.412  11.530   3.679 -0.1099 -0.5550 -0.8452
  379MOL0     C52166   9.496  11.514   3.594  0.4482 -0.0478  0.3935
  379MOL0     O52167   9.544  11.622   3.521  0.2114  0.4437  0.3481
  379MOL0     C52168   9.545  11.756   3.557  0.0252  0.4392  1.0102
  379MOL0     C52169   9.618  11.806   3.660 -0.1062  0.1815  0.4267
  379MOL0     C52170   9.609  11.940   3.710  0.6715  0.1842  0.8585
  379MOL0     C52171   9.533  12.028   3.637  0.9600 -0.6374  0.1402
  379MOL0     O52172   9.532  12.156   3.683  0.5150  0.0774  0.2260
  379MOL0     C52173   9.434  12.252   3.639  0.2015 -0.0482 -0.8744
  379MOL0     C52174   9.471  12.314   3.504  0.6357  0.1384  0.3027
  379MOL0     C52175   9.600  12.397   3.510 -0.5563 -0.1416  0.8443
  379MOL0     C52176   9.611  12.513   3.405 -0.1066  0.6580 -0.5300
  379MOL0     C52177   9.511  12.620   3.440 -0.6572  1.0545 -0.0307
  379MOL0     C52178   9.536  12.708   3.557  0.1800  0.7965  0.3100
  379MOL0     C52179   9.466  12.846   3.538  0.4223  0.2001  0.7135
  379MOL0     C52180   9.311  12.828   3.494 -0.6806  0.5531 -0.0850
  379MOL0     N52181   9.243  12.950   3.484 -0.3700  0.1747  0.6038
  379MOL0     C52182   9.140  12.987   3.552 -0.7055  0.5031  0.1542
  379MOL0     C52183   9.125  13.125   3.537  0.0129  0.7276 -0.4242
  379MOL0     C52184   9.015  13.208   3.586 -0.0370  0.6978 -0.2169
  379MOL0     C52185   8.982  13.352   3.526  1.0505 -0.5681  0.2138
  379MOL0     C52186   9.091  13.446   3.568 -1.0976  0.2393 -1.2679
  379MOL0     C52187   9.059  13.598   3.577 -0.6264 -0.3123  0.5560
  379MOL0     O52188   8.959  13.622   3.667  0.3274  0.2571  0.2340
  379MOL0     C52189   8.859  13.719   3.650  1.3525  0.4532  0.5832
  379MOL0     C52190   8.834  13.785   3.537  0.0219  0.0238 -0.3558
  379MOL0     C52191   8.733  13.878   3.530  0.5203  0.5590  0.3512
  379MOL0     C52192   8.734  13.971   3.417 -0.5131  0.0895  0.0824
  379MOL0     C52193   8.641  13.895   3.637 -0.6169 -0.6740  0.0942
  379MOL0     C52194   8.521  13.990   3.638  0.3339  0.7541 -0.8290
  379MOL0     O52195   8.497  14.062   3.532  0.3472 -0.2381  0.8715
  379MOL0     C52196   8.402  14.164   3.528 -0.2328 -0.8613  0.7032
  379MOL0     C52197   8.436  14.285   3.449 -0.1462  0.5305 -0.0817
  379MOL0     C52198   8.343  14.379   3.409 -0.7259  0.1942  0.2059
  379MOL0     C52199   8.216  14.373   3.482 -0.4587 -0.2866 -0.1119
  379MOL0     O52200   8.114  14.459   3.465 -0.2733  0.4761 -0.3870
  379MOL0     C52201   8.122  14.559   3.369 -0.4297 -0.1864  0.4770
  379MOL0     C52202   7.980  14.602   3.317 -0.7365  0.3047 -0.3155
  379MOL0     C52203   7.978  14.741   3.258 -1.2251  0.1801 -0.4110
  379MOL0     C52204   7.962  14.852   3.365 -0.9243 -0.7073 -0.6200
  379MOL0     C52205   7.980  14.985   3.306  0.8418 -0.0130 -0.4137
  379MOL0     C52206   7.865  15.020   3.197 -0.7589 -0.1585 -0.4644
  379MOL0     C52207   7.900  15.142   3.118 -0.4138 -0.3208 -0.6380
  379MOL0     C52208   7.785  15.199   3.034 -0.0211  0.2535 -0.3284
  379MOL0    Cl52209   7.647  15.244   3.132  0.0140 -0.2269  0.2766
  379MOL0     C52210   8.190  14.267   3.566 -0.4986  0.4006  0.1635
  379MOL0     C52211   8.278  14.159   3.591  0.5119 -0.0197  0.4885
  379MOL0     O52212   8.456  14.002   3.742  0.2187 -0.1562  0.1818
  379MOL0     C52213   8.665  13.820   3.748  0.9003  0.2537 -0.7602
  379MOL0     C52214   8.767  13.729   3.755  0.1430 -0.4201  0.5120
  379MOL0     N52215   9.222  13.159   3.458 -0.1947 -0.8340  0.3378
  379MOL0     N52216   9.284  13.055   3.415 -0.7525 -0.1354 -0.1830
  379MOL0     C52217   9.450  11.980   3.532  1.7464  0.4553  0.5025
  379MOL0     C52218   9.455  11.841   3.489  0.0121 -0.9621  0.7680
  379MOL0     C52219   9.562  11.392   3.550 -0.1069  0.0007  0.7333
  379MOL0     C52220   9.611  11.386   3.414 -0.0514 -0.0335 -0.6013
  379MOL0     C52221   9.657  11.271   3.371  0.6360 -0.6588  0.3117
  379MOL0     C52222   9.674  11.159   3.445  0.2260 -0.5742 -0.9419
  379MOL0     O52223   9.730  11.046   3.396 -0.3459  0.8429 -0.3340
  379MOL0     C52224   9.658  10.986   3.289  0.9194 -1.0736 -0.0912
  379MOL0     C52225   9.761  10.928   3.199  0.0713  0.0609 -0.2710
  379MOL0     C52226   9.820  11.026   3.102 -0.6269  0.6853  0.2945
  379MOL0     C52227   9.932  10.952   3.027  0.1396 -0.2176 -0.4513
  379MOL0     C52228   9.879  10.882   2.907  0.2398  0.4343  0.1542
  379MOL0     C52229   9.833  10.830   2.810  0.7420 -0.4962  0.2246
  379MOL0     C52230   9.633  11.163   3.578  0.0696 -0.4620  0.6051
  379MOL0     C52231   9.567  11.277   3.632  0.1729 -0.2652  0.2174
  379MOL0     C52232   9.529  11.264   3.783  0.0418  0.3309 -0.2234
  379MOL0     H52233   9.686  11.736   3.707  0.1891 -0.4007 -0.8126
  379MOL0     H52234   9.692  11.971   3.772  2.8583 -0.4067 -1.6120
  379MOL0     H52235   9.428  12.334   3.711  0.9232 -0.7743  0.0265
  379MOL0     H52236   9.333  12.210   3.639  0.6865 -1.2677 -1.7933
  379MOL0     H52237   9.482  12.236   3.428 -2.6883  0.0858 -0.2617
  379MOL0     H52238   9.387  12.380   3.478 -1.0972 -1.6000  1.2220
  379MOL0     H52239   9.604  12.448   3.606  0.9832  0.2572  0.5781
  379MOL0     H52240   9.684  12.327   3.513 -1.3712 -1.1317  1.2516
  379MOL0     H52241   9.714  12.550   3.408 -0.1507  0.7886  1.7538
  379MOL0     H52242   9.583  12.461   3.313  2.2396 -4.5879  1.2816
  379MOL0     H52243   9.409  12.582   3.451 -0.0399 -0.8766 -0.6945
  379MOL0     H52244   9.517  12.678   3.348 -1.9710  1.6169  0.2201
  379MOL0     H52245   9.518  12.655   3.652 -0.3862 -0.6086 -0.5557
  379MOL0     H52246   9.643  12.730   3.554  0.0904  1.2327 -3.3951
  379MOL0     H52247   9.530  12.897   3.466  2.3111  2.0358  3.5079
  379MOL0     H52248   9.484  12.903   3.630  3.1721 -0.3096  0.5741
  379MOL0     H52249   9.299  12.780   3.397  0.2737 -0.9957  0.5287
  379MOL0     H52250   9.271  12.762   3.571  0.8169 -1.2211 -0.7507
  379MOL0     H52251   9.071  12.926   3.610 -2.2084  0.4308 -1.6173
  379MOL0     H52252   9.040  13.221   3.692 -0.0197 -0.7788 -0.0133
  379MOL0     H52253   8.921  13.151   3.588 -0.2372  0.8842  3.4055
  379MOL0     H52254   8.981  13.356   3.417  1.1445  3.4344  0.2062
  379MOL0     H52255   8.885  13.398   3.550  2.6864  2.9858  0.6464
  379MOL0     H52256   9.134  13.414   3.663  5.3095  1.9503 -3.1320
  379MOL0     H52257   9.170  13.427   3.494 -0.2905 -0.4849 -0.2384
  379MOL0     H52258   9.148  13.652   3.611 -0.4826 -0.6928  0.7837
  379MOL0     H52259   9.037  13.625   3.473  2.7211  0.3744 -0.0724
  379MOL0     H52260   8.891  13.767   3.446 -0.5037  1.6365 -1.0480
  379MOL0     H52261   8.744  14.074   3.451 -0.8244 -0.4900  2.0724
  379MOL0     H52262   8.638  13.957   3.367  0.5142 -1.5760 -1.6024
  379MOL0     H52263   8.822  13.957   3.353 -0.6053  0.6983 -0.1843
  379MOL0     H52264   8.534  14.282   3.402  1.2542 -0.0081  2.7127
  379MOL0     H52265   8.371  14.451   3.334  3.4250 -3.8254 -2.6558
  379MOL0     H52266   8.187  14.641   3.400  2.2082 -1.6735 -0.7492
  379MOL0     H52267   8.156  14.516   3.274  1.8157 -1.2155  1.6811
  379MOL0     H52268   7.928  14.531   3.252 -2.7924 -0.4197  1.9588
  379MOL0     H52269   7.914  14.621   3.402 -2.7028 -1.9938 -1.2271
  379MOL0     H52270   7.896  14.748   3.186 -1.2978  0.5398 -0.2928
  379MOL0     H52271   8.069  14.760   3.202 -0.3031  2.5887  1.7391
  379MOL0     H52272   8.044  14.843   3.437 -1.9370 -0.7827  0.5563
  379MOL0     H52273   7.870  14.850   3.423 -0.8512  3.8265  0.0115
  379MOL0     H52274   7.969  15.044   3.397 -0.2919  0.7500 -1.0220
  379MOL0     H52275   8.081  14.987   3.265  0.2799 -0.0062 -1.8636
  379MOL0     H52276   7.775  15.035   3.257 -0.4149  2.1145 -0.3965
  379MOL0     H52277   7.846  14.934   3.133 -3.1003 -0.4170  0.4698
  379MOL0     H52278   7.991  15.127   3.059  1.0402  0.2605  1.3256
  379MOL0     H52279   7.915  15.223   3.191 -0.7158 -0.6139 -0.2520
  379MOL0     H52280   7.749  15.120   2.967 -2.2115  3.1369 -2.8234
  379MOL0     H52281   7.830  15.285   2.983  0.2560  0.4269  0.1922
  379MOL0     H52282   8.095  14.253   3.616  0.4431 -0.8411  1.7168
  379MOL0     H52283   8.240  14.080   3.654 -2.2965 -1.6013 -2.8495
  379MOL0     H52284   8.602  13.827   3.835  1.7543  2.0841 -0.2336
  379MOL0     H52285   8.793  13.665   3.839 -1.3969  1.3433  2.4334
  379MOL0     H52286   9.388  12.053   3.482 -0.5431 -1.5586  0.2110
  379MOL0     H52287   9.387  11.797   3.416 -1.0755  1.5458  0.1797
  379MOL0     H52288   9.610  11.469   3.344  0.5983  0.3009 -0.2174
  379MOL0     H52289   9.697  11.271   3.270 -1.2012  0.2383 -0.4605
  379MOL0     H52290   9.593  10.920   3.345  0.4558 -0.7606 -0.2521
  379MOL0     H52291   9.604  11.055   3.223  2.8557  1.5328  0.8535
  379MOL0     H52292   9.705  10.855   3.140 -1.1171  0.2339  0.6049
  379MOL0     H52293   9.844  10.892   3.260  0.9999  0.3631 -1.3223
  379MOL0     H52294   9.742  11.080   3.049 -1.7695  2.1481  3.2463
  379MOL0     H52295   9.865  11.114   3.148 -0.6627  1.8040 -1.7171
  379MOL0     H52296   9.983  10.879   3.091  0.5557  1.1930  0.8817
  379MOL0     H52297  10.003  11.032   3.004 -2.6326  1.7108 -3.3133
  379MOL0     H52298   9.795  10.784   2.721  0.9560  0.9825 -0.6505
  379MOL0     H52299   9.655  11.076   3.639 -0.0237 -0.2501  0.9469
  379MOL0     H52300   9.614  11.298   3.843  2.9041 -4.6086 -0.8972
  379MOL0     H52301   9.439  11.320   3.808 -2.2635 -2.7065 -1.1011
  379MOL0     H52302   9.519  11.158   3.810  6.1660 -1.2271 -2.2535
  380MOL0     O52303   2.271   4.146   5.363  0.5360  0.3454 -0.4619
  380MOL0     C52304   2.235   4.074   5.458 -0.0284  0.5741  1.3157
  380MOL0     O52305   2.107   4.059   5.497 -0.1035 -0.6327  0.6369
  380MOL0     C52306   1.997   4.105   5.422  0.3600 -0.4951 -1.0890
  380MOL0     C52307   1.875   4.036   5.445  0.2355 -0.1418  0.1785
  380MOL0     C52308   1.757   4.073   5.377  1.5937  0.5346  0.3475
  380MOL0     C52309   1.752   4.175   5.290 -0.2566  0.3232 -0.1960
  380MOL0     O52310   1.639   4.195   5.212 -0.0517 -0.6367 -1.0023
  380MOL0     C52311   1.625   4.115   5.099  0.1504  0.5593  0.0688
  380MOL0     C52312   1.641   4.210   4.981 -0.6378 -0.1488  0.5626
  380MOL0     C52313   1.646   4.144   4.835 -0.6645  0.0303 -0.3453
  380MOL0     C52314   1.581   4.243   4.730 -0.2020  0.0000 -0.2671
  380MOL0     C52315   1.585   4.196   4.587  0.0274  0.1720 -0.8400
  380MOL0     C52316   1.553   4.305   4.492 -0.6183 -0.1093 -0.7571
  380MOL0     C52317   1.504   4.255   4.366  0.3029 -0.5652  1.0944
  380MOL0     C52318   1.630   4.212   4.286 -0.7978 -1.2111  0.0711
  380MOL0     N52319   1.711   4.332   4.256 -0.2195  0.1192 -0.2073
  380MOL0     C52320   1.656   4.433   4.178  0.4917  0.3651 -0.1218
  380MOL0     C52321   1.755   4.518   4.145  1.0399  0.0985 -0.3607
  380MOL0     C52322   1.752   4.646   4.062  0.9860  0.7951 -0.4927
  380MOL0     C52323   1.848   4.646   3.950  0.5910  0.7452  0.0167
  380MOL0     C52324   1.865   4.785   3.906  0.7798  0.1052  0.1057
  380MOL0     C52325   1.748   4.822   3.800 -0.3356 -1.2302 -0.0943
  380MOL0     O52326   1.789   4.775   3.671 -0.0587  0.1493  0.0908
  380MOL0     C52327   1.820   4.862   3.566 -0.4112  1.0784 -0.3902
  380MOL0     C52328   1.748   4.989   3.538 -0.3088  0.8030  0.3052
  380MOL0     C52329   1.793   5.068   3.435 -1.0193  0.3655 -0.2135
  380MOL0     C52330   1.712   5.188   3.434  0.6978 -0.2045  0.1859
  380MOL0     C52331   1.897   5.024   3.352  0.0936  0.2250 -0.7239
  380MOL0     C52332   1.947   5.126   3.244 -0.6637 -0.0321  0.4424
  380MOL0     O52333   2.064   5.092   3.190 -0.6079  0.2781 -0.2329
  380MOL0     C52334   2.123   5.181   3.106 -0.2963  1.4481  0.3988
  380MOL0     C52335   2.076   5.207   2.984  0.7456  0.5011 -0.3594
  380MOL0     C52336   2.142   5.300   2.901 -0.1973  0.0242  0.2413
  380MOL0     C52337   2.261   5.351   2.938  0.2001 -0.9560 -0.9711
  380MOL0     O52338   2.339   5.432   2.866  0.0690  0.1238  0.1884
  380MOL0     C52339   2.338   5.406   2.716 -0.7780 -0.6518 -0.5171
  380MOL0     C52340   2.263   5.515   2.634 -0.7406 -0.2682 -0.3948
  380MOL0     C52341   2.359   5.624   2.585  0.6405 -0.7006  0.2881
  380MOL0     C52342   2.430   5.687   2.714  0.2483  1.6083 -0.2086
  380MOL0     C52343   2.456   5.841   2.705 -0.0571  0.5240 -0.5557
  380MOL0     C52344   2.608   5.873   2.673 -0.0204 -0.4867 -0.3739
  380MOL0     C52345   2.718   5.845   2.778 -0.5006 -1.1675 -1.4244
  380MOL0     C52346   2.680   5.888   2.926 -0.3971  0.7579  0.6757
  380MOL0    Cl52347   2.610   6.055   2.927 -0.5189 -0.1602 -0.1008
  380MOL0     C52348   2.313   5.311   3.063  0.1693 -0.1335 -0.2527
  380MOL0     C52349   2.243   5.232   3.147 -0.6013  0.1849  0.5425
  380MOL0     O52350   1.881   5.228   3.217  0.3421  0.4003  0.5772
  380MOL0     C52351   1.965   4.905   3.375 -0.4304  0.4526 -0.3103
  380MOL0     C52352   1.923   4.829   3.482  0.7833  1.0437  0.1577
  380MOL0     N52353   1.868   4.458   4.191  0.4762  0.1636  0.4109
  380MOL0     N52354   1.851   4.347   4.242 -0.3342 -0.5397 -1.0535
  380MOL0     C52355   1.871   4.242   5.266 -0.5097 -0.6305 -0.5408
  380MOL0     C52356   1.996   4.213   5.329 -0.7055  0.2854 -0.2521
  380MOL0     C52357   2.338   3.970   5.502  0.2321 -0.4274  0.4266
  380MOL0     C52358   2.426   3.921   5.406  0.5322  0.2521  0.5776
  380MOL0     C52359   2.528   3.835   5.452 -0.2700 -0.2604  0.0491
  380MOL0     C52360   2.527   3.785   5.582  0.8156  0.2297  0.3370
  380MOL0     O52361   2.616   3.688   5.607  0.1253  0.6948 -0.0838
  380MOL0     C52362   2.616   3.627   5.736  0.2550 -0.1570 -0.0672
  380MOL0     C52363   2.706   3.502   5.736  0.4547  0.1703  0.4278
  380MOL0     C52364   2.637   3.374   5.687  0.4667 -0.6615  0.2907
  380MOL0     C52365   2.744   3.258   5.690  0.3923  0.0475  0.0919
  380MOL0     C52366   2.767   3.208   5.824 -0.7074  0.0463 -0.6494
  380MOL0     C52367   2.807   3.161   5.931  0.1618 -0.1419  0.1030
  380MOL0     C52368   2.455   3.853   5.682  0.5201  0.0058 -0.1678
  380MOL0     C52369   2.359   3.945   5.637  0.1207  0.3764 -0.8388
  380MOL0     C52370   2.268   4.009   5.741 -0.1967  0.5866  0.3163
  380MOL0     H52371   1.876   3.953   5.515 -0.9397 -1.3335 -1.1674
  380MOL0     H52372   1.671   4.009   5.396  1.0440  1.3668  0.7191
  380MOL0     H52373   1.526   4.068   5.094  1.5566 -2.7379  0.9253
  380MOL0     H52374   1.700   4.036   5.093 -0.9750 -0.7347  1.8771
  380MOL0     H52375   1.559   4.283   4.985  0.9949  2.0318 -1.9810
  380MOL0     H52376   1.735   4.263   4.997  0.1075 -1.6608  1.4016
  380MOL0     H52377   1.749   4.129   4.802 -1.6144 -0.9613 -3.2077
  380MOL0     H52378   1.594   4.048   4.824  0.5484 -0.9585  1.9418
  380MOL0     H52379   1.474   4.253   4.752 -0.8600 -3.7942 -1.1817
  380MOL0     H52380   1.624   4.343   4.744 -1.1646  0.8710 -2.9495
  380MOL0     H52381   1.519   4.109   4.573  0.2854 -0.0080 -0.9630
  380MOL0     H52382   1.689   4.165   4.574  0.1281  0.3943 -0.5644
  380MOL0     H52383   1.479   4.372   4.535  0.5220  2.0254 -1.9128
  380MOL0     H52384   1.639   4.373   4.488 -0.3887 -0.3852 -0.6368
  380MOL0     H52385   1.449   4.330   4.308 -0.0853 -0.9270  0.9952
  380MOL0     H52386   1.443   4.166   4.385  1.2468 -1.7872 -1.2702
  380MOL0     H52387   1.686   4.134   4.338 -3.1060 -0.4179  4.1765
  380MOL0     H52388   1.610   4.175   4.185  2.0987 -0.2545 -0.9653
  380MOL0     H52389   1.552   4.435   4.150 -0.0112 -1.1034  1.5017
  380MOL0     H52390   1.773   4.728   4.132 -3.4228  3.0780 -1.4413
  380MOL0     H52391   1.651   4.671   4.027  0.5944  0.1313  0.1388
  380MOL0     H52392   1.944   4.609   3.986  0.5059  0.1164 -0.3720
  380MOL0     H52393   1.808   4.568   3.884 -1.2722  1.2301  0.5041
  380MOL0     H52394   1.847   4.855   3.987  3.0768 -1.4117  2.0743
  380MOL0     H52395   1.962   4.810   3.862 -1.1471 -0.1740 -4.9707
  380MOL0     H52396   1.657   4.767   3.826  0.9120 -3.5490 -0.3957
  380MOL0     H52397   1.723   4.928   3.791 -0.2390 -1.3014 -1.4433
  380MOL0     H52398   1.670   5.021   3.607  0.9674  0.5609  1.9310
  380MOL0     H52399   1.639   5.172   3.354  0.5430  1.5465 -0.0605
  380MOL0     H52400   1.772   5.278   3.421  0.9078 -0.5381 -1.3835
  380MOL0     H52401   1.644   5.199   3.519 -1.6873  0.1084 -1.6477
  380MOL0     H52402   1.980   5.158   2.972  2.3509 -2.6711 -1.4197
  380MOL0     H52403   2.106   5.316   2.800 -2.4230 -5.2619 -0.1187
  380MOL0     H52404   2.443   5.397   2.685 -1.1595 -1.0949 -1.7471
  380MOL0     H52405   2.301   5.307   2.687  0.5728 -0.6598 -2.4114
  380MOL0     H52406   2.209   5.489   2.542  0.0507 -0.5764 -0.7835
  380MOL0     H52407   2.187   5.571   2.690 -0.1702  0.5001 -0.3712
  380MOL0     H52408   2.312   5.700   2.523  1.7356  3.1202  3.6942
  380MOL0     H52409   2.434   5.574   2.524 -1.3588 -1.9283 -1.3112
  380MOL0     H52410   2.526   5.635   2.726 -1.6708 -3.1465 -2.6590
  380MOL0     H52411   2.364   5.672   2.800 -0.4727 -0.0387 -1.0088
  380MOL0     H52412   2.383   5.891   2.642 -3.4772 -0.6904  2.1164
  380MOL0     H52413   2.433   5.900   2.794  0.2997 -0.9106  0.5417
  380MOL0     H52414   2.616   5.976   2.638 -1.0477  0.3181  1.6343
  380MOL0     H52415   2.628   5.814   2.583 -1.6873 -1.2964 -0.2486
  380MOL0     H52416   2.809   5.897   2.743  0.1016 -2.3172 -1.6230
  380MOL0     H52417   2.755   5.742   2.785  1.1489 -0.4813  2.1760
  380MOL0     H52418   2.776   5.880   2.978 -0.9273 -2.1788  1.3441
  380MOL0     H52419   2.614   5.824   2.985  0.2383 -0.0918  0.4806
  380MOL0     H52420   2.405   5.355   3.100 -0.7746 -1.9075  5.1900
  380MOL0     H52421   2.285   5.207   3.245  1.0347 -2.5693 -0.7320
  380MOL0     H52422   2.043   4.865   3.311  1.1416  2.7573  0.0679
  380MOL0     H52423   1.964   4.732   3.508  0.2283  0.9139  0.5558
  380MOL0     H52424   1.864   4.330   5.204 -0.0577 -1.5691 -1.9849
  380MOL0     H52425   2.081   4.277   5.310  0.1804 -0.0036  2.3876
  380MOL0     H52426   2.409   3.953   5.304 -1.2316  1.7733  1.2861
  380MOL0     H52427   2.598   3.796   5.379 -1.0742 -1.8216  0.0629
  380MOL0     H52428   2.643   3.702   5.810  1.6059 -1.0058  0.3216
  380MOL0     H52429   2.512   3.598   5.754 -0.0100 -0.8167 -2.2869
  380MOL0     H52430   2.727   3.498   5.843  0.1437  0.7534  0.5162
  380MOL0     H52431   2.797   3.522   5.679  0.3050  2.5544  0.9290
  380MOL0     H52432   2.550   3.346   5.746 -2.6935  2.4033 -2.4121
  380MOL0     H52433   2.590   3.388   5.589  1.2144 -0.1927 -0.0147
  380MOL0     H52434   2.833   3.298   5.640 -0.3289  2.0939  0.3363
  380MOL0     H52435   2.703   3.179   5.627  0.5568  0.1409 -0.1352
  380MOL0     H52436   2.852   3.119   6.018 -0.6473 -1.0936  0.0731
  380MOL0     H52437   2.451   3.810   5.782  1.0869  0.0072 -0.1427
  380MOL0     H52438   2.169   3.971   5.713  0.4454 -2.7496  2.0773
  380MOL0     H52439   2.289   3.982   5.845 -0.3576 -0.6056  0.0451
  380MOL0     H52440   2.277   4.117   5.726 -2.9412  0.7301 -0.9501
  381MOL0     O52441  11.544   8.793   5.478  0.0572  1.0774 -0.1787
  381MOL0     C52442  11.438   8.852   5.458 -0.2715  0.7663 -0.2237
  381MOL0     O52443  11.327   8.867   5.542 -0.2714 -0.1164 -0.5933
  381MOL0     C52444  11.328   8.817   5.670  1.3448 -0.0357 -1.0506
  381MOL0     C52445  11.406   8.714   5.723 -0.2829 -0.6921 -0.4674
  381MOL0     C52446  11.416   8.700   5.859 -0.3534 -0.4802  0.2730
  381MOL0     C52447  11.335   8.777   5.947 -0.7638  0.1480 -0.7274
  381MOL0     O52448  11.355   8.749   6.083 -0.0051  0.2561 -0.3260
  381MOL0     C52449  11.451   8.847   6.138  0.1359 -0.2860 -0.0520
  381MOL0     C52450  11.409   8.872   6.283  0.2530  0.9581  1.1712
  381MOL0     C52451  11.283   8.952   6.296 -1.1679  0.5753  0.7039
  381MOL0     C52452  11.236   8.950   6.446 -0.4253  0.1299  0.7448
  381MOL0     C52453  11.090   8.948   6.472  1.2929 -0.3572 -0.0685
  381MOL0     C52454  11.034   8.810   6.494 -0.6150  0.3946 -0.0803
  381MOL0     C52455  11.039   8.725   6.370 -0.1837 -0.4890  0.3116
  381MOL0     C52456  10.921   8.775   6.266 -0.0824 -0.0614 -0.6281
  381MOL0     N52457  10.777   8.770   6.306  0.3410  0.5541  0.0638
  381MOL0     C52458  10.686   8.665   6.302 -0.1386 -0.6531 -0.6038
  381MOL0     C52459  10.565   8.714   6.347 -0.6354  0.5224  0.5156
  381MOL0     C52460  10.445   8.626   6.387  0.1110 -0.4439 -0.0718
  381MOL0     C52461  10.318   8.685   6.326  0.4998 -0.6281  0.3959
  381MOL0     C52462  10.186   8.625   6.384  0.0330  1.2020 -0.3160
  381MOL0     C52463  10.064   8.665   6.308  0.3267 -0.2920 -0.3676
  381MOL0     O52464  10.065   8.806   6.304 -0.0561  0.8978  0.4285
  381MOL0     C52465   9.975   8.872   6.224 -0.3224 -0.8248  0.2626
  381MOL0     C52466   9.866   8.805   6.168 -0.5093 -0.1386 -0.5753
  381MOL0     C52467   9.767   8.879   6.104  0.2195  0.5150  0.0244
  381MOL0     C52468   9.656   8.793   6.064 -0.1574  0.5248 -0.4802
  381MOL0     C52469   9.775   9.015   6.101 -0.1490  0.2428  0.5779
  381MOL0     C52470   9.686   9.098   6.003 -0.0785 -0.1991  0.6755
  381MOL0     O52471   9.665   9.231   6.033  0.2065 -0.8345  0.1464
  381MOL0     C52472   9.593   9.241   6.155  0.4536  1.3784 -0.2173
  381MOL0     C52473   9.633   9.330   6.253 -0.7822  0.6615 -1.1875
  381MOL0     C52474   9.565   9.338   6.374  0.0536 -0.0718  0.7098
  381MOL0     C52475   9.446   9.269   6.389 -0.0872  0.6061 -0.2077
  381MOL0     O52476   9.375   9.265   6.508  0.0925 -0.4319  0.2952
  381MOL0     C52477   9.390   9.152   6.597  0.4159 -1.0130 -0.3289
  381MOL0     C52478   9.392   9.193   6.741  0.4424  0.8372 -0.2480
  381MOL0     C52479   9.520   9.264   6.789  0.0387  0.2645  0.2712
  381MOL0     C52480   9.506   9.284   6.942 -0.7423 -0.0563  0.2448
  381MOL0     C52481   9.629   9.369   6.994  0.3646  1.2130 -0.4790
  381MOL0     C52482   9.616   9.384   7.145 -0.5709  0.3857  0.1764
  381MOL0     C52483   9.482   9.424   7.200  1.1635 -0.1563  0.4032
  381MOL0     C52484   9.482   9.451   7.349  0.0415 -0.4268  0.8624
  381MOL0    Cl52485   9.638   9.515   7.420 -0.1649 -0.6474  0.0700
  381MOL0     C52486   9.398   9.182   6.289  0.0070  0.0237  0.1230
  381MOL0     C52487   9.477   9.169   6.177 -0.3343 -0.2196 -0.1848
  381MOL0     O52488   9.636   9.044   5.901  0.8803 -0.4216 -0.6827
  381MOL0     C52489   9.878   9.084   6.160  0.8963  0.4373 -0.0193
  381MOL0     C52490   9.975   9.011   6.219 -0.4604  0.3211  0.0654
  381MOL0     N52491  10.578   8.847   6.367  0.1548  0.0388  0.0236
  381MOL0     N52492  10.703   8.874   6.345 -0.4443 -0.1978 -0.7011
  381MOL0     C52493  11.274   8.891   5.902  0.3520  0.2483  0.2265
  381MOL0     C52494  11.267   8.910   5.759 -0.4308  0.9471 -0.2084
  381MOL0     C52495  11.413   8.904   5.311  0.7798  0.8641  0.4352
  381MOL0     C52496  11.281   8.916   5.266 -0.0667 -0.7539  0.4323
  381MOL0     C52497  11.246   8.941   5.134 -0.3375 -0.1300  1.4634
  381MOL0     C52498  11.355   8.936   5.042 -0.9505 -0.6753  1.0927
  381MOL0     O52499  11.321   8.949   4.906  0.0907  0.6560 -0.6067
  381MOL0     C52500  11.384   8.891   4.797 -0.7700  0.4554  0.4799
  381MOL0     C52501  11.423   8.731   4.820  0.4049 -0.8509  0.2626
  381MOL0     C52502  11.497   8.672   4.703  0.5348 -0.4141  0.5446
  381MOL0     C52503  11.596   8.555   4.729 -0.3005  0.8616 -0.3550
  381MOL0     C52504  11.709   8.610   4.794 -0.5320 -0.3184  0.9843
  381MOL0     C52505  11.797   8.657   4.857 -0.5052  0.4093  0.6871
  381MOL0     C52506  11.482   8.931   5.081  0.0250  0.0489 -0.3105
  381MOL0     C52507  11.516   8.921   5.219 -0.5217  0.3341 -0.8247
  381MOL0     C52508  11.659   8.930   5.267  0.0621  0.4484 -1.4277
  381MOL0     H52509  11.470   8.654   5.658 -1.1972 -0.7333 -1.3612
  381MOL0     H52510  11.473   8.614   5.890  0.1242  0.7038  2.9321
  381MOL0     H52511  11.449   8.941   6.082 -2.2968  1.3744  2.5480
  381MOL0     H52512  11.557   8.820   6.128  0.1677  0.5123 -2.3605
  381MOL0     H52513  11.385   8.775   6.328 -2.4768  1.0050 -0.0215
  381MOL0     H52514  11.489   8.918   6.343  0.0124 -0.2893  2.5262
  381MOL0     H52515  11.296   9.055   6.261 -4.4770  0.9187  0.1523
  381MOL0     H52516  11.207   8.917   6.225 -1.2828  2.1426  0.0051
  381MOL0     H52517  11.287   8.865   6.493 -0.8428 -2.0181 -2.4192
  381MOL0     H52518  11.293   9.029   6.497  0.2313 -1.2691  2.2966
  381MOL0     H52519  11.031   9.013   6.406  1.8118  0.3156  0.1205
  381MOL0     H52520  11.083   8.995   6.570  1.2187 -2.3321  0.9378
  381MOL0     H52521  11.106   8.771   6.566 -1.6691 -0.8335  0.3665
  381MOL0     H52522  10.939   8.804   6.547  0.2896  1.4619  1.7305
  381MOL0     H52523  11.018   8.621   6.396  0.4757 -1.3366 -2.2221
  381MOL0     H52524  11.135   8.717   6.319 -0.8484 -0.6878 -0.9578
  381MOL0     H52525  10.944   8.873   6.224  0.3645 -0.5929 -1.6609
  381MOL0     H52526  10.930   8.695   6.192  0.9648  0.5418 -1.1834
  381MOL0     H52527  10.706   8.559   6.289  0.0647 -0.6418 -0.3946
  381MOL0     H52528  10.456   8.621   6.495 -1.1843 -3.3291 -0.0096
  381MOL0     H52529  10.465   8.523   6.357 -1.2127 -1.1128  1.2498
  381MOL0     H52530  10.312   8.793   6.345 -3.2922 -0.4964 -0.6133
  381MOL0     H52531  10.322   8.675   6.217 -0.0778 -0.0769  0.3135
  381MOL0     H52532  10.201   8.517   6.379  1.0051  1.1343  2.2558
  381MOL0     H52533  10.160   8.646   6.489  0.6789 -1.5380  0.4697
  381MOL0     H52534  10.068   8.615   6.211 -0.2725 -1.8002  0.3452
  381MOL0     H52535   9.977   8.653   6.375 -2.0341  3.0485 -2.5231
  381MOL0     H52536   9.860   8.698   6.186  3.3240 -0.0660  2.3628
  381MOL0     H52537   9.675   8.738   5.971  0.3271  2.8619 -1.8659
  381MOL0     H52538   9.559   8.842   6.052 -1.0803 -1.7454 -3.8308
  381MOL0     H52539   9.643   8.722   6.146 -0.3679 -2.7321 -3.0934
  381MOL0     H52540   9.726   9.385   6.241  0.1378 -0.3202  1.0673
  381MOL0     H52541   9.609   9.388   6.460 -0.4975 -0.4130  1.1994
  381MOL0     H52542   9.302   9.090   6.576 -2.1246  2.7113 -1.7164
  381MOL0     H52543   9.476   9.088   6.576  1.9124  0.1780  1.8263
  381MOL0     H52544   9.302   9.253   6.760 -0.6941 -1.0736  0.6157
  381MOL0     H52545   9.376   9.105   6.803 -0.4036  2.0628  1.3654
  381MOL0     H52546   9.520   9.361   6.738 -1.1615 -0.7324 -1.7480
  381MOL0     H52547   9.614   9.214   6.765  1.1899  2.6510 -0.4574
  381MOL0     H52548   9.501   9.191   6.999  1.7621 -1.0794 -1.0463
  381MOL0     H52549   9.419   9.347   6.960 -2.3274 -2.9524  4.0225
  381MOL0     H52550   9.719   9.309   6.976 -0.0364  0.4752 -0.1033
  381MOL0     H52551   9.638   9.464   6.940 -2.6320  1.7110 -0.2726
  381MOL0     H52552   9.684   9.464   7.175 -1.4250  0.0711  3.2764
  381MOL0     H52553   9.656   9.299   7.201  2.7464  2.0941  0.6288
  381MOL0     H52554   9.413   9.342   7.183 -1.8812  2.3401 -0.0866
  381MOL0     H52555   9.436   9.507   7.145 -0.5897  0.0398  2.0809
  381MOL0     H52556   9.450   9.360   7.400  3.2775 -2.3890 -0.3453
  381MOL0     H52557   9.397   9.519   7.363 -1.9328 -2.3790 -1.0160
  381MOL0     H52558   9.311   9.120   6.306 -0.3029  0.7195  1.1713
  381MOL0     H52559   9.446   9.109   6.092 -0.4235  1.5761 -1.4842
  381MOL0     H52560   9.891   9.192   6.151  1.7996  0.5414  2.0905
  381MOL0     H52561  10.057   9.061   6.269  0.4822  0.7764 -1.8262
  381MOL0     H52562  11.218   8.948   5.976  2.1090  1.6438  0.5525
  381MOL0     H52563  11.207   8.990   5.717 -1.5238 -0.2120 -0.9376
  381MOL0     H52564  11.191   8.901   5.326 -0.8532 -1.8807 -0.9746
  381MOL0     H52565  11.139   8.939   5.111 -0.3802  0.6084  1.5693
  381MOL0     H52566  11.311   8.888   4.715  0.1425 -1.5885 -0.3195
  381MOL0     H52567  11.479   8.939   4.770  1.1798 -3.1183  0.4246
  381MOL0     H52568  11.327   8.683   4.842 -0.0132  0.6539  2.0267
  381MOL0     H52569  11.491   8.721   4.906 -1.6723  1.5955  2.3295
  381MOL0     H52570  11.423   8.628   4.635  0.3766 -0.4566  0.7446
  381MOL0     H52571  11.536   8.760   4.650 -2.6385  1.4702  1.0654
  381MOL0     H52572  11.613   8.493   4.640  0.3898  0.4494  0.0460
  381MOL0     H52573  11.550   8.484   4.799 -1.3062  2.5102  0.7137
  381MOL0     H52574  11.864   8.712   4.920 -0.3839 -0.0785  0.9859
  381MOL0     H52575  11.571   8.935   5.019 -0.0828 -0.5290 -0.5046
  381MOL0     H52576  11.730   8.958   5.188  2.2222 -3.6715 -1.2386
  381MOL0     H52577  11.669   9.017   5.332 -1.7993 -0.8097  0.6528
  381MOL0     H52578  11.702   8.839   5.310  2.0458  1.8363 -0.3068
  382MOL0     O52579   0.038   5.375   6.485  0.5890 -0.0937 -0.1530
  382MOL0     C52580   0.087   5.486   6.514  0.2189  0.0607  0.0061
  382MOL0     O52581   0.029   5.571   6.615 -0.1984 -0.8607  0.0900
  382MOL0     C52582  -0.097   5.534   6.660 -1.5670 -0.2807  0.0655
  382MOL0     C52583  -0.203   5.607   6.622  0.3658  0.7562  1.0140
  382MOL0     C52584  -0.331   5.581   6.664 -1.2215  0.3868 -0.3773
  382MOL0     C52585  -0.355   5.477   6.754 -0.9031  0.5675  0.3509
  382MOL0     O52586  -0.483   5.437   6.789  1.2390  0.0324  0.1337
  382MOL0     C52587  -0.594   5.529   6.785 -1.2097 -0.0260 -0.1165
  382MOL0     C52588  -0.670   5.523   6.653 -0.7185  0.2683  0.0734
  382MOL0     C52589  -0.711   5.389   6.611  0.1087 -0.3453  0.1771
  382MOL0     C52590  -0.602   5.319   6.534  0.5407  0.3900  0.0805
  382MOL0     C52591  -0.650   5.166   6.498 -0.2165 -0.4601  0.2484
  382MOL0     C52592  -0.538   5.059   6.523 -0.0308 -0.4286 -0.1397
  382MOL0     C52593  -0.596   4.914   6.507  0.2820 -0.3647 -0.7012
  382MOL0     C52594  -0.589   4.848   6.651 -0.6753 -0.5161 -0.7830
  382MOL0     N52595  -0.678   4.903   6.752  0.5001  0.5358  1.1423
  382MOL0     C52596  -0.666   5.016   6.828 -0.5165  0.7767 -0.6440
  382MOL0     C52597  -0.783   5.054   6.873  0.3863 -0.4865 -0.2043
  382MOL0     C52598  -0.792   5.180   6.959  0.2370  0.5693 -0.1554
  382MOL0     C52599  -0.944   5.219   6.973 -0.3723 -0.3445 -1.0419
  382MOL0     C52600  -0.973   5.337   7.066 -0.3382 -0.1748  0.3094
  382MOL0     C52601  -0.935   5.321   7.212 -0.9883  0.0289 -1.0333
  382MOL0     O52602  -0.797   5.365   7.239  0.1639  0.8266  0.0031
  382MOL0     C52603  -0.744   5.368   7.365  0.6487  0.0347 -0.9738
  382MOL0     C52604  -0.632   5.444   7.382 -0.3168 -0.9216 -0.6759
  382MOL0     C52605  -0.562   5.457   7.504 -0.2084  0.9273 -0.0042
  382MOL0     C52606  -0.447   5.554   7.508  0.0698 -1.0037  0.3782
  382MOL0     C52607  -0.627   5.410   7.622  0.2363  0.5169  0.9568
  382MOL0     C52608  -0.562   5.416   7.756  0.3489  0.6797 -0.3984
  382MOL0     O52609  -0.582   5.528   7.834  0.5411  0.2070  0.1039
  382MOL0     C52610  -0.484   5.556   7.926  0.1156  0.5644  0.3077
  382MOL0     C52611  -0.357   5.593   7.896 -1.1546  0.0297 -0.0155
  382MOL0     C52612  -0.278   5.644   7.994 -0.0559 -0.6609 -0.9435
  382MOL0     C52613  -0.308   5.646   8.136  0.7089  0.6478  0.1265
  382MOL0     O52614  -0.208   5.667   8.235  0.3588  0.3518  0.4660
  382MOL0     C52615  -0.225   5.586   8.352 -0.0939 -0.8860 -0.8507
  382MOL0     C52616  -0.109   5.626   8.434 -0.9083  0.5836 -0.3932
  382MOL0     C52617  -0.111   5.542   8.566 -0.1440 -0.1569 -0.0071
  382MOL0     C52618  -0.000   5.577   8.664 -0.0530 -0.2408 -0.5845
  382MOL0     C52619  -0.008   5.471   8.771 -0.3085 -0.8082  0.0826
  382MOL0     C52620   0.102   5.469   8.872 -0.2619  0.6494  0.2286
  382MOL0     C52621   0.117   5.606   8.946  0.2795  0.6779  0.4161
  382MOL0     C52622   0.247   5.596   9.021 -0.0533  0.3727 -0.3543
  382MOL0    Cl52623   0.373   5.593   8.898 -0.4198  0.2116  0.2163
  382MOL0     C52624  -0.443   5.615   8.164  0.3591  0.2023 -0.0107
  382MOL0     C52625  -0.524   5.562   8.059 -0.2661  1.0018 -0.2249
  382MOL0     O52626  -0.493   5.319   7.791  0.7227  0.4888 -0.6069
  382MOL0     C52627  -0.752   5.341   7.605 -0.1437 -0.0848  0.8217
  382MOL0     C52628  -0.807   5.322   7.475 -0.0212  1.0762 -0.4891
  382MOL0     N52629  -0.873   4.953   6.833 -0.1776 -0.0828 -0.5727
  382MOL0     N52630  -0.816   4.866   6.761 -0.2060 -0.0130  0.2095
  382MOL0     C52631  -0.246   5.392   6.789 -0.0784 -0.3740 -0.1255
  382MOL0     C52632  -0.116   5.435   6.754 -0.3490  0.5450  0.6535
  382MOL0     C52633   0.210   5.534   6.447 -0.0330 -1.0372 -0.5323
  382MOL0     C52634   0.260   5.659   6.494 -0.1096  0.3512  1.1618
  382MOL0     C52635   0.387   5.701   6.457 -0.5984  0.5580 -0.0980
  382MOL0     C52636   0.467   5.630   6.368 -1.0446 -0.1367  0.5843
  382MOL0     O52637   0.593   5.681   6.334  0.1045  0.8161 -0.3200
  382MOL0     C52638   0.688   5.658   6.432  0.0078  1.0174 -0.1217
  382MOL0     C52639   0.745   5.511   6.422  0.2850 -0.2515 -0.0562
  382MOL0     C52640   0.806   5.467   6.557 -0.5071  0.4495  0.5751
  382MOL0     C52641   0.840   5.314   6.578 -0.0156  0.2015 -1.3437
  382MOL0     C52642   0.726   5.222   6.587  0.4135 -2.0211  1.0522
  382MOL0     C52643   0.652   5.131   6.603  0.1421  0.1217  1.2439
  382MOL0     C52644   0.417   5.513   6.306  0.1141 -0.2265  0.1153
  382MOL0     C52645   0.289   5.470   6.349 -0.2539  0.5535 -0.0522
  382MOL0     C52646   0.255   5.340   6.277  0.0023 -0.3530  1.7349
  382MOL0     H52647  -0.190   5.688   6.551  2.0220  0.5403  1.0456
  382MOL0     H52648  -0.414   5.640   6.626  0.2929  1.6397 -1.9119
  382MOL0     H52649  -0.574   5.630   6.821  1.1161 -0.5756  0.3068
  382MOL0     H52650  -0.653   5.475   6.861 -2.4666  1.1088 -0.2499
  382MOL0     H52651  -0.750   5.597   6.666 -1.3389 -0.3618 -0.1071
  382MOL0     H52652  -0.610   5.564   6.571 -0.7713 -0.0136 -0.1075
  382MOL0     H52653  -0.730   5.334   6.704 -1.4884 -1.2521 -0.6410
  382MOL0     H52654  -0.805   5.398   6.555  0.0826  0.1259  0.2926
  382MOL0     H52655  -0.570   5.377   6.447 -0.5791 -0.3458 -0.8537
  382MOL0     H52656  -0.512   5.313   6.596  0.5668  0.2974  0.0338
  382MOL0     H52657  -0.695   5.169   6.398 -4.7183  0.4412  2.0682
  382MOL0     H52658  -0.731   5.141   6.568  0.2057 -1.6067  0.3559
  382MOL0     H52659  -0.467   5.065   6.440 -2.9992  0.4393 -2.8448
  382MOL0     H52660  -0.480   5.067   6.615 -0.7943  2.4763  0.2047
  382MOL0     H52661  -0.523   4.859   6.447  0.7849 -0.8926  0.3534
  382MOL0     H52662  -0.690   4.902   6.454 -0.0655  2.1812 -0.7531
  382MOL0     H52663  -0.602   4.740   6.659  1.6417 -0.9039 -1.4879
  382MOL0     H52664  -0.486   4.867   6.683 -1.0404 -0.5703  0.5035
  382MOL0     H52665  -0.574   5.073   6.822 -1.3332  2.0317 -1.7906
  382MOL0     H52666  -0.726   5.254   6.913  0.9911 -0.5649 -0.9587
  382MOL0     H52667  -0.748   5.150   7.055  2.2944 -1.5616 -1.6575
  382MOL0     H52668  -0.975   5.248   6.872  0.4415 -0.3246 -1.2980
  382MOL0     H52669  -1.025   5.148   6.989 -0.4200  0.4057  3.2468
  382MOL0     H52670  -0.929   5.430   7.029  1.9151 -1.7292 -1.1469
  382MOL0     H52671  -1.080   5.359   7.062 -0.0770  1.2443  0.6186
  382MOL0     H52672  -0.996   5.377   7.283 -0.4388 -2.6970  1.8116
  382MOL0     H52673  -0.949   5.219   7.251  3.2736 -0.7108 -0.9553
  382MOL0     H52674  -0.583   5.477   7.292  0.0729  3.9707  1.0591
  382MOL0     H52675  -0.493   5.646   7.547 -1.4721 -1.4454 -0.3183
  382MOL0     H52676  -0.407   5.575   7.409  0.2957  0.6073  0.7803
  382MOL0     H52677  -0.357   5.538   7.568  0.7111 -0.0142 -0.2899
  382MOL0     H52678  -0.325   5.605   7.793  0.9067  0.1693  0.5944
  382MOL0     H52679  -0.179   5.677   7.965  0.3426 -2.7918 -2.2439
  382MOL0     H52680  -0.324   5.596   8.398  0.0488  0.4208 -0.8056
  382MOL0     H52681  -0.198   5.483   8.325  0.5148 -0.9637  0.0135
  382MOL0     H52682  -0.012   5.616   8.385 -0.0375  4.6788  0.1366
  382MOL0     H52683  -0.119   5.731   8.464 -2.8371  0.0141  1.1044
  382MOL0     H52684  -0.087   5.439   8.539  3.1591  0.3489  0.4806
  382MOL0     H52685  -0.213   5.532   8.602 -1.5051 -2.9537 -3.9746
  382MOL0     H52686  -0.027   5.676   8.702 -0.2443 -1.4976  2.9419
  382MOL0     H52687   0.098   5.581   8.615  0.2156 -0.4955 -0.0804
  382MOL0     H52688  -0.102   5.480   8.826 -1.0725 -2.3118 -0.9220
  382MOL0     H52689  -0.018   5.374   8.722 -5.2575 -0.5579  0.1458
  382MOL0     H52690   0.189   5.440   8.813 -1.6697  2.7704 -3.1534
  382MOL0     H52691   0.079   5.393   8.948 -2.9637  1.2636  0.1203
  382MOL0     H52692   0.030   5.611   9.012 -0.2833  0.2651 -0.2740
  382MOL0     H52693   0.106   5.693   8.881  2.2286  1.3858  0.9629
  382MOL0     H52694   0.241   5.512   9.091 -1.1412 -0.2792 -1.1992
  382MOL0     H52695   0.270   5.678   9.089  0.8613  0.5735 -0.8882
  382MOL0     H52696  -0.478   5.612   8.266 -4.4251  0.5534 -1.3688
  382MOL0     H52697  -0.627   5.538   8.082  0.1313 -1.8434 -0.9558
  382MOL0     H52698  -0.814   5.316   7.690 -2.0872 -2.4088 -1.0932
  382MOL0     H52699  -0.905   5.276   7.462  0.6378 -0.7165  0.4335
  382MOL0     H52700  -0.262   5.301   6.846  2.1387 -1.3386 -0.9513
  382MOL0     H52701  -0.030   5.377   6.787 -0.7325 -0.8679 -0.7238
  382MOL0     H52702   0.203   5.723   6.560 -0.2207  0.7732  0.6630
  382MOL0     H52703   0.431   5.798   6.478 -1.6826  1.5500 -2.0862
  382MOL0     H52704   0.769   5.730   6.421 -2.2799  3.6057 -1.2693
  382MOL0     H52705   0.644   5.677   6.530 -2.2737 -0.8695 -0.6899
  382MOL0     H52706   0.824   5.516   6.346 -1.6816  3.5142 -2.1193
  382MOL0     H52707   0.666   5.442   6.393 -1.3176  0.9774  1.2317
  382MOL0     H52708   0.893   5.530   6.577 -1.1976  1.5001  0.3663
  382MOL0     H52709   0.733   5.496   6.633 -0.9685  3.0155 -0.7228
  382MOL0     H52710   0.874   5.311   6.682  1.4243  0.9480 -1.7706
  382MOL0     H52711   0.919   5.276   6.513  1.1350 -1.7918  1.0537
  382MOL0     H52712   0.593   5.044   6.623  1.0956 -0.4509  1.6301
  382MOL0     H52713   0.488   5.471   6.236  2.7427  0.7257  2.0745
  382MOL0     H52714   0.259   5.259   6.351  3.6705  1.3702  3.6842
  382MOL0     H52715   0.161   5.348   6.221  0.3284  1.4999  1.3629
  382MOL0     H52716   0.329   5.303   6.206 -2.3852  0.2530 -1.2582
  383MOL0     O52717   8.579   8.079   4.849  0.4734 -0.0049 -0.0670
  383MOL0     C52718   8.504   8.178   4.875  0.2049 -0.1499 -0.5233
  383MOL0     O52719   8.484   8.292   4.805 -0.0894 -0.2326  0.0176
  383MOL0     C52720   8.562   8.307   4.691 -0.2108 -0.5293 -0.4343
  383MOL0     C52721   8.692   8.366   4.697  0.0573 -0.5687 -0.3595
  383MOL0     C52722   8.765   8.364   4.575  0.5500 -0.7393 -0.7069
  383MOL0     C52723   8.718   8.343   4.445  0.3112  0.8853 -0.2585
  383MOL0     O52724   8.796   8.348   4.325 -0.0714  0.2140 -0.4516
  383MOL0     C52725   8.827   8.231   4.251  0.9842  0.9518 -0.1726
  383MOL0     C52726   8.923   8.144   4.332  0.3212 -0.4099  0.2898
  383MOL0     C52727   8.849   8.037   4.405  0.2951  1.2974 -0.4671
  383MOL0     C52728   8.928   7.973   4.521  0.1323  0.7213  0.7425
  383MOL0     C52729   8.844   7.845   4.553  1.0023  0.1970 -0.5064
  383MOL0     C52730   8.720   7.861   4.644 -0.1406  0.0919 -0.6448
  383MOL0     C52731   8.663   7.717   4.695 -0.1082  0.3682 -0.2298
  383MOL0     C52732   8.541   7.730   4.787  0.2384 -0.4281  0.4676
  383MOL0     N52733   8.527   7.599   4.858  0.4700 -1.2698  0.7904
  383MOL0     C52734   8.602   7.572   4.960 -0.4523 -0.2617 -0.1102
  383MOL0     C52735   8.575   7.436   4.983  0.8580  0.4190 -0.3836
  383MOL0     C52736   8.621   7.356   5.094 -0.9030 -0.0401  1.5067
  383MOL0     C52737   8.506   7.325   5.197  0.6157 -0.8058  1.0790
  383MOL0     C52738   8.490   7.456   5.282 -0.0791 -0.5356  0.1281
  383MOL0     C52739   8.365   7.458   5.372  0.2059 -0.0580  0.3542
  383MOL0     O52740   8.372   7.552   5.483 -0.6343  1.0931  0.9931
  383MOL0     C52741   8.449   7.509   5.592  0.4200  0.1082  0.5077
  383MOL0     C52742   8.465   7.593   5.696  0.7176 -0.0130 -1.3276
  383MOL0     C52743   8.522   7.567   5.818 -0.0208  0.2889 -0.4909
  383MOL0     C52744   8.528   7.685   5.917 -0.0588  0.3094 -0.2196
  383MOL0     C52745   8.586   7.444   5.837  0.4149 -0.0080  1.1626
  383MOL0     C52746   8.645   7.391   5.966  0.3253  0.5423  0.9393
  383MOL0     O52747   8.721   7.280   5.959  0.0479 -0.2612 -0.4043
  383MOL0     C52748   8.809   7.244   6.062 -0.2937  0.8575  0.0396
  383MOL0     C52749   8.879   7.315   6.154 -0.5483 -0.8483 -0.2017
  383MOL0     C52750   8.980   7.269   6.240 -0.0939  1.0441 -0.9962
  383MOL0     C52751   9.020   7.138   6.234 -0.1546 -0.1236  0.5802
  383MOL0     O52752   9.123   7.073   6.306  0.0906 -1.2258  0.3820
  383MOL0     C52753   9.168   7.127   6.435  0.1353 -0.0632 -1.2111
  383MOL0     C52754   9.227   7.031   6.542 -0.3554  0.6099  0.3569
  383MOL0     C52755   9.368   6.975   6.484 -0.0187  1.4301 -1.0177
  383MOL0     C52756   9.435   6.877   6.583  0.0992 -0.1096  0.5107
  383MOL0     C52757   9.564   6.825   6.528  0.4975  0.3263  0.1918
  383MOL0     C52758   9.598   6.703   6.622 -0.5517 -0.0414 -0.7173
  383MOL0     C52759   9.735   6.661   6.603 -1.8580  0.0102 -0.8671
  383MOL0     C52760   9.785   6.549   6.691  0.0178  0.4917 -0.1960
  383MOL0    Cl52761   9.675   6.415   6.664 -0.5358  0.0193  0.1388
  383MOL0     C52762   8.951   7.060   6.138  0.4945 -0.0659 -0.0707
  383MOL0     C52763   8.844   7.107   6.059 -0.2113 -0.3675  0.6075
  383MOL0     O52764   8.643   7.466   6.063 -0.2372  0.5020 -0.2240
  383MOL0     C52765   8.571   7.354   5.727  0.3342  0.2818  0.0625
  383MOL0     C52766   8.515   7.387   5.606 -0.0801  0.7503 -0.1413
  383MOL0     N52767   8.472   7.398   4.894 -0.2226 -0.2405  0.2218
  383MOL0     N52768   8.451   7.493   4.814  0.2675 -0.3920 -0.3897
  383MOL0     C52769   8.592   8.278   4.449  0.2448 -1.0756 -0.0283
  383MOL0     C52770   8.513   8.271   4.565 -0.0661  0.1288  1.0679
  383MOL0     C52771   8.445   8.183   5.006  0.1666  0.6596  0.0403
  383MOL0     C52772   8.446   8.306   5.085  0.6033 -0.7582  0.5052
  383MOL0     C52773   8.392   8.319   5.212  0.4093  0.7175  0.5264
  383MOL0     C52774   8.329   8.211   5.274  0.0754  0.1567  0.8929
  383MOL0     O52775   8.285   8.227   5.396  0.8778  0.3417  1.0547
  383MOL0     C52776   8.204   8.126   5.461 -0.6086  1.2481 -0.6787
  383MOL0     C52777   8.302   8.000   5.497  1.1762 -0.8358  0.7152
  383MOL0     C52778   8.258   7.939   5.628 -0.5712  0.1307  0.7677
  383MOL0     C52779   8.317   7.991   5.755  0.4930  0.3818 -1.0893
  383MOL0     C52780   8.294   8.133   5.791  0.1776 -0.5546 -0.2655
  383MOL0     C52781   8.277   8.242   5.847 -0.3832 -0.2253  0.6543
  383MOL0     C52782   8.314   8.091   5.197  0.3090  0.0880  0.3530
  383MOL0     C52783   8.368   8.076   5.065 -1.0807 -0.0495 -0.1885
  383MOL0     C52784   8.349   7.945   4.998  0.4806 -0.3077  0.3575
  383MOL0     H52785   8.732   8.395   4.794 -0.7949  1.7019 -0.6127
  383MOL0     H52786   8.873   8.367   4.589  0.4282  3.8405  1.1431
  383MOL0     H52787   8.878   8.262   4.160  0.5632 -4.7880 -2.7776
  383MOL0     H52788   8.740   8.173   4.219  1.5316 -0.1229  0.2340
  383MOL0     H52789   8.972   8.082   4.256 -0.8338 -0.3434 -0.5481
  383MOL0     H52790   8.987   8.209   4.392  1.5159  0.6329 -1.9979
  383MOL0     H52791   8.757   8.073   4.452 -1.1275 -0.3984 -1.8235
  383MOL0     H52792   8.810   7.971   4.328  0.1079  0.9104 -0.0430
  383MOL0     H52793   9.019   7.940   4.470 -1.3709  0.8738 -2.2501
  383MOL0     H52794   8.939   8.039   4.608 -0.1855 -0.2781  1.5483
  383MOL0     H52795   8.913   7.780   4.608  0.1352  1.6955  2.6138
  383MOL0     H52796   8.818   7.795   4.459  0.1420  1.2426 -0.8555
  383MOL0     H52797   8.742   7.931   4.726  1.3107 -0.7774 -0.2712
  383MOL0     H52798   8.638   7.909   4.589 -0.5062  2.1813  1.5487
  383MOL0     H52799   8.740   7.669   4.755 -0.7575  0.7910  0.9807
  383MOL0     H52800   8.637   7.651   4.612 -1.9950  0.6929  0.0505
  383MOL0     H52801   8.557   7.812   4.857  2.9090 -1.3222  1.0055
  383MOL0     H52802   8.452   7.737   4.724  1.6360  0.9135 -1.4576
  383MOL0     H52803   8.664   7.639   5.019 -1.8429  1.1693 -0.1898
  383MOL0     H52804   8.704   7.410   5.141  1.9315 -2.1298 -0.7254
  383MOL0     H52805   8.663   7.267   5.046 -1.1739  1.1774 -1.1598
  383MOL0     H52806   8.413   7.305   5.142 -0.2508  0.8226  1.8461
  383MOL0     H52807   8.528   7.238   5.258 -1.4756 -0.0372  3.1155
  383MOL0     H52808   8.582   7.466   5.340 -0.5351 -1.0581  0.9642
  383MOL0     H52809   8.486   7.537   5.209  0.6697  0.6745  1.3834
  383MOL0     H52810   8.287   7.494   5.304 -0.1930 -0.6207  0.5052
  383MOL0     H52811   8.338   7.357   5.404 -1.3296 -1.0912 -3.5525
  383MOL0     H52812   8.443   7.697   5.674 -0.1790  0.5997  1.9520
  383MOL0     H52813   8.473   7.775   5.887  1.1744  1.7823  1.6425
  383MOL0     H52814   8.631   7.721   5.932  0.0176 -0.4048  1.1355
  383MOL0     H52815   8.479   7.655   6.010 -0.1513  3.0161  0.6928
  383MOL0     H52816   8.862   7.422   6.154 -0.4469 -0.7752 -2.5568
  383MOL0     H52817   9.043   7.339   6.294  0.5914  0.2558 -0.7411
  383MOL0     H52818   9.238   7.204   6.399  0.5222  0.5238  0.7058
  383MOL0     H52819   9.080   7.168   6.484  1.4913  1.6272 -0.0867
  383MOL0     H52820   9.258   7.082   6.634  2.4579  0.2130 -0.2538
  383MOL0     H52821   9.157   6.949   6.559 -0.6863  0.6328 -0.7989
  383MOL0     H52822   9.438   7.056   6.463 -0.1192  2.0005  0.6757
  383MOL0     H52823   9.339   6.907   6.403  1.5302 -2.7596  1.6541
  383MOL0     H52824   9.354   6.806   6.601 -0.8705  0.8246 -0.0630
  383MOL0     H52825   9.451   6.931   6.677  1.9586  0.7078 -0.2247
  383MOL0     H52826   9.558   6.797   6.422  0.4903  2.9439 -0.5695
  383MOL0     H52827   9.633   6.910   6.531  1.0775 -0.0487 -1.3062
  383MOL0     H52828   9.529   6.620   6.605 -1.5129  0.2519  1.5027
  383MOL0     H52829   9.585   6.735   6.725  0.0875 -1.7882 -0.0694
  383MOL0     H52830   9.813   6.737   6.603  0.5537 -2.3495 -0.4307
  383MOL0     H52831   9.741   6.616   6.503 -0.9015  0.2118 -0.9079
  383MOL0     H52832   9.781   6.587   6.794 -1.3383 -3.2434  1.3228
  383MOL0     H52833   9.890   6.522   6.679  0.8062  3.5477 -0.8122
  383MOL0     H52834   8.980   6.956   6.128  2.4459  0.6826 -3.7512
  383MOL0     H52835   8.795   7.030   6.001  1.3000 -0.6944 -0.2987
  383MOL0     H52836   8.623   7.259   5.722  2.3603  1.2164  1.6997
  383MOL0     H52837   8.525   7.315   5.526 -0.6237  0.1809  0.2932
  383MOL0     H52838   8.545   8.250   4.355  0.6075 -0.7620 -0.3034
  383MOL0     H52839   8.407   8.256   4.544  0.2966 -1.1682  0.0126
  383MOL0     H52840   8.499   8.396   5.054 -0.6231 -0.3688 -0.5233
  383MOL0     H52841   8.396   8.415   5.261 -1.6550  0.1251  1.9917
  383MOL0     H52842   8.152   8.170   5.547 -1.0985 -1.7708  0.6830
  383MOL0     H52843   8.120   8.092   5.400  0.1691 -0.8862 -0.6108
  383MOL0     H52844   8.400   8.044   5.521  0.9915 -0.5346  0.9201
  383MOL0     H52845   8.329   7.930   5.417  0.9978  0.2537 -0.3193
  383MOL0     H52846   8.149   7.950   5.636 -0.6039 -0.0485  0.5978
  383MOL0     H52847   8.278   7.832   5.616  1.7995  0.7663 -2.3727
  383MOL0     H52848   8.422   7.962   5.753 -0.4449 -4.3428  1.8047
  383MOL0     H52849   8.275   7.929   5.835 -0.3520 -2.1592 -3.3449
  383MOL0     H52850   8.254   8.336   5.893 -5.2952  1.2452 -3.8001
  383MOL0     H52851   8.244   8.024   5.246 -0.1797  0.3995  0.0993
  383MOL0     H52852   8.241   7.926   4.989  0.4165  0.2936 -0.2017
  383MOL0     H52853   8.391   7.936   4.898 -1.6425  0.1130 -0.6389
  383MOL0     H52854   8.387   7.872   5.071  2.2676 -2.0753 -2.1851
  384MOL0     O52855   8.245   3.232   1.588  0.8941  0.2050  0.1178
  384MOL0     C52856   8.120   3.217   1.579 -0.2378 -1.2498 -1.3849
  384MOL0     O52857   8.024   3.275   1.669 -0.3005  0.6072  0.1976
  384MOL0     C52858   8.071   3.329   1.785  0.0348 -0.1978  0.5007
  384MOL0     C52859   8.163   3.266   1.871  0.5102  0.7484 -0.0725
  384MOL0     C52860   8.195   3.316   1.991 -0.2383 -0.7370 -0.2781
  384MOL0     C52861   8.116   3.419   2.045  0.4610 -1.0059 -0.2838
  384MOL0     O52862   8.152   3.473   2.168 -0.0841 -0.4579 -0.2341
  384MOL0     C52863   8.105   3.594   2.231  0.6021 -0.0852  0.3684
  384MOL0     C52864   8.212   3.636   2.334 -0.4316  0.6971  0.3115
  384MOL0     C52865   8.170   3.765   2.406  0.0931 -0.1699 -0.0833
  384MOL0     C52866   8.283   3.802   2.499  0.1215  0.3164 -0.1932
  384MOL0     C52867   8.265   3.942   2.572 -0.2972 -0.3491 -0.0083
  384MOL0     C52868   8.132   3.984   2.641 -1.4345  0.2630  0.0242
  384MOL0     C52869   8.132   4.131   2.679 -0.6865  0.5601 -1.0201
  384MOL0     C52870   8.001   4.183   2.744  0.7102  0.7586  0.6775
  384MOL0     N52871   7.893   4.136   2.651 -0.7406 -0.1042 -0.2377
  384MOL0     C52872   7.870   4.177   2.526 -0.5710 -0.0377  0.4013
  384MOL0     C52873   7.796   4.080   2.465 -0.3569  0.3171 -0.3752
  384MOL0     C52874   7.737   4.065   2.331  0.1545  0.7900 -0.0275
  384MOL0     C52875   7.786   3.955   2.244 -0.3006  0.7317 -0.6307
  384MOL0     C52876   7.931   3.981   2.197 -0.3545 -0.3614  0.1384
  384MOL0     C52877   7.934   4.048   2.059 -0.2889 -0.1648 -0.0678
  384MOL0     O52878   7.903   3.944   1.964  0.0263  0.6170  0.0430
  384MOL0     C52879   7.913   3.990   1.832 -0.1165 -0.4185 -0.0360
  384MOL0     C52880   7.801   4.047   1.774  0.3596  0.8141 -0.7426
  384MOL0     C52881   7.801   4.096   1.644 -0.6360 -0.7370 -0.6252
  384MOL0     C52882   7.671   4.142   1.603 -0.7480 -0.1563  0.5909
  384MOL0     C52883   7.920   4.091   1.566  0.6748  0.6166  0.3880
  384MOL0     C52884   7.940   4.116   1.420 -0.5495 -0.7972 -0.6984
  384MOL0     O52885   8.042   4.193   1.388  0.1251 -0.9591  0.1703
  384MOL0     C52886   8.045   4.280   1.280 -0.0994  0.0135 -0.7794
  384MOL0     C52887   7.931   4.322   1.216  0.5852  0.3258 -0.0908
  384MOL0     C52888   7.949   4.415   1.120 -0.0413 -0.0280  0.3729
  384MOL0     C52889   8.073   4.467   1.080  0.8438 -0.0645  0.0493
  384MOL0     O52890   8.060   4.571   0.991  0.1305 -1.0440  0.1294
  384MOL0     C52891   8.175   4.636   0.938 -1.0150 -0.0327  1.0429
  384MOL0     C52892   8.237   4.576   0.809  0.4434  0.3938  0.0176
  384MOL0     C52893   8.333   4.671   0.735 -0.7378  0.1181  0.9364
  384MOL0     C52894   8.375   4.601   0.608  0.0952 -0.1246 -0.1822
  384MOL0     C52895   8.526   4.610   0.563 -0.1093 -0.0570  0.5291
  384MOL0     C52896   8.580   4.750   0.547  0.4449 -0.5375  0.5871
  384MOL0     C52897   8.498   4.825   0.440  0.4914 -1.0184 -0.1270
  384MOL0     C52898   8.553   4.969   0.411  1.5195  0.4475 -0.2922
  384MOL0    Cl52899   8.397   5.071   0.402 -0.7449  0.3447 -0.3142
  384MOL0     C52900   8.189   4.419   1.137 -0.9833 -0.7307  0.4288
  384MOL0     C52901   8.175   4.324   1.242  0.2043 -0.1981 -0.0153
  384MOL0     O52902   7.858   4.071   1.347  0.2792  0.0415  1.0809
  384MOL0     C52903   8.031   4.050   1.636 -0.3389 -0.5753 -0.0830
  384MOL0     C52904   8.026   4.006   1.767 -0.7443  0.1727 -0.1582
  384MOL0     N52905   7.763   3.989   2.562 -0.4469  0.0719  0.0771
  384MOL0     N52906   7.821   4.024   2.676  0.2146  0.7968 -0.3632
  384MOL0     C52907   8.010   3.470   1.972 -0.2757  0.3151  0.4685
  384MOL0     C52908   8.000   3.440   1.834 -0.3135  0.6108  0.2325
  384MOL0     C52909   8.058   3.153   1.462  0.7518  0.2972  0.1423
  384MOL0     C52910   7.923   3.152   1.458  0.5067 -0.2153 -0.9350
  384MOL0     C52911   7.859   3.108   1.345  0.4608  0.3169  0.2262
  384MOL0     C52912   7.920   3.055   1.236  0.1084  0.3693  0.0834
  384MOL0     O52913   7.863   2.995   1.121  0.1697 -0.3558 -0.7785
  384MOL0     C52914   7.747   2.915   1.142 -0.2713  0.2109 -0.5820
  384MOL0     C52915   7.618   2.987   1.104  0.8143 -0.3659  1.0404
  384MOL0     C52916   7.619   3.069   0.977 -0.1124 -0.3094 -0.0200
  384MOL0     C52917   7.660   2.984   0.844  0.3787  0.3462 -0.2168
  384MOL0     C52918   7.654   3.076   0.733 -0.8676  0.2706 -0.5781
  384MOL0     C52919   7.639   3.166   0.657 -0.1977 -0.1859 -0.0529
  384MOL0     C52920   8.059   3.046   1.243  0.5424  0.0681 -0.3120
  384MOL0     C52921   8.130   3.098   1.356 -0.9641 -0.9730  0.0597
  384MOL0     C52922   8.283   3.082   1.350 -0.2655  0.2392  0.7959
  384MOL0     H52923   8.216   3.183   1.826 -1.3384 -0.1231 -0.7656
  384MOL0     H52924   8.291   3.286   2.032  1.0400 -0.5745 -2.9246
  384MOL0     H52925   8.018   3.572   2.293  1.5320  0.6130  2.0073
  384MOL0     H52926   8.086   3.677   2.163 -3.3502  0.6388  2.0833
  384MOL0     H52927   8.212   3.558   2.411 -1.7501 -1.8957 -2.1359
  384MOL0     H52928   8.306   3.636   2.279 -1.6161  1.3011 -1.8472
  384MOL0     H52929   8.143   3.857   2.353  1.8968 -0.6789 -2.0310
  384MOL0     H52930   8.089   3.737   2.474  0.1665  0.8769  0.4608
  384MOL0     H52931   8.284   3.723   2.575  2.9404  1.2094  0.7909
  384MOL0     H52932   8.377   3.799   2.443 -0.1634 -1.0220 -0.6322
  384MOL0     H52933   8.295   4.015   2.496 -2.1562 -1.2029 -1.6621
  384MOL0     H52934   8.347   3.942   2.644  2.9709 -0.0797 -3.3949
  384MOL0     H52935   8.058   3.971   2.561 -0.1112 -1.6389 -0.9711
  384MOL0     H52936   8.095   3.913   2.715  1.4320 -0.6628  0.6828
  384MOL0     H52937   8.150   4.179   2.583  1.1867 -2.4605 -2.3145
  384MOL0     H52938   8.223   4.142   2.738  0.4685 -1.6907 -2.2485
  384MOL0     H52939   7.979   4.139   2.841 -4.3184 -1.9875 -1.3326
  384MOL0     H52940   8.004   4.291   2.759 -0.6817  1.1476 -1.4215
  384MOL0     H52941   7.915   4.265   2.481  0.4596 -1.4356 -1.4394
  384MOL0     H52942   7.762   4.156   2.275 -1.5617  0.9825 -0.5472
  384MOL0     H52943   7.630   4.054   2.350  0.1689 -0.2053 -0.4934
  384MOL0     H52944   7.783   3.867   2.310 -1.3211  1.2557  0.0477
  384MOL0     H52945   7.719   3.936   2.160 -2.6192  1.6323  0.8932
  384MOL0     H52946   7.969   4.052   2.271 -3.9123  2.9379 -0.8640
  384MOL0     H52947   7.994   3.892   2.204  0.6104  0.4281  2.7099
  384MOL0     H52948   7.870   4.135   2.040 -2.1223 -1.5758 -0.7336
  384MOL0     H52949   8.036   4.082   2.040 -0.6018  2.1578  1.9297
  384MOL0     H52950   7.703   4.035   1.818 -0.0167 -0.8998 -1.9218
  384MOL0     H52951   7.670   4.188   1.503  0.4220  2.7230  1.8088
  384MOL0     H52952   7.654   4.220   1.677  1.7928 -1.0200  2.2268
  384MOL0     H52953   7.585   4.074   1.607  0.3040 -1.6363 -0.3925
  384MOL0     H52954   7.827   4.298   1.237  0.1598  1.0695 -1.2664
  384MOL0     H52955   7.870   4.458   1.060  0.9353 -0.0223 -0.9568
  384MOL0     H52956   8.147   4.739   0.912 -3.2700 -0.7203  0.4830
  384MOL0     H52957   8.260   4.640   1.007  0.5675 -1.1337 -0.7590
  384MOL0     H52958   8.285   4.478   0.825 -2.3574 -1.3262 -1.3885
  384MOL0     H52959   8.147   4.551   0.752 -0.3413  1.6199  0.6703
  384MOL0     H52960   8.423   4.679   0.797  1.9755 -1.7263 -2.4167
  384MOL0     H52961   8.284   4.768   0.717 -1.2782 -0.2883  0.1627
  384MOL0     H52962   8.311   4.631   0.524  1.6278  4.8685  0.1032
  384MOL0     H52963   8.363   4.493   0.617  0.2762 -0.1327 -0.0390
  384MOL0     H52964   8.584   4.564   0.643  0.2425  1.2842  1.0796
  384MOL0     H52965   8.538   4.560   0.467 -0.8997  2.5489 -1.0371
  384MOL0     H52966   8.685   4.744   0.518  0.3721 -0.2259  0.2532
  384MOL0     H52967   8.578   4.799   0.645  1.5512 -1.1078  0.9030
  384MOL0     H52968   8.395   4.834   0.476  0.0790  5.3743 -1.7752
  384MOL0     H52969   8.513   4.768   0.348 -2.0832  0.3204 -1.5058
  384MOL0     H52970   8.618   4.982   0.324  2.8574  0.9415  0.7496
  384MOL0     H52971   8.610   5.007   0.496  2.2292  0.4399 -0.7628
  384MOL0     H52972   8.286   4.453   1.101 -0.5499 -3.5574 -1.3915
  384MOL0     H52973   8.261   4.276   1.289  0.9953  1.6704  0.5272
  384MOL0     H52974   8.132   4.056   1.596  0.9347  0.8339  3.0326
  384MOL0     H52975   8.115   3.963   1.812 -2.0333 -2.2667  0.2233
  384MOL0     H52976   7.945   3.543   2.017  0.6744  0.2943  1.9293
  384MOL0     H52977   7.916   3.479   1.777 -2.6884 -0.4090  2.8046
  384MOL0     H52978   7.856   3.166   1.542 -3.2976 -0.7521 -3.6054
  384MOL0     H52979   7.751   3.103   1.345  0.5179 -2.1792 -0.4637
  384MOL0     H52980   7.757   2.820   1.087 -3.6351 -0.2456 -0.5952
  384MOL0     H52981   7.745   2.892   1.249  0.8947  1.2036 -0.3231
  384MOL0     H52982   7.586   3.051   1.187 -1.8935  0.2110 -0.3374
  384MOL0     H52983   7.538   2.913   1.108 -0.3924  0.7012 -1.5034
  384MOL0     H52984   7.524   3.111   0.943  0.4568  0.2806 -0.9345
  384MOL0     H52985   7.692   3.151   0.981  1.0161 -1.2335 -0.9464
  384MOL0     H52986   7.579   2.912   0.828 -1.2637  1.9660  0.5119
  384MOL0     H52987   7.758   2.937   0.851  0.9422  1.4591 -0.4676
  384MOL0     H52988   7.637   3.252   0.593 -0.9253 -0.7261 -0.7636
  384MOL0     H52989   8.110   3.021   1.150  0.7405  3.1455 -1.1361
  384MOL0     H52990   8.324   3.068   1.249 -0.8866  0.0945  0.5538
  384MOL0     H52991   8.333   3.173   1.383 -0.3357  0.2421  0.8927
  384MOL0     H52992   8.319   2.999   1.412  0.1098  0.9067  1.4868
  385MOL0     O52993   7.841   7.141   2.173 -0.2062 -0.3435 -0.0856
  385MOL0     C52994   7.820   7.152   2.051  0.3158  0.6440  0.3138
  385MOL0     O52995   7.769   7.266   1.998  0.1970  0.1327  0.5614
  385MOL0     C52996   7.784   7.385   2.062  0.2959 -0.2617  0.1616
  385MOL0     C52997   7.673   7.458   2.105  0.6441 -1.7572  0.8832
  385MOL0     C52998   7.692   7.590   2.154  0.0508  0.3268 -1.1422
  385MOL0     C52999   7.820   7.639   2.182 -0.0993  0.4320  0.3813
  385MOL0     O53000   7.835   7.773   2.207 -0.4351 -0.4640 -0.0146
  385MOL0     C53001   7.731   7.864   2.178 -0.6538  0.1945 -0.0149
  385MOL0     C53002   7.796   7.998   2.200 -0.1455 -0.1844  0.2236
  385MOL0     C53003   7.706   8.119   2.140 -0.1904  1.1745  0.4134
  385MOL0     C53004   7.560   8.105   2.185 -0.5727 -0.2500 -0.4390
  385MOL0     C53005   7.466   8.217   2.154 -0.8243 -1.2270 -0.6977
  385MOL0     C53006   7.316   8.183   2.175 -0.2104 -0.6052  0.5996
  385MOL0     C53007   7.275   8.164   2.322 -0.2978  0.1224 -0.0499
  385MOL0     C53008   7.210   8.284   2.386  0.8060  0.7281  0.1790
  385MOL0     N53009   7.097   8.337   2.314  0.0963 -0.6356  0.2985
  385MOL0     C53010   6.973   8.278   2.298  0.3836  0.3005  0.1618
  385MOL0     C53011   6.903   8.346   2.203 -0.9819  0.6854  0.5432
  385MOL0     C53012   6.772   8.306   2.143 -0.5129  0.5841 -0.4260
  385MOL0     C53013   6.737   8.156   2.150 -0.2535  0.6657  0.0888
  385MOL0     C53014   6.828   8.073   2.056 -0.0576  0.2472 -0.3261
  385MOL0     C53015   6.744   7.960   1.992 -0.1098  0.0132  0.7327
  385MOL0     O53016   6.718   8.021   1.865  0.2142 -0.0181  0.1347
  385MOL0     C53017   6.691   7.955   1.753  0.1876  0.1289  0.1546
  385MOL0     C53018   6.647   7.826   1.749  0.6027 -1.5302 -0.1948
  385MOL0     C53019   6.632   7.768   1.626 -0.8757  0.2206 -0.0982
  385MOL0     C53020   6.577   7.625   1.616  0.3145 -0.1028  0.7382
  385MOL0     C53021   6.662   7.833   1.501 -0.0110  0.0020 -0.5749
  385MOL0     C53022   6.626   7.775   1.359 -0.3298  0.1635  0.0729
  385MOL0     O53023   6.588   7.870   1.269  0.6380 -0.1460  0.1969
  385MOL0     C53024   6.569   7.838   1.139 -1.4228 -0.7122 -0.5363
  385MOL0     C53025   6.600   7.930   1.036  0.1258  0.1316 -1.1886
  385MOL0     C53026   6.564   7.910   0.902 -0.0636 -0.2410 -0.7576
  385MOL0     C53027   6.488   7.799   0.863  0.0985 -0.6370  0.3394
  385MOL0     O53028   6.450   7.779   0.738  0.1428 -0.0963  0.3673
  385MOL0     C53029   6.448   7.895   0.653 -0.0835  0.2186  0.0911
  385MOL0     C53030   6.389   7.864   0.521 -0.0925  0.0062  0.1353
  385MOL0     C53031   6.239   7.828   0.530 -0.5214  0.3282 -0.4346
  385MOL0     C53032   6.172   7.828   0.395  0.5192  0.3497  0.0889
  385MOL0     C53033   6.215   7.731   0.294  1.1858 -0.4299  0.2943
  385MOL0     C53034   6.127   7.734   0.167 -0.2500 -0.0203  0.5864
  385MOL0     C53035   6.201   7.674   0.053 -0.5272 -0.2778 -0.3838
  385MOL0     C53036   6.124   7.633  -0.076  0.0681  0.7167  0.1542
  385MOL0    Cl53037   6.227   7.635  -0.209  0.0263 -0.0308 -0.3590
  385MOL0     C53038   6.456   7.701   0.958 -0.4912 -0.8867 -0.2005
  385MOL0     C53039   6.489   7.729   1.092 -0.5348 -0.1650 -0.3979
  385MOL0     O53040   6.650   7.655   1.331 -0.0748  0.9062 -0.1266
  385MOL0     C53041   6.723   7.962   1.511 -0.0377  0.2507 -0.4887
  385MOL0     C53042   6.731   8.025   1.635  1.2122  0.0769  0.6171
  385MOL0     N53043   6.988   8.454   2.165 -0.0560  0.2101 -0.2387
  385MOL0     N53044   7.107   8.438   2.219  0.6209 -0.7123  0.8536
  385MOL0     C53045   7.928   7.560   2.152  0.2383  0.5961 -0.0584
  385MOL0     C53046   7.912   7.441   2.080 -0.9187  0.4312 -0.4638
  385MOL0     C53047   7.843   7.026   1.968 -0.3708 -0.0970  0.2894
  385MOL0     C53048   7.794   7.031   1.834  0.3687  0.4503 -0.9247
  385MOL0     C53049   7.817   6.934   1.739 -0.1939  0.0385  0.3842
  385MOL0     C53050   7.902   6.836   1.769  0.3833  0.1943  0.5035
  385MOL0     O53051   7.938   6.746   1.667 -0.1261 -0.1809  0.2213
  385MOL0     C53052   8.045   6.653   1.700 -0.6333  0.3716 -0.5260
  385MOL0     C53053   8.009   6.520   1.765  0.5027  0.4805  1.1354
  385MOL0     C53054   7.959   6.431   1.652  0.7018  0.1675 -0.3468
  385MOL0     C53055   7.946   6.281   1.699  0.4193  1.0039 -0.0698
  385MOL0     C53056   7.817   6.260   1.775 -0.7177 -0.2500  0.8884
  385MOL0     C53057   7.709   6.258   1.826  0.6974  1.1968 -0.1674
  385MOL0     C53058   7.942   6.815   1.900 -0.3584  0.1720 -0.7180
  385MOL0     C53059   7.920   6.918   1.999 -0.4975  0.6778 -0.2961
  385MOL0     C53060   7.983   6.905   2.139 -0.6482  0.3235 -0.0827
  385MOL0     H53061   7.573   7.420   2.086 -0.1425  1.2536 -1.8639
  385MOL0     H53062   7.599   7.644   2.174  0.1290  0.1458 -0.2257
  385MOL0     H53063   7.654   7.855   2.255  0.0178 -0.5311  0.5953
  385MOL0     H53064   7.702   7.838   2.076  2.8113 -0.2898 -1.0241
  385MOL0     H53065   7.814   8.022   2.306 -1.9645  1.3247  0.2371
  385MOL0     H53066   7.889   7.987   2.143 -1.2974  1.2068 -2.0634
  385MOL0     H53067   7.741   8.219   2.171  0.9445  1.3873 -1.3696
  385MOL0     H53068   7.733   8.128   2.034  4.6098 -0.1387  1.2427
  385MOL0     H53069   7.517   8.020   2.130  3.0254 -2.2338 -0.5016
  385MOL0     H53070   7.558   8.084   2.292 -2.1378 -1.6469 -0.6905
  385MOL0     H53071   7.486   8.262   2.056  1.7084 -1.2497 -0.2588
  385MOL0     H53072   7.490   8.302   2.219 -2.5504 -0.7383 -0.6474
  385MOL0     H53073   7.253   8.250   2.117 -0.2334  1.2715  2.6474
  385MOL0     H53074   7.292   8.090   2.122 -1.0691  0.9501 -1.8965
  385MOL0     H53075   7.358   8.120   2.378  0.3522 -0.6604 -1.5487
  385MOL0     H53076   7.191   8.094   2.321 -1.5657  1.5863 -0.0938
  385MOL0     H53077   7.168   8.240   2.477 -1.6101  0.0661 -1.1647
  385MOL0     H53078   7.279   8.369   2.387  1.9021 -0.1033 -1.4570
  385MOL0     H53079   6.932   8.195   2.354  1.6331  0.7247  1.7840
  385MOL0     H53080   6.754   8.346   2.042  2.3723  2.5724 -0.2715
  385MOL0     H53081   6.698   8.348   2.212  0.0715 -0.1177  0.6375
  385MOL0     H53082   6.742   8.105   2.247 -1.7086 -1.8621 -1.0605
  385MOL0     H53083   6.630   8.141   2.132 -0.0188 -0.6644 -0.2873
  385MOL0     H53084   6.859   8.145   1.980 -1.3726  3.1126  1.6718
  385MOL0     H53085   6.902   8.017   2.115 -0.6461  0.9776  1.1507
  385MOL0     H53086   6.804   7.869   1.993 -0.3572 -0.1648 -0.0467
  385MOL0     H53087   6.656   7.930   2.049 -0.8111 -0.2120 -0.4258
  385MOL0     H53088   6.632   7.764   1.836  0.0983 -0.8731  0.1936
  385MOL0     H53089   6.480   7.612   1.567  1.8861 -1.3924 -2.2963
  385MOL0     H53090   6.571   7.573   1.712 -0.2101 -3.9248 -1.1664
  385MOL0     H53091   6.642   7.553   1.567 -1.5738 -2.2973  1.2927
  385MOL0     H53092   6.652   8.023   1.057  0.0473  0.3641 -2.0006
  385MOL0     H53093   6.583   7.985   0.826  4.3297 -1.4010 -1.0961
  385MOL0     H53094   6.384   7.972   0.698  0.9397  0.1563  1.7409
  385MOL0     H53095   6.550   7.928   0.634  0.0641  0.5310  1.3578
  385MOL0     H53096   6.407   7.949   0.454  0.4249  1.0818  1.5992
  385MOL0     H53097   6.446   7.781   0.479 -0.5052  0.8027 -2.1823
  385MOL0     H53098   6.187   7.895   0.598  1.4242  0.0897  1.4074
  385MOL0     H53099   6.238   7.729   0.577  0.4082  0.3163 -0.4131
  385MOL0     H53100   6.181   7.928   0.351 -0.7751  0.2109 -0.5702
  385MOL0     H53101   6.067   7.814   0.424  0.6877 -0.8578  0.1770
  385MOL0     H53102   6.320   7.758   0.276  0.5676  2.0660  0.0960
  385MOL0     H53103   6.214   7.628   0.330 -3.3226 -1.1082 -1.1114
  385MOL0     H53104   6.108   7.840   0.150  2.1564  0.2069 -1.2300
  385MOL0     H53105   6.034   7.680   0.191 -0.6823 -0.3101 -1.5354
  385MOL0     H53106   6.259   7.586   0.082 -1.1705 -1.0494 -1.3402
  385MOL0     H53107   6.271   7.755   0.035 -2.7042  2.3356  1.9125
  385MOL0     H53108   6.051   7.703  -0.115  1.1923  0.5429 -2.4336
  385MOL0     H53109   6.086   7.532  -0.055 -0.0454  1.1179  2.0928
  385MOL0     H53110   6.405   7.610   0.929  2.1957 -1.1701 -5.0298
  385MOL0     H53111   6.453   7.663   1.170 -4.1272  0.6067 -1.1983
  385MOL0     H53112   6.732   8.023   1.422 -3.0837  1.2738 -0.1888
  385MOL0     H53113   6.775   8.124   1.638  1.4200  0.0116 -0.0501
  385MOL0     H53114   8.029   7.589   2.182  0.2742 -1.8680  2.6312
  385MOL0     H53115   8.000   7.400   2.033 -2.0748 -1.1165 -1.3752
  385MOL0     H53116   7.737   7.121   1.809  0.2686  0.2157 -1.5564
  385MOL0     H53117   7.781   6.945   1.637  3.3966  2.2518 -0.8067
  385MOL0     H53118   8.115   6.643   1.617  0.3082  2.1962 -0.0092
  385MOL0     H53119   8.118   6.697   1.768  0.6079 -1.5244 -0.5522
  385MOL0     H53120   7.920   6.535   1.826 -1.3305 -0.2527 -1.2173
  385MOL0     H53121   8.094   6.473   1.816  0.3662 -1.4687 -0.2998
  385MOL0     H53122   7.864   6.472   1.615  0.3983 -1.7702 -1.8510
  385MOL0     H53123   8.040   6.447   1.580  2.6924  0.4477  1.8163
  385MOL0     H53124   8.029   6.236   1.755 -1.5543 -5.6841 -1.6009
  385MOL0     H53125   7.944   6.222   1.607 -1.3343  0.3305  0.3530
  385MOL0     H53126   7.609   6.257   1.864  0.6588  2.3325 -0.2222
  385MOL0     H53127   7.995   6.734   1.949 -3.9219 -1.4222  0.9050
  385MOL0     H53128   8.059   6.828   2.154  0.5751  2.0392  3.9365
  385MOL0     H53129   8.036   6.995   2.171 -0.7747 -0.6009  3.1278
  385MOL0     H53130   7.909   6.891   2.219  0.0900  0.1864  0.5867
  386MOL0     O53131   1.084   3.070   8.396  0.2207  0.4076 -0.5865
  386MOL0     C53132   1.197   3.022   8.385 -0.6431 -0.8169 -0.0702
  386MOL0     O53133   1.292   3.028   8.483 -0.0032 -0.7172 -0.2563
  386MOL0     C53134   1.261   3.107   8.586 -0.2434 -0.0896  0.0941
  386MOL0     C53135   1.269   3.245   8.598  0.6405  0.7410 -0.2745
  386MOL0     C53136   1.231   3.315   8.723  0.2193 -0.4306  0.3509
  386MOL0     C53137   1.167   3.245   8.830 -0.9389  0.3364  0.9191
  386MOL0     O53138   1.137   3.300   8.954  1.2717  0.3673 -0.4395
  386MOL0     C53139   1.020   3.242   9.024 -0.2728  0.1926  0.1912
  386MOL0     C53140   0.993   3.330   9.148 -0.2812 -0.0526 -0.5162
  386MOL0     C53141   0.904   3.251   9.251 -0.2219  0.1210 -0.0922
  386MOL0     C53142   0.902   3.342   9.377 -0.3028 -1.1073 -0.2586
  386MOL0     C53143   0.816   3.271   9.490 -0.1311 -0.3964  1.6252
  386MOL0     C53144   0.800   3.352   9.619 -0.4327  0.1157  0.5692
  386MOL0     C53145   0.936   3.396   9.678 -0.4223 -0.4644 -0.0741
  386MOL0     C53146   0.922   3.439   9.826  0.5245 -0.1654  0.4271
  386MOL0     N53147   1.045   3.514   9.863 -0.5200 -0.8779  0.2662
  386MOL0     C53148   1.169   3.506   9.805  0.0271  0.2998 -0.3807
  386MOL0     C53149   1.237   3.605   9.855  0.3318  0.4009 -0.2365
  386MOL0     C53150   1.367   3.644   9.821 -0.1939 -0.4848  0.4894
  386MOL0     C53151   1.472   3.612   9.926  0.2548  0.0040  0.9615
  386MOL0     C53152   1.465   3.685  10.056 -0.7415 -0.2378 -0.0190
  386MOL0     C53153   1.492   3.837  10.044  0.3424 -0.4017 -0.4391
  386MOL0     O53154   1.605   3.880   9.975 -0.0587  0.9026  0.3387
  386MOL0     C53155   1.641   4.010   9.990  0.7574  0.1874  0.0352
  386MOL0     C53156   1.573   4.124  10.047 -0.7323  0.3569  0.9154
  386MOL0     C53157   1.621   4.257  10.028  0.2140 -0.4382 -0.2174
  386MOL0     C53158   1.538   4.372  10.080 -0.7301 -1.2278 -0.5289
  386MOL0     C53159   1.748   4.274   9.972 -0.3051  0.2765 -0.5590
  386MOL0     C53160   1.807   4.408   9.978  0.5014  0.3222 -0.6860
  386MOL0     O53161   1.836   4.452   9.851 -0.4851  0.1385  0.1724
  386MOL0     C53162   1.892   4.574   9.837 -0.4987  0.3029 -0.1441
  386MOL0     C53163   1.840   4.680   9.906 -0.3712 -0.6474  0.8701
  386MOL0     C53164   1.893   4.814   9.889  0.4456 -0.1461  0.9379
  386MOL0     C53165   1.995   4.837   9.793  0.1746  0.7104  0.7656
  386MOL0     O53166   2.041   4.957   9.755  1.2022  0.4312 -0.0942
  386MOL0     C53167   2.114   5.030   9.852  0.0601 -0.5266 -0.5262
  386MOL0     C53168   2.191   5.153   9.782 -0.8919  0.2002 -0.5074
  386MOL0     C53169   2.089   5.263   9.743 -0.5355  0.7305  0.9637
  386MOL0     C53170   2.177   5.389   9.704  0.3730  0.3681  0.0529
  386MOL0     C53171   2.070   5.495   9.656  0.5845  0.9611 -0.2406
  386MOL0     C53172   2.150   5.612   9.606 -0.3256  0.7690 -0.0250
  386MOL0     C53173   2.069   5.743   9.584 -0.2931  0.7037  0.7817
  386MOL0     C53174   1.935   5.728   9.509 -0.5029 -0.0507 -0.0947
  386MOL0    Cl53175   1.867   5.900   9.486 -0.0513 -0.0365  0.3598
  386MOL0     C53176   2.042   4.730   9.720 -0.1406  0.3424  0.1756
  386MOL0     C53177   1.989   4.600   9.742  0.4063 -0.8569 -1.0093
  386MOL0     O53178   1.818   4.469  10.083 -0.7304  0.1485 -0.3561
  386MOL0     C53179   1.810   4.160   9.915 -0.3123 -0.6501 -0.6193
  386MOL0     C53180   1.752   4.035   9.925 -0.7445 -0.3245  0.3074
  386MOL0     N53181   1.156   3.663   9.955 -0.1824  0.0555  0.2601
  386MOL0     N53182   1.048   3.608   9.963  0.0343 -0.2500 -0.3265
  386MOL0     C53183   1.166   3.099   8.814 -0.2282 -1.6674  0.7269
  386MOL0     C53184   1.203   3.040   8.691 -1.0174 -0.0861  0.4077
  386MOL0     C53185   1.250   2.982   8.254 -0.3783  0.7361  0.8523
  386MOL0     C53186   1.349   3.055   8.204 -0.8787 -1.2433 -0.4713
  386MOL0     C53187   1.428   3.007   8.102 -0.2726 -0.9133  0.2439
  386MOL0     C53188   1.390   2.897   8.034 -0.4649  0.3950  0.1691
  386MOL0     O53189   1.466   2.871   7.919  0.4599  0.1755 -0.5835
  386MOL0     C53190   1.443   2.756   7.842 -0.4387 -0.5152  0.7772
  386MOL0     C53191   1.519   2.644   7.910 -1.0053 -0.2861  0.1296
  386MOL0     C53192   1.551   2.525   7.819  0.3369  1.2366 -1.0276
  386MOL0     C53193   1.449   2.470   7.711 -0.5374  0.2246  0.1307
  386MOL0     C53194   1.330   2.433   7.777  0.1499  0.2021 -0.2562
  386MOL0     C53195   1.234   2.396   7.835  0.6214  0.5478 -0.0984
  386MOL0     C53196   1.291   2.810   8.091  0.0227  0.4790  0.2324
  386MOL0     C53197   1.236   2.850   8.212  1.2685  0.2803  0.8678
  386MOL0     C53198   1.133   2.765   8.263  1.1029  0.5170  0.2338
  386MOL0     H53199   1.297   3.309   8.516  0.7511  0.4789 -0.4437
  386MOL0     H53200   1.241   3.423   8.727  1.9975 -0.5596  0.2713
  386MOL0     H53201   1.025   3.134   9.044 -4.0243  0.5451  4.7964
  386MOL0     H53202   0.929   3.249   8.964 -0.2906  2.3356  0.4169
  386MOL0     H53203   1.085   3.358   9.200 -0.1875 -0.5285 -0.4160
  386MOL0     H53204   0.950   3.428   9.126 -0.6731  0.5161  2.4242
  386MOL0     H53205   0.802   3.228   9.219 -0.9234 -0.9894  2.6378
  386MOL0     H53206   0.955   3.164   9.294 -2.2968 -0.2864  1.7052
  386MOL0     H53207   1.008   3.337   9.403 -0.3057 -2.3675 -0.3921
  386MOL0     H53208   0.867   3.443   9.353  1.5278  0.2596  2.3139
  386MOL0     H53209   0.876   3.186   9.524  2.5533  1.1642  1.1212
  386MOL0     H53210   0.724   3.235   9.443 -0.8968  1.0003  1.9904
  386MOL0     H53211   0.724   3.428   9.599 -2.0663 -1.5333  0.1163
  386MOL0     H53212   0.749   3.292   9.695 -2.4159  0.6495 -0.2511
  386MOL0     H53213   0.980   3.477   9.619  1.7357 -2.0153 -0.6970
  386MOL0     H53214   0.985   3.299   9.673 -0.4815 -0.5085  0.2048
  386MOL0     H53215   0.831   3.500   9.823 -0.7349 -1.9814 -0.5120
  386MOL0     H53216   0.901   3.355   9.893 -0.6719 -1.4171 -1.4325
  386MOL0     H53217   1.210   3.443   9.726  3.0629  1.7730 -0.0915
  386MOL0     H53218   1.381   3.749   9.795  2.1140 -0.4373  1.6616
  386MOL0     H53219   1.398   3.596   9.727  1.0757  0.2882  0.4875
  386MOL0     H53220   1.461   3.505   9.943 -1.0254 -0.9599 -4.2932
  386MOL0     H53221   1.564   3.637   9.873 -1.6490  0.7486 -2.3003
  386MOL0     H53222   1.368   3.663  10.100 -0.6181 -2.2492 -0.6338
  386MOL0     H53223   1.542   3.629  10.110 -1.5377 -2.6687 -1.2467
  386MOL0     H53224   1.408   3.877   9.988 -0.0653 -1.4775 -0.6320
  386MOL0     H53225   1.494   3.882  10.144  2.2997 -0.3482 -0.4545
  386MOL0     H53226   1.468   4.119  10.074 -1.1071 -4.1111 -0.6143
  386MOL0     H53227   1.571   4.401  10.180 -4.7165  1.2565  0.3292
  386MOL0     H53228   1.435   4.336  10.066 -1.7120  1.7501 -1.7588
  386MOL0     H53229   1.554   4.462  10.020 -1.8933  0.4358  1.5047
  386MOL0     H53230   1.755   4.676   9.973  0.4127 -0.4891  1.9089
  386MOL0     H53231   1.846   4.902   9.932 -1.8318 -1.0075  0.3595
  386MOL0     H53232   2.058   5.060   9.941  1.5003  1.8856 -0.3440
  386MOL0     H53233   2.189   4.966   9.899 -1.1547  0.1900  2.5859
  386MOL0     H53234   2.267   5.190   9.851  0.2521 -0.1894 -1.5352
  386MOL0     H53235   2.234   5.105   9.694  2.4580  2.4860 -0.3092
  386MOL0     H53236   2.021   5.285   9.826 -1.1092  0.3124  0.6020
  386MOL0     H53237   2.038   5.238   9.650  0.0754 -0.7591  1.0041
  386MOL0     H53238   2.251   5.367   9.627  0.0453  1.0931 -0.4792
  386MOL0     H53239   2.228   5.421   9.795  0.1100 -0.4030  0.4883
  386MOL0     H53240   2.018   5.450   9.570  0.2118  2.0906 -0.6230
  386MOL0     H53241   2.001   5.520   9.737  1.5579 -1.9225  1.6177
  386MOL0     H53242   2.209   5.587   9.518  1.2165  0.1603  1.1316
  386MOL0     H53243   2.219   5.632   9.689  2.8283  0.8545 -2.4742
  386MOL0     H53244   2.128   5.818   9.530  1.0902 -1.0483 -0.2663
  386MOL0     H53245   2.035   5.784   9.679 -2.3068 -0.9676  0.8378
  386MOL0     H53246   1.882   5.666   9.582 -1.3540 -0.6157 -1.1476
  386MOL0     H53247   1.945   5.682   9.410  2.6099 -1.1598  0.6290
  386MOL0     H53248   2.113   4.746   9.640  2.0750 -0.8535  1.7770
  386MOL0     H53249   2.029   4.513   9.692 -3.1973 -2.0214 -2.1661
  386MOL0     H53250   1.907   4.175   9.870  0.5094  1.0803  1.5949
  386MOL0     H53251   1.799   3.942   9.898  0.6944 -0.2555  2.3714
  386MOL0     H53252   1.147   3.033   8.898  1.0607  2.0334  4.2657
  386MOL0     H53253   1.210   2.932   8.677 -2.0386  0.1886 -2.9591
  386MOL0     H53254   1.373   3.142   8.263  0.3371 -1.6576 -0.3148
  386MOL0     H53255   1.516   3.064   8.073 -0.9386 -0.4637 -0.9846
  386MOL0     H53256   1.339   2.728   7.828 -1.0819  2.5897 -1.5373
  386MOL0     H53257   1.480   2.771   7.740 -3.4709 -0.4024 -0.3823
  386MOL0     H53258   1.460   2.617   7.998 -0.4108  0.6367  0.8161
  386MOL0     H53259   1.618   2.681   7.935 -0.4697  0.2438 -2.4724
  386MOL0     H53260   1.641   2.541   7.759  2.1951 -2.6839  0.3839
  386MOL0     H53261   1.570   2.435   7.878 -0.9865  0.5764 -1.5502
  386MOL0     H53262   1.486   2.383   7.657  0.4791  1.6671 -1.6138
  386MOL0     H53263   1.433   2.541   7.629  1.2974 -2.4648 -2.7756
  386MOL0     H53264   1.152   2.365   7.897 -1.3278  1.6137 -1.9686
  386MOL0     H53265   1.255   2.713   8.057  3.7219 -1.5656  1.6882
  386MOL0     H53266   1.119   2.671   8.208  0.0040  1.2339 -0.7283
  386MOL0     H53267   1.171   2.735   8.361  0.3739  0.7205  0.5837
  386MOL0     H53268   1.039   2.820   8.266 -1.1645 -3.0395  1.4456
  387MOL0     O53269   0.944   7.849   4.471  0.1054  0.5318  0.4576
  387MOL0     C53270   1.000   7.745   4.443  0.9343  0.2530 -0.5407
  387MOL0     O53271   1.097   7.673   4.526  0.2430 -0.5405  1.0182
  387MOL0     C53272   1.146   7.742   4.636  0.6544  0.5758 -0.6056
  387MOL0     C53273   1.261   7.823   4.615  0.7235 -0.1728 -0.2011
  387MOL0     C53274   1.335   7.876   4.731 -0.3947 -0.6278 -0.2385
  387MOL0     C53275   1.304   7.837   4.861 -0.0795  0.6835 -0.8515
  387MOL0     O53276   1.367   7.889   4.977 -0.0059 -0.4593 -0.5608
  387MOL0     C53277   1.280   7.978   5.050 -0.3487 -0.4174 -1.8043
  387MOL0     C53278   1.370   8.065   5.147  0.8090 -0.1918  0.0789
  387MOL0     C53279   1.470   8.143   5.056  0.3847  0.3078 -0.4061
  387MOL0     C53280   1.546   8.264   5.114  0.9692  0.6381 -0.1313
  387MOL0     C53281   1.619   8.235   5.250  0.1616  0.3557  0.8341
  387MOL0     C53282   1.670   8.358   5.319  0.0436 -0.7932  0.0333
  387MOL0     C53283   1.557   8.446   5.385 -0.3116 -0.6145  0.7640
  387MOL0     C53284   1.602   8.509   5.521 -0.4047  0.4486 -0.5701
  387MOL0     N53285   1.514   8.605   5.577  0.0268 -0.5637  0.8226
  387MOL0     C53286   1.378   8.592   5.600 -0.5130  0.2000 -0.0263
  387MOL0     C53287   1.337   8.714   5.653  0.7761  0.1032  0.3823
  387MOL0     C53288   1.194   8.755   5.679 -0.2268 -0.7560  0.3023
  387MOL0     C53289   1.166   8.753   5.838  0.4200  0.4937  0.4181
  387MOL0     C53290   1.156   8.603   5.886  0.3081  0.6064 -0.1602
  387MOL0     C53291   1.105   8.612   6.025  0.1042 -0.1078 -0.2545
  387MOL0     O53292   1.073   8.477   6.079 -0.5641 -0.2105 -0.4877
  387MOL0     C53293   1.175   8.398   6.115 -0.3410 -0.5832  0.2744
  387MOL0     C53294   1.272   8.448   6.196 -0.6885 -0.4410 -0.2220
  387MOL0     C53295   1.374   8.383   6.250 -0.1939 -0.5060 -1.1340
  387MOL0     C53296   1.444   8.456   6.361  0.7128 -1.0057  0.3615
  387MOL0     C53297   1.386   8.244   6.211 -0.5411 -0.4570  0.9707
  387MOL0     C53298   1.508   8.163   6.252 -0.7181  0.0562 -0.0634
  387MOL0     O53299   1.572   8.079   6.160  0.1837 -0.0021  0.0484
  387MOL0     C53300   1.615   7.949   6.190 -0.0694 -1.0787  0.6237
  387MOL0     C53301   1.561   7.865   6.284  0.0549 -0.0708  0.1474
  387MOL0     C53302   1.609   7.737   6.297  0.8828  0.3334  0.4419
  387MOL0     C53303   1.720   7.697   6.229 -0.1323  0.5087  0.4078
  387MOL0     O53304   1.765   7.567   6.262  0.2377  0.1289  0.5490
  387MOL0     C53305   1.882   7.527   6.181 -1.2577 -0.2428 -0.5063
  387MOL0     C53306   1.916   7.383   6.213 -0.8355  1.2366  0.2435
  387MOL0     C53307   1.967   7.364   6.353  0.2958 -1.0668  0.6248
  387MOL0     C53308   2.091   7.446   6.379  0.3731 -0.1454  0.3404
  387MOL0     C53309   2.176   7.390   6.492  0.0945 -0.3091  0.0841
  387MOL0     C53310   2.246   7.249   6.476 -0.2305  0.7182 -0.2536
  387MOL0     C53311   2.351   7.216   6.580  1.0166 -0.2292  0.4968
  387MOL0     C53312   2.290   7.116   6.682 -0.0346 -0.4750  0.0004
  387MOL0    Cl53313   2.419   7.033   6.773  0.0129 -0.7954  0.1542
  387MOL0     C53314   1.782   7.783   6.136 -0.7275 -1.0782  0.1574
  387MOL0     C53315   1.730   7.907   6.122  0.0863 -0.1881 -0.0912
  387MOL0     O53316   1.541   8.168   6.372  0.4363  0.7567  0.3920
  387MOL0     C53317   1.296   8.189   6.116 -0.2277  0.3516  0.1466
  387MOL0     C53318   1.187   8.267   6.074  0.4886  0.4012  0.0363
  387MOL0     N53319   1.441   8.810   5.635 -0.2958  0.3591 -0.4318
  387MOL0     N53320   1.549   8.741   5.598  0.2031  1.0587  0.6658
  387MOL0     C53321   1.191   7.756   4.872  0.4474  1.3598 -1.0192
  387MOL0     C53322   1.114   7.704   4.760  0.2071 -0.0598  0.0382
  387MOL0     C53323   0.947   7.668   4.323  0.0144 -0.2657  0.5191
  387MOL0     C53324   0.997   7.535   4.308 -0.1363 -0.1626  0.0684
  387MOL0     C53325   0.953   7.442   4.206 -1.1407  0.0851 -0.7280
  387MOL0     C53326   0.859   7.487   4.113  0.0309  0.9969 -1.4163
  387MOL0     O53327   0.835   7.415   3.994  0.2527  0.2886 -0.5317
  387MOL0     C53328   0.919   7.308   3.957 -0.1274  0.5240  0.1772
  387MOL0     C53329   0.874   7.238   3.829  0.1552  0.2218 -0.6072
  387MOL0     C53330   0.775   7.116   3.850  1.4806  1.0173 -0.0358
  387MOL0     C53331   0.676   7.096   3.735  0.2849 -0.1147 -0.2344
  387MOL0     C53332   0.645   6.955   3.739 -0.0063 -0.0500 -0.1011
  387MOL0     C53333   0.619   6.835   3.745  0.3836 -0.7631 -0.0009
  387MOL0     C53334   0.801   7.609   4.133 -0.6181 -0.4021 -1.0040
  387MOL0     C53335   0.840   7.706   4.233 -0.7630  0.0105  0.1694
  387MOL0     C53336   0.757   7.833   4.245 -0.1597  0.3079  1.0880
  387MOL0     H53337   1.288   7.862   4.517  0.7582 -0.2639 -0.2270
  387MOL0     H53338   1.413   7.945   4.701  0.6511 -2.8448 -3.0847
  387MOL0     H53339   1.214   7.921   5.116 -1.2011  1.1499 -1.2667
  387MOL0     H53340   1.199   8.038   5.007 -1.4095  1.9611  2.9072
  387MOL0     H53341   1.314   8.128   5.216 -0.5372  2.0094 -2.8094
  387MOL0     H53342   1.436   8.006   5.211 -0.3601 -1.5525  0.0918
  387MOL0     H53343   1.542   8.066   5.028 -1.9144 -2.6010  1.1467
  387MOL0     H53344   1.414   8.161   4.964 -1.0470 -3.1733 -0.3599
  387MOL0     H53345   1.615   8.294   5.035  0.0018  1.6707 -0.6046
  387MOL0     H53346   1.482   8.350   5.134 -0.3856 -0.8633  2.4831
  387MOL0     H53347   1.707   8.175   5.221 -1.2293 -0.4377 -2.2153
  387MOL0     H53348   1.556   8.190   5.326  0.0060  1.1807  1.1975
  387MOL0     H53349   1.745   8.326   5.392  1.3866  1.6213 -0.1718
  387MOL0     H53350   1.701   8.427   5.240 -1.6306 -0.8903 -0.7646
  387MOL0     H53351   1.464   8.389   5.398  1.0932 -2.8220  1.7383
  387MOL0     H53352   1.527   8.524   5.315  0.7161 -2.7171 -2.2526
  387MOL0     H53353   1.601   8.419   5.584 -4.1831  0.3121 -0.6394
  387MOL0     H53354   1.706   8.542   5.519 -0.3170  0.1960 -0.2945
  387MOL0     H53355   1.317   8.505   5.576 -0.2157 -0.3917  1.2962
  387MOL0     H53356   1.124   8.697   5.618 -1.1955  1.4154 -0.7650
  387MOL0     H53357   1.188   8.858   5.643  1.4460  0.5171  3.2686
  387MOL0     H53358   1.257   8.796   5.880  0.9784 -0.3363  0.0786
  387MOL0     H53359   1.072   8.806   5.857 -1.2037 -2.0888  0.0991
  387MOL0     H53360   1.094   8.542   5.819  0.9929 -3.4530  2.5654
  387MOL0     H53361   1.255   8.559   5.872 -0.4605 -1.1512 -0.2806
  387MOL0     H53362   1.170   8.662   6.098  0.0138  2.6242 -1.9016
  387MOL0     H53363   1.007   8.657   6.038 -0.3550 -0.8212 -1.1367
  387MOL0     H53364   1.268   8.549   6.235 -2.6613 -1.0336  1.3489
  387MOL0     H53365   1.498   8.392   6.431  2.6559  0.5955  0.4129
  387MOL0     H53366   1.372   8.521   6.411  0.0594 -1.8734  0.5675
  387MOL0     H53367   1.525   8.515   6.317  1.2825  1.3986  4.1337
  387MOL0     H53368   1.475   7.912   6.330 -0.6039  0.9881 -2.0202
  387MOL0     H53369   1.556   7.672   6.366  1.8961 -1.5593 -0.4689
  387MOL0     H53370   1.868   7.539   6.073 -2.2673  1.9165 -0.1992
  387MOL0     H53371   1.970   7.589   6.204 -1.6690 -0.0759  0.6523
  387MOL0     H53372   1.839   7.305   6.203  0.8140 -1.0235  3.4878
  387MOL0     H53373   1.996   7.351   6.146 -1.7813 -0.6743 -0.0499
  387MOL0     H53374   2.003   7.261   6.360 -1.9816 -1.7990  2.9442
  387MOL0     H53375   1.899   7.381   6.436 -0.2176  0.4866 -0.0828
  387MOL0     H53376   2.074   7.549   6.412  0.7721 -0.5625  1.9613
  387MOL0     H53377   2.150   7.452   6.287  2.6279  5.0808  1.7192
  387MOL0     H53378   2.263   7.456   6.494  0.4429 -0.6801 -1.7481
  387MOL0     H53379   2.119   7.376   6.585  1.3008 -1.0798  0.7431
  387MOL0     H53380   2.306   7.244   6.385  2.5948  0.3082  1.4883
  387MOL0     H53381   2.172   7.172   6.454 -0.4478  0.7306  0.4088
  387MOL0     H53382   2.370   7.310   6.634 -2.6503  0.0778  1.5153
  387MOL0     H53383   2.446   7.188   6.534  1.1044  1.3896 -0.3899
  387MOL0     H53384   2.244   7.042   6.617 -1.6844  3.0273 -3.2270
  387MOL0     H53385   2.213   7.162   6.745  1.1940  1.7915 -0.0286
  387MOL0     H53386   1.879   7.779   6.088  1.4150  1.4226  3.7091
  387MOL0     H53387   1.776   7.975   6.051 -2.1997  1.8405  0.2154
  387MOL0     H53388   1.295   8.085   6.086 -2.4121  0.5153 -0.5373
  387MOL0     H53389   1.105   8.221   6.019 -0.0476 -0.1071  1.2263
  387MOL0     H53390   1.153   7.749   4.973 -0.1595 -0.2080 -1.3192
  387MOL0     H53391   1.029   7.638   4.767 -2.7299  3.3513 -0.4809
  387MOL0     H53392   1.066   7.491   4.379 -0.7257 -0.8722  0.2149
  387MOL0     H53393   0.997   7.343   4.208  1.3771  1.0738  2.9972
  387MOL0     H53394   1.023   7.341   3.946  0.0181 -0.4888 -2.0605
  387MOL0     H53395   0.920   7.240   4.042 -0.4795  0.6119  0.2518
  387MOL0     H53396   0.967   7.200   3.787  1.8233  1.3114  1.8878
  387MOL0     H53397   0.832   7.313   3.761 -1.7290  0.3864  0.6541
  387MOL0     H53398   0.837   7.027   3.869  0.9281  1.1960  3.0151
  387MOL0     H53399   0.710   7.134   3.936  1.1210 -0.0530 -0.0667
  387MOL0     H53400   0.739   7.112   3.647  0.5547  0.0540 -0.0139
  387MOL0     H53401   0.593   7.165   3.754 -1.1031 -2.3556  2.5600
  387MOL0     H53402   0.565   6.744   3.757  2.0557 -1.6960  0.7380
  387MOL0     H53403   0.731   7.631   4.053 -0.6216 -1.7615 -1.4169
  387MOL0     H53404   0.673   7.820   4.314 -1.0193  2.8800  0.6495
  387MOL0     H53405   0.812   7.924   4.271  0.1263  0.1253  1.1261
  387MOL0     H53406   0.722   7.849   4.143  1.6888 -0.7537  0.2328
  388MOL0     O53407   5.956  10.439   0.991  0.4492 -0.3660  0.2818
  388MOL0     C53408   5.994  10.429   1.102  0.5689 -0.1250  0.6362
  388MOL0     O53409   5.963  10.501   1.219 -0.5818  0.2122 -0.1527
  388MOL0     C53410   5.855  10.584   1.226  0.0610 -0.3379 -0.8585
  388MOL0     C53411   5.740  10.585   1.154  0.5256  0.4935  0.5336
  388MOL0     C53412   5.637  10.676   1.178 -0.3676  0.5702 -0.1311
  388MOL0     C53413   5.643  10.754   1.292  0.7488 -0.2909  0.8552
  388MOL0     O53414   5.541  10.839   1.331  0.0886  0.0129  0.3271
  388MOL0     C53415   5.505  10.932   1.222 -0.5295  0.0359 -0.8215
  388MOL0     C53416   5.468  11.062   1.279 -0.6104  0.1486 -0.1379
  388MOL0     C53417   5.574  11.126   1.373  0.5009 -0.4160 -0.8260
  388MOL0     C53418   5.533  11.269   1.387  0.0069  0.2198 -0.1781
  388MOL0     C53419   5.642  11.354   1.453 -0.4675  0.6391 -0.1216
  388MOL0     C53420   5.596  11.498   1.455  0.4498  0.6908  0.2490
  388MOL0     C53421   5.702  11.595   1.528  1.2231 -0.0384 -0.6604
  388MOL0     C53422   5.828  11.608   1.448  0.4231 -1.0684  0.3077
  388MOL0     N53423   5.812  11.690   1.327  0.3165 -0.3005  0.9459
  388MOL0     C53424   5.801  11.638   1.201 -0.4784 -0.2296  0.2157
  388MOL0     C53425   5.800  11.752   1.115  0.2570 -0.5004 -0.5045
  388MOL0     C53426   5.764  11.764   0.969  0.0279 -0.0469  0.4256
  388MOL0     C53427   5.613  11.798   0.937  0.0380 -0.1900  0.4129
  388MOL0     C53428   5.588  11.778   0.790  0.2149  0.7734  0.1662
  388MOL0     C53429   5.434  11.784   0.740 -0.3398 -0.3031  0.0598
  388MOL0     O53430   5.382  11.919   0.744 -0.2132  1.0207 -0.1074
  388MOL0     C53431   5.254  11.943   0.713 -0.5302  1.0722 -0.2793
  388MOL0     C53432   5.173  11.850   0.642 -0.4109 -0.6686  0.5034
  388MOL0     C53433   5.043  11.878   0.592  0.3596  0.3505 -0.3829
  388MOL0     C53434   4.971  11.755   0.536 -0.1140 -0.3138 -0.9099
  388MOL0     C53435   4.998  12.015   0.594 -0.6213 -0.0804 -0.6146
  388MOL0     C53436   4.870  12.073   0.536 -0.5088  0.8716 -0.6133
  388MOL0     O53437   4.872  12.204   0.501 -0.2712 -0.7217  0.3312
  388MOL0     C53438   4.755  12.248   0.440 -0.3516  0.1258 -0.4449
  388MOL0     C53439   4.742  12.270   0.307 -1.3402 -0.3222  1.3520
  388MOL0     C53440   4.625  12.334   0.250 -0.5875  0.0468 -0.7860
  388MOL0     C53441   4.523  12.368   0.333  0.0419  0.4651 -0.3980
  388MOL0     O53442   4.417  12.420   0.264 -0.0662  0.0584  0.6686
  388MOL0     C53443   4.307  12.484   0.327  0.2264  0.0997  0.1701
  388MOL0     C53444   4.180  12.396   0.356  0.7468  0.1207  0.6851
  388MOL0     C53445   4.192  12.298   0.474 -0.1490 -0.2664  1.0892
  388MOL0     C53446   4.052  12.245   0.518 -0.4161 -0.0191 -0.5648
  388MOL0     C53447   3.981  12.163   0.417  0.6985  1.0340  0.9402
  388MOL0     C53448   4.014  12.007   0.402  0.8184 -0.1427 -0.4884
  388MOL0     C53449   3.961  11.929   0.278 -0.1424  0.0270  0.8245
  388MOL0     C53450   3.813  11.947   0.244  0.2657  0.2036  0.0718
  388MOL0    Cl53451   3.708  11.821   0.324 -0.2372  0.1621  0.0693
  388MOL0     C53452   4.546  12.356   0.475  0.9440  0.1822  0.0481
  388MOL0     C53453   4.662  12.301   0.522  0.0972 -0.5406 -0.4975
  388MOL0     O53454   4.785  11.987   0.514  0.2562 -0.0116  0.4256
  388MOL0     C53455   5.086  12.109   0.659 -0.3609  0.4173 -0.7132
  388MOL0     C53456   5.206  12.067   0.731 -0.2110 -0.4078  0.0918
  388MOL0     N53457   5.803  11.859   1.192 -0.3394  0.1887  0.5213
  388MOL0     N53458   5.817  11.828   1.316  0.1490 -0.5877 -0.2067
  388MOL0     C53459   5.763  10.763   1.358  0.3907 -0.1886 -0.0088
  388MOL0     C53460   5.867  10.677   1.324  0.8726 -0.7912  0.0913
  388MOL0     C53461   6.090  10.317   1.118  0.4952  0.3022 -0.4806
  388MOL0     C53462   6.026  10.193   1.155 -0.1346  0.3075  0.8620
  388MOL0     C53463   6.110  10.081   1.168  0.1172 -1.0761 -0.0074
  388MOL0     C53464   6.241  10.081   1.147 -0.2084 -0.4792 -0.3662
  388MOL0     O53465   6.326   9.974   1.151  0.3972 -0.3474  0.2025
  388MOL0     C53466   6.304   9.851   1.071  0.1450  0.7060 -0.1561
  388MOL0     C53467   6.243   9.729   1.142  0.4393  1.2783  0.2147
  388MOL0     C53468   6.232   9.613   1.049  0.3748 -0.1762  0.3781
  388MOL0     C53469   6.135   9.507   1.105 -0.0716 -0.5814 -0.1044
  388MOL0     C53470   6.167   9.448   1.241  0.3035  1.6324  0.1028
  388MOL0     C53471   6.187   9.384   1.344  0.2115 -0.3845  0.4274
  388MOL0     C53472   6.304  10.208   1.119 -1.3008  0.5943  0.7732
  388MOL0     C53473   6.230  10.324   1.098 -0.6993 -0.1656  0.5763
  388MOL0     C53474   6.297  10.448   1.057 -0.4902 -0.1945  0.1041
  388MOL0     H53475   5.725  10.506   1.080 -0.4070  0.7240  0.4687
  388MOL0     H53476   5.554  10.666   1.109 -1.7769 -1.1421  1.6888
  388MOL0     H53477   5.419  10.888   1.172 -0.9533  0.1575 -0.2084
  388MOL0     H53478   5.581  10.935   1.143  0.5858  3.3985  0.1995
  388MOL0     H53479   5.456  11.136   1.199 -1.2224  1.4953  1.1552
  388MOL0     H53480   5.374  11.055   1.334  0.7923  3.0659  2.9932
  388MOL0     H53481   5.569  11.077   1.471  1.4939 -2.2558 -1.6398
  388MOL0     H53482   5.673  11.105   1.333  1.1799  0.2583  0.4409
  388MOL0     H53483   5.507  11.310   1.289 -2.9369  0.2821  0.5360
  388MOL0     H53484   5.443  11.282   1.448  0.7281  2.4344  0.5042
  388MOL0     H53485   5.733  11.362   1.393  1.9720 -1.2501  3.0040
  388MOL0     H53486   5.672  11.313   1.550  1.7122 -1.7291 -1.6856
  388MOL0     H53487   5.576  11.533   1.353 -2.1230  1.5812  0.9842
  388MOL0     H53488   5.499  11.499   1.506  1.0958  2.5474  1.5587
  388MOL0     H53489   5.729  11.565   1.630  0.2459 -1.0733 -0.6873
  388MOL0     H53490   5.659  11.695   1.539  0.7786  0.1075 -3.1134
  388MOL0     H53491   5.919  11.647   1.495 -0.7955  1.2096  0.9217
  388MOL0     H53492   5.872  11.512   1.418  0.7335 -0.4273 -1.4027
  388MOL0     H53493   5.791  11.537   1.163 -2.4964 -0.0792  0.2166
  388MOL0     H53494   5.799  11.669   0.928  2.6251  0.0829  2.1373
  388MOL0     H53495   5.827  11.844   0.929 -2.6155  1.8027 -0.3004
  388MOL0     H53496   5.535  11.745   0.991 -0.4943 -0.8509 -0.9524
  388MOL0     H53497   5.595  11.902   0.968  1.2808 -0.4121  2.0193
  388MOL0     H53498   5.643  11.840   0.719 -2.3202  2.8268 -0.1241
  388MOL0     H53499   5.608  11.671   0.776 -3.2219 -0.2165  1.5993
  388MOL0     H53500   5.450  11.747   0.638 -0.6944  0.6477 -0.3529
  388MOL0     H53501   5.363  11.718   0.791 -3.6479  0.5700 -3.0492
  388MOL0     H53502   5.208  11.757   0.598  0.1230 -1.6641  2.8863
  388MOL0     H53503   5.043  11.708   0.468 -1.1087  2.6647 -4.3356
  388MOL0     H53504   4.882  11.775   0.476 -0.0143 -2.0462 -1.7123
  388MOL0     H53505   4.936  11.701   0.625  1.0917  0.5084  0.0980
  388MOL0     H53506   4.827  12.256   0.240  0.3744  3.4030  2.4410
  388MOL0     H53507   4.628  12.349   0.142  3.3580 -1.2643 -1.0338
  388MOL0     H53508   4.350  12.532   0.415  1.5401  0.6876 -0.7605
  388MOL0     H53509   4.279  12.565   0.259  0.7508  1.5893  1.6682
  388MOL0     H53510   4.094  12.463   0.366 -0.5405 -0.4538 -4.1409
  388MOL0     H53511   4.161  12.340   0.264  0.7046  1.4785 -0.1480
  388MOL0     H53512   4.239  12.351   0.558  1.9684  1.1829 -0.8687
  388MOL0     H53513   4.257  12.215   0.443 -1.1876 -0.7036  0.0327
  388MOL0     H53514   3.988  12.330   0.543 -0.7704 -0.0150 -1.4344
  388MOL0     H53515   4.073  12.177   0.601  0.5784 -0.2923 -1.0218
  388MOL0     H53516   3.879  12.164   0.456  0.2218 -1.3458 -0.0862
  388MOL0     H53517   3.981  12.215   0.320 -1.1832  2.0033  1.4152
  388MOL0     H53518   3.955  11.965   0.484 -1.3089 -1.1589 -2.4411
  388MOL0     H53519   4.122  11.992   0.412  0.8882  0.1627 -0.7686
  388MOL0     H53520   3.977  11.820   0.283  0.3067  0.0183 -0.4453
  388MOL0     H53521   4.012  11.973   0.192 -1.0130  0.5040  0.5416
  388MOL0     H53522   3.796  11.925   0.138 -0.2678  1.4120 -0.1125
  388MOL0     H53523   3.787  12.053   0.251 -1.4042 -0.1781  0.0028
  388MOL0     H53524   4.468  12.402   0.535  0.1478 -0.6862 -0.2929
  388MOL0     H53525   4.676  12.282   0.628  0.5536  1.3073 -0.2013
  388MOL0     H53526   5.058  12.213   0.673  3.7917  1.6311 -0.1738
  388MOL0     H53527   5.259  12.143   0.789  0.4793 -1.1318  0.4229
  388MOL0     H53528   5.758  10.818   1.452 -2.3668  0.5779 -0.5193
  388MOL0     H53529   5.956  10.668   1.386  1.0118 -2.2854 -0.2841
  388MOL0     H53530   5.921  10.178   1.178  0.4104 -1.4947  2.3357
  388MOL0     H53531   6.066   9.983   1.183 -0.5644 -1.7469 -4.7207
  388MOL0     H53532   6.237   9.877   0.989  0.0046 -1.2614 -0.7073
  388MOL0     H53533   6.398   9.815   1.030 -2.0040 -2.4028 -2.8553
  388MOL0     H53534   6.144   9.743   1.186 -0.1682 -1.0642 -0.2320
  388MOL0     H53535   6.315   9.703   1.221  0.9228  0.1131 -0.5860
  388MOL0     H53536   6.206   9.634   0.944 -0.3824 -1.7311  0.2349
  388MOL0     H53537   6.324   9.556   1.036 -0.9346 -2.1818 -0.6173
  388MOL0     H53538   6.113   9.423   1.038  0.7321 -2.5601  1.9933
  388MOL0     H53539   6.041   9.560   1.123 -1.5674 -3.3725  0.9827
  388MOL0     H53540   6.200   9.322   1.430  0.7170 -2.2199 -0.9196
  388MOL0     H53541   6.411  10.202   1.102 -1.0072 -0.4920  2.6940
  388MOL0     H53542   6.255  10.535   1.109 -1.2807 -0.9501  0.7654
  388MOL0     H53543   6.402  10.439   1.085  0.0760  0.7236 -1.5705
  388MOL0     H53544   6.283  10.462   0.949  1.5856  2.6577  0.0968
  389MOL0     O53545   0.204   0.199   5.875 -0.2765  0.2509 -1.4670
  389MOL0     C53546   0.178   0.104   5.803  0.4228 -0.4530  1.0027
  389MOL0     O53547   0.098   0.107   5.694  0.3344  0.3883 -0.2350
  389MOL0     C53548   0.062   0.225   5.628 -1.4486  0.5445  0.1061
  389MOL0     C53549  -0.057   0.226   5.557 -0.3655  0.1549 -0.1783
  389MOL0     C53550  -0.094   0.331   5.486 -0.1449 -0.3179  0.3846
  389MOL0     C53551  -0.032   0.451   5.483 -0.7357  1.2221  0.2165
  389MOL0     O53552  -0.103   0.546   5.405 -0.6219  0.1977 -0.7387
  389MOL0     C53553  -0.038   0.663   5.362  0.5605 -0.3272 -0.7447
  389MOL0     C53554  -0.105   0.789   5.427 -0.4355  0.6071 -0.2514
  389MOL0     C53555  -0.225   0.830   5.332  0.2326  0.2740  0.3208
  389MOL0     C53556  -0.178   0.916   5.210  1.7055 -0.3088 -1.5757
  389MOL0     C53557  -0.314   0.971   5.144  1.0979  0.0609 -0.1858
  389MOL0     C53558  -0.299   1.024   4.999 -1.0149  0.5654 -0.4134
  389MOL0     C53559  -0.267   0.916   4.892  0.2468 -0.6366 -0.9090
  389MOL0     C53560  -0.288   0.965   4.744 -0.0898  0.5015 -0.6680
  389MOL0     N53561  -0.220   1.086   4.698 -0.2140  0.2277 -0.3083
  389MOL0     C53562  -0.255   1.218   4.706 -0.3948  0.1405 -0.1112
  389MOL0     C53563  -0.168   1.302   4.638 -0.6429  0.0436 -0.1933
  389MOL0     C53564  -0.161   1.453   4.648 -0.5645  0.8472  0.0334
  389MOL0     C53565  -0.277   1.500   4.550 -0.2350 -0.7380  0.0026
  389MOL0     C53566  -0.213   1.510   4.411 -0.0490 -0.8779 -0.2540
  389MOL0     C53567  -0.292   1.605   4.319 -0.4475 -0.1650  0.0040
  389MOL0     O53568  -0.413   1.535   4.283 -0.3502  0.8727 -0.3637
  389MOL0     C53569  -0.517   1.601   4.217 -0.0902  1.0646  0.4780
  389MOL0     C53570  -0.510   1.738   4.189  0.1596 -0.2182 -0.2537
  389MOL0     C53571  -0.599   1.805   4.108  0.2898 -0.0129 -0.3435
  389MOL0     C53572  -0.583   1.949   4.091 -0.7798  0.1067  0.3651
  389MOL0     C53573  -0.702   1.730   4.042 -0.0365 -1.0959  0.4622
  389MOL0     C53574  -0.810   1.789   3.956  0.0492 -0.0199  0.9438
  389MOL0     O53575  -0.925   1.724   3.928  0.0813  0.3725  0.3926
  389MOL0     C53576  -1.023   1.783   3.843 -0.4973  1.0513 -0.6334
  389MOL0     C53577  -1.136   1.853   3.896 -0.5807  0.1069  0.9908
  389MOL0     C53578  -1.230   1.906   3.814 -0.4491 -0.1670 -0.7738
  389MOL0     C53579  -1.225   1.890   3.681 -0.3012 -0.3202 -0.0170
  389MOL0     O53580  -1.327   1.943   3.609 -0.8329  0.4354  0.5405
  389MOL0     C53581  -1.459   1.874   3.612 -0.5260  0.4408  0.0674
  389MOL0     C53582  -1.544   1.929   3.488 -0.5088  0.6823 -0.2050
  389MOL0     C53583  -1.558   2.081   3.499 -0.1225  0.0658  0.2359
  389MOL0     C53584  -1.689   2.135   3.560 -0.5728  0.8405 -0.6784
  389MOL0     C53585  -1.694   2.298   3.556  0.1568 -0.6116 -0.1242
  389MOL0     C53586  -1.591   2.364   3.641 -0.4949  0.9419  0.0424
  389MOL0     C53587  -1.574   2.292   3.781  1.4348  0.1543  0.4995
  389MOL0     C53588  -1.465   2.361   3.864 -0.2462  0.2798  0.0914
  389MOL0    Cl53589  -1.310   2.287   3.821  0.4134 -0.2617 -0.3328
  389MOL0     C53590  -1.118   1.821   3.619  0.5240  0.5684 -0.9295
  389MOL0     C53591  -1.015   1.765   3.702  1.1262 -0.3571 -0.7305
  389MOL0     O53592  -0.789   1.898   3.898  0.4265 -0.5181  0.4904
  389MOL0     C53593  -0.724   1.596   4.080  0.0422 -0.6927 -0.8222
  389MOL0     C53594  -0.628   1.535   4.162 -0.6989  0.0296  0.1532
  389MOL0     N53595  -0.088   1.218   4.579 -0.2505  0.4140 -1.3331
  389MOL0     N53596  -0.107   1.094   4.617  0.8005  0.4448 -1.0142
  389MOL0     C53597   0.095   0.466   5.542 -0.5721 -0.6328  0.1903
  389MOL0     C53598   0.138   0.351   5.616  0.1063 -0.4439 -1.3378
  389MOL0     C53599   0.218  -0.029   5.853 -0.7728 -0.8174 -0.6836
  389MOL0     C53600   0.358  -0.029   5.882  0.2509  0.0192 -0.2818
  389MOL0     C53601   0.410  -0.142   5.949  1.0339 -0.4405  0.6181
  389MOL0     C53602   0.330  -0.251   5.961  0.6173  0.3652  0.5117
  389MOL0     O53603   0.373  -0.366   6.018 -0.6242 -0.6683  1.4764
  389MOL0     C53604   0.388  -0.351   6.164 -1.3070 -0.0218  0.8531
  389MOL0     C53605   0.355  -0.467   6.245  1.0835  0.1978  0.4409
  389MOL0     C53606   0.205  -0.495   6.226 -0.3167 -1.0971  0.1919
  389MOL0     C53607   0.154  -0.631   6.250 -0.0913 -0.2701  0.3165
  389MOL0     C53608   0.215  -0.698   6.364 -0.2648 -0.5381 -0.6865
  389MOL0     C53609   0.258  -0.765   6.459  0.2741  0.5785 -0.2640
  389MOL0     C53610   0.192  -0.253   5.931  0.2487  0.6677  0.3225
  389MOL0     C53611   0.132  -0.135   5.885  0.0084 -0.4452 -0.2487
  389MOL0     C53612  -0.022  -0.124   5.872 -0.4385  0.9363 -1.1752
  389MOL0     H53613  -0.130   0.147   5.569 -2.5167  2.2317  1.4866
  389MOL0     H53614  -0.186   0.322   5.429  0.8006 -1.6802 -1.0262
  389MOL0     H53615  -0.035   0.671   5.253 -1.0964  4.3889 -0.6790
  389MOL0     H53616   0.066   0.663   5.394  0.0640  2.1612  1.1658
  389MOL0     H53617  -0.135   0.755   5.527  0.8980  0.7434  0.2087
  389MOL0     H53618  -0.022   0.860   5.425  0.1587 -0.0916 -0.6031
  389MOL0     H53619  -0.283   0.746   5.295  1.3694  0.4110 -1.9158
  389MOL0     H53620  -0.291   0.900   5.385 -0.7752 -1.5193  1.5484
  389MOL0     H53621  -0.108   0.994   5.240 -2.3688  2.9353  0.5027
  389MOL0     H53622  -0.128   0.840   5.149  2.6923 -1.2622  0.3285
  389MOL0     H53623  -0.341   1.060   5.202  0.1737  1.2331 -2.3235
  389MOL0     H53624  -0.398   0.901   5.146 -0.6705  2.0666  0.3521
  389MOL0     H53625  -0.390   1.070   4.958  0.1835  1.2483 -2.4088
  389MOL0     H53626  -0.225   1.104   5.002 -2.4026  1.8776 -0.0411
  389MOL0     H53627  -0.338   0.834   4.900 -2.7356  1.5927 -2.5198
  389MOL0     H53628  -0.163   0.887   4.909 -0.1411 -1.4924  0.1605
  389MOL0     H53629  -0.260   0.878   4.684 -1.0595 -1.0819  1.0663
  389MOL0     H53630  -0.395   0.983   4.733 -0.4146  1.0447  2.5169
  389MOL0     H53631  -0.324   1.265   4.776  1.4077 -0.2835  2.0394
  389MOL0     H53632  -0.064   1.495   4.623  0.2321 -1.2239 -0.6185
  389MOL0     H53633  -0.186   1.491   4.747 -1.0830 -0.6839  0.5178
  389MOL0     H53634  -0.364   1.435   4.546 -1.5536  0.9158  0.4496
  389MOL0     H53635  -0.313   1.596   4.589  0.0991  0.8287 -3.2269
  389MOL0     H53636  -0.109   1.542   4.421  0.8333 -3.9948  1.8806
  389MOL0     H53637  -0.216   1.412   4.363  0.1778 -0.1511 -1.8231
  389MOL0     H53638  -0.303   1.707   4.358 -2.8737  0.0454 -1.0215
  389MOL0     H53639  -0.238   1.628   4.227 -0.2780  3.9507  0.9365
  389MOL0     H53640  -0.429   1.803   4.218 -0.3345  1.5202 -2.4952
  389MOL0     H53641  -0.662   2.011   4.134 -0.9420 -0.2446  0.5760
  389MOL0     H53642  -0.589   1.973   3.984  0.1695  1.1801  0.5333
  389MOL0     H53643  -0.490   1.983   4.138  1.0625 -3.1888 -0.5787
  389MOL0     H53644  -1.138   1.864   4.004  0.4217 -0.0048  1.0285
  389MOL0     H53645  -1.311   1.962   3.860  2.2718  1.0948  2.9002
  389MOL0     H53646  -1.437   1.767   3.612 -3.3841 -0.2135 -0.0333
  389MOL0     H53647  -1.509   1.901   3.705  1.1087 -0.3897  1.2519
  389MOL0     H53648  -1.492   1.896   3.398  0.3661 -1.2317  0.9295
  389MOL0     H53649  -1.642   1.882   3.475  0.9163 -2.0820 -1.9312
  389MOL0     H53650  -1.549   2.122   3.398 -0.3251 -1.3664 -0.3987
  389MOL0     H53651  -1.475   2.128   3.552 -1.1961  0.3226  1.7303
  389MOL0     H53652  -1.722   2.091   3.654 -0.8118  0.2110 -1.0473
  389MOL0     H53653  -1.772   2.100   3.499 -0.8261 -0.7447  0.5316
  389MOL0     H53654  -1.678   2.325   3.452 -0.3295  1.7595  0.3681
  389MOL0     H53655  -1.795   2.335   3.577  0.8255  1.4519 -0.2999
  389MOL0     H53656  -1.615   2.470   3.647 -1.6026  0.6915  0.2783
  389MOL0     H53657  -1.498   2.361   3.585 -0.7522  0.6171 -0.3726
  389MOL0     H53658  -1.564   2.183   3.771  2.3349  0.0802  1.9056
  389MOL0     H53659  -1.659   2.314   3.845  0.0627  2.5064 -1.9389
  389MOL0     H53660  -1.478   2.333   3.969  1.7235 -0.1416  0.2701
  389MOL0     H53661  -1.467   2.470   3.856 -2.9808  0.3090  0.1999
  389MOL0     H53662  -1.103   1.797   3.514  2.4854  0.9644 -0.7866
  389MOL0     H53663  -0.934   1.715   3.650  2.6978 -0.8019  1.9631
  389MOL0     H53664  -0.804   1.528   4.053 -0.2656 -0.3929 -0.6600
  389MOL0     H53665  -0.655   1.430   4.176 -0.9623 -0.0137 -0.6103
  389MOL0     H53666   0.162   0.552   5.546  1.9426 -2.4662 -0.4591
  389MOL0     H53667   0.231   0.365   5.670  0.6025 -0.5698 -2.1291
  389MOL0     H53668   0.418   0.059   5.860  1.3034 -0.4958  0.4141
  389MOL0     H53669   0.517  -0.145   5.968  0.7866 -1.5416  1.9188
  389MOL0     H53670   0.494  -0.324   6.171 -1.1741 -0.2799 -0.0404
  389MOL0     H53671   0.322  -0.268   6.193 -1.3436 -0.7863  3.1620
  389MOL0     H53672   0.377  -0.445   6.350  0.6249 -0.0571  0.5944
  389MOL0     H53673   0.410  -0.558   6.217  1.4293  0.7779 -0.8421
  389MOL0     H53674   0.150  -0.435   6.299 -1.5904  2.9336 -3.6551
  389MOL0     H53675   0.175  -0.451   6.131 -0.4555  0.4833  0.9349
  389MOL0     H53676   0.166  -0.685   6.156  1.1992 -0.9101  0.8220
  389MOL0     H53677   0.047  -0.632   6.269 -0.7512  0.8263 -2.7852
  389MOL0     H53678   0.290  -0.806   6.552 -3.1867 -0.6412  0.5599
  389MOL0     H53679   0.129  -0.338   5.957 -1.7107  1.6552 -0.9475
  389MOL0     H53680  -0.042  -0.076   5.775  1.0338  1.7276 -1.1275
  389MOL0     H53681  -0.057  -0.227   5.877 -0.3070  0.8695 -1.6005
  389MOL0     H53682  -0.066  -0.071   5.956 -0.3386 -5.2977  3.5377
  390MOL0     O53683   6.249   1.093   5.634  0.0626  0.7060  0.2001
  390MOL0     C53684   6.286   0.980   5.658  0.5844 -1.1970  0.1927
  390MOL0     O53685   6.198   0.886   5.700  0.2201 -0.1860  0.8357
  390MOL0     C53686   6.246   0.771   5.764  0.1125 -0.1490  0.3040
  390MOL0     C53687   6.363   0.774   5.846  0.5953 -0.3404  0.5515
  390MOL0     C53688   6.388   0.659   5.927  0.3287 -0.4605  0.2039
  390MOL0     C53689   6.309   0.546   5.918 -0.1836  0.6865  1.1072
  390MOL0     O53690   6.325   0.434   5.994 -0.7589  0.9217 -0.6420
  390MOL0     C53691   6.403   0.444   6.119 -1.1701  0.1079 -0.6312
  390MOL0     C53692   6.399   0.323   6.213  0.0150  0.6058  0.5432
  390MOL0     C53693   6.268   0.292   6.272 -0.9750  0.3112  0.2678
  390MOL0     C53694   6.222   0.404   6.367  0.3729  0.2713 -0.2547
  390MOL0     C53695   6.109   0.354   6.459  0.6026 -0.6000 -0.7585
  390MOL0     C53696   5.976   0.309   6.388 -0.5517 -0.2460 -0.0749
  390MOL0     C53697   5.899   0.207   6.463  0.2539  0.4703  0.1434
  390MOL0     C53698   5.950   0.055   6.448  0.8926 -0.4351 -0.5856
  390MOL0     N53699   5.969   0.027   6.308 -0.0856  0.8169 -0.3530
  390MOL0     C53700   5.884   0.050   6.203 -0.0184  0.5831 -0.3351
  390MOL0     C53701   5.967   0.036   6.105  0.4393  1.1542  0.6415
  390MOL0     C53702   5.925   0.097   5.971 -0.1250  0.6474 -0.2031
  390MOL0     C53703   6.036   0.182   5.912 -0.2043  0.4877 -0.9214
  390MOL0     C53704   6.027   0.195   5.755 -0.5367 -0.5147 -0.0140
  390MOL0     C53705   6.107   0.092   5.674  1.6618  0.3115  0.8011
  390MOL0     O53706   6.053   0.075   5.547  0.1997  0.0342  0.3534
  390MOL0     C53707   6.073   0.176   5.451  0.4278 -0.4125  0.4055
  390MOL0     C53708   6.151   0.294   5.462  0.7783 -0.8858  0.0346
  390MOL0     C53709   6.139   0.397   5.351 -0.8450 -0.3944  0.0730
  390MOL0     C53710   6.231   0.521   5.374  0.6859  0.2310  0.3518
  390MOL0     C53711   6.059   0.373   5.237 -1.0833  0.2405 -0.1758
  390MOL0     C53712   6.047   0.462   5.109 -0.4767  0.4766  0.4969
  390MOL0     O53713   6.029   0.398   4.988  0.1261  0.5618  0.0128
  390MOL0     C53714   6.021   0.466   4.869 -0.6681 -0.9200 -1.2282
  390MOL0     C53715   6.141   0.504   4.803 -0.2766  0.0907  0.3981
  390MOL0     C53716   6.132   0.564   4.682  0.1378  0.0911  0.3337
  390MOL0     C53717   6.007   0.608   4.621  0.5319  0.2323 -0.3475
  390MOL0     O53718   6.000   0.656   4.492  0.6079 -0.2511  0.6009
  390MOL0     C53719   6.112   0.659   4.405 -0.0781 -0.8789 -0.4054
  390MOL0     C53720   6.075   0.727   4.260  0.8793  0.4506 -0.0348
  390MOL0     C53721   5.977   0.627   4.204  0.0520 -0.0544 -0.7945
  390MOL0     C53722   5.927   0.691   4.074  0.2878  0.6058  0.2354
  390MOL0     C53723   5.821   0.600   4.006  0.5686  0.3501 -0.5731
  390MOL0     C53724   5.749   0.657   3.889 -0.6946 -0.6786  0.9590
  390MOL0     C53725   5.683   0.800   3.906 -0.1956  0.9090  0.6376
  390MOL0     C53726   5.604   0.844   3.790 -0.3857 -0.6876 -0.0084
  390MOL0    Cl53727   5.463   0.744   3.758  0.0612  0.6233 -0.1033
  390MOL0     C53728   5.896   0.581   4.688 -0.2443 -0.2812 -0.1354
  390MOL0     C53729   5.897   0.507   4.811 -0.4422 -0.3325  0.9177
  390MOL0     O53730   6.051   0.583   5.121  0.6352 -0.2045  0.8833
  390MOL0     C53731   5.990   0.250   5.236  0.6150  0.8972  1.2524
  390MOL0     C53732   6.002   0.159   5.335  0.2252  0.4574  0.5298
  390MOL0     N53733   6.084  -0.028   6.138 -0.2461  0.3410 -0.0962
  390MOL0     N53734   6.080  -0.041   6.270 -0.1938  0.6814  0.0885
  390MOL0     C53735   6.203   0.544   5.836  0.5056 -0.5680  0.1997
  390MOL0     C53736   6.174   0.662   5.757  0.5484 -0.3682 -0.2564
  390MOL0     C53737   6.428   0.969   5.625 -0.2457 -0.2734  0.3138
  390MOL0     C53738   6.518   1.063   5.675 -0.2159 -1.0375 -0.2894
  390MOL0     C53739   6.659   1.066   5.649  0.0733 -0.2235  0.2300
  390MOL0     C53740   6.708   0.957   5.572 -0.8573 -0.2064 -0.3377
  390MOL0     O53741   6.848   0.969   5.548  0.3807 -1.7356 -1.2264
  390MOL0     C53742   6.903   0.887   5.441  0.0391  0.1614 -0.4171
  390MOL0     C53743   7.053   0.919   5.393  0.3392  0.2442 -0.1392
  390MOL0     C53744   7.142   0.995   5.502  1.0989  0.5158 -0.0678
  390MOL0     C53745   7.281   1.011   5.450  0.8017  0.1301 -0.9680
  390MOL0     C53746   7.345   0.881   5.428 -0.3483 -0.8672 -0.9064
  390MOL0     C53747   7.405   0.779   5.397  0.2716 -0.8677  0.1143
  390MOL0     C53748   6.625   0.860   5.533  0.6818 -0.1135 -0.4439
  390MOL0     C53749   6.484   0.872   5.546  0.4666 -0.0942 -0.2893
  390MOL0     C53750   6.394   0.767   5.474 -0.4654  0.2510  0.2761
  390MOL0     H53751   6.417   0.864   5.872 -0.3014  0.6449 -0.8597
  390MOL0     H53752   6.472   0.667   5.995 -1.0920 -2.5063  2.3922
  390MOL0     H53753   6.366   0.539   6.160 -1.6894  0.1181 -1.1043
  390MOL0     H53754   6.511   0.461   6.108 -0.9736 -0.7080 -0.0529
  390MOL0     H53755   6.436   0.233   6.163 -0.1446  0.0394  1.4054
  390MOL0     H53756   6.467   0.357   6.291 -1.6290  0.4466  2.1277
  390MOL0     H53757   6.202   0.275   6.186 -0.6372 -0.1463  0.0958
  390MOL0     H53758   6.265   0.199   6.330 -3.3253 -0.0876 -0.3622
  390MOL0     H53759   6.313   0.437   6.416  0.5817  1.1093 -1.1729
  390MOL0     H53760   6.179   0.484   6.306  0.3836 -0.1970 -0.8833
  390MOL0     H53761   6.082   0.431   6.532  0.5217  0.5311 -1.9404
  390MOL0     H53762   6.149   0.276   6.524 -2.6370 -0.4900  1.5895
  390MOL0     H53763   5.918   0.401   6.375  0.4965  0.6267  1.2499
  390MOL0     H53764   6.007   0.284   6.286  1.9218  0.9391  0.3223
  390MOL0     H53765   5.796   0.215   6.425  0.2943 -0.3596 -0.1586
  390MOL0     H53766   5.901   0.247   6.565  1.0957  2.2287 -0.5195
  390MOL0     H53767   6.042   0.051   6.507  0.1881  0.0410  0.5768
  390MOL0     H53768   5.881  -0.015   6.495 -0.9345  2.7318  1.8154
  390MOL0     H53769   5.788   0.101   6.202 -0.3688  0.2068  2.6326
  390MOL0     H53770   5.834   0.154   5.988  0.1366  0.1686  3.6939
  390MOL0     H53771   5.901   0.013   5.905 -0.0071 -0.6896  1.4065
  390MOL0     H53772   6.025   0.282   5.956 -0.4420  1.7566 -3.6144
  390MOL0     H53773   6.138   0.143   5.918 -1.1271 -2.1575 -1.1928
  390MOL0     H53774   5.921   0.181   5.731 -0.6915 -1.6272  1.2292
  390MOL0     H53775   6.065   0.293   5.725 -5.3895  1.6978  0.2456
  390MOL0     H53776   6.214   0.115   5.675  2.1635 -1.7914 -0.0235
  390MOL0     H53777   6.088  -0.004   5.723 -0.3198  0.6052  0.6711
  390MOL0     H53778   6.213   0.309   5.550  1.4933  2.1408 -0.8549
  390MOL0     H53779   6.328   0.484   5.408  0.8334  1.2869  1.1276
  390MOL0     H53780   6.174   0.577   5.449  1.0956  1.5515 -0.2884
  390MOL0     H53781   6.246   0.577   5.282 -1.6239 -0.9356 -0.8364
  390MOL0     H53782   6.239   0.473   4.837  1.0705  1.0008 -2.3055
  390MOL0     H53783   6.224   0.576   4.626 -1.1965  0.8187 -1.7872
  390MOL0     H53784   6.185   0.727   4.450 -1.6687  1.7674 -1.5916
  390MOL0     H53785   6.167   0.570   4.374  0.8005  0.4564 -3.0057
  390MOL0     H53786   6.032   0.826   4.278  0.8395  0.1339  1.8987
  390MOL0     H53787   6.158   0.737   4.190 -0.6464  1.0353 -1.8558
  390MOL0     H53788   5.893   0.607   4.272  0.7231  2.2306  0.8416
  390MOL0     H53789   6.023   0.531   4.178 -1.6259 -0.8194 -1.0771
  390MOL0     H53790   6.014   0.696   4.008 -0.2475  1.8708 -0.4283
  390MOL0     H53791   5.888   0.793   4.082  0.9116  0.9500 -0.8613
  390MOL0     H53792   5.844   0.494   3.990 -2.2260 -0.4404  0.0541
  390MOL0     H53793   5.742   0.583   4.079 -1.1841 -0.7766 -2.6077
  390MOL0     H53794   5.677   0.583   3.854 -3.6183  1.2651  2.4626
  390MOL0     H53795   5.823   0.664   3.808  0.1397 -0.9097  1.6857
  390MOL0     H53796   5.763   0.872   3.923  0.2356  1.4925 -3.1653
  390MOL0     H53797   5.616   0.801   3.993 -1.6196 -4.3808 -0.0768
  390MOL0     H53798   5.672   0.837   3.705 -1.2919  0.4601 -0.8590
  390MOL0     H53799   5.573   0.948   3.802  0.4299 -0.4106 -0.2204
  390MOL0     H53800   5.807   0.609   4.633 -0.7566  1.0806  1.3114
  390MOL0     H53801   5.810   0.476   4.868  2.0515 -3.2780  3.4830
  390MOL0     H53802   5.926   0.231   5.150  1.0554  3.7899  0.1675
  390MOL0     H53803   5.948   0.067   5.316  0.5722  0.5123 -0.8011
  390MOL0     H53804   6.134   0.460   5.829 -0.7982  0.2759  2.1589
  390MOL0     H53805   6.083   0.661   5.698  0.2553 -1.5554  0.1853
  390MOL0     H53806   6.489   1.135   5.752  2.0348  0.6836 -0.9196
  390MOL0     H53807   6.718   1.149   5.687 -1.8765  0.7311  1.3041
  390MOL0     H53808   6.905   0.786   5.484 -0.4885 -0.9406 -2.7902
  390MOL0     H53809   6.850   0.882   5.346 -0.0018  1.0739 -0.4457
  390MOL0     H53810   7.045   0.987   5.308  0.8509  1.4996  0.7695
  390MOL0     H53811   7.103   0.829   5.355 -1.8737 -0.4559 -1.5252
  390MOL0     H53812   7.109   1.096   5.526 -0.0255  0.1375  0.0471
  390MOL0     H53813   7.138   0.940   5.597  2.8173 -1.9042 -1.2890
  390MOL0     H53814   7.337   1.075   5.519  0.1058  0.5488 -0.7888
  390MOL0     H53815   7.284   1.066   5.355  0.5248  1.1998 -0.3647
  390MOL0     H53816   7.456   0.696   5.353  0.8863  0.0300 -0.9130
  390MOL0     H53817   6.669   0.777   5.479 -2.2707 -0.0039 -3.2916
  390MOL0     H53818   6.453   0.716   5.398  0.7566  1.8685  0.0946
  390MOL0     H53819   6.351   0.698   5.546 -1.7916 -0.8126 -1.4330
  390MOL0     H53820   6.309   0.816   5.424 -2.1099  0.4230  3.0725
  391MOL0     O53821   2.347   6.265   5.058  0.5465  0.0167  0.1819
  391MOL0     C53822   2.428   6.332   5.120 -1.0603 -0.7488 -0.6549
  391MOL0     O53823   2.483   6.450   5.089 -0.4809  0.8805  0.0415
  391MOL0     C53824   2.423   6.531   4.996  0.5732  0.7979  0.5901
  391MOL0     C53825   2.319   6.610   5.035 -1.0700 -1.0359 -0.0937
  391MOL0     C53826   2.254   6.696   4.940  0.3744  0.2524 -0.6774
  391MOL0     C53827   2.293   6.695   4.805 -0.2552 -1.0048  0.4774
  391MOL0     O53828   2.208   6.781   4.731 -0.8067  0.2421 -0.0294
  391MOL0     C53829   2.210   6.784   4.588 -0.3928  0.3151  0.4408
  391MOL0     C53830   2.306   6.899   4.540 -0.0306  0.2229 -0.8059
  391MOL0     C53831   2.286   6.948   4.395 -0.6385 -0.9980 -0.0864
  391MOL0     C53832   2.273   6.848   4.282  0.3130 -0.3344  0.5581
  391MOL0     C53833   2.235   6.922   4.153 -0.4462  0.7778  0.1006
  391MOL0     C53834   2.297   6.834   4.034  0.2277  0.7129 -0.0355
  391MOL0     C53835   2.221   6.867   3.906 -0.2688 -0.2039  0.6504
  391MOL0     C53836   2.287   6.998   3.851 -0.3779  0.4586  0.7791
  391MOL0     N53837   2.324   6.975   3.712  0.3532  0.0305 -0.7732
  391MOL0     C53838   2.240   7.013   3.605 -0.0567 -0.3680  0.5293
  391MOL0     C53839   2.299   6.949   3.491 -0.3174 -1.0157  0.0068
  391MOL0     C53840   2.243   6.934   3.354  0.5556  0.3840  0.4429
  391MOL0     C53841   2.349   6.979   3.249  0.6859  0.1217 -0.1204
  391MOL0     C53842   2.310   6.911   3.115  0.1379  0.2105  1.1011
  391MOL0     C53843   2.363   6.981   2.979  0.1022 -0.9255  0.6638
  391MOL0     O53844   2.507   6.971   2.979 -0.4503  0.1661  0.2986
  391MOL0     C53845   2.562   6.861   2.901  0.3227  0.1804  0.3671
  391MOL0     C53846   2.704   6.860   2.895  0.1336  0.3771  0.0393
  391MOL0     C53847   2.781   6.750   2.853  0.9282  0.7215  0.5313
  391MOL0     C53848   2.929   6.765   2.860  0.0398  0.3818  0.3986
  391MOL0     C53849   2.709   6.634   2.799  0.1591  0.1864  0.1816
  391MOL0     C53850   2.778   6.502   2.758 -0.2890  0.1753  0.0834
  391MOL0     O53851   2.702   6.416   2.676  0.5824 -0.6620  0.0125
  391MOL0     C53852   2.764   6.319   2.602 -0.2063 -0.1619  0.1638
  391MOL0     C53853   2.840   6.224   2.659  0.1541 -0.5152  0.6742
  391MOL0     C53854   2.906   6.125   2.583 -0.0259 -0.4553  0.2743
  391MOL0     C53855   2.876   6.113   2.446  0.2330 -0.5192  0.1873
  391MOL0     O53856   2.925   6.016   2.369 -0.2723 -0.6673 -0.0729
  391MOL0     C53857   3.067   5.992   2.371  0.6417  0.5443 -0.1067
  391MOL0     C53858   3.139   6.098   2.295 -0.3476  0.3449  0.1781
  391MOL0     C53859   3.093   6.153   2.156 -0.3470 -1.2410  0.3601
  391MOL0     C53860   3.192   6.255   2.100  0.1326  0.3156  0.1340
  391MOL0     C53861   3.205   6.248   1.951  0.7936  0.3170  0.3606
  391MOL0     C53862   3.091   6.313   1.876 -1.3153  0.5188  0.8795
  391MOL0     C53863   3.115   6.315   1.727 -0.0344 -0.2802  0.4971
  391MOL0     C53864   3.025   6.426   1.660  0.3273 -0.2878  0.1926
  391MOL0    Cl53865   2.843   6.405   1.692 -0.2676 -0.0614  0.1076
  391MOL0     C53866   2.789   6.207   2.389 -0.4822  0.0880 -0.9570
  391MOL0     C53867   2.733   6.310   2.464  0.3786  1.1803  0.6395
  391MOL0     O53868   2.892   6.476   2.795  0.0766 -0.0402 -0.1265
  391MOL0     C53869   2.571   6.632   2.803  0.5792 -0.6325 -0.1655
  391MOL0     C53870   2.497   6.744   2.856  0.0892  0.1660  0.2198
  391MOL0     N53871   2.422   6.911   3.531  0.0498  0.1685  0.3626
  391MOL0     N53872   2.431   6.907   3.657 -0.3100  0.2110 -0.2197
  391MOL0     C53873   2.400   6.613   4.769  0.6889 -0.2029 -0.0109
  391MOL0     C53874   2.461   6.536   4.863 -0.0501  0.5958 -0.3596
  391MOL0     C53875   2.496   6.258   5.236 -0.9966 -0.2893 -0.3212
  391MOL0     C53876   2.582   6.152   5.201  0.0558  0.1966  1.0140
  391MOL0     C53877   2.668   6.094   5.298 -0.3395  0.0826 -0.2643
  391MOL0     C53878   2.653   6.124   5.429  0.3579 -0.2623  0.1387
  391MOL0     O53879   2.699   6.052   5.530  0.1018 -1.1393 -1.0563
  391MOL0     C53880   2.651   5.914   5.547 -0.4149  0.7365  0.0497
  391MOL0     C53881   2.503   5.926   5.616  0.4875  0.6152  0.6361
  391MOL0     C53882   2.398   5.932   5.502 -0.3416 -0.8142 -0.7528
  391MOL0     C53883   2.252   5.926   5.537  0.2035  0.8739  0.1747
  391MOL0     C53884   2.200   5.801   5.597 -0.3766 -1.0033 -0.5267
  391MOL0     C53885   2.148   5.703   5.651 -0.8470  0.3433  0.0922
  391MOL0     C53886   2.578   6.231   5.466 -0.3631  0.2022  0.8379
  391MOL0     C53887   2.502   6.306   5.375 -0.5303  0.5466 -0.3064
  391MOL0     C53888   2.424   6.428   5.421  0.0044 -0.8494 -0.2976
  391MOL0     H53889   2.288   6.617   5.139  1.8759 -1.1056  0.9005
  391MOL0     H53890   2.175   6.761   4.974 -1.2749 -2.0198  0.1027
  391MOL0     H53891   2.109   6.786   4.547 -0.4301 -1.3243  0.4006
  391MOL0     H53892   2.239   6.685   4.550  1.5440  0.9453  0.1652
  391MOL0     H53893   2.298   6.985   4.607  2.1113  0.6818 -1.0585
  391MOL0     H53894   2.412   6.871   4.539 -0.4505 -1.6269 -3.2824
  391MOL0     H53895   2.185   6.988   4.412  0.6744  2.0808  1.1690
  391MOL0     H53896   2.352   7.030   4.366 -0.2121 -1.4704 -0.4581
  391MOL0     H53897   2.369   6.798   4.268  0.6388  0.1093  1.1345
  391MOL0     H53898   2.198   6.771   4.303 -0.3120 -0.6882 -2.5177
  391MOL0     H53899   2.287   7.018   4.147 -0.0044  0.4333 -3.4816
  391MOL0     H53900   2.127   6.936   4.148 -0.3524  2.0176  1.0648
  391MOL0     H53901   2.404   6.845   4.016  0.1570 -1.9490 -2.8684
  391MOL0     H53902   2.284   6.726   4.039  0.2224  0.6562 -1.0740
  391MOL0     H53903   2.113   6.877   3.923 -0.3874  0.2888 -0.3378
  391MOL0     H53904   2.232   6.785   3.834 -1.3315  0.3777 -0.2049
  391MOL0     H53905   2.209   7.075   3.858  0.2655  1.3448 -1.1439
  391MOL0     H53906   2.379   7.029   3.902  0.6128  1.9268 -1.7152
  391MOL0     H53907   2.145   7.067   3.610 -0.3132 -0.9052  2.5078
  391MOL0     H53908   2.144   6.980   3.350  0.3426 -0.1443 -1.0871
  391MOL0     H53909   2.224   6.827   3.339 -0.3490  0.5598  0.2695
  391MOL0     H53910   2.356   7.087   3.234 -1.4500  0.1321 -1.3744
  391MOL0     H53911   2.444   6.929   3.272 -0.7866 -3.0957 -0.5615
  391MOL0     H53912   2.329   6.804   3.118  0.1545  0.2443  2.7200
  391MOL0     H53913   2.202   6.923   3.097  0.6399  1.5471 -1.7611
  391MOL0     H53914   2.318   6.935   2.891  0.4048  0.1260 -0.0682
  391MOL0     H53915   2.333   7.086   2.983  0.6348 -0.7924  1.9419
  391MOL0     H53916   2.754   6.943   2.944 -0.9025  0.6574  0.6479
  391MOL0     H53917   2.950   6.840   2.937 -1.0069  0.9225  0.1703
  391MOL0     H53918   2.970   6.805   2.766 -1.8025  2.5304  0.4308
  391MOL0     H53919   2.988   6.675   2.881 -1.1063 -1.0237 -2.0152
  391MOL0     H53920   2.857   6.240   2.765  2.0848  1.1448  0.1811
  391MOL0     H53921   2.978   6.064   2.637  0.1737 -0.3573  0.1247
  391MOL0     H53922   3.110   5.981   2.471 -0.1743 -0.6512  0.1294
  391MOL0     H53923   3.080   5.896   2.320 -1.1025  0.3888 -0.3137
  391MOL0     H53924   3.151   6.180   2.366 -0.2004  0.4294  0.0560
  391MOL0     H53925   3.240   6.054   2.292 -0.7428 -0.7487  1.6692
  391MOL0     H53926   2.993   6.196   2.165 -0.7291 -2.3900  2.2921
  391MOL0     H53927   3.089   6.071   2.084 -0.8076  2.0221 -3.6586
  391MOL0     H53928   3.289   6.235   2.147 -1.4114 -2.7100  2.3271
  391MOL0     H53929   3.166   6.359   2.123  1.1755  0.5360  0.4043
  391MOL0     H53930   3.294   6.308   1.931 -0.4128  2.4048  0.9553
  391MOL0     H53931   3.218   6.150   1.904 -0.5252  0.9990 -1.5388
  391MOL0     H53932   3.072   6.418   1.901  1.4341  1.9599 -2.2938
  391MOL0     H53933   2.996   6.264   1.898 -0.7134 -0.8872  0.4296
  391MOL0     H53934   3.088   6.221   1.678 -1.8336  0.3873  0.1297
  391MOL0     H53935   3.222   6.339   1.727 -0.3652  1.4492  2.1025
  391MOL0     H53936   3.033   6.414   1.551  1.9044  2.3566 -0.0972
  391MOL0     H53937   3.055   6.522   1.703 -1.9889 -0.0808  1.4681
  391MOL0     H53938   2.766   6.210   2.283  0.2675 -1.8321 -1.2145
  391MOL0     H53939   2.659   6.371   2.414 -0.3606 -2.1399 -2.7796
  391MOL0     H53940   2.510   6.548   2.772  1.0185 -0.5308 -1.3857
  391MOL0     H53941   2.391   6.731   2.878  0.4063  0.5449  2.1305
  391MOL0     H53942   2.421   6.610   4.663  0.7665 -1.5237  0.0319
  391MOL0     H53943   2.541   6.472   4.828  0.1392  2.1206 -2.9229
  391MOL0     H53944   2.590   6.110   5.101 -0.2029 -1.5192  1.6803
  391MOL0     H53945   2.731   6.007   5.286  1.2370  1.1331  0.0308
  391MOL0     H53946   2.648   5.872   5.446 -2.8409  1.5553 -0.2810
  391MOL0     H53947   2.713   5.852   5.613 -0.0767 -1.5930 -2.2954
  391MOL0     H53948   2.500   6.011   5.684  1.5060 -0.0691  1.5794
  391MOL0     H53949   2.488   5.834   5.674  0.9164 -0.4085 -0.8068
  391MOL0     H53950   2.418   6.023   5.444  2.8281  1.2157  2.9547
  391MOL0     H53951   2.412   5.850   5.431 -0.1954 -1.1171 -0.3804
  391MOL0     H53952   2.190   5.945   5.448 -0.9850 -1.6950  0.3633
  391MOL0     H53953   2.244   6.011   5.605 -4.3426  1.3742 -0.6590
  391MOL0     H53954   2.094   5.635   5.714  0.4382 -2.0719 -1.2704
  391MOL0     H53955   2.578   6.256   5.572 -2.0117 -2.8793  1.6707
  391MOL0     H53956   2.487   6.468   5.501 -1.4836 -1.8082  1.4058
  391MOL0     H53957   2.403   6.502   5.343 -1.9426 -1.3606 -0.3049
  391MOL0     H53958   2.331   6.397   5.469  1.7373 -1.3980  3.0397
  392MOL0     O53959   5.060  10.698   5.656  0.0564 -0.0942 -0.5418
  392MOL0     C53960   5.173  10.658   5.644 -0.0899  0.5933 -0.3855
  392MOL0     O53961   5.281  10.738   5.625 -0.1680  0.1511  0.5704
  392MOL0     C53962   5.274  10.873   5.596 -0.5123 -0.3010 -0.6281
  392MOL0     C53963   5.391  10.924   5.550 -0.5751 -0.6472  0.7652
  392MOL0     C53964   5.399  11.053   5.510  0.7922  0.0477 -0.3810
  392MOL0     C53965   5.293  11.143   5.528  0.0144 -0.0998  0.3006
  392MOL0     O53966   5.317  11.273   5.483  0.9804  0.2687 -1.1739
  392MOL0     C53967   5.202  11.362   5.473 -0.6842 -0.2008 -0.6017
  392MOL0     C53968   5.147  11.374   5.331 -0.8093 -1.2147  0.1823
  392MOL0     C53969   5.077  11.504   5.295  0.4393  0.0712 -1.0278
  392MOL0     C53970   5.002  11.496   5.158 -0.4858 -0.2081 -0.3190
  392MOL0     C53971   4.973  11.641   5.117 -0.0238 -0.7772 -0.6677
  392MOL0     C53972   4.875  11.723   5.212  0.8631  0.0235  0.1563
  392MOL0     C53973   4.838  11.867   5.157  0.2574  1.1765 -1.0283
  392MOL0     C53974   4.733  11.946   5.235 -0.2669 -0.6232  0.4570
  392MOL0     N53975   4.777  11.951   5.370 -0.4307  0.0620  0.4638
  392MOL0     C53976   4.906  11.973   5.412 -1.1264 -0.2516  0.2715
  392MOL0     C53977   4.896  11.952   5.547  0.0283  0.0140 -0.2297
  392MOL0     C53978   5.028  11.944   5.621 -0.2587 -0.3352 -0.2868
  392MOL0     C53979   5.033  12.043   5.737  0.1849 -0.0160  0.3864
  392MOL0     C53980   4.991  12.183   5.696  0.1402 -0.9982 -1.4357
  392MOL0     C53981   5.040  12.291   5.795  0.2762 -0.2748 -0.5043
  392MOL0     O53982   5.179  12.306   5.805  0.2238 -0.0726  0.7683
  392MOL0     C53983   5.235  12.434   5.829 -0.3965 -0.3463  0.1088
  392MOL0     C53984   5.182  12.526   5.922  0.2989  0.4913  0.0754
  392MOL0     C53985   5.262  12.643   5.952  0.3075 -0.1428 -0.1803
  392MOL0     C53986   5.198  12.736   6.046  0.0349  0.1065 -0.9310
  392MOL0     C53987   5.390  12.665   5.891  0.6099  0.5630 -1.0135
  392MOL0     C53988   5.475  12.785   5.911  0.2373  0.2971  0.8908
  392MOL0     O53989   5.605  12.779   5.862 -0.1146  0.0189  0.7958
  392MOL0     C53990   5.687  12.887   5.861 -0.1654  0.5209  0.6008
  392MOL0     C53991   5.662  12.987   5.765  0.4176  0.0636  0.6780
  392MOL0     C53992   5.744  13.092   5.744 -0.5993 -0.2332  0.1758
  392MOL0     C53993   5.852  13.111   5.823 -0.1368  0.6314 -0.8873
  392MOL0     O53994   5.933  13.218   5.799  0.3170 -0.0952  0.1840
  392MOL0     C53995   6.062  13.200   5.742  0.6335  0.0828  0.7605
  392MOL0     C53996   6.042  13.203   5.584  0.1042  0.5546 -0.5302
  392MOL0     C53997   6.167  13.190   5.499  0.0383  0.4996  0.1125
  392MOL0     C53998   6.248  13.318   5.498  0.2825  0.0099  0.8163
  392MOL0     C53999   6.359  13.298   5.398 -0.9943  0.2749  0.4543
  392MOL0     C54000   6.456  13.417   5.395  0.1318  0.6140  0.1121
  392MOL0     C54001   6.552  13.424   5.511 -1.3934 -0.5629 -0.9273
  392MOL0     C54002   6.638  13.555   5.487  0.8955  0.3878 -0.5853
  392MOL0    Cl54003   6.776  13.523   5.379 -0.2163  0.0529  0.0101
  392MOL0     C54004   5.882  13.013   5.931  0.3624 -0.9589 -0.2104
  392MOL0     C54005   5.800  12.896   5.935  0.4901 -1.1755 -1.0001
  392MOL0     O54006   5.428  12.888   5.961 -0.0368  0.0710  0.3370
  392MOL0     C54007   5.448  12.561   5.817  0.6498 -1.1250 -1.3941
  392MOL0     C54008   5.361  12.456   5.779 -0.5775 -0.2970 -0.1779
  392MOL0     N54009   4.765  11.945   5.586  0.2802 -0.3535 -0.5595
  392MOL0     N54010   4.694  11.935   5.475 -0.9835 -0.6607  0.5678
  392MOL0     C54011   5.176  11.094   5.586  0.3828 -0.2507  1.0231
  392MOL0     C54012   5.166  10.959   5.618  0.1039 -0.6644  0.8751
  392MOL0     C54013   5.184  10.520   5.662 -0.5782 -0.1015  0.8194
  392MOL0     C54014   5.301  10.473   5.726  0.1073  0.0870  0.7587
  392MOL0     C54015   5.324  10.338   5.747  0.8472 -0.7453 -0.8741
  392MOL0     C54016   5.221  10.249   5.717 -0.6491  0.0470 -0.9614
  392MOL0     O54017   5.221  10.114   5.747  0.3718  0.0552  0.2717
  392MOL0     C54018   5.302  10.077   5.863 -0.4353 -0.3754  0.6070
  392MOL0     C54019   5.399   9.967   5.839 -0.3680  0.4472 -0.3449
  392MOL0     C54020   5.518  10.023   5.754 -0.5967 -0.7159 -1.0741
  392MOL0     C54021   5.618  10.128   5.810 -0.8976  0.0677 -0.1787
  392MOL0     C54022   5.711  10.088   5.912 -0.0257 -0.9139  0.8947
  392MOL0     C54023   5.783  10.047   6.001  0.7915 -0.3047 -0.0226
  392MOL0     C54024   5.099  10.291   5.665 -0.3488  0.0939  0.9467
  392MOL0     C54025   5.081  10.427   5.621 -0.4095  0.4849  0.5522
  392MOL0     C54026   4.951  10.454   5.564 -0.6632 -0.0163 -0.0632
  392MOL0     H54027   5.468  10.850   5.529  1.4370  0.9495  2.1366
  392MOL0     H54028   5.493  11.093   5.472  1.6906 -0.2504  1.4115
  392MOL0     H54029   5.249  11.454   5.507  0.9759 -1.4615  0.6919
  392MOL0     H54030   5.116  11.348   5.540 -0.3387  1.5829  0.2637
  392MOL0     H54031   5.233  11.361   5.264  1.5640  1.7122  2.3805
  392MOL0     H54032   5.076  11.293   5.317 -1.7334 -0.5260  0.7579
  392MOL0     H54033   4.995  11.524   5.366 -0.6695 -1.4198 -1.8500
  392MOL0     H54034   5.155  11.581   5.294  2.5786 -1.9936 -1.0702
  392MOL0     H54035   5.058  11.458   5.072 -0.3289  1.2857 -0.8905
  392MOL0     H54036   4.906  11.448   5.180  0.1752 -1.6732 -0.4976
  392MOL0     H54037   4.923  11.640   5.019 -0.5463  1.6860 -0.4757
  392MOL0     H54038   5.062  11.704   5.105 -1.1723  1.6113  2.1526
  392MOL0     H54039   4.777  11.675   5.222  0.3154  1.1931  0.5154
  392MOL0     H54040   4.921  11.722   5.311  1.2562 -2.7733  0.0385
  392MOL0     H54041   4.810  11.863   5.051 -2.7383  1.7364 -0.3507
  392MOL0     H54042   4.931  11.926   5.154  1.9543 -1.1993  0.9243
  392MOL0     H54043   4.739  12.040   5.179 -1.0507 -2.2686 -2.6054
  392MOL0     H54044   4.632  11.910   5.213 -0.2551  0.3229 -1.3565
  392MOL0     H54045   5.001  11.985   5.362  0.9925  1.7158  4.2760
  392MOL0     H54046   5.110  11.967   5.553 -0.0472 -2.3751 -0.7719
  392MOL0     H54047   5.040  11.843   5.660  1.7672  0.6893  2.0381
  392MOL0     H54048   4.960  12.009   5.812  0.1213  4.1165  2.5001
  392MOL0     H54049   5.131  12.030   5.783 -0.6580  1.5514  2.8447
  392MOL0     H54050   5.034  12.209   5.599 -1.5092  3.0753 -1.2619
  392MOL0     H54051   4.885  12.194   5.671 -0.0331 -0.1691 -0.4069
  392MOL0     H54052   4.985  12.384   5.779  0.1267 -0.3168 -0.2517
  392MOL0     H54053   5.009  12.259   5.895  4.4513 -1.7446  0.5006
  392MOL0     H54054   5.085  12.520   5.969  1.0027  0.1354  1.5621
  392MOL0     H54055   5.270  12.781   6.114 -1.8064  0.2015  1.0571
  392MOL0     H54056   5.116  12.690   6.103 -0.5621 -1.7272 -3.1265
  392MOL0     H54057   5.150  12.820   5.995 -0.9611  0.6523  0.8123
  392MOL0     H54058   5.575  12.971   5.702 -0.7881 -2.5371  2.7916
  392MOL0     H54059   5.718  13.157   5.661 -0.2195 -0.4308 -0.1003
  392MOL0     H54060   6.132  13.280   5.769 -0.2093  1.2269 -0.3305
  392MOL0     H54061   6.101  13.098   5.755 -2.2604 -1.3991 -1.1171
  392MOL0     H54062   5.984  13.114   5.559 -1.3407  1.1304  0.6210
  392MOL0     H54063   5.991  13.297   5.559 -1.8443 -0.6389 -1.1735
  392MOL0     H54064   6.150  13.157   5.396  2.6824 -1.3131  0.1402
  392MOL0     H54065   6.232  13.112   5.540 -0.9092 -2.4342 -3.4369
  392MOL0     H54066   6.270  13.362   5.595 -1.0231  2.5319  0.0600
  392MOL0     H54067   6.185  13.396   5.453 -1.8393 -0.6874  2.4326
  392MOL0     H54068   6.407  13.203   5.424  1.6853  0.5794 -2.7376
  392MOL0     H54069   6.316  13.282   5.299 -0.1686 -2.6213  0.4596
  392MOL0     H54070   6.401  13.512   5.402  0.7802  1.4182 -3.6816
  392MOL0     H54071   6.509  13.409   5.300 -0.9999 -2.0039 -0.3832
  392MOL0     H54072   6.622  13.341   5.498 -2.2591 -1.0407 -3.0135
  392MOL0     H54073   6.501  13.424   5.608 -1.1540  0.4790 -0.7868
  392MOL0     H54074   6.668  13.593   5.585 -1.1389  3.2437 -0.9494
  392MOL0     H54075   6.577  13.633   5.442  1.1142  2.4683  2.4309
  392MOL0     H54076   5.961  13.018   6.005  0.0107 -2.4100  0.3035
  392MOL0     H54077   5.815  12.811   6.000 -1.7814 -0.7134  0.2118
  392MOL0     H54078   5.547  12.560   5.773  0.0396  1.5980 -3.0645
  392MOL0     H54079   5.407  12.382   5.714  3.2746  0.3707  1.4743
  392MOL0     H54080   5.085  11.150   5.605  0.1972 -0.8558  2.0075
  392MOL0     H54081   5.069  10.919   5.645  0.0958 -0.4144  1.2249
  392MOL0     H54082   5.379  10.546   5.742 -0.0269  0.2795  0.5373
  392MOL0     H54083   5.409  10.316   5.811  0.5955 -1.3369 -0.7437
  392MOL0     H54084   5.342  10.169   5.907  1.3165 -0.1523 -1.2577
  392MOL0     H54085   5.235  10.037   5.939 -1.4464 -0.3969 -0.2740
  392MOL0     H54086   5.350   9.886   5.784  1.0706 -0.4662 -0.3251
  392MOL0     H54087   5.432   9.919   5.931  1.6677 -2.3084 -2.3133
  392MOL0     H54088   5.577   9.939   5.716  0.2112  0.0609 -1.5765
  392MOL0     H54089   5.481  10.072   5.663  0.4119  1.5624 -0.3277
  392MOL0     H54090   5.562  10.202   5.867 -1.6491 -2.6964  2.9426
  392MOL0     H54091   5.671  10.178   5.728  0.7719 -0.2527  0.6431
  392MOL0     H54092   5.853  10.003   6.069  2.7388  3.0875  0.4084
  392MOL0     H54093   5.028  10.213   5.639  0.2182 -0.6211  1.5015
  392MOL0     H54094   4.945  10.516   5.474 -2.0994  0.0612  0.0504
  392MOL0     H54095   4.925  10.363   5.510  2.0991  0.6783 -2.9245
  392MOL0     H54096   4.890  10.492   5.647  1.7812  2.5469  0.7205
  393MOL0     O54097   8.359   4.659   1.630  0.0311  0.3272  0.7589
  393MOL0     C54098   8.432   4.719   1.709 -0.9181 -0.1071  0.3447
  393MOL0     O54099   8.390   4.811   1.799  0.1771  0.8853  0.0064
  393MOL0     C54100   8.254   4.828   1.798 -0.3990 -0.1707 -0.8172
  393MOL0     C54101   8.189   4.895   1.692  0.2643 -1.1186  0.5038
  393MOL0     C54102   8.051   4.908   1.689  0.4882 -0.4383  0.7197
  393MOL0     C54103   7.972   4.857   1.796  0.9768 -0.8375 -0.3495
  393MOL0     O54104   7.835   4.897   1.814 -0.6119  0.1686 -0.1102
  393MOL0     C54105   7.745   4.826   1.908 -1.4079  0.6868 -0.2860
  393MOL0     C54106   7.617   4.882   1.875  0.3156 -0.9905 -0.4647
  393MOL0     C54107   7.602   5.023   1.914 -0.8972 -0.6084  0.1472
  393MOL0     C54108   7.476   5.098   1.860  0.6976 -0.4402  0.1900
  393MOL0     C54109   7.448   5.233   1.937  0.7766  0.1212  0.6022
  393MOL0     C54110   7.339   5.319   1.861  0.4652  0.3053  0.7073
  393MOL0     C54111   7.360   5.476   1.862  0.0223  0.0711 -0.0597
  393MOL0     C54112   7.283   5.544   1.751 -0.1572 -0.1639  0.5291
  393MOL0     N54113   7.146   5.501   1.751 -0.2092 -0.0751  0.1472
  393MOL0     C54114   7.069   5.500   1.632 -0.5001  0.5168  0.1884
  393MOL0     C54115   6.948   5.442   1.667 -0.1127  0.3717 -0.5621
  393MOL0     C54116   6.843   5.405   1.567 -0.1127  0.0563 -0.3641
  393MOL0     C54117   6.794   5.535   1.490  0.2246 -0.7047  0.7514
  393MOL0     C54118   6.735   5.640   1.577 -0.3959 -0.9528 -0.2318
  393MOL0     C54119   6.696   5.766   1.503  0.1535  1.2211 -0.3012
  393MOL0     O54120   6.594   5.733   1.412  0.5621  0.0871  0.8274
  393MOL0     C54121   6.562   5.822   1.309 -0.0874  0.4662 -0.6279
  393MOL0     C54122   6.639   5.927   1.266  0.6846 -0.4353  0.8293
  393MOL0     C54123   6.591   6.016   1.169 -0.1710  0.2948  1.1491
  393MOL0     C54124   6.679   6.142   1.150 -0.3453  0.4065  0.2378
  393MOL0     C54125   6.473   5.983   1.096 -0.2888 -0.0171 -0.4654
  393MOL0     C54126   6.413   6.064   0.984 -0.3534  0.8128  0.0736
  393MOL0     O54127   6.357   5.994   0.889  0.2204 -0.3083  0.0422
  393MOL0     C54128   6.302   6.052   0.782  0.3257  0.1331 -0.2880
  393MOL0     C54129   6.382   6.111   0.688 -0.6116 -0.5789  0.1221
  393MOL0     C54130   6.331   6.171   0.579 -0.5529  0.0037 -0.3953
  393MOL0     C54131   6.189   6.182   0.562 -0.5794  0.6344 -0.2173
  393MOL0     O54132   6.125   6.262   0.463 -0.3997  0.5288 -0.0934
  393MOL0     C54133   6.190   6.370   0.401 -0.4772  0.4740  0.2218
  393MOL0     C54134   6.275   6.337   0.268 -0.0866 -0.5338  1.1436
  393MOL0     C54135   6.349   6.464   0.221 -0.2062 -0.0513 -0.4199
  393MOL0     C54136   6.477   6.441   0.146 -0.3277 -0.3113  0.5745
  393MOL0     C54137   6.565   6.565   0.107 -0.3185 -0.9632 -0.2381
  393MOL0     C54138   6.703   6.533   0.043 -0.5654 -0.2063  0.7156
  393MOL0     C54139   6.666   6.481  -0.092  0.1369 -1.1847 -0.8690
  393MOL0     C54140   6.785   6.455  -0.177 -0.8374 -0.3569  0.4642
  393MOL0    Cl54141   6.910   6.577  -0.169  0.6294 -0.4684  0.1184
  393MOL0     C54142   6.108   6.124   0.664 -0.2324  0.0900  0.1611
  393MOL0     C54143   6.164   6.051   0.769 -0.5169 -1.2023  0.5230
  393MOL0     O54144   6.439   6.182   0.986  0.4151 -0.0272 -0.1348
  393MOL0     C54145   6.400   5.868   1.139  0.1863  0.6646  0.1577
  393MOL0     C54146   6.448   5.793   1.241  0.6459  0.1598 -0.1846
  393MOL0     N54147   6.953   5.416   1.802 -0.3866 -0.6393 -0.9296
  393MOL0     N54148   7.064   5.454   1.855  0.5964  0.3006  0.3084
  393MOL0     C54149   8.041   4.800   1.904  0.3589  0.5023 -0.5169
  393MOL0     C54150   8.181   4.770   1.900 -0.6661  0.0748  0.4978
  393MOL0     C54151   8.581   4.702   1.700 -0.5550  1.2107 -0.8687
  393MOL0     C54152   8.666   4.807   1.744 -0.6422  0.1885  1.0523
  393MOL0     C54153   8.800   4.788   1.750 -0.8011  0.1418  0.4167
  393MOL0     C54154   8.865   4.672   1.705 -0.1921 -0.0743  0.6984
  393MOL0     O54155   8.998   4.654   1.697 -0.1757  0.4292  0.5335
  393MOL0     C54156   9.051   4.531   1.755 -0.0620 -0.3666  0.7259
  393MOL0     C54157   9.205   4.552   1.738  0.0020  0.4215 -1.1820
  393MOL0     C54158   9.274   4.416   1.732  0.0916 -0.0924  0.9367
  393MOL0     C54159   9.261   4.369   1.594 -0.3960 -0.0154  0.2353
  393MOL0     C54160   9.283   4.229   1.603 -0.0228 -0.4247 -0.0614
  393MOL0     C54161   9.286   4.113   1.617  1.3712  1.1878  0.4290
  393MOL0     C54162   8.782   4.574   1.653 -0.1271 -0.1026 -0.6958
  393MOL0     C54163   8.640   4.593   1.639 -0.0210  0.1188 -0.2179
  393MOL0     C54164   8.574   4.478   1.574 -1.4600  0.2822 -0.7508
  393MOL0     H54165   8.243   4.938   1.608 -1.1751  3.9887  1.7913
  393MOL0     H54166   7.992   4.954   1.612 -1.4828 -2.9467  0.6083
  393MOL0     H54167   7.780   4.852   2.008 -0.4675 -0.7725 -0.2046
  393MOL0     H54168   7.748   4.717   1.898  4.6491  0.6770 -2.4451
  393MOL0     H54169   7.580   4.881   1.772 -0.3128  1.2724 -0.3202
  393MOL0     H54170   7.548   4.827   1.941  1.4060 -0.3186  1.3071
  393MOL0     H54171   7.593   5.017   2.023 -2.0353 -3.5120 -0.0296
  393MOL0     H54172   7.689   5.083   1.885 -0.0364 -0.7116  2.3500
  393MOL0     H54173   7.488   5.122   1.754  3.4975 -0.1987  0.4828
  393MOL0     H54174   7.384   5.040   1.877  0.8683 -0.1530  2.2613
  393MOL0     H54175   7.541   5.288   1.950  0.9163  0.0279  0.0174
  393MOL0     H54176   7.413   5.216   2.040  1.0866 -0.5751  0.5999
  393MOL0     H54177   7.344   5.283   1.758  0.7661  0.3506  0.7064
  393MOL0     H54178   7.249   5.275   1.905  2.0073 -0.3973  3.3897
  393MOL0     H54179   7.464   5.508   1.854 -0.4627  2.8461  2.9476
  393MOL0     H54180   7.321   5.508   1.959 -0.7315 -1.8905  0.3226
  393MOL0     H54181   7.267   5.650   1.777 -1.2793 -0.8328  2.9286
  393MOL0     H54182   7.332   5.534   1.654 -2.6892 -2.5390 -0.6560
  393MOL0     H54183   7.098   5.532   1.532  0.6320  0.8987  0.6246
  393MOL0     H54184   6.758   5.364   1.623  2.2323  0.3529  3.7687
  393MOL0     H54185   6.885   5.336   1.494 -1.8465 -1.2430 -0.2056
  393MOL0     H54186   6.868   5.591   1.432 -1.5076  0.4604 -0.4310
  393MOL0     H54187   6.724   5.505   1.411  1.1144  0.3769 -0.4878
  393MOL0     H54188   6.646   5.598   1.623 -0.9912 -0.7568 -1.1876
  393MOL0     H54189   6.802   5.675   1.657  0.7140 -0.0889 -1.4903
  393MOL0     H54190   6.656   5.830   1.583 -0.4019  0.5104 -0.0120
  393MOL0     H54191   6.794   5.796   1.463  0.6825  0.5276  0.4321
  393MOL0     H54192   6.725   5.965   1.320  0.9824  3.7793 -2.0751
  393MOL0     H54193   6.622   6.235   1.141 -3.3018 -1.3033 -0.2206
  393MOL0     H54194   6.760   6.133   1.078 -1.2363 -0.3766 -0.6938
  393MOL0     H54195   6.730   6.143   1.247  0.4943  0.8941 -0.2051
  393MOL0     H54196   6.489   6.097   0.698 -0.2797  2.0022  0.9992
  393MOL0     H54197   6.402   6.229   0.520  0.6306 -1.1470 -0.1403
  393MOL0     H54198   6.115   6.440   0.364 -0.9122 -0.8026 -1.4266
  393MOL0     H54199   6.248   6.416   0.482  0.5969  1.9584 -1.3211
  393MOL0     H54200   6.337   6.249   0.286 -0.1405 -1.2900 -1.8223
  393MOL0     H54201   6.206   6.308   0.188 -0.0951  1.2575  0.4637
  393MOL0     H54202   6.362   6.521   0.313 -2.7726  2.6418 -1.5457
  393MOL0     H54203   6.292   6.536   0.162  1.0024  0.8645 -0.5111
  393MOL0     H54204   6.455   6.390   0.052  2.9016  1.3162 -1.2229
  393MOL0     H54205   6.539   6.375   0.208 -0.3117 -3.8898 -2.8680
  393MOL0     H54206   6.506   6.630   0.042  1.5155  0.1137 -0.8897
  393MOL0     H54207   6.589   6.617   0.200  2.9098 -1.7133 -0.5517
  393MOL0     H54208   6.758   6.459   0.102  0.9640 -2.2871 -2.9729
  393MOL0     H54209   6.753   6.629   0.033 -1.8003  0.3176 -0.9651
  393MOL0     H54210   6.594   6.549  -0.140 -2.5598 -1.1196  2.8290
  393MOL0     H54211   6.616   6.386  -0.074  0.8684 -0.9800  3.1082
  393MOL0     H54212   6.752   6.449  -0.281  0.7785  1.3021 -0.2030
  393MOL0     H54213   6.836   6.361  -0.156 -1.9670 -0.8486  1.0422
  393MOL0     H54214   6.001   6.139   0.658 -0.0116  1.1523 -4.0606
  393MOL0     H54215   6.098   5.998   0.837 -0.2896 -1.0386  0.8719
  393MOL0     H54216   6.304   5.839   1.097  1.8207  0.4112 -3.8378
  393MOL0     H54217   6.392   5.715   1.291  1.1134 -0.1354 -0.1096
  393MOL0     H54218   8.000   4.767   1.999  1.1977 -1.0826 -0.6640
  393MOL0     H54219   8.238   4.725   1.980  0.6974  3.3453  1.5410
  393MOL0     H54220   8.618   4.898   1.778 -0.4786  1.2074 -1.2439
  393MOL0     H54221   8.852   4.874   1.792  0.6050  1.5128 -3.6748
  393MOL0     H54222   9.017   4.519   1.858 -0.5270 -0.8638  0.5226
  393MOL0     H54223   9.015   4.446   1.696 -2.0149  1.1631 -0.4366
  393MOL0     H54224   9.240   4.605   1.827 -2.7337 -0.9253  0.8376
  393MOL0     H54225   9.218   4.606   1.644  2.8469  1.5225 -0.2770
  393MOL0     H54226   9.380   4.425   1.758  0.1185  1.0387  0.5093
  393MOL0     H54227   9.217   4.352   1.799 -0.8581 -1.2492 -0.8946
  393MOL0     H54228   9.335   4.417   1.529 -1.2714  0.0112 -0.7635
  393MOL0     H54229   9.165   4.392   1.547 -0.7554 -0.5315  0.7093
  393MOL0     H54230   9.290   4.006   1.616  1.1453  1.1766 -0.3278
  393MOL0     H54231   8.819   4.486   1.602  1.8201  0.3065 -0.0794
  393MOL0     H54232   8.503   4.440   1.648 -0.7956  0.6689  0.1015
  393MOL0     H54233   8.525   4.499   1.479 -1.4326  1.4661 -0.5117
  393MOL0     H54234   8.645   4.399   1.549 -0.9406  0.9615 -1.4729
  394MOL0     O54235   7.341   5.904   0.740 -0.2393 -0.0818  0.1023
  394MOL0     C54236   7.216   5.896   0.718 -0.5232  1.1756 -0.1668
  394MOL0     O54237   7.160   5.783   0.651 -0.6206 -0.3799 -0.6801
  394MOL0     C54238   7.238   5.677   0.624  0.7658  0.6172  1.2467
  394MOL0     C54239   7.271   5.653   0.484  0.2921 -0.2088  0.2596
  394MOL0     C54240   7.353   5.548   0.454 -0.1891 -0.1576  0.8558
  394MOL0     C54241   7.396   5.464   0.559 -0.3576 -0.2001 -0.2791
  394MOL0     O54242   7.493   5.379   0.511 -0.1594  0.2722  0.8819
  394MOL0     C54243   7.541   5.290   0.609  1.2084  0.7233  0.2324
  394MOL0     C54244   7.627   5.190   0.543  1.5686  0.2006 -1.7212
  394MOL0     C54245   7.730   5.264   0.460 -0.4244  0.2629  0.1388
  394MOL0     C54246   7.832   5.155   0.420  0.7832 -0.2090  0.3248
  394MOL0     C54247   7.942   5.196   0.327  0.3554 -0.4583 -0.1038
  394MOL0     C54248   8.036   5.317   0.356  0.3124 -0.2172  0.6821
  394MOL0     C54249   8.149   5.324   0.257  0.2015 -0.0875  0.5197
  394MOL0     C54250   8.100   5.368   0.121 -0.1644 -0.0132 -0.5433
  394MOL0     N54251   8.212   5.367   0.023  0.1637  0.5586 -0.6247
  394MOL0     C54252   8.310   5.465   0.031 -0.0442 -0.0693 -0.6292
  394MOL0     C54253   8.367   5.468  -0.091  0.3930  0.2652 -0.2315
  394MOL0     C54254   8.487   5.552  -0.115  0.2337 -0.1495  0.3681
  394MOL0     C54255   8.549   5.563  -0.258  0.3419 -0.5262  0.5449
  394MOL0     C54256   8.439   5.597  -0.364  0.3119 -0.8484  0.5726
  394MOL0     C54257   8.489   5.627  -0.505  1.4088 -0.0480  0.4754
  394MOL0     O54258   8.387   5.701  -0.575 -0.0444  0.2625  0.0323
  394MOL0     C54259   8.395   5.691  -0.706  0.0254  0.0126 -0.2027
  394MOL0     C54260   8.299   5.760  -0.770  0.7217  0.1100  0.9953
  394MOL0     C54261   8.305   5.780  -0.907 -0.9776  0.3860 -0.2797
  394MOL0     C54262   8.191   5.853  -0.965 -0.1261  0.1496  0.5933
  394MOL0     C54263   8.401   5.698  -0.984 -0.1984 -0.5701 -0.9203
  394MOL0     C54264   8.409   5.694  -1.132  0.6904 -0.2846 -0.0020
  394MOL0     O54265   8.358   5.799  -1.205  0.4194 -0.5394  0.3245
  394MOL0     C54266   8.354   5.793  -1.342  0.3365  0.6167  0.5733
  394MOL0     C54267   8.255   5.864  -1.407 -0.9481  0.8244  0.7575
  394MOL0     C54268   8.252   5.854  -1.549  0.3637  0.0348 -0.0913
  394MOL0     C54269   8.339   5.771  -1.620 -0.7534 -0.0466  0.2021
  394MOL0     O54270   8.335   5.756  -1.755 -0.8511 -0.5246 -0.2781
  394MOL0     C54271   8.313   5.625  -1.805  0.3093  0.3217  0.5725
  394MOL0     C54272   8.335   5.643  -1.964  0.5155 -0.5543  0.0090
  394MOL0     C54273   8.276   5.537  -2.051 -0.0931  0.3294  0.2350
  394MOL0     C54274   8.297   5.388  -2.016 -0.2646  0.3447  0.3603
  394MOL0     C54275   8.268   5.281  -2.122 -0.5995 -1.1220 -0.5315
  394MOL0     C54276   8.373   5.264  -2.240 -0.1859 -0.1912 -0.5536
  394MOL0     C54277   8.333   5.142  -2.337 -0.1143 -0.3710 -0.3827
  394MOL0     C54278   8.190   5.166  -2.396 -0.4813 -0.9786  0.3608
  394MOL0    Cl54279   8.193   5.315  -2.486 -0.1270 -0.3219  0.2102
  394MOL0     C54280   8.442   5.708  -1.558 -0.3815 -0.4976 -0.4012
  394MOL0     C54281   8.451   5.724  -1.420 -0.3972  0.0788 -1.2274
  394MOL0     O54282   8.469   5.594  -1.175  0.4375 -0.1684  0.2762
  394MOL0     C54283   8.501   5.628  -0.914  0.2803 -0.4210  0.1357
  394MOL0     C54284   8.506   5.639  -0.776 -0.1010 -0.1115  0.1773
  394MOL0     N54285   8.294   5.380  -0.179  0.1823  0.1696 -0.5184
  394MOL0     N54286   8.211   5.316  -0.106 -0.9470  0.2747  0.0583
  394MOL0     C54287   7.356   5.487   0.694 -0.5522 -0.4086  0.5635
  394MOL0     C54288   7.278   5.597   0.727  1.1088 -0.0696  0.4612
  394MOL0     C54289   7.132   6.011   0.751 -0.2290 -0.0091  0.0107
  394MOL0     C54290   6.995   6.005   0.706  1.1498 -0.4857 -1.0459
  394MOL0     C54291   6.915   6.115   0.747 -0.2488  0.3229  0.1595
  394MOL0     C54292   6.960   6.210   0.838 -0.9468  0.5603  0.2445
  394MOL0     O54293   6.883   6.304   0.885  0.2043 -0.8129  0.2942
  394MOL0     C54294   6.759   6.346   0.817 -0.0044 -0.0685  0.0217
  394MOL0     C54295   6.777   6.390   0.675  0.5876  0.7302  0.0057
  394MOL0     C54296   6.657   6.464   0.618  0.0810  1.2560  0.0484
  394MOL0     C54297   6.648   6.506   0.468 -1.4206  0.4203 -0.1542
  394MOL0     C54298   6.580   6.638   0.458  0.9885  0.2737  0.2052
  394MOL0     C54299   6.523   6.747   0.436 -0.9681 -0.0866  0.4641
  394MOL0     C54300   7.094   6.210   0.879  1.1468 -0.1241 -0.2029
  394MOL0     C54301   7.172   6.105   0.854 -0.3315  1.6991  0.3528
  394MOL0     C54302   7.294   6.076   0.942 -0.2270 -0.7591 -0.1348
  394MOL0     H54303   7.246   5.715   0.399  2.1282 -0.6432 -0.6545
  394MOL0     H54304   7.400   5.530   0.357 -0.1059  1.4360  0.5820
  394MOL0     H54305   7.453   5.233   0.641 -0.3309  1.4241 -2.4263
  394MOL0     H54306   7.584   5.340   0.696  0.8050 -0.6038  1.2343
  394MOL0     H54307   7.671   5.122   0.618  1.3637 -1.4744 -3.0496
  394MOL0     H54308   7.552   5.129   0.491  0.6215  1.1124 -1.4591
  394MOL0     H54309   7.670   5.306   0.378 -2.4695  0.2814  1.5579
  394MOL0     H54310   7.777   5.342   0.520  1.8063  0.1769 -1.3868
  394MOL0     H54311   7.875   5.123   0.515  0.5827  1.3833  0.9913
  394MOL0     H54312   7.787   5.066   0.376  0.6260 -1.1823  2.3369
  394MOL0     H54313   7.893   5.211   0.230 -1.1737 -0.7187  0.5904
  394MOL0     H54314   8.001   5.107   0.302  0.0156 -0.9066  0.6537
  394MOL0     H54315   7.987   5.414   0.344 -0.1913 -0.7266 -1.9010
  394MOL0     H54316   8.063   5.318   0.463  0.6859 -1.7398  0.6258
  394MOL0     H54317   8.188   5.222   0.250  0.7202  0.0242  1.5478
  394MOL0     H54318   8.229   5.393   0.285 -2.0799  3.5680 -1.2639
  394MOL0     H54319   8.030   5.294   0.079  0.3854 -1.2169  0.6131
  394MOL0     H54320   8.049   5.465   0.118  0.1258  0.2862  2.2674
  394MOL0     H54321   8.345   5.511   0.123  0.2512 -0.3456 -0.6018
  394MOL0     H54322   8.574   5.521  -0.056  0.3809 -2.1387 -0.8128
  394MOL0     H54323   8.459   5.650  -0.074 -1.0423 -1.3763  2.6400
  394MOL0     H54324   8.617   5.647  -0.237 -0.7434  0.1970  1.3283
  394MOL0     H54325   8.607   5.476  -0.289  0.1163 -1.3958  2.3829
  394MOL0     H54326   8.373   5.510  -0.363  0.9964 -1.4210 -0.6363
  394MOL0     H54327   8.397   5.693  -0.332  2.4039 -0.1501  1.4259
  394MOL0     H54328   8.579   5.687  -0.490  0.2517  1.5610  1.3367
  394MOL0     H54329   8.521   5.529  -0.542 -0.1237 -0.3915 -0.0184
  394MOL0     H54330   8.216   5.803  -0.715  0.9786  0.4474  1.1261
  394MOL0     H54331   8.133   5.906  -0.889 -2.6480 -2.2460  0.5232
  394MOL0     H54332   8.115   5.778  -0.989  0.2110 -0.0933  0.2686
  394MOL0     H54333   8.229   5.918  -1.044  1.0036  0.5927  1.4629
  394MOL0     H54334   8.171   5.914  -1.360 -1.8555  1.7136 -1.6509
  394MOL0     H54335   8.171   5.893  -1.611 -0.2617 -1.0309  0.0297
  394MOL0     H54336   8.396   5.556  -1.783  1.4505  0.8824 -1.6660
  394MOL0     H54337   8.214   5.586  -1.781  0.2411 -0.6488 -1.1275
  394MOL0     H54338   8.301   5.743  -1.993 -0.5777 -0.4852  1.4445
  394MOL0     H54339   8.442   5.638  -1.986  0.9468 -1.6054  2.1487
  394MOL0     H54340   8.324   5.556  -2.147  1.7373  3.4331  1.6379
  394MOL0     H54341   8.167   5.548  -2.060 -0.2648 -0.2771  1.3009
  394MOL0     H54342   8.223   5.376  -1.936 -0.5924  0.5318  0.0863
  394MOL0     H54343   8.397   5.381  -1.970 -0.2405  2.3207  0.6961
  394MOL0     H54344   8.268   5.188  -2.065  1.5540 -2.3576 -2.3925
  394MOL0     H54345   8.164   5.301  -2.150 -1.2137 -1.6555  1.2049
  394MOL0     H54346   8.474   5.231  -2.216 -0.0716  0.8788  0.5104
  394MOL0     H54347   8.394   5.354  -2.299 -1.5875  0.7608  0.3175
  394MOL0     H54348   8.335   5.044  -2.287  0.4267  1.6718  4.0834
  394MOL0     H54349   8.409   5.140  -2.416 -0.7016 -3.0166 -0.9720
  394MOL0     H54350   8.112   5.176  -2.320 -1.6372 -0.0492 -0.8967
  394MOL0     H54351   8.173   5.084  -2.468 -0.2076 -1.1624  0.5035
  394MOL0     H54352   8.523   5.651  -1.603 -2.3002 -2.4791 -1.5270
  394MOL0     H54353   8.538   5.681  -1.372 -1.1247 -1.9828 -1.6663
  394MOL0     H54354   8.573   5.568  -0.968  0.8011 -1.7060  2.1898
  394MOL0     H54355   8.593   5.604  -0.721 -0.7207 -0.1636  1.1432
  394MOL0     H54356   7.390   5.415   0.768  0.9075  0.2024  0.5230
  394MOL0     H54357   7.230   5.611   0.824  0.6589  1.1526  0.0833
  394MOL0     H54358   6.962   5.912   0.661  0.7412 -1.0945  0.4431
  394MOL0     H54359   6.809   6.111   0.722 -0.7887  1.7763  1.9461
  394MOL0     H54360   6.683   6.271   0.838 -0.2912 -0.0792 -1.0251
  394MOL0     H54361   6.713   6.433   0.865  0.8593  0.7592 -0.6132
  394MOL0     H54362   6.801   6.305   0.611 -2.7930 -1.6004  1.5719
  394MOL0     H54363   6.854   6.468   0.670  3.2934 -1.2446  4.5038
  394MOL0     H54364   6.562   6.429   0.660  1.6005  0.3762  3.0720
  394MOL0     H54365   6.670   6.560   0.669 -0.3692  1.5988 -0.4719
  394MOL0     H54366   6.602   6.428   0.406  0.7946  1.8390 -3.9067
  394MOL0     H54367   6.750   6.505   0.430 -2.2983 -1.0961 -2.7099
  394MOL0     H54368   6.469   6.839   0.433  0.6520  0.8900  0.2930
  394MOL0     H54369   7.116   6.272   0.966  0.6339 -0.7640  0.3983
  394MOL0     H54370   7.297   5.970   0.968 -3.0921 -0.8271  0.2565
  394MOL0     H54371   7.382   6.100   0.882 -1.3598  0.5523 -1.3238
  394MOL0     H54372   7.286   6.127   1.039 -1.8225  0.4721 -0.8665
  395MOL0     O54373  11.398  10.718   0.505 -0.1697 -0.3290  0.0042
  395MOL0     C54374  11.474  10.628   0.469  0.3106  0.6931  0.2276
  395MOL0     O54375  11.509  10.603   0.342 -0.4757 -0.6853 -0.6529
  395MOL0     C54376  11.491  10.698   0.235  0.2033 -1.1926 -0.2045
  395MOL0     C54377  11.598  10.755   0.169  0.6015  0.7142 -0.1552
  395MOL0     C54378  11.564  10.843   0.060  0.0749  0.3509  0.1260
  395MOL0     C54379  11.433  10.862   0.020 -0.0629 -0.0215 -0.5163
  395MOL0     O54380  11.397  10.934  -0.090  0.9819  0.6446 -0.1603
  395MOL0     C54381  11.489  10.926  -0.198  0.8968 -0.2044 -0.4973
  395MOL0     C54382  11.417  11.008  -0.312  0.2472 -0.0633  0.2406
  395MOL0     C54383  11.297  10.927  -0.372  0.5104 -0.3959 -0.0926
  395MOL0     C54384  11.216  11.002  -0.478  0.8215 -0.7189 -0.4206
  395MOL0     C54385  11.118  10.898  -0.544  0.3492 -0.6116 -0.0965
  395MOL0     C54386  11.009  10.959  -0.625  0.5907 -0.2383  0.5710
  395MOL0     C54387  10.913  10.845  -0.669 -0.4047  0.1642  0.1272
  395MOL0     C54388  10.793  10.892  -0.745 -0.7470 -0.0724 -0.1907
  395MOL0     N54389  10.719  10.789  -0.810  0.4471  0.2629  0.0860
  395MOL0     C54390  10.586  10.814  -0.841  0.2182  0.5470 -0.0598
  395MOL0     C54391  10.530  10.694  -0.875  0.1915 -0.3292 -0.1955
  395MOL0     C54392  10.380  10.659  -0.884  0.9546 -0.5872  0.0515
  395MOL0     C54393  10.292  10.749  -0.955 -0.3941 -0.0118  0.4410
  395MOL0     C54394  10.152  10.698  -0.942 -1.0327  0.3002 -0.2324
  395MOL0     C54395  10.053  10.805  -0.998  0.5347  0.1464 -0.0718
  395MOL0     O54396   9.988  10.733  -1.104  0.9240  0.6470  0.2351
  395MOL0     C54397   9.921  10.803  -1.200 -1.0584 -0.1352 -0.1956
  395MOL0     C54398   9.883  10.938  -1.189 -0.4130  0.6492 -0.3210
  395MOL0     C54399   9.826  11.006  -1.290  0.4380 -0.3328 -0.2482
  395MOL0     C54400   9.789  11.153  -1.263  0.2987 -0.1959  0.0222
  395MOL0     C54401   9.789  10.940  -1.410  0.1182 -0.3080  0.1038
  395MOL0     C54402   9.699  10.983  -1.525 -0.4932 -0.5094  0.9217
  395MOL0     O54403   9.573  11.051  -1.502  0.2193 -0.4955 -0.2370
  395MOL0     C54404   9.480  11.054  -1.598  0.9933 -0.1529 -0.7564
  395MOL0     C54405   9.387  11.157  -1.603 -0.3676  0.8357  0.6284
  395MOL0     C54406   9.284  11.162  -1.704 -1.3534 -0.3195 -0.8873
  395MOL0     C54407   9.269  11.063  -1.804 -0.7629 -0.0139 -0.3228
  395MOL0     O54408   9.174  11.096  -1.898 -0.2773 -0.0273  0.3168
  395MOL0     C54409   9.116  10.982  -1.964  0.2557  0.1666  0.3635
  395MOL0     C54410   8.999  11.015  -2.064 -0.3545  0.2889  0.4451
  395MOL0     C54411   8.865  11.012  -1.989  0.3659 -0.8614  0.3261
  395MOL0     C54412   8.806  10.874  -1.936  0.6542 -0.5220  1.4074
  395MOL0     C54413   8.719  10.794  -2.045 -0.5176  0.2258  0.7510
  395MOL0     C54414   8.663  10.667  -1.969  0.2906  0.5230  0.1406
  395MOL0     C54415   8.586  10.707  -1.835 -0.2529 -0.1643 -0.1996
  395MOL0     C54416   8.449  10.632  -1.827  0.6018  0.3272 -0.5303
  395MOL0    Cl54417   8.341  10.699  -1.697 -0.3560 -0.2602  0.2383
  395MOL0     C54418   9.362  10.963  -1.809 -0.0212  0.4012  0.1345
  395MOL0     C54419   9.460  10.960  -1.706  0.3791 -0.0609 -1.0117
  395MOL0     O54420   9.733  10.945  -1.631 -0.5643  0.4262 -0.1407
  395MOL0     C54421   9.832  10.810  -1.419  0.1379 -0.1905 -0.3246
  395MOL0     C54422   9.894  10.740  -1.324 -1.0058  0.1063  0.8663
  395MOL0     N54423  10.625  10.594  -0.866  0.9926  0.4990  1.4532
  395MOL0     N54424  10.734  10.650  -0.830 -0.1642  0.5778 -0.4960
  395MOL0     C54425  11.330  10.817   0.094  0.4412 -0.3830  0.4376
  395MOL0     C54426  11.356  10.734   0.202 -0.1756  0.2798  0.4346
  395MOL0     C54427  11.501  10.528   0.577 -0.2722 -0.3400  0.3331
  395MOL0     C54428  11.456  10.400   0.553 -0.1988  0.4302  0.4536
  395MOL0     C54429  11.486  10.298   0.651 -1.6045  0.0611 -0.8518
  395MOL0     C54430  11.541  10.329   0.774 -0.7275 -0.0618 -0.5198
  395MOL0     O54431  11.562  10.232   0.871 -0.2512  0.2410  1.3155
  395MOL0     C54432  11.508  10.256   1.002 -0.5828  0.5725  0.1064
  395MOL0     C54433  11.363  10.312   1.007  0.0226 -0.1592 -0.3905
  395MOL0     C54434  11.261  10.230   0.913  0.3787  0.0397 -0.8367
  395MOL0     C54435  11.211  10.096   0.980  0.1070  0.5281  0.5725
  395MOL0     C54436  11.287   9.981   0.927 -0.2464 -0.1157 -0.1042
  395MOL0     C54437  11.359   9.894   0.871  0.9527 -0.9970  0.2396
  395MOL0     C54438  11.587  10.464   0.794  0.0284  0.4365  0.3709
  395MOL0     C54439  11.574  10.558   0.693  0.6848 -1.1473 -0.4359
  395MOL0     C54440  11.616  10.702   0.711 -0.4517 -0.8079  0.7609
  395MOL0     H54441  11.702  10.746   0.199  0.4291  0.8659  0.5114
  395MOL0     H54442  11.645  10.888   0.005  1.8517 -0.9528  1.5653
  395MOL0     H54443  11.511  10.823  -0.227  1.7581 -0.7607  1.8649
  395MOL0     H54444  11.585  10.974  -0.179  0.3921  1.7245 -2.3679
  395MOL0     H54445  11.370  11.103  -0.285 -3.5433 -2.4064  3.0060
  395MOL0     H54446  11.487  11.010  -0.396  1.8868 -1.7778  1.4876
  395MOL0     H54447  11.320  10.834  -0.425 -0.3085 -0.1367 -0.9250
  395MOL0     H54448  11.232  10.906  -0.287  1.5369  0.0889  0.8457
  395MOL0     H54449  11.155  11.077  -0.427 -1.9659 -1.0722 -2.9526
  395MOL0     H54450  11.266  11.066  -0.552  0.9514  1.6990  1.6234
  395MOL0     H54451  11.067  10.842  -0.465 -1.9693  0.4976 -0.7147
  395MOL0     H54452  11.164  10.835  -0.620 -1.8527  0.1957 -2.2374
  395MOL0     H54453  10.952  11.035  -0.570  1.8322  1.7332 -0.7301
  395MOL0     H54454  11.052  11.005  -0.715 -1.4745  1.0836  0.1666
  395MOL0     H54455  10.873  10.801  -0.578 -0.5361  2.8948  1.5111
  395MOL0     H54456  10.962  10.763  -0.721 -2.6200 -1.6947  0.7763
  395MOL0     H54457  10.737  10.939  -0.663 -0.3183 -2.6250  1.6918
  395MOL0     H54458  10.822  10.961  -0.825  0.2951  0.5608  0.7221
  395MOL0     H54459  10.536  10.910  -0.828 -0.2085  0.5353 -1.4617
  395MOL0     H54460  10.337  10.641  -0.785 -0.1634 -2.8444 -0.7602
  395MOL0     H54461  10.372  10.559  -0.927  0.2140 -0.3815 -0.2937
  395MOL0     H54462  10.312  10.851  -0.920  1.5076 -0.0013 -0.5363
  395MOL0     H54463  10.324  10.741  -1.059 -1.0766  0.4311  0.1842
  395MOL0     H54464  10.141  10.602  -0.993 -4.5884 -0.5806  1.8334
  395MOL0     H54465  10.110  10.673  -0.844 -1.2763  0.5402 -0.2725
  395MOL0     H54466   9.980  10.837  -0.923  2.0394 -0.3775  1.6968
  395MOL0     H54467  10.103  10.894  -1.035  5.8542 -2.0911  0.8097
  395MOL0     H54468   9.905  10.994  -1.099  0.6766 -1.7180  1.0056
  395MOL0     H54469   9.875  11.215  -1.238  0.3342 -0.2229 -0.0326
  395MOL0     H54470   9.720  11.176  -1.182 -0.0502  3.1899 -1.0966
  395MOL0     H54471   9.743  11.196  -1.353 -1.1242  1.5819  1.5329
  395MOL0     H54472   9.394  11.223  -1.517  4.2248 -0.1613  1.2384
  395MOL0     H54473   9.216  11.246  -1.694 -0.3019  0.4760 -0.1126
  395MOL0     H54474   9.192  10.943  -2.031  0.6096  1.7784 -0.2331
  395MOL0     H54475   9.085  10.905  -1.893 -0.4530  1.0179  1.0095
  395MOL0     H54476   9.010  11.115  -2.105 -1.8243  1.0673  1.8213
  395MOL0     H54477   8.999  10.934  -2.138  0.6725  0.2810  0.4458
  395MOL0     H54478   8.787  11.052  -2.054  2.1573  0.2139 -1.2570
  395MOL0     H54479   8.877  11.084  -1.907 -1.3192  0.1953 -0.2971
  395MOL0     H54480   8.736  10.913  -1.862 -1.7199  2.2462 -1.9389
  395MOL0     H54481   8.888  10.818  -1.891  1.3679 -0.1855  0.5557
  395MOL0     H54482   8.633  10.842  -2.092 -0.8744 -0.1990  0.9581
  395MOL0     H54483   8.785  10.761  -2.126  1.5921  1.2198  1.9921
  395MOL0     H54484   8.749  10.602  -1.950 -1.3123 -2.2038 -1.2980
  395MOL0     H54485   8.591  10.611  -2.029  1.1405  0.2462 -0.6398
  395MOL0     H54486   8.562  10.814  -1.829  3.6924  0.8824 -0.6476
  395MOL0     H54487   8.653  10.682  -1.753  0.0600  2.9007  0.6268
  395MOL0     H54488   8.468  10.525  -1.831 -0.8427  0.0654 -1.3544
  395MOL0     H54489   8.394  10.646  -1.921 -2.6433 -2.8842  0.6508
  395MOL0     H54490   9.362  10.912  -1.905  1.7608  1.4144 -0.4559
  395MOL0     H54491   9.541  10.887  -1.710  4.6066  3.8549  1.9806
  395MOL0     H54492   9.794  10.766  -1.511  1.8636 -1.1093 -0.6441
  395MOL0     H54493   9.928  10.638  -1.336  1.9241  0.5142  4.0481
  395MOL0     H54494  11.229  10.851   0.073 -0.2167 -0.6586  2.8726
  395MOL0     H54495  11.273  10.684   0.251  0.5192  0.1816  1.5349
  395MOL0     H54496  11.421  10.378   0.453  1.7715  1.2310 -0.4837
  395MOL0     H54497  11.460  10.201   0.609 -2.2193  1.4143 -3.8603
  395MOL0     H54498  11.517  10.164   1.061  3.3365  1.0583  0.4965
  395MOL0     H54499  11.563  10.328   1.062  2.4466 -0.0786 -1.6774
  395MOL0     H54500  11.361  10.415   0.970  1.3262  0.3231  0.7883
  395MOL0     H54501  11.324  10.318   1.109  2.2603  1.0810  0.4691
  395MOL0     H54502  11.183  10.304   0.893  0.1026  0.4218  1.4292
  395MOL0     H54503  11.311  10.204   0.819 -0.9510  0.7696 -1.7720
  395MOL0     H54504  11.107  10.087   0.949  0.8515 -0.9453 -1.7455
  395MOL0     H54505  11.202  10.083   1.089  0.9972  0.0070  0.5999
  395MOL0     H54506  11.417   9.831   0.807  0.6193 -1.2330  0.1701
  395MOL0     H54507  11.626  10.494   0.890 -3.1869 -1.3973  2.4553
  395MOL0     H54508  11.677  10.737   0.628  0.2229 -1.3206  1.0263
  395MOL0     H54509  11.532  10.771   0.716  0.8393  0.7952  1.0909
  395MOL0     H54510  11.667  10.708   0.808  0.8589  0.0605  0.0457
  396MOL0     O54511   6.885   1.558   7.604 -0.8392  0.6660  0.7344
  396MOL0     C54512   6.815   1.656   7.623  0.1523  1.0224  0.1920
  396MOL0     O54513   6.797   1.727   7.736 -0.3696  0.2278 -0.7534
  396MOL0     C54514   6.875   1.673   7.842  0.2194 -0.3934 -0.6588
  396MOL0     C54515   6.833   1.551   7.901  0.0555 -0.7299  0.0561
  396MOL0     C54516   6.902   1.492   8.014  0.9459  0.5770  0.1574
  396MOL0     C54517   7.012   1.565   8.065 -0.1967 -0.1156  0.0290
  396MOL0     O54518   7.049   1.525   8.192 -0.0980 -0.7936 -0.4379
  396MOL0     C54519   7.184   1.515   8.225 -0.1809  0.0950 -0.1228
  396MOL0     C54520   7.215   1.366   8.276  0.9629 -1.1117  0.4814
  396MOL0     C54521   7.176   1.253   8.183 -0.4388  0.2566  0.4723
  396MOL0     C54522   7.293   1.210   8.093  0.3329  0.2538  0.0651
  396MOL0     C54523   7.235   1.127   7.984  0.0115 -0.8995  0.2263
  396MOL0     C54524   7.155   1.197   7.877  0.6119  0.0932  1.0838
  396MOL0     C54525   7.209   1.326   7.821  0.1712  0.6407  0.1467
  396MOL0     C54526   7.142   1.362   7.691 -0.0577  0.0636  0.3115
  396MOL0     N54527   7.180   1.286   7.571  0.0065 -0.0192 -0.5921
  396MOL0     C54528   7.120   1.169   7.516  0.1841 -0.1919 -0.2119
  396MOL0     C54529   7.213   1.126   7.422  0.2520 -1.0574  0.9782
  396MOL0     C54530   7.199   1.009   7.335 -0.2897 -0.1328 -0.3202
  396MOL0     C54531   7.337   0.939   7.304 -0.0973 -0.4535 -0.1592
  396MOL0     C54532   7.356   0.948   7.154 -0.7656  0.2212 -0.1381
  396MOL0     C54533   7.396   1.092   7.109 -0.6134  0.5519 -0.0368
  396MOL0     O54534   7.537   1.113   7.109 -0.0806  0.4392  0.3650
  396MOL0     C54535   7.621   1.027   7.037  0.3392  0.2256 -0.2748
  396MOL0     C54536   7.577   0.962   6.921  0.4591  0.6457  0.2361
  396MOL0     C54537   7.654   0.867   6.852  0.7281 -0.2751  0.2472
  396MOL0     C54538   7.588   0.805   6.735 -0.9209  0.9812  0.1086
  396MOL0     C54539   7.785   0.841   6.896  0.1776  0.1341 -0.5026
  396MOL0     C54540   7.881   0.737   6.832  0.6461 -0.1105 -0.8113
  396MOL0     O54541   7.831   0.626   6.787  0.0978  0.0897  0.5280
  396MOL0     C54542   7.921   0.523   6.750  0.0005 -0.3563  0.8668
  396MOL0     C54543   7.927   0.486   6.609 -0.7751  0.3748 -0.3133
  396MOL0     C54544   8.008   0.377   6.569  0.2211 -0.2552  0.0134
  396MOL0     C54545   8.088   0.306   6.657  0.4070  0.4718 -0.0002
  396MOL0     O54546   8.155   0.198   6.614  0.1147  0.2045 -0.1928
  396MOL0     C54547   8.258   0.152   6.693 -0.2636  0.5681 -0.3656
  396MOL0     C54548   8.345   0.060   6.624 -0.8816 -0.0389 -0.1887
  396MOL0     C54549   8.291  -0.079   6.608 -0.1053 -0.5322 -0.0467
  396MOL0     C54550   8.398  -0.173   6.551 -0.9268 -0.2015  0.3409
  396MOL0     C54551   8.353  -0.286   6.465  0.0307  0.1708  0.7666
  396MOL0     C54552   8.326  -0.243   6.322 -0.4739  0.1891 -0.8108
  396MOL0     C54553   8.277  -0.348   6.239 -0.0532  0.8493 -0.8565
  396MOL0     C54554   8.244  -0.300   6.096  0.0260 -0.7882  0.5294
  396MOL0    Cl54555   8.382  -0.267   5.987 -0.2405  0.5331 -0.0285
  396MOL0     C54556   8.082   0.347   6.789 -0.1529  0.1888 -0.2791
  396MOL0     C54557   8.002   0.453   6.839 -0.0494 -0.1027 -0.1541
  396MOL0     O54558   8.000   0.757   6.863 -0.1074  0.1282 -1.1166
  396MOL0     C54559   7.828   0.915   7.009 -0.4801  0.6526 -0.0105
  396MOL0     C54560   7.757   1.010   7.075  0.1197 -0.8459  0.5626
  396MOL0     N54561   7.311   1.222   7.412  1.1009 -0.2105 -0.4436
  396MOL0     N54562   7.282   1.324   7.485 -0.3409 -0.9562  0.5773
  396MOL0     C54563   7.050   1.688   8.011  0.1103  0.4153  0.4794
  396MOL0     C54564   6.976   1.746   7.903  0.1144 -0.4777  0.4615
  396MOL0     C54565   6.745   1.686   7.499  0.2366 -1.0932  0.3805
  396MOL0     C54566   6.823   1.690   7.373  0.3435 -0.0818 -0.8021
  396MOL0     C54567   6.762   1.732   7.256 -0.3465  1.0044 -0.1540
  396MOL0     C54568   6.628   1.772   7.257 -0.2618  0.3042 -0.2693
  396MOL0     O54569   6.545   1.792   7.149 -0.2119  0.7702 -0.0620
  396MOL0     C54570   6.603   1.804   7.019 -0.0127 -0.6527 -0.2313
  396MOL0     C54571   6.536   1.908   6.950 -0.0999 -0.2638 -0.2783
  396MOL0     C54572   6.576   2.038   7.017 -0.6509 -0.3122  0.5335
  396MOL0     C54573   6.554   2.150   6.928  0.0852  0.2390  0.0151
  396MOL0     C54574   6.418   2.204   6.952 -0.2102 -0.5247 -0.4198
  396MOL0     C54575   6.304   2.249   6.964 -1.8418  0.0684  0.0015
  396MOL0     C54576   6.557   1.774   7.372 -0.0477 -0.9345 -0.7866
  396MOL0     C54577   6.607   1.731   7.495  0.1219 -0.0104  0.1796
  396MOL0     C54578   6.520   1.731   7.618 -0.9656  1.0890 -0.3535
  396MOL0     H54579   6.748   1.510   7.847 -0.3728  2.9219 -2.3857
  396MOL0     H54580   6.858   1.405   8.061 -1.3079  0.1460 -2.4579
  396MOL0     H54581   7.204   1.579   8.312  2.1591 -2.1334  1.0980
  396MOL0     H54582   7.242   1.539   8.136  2.1654 -3.7484  0.1439
  396MOL0     H54583   7.323   1.354   8.294  1.3127  1.3297  0.2758
  396MOL0     H54584   7.169   1.355   8.375 -4.3501 -1.5000 -1.7361
  396MOL0     H54585   7.139   1.173   8.248  1.7762 -0.1106  1.3805
  396MOL0     H54586   7.088   1.283   8.125 -0.7002  2.3541  1.8227
  396MOL0     H54587   7.354   1.292   8.055  0.6743 -0.8140 -1.8391
  396MOL0     H54588   7.358   1.155   8.161  1.3608  0.8680 -0.3920
  396MOL0     H54589   7.181   1.046   8.034 -0.1495 -2.4598 -2.2853
  396MOL0     H54590   7.321   1.084   7.931  0.2836 -2.5914  1.9263
  396MOL0     H54591   7.128   1.135   7.791 -3.0503  1.0884  1.3309
  396MOL0     H54592   7.054   1.221   7.913 -0.0892  1.0945 -1.3034
  396MOL0     H54593   7.317   1.311   7.805  0.2564  3.0837 -2.3455
  396MOL0     H54594   7.189   1.417   7.879 -2.1090 -0.2072  0.7882
  396MOL0     H54595   7.035   1.368   7.711 -0.4155  0.1158 -1.4526
  396MOL0     H54596   7.171   1.464   7.663  0.4021 -0.0067  0.5152
  396MOL0     H54597   7.024   1.130   7.548 -1.0150  1.9379 -0.9819
  396MOL0     H54598   7.143   1.045   7.248  1.7068  0.8648 -1.2487
  396MOL0     H54599   7.146   0.940   7.402  3.4241 -0.6847  2.3651
  396MOL0     H54600   7.427   0.980   7.351 -1.7080  1.9033  1.0528
  396MOL0     H54601   7.328   0.835   7.334 -1.2876  0.2400  2.0620
  396MOL0     H54602   7.421   0.866   7.123 -0.1324  1.2165 -1.5448
  396MOL0     H54603   7.265   0.928   7.097 -0.9421 -2.9179  1.0419
  396MOL0     H54604   7.353   1.116   7.011 -2.9601  0.7500  0.9686
  396MOL0     H54605   7.359   1.168   7.179 -0.3452 -0.1146  0.8386
  396MOL0     H54606   7.477   0.981   6.882  1.7165  4.0310 -1.7344
  396MOL0     H54607   7.643   0.827   6.643  0.6863 -1.4292  0.3987
  396MOL0     H54608   7.483   0.835   6.723 -1.4728 -0.7894  0.1941
  396MOL0     H54609   7.582   0.696   6.748 -3.1678  1.0482  0.0614
  396MOL0     H54610   7.866   0.530   6.531 -2.4787 -0.9469  0.2015
  396MOL0     H54611   8.011   0.346   6.465  1.5522  1.6285 -0.5606
  396MOL0     H54612   8.335   0.226   6.717  0.6851  0.4674 -2.8479
  396MOL0     H54613   8.214   0.106   6.782 -0.6677  2.7605  0.6271
  396MOL0     H54614   8.361   0.107   6.526 -0.0627 -0.3284 -0.2032
  396MOL0     H54615   8.442   0.065   6.675 -1.2717  2.2678  0.4172
  396MOL0     H54616   8.206  -0.073   6.541  1.4513  0.4638 -2.0344
  396MOL0     H54617   8.257  -0.106   6.709  2.9712  1.8607  1.8102
  396MOL0     H54618   8.454  -0.219   6.633  0.1371  0.0113 -0.2543
  396MOL0     H54619   8.476  -0.116   6.499  0.1327 -1.5745  0.3543
  396MOL0     H54620   8.430  -0.361   6.446 -0.4487  0.2677 -1.8918
  396MOL0     H54621   8.271  -0.334   6.519 -1.5041  1.4837 -0.3421
  396MOL0     H54622   8.414  -0.203   6.270  0.0182  0.3306  0.1176
  396MOL0     H54623   8.260  -0.157   6.339  1.2073  0.9358  2.9532
  396MOL0     H54624   8.192  -0.405   6.277  1.2563 -0.3441  0.4097
  396MOL0     H54625   8.360  -0.419   6.245  1.1738  2.3282  1.4359
  396MOL0     H54626   8.172  -0.219   6.085 -2.0088 -2.8586 -3.4414
  396MOL0     H54627   8.188  -0.381   6.050  0.8384 -0.7646 -0.5378
  396MOL0     H54628   8.140   0.297   6.866 -0.5247 -0.9059 -0.6933
  396MOL0     H54629   8.015   0.470   6.946  0.7201  1.6183 -0.4902
  396MOL0     H54630   7.926   0.901   7.054 -0.5799  1.8201  0.6413
  396MOL0     H54631   7.799   1.049   7.167  2.4001 -0.3811 -0.6090
  396MOL0     H54632   7.117   1.758   8.058 -0.0514  0.1361  1.1430
  396MOL0     H54633   7.002   1.841   7.859 -3.3108 -0.7063 -2.5515
  396MOL0     H54634   6.929   1.666   7.377 -0.0367 -1.9881 -1.2182
  396MOL0     H54635   6.815   1.716   7.163 -1.7074  0.9797 -0.9592
  396MOL0     H54636   6.711   1.820   7.019 -0.1975  0.6809  0.0388
  396MOL0     H54637   6.579   1.712   6.964 -1.3944  1.5965 -3.6984
  396MOL0     H54638   6.430   1.887   6.966  0.1759 -3.4906 -1.8807
  396MOL0     H54639   6.575   1.894   6.848  1.7727 -1.2754  0.5152
  396MOL0     H54640   6.515   2.043   7.108 -1.8710 -0.8571 -0.2392
  396MOL0     H54641   6.680   2.047   7.051 -0.7137  2.4700  0.2396
  396MOL0     H54642   6.563   2.115   6.824 -2.4173  0.7360 -0.4397
  396MOL0     H54643   6.630   2.225   6.949  1.7711 -1.6064  0.8107
  396MOL0     H54644   6.210   2.300   6.968 -1.4076  1.4570 -3.5464
  396MOL0     H54645   6.454   1.809   7.369  0.7620  1.5580 -2.9425
  396MOL0     H54646   6.496   1.628   7.643  1.1446  0.1483 -1.9217
  396MOL0     H54647   6.564   1.782   7.705 -0.5245  1.2293 -0.6548
  396MOL0     H54648   6.420   1.774   7.606 -1.3199  0.4839  0.3633
  397MOL0     O54649   3.567   4.387   4.019 -0.1076  0.2814  0.1714
  397MOL0     C54650   3.498   4.421   3.924 -0.4545 -0.1094  1.0285
  397MOL0     O54651   3.554   4.488   3.814 -0.2986 -0.5051  0.0816
  397MOL0     C54652   3.687   4.516   3.791 -0.5137 -0.8564 -1.0168
  397MOL0     C54653   3.768   4.556   3.887  0.7119 -0.2668  0.5570
  397MOL0     C54654   3.903   4.598   3.872  0.1267 -0.4682  0.3665
  397MOL0     C54655   3.957   4.608   3.741  0.6858  0.2289 -0.3969
  397MOL0     O54656   4.089   4.644   3.716 -0.0875  0.3857 -0.3406
  397MOL0     C54657   4.162   4.555   3.643  0.2111  0.5876 -0.0845
  397MOL0     C54658   4.197   4.606   3.507  0.7359  0.0995 -0.4203
  397MOL0     C54659   4.327   4.548   3.454 -0.1978  0.7270  0.6393
  397MOL0     C54660   4.349   4.395   3.436 -0.2185 -0.1255 -0.3442
  397MOL0     C54661   4.290   4.337   3.317  0.4223  0.1027  0.4365
  397MOL0     C54662   4.147   4.302   3.337  0.1085 -0.2765  0.2576
  397MOL0     C54663   4.076   4.235   3.220  1.1030 -0.4563  0.6558
  397MOL0     C54664   4.011   4.353   3.135  0.4276  0.7330  0.1564
  397MOL0     N54665   3.947   4.303   3.017  0.1102  0.1187 -0.1690
  397MOL0     C54666   4.002   4.229   2.914 -0.9009  0.5097 -0.1489
  397MOL0     C54667   3.897   4.189   2.847  0.1615  0.3708  0.7801
  397MOL0     C54668   3.891   4.081   2.741 -0.3013 -0.1422  1.1063
  397MOL0     C54669   3.970   4.114   2.611 -0.1603  1.2283  0.5706
  397MOL0     C54670   3.976   4.001   2.509 -0.0819 -0.1472  0.3052
  397MOL0     C54671   3.846   3.966   2.437  0.5048  0.3858 -0.2446
  397MOL0     O54672   3.815   4.072   2.347  0.2790  0.1367  0.1835
  397MOL0     C54673   3.874   4.082   2.224  0.4156 -0.8244  0.2222
  397MOL0     C54674   3.949   3.982   2.162  0.1070 -0.7519  0.3199
  397MOL0     C54675   3.989   3.999   2.025 -0.0042 -0.0760  0.6421
  397MOL0     C54676   4.071   3.888   1.953  0.4320  0.1471 -0.2417
  397MOL0     C54677   3.950   4.109   1.943 -0.3106 -0.1233  0.3937
  397MOL0     C54678   3.973   4.107   1.793 -0.1339  0.5939  0.7632
  397MOL0     O54679   4.044   4.210   1.743  0.0819  0.1841  0.2440
  397MOL0     C54680   4.012   4.263   1.621 -0.5900  0.2674  0.7091
  397MOL0     C54681   3.927   4.378   1.620 -0.4667 -0.8714  0.4037
  397MOL0     C54682   3.884   4.432   1.504 -0.3263 -0.0103 -0.6158
  397MOL0     C54683   3.913   4.373   1.386  0.9646  0.2785  0.2143
  397MOL0     O54684   3.855   4.417   1.267  0.1446 -0.3411  1.2199
  397MOL0     C54685   3.709   4.409   1.264  0.1982  0.5143  0.5587
  397MOL0     C54686   3.664   4.267   1.228  0.8361  0.6682  0.7247
  397MOL0     C54687   3.528   4.252   1.164  0.3521 -1.0742  0.5645
  397MOL0     C54688   3.502   4.111   1.112  0.1792  0.2513 -0.8652
  397MOL0     C54689   3.371   4.116   1.027  0.0917  0.3485 -0.1888
  397MOL0     C54690   3.359   3.973   0.974  1.0331  0.1947  0.3967
  397MOL0     C54691   3.210   3.929   0.953 -0.5493 -0.5980  0.5764
  397MOL0     C54692   3.143   3.887   1.084  0.3692 -0.0676 -0.2954
  397MOL0    Cl54693   3.040   3.759   1.049  0.2617  0.6891  0.2555
  397MOL0     C54694   3.981   4.253   1.387 -0.1244  0.8800 -0.3803
  397MOL0     C54695   4.044   4.203   1.496  0.4510  0.3706  0.4931
  397MOL0     O54696   3.914   4.027   1.724  0.0015 -0.3690 -0.2189
  397MOL0     C54697   3.872   4.201   2.011 -1.2639  0.4341 -0.5540
  397MOL0     C54698   3.834   4.190   2.150  0.1994 -1.4426  0.7588
  397MOL0     N54699   3.785   4.265   2.884 -0.7920  0.6325 -0.4002
  397MOL0     N54700   3.817   4.320   2.998 -0.1653  0.2100 -0.1612
  397MOL0     C54701   3.872   4.569   3.631 -0.3889 -0.5791  1.0346
  397MOL0     C54702   3.748   4.530   3.664  0.4650 -0.2055  0.5259
  397MOL0     C54703   3.353   4.413   3.928 -0.3185 -0.1766 -0.4312
  397MOL0     C54704   3.287   4.499   3.839 -0.3439  0.3035 -0.8643
  397MOL0     C54705   3.146   4.487   3.857 -0.0692 -0.2199  0.0764
  397MOL0     C54706   3.081   4.404   3.944  0.4197  0.4903 -0.0045
  397MOL0     O54707   2.945   4.414   3.948  0.7656  0.1836  0.3078
  397MOL0     C54708   2.862   4.308   3.998 -0.5769  0.9131 -0.3243
  397MOL0     C54709   2.727   4.298   3.926  1.0637  0.1024 -0.5173
  397MOL0     C54710   2.722   4.200   3.808  1.2482  0.8109  0.0665
  397MOL0     C54711   2.591   4.200   3.733 -0.8850  0.1719  0.4643
  397MOL0     C54712   2.583   4.322   3.652 -0.0753 -0.1277 -1.6859
  397MOL0     C54713   2.598   4.418   3.581 -0.5358 -0.6456  0.4623
  397MOL0     C54714   3.150   4.321   4.028 -1.0328 -0.2817 -0.2902
  397MOL0     C54715   3.285   4.312   4.016 -0.6085 -0.8924 -0.0307
  397MOL0     C54716   3.367   4.231   4.124 -0.0914  0.2237 -0.5043
  397MOL0     H54717   3.731   4.554   3.990  2.8666  2.5752  1.5025
  397MOL0     H54718   3.963   4.634   3.954 -0.1574  0.6194  0.1090
  397MOL0     H54719   4.123   4.453   3.633  0.2278  0.5714  0.0194
  397MOL0     H54720   4.254   4.536   3.700  0.8048  1.6969 -0.6391
  397MOL0     H54721   4.117   4.587   3.434 -1.2645 -2.4264  2.1985
  397MOL0     H54722   4.202   4.715   3.505  0.2405  0.1230 -0.6384
  397MOL0     H54723   4.350   4.599   3.360 -2.9934  0.3670 -0.3544
  397MOL0     H54724   4.406   4.576   3.524  1.3059 -1.7160  0.0309
  397MOL0     H54725   4.456   4.372   3.429 -0.2249  0.1902 -1.8343
  397MOL0     H54726   4.307   4.335   3.518  0.7881  0.1687  0.4099
  397MOL0     H54727   4.336   4.240   3.297  0.9482  0.5055 -0.3191
  397MOL0     H54728   4.296   4.396   3.226  0.0985 -1.4338 -0.6259
  397MOL0     H54729   4.145   4.228   3.417  1.2966  0.8231  1.3654
  397MOL0     H54730   4.087   4.389   3.366  0.8660  0.9143 -1.5594
  397MOL0     H54731   3.994   4.173   3.256 -0.1812 -0.7092 -2.4075
  397MOL0     H54732   4.157   4.180   3.171  1.7188  1.2172 -0.2980
  397MOL0     H54733   3.940   4.407   3.198 -0.4268  1.3576 -1.2939
  397MOL0     H54734   4.089   4.420   3.098  2.5320 -2.2627 -1.2856
  397MOL0     H54735   4.104   4.194   2.908 -0.3588  2.0739 -0.7508
  397MOL0     H54736   3.790   4.056   2.708 -0.5579 -0.3112  1.9751
  397MOL0     H54737   3.937   3.990   2.781  2.5827  0.8144  0.1822
  397MOL0     H54738   3.930   4.196   2.551 -2.4121 -0.4336 -0.3877
  397MOL0     H54739   4.073   4.142   2.634 -0.0306  3.3475 -2.1508
  397MOL0     H54740   4.053   4.026   2.435 -1.6892  2.0842 -0.7292
  397MOL0     H54741   4.005   3.912   2.565 -2.3154 -0.4744  1.0303
  397MOL0     H54742   3.865   3.871   2.387  2.4194  0.0232  1.0614
  397MOL0     H54743   3.763   3.949   2.506 -1.3718  0.6640 -2.3029
  397MOL0     H54744   3.970   3.887   2.211 -0.2477 -0.8954  0.1962
  397MOL0     H54745   4.019   3.797   1.984  0.4363 -0.8627 -2.9081
  397MOL0     H54746   4.178   3.896   1.974  0.8742 -2.4668 -1.0913
  397MOL0     H54747   4.069   3.888   1.844  4.2828 -2.8842 -0.5487
  397MOL0     H54748   3.899   4.434   1.709  2.7867  0.0749  0.9489
  397MOL0     H54749   3.815   4.515   1.517 -1.9075 -1.3301 -0.2720
  397MOL0     H54750   3.662   4.429   1.361 -0.6483  0.6725  0.1294
  397MOL0     H54751   3.682   4.489   1.194  4.0839 -0.4570 -2.4308
  397MOL0     H54752   3.743   4.224   1.166 -0.0829  1.1656 -0.8529
  397MOL0     H54753   3.660   4.203   1.317  1.5771 -1.0047 -0.3800
  397MOL0     H54754   3.517   4.316   1.077 -1.2375 -0.0786  1.4343
  397MOL0     H54755   3.446   4.275   1.234  1.0898  3.1273  0.2495
  397MOL0     H54756   3.490   4.041   1.195 -2.2347  1.7573  0.1866
  397MOL0     H54757   3.586   4.081   1.049  0.8667  0.8234 -0.2426
  397MOL0     H54758   3.287   4.149   1.089  1.4628  0.6210  1.6101
  397MOL0     H54759   3.371   4.182   0.940 -3.2785 -0.2833 -0.8064
  397MOL0     H54760   3.403   3.900   1.042 -0.7568 -2.3830 -1.0212
  397MOL0     H54761   3.400   3.972   0.872 -1.8872  1.2726 -0.8856
  397MOL0     H54762   3.219   3.849   0.879  0.6988 -0.0060  0.0689
  397MOL0     H54763   3.152   4.007   0.902 -2.4500 -2.8749 -0.9995
  397MOL0     H54764   3.098   3.974   1.132  2.2678  0.2049  1.1265
  397MOL0     H54765   3.213   3.858   1.163 -0.1136 -1.8711 -0.4916
  397MOL0     H54766   3.984   4.188   1.300  0.5834 -2.2756  1.8290
  397MOL0     H54767   4.092   4.106   1.491  2.0067  1.1718 -1.8155
  397MOL0     H54768   3.837   4.284   1.951  1.2815  0.6825 -1.8000
  397MOL0     H54769   3.784   4.265   2.211  1.0423  1.6940 -2.1538
  397MOL0     H54770   3.911   4.563   3.530  1.0851 -1.5432  1.6211
  397MOL0     H54771   3.684   4.491   3.585  2.6774 -1.7847 -0.5891
  397MOL0     H54772   3.324   4.576   3.772  1.0177  1.2135  0.8559
  397MOL0     H54773   3.078   4.546   3.796  0.4620  0.9285  0.5663
  397MOL0     H54774   2.908   4.209   3.987  0.4099  1.2117  0.8602
  397MOL0     H54775   2.858   4.314   4.108 -2.6267 -0.2756 -0.2849
  397MOL0     H54776   2.687   4.396   3.900 -1.2415 -0.3040  1.2169
  397MOL0     H54777   2.660   4.252   3.999  1.7838 -0.0400  0.0703
  397MOL0     H54778   2.796   4.214   3.729  0.5886 -0.5909 -0.8527
  397MOL0     H54779   2.742   4.100   3.847  0.7781  0.3279 -0.9019
  397MOL0     H54780   2.511   4.198   3.807  0.6162  3.6342  2.4224
  397MOL0     H54781   2.582   4.105   3.678 -2.4962  0.4662  0.1882
  397MOL0     H54782   2.595   4.497   3.508 -3.4271 -5.6377 -5.8473
  397MOL0     H54783   3.108   4.248   4.097 -2.7003  0.3129 -0.6274
  397MOL0     H54784   3.443   4.165   4.082  1.6893  1.8238  0.0826
  397MOL0     H54785   3.411   4.306   4.190  0.0373 -0.8135  0.6249
  397MOL0     H54786   3.298   4.171   4.184  1.3772 -0.9404  0.0753
  398MOL0     O54787   8.390   3.484   6.719  0.4008  0.5744  0.4385
  398MOL0     C54788   8.463   3.511   6.812 -0.0028 -0.6490 -0.0056
  398MOL0     O54789   8.572   3.595   6.793  0.6422  0.4481 -0.6175
  398MOL0     C54790   8.580   3.649   6.670  0.5093 -0.4951  0.7371
  398MOL0     C54791   8.580   3.784   6.666  0.4998 -0.5413 -0.0560
  398MOL0     C54792   8.621   3.865   6.554  0.4200  0.2782 -0.4064
  398MOL0     C54793   8.649   3.803   6.431  0.4252 -0.1752  0.2817
  398MOL0     O54794   8.690   3.887   6.330  0.1580  0.7267 -0.3457
  398MOL0     C54795   8.673   3.844   6.195 -0.5281 -0.7211  0.2266
  398MOL0     C54796   8.768   3.935   6.099  0.5485 -0.6240  0.5880
  398MOL0     C54797   8.909   3.944   6.136 -1.0003  0.2191 -0.2061
  398MOL0     C54798   8.999   4.006   6.025 -1.1101  0.0935  0.2651
  398MOL0     C54799   9.145   3.997   6.081 -0.1020 -0.3518 -0.4353
  398MOL0     C54800   9.232   4.066   5.979  0.1475  0.0887  0.0606
  398MOL0     C54801   9.350   4.133   6.060 -0.4901  0.3434  0.1723
  398MOL0     C54802   9.433   4.238   5.987  0.2099 -0.0242  0.5978
  398MOL0     N54803   9.555   4.187   5.919  0.0840  0.1430 -1.1001
  398MOL0     C54804   9.543   4.113   5.804  0.0947 -0.1593 -0.2847
  398MOL0     C54805   9.670   4.097   5.760 -0.0881 -0.7170 -0.8693
  398MOL0     C54806   9.700   4.026   5.632 -0.1130  0.3603 -0.1106
  398MOL0     C54807   9.671   3.887   5.620 -0.2803  0.1759 -1.0140
  398MOL0     C54808   9.714   3.804   5.742 -0.6078 -0.4781  0.8845
  398MOL0     C54809   9.680   3.651   5.728  0.0046  0.2800  0.0504
  398MOL0     O54810   9.701   3.597   5.604  0.1998 -0.0428  0.4746
  398MOL0     C54811   9.822   3.536   5.574  0.0376 -0.9625 -0.2294
  398MOL0     C54812   9.957   3.553   5.629 -0.7186  0.0624  0.2879
  398MOL0     C54813  10.066   3.511   5.551  0.3511  0.3729 -0.3799
  398MOL0     C54814  10.209   3.537   5.615  1.0833 -0.5120 -0.3343
  398MOL0     C54815  10.051   3.459   5.419  0.0175  0.6559 -0.2233
  398MOL0     C54816  10.155   3.449   5.318 -0.4323  0.5289  0.2558
  398MOL0     O54817  10.266   3.531   5.329  0.1447  0.4509 -0.5232
  398MOL0     C54818  10.341   3.562   5.222  0.2120  0.5005  0.2865
  398MOL0     C54819  10.276   3.601   5.108  0.1208  0.3645  0.0124
  398MOL0     C54820  10.343   3.646   5.004  0.0245 -0.3443 -0.0918
  398MOL0     C54821  10.477   3.652   5.008 -0.3309 -0.0312  0.0126
  398MOL0     O54822  10.543   3.688   4.894 -0.1036  0.8248 -0.3180
  398MOL0     C54823  10.489   3.643   4.763 -0.1156 -0.8465  0.4254
  398MOL0     C54824  10.602   3.635   4.657  0.0416 -0.0236  0.7610
  398MOL0     C54825  10.554   3.636   4.514  0.1092 -0.3991  0.9614
  398MOL0     C54826  10.654   3.566   4.422  0.6261 -0.7740 -0.4422
  398MOL0     C54827  10.618   3.589   4.277 -0.7019  0.5365  0.7038
  398MOL0     C54828  10.689   3.710   4.222 -0.4178 -1.1603 -0.0254
  398MOL0     C54829  10.661   3.715   4.072 -0.8461 -0.0149 -1.3036
  398MOL0     C54830  10.723   3.833   4.003  0.5522  0.0256  0.5343
  398MOL0    Cl54831  10.769   3.792   3.834  0.2364 -0.2781 -0.1963
  398MOL0     C54832  10.555   3.622   5.123  0.5342 -0.5922 -0.1920
  398MOL0     C54833  10.478   3.591   5.233 -0.4443  0.1101 -0.6366
  398MOL0     O54834  10.141   3.366   5.229 -0.7021  0.0836  0.0138
  398MOL0     C54835   9.921   3.424   5.379  0.2711 -0.3471  0.8483
  398MOL0     C54836   9.807   3.461   5.448  0.0354 -1.2044 -0.2760
  398MOL0     N54837   9.756   4.177   5.833  0.3041  0.9497 -0.2060
  398MOL0     N54838   9.688   4.216   5.937  0.3739 -0.0595 -0.3635
  398MOL0     C54839   8.629   3.663   6.423 -0.4789  0.5315 -0.8244
  398MOL0     C54840   8.597   3.588   6.545 -0.2933  0.1521 -0.1417
  398MOL0     C54841   8.421   3.449   6.951 -0.6305 -1.2525 -0.1750
  398MOL0     C54842   8.495   3.486   7.069  0.1770  0.3379  0.1131
  398MOL0     C54843   8.475   3.435   7.196  0.9652  0.4672  0.7267
  398MOL0     C54844   8.385   3.323   7.206 -0.3704 -0.9756 -0.6057
  398MOL0     O54845   8.352   3.264   7.327  0.8074 -0.1829  0.3741
  398MOL0     C54846   8.459   3.213   7.419  0.4815 -0.1385  1.2247
  398MOL0     C54847   8.412   3.259   7.555 -0.1893 -0.3749 -0.5747
  398MOL0     C54848   8.292   3.172   7.609  0.1252  0.2384 -0.3041
  398MOL0     C54849   8.259   3.206   7.760  1.7253 -0.9027  0.1691
  398MOL0     C54850   8.134   3.135   7.802 -0.7824 -0.3857  0.1284
  398MOL0     C54851   8.051   3.054   7.831 -0.4662  1.1980 -0.7144
  398MOL0     C54852   8.300   3.309   7.096  0.5082 -0.4253  0.9282
  398MOL0     C54853   8.312   3.362   6.974 -0.0297  0.1398  0.7095
  398MOL0     C54854   8.217   3.295   6.866 -0.0354 -0.1433 -0.6106
  398MOL0     H54855   8.576   3.828   6.766  2.8464 -0.9195  0.2655
  398MOL0     H54856   8.634   3.972   6.565 -0.6211  0.5162 -1.3275
  398MOL0     H54857   8.567   3.863   6.176 -0.7621 -0.4070  1.6727
  398MOL0     H54858   8.694   3.739   6.176 -2.3350 -0.7275 -2.1480
  398MOL0     H54859   8.770   3.893   5.998  0.7761 -0.4166  0.5037
  398MOL0     H54860   8.736   4.040   6.102 -0.7227 -1.0184  2.7714
  398MOL0     H54861   8.922   3.999   6.230 -0.6883  1.6327 -1.0434
  398MOL0     H54862   8.951   3.847   6.164  1.7685  1.5812  0.6968
  398MOL0     H54863   8.989   3.947   5.933 -2.3018  1.1385 -0.3104
  398MOL0     H54864   8.969   4.110   6.011  1.4086  0.8603  0.1459
  398MOL0     H54865   9.166   3.890   6.089  1.9645  0.1455  1.8048
  398MOL0     H54866   9.152   4.039   6.182  2.0500  1.8056 -1.3834
  398MOL0     H54867   9.265   3.993   5.904  1.1691  1.1036 -0.5219
  398MOL0     H54868   9.179   4.152   5.937 -0.3807  0.8994  2.2314
  398MOL0     H54869   9.426   4.061   6.089 -0.1249 -0.2993 -2.1731
  398MOL0     H54870   9.310   4.182   6.149 -0.2305 -1.1940  1.1766
  398MOL0     H54871   9.360   4.284   5.920  2.0808 -0.1736 -1.6450
  398MOL0     H54872   9.460   4.321   6.054 -0.4571 -0.9759  2.1150
  398MOL0     H54873   9.453   4.076   5.755  0.0627 -0.1426 -0.2383
  398MOL0     H54874   9.804   4.045   5.603 -0.2245  0.0072 -0.7310
  398MOL0     H54875   9.639   4.063   5.550 -0.3759 -0.0831 -0.1178
  398MOL0     H54876   9.564   3.868   5.626 -0.0854 -0.5530  0.7025
  398MOL0     H54877   9.715   3.836   5.534  2.7481 -0.2971  0.6659
  398MOL0     H54878   9.820   3.816   5.764 -0.8948  1.3669  1.3680
  398MOL0     H54879   9.671   3.839   5.836  1.7322  1.8215  1.2161
  398MOL0     H54880   9.731   3.599   5.809 -1.6728 -0.0125  0.9567
  398MOL0     H54881   9.578   3.625   5.756 -0.9602  3.1939 -0.4613
  398MOL0     H54882   9.979   3.603   5.723  1.3789 -5.7049  3.3457
  398MOL0     H54883  10.206   3.515   5.722 -1.1135  0.1811 -0.2076
  398MOL0     H54884  10.225   3.642   5.589 -1.7848 -0.8949 -4.8282
  398MOL0     H54885  10.284   3.481   5.559  0.3551 -2.2672  0.3596
  398MOL0     H54886  10.169   3.582   5.112  0.2773 -0.4553  3.6950
  398MOL0     H54887  10.295   3.679   4.912  1.4037 -0.8979 -1.0518
  398MOL0     H54888  10.452   3.540   4.766 -1.0443 -0.5006  1.6126
  398MOL0     H54889  10.415   3.717   4.732 -0.1726  0.4194  3.2960
  398MOL0     H54890  10.661   3.724   4.683 -1.3912  1.1521  0.1450
  398MOL0     H54891  10.655   3.543   4.681 -0.1218 -1.3616 -3.2669
  398MOL0     H54892  10.546   3.739   4.477 -0.2246 -0.5397  0.6269
  398MOL0     H54893  10.459   3.582   4.503 -1.8593  2.8782  0.3357
  398MOL0     H54894  10.627   3.464   4.452 -0.2779  0.5106  3.9060
  398MOL0     H54895  10.760   3.588   4.437  0.1948  1.1885  0.0431
  398MOL0     H54896  10.656   3.500   4.227 -0.3128  0.7297  0.6459
  398MOL0     H54897  10.513   3.611   4.258 -0.7689 -1.6079 -1.8893
  398MOL0     H54898  10.797   3.704   4.239 -0.9827 -3.2843  4.2146
  398MOL0     H54899  10.649   3.801   4.269  1.3003  0.1587 -0.9765
  398MOL0     H54900  10.555   3.710   4.047 -1.4866  0.1328  1.0718
  398MOL0     H54901  10.710   3.624   4.037 -1.1173  1.2488 -5.4924
  398MOL0     H54902  10.818   3.864   4.048  2.8197  0.7915 -4.1281
  398MOL0     H54903  10.650   3.914   4.006 -0.4217 -0.8214  0.1137
  398MOL0     H54904  10.662   3.635   5.112 -0.0018  4.5640 -1.9983
  398MOL0     H54905  10.523   3.572   5.330 -0.1288 -0.8236 -0.9499
  398MOL0     H54906   9.913   3.374   5.283 -1.0558  0.2187  0.6441
  398MOL0     H54907   9.708   3.435   5.411  0.3223 -4.0375  0.7096
  398MOL0     H54908   8.642   3.602   6.333 -2.0327 -0.7762 -0.2191
  398MOL0     H54909   8.592   3.479   6.549  0.2314  0.1290 -0.0898
  398MOL0     H54910   8.564   3.568   7.052 -0.5495  0.8124 -0.6388
  398MOL0     H54911   8.526   3.470   7.285 -2.4429 -0.3143  3.1980
  398MOL0     H54912   8.451   3.104   7.411 -1.0616  0.0141  0.0542
  398MOL0     H54913   8.560   3.229   7.382 -0.4337 -1.5884 -2.2804
  398MOL0     H54914   8.410   3.368   7.556  2.2465 -0.2904  0.0198
  398MOL0     H54915   8.501   3.246   7.617 -0.9293  2.3654  1.2676
  398MOL0     H54916   8.211   3.189   7.538  0.9749 -0.4812 -1.4682
  398MOL0     H54917   8.315   3.065   7.601 -1.6135 -0.4162  2.1533
  398MOL0     H54918   8.243   3.313   7.774 -3.0284 -1.7601  3.8847
  398MOL0     H54919   8.343   3.171   7.822  1.3188 -0.4441  0.9979
  398MOL0     H54920   7.968   3.000   7.871  1.6113 -1.0925  0.8756
  398MOL0     H54921   8.220   3.236   7.098 -0.8604  0.9834 -0.0735
  398MOL0     H54922   8.279   3.221   6.814 -0.7932 -0.9489 -0.3862
  398MOL0     H54923   8.128   3.243   6.903 -0.8376  0.4893 -1.5922
  398MOL0     H54924   8.174   3.375   6.806 -2.4838 -0.1752  0.9495
  399MOL0     O54925  10.732  11.220   0.765 -0.0160  0.4424  0.5485
  399MOL0     C54926  10.767  11.328   0.812 -0.0627 -0.6629 -0.4433
  399MOL0     O54927  10.712  11.386   0.928  0.7401  0.3713  0.8153
  399MOL0     C54928  10.639  11.307   1.015 -0.7780  0.8892  0.2263
  399MOL0     C54929  10.679  11.174   1.036  0.3550  0.1010 -0.6169
  399MOL0     C54930  10.591  11.084   1.102 -0.2310 -0.0130  0.4886
  399MOL0     C54931  10.472  11.128   1.158 -0.2272  0.1421 -1.0809
  399MOL0     O54932  10.396  11.030   1.226 -0.3885 -0.2136  0.2965
  399MOL0     C54933  10.349  11.077   1.355  0.7226  0.4348 -0.7647
  399MOL0     C54934  10.313  10.956   1.442  0.2691 -0.0371  0.2906
  399MOL0     C54935  10.192  10.869   1.393  0.3806 -0.3132 -0.3359
  399MOL0     C54936  10.183  10.753   1.486 -0.5096  0.2496  0.5650
  399MOL0     C54937  10.083  10.648   1.418  0.7097  0.0403  0.1112
  399MOL0     C54938  10.061  10.538   1.510 -1.0067  0.2468 -0.5742
  399MOL0     C54939   9.964  10.426   1.474 -0.3036 -0.7098  0.1737
  399MOL0     C54940  10.013  10.356   1.348  0.6009  0.5391 -0.8016
  399MOL0     N54941   9.905  10.283   1.275 -0.3603  0.4167  0.6912
  399MOL0     C54942   9.839  10.321   1.157  0.6308 -0.2250 -0.3972
  399MOL0     C54943   9.761  10.221   1.116  1.3618  0.1435 -0.2718
  399MOL0     C54944   9.657  10.224   1.009 -0.2425 -0.1651 -0.1461
  399MOL0     C54945   9.546  10.326   1.027 -0.0445 -0.4426  0.2293
  399MOL0     C54946   9.471  10.280   1.148  0.3945 -0.2923 -0.7255
  399MOL0     C54947   9.418  10.402   1.223  0.6483 -0.1354  0.5393
  399MOL0     O54948   9.528  10.493   1.255  1.0580 -0.2176  0.7179
  399MOL0     C54949   9.573  10.505   1.380 -0.4067  0.1849 -0.2842
  399MOL0     C54950   9.637  10.625   1.416 -0.0837  0.4115  0.8140
  399MOL0     C54951   9.673  10.669   1.546 -0.1387  0.2771 -0.3985
  399MOL0     C54952   9.713  10.821   1.568 -0.1127  0.2952 -0.1167
  399MOL0     C54953   9.662  10.570   1.644  0.2979 -0.0747 -0.3468
  399MOL0     C54954   9.693  10.608   1.788  0.0116  0.1549 -1.3996
  399MOL0     O54955   9.652  10.733   1.827 -0.3596 -0.6995  0.9061
  399MOL0     C54956   9.688  10.789   1.947 -0.3014 -0.3888  0.3853
  399MOL0     C54957   9.714  10.927   1.954  0.1601  0.4136 -0.2221
  399MOL0     C54958   9.734  10.977   2.080 -0.6006 -0.5763 -0.5604
  399MOL0     C54959   9.725  10.906   2.200  0.0731 -0.7745 -0.1946
  399MOL0     O54960   9.731  10.975   2.330  0.4536 -0.3320  0.4503
  399MOL0     C54961   9.792  11.101   2.337 -0.2560 -0.7847 -0.6132
  399MOL0     C54962   9.799  11.153   2.489  0.1040  0.1722 -0.3897
  399MOL0     C54963   9.655  11.181   2.529  0.6209  0.6543  0.9805
  399MOL0     C54964   9.599  11.316   2.475 -1.0204  0.3687 -1.1666
  399MOL0     C54965   9.454  11.309   2.435 -0.2547  0.3671  0.1678
  399MOL0     C54966   9.374  11.346   2.564 -0.3059 -0.4641 -0.7551
  399MOL0     C54967   9.236  11.413   2.532 -0.0295 -0.3637  0.5404
  399MOL0     C54968   9.136  11.308   2.485 -0.5922  1.0108  1.4143
  399MOL0    Cl54969   8.979  11.384   2.457  0.1435  0.0071 -0.5135
  399MOL0     C54970   9.697  10.777   2.191  0.6501 -0.0319 -0.0485
  399MOL0     C54971   9.667  10.715   2.065  0.4936  0.8795  0.4467
  399MOL0     O54972   9.751  10.524   1.859 -0.7001  0.6040 -0.6763
  399MOL0     C54973   9.614  10.446   1.613  0.8491  0.8168 -0.2184
  399MOL0     C54974   9.558  10.416   1.486  0.5746  0.5031 -0.5617
  399MOL0     N54975   9.789  10.113   1.200 -0.8024 -0.6405  0.4792
  399MOL0     N54976   9.873  10.156   1.298 -0.0859 -0.1850 -0.0694
  399MOL0     C54977  10.434  11.261   1.144 -0.3297  0.2178  0.3139
  399MOL0     C54978  10.517  11.348   1.067  0.0703 -0.0257  0.2650
  399MOL0     C54979  10.894  11.393   0.762  0.6114  0.3477  0.4454
  399MOL0     C54980  10.957  11.477   0.853  0.1802 -0.0698 -0.6171
  399MOL0     C54981  11.062  11.554   0.815 -0.1101  0.2870 -0.8970
  399MOL0     C54982  11.122  11.540   0.680 -0.1158  0.1536 -0.1516
  399MOL0     O54983  11.230  11.601   0.640 -0.0753 -0.1356  0.3965
  399MOL0     C54984  11.307  11.673   0.736 -0.7441 -0.9552  0.1500
  399MOL0     C54985  11.402  11.585   0.805  0.2696  0.5770  0.6647
  399MOL0     C54986  11.486  11.514   0.700 -0.8435 -0.1427  0.0325
  399MOL0     C54987  11.604  11.434   0.755 -0.5923 -0.0264  0.0164
  399MOL0     C54988  11.570  11.339   0.858  0.5126 -0.5699  0.3222
  399MOL0     C54989  11.532  11.270   0.945  0.7130  0.5110  0.1589
  399MOL0     C54990  11.057  11.448   0.583  0.0289 -0.3501 -0.2213
  399MOL0     C54991  10.939  11.384   0.628 -0.6283  0.1040 -0.2173
  399MOL0     C54992  10.880  11.279   0.530  0.2131 -0.7009  0.1126
  399MOL0     H54993  10.766  11.139   0.982 -1.0410 -0.1087 -2.8813
  399MOL0     H54994  10.626  10.982   1.118  1.5956  0.2947 -1.2015
  399MOL0     H54995  10.262  11.143   1.345  0.7186  0.8005  1.2600
  399MOL0     H54996  10.423  11.133   1.412 -0.9874  0.6960  1.3416
  399MOL0     H54997  10.398  10.889   1.458 -1.0710 -0.9723  5.3526
  399MOL0     H54998  10.301  10.985   1.547  0.6126 -2.7921  1.1893
  399MOL0     H54999  10.092  10.914   1.398  0.4037 -0.2763 -0.2014
  399MOL0     H55000  10.209  10.843   1.288 -1.3882 -1.3738 -0.4083
  399MOL0     H55001  10.283  10.711   1.498  0.5343  2.1080 -1.0235
  399MOL0     H55002  10.151  10.786   1.585 -1.5434  2.0559 -0.3106
  399MOL0     H55003  10.121  10.621   1.319 -0.7826  0.7478 -0.6927
  399MOL0     H55004   9.988  10.695   1.390  0.9323  0.5179  0.1398
  399MOL0     H55005  10.158  10.490   1.528 -1.1074  1.1124  2.9724
  399MOL0     H55006  10.037  10.579   1.608  2.7455 -1.0142  1.0589
  399MOL0     H55007   9.868  10.468   1.442  0.1599  0.1437 -0.1329
  399MOL0     H55008   9.947  10.354   1.555  1.0971 -0.1858  0.9605
  399MOL0     H55009  10.038  10.439   1.281 -0.5014 -0.4437 -2.5327
  399MOL0     H55010  10.102  10.294   1.360 -0.7107 -1.4709 -0.8727
  399MOL0     H55011   9.849  10.419   1.112  0.3450  0.9678  1.9550
  399MOL0     H55012   9.630  10.122   0.981  1.5878 -1.1932  1.6400
  399MOL0     H55013   9.714  10.260   0.923  1.7769 -1.2416  0.6996
  399MOL0     H55014   9.574  10.432   1.033 -0.0520 -0.4399  0.2207
  399MOL0     H55015   9.475  10.329   0.944  0.8641  3.9290 -0.6371
  399MOL0     H55016   9.392  10.208   1.126 -1.5984  1.0614  1.5278
  399MOL0     H55017   9.534  10.230   1.223 -1.3814 -2.3999 -0.5347
  399MOL0     H55018   9.338  10.451   1.167  1.4080  0.3769 -0.1224
  399MOL0     H55019   9.364  10.361   1.309  0.2854 -3.8725 -1.2900
  399MOL0     H55020   9.639  10.704   1.342 -3.9094  2.6616  2.7811
  399MOL0     H55021   9.809  10.813   1.619  0.1653 -0.7306 -0.7664
  399MOL0     H55022   9.634  10.859   1.634  1.1176  0.8140  1.0934
  399MOL0     H55023   9.716  10.879   1.476  2.1394 -0.2286 -0.4202
  399MOL0     H55024   9.716  11.001   1.875  0.5456  0.3027 -0.3193
  399MOL0     H55025   9.756  11.083   2.090 -2.0601 -0.3254  0.3056
  399MOL0     H55026   9.890  11.102   2.287 -0.3628  0.7968 -0.8603
  399MOL0     H55027   9.730  11.165   2.273  1.3381 -1.6663 -3.1679
  399MOL0     H55028   9.830  11.075   2.559 -4.0219 -1.1024  0.2502
  399MOL0     H55029   9.860  11.243   2.498 -0.8537  1.5939 -5.3108
  399MOL0     H55030   9.649  11.183   2.639 -1.0309 -1.5987  1.0083
  399MOL0     H55031   9.603  11.087   2.506  1.3269  0.6264 -0.5917
  399MOL0     H55032   9.660  11.343   2.389  1.0363  0.3911  0.2266
  399MOL0     H55033   9.606  11.397   2.548  1.4387 -1.2123  0.5038
  399MOL0     H55034   9.423  11.379   2.357  1.7619  0.8361 -0.2720
  399MOL0     H55035   9.432  11.210   2.396  0.7275 -0.8934  2.6216
  399MOL0     H55036   9.422  11.429   2.618  0.2530 -0.6670 -0.9395
  399MOL0     H55037   9.359  11.257   2.625 -0.0962  1.0149  1.5758
  399MOL0     H55038   9.239  11.504   2.471 -0.0190 -0.0815  0.9573
  399MOL0     H55039   9.197  11.453   2.626  2.0018 -0.3420  1.4242
  399MOL0     H55040   9.128  11.230   2.561  1.7412 -0.6015  0.1216
  399MOL0     H55041   9.177  11.256   2.397 -1.1616  1.0990  1.0909
  399MOL0     H55042   9.699  10.723   2.284  2.2035  0.8157  0.4396
  399MOL0     H55043   9.626  10.615   2.057  1.3691  0.3819  1.7838
  399MOL0     H55044   9.586  10.373   1.689  0.4737 -0.1293 -1.2367
  399MOL0     H55045   9.496  10.328   1.471  3.5274 -1.8862  0.2012
  399MOL0     H55046  10.350  11.304   1.195 -0.4752  2.0851 -1.3842
  399MOL0     H55047  10.489  11.453   1.052  1.3025  0.3395  0.4643
  399MOL0     H55048  10.917  11.491   0.953  1.3070  2.1300 -0.4037
  399MOL0     H55049  11.111  11.615   0.890  1.2232  1.8658 -2.9646
  399MOL0     H55050  11.366  11.751   0.686  0.0544 -0.7920  1.2847
  399MOL0     H55051  11.241  11.733   0.799 -0.0866  0.6243 -0.5981
  399MOL0     H55052  11.348  11.505   0.857  0.5227 -2.3827 -3.1875
  399MOL0     H55053  11.462  11.646   0.873 -2.1262  2.8878  0.8766
  399MOL0     H55054  11.434  11.432   0.651 -2.5035 -0.1103  1.6278
  399MOL0     H55055  11.527  11.587   0.629  0.4792 -1.4276 -0.5754
  399MOL0     H55056  11.664  11.510   0.806  0.4537 -2.3223  2.4508
  399MOL0     H55057  11.660  11.382   0.677  0.6882 -2.6067  2.4785
  399MOL0     H55058  11.497  11.207   1.024 -1.3910  2.4280  0.8717
  399MOL0     H55059  11.100  11.425   0.486 -0.2007  4.7368 -1.8140
  399MOL0     H55060  10.773  11.301   0.524  0.4109 -0.0760 -2.3764
  399MOL0     H55061  10.926  11.296   0.432  0.4400 -1.7256  0.0227
  399MOL0     H55062  10.902  11.175   0.556  0.1960 -0.1208  2.6639
  400MOL0     O55063   8.605   0.755  10.596 -0.0685  0.2433  0.0179
  400MOL0     C55064   8.496   0.767  10.648 -0.2508 -0.9436  0.9227
  400MOL0     O55065   8.447   0.888  10.693 -0.0341 -0.3641  0.2615
  400MOL0     C55066   8.497   1.000  10.636 -0.5018  0.1056  0.1627
  400MOL0     C55067   8.541   1.100  10.720 -0.4122  1.0712 -0.5910
  400MOL0     C55068   8.613   1.206  10.674  0.6170  0.2430 -0.5586
  400MOL0     C55069   8.625   1.217  10.539 -0.5009 -0.5984  0.3516
  400MOL0     O55070   8.678   1.321  10.479 -0.5251 -0.1308  0.7793
  400MOL0     C55071   8.646   1.456  10.534  1.0372 -0.3722 -0.2471
  400MOL0     C55072   8.718   1.567  10.474  0.1651 -0.5522  0.8788
  400MOL0     C55073   8.869   1.565  10.497 -0.1575 -0.0268 -0.6428
  400MOL0     C55074   8.941   1.673  10.583 -0.2863  0.1776  0.4445
  400MOL0     C55075   9.085   1.694  10.541 -1.3164  0.0664  0.6927
  400MOL0     C55076   9.182   1.761  10.642 -0.0670  0.3887  0.4124
  400MOL0     C55077   9.317   1.780  10.574  0.0161 -0.0800 -0.7642
  400MOL0     C55078   9.434   1.772  10.673  0.2030 -0.3762 -0.1910
  400MOL0     N55079   9.559   1.771  10.611  0.7750  0.7077  0.0596
  400MOL0     C55080   9.604   1.852  10.510  0.7351  0.6699  0.1042
  400MOL0     C55081   9.728   1.808  10.492 -0.3702 -0.0958  0.1091
  400MOL0     C55082   9.825   1.857  10.386  0.4306  0.1100 -0.7498
  400MOL0     C55083   9.963   1.881  10.441  0.6710  0.0446 -0.2146
  400MOL0     C55084  10.052   1.955  10.343 -0.5195  0.5745 -0.2762
  400MOL0     C55085  10.208   1.945  10.385 -0.5239 -0.4210 -0.0119
  400MOL0     O55086  10.280   1.819  10.368 -0.0749  0.9134 -0.1834
  400MOL0     C55087  10.358   1.799  10.255 -0.0978 -0.5183  0.6439
  400MOL0     C55088  10.313   1.862  10.134  0.3238 -0.6212 -0.6459
  400MOL0     C55089  10.379   1.850  10.008  0.5176 -0.2420 -1.0674
  400MOL0     C55090  10.338   1.927   9.889 -0.7146  0.0878  0.2383
  400MOL0     C55091  10.503   1.776  10.013  0.3403 -0.0793  0.1276
  400MOL0     C55092  10.581   1.754   9.889  0.1295  0.0239  0.0392
  400MOL0     O55093  10.716   1.756   9.894  0.6045  0.1600 -0.2459
  400MOL0     C55094  10.789   1.724   9.789 -0.0137  0.4340  0.9882
  400MOL0     C55095  10.884   1.814   9.745 -0.5383  0.6730 -0.2189
  400MOL0     C55096  10.956   1.796   9.626 -0.4599  0.8465 -0.2678
  400MOL0     C55097  10.942   1.670   9.554  0.7176  0.5459 -0.2852
  400MOL0     O55098  11.018   1.642   9.450 -0.4336 -0.3655 -0.3294
  400MOL0     C55099  11.161   1.641   9.489 -0.9335 -0.0497  0.5211
  400MOL0     C55100  11.240   1.651   9.354 -0.3259  0.2514 -0.3569
  400MOL0     C55101  11.389   1.670   9.374  0.5806  0.5661  0.6256
  400MOL0     C55102  11.486   1.600   9.276  0.0995 -1.2026  0.5440
  400MOL0     C55103  11.627   1.618   9.325  0.1889 -0.1378 -0.8433
  400MOL0     C55104  11.678   1.756   9.291 -0.1312 -0.4516  0.0488
  400MOL0     C55105  11.833   1.751   9.317  0.4352  0.2942 -0.5165
  400MOL0     C55106  11.858   1.736   9.467  0.4542  0.2116 -0.6927
  400MOL0    Cl55107  12.029   1.788   9.486  0.1992 -0.0669  0.1277
  400MOL0     C55108  10.847   1.580   9.595  1.2611 -0.1093 -1.2041
  400MOL0     C55109  10.772   1.606   9.710  0.2717  0.4816  0.2657
  400MOL0     O55110  10.510   1.719   9.789 -1.0333 -0.0427 -0.9845
  400MOL0     C55111  10.542   1.711  10.131  0.3772 -0.5178  0.2790
  400MOL0     C55112  10.478   1.727  10.257 -0.4432  0.4491 -0.3364
  400MOL0     N55113   9.749   1.702  10.578  0.2259  0.5872  0.6533
  400MOL0     N55114   9.644   1.675  10.650 -0.6414 -1.3968 -1.1820
  400MOL0     C55115   8.563   1.129  10.457  0.4603 -0.3710  0.3985
  400MOL0     C55116   8.497   1.015  10.496  0.4009  0.1565  0.6226
  400MOL0     C55117   8.423   0.647  10.692 -0.1163  0.3729  0.1334
  400MOL0     C55118   8.366   0.646  10.822  0.7051  0.3887  0.1558
  400MOL0     C55119   8.287   0.540  10.865 -0.5709 -0.0394 -0.7100
  400MOL0     C55120   8.262   0.416  10.791  0.2817 -0.4049  0.1323
  400MOL0     O55121   8.199   0.298  10.830  0.0510 -0.1507 -0.0643
  400MOL0     C55122   8.131   0.298  10.954  0.9114 -0.3531 -0.3774
  400MOL0     C55123   8.041   0.174  10.977  0.1388 -0.7263 -0.0497
  400MOL0     C55124   7.986   0.171  11.125  0.4641  0.5909 -0.0085
  400MOL0     C55125   7.891   0.279  11.179  0.0494  0.0899 -0.4335
  400MOL0     C55126   7.794   0.320  11.076  0.3961 -0.0662 -0.3108
  400MOL0     C55127   7.715   0.356  10.995  0.1379  0.4958  0.8392
  400MOL0     C55128   8.328   0.420  10.671  1.0704 -0.5992  0.2059
  400MOL0     C55129   8.393   0.531  10.617  0.0674 -0.1677 -0.2938
  400MOL0     C55130   8.423   0.521  10.475  0.7716  0.1820  1.0365
  400MOL0     H55131   8.530   1.062  10.821 -0.2706 -2.0938 -1.6371
  400MOL0     H55132   8.660   1.277  10.742  2.2320 -3.4542  2.6127
  400MOL0     H55133   8.669   1.483  10.638  1.8183  6.1153 -1.6537
  400MOL0     H55134   8.543   1.488  10.518  1.5669  1.0974 -0.8423
  400MOL0     H55135   8.693   1.576  10.368 -3.4967  4.0185  1.7823
  400MOL0     H55136   8.689   1.662  10.521  0.4043 -0.1567  0.2262
  400MOL0     H55137   8.901   1.463  10.521 -1.2286 -0.8772 -2.5996
  400MOL0     H55138   8.916   1.580  10.399  0.0588 -2.4096 -0.9678
  400MOL0     H55139   8.896   1.773  10.589 -0.7074  0.1406 -1.3054
  400MOL0     H55140   8.941   1.633  10.684 -0.4507  0.1900  0.4493
  400MOL0     H55141   9.079   1.754  10.449 -1.8549  2.3779  2.1357
  400MOL0     H55142   9.127   1.597  10.513 -0.6890  0.8253 -1.1589
  400MOL0     H55143   9.149   1.860  10.674  1.9375  0.8461  1.1890
  400MOL0     H55144   9.186   1.691  10.726  0.9009  1.8618  1.6316
  400MOL0     H55145   9.327   1.871  10.514  0.8328  0.2768 -0.1022
  400MOL0     H55146   9.325   1.694  10.506  0.2951 -1.8233  1.3725
  400MOL0     H55147   9.438   1.861  10.737  1.5313  0.4492 -1.3451
  400MOL0     H55148   9.421   1.675  10.720  0.0001 -0.8449 -1.1893
  400MOL0     H55149   9.548   1.923  10.449  1.3238  0.4818 -0.6714
  400MOL0     H55150   9.784   1.941  10.329  2.1576  2.0730  0.7280
  400MOL0     H55151   9.836   1.780  10.309  0.7518 -0.2056 -0.3949
  400MOL0     H55152   9.956   1.927  10.540 -0.6282 -0.5659 -0.0067
  400MOL0     H55153  10.020   1.787  10.448  2.5352  1.2242  1.7698
  400MOL0     H55154  10.037   1.921  10.240  0.4417 -2.1961  0.4055
  400MOL0     H55155  10.039   2.064  10.350 -2.9712  0.3409 -0.3281
  400MOL0     H55156  10.261   2.025  10.334  0.8050 -0.6782  0.9263
  400MOL0     H55157  10.206   1.971  10.491 -2.9231 -1.2968  0.2214
  400MOL0     H55158  10.221   1.919  10.146 -0.9237 -2.1583 -2.2125
  400MOL0     H55159  10.258   1.879   9.832 -2.7441  0.6504  2.4432
  400MOL0     H55160  10.417   1.935   9.814  0.4420 -4.5649  0.6590
  400MOL0     H55161  10.296   2.024   9.916 -5.0656 -1.8034  1.2061
  400MOL0     H55162  10.894   1.910   9.795  0.5524  0.6324 -0.3312
  400MOL0     H55163  11.035   1.869   9.608 -0.3535  0.7631 -0.1398
  400MOL0     H55164  11.190   1.731   9.543  0.4518  0.1349 -0.4765
  400MOL0     H55165  11.192   1.550   9.541 -0.8860 -0.7572 -0.6998
  400MOL0     H55166  11.224   1.555   9.304  0.6634 -0.3296  0.4024
  400MOL0     H55167  11.200   1.739   9.302  0.2826  1.9473  1.8953
  400MOL0     H55168  11.415   1.644   9.477 -0.1896  1.4173  1.0510
  400MOL0     H55169  11.414   1.776   9.381  1.7038  0.2375  1.7512
  400MOL0     H55170  11.466   1.631   9.173 -3.9899 -2.9050  0.6627
  400MOL0     H55171  11.464   1.493   9.278 -2.1096 -0.8321 -0.8362
  400MOL0     H55172  11.620   1.609   9.434 -1.3529 -1.2080 -1.0044
  400MOL0     H55173  11.677   1.528   9.289 -0.3607 -0.7105 -0.2155
  400MOL0     H55174  11.626   1.822   9.361 -2.2789 -3.1495  1.1953
  400MOL0     H55175  11.670   1.788   9.186  2.5942 -1.0626 -0.4297
  400MOL0     H55176  11.871   1.849   9.284  1.7403 -0.7348 -2.2141
  400MOL0     H55177  11.876   1.676   9.251 -0.6082  1.0251 -2.0745
  400MOL0     H55178  11.847   1.630   9.491  0.1585  0.5064  0.5158
  400MOL0     H55179  11.785   1.796   9.521  1.6254  0.5209  0.6008
  400MOL0     H55180  10.819   1.499   9.527 -3.1860  0.2984 -0.1664
  400MOL0     H55181  10.681   1.546   9.715 -0.8782  2.1168 -0.1448
  400MOL0     H55182  10.628   1.646  10.138  0.7928  0.1379  1.3919
  400MOL0     H55183  10.506   1.674  10.348 -2.1521 -2.4899 -1.3883
  400MOL0     H55184   8.551   1.154  10.352 -2.5449 -0.7411  0.5630
  400MOL0     H55185   8.471   0.932  10.431 -0.6573 -0.8843  2.3253
  400MOL0     H55186   8.386   0.733  10.884 -3.0166  1.6546 -0.1885
  400MOL0     H55187   8.241   0.542  10.963  1.3295 -0.4018  0.2420
  400MOL0     H55188   8.210   0.308  11.029  1.2647  0.4408 -0.8436
  400MOL0     H55189   8.065   0.384  10.962  0.7923 -0.3349 -1.4751
  400MOL0     H55190   8.097   0.082  10.961  0.7154 -0.4425  0.3099
  400MOL0     H55191   7.963   0.175  10.900 -1.2823  3.2566  1.1687
  400MOL0     H55192   7.950   0.070  11.143 -1.0074  1.4195  2.0540
  400MOL0     H55193   8.069   0.176  11.197  1.0628 -1.8945 -0.4496
  400MOL0     H55194   7.947   0.364  11.220  0.4638 -0.5331  0.3187
  400MOL0     H55195   7.833   0.233  11.258  1.8331 -1.5295  0.0148
  400MOL0     H55196   7.649   0.393  10.919  0.4439  2.0324  1.2920
  400MOL0     H55197   8.321   0.339  10.599 -1.1164  0.7078 -1.1831
  400MOL0     H55198   8.333   0.514  10.413  2.2092  2.8058 -1.5815
  400MOL0     H55199   8.467   0.614  10.439  0.5303 -0.9556 -2.6511
  400MOL0     H55200   8.487   0.442  10.433 -1.6342 -1.4815  0.2896
  401MOL0     O55201   2.045  11.362   3.625  0.3370 -0.3554 -0.2052
  401MOL0     C55202   2.053  11.317   3.738 -0.7883  0.0141  0.3432
  401MOL0     O55203   2.160  11.312   3.823 -0.4768  0.1236 -0.3739
  401MOL0     C55204   2.287  11.317   3.765  0.3498  0.9440 -0.7756
  401MOL0     C55205   2.387  11.218   3.795  0.0051 -0.3017 -0.0312
  401MOL0     C55206   2.526  11.230   3.762  0.4308  0.7214  0.1017
  401MOL0     C55207   2.552  11.324   3.662  0.6558  0.2323  0.0476
  401MOL0     O55208   2.675  11.329   3.597 -0.3971  0.3941  0.6756
  401MOL0     C55209   2.787  11.276   3.673  0.5037  0.3113  0.3738
  401MOL0     C55210   2.922  11.313   3.613 -0.1907 -0.5323 -0.8590
  401MOL0     C55211   2.960  11.234   3.491  0.1727  0.8064 -0.0547
  401MOL0     C55212   3.050  11.308   3.392 -0.8331 -0.0940 -0.6506
  401MOL0     C55213   3.001  11.308   3.246  0.9087 -0.5263  0.0898
  401MOL0     C55214   3.093  11.398   3.164 -0.5382 -0.0683 -0.4307
  401MOL0     C55215   3.035  11.406   3.023  0.5521  0.0706  0.2215
  401MOL0     C55216   3.111  11.502   2.925  0.5397 -1.0240 -0.5629
  401MOL0     N55217   3.081  11.644   2.972  0.5632  0.9653 -0.0530
  401MOL0     C55218   2.970  11.720   2.919 -0.2638  0.2923 -0.2684
  401MOL0     C55219   2.998  11.848   2.961 -1.6879 -0.6305  1.3372
  401MOL0     C55220   2.912  11.973   2.962  1.3800  0.5826  0.7869
  401MOL0     C55221   2.762  11.946   2.984 -0.1848  0.0080  0.7056
  401MOL0     C55222   2.681  12.070   2.977 -0.1406 -0.8019 -0.2492
  401MOL0     C55223   2.692  12.139   2.844  0.0005 -0.3130 -0.4038
  401MOL0     O55224   2.600  12.243   2.832 -0.1278 -1.1116 -0.3564
  401MOL0     C55225   2.646  12.337   2.756  0.0130 -0.7432 -0.5107
  401MOL0     C55226   2.583  12.367   2.635 -0.4892  0.5431 -0.1939
  401MOL0     C55227   2.634  12.457   2.548 -0.0393 -0.4259  0.7872
  401MOL0     C55228   2.564  12.474   2.417 -0.3276  0.6392  0.2358
  401MOL0     C55229   2.744  12.535   2.585 -0.3967 -0.7197  0.0317
  401MOL0     C55230   2.814  12.641   2.509  0.8651  0.2263  0.3453
  401MOL0     O55231   2.844  12.757   2.572 -0.1941  0.5842  0.2917
  401MOL0     C55232   2.887  12.875   2.518 -0.0957  0.6678  0.0492
  401MOL0     C55233   2.808  12.992   2.538 -0.0337  0.7579 -0.1383
  401MOL0     C55234   2.849  13.118   2.492 -0.0204 -0.3246  1.0360
  401MOL0     C55235   2.973  13.123   2.422 -0.2165 -0.0553  0.5065
  401MOL0     O55236   3.029  13.247   2.407  0.4150 -0.5361  0.0189
  401MOL0     C55237   3.146  13.254   2.319 -0.0620  0.2524 -0.1603
  401MOL0     C55238   3.199  13.394   2.289  0.2919  0.9091 -0.3303
  401MOL0     C55239   3.108  13.474   2.207 -0.0833 -0.7661 -0.5591
  401MOL0     C55240   3.139  13.463   2.056  0.0601 -0.5540 -0.2292
  401MOL0     C55241   3.047  13.565   1.990 -0.3211  0.3810  1.4828
  401MOL0     C55242   3.058  13.542   1.832  0.0394  0.4461  0.6712
  401MOL0     C55243   2.949  13.630   1.758 -1.0491 -1.0141 -0.6171
  401MOL0     C55244   2.932  13.610   1.607  0.2639 -0.1839  0.6148
  401MOL0    Cl55245   2.820  13.734   1.524  0.1121  0.0592  0.2490
  401MOL0     C55246   3.049  13.001   2.390 -0.6017 -0.5961 -0.2095
  401MOL0     C55247   3.001  12.881   2.437 -0.3860  0.3274 -0.1018
  401MOL0     O55248   2.827  12.623   2.390  0.3539 -0.4204  0.1435
  401MOL0     C55249   2.798  12.519   2.714  0.3847 -0.4222 -0.8361
  401MOL0     C55250   2.752  12.418   2.802 -0.1253 -0.7838  0.0869
  401MOL0     N55251   3.114  11.842   3.034  0.7713 -0.4660  0.5024
  401MOL0     N55252   3.160  11.717   3.051 -0.0562 -0.1718  0.8678
  401MOL0     C55253   2.460  11.423   3.626  0.6118 -0.6607  0.7022
  401MOL0     C55254   2.324  11.422   3.678  0.1316  0.1324 -0.5998
  401MOL0     C55255   1.936  11.240   3.798 -0.8952 -0.4754 -0.8750
  401MOL0     C55256   1.964  11.139   3.890 -0.5170  0.9220 -0.3749
  401MOL0     C55257   1.874  11.048   3.938  0.4384  0.5409  0.1742
  401MOL0     C55258   1.738  11.082   3.925  0.2609 -0.9459 -0.2970
  401MOL0     O55259   1.650  11.007   3.997 -0.1263 -0.8336  0.2588
  401MOL0     C55260   1.518  11.065   4.029  1.0390 -0.4101 -0.1870
  401MOL0     C55261   1.449  10.972   4.132  0.4782 -0.7154 -0.0490
  401MOL0     C55262   1.310  11.010   4.160  0.5922 -0.8083  0.3297
  401MOL0     C55263   1.243  10.915   4.245 -0.0850 -0.2797  0.0387
  401MOL0     C55264   1.213  10.794   4.173  0.2334 -0.0449  0.7104
  401MOL0     C55265   1.190  10.687   4.130 -0.4658 -0.4297  0.1961
  401MOL0     C55266   1.706  11.200   3.851  0.8530  0.5986  0.1139
  401MOL0     C55267   1.799  11.277   3.785 -0.3405  0.2744  0.0203
  401MOL0     C55268   1.752  11.398   3.710 -0.3030  1.0058 -0.4337
  401MOL0     H55269   2.358  11.142   3.867  1.7031 -2.5516 -1.6015
  401MOL0     H55270   2.601  11.163   3.804  1.1260  1.4851  0.1016
  401MOL0     H55271   2.790  11.167   3.668  3.0564  0.3339 -0.2400
  401MOL0     H55272   2.794  11.325   3.771 -0.9199  0.5766  0.3508
  401MOL0     H55273   2.923  11.422   3.602 -0.3814  0.0681  3.2652
  401MOL0     H55274   3.002  11.299   3.687 -2.3797  0.6411  1.9088
  401MOL0     H55275   3.013  11.145   3.526 -0.7366  0.2509 -0.0602
  401MOL0     H55276   2.872  11.195   3.438 -1.2664  0.0094  2.7458
  401MOL0     H55277   3.077  11.409   3.423  2.2082 -1.5237  2.0652
  401MOL0     H55278   3.145  11.255   3.386 -1.4777 -1.2300 -1.2615
  401MOL0     H55279   2.898  11.344   3.240  1.0886 -0.1244 -0.9287
  401MOL0     H55280   3.005  11.204   3.210 -1.1925 -0.0365 -1.7594
  401MOL0     H55281   3.102  11.496   3.211  1.1861  1.2454 -3.2157
  401MOL0     H55282   3.197  11.361   3.166 -1.3379 -2.4820  0.9299
  401MOL0     H55283   2.932  11.440   3.022  1.2942  2.4958 -0.3324
  401MOL0     H55284   3.041  11.307   2.977 -1.5720 -1.0519  2.1961
  401MOL0     H55285   3.218  11.480   2.925  0.7859 -0.2147 -3.5237
  401MOL0     H55286   3.071  11.490   2.824  0.1959 -0.4296 -0.5047
  401MOL0     H55287   2.883  11.681   2.868  0.3884 -1.1833 -0.3082
  401MOL0     H55288   2.916  12.011   2.859  0.4435 -0.1623  0.4575
  401MOL0     H55289   2.935  12.060   3.024  0.5486  0.0742  1.8381
  401MOL0     H55290   2.705  11.884   2.914 -1.5072  1.1766  0.7060
  401MOL0     H55291   2.741  11.896   3.079  1.2591 -1.8837  0.0959
  401MOL0     H55292   2.573  12.054   2.992 -0.4190  0.2901 -0.9955
  401MOL0     H55293   2.710  12.132   3.063  1.9302 -0.5641 -1.0839
  401MOL0     H55294   2.794  12.177   2.831  0.2783 -1.3689 -1.4827
  401MOL0     H55295   2.672  12.066   2.766 -0.5332  1.4486 -1.9786
  401MOL0     H55296   2.504  12.300   2.602  0.2581 -0.8570  0.7887
  401MOL0     H55297   2.632  12.464   2.332  0.4699 -1.9870  1.0812
  401MOL0     H55298   2.532  12.578   2.422  1.6196  1.2690  0.4685
  401MOL0     H55299   2.490  12.399   2.389  2.8514 -1.2161 -4.3205
  401MOL0     H55300   2.714  12.976   2.590  0.6973  0.8141  1.2415
  401MOL0     H55301   2.786  13.205   2.509 -2.7795 -1.3540 -2.5943
  401MOL0     H55302   3.231  13.213   2.374  1.3788  3.2853  0.0967
  401MOL0     H55303   3.137  13.198   2.226  1.2232  0.5941 -0.5113
  401MOL0     H55304   3.210  13.448   2.384  2.1078  1.7624 -0.9821
  401MOL0     H55305   3.299  13.377   2.248  0.9698 -0.7190  1.7707
  401MOL0     H55306   3.118  13.579   2.236  1.6632 -0.9101 -0.5237
  401MOL0     H55307   3.009  13.439   2.238  0.5203 -1.9030  0.1581
  401MOL0     H55308   3.133  13.359   2.021  1.0393 -0.6979  0.0057
  401MOL0     H55309   3.243  13.492   2.043 -0.6549  2.0760 -0.5679
  401MOL0     H55310   2.943  13.544   2.017 -0.8577  0.1190 -0.6074
  401MOL0     H55311   3.074  13.666   2.023 -2.8973  1.4225  0.6528
  401MOL0     H55312   3.026  13.438   1.817 -1.5927  1.0248 -0.0891
  401MOL0     H55313   3.158  13.549   1.788 -0.4329  0.4955 -0.4178
  401MOL0     H55314   2.995  13.728   1.778  1.6063 -2.2255 -0.3389
  401MOL0     H55315   2.849  13.632   1.802  0.0731 -0.1947  2.1928
  401MOL0     H55316   2.884  13.512   1.600 -0.5583  0.3238 -2.0251
  401MOL0     H55317   3.027  13.602   1.553  0.2842  1.4087  0.3636
  401MOL0     H55318   3.139  13.007   2.329 -1.7196  0.5970 -1.8472
  401MOL0     H55319   3.048  12.785   2.419 -0.2032 -0.1959  2.6315
  401MOL0     H55320   2.882  12.582   2.739 -1.3182  1.7248 -0.2016
  401MOL0     H55321   2.792  12.417   2.903  1.8488  1.3180 -0.6030
  401MOL0     H55322   2.484  11.499   3.553 -0.1134  0.6243  1.7477
  401MOL0     H55323   2.254  11.495   3.638 -2.7290 -1.6509  0.8186
  401MOL0     H55324   2.067  11.117   3.916 -0.8503 -0.9541 -0.5405
  401MOL0     H55325   1.910  10.971   4.006 -0.2320 -0.4383 -0.5405
  401MOL0     H55326   1.523  11.168   4.063 -3.5839  0.5561 -1.7083
  401MOL0     H55327   1.451  11.087   3.945  0.5387  2.5337  0.8693
  401MOL0     H55328   1.498  10.968   4.230 -0.3249  2.8411  0.6543
  401MOL0     H55329   1.458  10.874   4.085  1.5143  0.1609 -1.7821
  401MOL0     H55330   1.309  11.111   4.202  2.4499  0.0114 -1.4062
  401MOL0     H55331   1.255  11.016   4.065  1.7507 -2.3436 -0.4883
  401MOL0     H55332   1.142  10.947   4.273  0.2160  2.3167 -1.4904
  401MOL0     H55333   1.295  10.908   4.342 -0.4432  1.6948  0.4184
  401MOL0     H55334   1.168  10.589   4.091 -1.5155  0.5982 -1.9734
  401MOL0     H55335   1.604  11.233   3.835  0.8942  0.7162  0.0926
  401MOL0     H55336   1.834  11.471   3.708 -1.2700  2.1023 -1.8001
  401MOL0     H55337   1.706  11.371   3.615 -0.2646 -2.7831  0.4683
  401MOL0     H55338   1.671  11.444   3.767 -1.1211 -0.5171 -0.3234
  402MOL0     O55339   8.948   2.297   7.174 -0.0163 -0.3328  0.2339
  402MOL0     C55340   8.894   2.258   7.277 -1.0805 -0.1285  0.8583
  402MOL0     O55341   8.962   2.185   7.375  0.1182 -0.3234  0.0601
  402MOL0     C55342   9.088   2.146   7.351  0.7931 -0.3661 -0.0149
  402MOL0     C55343   9.187   2.235   7.390  0.1241  0.0275  0.7963
  402MOL0     C55344   9.317   2.198   7.350 -0.7463  0.2841  0.0751
  402MOL0     C55345   9.339   2.070   7.287  0.5110 -1.0801  0.5311
  402MOL0     O55346   9.461   2.046   7.245 -0.2427 -0.2364  0.4027
  402MOL0     C55347   9.474   2.059   7.105 -0.3015 -0.0727  0.7250
  402MOL0     C55348   9.623   2.107   7.088  1.1570 -0.3935  0.7445
  402MOL0     C55349   9.728   2.003   7.142 -0.7837 -0.4144 -0.6592
  402MOL0     C55350   9.869   2.053   7.103 -0.6802  0.4638 -0.5246
  402MOL0     C55351   9.983   1.954   7.119 -0.6666  0.3137  0.2317
  402MOL0     C55352  10.122   1.999   7.073  0.9812 -0.3419  0.2711
  402MOL0     C55353  10.232   1.893   7.094 -0.3463 -0.4878  0.0504
  402MOL0     C55354  10.220   1.777   7.001 -0.3323 -0.0646 -0.7065
  402MOL0     N55355  10.349   1.716   6.965  0.7331 -0.1638  0.6336
  402MOL0     C55356  10.391   1.705   6.833  0.3154 -0.0061  0.3704
  402MOL0     C55357  10.509   1.637   6.843  0.5162  1.2395 -0.6802
  402MOL0     C55358  10.599   1.600   6.725  0.8421  0.8121  0.2492
  402MOL0     C55359  10.606   1.444   6.703 -0.1147  0.6193  0.6584
  402MOL0     C55360  10.490   1.378   6.635  0.3736  0.7958 -0.8478
  402MOL0     C55361  10.370   1.363   6.727  0.3041  0.6822 -0.0122
  402MOL0     O55362  10.264   1.293   6.648 -0.5294  0.2901 -0.2429
  402MOL0     C55363  10.190   1.375   6.566  1.3633 -0.9608  1.0648
  402MOL0     C55364  10.189   1.508   6.553  0.0562 -0.1689  1.0365
  402MOL0     C55365  10.103   1.577   6.462 -0.7688  0.2340 -0.1585
  402MOL0     C55366  10.113   1.729   6.469  0.3966  0.3499  0.1447
  402MOL0     C55367   9.999   1.504   6.385 -1.5488 -1.2892  0.2120
  402MOL0     C55368   9.911   1.560   6.291 -0.1260  0.9742  0.2701
  402MOL0     O55369   9.783   1.511   6.306  0.5967  0.4063  0.7200
  402MOL0     C55370   9.680   1.552   6.220  0.8983 -0.4272 -0.0719
  402MOL0     C55371   9.547   1.590   6.265  0.0896 -1.1191  0.2031
  402MOL0     C55372   9.445   1.608   6.178  0.3582 -0.5044  0.3793
  402MOL0     C55373   9.462   1.605   6.039 -0.5827  0.4681  0.4933
  402MOL0     O55374   9.348   1.632   5.960  0.3462 -0.1967  0.1001
  402MOL0     C55375   9.351   1.722   5.849 -0.9361  0.3290 -0.9452
  402MOL0     C55376   9.317   1.639   5.726 -0.6071  0.8542 -0.7457
  402MOL0     C55377   9.382   1.700   5.606 -0.0581  0.0539 -0.5991
  402MOL0     C55378   9.289   1.758   5.509 -0.0814  0.1725 -0.1575
  402MOL0     C55379   9.370   1.798   5.383 -0.3417  0.2487  0.0054
  402MOL0     C55380   9.277   1.866   5.279 -0.1878  0.0878  0.5569
  402MOL0     C55381   9.351   1.910   5.156  0.7012  0.1493 -0.3818
  402MOL0     C55382   9.378   1.802   5.058 -0.7452  0.6706  0.2569
  402MOL0    Cl55383   9.222   1.750   4.969 -0.2325  0.3270  0.3638
  402MOL0     C55384   9.593   1.570   5.982  0.5113 -0.4117 -0.2656
  402MOL0     C55385   9.700   1.552   6.077 -1.0307  0.9213 -0.3406
  402MOL0     O55386   9.949   1.651   6.217  0.2733  0.6523 -0.3890
  402MOL0     C55387   9.997   1.367   6.409  0.3277 -0.2305  0.5082
  402MOL0     C55388  10.091   1.303   6.491  0.6639  0.6061 -0.1797
  402MOL0     N55389  10.550   1.622   6.976  1.0363 -0.6394  0.7691
  402MOL0     N55390  10.447   1.669   7.049  0.3572  0.3899  0.0602
  402MOL0     C55391   9.238   1.980   7.268  0.7793 -0.7433 -0.5609
  402MOL0     C55392   9.109   2.015   7.301  0.4749 -0.3834 -0.0941
  402MOL0     C55393   8.754   2.290   7.301 -0.0582  0.3583 -0.8419
  402MOL0     C55394   8.669   2.181   7.324  0.1757  1.0753 -0.0693
  402MOL0     C55395   8.533   2.197   7.338  0.2089 -0.7572 -1.0183
  402MOL0     C55396   8.481   2.335   7.329 -0.2002  0.9495  0.9026
  402MOL0     O55397   8.346   2.349   7.328 -0.7288  0.0081  0.0701
  402MOL0     C55398   8.269   2.251   7.240  0.1007  0.3768 -0.0736
  402MOL0     C55399   8.160   2.325   7.162 -0.2994 -0.4301  0.8587
  402MOL0     C55400   8.042   2.361   7.254 -0.6984  1.0541 -1.7408
  402MOL0     C55401   7.932   2.403   7.163  0.1149  0.3242  0.1724
  402MOL0     C55402   7.873   2.292   7.076  0.5421  0.7433 -0.5642
  402MOL0     C55403   7.817   2.202   7.021 -0.5142  0.6575  0.6427
  402MOL0     C55404   8.567   2.432   7.300  0.1349  0.6875  0.2076
  402MOL0     C55405   8.703   2.415   7.286 -0.7279 -0.8099 -0.3227
  402MOL0     C55406   8.797   2.541   7.286 -0.1153 -0.7211  0.7286
  402MOL0     H55407   9.152   2.323   7.442 -2.7664 -1.8504  2.3187
  402MOL0     H55408   9.402   2.264   7.366  0.9428 -1.3271 -1.6600
  402MOL0     H55409   9.419   2.141   7.058  2.0028  2.2392  1.8201
  402MOL0     H55410   9.450   1.962   7.059 -1.9046  0.9906 -0.8135
  402MOL0     H55411   9.632   2.114   6.980  1.3031 -2.1280  0.6190
  402MOL0     H55412   9.640   2.201   7.143  1.5908  0.0384 -0.1035
  402MOL0     H55413   9.745   1.995   7.249  3.6036 -1.0703 -1.2098
  402MOL0     H55414   9.713   1.908   7.089  0.1639 -0.0093 -1.7009
  402MOL0     H55415   9.863   2.081   6.998 -1.0551 -0.2021 -0.6872
  402MOL0     H55416   9.882   2.149   7.153 -1.7696 -0.0700  0.8893
  402MOL0     H55417   9.966   1.867   7.055 -1.4678 -0.7950  1.8876
  402MOL0     H55418  10.001   1.908   7.217 -0.6345 -1.7374 -0.6839
  402MOL0     H55419  10.110   2.029   6.969 -1.7167 -0.0319  0.6007
  402MOL0     H55420  10.133   2.094   7.127 -0.5488  0.4703 -0.7706
  402MOL0     H55421  10.227   1.864   7.200 -1.3945 -1.1488 -0.1679
  402MOL0     H55422  10.330   1.939   7.077 -0.0090 -1.2737 -0.1836
  402MOL0     H55423  10.164   1.692   7.039  2.6823 -1.7530  0.2564
  402MOL0     H55424  10.174   1.816   6.910  2.3577  2.6029 -1.1183
  402MOL0     H55425  10.347   1.743   6.742 -1.8000 -0.4617  1.1340
  402MOL0     H55426  10.699   1.641   6.741  0.0513  3.4237 -0.9539
  402MOL0     H55427  10.562   1.635   6.628 -1.8084  0.7956  1.1766
  402MOL0     H55428  10.691   1.420   6.638  0.6236 -0.1441  1.8611
  402MOL0     H55429  10.618   1.392   6.798  0.7070 -1.3077 -0.4430
  402MOL0     H55430  10.460   1.445   6.553 -0.3810  3.1126  1.2054
  402MOL0     H55431  10.523   1.282   6.593 -0.6255  0.5127 -1.0247
  402MOL0     H55432  10.386   1.304   6.818  3.4530  4.3113  2.0441
  402MOL0     H55433  10.342   1.462   6.764  0.3660 -0.1891  2.4886
  402MOL0     H55434  10.263   1.574   6.595 -0.6888  1.9891 -0.8421
  402MOL0     H55435  10.185   1.775   6.400  0.5007 -1.6263 -1.1765
  402MOL0     H55436  10.132   1.763   6.571  1.4561 -1.0503  0.4508
  402MOL0     H55437  10.019   1.774   6.438 -0.1943  0.7432  2.4071
  402MOL0     H55438   9.534   1.606   6.371 -0.5987 -0.2813  0.0013
  402MOL0     H55439   9.350   1.629   6.227 -0.4144  0.5391 -1.4683
  402MOL0     H55440   9.278   1.800   5.873  0.1937  0.5971  2.0586
  402MOL0     H55441   9.455   1.749   5.831 -1.5340  2.2883 -1.7726
  402MOL0     H55442   9.341   1.533   5.735 -0.3189  0.9256 -0.6717
  402MOL0     H55443   9.210   1.647   5.706 -0.7287  0.3000 -0.3466
  402MOL0     H55444   9.432   1.623   5.547 -0.8464 -0.5725 -0.4726
  402MOL0     H55445   9.451   1.781   5.629  0.0229 -0.5055  1.2810
  402MOL0     H55446   9.244   1.841   5.565  0.2915  0.4697 -0.2926
  402MOL0     H55447   9.214   1.683   5.482 -0.7220  1.0157 -0.8203
  402MOL0     H55448   9.442   1.876   5.411 -1.0547  0.7431  0.5039
  402MOL0     H55449   9.409   1.708   5.336  1.0958 -0.1034  1.7704
  402MOL0     H55450   9.232   1.959   5.313 -2.8283 -0.1366 -1.9774
  402MOL0     H55451   9.196   1.798   5.250 -2.4562  2.7162  0.3830
  402MOL0     H55452   9.445   1.955   5.191 -0.5651  0.6260  2.6881
  402MOL0     H55453   9.290   1.986   5.106 -1.2508  0.5667  2.4142
  402MOL0     H55454   9.417   1.714   5.112 -1.0073  1.1453  1.2400
  402MOL0     H55455   9.462   1.827   4.993  1.4109 -0.5934  2.3666
  402MOL0     H55456   9.615   1.564   5.876 -1.6829  0.0224 -0.7965
  402MOL0     H55457   9.803   1.525   6.057 -0.9405  0.8453  0.2036
  402MOL0     H55458   9.918   1.323   6.349 -1.4820  1.9704  1.1088
  402MOL0     H55459  10.080   1.195   6.489 -0.9064  0.7478 -0.4544
  402MOL0     H55460   9.257   1.879   7.233  1.0102 -1.8323  2.4447
  402MOL0     H55461   9.020   1.955   7.285  1.5613 -2.4341  1.0583
  402MOL0     H55462   8.711   2.081   7.334  1.0208  1.3064 -1.0245
  402MOL0     H55463   8.470   2.111   7.361  1.0564 -0.7998  1.4086
  402MOL0     H55464   8.330   2.193   7.170 -0.7070  1.1012 -1.4267
  402MOL0     H55465   8.223   2.190   7.318 -1.5378 -1.2025 -2.1513
  402MOL0     H55466   8.133   2.251   7.086  1.6948 -0.1784 -0.1527
  402MOL0     H55467   8.199   2.418   7.119  0.5068 -0.8232  0.7219
  402MOL0     H55468   8.027   2.287   7.333  1.3071  1.7582 -0.6356
  402MOL0     H55469   8.081   2.442   7.315  0.9519 -1.1088  0.2594
  402MOL0     H55470   7.958   2.486   7.097  1.2864  1.4425  1.9279
  402MOL0     H55471   7.856   2.445   7.230  0.5818  0.0314  0.9089
  402MOL0     H55472   7.760   2.120   6.982  1.0630  0.8429 -2.3576
  402MOL0     H55473   8.532   2.534   7.306 -0.6358  0.4039  0.8211
  402MOL0     H55474   8.738   2.627   7.317 -0.3865  0.6160 -3.0605
  402MOL0     H55475   8.885   2.533   7.351  4.3949  0.2741 -4.4840
  402MOL0     H55476   8.839   2.553   7.186  3.8228  0.5866  2.3163
  403MOL0     O55477   8.229   3.539   9.133  0.3401 -0.3040 -0.3568
  403MOL0     C55478   8.135   3.615   9.147  0.3658  0.2827  0.5111
  403MOL0     O55479   7.999   3.579   9.115 -0.4273 -0.2793 -0.8417
  403MOL0     C55480   7.971   3.451   9.095 -0.7437  0.5643 -0.8523
  403MOL0     C55481   7.954   3.417   8.964 -0.8953 -0.2879 -0.3084
  403MOL0     C55482   7.933   3.291   8.927  0.3586  0.3916  0.1003
  403MOL0     C55483   7.930   3.194   9.038 -0.2476  0.2291 -0.4974
  403MOL0     O55484   7.914   3.058   9.022 -0.8140 -0.9206  0.1813
  403MOL0     C55485   7.948   2.991   8.900  0.1499  0.1341 -1.2751
  403MOL0     C55486   8.059   2.894   8.936 -0.3872  0.5900 -0.0863
  403MOL0     C55487   8.190   2.970   8.979  0.7255  1.0902 -0.2131
  403MOL0     C55488   8.299   2.871   9.011  1.0248 -0.0960 -0.1868
  403MOL0     C55489   8.429   2.937   9.063 -0.7154  0.8609  0.0528
  403MOL0     C55490   8.541   2.852   9.112 -0.5291  0.2202  0.4791
  403MOL0     C55491   8.590   2.739   9.028 -0.1020 -0.3668  0.4067
  403MOL0     C55492   8.670   2.644   9.122 -0.2723 -0.6052  0.2667
  403MOL0     N55493   8.809   2.707   9.130  0.4520 -0.1739 -0.4232
  403MOL0     C55494   8.861   2.756   9.241 -1.3708 -0.2071  0.9198
  403MOL0     C55495   8.993   2.770   9.209  0.3021  0.6042  0.0927
  403MOL0     C55496   9.104   2.832   9.295 -0.0297 -0.1212  0.1886
  403MOL0     C55497   9.104   2.988   9.286 -0.5823 -0.0694 -0.1740
  403MOL0     C55498   9.216   3.049   9.386  0.1820  0.2720  0.6201
  403MOL0     C55499   9.260   3.186   9.359 -1.4857 -1.1616 -0.3391
  403MOL0     O55500   9.361   3.226   9.459 -0.2074  0.5282  0.1917
  403MOL0     C55501   9.313   3.257   9.588 -0.2525 -1.1329 -0.1766
  403MOL0     C55502   9.189   3.316   9.622 -0.0016  0.8860  0.5208
  403MOL0     C55503   9.160   3.376   9.744  1.3146  0.9002  0.8682
  403MOL0     C55504   9.032   3.457   9.755  0.1650 -0.4697 -1.2754
  403MOL0     C55505   9.260   3.367   9.844  0.1101  0.4115  0.0789
  403MOL0     C55506   9.241   3.415   9.977  0.4774  0.4506 -0.7517
  403MOL0     O55507   9.354   3.431  10.052 -0.7118  0.6091 -0.7617
  403MOL0     C55508   9.360   3.479  10.178  1.1696 -0.2338  0.7740
  403MOL0     C55509   9.285   3.437  10.285 -0.1031  0.9713  0.0431
  403MOL0     C55510   9.302   3.500  10.411 -0.6605 -0.6120  0.5220
  403MOL0     C55511   9.393   3.605  10.421 -0.3942 -0.7442 -1.3293
  403MOL0     O55512   9.402   3.665  10.549  0.1046  0.1066  0.8920
  403MOL0     C55513   9.519   3.746  10.574  0.5060 -0.2378 -0.6788
  403MOL0     C55514   9.492   3.799  10.721 -0.5880  0.3476 -1.0131
  403MOL0     C55515   9.455   3.691  10.830  0.1930 -0.1807 -0.4389
  403MOL0     C55516   9.419   3.763  10.963 -0.8370  0.4499  0.0816
  403MOL0     C55517   9.439   3.667  11.088 -0.4630  0.7990 -0.3773
  403MOL0     C55518   9.423   3.734  11.226 -0.4954  0.4219 -0.1365
  403MOL0     C55519   9.423   3.618  11.342 -1.0258  0.0310 -0.0724
  403MOL0     C55520   9.388   3.676  11.473 -0.4018 -0.1205 -0.1256
  403MOL0    Cl55521   9.535   3.745  11.560  0.3163 -0.3074 -0.1469
  403MOL0     C55522   9.465   3.652  10.318  0.9498  0.3071 -0.3015
  403MOL0     C55523   9.450   3.585  10.197 -0.3606  0.8637  0.3115
  403MOL0     O55524   9.130   3.436  10.025 -0.1549 -0.2975 -0.4719
  403MOL0     C55525   9.385   3.306   9.806 -0.4625  1.0545 -0.8072
  403MOL0     C55526   9.414   3.251   9.682  0.1216 -0.4190 -0.4603
  403MOL0     N55527   9.018   2.734   9.076  0.5709  0.5389 -0.1133
  403MOL0     N55528   8.902   2.684   9.035  0.0741 -0.0665 -0.3112
  403MOL0     C55529   7.942   3.225   9.170 -0.1835  0.5136 -0.3521
  403MOL0     C55530   7.958   3.359   9.202 -0.2923 -0.2662  1.3552
  403MOL0     C55531   8.182   3.758   9.180  0.7316  0.8513  0.7573
  403MOL0     C55532   8.318   3.791   9.190 -0.1958 -0.3273  0.4530
  403MOL0     C55533   8.361   3.897   9.271  1.0709 -0.3567  0.6441
  403MOL0     C55534   8.278   3.990   9.329  1.0890 -0.1244  0.9115
  403MOL0     O55535   8.340   4.092   9.399 -0.1343 -0.1487 -0.6069
  403MOL0     C55536   8.261   4.182   9.472  0.9550  0.4852  0.5591
  403MOL0     C55537   8.247   4.131   9.617  0.9431 -0.4117 -0.9126
  403MOL0     C55538   8.361   4.148   9.717 -0.9511 -0.5341  0.2760
  403MOL0     C55539   8.300   4.154   9.858 -1.1258  0.4339 -0.0637
  403MOL0     C55540   8.216   4.035   9.909 -1.2378 -0.4331  0.3083
  403MOL0     C55541   8.152   3.952   9.960  0.8277 -0.4085  0.2353
  403MOL0     C55542   8.136   3.966   9.300  0.0093 -0.8562  0.8680
  403MOL0     C55543   8.085   3.847   9.238 -0.8064 -0.3637 -0.9517
  403MOL0     C55544   7.943   3.837   9.220 -0.1303  0.4383 -0.6076
  403MOL0     H55545   7.962   3.496   8.890 -2.8961  1.2350  0.9946
  403MOL0     H55546   7.902   3.270   8.826  2.3583 -2.8737  0.0150
  403MOL0     H55547   7.972   3.063   8.821 -0.6824 -1.0959 -2.6855
  403MOL0     H55548   7.861   2.935   8.863  0.2372  0.2257 -1.6256
  403MOL0     H55549   8.029   2.832   9.021  0.6269  0.2973  0.0653
  403MOL0     H55550   8.075   2.818   8.859  0.1415 -0.3166  0.9037
  403MOL0     H55551   8.231   3.031   8.898  2.1063  1.7055  0.9244
  403MOL0     H55552   8.158   3.029   9.065 -0.3317  0.3133 -0.0542
  403MOL0     H55553   8.265   2.793   9.080 -0.9214 -1.2774 -2.2958
  403MOL0     H55554   8.312   2.818   8.916 -3.1780 -1.3171 -0.3053
  403MOL0     H55555   8.405   2.997   9.151 -4.7669 -0.2612 -0.0856
  403MOL0     H55556   8.467   2.996   8.979 -0.9962 -1.4179 -1.7747
  403MOL0     H55557   8.631   2.914   9.118 -0.3728  0.2443 -1.5545
  403MOL0     H55558   8.516   2.810   9.210 -4.7780  1.4726  0.1531
  403MOL0     H55559   8.643   2.778   8.941 -0.0255 -2.6970 -0.6413
  403MOL0     H55560   8.502   2.690   8.984 -0.9072  0.1951  1.3373
  403MOL0     H55561   8.621   2.623   9.217 -0.5320 -1.7413 -0.1090
  403MOL0     H55562   8.677   2.544   9.078  1.1431 -0.3822 -0.0513
  403MOL0     H55563   8.831   2.748   9.345 -1.5232 -1.6232  0.7906
  403MOL0     H55564   9.196   2.786   9.259 -0.3041 -0.9990  0.5774
  403MOL0     H55565   9.084   2.807   9.399  1.8101 -1.3946  0.2764
  403MOL0     H55566   9.131   3.022   9.185  0.2627  1.9060  0.6616
  403MOL0     H55567   9.012   3.033   9.325  1.2829  2.6122  1.4697
  403MOL0     H55568   9.174   3.037   9.486 -1.8988 -1.2324 -0.3739
  403MOL0     H55569   9.314   3.000   9.385  0.6019  1.0798 -1.0134
  403MOL0     H55570   9.316   3.183   9.265 -0.0196 -4.6419  0.4877
  403MOL0     H55571   9.180   3.260   9.347  0.9266  1.2907 -2.8892
  403MOL0     H55572   9.111   3.314   9.547  0.0453 -3.7853  0.3051
  403MOL0     H55573   8.978   3.399   9.830  2.4994 -2.1547 -0.7544
  403MOL0     H55574   8.975   3.462   9.662 -0.8014 -2.3080 -0.8284
  403MOL0     H55575   9.053   3.559   9.788 -0.0242  0.0062 -2.5659
  403MOL0     H55576   9.211   3.364  10.255  2.1571 -0.6403 -1.9542
  403MOL0     H55577   9.249   3.464  10.498 -1.8047  2.0144  1.0145
  403MOL0     H55578   9.605   3.678  10.578 -0.9050 -2.1154 -1.1872
  403MOL0     H55579   9.546   3.824  10.502  0.7105  1.7580  1.4302
  403MOL0     H55580   9.589   3.844  10.742  0.5347 -2.6830  0.9004
  403MOL0     H55581   9.410   3.871  10.722 -0.7545  0.1828 -1.8395
  403MOL0     H55582   9.531   3.613  10.844  0.9272  0.3232 -1.4533
  403MOL0     H55583   9.360   3.653  10.791 -0.7028  1.9961 -0.5306
  403MOL0     H55584   9.323   3.814  10.958 -1.5624 -0.8576  0.2508
  403MOL0     H55585   9.495   3.840  10.985 -1.3588  1.7146 -2.2023
  403MOL0     H55586   9.368   3.584  11.073 -1.2758  1.3650  0.2497
  403MOL0     H55587   9.534   3.614  11.086 -2.6332 -3.5504 -1.5826
  403MOL0     H55588   9.325   3.782  11.234 -1.5898 -1.8855  1.6934
  403MOL0     H55589   9.506   3.802  11.243  0.3748 -1.0485  1.8413
  403MOL0     H55590   9.515   3.560  11.348  0.6282  2.5245  0.4441
  403MOL0     H55591   9.339   3.550  11.327 -0.4849 -0.5552 -0.4827
  403MOL0     H55592   9.349   3.597  11.539 -1.1731  1.0182  0.8214
  403MOL0     H55593   9.315   3.757  11.471 -0.7460 -0.4444 -0.9891
  403MOL0     H55594   9.541   3.727  10.337 -3.5302  4.4192  4.0285
  403MOL0     H55595   9.512   3.598  10.109 -2.3564  1.8109 -1.0175
  403MOL0     H55596   9.457   3.300   9.887 -0.1477  1.9678 -1.0067
  403MOL0     H55597   9.504   3.193   9.661 -1.7427 -3.0146 -1.8479
  403MOL0     H55598   7.954   3.151   9.249  0.3259  1.0406  0.0750
  403MOL0     H55599   7.969   3.387   9.306  1.7763 -3.1625  2.0238
  403MOL0     H55600   8.382   3.730   9.128 -2.1793 -0.9656 -1.0668
  403MOL0     H55601   8.469   3.909   9.272  1.0379 -0.0377  0.4780
  403MOL0     H55602   8.306   4.282   9.464 -2.0415  1.9511  0.7052
  403MOL0     H55603   8.164   4.196   9.423  2.0418  0.6637 -1.6868
  403MOL0     H55604   8.225   4.024   9.623 -0.6051 -0.1917 -1.9721
  403MOL0     H55605   8.159   4.171   9.667 -0.0814 -1.6777 -1.6323
  403MOL0     H55606   8.428   4.065   9.694 -0.9194 -0.8842  1.5455
  403MOL0     H55607   8.411   4.245   9.708  0.2944 -1.2206 -0.3933
  403MOL0     H55608   8.256   4.253   9.867  1.2630  1.4359  1.8824
  403MOL0     H55609   8.381   4.153   9.932 -0.8515  1.3606 -0.3361
  403MOL0     H55610   8.107   3.874  10.017  3.5101 -1.3018  1.2523
  403MOL0     H55611   8.066   4.036   9.344 -0.0425 -1.0315  1.0671
  403MOL0     H55612   7.893   3.934   9.221  2.0250  1.6094 -0.0895
  403MOL0     H55613   7.920   3.801   9.119 -1.8170  2.5307 -1.0305
  403MOL0     H55614   7.895   3.773   9.294  0.2333  0.7626 -0.0841
  404MOL0     O55615   9.179   2.016  10.994  0.5751  0.0212  0.5877
  404MOL0     C55616   9.109   1.928  10.965  0.2975 -0.0438 -0.0146
  404MOL0     O55617   9.002   1.931  10.893 -0.0786  0.3150  0.6187
  404MOL0     C55618   8.958   2.034  10.810 -0.3960 -0.0730  0.7431
  404MOL0     C55619   9.048   2.125  10.748 -0.8651  0.3131 -0.3279
  404MOL0     C55620   9.002   2.212  10.648 -0.0178 -1.7294 -0.0570
  404MOL0     C55621   8.865   2.224  10.613 -1.0006 -0.5728 -0.2427
  404MOL0     O55622   8.818   2.326  10.540 -0.6276 -0.1504  0.1674
  404MOL0     C55623   8.907   2.390  10.448  0.0310 -0.3554  0.3732
  404MOL0     C55624   8.940   2.535  10.498 -0.7585  0.8647  0.4078
  404MOL0     C55625   8.826   2.631  10.506 -1.1835 -0.3712  0.8470
  404MOL0     C55626   8.835   2.746  10.608 -0.2767 -1.1312 -0.1433
  404MOL0     C55627   8.696   2.809  10.642  0.9635 -0.9874 -0.8271
  404MOL0     C55628   8.691   2.948  10.725  0.6047  0.0380  1.9593
  404MOL0     C55629   8.541   2.994  10.722 -1.0101  0.2048  0.3131
  404MOL0     C55630   8.529   3.129  10.792 -0.2776 -0.5279  0.4971
  404MOL0     N55631   8.558   3.127  10.935 -0.9353 -0.8547  0.1054
  404MOL0     C55632   8.670   3.189  10.985 -0.5465 -0.7403 -1.5458
  404MOL0     C55633   8.678   3.153  11.116 -0.6609 -0.1320 -0.1147
  404MOL0     C55634   8.782   3.180  11.223 -0.1553  0.0914 -0.4272
  404MOL0     C55635   8.716   3.197  11.358  0.0352  0.1537  0.3334
  404MOL0     C55636   8.799   3.169  11.486  0.2593 -1.2376  0.3313
  404MOL0     C55637   8.844   3.025  11.507  0.0032  0.5167 -0.5944
  404MOL0     O55638   8.740   2.932  11.539  0.5706 -0.3639  0.4220
  404MOL0     C55639   8.680   2.937  11.667 -0.2873  0.2846  0.6651
  404MOL0     C55640   8.719   3.013  11.776 -0.3786 -0.4126  0.0539
  404MOL0     C55641   8.681   2.990  11.908  0.0555 -0.4558 -0.4153
  404MOL0     C55642   8.758   3.068  12.015 -0.0557  0.8446 -0.0423
  404MOL0     C55643   8.569   2.906  11.928  0.5421  0.1514 -0.7862
  404MOL0     C55644   8.521   2.869  12.058  0.4607 -0.0452  0.2225
  404MOL0     O55645   8.601   2.863  12.172 -0.7416  0.4086  0.0644
  404MOL0     C55646   8.559   2.812  12.299  0.4837 -0.4527  0.2575
  404MOL0     C55647   8.464   2.717  12.332  0.1105  0.7077 -0.7479
  404MOL0     C55648   8.435   2.678  12.466  0.4189  0.3901 -0.5440
  404MOL0     C55649   8.492   2.749  12.566 -0.2411 -0.5447 -1.5244
  404MOL0     O55650   8.456   2.742  12.702  0.6597  0.3602  0.2425
  404MOL0     C55651   8.520   2.632  12.769  0.0101  0.0697  0.2152
  404MOL0     C55652   8.457   2.624  12.912  0.1523  0.4704  0.6943
  404MOL0     C55653   8.474   2.754  12.984  0.2106 -0.0352  0.6597
  404MOL0     C55654   8.411   2.732  13.124 -0.1578  0.2329 -0.2690
  404MOL0     C55655   8.518   2.683  13.225 -0.5759  0.0499 -0.4234
  404MOL0     C55656   8.622   2.787  13.267 -0.2234  0.4732 -0.5335
  404MOL0     C55657   8.714   2.730  13.378 -0.8475 -1.0239  0.1601
  404MOL0     C55658   8.639   2.733  13.521  0.4229 -0.1294  0.1521
  404MOL0    Cl55659   8.769   2.757  13.639  0.2505 -0.4538 -0.4950
  404MOL0     C55660   8.576   2.857  12.534 -0.4737 -0.0663 -0.6110
  404MOL0     C55661   8.616   2.881  12.399  0.2865  0.6139  0.3656
  404MOL0     O55662   8.406   2.830  12.055 -0.4007  0.0398 -0.0142
  404MOL0     C55663   8.520   2.838  11.812  0.6583  0.5239 -0.1482
  404MOL0     C55664   8.575   2.853  11.682  0.2124  0.5622 -0.1374
  404MOL0     N55665   8.571   3.059  11.131 -1.5152  0.3390  1.4089
  404MOL0     N55666   8.505   3.040  11.021 -0.6932 -0.3928 -0.2236
  404MOL0     C55667   8.780   2.131  10.673 -0.0018 -0.6891 -1.0670
  404MOL0     C55668   8.821   2.040  10.773  0.1638 -0.2604 -0.2497
  404MOL0     C55669   9.125   1.794  11.018 -0.6420 -0.6861  0.5591
  404MOL0     C55670   9.009   1.717  11.049  0.3159  0.8648  0.5475
  404MOL0     C55671   9.026   1.593  11.106  0.3529  0.8212  0.2662
  404MOL0     C55672   9.140   1.540  11.139  0.3256  0.1931 -0.3849
  404MOL0     O55673   9.139   1.420  11.208 -0.3381 -0.4890 -0.4866
  404MOL0     C55674   9.255   1.365  11.281  0.7484 -0.0555 -0.7969
  404MOL0     C55675   9.220   1.229  11.336  0.7421 -0.6035  0.4438
  404MOL0     C55676   9.323   1.152  11.422  0.0916 -0.0167  0.5132
  404MOL0     C55677   9.322   1.181  11.571 -0.2695 -0.9711 -0.1007
  404MOL0     C55678   9.375   1.317  11.599 -0.1158  0.6053  0.1513
  404MOL0     C55679   9.410   1.421  11.636 -0.7015  0.3881  0.7198
  404MOL0     C55680   9.257   1.613  11.108  0.3714 -0.3121 -0.9960
  404MOL0     C55681   9.255   1.742  11.045  0.8850  0.4808 -0.3076
  404MOL0     C55682   9.388   1.807  11.029 -0.0314 -0.9915  0.1404
  404MOL0     H55683   9.151   2.131  10.780 -0.3600 -2.4338 -1.1763
  404MOL0     H55684   9.077   2.277  10.603  2.1849 -3.5626  0.7734
  404MOL0     H55685   8.858   2.413  10.352 -0.7227  0.8005  1.0114
  404MOL0     H55686   8.996   2.329  10.429  1.3480  1.2617  1.1319
  404MOL0     H55687   8.993   2.524  10.593 -2.0155  0.7764  1.1307
  404MOL0     H55688   9.017   2.573  10.431 -1.4687  1.7437  0.0632
  404MOL0     H55689   8.807   2.668  10.405  2.2241  2.2321  0.9975
  404MOL0     H55690   8.738   2.576  10.542 -0.9505 -1.4288 -0.1539
  404MOL0     H55691   8.873   2.713  10.705  0.3680  1.9095  0.7578
  404MOL0     H55692   8.899   2.830  10.580 -1.6562  1.0949  2.7404
  404MOL0     H55693   8.649   2.728  10.700  0.3723 -0.5663 -0.7027
  404MOL0     H55694   8.628   2.826  10.558 -0.3079 -1.9490 -0.0462
  404MOL0     H55695   8.732   2.932  10.825  0.5250 -1.2700  1.7966
  404MOL0     H55696   8.760   3.019  10.679 -1.4016  0.9006  0.0782
  404MOL0     H55697   8.466   2.922  10.757 -2.3569  0.0818 -2.4920
  404MOL0     H55698   8.513   3.003  10.617  0.1562  0.2260 -0.0123
  404MOL0     H55699   8.595   3.198  10.740  0.5439 -1.2304  0.5977
  404MOL0     H55700   8.431   3.171  10.765 -0.4241 -0.9532  0.3535
  404MOL0     H55701   8.735   3.263  10.939 -1.8251  3.8193  3.0757
  404MOL0     H55702   8.834   3.274  11.203 -0.5318  1.1704  2.9771
  404MOL0     H55703   8.857   3.101  11.226 -1.2706 -1.0396 -1.1048
  404MOL0     H55704   8.680   3.300  11.366 -1.3656 -0.3782  1.1668
  404MOL0     H55705   8.626   3.138  11.377 -1.1095  2.0592  1.1257
  404MOL0     H55706   8.896   3.218  11.476  0.4704 -1.2337  2.1133
  404MOL0     H55707   8.741   3.215  11.566  1.9577  0.9668  0.3884
  404MOL0     H55708   8.881   2.991  11.410 -0.2212 -0.5575 -0.3204
  404MOL0     H55709   8.923   3.027  11.582 -1.1752 -2.1490  0.8819
  404MOL0     H55710   8.805   3.075  11.752 -0.8550 -0.8139 -3.1235
  404MOL0     H55711   8.779   3.172  11.990  2.7845  0.6220  1.0019
  404MOL0     H55712   8.856   3.019  12.004 -1.1500 -0.8371 -6.0309
  404MOL0     H55713   8.722   3.055  12.118  2.3158 -2.6335  0.5433
  404MOL0     H55714   8.418   2.669  12.247 -1.8698  2.2095 -0.5915
  404MOL0     H55715   8.378   2.588  12.484  2.3901 -0.7141  0.4527
  404MOL0     H55716   8.500   2.539  12.714 -2.4796  1.8532 -2.1406
  404MOL0     H55717   8.626   2.651  12.786 -0.1582  0.7823  0.5104
  404MOL0     H55718   8.351   2.596  12.909  0.4073 -0.6608  1.5034
  404MOL0     H55719   8.501   2.539  12.966 -2.5940 -1.7757 -0.3711
  404MOL0     H55720   8.413   2.827  12.930 -1.0475 -1.9768 -0.6929
  404MOL0     H55721   8.581   2.775  12.984  0.1914  0.0873  0.0849
  404MOL0     H55722   8.334   2.655  13.118 -0.5962 -0.0958  4.8749
  404MOL0     H55723   8.383   2.830  13.164  2.2530  0.1884  1.7959
  404MOL0     H55724   8.477   2.652  13.321  2.7859  2.4687  1.9940
  404MOL0     H55725   8.572   2.596  13.186 -1.2493 -1.6155  2.1532
  404MOL0     H55726   8.571   2.878  13.300 -2.6172 -0.3200 -1.7965
  404MOL0     H55727   8.676   2.815  13.176  1.8600  0.3339  0.5813
  404MOL0     H55728   8.794   2.805  13.381 -1.7437 -0.0156 -0.5486
  404MOL0     H55729   8.746   2.626  13.367 -0.5306 -0.8812 -0.3247
  404MOL0     H55730   8.585   2.638  13.527 -1.1688  0.8255  3.2450
  404MOL0     H55731   8.572   2.817  13.541  0.9734  0.3562  0.0061
  404MOL0     H55732   8.621   2.920  12.610 -1.4396  2.7785 -2.2409
  404MOL0     H55733   8.687   2.959  12.373 -0.8084  2.0110  1.3999
  404MOL0     H55734   8.444   2.761  11.821  0.5631  0.7190  0.9578
  404MOL0     H55735   8.543   2.792  11.598  0.8278 -0.9696  0.6959
  404MOL0     H55736   8.673   2.143  10.656  0.3811 -0.3435 -3.5894
  404MOL0     H55737   8.749   1.980  10.828 -1.9269  1.2430 -1.1994
  404MOL0     H55738   8.907   1.754  11.041 -0.2169 -0.8663 -1.4249
  404MOL0     H55739   8.931   1.545  11.127  1.7559 -1.8810  0.8822
  404MOL0     H55740   9.341   1.347  11.215  1.7363 -0.5780  0.5816
  404MOL0     H55741   9.290   1.433  11.360 -1.9845 -2.1194  2.4207
  404MOL0     H55742   9.206   1.171  11.244 -2.3285 -0.7999  0.9057
  404MOL0     H55743   9.125   1.214  11.389 -0.0775 -2.2821 -1.3349
  404MOL0     H55744   9.301   1.046  11.405  1.0106 -0.2612  0.7990
  404MOL0     H55745   9.428   1.163  11.392 -0.9790 -0.7835 -4.3363
  404MOL0     H55746   9.393   1.107  11.609 -0.0977 -0.0415  1.4885
  404MOL0     H55747   9.227   1.161  11.621  1.0667 -0.0146  3.0841
  404MOL0     H55748   9.455   1.509  11.677 -0.6647  0.6998  0.0235
  404MOL0     H55749   9.357   1.578  11.133  0.3090  0.8305  1.1617
  404MOL0     H55750   9.415   1.848  11.127  0.3332 -1.4624  0.2383
  404MOL0     H55751   9.466   1.742  10.990  1.1756  0.7019 -0.3645
  404MOL0     H55752   9.384   1.895  10.964  1.8632 -1.8117 -1.1481
  405MOL0     O55753   3.670  10.205   8.279 -0.3349 -0.5742 -0.4436
  405MOL0     C55754   3.721  10.283   8.204 -0.1681 -0.2313 -0.7124
  405MOL0     O55755   3.808  10.244   8.098  0.0556  0.6556 -0.4162
  405MOL0     C55756   3.868  10.121   8.098 -0.4527 -0.7436  0.0358
  405MOL0     C55757   4.003  10.103   8.119  0.2428  0.0515  0.3895
  405MOL0     C55758   4.065   9.978   8.123  0.0732  0.3637  0.1911
  405MOL0     C55759   3.986   9.872   8.097  0.1922 -0.7859 -0.3825
  405MOL0     O55760   4.030   9.746   8.108 -0.1414 -0.0143  0.8639
  405MOL0     C55761   4.000   9.705   8.239  0.5167 -1.0858 -1.1184
  405MOL0     C55762   4.070   9.575   8.287 -0.4048 -0.1495 -0.7415
  405MOL0     C55763   4.221   9.582   8.294 -0.2067 -0.2479  0.4858
  405MOL0     C55764   4.272   9.664   8.415  1.2891  0.6202 -0.3402
  405MOL0     C55765   4.418   9.673   8.421 -0.0452 -0.2881  0.4294
  405MOL0     C55766   4.473   9.790   8.331  0.4408 -0.0138  0.6747
  405MOL0     C55767   4.616   9.830   8.358  0.4062  0.0154  0.1887
  405MOL0     C55768   4.712   9.720   8.335 -1.1079  0.5953 -0.1850
  405MOL0     N55769   4.703   9.665   8.203  0.0278  0.3528  0.8100
  405MOL0     C55770   4.726   9.727   8.081 -0.0270  0.3667 -0.3744
  405MOL0     C55771   4.681   9.644   7.993 -1.3541  0.3882 -0.8390
  405MOL0     C55772   4.674   9.683   7.843  0.2792  0.3818  0.1238
  405MOL0     C55773   4.786   9.602   7.771  0.3722  0.1320 -0.7008
  405MOL0     C55774   4.801   9.638   7.617  0.5848 -0.7896  0.3584
  405MOL0     C55775   4.863   9.775   7.602 -0.5678  0.3958  0.6619
  405MOL0     O55776   4.897   9.803   7.461 -0.0223  0.6154 -0.0396
  405MOL0     C55777   4.798   9.849   7.381 -0.1008  0.5034  0.2426
  405MOL0     C55778   4.819   9.858   7.242 -0.0775 -0.3470 -0.7954
  405MOL0     C55779   4.718   9.876   7.151 -0.2118 -0.6021 -0.0117
  405MOL0     C55780   4.755   9.860   7.005  0.1761  0.2191  0.8741
  405MOL0     C55781   4.592   9.924   7.188  0.0719 -0.4541  0.2692
  405MOL0     C55782   4.487   9.987   7.095 -0.9213 -0.3662  0.6067
  405MOL0     O55783   4.368  10.021   7.139 -0.2616 -0.5863 -0.5043
  405MOL0     C55784   4.279  10.064   7.052 -0.2323  0.4511  0.2345
  405MOL0     C55785   4.259  10.195   7.038  0.4403  0.9880 -0.1556
  405MOL0     C55786   4.151  10.241   6.958  0.1792 -0.5799  0.3268
  405MOL0     C55787   4.072  10.152   6.882  0.2679  0.0476  0.5958
  405MOL0     O55788   3.967  10.193   6.805  0.1673 -0.4687  0.1502
  405MOL0     C55789   3.989  10.305   6.719 -0.4353 -0.6605 -0.1803
  405MOL0     C55790   3.959  10.285   6.585 -0.1249 -0.0625  0.3871
  405MOL0     C55791   4.063  10.194   6.505 -0.3955 -0.0427  0.2769
  405MOL0     C55792   4.195  10.267   6.470 -0.0201 -0.6911  0.2095
  405MOL0     C55793   4.282  10.191   6.374  0.4352  0.1888  0.9753
  405MOL0     C55794   4.422  10.249   6.347 -0.9280 -1.4994  0.5460
  405MOL0     C55795   4.510  10.228   6.472  0.0898  0.5097  0.2932
  405MOL0     C55796   4.656  10.243   6.432 -0.7577 -0.2376 -0.6771
  405MOL0    Cl55797   4.706  10.104   6.322 -0.1099  0.4370 -0.2082
  405MOL0     C55798   4.108  10.014   6.883  0.8710  0.1175 -0.5132
  405MOL0     C55799   4.209   9.969   6.969  0.0468 -0.7071  0.5839
  405MOL0     O55800   4.512   9.988   6.970 -0.3843  0.6252 -0.8737
  405MOL0     C55801   4.564   9.933   7.328 -0.3657  0.7319  0.0490
  405MOL0     C55802   4.659   9.887   7.425  0.3614 -0.8548  0.2247
  405MOL0     N55803   4.625   9.535   8.052 -0.3288  0.0881  0.2761
  405MOL0     N55804   4.637   9.543   8.178 -0.4894  0.4681  0.4546
  405MOL0     C55805   3.851   9.883   8.053 -0.0584 -0.3025 -0.3165
  405MOL0     C55806   3.794  10.009   8.053 -0.0146 -0.4130  0.0556
  405MOL0     C55807   3.661  10.419   8.209  0.0784  0.2777  0.0144
  405MOL0     C55808   3.743  10.532   8.204  0.1139  0.5378 -0.0108
  405MOL0     C55809   3.698  10.671   8.208  0.1968  0.2349 -0.6723
  405MOL0     C55810   3.554  10.691   8.217 -1.0330 -0.4965 -0.9253
  405MOL0     O55811   3.514  10.826   8.202 -0.1814  0.1409  0.7361
  405MOL0     C55812   3.380  10.879   8.222  0.0412 -0.8512  0.6798
  405MOL0     C55813   3.354  10.905   8.373 -0.7931 -0.1061  0.8649
  405MOL0     C55814   3.235  10.989   8.399 -0.0649  0.0170  0.2528
  405MOL0     C55815   3.192  10.994   8.544 -0.7652 -0.2190 -0.2830
  405MOL0     C55816   3.283  11.090   8.612 -0.3691  0.5819 -0.0992
  405MOL0     C55817   3.366  11.170   8.652  1.2510 -0.6730 -0.1731
  405MOL0     C55818   3.472  10.578   8.226  0.0779 -0.3501  0.3924
  405MOL0     C55819   3.517  10.445   8.228 -0.4952  0.6385  0.0081
  405MOL0     C55820   3.411  10.333   8.235  0.5943 -0.6236  0.1441
  405MOL0     H55821   4.057  10.193   8.145 -0.1340 -0.1941  2.1084
  405MOL0     H55822   4.171   9.960   8.138  0.7870  2.8008 -1.2413
  405MOL0     H55823   3.891   9.694   8.245  0.0857  2.5582 -0.0779
  405MOL0     H55824   4.030   9.786   8.306  0.8721 -1.4437 -0.8465
  405MOL0     H55825   4.026   9.544   8.383  1.2121 -2.4045 -0.6409
  405MOL0     H55826   4.050   9.493   8.217 -0.8872  0.9550 -1.9310
  405MOL0     H55827   4.262   9.481   8.310 -0.2378 -0.3295  0.0778
  405MOL0     H55828   4.252   9.619   8.196 -1.4214  0.5988  0.4072
  405MOL0     H55829   4.226   9.762   8.421  0.0350 -0.0062  0.7500
  405MOL0     H55830   4.238   9.603   8.500 -0.2243  1.4722 -0.3082
  405MOL0     H55831   4.458   9.574   8.400 -0.3885 -0.4238  0.4203
  405MOL0     H55832   4.436   9.694   8.527  1.9573 -0.6192  0.1933
  405MOL0     H55833   4.447   9.776   8.226 -4.2208  0.1638  1.5689
  405MOL0     H55834   4.421   9.885   8.348  5.3094  2.9372  0.9771
  405MOL0     H55835   4.633   9.870   8.458  4.5940  1.4922 -0.9148
  405MOL0     H55836   4.635   9.903   8.280 -1.2929  1.2430  0.8694
  405MOL0     H55837   4.810   9.766   8.356  0.9851 -4.2420  2.0760
  405MOL0     H55838   4.694   9.636   8.402  0.0688 -1.0506 -1.8249
  405MOL0     H55839   4.769   9.825   8.063 -0.9331  0.6966 -0.8166
  405MOL0     H55840   4.702   9.788   7.831  1.3802  0.1834  0.8089
  405MOL0     H55841   4.576   9.669   7.796  0.7477  0.0430 -0.7713
  405MOL0     H55842   4.878   9.610   7.830 -1.0050  0.9744  1.4331
  405MOL0     H55843   4.755   9.497   7.776 -0.9925  0.5586  1.0952
  405MOL0     H55844   4.868   9.565   7.571  0.2880 -0.1086 -1.2208
  405MOL0     H55845   4.707   9.652   7.563  0.0291  0.1032  1.5319
  405MOL0     H55846   4.800   9.855   7.644  0.0787  0.6332  1.1907
  405MOL0     H55847   4.948   9.778   7.671 -0.9963  2.5128  1.1859
  405MOL0     H55848   4.923   9.849   7.212  1.1695 -0.8735  3.0988
  405MOL0     H55849   4.829   9.779   6.999  1.5025  1.0495  3.9497
  405MOL0     H55850   4.799   9.951   6.964 -2.2530  2.0548  2.0676
  405MOL0     H55851   4.676   9.824   6.939  2.1003  1.1186 -2.1006
  405MOL0     H55852   4.323  10.258   7.099  2.3783  1.5544 -2.6386
  405MOL0     H55853   4.114  10.340   6.932 -1.1464 -1.1915 -0.2531
  405MOL0     H55854   3.934  10.390   6.761  0.6803  0.6055 -1.1386
  405MOL0     H55855   4.094  10.336   6.714  0.8431 -3.9983  2.3820
  405MOL0     H55856   3.856  10.248   6.582 -0.3704  0.3649  2.3794
  405MOL0     H55857   3.957  10.381   6.534 -2.2586  0.3815  1.2219
  405MOL0     H55858   4.012  10.162   6.414  0.7897  0.1393 -0.4623
  405MOL0     H55859   4.100  10.114   6.571  1.0119  0.5495  0.2222
  405MOL0     H55860   4.255  10.282   6.560  0.1728 -0.2386  0.0068
  405MOL0     H55861   4.180  10.370   6.437  2.6747  0.0762  1.1630
  405MOL0     H55862   4.313  10.094   6.413  3.1676  1.4345  2.0988
  405MOL0     H55863   4.228  10.175   6.280  2.3623  1.9064 -0.5114
  405MOL0     H55864   4.415  10.357   6.329  1.7408 -1.0342  1.7120
  405MOL0     H55865   4.467  10.200   6.261 -0.4119 -3.9724  2.1353
  405MOL0     H55866   4.481  10.133   6.517  0.6920 -0.1263 -0.6121
  405MOL0     H55867   4.501  10.304   6.550  1.1781 -0.1683  1.1124
  405MOL0     H55868   4.719  10.232   6.521  1.0572  1.8341 -1.5873
  405MOL0     H55869   4.666  10.340   6.383  3.1752 -1.6241 -3.1207
  405MOL0     H55870   4.042   9.949   6.827  0.3079 -1.7282  2.1080
  405MOL0     H55871   4.232   9.865   6.994  0.8943 -1.2467 -2.1387
  405MOL0     H55872   4.465   9.955   7.365 -0.7291  0.9180 -0.9980
  405MOL0     H55873   4.623   9.891   7.527  2.2239  3.0223  0.8746
  405MOL0     H55874   3.797   9.791   8.034  2.4716 -0.9405 -6.9839
  405MOL0     H55875   3.695  10.025   8.013  0.1444 -3.4120 -1.8720
  405MOL0     H55876   3.850  10.513   8.195  0.3603  1.9693 -0.3360
  405MOL0     H55877   3.781  10.741   8.212 -0.2309  0.7085  2.1994
  405MOL0     H55878   3.363  10.972   8.167  2.3434 -0.6177  0.2519
  405MOL0     H55879   3.306  10.811   8.178  1.7113 -1.2771 -1.6735
  405MOL0     H55880   3.443  10.938   8.427 -1.6330  0.6588  1.8152
  405MOL0     H55881   3.329  10.810   8.421 -1.1868 -0.2610  0.3601
  405MOL0     H55882   3.252  11.088   8.356  2.1457 -1.3601 -2.3292
  405MOL0     H55883   3.155  10.943   8.340 -0.6475 -0.6260  1.5094
  405MOL0     H55884   3.185  10.901   8.601 -2.0822 -2.4872 -3.8517
  405MOL0     H55885   3.091  11.037   8.543  0.6022  3.3676 -0.2048
  405MOL0     H55886   3.440  11.241   8.684 -0.1098  1.1171 -0.8664
  405MOL0     H55887   3.369  10.611   8.222  0.5888  1.2739 -1.7752
  405MOL0     H55888   3.409  10.283   8.332 -1.6354  1.2280  1.1580
  405MOL0     H55889   3.320  10.393   8.235  1.0575  0.1011 -0.1368
  405MOL0     H55890   3.419  10.259   8.156  0.2912  1.5190 -2.0219
  406MOL0     O55891   1.656   9.689   8.482  0.6572  0.2236  0.3879
  406MOL0     C55892   1.586   9.633   8.398  1.1188  0.5808  0.4870
  406MOL0     O55893   1.575   9.686   8.271  0.3453  0.4495 -0.2847
  406MOL0     C55894   1.613   9.808   8.232 -0.4697  0.3489  0.6623
  406MOL0     C55895   1.583   9.929   8.301 -0.0256 -0.2134  1.2244
  406MOL0     C55896   1.638  10.041   8.252 -0.6211  0.5766  1.1817
  406MOL0     C55897   1.725  10.047   8.139  0.2626  0.9973  0.0776
  406MOL0     O55898   1.778  10.166   8.107 -1.2049 -0.4590  0.3540
  406MOL0     C55899   1.887  10.178   8.007  0.6343 -0.0705  0.4068
  406MOL0     C55900   1.968  10.312   8.019  0.2393  0.2602  0.5322
  406MOL0     C55901   1.978  10.371   8.156  0.5366  0.5373 -0.7847
  406MOL0     C55902   2.071  10.496   8.164 -0.6289  0.3865 -0.2327
  406MOL0     C55903   2.019  10.589   8.273  0.6052 -0.3830 -0.6675
  406MOL0     C55904   2.135  10.683   8.310  0.2005  0.8174 -0.1031
  406MOL0     C55905   2.162  10.787   8.191  0.0279 -0.7176 -0.0959
  406MOL0     C55906   2.303  10.840   8.187 -0.1845  0.3325  0.1126
  406MOL0     N55907   2.388  10.731   8.134  0.2489  0.3301 -0.5104
  406MOL0     C55908   2.463  10.641   8.205 -0.2172  0.3837 -0.1118
  406MOL0     C55909   2.520  10.564   8.108  0.0066  0.1544 -0.6615
  406MOL0     C55910   2.612  10.447   8.111 -0.0055  0.0159 -0.2600
  406MOL0     C55911   2.541  10.318   8.063  0.1446 -0.6993  0.6834
  406MOL0     C55912   2.428  10.266   8.157  0.1389 -1.2943 -1.1628
  406MOL0     C55913   2.346  10.161   8.088  0.4255  0.8266 -0.7321
  406MOL0     O55914   2.269  10.103   8.196  0.7830 -0.1905 -0.2436
  406MOL0     C55915   2.193   9.990   8.170 -0.0139  0.5360 -0.2584
  406MOL0     C55916   2.108   9.952   8.272 -0.7659 -0.2248  0.2574
  406MOL0     C55917   2.044   9.827   8.259  0.2932 -0.6514  0.5342
  406MOL0     C55918   1.974   9.767   8.386 -0.0005  0.5115 -0.0085
  406MOL0     C55919   2.057   9.751   8.135  0.0631  1.1372  0.3223
  406MOL0     C55920   1.984   9.616   8.117  0.4275 -0.0006  0.5899
  406MOL0     O55921   1.953   9.543   8.224  0.4642  0.3679  0.5160
  406MOL0     C55922   1.892   9.414   8.208  0.1923  0.4591  0.1589
  406MOL0     C55923   1.905   9.315   8.107 -0.5459 -0.4410  0.0412
  406MOL0     C55924   1.842   9.192   8.116  0.5439  0.2867 -0.2473
  406MOL0     C55925   1.763   9.155   8.226  0.2452 -0.4404  0.1521
  406MOL0     O55926   1.682   9.045   8.236 -0.6320 -0.0112  0.2019
  406MOL0     C55927   1.697   8.955   8.127  1.1604 -0.2500  0.8172
  406MOL0     C55928   1.591   8.852   8.143  0.1475  0.0333  0.0713
  406MOL0     C55929   1.620   8.764   8.261 -0.2011  0.0075 -0.3011
  406MOL0     C55930   1.721   8.658   8.225  0.2767 -0.6009 -0.8327
  406MOL0     C55931   1.743   8.559   8.334 -0.3522  0.4693 -0.6603
  406MOL0     C55932   1.872   8.480   8.327 -0.5189  0.0527  0.2520
  406MOL0     C55933   1.859   8.348   8.264  0.0219  0.3409  0.1824
  406MOL0     C55934   1.988   8.265   8.287  0.3700  0.3879 -0.2213
  406MOL0    Cl55935   2.125   8.351   8.194  0.1080  0.2106 -0.3795
  406MOL0     C55936   1.747   9.254   8.328  0.2092  0.7268  1.1908
  406MOL0     C55937   1.817   9.376   8.321  0.3848 -0.2445 -0.4454
  406MOL0     O55938   1.967   9.581   7.999 -0.4949 -0.1077  0.1062
  406MOL0     C55939   2.131   9.802   8.033  0.3091  0.5505  0.8536
  406MOL0     C55940   2.199   9.915   8.046  0.4580  0.5817 -0.4456
  406MOL0     N55941   2.480  10.615   7.985  0.0819 -0.0086 -0.0888
  406MOL0     N55942   2.396  10.713   8.004  0.2657  0.9227  0.2060
  406MOL0     C55943   1.746   9.934   8.065 -0.0676  0.6601 -0.3569
  406MOL0     C55944   1.698   9.816   8.113 -0.1516 -0.5498 -0.2988
  406MOL0     C55945   1.496   9.516   8.405 -0.4604 -0.4521 -0.3744
  406MOL0     C55946   1.486   9.446   8.281  0.7797 -0.4769 -0.1340
  406MOL0     C55947   1.420   9.327   8.276  0.5991 -0.2379  0.1724
  406MOL0     C55948   1.346   9.278   8.393  0.5944 -0.3690  0.1244
  406MOL0     O55949   1.301   9.150   8.386 -0.0051 -0.5319 -0.0814
  406MOL0     C55950   1.215   9.097   8.484  0.3639  0.3007 -0.7298
  406MOL0     C55951   1.166   8.969   8.415  0.7319  0.4790 -0.0614
  406MOL0     C55952   1.263   8.849   8.427  0.5467 -0.2798 -0.0470
  406MOL0     C55953   1.249   8.761   8.543 -0.2397 -0.4506 -0.4729
  406MOL0     C55954   1.363   8.659   8.552 -0.4687 -0.1812  0.2948
  406MOL0     C55955   1.464   8.586   8.569 -0.6096 -0.6793  0.6850
  406MOL0     C55956   1.347   9.361   8.507 -0.7707  0.0595 -0.1757
  406MOL0     C55957   1.424   9.473   8.514 -0.3611  0.2162  0.5201
  406MOL0     C55958   1.423   9.544   8.647 -0.3987  0.7804 -0.0712
  406MOL0     H55959   1.515   9.941   8.384 -0.5481  1.5385  0.6024
  406MOL0     H55960   1.611  10.133   8.303 -1.6210  1.8092 -1.3391
  406MOL0     H55961   1.840  10.170   7.908 -0.2707 -0.5971  0.8721
  406MOL0     H55962   1.967  10.106   8.029  1.6540  1.1544  0.8263
  406MOL0     H55963   2.070  10.311   7.981  0.6952  2.4802  1.5733
  406MOL0     H55964   1.916  10.387   7.959  0.2130 -0.4210 -0.3199
  406MOL0     H55965   1.876  10.394   8.188  0.8416 -1.7174  2.2854
  406MOL0     H55966   2.017  10.308   8.237 -1.1108  1.0028  0.4247
  406MOL0     H55967   2.169  10.454   8.188 -1.7152 -1.9584  0.4365
  406MOL0     H55968   2.066  10.543   8.065  0.6179  0.4013 -0.2986
  406MOL0     H55969   1.994  10.534   8.364  0.0386  0.9383 -0.0023
  406MOL0     H55970   1.928  10.640   8.238 -1.1011 -1.5035  1.8401
  406MOL0     H55971   2.109  10.736   8.401  0.5618  0.9790 -0.0917
  406MOL0     H55972   2.224  10.624   8.333 -0.5388 -0.9518 -1.4768
  406MOL0     H55973   2.084  10.859   8.216 -0.5699 -2.2536  3.1700
  406MOL0     H55974   2.135  10.741   8.096  1.8485 -1.1437 -0.4370
  406MOL0     H55975   2.321  10.924   8.119  1.6531  0.1188  0.2772
  406MOL0     H55976   2.338  10.881   8.283  2.1234 -0.8495 -0.1592
  406MOL0     H55977   2.467  10.630   8.313  0.2449 -0.3529 -0.2021
  406MOL0     H55978   2.645  10.435   8.215 -1.2126  1.4143  0.3134
  406MOL0     H55979   2.699  10.475   8.051  0.7707  1.4985  1.4596
  406MOL0     H55980   2.497  10.340   7.966  0.3072 -1.5667  0.3977
  406MOL0     H55981   2.619  10.241   8.051  0.4129 -0.2108 -0.9561
  406MOL0     H55982   2.476  10.223   8.245 -0.1178  0.0840 -0.3141
  406MOL0     H55983   2.365  10.348   8.192  1.1180 -0.7356 -0.6704
  406MOL0     H55984   2.281  10.207   8.012 -1.5209  2.9586  2.0292
  406MOL0     H55985   2.416  10.091   8.041  0.0287  2.0553 -3.3768
  406MOL0     H55986   2.101  10.012   8.363 -1.9278 -0.6549  0.4610
  406MOL0     H55987   2.009   9.671   8.425  0.5329  0.8795  0.4423
  406MOL0     H55988   1.868   9.758   8.363  0.1386 -1.3700 -0.0241
  406MOL0     H55989   1.983   9.834   8.472  0.4745  1.9763 -1.1619
  406MOL0     H55990   1.976   9.322   8.026 -0.0818 -0.8873  0.3984
  406MOL0     H55991   1.857   9.128   8.029  1.9950 -2.2915  1.7690
  406MOL0     H55992   1.685   9.004   8.029  2.4726 -0.4654  0.5315
  406MOL0     H55993   1.791   8.900   8.134  1.0063 -0.9119 -1.3157
  406MOL0     H55994   1.495   8.901   8.163 -0.7947 -1.2253 -1.1581
  406MOL0     H55995   1.583   8.797   8.049 -3.1500  3.0515 -1.6640
  406MOL0     H55996   1.521   8.724   8.282 -2.1664  4.0161 -1.1079
  406MOL0     H55997   1.644   8.824   8.350 -1.3251 -1.8706  1.3498
  406MOL0     H55998   1.822   8.698   8.210  0.7756 -1.3877  0.3189
  406MOL0     H55999   1.688   8.614   8.131  0.8429 -0.8559 -0.9150
  406MOL0     H56000   1.725   8.600   8.434  3.2654  2.6786 -0.7383
  406MOL0     H56001   1.656   8.496   8.315 -1.3019  1.4528  0.2902
  406MOL0     H56002   1.907   8.458   8.428  3.3428  0.1826 -0.9072
  406MOL0     H56003   1.952   8.544   8.288 -1.5326  0.5778 -1.0212
  406MOL0     H56004   1.855   8.365   8.156  1.0142  2.8318  0.4874
  406MOL0     H56005   1.770   8.287   8.284 -1.2087  1.2886 -2.0472
  406MOL0     H56006   1.964   8.163   8.256  0.6523 -0.6105  2.5715
  406MOL0     H56007   2.007   8.257   8.395  0.8093 -1.1359 -0.3843
  406MOL0     H56008   1.674   9.223   8.402  1.7929 -0.7652  2.2117
  406MOL0     H56009   1.801   9.451   8.397 -0.3774 -2.7505  2.0459
  406MOL0     H56010   2.135   9.743   7.942  3.6285  0.4707  0.9255
  406MOL0     H56011   2.266   9.949   7.968  0.1253  0.8362 -0.6264
  406MOL0     H56012   1.798   9.930   7.970 -2.4800  4.1910 -2.0543
  406MOL0     H56013   1.706   9.723   8.058 -0.3460  0.5767 -2.3313
  406MOL0     H56014   1.540   9.475   8.191 -3.3567  4.3060 -1.5334
  406MOL0     H56015   1.417   9.269   8.184  2.2403  0.0501 -0.0925
  406MOL0     H56016   1.274   9.070   8.572 -2.1062 -1.8714  0.4007
  406MOL0     H56017   1.142   9.174   8.510  2.8463  2.1904  1.1611
  406MOL0     H56018   1.163   8.982   8.307 -0.9492  2.1289  0.1354
  406MOL0     H56019   1.064   8.940   8.440  0.7544  0.8042  0.4255
  406MOL0     H56020   1.267   8.788   8.336  0.7072  1.3004 -1.1333
  406MOL0     H56021   1.364   8.891   8.439  0.0723  1.0407 -0.4781
  406MOL0     H56022   1.151   8.712   8.537 -2.0181  2.9572 -4.3525
  406MOL0     H56023   1.248   8.824   8.632  2.5478  0.1312 -0.7664
  406MOL0     H56024   1.540   8.514   8.591 -0.2575  0.5494  3.9258
  406MOL0     H56025   1.293   9.339   8.598 -2.7810  1.0686 -1.0433
  406MOL0     H56026   1.430   9.483   8.738  2.2177  0.7968 -0.1949
  406MOL0     H56027   1.514   9.604   8.646  0.3350 -0.3049 -1.0904
  406MOL0     H56028   1.336   9.609   8.650 -2.4559 -1.7500 -1.0792
  407MOL0     O56029   8.115   0.446   5.744 -1.1028  0.6121  0.0507
  407MOL0     C56030   8.135   0.340   5.795  0.5055 -0.4100  0.4796
  407MOL0     O56031   8.252   0.290   5.832  0.0820  0.7775  0.3624
  407MOL0     C56032   8.366   0.370   5.813 -0.0436 -0.0517 -0.5307
  407MOL0     C56033   8.430   0.390   5.686 -0.4777  0.5745 -0.5490
  407MOL0     C56034   8.538   0.478   5.674 -0.1331 -0.0922 -0.6046
  407MOL0     C56035   8.590   0.547   5.779  0.6800  0.1622  1.2973
  407MOL0     O56036   8.692   0.632   5.769 -0.4736 -0.4300 -0.3864
  407MOL0     C56037   8.739   0.672   5.636  1.0103 -0.2124  0.2676
  407MOL0     C56038   8.833   0.781   5.653  0.3016 -0.4864 -0.2257
  407MOL0     C56039   8.832   0.863   5.525 -0.5337 -0.9839 -0.7309
  407MOL0     C56040   8.885   1.010   5.555  0.9294 -0.9122  0.4670
  407MOL0     C56041   8.929   1.078   5.436  0.4965 -0.1708 -0.9886
  407MOL0     C56042   8.816   1.108   5.332 -0.7281  0.3723  0.0250
  407MOL0     C56043   8.768   0.987   5.253 -0.5722 -0.2247 -0.8586
  407MOL0     C56044   8.717   1.023   5.115  0.8040  0.0067 -0.5319
  407MOL0     N56045   8.593   1.104   5.124  0.3113  0.2316 -0.5279
  407MOL0     C56046   8.467   1.052   5.094  0.5261 -0.0561 -0.5779
  407MOL0     C56047   8.388   1.149   5.133 -0.0973  0.2524  1.0479
  407MOL0     C56048   8.238   1.139   5.135 -0.0352  0.2161  0.5999
  407MOL0     C56049   8.160   1.166   5.269 -0.2624  0.0831  0.3440
  407MOL0     C56050   8.138   1.319   5.288 -0.0823  0.7752 -0.2729
  407MOL0     C56051   8.069   1.326   5.423  1.2505 -0.8277 -0.7724
  407MOL0     O56052   8.023   1.461   5.423 -0.0545 -0.1814  0.4639
  407MOL0     C56053   7.928   1.491   5.517  0.2613 -0.7818  0.7635
  407MOL0     C56054   7.933   1.457   5.647  0.1325  0.9149  0.3606
  407MOL0     C56055   7.834   1.477   5.752  0.1118 -0.9208 -0.2865
  407MOL0     C56056   7.849   1.391   5.882  0.2827 -0.7202  0.6425
  407MOL0     C56057   7.728   1.571   5.709  0.0415 -1.2876 -1.3599
  407MOL0     C56058   7.618   1.623   5.799  0.3174  0.1896  0.4012
  407MOL0     O56059   7.512   1.688   5.738  0.3153  0.1687  0.4183
  407MOL0     C56060   7.403   1.728   5.814  0.1679  0.1746 -0.6634
  407MOL0     C56061   7.317   1.638   5.879 -0.8871 -0.2319  0.0546
  407MOL0     C56062   7.197   1.680   5.944  0.4664 -0.0836  1.3291
  407MOL0     C56063   7.166   1.814   5.946 -0.3225 -0.5356  0.0098
  407MOL0     O56064   7.046   1.858   5.997  0.0213  0.9421  0.1046
  407MOL0     C56065   7.005   1.819   6.130  0.1059  0.4918  0.5025
  407MOL0     C56066   6.935   1.950   6.182 -0.0466 -0.4791 -0.4970
  407MOL0     C56067   6.879   1.917   6.321  0.2777 -0.9915  1.1014
  407MOL0     C56068   6.746   1.833   6.313  1.1205  0.9262 -1.0621
  407MOL0     C56069   6.734   1.738   6.428 -0.6955 -0.0917 -0.8965
  407MOL0     C56070   6.604   1.663   6.426  0.6468  1.0843  0.0007
  407MOL0     C56071   6.583   1.601   6.563  0.3782 -0.6475 -0.3377
  407MOL0     C56072   6.465   1.504   6.583  0.1029 -0.7498  0.2944
  407MOL0    Cl56073   6.322   1.592   6.515  0.1036  0.3313 -0.7894
  407MOL0     C56074   7.250   1.898   5.871  0.2699 -0.5173 -0.2308
  407MOL0     C56075   7.367   1.861   5.804  0.2485 -0.1980 -0.7304
  407MOL0     O56076   7.608   1.583   5.916 -0.3520 -0.5094 -0.1553
  407MOL0     C56077   7.737   1.626   5.573  0.7828  0.3487 -0.0830
  407MOL0     C56078   7.831   1.584   5.480 -0.0101 -0.3605 -0.7261
  407MOL0     N56079   8.448   1.246   5.197  0.0652 -0.9402 -0.4480
  407MOL0     N56080   8.573   1.213   5.198  1.3237  0.0836  0.5847
  407MOL0     C56081   8.547   0.517   5.906 -0.5243  0.6252 -0.4534
  407MOL0     C56082   8.430   0.436   5.920 -0.1217 -0.1703 -0.3932
  407MOL0     C56083   8.023   0.251   5.821 -1.3219 -0.1798  1.0418
  407MOL0     C56084   7.895   0.309   5.833 -0.1300  0.0445  0.7884
  407MOL0     C56085   7.780   0.224   5.837  0.1362 -0.6982 -0.2292
  407MOL0     C56086   7.790   0.087   5.832 -0.0490  0.5976 -0.3659
  407MOL0     O56087   7.679   0.005   5.821 -0.0027  0.1796  0.0490
  407MOL0     C56088   7.605   0.010   5.701  0.5433 -0.0717 -0.5276
  407MOL0     C56089   7.569  -0.123   5.646 -0.4513 -0.4796  0.2508
  407MOL0     C56090   7.503  -0.120   5.508  0.8196  0.5630 -0.6290
  407MOL0     C56091   7.479  -0.256   5.454  0.3810 -0.0379  0.8534
  407MOL0     C56092   7.464  -0.251   5.314  0.0578 -0.0135  0.5308
  407MOL0     C56093   7.443  -0.245   5.194  0.0556 -0.1194 -0.6030
  407MOL0     C56094   7.922   0.028   5.849 -0.2120  0.4296 -0.4816
  407MOL0     C56095   8.031   0.111   5.830 -1.0329 -0.0245 -0.1074
  407MOL0     C56096   8.167   0.048   5.837 -0.6751  0.7876 -0.4221
  407MOL0     H56097   8.384   0.329   5.610 -1.5878 -2.5758  2.3712
  407MOL0     H56098   8.589   0.484   5.578  1.3474 -1.5264  0.0450
  407MOL0     H56099   8.646   0.683   5.580  0.5384 -1.2925  0.8182
  407MOL0     H56100   8.803   0.597   5.590  1.2097 -0.0694  0.3072
  407MOL0     H56101   8.782   0.849   5.722  0.5887  3.1301 -3.2394
  407MOL0     H56102   8.932   0.746   5.684 -0.0414 -1.3802 -0.1092
  407MOL0     H56103   8.885   0.820   5.439  1.9953  1.4387 -0.5145
  407MOL0     H56104   8.729   0.868   5.489 -0.1601  2.5101 -1.6274
  407MOL0     H56105   8.807   1.066   5.607  0.7350 -1.5016  0.8191
  407MOL0     H56106   8.968   1.020   5.625 -0.3458  1.7322  1.7574
  407MOL0     H56107   9.010   1.020   5.391 -1.7594 -2.6508 -2.1534
  407MOL0     H56108   8.967   1.177   5.464  0.2696  0.1606 -1.8406
  407MOL0     H56109   8.726   1.143   5.384 -2.5502  3.0557 -4.3270
  407MOL0     H56110   8.845   1.194   5.270  0.2147 -2.2852 -3.5492
  407MOL0     H56111   8.691   0.932   5.307  0.9260 -1.2185  0.3355
  407MOL0     H56112   8.855   0.922   5.247  0.8731  1.6894 -1.6476
  407MOL0     H56113   8.792   1.079   5.059  2.8273 -0.6435  1.3964
  407MOL0     H56114   8.705   0.931   5.057  1.5885  1.1104 -2.5416
  407MOL0     H56115   8.434   0.962   5.043 -2.1801  0.6690 -0.3149
  407MOL0     H56116   8.221   1.035   5.108  1.0648  0.5075 -1.3588
  407MOL0     H56117   8.190   1.200   5.058  2.3935  0.4595 -0.8393
  407MOL0     H56118   8.067   1.109   5.272 -0.7492  0.8851  1.9553
  407MOL0     H56119   8.235   1.130   5.340  0.2758  0.5847  0.0341
  407MOL0     H56120   8.232   1.375   5.283  1.6140 -1.4400  3.0466
  407MOL0     H56121   8.071   1.344   5.205 -2.1805 -3.8276 -0.2573
  407MOL0     H56122   7.972   1.276   5.425 -0.0699  1.4514  2.7892
  407MOL0     H56123   8.129   1.295   5.509  0.6258  0.3424  0.1209
  407MOL0     H56124   8.012   1.389   5.676 -2.3294 -2.0284  0.5650
  407MOL0     H56125   7.900   1.298   5.855 -2.1028 -1.9019 -0.1031
  407MOL0     H56126   7.753   1.350   5.915 -1.7490  0.1341 -3.5071
  407MOL0     H56127   7.909   1.448   5.953 -1.4872  0.3179  1.3759
  407MOL0     H56128   7.354   1.536   5.881 -1.1096 -0.4446  4.8938
  407MOL0     H56129   7.125   1.612   5.990 -1.7668 -0.6597 -2.5975
  407MOL0     H56130   6.932   1.738   6.126 -0.2008  0.6889  1.7703
  407MOL0     H56131   7.092   1.779   6.184 -1.0915 -0.1624  2.0149
  407MOL0     H56132   7.013   2.026   6.193  3.1781 -3.4772 -0.8943
  407MOL0     H56133   6.854   1.985   6.118 -1.6937 -1.7826  0.7721
  407MOL0     H56134   6.853   2.016   6.360  0.0819 -0.1860 -0.9707
  407MOL0     H56135   6.957   1.871   6.383 -0.9317 -1.4091  2.3777
  407MOL0     H56136   6.735   1.777   6.220 -1.7337 -0.0660 -0.2173
  407MOL0     H56137   6.666   1.908   6.315  0.2900  0.0304  0.4472
  407MOL0     H56138   6.815   1.664   6.420  0.4900  0.2919  4.3492
  407MOL0     H56139   6.760   1.791   6.520  1.9045 -5.6165  2.0224
  407MOL0     H56140   6.626   1.581   6.358  2.1759  0.7971  0.8084
  407MOL0     H56141   6.525   1.725   6.383 -1.1655 -0.1187  1.4467
  407MOL0     H56142   6.560   1.687   6.627 -0.4618  0.8485 -2.5361
  407MOL0     H56143   6.672   1.554   6.606 -1.3322 -3.5382  0.3953
  407MOL0     H56144   6.434   1.472   6.683 -2.7875 -2.7936 -1.0985
  407MOL0     H56145   6.483   1.417   6.520  0.0583 -1.1982  0.8905
  407MOL0     H56146   7.218   2.002   5.873  3.2347  0.4956  0.9270
  407MOL0     H56147   7.434   1.929   5.753  1.9662  0.3331  2.0253
  407MOL0     H56148   7.669   1.703   5.539  1.4474  0.3092 -1.5904
  407MOL0     H56149   7.820   1.622   5.379  0.4530  1.9401  0.0247
  407MOL0     H56150   8.601   0.544   5.996  1.4623  0.0145 -1.4022
  407MOL0     H56151   8.385   0.424   6.018 -1.3313  2.0849 -0.5859
  407MOL0     H56152   7.873   0.415   5.825 -1.8422 -0.3252  0.1579
  407MOL0     H56153   7.690   0.283   5.845  0.0507 -0.8489 -0.0621
  407MOL0     H56154   7.513   0.064   5.724 -1.9469 -3.5096 -1.6830
  407MOL0     H56155   7.660   0.072   5.629 -2.6998  2.6339 -0.9153
  407MOL0     H56156   7.500  -0.168   5.718 -1.8403  1.8929  0.5007
  407MOL0     H56157   7.657  -0.187   5.639 -1.6513 -2.0317 -2.1590
  407MOL0     H56158   7.405  -0.072   5.512 -0.1089 -1.3187  0.5795
  407MOL0     H56159   7.574  -0.059   5.450  1.8258  0.3364  0.3396
  407MOL0     H56160   7.390  -0.308   5.489 -0.6954 -0.3422 -2.0363
  407MOL0     H56161   7.562  -0.324   5.469 -0.9631 -1.7867  0.6460
  407MOL0     H56162   7.436  -0.252   5.087 -0.5946  0.6400 -0.6186
  407MOL0     H56163   7.932  -0.080   5.856  2.0639  0.3252 -3.3715
  407MOL0     H56164   8.165  -0.061   5.850  1.4541  0.5135 -1.8305
  407MOL0     H56165   8.240   0.072   5.759  0.1387  5.4068  1.4724
  407MOL0     H56166   8.218   0.086   5.926  0.0019 -0.9052 -0.0324
  408MOL0     O56167  10.306  11.246   0.654  0.3301  0.7384 -0.4333
  408MOL0     C56168  10.245  11.141   0.650  0.6430 -0.2015 -0.0100
  408MOL0     O56169  10.139  11.130   0.573  0.4339 -0.3093  0.4052
  408MOL0     C56170  10.110  11.218   0.470 -0.2070  0.7676 -0.2435
  408MOL0     C56171   9.977  11.266   0.455  0.7261  0.4342 -0.8408
  408MOL0     C56172   9.946  11.357   0.352 -0.7167 -0.0640 -0.0852
  408MOL0     C56173  10.054  11.396   0.262  0.9687  0.7513  0.3700
  408MOL0     O56174  10.032  11.503   0.171  0.3572 -0.2497 -0.2455
  408MOL0     C56175  10.070  11.636   0.233 -0.3550  0.2071  0.6786
  408MOL0     C56176  10.049  11.746   0.127  0.6162  0.0261 -0.3706
  408MOL0     C56177  10.126  11.878   0.145  0.6166  0.7921  0.5823
  408MOL0     C56178  10.278  11.865   0.125  1.3319  0.4869 -0.4411
  408MOL0     C56179  10.345  12.006   0.117 -0.0405  0.1897 -0.2841
  408MOL0     C56180  10.483  11.968   0.058 -0.0523  0.1257 -0.5793
  408MOL0     C56181  10.550  12.101   0.029  0.7256  0.5709  0.2695
  408MOL0     C56182  10.688  12.085  -0.042  0.1724  0.6502  0.6289
  408MOL0     N56183  10.704  12.155  -0.166 -0.4305 -0.7482 -0.1015
  408MOL0     C56184  10.744  12.097  -0.280  0.2926 -0.4334  0.2084
  408MOL0     C56185  10.770  12.206  -0.367 -0.3556  0.3503  0.7434
  408MOL0     C56186  10.793  12.197  -0.515  0.1603  0.2838 -0.4418
  408MOL0     C56187  10.947  12.214  -0.544 -0.4819 -0.0122 -0.0847
  408MOL0     C56188  10.998  12.359  -0.508  0.7397 -0.9218  0.8898
  408MOL0     C56189  11.145  12.363  -0.524  0.9018 -1.0154  0.0135
  408MOL0     O56190  11.192  12.496  -0.490 -0.0763 -0.1151 -0.7443
  408MOL0     C56191  11.256  12.514  -0.373  1.1638 -1.1174 -0.0836
  408MOL0     C56192  11.222  12.456  -0.254 -1.2460  0.2757 -0.2750
  408MOL0     C56193  11.308  12.472  -0.138  0.2290 -0.6058  0.0074
  408MOL0     C56194  11.276  12.390  -0.015 -0.2939  0.3105 -0.3899
  408MOL0     C56195  11.408  12.577  -0.147  0.1346 -0.5503  0.3334
  408MOL0     C56196  11.509  12.611  -0.034  0.7597 -0.1481  0.8967
  408MOL0     O56197  11.631  12.656  -0.060  0.0488 -0.4143 -0.4100
  408MOL0     C56198  11.695  12.725   0.037 -0.8494 -0.6367 -0.2587
  408MOL0     C56199  11.765  12.662   0.145  0.3324  1.0715 -0.4100
  408MOL0     C56200  11.834  12.725   0.243  1.4251  0.1452 -0.3504
  408MOL0     C56201  11.822  12.865   0.246  0.3505  0.5806  0.3423
  408MOL0     O56202  11.889  12.922   0.343 -0.1631  0.1789 -0.5682
  408MOL0     C56203  11.827  13.040   0.415 -0.0026  0.2449  0.7876
  408MOL0     C56204  11.705  13.000   0.508 -0.6891  0.2839  0.1772
  408MOL0     C56205  11.571  12.988   0.443  1.0917 -0.1298  1.4879
  408MOL0     C56206  11.501  13.118   0.391  0.3316 -0.5507  0.4649
  408MOL0     C56207  11.378  13.075   0.315  0.1246 -0.2349 -0.4144
  408MOL0     C56208  11.277  13.186   0.281  0.1409 -0.1558 -0.0671
  408MOL0     C56209  11.236  13.286   0.384 -0.4578 -0.1340 -0.5201
  408MOL0     C56210  11.178  13.221   0.514  0.1031 -0.8741  1.0959
  408MOL0    Cl56211  11.088  13.076   0.484  0.3273  0.1548  0.1787
  408MOL0     C56212  11.758  12.937   0.142 -0.4770  0.0988  0.8394
  408MOL0     C56213  11.694  12.874   0.028 -0.2747 -0.1228 -0.1863
  408MOL0     O56214  11.466  12.595   0.083 -0.0970 -0.3934 -0.1178
  408MOL0     C56215  11.426  12.646  -0.269 -0.6659 -0.0212 -0.3031
  408MOL0     C56216  11.355  12.610  -0.376  0.8264 -0.7357  0.4224
  408MOL0     N56217  10.752  12.322  -0.294 -0.1585  0.9075  0.6497
  408MOL0     N56218  10.715  12.290  -0.176 -0.6915 -0.3210  0.0893
  408MOL0     C56219  10.172  11.334   0.262  0.4977  0.2198 -0.1660
  408MOL0     C56220  10.197  11.247   0.372 -0.2992 -0.1439 -0.8692
  408MOL0     C56221  10.297  11.022   0.714 -0.9801  0.5539 -0.8219
  408MOL0     C56222  10.432  11.035   0.743 -0.8946  0.8755 -1.3983
  408MOL0     C56223  10.516  10.934   0.794  0.5491 -0.8026  0.0189
  408MOL0     C56224  10.459  10.806   0.804  0.1630 -0.1504  0.9132
  408MOL0     O56225  10.534  10.691   0.825  0.3073  0.0100  0.0719
  408MOL0     C56226  10.682  10.707   0.832 -0.2026 -0.3390 -0.3392
  408MOL0     C56227  10.736  10.573   0.875 -0.0872  1.1160  0.0114
  408MOL0     C56228  10.793  10.574   1.024  0.1523 -0.6035  0.3250
  408MOL0     C56229  10.906  10.474   1.031  0.3694 -0.2659 -0.6512
  408MOL0     C56230  11.033  10.531   0.988 -0.3515  0.2922  0.2284
  408MOL0     C56231  11.137  10.580   0.949  0.6512  0.5772  1.3665
  408MOL0     C56232  10.317  10.795   0.798 -0.4265  0.8109  0.0874
  408MOL0     C56233  10.235  10.894   0.747 -0.7938  0.3175  0.7261
  408MOL0     C56234  10.099  10.863   0.699  0.0579 -0.2858  0.1861
  408MOL0     H56235   9.898  11.247   0.528 -0.5826 -2.2788 -2.7705
  408MOL0     H56236   9.850  11.407   0.358 -1.1436 -0.9508  0.8973
  408MOL0     H56237  10.176  11.638   0.259 -0.7019  1.4850  2.1577
  408MOL0     H56238  10.013  11.664   0.322  0.6455 -0.6464  1.6117
  408MOL0     H56239  10.077  11.714   0.026  2.2648 -0.8792  0.3321
  408MOL0     H56240   9.941  11.757   0.134  0.3409 -1.8126 -1.0181
  408MOL0     H56241  10.088  11.952   0.074 -2.8094  1.1229  2.5180
  408MOL0     H56242  10.111  11.921   0.244  1.1135 -0.0401  1.0346
  408MOL0     H56243  10.317  11.814   0.213  1.7599  1.6099  0.0482
  408MOL0     H56244  10.298  11.803   0.037 -1.3185 -2.4101  0.8174
  408MOL0     H56245  10.347  12.060   0.212  1.1278  3.8781 -2.2329
  408MOL0     H56246  10.271  12.065   0.062 -3.2613 -1.4747  1.8875
  408MOL0     H56247  10.543  11.892   0.110  0.2684  0.5499 -0.3234
  408MOL0     H56248  10.464  11.929  -0.042 -0.3610  1.6828 -1.1571
  408MOL0     H56249  10.568  12.158   0.121  1.9569  0.2691  0.2214
  408MOL0     H56250  10.489  12.168  -0.033 -0.2098  0.8487  1.4532
  408MOL0     H56251  10.771  12.122   0.019  2.2883  3.2611 -3.3656
  408MOL0     H56252  10.701  11.976  -0.047 -1.9458  0.3035  1.5529
  408MOL0     H56253  10.764  11.992  -0.297 -2.3255 -1.1978  1.4012
  408MOL0     H56254  10.740  12.281  -0.560 -1.7288  0.2702  1.6012
  408MOL0     H56255  10.756  12.100  -0.549 -1.7144  1.6148 -2.5116
  408MOL0     H56256  11.010  12.134  -0.506  0.6925  0.5806 -0.7278
  408MOL0     H56257  10.962  12.213  -0.652  1.8925 -1.1748  0.1878
  408MOL0     H56258  10.952  12.439  -0.567  1.3397 -0.5296  0.9406
  408MOL0     H56259  10.977  12.366  -0.400  2.6102 -1.2773  1.3039
  408MOL0     H56260  11.193  12.285  -0.463  0.9997 -2.1146 -1.4199
  408MOL0     H56261  11.160  12.341  -0.630  2.5610 -0.2438  0.0518
  408MOL0     H56262  11.134  12.393  -0.259 -1.1941  0.1524  0.2926
  408MOL0     H56263  11.195  12.319  -0.032 -0.2153 -0.2310  1.3602
  408MOL0     H56264  11.255  12.458   0.068  0.5828  1.3940 -1.0214
  408MOL0     H56265  11.359  12.331   0.026  0.5776  2.8304  1.7337
  408MOL0     H56266  11.767  12.554   0.134  0.2645  1.0286 -0.0036
  408MOL0     H56267  11.891  12.675   0.321  1.6439  0.4691 -0.2961
  408MOL0     H56268  11.897  13.102   0.471  1.8325  2.2671 -3.3415
  408MOL0     H56269  11.778  13.111   0.348  1.3219  0.8980  0.4816
  408MOL0     H56270  11.729  12.904   0.554  0.7660  1.2218  1.4737
  408MOL0     H56271  11.695  13.077   0.585  1.4463  0.7506  0.0345
  408MOL0     H56272  11.499  12.953   0.518 -3.1664  0.8574 -1.7694
  408MOL0     H56273  11.568  12.901   0.377  2.2087  0.8948  0.0302
  408MOL0     H56274  11.569  13.171   0.323 -0.4996 -1.2740 -0.9623
  408MOL0     H56275  11.472  13.182   0.475 -0.4973 -0.0886 -0.1585
  408MOL0     H56276  11.416  13.028   0.223 -0.4951 -1.3017 -0.1388
  408MOL0     H56277  11.319  13.001   0.370 -2.2970  2.6244  1.1515
  408MOL0     H56278  11.182  13.148   0.243  0.5709 -0.3729 -0.9446
  408MOL0     H56279  11.330  13.237   0.200 -0.0995  0.3236  0.0722
  408MOL0     H56280  11.153  13.339   0.336 -0.9080  0.4837  0.8682
  408MOL0     H56281  11.325  13.346   0.403 -1.2525  2.5107 -4.0939
  408MOL0     H56282  11.104  13.289   0.558  0.2492 -0.8431  1.2925
  408MOL0     H56283  11.250  13.207   0.594  2.1099 -1.9199 -0.7859
  408MOL0     H56284  11.766  13.045   0.138  2.6378 -0.0810 -2.0553
  408MOL0     H56285  11.651  12.943  -0.044  1.9730  2.4753  0.8273
  408MOL0     H56286  11.512  12.712  -0.282 -1.3528  1.0936  0.5811
  408MOL0     H56287  11.371  12.669  -0.466 -3.1701 -0.4372 -0.2754
  408MOL0     H56288  10.254  11.350   0.193 -0.2601 -2.0993 -1.7498
  408MOL0     H56289  10.286  11.188   0.357 -0.7817 -0.7572 -1.3513
  408MOL0     H56290  10.488  11.125   0.722  0.8704  0.7041  1.9313
  408MOL0     H56291  10.622  10.954   0.805  0.3217  0.5143 -0.0389
  408MOL0     H56292  10.730  10.718   0.734 -1.2783 -2.3357 -1.1668
  408MOL0     H56293  10.700  10.788   0.903 -1.2043 -0.5241  0.1409
  408MOL0     H56294  10.810  10.546   0.798  0.2784  1.0314  0.3868
  408MOL0     H56295  10.667  10.489   0.864  2.1536 -1.3486  2.9103
  408MOL0     H56296  10.832  10.673   1.047 -0.2820 -0.4337  0.3452
  408MOL0     H56297  10.708  10.554   1.091 -1.5297 -0.4388 -1.6635
  408MOL0     H56298  10.873  10.391   0.969  1.4584 -1.3757  0.2070
  408MOL0     H56299  10.922  10.443   1.135  0.4914  1.0199 -0.2699
  408MOL0     H56300  11.226  10.632   0.921 -0.1668  1.2637 -0.0976
  408MOL0     H56301  10.276  10.695   0.808 -2.0069  1.3160 -0.9575
  408MOL0     H56302  10.110  10.842   0.592  3.7558  1.1808  0.1005
  408MOL0     H56303  10.075  10.762   0.732 -0.7431  0.5421  2.3336
  408MOL0     H56304  10.026  10.938   0.730 -0.5781  0.2413 -2.3504
  409MOL0     O56305   0.747   9.570   8.837  0.7970  0.1136 -0.6971
  409MOL0     C56306   0.691   9.462   8.805  0.0389 -1.1169  0.1954
  409MOL0     O56307   0.697   9.413   8.680 -0.0383  0.5089  0.4333
  409MOL0     C56308   0.780   9.475   8.585  0.4346  0.1223  1.7399
  409MOL0     C56309   0.731   9.552   8.471  0.9983  0.2927 -0.7395
  409MOL0     C56310   0.816   9.598   8.374  1.0464 -0.2610  0.7254
  409MOL0     C56311   0.949   9.566   8.374 -0.5777  0.0442 -0.4891
  409MOL0     O56312   1.030   9.602   8.261 -0.3765 -0.5161  1.0419
  409MOL0     C56313   1.132   9.514   8.219  0.0002  0.2264 -0.2080
  409MOL0     C56314   1.155   9.513   8.072 -0.0007  0.4816  0.0963
  409MOL0     C56315   1.230   9.635   8.009  0.0401  1.1006 -0.1601
  409MOL0     C56316   1.132   9.733   7.963  0.1107  0.1026  0.6931
  409MOL0     C56317   1.202   9.867   7.924 -0.8524 -0.0905 -0.3920
  409MOL0     C56318   1.285   9.946   8.020 -0.3560  0.3410 -0.4732
  409MOL0     C56319   1.221  10.008   8.147 -0.6212  0.5954  0.5456
  409MOL0     C56320   1.294  10.142   8.171  0.3111 -0.1766 -0.6461
  409MOL0     N56321   1.209  10.257   8.145 -0.0118 -0.6014  0.5719
  409MOL0     C56322   1.212  10.369   8.213  1.1687  0.4761 -0.5891
  409MOL0     C56323   1.125  10.459   8.156  0.2615  0.8898 -0.0665
  409MOL0     C56324   1.079  10.592   8.204 -0.6025 -0.4812  0.4693
  409MOL0     C56325   1.118  10.696   8.104  0.1580 -0.7718 -0.0471
  409MOL0     C56326   1.094  10.674   7.954  0.1178 -0.0959  0.9071
  409MOL0     C56327   1.142  10.796   7.874  0.0951  0.2396 -0.3615
  409MOL0     O56328   1.071  10.917   7.876  0.1198  0.1535  0.5722
  409MOL0     C56329   1.106  11.031   7.820  0.6262 -0.7880 -0.3401
  409MOL0     C56330   1.031  11.149   7.868 -0.3175 -0.3390 -0.0670
  409MOL0     C56331   1.045  11.279   7.815 -0.0171  0.1702 -0.1552
  409MOL0     C56332   0.956  11.383   7.860 -0.3120 -1.3360 -0.4219
  409MOL0     C56333   1.130  11.295   7.712 -1.3715 -0.3482  0.9152
  409MOL0     C56334   1.136  11.428   7.651  0.5449  0.1141  0.1204
  409MOL0     O56335   1.068  11.456   7.529 -0.6924 -0.1167 -0.3973
  409MOL0     C56336   1.034  11.586   7.496  0.2841  1.0387  0.7309
  409MOL0     C56337   1.020  11.604   7.360 -0.0029 -0.5743 -0.2371
  409MOL0     C56338   0.984  11.727   7.309 -0.1175 -0.0454 -0.1623
  409MOL0     C56339   0.959  11.836   7.391 -0.2336 -0.3168  0.5242
  409MOL0     O56340   0.934  11.951   7.322 -0.0677  0.1754  0.2128
  409MOL0     C56341   0.947  12.074   7.395 -0.7519  0.5006 -0.2187
  409MOL0     C56342   1.100  12.112   7.418 -0.1986  0.9067  0.0388
  409MOL0     C56343   1.107  12.259   7.455 -0.5579 -0.4541  0.0700
  409MOL0     C56344   1.258  12.301   7.463  0.0064  0.0691  0.2816
  409MOL0     C56345   1.273  12.448   7.493  0.4178  0.3028 -0.2385
  409MOL0     C56346   1.400  12.500   7.429 -0.3177 -0.0907  1.1577
  409MOL0     C56347   1.433  12.647   7.488 -1.1438 -0.2253 -0.0465
  409MOL0     C56348   1.564  12.697   7.426  0.2149 -1.1556  0.2146
  409MOL0    Cl56349   1.555  12.868   7.466  0.2924 -0.0844  0.0636
  409MOL0     C56350   0.976  11.821   7.529  0.1250 -0.1755 -0.1724
  409MOL0     C56351   1.015  11.695   7.581 -1.0536 -0.5246 -0.2593
  409MOL0     O56352   1.198  11.518   7.714 -0.4225  0.4706  0.1419
  409MOL0     C56353   1.196  11.184   7.655 -0.0266 -0.0686 -0.3216
  409MOL0     C56354   1.185  11.050   7.710 -1.1115 -0.2466 -0.6271
  409MOL0     N56355   1.079  10.396   8.043  0.0201 -0.5475 -0.7178
  409MOL0     N56356   1.136  10.284   8.035  0.7278 -0.3004 -0.9670
  409MOL0     C56357   0.999   9.507   8.488 -0.6149  0.6336 -0.2941
  409MOL0     C56358   0.919   9.470   8.594 -0.0396 -0.1355  0.5551
  409MOL0     C56359   0.614   9.387   8.908 -0.3850 -0.2428  0.4431
  409MOL0     C56360   0.584   9.459   9.023 -0.5154 -0.2660  0.6491
  409MOL0     C56361   0.488   9.423   9.114 -1.0325  0.9748  0.3296
  409MOL0     C56362   0.418   9.292   9.091 -0.4948  0.1035  0.2560
  409MOL0     O56363   0.325   9.220   9.170 -0.7681  0.2170 -0.3581
  409MOL0     C56364   0.195   9.276   9.134 -0.0878 -0.3895  0.2292
  409MOL0     C56365   0.105   9.312   9.252 -0.2588  0.2639 -0.9300
  409MOL0     C56366  -0.036   9.330   9.208 -0.1435 -0.1732  0.7936
  409MOL0     C56367  -0.119   9.195   9.201 -0.3609 -0.8878  1.0488
  409MOL0     C56368  -0.263   9.212   9.226  0.1086  0.2065 -0.3251
  409MOL0     C56369  -0.383   9.225   9.236  0.3663 -0.4822  0.4556
  409MOL0     C56370   0.461   9.207   8.977 -0.7470  0.6830 -0.4465
  409MOL0     C56371   0.559   9.259   8.893  0.2326 -0.1705  0.1147
  409MOL0     C56372   0.601   9.169   8.778  0.1905  0.2437  0.6340
  409MOL0     H56373   0.624   9.570   8.467  1.0864  1.3470  0.8070
  409MOL0     H56374   0.782   9.650   8.285 -2.5362 -1.2001  1.3883
  409MOL0     H56375   1.112   9.415   8.260  0.7057  1.5295  3.6899
  409MOL0     H56376   1.220   9.540   8.277 -0.3508 -0.0367  0.4554
  409MOL0     H56377   1.218   9.425   8.057 -2.7311 -1.7392  0.6679
  409MOL0     H56378   1.055   9.500   8.029  0.7261  0.3422 -1.6399
  409MOL0     H56379   1.293   9.679   8.086 -2.3747  0.3497  2.3944
  409MOL0     H56380   1.292   9.609   7.922  1.5068  2.4031  0.4421
  409MOL0     H56381   1.089   9.700   7.868 -0.5995  2.2713  0.1949
  409MOL0     H56382   1.042   9.752   8.023 -2.6892 -2.6513 -2.2242
  409MOL0     H56383   1.123   9.939   7.900  1.7518  3.3726  0.6330
  409MOL0     H56384   1.261   9.835   7.837  0.3306 -1.3905  0.8408
  409MOL0     H56385   1.361   9.874   8.052  3.4119  2.9162 -2.7430
  409MOL0     H56386   1.337  10.021   7.959 -0.3846  2.1356  1.6173
  409MOL0     H56387   1.247   9.942   8.230  2.0761  0.4973 -0.2614
  409MOL0     H56388   1.113  10.014   8.130 -0.0337  0.1942 -5.5679
  409MOL0     H56389   1.336  10.155   8.271  1.9538  2.3267 -1.5729
  409MOL0     H56390   1.383  10.143   8.107 -0.2132  0.9207 -1.3842
  409MOL0     H56391   1.280  10.382   8.297  0.2878  2.3600 -0.1194
  409MOL0     H56392   1.126  10.614   8.299 -1.6936  0.7403  0.7545
  409MOL0     H56393   0.969  10.596   8.205 -1.0704  0.2170 -6.3490
  409MOL0     H56394   1.061  10.783   8.139  1.6186 -0.4177  1.6082
  409MOL0     H56395   1.222  10.720   8.126  0.5099 -1.1876 -1.1908
  409MOL0     H56396   1.162  10.602   7.908  0.7334  1.7584 -1.2661
  409MOL0     H56397   0.989  10.647   7.944 -0.0650  0.4324  1.3275
  409MOL0     H56398   1.242  10.822   7.910 -0.6390  3.0133 -0.0968
  409MOL0     H56399   1.138  10.768   7.769  1.2696  1.5655 -0.7951
  409MOL0     H56400   0.958  11.123   7.945  0.4813 -2.9180 -0.0702
  409MOL0     H56401   1.018  11.458   7.910 -2.4606 -0.1912  0.6291
  409MOL0     H56402   0.894  11.344   7.941  1.7190  0.4173  2.1499
  409MOL0     H56403   0.898  11.424   7.777  0.8441 -3.3841 -2.3615
  409MOL0     H56404   1.047  11.533   7.283  1.8254  1.4598 -1.5890
  409MOL0     H56405   0.976  11.731   7.200  0.1016 -2.6117 -0.3444
  409MOL0     H56406   0.891  12.154   7.345 -0.9571  1.5766  1.6557
  409MOL0     H56407   0.901  12.077   7.494 -0.3351  0.8269 -0.0329
  409MOL0     H56408   1.154  12.051   7.491  2.8640 -0.5434 -3.1777
  409MOL0     H56409   1.152  12.096   7.323  1.0345 -1.6731  1.0569
  409MOL0     H56410   1.052  12.280   7.547 -3.4992 -2.3465 -1.1094
  409MOL0     H56411   1.063  12.327   7.381 -1.5653 -3.2916 -2.1381
  409MOL0     H56412   1.310  12.277   7.370 -0.5383  0.9211 -0.2613
  409MOL0     H56413   1.315  12.239   7.532  0.9254 -2.8274 -2.8163
  409MOL0     H56414   1.188  12.500   7.449 -1.4242 -2.8818 -0.7363
  409MOL0     H56415   1.271  12.456   7.602  0.3130 -0.0455 -0.2130
  409MOL0     H56416   1.382  12.497   7.322  1.4489 -0.6536  0.8498
  409MOL0     H56417   1.482  12.432   7.454  0.6845  0.0021 -1.6012
  409MOL0     H56418   1.457  12.651   7.595  1.3165  2.5540 -0.5568
  409MOL0     H56419   1.356  12.721   7.463  0.4108  1.2846 -0.5603
  409MOL0     H56420   1.561  12.675   7.319  0.1273 -0.3383  0.0401
  409MOL0     H56421   1.648  12.648   7.476  1.6739  2.0266  1.1747
  409MOL0     H56422   0.965  11.903   7.599 -2.3339  2.5251 -3.3666
  409MOL0     H56423   1.013  11.681   7.689 -4.2385 -2.1468 -0.3950
  409MOL0     H56424   1.269  11.187   7.574  4.3845  0.4308  3.2282
  409MOL0     H56425   1.244  10.968   7.672 -0.6906  0.1831 -0.9120
  409MOL0     H56426   1.100   9.478   8.512 -1.1752  0.4590  2.0494
  409MOL0     H56427   0.961   9.415   8.678  1.0222  1.5816  1.1897
  409MOL0     H56428   0.629   9.556   9.037  0.6360 -0.6273 -0.3266
  409MOL0     H56429   0.461   9.475   9.205 -0.8665 -3.1955  3.0035
  409MOL0     H56430   0.207   9.374   9.088  1.0981  0.6415  2.5575
  409MOL0     H56431   0.151   9.219   9.051  1.3224 -3.2093  1.2630
  409MOL0     H56432   0.145   9.405   9.291 -2.6242  0.1823  2.0601
  409MOL0     H56433   0.105   9.240   9.334 -2.7023  0.6146 -0.5517
  409MOL0     H56434  -0.092   9.398   9.273  0.9921  1.7066 -0.0828
  409MOL0     H56435  -0.043   9.383   9.112 -0.0227  1.9421  1.8932
  409MOL0     H56436  -0.074   9.109   9.251  0.2220 -1.3707 -0.2433
  409MOL0     H56437  -0.111   9.168   9.095  2.3623 -0.5716  1.0893
  409MOL0     H56438  -0.490   9.221   9.242  0.3555 -1.3775 -0.1258
  409MOL0     H56439   0.410   9.112   8.969  0.7540 -0.5607  2.9723
  409MOL0     H56440   0.706   9.190   8.756  0.8340 -2.7119  0.4517
  409MOL0     H56441   0.594   9.060   8.784  0.5860  0.2407  1.2066
  409MOL0     H56442   0.536   9.197   8.695  3.0269  3.5894 -0.7595
  410MOL0     O56443  10.911   3.602   6.736 -0.4028 -0.1065  0.3630
  410MOL0     C56444  10.945   3.717   6.729 -0.2550 -0.3942  0.9475
  410MOL0     O56445  10.919   3.810   6.632  0.5599 -1.4198  0.1887
  410MOL0     C56446  10.862   3.778   6.517 -0.4966  0.0004  0.7143
  410MOL0     C56447  10.772   3.676   6.494  0.1023  0.6792  0.3564
  410MOL0     C56448  10.731   3.658   6.363  0.6114 -0.0455 -0.2492
  410MOL0     C56449  10.760   3.748   6.260 -0.2172 -0.4853  0.4701
  410MOL0     O56450  10.713   3.744   6.131 -0.9124  1.5425 -1.0574
  410MOL0     C56451  10.609   3.654   6.099  0.2719  0.4279 -0.1481
  410MOL0     C56452  10.557   3.687   5.966 -0.9160  0.3228 -0.9654
  410MOL0     C56453  10.662   3.637   5.858  1.0765  0.3803 -0.3067
  410MOL0     C56454  10.604   3.646   5.713  0.7857 -0.5896 -0.1547
  410MOL0     C56455  10.581   3.793   5.672 -0.0430 -0.3006 -0.0636
  410MOL0     C56456  10.523   3.798   5.532  0.1007  0.6043 -0.2181
  410MOL0     C56457  10.485   3.941   5.490  0.3778  0.9558 -1.9543
  410MOL0     C56458  10.392   3.960   5.367  0.1550  0.8630 -0.6851
  410MOL0     N56459  10.407   4.090   5.313  0.2888  0.8401  0.4778
  410MOL0     C56460  10.345   4.209   5.327  0.0734  0.2805 -0.0254
  410MOL0     C56461  10.417   4.293   5.248  1.1727 -0.3173 -0.5977
  410MOL0     C56462  10.387   4.435   5.239  0.3165  0.5048 -0.7247
  410MOL0     C56463  10.484   4.475   5.350  0.3045 -0.7810 -1.2077
  410MOL0     C56464  10.549   4.612   5.320  0.5726 -0.7251  0.5617
  410MOL0     C56465  10.486   4.722   5.396  0.2101  0.0831  0.1856
  410MOL0     O56466  10.548   4.843   5.343 -0.0371  0.9500 -0.0587
  410MOL0     C56467  10.604   4.928   5.433  0.1484 -0.6001  0.1707
  410MOL0     C56468  10.726   4.894   5.478 -0.1338  0.1041 -1.3681
  410MOL0     C56469  10.789   4.968   5.576 -0.4088  0.8340 -0.2886
  410MOL0     C56470  10.929   4.916   5.614 -0.1304 -0.0223  0.2649
  410MOL0     C56471  10.717   5.088   5.628  0.5153 -0.2482  0.4340
  410MOL0     C56472  10.785   5.188   5.719  1.0700  0.6143  0.2819
  410MOL0     O56473  10.916   5.173   5.731 -0.3530 -0.4987  0.0204
  410MOL0     C56474  10.963   5.236   5.847  0.2976 -1.1437 -0.1554
  410MOL0     C56475  10.977   5.164   5.963 -0.0441  0.3721  0.1955
  410MOL0     C56476  11.054   5.214   6.070  0.2270  0.3048 -0.7730
  410MOL0     C56477  11.104   5.345   6.066 -0.4017 -0.7651 -0.7347
  410MOL0     O56478  11.162   5.404   6.178 -0.1973  0.0239 -0.2870
  410MOL0     C56479  11.309   5.424   6.177  0.0240 -0.0476  0.2702
  410MOL0     C56480  11.389   5.297   6.208  0.4536 -0.5007  0.1127
  410MOL0     C56481  11.329   5.223   6.323 -0.0825  0.7292  0.3345
  410MOL0     C56482  11.411   5.099   6.365 -0.1319 -0.0300 -0.1592
  410MOL0     C56483  11.448   5.001   6.248  0.7089 -0.2982  0.1290
  410MOL0     C56484  11.322   4.930   6.191  0.2787  0.1236 -0.0204
  410MOL0     C56485  11.342   4.786   6.169 -0.2135 -0.1343 -0.1257
  410MOL0     C56486  11.215   4.707   6.158  0.0497 -0.4884 -0.0876
  410MOL0    Cl56487  11.111   4.753   6.021  0.4922 -0.3750 -0.0857
  410MOL0     C56488  11.076   5.425   5.954  0.1508 -0.1001 -1.3832
  410MOL0     C56489  11.011   5.369   5.852  0.7247 -1.1349 -0.5158
  410MOL0     O56490  10.718   5.288   5.760 -0.5423  0.3433  1.1155
  410MOL0     C56491  10.598   5.130   5.567 -0.0870 -1.0653 -0.5721
  410MOL0     C56492  10.546   5.044   5.472  0.4426 -0.8237  0.5169
  410MOL0     N56493  10.526   4.227   5.191 -0.1504  0.3674  0.3263
  410MOL0     N56494  10.509   4.102   5.226 -0.5028  0.3035 -0.1065
  410MOL0     C56495  10.839   3.863   6.291  0.6324  0.0061 -0.2987
  410MOL0     C56496  10.888   3.876   6.421  0.4743 -0.1683  1.2956
  410MOL0     C56497  11.059   3.773   6.813 -0.2834 -0.6276  0.0618
  410MOL0     C56498  11.184   3.711   6.804  0.5091 -0.8658 -0.4006
  410MOL0     C56499  11.296   3.759   6.878 -0.1481  0.0809  0.4525
  410MOL0     C56500  11.294   3.876   6.945 -1.1315  0.5143 -0.4589
  410MOL0     O56501  11.412   3.920   7.006 -0.4129  0.9931 -0.8348
  410MOL0     C56502  11.425   4.050   7.057 -0.3866 -0.0765  0.4215
  410MOL0     C56503  11.549   4.047   7.151  0.1659 -0.0415  0.3370
  410MOL0     C56504  11.519   3.944   7.267 -0.6369 -1.0132  0.1717
  410MOL0     C56505  11.579   3.804   7.243  0.1681 -0.0645  0.2300
  410MOL0     C56506  11.722   3.798   7.221  0.3049  0.6448  0.5323
  410MOL0     C56507  11.835   3.817   7.182 -0.1640 -0.0276 -0.0653
  410MOL0     C56508  11.167   3.951   6.950 -0.2726 -0.3396  0.8427
  410MOL0     C56509  11.055   3.899   6.877  0.8518 -0.5241  0.8580
  410MOL0     C56510  10.927   3.989   6.882  0.2481  0.3546 -0.4473
  410MOL0     H56511  10.748   3.604   6.571 -0.6807  2.5317  1.9279
  410MOL0     H56512  10.672   3.570   6.342 -0.8985 -0.1139  3.5007
  410MOL0     H56513  10.525   3.654   6.169  0.4704  2.9035  0.1623
  410MOL0     H56514  10.647   3.552   6.102  0.3262  0.4722  1.3045
  410MOL0     H56515  10.466   3.629   5.953  0.0718 -1.5007 -0.1297
  410MOL0     H56516  10.545   3.795   5.951  0.7182  0.3161 -2.8349
  410MOL0     H56517  10.760   3.684   5.872  0.8573  1.2934 -1.6139
  410MOL0     H56518  10.679   3.533   5.886  2.4057 -0.1130 -2.7154
  410MOL0     H56519  10.657   3.586   5.639  0.7425  0.9282 -1.4703
  410MOL0     H56520  10.505   3.601   5.701  1.4974 -2.3650  0.3377
  410MOL0     H56521  10.674   3.850   5.679 -0.4632  0.4649 -0.6292
  410MOL0     H56522  10.511   3.853   5.730  4.8607  2.3963  3.8618
  410MOL0     H56523  10.588   3.750   5.459 -1.7714  0.6639 -2.0371
  410MOL0     H56524  10.429   3.743   5.546  1.0088 -0.5978  1.5510
  410MOL0     H56525  10.581   3.989   5.467 -0.5014  2.8077 -1.9897
  410MOL0     H56526  10.425   3.987   5.569  2.7565 -1.2939  1.3995
  410MOL0     H56527  10.416   3.878   5.299 -0.8915 -0.2568  0.2324
  410MOL0     H56528  10.285   3.937   5.379  0.8343 -3.6275 -1.6229
  410MOL0     H56529  10.255   4.222   5.386  1.8687 -0.8317  3.1906
  410MOL0     H56530  10.283   4.468   5.248  0.6311  1.7504 -1.3518
  410MOL0     H56531  10.410   4.468   5.137 -1.2672  0.1923 -1.2118
  410MOL0     H56532  10.417   4.492   5.434 -1.5711 -0.8625 -2.6083
  410MOL0     H56533  10.570   4.414   5.379 -0.3848 -0.7026  1.2164
  410MOL0     H56534  10.652   4.603   5.355  1.1631  3.9680  0.7342
  410MOL0     H56535  10.543   4.639   5.214 -1.7191 -1.1762  0.5177
  410MOL0     H56536  10.379   4.734   5.378 -0.1063 -2.6702 -0.2269
  410MOL0     H56537  10.508   4.712   5.502  2.4029  1.0139 -0.1166
  410MOL0     H56538  10.766   4.797   5.452 -1.3615 -1.5764  2.2390
  410MOL0     H56539  10.954   4.944   5.716 -1.8356 -0.4514  0.8446
  410MOL0     H56540  10.988   4.970   5.540 -2.9728  1.9004 -0.7834
  410MOL0     H56541  10.937   4.807   5.606 -2.2557 -0.1955 -0.3669
  410MOL0     H56542  10.933   5.067   5.942 -2.8082  1.9376 -1.8576
  410MOL0     H56543  11.068   5.159   6.162 -3.5181 -0.2770 -0.3649
  410MOL0     H56544  11.355   5.459   6.084  0.1349  2.4329  1.1877
  410MOL0     H56545  11.334   5.501   6.250 -0.7933 -1.7075  2.3878
  410MOL0     H56546  11.396   5.229   6.122  1.4248  1.9939 -1.9223
  410MOL0     H56547  11.489   5.330   6.238  0.9893 -0.0009 -2.0154
  410MOL0     H56548  11.228   5.190   6.299 -0.5463 -0.5186  3.5573
  410MOL0     H56549  11.310   5.295   6.402 -1.9746  1.0222 -0.3335
  410MOL0     H56550  11.338   5.049   6.429 -0.6500  1.8214  0.7719
  410MOL0     H56551  11.494   5.134   6.426 -0.7252  2.8606 -0.8501
  410MOL0     H56552  11.504   5.044   6.165  3.5233 -2.4436  0.7606
  410MOL0     H56553  11.526   4.934   6.285  0.2724 -0.7544  0.2246
  410MOL0     H56554  11.292   4.991   6.106 -0.2897 -0.0491  0.0512
  410MOL0     H56555  11.241   4.940   6.264 -0.9086  3.4179 -1.5906
  410MOL0     H56556  11.402   4.751   6.255  1.3645  2.4967 -0.0393
  410MOL0     H56557  11.405   4.783   6.080  0.7840  0.3215  0.5468
  410MOL0     H56558  11.160   4.707   6.252 -0.2022 -0.0712 -0.2331
  410MOL0     H56559  11.233   4.601   6.136  0.7328 -0.4675  0.3429
  410MOL0     H56560  11.118   5.525   5.953  0.5761 -0.1264 -5.9371
  410MOL0     H56561  10.986   5.423   5.761 -3.4999 -1.1552  0.4161
  410MOL0     H56562  10.556   5.225   5.597 -1.0716 -2.1054  1.5621
  410MOL0     H56563  10.444   5.062   5.440 -0.0959 -2.9557  0.8797
  410MOL0     H56564  10.851   3.934   6.210 -3.5395  1.5706  0.2185
  410MOL0     H56565  10.942   3.965   6.450  0.4074  0.0432  0.7939
  410MOL0     H56566  11.201   3.618   6.751  1.1922 -3.7111  4.2103
  410MOL0     H56567  11.386   3.700   6.867 -1.2648 -1.4487 -0.8075
  410MOL0     H56568  11.437   4.121   6.975  0.7412  3.5395  3.4516
  410MOL0     H56569  11.339   4.068   7.122 -1.0663 -0.0176 -0.4765
  410MOL0     H56570  11.556   4.144   7.201 -0.3782  0.5446 -0.6832
  410MOL0     H56571  11.649   4.031   7.109 -0.6058  0.0367 -1.6806
  410MOL0     H56572  11.576   3.981   7.353  0.9445  2.2007 -2.0367
  410MOL0     H56573  11.412   3.932   7.282 -0.8469 -3.1502 -2.3454
  410MOL0     H56574  11.533   3.759   7.154  0.6635  0.4174 -0.2792
  410MOL0     H56575  11.555   3.734   7.323 -1.6006  0.5663  0.2951
  410MOL0     H56576  11.930   3.815   7.134  0.8126  0.1686  1.7831
  410MOL0     H56577  11.164   4.043   7.007  0.3384  0.0600  0.2452
  410MOL0     H56578  10.867   3.945   6.962  1.1864 -0.6018 -0.2612
  410MOL0     H56579  10.952   4.093   6.902  1.0758  0.1250 -0.2714
  410MOL0     H56580  10.868   3.990   6.789  0.5957 -3.8911 -0.9264
  411MOL0     O56581  10.443   7.777   7.177  0.3654  0.2975  0.2979
  411MOL0     C56582  10.450   7.683   7.099  0.0419  0.7083  0.0419
  411MOL0     O56583  10.481   7.555   7.127 -0.3426  0.2238 -0.2950
  411MOL0     C56584  10.424   7.495   7.243 -0.4704 -0.5449  0.4077
  411MOL0     C56585  10.305   7.541   7.303  0.1131 -0.1924 -0.2993
  411MOL0     C56586  10.250   7.493   7.428  0.4261 -0.5401 -0.1455
  411MOL0     C56587  10.334   7.402   7.498  0.1626 -0.2221  0.2687
  411MOL0     O56588  10.295   7.367   7.630 -0.4429  0.1882  0.2180
  411MOL0     C56589  10.386   7.277   7.693  0.0728 -0.5514 -0.4607
  411MOL0     C56590  10.342   7.252   7.834 -0.0110 -0.0888  0.0758
  411MOL0     C56591  10.192   7.203   7.842  0.4023 -0.8409  0.6427
  411MOL0     C56592  10.160   7.156   7.987  0.4010 -0.6644 -0.5616
  411MOL0     C56593  10.029   7.084   7.997  0.9761  0.4442  0.2288
  411MOL0     C56594   9.904   7.169   7.984  0.4236 -0.5801  0.2387
  411MOL0     C56595   9.787   7.071   7.946 -0.1380 -0.4593 -0.8423
  411MOL0     C56596   9.656   7.142   7.971 -0.0648 -0.2997 -0.9356
  411MOL0     N56597   9.605   7.244   7.876 -0.3091  0.0377 -0.5000
  411MOL0     C56598   9.595   7.235   7.739 -1.0737  0.4380  0.4192
  411MOL0     C56599   9.519   7.339   7.705  0.2353  0.6153  0.2502
  411MOL0     C56600   9.481   7.387   7.564 -0.0344  0.2630  0.4201
  411MOL0     C56601   9.358   7.324   7.496 -0.1178  0.1470 -0.0150
  411MOL0     C56602   9.332   7.397   7.362 -0.5710  0.0459  0.2357
  411MOL0     C56603   9.182   7.395   7.320 -0.3556 -0.0809 -0.3083
  411MOL0     O56604   9.150   7.301   7.211 -0.2734 -0.4964  0.2451
  411MOL0     C56605   9.106   7.347   7.093 -0.6165  1.1336  1.1748
  411MOL0     C56606   9.017   7.273   7.026  0.4878  0.8593  0.0329
  411MOL0     C56607   8.983   7.297   6.892 -0.0600 -0.6302  0.6127
  411MOL0     C56608   8.892   7.199   6.822 -0.3269 -0.5985  0.1790
  411MOL0     C56609   9.045   7.411   6.829  0.3250 -0.2658  0.1233
  411MOL0     C56610   9.018   7.454   6.688 -0.0213 -0.4794 -0.2087
  411MOL0     O56611   9.117   7.540   6.634 -0.3128  0.9434  0.7061
  411MOL0     C56612   9.087   7.597   6.509 -0.4545  0.5559 -0.0170
  411MOL0     C56613   8.973   7.670   6.475  0.1402  0.0692  0.6430
  411MOL0     C56614   8.952   7.707   6.338 -0.9337 -0.3798  0.5146
  411MOL0     C56615   9.046   7.670   6.242 -0.2712 -0.1398  1.0958
  411MOL0     O56616   9.016   7.697   6.113 -0.1744 -1.2584 -0.2684
  411MOL0     C56617   9.101   7.632   6.010  0.9086  0.0081 -0.0203
  411MOL0     C56618   9.047   7.673   5.869 -0.4794 -0.4666  0.3783
  411MOL0     C56619   8.908   7.607   5.858 -0.5897 -0.2117  0.0333
  411MOL0     C56620   8.862   7.630   5.710 -0.1315 -0.0052  0.1516
  411MOL0     C56621   8.802   7.766   5.683  0.1275 -0.0573 -0.4576
  411MOL0     C56622   8.742   7.785   5.541 -0.4016  1.1512 -0.0473
  411MOL0     C56623   8.673   7.917   5.522 -1.0425 -0.1834  1.0844
  411MOL0     C56624   8.660   7.964   5.367  0.1490  1.2550  0.0497
  411MOL0    Cl56625   8.566   7.819   5.295 -0.0057  0.0425  0.3941
  411MOL0     C56626   9.154   7.589   6.281 -0.0247 -0.0125  0.8852
  411MOL0     C56627   9.176   7.552   6.410 -0.2306 -0.6765  0.1875
  411MOL0     O56628   8.930   7.409   6.616 -0.2482 -0.5747 -0.0384
  411MOL0     C56629   9.149   7.481   6.900  0.4076  0.8394  0.0439
  411MOL0     C56630   9.181   7.441   7.029  0.4063  0.9032 -0.1577
  411MOL0     N56631   9.495   7.416   7.821  0.0165  0.0021  0.4236
  411MOL0     N56632   9.541   7.358   7.916  0.0996  0.0636  0.1457
  411MOL0     C56633  10.451   7.347   7.435  0.3971  0.2982 -0.0568
  411MOL0     C56634  10.498   7.403   7.314 -0.8070 -0.0720 -0.1657
  411MOL0     C56635  10.442   7.714   6.955 -0.3492  0.0457  0.3785
  411MOL0     C56636  10.434   7.602   6.869 -0.0193  0.3394 -0.2317
  411MOL0     C56637  10.419   7.611   6.728 -0.0948  1.1870  0.2700
  411MOL0     C56638  10.420   7.740   6.670 -0.1516  1.1170 -0.5824
  411MOL0     O56639  10.417   7.763   6.528  0.6340 -0.1810 -0.2529
  411MOL0     C56640  10.422   7.643   6.441 -0.6513  0.8294  0.3669
  411MOL0     C56641  10.430   7.674   6.291 -0.1779  0.7916 -0.1544
  411MOL0     C56642  10.547   7.762   6.242 -0.1182 -0.0288  0.3946
  411MOL0     C56643  10.543   7.815   6.098 -0.1493  0.4555  0.7616
  411MOL0     C56644  10.470   7.721   6.016  0.1989 -0.0905 -0.1394
  411MOL0     C56645  10.427   7.654   5.927 -0.7307 -0.5402 -0.1153
  411MOL0     C56646  10.427   7.846   6.746  0.0386 -0.8259  0.3625
  411MOL0     C56647  10.457   7.840   6.890  0.2111  0.2656  0.6375
  411MOL0     C56648  10.484   7.979   6.951 -1.3564 -0.3543 -0.7595
  411MOL0     H56649  10.247   7.611   7.243  2.1010  2.3734  0.5449
  411MOL0     H56650  10.153   7.508   7.474  0.4811  0.1710 -0.2476
  411MOL0     H56651  10.492   7.306   7.691  0.0006  0.2470  2.5880
  411MOL0     H56652  10.372   7.178   7.649 -1.8090 -0.2897 -0.5272
  411MOL0     H56653  10.403   7.166   7.862  0.9076 -1.0649 -4.2234
  411MOL0     H56654  10.348   7.340   7.899  0.7685  1.6289 -2.1737
  411MOL0     H56655  10.132   7.290   7.815 -0.1800 -1.4486 -0.0977
  411MOL0     H56656  10.170   7.119   7.774 -1.0685 -0.4111  0.5488
  411MOL0     H56657  10.239   7.088   8.019 -1.5816 -2.6862  0.3141
  411MOL0     H56658  10.155   7.241   8.055  0.3332 -1.3960  0.3669
  411MOL0     H56659  10.027   7.018   8.084  0.7521 -1.8961 -1.4749
  411MOL0     H56660  10.027   7.030   7.903  1.5420  1.9653 -0.6917
  411MOL0     H56661   9.884   7.210   8.083 -0.1712 -1.0871  0.3376
  411MOL0     H56662   9.918   7.239   7.901  1.4082 -0.3721  0.5698
  411MOL0     H56663   9.786   6.974   7.998 -1.6264 -1.5194 -2.7127
  411MOL0     H56664   9.808   7.053   7.841  1.3237 -2.3590 -0.2783
  411MOL0     H56665   9.584   7.065   7.999  1.7359 -1.2411  1.3957
  411MOL0     H56666   9.663   7.185   8.072 -1.8856 -1.7507 -0.1449
  411MOL0     H56667   9.642   7.158   7.678  1.6470  0.8866  1.8109
  411MOL0     H56668   9.572   7.375   7.504  0.1544  1.4886  0.4290
  411MOL0     H56669   9.468   7.496   7.567  0.2314  0.2856  1.4913
  411MOL0     H56670   9.397   7.222   7.490  1.7837  0.6303  2.2768
  411MOL0     H56671   9.272   7.320   7.564  0.6225 -3.4105  0.9551
  411MOL0     H56672   9.384   7.493   7.360  0.1773 -0.2005 -4.5470
  411MOL0     H56673   9.379   7.341   7.280 -1.2660  4.4128 -3.5691
  411MOL0     H56674   9.129   7.370   7.412  0.9189 -0.7397  0.2785
  411MOL0     H56675   9.156   7.495   7.286 -5.0327 -1.1186 -0.4231
  411MOL0     H56676   8.991   7.176   7.067 -1.0289 -0.1019 -2.9856
  411MOL0     H56677   8.811   7.250   6.769 -0.0829  1.4406  1.6335
  411MOL0     H56678   8.842   7.128   6.887  1.3426 -2.6574 -0.6858
  411MOL0     H56679   8.949   7.132   6.757  2.4934  3.5388 -2.1679
  411MOL0     H56680   8.900   7.680   6.554  0.2938  0.2863  0.7578
  411MOL0     H56681   8.853   7.734   6.301  0.0299 -1.3417 -3.1190
  411MOL0     H56682   9.206   7.663   6.014  0.2597  2.6605 -1.2429
  411MOL0     H56683   9.095   7.525   6.031 -0.3931  0.2101  0.7358
  411MOL0     H56684   9.039   7.782   5.861  3.6311  0.1698  1.9954
  411MOL0     H56685   9.121   7.649   5.792  0.6821  2.3914  0.4808
  411MOL0     H56686   8.837   7.641   5.934 -1.1141  2.5266 -1.5301
  411MOL0     H56687   8.914   7.505   5.896 -0.9479  0.9325  3.5708
  411MOL0     H56688   8.782   7.559   5.687 -0.7188  1.1288 -1.5015
  411MOL0     H56689   8.946   7.612   5.643 -1.0982 -1.4557 -0.7285
  411MOL0     H56690   8.722   7.791   5.752  0.4328 -0.6149  0.1124
  411MOL0     H56691   8.888   7.833   5.697 -0.9841  1.1293  0.9821
  411MOL0     H56692   8.676   7.702   5.514  2.3672 -0.7190 -1.6111
  411MOL0     H56693   8.812   7.779   5.457 -2.8068 -0.2768 -2.0986
  411MOL0     H56694   8.715   7.996   5.583 -3.0176  2.6488 -0.9623
  411MOL0     H56695   8.581   7.907   5.581 -1.4042 -2.2703  0.2922
  411MOL0     H56696   8.754   7.986   5.316 -1.2832  0.1528 -3.3350
  411MOL0     H56697   8.605   8.058   5.374 -1.4912  0.8538 -4.5388
  411MOL0     H56698   9.219   7.538   6.210 -0.9247 -0.6270  0.4692
  411MOL0     H56699   9.271   7.503   6.427  2.3734  3.6123 -0.5443
  411MOL0     H56700   9.197   7.567   6.854  2.6357  0.3216  1.2696
  411MOL0     H56701   9.264   7.498   7.068  1.4322  0.0997 -1.0989
  411MOL0     H56702  10.513   7.278   7.489  0.7908  0.8413  0.1958
  411MOL0     H56703  10.583   7.353   7.269  1.3368  1.7661  1.5927
  411MOL0     H56704  10.426   7.503   6.911  2.2418  0.6740  1.1603
  411MOL0     H56705  10.414   7.515   6.678  1.8690  0.4232  1.4447
  411MOL0     H56706  10.504   7.577   6.469 -0.2978  0.4844 -1.3932
  411MOL0     H56707  10.338   7.575   6.451 -0.7212  0.6228 -1.3835
  411MOL0     H56708  10.336   7.728   6.277  0.2460  1.6665  0.2774
  411MOL0     H56709  10.431   7.580   6.234  0.2349  0.6582  0.0699
  411MOL0     H56710  10.542   7.847   6.311  1.1865  1.3480 -1.1264
  411MOL0     H56711  10.640   7.706   6.261 -0.4028 -1.2508 -1.5774
  411MOL0     H56712  10.645   7.819   6.059  1.1044  1.1896  3.8323
  411MOL0     H56713  10.497   7.914   6.087  0.1533  0.4205 -1.2683
  411MOL0     H56714  10.383   7.582   5.861  1.1333 -0.4484 -1.5411
  411MOL0     H56715  10.416   7.942   6.696 -0.5642 -0.1838  1.6857
  411MOL0     H56716  10.400   8.028   6.999  1.4231  3.1144  1.0313
  411MOL0     H56717  10.574   7.975   7.014 -1.6834 -2.1112 -0.3651
  411MOL0     H56718  10.508   8.058   6.880 -2.1073  0.5678 -0.0126
  412MOL0     O56719   2.193  10.433   0.204 -0.5387 -0.6359 -0.1024
  412MOL0     C56720   2.090  10.501   0.165  0.1454 -0.3644  0.0692
  412MOL0     O56721   2.081  10.629   0.170 -0.1827 -0.3011 -0.4282
  412MOL0     C56722   2.174  10.708   0.248  0.2036  0.9990  0.1473
  412MOL0     C56723   2.242  10.673   0.364 -0.4403  0.2329 -0.0728
  412MOL0     C56724   2.319  10.755   0.431  0.7536 -0.0601 -0.4045
  412MOL0     C56725   2.364  10.871   0.363 -0.6722  0.2425  0.5794
  412MOL0     O56726   2.479  10.945   0.397 -0.0469  0.0228 -0.4142
  412MOL0     C56727   2.584  10.878   0.468 -0.9879 -0.2220  0.3663
  412MOL0     C56728   2.657  10.785   0.375 -0.2354  0.4100 -0.0129
  412MOL0     C56729   2.707  10.869   0.250 -0.1922 -0.2764  0.3380
  412MOL0     C56730   2.811  10.788   0.168  1.0567 -0.7887  0.2338
  412MOL0     C56731   2.748  10.683   0.084 -0.0753 -0.0341  0.7577
  412MOL0     C56732   2.864  10.608   0.015  0.2232 -0.6542 -0.2294
  412MOL0     C56733   2.824  10.483  -0.065  0.6672  0.0045 -0.5570
  412MOL0     C56734   2.815  10.355   0.034  0.7940  0.3544 -0.1076
  412MOL0     N56735   2.940  10.289   0.063 -0.7154 -0.0641  0.1384
  412MOL0     C56736   3.040  10.337   0.145 -0.3693  0.4279 -0.6337
  412MOL0     C56737   3.139  10.244   0.149  0.6168 -0.5224  0.3295
  412MOL0     C56738   3.272  10.267   0.203  0.1860  0.1047  0.1499
  412MOL0     C56739   3.260  10.282   0.346 -0.7326 -0.5455 -0.3900
  412MOL0     C56740   3.406  10.288   0.401  0.5449 -0.9385  0.8390
  412MOL0     C56741   3.407  10.249   0.549  0.5533  0.6873  0.4476
  412MOL0     O56742   3.537  10.235   0.609  0.5404 -0.3964  0.0158
  412MOL0     C56743   3.588  10.332   0.682  0.4275 -0.4109 -0.1758
  412MOL0     C56744   3.533  10.468   0.694 -0.1214  0.2361  0.3710
  412MOL0     C56745   3.604  10.564   0.766 -0.4147  0.1026 -0.0187
  412MOL0     C56746   3.542  10.698   0.773 -0.5606  0.3217 -0.4428
  412MOL0     C56747   3.727  10.527   0.830  0.0835  0.4458 -0.1730
  412MOL0     C56748   3.806  10.617   0.914 -0.0105  0.6880  0.4896
  412MOL0     O56749   3.794  10.753   0.899  0.0646  0.3145 -0.6767
  412MOL0     C56750   3.860  10.838   0.984 -0.7494 -1.0243  0.2834
  412MOL0     C56751   3.957  10.925   0.932  0.6115 -0.0661  0.0561
  412MOL0     C56752   4.048  10.989   1.016  0.2937 -0.1105 -0.2917
  412MOL0     C56753   4.047  10.978   1.155  0.3797  0.9944  0.3260
  412MOL0     O56754   4.135  11.050   1.243  0.4387  1.1060 -0.2261
  412MOL0     C56755   4.267  11.087   1.193  0.1316 -1.4148 -0.0210
  412MOL0     C56756   4.362  10.976   1.226 -0.2951 -0.4327 -0.0831
  412MOL0     C56757   4.516  11.013   1.223 -0.3112 -0.2133 -0.4360
  412MOL0     C56758   4.560  11.092   1.350  0.0668  0.2866  0.3007
  412MOL0     C56759   4.692  11.170   1.326  0.9969  0.9155  0.2698
  412MOL0     C56760   4.657  11.306   1.263 -0.2512  0.3491  0.2496
  412MOL0     C56761   4.783  11.391   1.243 -0.7717 -0.0704  0.3307
  412MOL0     C56762   4.756  11.539   1.221  0.1551  0.3204 -0.8771
  412MOL0    Cl56763   4.910  11.616   1.247  0.2191 -0.0090 -0.3822
  412MOL0     C56764   3.934  10.904   1.201 -0.1703 -0.3153  0.1303
  412MOL0     C56765   3.842  10.836   1.119  0.1165 -0.0445 -0.1081
  412MOL0     O56766   3.861  10.562   1.013  0.2829 -0.1818 -0.0018
  412MOL0     C56767   3.772  10.395   0.811 -0.7801  0.2127 -0.3899
  412MOL0     C56768   3.710  10.294   0.735  0.4090  0.5662 -0.6014
  412MOL0     N56769   3.107  10.144   0.063  0.2551 -0.0456  0.4482
  412MOL0     N56770   2.987  10.168   0.025 -0.1494  0.1857 -0.4856
  412MOL0     C56771   2.291  10.910   0.242 -0.3798 -0.4466 -0.4092
  412MOL0     C56772   2.188  10.828   0.195 -0.3012  0.3051 -0.2707
  412MOL0     C56773   1.985  10.418   0.096 -0.8391 -0.2345  0.9097
  412MOL0     C56774   1.938  10.460  -0.034 -0.0893  1.1837  0.3417
  412MOL0     C56775   1.849  10.381  -0.108  0.3329  1.5630  0.6990
  412MOL0     C56776   1.797  10.256  -0.057 -0.4196  0.2690 -0.7199
  412MOL0     O56777   1.695  10.177  -0.119  0.0976  0.5345 -1.4178
  412MOL0     C56778   1.620  10.232  -0.230 -0.3143 -0.0220  0.3006
  412MOL0     C56779   1.529  10.116  -0.280 -0.2953 -0.0882 -0.1188
  412MOL0     C56780   1.417  10.087  -0.183 -0.4651  0.8962  1.1706
  412MOL0     C56781   1.304  10.189  -0.193 -0.3970  0.0959  0.4002
  412MOL0     C56782   1.233  10.194  -0.064 -0.4313 -0.5975  1.2187
  412MOL0     C56783   1.187  10.191   0.047 -0.5802  0.0402 -0.2165
  412MOL0     C56784   1.843  10.213   0.075  0.6373  0.0364  0.2602
  412MOL0     C56785   1.933  10.294   0.145 -0.0533  0.8225 -0.0393
  412MOL0     C56786   1.950  10.249   0.286  0.0129 -0.4645 -0.3911
  412MOL0     H56787   2.215  10.576   0.404  0.5455 -1.6607 -3.6014
  412MOL0     H56788   2.360  10.720   0.525 -0.0954  0.5348  0.1966
  412MOL0     H56789   2.554  10.831   0.562 -0.8451 -0.9181  0.0749
  412MOL0     H56790   2.655  10.957   0.494 -1.9586  0.2327  1.7255
  412MOL0     H56791   2.748  10.754   0.428 -1.3023  0.4666  1.9217
  412MOL0     H56792   2.590  10.703   0.349 -0.9485  0.3543  1.8657
  412MOL0     H56793   2.621  10.886   0.184 -3.1241 -4.2787  2.6709
  412MOL0     H56794   2.765  10.957   0.279  2.0040 -0.6736 -2.3595
  412MOL0     H56795   2.863  10.858   0.102 -2.2329  0.6432 -1.0557
  412MOL0     H56796   2.878  10.742   0.242  2.2557  1.9223  0.9726
  412MOL0     H56797   2.673  10.716   0.011 -0.9585 -2.8710  0.2742
  412MOL0     H56798   2.687  10.629   0.157 -0.3221  0.4856  0.9410
  412MOL0     H56799   2.913  10.675  -0.056  2.0623 -2.0643 -0.3545
  412MOL0     H56800   2.937  10.582   0.092 -0.7793 -0.2310  0.8930
  412MOL0     H56801   2.901  10.466  -0.141 -0.0386 -1.9437 -0.8850
  412MOL0     H56802   2.735  10.516  -0.117  0.1513 -0.3904  0.0541
  412MOL0     H56803   2.779  10.387   0.132  2.0891  0.7460  0.2612
  412MOL0     H56804   2.747  10.278  -0.004 -1.4060  1.3166  1.6345
  412MOL0     H56805   3.049  10.441   0.175 -3.8918  0.7062 -0.0828
  412MOL0     H56806   3.305  10.357   0.150 -1.2228 -0.1331 -1.1984
  412MOL0     H56807   3.325  10.173   0.186  0.1486 -0.2142  1.6360
  412MOL0     H56808   3.202  10.365   0.389  0.6866  0.1989  0.1532
  412MOL0     H56809   3.217  10.188   0.381 -0.5674 -1.3514 -2.2839
  412MOL0     H56810   3.472  10.216   0.352  0.2819 -2.0069  1.9860
  412MOL0     H56811   3.447  10.389   0.393 -0.6344 -0.3302  2.0302
  412MOL0     H56812   3.347  10.315   0.612  0.4579  1.8890 -0.8481
  412MOL0     H56813   3.360  10.152   0.570  3.9823 -0.5886  3.4191
  412MOL0     H56814   3.437  10.498   0.655  1.7019  2.5685 -2.8938
  412MOL0     H56815   3.597  10.773   0.716  1.6210 -0.0481  1.0532
  412MOL0     H56816   3.546  10.734   0.876  0.2054  0.4695 -0.5151
  412MOL0     H56817   3.439  10.697   0.736 -1.0390  0.8579  0.8352
  412MOL0     H56818   3.967  10.933   0.824  1.0359 -0.5774  0.0574
  412MOL0     H56819   4.119  11.058   0.971  2.0205 -1.7169 -0.1924
  412MOL0     H56820   4.277  11.132   1.094 -0.5559  1.0783  0.9523
  412MOL0     H56821   4.287  11.173   1.258  0.0943  0.3734 -2.2100
  412MOL0     H56822   4.344  10.914   1.314  1.4315 -2.5913 -1.1348
  412MOL0     H56823   4.355  10.903   1.144 -0.5411 -1.9627  1.2500
  412MOL0     H56824   4.534  11.072   1.132  1.5368  0.7951  0.5229
  412MOL0     H56825   4.588  10.931   1.212 -0.1358  0.0205 -1.0866
  412MOL0     H56826   4.559  11.019   1.432 -1.5866 -1.9565 -1.5765
  412MOL0     H56827   4.478  11.160   1.376  1.5875  0.7634  4.8350
  412MOL0     H56828   4.739  11.190   1.422  0.0278  2.6264  0.4332
  412MOL0     H56829   4.755  11.107   1.263 -0.3360  0.8304 -1.0458
  412MOL0     H56830   4.599  11.366   1.334  0.3538  0.5030  0.6170
  412MOL0     H56831   4.601  11.308   1.169  1.1721  5.0216 -0.7542
  412MOL0     H56832   4.833  11.343   1.159  1.9055  0.1920  1.6457
  412MOL0     H56833   4.848  11.375   1.329 -0.7223 -2.1503 -0.0490
  412MOL0     H56834   4.667  11.559   1.281 -1.1092 -2.0756 -1.8262
  412MOL0     H56835   4.728  11.555   1.116  1.3439  2.4549 -0.9330
  412MOL0     H56836   3.930  10.880   1.306  1.2886 -3.7887 -0.4646
  412MOL0     H56837   3.766  10.764   1.149  1.5991 -2.0096 -0.8529
  412MOL0     H56838   3.863  10.372   0.865 -0.1180  0.3621 -1.4031
  412MOL0     H56839   3.757  10.197   0.724 -0.7628  0.0497 -1.3000
  412MOL0     H56840   2.302  11.002   0.184 -4.3623  0.7213  0.4137
  412MOL0     H56841   2.133  10.863   0.109 -2.1934  4.1911  2.2214
  412MOL0     H56842   1.971  10.557  -0.069 -1.6485  1.4278 -0.5723
  412MOL0     H56843   1.814  10.418  -0.203 -3.2210 -0.7198  0.9550
  412MOL0     H56844   1.567  10.325  -0.209  0.2706  0.7516 -1.4209
  412MOL0     H56845   1.687  10.250  -0.315 -0.5785  1.0060  0.2978
  412MOL0     H56846   1.595  10.032  -0.305  4.0150  3.3124 -1.5458
  412MOL0     H56847   1.481  10.145  -0.374  2.7022  1.1326 -1.4100
  412MOL0     H56848   1.370   9.992  -0.209  2.1130 -0.4645  1.1801
  412MOL0     H56849   1.456  10.079  -0.081  2.3869  0.3803  0.1116
  412MOL0     H56850   1.245  10.149  -0.275  2.0971 -1.7137 -0.6178
  412MOL0     H56851   1.338  10.292  -0.208 -3.3361  0.8065 -2.5371
  412MOL0     H56852   1.137  10.185   0.142 -2.2569 -0.6528 -1.1116
  412MOL0     H56853   1.797  10.128   0.125 -0.5661  1.0556  0.9758
  412MOL0     H56854   1.852  10.212   0.319  0.6646 -2.0653 -0.1593
  412MOL0     H56855   2.019  10.168   0.312  1.3166  0.6943 -0.1903
  412MOL0     H56856   1.970  10.338   0.346  1.3020 -1.3808  0.6008
  413MOL0     O56857   7.492  11.502   1.954 -0.2649  0.0146 -0.9647
  413MOL0     C56858   7.373  11.485   1.941 -0.0389  0.3319  0.4900
  413MOL0     O56859   7.313  11.448   1.827 -0.4595 -0.4374 -0.0502
  413MOL0     C56860   7.377  11.460   1.715 -0.2905 -0.1346 -0.1722
  413MOL0     C56861   7.404  11.588   1.653 -0.4852  0.3154  0.1838
  413MOL0     C56862   7.498  11.586   1.544  0.1939  0.1495 -0.2672
  413MOL0     C56863   7.532  11.464   1.482  0.7181  0.2074  0.1265
  413MOL0     O56864   7.598  11.472   1.364 -0.0038 -0.1712 -0.8852
  413MOL0     C56865   7.527  11.415   1.254 -0.1882 -0.3720 -0.8645
  413MOL0     C56866   7.629  11.373   1.147 -0.1187 -1.2782 -1.1830
  413MOL0     C56867   7.752  11.296   1.191  0.4035  0.5906 -0.1948
  413MOL0     C56868   7.876  11.382   1.228 -0.3260 -0.3146 -0.1935
  413MOL0     C56869   8.003  11.311   1.172 -0.2753 -0.7551 -0.3579
  413MOL0     C56870   8.119  11.387   1.244  0.6872  0.8522  0.3712
  413MOL0     C56871   8.249  11.338   1.182  0.7853 -0.5995  0.3254
  413MOL0     C56872   8.372  11.409   1.241 -1.2768  0.5279 -0.5789
  413MOL0     N56873   8.391  11.381   1.384 -0.6352 -0.0223  0.3226
  413MOL0     C56874   8.485  11.288   1.428 -1.2050  0.6218 -0.4562
  413MOL0     C56875   8.462  11.288   1.565  0.4277 -0.2906 -0.1390
  413MOL0     C56876   8.544  11.212   1.667  0.5496 -0.2521 -0.2960
  413MOL0     C56877   8.684  11.270   1.705  0.0575  0.6234 -0.1138
  413MOL0     C56878   8.662  11.404   1.779 -0.3569  0.8694 -0.3550
  413MOL0     C56879   8.628  11.388   1.930 -0.1788  0.5820 -0.7828
  413MOL0     O56880   8.606  11.514   2.001  0.0163 -0.7332 -0.2006
  413MOL0     C56881   8.709  11.546   2.086  0.1931  1.0854  0.0561
  413MOL0     C56882   8.847  11.509   2.061  0.4568 -0.2221 -0.0660
  413MOL0     C56883   8.947  11.561   2.145  1.5656  0.3056  0.0160
  413MOL0     C56884   9.081  11.525   2.102  0.0449  0.9895 -0.4507
  413MOL0     C56885   8.919  11.663   2.241 -0.2854 -0.3030 -0.0567
  413MOL0     C56886   9.026  11.728   2.336  0.2064  0.8144  0.9532
  413MOL0     O56887   8.973  11.781   2.451 -0.5078 -0.4568 -0.0672
  413MOL0     C56888   9.060  11.827   2.547 -0.1925  0.3767 -0.3705
  413MOL0     C56889   9.051  11.761   2.668  0.3773  0.5459  0.2801
  413MOL0     C56890   9.125  11.807   2.782  0.6897  0.9746  0.0199
  413MOL0     C56891   9.225  11.905   2.765 -0.3591 -0.2164 -0.0966
  413MOL0     O56892   9.322  11.925   2.864  0.9007 -0.8198 -0.5521
  413MOL0     C56893   9.400  12.051   2.864 -0.6853 -0.3091  0.7407
  413MOL0     C56894   9.314  12.174   2.866  0.2033 -0.5466  0.3044
  413MOL0     C56895   9.397  12.293   2.897 -0.9187 -0.5029 -0.0685
  413MOL0     C56896   9.310  12.417   2.925  0.3734  0.0037  0.9786
  413MOL0     C56897   9.376  12.552   2.879 -0.1401 -0.0257 -0.4931
  413MOL0     C56898   9.481  12.608   2.979 -1.1622  1.1954  0.0800
  413MOL0     C56899   9.600  12.675   2.904  0.3498 -0.0483  0.1662
  413MOL0     C56900   9.712  12.703   2.987  0.2509  0.2145 -1.3890
  413MOL0    Cl56901   9.786  12.556   3.046 -0.0219  0.1085 -0.0162
  413MOL0     C56902   9.231  11.973   2.636  0.0951 -0.4383 -0.0665
  413MOL0     C56903   9.150  11.927   2.529  0.7451  0.4671 -0.3609
  413MOL0     O56904   9.147  11.736   2.299  0.6541  0.8494 -0.1290
  413MOL0     C56905   8.786  11.703   2.264 -0.9054 -0.2537  0.7372
  413MOL0     C56906   8.685  11.647   2.185  0.4385  0.7764  0.5235
  413MOL0     N56907   8.368  11.389   1.599 -0.2150  0.4418 -0.6612
  413MOL0     N56908   8.328  11.440   1.489  0.0389 -0.2930 -0.0477
  413MOL0     C56909   7.498  11.340   1.534  0.3459 -1.0890  0.6473
  413MOL0     C56910   7.427  11.344   1.652 -0.8915  0.4043 -1.5276
  413MOL0     C56911   7.286  11.514   2.055 -0.3827  0.2232 -0.0753
  413MOL0     C56912   7.155  11.465   2.037  0.4718  0.1300  0.2350
  413MOL0     C56913   7.062  11.475   2.137  0.1821  0.1710 -0.0897
  413MOL0     C56914   7.085  11.552   2.251 -1.3506  0.6466 -0.0019
  413MOL0     O56915   6.976  11.550   2.336  0.1162  0.4712  0.5307
  413MOL0     C56916   6.966  11.654   2.433 -0.1960 -0.7694 -0.7050
  413MOL0     C56917   6.825  11.715   2.445  0.5371 -0.0960 -1.2161
  413MOL0     C56918   6.769  11.769   2.311 -0.4261 -0.2931 -0.7324
  413MOL0     C56919   6.618  11.743   2.301  0.3810 -0.3338 -0.9856
  413MOL0     C56920   6.531  11.825   2.394  0.1579 -1.3575 -0.3429
  413MOL0     C56921   6.480  11.906   2.472 -0.1375 -0.0265  0.0107
  413MOL0     C56922   7.210  11.603   2.267  0.0810  0.7234 -0.3491
  413MOL0     C56923   7.316  11.580   2.175 -0.4237  0.3105 -0.0297
  413MOL0     C56924   7.449  11.631   2.213  0.2391 -0.6650 -0.8474
  413MOL0     H56925   7.378  11.678   1.708 -0.5655 -0.4422  1.4375
  413MOL0     H56926   7.509  11.689   1.509  1.4066  1.1753  2.8070
  413MOL0     H56927   7.462  11.491   1.209 -0.1172 -0.5805 -1.3336
  413MOL0     H56928   7.462  11.331   1.281 -2.4180  1.5844  0.2029
  413MOL0     H56929   7.576  11.314   1.071 -1.5307 -0.8390 -0.5753
  413MOL0     H56930   7.664  11.461   1.092  0.7171 -2.5447 -2.7819
  413MOL0     H56931   7.723  11.222   1.266  0.0965 -0.6514 -1.5056
  413MOL0     H56932   7.778  11.242   1.100  0.2410  0.1064  0.0425
  413MOL0     H56933   7.867  11.481   1.183 -0.5447  0.1294  0.7857
  413MOL0     H56934   7.894  11.392   1.336 -0.2473  0.7671 -0.3029
  413MOL0     H56935   8.007  11.332   1.065  1.3164 -0.6234 -0.3012
  413MOL0     H56936   8.010  11.205   1.198 -0.0113 -1.8539 -4.3214
  413MOL0     H56937   8.113  11.495   1.227  1.5723  1.0586  1.2532
  413MOL0     H56938   8.121  11.365   1.351 -0.8346 -2.1872 -0.1118
  413MOL0     H56939   8.259  11.365   1.076 -0.8048 -0.5823  0.1555
  413MOL0     H56940   8.265  11.230   1.183  0.6758 -0.6104  0.7551
  413MOL0     H56941   8.467  11.386   1.192  1.1210 -0.6831  4.0679
  413MOL0     H56942   8.357  11.518   1.247  0.8905  0.8383 -0.1942
  413MOL0     H56943   8.567  11.237   1.380 -0.0748 -1.3697  3.2345
  413MOL0     H56944   8.549  11.106   1.640 -1.2983 -1.1693  2.4648
  413MOL0     H56945   8.493  11.195   1.763  0.2064 -2.2407 -0.8009
  413MOL0     H56946   8.744  11.209   1.773  0.0722  1.6228  0.8076
  413MOL0     H56947   8.737  11.275   1.610 -0.9131  1.2006 -0.6366
  413MOL0     H56948   8.749  11.470   1.783 -2.1240  3.3367  0.3410
  413MOL0     H56949   8.586  11.463   1.726 -1.0522  0.5846  0.3156
  413MOL0     H56950   8.526  11.348   1.929 -1.0329  2.6329 -0.3793
  413MOL0     H56951   8.687  11.315   1.986 -2.6368 -1.3290 -0.4952
  413MOL0     H56952   8.866  11.435   1.985  3.0867 -0.2590  0.5153
  413MOL0     H56953   9.135  11.616   2.072  1.0782  0.1232 -1.3319
  413MOL0     H56954   9.080  11.468   2.009  0.8853  3.4525 -2.0842
  413MOL0     H56955   9.141  11.479   2.181 -2.1150 -0.4730  0.4051
  413MOL0     H56956   8.976  11.687   2.693  0.4779  1.0233  2.1687
  413MOL0     H56957   9.112  11.766   2.882  0.8582  1.1781  0.1269
  413MOL0     H56958   9.462  12.052   2.954  3.1800 -2.0271 -1.6581
  413MOL0     H56959   9.469  12.056   2.780 -2.1441  1.6756 -0.4091
  413MOL0     H56960   9.274  12.200   2.768  1.3365  1.1365  0.2414
  413MOL0     H56961   9.225  12.172   2.930 -0.0504  2.0133  0.1418
  413MOL0     H56962   9.460  12.308   2.809 -0.1520 -2.9835 -0.0276
  413MOL0     H56963   9.459  12.274   2.985 -1.3229  0.1639  0.3693
  413MOL0     H56964   9.297  12.417   3.034  1.7666  1.8071  1.1848
  413MOL0     H56965   9.220  12.404   2.864  1.1558  1.7577 -0.6611
  413MOL0     H56966   9.420  12.540   2.779 -1.2460  2.0953 -1.2978
  413MOL0     H56967   9.299  12.629   2.871  0.5313  0.7843  0.6039
  413MOL0     H56968   9.522  12.519   3.028 -0.6304 -1.4639 -4.6896
  413MOL0     H56969   9.449  12.673   3.062  1.1214 -0.3440  2.3298
  413MOL0     H56970   9.556  12.774   2.888 -1.1578 -0.1791  2.7892
  413MOL0     H56971   9.633  12.624   2.813  1.5421  0.9543  0.0193
  413MOL0     H56972   9.674  12.762   3.071 -2.0856  0.0536 -2.2761
  413MOL0     H56973   9.785  12.752   2.923 -0.3404  3.0512 -0.0510
  413MOL0     H56974   9.305  12.049   2.614  0.2250  0.9323  4.2925
  413MOL0     H56975   9.144  11.965   2.427 -4.8244 -4.1595 -2.3709
  413MOL0     H56976   8.773  11.775   2.344 -0.4051 -1.7742  2.2552
  413MOL0     H56977   8.581  11.672   2.204  0.4542  1.6371 -0.4745
  413MOL0     H56978   7.531  11.250   1.483  0.6889 -1.0261  0.7556
  413MOL0     H56979   7.402  11.249   1.698  1.3464  1.0414  1.2576
  413MOL0     H56980   7.115  11.420   1.947  2.5690 -0.9621 -0.2071
  413MOL0     H56981   6.964  11.432   2.118 -2.0082  4.4112  0.3970
  413MOL0     H56982   6.998  11.620   2.531 -1.5579  0.6655  0.3014
  413MOL0     H56983   7.040  11.731   2.409  0.5599 -0.3819  2.4627
  413MOL0     H56984   6.837  11.806   2.504 -1.1141  0.0121 -1.0104
  413MOL0     H56985   6.751  11.646   2.486 -1.7957  2.1988 -1.3592
  413MOL0     H56986   6.794  11.875   2.301 -2.2944  0.1730 -0.7237
  413MOL0     H56987   6.821  11.717   2.230 -1.6996 -1.4130 -0.8715
  413MOL0     H56988   6.602  11.636   2.319  1.7499 -0.5979 -1.2091
  413MOL0     H56989   6.585  11.753   2.197 -1.2850 -0.5428 -0.5054
  413MOL0     H56990   6.430  11.959   2.551 -0.6635  0.4002 -0.6015
  413MOL0     H56991   7.224  11.662   2.357 -0.1053 -1.2413  1.0420
  413MOL0     H56992   7.504  11.675   2.130 -3.7447  0.4260 -3.1169
  413MOL0     H56993   7.421  11.718   2.273 -3.4992 -0.8923 -2.0599
  413MOL0     H56994   7.511  11.566   2.276 -0.5422  0.2338  0.9119
  414MOL0     O56995   9.881   6.178   5.781 -0.8407  0.1653 -0.4663
  414MOL0     C56996   9.885   6.060   5.746 -0.3089  0.0114  0.2614
  414MOL0     O56997   9.991   5.987   5.697 -0.3656  0.5058 -0.1344
  414MOL0     C56998  10.123   6.032   5.683 -0.2520  0.3183  0.1643
  414MOL0     C56999  10.215   5.933   5.650  0.1635  0.0150 -0.1559
  414MOL0     C57000  10.351   5.958   5.617  0.0218 -0.4378  0.1153
  414MOL0     C57001  10.402   6.087   5.639 -0.3205  0.4029  0.2723
  414MOL0     O57002  10.527   6.130   5.617 -0.5578 -0.2349 -0.3941
  414MOL0     C57003  10.640   6.031   5.637  0.2651  0.8840 -0.0019
  414MOL0     C57004  10.777   6.101   5.613 -0.7070 -0.6256  0.7142
  414MOL0     C57005  10.814   6.111   5.453 -0.1333  0.0058 -0.5621
  414MOL0     C57006  10.950   6.185   5.448  0.0468 -0.5692 -0.7116
  414MOL0     C57007  11.026   6.159   5.313 -0.0102  0.5865 -0.2948
  414MOL0     C57008  11.175   6.217   5.312  0.5919 -0.5977  0.3195
  414MOL0     C57009  11.242   6.156   5.194 -0.1779 -0.3412 -0.2299
  414MOL0     C57010  11.402   6.159   5.198 -0.1205  0.2853 -0.3083
  414MOL0     N57011  11.455   6.294   5.165  0.1783 -0.2902  0.4171
  414MOL0     C57012  11.486   6.399   5.246 -0.4493 -1.1103  0.6460
  414MOL0     C57013  11.539   6.494   5.160  0.6026 -0.1780  0.4975
  414MOL0     C57014  11.623   6.615   5.194  0.2104  0.4571 -0.9947
  414MOL0     C57015  11.580   6.758   5.157  0.0285  0.8510 -0.0733
  414MOL0     C57016  11.654   6.879   5.223 -0.2234  0.3853  0.0252
  414MOL0     C57017  11.805   6.880   5.201 -0.5914  0.0555 -0.7250
  414MOL0     O57018  11.869   6.822   5.323  0.0541  0.1084 -0.3076
  414MOL0     C57019  11.898   6.896   5.429  0.0263 -0.7671  0.2432
  414MOL0     C57020  11.916   6.826   5.543  0.1924 -0.1744  0.3714
  414MOL0     C57021  11.962   6.875   5.663 -0.4628 -0.0071  0.1743
  414MOL0     C57022  11.962   6.771   5.772 -0.2405  0.5024 -0.4484
  414MOL0     C57023  12.004   7.008   5.676 -1.2511 -0.1398  0.3361
  414MOL0     C57024  12.066   7.080   5.791 -0.4870 -0.5539 -1.0319
  414MOL0     O57025  12.088   7.218   5.772 -0.2927  0.6915 -0.0714
  414MOL0     C57026  12.157   7.284   5.872  0.3239 -0.2192  0.0585
  414MOL0     C57027  12.290   7.319   5.853  0.2585  0.5408  0.3064
  414MOL0     C57028  12.350   7.398   5.951  0.5313  0.7669  0.6422
  414MOL0     C57029  12.289   7.449   6.062 -0.7353 -0.4000 -0.2827
  414MOL0     O57030  12.362   7.526   6.143 -0.7645  0.4732 -0.0282
  414MOL0     C57031  12.317   7.547   6.279 -0.2722 -0.2713  0.9399
  414MOL0     C57032  12.451   7.563   6.362  0.0506 -0.2442  0.2749
  414MOL0     C57033  12.546   7.674   6.299 -0.5974  0.0554  0.6170
  414MOL0     C57034  12.579   7.763   6.425  0.8718 -0.1475  1.1145
  414MOL0     C57035  12.673   7.702   6.516  0.6562 -1.1174  0.7901
  414MOL0     C57036  12.738   7.786   6.635 -0.5223  1.3190  0.4072
  414MOL0     C57037  12.811   7.908   6.589  1.4761  0.1829  0.0952
  414MOL0     C57038  12.906   7.963   6.698 -0.0719 -0.2678 -1.0251
  414MOL0    Cl57039  13.042   7.843   6.709  0.2196 -0.1012 -0.1261
  414MOL0     C57040  12.155   7.416   6.071  0.3369  1.2072 -0.0936
  414MOL0     C57041  12.084   7.334   5.978  0.6080  0.4405 -0.1402
  414MOL0     O57042  12.123   7.011   5.879 -0.1740  0.0799  0.7208
  414MOL0     C57043  11.995   7.083   5.548 -0.2562 -0.6940 -0.0179
  414MOL0     C57044  11.931   7.035   5.433  0.3885 -0.0645  0.4925
  414MOL0     N57045  11.520   6.451   5.031  0.0097  0.6273  0.0078
  414MOL0     N57046  11.485   6.331   5.027 -0.0448  0.3096 -0.2105
  414MOL0     C57047  10.310   6.185   5.678 -0.4713  0.0232 -0.5858
  414MOL0     C57048  10.173   6.161   5.705  0.0514 -0.3165  0.0390
  414MOL0     C57049   9.746   5.993   5.729 -0.1616 -0.9404  0.6333
  414MOL0     C57050   9.730   5.929   5.608 -0.6572 -0.3979  1.0647
  414MOL0     C57051   9.617   5.858   5.578  0.6355  0.4153  0.4658
  414MOL0     C57052   9.507   5.844   5.671  0.2424  0.6577 -0.2395
  414MOL0     O57053   9.395   5.759   5.665 -0.1641 -0.2465  0.0015
  414MOL0     C57054   9.373   5.691   5.541 -0.5834 -0.6853 -0.7942
  414MOL0     C57055   9.273   5.572   5.570  0.1082 -0.6053  0.0155
  414MOL0     C57056   9.270   5.472   5.452  0.4260  0.6974 -0.0700
  414MOL0     C57057   9.399   5.387   5.438  0.1907  1.2599  0.1609
  414MOL0     C57058   9.391   5.302   5.328  0.1722 -0.0794  0.5789
  414MOL0     C57059   9.385   5.234   5.227 -0.0073 -0.3731  0.3442
  414MOL0     C57060   9.529   5.903   5.798 -0.2707  0.2912  0.9702
  414MOL0     C57061   9.641   5.977   5.831 -0.7271 -0.2473 -0.4955
  414MOL0     C57062   9.656   6.038   5.970 -1.0325 -0.3989 -0.5285
  414MOL0     H57063  10.170   5.836   5.630  0.0912  0.4725 -2.5287
  414MOL0     H57064  10.405   5.877   5.569 -0.2534 -1.4912  1.5064
  414MOL0     H57065  10.630   5.944   5.572 -1.6927  1.4289 -0.5040
  414MOL0     H57066  10.648   5.997   5.741  1.5050  1.6996  0.1912
  414MOL0     H57067  10.777   6.197   5.665  2.1582 -1.4524  2.4444
  414MOL0     H57068  10.854   6.041   5.662 -0.2513 -0.0781  0.6677
  414MOL0     H57069  10.832   6.005   5.433 -3.9635 -1.1572  1.0559
  414MOL0     H57070  10.730   6.156   5.398 -0.3794  0.1597 -0.0628
  414MOL0     H57071  10.940   6.292   5.467  0.4115 -0.1309 -2.7604
  414MOL0     H57072  11.012   6.152   5.532 -1.6238  1.7083  1.5699
  414MOL0     H57073  10.958   6.202   5.238  0.6851 -1.2635 -2.0506
  414MOL0     H57074  11.027   6.052   5.295  1.3330  0.4032  0.6972
  414MOL0     H57075  11.163   6.324   5.290  1.6657 -0.6706 -0.7120
  414MOL0     H57076  11.213   6.224   5.414  1.4323  2.4241 -0.1168
  414MOL0     H57077  11.211   6.218   5.110 -0.8630 -0.2433  0.0864
  414MOL0     H57078  11.215   6.052   5.174 -0.4709 -0.2763 -0.1787
  414MOL0     H57079  11.440   6.136   5.298  0.3293 -3.3053 -1.1813
  414MOL0     H57080  11.454   6.089   5.132  1.5411 -0.6348  1.8607
  414MOL0     H57081  11.492   6.401   5.355  0.3470  2.7281  0.6901
  414MOL0     H57082  11.726   6.609   5.158  0.4915  1.3393 -0.3797
  414MOL0     H57083  11.619   6.610   5.303 -0.5399 -0.3144 -1.0489
  414MOL0     H57084  11.583   6.767   5.048 -1.0577  2.2559 -0.0191
  414MOL0     H57085  11.473   6.765   5.177  0.0855 -0.6834  0.8990
  414MOL0     H57086  11.619   6.970   5.173  3.1584  0.2440 -3.0212
  414MOL0     H57087  11.624   6.881   5.328  0.8314 -1.0969  0.3902
  414MOL0     H57088  11.829   6.821   5.112 -0.1140  3.1489 -2.8185
  414MOL0     H57089  11.840   6.981   5.177 -2.1584  0.1683 -2.8643
  414MOL0     H57090  11.882   6.723   5.537 -0.5024  0.0330  0.6966
  414MOL0     H57091  11.859   6.767   5.808 -0.0685 -4.1736  0.1807
  414MOL0     H57092  12.038   6.791   5.849 -0.2880 -0.2535 -0.2023
  414MOL0     H57093  11.980   6.670   5.734 -0.6048 -0.1585  1.0521
  414MOL0     H57094  12.335   7.281   5.762 -0.1162 -0.3796  0.4966
  414MOL0     H57095  12.445   7.444   5.923 -1.7197  5.4989 -0.3135
  414MOL0     H57096  12.254   7.636   6.289 -1.8137 -1.3749  1.3205
  414MOL0     H57097  12.254   7.469   6.322 -2.0969  0.0809 -0.9280
  414MOL0     H57098  12.432   7.590   6.467  1.0598  1.6815  0.0132
  414MOL0     H57099  12.501   7.467   6.354 -0.0160 -0.1531 -1.8458
  414MOL0     H57100  12.506   7.727   6.213  0.1049 -2.9183 -1.7352
  414MOL0     H57101  12.635   7.619   6.269 -1.8343 -1.1607 -0.9966
  414MOL0     H57102  12.487   7.798   6.472 -1.1183 -1.6780 -1.3816
  414MOL0     H57103  12.643   7.841   6.382  0.4706 -0.6177 -0.3679
  414MOL0     H57104  12.619   7.620   6.562  1.5047 -2.1512  0.0095
  414MOL0     H57105  12.753   7.660   6.454 -0.0012 -1.3870  0.1049
  414MOL0     H57106  12.802   7.724   6.699 -2.1580  1.4977  2.3021
  414MOL0     H57107  12.656   7.824   6.696 -0.0526 -0.7693  2.5019
  414MOL0     H57108  12.735   7.974   6.546  1.7238 -0.6168 -1.6665
  414MOL0     H57109  12.874   7.893   6.501  2.6521 -1.3468  1.1385
  414MOL0     H57110  12.859   7.980   6.795  1.2170 -0.1743 -0.3997
  414MOL0     H57111  12.947   8.058   6.661  0.9147  0.4104  1.6121
  414MOL0     H57112  12.086   7.441   6.151  1.4401  3.1068  0.3232
  414MOL0     H57113  11.981   7.299   5.978  1.0556 -0.9251  0.2150
  414MOL0     H57114  12.027   7.187   5.547 -1.4245 -0.3309 -0.8135
  414MOL0     H57115  11.931   7.090   5.339 -1.5997 -1.0515 -0.1443
  414MOL0     H57116  10.344   6.286   5.699 -0.3257 -0.4193  1.6391
  414MOL0     H57117  10.119   6.252   5.731  2.0974  0.4791  1.7920
  414MOL0     H57118   9.813   5.929   5.538  1.4903 -1.7947  3.4013
  414MOL0     H57119   9.608   5.819   5.477  2.5438 -0.6470  0.6610
  414MOL0     H57120   9.331   5.757   5.465 -1.9589  0.0569  0.5464
  414MOL0     H57121   9.466   5.643   5.507 -1.2261 -2.9566  0.4880
  414MOL0     H57122   9.174   5.614   5.589  1.1594  0.9263  2.6357
  414MOL0     H57123   9.295   5.520   5.663 -1.1262 -1.1050  0.0483
  414MOL0     H57124   9.184   5.406   5.469  0.2591  1.3740  1.9682
  414MOL0     H57125   9.268   5.537   5.364  2.2350  2.1184  0.8608
  414MOL0     H57126   9.411   5.331   5.531 -2.1668 -3.6278 -2.0826
  414MOL0     H57127   9.478   5.460   5.420 -0.0912  1.3166 -0.8939
  414MOL0     H57128   9.378   5.181   5.134 -0.2943 -0.0483  0.1757
  414MOL0     H57129   9.440   5.886   5.858 -0.2809 -0.6272  0.7017
  414MOL0     H57130   9.639   6.145   5.954 -0.3751 -0.1908  0.1142
  414MOL0     H57131   9.582   5.994   6.038 -1.0938 -1.2657 -1.1417
  414MOL0     H57132   9.756   6.023   6.012 -0.5759 -1.5595 -1.9595
  415MOL0     O57133   7.913  10.968   6.802  0.8906  0.6223  0.3082
  415MOL0     C57134   7.821  11.047   6.771  0.0685 -0.0114  1.1665
  415MOL0     O57135   7.693  11.049   6.844 -1.1667  1.2077  0.5734
  415MOL0     C57136   7.666  10.943   6.931  0.0664 -0.2756  0.5777
  415MOL0     C57137   7.574  10.837   6.897  0.4468  0.1119  0.2105
  415MOL0     C57138   7.551  10.734   6.989  0.0500  0.1023  0.0839
  415MOL0     C57139   7.625  10.731   7.111  0.7092 -0.4694  1.1310
  415MOL0     O57140   7.617  10.629   7.207  0.5167  0.2738 -0.4036
  415MOL0     C57141   7.503  10.540   7.196  1.1111 -0.0863  0.6323
  415MOL0     C57142   7.465  10.491   7.338  0.0020  0.0472 -0.3391
  415MOL0     C57143   7.430  10.592   7.439 -1.0536  0.0556  0.1667
  415MOL0     C57144   7.359  10.526   7.563 -0.1437 -0.1558 -0.4067
  415MOL0     C57145   7.401  10.586   7.695 -0.5489  0.4803  0.1369
  415MOL0     C57146   7.325  10.543   7.815 -0.2220 -0.4911 -0.9606
  415MOL0     C57147   7.177  10.587   7.810 -0.1856  0.2115 -0.9390
  415MOL0     C57148   7.122  10.626   7.944  0.5628 -0.1117  0.4427
  415MOL0     N57149   6.978  10.616   7.955  0.3089  0.3343 -0.5896
  415MOL0     C57150   6.919  10.527   8.041 -0.5284  0.0574  0.5494
  415MOL0     C57151   6.786  10.557   8.017 -0.3325 -0.5450 -0.2614
  415MOL0     C57152   6.677  10.482   8.089 -0.1416 -0.5496 -0.3994
  415MOL0     C57153   6.619  10.553   8.206 -0.2949  0.3584 -0.3418
  415MOL0     C57154   6.574  10.446   8.301  0.9119  0.5306 -0.2299
  415MOL0     C57155   6.485  10.506   8.416  0.0648 -0.4393 -0.3963
  415MOL0     O57156   6.561  10.597   8.501 -0.2442 -0.0217  0.0518
  415MOL0     C57157   6.521  10.635   8.626 -0.0275  0.3198 -0.3289
  415MOL0     C57158   6.587  10.739   8.686 -0.3328 -0.9558 -0.6230
  415MOL0     C57159   6.559  10.788   8.806  0.9527 -0.0686  0.0083
  415MOL0     C57160   6.639  10.918   8.844  1.1782  0.5153  0.5275
  415MOL0     C57161   6.456  10.734   8.885 -0.1917 -0.1634 -0.8433
  415MOL0     C57162   6.401  10.800   9.009 -0.3060  0.6934  0.3213
  415MOL0     O57163   6.487  10.876   9.086  0.6439 -0.3449 -0.0815
  415MOL0     C57164   6.425  10.939   9.194 -0.7198 -0.2396 -0.9310
  415MOL0     C57165   6.476  10.915   9.322 -0.7429  0.0180  0.4673
  415MOL0     C57166   6.424  10.966   9.436 -0.0954  0.7199  0.1605
  415MOL0     C57167   6.319  11.055   9.429  1.0885  0.3167  0.0923
  415MOL0     O57168   6.265  11.106   9.542 -0.6103 -0.3331  0.5583
  415MOL0     C57169   6.360  11.139   9.645  0.2098  0.0935  0.4646
  415MOL0     C57170   6.304  11.261   9.731 -0.6155 -0.5981  0.8431
  415MOL0     C57171   6.161  11.247   9.781 -1.1514  0.2105 -0.0524
  415MOL0     C57172   6.096  11.370   9.854  0.7830 -0.3387  0.3456
  415MOL0     C57173   5.947  11.344   9.855  0.6149 -1.0109 -0.3776
  415MOL0     C57174   5.863  11.438   9.931 -0.7776 -0.5456 -0.7208
  415MOL0     C57175   5.897  11.594   9.903  0.6442  0.6392  0.4392
  415MOL0     C57176   5.761  11.676   9.903 -0.1728  0.3644 -0.0785
  415MOL0    Cl57177   5.712  11.675  10.061 -0.2408 -0.0051  0.4784
  415MOL0     C57178   6.258  11.078   9.309  0.2181 -0.1223  0.2094
  415MOL0     C57179   6.309  11.019   9.188 -1.0210 -0.5341  0.8710
  415MOL0     O57180   6.296  10.746   9.042  0.1308 -0.2415  0.7473
  415MOL0     C57181   6.396  10.610   8.830  0.5105  1.0111  0.2455
  415MOL0     C57182   6.421  10.563   8.705 -0.7688  0.9115  0.5073
  415MOL0     N57183   6.777  10.663   7.937  0.6943 -0.4318 -0.4941
  415MOL0     N57184   6.892  10.695   7.894  0.1898 -0.7952 -0.4804
  415MOL0     C57185   7.711  10.834   7.140 -0.0465  0.5819  0.5926
  415MOL0     C57186   7.735  10.927   7.048  0.6158  0.0680  0.6845
  415MOL0     C57187   7.832  11.141   6.667 -0.6387  0.0340 -1.2401
  415MOL0     C57188   7.730  11.243   6.661 -0.9982 -0.5327 -0.2193
  415MOL0     C57189   7.740  11.361   6.589 -0.0349  0.6996 -0.3917
  415MOL0     C57190   7.850  11.372   6.502 -0.0617  0.0531  0.1495
  415MOL0     O57191   7.851  11.495   6.446 -0.0530  0.4370  0.3105
  415MOL0     C57192   7.955  11.529   6.350 -0.0718 -0.0275 -0.1782
  415MOL0     C57193   7.950  11.674   6.311 -1.0543  0.3033 -0.4559
  415MOL0     C57194   7.864  11.724   6.200  0.8754 -1.1406  0.2249
  415MOL0     C57195   7.840  11.873   6.205 -0.2549  0.2277  0.2219
  415MOL0     C57196   7.960  11.953   6.183 -0.8984  0.4832 -0.2786
  415MOL0     C57197   8.052  12.021   6.153 -1.3726 -0.0818 -0.4019
  415MOL0     C57198   7.944  11.267   6.504 -0.1664 -0.2178 -0.0163
  415MOL0     C57199   7.936  11.152   6.581 -1.1152  0.2726 -0.6280
  415MOL0     C57200   8.063  11.064   6.573 -0.4618 -0.1978 -0.0218
  415MOL0     H57201   7.519  10.837   6.803 -0.2559  0.3537  0.6152
  415MOL0     H57202   7.476  10.661   6.959  0.8363 -0.6746 -0.0325
  415MOL0     H57203   7.523  10.462   7.122  2.7477  1.8698 -1.1299
  415MOL0     H57204   7.413  10.582   7.151  0.3248 -0.1179  2.1039
  415MOL0     H57205   7.378  10.427   7.324  1.1255 -1.8030  0.6515
  415MOL0     H57206   7.540  10.419   7.373 -0.9880 -2.3314 -2.7046
  415MOL0     H57207   7.523  10.638   7.473 -1.1218 -0.2686  0.8068
  415MOL0     H57208   7.360  10.668   7.402 -0.4823  0.5918  0.1641
  415MOL0     H57209   7.251  10.522   7.545 -0.2919  0.0798  0.3997
  415MOL0     H57210   7.379  10.418   7.569 -0.8907 -0.5229 -3.1536
  415MOL0     H57211   7.398  10.692   7.668 -3.9442  0.3147 -0.5055
  415MOL0     H57212   7.498  10.549   7.731 -0.6212 -1.4999 -1.5111
  415MOL0     H57213   7.327  10.435   7.830 -0.3034 -0.0495  3.7801
  415MOL0     H57214   7.383  10.581   7.900 -0.5744 -0.5708 -0.6815
  415MOL0     H57215   7.134  10.492   7.778 -1.0797 -0.0128  0.8067
  415MOL0     H57216   7.150  10.665   7.738 -2.2776 -0.8280 -1.3502
  415MOL0     H57217   7.180  10.586   8.028  2.7934  1.8520 -0.0516
  415MOL0     H57218   7.141  10.734   7.954 -1.5745  0.4982 -1.2862
  415MOL0     H57219   6.961  10.468   8.123  1.7523  1.7360  0.6927
  415MOL0     H57220   6.719  10.387   8.124  1.5233  0.9672  2.1055
  415MOL0     H57221   6.605  10.459   8.010  0.2193 -2.2796 -0.2703
  415MOL0     H57222   6.698  10.617   8.247  0.7972  0.0066 -1.8096
  415MOL0     H57223   6.533  10.621   8.194 -1.2262 -0.4495  1.4685
  415MOL0     H57224   6.524  10.371   8.239  0.1367  1.7225 -1.0866
  415MOL0     H57225   6.667  10.408   8.345 -0.1297 -0.3799  1.2490
  415MOL0     H57226   6.404  10.554   8.359  0.7185 -1.1045 -1.9385
  415MOL0     H57227   6.451  10.422   8.477  1.7865 -1.5181 -0.8573
  415MOL0     H57228   6.665  10.786   8.627  0.8205 -1.1610  0.6762
  415MOL0     H57229   6.575  11.000   8.879  2.2402  0.4273  2.9287
  415MOL0     H57230   6.694  10.961   8.760  0.3534 -2.0629 -1.4329
  415MOL0     H57231   6.711  10.900   8.925  2.4100  3.8202  0.3263
  415MOL0     H57232   6.570  10.861   9.326  0.0493  1.0838 -1.8782
  415MOL0     H57233   6.478  10.944   9.527  0.5512  0.1697 -0.3580
  415MOL0     H57234   6.369  11.056   9.715 -3.3301 -1.7183 -0.9915
  415MOL0     H57235   6.454  11.184   9.610  0.2874  0.9987  1.7806
  415MOL0     H57236   6.375  11.284   9.811 -0.0220 -2.3750  0.8606
  415MOL0     H57237   6.309  11.340   9.656  2.6829 -1.4741 -0.0344
  415MOL0     H57238   6.153  11.160   9.846 -2.5229 -0.6297 -1.2793
  415MOL0     H57239   6.102  11.229   9.691 -0.9816 -2.1899  0.2532
  415MOL0     H57240   6.127  11.459   9.800 -0.4096 -1.1003 -1.7004
  415MOL0     H57241   6.119  11.369   9.961  0.7886  0.1583  0.3522
  415MOL0     H57242   5.902  11.353   9.756 -1.2949  2.2276  0.6257
  415MOL0     H57243   5.922  11.241   9.880 -1.5028  0.2674  3.6509
  415MOL0     H57244   5.867  11.420  10.039  1.1802 -0.9195 -0.8246
  415MOL0     H57245   5.760  11.415   9.902 -0.5231 -0.1476 -1.9691
  415MOL0     H57246   5.946  11.592   9.805 -2.5962 -1.2062 -1.3408
  415MOL0     H57247   5.957  11.635   9.984  4.3720 -1.2868 -1.1260
  415MOL0     H57248   5.677  11.635   9.846 -0.9253  2.8044 -0.8374
  415MOL0     H57249   5.763  11.782   9.878 -3.4052  1.0740  2.0317
  415MOL0     H57250   6.160  11.125   9.303  0.0517 -0.4846  0.0599
  415MOL0     H57251   6.272  11.034   9.087  0.4204  0.9292  0.5238
  415MOL0     H57252   6.323  10.555   8.889  0.5605 -1.0736 -1.5261
  415MOL0     H57253   6.377  10.470   8.670  0.9131  0.8367 -1.6190
  415MOL0     H57254   7.771  10.811   7.227  2.3827 -2.9481 -1.7450
  415MOL0     H57255   7.824  10.987   7.062  1.0041 -0.3805  0.1910
  415MOL0     H57256   7.645  11.239   6.729 -1.7416 -0.0923 -1.1093
  415MOL0     H57257   7.665  11.437   6.609 -2.0897 -1.8566  2.6309
  415MOL0     H57258   8.056  11.528   6.391  0.2533  2.9034 -0.6651
  415MOL0     H57259   7.956  11.459   6.266 -0.8657 -1.2811  0.8257
  415MOL0     H57260   8.052  11.704   6.284 -1.4705  0.4624 -1.9273
  415MOL0     H57261   7.929  11.734   6.400 -0.6270 -1.3131  0.7860
  415MOL0     H57262   7.900  11.700   6.099  1.5437 -1.5782  0.5635
  415MOL0     H57263   7.759  11.698   6.214 -0.1246  2.1075 -0.2093
  415MOL0     H57264   7.797  11.895   6.303  1.6860 -1.2043  1.4960
  415MOL0     H57265   7.771  11.897   6.125  0.1059  2.0056  0.4122
  415MOL0     H57266   8.131  12.090   6.129  0.1824 -0.7950  2.1604
  415MOL0     H57267   8.039  11.277   6.453 -0.4641  2.1246 -0.2242
  415MOL0     H57268   8.111  11.079   6.476 -0.9672  5.1016  0.2401
  415MOL0     H57269   8.132  11.082   6.655 -1.0324  0.7537  0.2665
  415MOL0     H57270   8.048  10.956   6.585  1.6676 -0.5469 -0.1228
  416MOL0     O57271   5.457   5.976   4.033  0.3137 -0.7844 -0.5544
  416MOL0     C57272   5.565   6.031   4.006  0.0167 -0.0150 -0.3975
  416MOL0     O57273   5.612   6.072   3.885  0.0654  0.8915  1.0255
  416MOL0     C57274   5.514   6.058   3.788 -0.3564  0.3489 -0.5131
  416MOL0     C57275   5.409   6.146   3.773 -0.8447  0.7291 -1.3346
  416MOL0     C57276   5.321   6.135   3.659 -0.0154  0.7791  0.2565
  416MOL0     C57277   5.323   6.020   3.567 -0.8018  0.2281 -1.7565
  416MOL0     O57278   5.254   5.995   3.453  0.1296 -0.2044  0.5626
  416MOL0     C57279   5.157   6.095   3.399 -1.2839 -0.1098  0.5570
  416MOL0     C57280   5.078   6.056   3.277  0.2717  0.0122  0.3416
  416MOL0     C57281   5.030   6.176   3.195 -0.3417  0.8160  1.2055
  416MOL0     C57282   4.929   6.111   3.101  0.2781 -0.1544  0.2588
  416MOL0     C57283   4.884   6.213   2.996 -0.3109 -0.1601 -0.4784
  416MOL0     C57284   4.759   6.181   2.903 -0.6852  1.0100 -0.3602
  416MOL0     C57285   4.713   6.309   2.827 -0.3634  0.3215 -0.9304
  416MOL0     C57286   4.829   6.391   2.777  0.3970  0.1254 -0.5975
  416MOL0     N57287   4.799   6.467   2.650  1.0703 -1.1228 -0.5551
  416MOL0     C57288   4.775   6.416   2.529  0.4831 -0.1719  0.1927
  416MOL0     C57289   4.732   6.513   2.443 -0.2208  1.2370  0.6212
  416MOL0     C57290   4.699   6.484   2.290 -0.5921 -0.5493 -0.1378
  416MOL0     C57291   4.560   6.531   2.245  0.2575 -0.5110 -0.4694
  416MOL0     C57292   4.462   6.449   2.328 -0.3437  0.3508  0.5248
  416MOL0     C57293   4.401   6.332   2.247 -0.2645 -0.6237 -0.8574
  416MOL0     O57294   4.283   6.284   2.323 -0.1175  0.7022  0.9494
  416MOL0     C57295   4.309   6.228   2.441 -0.4495  0.6848 -0.3812
  416MOL0     C57296   4.425   6.154   2.471  0.0871 -0.5756 -1.3488
  416MOL0     C57297   4.441   6.096   2.605  0.0355 -0.1930  0.6231
  416MOL0     C57298   4.560   6.007   2.619 -0.1323  0.4666  0.4882
  416MOL0     C57299   4.352   6.130   2.716  0.4684  0.3401  0.1804
  416MOL0     C57300   4.348   6.069   2.850 -0.4825 -0.0829 -0.7683
  416MOL0     O57301   4.242   6.114   2.932  0.0652 -0.0486 -0.3899
  416MOL0     C57302   4.240   6.069   3.064 -0.5622  0.4334  0.1865
  416MOL0     C57303   4.322   6.145   3.152 -0.4532  0.2569 -0.4308
  416MOL0     C57304   4.302   6.111   3.292  0.3882 -0.1444 -0.0006
  416MOL0     C57305   4.209   6.013   3.342 -0.3957  0.4808 -0.1408
  416MOL0     O57306   4.193   5.979   3.482 -0.3945 -0.1961  0.1356
  416MOL0     C57307   4.065   6.034   3.529 -0.5428 -0.5814 -0.3316
  416MOL0     C57308   4.034   5.968   3.661  0.0766  0.1734 -0.0212
  416MOL0     C57309   3.976   5.828   3.654  0.4479  0.2758 -0.2594
  416MOL0     C57310   4.042   5.704   3.590 -1.1513 -0.1076  0.1993
  416MOL0     C57311   3.984   5.566   3.586 -0.7164  0.5705  0.1077
  416MOL0     C57312   3.843   5.560   3.516  0.2680  0.0281  0.3337
  416MOL0     C57313   3.772   5.425   3.544 -1.0287 -0.3887 -0.5675
  416MOL0     C57314   3.635   5.433   3.481  0.5399  0.4578  0.4779
  416MOL0    Cl57315   3.576   5.262   3.488  0.3517  0.1892 -0.3140
  416MOL0     C57316   4.128   5.956   3.243 -0.5688 -0.0668  0.2074
  416MOL0     C57317   4.131   5.985   3.108  0.3564  0.0013  0.3214
  416MOL0     O57318   4.431   5.986   2.877 -0.6105 -0.5267 -0.7004
  416MOL0     C57319   4.243   6.214   2.681  0.1427 -0.2886  0.4052
  416MOL0     C57320   4.219   6.249   2.543 -0.5602 -0.2731 -0.4297
  416MOL0     N57321   4.738   6.630   2.516 -0.0730 -1.0548  0.6093
  416MOL0     N57322   4.780   6.606   2.639  0.0255  0.2276 -1.1043
  416MOL0     C57323   5.416   5.918   3.612  0.8197 -0.1809  0.0875
  416MOL0     C57324   5.508   5.937   3.714  0.1138  0.8899 -1.1647
  416MOL0     C57325   5.650   6.051   4.126  0.0011 -0.2179 -0.3112
  416MOL0     C57326   5.595   6.090   4.251  0.3055  0.3948  0.1110
  416MOL0     C57327   5.680   6.113   4.361 -0.5634  1.4718  0.0994
  416MOL0     C57328   5.814   6.091   4.362 -1.4418 -0.2053 -0.5953
  416MOL0     O57329   5.905   6.118   4.468  0.2504  0.3261  0.1973
  416MOL0     C57330   5.856   6.118   4.600 -0.6930  0.2356  0.3900
  416MOL0     C57331   5.799   6.243   4.658  0.3344  0.3776  1.3305
  416MOL0     C57332   5.759   6.211   4.808  0.2730 -0.7161 -0.2913
  416MOL0     C57333   5.868   6.171   4.908 -0.7486 -0.2154  0.3232
  416MOL0     C57334   5.806   6.215   5.033  0.4453  0.2474  0.5646
  416MOL0     C57335   5.752   6.241   5.137  0.2053 -1.0333  0.6916
  416MOL0     C57336   5.870   6.044   4.239  0.3794  0.2687 -0.6214
  416MOL0     C57337   5.791   6.016   4.130  0.0188  0.1395 -0.0775
  416MOL0     C57338   5.846   5.911   4.034  1.0701  0.2973  0.7793
  416MOL0     H57339   5.412   6.226   3.847  1.1593 -0.1680 -0.3702
  416MOL0     H57340   5.246   6.212   3.647 -2.5704 -1.6063 -0.0344
  416MOL0     H57341   5.214   6.187   3.381  0.4499 -0.6208  2.9233
  416MOL0     H57342   5.082   6.129   3.472 -2.0296 -1.2539  0.3457
  416MOL0     H57343   5.141   5.993   3.213  1.1111  0.7393  0.4347
  416MOL0     H57344   4.999   5.991   3.315  0.2049  0.2926  0.6730
  416MOL0     H57345   4.972   6.249   3.253 -0.4087  1.0317  0.8717
  416MOL0     H57346   5.118   6.223   3.151  0.0324 -1.2208 -0.3471
  416MOL0     H57347   4.958   6.019   3.048 -1.6560 -1.7004  1.7211
  416MOL0     H57348   4.840   6.094   3.162 -1.1245  4.2408 -0.2104
  416MOL0     H57349   4.961   6.230   2.921 -0.9263 -1.5908 -1.4864
  416MOL0     H57350   4.862   6.303   3.054  1.3618 -0.8818  1.3767
  416MOL0     H57351   4.792   6.107   2.830 -1.3198  0.3040  0.0514
  416MOL0     H57352   4.679   6.135   2.963  0.4511  0.8233  1.0695
  416MOL0     H57353   4.663   6.376   2.898  1.5077  0.4166  0.3627
  416MOL0     H57354   4.640   6.286   2.748 -3.1908  3.6104  0.4805
  416MOL0     H57355   4.867   6.468   2.845  0.0118  0.8469 -1.1827
  416MOL0     H57356   4.915   6.328   2.750  0.9295  0.9034 -0.7366
  416MOL0     H57357   4.804   6.312   2.513  0.1545 -0.0576 -1.2873
  416MOL0     H57358   4.716   6.378   2.268 -0.2150 -0.4840 -0.1764
  416MOL0     H57359   4.773   6.522   2.219 -1.0832  0.1446 -0.2780
  416MOL0     H57360   4.551   6.637   2.271  0.6253 -0.6519  0.2524
  416MOL0     H57361   4.537   6.520   2.139 -0.8902 -1.1511 -0.1760
  416MOL0     H57362   4.507   6.411   2.420  2.0318 -0.1160 -0.7453
  416MOL0     H57363   4.377   6.514   2.352 -3.0727 -3.2322  1.5031
  416MOL0     H57364   4.374   6.386   2.155  2.5340  0.8181 -0.9273
  416MOL0     H57365   4.477   6.255   2.229  2.2976  2.0788 -2.6963
  416MOL0     H57366   4.499   6.132   2.394  2.0800  0.0465  0.3082
  416MOL0     H57367   4.612   5.999   2.523 -2.6367 -0.1611 -0.9114
  416MOL0     H57368   4.540   5.903   2.650  3.8776 -0.6656 -0.2070
  416MOL0     H57369   4.633   6.053   2.685 -0.5603  0.7035  0.7998
  416MOL0     H57370   4.400   6.209   3.113 -0.0074 -0.1732 -0.2651
  416MOL0     H57371   4.368   6.165   3.360  2.5146  0.2557 -2.2406
  416MOL0     H57372   4.090   6.139   3.551 -0.6198 -0.6072 -0.1169
  416MOL0     H57373   3.987   6.023   3.454  1.4827 -0.7974 -2.5402
  416MOL0     H57374   4.128   5.956   3.715 -0.5251 -3.7578  0.4930
  416MOL0     H57375   3.952   6.010   3.719 -2.1836 -1.5914 -1.7463
  416MOL0     H57376   3.874   5.841   3.615  0.9080  5.2072 -0.3493
  416MOL0     H57377   3.971   5.801   3.761  1.7208  2.3211  0.3646
  416MOL0     H57378   4.142   5.699   3.635  0.3924  1.4606 -2.7780
  416MOL0     H57379   4.070   5.740   3.490 -0.6703 -0.0008  0.3662
  416MOL0     H57380   4.057   5.509   3.527  1.2185  2.6920  0.3485
  416MOL0     H57381   3.973   5.520   3.685  1.4381 -2.2324 -0.8314
  416MOL0     H57382   3.857   5.577   3.409  0.4351  1.5019  0.5784
  416MOL0     H57383   3.788   5.641   3.564  1.1232  1.6035 -1.2365
  416MOL0     H57384   3.755   5.424   3.652 -0.4427  0.7292 -0.4492
  416MOL0     H57385   3.827   5.337   3.508 -1.0210 -1.2986  1.5514
  416MOL0     H57386   3.648   5.458   3.375  4.4215 -1.8595  0.2219
  416MOL0     H57387   3.575   5.505   3.538 -1.6096 -1.8405  1.3042
  416MOL0     H57388   4.065   5.878   3.284 -0.6876 -0.1217 -0.0800
  416MOL0     H57389   4.075   5.932   3.031  1.0257  0.8271 -0.7805
  416MOL0     H57390   4.160   6.242   2.746  0.0475  1.6806 -0.5042
  416MOL0     H57391   4.123   6.292   2.515 -0.6799  0.0303  0.4465
  416MOL0     H57392   5.422   5.827   3.552 -0.0500  1.1436 -2.1290
  416MOL0     H57393   5.586   5.863   3.729  1.2733  1.9598 -1.7140
  416MOL0     H57394   5.488   6.102   4.263  0.0073 -1.1254 -0.7260
  416MOL0     H57395   5.637   6.148   4.454  0.1648  1.4267  0.4580
  416MOL0     H57396   5.779   6.041   4.610  1.1352 -1.7241 -0.0995
  416MOL0     H57397   5.945   6.094   4.658 -0.6853 -2.0991 -0.5100
  416MOL0     H57398   5.704   6.257   4.605  0.4190  1.4267  1.4260
  416MOL0     H57399   5.875   6.317   4.633  1.0024 -0.8276 -0.3112
  416MOL0     H57400   5.706   6.297   4.849 -1.4490 -1.6656 -0.4149
  416MOL0     H57401   5.693   6.124   4.800 -2.2496  0.9931  0.5679
  416MOL0     H57402   5.965   6.219   4.893  0.8179 -2.1896  3.1396
  416MOL0     H57403   5.898   6.066   4.903  1.1868  0.3559 -3.8643
  416MOL0     H57404   5.718   6.266   5.235  2.6336 -0.4948  1.4737
  416MOL0     H57405   5.974   6.011   4.235 -0.1412 -1.4173 -1.3155
  416MOL0     H57406   5.849   5.948   3.930  1.0520 -2.7973 -0.4157
  416MOL0     H57407   5.940   5.866   4.066  2.1961  0.9061 -1.4530
  416MOL0     H57408   5.766   5.836   4.031  1.3175 -0.0954 -3.7519
  417MOL0     O57409   4.521   9.004   1.935 -0.6344  0.0260  0.4214
  417MOL0     C57410   4.584   8.898   1.942  0.2626 -0.0358 -0.0890
  417MOL0     O57411   4.571   8.802   1.846  0.5649  0.3186  0.0510
  417MOL0     C57412   4.474   8.812   1.752  0.4018 -0.0008 -0.5265
  417MOL0     C57413   4.353   8.751   1.792  0.2098  0.2722  0.2479
  417MOL0     C57414   4.245   8.748   1.707  0.6718  0.1150 -1.4230
  417MOL0     C57415   4.251   8.808   1.579  0.3301 -0.7182 -0.4750
  417MOL0     O57416   4.135   8.840   1.512  0.2499 -0.9117  0.0944
  417MOL0     C57417   4.002   8.813   1.563 -0.2138  0.2215 -0.1768
  417MOL0     C57418   3.902   8.882   1.473 -0.2653 -0.2589 -0.2724
  417MOL0     C57419   3.760   8.857   1.507  0.4957 -0.4174  0.2614
  417MOL0     C57420   3.679   8.957   1.431  0.3835 -0.1076 -1.2871
  417MOL0     C57421   3.527   8.919   1.427  1.1214  0.1209 -0.0118
  417MOL0     C57422   3.431   9.018   1.367 -0.3296  0.0470  0.2527
  417MOL0     C57423   3.284   8.979   1.347  0.3673  0.0148 -0.2180
  417MOL0     C57424   3.254   8.833   1.297  0.2443  1.0407 -0.4364
  417MOL0     N57425   3.330   8.815   1.172  0.5679 -0.5126 -0.1027
  417MOL0     C57426   3.292   8.866   1.051  0.4653 -0.5002  0.7098
  417MOL0     C57427   3.371   8.795   0.958 -0.1328  0.6296 -0.7571
  417MOL0     C57428   3.380   8.813   0.816  0.4762 -0.2763 -0.0460
  417MOL0     C57429   3.492   8.908   0.787  0.2441  0.6591 -0.0037
  417MOL0     C57430   3.486   9.053   0.836 -0.7269  0.3528 -0.0192
  417MOL0     C57431   3.368   9.133   0.766  0.1227 -0.0275  0.0053
  417MOL0     O57432   3.389   9.273   0.791 -0.3254 -0.4775  0.4626
  417MOL0     C57433   3.337   9.311   0.916 -0.8813 -0.3818 -0.4490
  417MOL0     C57434   3.198   9.285   0.954 -0.1949  1.0007  0.0095
  417MOL0     C57435   3.135   9.323   1.068  0.4750  0.2937  0.8401
  417MOL0     C57436   2.985   9.296   1.087  0.5042 -0.1328 -0.1954
  417MOL0     C57437   3.220   9.388   1.159 -0.2923  0.6149  0.1884
  417MOL0     C57438   3.177   9.413   1.295 -0.5401 -0.1311  0.2342
  417MOL0     O57439   3.274   9.413   1.395 -0.1157  0.5032  0.8987
  417MOL0     C57440   3.274   9.491   1.502 -0.1998 -0.7913 -0.1470
  417MOL0     C57441   3.320   9.440   1.628  0.1798 -0.9273 -0.3431
  417MOL0     C57442   3.328   9.523   1.740  0.6207 -0.2057 -0.0299
  417MOL0     C57443   3.295   9.658   1.739 -0.6508  0.1074  0.0806
  417MOL0     O57444   3.280   9.737   1.849 -0.4620  0.0872  0.0919
  417MOL0     C57445   3.297   9.675   1.978 -0.3898 -0.1851  0.6955
  417MOL0     C57446   3.243   9.777   2.079  0.1817  0.2270  0.6302
  417MOL0     C57447   3.333   9.897   2.088 -0.3102  0.8196  0.3470
  417MOL0     C57448   3.433   9.885   2.208  0.3241  0.6565  0.0577
  417MOL0     C57449   3.536   9.994   2.222 -0.3145 -0.5949  0.2073
  417MOL0     C57450   3.660   9.960   2.316  0.3956 -0.5508 -0.5845
  417MOL0     C57451   3.773  10.069   2.296  0.9181  0.3366  0.3654
  417MOL0     C57452   3.887  10.060   2.393 -0.3418  0.2450 -0.1455
  417MOL0    Cl57453   4.016  10.172   2.355  0.5123 -0.2832 -0.3285
  417MOL0     C57454   3.241   9.700   1.615 -0.0657  0.5830  1.1386
  417MOL0     C57455   3.227   9.618   1.501 -0.5920 -0.0206  0.4397
  417MOL0     O57456   3.062   9.458   1.302 -0.4002  0.9586 -1.2332
  417MOL0     C57457   3.359   9.409   1.139  0.3315  0.0530  0.0073
  417MOL0     C57458   3.416   9.369   1.015 -0.3009  0.2023  0.1373
  417MOL0     N57459   3.456   8.705   1.027 -0.2459  0.1505  0.6926
  417MOL0     N57460   3.424   8.715   1.155 -0.4144  0.5412 -0.0463
  417MOL0     C57461   4.378   8.868   1.537 -0.3314  0.1297 -0.4730
  417MOL0     C57462   4.480   8.865   1.624 -0.2757  0.6135 -0.6077
  417MOL0     C57463   4.697   8.878   2.033 -0.4629 -0.5635  0.1219
  417MOL0     C57464   4.813   8.817   1.978  0.6382 -0.2904  0.7329
  417MOL0     C57465   4.927   8.793   2.054 -0.2568 -0.2117  0.6775
  417MOL0     C57466   4.920   8.833   2.182 -0.3006 -0.0283  0.1562
  417MOL0     O57467   5.032   8.824   2.259 -0.2074 -0.1775 -0.6924
  417MOL0     C57468   5.019   8.766   2.387 -0.0187 -0.0819 -0.9272
  417MOL0     C57469   5.038   8.607   2.405  0.5480 -0.1431  0.1619
  417MOL0     C57470   5.159   8.580   2.313  0.3191 -0.1770  0.7992
  417MOL0     C57471   5.197   8.434   2.310 -0.5709 -0.1786 -0.5512
  417MOL0     C57472   5.316   8.426   2.217 -1.1197  0.1637  0.2119
  417MOL0     C57473   5.388   8.410   2.119 -0.3914  0.0874 -1.0199
  417MOL0     C57474   4.809   8.893   2.238 -0.0959 -0.2123 -1.1047
  417MOL0     C57475   4.692   8.922   2.161 -0.3143 -0.4772 -0.0585
  417MOL0     C57476   4.583   9.009   2.232 -0.1429 -0.4591  0.1601
  417MOL0     H57477   4.356   8.723   1.897 -2.5503 -1.4855 -0.0439
  417MOL0     H57478   4.149   8.704   1.734 -0.2176  1.9712 -1.3974
  417MOL0     H57479   3.970   8.839   1.664 -0.8973 -0.0981 -0.3048
  417MOL0     H57480   3.984   8.706   1.554  3.0352 -0.3015 -1.4950
  417MOL0     H57481   3.925   8.989   1.483 -0.9253 -0.0083 -1.2826
  417MOL0     H57482   3.919   8.861   1.367 -0.9644  0.4574 -0.5288
  417MOL0     H57483   3.737   8.759   1.465  0.3962 -0.3163  0.0833
  417MOL0     H57484   3.739   8.852   1.615  0.5446 -0.5016  0.2672
  417MOL0     H57485   3.695   9.052   1.483  2.0964 -1.1266  0.1637
  417MOL0     H57486   3.720   8.965   1.330 -1.2243 -0.0641 -1.9670
  417MOL0     H57487   3.500   8.903   1.532 -2.1923 -0.8943 -0.8873
  417MOL0     H57488   3.519   8.820   1.380  1.3008  0.9303 -1.8362
  417MOL0     H57489   3.443   9.111   1.424  1.1625  0.4716 -0.6958
  417MOL0     H57490   3.467   9.038   1.266 -1.9112  4.4681  0.3404
  417MOL0     H57491   3.252   9.055   1.275  0.7856 -0.1629 -0.6027
  417MOL0     H57492   3.231   8.978   1.442  1.1149 -1.5539  0.2182
  417MOL0     H57493   3.278   8.759   1.374  1.4358 -1.2289 -2.8104
  417MOL0     H57494   3.146   8.824   1.282  0.2245  0.7051 -0.1034
  417MOL0     H57495   3.214   8.939   1.032  0.0059 -1.0254  0.5255
  417MOL0     H57496   3.289   8.865   0.784 -0.4284 -0.2721  2.3675
  417MOL0     H57497   3.390   8.722   0.755 -0.7951 -1.2687  1.1462
  417MOL0     H57498   3.587   8.865   0.820  0.4895 -2.3947 -3.9174
  417MOL0     H57499   3.499   8.917   0.678 -1.4166 -1.2882 -0.3283
  417MOL0     H57500   3.478   9.050   0.945  1.3430 -3.1882  0.1791
  417MOL0     H57501   3.582   9.099   0.813  1.7163 -3.1563  2.1832
  417MOL0     H57502   3.374   9.103   0.661 -2.2906  0.5665 -0.3543
  417MOL0     H57503   3.267   9.097   0.789  0.5052 -2.4040 -1.6783
  417MOL0     H57504   3.140   9.242   0.874 -0.0791  1.7197 -0.4709
  417MOL0     H57505   2.932   9.392   1.095  0.2600 -0.3115  0.3985
  417MOL0     H57506   2.974   9.230   1.174 -1.0811 -3.9183 -2.9839
  417MOL0     H57507   2.942   9.237   1.005 -0.6149  0.3610  0.0174
  417MOL0     H57508   3.357   9.339   1.639 -0.7207 -1.3417 -0.9495
  417MOL0     H57509   3.363   9.481   1.834  2.1600  3.2953  1.1318
  417MOL0     H57510   3.241   9.582   1.986 -2.2432  0.6674 -1.3185
  417MOL0     H57511   3.403   9.655   1.997 -0.7739 -2.4588  0.6990
  417MOL0     H57512   3.140   9.806   2.060  1.0867  1.9815 -2.3674
  417MOL0     H57513   3.248   9.730   2.177 -0.7884  0.4287  0.7844
  417MOL0     H57514   3.267   9.981   2.110 -1.1368  0.7518 -1.6377
  417MOL0     H57515   3.391   9.922   1.998 -1.4788  3.6779  0.2738
  417MOL0     H57516   3.496   9.796   2.200 -3.9185 -2.5197 -1.6613
  417MOL0     H57517   3.371   9.891   2.298 -0.3919  3.8884 -0.5114
  417MOL0     H57518   3.568  10.032   2.124  0.1148 -0.4571  0.3999
  417MOL0     H57519   3.492  10.081   2.271 -4.3311 -1.7486 -0.9312
  417MOL0     H57520   3.699   9.858   2.307 -0.1097 -1.3625  3.8598
  417MOL0     H57521   3.628   9.970   2.420  1.2035  1.7106 -0.5071
  417MOL0     H57522   3.729  10.169   2.299 -1.2563 -0.3848 -2.7830
  417MOL0     H57523   3.799  10.053   2.191 -1.4330 -1.5540 -0.0181
  417MOL0     H57524   3.938   9.965   2.380  0.1258  0.2778  1.2750
  417MOL0     H57525   3.856  10.065   2.498 -2.2706  2.6076 -0.7176
  417MOL0     H57526   3.194   9.796   1.595  0.3188  0.0277 -3.3409
  417MOL0     H57527   3.190   9.658   1.407 -2.1571 -2.3182 -0.0043
  417MOL0     H57528   3.420   9.460   1.213  6.0572 -1.3391 -3.1602
  417MOL0     H57529   3.511   9.384   0.966  1.0237 -3.7444  1.0535
  417MOL0     H57530   4.397   8.914   1.441 -1.3195 -2.0176 -1.7775
  417MOL0     H57531   4.570   8.919   1.598  0.7330 -1.8071 -2.5848
  417MOL0     H57532   4.805   8.794   1.872 -2.3794  2.6226  0.1783
  417MOL0     H57533   5.006   8.731   2.013 -1.7196 -1.0839 -0.9324
  417MOL0     H57534   5.093   8.825   2.443 -1.0434  0.9220 -0.6069
  417MOL0     H57535   4.930   8.800   2.440 -0.3019  0.5709 -1.8098
  417MOL0     H57536   4.956   8.548   2.362  0.8983  0.1440 -0.9356
  417MOL0     H57537   5.049   8.580   2.511  0.8563 -2.2247 -0.3568
  417MOL0     H57538   5.148   8.613   2.209 -1.7373  3.3678  1.9820
  417MOL0     H57539   5.243   8.641   2.346 -1.5470  0.7419  4.3090
  417MOL0     H57540   5.116   8.380   2.259 -2.0712  1.9849 -0.6228
  417MOL0     H57541   5.225   8.396   2.408 -0.1760 -1.8166 -1.2711
  417MOL0     H57542   5.464   8.395   2.045  0.9668 -2.1883  0.7160
  417MOL0     H57543   4.817   8.939   2.336  1.0692  2.3238 -2.2760
  417MOL0     H57544   4.597   9.115   2.206 -0.4159 -0.0205  1.6948
  417MOL0     H57545   4.483   8.983   2.196 -0.1247  1.6695 -1.6276
  417MOL0     H57546   4.595   8.998   2.341 -2.3301  2.3133  0.7995
  418MOL0     O57547  10.218   0.156   8.750  0.1045 -0.4400  0.1848
  418MOL0     C57548  10.329   0.108   8.726  0.0481 -0.0767 -0.4462
  418MOL0     O57549  10.444   0.180   8.701  0.3270 -0.4651  0.4308
  418MOL0     C57550  10.455   0.321   8.680 -0.3491 -0.4697 -0.3759
  418MOL0     C57551  10.571   0.389   8.710 -0.3423  0.0986  0.1377
  418MOL0     C57552  10.581   0.535   8.686 -0.5208  0.1429  0.3015
  418MOL0     C57553  10.474   0.603   8.629 -0.5451 -0.1297  0.2317
  418MOL0     O57554  10.492   0.738   8.604  0.0322  0.0433 -0.3449
  418MOL0     C57555  10.373   0.825   8.602  0.0168 -0.1519  0.4695
  418MOL0     C57556  10.389   0.925   8.480  0.0660 -0.7692 -0.0408
  418MOL0     C57557  10.252   0.948   8.406 -0.2915  0.8198  0.5188
  418MOL0     C57558  10.158   1.008   8.513  1.2273 -0.7955  0.0566
  418MOL0     C57559  10.011   1.038   8.465 -0.7874  0.2680 -1.1469
  418MOL0     C57560  10.000   1.100   8.333 -0.6203  1.2087 -0.1752
  418MOL0     C57561  10.038   1.251   8.338  0.5575  0.0718 -0.3597
  418MOL0     C57562   9.996   1.321   8.205  0.5218  1.4462 -0.1131
  418MOL0     N57563   9.953   1.457   8.229 -0.6726  1.3893 -0.5531
  418MOL0     C57564   9.991   1.558   8.152 -0.0141  0.1610  0.5297
  418MOL0     C57565   9.900   1.663   8.183 -0.8170  0.4013  0.1347
  418MOL0     C57566   9.911   1.800   8.113  0.6552 -0.3795 -0.2690
  418MOL0     C57567   9.848   1.912   8.199 -0.0711 -0.0616 -0.4481
  418MOL0     C57568   9.851   2.043   8.128 -0.2103 -0.0831  0.3828
  418MOL0     C57569   9.779   2.047   7.996  0.3067 -0.3863  1.0130
  418MOL0     O57570   9.638   2.026   8.015 -1.0230  0.0046  0.1923
  418MOL0     C57571   9.550   2.084   7.929 -1.8361  0.8090 -0.3681
  418MOL0     C57572   9.581   2.176   7.835  0.2776 -0.0924 -1.0804
  418MOL0     C57573   9.479   2.234   7.759 -0.9003 -0.0097 -0.0033
  418MOL0     C57574   9.526   2.340   7.652 -0.1605  0.1592 -0.3183
  418MOL0     C57575   9.341   2.205   7.782  0.0775 -0.4155 -0.2679
  418MOL0     C57576   9.229   2.286   7.721 -0.4857 -0.0203 -0.1429
  418MOL0     O57577   9.103   2.252   7.754 -0.1012 -0.5305  0.9677
  418MOL0     C57578   9.001   2.348   7.731  0.2082  0.7852 -0.8657
  418MOL0     C57579   8.891   2.298   7.669  0.8649 -0.2579  1.0841
  418MOL0     C57580   8.780   2.382   7.623  0.8985  0.0914  0.3733
  418MOL0     C57581   8.783   2.512   7.647 -0.0191 -0.7694 -0.3542
  418MOL0     O57582   8.681   2.589   7.606 -0.0047 -0.0913 -0.2979
  418MOL0     C57583   8.608   2.633   7.715 -0.2555 -0.8160 -0.3430
  418MOL0     C57584   8.460   2.583   7.723  0.7480 -0.3943  0.2338
  418MOL0     C57585   8.382   2.648   7.598  0.1105  0.1246 -0.9651
  418MOL0     C57586   8.238   2.594   7.584 -0.3519  0.7595  0.3248
  418MOL0     C57587   8.137   2.699   7.535  0.8282  0.1186 -0.4055
  418MOL0     C57588   7.995   2.635   7.546 -0.2951 -0.4708 -0.1215
  418MOL0     C57589   7.892   2.697   7.455  0.3543  0.2285  0.6751
  418MOL0     C57590   7.850   2.835   7.501 -0.7044 -0.0673  0.0244
  418MOL0    Cl57591   7.786   2.829   7.667 -0.0280 -0.5440  0.4350
  418MOL0     C57592   8.888   2.566   7.719  0.4435 -0.2621 -0.7746
  418MOL0     C57593   8.995   2.481   7.765 -0.2097  0.1037  0.8786
  418MOL0     O57594   9.256   2.381   7.652  0.1469  0.2221 -0.3402
  418MOL0     C57595   9.315   2.110   7.885  0.3614  0.4890 -0.1061
  418MOL0     C57596   9.420   2.054   7.956 -0.1182 -0.5884 -0.2072
  418MOL0     N57597   9.818   1.617   8.284 -0.8199 -1.1992  0.5445
  418MOL0     N57598   9.855   1.498   8.307  0.1164  0.2761 -0.4663
  418MOL0     C57599  10.357   0.529   8.599 -0.4154  0.1500  0.1340
  418MOL0     C57600  10.349   0.389   8.628  0.1452 -0.6437 -0.1991
  418MOL0     C57601  10.339  -0.041   8.707 -0.5572 -0.2849 -0.3261
  418MOL0     C57602  10.469  -0.092   8.726  0.0816 -0.1820  0.5691
  418MOL0     C57603  10.491  -0.232   8.712  0.7296 -0.5015  0.5167
  418MOL0     C57604  10.400  -0.316   8.664 -0.0102 -0.0539  0.3156
  418MOL0     O57605  10.444  -0.445   8.652  0.0141  0.4461 -0.4825
  418MOL0     C57606  10.351  -0.550   8.639 -1.1917  0.0701  0.4676
  418MOL0     C57607  10.412  -0.680   8.587 -0.6765  0.0441  1.4816
  418MOL0     C57608  10.317  -0.800   8.562  0.1255  0.3650 -1.1677
  418MOL0     C57609  10.222  -0.809   8.687 -0.3303  0.3680 -0.3290
  418MOL0     C57610  10.295  -0.822   8.826  0.1780  1.0157  0.5150
  418MOL0     C57611  10.351  -0.826   8.935  0.3257  0.0533  0.2559
  418MOL0     C57612  10.272  -0.264   8.635  0.8008 -0.6736  0.1871
  418MOL0     C57613  10.236  -0.132   8.673 -0.2053 -0.1646 -0.3771
  418MOL0     C57614  10.094  -0.098   8.638  0.7429 -0.3940 -0.4477
  418MOL0     H57615  10.641   0.329   8.767  1.2465  3.4318  1.9537
  418MOL0     H57616  10.666   0.596   8.712  0.0365 -0.7084  0.5273
  418MOL0     H57617  10.376   0.881   8.696 -1.7789 -2.6914  2.1577
  418MOL0     H57618  10.280   0.768   8.594 -0.9984  1.6077 -0.8977
  418MOL0     H57619  10.432   1.016   8.522  0.0701  1.1273 -3.7372
  418MOL0     H57620  10.470   0.908   8.409  0.4168  1.2410 -0.1626
  418MOL0     H57621  10.257   1.027   8.331 -3.0674  0.6404  0.0214
  418MOL0     H57622  10.216   0.852   8.367  1.6683  0.1382  0.2623
  418MOL0     H57623  10.155   0.943   8.601 -0.7985  2.8476  2.9976
  418MOL0     H57624  10.200   1.102   8.551 -0.3686  0.3485 -0.8789
  418MOL0     H57625   9.967   1.109   8.536 -3.3302  0.6516 -2.9557
  418MOL0     H57626   9.961   0.941   8.473  4.2230 -2.8240 -2.6049
  418MOL0     H57627  10.050   1.040   8.256  0.1554  1.7043 -0.0731
  418MOL0     H57628   9.899   1.102   8.291 -0.2641  0.5885 -1.1051
  418MOL0     H57629  10.142   1.269   8.368  0.4878  1.5984 -0.9557
  418MOL0     H57630   9.971   1.285   8.417  1.1654  0.4022  0.0176
  418MOL0     H57631  10.071   1.324   8.125  1.7379  0.6231  0.9564
  418MOL0     H57632   9.916   1.261   8.161  2.2887 -1.5752  0.4645
  418MOL0     H57633  10.072   1.567   8.080  0.1911 -1.1046  0.5861
  418MOL0     H57634   9.863   1.786   8.015  1.8199 -0.9803 -0.7685
  418MOL0     H57635  10.015   1.827   8.093  0.4739 -1.2666 -2.8273
  418MOL0     H57636   9.743   1.891   8.221  0.3358 -0.4805  1.1780
  418MOL0     H57637   9.881   1.914   8.303 -0.5293 -2.0722 -0.2333
  418MOL0     H57638   9.801   2.110   8.199 -0.1168  0.3151  0.0822
  418MOL0     H57639   9.952   2.087   8.128 -1.1939  2.8759  5.3383
  418MOL0     H57640   9.785   2.152   7.969 -2.4763 -0.2883  0.4754
  418MOL0     H57641   9.808   1.982   7.913 -5.6604 -1.7689 -0.4965
  418MOL0     H57642   9.677   2.214   7.804 -0.2880  0.9331 -1.6357
  418MOL0     H57643   9.495   2.304   7.554 -0.0718 -2.9734  0.7144
  418MOL0     H57644   9.632   2.345   7.624 -0.0747  0.6080  0.0636
  418MOL0     H57645   9.519   2.446   7.678 -0.0181  0.7289 -2.4557
  418MOL0     H57646   8.890   2.190   7.659  0.6997 -0.4143  2.5761
  418MOL0     H57647   8.690   2.336   7.585 -0.3046  0.8679  2.1576
  418MOL0     H57648   8.641   2.613   7.817 -1.6147  1.0498  0.5044
  418MOL0     H57649   8.613   2.742   7.708  2.9706 -0.8588 -0.2113
  418MOL0     H57650   8.469   2.475   7.710  2.3114  0.0369 -3.5440
  418MOL0     H57651   8.420   2.617   7.820  0.6997  3.0956 -0.8691
  418MOL0     H57652   8.447   2.621   7.515  0.4204  2.7009 -1.6426
  418MOL0     H57653   8.378   2.758   7.595 -0.6053  0.1995  1.1093
  418MOL0     H57654   8.203   2.567   7.684 -4.0472 -0.5225 -1.1384
  418MOL0     H57655   8.242   2.502   7.525  0.6564  0.2278  1.1768
  418MOL0     H57656   8.145   2.787   7.599  2.6976 -1.9768  2.5542
  418MOL0     H57657   8.160   2.726   7.432 -1.9777  2.2505 -0.5843
  418MOL0     H57658   7.960   2.640   7.650  0.9229 -1.3870  0.3539
  418MOL0     H57659   7.994   2.529   7.520 -0.1230 -0.2214 -1.1623
  418MOL0     H57660   7.803   2.634   7.446 -1.6780  2.9060  0.8817
  418MOL0     H57661   7.928   2.703   7.352  0.4033  0.9720  0.7321
  418MOL0     H57662   7.767   2.875   7.442 -1.1523  0.5162  1.0249
  418MOL0     H57663   7.942   2.893   7.496 -1.2166  0.7265 -3.9323
  418MOL0     H57664   8.877   2.668   7.754  0.6544 -0.8034  0.9754
  418MOL0     H57665   9.064   2.506   7.845 -3.2001  0.6339  3.4842
  418MOL0     H57666   9.211   2.081   7.892  0.7095 -0.4332  1.8137
  418MOL0     H57667   9.403   1.976   8.030  1.1803 -0.6367  0.0691
  418MOL0     H57668  10.262   0.565   8.562 -1.8499 -0.6483  2.7518
  418MOL0     H57669  10.257   0.344   8.591  0.2957 -0.3970 -0.8858
  418MOL0     H57670  10.554  -0.032   8.757 -0.8632  1.1456  0.6461
  418MOL0     H57671  10.588  -0.273   8.738  1.4320  0.2359 -0.8558
  418MOL0     H57672  10.301  -0.568   8.735 -1.4914  1.3269  0.5614
  418MOL0     H57673  10.268  -0.521   8.574 -1.9186  2.0369  2.1855
  418MOL0     H57674  10.499  -0.713   8.645 -0.3771 -1.8950  0.0417
  418MOL0     H57675  10.455  -0.662   8.489 -1.5474 -3.2238  0.3551
  418MOL0     H57676  10.268  -0.796   8.464  1.8828  4.6407 -2.1034
  418MOL0     H57677  10.377  -0.892   8.561  0.6789  0.6773 -3.3390
  418MOL0     H57678  10.169  -0.905   8.678  0.4679 -0.0514 -0.7918
  418MOL0     H57679  10.148  -0.729   8.692 -0.8953  0.0136 -2.0503
  418MOL0     H57680  10.399  -0.840   9.030 -3.8025 -3.1350  2.1413
  418MOL0     H57681  10.194  -0.321   8.585  0.8755 -1.7574  1.2804
  418MOL0     H57682  10.041  -0.098   8.734  1.5253 -0.8524 -0.0041
  418MOL0     H57683  10.100  -0.000   8.589 -0.9665 -0.0200  0.0327
  418MOL0     H57684  10.046  -0.159   8.562  0.0884 -2.7734  1.7208
  419MOL0     O57685   0.627   2.046   2.055  0.4825  0.1844 -0.5135
  419MOL0     C57686   0.720   2.052   2.143  0.2161  0.2942 -0.3216
  419MOL0     O57687   0.730   2.142   2.248 -0.6610  0.9551 -0.1823
  419MOL0     C57688   0.628   2.225   2.285  0.3130 -0.0704 -0.1957
  419MOL0     C57689   0.500   2.230   2.238 -0.3295 -0.0569 -0.2756
  419MOL0     C57690   0.420   2.334   2.285 -0.7338  0.3475  0.1329
  419MOL0     C57691   0.462   2.422   2.384  0.4805  0.0392 -0.3660
  419MOL0     O57692   0.382   2.520   2.412 -0.6098  0.3626  0.2561
  419MOL0     C57693   0.432   2.653   2.387  0.2012 -0.2450  1.1080
  419MOL0     C57694   0.357   2.758   2.460 -0.0120  0.2003 -0.2785
  419MOL0     C57695   0.441   2.880   2.499 -0.0854 -0.2917 -0.5617
  419MOL0     C57696   0.360   2.993   2.568  0.1976 -0.3878  0.3946
  419MOL0     C57697   0.441   3.119   2.582  0.1450  0.6670 -0.4759
  419MOL0     C57698   0.552   3.115   2.689  0.1602 -0.6069  0.5440
  419MOL0     C57699   0.521   3.037   2.824  0.1444  0.3148 -0.0775
  419MOL0     C57700   0.424   3.123   2.905 -0.2023 -0.8867  0.1423
  419MOL0     N57701   0.421   3.105   3.056 -0.0323 -0.2572  0.6873
  419MOL0     C57702   0.517   3.149   3.150  0.2995  0.2323 -0.3534
  419MOL0     C57703   0.465   3.110   3.267  0.0812 -0.2215 -0.7557
  419MOL0     C57704   0.518   3.142   3.403  0.0030  0.6565  0.2805
  419MOL0     C57705   0.461   3.271   3.454  0.9952 -0.1871  0.5023
  419MOL0     C57706   0.315   3.260   3.485  1.0315 -0.4267 -0.8169
  419MOL0     C57707   0.251   3.398   3.482 -0.0370 -0.9034 -0.5472
  419MOL0     O57708   0.107   3.412   3.520 -0.0256 -0.0397  0.4882
  419MOL0     C57709   0.080   3.391   3.647  0.2808  0.9683 -1.4077
  419MOL0     C57710  -0.057   3.375   3.669 -0.7134  0.5251 -0.0695
  419MOL0     C57711  -0.102   3.366   3.799 -0.7158  0.3933  0.4371
  419MOL0     C57712  -0.249   3.351   3.810  1.1430 -0.2773 -0.0984
  419MOL0     C57713  -0.009   3.365   3.910  1.3336  0.2782 -0.5012
  419MOL0     C57714  -0.048   3.349   4.052  0.6654  0.6657  0.6006
  419MOL0     O57715   0.056   3.297   4.130  0.3385  0.7740  0.1660
  419MOL0     C57716   0.028   3.294   4.265 -0.3377 -0.5571  0.0032
  419MOL0     C57717   0.119   3.365   4.347  0.0054  0.2508 -0.1185
  419MOL0     C57718   0.120   3.364   4.485 -0.0023 -0.1252 -0.0786
  419MOL0     C57719   0.014   3.297   4.544  1.3258 -0.1381  0.1624
  419MOL0     O57720   0.006   3.290   4.681  1.0494  0.0879 -0.4765
  419MOL0     C57721  -0.107   3.339   4.750  0.3901 -0.3284 -0.6661
  419MOL0     C57722  -0.082   3.467   4.828 -0.0065 -0.0444  0.0878
  419MOL0     C57723  -0.048   3.588   4.726  0.0639  0.3438 -0.5689
  419MOL0     C57724  -0.008   3.703   4.816  0.5354 -0.5792 -0.2638
  419MOL0     C57725   0.001   3.831   4.734  0.2185 -0.2776 -0.6324
  419MOL0     C57726   0.063   3.946   4.815 -0.3879 -0.8049  0.5605
  419MOL0     C57727   0.084   4.071   4.733  0.1341 -0.5012  0.0295
  419MOL0     C57728   0.214   4.082   4.649  0.5445  0.2844 -0.7540
  419MOL0    Cl57729   0.183   4.192   4.504 -0.2480  0.1248  0.7167
  419MOL0     C57730  -0.073   3.222   4.463  0.0707  0.4949  0.0636
  419MOL0     C57731  -0.070   3.218   4.328 -0.2649  0.5001  0.0933
  419MOL0     O57732  -0.165   3.371   4.090 -0.1012 -1.2546 -0.1861
  419MOL0     C57733   0.127   3.394   3.890 -0.1527 -1.0235  0.0890
  419MOL0     C57734   0.166   3.407   3.763  0.0901 -0.1086 -0.5566
  419MOL0     N57735   0.348   3.032   3.253 -0.6248  0.0297 -0.5161
  419MOL0     N57736   0.322   3.034   3.123  0.0750  0.5849 -0.2985
  419MOL0     C57737   0.595   2.422   2.434  0.2583  0.5323  0.0901
  419MOL0     C57738   0.678   2.323   2.381  0.0386  0.8447 -1.1522
  419MOL0     C57739   0.840   1.967   2.129  0.0644  1.2866 -0.4945
  419MOL0     C57740   0.883   1.889   2.230 -0.1885  0.0465  0.0722
  419MOL0     C57741   1.010   1.843   2.229 -0.9382 -0.6838  0.1249
  419MOL0     C57742   1.105   1.863   2.126  0.1579 -1.0521  0.0612
  419MOL0     O57743   1.227   1.788   2.133 -0.4712 -0.1088  0.0417
  419MOL0     C57744   1.274   1.731   2.004 -0.0350 -1.1058 -0.9943
  419MOL0     C57745   1.207   1.607   1.953 -0.1093  0.0757  0.3313
  419MOL0     C57746   1.062   1.640   1.907 -0.3093 -0.6039  0.1173
  419MOL0     C57747   0.986   1.522   1.865  0.1114 -0.4040 -0.1386
  419MOL0     C57748   0.849   1.567   1.827 -0.4849  0.1101 -0.7686
  419MOL0     C57749   0.744   1.613   1.798  0.0406  1.0628 -0.8485
  419MOL0     C57750   1.066   1.942   2.024  0.1432 -0.1518  0.1952
  419MOL0     C57751   0.930   1.989   2.017 -0.2782 -0.8327 -0.4919
  419MOL0     C57752   0.886   2.064   1.885 -0.2275 -0.2850  0.3619
  419MOL0     H57753   0.461   2.153   2.172  0.3975  0.0345 -0.8201
  419MOL0     H57754   0.316   2.342   2.254 -1.5194  0.5224  2.6287
  419MOL0     H57755   0.438   2.671   2.279  1.0434 -1.8368  0.8672
  419MOL0     H57756   0.537   2.659   2.418  0.5034  0.7124 -0.0142
  419MOL0     H57757   0.267   2.784   2.404 -2.2072  0.6809  3.1822
  419MOL0     H57758   0.325   2.725   2.559  0.1688  2.2536  0.5084
  419MOL0     H57759   0.506   2.836   2.576 -0.2815 -0.2742 -0.3856
  419MOL0     H57760   0.493   2.914   2.409 -0.5525 -4.0884 -2.4752
  419MOL0     H57761   0.278   3.012   2.499 -0.5916 -0.0602  1.4051
  419MOL0     H57762   0.319   2.963   2.665  1.9533  1.6880  1.9054
  419MOL0     H57763   0.374   3.199   2.615 -2.6393 -1.5500 -0.3722
  419MOL0     H57764   0.470   3.156   2.483  1.1008  1.8303  0.2127
  419MOL0     H57765   0.635   3.074   2.630 -0.1195 -0.5358  0.1039
  419MOL0     H57766   0.586   3.217   2.706  2.8565 -1.4597  0.7234
  419MOL0     H57767   0.624   3.029   2.860  0.1533  0.2021 -0.1266
  419MOL0     H57768   0.477   2.938   2.808 -0.4627  0.4734  0.5587
  419MOL0     H57769   0.459   3.225   2.885  0.6421 -1.4734 -1.5930
  419MOL0     H57770   0.321   3.111   2.871  0.0175  0.4674 -1.0788
  419MOL0     H57771   0.593   3.222   3.124  0.9718 -0.8125 -1.4141
  419MOL0     H57772   0.626   3.150   3.391  0.2703  1.0075  2.5422
  419MOL0     H57773   0.488   3.068   3.477  3.1537  1.1597  2.2339
  419MOL0     H57774   0.520   3.299   3.541  0.3992  2.3065  0.1888
  419MOL0     H57775   0.465   3.344   3.373 -2.4313 -2.1873 -1.7797
  419MOL0     H57776   0.263   3.195   3.414 -1.0151  1.1027 -0.8174
  419MOL0     H57777   0.313   3.228   3.590  0.1909 -1.9699 -1.2809
  419MOL0     H57778   0.312   3.462   3.547  1.2154 -1.1029 -1.4774
  419MOL0     H57779   0.266   3.439   3.381 -1.9098 -1.2023 -0.9858
  419MOL0     H57780  -0.120   3.368   3.581  2.0757  1.8943 -2.3427
  419MOL0     H57781  -0.291   3.326   3.712 -1.6498 -0.8857  1.1542
  419MOL0     H57782  -0.291   3.447   3.839  0.2678 -1.4211  2.8218
  419MOL0     H57783  -0.278   3.283   3.891 -0.4800  0.2163 -0.2296
  419MOL0     H57784   0.193   3.419   4.290  2.9646 -0.4671  2.7374
  419MOL0     H57785   0.199   3.417   4.538 -1.1594  2.0597 -0.4092
  419MOL0     H57786  -0.188   3.346   4.677 -0.0419 -0.4717 -0.2017
  419MOL0     H57787  -0.156   3.274   4.822 -2.3495  0.8876 -1.3079
  419MOL0     H57788  -0.168   3.495   4.889 -0.2255  2.0260 -1.0795
  419MOL0     H57789  -0.005   3.443   4.902 -2.3237 -0.8272  2.3499
  419MOL0     H57790  -0.139   3.612   4.671  0.2474  0.1974 -0.9367
  419MOL0     H57791   0.031   3.559   4.656  0.3389 -0.2218 -0.0381
  419MOL0     H57792   0.088   3.674   4.859  2.0331 -1.1924 -3.7039
  419MOL0     H57793  -0.088   3.715   4.890  2.3788 -2.0988  2.1153
  419MOL0     H57794   0.066   3.812   4.647 -0.1502 -0.2018 -0.9257
  419MOL0     H57795  -0.099   3.842   4.690 -0.4876 -6.0329 -1.2940
  419MOL0     H57796   0.158   3.911   4.858 -0.8499 -0.5362  1.8520
  419MOL0     H57797  -0.002   3.975   4.898 -0.8075 -1.9963  0.6622
  419MOL0     H57798   0.090   4.158   4.799 -1.4613  1.3746 -2.1206
  419MOL0     H57799  -0.000   4.086   4.664  0.0659  0.7912  0.3821
  419MOL0     H57800   0.231   3.980   4.611 -1.2775 -0.4258  0.1734
  419MOL0     H57801   0.298   4.108   4.713  1.9786 -0.4847 -2.2271
  419MOL0     H57802  -0.149   3.168   4.518 -0.9453 -0.7592 -2.4066
  419MOL0     H57803  -0.131   3.152   4.266  0.0399  0.8793 -0.6249
  419MOL0     H57804   0.184   3.419   3.980 -1.9327  4.3885  0.1063
  419MOL0     H57805   0.274   3.411   3.748  0.1029 -1.0682 -0.8304
  419MOL0     H57806   0.635   2.482   2.515  2.7339 -2.0303  0.9005
  419MOL0     H57807   0.773   2.327   2.434  0.8942  4.0127 -2.6322
  419MOL0     H57808   0.821   1.881   2.318 -0.0570 -0.1497  0.1457
  419MOL0     H57809   1.043   1.797   2.322 -1.2581  2.9325  2.2308
  419MOL0     H57810   1.274   1.811   1.930 -0.2127 -0.3232 -0.1682
  419MOL0     H57811   1.382   1.714   2.012  0.6919  2.7959 -0.4402
  419MOL0     H57812   1.202   1.536   2.036  2.8225  0.1956  0.6866
  419MOL0     H57813   1.275   1.569   1.876  0.3855 -2.2904  1.8509
  419MOL0     H57814   1.001   1.692   1.982 -1.8834 -3.7820  1.2169
  419MOL0     H57815   1.081   1.706   1.821  4.0790  1.2153  2.1672
  419MOL0     H57816   0.972   1.447   1.944  0.7767 -2.9642 -2.2722
  419MOL0     H57817   1.035   1.479   1.777 -1.1147  1.0399 -1.5878
  419MOL0     H57818   0.644   1.649   1.786 -0.3813 -0.2238 -1.3762
  419MOL0     H57819   1.130   1.972   1.941 -3.3711  0.6694 -2.4463
  419MOL0     H57820   0.791   2.040   1.836 -1.0953  1.6880  0.9734
  419MOL0     H57821   0.879   2.169   1.914  3.9697  0.6069 -1.2424
  419MOL0     H57822   0.972   2.068   1.818 -0.1004  0.0155  0.5423
  420MOL0     O57823   6.051   2.895   3.723 -0.4755 -0.1090 -0.4854
  420MOL0     C57824   6.062   3.004   3.771 -0.1206  0.7232  0.1280
  420MOL0     O57825   6.171   3.083   3.759  0.4666 -0.5586  0.6143
  420MOL0     C57826   6.289   3.047   3.700  0.1979  0.5763  0.8470
  420MOL0     C57827   6.305   2.956   3.590 -0.6772 -1.0268 -0.4765
  420MOL0     C57828   6.433   2.933   3.539  0.8253  0.4258  0.5638
  420MOL0     C57829   6.535   3.018   3.584 -0.7286  0.2684 -0.1786
  420MOL0     O57830   6.663   3.007   3.529 -0.4919  0.6219  0.0380
  420MOL0     C57831   6.699   2.878   3.478 -0.3288 -0.1160 -0.0607
  420MOL0     C57832   6.686   2.869   3.317 -0.2624  0.0038 -0.3516
  420MOL0     C57833   6.773   2.991   3.262 -0.0021 -0.4758  0.7393
  420MOL0     C57834   6.800   2.974   3.105  0.7118  0.4245 -0.2424
  420MOL0     C57835   6.887   3.082   3.040  0.0628 -1.2657  0.8540
  420MOL0     C57836   7.030   3.078   3.090  0.8126 -0.3894 -0.9238
  420MOL0     C57837   7.111   3.201   3.041  0.1680  0.0594  0.4190
  420MOL0     C57838   7.162   3.196   2.897  0.3986 -0.5506  0.7335
  420MOL0     N57839   7.258   3.307   2.879 -0.4708 -0.1847 -0.7088
  420MOL0     C57840   7.212   3.439   2.842  0.7879  0.1262 -0.6942
  420MOL0     C57841   7.322   3.491   2.784  0.0980  1.0099  0.1936
  420MOL0     C57842   7.328   3.609   2.697 -0.0249 -0.3712  0.1750
  420MOL0     C57843   7.461   3.692   2.723 -0.1339 -0.1459  0.4490
  420MOL0     C57844   7.472   3.817   2.641  0.9437 -0.5951  0.3046
  420MOL0     C57845   7.403   3.935   2.716  0.5929  0.2816  0.5358
  420MOL0     O57846   7.265   3.959   2.679  0.6874  0.1271 -0.3442
  420MOL0     C57847   7.237   4.065   2.598 -0.0457 -0.6046 -0.8716
  420MOL0     C57848   7.328   4.103   2.492  0.2711  0.0927  0.3891
  420MOL0     C57849   7.289   4.212   2.410  0.2675 -0.9620  0.6773
  420MOL0     C57850   7.401   4.267   2.335  0.5335 -1.1114  0.2027
  420MOL0     C57851   7.159   4.267   2.414 -0.1887  0.0857 -0.8359
  420MOL0     C57852   7.111   4.381   2.330 -0.5649 -0.4212 -0.1403
  420MOL0     O57853   7.202   4.447   2.255  0.0614 -0.1410  0.2910
  420MOL0     C57854   7.166   4.528   2.151 -0.2433 -0.0631  0.0388
  420MOL0     C57855   7.066   4.500   2.060 -0.3144  1.4502  1.5628
  420MOL0     C57856   7.041   4.574   1.953  0.3312 -0.5135  0.6178
  420MOL0     C57857   7.092   4.706   1.940  0.4572  0.1142 -0.1777
  420MOL0     O57858   7.045   4.796   1.842  0.6243 -0.5821  0.6204
  420MOL0     C57859   7.102   4.925   1.835 -0.4616 -0.3107 -0.5778
  420MOL0     C57860   7.043   5.003   1.716 -0.4859  0.1263 -0.0884
  420MOL0     C57861   7.086   4.947   1.581 -0.0876 -0.6565  0.1603
  420MOL0     C57862   7.043   5.045   1.467 -0.0581 -0.5259 -0.0694
  420MOL0     C57863   6.917   5.000   1.388 -0.2505  0.7782 -0.3826
  420MOL0     C57864   6.913   5.019   1.239 -0.0563 -0.0508 -0.2716
  420MOL0     C57865   6.894   5.172   1.216 -0.4020  0.1579  0.5152
  420MOL0     C57866   6.748   5.215   1.220  0.4149  0.2022 -0.1682
  420MOL0    Cl57867   6.731   5.371   1.120  0.0891 -0.1170 -0.5606
  420MOL0     C57868   7.192   4.741   2.034 -0.3787 -0.7264 -0.4824
  420MOL0     C57869   7.230   4.655   2.146 -0.2233 -0.0773 -0.6937
  420MOL0     O57870   6.994   4.421   2.342  0.0540 -0.5041 -0.4433
  420MOL0     C57871   7.070   4.225   2.516  1.5250  0.5494 -0.8003
  420MOL0     C57872   7.108   4.123   2.604  0.1888 -0.5511 -0.6323
  420MOL0     N57873   7.426   3.400   2.794  0.7507 -0.3513 -1.1116
  420MOL0     N57874   7.393   3.292   2.867  0.1527  0.0976  0.1629
  420MOL0     C57875   6.516   3.112   3.679 -0.8068 -0.8203 -0.2634
  420MOL0     C57876   6.393   3.115   3.746  0.1967  0.2816  0.4986
  420MOL0     C57877   5.947   3.068   3.832 -0.0263 -0.6558 -0.4867
  420MOL0     C57878   5.952   3.204   3.854 -0.2885 -0.3280 -0.4967
  420MOL0     C57879   5.835   3.265   3.900 -1.0579 -0.1763  0.5382
  420MOL0     C57880   5.715   3.199   3.931 -1.0503 -0.5623  0.6764
  420MOL0     O57881   5.605   3.264   3.975 -0.4970  0.4710  0.2505
  420MOL0     C57882   5.599   3.399   3.928  0.0370 -1.5326 -0.3468
  420MOL0     C57883   5.462   3.460   3.973 -1.3980 -0.5062  0.8688
  420MOL0     C57884   5.369   3.488   3.863  0.4232 -0.3731  1.5186
  420MOL0     C57885   5.317   3.361   3.784  0.0356 -0.3352  0.4337
  420MOL0     C57886   5.184   3.381   3.725 -0.5994 -1.4502 -0.1434
  420MOL0     C57887   5.093   3.393   3.652  0.4067 -0.7260  0.2418
  420MOL0     C57888   5.719   3.058   3.919  0.2479  0.6125  0.0606
  420MOL0     C57889   5.834   2.987   3.869 -0.1009 -0.2744  0.4554
  420MOL0     C57890   5.815   2.833   3.858 -0.7509 -0.2973 -0.3296
  420MOL0     H57891   6.225   2.910   3.532 -0.8913 -0.7552 -0.3948
  420MOL0     H57892   6.448   2.866   3.455 -1.8951 -0.8533  1.0058
  420MOL0     H57893   6.648   2.798   3.533  0.4612  0.4264  1.5166
  420MOL0     H57894   6.805   2.871   3.501  0.7826  2.4017 -3.6081
  420MOL0     H57895   6.731   2.772   3.292 -0.6811 -0.1002 -0.7275
  420MOL0     H57896   6.583   2.887   3.285 -1.1349  1.1968  2.7302
  420MOL0     H57897   6.711   3.080   3.278 -0.2673 -0.3586 -0.7835
  420MOL0     H57898   6.866   3.009   3.317  0.6217  1.8570 -0.9079
  420MOL0     H57899   6.849   2.879   3.084 -0.4802 -0.4747  0.8501
  420MOL0     H57900   6.704   2.969   3.052  0.4499  1.2369  0.1425
  420MOL0     H57901   6.857   3.185   3.060  0.1051 -1.0935  0.0886
  420MOL0     H57902   6.876   3.058   2.933  1.6971 -0.3483  0.4474
  420MOL0     H57903   7.027   3.084   3.199 -1.7410  0.6085 -0.9917
  420MOL0     H57904   7.083   2.987   3.060  0.8467 -1.8093  2.8893
  420MOL0     H57905   7.196   3.210   3.109 -1.4624 -0.3399  2.6234
  420MOL0     H57906   7.051   3.292   3.052 -0.1608 -0.3310  2.1266
  420MOL0     H57907   7.200   3.096   2.873  0.1828 -0.3521 -0.4560
  420MOL0     H57908   7.080   3.202   2.825  4.0070  0.9035 -3.7070
  420MOL0     H57909   7.115   3.487   2.837 -0.5310 -2.0398  1.6825
  420MOL0     H57910   7.247   3.676   2.725  0.1507 -0.4934  0.9915
  420MOL0     H57911   7.321   3.570   2.594 -2.9719  1.7891 -0.5483
  420MOL0     H57912   7.480   3.713   2.828 -1.0053 -4.0438  1.5665
  420MOL0     H57913   7.545   3.626   2.700  1.4488  0.2122  4.4691
  420MOL0     H57914   7.580   3.829   2.629  0.3425  4.3882 -2.9438
  420MOL0     H57915   7.429   3.807   2.541 -0.0058  3.7452  0.0692
  420MOL0     H57916   7.409   3.921   2.825 -2.4227  1.9552  1.0255
  420MOL0     H57917   7.456   4.029   2.695  0.5075 -0.0022 -1.0543
  420MOL0     H57918   7.419   4.045   2.479  0.1293 -0.0484  0.0111
  420MOL0     H57919   7.369   4.279   2.232  2.7543 -0.0923 -0.4294
  420MOL0     H57920   7.494   4.213   2.354  1.3882  0.7044  1.4988
  420MOL0     H57921   7.421   4.364   2.383 -0.0231 -1.5503  1.3761
  420MOL0     H57922   7.010   4.407   2.060 -1.1819  1.7558 -2.4826
  420MOL0     H57923   6.975   4.548   1.872 -0.0539  4.2082 -0.8922
  420MOL0     H57924   7.081   4.984   1.925 -1.3204 -2.1177  0.4719
  420MOL0     H57925   7.209   4.924   1.811 -0.7105 -1.8980 -1.7804
  420MOL0     H57926   6.934   4.994   1.724 -0.8145  1.9123 -1.8879
  420MOL0     H57927   7.073   5.105   1.741 -0.6884 -1.0101  7.2567
  420MOL0     H57928   7.028   4.854   1.576 -1.1861 -0.4579  4.6519
  420MOL0     H57929   7.195   4.944   1.570 -0.0420  2.5928 -1.8228
  420MOL0     H57930   7.132   5.058   1.404  0.2599 -2.8589 -0.1747
  420MOL0     H57931   7.004   5.139   1.508  1.4605 -0.6157  1.7066
  420MOL0     H57932   6.920   4.891   1.397  1.9231  0.8070 -0.3886
  420MOL0     H57933   6.839   5.044   1.452  0.4452 -0.6908  1.5608
  420MOL0     H57934   6.839   4.954   1.190  2.0334 -2.3458 -0.5949
  420MOL0     H57935   7.010   4.989   1.199 -0.0290  0.8983 -0.9589
  420MOL0     H57936   6.919   5.195   1.112  2.1765 -0.2284  0.9965
  420MOL0     H57937   6.961   5.233   1.277  2.7383 -3.3599  0.9643
  420MOL0     H57938   6.718   5.232   1.324 -3.8396 -1.6365 -0.9162
  420MOL0     H57939   6.688   5.134   1.177  0.7393 -0.7838  1.1555
  420MOL0     H57940   7.246   4.835   2.037 -0.4606 -0.6401 -1.4264
  420MOL0     H57941   7.298   4.703   2.216 -0.6569 -1.1125  0.4671
  420MOL0     H57942   6.971   4.268   2.516  1.4329  0.4104  0.8388
  420MOL0     H57943   7.039   4.084   2.678 -1.5049 -1.6111 -2.6667
  420MOL0     H57944   6.582   3.196   3.695 -1.6543  0.0845 -1.3090
  420MOL0     H57945   6.381   3.190   3.824  3.1682  0.8450  0.5313
  420MOL0     H57946   6.036   3.270   3.833  0.2127 -0.8485 -0.1607
  420MOL0     H57947   5.849   3.370   3.924  2.7130 -0.3092 -0.5107
  420MOL0     H57948   5.681   3.466   3.956  0.2111 -1.6249 -0.6324
  420MOL0     H57949   5.608   3.403   3.819 -1.9385  0.5450 -0.5075
  420MOL0     H57950   5.488   3.547   4.034 -0.0454 -0.7248  0.6289
  420MOL0     H57951   5.415   3.396   4.048  0.6769 -4.2943 -0.7485
  420MOL0     H57952   5.277   3.529   3.906  0.0960 -0.3596  0.8107
  420MOL0     H57953   5.415   3.560   3.796 -0.2746 -0.3761  1.0275
  420MOL0     H57954   5.312   3.279   3.856 -2.0413  0.1966  0.9501
  420MOL0     H57955   5.391   3.348   3.704  0.1216  2.2868 -0.0183
  420MOL0     H57956   5.019   3.406   3.576 -1.5006  1.5766  2.3411
  420MOL0     H57957   5.631   2.997   3.937  1.2826 -1.3205 -1.0965
  420MOL0     H57958   5.895   2.783   3.913  0.1111 -0.5517 -1.7628
  420MOL0     H57959   5.721   2.807   3.908  1.1180  0.1739  3.7799
  420MOL0     H57960   5.815   2.808   3.751  3.4821 -0.1991 -0.5187
  421MOL0     O57961   3.484   5.702   6.872 -0.1228  1.1897  0.7533
  421MOL0     C57962   3.412   5.597   6.867 -0.3372 -1.5608  1.1071
  421MOL0     O57963   3.297   5.581   6.779 -0.8220 -0.4192  0.4595
  421MOL0     C57964   3.269   5.689   6.710 -0.3942  0.4985 -0.0042
  421MOL0     C57965   3.324   5.709   6.587 -0.2753 -0.6132 -0.4022
  421MOL0     C57966   3.290   5.821   6.515  0.3720 -0.5952  0.8682
  421MOL0     C57967   3.203   5.918   6.574  0.0633 -0.2640  0.6966
  421MOL0     O57968   3.158   6.015   6.492  0.0138  0.5008  0.0674
  421MOL0     C57969   3.054   5.988   6.395 -0.4889 -0.2781 -0.3051
  421MOL0     C57970   2.932   5.925   6.459  0.3032  0.6861  0.3524
  421MOL0     C57971   2.811   5.955   6.369  0.6616  0.0407  0.0774
  421MOL0     C57972   2.684   5.888   6.430 -0.1414 -0.5941  0.0738
  421MOL0     C57973   2.554   5.913   6.344  0.7902 -0.4897  0.3372
  421MOL0     C57974   2.455   5.808   6.374 -0.2742  0.8844 -0.1864
  421MOL0     C57975   2.411   5.784   6.519  0.2676 -0.1863 -0.6574
  421MOL0     C57976   2.365   5.910   6.584  0.5659  0.1820 -0.1608
  421MOL0     N57977   2.260   5.994   6.524 -0.9232 -0.0176  0.0391
  421MOL0     C57978   2.153   6.039   6.592  0.6376  0.0183  0.1822
  421MOL0     C57979   2.073   6.106   6.504  0.5559  0.2333 -0.4641
  421MOL0     C57980   1.936   6.168   6.521  0.1327 -0.0439 -0.2143
  421MOL0     C57981   1.894   6.209   6.667  0.1335  0.2936  1.0016
  421MOL0     C57982   1.793   6.321   6.657 -0.2586 -0.2401 -0.0374
  421MOL0     C57983   1.772   6.378   6.798  0.7699  0.2678  0.0682
  421MOL0     O57984   1.645   6.434   6.802  0.7060  0.0683  0.2406
  421MOL0     C57985   1.626   6.570   6.823  0.1029 -0.6045 -0.0637
  421MOL0     C57986   1.515   6.606   6.904 -0.0076 -0.3060 -0.9722
  421MOL0     C57987   1.492   6.739   6.935  0.7853  0.1548 -0.1439
  421MOL0     C57988   1.382   6.767   7.033  0.3524  1.2195  0.5162
  421MOL0     C57989   1.576   6.835   6.881 -0.6624  0.1567 -0.3648
  421MOL0     C57990   1.575   6.967   6.930 -0.4719  0.8480 -0.1182
  421MOL0     O57991   1.697   7.013   6.965 -0.2306  0.8497 -0.0564
  421MOL0     C57992   1.706   7.139   6.998 -0.0846 -0.3106 -0.8675
  421MOL0     C57993   1.704   7.191   7.134  0.2666 -0.2048  0.1919
  421MOL0     C57994   1.730   7.323   7.158  0.9163 -0.1465  0.2646
  421MOL0     C57995   1.766   7.405   7.053 -0.4933  0.5689  0.6490
  421MOL0     O57996   1.811   7.536   7.064  0.3087 -0.1157 -0.0386
  421MOL0     C57997   1.778   7.607   7.178 -0.4702 -0.6314 -0.6120
  421MOL0     C57998   1.826   7.754   7.166  0.0061  0.1930  0.0132
  421MOL0     C57999   1.724   7.832   7.088 -0.5139  0.2162 -0.6921
  421MOL0     C58000   1.784   7.979   7.083  0.3322 -0.4483  0.5528
  421MOL0     C58001   1.660   8.070   7.050 -0.4823 -0.6563  0.2944
  421MOL0     C58002   1.708   8.198   6.976  0.4977  0.6002  0.2062
  421MOL0     C58003   1.579   8.254   6.900 -0.1505 -0.0425 -0.2217
  421MOL0     C58004   1.630   8.350   6.793 -0.3142 -0.0600  0.2467
  421MOL0    Cl58005   1.494   8.443   6.718  0.5221  0.6758 -0.1834
  421MOL0     C58006   1.772   7.356   6.920 -0.6676  0.3378 -1.2177
  421MOL0     C58007   1.737   7.221   6.893  0.2860  0.3245  0.5306
  421MOL0     O58008   1.473   7.030   6.933 -1.2395 -0.0012  0.5311
  421MOL0     C58009   1.678   6.798   6.796  0.1918  0.5054 -0.3873
  421MOL0     C58010   1.706   6.664   6.768 -0.3990 -0.1959 -0.2727
  421MOL0     N58011   2.159   6.125   6.394 -0.7307 -0.5200  0.2111
  421MOL0     N58012   2.272   6.060   6.411  0.4084  0.1232 -0.6187
  421MOL0     C58013   3.158   5.892   6.701  0.0837  0.3298  0.0808
  421MOL0     C58014   3.191   5.784   6.770 -0.3717  0.4944 -0.6134
  421MOL0     C58015   3.448   5.474   6.950 -0.1688  1.5822  0.2807
  421MOL0     C58016   3.449   5.345   6.886  0.5633 -0.2563 -0.9527
  421MOL0     C58017   3.488   5.229   6.948 -0.1893  1.0624  0.7736
  421MOL0     C58018   3.511   5.229   7.075 -0.1811 -0.5582  0.5518
  421MOL0     O58019   3.533   5.111   7.137 -0.3476  0.4763  0.2319
  421MOL0     C58020   3.562   5.103   7.282 -0.1515  0.1833 -0.0002
  421MOL0     C58021   3.711   5.134   7.319  0.9134 -0.6375  0.0202
  421MOL0     C58022   3.807   5.018   7.277  0.1340  0.4273 -0.6934
  421MOL0     C58023   3.794   4.876   7.336 -0.3234 -0.6814 -0.0100
  421MOL0     C58024   3.741   4.778   7.247 -0.0104 -0.7186  0.2204
  421MOL0     C58025   3.680   4.696   7.184  0.3393  0.0611 -1.0736
  421MOL0     C58026   3.525   5.355   7.139 -0.2337  1.0151 -0.3576
  421MOL0     C58027   3.497   5.472   7.076 -0.1087  0.0346  0.3082
  421MOL0     C58028   3.518   5.605   7.154  0.2355  0.1336 -0.9011
  421MOL0     H58029   3.382   5.623   6.554  2.5974  1.0499  0.0124
  421MOL0     H58030   3.332   5.846   6.419  2.9936  3.1377  2.7317
  421MOL0     H58031   3.094   5.910   6.330  1.9070 -0.2623  1.0658
  421MOL0     H58032   3.037   6.077   6.333 -0.0234  0.4884  0.6486
  421MOL0     H58033   2.947   5.818   6.474  2.2433  0.6358 -1.5062
  421MOL0     H58034   2.915   5.979   6.553 -0.7678  2.7736 -0.9651
  421MOL0     H58035   2.785   6.060   6.356 -0.4319 -0.1553  0.6152
  421MOL0     H58036   2.828   5.909   6.271  1.5513  1.4262 -0.4496
  421MOL0     H58037   2.704   5.781   6.438  0.0214 -0.6633 -1.1082
  421MOL0     H58038   2.673   5.939   6.526 -4.7452  1.4150 -1.2663
  421MOL0     H58039   2.590   5.904   6.241  4.8406 -0.2500  1.5600
  421MOL0     H58040   2.521   6.015   6.367  5.5278  1.3099  0.2870
  421MOL0     H58041   2.367   5.819   6.310 -2.1568 -1.0544  1.8873
  421MOL0     H58042   2.502   5.713   6.350  3.2715  2.7643 -1.4015
  421MOL0     H58043   2.498   5.744   6.573 -0.3538  0.3797  0.8057
  421MOL0     H58044   2.338   5.703   6.510  1.0621 -1.0976  0.6696
  421MOL0     H58045   2.322   5.883   6.681 -0.9478  0.9393 -0.5825
  421MOL0     H58046   2.450   5.971   6.617  1.0519 -1.9459  3.0711
  421MOL0     H58047   2.127   6.019   6.695  2.2940  4.4392  1.7065
  421MOL0     H58048   1.863   6.100   6.475 -1.2432  1.0345  0.3135
  421MOL0     H58049   1.937   6.259   6.461 -0.5132  1.0247  1.3183
  421MOL0     H58050   1.831   6.134   6.715 -0.6538  1.6293  2.1650
  421MOL0     H58051   1.974   6.236   6.738 -2.4763  2.9530  3.2158
  421MOL0     H58052   1.824   6.405   6.594 -0.2999 -0.5568 -0.4754
  421MOL0     H58053   1.699   6.282   6.617 -1.2304  1.0466  0.8940
  421MOL0     H58054   1.769   6.288   6.860  3.9842 -0.3494 -0.5329
  421MOL0     H58055   1.850   6.445   6.835  1.8965 -0.8222 -0.3149
  421MOL0     H58056   1.447   6.531   6.944  1.1921  0.4256  2.8445
  421MOL0     H58057   1.427   6.818   7.118  2.0365  1.1414 -0.2789
  421MOL0     H58058   1.336   6.677   7.074  1.5470  1.2431  1.9914
  421MOL0     H58059   1.300   6.826   6.990 -3.0080 -2.2236  1.5971
  421MOL0     H58060   1.683   7.116   7.210  3.2825 -3.2495 -1.6308
  421MOL0     H58061   1.717   7.367   7.256  0.8611 -0.6423  0.4820
  421MOL0     H58062   1.670   7.606   7.195 -0.4277 -0.3273 -0.3077
  421MOL0     H58063   1.836   7.564   7.260  0.4621  1.3995 -0.1386
  421MOL0     H58064   1.827   7.776   7.273 -2.3508  0.9123 -0.0413
  421MOL0     H58065   1.929   7.758   7.130  1.3429 -0.7766  3.3726
  421MOL0     H58066   1.640   7.827   7.157  1.3026  5.1078  2.4111
  421MOL0     H58067   1.699   7.787   6.992  0.0952 -2.2306  0.2108
  421MOL0     H58068   1.849   7.972   6.995 -0.1718  1.9892 -0.1043
  421MOL0     H58069   1.830   8.004   7.179  1.3480 -2.6579  0.6957
  421MOL0     H58070   1.596   8.017   6.980 -0.8027 -0.7713  0.6704
  421MOL0     H58071   1.614   8.093   7.147 -0.6173 -0.7544  0.2524
  421MOL0     H58072   1.789   8.185   6.904 -0.8586  3.8090 -2.1785
  421MOL0     H58073   1.743   8.275   7.045  0.4322  0.1776  0.7206
  421MOL0     H58074   1.511   8.304   6.969  0.4951  0.6250 -0.0607
  421MOL0     H58075   1.538   8.177   6.835 -0.2626  0.3098 -0.5688
  421MOL0     H58076   1.683   8.291   6.718 -2.7506 -1.0351 -0.8326
  421MOL0     H58077   1.701   8.424   6.831  0.8323  0.5253 -2.7593
  421MOL0     H58078   1.827   7.416   6.848  0.9374 -1.9494 -1.9966
  421MOL0     H58079   1.732   7.186   6.790 -3.0825  0.5498  0.5085
  421MOL0     H58080   1.750   6.869   6.757  2.5193 -1.9900 -0.9911
  421MOL0     H58081   1.784   6.632   6.698 -0.8069 -0.6551 -0.5208
  421MOL0     H58082   3.100   5.975   6.742 -0.3796 -0.6686  1.5105
  421MOL0     H58083   3.142   5.766   6.865 -0.7743 -2.6311 -1.2814
  421MOL0     H58084   3.432   5.335   6.779  5.0892 -3.9035 -1.6747
  421MOL0     H58085   3.492   5.132   6.899 -3.2843  3.0468 -4.2290
  421MOL0     H58086   3.499   5.170   7.340  2.1664  2.7326 -0.2030
  421MOL0     H58087   3.541   5.001   7.314 -0.2342  0.9876  2.7140
  421MOL0     H58088   3.714   5.160   7.425 -2.4228  3.0155 -0.5215
  421MOL0     H58089   3.740   5.233   7.283 -0.4048 -0.6159 -1.0655
  421MOL0     H58090   3.802   5.031   7.168 -0.6560  5.1501 -0.2953
  421MOL0     H58091   3.904   5.053   7.312 -0.6273  0.1942  1.8545
  421MOL0     H58092   3.738   4.879   7.429  0.3815  1.0696  0.4033
  421MOL0     H58093   3.890   4.836   7.370 -0.9844 -1.9938  0.3530
  421MOL0     H58094   3.607   4.632   7.139 -2.6265 -0.2510  3.5554
  421MOL0     H58095   3.558   5.373   7.241  0.9635  1.6800 -0.8440
  421MOL0     H58096   3.431   5.672   7.147 -0.4914 -0.9187 -5.3501
  421MOL0     H58097   3.554   5.583   7.255  2.7886 -0.0562 -1.7748
  421MOL0     H58098   3.610   5.646   7.110  1.1613 -3.5217 -2.7332
  422MOL0     O58099  11.544  11.530   0.183  0.1191  0.0270 -0.6555
  422MOL0     C58100  11.570  11.413   0.145 -0.5096  0.8895  0.1013
  422MOL0     O58101  11.574  11.372   0.014 -0.1149  0.1759  0.6230
  422MOL0     C58102  11.533  11.464  -0.080 -0.4826  1.0158  0.2722
  422MOL0     C58103  11.410  11.446  -0.140  0.1091  0.0785  0.0303
  422MOL0     C58104  11.369  11.521  -0.240  0.3762  0.0993 -0.2556
  422MOL0     C58105  11.455  11.617  -0.291  0.5565 -0.6819 -0.5692
  422MOL0     O58106  11.425  11.705  -0.400 -0.4719 -0.1187 -0.4237
  422MOL0     C58107  11.319  11.689  -0.501  0.7223 -0.6678 -0.1325
  422MOL0     C58108  11.314  11.812  -0.585 -0.6136 -0.4215  0.4098
  422MOL0     C58109  11.450  11.837  -0.654  0.3343  0.1987  1.1110
  422MOL0     C58110  11.511  11.970  -0.603  0.4875 -0.4701  0.1642
  422MOL0     C58111  11.657  11.974  -0.650  0.1131 -0.1987 -0.1252
  422MOL0     C58112  11.735  11.865  -0.584  0.2200 -0.3274  0.8133
  422MOL0     C58113  11.883  11.883  -0.607  0.8594 -0.1545 -0.0103
  422MOL0     C58114  11.963  11.780  -0.516 -0.8271 -0.2537  0.2014
  422MOL0     N58115  11.935  11.776  -0.370 -1.0036  0.4389  0.2682
  422MOL0     C58116  11.930  11.890  -0.290 -0.3345 -0.0526  0.5089
  422MOL0     C58117  11.924  11.833  -0.166 -0.2420  0.6948  0.2996
  422MOL0     C58118  11.955  11.888  -0.035 -0.3905 -0.0827  0.0881
  422MOL0     C58119  11.842  11.845   0.061 -0.8005  0.9737  0.4587
  422MOL0     C58120  11.821  11.942   0.166 -0.5560  0.0163 -0.8886
  422MOL0     C58121  11.947  11.958   0.244  0.1496 -0.0301  0.1613
  422MOL0     O58122  11.985  11.831   0.289  0.9573 -0.1172  0.2284
  422MOL0     C58123  12.032  11.827   0.416  0.3667 -0.0554 -0.9548
  422MOL0     C58124  11.949  11.778   0.518 -0.0728 -0.7259  0.1717
  422MOL0     C58125  11.985  11.762   0.650 -0.9912 -1.4066 -0.0751
  422MOL0     C58126  11.882  11.703   0.734 -0.5116 -0.5134 -0.0476
  422MOL0     C58127  12.127  11.789   0.681 -0.1629  0.2034  0.1847
  422MOL0     C58128  12.190  11.766   0.809  0.4281  0.9572 -0.8227
  422MOL0     O58129  12.316  11.732   0.825 -0.6118 -1.1352 -0.6326
  422MOL0     C58130  12.378  11.770   0.946  0.2779 -0.1155  0.3934
  422MOL0     C58131  12.336  11.729   1.074  0.0968  0.8737 -0.6160
  422MOL0     C58132  12.415  11.775   1.182 -1.1583  0.1526 -0.3604
  422MOL0     C58133  12.539  11.848   1.170  0.4852  0.1179  0.9752
  422MOL0     O58134  12.629  11.864   1.272 -0.5658 -0.8627 -0.6266
  422MOL0     C58135  12.618  11.995   1.344  0.4347  0.0125 -0.1705
  422MOL0     C58136  12.734  12.080   1.283  0.6221  0.0453 -0.0251
  422MOL0     C58137  12.674  12.224   1.268 -0.4514 -0.3968 -0.4631
  422MOL0     C58138  12.768  12.338   1.242 -0.0474  0.4350  0.6208
  422MOL0     C58139  12.722  12.477   1.292 -0.3179  0.0110 -0.1086
  422MOL0     C58140  12.831  12.589   1.243 -0.5122 -0.9994 -0.0833
  422MOL0     C58141  12.769  12.720   1.219  1.2614 -0.1096 -0.6193
  422MOL0     C58142  12.739  12.756   1.074  0.3810  0.1117  0.6264
  422MOL0    Cl58143  12.617  12.632   1.002 -0.0947 -0.1284 -0.5305
  422MOL0     C58144  12.583  11.873   1.034 -0.3093 -0.3602 -0.3981
  422MOL0     C58145  12.503  11.834   0.925  0.1124  0.3628 -0.6034
  422MOL0     O58146  12.112  11.792   0.902  0.6781 -0.3533  0.6372
  422MOL0     C58147  12.217  11.834   0.581 -0.6887 -0.2872 -0.5634
  422MOL0     C58148  12.165  11.858   0.449  0.0397 -0.3412 -0.0070
  422MOL0     N58149  11.919  11.697  -0.171 -0.5440 -0.0441 -0.4536
  422MOL0     N58150  11.937  11.664  -0.297 -0.3788  0.4024  0.3883
  422MOL0     C58151  11.585  11.630  -0.254  0.0394  0.2864  0.1608
  422MOL0     C58152  11.626  11.555  -0.142  0.1231 -0.0007 -0.4079
  422MOL0     C58153  11.626  11.315   0.237  0.5930  0.2507  0.3663
  422MOL0     C58154  11.605  11.175   0.223 -0.4358  0.6500 -0.4765
  422MOL0     C58155  11.632  11.085   0.319 -1.0424 -0.6635  0.3590
  422MOL0     C58156  11.693  11.119   0.436 -0.0709  0.2321 -0.3451
  422MOL0     O58157  11.718  11.023   0.521  1.1438 -0.3224  0.0628
  422MOL0     C58158  11.739  11.053   0.657 -0.2878 -0.2800 -1.0263
  422MOL0     C58159  11.883  11.090   0.683  0.1248  0.7801 -0.2024
  422MOL0     C58160  11.974  10.968   0.692  0.2462  0.0852 -0.4802
  422MOL0     C58161  11.973  10.866   0.582  0.3546 -0.7035  0.6502
  422MOL0     C58162  12.095  10.789   0.600 -0.7878  1.0261  0.4496
  422MOL0     C58163  12.206  10.731   0.612  0.6114 -0.2000  0.0695
  422MOL0     C58164  11.722  11.260   0.449 -0.0940  0.7138  0.1327
  422MOL0     C58165  11.697  11.354   0.357 -0.1974 -0.3584  0.1681
  422MOL0     C58166  11.745  11.502   0.380  0.0858  0.4368  0.1649
  422MOL0     H58167  11.343  11.379  -0.087  1.8555 -0.0724  2.1539
  422MOL0     H58168  11.276  11.496  -0.291 -1.2556  0.0041  2.5145
  422MOL0     H58169  11.223  11.668  -0.453  1.0388 -3.2363 -0.4520
  422MOL0     H58170  11.343  11.601  -0.562 -1.4744 -2.1948  1.0858
  422MOL0     H58171  11.235  11.779  -0.653  0.2043  1.1791 -1.4205
  422MOL0     H58172  11.282  11.904  -0.535  1.4715  0.5142  0.1537
  422MOL0     H58173  11.514  11.748  -0.649  2.3886  1.3335 -2.0463
  422MOL0     H58174  11.426  11.836  -0.760  2.1357  2.9451  0.5649
  422MOL0     H58175  11.454  12.053  -0.646  2.1222  0.1319 -0.9045
  422MOL0     H58176  11.494  11.983  -0.495 -1.1590  1.5594 -0.2710
  422MOL0     H58177  11.707  12.069  -0.629 -2.0054  0.6171  1.6856
  422MOL0     H58178  11.658  11.958  -0.758  0.5055  0.6277 -0.2524
  422MOL0     H58179  11.718  11.858  -0.476 -1.1346 -2.7177  0.5200
  422MOL0     H58180  11.709  11.766  -0.624 -0.7416 -0.2187  1.1263
  422MOL0     H58181  11.909  11.984  -0.572 -0.8578 -0.1000  1.2547
  422MOL0     H58182  11.915  11.869  -0.711 -2.4674  0.3131 -1.2153
  422MOL0     H58183  11.949  11.682  -0.562 -0.8032 -0.8131  1.3582
  422MOL0     H58184  12.070  11.795  -0.537 -0.5619 -1.8067  0.3305
  422MOL0     H58185  11.944  11.991  -0.328 -0.1039  1.4184  4.1509
  422MOL0     H58186  11.973  11.994  -0.058  3.3844 -1.0853 -2.4883
  422MOL0     H58187  12.051  11.854   0.003  0.4632  1.1948 -0.8191
  422MOL0     H58188  11.747  11.843   0.008 -2.5020 -0.8782  3.3196
  422MOL0     H58189  11.864  11.747   0.104  1.7422  0.1254 -2.3906
  422MOL0     H58190  11.798  12.045   0.138 -0.3016  0.5309  0.7261
  422MOL0     H58191  11.736  11.903   0.222  0.2830 -1.0981 -0.3548
  422MOL0     H58192  12.030  12.002   0.187  2.1646 -3.8089 -0.0922
  422MOL0     H58193  11.930  12.014   0.337  0.7773  0.1525  0.1707
  422MOL0     H58194  11.852  11.742   0.486  0.3608 -1.6119 -0.1973
  422MOL0     H58195  11.845  11.769   0.813 -1.2754 -0.8197 -0.1461
  422MOL0     H58196  11.926  11.619   0.788 -0.1426 -0.8294 -0.8304
  422MOL0     H58197  11.802  11.658   0.675  0.7621 -0.3208 -1.9847
  422MOL0     H58198  12.245  11.675   1.096 -0.3205  2.8949  3.6422
  422MOL0     H58199  12.402  11.737   1.283 -1.4202  1.6517  0.1949
  422MOL0     H58200  12.522  12.043   1.325  1.7678  3.5921  1.2835
  422MOL0     H58201  12.620  11.981   1.452 -2.5773 -2.4394 -0.2798
  422MOL0     H58202  12.821  12.058   1.345  0.4079  1.8206  0.9627
  422MOL0     H58203  12.756  12.039   1.183  0.9359 -1.3982  0.6080
  422MOL0     H58204  12.629  12.252   1.364  2.3014 -0.4801  0.9641
  422MOL0     H58205  12.597  12.217   1.191 -0.4503 -0.2389 -0.4788
  422MOL0     H58206  12.782  12.335   1.133  1.0088 -3.8000  0.6882
  422MOL0     H58207  12.865  12.325   1.292 -0.8429 -3.0315  1.5050
  422MOL0     H58208  12.624  12.483   1.244 -0.4710 -2.6389 -0.2621
  422MOL0     H58209  12.702  12.492   1.398 -0.9439 -0.2920 -0.1806
  422MOL0     H58210  12.872  12.551   1.149 -0.6057 -0.8016 -0.2039
  422MOL0     H58211  12.914  12.605   1.312 -2.2218  1.1334  1.6363
  422MOL0     H58212  12.817  12.801   1.276 -0.5172 -0.2978  1.2277
  422MOL0     H58213  12.677  12.726   1.276  1.9529  1.1088  0.4151
  422MOL0     H58214  12.825  12.772   1.009 -0.2197  2.4645  0.3208
  422MOL0     H58215  12.705  12.859   1.083 -0.1517  0.0092 -0.0979
  422MOL0     H58216  12.686  11.908   1.031  0.3969 -2.3081 -0.1417
  422MOL0     H58217  12.544  11.843   0.825 -0.4636 -3.1886 -1.2911
  422MOL0     H58218  12.324  11.850   0.588 -0.9536  1.1471  0.4861
  422MOL0     H58219  12.225  11.889   0.364 -1.0541  0.7015 -0.4399
  422MOL0     H58220  11.642  11.718  -0.282  0.2666  0.1515  0.1986
  422MOL0     H58221  11.722  11.581  -0.097  0.8539  1.2087 -2.4939
  422MOL0     H58222  11.554  11.142   0.133  0.9855  1.0373 -1.4637
  422MOL0     H58223  11.607  10.980   0.306 -2.7050 -0.2565  0.0548
  422MOL0     H58224  11.667  11.130   0.686  0.5533 -0.1622  0.8909
  422MOL0     H58225  11.722  10.971   0.728  2.0473  1.0686  1.2280
  422MOL0     H58226  11.902  11.146   0.774  2.5626  1.6779 -1.1741
  422MOL0     H58227  11.926  11.162   0.612  1.6345  0.3597  0.2602
  422MOL0     H58228  12.079  10.999   0.694  0.5133 -0.6993 -1.5450
  422MOL0     H58229  11.965  10.920   0.790  4.0429 -0.0746 -0.0710
  422MOL0     H58230  11.960  10.912   0.484  0.8031  4.0096  2.5322
  422MOL0     H58231  11.884  10.803   0.596  0.3529 -0.8717 -0.0986
  422MOL0     H58232  12.297  10.676   0.625  1.2545  1.0068  0.9311
  422MOL0     H58233  11.773  11.291   0.540 -0.7891  1.2096  0.3672
  422MOL0     H58234  11.839  11.497   0.436  0.0867  3.9619  0.7275
  422MOL0     H58235  11.760  11.555   0.286 -0.2397  2.2452  1.0976
  422MOL0     H58236  11.672  11.558   0.439  0.3451 -1.1012  2.0842
  423MOL0     O58237   4.023   1.733   9.878 -0.1680 -0.7626 -0.9679
  423MOL0     C58238   4.000   1.860   9.882 -0.3095  0.2322 -0.0899
  423MOL0     O58239   3.994   1.926   9.991 -0.0235  0.2716  0.2848
  423MOL0     C58240   3.985   1.874  10.118 -0.2838  0.5755 -0.1870
  423MOL0     C58241   4.047   1.946  10.218  0.1567 -0.2058 -0.0312
  423MOL0     C58242   4.054   1.904  10.346 -0.1212  1.3494 -0.4301
  423MOL0     C58243   4.004   1.776  10.383  0.4894  0.2310 -0.4310
  423MOL0     O58244   4.004   1.729  10.517 -0.0207  0.6173 -0.6966
  423MOL0     C58245   3.952   1.818  10.620 -0.8142 -0.5513  0.2926
  423MOL0     C58246   3.805   1.781  10.654  0.0402  0.4079 -0.1453
  423MOL0     C58247   3.787   1.693  10.781  0.7395 -0.6184  0.4356
  423MOL0     C58248   3.796   1.772  10.906  0.1580 -0.4226  0.2264
  423MOL0     C58249   3.817   1.690  11.035  0.6042  0.9783 -0.4652
  423MOL0     C58250   3.964   1.664  11.057  0.9697 -0.8928  0.5179
  423MOL0     C58251   3.991   1.614  11.196 -0.9032  0.8049 -0.1910
  423MOL0     C58252   4.141   1.601  11.227 -0.4947  0.0312 -0.2830
  423MOL0     N58253   4.226   1.509  11.146 -0.7328  0.2454 -0.0204
  423MOL0     C58254   4.213   1.373  11.128 -0.3117  0.3056  0.3752
  423MOL0     C58255   4.325   1.345  11.050 -0.2078  0.6403  0.0312
  423MOL0     C58256   4.355   1.201  11.015 -0.1842  0.7425 -0.1610
  423MOL0     C58257   4.435   1.188  10.897  0.1204  0.3175  0.0097
  423MOL0     C58258   4.586   1.212  10.909 -0.4315  0.1418 -0.0032
  423MOL0     C58259   4.662   1.150  10.790  0.2980  0.0693  0.5060
  423MOL0     O58260   4.652   1.209  10.657 -0.0162  0.7861  0.6041
  423MOL0     C58261   4.689   1.133  10.548 -1.2657 -1.0018  0.1359
  423MOL0     C58262   4.621   1.156  10.435 -0.0551  0.0314 -0.7428
  423MOL0     C58263   4.652   1.110  10.313 -0.4367 -0.3451 -0.4322
  423MOL0     C58264   4.563   1.158  10.200 -0.1763 -0.0592 -0.3462
  423MOL0     C58265   4.753   1.005  10.308 -0.4269  0.3475  0.5973
  423MOL0     C58266   4.786   0.930  10.183  0.2208 -0.5782 -0.2551
  423MOL0     O58267   4.868   0.825  10.184 -0.2161 -0.1272 -0.4065
  423MOL0     C58268   4.878   0.746  10.070  0.2411  0.5464  0.0306
  423MOL0     C58269   4.774   0.722   9.980 -0.5292  0.0456  1.0058
  423MOL0     C58270   4.797   0.666   9.852  0.8982  1.2227  0.4645
  423MOL0     C58271   4.925   0.625   9.815 -0.0818 -0.2695  1.3449
  423MOL0     O58272   4.965   0.565   9.693 -0.2998  0.3224 -0.4374
  423MOL0     C58273   4.872   0.587   9.587 -0.5494 -0.0759 -0.6719
  423MOL0     C58274   4.919   0.522   9.457 -0.6918 -0.6292 -0.1631
  423MOL0     C58275   4.820   0.534   9.342  0.5653 -0.2070  0.2794
  423MOL0     C58276   4.881   0.560   9.204 -0.7517 -0.1508  0.5984
  423MOL0     C58277   4.960   0.442   9.148  0.3434 -0.3787 -0.8707
  423MOL0     C58278   5.016   0.466   9.002 -0.8470 -1.0583  0.1408
  423MOL0     C58279   5.081   0.335   8.962 -0.1752  0.1009 -0.1833
  423MOL0     C58280   5.131   0.359   8.820 -0.1505  0.7080 -0.8504
  423MOL0    Cl58281   5.182   0.203   8.754  0.1332 -0.3312 -0.1051
  423MOL0     C58282   5.031   0.651   9.901 -0.0675  0.2121  0.0050
  423MOL0     C58283   5.006   0.706  10.027  0.1863 -0.3429 -0.1495
  423MOL0     O58284   4.732   0.973  10.083  0.3206 -0.8996 -0.1592
  423MOL0     C58285   4.826   0.985  10.422 -0.7695 -0.3148 -0.7879
  423MOL0     C58286   4.809   1.060  10.538 -0.0166 -0.3746 -0.5217
  423MOL0     N58287   4.389   1.458  11.018 -0.6662 -0.0547  0.6104
  423MOL0     N58288   4.335   1.548  11.080 -1.3758 -0.1567 -0.7070
  423MOL0     C58289   3.949   1.694  10.277 -0.1473 -0.2942 -0.2314
  423MOL0     C58290   3.943   1.738  10.149 -0.3005 -0.4515  0.2526
  423MOL0     C58291   3.972   1.928   9.753  0.4229 -0.6231  0.2624
  423MOL0     C58292   4.070   1.920   9.651 -0.4245 -0.1451 -0.0231
  423MOL0     C58293   4.047   1.999   9.529  0.3859  0.1024 -0.0193
  423MOL0     C58294   3.930   2.080   9.516 -0.2417  0.1187  0.5214
  423MOL0     O58295   3.922   2.160   9.406  0.1140  0.0778 -0.0176
  423MOL0     C58296   3.950   2.303   9.429  0.3117  1.2771  1.1196
  423MOL0     C58297   4.094   2.357   9.395  1.1654  0.9259 -0.0599
  423MOL0     C58298   4.128   2.368   9.235 -0.0361  0.7294 -0.2298
  423MOL0     C58299   4.025   2.416   9.134 -0.5640 -0.4153  0.3263
  423MOL0     C58300   4.088   2.530   9.066  0.7595  0.6304 -0.4661
  423MOL0     C58301   4.143   2.631   9.014 -0.6561  0.0022 -0.1187
  423MOL0     C58302   3.833   2.077   9.611  0.2780  0.0352  0.5234
  423MOL0     C58303   3.857   2.006   9.735 -0.2563 -0.6033  0.4772
  423MOL0     C58304   3.761   2.029   9.858 -0.4577 -0.3661  0.0695
  423MOL0     H58305   4.077   2.042  10.176 -1.1218  0.3935  0.3674
  423MOL0     H58306   4.111   1.967  10.414  2.3248  2.2158 -3.0796
  423MOL0     H58307   3.942   1.918  10.578 -2.1761 -1.2601 -1.1883
  423MOL0     H58308   4.016   1.826  10.708 -0.9252 -0.1635  0.3391
  423MOL0     H58309   3.746   1.872  10.672  0.1351 -0.0851  3.3980
  423MOL0     H58310   3.760   1.721  10.575  2.6806 -1.2492 -0.5062
  423MOL0     H58311   3.692   1.641  10.768 -0.1453  0.7954  1.1102
  423MOL0     H58312   3.867   1.618  10.783  1.1823 -0.4056 -2.8540
  423MOL0     H58313   3.873   1.849  10.899 -0.1201 -0.2132 -0.7335
  423MOL0     H58314   3.705   1.833  10.915  1.0796  1.0196  0.0324
  423MOL0     H58315   3.753   1.601  11.033 -0.4867  1.7186 -2.9548
  423MOL0     H58316   3.786   1.755  11.118 -0.1794 -0.0314  0.0551
  423MOL0     H58317   3.987   1.582  10.990 -0.1833 -1.2722  0.5566
  423MOL0     H58318   4.034   1.747  11.042 -1.1264  0.5431 -2.3054
  423MOL0     H58319   3.954   1.512  11.204  2.1319 -0.4131 -0.6287
  423MOL0     H58320   3.939   1.668  11.275  1.3925  1.4274  0.9844
  423MOL0     H58321   4.190   1.698  11.209 -1.4588  0.4071 -1.0045
  423MOL0     H58322   4.159   1.573  11.331  1.6528 -0.5805 -0.7574
  423MOL0     H58323   4.131   1.306  11.153 -0.7292  0.3959 -0.6927
  423MOL0     H58324   4.266   1.142  10.992 -0.4284  0.3126  1.7237
  423MOL0     H58325   4.393   1.154  11.107  0.8560  1.0358 -0.4243
  423MOL0     H58326   4.410   1.094  10.846 -3.8249  0.9246  0.4966
  423MOL0     H58327   4.404   1.266  10.826  1.0745 -2.0765 -3.2877
  423MOL0     H58328   4.618   1.316  10.922 -1.4494  0.4881 -0.1683
  423MOL0     H58329   4.620   1.165  11.002 -2.7920  2.7773  2.3726
  423MOL0     H58330   4.768   1.149  10.818  0.5566  0.7840 -0.3793
  423MOL0     H58331   4.624   1.048  10.789 -0.6063  0.2959  3.2509
  423MOL0     H58332   4.526   1.208  10.446 -0.7871 -1.0555 -1.7400
  423MOL0     H58333   4.499   1.238  10.238  1.8122  0.3313  2.5159
  423MOL0     H58334   4.496   1.077  10.169  0.8057 -1.6059  1.3461
  423MOL0     H58335   4.623   1.198  10.118  1.1683  0.1630  0.7043
  423MOL0     H58336   4.670   0.749   9.996 -0.7810 -1.5077  2.2113
  423MOL0     H58337   4.713   0.661   9.785  0.9497 -0.1482  0.4879
  423MOL0     H58338   4.782   0.534   9.619  1.1223 -1.6691  1.7686
  423MOL0     H58339   4.860   0.694   9.570 -0.3832  0.1040  0.2832
  423MOL0     H58340   5.015   0.566   9.430 -1.8082  3.1377  1.3194
  423MOL0     H58341   4.934   0.414   9.470  1.1188 -1.4464 -6.0741
  423MOL0     H58342   4.746   0.612   9.363  0.9719 -0.0977  1.3641
  423MOL0     H58343   4.759   0.444   9.341 -2.6950  1.8172  0.9174
  423MOL0     H58344   4.933   0.656   9.201 -1.7593  0.3896 -0.9176
  423MOL0     H58345   4.798   0.577   9.134  0.4574  0.3168 -0.7684
  423MOL0     H58346   5.040   0.419   9.219  1.9718 -1.5897 -2.9490
  423MOL0     H58347   4.900   0.350   9.145  2.5054 -1.8763 -3.1105
  423MOL0     H58348   5.093   0.543   8.998 -1.5152 -0.3870 -4.0803
  423MOL0     H58349   4.942   0.501   8.929 -1.0675 -3.7494 -1.0618
  423MOL0     H58350   5.008   0.254   8.955 -1.8003  1.4002  0.8569
  423MOL0     H58351   5.169   0.314   9.023 -0.7944 -2.3061 -0.0163
  423MOL0     H58352   5.215   0.428   8.816  1.8216 -1.2143  2.3516
  423MOL0     H58353   5.050   0.388   8.752  2.0603 -2.4326 -5.3169
  423MOL0     H58354   5.132   0.628   9.868 -0.7571 -0.0551 -2.1262
  423MOL0     H58355   5.092   0.733  10.087  0.4355  0.3355 -0.7888
  423MOL0     H58356   4.909   0.915  10.425 -0.5470 -0.0479  1.8538
  423MOL0     H58357   4.873   1.042  10.623 -0.4453  2.5473  0.5504
  423MOL0     H58358   3.915   1.594  10.302 -2.0050  0.9159  2.5424
  423MOL0     H58359   3.909   1.673  10.069  0.6028  0.3408 -0.8089
  423MOL0     H58360   4.164   1.867   9.650  0.6361  1.6670 -1.1647
  423MOL0     H58361   4.125   2.011   9.454  0.3370  1.2710  0.1039
  423MOL0     H58362   3.876   2.365   9.379  2.8435  2.7366 -1.0402
  423MOL0     H58363   3.939   2.310   9.538  0.9817 -2.1247  1.5221
  423MOL0     H58364   4.171   2.294   9.439 -0.1167 -0.2947  0.5060
  423MOL0     H58365   4.097   2.455   9.445 -1.2485 -0.0505  2.2798
  423MOL0     H58366   4.218   2.429   9.227  1.2870 -1.3864 -3.2754
  423MOL0     H58367   4.160   2.268   9.206 -0.3689  0.1836  1.2107
  423MOL0     H58368   3.932   2.431   9.189 -2.0599 -1.5565 -1.7258
  423MOL0     H58369   3.995   2.346   9.055 -2.0603 -0.4081  0.8707
  423MOL0     H58370   4.185   2.718   8.968 -0.1342  0.7386  1.6748
  423MOL0     H58371   3.743   2.133   9.585  0.4550  0.2520  0.3652
  423MOL0     H58372   3.687   2.101   9.821  2.1911  3.0519  0.9857
  423MOL0     H58373   3.717   1.939   9.902  1.6630 -2.3778 -1.6973
  423MOL0     H58374   3.812   2.080   9.940 -1.3524  0.3900  0.1733
  424MOL0     O58375   5.189   9.000   0.935  0.3672 -0.5515  0.1528
  424MOL0     C58376   5.168   8.958   0.822 -0.2074  0.3509  1.2071
  424MOL0     O58377   5.263   8.903   0.735 -0.6750 -0.0746 -0.4244
  424MOL0     C58378   5.399   8.894   0.763 -0.4905 -0.0825 -0.4355
  424MOL0     C58379   5.464   8.919   0.891  0.6042 -0.0416  0.5230
  424MOL0     C58380   5.603   8.935   0.892  0.0315  0.1296  0.2236
  424MOL0     C58381   5.677   8.902   0.773 -0.5737 -0.0710 -0.2190
  424MOL0     O58382   5.817   8.912   0.776 -0.1109 -0.0571 -0.0887
  424MOL0     C58383   5.876   8.939   0.651 -0.0956  0.6897 -0.4102
  424MOL0     C58384   6.003   9.026   0.659 -0.0731 -0.3579 -0.3053
  424MOL0     C58385   5.964   9.153   0.734 -0.6663 -0.2662  0.4524
  424MOL0     C58386   6.096   9.235   0.766  0.3567 -0.2341  0.7303
  424MOL0     C58387   6.163   9.162   0.883 -0.0163  0.3104 -0.2964
  424MOL0     C58388   6.294   9.225   0.905 -0.7310  0.5788  0.3698
  424MOL0     C58389   6.373   9.185   1.037 -0.1051  0.7763  0.1742
  424MOL0     C58390   6.496   9.277   1.067  0.3318  0.4394 -0.4158
  424MOL0     N58391   6.625   9.203   1.078 -0.2322  0.2076 -0.8145
  424MOL0     C58392   6.655   9.087   1.013 -0.1033  0.7080  0.0548
  424MOL0     C58393   6.794   9.070   1.035  0.0729 -0.7023  0.6139
  424MOL0     C58394   6.879   8.940   1.019  0.5364  0.6692 -1.0185
  424MOL0     C58395   6.892   8.916   0.867  0.0567 -0.1125 -0.6375
  424MOL0     C58396   6.965   8.786   0.841  0.4262  0.4816  0.4191
  424MOL0     C58397   7.012   8.765   0.700  0.2678 -0.5690  0.5497
  424MOL0     O58398   6.907   8.766   0.601  0.1273  0.4223  0.3876
  424MOL0     C58399   6.939   8.752   0.469  0.0179 -0.1351 -0.4684
  424MOL0     C58400   7.040   8.664   0.425 -0.4580  0.6135  1.5160
  424MOL0     C58401   7.065   8.646   0.283  0.0467 -0.8499 -0.6018
  424MOL0     C58402   7.160   8.530   0.243 -1.0077  0.8352  0.6861
  424MOL0     C58403   7.004   8.734   0.189  0.0100 -0.1021  0.3101
  424MOL0     C58404   7.023   8.734   0.037 -0.2453  0.3578  0.1339
  424MOL0     O58405   7.124   8.668  -0.019 -0.2347  0.5224 -0.2214
  424MOL0     C58406   7.134   8.666  -0.149 -0.4804  0.1423  0.4529
  424MOL0     C58407   7.044   8.581  -0.225 -0.1982 -0.4943  0.5383
  424MOL0     C58408   7.066   8.562  -0.364 -1.1448 -0.1468 -0.5059
  424MOL0     C58409   7.179   8.626  -0.422 -0.1597 -0.7173  0.3637
  424MOL0     O58410   7.201   8.627  -0.554 -0.1025  0.7414 -0.0603
  424MOL0     C58411   7.094   8.613  -0.646  0.6101  0.5577  0.2507
  424MOL0     C58412   7.144   8.649  -0.781  0.5465 -0.0305 -1.2581
  424MOL0     C58413   7.194   8.792  -0.804 -0.1554  0.2078 -0.9533
  424MOL0     C58414   7.280   8.799  -0.932 -1.1872 -0.3334  0.4603
  424MOL0     C58415   7.337   8.944  -0.954  0.7759  0.8231 -0.0365
  424MOL0     C58416   7.447   8.936  -1.066  0.0785  0.0497 -0.5468
  424MOL0     C58417   7.507   9.074  -1.087 -0.5910 -0.3483  0.2146
  424MOL0     C58418   7.654   9.069  -1.063  1.6849  0.5127 -0.1657
  424MOL0    Cl58419   7.741   8.967  -1.175  0.5267 -0.2010 -0.1027
  424MOL0     C58420   7.274   8.692  -0.345  0.3545 -0.2507  0.3877
  424MOL0     C58421   7.248   8.718  -0.208  0.4932  0.1378  1.2870
  424MOL0     O58422   6.956   8.807  -0.031  0.0995 -0.4386 -0.4030
  424MOL0     C58423   6.894   8.804   0.238 -0.1254 -0.0060  0.8366
  424MOL0     C58424   6.866   8.815   0.374 -0.1039 -0.3163 -0.0460
  424MOL0     N58425   6.828   9.169   1.131 -1.0303 -0.7027 -1.5251
  424MOL0     N58426   6.736   9.259   1.128 -0.5385 -0.3991 -0.1399
  424MOL0     C58427   5.615   8.872   0.653  0.3122 -0.5976  0.0094
  424MOL0     C58428   5.476   8.867   0.650  0.5418 -0.0175  0.4085
  424MOL0     C58429   5.035   8.956   0.764 -0.4806 -0.2653  0.3408
  424MOL0     C58430   5.021   8.989   0.623 -0.9428 -0.8274 -1.1467
  424MOL0     C58431   4.897   9.002   0.567  0.5541 -0.7255  1.2408
  424MOL0     C58432   4.778   8.976   0.641  0.5884 -0.3778 -1.2970
  424MOL0     O58433   4.656   8.984   0.581  0.0871 -0.0884  0.1318
  424MOL0     C58434   4.635   8.957   0.439  0.7393 -0.3110 -1.0469
  424MOL0     C58435   4.496   8.996   0.395 -0.6115 -0.0361 -0.1008
  424MOL0     C58436   4.478   9.031   0.244 -1.1529 -0.1875  0.5227
  424MOL0     C58437   4.326   9.060   0.214 -0.4703  0.2669 -0.0832
  424MOL0     C58438   4.308   9.074   0.071  0.1692  0.9082 -0.1391
  424MOL0     C58439   4.286   9.095  -0.045 -0.5307  0.0320  0.3318
  424MOL0     C58440   4.789   8.953   0.773  0.2931  0.7662  0.4709
  424MOL0     C58441   4.916   8.938   0.839 -0.0122  0.5929  0.7047
  424MOL0     C58442   4.918   8.891   0.980  0.3037  0.8492 -1.3267
  424MOL0     H58443   5.407   8.924   0.983 -0.1723 -1.8169  0.1761
  424MOL0     H58444   5.652   8.967   0.983 -1.1538 -1.5533  1.5019
  424MOL0     H58445   5.804   8.979   0.579 -1.9778 -1.1052  0.3932
  424MOL0     H58446   5.896   8.839   0.612 -1.4337 -0.0165  0.6428
  424MOL0     H58447   6.080   8.962   0.703  0.4866  0.3170 -0.2888
  424MOL0     H58448   6.023   9.051   0.555  0.3654 -0.1137 -0.1654
  424MOL0     H58449   5.902   9.221   0.676 -0.4515  0.9971  1.6460
  424MOL0     H58450   5.920   9.136   0.832 -1.5443  2.9230  0.7286
  424MOL0     H58451   6.155   9.227   0.673 -0.8451 -0.6888 -0.0145
  424MOL0     H58452   6.077   9.338   0.796 -2.9536 -1.1800  2.2895
  424MOL0     H58453   6.182   9.057   0.859  1.1593  0.9099 -2.2364
  424MOL0     H58454   6.094   9.170   0.967 -0.9989  1.7555 -1.2084
  424MOL0     H58455   6.353   9.226   0.813 -4.4803 -1.2598 -2.3171
  424MOL0     H58456   6.256   9.327   0.917 -2.2857  0.2922 -1.5414
  424MOL0     H58457   6.399   9.079   1.037  0.1379  0.6899 -3.8934
  424MOL0     H58458   6.297   9.197   1.115 -2.1009 -0.9047 -1.4029
  424MOL0     H58459   6.502   9.373   1.015 -2.7228  0.9122 -0.0674
  424MOL0     H58460   6.483   9.314   1.169  3.7001  0.4226  0.1391
  424MOL0     H58461   6.603   9.017   0.949  3.8351 -0.7283 -1.9171
  424MOL0     H58462   6.833   8.854   1.067  0.0437  1.5222  0.0895
  424MOL0     H58463   6.975   8.939   1.072 -1.5388  0.6588  3.1863
  424MOL0     H58464   6.792   8.906   0.824 -1.7555  0.2367  3.0634
  424MOL0     H58465   6.949   8.997   0.820  2.8639 -1.0462  0.9554
  424MOL0     H58466   7.053   8.779   0.906  0.7275 -1.4190 -0.1357
  424MOL0     H58467   6.906   8.695   0.851  1.5576  0.0270  4.9371
  424MOL0     H58468   7.065   8.851   0.659 -2.8238  0.3918 -1.8026
  424MOL0     H58469   7.073   8.675   0.689  0.9899 -0.2334  1.6329
  424MOL0     H58470   7.090   8.597   0.494  0.3595 -1.4831 -0.9387
  424MOL0     H58471   7.212   8.554   0.149  1.2027 -1.7879  1.1091
  424MOL0     H58472   7.105   8.439   0.216 -2.2401  1.4127  1.1821
  424MOL0     H58473   7.234   8.504   0.320  0.0568  1.9919  0.0834
  424MOL0     H58474   6.963   8.531  -0.172 -0.5690 -0.4297  0.0424
  424MOL0     H58475   7.008   8.493  -0.426 -1.3295 -2.2913  1.9064
  424MOL0     H58476   7.038   8.519  -0.645  1.2561  0.1649  1.3780
  424MOL0     H58477   7.011   8.678  -0.616 -0.1710 -1.2981  2.3892
  424MOL0     H58478   7.213   8.575  -0.823  1.1209 -0.6911  0.7511
  424MOL0     H58479   7.047   8.641  -0.830 -0.9359 -0.4637  1.5772
  424MOL0     H58480   7.248   8.833  -0.718 -1.4214  2.0451 -0.9862
  424MOL0     H58481   7.102   8.847  -0.826 -0.9557 -0.9048 -0.5195
  424MOL0     H58482   7.212   8.766  -1.012 -1.7981 -1.9019  1.5715
  424MOL0     H58483   7.365   8.730  -0.923 -3.3488 -2.8523  4.4720
  424MOL0     H58484   7.261   9.022  -0.966  1.9853  1.8889 -0.9585
  424MOL0     H58485   7.396   8.976  -0.868  1.0340 -0.4771  0.2809
  424MOL0     H58486   7.410   8.905  -1.164 -0.7463  1.4047 -0.6978
  424MOL0     H58487   7.522   8.861  -1.040 -0.3266 -0.3968 -0.6532
  424MOL0     H58488   7.451   9.138  -1.018  0.1131  0.1537  0.3176
  424MOL0     H58489   7.476   9.104  -1.188  1.0526 -0.8630 -0.4739
  424MOL0     H58490   7.678   9.022  -0.967 -2.8815 -4.2987 -0.9191
  424MOL0     H58491   7.686   9.173  -1.064  0.7779  0.8239 -2.0802
  424MOL0     H58492   7.359   8.742  -0.390 -1.5788  0.1010 -3.2850
  424MOL0     H58493   7.310   8.777  -0.142 -1.0759  1.4499  1.6349
  424MOL0     H58494   6.823   8.852   0.173 -1.5982  0.1467  2.4732
  424MOL0     H58495   6.779   8.871   0.404  0.1542  0.9163 -1.5152
  424MOL0     H58496   5.671   8.844   0.564  2.1011  0.8511  0.6298
  424MOL0     H58497   5.417   8.851   0.560 -2.8131  3.0285  1.7987
  424MOL0     H58498   5.116   8.985   0.570 -0.2742 -0.1100 -0.0337
  424MOL0     H58499   4.903   9.018   0.460 -0.4293 -1.4596  1.0558
  424MOL0     H58500   4.707   9.011   0.376 -0.3189  0.4272 -1.6515
  424MOL0     H58501   4.636   8.851   0.411 -1.5760 -0.2401 -1.5682
  424MOL0     H58502   4.489   9.092   0.447  0.0573  1.0647 -1.9450
  424MOL0     H58503   4.423   8.923   0.432 -0.3032  0.1405  0.9051
  424MOL0     H58504   4.537   9.121   0.224  1.1082 -1.5415  0.7587
  424MOL0     H58505   4.515   8.948   0.183 -0.4053  0.7078 -0.2829
  424MOL0     H58506   4.305   9.155   0.263  1.9751  0.4366  0.8207
  424MOL0     H58507   4.267   8.976   0.250  1.3673 -1.2971 -0.5043
  424MOL0     H58508   4.252   9.098  -0.146  1.9454 -2.6179 -0.7214
  424MOL0     H58509   4.696   8.936   0.826 -0.9146  1.2422 -1.4425
  424MOL0     H58510   5.000   8.822   1.000  0.8233  1.2641 -2.0102
  424MOL0     H58511   4.923   8.985   1.035 -4.5747  1.1181 -0.8397
  424MOL0     H58512   4.822   8.847   1.010  0.0527  2.3232  0.1466
  425MOL0     O58513   3.732  10.269   8.981 -0.2412 -0.0521  0.1914
  425MOL0     C58514   3.621  10.298   9.024 -0.1085 -0.1659  0.2315
  425MOL0     O58515   3.504  10.234   8.988  0.4810 -0.5525 -0.0088
  425MOL0     C58516   3.514  10.130   8.892 -0.4488  0.0219  0.1851
  425MOL0     C58517   3.424  10.135   8.783  0.0676  0.2652 -0.0926
  425MOL0     C58518   3.410  10.027   8.693  0.2788 -0.0507 -0.1466
  425MOL0     C58519   3.492   9.908   8.717  0.6454 -0.3422 -0.6792
  425MOL0     O58520   3.486   9.807   8.620  0.0413  0.1210 -1.0301
  425MOL0     C58521   3.613   9.760   8.581 -0.2431  0.7578 -0.4092
  425MOL0     C58522   3.614   9.696   8.444  0.0070 -1.0563 -0.1404
  425MOL0     C58523   3.520   9.581   8.416  0.0199 -0.2355 -0.0047
  425MOL0     C58524   3.586   9.510   8.296  0.7869  0.1702 -0.6978
  425MOL0     C58525   3.500   9.391   8.248  0.1538 -0.1920  0.3546
  425MOL0     C58526   3.394   9.408   8.140 -0.3476 -1.0436 -0.3291
  425MOL0     C58527   3.331   9.271   8.123  0.4853 -1.4437  0.3281
  425MOL0     C58528   3.416   9.170   8.044  0.5155  0.4797 -0.3967
  425MOL0     N58529   3.335   9.056   8.015 -0.2419 -0.8930 -0.2318
  425MOL0     C58530   3.243   9.058   7.909 -0.8568  0.6339 -0.0022
  425MOL0     C58531   3.157   8.955   7.942 -0.9123  0.7429 -0.3356
  425MOL0     C58532   3.068   8.876   7.852 -0.1554  1.2628 -0.8164
  425MOL0     C58533   2.921   8.900   7.891  0.5348  0.1215 -0.1545
  425MOL0     C58534   2.881   8.799   8.000 -0.7288  1.2597  0.3376
  425MOL0     C58535   2.735   8.826   8.062 -0.1906 -0.2757 -0.0871
  425MOL0     O58536   2.720   8.971   8.067  0.1647 -0.0551 -0.7351
  425MOL0     C58537   2.748   9.041   8.188 -0.4107  0.1743  0.4410
  425MOL0     C58538   2.838   9.147   8.190 -0.0683 -0.0634 -0.3976
  425MOL0     C58539   2.862   9.237   8.296 -0.5832  0.0092  0.2419
  425MOL0     C58540   2.971   9.333   8.280  0.3322  0.3956 -0.0533
  425MOL0     C58541   2.782   9.220   8.413 -1.0102  0.4546  0.6789
  425MOL0     C58542   2.775   9.319   8.526 -0.5357  0.4048 -0.2276
  425MOL0     O58543   2.761   9.273   8.652  0.5702 -0.1621 -0.1893
  425MOL0     C58544   2.799   9.353   8.760 -0.3227  0.0022  0.6414
  425MOL0     C58545   2.910   9.440   8.774  0.4223 -1.5525  0.8689
  425MOL0     C58546   2.931   9.513   8.892 -0.4817  0.3536  0.3822
  425MOL0     C58547   2.847   9.493   9.004  0.1374 -0.0948 -1.0684
  425MOL0     O58548   2.857   9.562   9.125  0.4567  0.1684  0.6815
  425MOL0     C58549   2.984   9.624   9.156 -0.2203  0.5310 -0.3318
  425MOL0     C58550   2.983   9.770   9.102 -0.4844  1.1575  0.3092
  425MOL0     C58551   2.902   9.857   9.191 -0.5783 -0.2048  0.8891
  425MOL0     C58552   2.978   9.944   9.298 -0.9204  0.2266 -0.5054
  425MOL0     C58553   2.880  10.011   9.387 -0.1499 -1.0813  1.0678
  425MOL0     C58554   2.958  10.105   9.476 -0.5108  0.2772  0.1008
  425MOL0     C58555   2.869  10.167   9.575 -0.1680  0.2217 -0.8415
  425MOL0     C58556   2.951  10.253   9.675 -0.3277 -0.2726 -0.0208
  425MOL0    Cl58557   3.080  10.178   9.766  0.3990  0.2172  0.2916
  425MOL0     C58558   2.738   9.410   8.992 -0.3344  0.8312  0.6178
  425MOL0     C58559   2.717   9.343   8.867  0.1466  0.6272  0.2599
  425MOL0     O58560   2.773   9.442   8.492  0.2482 -0.1457  0.2779
  425MOL0     C58561   2.692   9.112   8.414 -0.7824  0.9004 -0.5624
  425MOL0     C58562   2.678   9.016   8.309 -0.8048  0.0679  0.7913
  425MOL0     N58563   3.192   8.916   8.071 -0.1493  0.2197 -0.1089
  425MOL0     N58564   3.302   8.968   8.106 -0.4337  0.1320 -1.4778
  425MOL0     C58565   3.582   9.910   8.828  0.1260  0.4508  0.3362
  425MOL0     C58566   3.596  10.023   8.916  0.8199 -0.2829 -0.4674
  425MOL0     C58567   3.617  10.405   9.128  0.1633 -0.6520  0.0984
  425MOL0     C58568   3.717  10.414   9.230  0.3280 -0.4315  0.0958
  425MOL0     C58569   3.722  10.522   9.313 -1.2417  0.0438  0.1012
  425MOL0     C58570   3.627  10.621   9.309 -0.0966  0.1094 -0.2764
  425MOL0     O58571   3.618  10.717   9.404  0.3350  0.5627  0.3020
  425MOL0     C58572   3.555  10.847   9.371  0.2594  0.0144  0.8841
  425MOL0     C58573   3.576  10.951   9.479 -0.0648  0.4949 -0.0726
  425MOL0     C58574   3.727  10.958   9.508  0.0802 -0.8536 -0.7024
  425MOL0     C58575   3.750  11.084   9.592 -0.3498 -0.3442  0.2169
  425MOL0     C58576   3.882  11.077   9.665  0.1461  0.5918 -0.1725
  425MOL0     C58577   3.981  11.064   9.730 -0.3439  0.3359  0.2209
  425MOL0     C58578   3.520  10.600   9.219  0.0703 -1.0072 -0.2283
  425MOL0     C58579   3.519  10.508   9.129 -0.3485 -0.4738 -0.4874
  425MOL0     C58580   3.416  10.528   9.018  0.3930 -0.2543  0.1264
  425MOL0     H58581   3.353  10.217   8.789 -1.4033 -1.0393  2.0180
  425MOL0     H58582   3.339  10.024   8.611  1.0810 -1.1695 -0.8237
  425MOL0     H58583   3.655   9.691   8.655  2.2617  1.3226 -1.2029
  425MOL0     H58584   3.687   9.837   8.560 -0.0518  0.8179  0.4694
  425MOL0     H58585   3.600   9.784   8.380 -0.0489  2.4975  4.2176
  425MOL0     H58586   3.719   9.671   8.424  1.2285  0.7483  3.1702
  425MOL0     H58587   3.539   9.507   8.494  0.7176  0.9820  1.0216
  425MOL0     H58588   3.414   9.603   8.402 -0.4641 -2.9969 -1.4235
  425MOL0     H58589   3.587   9.585   8.216  0.2517 -0.0105 -0.8773
  425MOL0     H58590   3.690   9.482   8.318  1.6173  2.5164 -1.2865
  425MOL0     H58591   3.455   9.341   8.334 -0.0329  1.8371  1.4867
  425MOL0     H58592   3.580   9.321   8.221 -1.3083 -1.0848 -1.9649
  425MOL0     H58593   3.325   9.484   8.177 -0.4655  0.6311 -3.6085
  425MOL0     H58594   3.447   9.448   8.054  1.3064  1.2833  1.6343
  425MOL0     H58595   3.235   9.283   8.073  0.0380 -2.3348  0.9386
  425MOL0     H58596   3.301   9.226   8.219 -2.4687 -4.8904 -1.9374
  425MOL0     H58597   3.438   9.214   7.946  1.4847 -0.6389 -0.7092
  425MOL0     H58598   3.503   9.135   8.099  0.3001 -2.1337 -1.5657
  425MOL0     H58599   3.238   9.112   7.815 -0.7717  0.4020 -0.1405
  425MOL0     H58600   3.093   8.770   7.848  0.3126  1.3756 -0.9123
  425MOL0     H58601   3.084   8.909   7.749  0.6884 -1.2115 -1.5450
  425MOL0     H58602   2.911   9.000   7.935  0.8654 -0.2394  0.7626
  425MOL0     H58603   2.858   8.886   7.802  0.4554 -0.0259 -0.0758
  425MOL0     H58604   2.892   8.697   7.960 -0.9364  2.1656 -2.1652
  425MOL0     H58605   2.946   8.810   8.087 -1.7096 -2.6332  1.8140
  425MOL0     H58606   2.653   8.791   7.998 -0.4345  2.2101 -1.2559
  425MOL0     H58607   2.726   8.793   8.166 -0.4080  2.9305  1.0247
  425MOL0     H58608   2.895   9.160   8.098 -0.9041 -0.1653 -0.9464
  425MOL0     H58609   3.032   9.363   8.365  1.4285  1.2850 -1.1063
  425MOL0     H58610   2.932   9.425   8.234 -1.5639  0.3144  1.2869
  425MOL0     H58611   3.051   9.302   8.211 -0.9478  2.7202 -2.7768
  425MOL0     H58612   2.970   9.459   8.686 -1.5443 -1.3071 -0.4765
  425MOL0     H58613   3.011   9.586   8.900 -0.3136 -0.0341  3.6993
  425MOL0     H58614   2.994   9.620   9.265  3.2433  1.5462 -0.5042
  425MOL0     H58615   3.075   9.573   9.123 -0.5661 -2.2139  2.4781
  425MOL0     H58616   3.085   9.809   9.101  0.4112 -0.6733  3.9093
  425MOL0     H58617   2.941   9.776   9.001 -1.6476 -2.0900  0.4987
  425MOL0     H58618   2.812   9.805   9.226 -1.0337 -0.5917 -0.7599
  425MOL0     H58619   2.870   9.937   9.123  1.3432  0.7090  1.0029
  425MOL0     H58620   3.055  10.004   9.249 -0.4349  0.8530  0.9623
  425MOL0     H58621   3.036   9.878   9.363 -1.9879  1.4444  1.8264
  425MOL0     H58622   2.806  10.070   9.331 -0.1719  0.5179  2.7072
  425MOL0     H58623   2.828   9.933   9.444 -1.9294 -1.6445 -1.1605
  425MOL0     H58624   3.006  10.188   9.422 -1.9564  1.4890  0.5963
  425MOL0     H58625   3.039  10.058   9.531 -1.2530  0.2445  1.1921
  425MOL0     H58626   2.815  10.087   9.627  1.1103  1.5188  2.7832
  425MOL0     H58627   2.796  10.225   9.519 -0.7830 -1.1058 -1.4590
  425MOL0     H58628   2.879  10.304   9.738 -0.9530  1.1031 -1.7742
  425MOL0     H58629   2.991  10.340   9.622 -0.0194 -0.8829 -0.8185
  425MOL0     H58630   2.675   9.400   9.080 -2.4510  0.9789 -0.8094
  425MOL0     H58631   2.617   9.305   8.850  1.0549 -0.8205 -2.3330
  425MOL0     H58632   2.635   9.084   8.502  2.0720 -3.2399  0.2842
  425MOL0     H58633   2.610   8.932   8.298 -1.1775  0.5554 -0.9762
  425MOL0     H58634   3.642   9.822   8.851  0.9861  1.6300  2.9485
  425MOL0     H58635   3.664  10.018   9.001 -0.9364  0.7608  1.0676
  425MOL0     H58636   3.799  10.344   9.226  3.0101  2.5122 -1.3245
  425MOL0     H58637   3.803  10.528   9.385  2.1716 -3.4472 -3.0432
  425MOL0     H58638   3.589  10.893   9.279 -2.6715  3.0040  1.1033
  425MOL0     H58639   3.447  10.832   9.357  0.4478  1.3379 -2.7618
  425MOL0     H58640   3.521  10.917   9.567 -0.6661  1.0079 -0.2483
  425MOL0     H58641   3.536  11.045   9.441  0.5006  0.7318 -0.0862
  425MOL0     H58642   3.756  10.889   9.587 -0.3887  2.6784  2.8755
  425MOL0     H58643   3.785  10.941   9.417  0.0370  0.4848 -1.0035
  425MOL0     H58644   3.663  11.090   9.658  1.9383 -1.0906  3.5382
  425MOL0     H58645   3.758  11.164   9.518 -3.0353 -0.5939 -0.4433
  425MOL0     H58646   4.055  11.039   9.804 -0.7292 -2.1022 -0.1443
  425MOL0     H58647   3.437  10.669   9.227 -1.4734 -2.8969  0.9637
  425MOL0     H58648   3.370  10.443   8.968  0.9221 -1.8463  2.2118
  425MOL0     H58649   3.326  10.575   9.058  2.1622  2.6679  1.0312
  425MOL0     H58650   3.467  10.602   8.955  0.3324  1.7197  2.2773
  426MOL0     O58651   1.417   7.506   1.509 -0.7404 -0.1199 -0.0560
  426MOL0     C58652   1.405   7.533   1.625  1.0817 -0.9681  0.3449
  426MOL0     O58653   1.513   7.566   1.703  1.5136  0.7458 -0.2718
  426MOL0     C58654   1.621   7.618   1.649 -0.5429 -0.2460 -0.9506
  426MOL0     C58655   1.745   7.593   1.716 -0.4598 -0.6007 -0.0243
  426MOL0     C58656   1.871   7.648   1.664  0.6373  0.0453  0.6413
  426MOL0     C58657   1.863   7.745   1.559 -0.1528  0.2939  0.6051
  426MOL0     O58658   1.967   7.823   1.535  0.5024  0.3891 -0.2639
  426MOL0     C58659   2.107   7.786   1.568  0.9770  0.0347  0.4610
  426MOL0     C58660   2.156   7.660   1.500 -0.0735  0.3395 -0.5939
  426MOL0     C58661   2.133   7.646   1.356  0.4615 -0.2252 -0.2885
  426MOL0     C58662   2.244   7.564   1.288  0.3735  0.0645  0.9797
  426MOL0     C58663   2.200   7.426   1.249  1.1076  0.3992  0.9485
  426MOL0     C58664   2.143   7.330   1.362 -0.3430 -0.5366  1.3258
  426MOL0     C58665   2.095   7.191   1.315  0.3009  0.0640 -0.1578
  426MOL0     C58666   2.199   7.120   1.243 -0.1658  0.3340 -0.0957
  426MOL0     N58667   2.142   6.991   1.202  0.0114 -0.9290  0.0996
  426MOL0     C58668   2.051   6.979   1.101  0.2254  0.1347 -0.1396
  426MOL0     C58669   2.015   6.844   1.100  0.8829 -0.3619  0.2140
  426MOL0     C58670   1.918   6.780   1.005  0.7470  0.2531 -0.3416
  426MOL0     C58671   1.778   6.821   1.040  0.1831  0.2267  0.0070
  426MOL0     C58672   1.672   6.731   0.980 -1.1566 -0.5918 -0.0019
  426MOL0     C58673   1.530   6.764   1.035 -0.2530  0.2659  0.1389
  426MOL0     O58674   1.526   6.728   1.173 -0.1199 -0.7584 -0.0275
  426MOL0     C58675   1.412   6.778   1.246  0.3384 -0.2605  0.7733
  426MOL0     C58676   1.293   6.813   1.178  0.5093  1.1102 -1.1420
  426MOL0     C58677   1.193   6.875   1.255 -0.2102  0.6821 -0.5936
  426MOL0     C58678   1.061   6.907   1.193  0.8238  0.2160  0.2539
  426MOL0     C58679   1.214   6.891   1.393  0.2928 -0.3836 -1.4376
  426MOL0     C58680   1.116   6.939   1.489 -0.2037 -0.6767 -0.0779
  426MOL0     O58681   1.164   7.001   1.598  0.2996  0.0616  0.2042
  426MOL0     C58682   1.076   7.040   1.698 -0.0343 -0.1830  0.5014
  426MOL0     C58683   0.978   6.957   1.763 -0.9274 -0.9640  0.4714
  426MOL0     C58684   0.902   7.010   1.862 -0.8061  0.0488 -0.5595
  426MOL0     C58685   0.910   7.143   1.907 -0.4066 -0.1216  0.5539
  426MOL0     O58686   0.826   7.201   2.009 -0.1157 -0.4392  0.2702
  426MOL0     C58687   0.843   7.159   2.146 -0.2303  0.3225 -0.5372
  426MOL0     C58688   0.978   7.228   2.201  1.0587 -0.6425 -0.5255
  426MOL0     C58689   1.028   7.187   2.341  0.3639  0.7246  0.5339
  426MOL0     C58690   1.066   7.034   2.344  1.0514 -0.1386  0.1475
  426MOL0     C58691   1.150   6.978   2.460 -0.9910 -0.1629  0.4276
  426MOL0     C58692   1.090   7.003   2.607  0.3626 -0.0560  0.6945
  426MOL0     C58693   1.151   6.916   2.709  0.0801  0.2883 -0.8000
  426MOL0     C58694   1.095   6.906   2.852  0.2894 -0.6632 -0.5221
  426MOL0    Cl58695   0.926   6.856   2.854  0.3045  0.0213 -0.2517
  426MOL0     C58696   1.007   7.225   1.843  0.0607  0.0433  0.0063
  426MOL0     C58697   1.087   7.172   1.743  0.2601 -0.5157 -0.5894
  426MOL0     O58698   0.993   6.927   1.472  0.5148 -0.8578  0.7077
  426MOL0     C58699   1.338   6.854   1.446  0.2471 -0.0196 -0.8535
  426MOL0     C58700   1.440   6.804   1.377  0.0490 -0.3901 -0.4013
  426MOL0     N58701   2.077   6.777   1.208 -0.7573 -0.1664  0.5178
  426MOL0     N58702   2.154   6.866   1.258  0.0637  0.5993  0.3529
  426MOL0     C58703   1.738   7.780   1.505  0.6736 -0.3361  1.1094
  426MOL0     C58704   1.622   7.723   1.548  0.2168  0.2677 -0.4852
  426MOL0     C58705   1.257   7.539   1.669 -0.6102  0.0641 -0.2885
  426MOL0     C58706   1.152   7.500   1.587  0.4664 -0.3851  0.3404
  426MOL0     C58707   1.022   7.515   1.626  0.3886  0.4106 -0.1304
  426MOL0     C58708   0.990   7.573   1.748  0.0033  0.0185  0.2160
  426MOL0     O58709   0.869   7.589   1.805 -0.0565 -0.2301  0.6016
  426MOL0     C58710   0.741   7.583   1.745 -0.0362 -0.6107  0.9300
  426MOL0     C58711   0.657   7.655   1.854  0.5948  0.7643  0.3817
  426MOL0     C58712   0.656   7.808   1.841  0.0904 -0.2310  0.8395
  426MOL0     C58713   0.542   7.859   1.762 -0.3636  1.0305  0.0913
  426MOL0     C58714   0.414   7.845   1.836  0.5782 -0.4326  0.2194
  426MOL0     C58715   0.304   7.845   1.890 -0.3269  0.7855  0.8205
  426MOL0     C58716   1.094   7.615   1.830  0.5915  1.1293  0.5162
  426MOL0     C58717   1.226   7.612   1.785 -0.5433 -0.8649  0.1582
  426MOL0     C58718   1.331   7.660   1.893  0.4443  0.4155  1.1009
  426MOL0     H58719   1.755   7.527   1.801  2.6482  0.8734  0.9043
  426MOL0     H58720   1.964   7.622   1.714  0.7262  1.4544  1.2513
  426MOL0     H58721   2.126   7.793   1.676  0.0112  2.6683  0.5340
  426MOL0     H58722   2.164   7.865   1.517  0.0497 -0.3355 -1.2132
  426MOL0     H58723   2.262   7.665   1.526  0.2783 -1.7884 -1.4246
  426MOL0     H58724   2.109   7.577   1.553 -0.4325  0.7594 -0.2420
  426MOL0     H58725   2.032   7.611   1.334  0.6135 -0.8219 -0.0557
  426MOL0     H58726   2.133   7.749   1.318  0.6221 -0.8568 -2.0758
  426MOL0     H58727   2.266   7.633   1.206 -0.0203  1.1487  1.7619
  426MOL0     H58728   2.329   7.554   1.356  0.6442 -1.0546  0.5022
  426MOL0     H58729   2.282   7.383   1.191 -1.1688 -2.4684 -0.4098
  426MOL0     H58730   2.126   7.426   1.169  1.0578 -1.4804  0.9360
  426MOL0     H58731   2.217   7.306   1.439 -1.4285  0.8217  2.8679
  426MOL0     H58732   2.064   7.381   1.417 -1.6348  0.5580 -1.3793
  426MOL0     H58733   2.009   7.205   1.249 -1.0292 -1.2442  1.2022
  426MOL0     H58734   2.058   7.138   1.403 -3.8178 -0.0736 -1.7308
  426MOL0     H58735   2.228   7.173   1.152 -4.6301 -3.3164 -4.1788
  426MOL0     H58736   2.289   7.097   1.301  1.4042 -0.2452 -2.5833
  426MOL0     H58737   2.018   7.040   1.018  1.1450 -1.6716 -1.9332
  426MOL0     H58738   1.934   6.671   1.001 -0.7809 -0.0779  1.4183
  426MOL0     H58739   1.943   6.814   0.904  2.7644 -1.0371 -0.3374
  426MOL0     H58740   1.765   6.815   1.149  2.6783  1.4695  0.4715
  426MOL0     H58741   1.774   6.927   1.011  0.1542 -0.2521 -1.8182
  426MOL0     H58742   1.679   6.743   0.872  1.6828 -1.1753  0.0362
  426MOL0     H58743   1.697   6.625   0.989 -2.0467 -0.9032 -1.0132
  426MOL0     H58744   1.502   6.869   1.020  1.3805  0.9332  1.4340
  426MOL0     H58745   1.452   6.705   0.986  0.4222 -0.5043 -0.0454
  426MOL0     H58746   1.281   6.812   1.070  0.4790  1.0605 -1.1378
  426MOL0     H58747   1.057   7.011   1.161 -2.0706  1.3628  3.6546
  426MOL0     H58748   0.979   6.882   1.261  1.5554 -1.4215  0.5928
  426MOL0     H58749   1.043   6.836   1.112 -1.0960  1.6462 -0.6334
  426MOL0     H58750   0.961   6.852   1.739 -0.2644 -0.7861 -0.8559
  426MOL0     H58751   0.820   6.952   1.904 -1.8380  0.6645 -1.6698
  426MOL0     H58752   0.757   7.182   2.210  0.6311 -0.4312  0.9434
  426MOL0     H58753   0.863   7.052   2.155  0.1462  0.5362  1.8474
  426MOL0     H58754   1.066   7.209   2.140 -0.8251 -4.1613 -2.4593
  426MOL0     H58755   0.963   7.336   2.205  1.6040 -0.5545  3.4056
  426MOL0     H58756   0.943   7.213   2.404 -0.7625  3.3117 -1.8392
  426MOL0     H58757   1.117   7.247   2.362  1.9377 -0.9238 -1.1108
  426MOL0     H58758   1.117   7.014   2.249 -0.5690 -0.0715 -0.7780
  426MOL0     H58759   0.973   6.977   2.339  0.1911  1.0726  1.4479
  426MOL0     H58760   1.151   6.871   2.437  0.9088 -0.1419  0.2568
  426MOL0     H58761   1.250   7.023   2.454 -1.4932  1.1945  1.4770
  426MOL0     H58762   0.983   6.982   2.592  0.7238 -0.7661 -1.3017
  426MOL0     H58763   1.107   7.107   2.633 -1.3519  0.8170 -1.3898
  426MOL0     H58764   1.259   6.926   2.718 -0.0129 -0.2003  1.4346
  426MOL0     H58765   1.133   6.818   2.664 -3.7501  0.6220 -0.3745
  426MOL0     H58766   1.101   7.000   2.907  1.6439 -1.8857  1.5207
  426MOL0     H58767   1.147   6.832   2.912 -1.4153 -0.3962  1.4066
  426MOL0     H58768   1.011   7.330   1.869  2.3052  0.5319 -1.9038
  426MOL0     H58769   1.163   7.238   1.702 -2.6000  3.8064  0.4634
  426MOL0     H58770   1.368   6.865   1.550 -1.9012 -3.6818  0.3510
  426MOL0     H58771   1.539   6.786   1.417  0.7293  0.4653 -1.6285
  426MOL0     H58772   1.735   7.844   1.417  3.5727 -3.3498 -1.4685
  426MOL0     H58773   1.525   7.737   1.500 -3.3290 -0.5757  5.4337
  426MOL0     H58774   1.168   7.449   1.492  1.9474 -1.4550  1.1146
  426MOL0     H58775   0.942   7.480   1.561  0.7774 -1.2472  0.2398
  426MOL0     H58776   0.714   7.632   1.651  1.9073  0.9048  1.0964
  426MOL0     H58777   0.709   7.481   1.725  1.7747 -1.0267 -0.0401
  426MOL0     H58778   0.701   7.631   1.952  2.7727 -3.8544 -1.4418
  426MOL0     H58779   0.558   7.610   1.848  1.3505 -0.8258 -1.2004
  426MOL0     H58780   0.665   7.860   1.937  4.2920 -1.2284  1.1805
  426MOL0     H58781   0.749   7.833   1.790 -2.2477 -2.3295 -5.4391
  426MOL0     H58782   0.536   7.807   1.666 -0.1595  0.3725  0.4248
  426MOL0     H58783   0.572   7.961   1.736 -0.1777  0.7617 -0.7984
  426MOL0     H58784   0.207   7.847   1.937  0.0142  2.9072  1.5710
  426MOL0     H58785   1.074   7.668   1.922  0.1441 -2.2611  2.5217
  426MOL0     H58786   1.402   7.723   1.839 -0.2014  1.3390  1.3081
  426MOL0     H58787   1.298   7.720   1.979  3.6556  1.3734  1.8298
  426MOL0     H58788   1.388   7.576   1.934 -0.7631 -0.0388  1.8937
  427MOL0     O58789   6.586   3.855   7.803  0.1742  0.0320 -0.2471
  427MOL0     C58790   6.498   3.801   7.872  0.0019 -0.2464 -0.8455
  427MOL0     O58791   6.386   3.739   7.830 -0.9255 -0.9066 -0.5700
  427MOL0     C58792   6.344   3.718   7.709  0.6726 -0.2095 -0.3740
  427MOL0     C58793   6.413   3.719   7.595  0.1871 -0.6262 -0.7594
  427MOL0     C58794   6.348   3.727   7.469 -0.4825  0.0561  0.8082
  427MOL0     C58795   6.216   3.728   7.459  1.2009 -0.8788  0.0139
  427MOL0     O58796   6.150   3.719   7.336  0.1080 -0.5485 -0.8798
  427MOL0     C58797   6.166   3.847   7.262  0.8380 -0.0020  0.6134
  427MOL0     C58798   6.035   3.859   7.177 -0.1670 -0.7465  0.8127
  427MOL0     C58799   6.017   3.745   7.069 -0.7769 -0.3717 -0.1576
  427MOL0     C58800   5.874   3.720   7.033 -0.3749 -1.0896  0.4462
  427MOL0     C58801   5.856   3.576   6.998 -0.0355 -0.1944  0.4233
  427MOL0     C58802   5.733   3.537   6.928 -0.4961 -0.5348 -0.4355
  427MOL0     C58803   5.747   3.387   6.874  0.2224 -0.0940 -1.3230
  427MOL0     C58804   5.613   3.312   6.830 -0.6299  0.3222  0.7236
  427MOL0     N58805   5.537   3.285   6.957 -0.8320 -0.2183  0.9365
  427MOL0     C58806   5.413   3.330   6.996  0.0162 -0.6522  1.2134
  427MOL0     C58807   5.389   3.285   7.118 -0.4497  0.2116 -0.5455
  427MOL0     C58808   5.277   3.312   7.218  0.4466  0.2597  1.2968
  427MOL0     C58809   5.319   3.402   7.322 -0.5302  0.5367  0.1722
  427MOL0     C58810   5.203   3.419   7.423  0.0695 -0.3197  0.1362
  427MOL0     C58811   5.159   3.299   7.504  0.3297 -0.5979  0.1599
  427MOL0     O58812   5.274   3.248   7.573  0.1078  0.5378  0.3150
  427MOL0     C58813   5.250   3.202   7.705  0.3633 -0.1766  0.0317
  427MOL0     C58814   5.361   3.180   7.789 -0.5397 -0.4903 -0.0655
  427MOL0     C58815   5.360   3.141   7.919  0.5768 -0.0588  0.6456
  427MOL0     C58816   5.493   3.122   7.993 -0.2127  0.3865  0.0436
  427MOL0     C58817   5.234   3.115   7.976 -0.8775  0.3028  0.0298
  427MOL0     C58818   5.214   3.067   8.117  0.0875 -0.5730  0.8321
  427MOL0     O58819   5.095   3.008   8.155 -0.5368 -0.1436  0.2355
  427MOL0     C58820   5.085   2.970   8.283  0.0336 -1.2645 -0.0861
  427MOL0     C58821   5.117   2.849   8.323  0.4852  0.4201 -0.4567
  427MOL0     C58822   5.110   2.806   8.457 -0.1609 -0.0304  0.7080
  427MOL0     C58823   5.054   2.897   8.547  0.5054  1.1399 -0.1503
  427MOL0     O58824   5.011   2.865   8.671  0.2171 -0.3331  0.0950
  427MOL0     C58825   5.063   2.752   8.745  0.3433  0.0248 -0.4839
  427MOL0     C58826   5.050   2.793   8.894 -0.1974  0.2203 -0.3221
  427MOL0     C58827   5.129   2.927   8.919 -0.4038 -0.1621  0.1937
  427MOL0     C58828   5.063   3.031   9.008  0.5300  0.8970  1.2861
  427MOL0     C58829   5.166   3.083   9.113 -0.3740  0.2557 -1.0945
  427MOL0     C58830   5.106   3.198   9.196  0.0950  0.1153  0.4450
  427MOL0     C58831   5.212   3.250   9.299 -0.4079 -0.0139  0.6562
  427MOL0     C58832   5.176   3.384   9.355  0.4373  0.6969 -0.2922
  427MOL0    Cl58833   5.039   3.378   9.462  0.2703 -0.0987 -0.2499
  427MOL0     C58834   5.026   3.024   8.513 -0.0461  0.0276 -0.4854
  427MOL0     C58835   5.038   3.069   8.383 -0.4377  0.4668  0.6202
  427MOL0     O58836   5.306   3.091   8.194  0.0488  0.0377  0.5910
  427MOL0     C58837   5.117   3.141   7.899 -0.0797  0.6129  0.4531
  427MOL0     C58838   5.127   3.174   7.762  0.8473  0.2282  0.2512
  427MOL0     N58839   5.499   3.203   7.153  0.2240  0.3968  0.4892
  427MOL0     N58840   5.580   3.198   7.055 -0.7258 -0.4896 -0.2018
  427MOL0     C58841   6.145   3.734   7.574  1.6846 -0.0230 -0.9107
  427MOL0     C58842   6.205   3.714   7.695 -0.4380  0.0993 -0.7195
  427MOL0     C58843   6.529   3.793   8.025 -0.2070  0.7888  0.2667
  427MOL0     C58844   6.628   3.879   8.067  0.4647 -0.0184  0.7978
  427MOL0     C58845   6.675   3.871   8.196  0.1885  0.0107  0.1220
  427MOL0     C58846   6.617   3.774   8.279 -0.3444 -0.4147  0.2250
  427MOL0     O58847   6.666   3.783   8.404 -0.5244  0.0824 -0.4359
  427MOL0     C58848   6.628   3.683   8.505 -0.2026  0.3667 -0.1620
  427MOL0     C58849   6.681   3.722   8.644  0.6488 -0.4226  1.1815
  427MOL0     C58850   6.641   3.858   8.701  0.8733  0.3752  0.3990
  427MOL0     C58851   6.524   3.842   8.803  0.0386 -0.2014 -0.0865
  427MOL0     C58852   6.466   3.980   8.841 -0.3668  0.0752  0.0664
  427MOL0     C58853   6.440   4.102   8.863 -0.2788 -0.2284  0.7467
  427MOL0     C58854   6.515   3.694   8.244  0.4147 -0.2145  0.3584
  427MOL0     C58855   6.467   3.695   8.114  0.0693  0.2729  0.9134
  427MOL0     C58856   6.363   3.594   8.087 -0.1099  0.5074  0.1834
  427MOL0     H58857   6.521   3.721   7.601  0.1966 -2.6256  0.9177
  427MOL0     H58858   6.412   3.737   7.382 -0.5144 -1.1574  0.6199
  427MOL0     H58859   6.260   3.854   7.206  1.1563 -0.3576  1.0885
  427MOL0     H58860   6.155   3.919   7.343  2.3047  0.0469  0.8051
  427MOL0     H58861   5.964   3.848   7.260 -0.4928 -3.0656  0.2904
  427MOL0     H58862   6.031   3.959   7.132 -1.7818 -1.8753 -1.7463
  427MOL0     H58863   6.075   3.762   6.978  0.9246 -2.9009  0.3523
  427MOL0     H58864   6.064   3.658   7.116  0.4453  0.8307  0.9196
  427MOL0     H58865   5.820   3.748   7.124 -1.2844  3.2808 -1.1940
  427MOL0     H58866   5.849   3.789   6.952  1.6329  1.2285  1.6792
  427MOL0     H58867   5.851   3.514   7.088 -1.1667  0.0617  0.5483
  427MOL0     H58868   5.935   3.543   6.929  0.1185  0.1006  0.4562
  427MOL0     H58869   5.650   3.537   7.000  1.0541 -0.2962  1.4116
  427MOL0     H58870   5.709   3.607   6.847  1.4592 -0.7945 -1.3002
  427MOL0     H58871   5.802   3.319   6.939  1.5743  0.0550 -2.2748
  427MOL0     H58872   5.806   3.384   6.782  3.1389 -2.4458  0.4285
  427MOL0     H58873   5.563   3.379   6.759  0.1878  0.1485 -0.0303
  427MOL0     H58874   5.631   3.222   6.770  1.5888  2.1778 -1.6555
  427MOL0     H58875   5.346   3.397   6.943 -0.2837 -1.1830  0.9012
  427MOL0     H58876   5.243   3.216   7.258  0.0629 -0.6909 -1.1230
  427MOL0     H58877   5.194   3.348   7.156  2.4449  1.1138 -1.0502
  427MOL0     H58878   5.408   3.361   7.370 -0.0088  2.6416  1.1618
  427MOL0     H58879   5.351   3.498   7.280  0.7151 -0.3032 -0.8485
  427MOL0     H58880   5.232   3.491   7.501  0.7317  0.3427 -0.7039
  427MOL0     H58881   5.108   3.447   7.377 -0.0459 -0.3212  0.3713
  427MOL0     H58882   5.071   3.336   7.559  1.2980  1.0059  0.7094
  427MOL0     H58883   5.120   3.228   7.431  1.7754 -2.8768  1.4525
  427MOL0     H58884   5.457   3.206   7.747  0.4324 -2.3764  0.8840
  427MOL0     H58885   5.504   3.044   8.069 -1.7242  0.2825  0.1940
  427MOL0     H58886   5.508   3.214   8.050 -2.0889  0.0906  1.1076
  427MOL0     H58887   5.566   3.106   7.913 -1.1495 -1.5877 -0.4960
  427MOL0     H58888   5.150   2.789   8.238  1.0033  0.0883 -0.0241
  427MOL0     H58889   5.136   2.701   8.468  1.7299  0.4095  0.8011
  427MOL0     H58890   5.000   2.666   8.719 -1.4050  0.3727  2.1692
  427MOL0     H58891   5.164   2.728   8.710  1.8203  2.1875  1.9336
  427MOL0     H58892   4.949   2.812   8.932  0.0292  0.7709  0.0208
  427MOL0     H58893   5.094   2.711   8.951 -2.2840 -1.9783 -1.6960
  427MOL0     H58894   5.173   2.968   8.827 -0.9309 -0.6974 -0.3009
  427MOL0     H58895   5.221   2.900   8.972 -1.7558  1.2855  3.5634
  427MOL0     H58896   4.971   2.999   9.059 -0.9185  1.0970 -1.0640
  427MOL0     H58897   5.035   3.113   8.941  1.6271  0.5745  0.4156
  427MOL0     H58898   5.182   2.992   9.172 -1.3703 -1.0116 -2.7006
  427MOL0     H58899   5.267   3.103   9.077 -0.0008 -0.5950 -0.5620
  427MOL0     H58900   5.024   3.149   9.248  0.0053 -0.7031 -0.4180
  427MOL0     H58901   5.063   3.279   9.136  0.1067  1.0398  1.6577
  427MOL0     H58902   5.307   3.267   9.248 -1.2300  0.5521 -0.7267
  427MOL0     H58903   5.230   3.184   9.385  0.8873  0.5118  0.8096
  427MOL0     H58904   5.161   3.448   9.267 -0.5491 -0.2201 -0.8157
  427MOL0     H58905   5.263   3.424   9.408 -0.5302 -0.6018  2.4634
  427MOL0     H58906   4.968   3.098   8.567 -2.5480 -0.7797 -1.9258
  427MOL0     H58907   5.007   3.170   8.359 -0.6259  0.0551 -0.9971
  427MOL0     H58908   5.017   3.128   7.938 -0.5221  0.6947 -0.6167
  427MOL0     H58909   5.041   3.191   7.698  1.1168  1.6704  0.2264
  427MOL0     H58910   6.036   3.737   7.577  1.7146  0.4783  1.3992
  427MOL0     H58911   6.139   3.708   7.781  1.5112 -0.6237  0.7959
  427MOL0     H58912   6.685   3.944   8.001  2.8426  0.6479  3.3295
  427MOL0     H58913   6.752   3.942   8.226  0.5391  0.2449 -1.2923
  427MOL0     H58914   6.524   3.654   8.519 -0.7526  1.5701 -1.4857
  427MOL0     H58915   6.677   3.590   8.473 -1.3459  0.5838 -2.7907
  427MOL0     H58916   6.790   3.724   8.634  0.4383  2.3948 -2.0828
  427MOL0     H58917   6.651   3.648   8.719 -1.0112 -0.4126  0.5763
  427MOL0     H58918   6.722   3.913   8.751  0.3359  1.3043  0.2873
  427MOL0     H58919   6.603   3.920   8.619  2.2592  2.0307  0.9485
  427MOL0     H58920   6.563   3.782   8.887  1.2465 -0.3081 -0.6977
  427MOL0     H58921   6.448   3.772   8.769  1.0337 -2.2181  1.5815
  427MOL0     H58922   6.426   4.207   8.879  0.5163 -0.0742  0.4815
  427MOL0     H58923   6.478   3.614   8.307 -1.1561 -0.4002 -0.7370
  427MOL0     H58924   6.403   3.518   8.019 -0.1954  0.1105  0.5702
  427MOL0     H58925   6.316   3.541   8.170 -1.8456 -2.2327 -2.3338
  427MOL0     H58926   6.290   3.653   8.030 -0.3869 -0.0648 -0.0662
  428MOL0     O58927   3.546  10.778   0.279 -0.0129  0.0173 -0.8246
  428MOL0     C58928   3.606  10.789   0.171  0.9158 -0.3788 -0.1918
  428MOL0     O58929   3.733  10.850   0.154  0.0878 -0.5086 -0.3893
  428MOL0     C58930   3.788  10.900   0.259  0.2480 -0.6287 -0.5383
  428MOL0     C58931   3.760  11.032   0.301  0.4012  0.2427 -1.1252
  428MOL0     C58932   3.833  11.093   0.413  0.3850 -0.7768 -0.1777
  428MOL0     C58933   3.931  11.021   0.478  0.0789  0.4541  0.2236
  428MOL0     O58934   4.011  11.060   0.582  0.5646 -0.5658  0.3258
  428MOL0     C58935   4.037  11.206   0.596 -0.2716 -0.1295 -0.4990
  428MOL0     C58936   4.032  11.242   0.745  0.2134 -0.8038 -0.0031
  428MOL0     C58937   4.007  11.401   0.757  1.4951  0.3740  0.3113
  428MOL0     C58938   4.017  11.459   0.901 -0.0047  0.6353  0.3992
  428MOL0     C58939   4.157  11.453   0.956 -1.0483  0.2941 -0.4735
  428MOL0     C58940   4.157  11.492   1.106  0.0617  0.1477  0.2347
  428MOL0     C58941   4.148  11.644   1.139  0.1164  0.2183  0.8740
  428MOL0     C58942   4.196  11.739   1.034 -0.0597 -0.4503 -0.1609
  428MOL0     N58943   4.197  11.878   1.087 -0.1712  0.7994  0.1565
  428MOL0     C58944   4.091  11.953   1.098 -0.0506  0.0286  0.7239
  428MOL0     C58945   4.129  12.079   1.126 -0.5001  0.4118  0.2374
  428MOL0     C58946   4.048  12.202   1.122 -0.2023 -0.0691  0.3377
  428MOL0     C58947   4.123  12.327   1.171  0.0566  0.2785 -0.5530
  428MOL0     C58948   4.052  12.460   1.155  0.4373  0.3180  0.0394
  428MOL0     C58949   4.135  12.575   1.215 -0.9994 -0.8637  0.4871
  428MOL0     O58950   4.066  12.696   1.261 -0.1173 -0.3469 -0.1316
  428MOL0     C58951   4.024  12.788   1.163  0.5864  0.3625  0.5480
  428MOL0     C58952   3.893  12.776   1.112 -0.7410  0.8293 -0.0258
  428MOL0     C58953   3.864  12.851   0.996  0.5945 -0.9578 -0.7563
  428MOL0     C58954   3.732  12.824   0.931  0.0719  0.3308  0.0340
  428MOL0     C58955   3.951  12.952   0.946  0.9463  0.7049  0.0517
  428MOL0     C58956   3.918  13.044   0.831 -0.6310 -0.0714 -0.4338
  428MOL0     O58957   4.030  13.061   0.748  0.1087 -0.0401  0.5426
  428MOL0     C58958   4.024  13.141   0.636  0.1290 -0.1258 -0.5733
  428MOL0     C58959   4.082  13.098   0.520  0.7754  0.0912  0.5248
  428MOL0     C58960   4.106  13.174   0.407  0.0358  1.1141 -0.1838
  428MOL0     C58961   4.051  13.299   0.407 -0.8097 -0.3415 -0.5309
  428MOL0     O58962   4.049  13.389   0.299  0.0984 -0.1512 -0.0477
  428MOL0     C58963   4.082  13.332   0.164 -0.7774  0.1404 -0.2443
  428MOL0     C58964   4.011  13.411   0.056 -0.1223  0.1566 -0.2236
  428MOL0     C58965   3.883  13.344   0.001  0.0797  0.8853 -0.4049
  428MOL0     C58966   3.777  13.443  -0.061  0.1784  0.5192 -0.3205
  428MOL0     C58967   3.638  13.400  -0.035  0.5937  0.9543  0.0797
  428MOL0     C58968   3.542  13.491  -0.104 -0.0125 -0.2394  0.2575
  428MOL0     C58969   3.401  13.438  -0.091  0.0084  0.8768  0.8119
  428MOL0     C58970   3.305  13.536  -0.150 -1.4733  0.6282  0.1315
  428MOL0    Cl58971   3.139  13.467  -0.130 -0.4230 -0.4754  0.1279
  428MOL0     C58972   3.996  13.347   0.528 -0.2197 -0.5992  0.3711
  428MOL0     C58973   3.982  13.273   0.640  0.6462  0.0711 -0.5737
  428MOL0     O58974   3.810  13.094   0.815 -0.1820  0.6513  0.1181
  428MOL0     C58975   4.077  12.956   1.005  0.0165 -1.1432 -0.2454
  428MOL0     C58976   4.108  12.879   1.116 -0.6137 -0.0306 -0.7631
  428MOL0     N58977   4.264  12.068   1.153  0.1303 -1.2089  0.3745
  428MOL0     N58978   4.302  11.950   1.122 -1.2798  0.2682  0.2913
  428MOL0     C58979   3.954  10.888   0.436  0.3843 -0.2436  0.1279
  428MOL0     C58980   3.886  10.830   0.333  0.6341  0.4400  0.7295
  428MOL0     C58981   3.545  10.724   0.059  0.6118 -0.6135 -0.0516
  428MOL0     C58982   3.450  10.619   0.081 -0.5910  0.4347  0.3253
  428MOL0     C58983   3.373  10.557  -0.019  0.5948  0.1548  0.6657
  428MOL0     C58984   3.393  10.595  -0.153 -0.3312 -0.2303  0.5757
  428MOL0     O58985   3.326  10.511  -0.241  1.0184 -1.1181 -0.4340
  428MOL0     C58986   3.292  10.564  -0.369 -1.0819  0.3115  0.8842
  428MOL0     C58987   3.185  10.480  -0.431 -0.3938 -1.1237 -0.8027
  428MOL0     C58988   3.242  10.348  -0.480 -0.9013 -0.4490  0.0697
  428MOL0     C58989   3.136  10.252  -0.535  0.1083  1.3818 -0.0605
  428MOL0     C58990   3.225  10.148  -0.593 -0.2443  0.4418 -0.4360
  428MOL0     C58991   3.288  10.056  -0.628  0.4335  0.9521 -0.2571
  428MOL0     C58992   3.481  10.707  -0.185  0.5701  0.5768 -1.2130
  428MOL0     C58993   3.554  10.764  -0.083  0.3199  0.5163  0.5553
  428MOL0     C58994   3.634  10.879  -0.129  0.9877 -0.4181  1.2674
  428MOL0     H58995   3.679  11.083   0.250  0.4299  0.3195 -1.0943
  428MOL0     H58996   3.807  11.194   0.442  1.1165 -0.7034  0.2577
  428MOL0     H58997   3.968  11.272   0.543 -0.6636  0.3627  0.5996
  428MOL0     H58998   4.138  11.217   0.555 -0.8517  1.0163 -1.7080
  428MOL0     H58999   3.956  11.195   0.809  0.7190 -1.7079 -0.0422
  428MOL0     H59000   4.133  11.218   0.780  0.1881 -2.3307 -0.8619
  428MOL0     H59001   4.079  11.445   0.688  1.2595  1.0182  0.4755
  428MOL0     H59002   3.903  11.415   0.725  2.5511  3.6489 -2.2371
  428MOL0     H59003   3.991  11.565   0.908  0.0966  0.7597 -0.8915
  428MOL0     H59004   3.953  11.398   0.966 -2.6557  0.5032 -2.1081
  428MOL0     H59005   4.222  11.513   0.891  1.2317  0.9275  2.2032
  428MOL0     H59006   4.201  11.353   0.948 -0.3608  0.7206 -2.7439
  428MOL0     H59007   4.082  11.434   1.159 -0.0261 -1.2664 -1.3580
  428MOL0     H59008   4.258  11.463   1.137  0.3401  1.3547  0.5112
  428MOL0     H59009   4.219  11.651   1.222  0.6237  0.3866  0.4306
  428MOL0     H59010   4.057  11.675   1.191  0.6834 -1.6589  3.1717
  428MOL0     H59011   4.292  11.709   0.990 -0.4991 -0.0191 -1.4695
  428MOL0     H59012   4.129  11.742   0.947 -0.3764 -3.0016 -0.0799
  428MOL0     H59013   3.989  11.924   1.075  0.3929 -1.1522  0.1933
  428MOL0     H59014   3.959  12.200   1.187 -0.0887  1.8035  0.6070
  428MOL0     H59015   4.022  12.217   1.017 -2.2592  2.4925  1.0735
  428MOL0     H59016   4.142  12.317   1.279 -0.4621  2.5340 -0.2117
  428MOL0     H59017   4.220  12.328   1.122 -0.3122 -0.3559 -1.3131
  428MOL0     H59018   4.048  12.476   1.046  0.3933 -2.9620 -0.5408
  428MOL0     H59019   3.948  12.462   1.191 -0.2973 -1.3645 -1.7908
  428MOL0     H59020   4.205  12.538   1.290  0.0957  0.2812  0.0708
  428MOL0     H59021   4.202  12.611   1.136  0.6008 -3.1162  0.7168
  428MOL0     H59022   3.827  12.695   1.144 -2.1995  2.6873  2.0288
  428MOL0     H59023   3.695  12.728   0.966  2.7585 -1.8530 -2.6222
  428MOL0     H59024   3.745  12.809   0.824 -1.7559 -1.0129 -0.0454
  428MOL0     H59025   3.653  12.899   0.937 -3.9763 -3.3964 -1.6516
  428MOL0     H59026   4.123  12.998   0.512 -0.1027 -0.1350 -4.5923
  428MOL0     H59027   4.159  13.141   0.318 -1.2069 -2.4904  0.2328
  428MOL0     H59028   4.188  13.336   0.138 -0.7530 -0.1416 -0.1900
  428MOL0     H59029   4.043  13.230   0.158  0.6609 -0.7275  2.8490
  428MOL0     H59030   3.994  13.508   0.104  1.5919 -0.3299  1.4929
  428MOL0     H59031   4.076  13.434  -0.029  1.0954  2.7133  1.2581
  428MOL0     H59032   3.825  13.308   0.087 -1.6916  2.6074 -0.7862
  428MOL0     H59033   3.910  13.265  -0.070 -0.8621  1.2193 -1.1667
  428MOL0     H59034   3.803  13.431  -0.166 -1.7075 -3.9505 -0.5154
  428MOL0     H59035   3.798  13.545  -0.027 -0.4307 -0.1655  2.3467
  428MOL0     H59036   3.627  13.301  -0.080 -0.7509  0.5884  1.1552
  428MOL0     H59037   3.615  13.399   0.072 -2.1431  2.8911 -0.3678
  428MOL0     H59038   3.575  13.503  -0.208  1.9648 -0.8407  0.7813
  428MOL0     H59039   3.545  13.593  -0.065 -0.5457 -0.4904  0.9803
  428MOL0     H59040   3.369  13.418   0.011  0.5751 -1.1484  0.6528
  428MOL0     H59041   3.404  13.341  -0.143  4.9414  1.1826  0.0206
  428MOL0     H59042   3.330  13.556  -0.254 -1.1677 -3.2774 -0.7263
  428MOL0     H59043   3.323  13.628  -0.095  0.3153  1.5392 -1.8502
  428MOL0     H59044   3.960  13.450   0.530 -1.0860 -0.7646 -2.6264
  428MOL0     H59045   3.951  13.296   0.742 -2.9111 -1.2149 -1.2450
  428MOL0     H59046   4.156  13.023   0.971  1.4183 -2.3811  0.4861
  428MOL0     H59047   4.199  12.884   1.175 -1.8130  2.2944  1.0798
  428MOL0     H59048   4.024  10.823   0.487 -0.5944  0.0792  1.9661
  428MOL0     H59049   3.900  10.726   0.306 -0.7662  0.4731 -0.2280
  428MOL0     H59050   3.431  10.586   0.182 -3.2047 -1.2745 -0.6317
  428MOL0     H59051   3.312  10.468  -0.003  0.5541  0.6915  3.9966
  428MOL0     H59052   3.254  10.667  -0.373 -2.5997 -0.2515 -0.3227
  428MOL0     H59053   3.376  10.551  -0.438 -0.4958 -0.0632  1.6561
  428MOL0     H59054   3.146  10.543  -0.512 -0.8464 -0.0657  0.2029
  428MOL0     H59055   3.110  10.464  -0.353 -2.5626  2.9983 -1.7258
  428MOL0     H59056   3.311  10.380  -0.558  1.6727 -0.4615  2.2058
  428MOL0     H59057   3.310  10.305  -0.406  1.9605  5.1675  1.2946
  428MOL0     H59058   3.073  10.282  -0.620 -2.5678 -1.6483  0.6982
  428MOL0     H59059   3.081  10.215  -0.449  2.3019 -2.1294  0.0266
  428MOL0     H59060   3.345   9.973  -0.665  0.0849  1.1258 -1.2212
  428MOL0     H59061   3.498  10.732  -0.289 -0.7499  1.5673 -1.2179
  428MOL0     H59062   3.579  10.956  -0.183  1.3062  0.5765  2.3124
  428MOL0     H59063   3.673  10.936  -0.044 -0.9509  0.1808  1.8224
  428MOL0     H59064   3.714  10.835  -0.189 -0.7816 -3.5184  0.9723
  429MOL0     O59065   7.338   1.955   9.963 -0.1485  0.8371 -0.5857
  429MOL0     C59066   7.225   1.939  10.005 -0.3842  0.2465  0.3175
  429MOL0     O59067   7.123   2.023   9.981 -0.3949 -0.5586 -0.0447
  429MOL0     C59068   7.158   2.140   9.916  0.2335 -0.9807 -0.2102
  429MOL0     C59069   7.119   2.152   9.784 -0.5030 -1.0724 -0.0327
  429MOL0     C59070   7.167   2.265   9.714 -0.3496  0.2771  0.2635
  429MOL0     C59071   7.245   2.367   9.768  0.7602  0.0239 -0.7921
  429MOL0     O59072   7.274   2.465   9.684 -0.4065 -0.2128 -0.2477
  429MOL0     C59073   7.396   2.530   9.704 -0.1975 -0.3988  0.9734
  429MOL0     C59074   7.455   2.564   9.563 -0.7203  0.4486 -0.2455
  429MOL0     C59075   7.479   2.434   9.494 -0.1862  0.6905  0.1642
  429MOL0     C59076   7.560   2.451   9.360  1.0560  0.6029  0.0211
  429MOL0     C59077   7.461   2.490   9.252  0.1683  0.3244 -0.5523
  429MOL0     C59078   7.513   2.471   9.119 -0.4866  0.7302  0.4852
  429MOL0     C59079   7.410   2.536   9.019 -0.1659  0.1753 -0.7918
  429MOL0     C59080   7.480   2.548   8.883  1.7928  0.0742 -0.4689
  429MOL0     N59081   7.522   2.422   8.823 -0.6658 -0.4133  0.1142
  429MOL0     C59082   7.451   2.348   8.730  0.0547  1.7364 -0.7817
  429MOL0     C59083   7.520   2.236   8.713  0.9352 -0.6332 -0.0138
  429MOL0     C59084   7.503   2.110   8.634  0.2515  0.3183  0.0133
  429MOL0     C59085   7.379   2.042   8.687  1.1244 -0.3149 -0.1285
  429MOL0     C59086   7.336   1.931   8.580 -0.0349  0.0502 -1.1972
  429MOL0     C59087   7.219   1.849   8.624 -0.6923  0.0983  0.1355
  429MOL0     O59088   7.250   1.780   8.749 -1.0131 -0.1012  0.1914
  429MOL0     C59089   7.268   1.646   8.735 -0.3760 -0.3683  0.3321
  429MOL0     C59090   7.160   1.565   8.769  0.1088  0.2293  0.4495
  429MOL0     C59091   7.176   1.426   8.762  0.5512  0.0696  0.3353
  429MOL0     C59092   7.045   1.346   8.773 -0.6205  0.2503  0.9470
  429MOL0     C59093   7.312   1.377   8.728 -0.9029  0.0253 -0.3090
  429MOL0     C59094   7.354   1.231   8.739  0.4445  0.6103  0.2564
  429MOL0     O59095   7.308   1.162   8.844 -0.0128 -0.1375 -0.4559
  429MOL0     C59096   7.310   1.031   8.861 -0.5031  0.0101 -0.1309
  429MOL0     C59097   7.380   0.982   8.977  0.2736 -0.6746 -0.5359
  429MOL0     C59098   7.374   0.842   8.998  0.5442 -0.2252 -0.5766
  429MOL0     C59099   7.305   0.759   8.918  0.3369  0.2951  0.4948
  429MOL0     O59100   7.297   0.629   8.937 -0.0661 -0.6455  0.5057
  429MOL0     C59101   7.382   0.551   9.018 -0.3668  0.1850  0.3030
  429MOL0     C59102   7.337   0.561   9.162  0.1772  0.4950  0.2703
  429MOL0     C59103   7.190   0.489   9.184  0.2245  0.2596  0.4497
  429MOL0     C59104   7.205   0.409   9.311 -0.6773 -0.7672  0.1843
  429MOL0     C59105   7.063   0.378   9.366 -0.7375 -0.2768  0.4179
  429MOL0     C59106   6.996   0.255   9.302  0.7345 -0.0110  0.9411
  429MOL0     C59107   6.881   0.202   9.382 -0.3898  0.6201 -1.1970
  429MOL0     C59108   6.868   0.053   9.359 -0.8418  0.9284 -0.8256
  429MOL0    Cl59109   6.748  -0.009   9.483 -0.1069 -0.1076  0.4285
  429MOL0     C59110   7.257   0.811   8.800  0.7103 -0.0616 -0.3423
  429MOL0     C59111   7.247   0.941   8.764  0.3864  0.1814 -0.1773
  429MOL0     O59112   7.424   1.179   8.644  0.1912  0.2585 -0.1233
  429MOL0     C59113   7.424   1.462   8.713 -0.3633  0.1457  0.1453
  429MOL0     C59114   7.401   1.600   8.722 -0.9810 -0.0250  0.8734
  429MOL0     N59115   7.641   2.253   8.777 -0.4062 -0.2125 -0.6951
  429MOL0     N59116   7.642   2.357   8.850  0.2035  0.0202  0.7333
  429MOL0     C59117   7.277   2.358   9.905 -0.7167 -0.3848  1.0562
  429MOL0     C59118   7.238   2.239   9.972 -0.4726 -0.7140 -0.7597
  429MOL0     C59119   7.200   1.814  10.085  1.1976 -0.0471 -0.4245
  429MOL0     C59120   7.088   1.809  10.166  0.4599  0.2379  0.5544
  429MOL0     C59121   7.064   1.710  10.253  1.1893 -0.3324 -0.0661
  429MOL0     C59122   7.161   1.610  10.282 -0.1512  0.1571  0.6910
  429MOL0     O59123   7.157   1.512  10.370  0.1731 -0.4080  0.4457
  429MOL0     C59124   7.098   1.529  10.504  0.3177  0.6827  0.4556
  429MOL0     C59125   6.988   1.424  10.530  0.6678  0.4849  1.2986
  429MOL0     C59126   6.922   1.436  10.660  0.6605  0.3526  0.2980
  429MOL0     C59127   6.789   1.366  10.653  0.1923  0.4304  0.3417
  429MOL0     C59128   6.747   1.368  10.792  0.6961  0.4770 -0.4565
  429MOL0     C59129   6.698   1.335  10.894  0.4608  0.7489  0.2760
  429MOL0     C59130   7.272   1.606  10.193  0.8573 -0.0934 -0.6899
  429MOL0     C59131   7.282   1.702  10.091 -1.3750  0.6211 -0.1908
  429MOL0     C59132   7.387   1.669   9.980  0.3223 -0.7222  0.3306
  429MOL0     H59133   7.060   2.070   9.743  1.5266 -2.2455 -0.7901
  429MOL0     H59134   7.132   2.283   9.613  0.0639  2.1801  0.4159
  429MOL0     H59135   7.475   2.475   9.757 -0.3752  0.7021  2.4244
  429MOL0     H59136   7.378   2.620   9.763 -1.1485 -2.3584  3.8251
  429MOL0     H59137   7.389   2.615   9.493  0.6326  0.8765 -1.2410
  429MOL0     H59138   7.545   2.624   9.576  2.3070 -3.8339  0.7311
  429MOL0     H59139   7.548   2.372   9.553 -0.0118  1.5736  0.9047
  429MOL0     H59140   7.390   2.370   9.485  0.5318 -0.3114 -0.0133
  429MOL0     H59141   7.651   2.513   9.357 -0.9592  3.8113 -3.2180
  429MOL0     H59142   7.589   2.351   9.329 -2.0202 -0.9052  1.5940
  429MOL0     H59143   7.438   2.597   9.262  1.4440  0.7692 -2.1134
  429MOL0     H59144   7.365   2.442   9.273 -0.3366  2.2282  2.0589
  429MOL0     H59145   7.613   2.516   9.112 -0.1247 -0.2662 -2.2871
  429MOL0     H59146   7.533   2.364   9.115 -1.8510  0.4806 -2.0625
  429MOL0     H59147   7.367   2.631   9.051  1.5286 -0.7948  5.7911
  429MOL0     H59148   7.328   2.465   9.004 -0.5636  0.2594  0.8843
  429MOL0     H59149   7.402   2.592   8.820 -0.0634  1.6939  2.6815
  429MOL0     H59150   7.560   2.623   8.887  0.4091  1.5783  0.4305
  429MOL0     H59151   7.355   2.372   8.685  0.1055 -1.0440 -2.6455
  429MOL0     H59152   7.595   2.055   8.655 -0.7793 -1.6919 -0.5841
  429MOL0     H59153   7.491   2.133   8.528 -2.4131 -0.7839  0.0067
  429MOL0     H59154   7.394   1.976   8.773 -2.6328  1.8453  2.4587
  429MOL0     H59155   7.299   2.114   8.703  1.4329  0.0372 -0.1583
  429MOL0     H59156   7.312   1.985   8.489  0.3052 -0.7347 -1.7605
  429MOL0     H59157   7.416   1.865   8.545 -0.0121  1.1501 -3.3858
  429MOL0     H59158   7.144   1.927   8.641  0.4741  0.9059  1.8374
  429MOL0     H59159   7.200   1.774   8.547 -3.6117  1.7113 -0.8674
  429MOL0     H59160   7.065   1.608   8.799 -2.4386 -2.2077 -3.1957
  429MOL0     H59161   7.069   1.253   8.825  1.7679  1.5099  2.2223
  429MOL0     H59162   7.010   1.320   8.673 -0.3784 -0.5001  1.0522
  429MOL0     H59163   6.965   1.394   8.831 -1.8446 -0.5684 -0.0063
  429MOL0     H59164   7.440   1.054   9.031 -1.5022  2.5832 -2.5852
  429MOL0     H59165   7.425   0.809   9.089  0.2893  0.9664  0.0134
  429MOL0     H59166   7.378   0.448   8.980  0.1972  0.2224  0.1330
  429MOL0     H59167   7.481   0.593   8.999 -0.6506  0.7728  0.0742
  429MOL0     H59168   7.413   0.531   9.235  0.2610  2.1670  0.9090
  429MOL0     H59169   7.313   0.661   9.198  2.1116  1.6329 -1.3605
  429MOL0     H59170   7.170   0.414   9.107  0.8015 -1.0137  1.4999
  429MOL0     H59171   7.118   0.571   9.191 -0.0752 -0.0909  1.7204
  429MOL0     H59172   7.263   0.469   9.381  0.0655 -2.4185  1.0384
  429MOL0     H59173   7.267   0.320   9.297  2.8749  1.6061 -0.3673
  429MOL0     H59174   7.079   0.360   9.472 -0.5419  1.9066  0.8007
  429MOL0     H59175   7.004   0.470   9.360 -1.5606 -0.7784  0.6465
  429MOL0     H59176   7.070   0.175   9.304 -2.0330 -2.7604  1.0253
  429MOL0     H59177   6.966   0.288   9.202  1.3769  0.1924  0.8107
  429MOL0     H59178   6.784   0.252   9.375 -1.4647  0.0318  4.5627
  429MOL0     H59179   6.914   0.223   9.484 -0.5297 -1.0741 -0.7801
  429MOL0     H59180   6.964   0.003   9.375 -1.5920 -1.0542 -2.1067
  429MOL0     H59181   6.828   0.049   9.258 -2.3100  1.1947 -0.2799
  429MOL0     H59182   7.210   0.737   8.736  2.9027 -2.4374  0.6655
  429MOL0     H59183   7.209   0.964   8.666  0.5097  0.4502 -0.1622
  429MOL0     H59184   7.521   1.419   8.693 -2.1363 -3.8915 -0.8339
  429MOL0     H59185   7.489   1.664   8.714 -1.6187  0.6815 -1.2792
  429MOL0     H59186   7.340   2.427   9.961  4.8330 -4.3011  0.5462
  429MOL0     H59187   7.271   2.241  10.075  0.9570 -1.6499 -1.1781
  429MOL0     H59188   7.013   1.887  10.157  1.2263  0.8570 -0.6568
  429MOL0     H59189   6.979   1.705  10.321 -0.7152 -2.9616 -2.3818
  429MOL0     H59190   7.181   1.507  10.572  0.5461  0.7157  0.1870
  429MOL0     H59191   7.068   1.633  10.522  1.0571  1.4284 -2.2031
  429MOL0     H59192   7.032   1.325  10.517 -0.9366 -0.2458  1.2658
  429MOL0     H59193   6.915   1.431  10.449  2.2014  2.0356 -0.0498
  429MOL0     H59194   6.986   1.396  10.739 -0.1441 -0.3070  0.6306
  429MOL0     H59195   6.891   1.538  10.684  0.0247  0.7748 -2.0823
  429MOL0     H59196   6.801   1.262  10.621  0.9774  1.0071 -1.3368
  429MOL0     H59197   6.716   1.414  10.588 -1.1599  1.1523  2.2819
  429MOL0     H59198   6.667   1.300  10.990  2.9988  0.7570  1.1466
  429MOL0     H59199   7.326   1.512  10.204 -0.9962 -1.4719 -2.5217
  429MOL0     H59200   7.484   1.719   9.987  1.3907 -2.3952 -1.4223
  429MOL0     H59201   7.407   1.561   9.981  0.8355 -0.6828 -1.7126
  429MOL0     H59202   7.351   1.687   9.878 -3.8279 -0.3176  1.6876
  430MOL0     O59203   6.960   3.254   9.410 -0.0078 -0.9988  0.0864
  430MOL0     C59204   7.017   3.283   9.511 -0.4477  0.2224  0.4585
  430MOL0     O59205   7.142   3.333   9.519  0.2812  0.3368 -0.5167
  430MOL0     C59206   7.215   3.367   9.413  0.7162  0.6320  0.1123
  430MOL0     C59207   7.261   3.498   9.390  0.9743  0.1942  0.2322
  430MOL0     C59208   7.340   3.525   9.276  1.1315  0.2853 -1.2855
  430MOL0     C59209   7.373   3.418   9.182  0.0952 -0.3805 -0.5059
  430MOL0     O59210   7.442   3.452   9.065 -0.0179 -0.3154 -0.2222
  430MOL0     C59211   7.479   3.349   8.966 -0.0857 -0.2875 -0.4053
  430MOL0     C59212   7.598   3.406   8.889 -0.6891  0.1171 -0.2641
  430MOL0     C59213   7.526   3.526   8.828  0.0476 -0.4859  0.6898
  430MOL0     C59214   7.534   3.495   8.675  0.0481  0.0325 -0.5959
  430MOL0     C59215   7.475   3.596   8.579  0.4597 -0.7156 -0.2886
  430MOL0     C59216   7.505   3.583   8.434 -0.2835  0.3097  0.2790
  430MOL0     C59217   7.456   3.452   8.391 -0.2853 -0.6403  0.0188
  430MOL0     C59218   7.439   3.437   8.243  0.0126  1.2536 -0.4488
  430MOL0     N59219   7.373   3.545   8.177  0.8837  0.0502  0.7854
  430MOL0     C59220   7.241   3.542   8.142  0.1543  0.5939  0.0665
  430MOL0     C59221   7.221   3.663   8.076  0.9140 -0.2517  0.1448
  430MOL0     C59222   7.088   3.722   8.033 -0.3327 -0.1604  1.6807
  430MOL0     C59223   7.105   3.778   7.884  0.4682  0.1653 -0.3850
  430MOL0     C59224   6.976   3.797   7.802 -0.5583 -1.1843 -0.3454
  430MOL0     C59225   6.999   3.742   7.660  0.2199 -0.1856 -0.1146
  430MOL0     O59226   7.062   3.854   7.576 -0.0169 -0.3020  0.5613
  430MOL0     C59227   6.973   3.939   7.510 -0.8565 -1.1561  0.4472
  430MOL0     C59228   6.832   3.938   7.517  0.1611  0.3664 -0.1670
  430MOL0     C59229   6.753   4.027   7.445  0.2265 -0.4694 -0.9866
  430MOL0     C59230   6.604   4.018   7.471  0.5834 -0.5158  0.3594
  430MOL0     C59231   6.823   4.118   7.357  0.9316  0.5211  0.9243
  430MOL0     C59232   6.749   4.219   7.267 -0.1675  0.5241 -0.2417
  430MOL0     O59233   6.620   4.228   7.273 -1.1326  0.2046  0.1271
  430MOL0     C59234   6.552   4.305   7.185  0.2680 -0.1969 -0.2228
  430MOL0     C59235   6.456   4.253   7.096 -1.6234  0.2838  0.2482
  430MOL0     C59236   6.388   4.341   7.013  0.6552 -1.0004  0.5922
  430MOL0     C59237   6.406   4.477   7.014 -0.8423  0.4945  0.1546
  430MOL0     O59238   6.332   4.573   6.941  0.0529  0.5229 -0.1141
  430MOL0     C59239   6.270   4.529   6.821 -0.0317 -0.3082  0.2760
  430MOL0     C59240   6.175   4.639   6.762  1.0443  0.0896 -0.2897
  430MOL0     C59241   6.055   4.635   6.858  0.0323 -0.2839  0.3475
  430MOL0     C59242   5.959   4.752   6.823 -0.4473  0.3354 -0.4412
  430MOL0     C59243   6.022   4.897   6.826  0.8044  1.6508 -0.9078
  430MOL0     C59244   5.912   4.996   6.811  0.8065  0.9776  0.5654
  430MOL0     C59245   5.828   5.002   6.951 -0.2123  0.1240  0.1241
  430MOL0     C59246   5.839   5.130   7.030  0.1697 -0.6008 -0.6853
  430MOL0    Cl59247   5.776   5.113   7.191  0.2400  0.6250 -0.3129
  430MOL0     C59248   6.505   4.529   7.103 -0.1585  0.3076  0.6520
  430MOL0     C59249   6.574   4.448   7.186  0.4631  0.0153  0.0780
  430MOL0     O59250   6.823   4.297   7.207 -0.4917 -0.6743 -0.5538
  430MOL0     C59251   6.960   4.116   7.348 -0.0841  0.6052  0.0466
  430MOL0     C59252   7.038   4.032   7.427 -1.3136 -0.2618 -0.1150
  430MOL0     N59253   7.331   3.742   8.090 -0.0699  0.7542 -0.2030
  430MOL0     N59254   7.417   3.668   8.148 -0.1531  0.1261 -0.8245
  430MOL0     C59255   7.329   3.284   9.207 -0.1985 -0.3397  0.0748
  430MOL0     C59256   7.265   3.257   9.333  0.1484 -0.0141 -0.0094
  430MOL0     C59257   6.940   3.286   9.634  0.5349 -0.0707 -0.0811
  430MOL0     C59258   7.005   3.339   9.751 -1.2130 -0.2359  0.3905
  430MOL0     C59259   6.935   3.360   9.873  0.9208  1.0525 -0.6125
  430MOL0     C59260   6.802   3.323   9.887 -0.4838 -0.3873  0.0727
  430MOL0     O59261   6.746   3.330  10.018  0.6505 -0.3771  0.8693
  430MOL0     C59262   6.655   3.222  10.062 -0.1189 -0.4829 -0.8432
  430MOL0     C59263   6.713   3.087  10.075  0.5151 -0.0583 -0.2212
  430MOL0     C59264   6.602   2.999  10.132 -0.7203  0.7278  1.1543
  430MOL0     C59265   6.568   2.883  10.041  0.6291  0.5854  0.8136
  430MOL0     C59266   6.494   2.922   9.919 -0.3273 -0.4816  0.8399
  430MOL0     C59267   6.443   2.964   9.823  0.4367  0.7596  1.4246
  430MOL0     C59268   6.738   3.275   9.774 -0.6867 -0.0761 -0.4317
  430MOL0     C59269   6.798   3.251   9.651  0.1560  0.3710 -0.0459
  430MOL0     C59270   6.714   3.187   9.551 -0.8395 -0.5322 -0.2414
  430MOL0     H59271   7.240   3.570   9.468  3.8840 -1.0791  2.3901
  430MOL0     H59272   7.367   3.630   9.265 -2.3024  1.4896  0.1925
  430MOL0     H59273   7.405   3.315   8.892 -0.0171  1.7023 -1.4579
  430MOL0     H59274   7.523   3.259   9.009 -3.2697 -0.8918  2.0036
  430MOL0     H59275   7.677   3.434   8.959 -0.0503 -0.7628 -0.6173
  430MOL0     H59276   7.636   3.338   8.812  0.2726  1.1184 -0.7152
  430MOL0     H59277   7.428   3.560   8.862  0.3802  2.0407 -0.6372
  430MOL0     H59278   7.589   3.614   8.843  0.3350 -0.7684  1.1779
  430MOL0     H59279   7.636   3.476   8.640 -1.2652 -0.8919 -4.4029
  430MOL0     H59280   7.469   3.407   8.664 -2.1041  1.0015  2.8355
  430MOL0     H59281   7.510   3.694   8.613 -0.6550 -0.2195 -0.4983
  430MOL0     H59282   7.365   3.603   8.580  0.5194  0.7850 -0.9687
  430MOL0     H59283   7.461   3.670   8.385  2.3837  1.8641  0.4392
  430MOL0     H59284   7.610   3.579   8.404 -0.8139 -2.1745 -1.5718
  430MOL0     H59285   7.358   3.453   8.440  1.0359 -0.2388  2.8691
  430MOL0     H59286   7.523   3.377   8.436  1.3439  2.2211  2.7549
  430MOL0     H59287   7.538   3.428   8.198 -0.5562 -0.8003 -1.3629
  430MOL0     H59288   7.388   3.342   8.232  1.0333  0.3353  2.0379
  430MOL0     H59289   7.164   3.471   8.170 -0.4208  0.3125 -2.0193
  430MOL0     H59290   7.049   3.793   8.107 -1.0712 -0.9833  2.0969
  430MOL0     H59291   7.014   3.644   8.015  1.5328 -1.7461  0.3525
  430MOL0     H59292   7.151   3.876   7.899  0.8053 -0.0451 -0.0159
  430MOL0     H59293   7.175   3.726   7.819 -0.3432 -0.2714 -0.9207
  430MOL0     H59294   6.906   3.742   7.865  0.2643 -3.6679 -1.4672
  430MOL0     H59295   6.963   3.905   7.805  1.4807 -0.9070  0.0337
  430MOL0     H59296   7.064   3.654   7.662  2.2750  1.2650  0.1086
  430MOL0     H59297   6.904   3.711   7.615 -0.7119  1.4418  0.6406
  430MOL0     H59298   6.768   3.879   7.582 -1.4668  1.9972 -0.2025
  430MOL0     H59299   6.583   3.932   7.536  2.1622 -0.5608  0.8560
  430MOL0     H59300   6.542   4.011   7.381 -0.6738 -0.7744  1.2095
  430MOL0     H59301   6.577   4.106   7.530  2.8389  2.4521 -2.6881
  430MOL0     H59302   6.442   4.148   7.072 -0.9886  0.0862  0.7099
  430MOL0     H59303   6.328   4.285   6.941  2.4794 -0.0528 -1.7906
  430MOL0     H59304   6.347   4.496   6.751  0.0147 -0.0083  0.1868
  430MOL0     H59305   6.209   4.440   6.843  0.2662  0.0777  2.9386
  430MOL0     H59306   6.226   4.735   6.755 -3.2451  2.6187 -0.7877
  430MOL0     H59307   6.121   4.610   6.672 -1.9106  0.0318  1.3607
  430MOL0     H59308   6.095   4.657   6.958  2.3137  0.1139 -0.5979
  430MOL0     H59309   6.004   4.538   6.866 -0.4646 -0.2899 -2.1760
  430MOL0     H59310   5.876   4.753   6.894  2.0486  2.2977  2.6987
  430MOL0     H59311   5.928   4.734   6.719  1.2156  0.3114 -0.9649
  430MOL0     H59312   6.055   4.912   6.929 -0.9608 -1.6568  0.2602
  430MOL0     H59313   6.095   4.911   6.746  1.5127  1.7498 -0.2533
  430MOL0     H59314   5.841   4.973   6.731 -1.3073  1.9293  2.0602
  430MOL0     H59315   5.953   5.095   6.789  1.9313  0.8420  1.9107
  430MOL0     H59316   5.843   4.915   7.015 -2.0502 -0.3147  0.0145
  430MOL0     H59317   5.723   4.987   6.923 -0.0499 -0.9722  0.0571
  430MOL0     H59318   5.817   5.222   6.975  3.6580 -1.4994 -4.0061
  430MOL0     H59319   5.946   5.142   7.052 -0.8104  1.8221  4.2226
  430MOL0     H59320   6.519   4.637   7.109 -0.6929  0.5060 -1.0448
  430MOL0     H59321   6.645   4.483   7.260  0.2231  3.1808 -1.0103
  430MOL0     H59322   7.024   4.168   7.277  1.5057  0.4830  1.3538
  430MOL0     H59323   7.146   4.029   7.419 -1.1351 -0.4340  1.8430
  430MOL0     H59324   7.356   3.206   9.136  3.0283  1.2458 -0.6389
  430MOL0     H59325   7.237   3.154   9.352 -1.9953  0.6585  0.7258
  430MOL0     H59326   7.110   3.365   9.748 -0.2629 -3.5494  1.5354
  430MOL0     H59327   6.982   3.396   9.964  3.3246  0.6879 -1.6347
  430MOL0     H59328   6.614   3.252  10.159 -1.2220 -0.6840 -1.2313
  430MOL0     H59329   6.571   3.208   9.992 -0.3928 -1.8888 -0.2521
  430MOL0     H59330   6.804   3.080  10.133  0.2839  2.5604  0.5979
  430MOL0     H59331   6.737   3.054   9.973  0.7064  0.6519 -0.4154
  430MOL0     H59332   6.627   2.950  10.227 -1.3520  1.8657  1.9352
  430MOL0     H59333   6.512   3.058  10.152 -1.0334  0.4328  0.6355
  430MOL0     H59334   6.503   2.820  10.103 -0.0027  0.5401  0.1132
  430MOL0     H59335   6.664   2.835  10.020 -0.2117 -0.4483 -0.8840
  430MOL0     H59336   6.393   2.995   9.734  1.4876 -0.6723  0.2712
  430MOL0     H59337   6.644   3.224   9.791  0.5214 -1.8367  1.3966
  430MOL0     H59338   6.694   3.267   9.480  0.4724 -0.9253 -1.0903
  430MOL0     H59339   6.770   3.120   9.485 -1.1530 -0.3126 -0.7367
  430MOL0     H59340   6.626   3.134   9.589  1.0400 -2.4746  1.6994
  431MOL0     O59341   6.844   1.394  11.234 -0.2148 -0.6590 -0.0399
  431MOL0     C59342   6.912   1.298  11.197 -1.1612 -0.0702  0.0208
  431MOL0     O59343   7.029   1.304  11.133  0.3471  0.3910  0.0533
  431MOL0     C59344   7.080   1.430  11.103  0.9121 -0.1201  1.0540
  431MOL0     C59345   7.210   1.460  11.131 -0.2704 -0.6637  0.5721
  431MOL0     C59346   7.254   1.592  11.099 -0.2315  0.1550  0.7230
  431MOL0     C59347   7.170   1.677  11.024  0.3422 -0.4069 -0.1953
  431MOL0     O59348   7.208   1.799  10.973 -0.7605 -0.4138 -0.0551
  431MOL0     C59349   7.333   1.808  10.902 -0.1480  0.1052 -0.2890
  431MOL0     C59350   7.320   1.738  10.759 -0.2561 -0.7857  0.2384
  431MOL0     C59351   7.384   1.813  10.652  0.0973 -0.0152 -0.1237
  431MOL0     C59352   7.305   1.944  10.600 -0.9622 -0.4363 -0.9969
  431MOL0     C59353   7.343   1.995  10.459 -0.1361 -0.1732  0.3997
  431MOL0     C59354   7.489   1.976  10.426 -0.7438  0.3057  0.4748
  431MOL0     C59355   7.545   2.043  10.291  0.2245  0.7000  0.3377
  431MOL0     C59356   7.547   2.187  10.299  0.8312 -0.6574  0.3437
  431MOL0     N59357   7.618   2.245  10.185 -0.3293 -0.1053  0.3565
  431MOL0     C59358   7.593   2.217  10.057 -0.0964 -0.3383  0.2265
  431MOL0     C59359   7.709   2.258   9.990 -0.4508 -0.3961  0.9990
  431MOL0     C59360   7.717   2.284   9.840  0.7113  0.8355  0.4879
  431MOL0     C59361   7.720   2.144   9.769 -0.2035 -1.4128  0.5395
  431MOL0     C59362   7.580   2.084   9.747 -0.8645 -0.3370  0.1547
  431MOL0     C59363   7.600   1.948   9.677  0.0261  0.8510 -0.2924
  431MOL0     O59364   7.468   1.888   9.675 -0.1493 -0.7128  0.1144
  431MOL0     C59365   7.376   1.935   9.584  0.0506  0.2576 -0.1178
  431MOL0     C59366   7.398   2.034   9.485 -0.1724 -0.3190 -0.2235
  431MOL0     C59367   7.309   2.050   9.378 -0.7741 -0.4841 -0.3373
  431MOL0     C59368   7.353   2.140   9.265  0.1063  0.3329 -1.4422
  431MOL0     C59369   7.196   1.975   9.372 -0.4212  0.2001  0.4196
  431MOL0     C59370   7.086   1.991   9.277  0.1541 -0.2876  0.0758
  431MOL0     O59371   7.048   2.124   9.256 -0.5300 -0.1735  0.6165
  431MOL0     C59372   6.965   2.140   9.145 -0.2142 -0.3479 -0.1827
  431MOL0     C59373   7.008   2.218   9.037  0.1558  0.0805 -0.8524
  431MOL0     C59374   6.921   2.245   8.936  0.4459 -0.6478 -0.6791
  431MOL0     C59375   6.780   2.210   8.943 -0.0084 -0.4612  0.2505
  431MOL0     O59376   6.684   2.235   8.850  0.7931 -0.1573 -0.0607
  431MOL0     C59377   6.729   2.286   8.722 -0.6076 -0.3827  0.1562
  431MOL0     C59378   6.609   2.318   8.643 -0.6645  1.0690 -0.3840
  431MOL0     C59379   6.662   2.381   8.519  0.4241  0.3863 -1.1490
  431MOL0     C59380   6.553   2.432   8.429 -0.3306  0.2687 -0.1695
  431MOL0     C59381   6.601   2.525   8.322  0.0814  0.3733  1.2433
  431MOL0     C59382   6.632   2.455   8.190  0.5252 -0.6106  0.0955
  431MOL0     C59383   6.640   2.544   8.068 -0.2785 -0.2710  0.3693
  431MOL0     C59384   6.772   2.621   8.060 -0.0041  0.2163 -0.1644
  431MOL0    Cl59385   6.832   2.707   7.913  0.3714 -0.1097  0.0470
  431MOL0     C59386   6.740   2.137   9.055  0.3915 -0.4090  0.6884
  431MOL0     C59387   6.825   2.114   9.159  0.0969  1.1253 -0.0362
  431MOL0     O59388   7.043   1.890   9.217 -0.6388  0.1627 -1.0427
  431MOL0     C59389   7.172   1.882   9.470  0.3942 -0.2378 -0.1026
  431MOL0     C59390   7.254   1.870   9.582 -0.9342  0.6951 -0.6869
  431MOL0     N59391   7.807   2.312  10.071 -0.0694 -0.3541 -0.5982
  431MOL0     N59392   7.751   2.301  10.193 -0.0637 -0.1835  0.5144
  431MOL0     C59393   7.038   1.639  10.992 -0.4217  0.0874  0.3817
  431MOL0     C59394   6.989   1.518  11.029 -0.7446 -0.2992 -0.2460
  431MOL0     C59395   6.862   1.164  11.192  0.7091  0.4387  0.0895
  431MOL0     C59396   6.886   1.077  11.078 -0.5858  1.1558 -0.1997
  431MOL0     C59397   6.841   0.941  11.087  0.5269 -0.1727 -0.2343
  431MOL0     C59398   6.780   0.887  11.194  0.2481 -0.7303 -0.3436
  431MOL0     O59399   6.773   0.747  11.194 -0.0880 -0.8826  0.4302
  431MOL0     C59400   6.692   0.698  11.307 -0.0664 -0.5105  0.0026
  431MOL0     C59401   6.649   0.555  11.289  0.4013  0.0063 -0.5198
  431MOL0     C59402   6.566   0.558  11.163 -0.3845  0.5040 -0.7201
  431MOL0     C59403   6.491   0.426  11.135  0.0623  0.3305  0.3076
  431MOL0     C59404   6.380   0.443  11.026 -0.7666 -0.2915  0.0118
  431MOL0     C59405   6.287   0.441  10.946 -0.2159 -0.0287 -0.0454
  431MOL0     C59406   6.758   0.970  11.309  0.8334  0.7214  1.2643
  431MOL0     C59407   6.806   1.097  11.305  0.3644 -0.5773  0.0825
  431MOL0     C59408   6.786   1.179  11.427 -0.0515  0.0515  0.2626
  431MOL0     H59409   7.268   1.394  11.195 -0.3004 -0.5957  0.6706
  431MOL0     H59410   7.356   1.614  11.127  1.5074  0.8126 -4.9736
  431MOL0     H59411   7.427   1.778  10.950 -0.0801 -0.6683 -0.8865
  431MOL0     H59412   7.349   1.915  10.890  2.8732 -0.2732 -0.5907
  431MOL0     H59413   7.346   1.632  10.747 -0.2356 -0.4756 -3.7425
  431MOL0     H59414   7.211   1.736  10.750 -0.1282 -0.0944 -2.1250
  431MOL0     H59415   7.486   1.841  10.678  0.4849 -0.2151 -1.3468
  431MOL0     H59416   7.392   1.743  10.568 -0.0498 -0.3799  0.1614
  431MOL0     H59417   7.199   1.924  10.614 -0.3066 -1.7976  4.1828
  431MOL0     H59418   7.335   2.018  10.675 -2.2434 -2.4573  1.6758
  431MOL0     H59419   7.322   2.103  10.461 -0.9141 -0.3312  2.1618
  431MOL0     H59420   7.279   1.949  10.383  2.1584  2.1157 -3.2567
  431MOL0     H59421   7.555   2.016  10.504  1.6848  1.7021 -2.1256
  431MOL0     H59422   7.518   1.872  10.409  2.5019  1.4282 -1.8890
  431MOL0     H59423   7.491   2.011  10.202  2.2960  0.5623 -0.9365
  431MOL0     H59424   7.650   2.015  10.277 -0.0789 -0.1798 -0.2470
  431MOL0     H59425   7.447   2.231  10.301  1.6427  1.3751 -0.9256
  431MOL0     H59426   7.580   2.226  10.395 -0.9265  1.8563  0.0331
  431MOL0     H59427   7.498   2.185  10.017 -0.5685 -1.0502  1.8312
  431MOL0     H59428   7.808   2.338   9.811 -0.2886  1.9656 -0.6995
  431MOL0     H59429   7.622   2.337   9.825 -1.2474 -1.0172  4.8033
  431MOL0     H59430   7.761   2.157   9.668  0.1885  3.1948  1.0537
  431MOL0     H59431   7.774   2.072   9.830  0.0514  1.1176  3.5800
  431MOL0     H59432   7.527   2.067   9.841 -3.6155 -1.0193 -1.4092
  431MOL0     H59433   7.517   2.149   9.687 -0.9658 -1.3912 -0.9282
  431MOL0     H59434   7.635   1.953   9.574  3.0699  0.0674  0.6084
  431MOL0     H59435   7.669   1.888   9.736 -2.2051  0.0017  1.6176
  431MOL0     H59436   7.488   2.094   9.484 -1.0274  1.0757  1.1908
  431MOL0     H59437   7.449   2.104   9.227 -0.4862 -2.1735 -0.7400
  431MOL0     H59438   7.358   2.240   9.309 -1.7443  0.7413 -2.0867
  431MOL0     H59439   7.277   2.143   9.187 -1.5956  0.3349  0.1387
  431MOL0     H59440   7.107   2.250   9.006  0.9483  0.7754  2.0671
  431MOL0     H59441   6.960   2.302   8.852  0.7052 -0.8479 -0.6940
  431MOL0     H59442   6.785   2.376   8.750  0.1044  0.0920 -2.5044
  431MOL0     H59443   6.798   2.224   8.663 -0.1553  0.3701 -0.1158
  431MOL0     H59444   6.563   2.221   8.623 -1.6401  1.5692 -0.5982
  431MOL0     H59445   6.542   2.387   8.693 -0.7989  0.0236  0.9166
  431MOL0     H59446   6.729   2.315   8.462  2.6452  1.9441 -0.4781
  431MOL0     H59447   6.714   2.468   8.562  1.2333 -1.3781  1.7051
  431MOL0     H59448   6.479   2.475   8.496  0.0890  0.2179  0.3377
  431MOL0     H59449   6.487   2.353   8.392 -4.6600  1.7388  3.5203
  431MOL0     H59450   6.522   2.600   8.307 -0.7667 -0.5087  1.1543
  431MOL0     H59451   6.689   2.579   8.358  0.3648  0.5295  0.3445
  431MOL0     H59452   6.541   2.396   8.171 -0.5615  1.2500 -0.8275
  431MOL0     H59453   6.720   2.391   8.192  0.4155 -0.7520  0.7175
  431MOL0     H59454   6.555   2.614   8.064 -2.6393 -2.7663  2.6013
  431MOL0     H59455   6.634   2.483   7.978  0.3661  2.0095 -1.3190
  431MOL0     H59456   6.858   2.560   8.087  0.7545  2.8977  4.5043
  431MOL0     H59457   6.771   2.695   8.140 -0.5433 -0.6351  0.6346
  431MOL0     H59458   6.637   2.106   9.059  0.3729 -0.9067 -2.0631
  431MOL0     H59459   6.783   2.076   9.251 -0.4436  2.7428  0.4290
  431MOL0     H59460   7.086   1.817   9.472  1.2364 -1.4845 -1.8371
  431MOL0     H59461   7.252   1.784   9.647  1.2807 -0.2410 -1.7397
  431MOL0     H59462   6.989   1.695  10.913 -2.0767  0.3141  1.5065
  431MOL0     H59463   6.892   1.483  10.996 -1.8394  1.7853  0.6130
  431MOL0     H59464   6.911   1.127  10.985  0.1011  2.4099  0.6311
  431MOL0     H59465   6.847   0.870  11.004 -0.4060 -0.0097 -0.4460
  431MOL0     H59466   6.747   0.704  11.401 -0.2237 -0.1707  0.0759
  431MOL0     H59467   6.602   0.759  11.321  0.3517 -0.1605  1.2206
  431MOL0     H59468   6.588   0.524  11.374  1.4383  1.6616  0.8960
  431MOL0     H59469   6.743   0.500  11.284  0.7216  0.6352 -2.1656
  431MOL0     H59470   6.496   0.640  11.181  3.4943  3.5661  2.3067
  431MOL0     H59471   6.610   0.594  11.070 -0.4072  0.0077 -0.9277
  431MOL0     H59472   6.447   0.381  11.225  1.4632  1.4172  1.5938
  431MOL0     H59473   6.564   0.352  11.099 -0.1063 -0.4037  1.4104
  431MOL0     H59474   6.207   0.438  10.874  0.2831  2.9629 -0.8788
  431MOL0     H59475   6.724   0.930  11.404 -3.1382  1.2685  0.2617
  431MOL0     H59476   6.744   1.120  11.510 -0.6231  0.8936  0.5845
  431MOL0     H59477   6.875   1.228  11.466  2.0091 -2.6967 -0.6965
  431MOL0     H59478   6.706   1.244  11.391 -0.0604  0.2938  0.7232
  432MOL0     O59479   0.029   2.549  11.019  0.7025 -0.8398 -0.7181
  432MOL0     C59480   0.092   2.650  11.062  0.5185  0.4157 -0.0913
  432MOL0     O59481   0.034   2.755  11.124  0.2037 -0.2024 -0.1660
  432MOL0     C59482  -0.094   2.732  11.180  0.0142 -0.6980 -0.2920
  432MOL0     C59483  -0.205   2.706  11.107 -0.4955 -0.8353  0.6535
  432MOL0     C59484  -0.328   2.689  11.176  0.1496 -0.1435  0.0341
  432MOL0     C59485  -0.341   2.695  11.312  0.0758 -0.7615  0.0129
  432MOL0     O59486  -0.464   2.668  11.364 -0.3268  0.5218 -0.5200
  432MOL0     C59487  -0.454   2.589  11.485  0.0917 -0.3323 -0.3662
  432MOL0     C59488  -0.586   2.530  11.537 -0.7268  0.6456  0.4305
  432MOL0     C59489  -0.638   2.405  11.452 -1.2317 -0.3333 -0.6590
  432MOL0     C59490  -0.564   2.275  11.461 -0.8287  0.1692 -0.7081
  432MOL0     C59491  -0.648   2.142  11.458  0.2293  0.3661  0.6099
  432MOL0     C59492  -0.738   2.127  11.576 -0.4455 -0.2717 -0.7358
  432MOL0     C59493  -0.846   2.011  11.572  0.1086  0.1992  1.0004
  432MOL0     C59494  -0.942   2.022  11.694  0.7040  0.5713 -0.1769
  432MOL0     N59495  -0.882   1.968  11.816  0.1710  0.6285 -0.2805
  432MOL0     C59496  -0.931   1.850  11.872 -1.1063  0.1224  0.1910
  432MOL0     C59497  -0.833   1.801  11.949 -0.7771 -0.1106 -0.4688
  432MOL0     C59498  -0.835   1.674  12.028 -0.6498  0.0671  1.1026
  432MOL0     C59499  -0.863   1.550  11.948  0.3354  0.4550  0.5236
  432MOL0     C59500  -0.856   1.423  12.036 -0.2674 -0.6023  0.5466
  432MOL0     C59501  -0.888   1.298  11.951 -0.4790 -0.1554 -0.2497
  432MOL0     O59502  -0.963   1.205  12.036  0.4365 -0.6553  0.1780
  432MOL0     C59503  -1.065   1.142  11.971  0.4262 -0.3392  0.0974
  432MOL0     C59504  -1.046   1.078  11.850 -0.2146  0.5538 -0.1209
  432MOL0     C59505  -1.143   0.992  11.781  0.2689 -0.5283 -0.0424
  432MOL0     C59506  -1.106   0.926  11.649  0.1520  0.4850 -0.9775
  432MOL0     C59507  -1.274   0.982  11.844  0.1187 -0.5636 -0.2547
  432MOL0     C59508  -1.390   0.912  11.780  1.0847 -0.9311 -0.5774
  432MOL0     O59509  -1.458   0.812  11.849  0.5288  0.5473 -0.1391
  432MOL0     C59510  -1.552   0.729  11.794 -0.0849  0.4174 -0.0193
  432MOL0     C59511  -1.565   0.702  11.654 -0.1472 -0.0456 -0.4303
  432MOL0     C59512  -1.668   0.617  11.607  0.5253  0.1141 -0.0739
  432MOL0     C59513  -1.744   0.540  11.695 -0.3735  0.4368 -0.4354
  432MOL0     O59514  -1.842   0.443  11.655  0.3304  0.3549 -0.5433
  432MOL0     C59515  -1.902   0.475  11.532  0.1368  0.1626  0.1033
  432MOL0     C59516  -1.849   0.382  11.425  0.1261  0.2071  0.0659
  432MOL0     C59517  -1.864   0.237  11.478 -0.3166  0.1082  0.6096
  432MOL0     C59518  -1.883   0.134  11.365  0.8118 -0.2262 -0.0613
  432MOL0     C59519  -1.870  -0.009  11.402  0.8671 -0.3322  1.1505
  432MOL0     C59520  -1.993  -0.087  11.451 -0.4118  0.2683  0.0706
  432MOL0     C59521  -1.960  -0.216  11.518 -0.0539 -0.2549 -0.0574
  432MOL0     C59522  -1.906  -0.198  11.663  0.6305 -0.1109 -0.3288
  432MOL0    Cl59523  -1.861  -0.354  11.731  0.1307  0.1903 -0.2697
  432MOL0     C59524  -1.715   0.562  11.832  0.6229  0.5640  0.4896
  432MOL0     C59525  -1.628   0.657  11.883  0.3166 -1.0586 -0.1925
  432MOL0     O59526  -1.427   0.971  11.678  0.5251 -0.4657  0.7246
  432MOL0     C59527  -1.290   1.037  11.979 -0.0500  0.1984  0.2099
  432MOL0     C59528  -1.186   1.124  12.033  0.6095  0.2016  0.2547
  432MOL0     N59529  -0.719   1.887  11.941  0.3318 -0.8850 -1.0724
  432MOL0     N59530  -0.756   1.982  11.858 -0.7217  0.2318  0.3162
  432MOL0     C59531  -0.224   2.727  11.386 -0.4838  0.8265 -0.0687
  432MOL0     C59532  -0.100   2.741  11.322 -0.9800 -0.5780  0.2875
  432MOL0     C59533   0.241   2.660  11.050 -0.2035  0.6895  0.7084
  432MOL0     C59534   0.311   2.765  11.116  0.2094  0.5357 -0.0478
  432MOL0     C59535   0.450   2.772  11.112  0.5257 -0.4726  0.6620
  432MOL0     C59536   0.528   2.671  11.056  0.3738  0.5774 -1.2834
  432MOL0     O59537   0.665   2.661  11.057  0.4125  0.1135 -0.0434
  432MOL0     C59538   0.741   2.775  11.095 -0.3705 -0.2103  0.1111
  432MOL0     C59539   0.888   2.728  11.105  0.2196  0.4584  0.5221
  432MOL0     C59540   0.933   2.675  11.246  0.3987  0.6907 -0.1363
  432MOL0     C59541   0.934   2.783  11.355  0.5039 -0.3637  0.5828
  432MOL0     C59542   1.045   2.881  11.329  0.6813  0.6622  0.1251
  432MOL0     C59543   1.140   2.946  11.299  1.0922 -1.0393  0.1190
  432MOL0     C59544   0.461   2.569  10.992 -0.6679 -0.3842  0.2657
  432MOL0     C59545   0.324   2.570  10.969  0.8494 -0.6440 -0.4053
  432MOL0     C59546   0.272   2.463  10.876  0.4390 -0.3158 -0.1348
  432MOL0     H59547  -0.196   2.697  11.000  0.1637 -5.3325  0.9162
  432MOL0     H59548  -0.417   2.652  11.125 -0.2263 -2.0003  1.9117
  432MOL0     H59549  -0.407   2.653  11.560  1.1344 -0.1154 -1.1988
  432MOL0     H59550  -0.389   2.501  11.474  1.7477  0.3026  3.0375
  432MOL0     H59551  -0.561   2.500  11.640  0.6091  1.6090  0.4115
  432MOL0     H59552  -0.663   2.607  11.530  1.5511  3.0866  0.8312
  432MOL0     H59553  -0.744   2.385  11.474 -0.6771 -1.9248  0.8175
  432MOL0     H59554  -0.633   2.441  11.349  2.0032  3.1558  0.4939
  432MOL0     H59555  -0.498   2.286  11.375 -1.5785 -1.7192 -1.5646
  432MOL0     H59556  -0.510   2.267  11.556 -0.4120 -3.1809 -1.1211
  432MOL0     H59557  -0.581   2.056  11.464  0.0925  0.3638  4.5393
  432MOL0     H59558  -0.712   2.143  11.369 -0.2226  4.6165  0.7535
  432MOL0     H59559  -0.670   2.122  11.661 -1.5687  0.0160  0.1981
  432MOL0     H59560  -0.803   2.212  11.596 -2.0814 -1.4295 -0.9639
  432MOL0     H59561  -0.797   1.914  11.579 -1.5737 -1.1021 -2.7095
  432MOL0     H59562  -0.913   2.008  11.486  0.6500  1.3856  0.5120
  432MOL0     H59563  -0.966   2.124  11.725  2.0739  0.6209  0.8286
  432MOL0     H59564  -1.029   1.959  11.675  3.1116 -1.7474 -5.8342
  432MOL0     H59565  -1.027   1.799  11.865 -1.7967  1.2562  0.9876
  432MOL0     H59566  -0.892   1.677  12.121 -0.8783  0.1989  0.9601
  432MOL0     H59567  -0.731   1.665  12.060  0.2820  0.3842 -1.5702
  432MOL0     H59568  -0.965   1.562  11.909  1.0089  2.0368 -0.8967
  432MOL0     H59569  -0.780   1.542  11.877  0.2733 -0.5362  0.5400
  432MOL0     H59570  -0.761   1.415  12.089 -1.3913  0.8416  2.9544
  432MOL0     H59571  -0.934   1.446  12.110 -0.1638  1.7411 -0.0175
  432MOL0     H59572  -0.954   1.337  11.874  2.6834  1.9266 -2.1238
  432MOL0     H59573  -0.794   1.261  11.909 -0.3606  0.2642 -0.3579
  432MOL0     H59574  -0.954   1.091  11.795 -0.2139  1.7393  0.1490
  432MOL0     H59575  -1.019   0.974  11.603 -1.3031  3.3746 -0.9296
  432MOL0     H59576  -1.184   0.915  11.573  1.2691 -0.8060 -1.9953
  432MOL0     H59577  -1.076   0.826  11.682  0.5885  0.3475 -1.7665
  432MOL0     H59578  -1.495   0.760  11.594  2.2827 -1.1016  1.2922
  432MOL0     H59579  -1.679   0.622  11.499  0.6156 -0.0096 -0.0889
  432MOL0     H59580  -2.012   0.470  11.537 -0.0540  2.3147 -1.0523
  432MOL0     H59581  -1.885   0.574  11.489  2.2145 -0.7123 -1.2152
  432MOL0     H59582  -1.907   0.395  11.333  1.4680  1.2404 -0.6722
  432MOL0     H59583  -1.745   0.403  11.396  0.3966  1.3951  1.7503
  432MOL0     H59584  -1.945   0.227  11.551  0.5959 -0.2485  1.6079
  432MOL0     H59585  -1.779   0.198  11.535 -2.0705 -2.8528  1.4146
  432MOL0     H59586  -1.802   0.156  11.295 -0.5435  0.6401 -1.4161
  432MOL0     H59587  -1.979   0.155  11.319 -0.6868 -0.0778  2.8813
  432MOL0     H59588  -1.837  -0.065  11.314 -3.0516 -0.1805 -0.6236
  432MOL0     H59589  -1.787  -0.021  11.472  1.9450  2.2863  0.4442
  432MOL0     H59590  -2.049  -0.125  11.366  1.4619  0.6481 -1.3953
  432MOL0     H59591  -2.061  -0.032  11.518 -0.8834  0.2413 -0.3814
  432MOL0     H59592  -1.887  -0.280  11.467 -1.7713 -2.0399 -0.3593
  432MOL0     H59593  -2.048  -0.280  11.526  0.6348 -1.2327 -0.0598
  432MOL0     H59594  -1.975  -0.145  11.730  2.9222  2.5335  0.1484
  432MOL0     H59595  -1.816  -0.136  11.657  0.3537  0.1560 -2.1354
  432MOL0     H59596  -1.771   0.511  11.911 -0.5984  1.9026  0.5191
  432MOL0     H59597  -1.628   0.684  11.988 -0.2151  0.7372 -0.6198
  432MOL0     H59598  -1.380   1.008  12.033 -1.5939  3.3962 -0.4293
  432MOL0     H59599  -1.212   1.168  12.129  0.2272  0.1749  0.1632
  432MOL0     H59600  -0.220   2.720  11.494 -0.7826 -0.2172 -0.1167
  432MOL0     H59601  -0.004   2.777  11.360 -0.0015 -2.1056 -0.6031
  432MOL0     H59602   0.263   2.838  11.180  2.0650 -0.6290  2.8856
  432MOL0     H59603   0.499   2.849  11.171 -1.6974 -0.0746  2.1099
  432MOL0     H59604   0.716   2.857  11.026 -3.6614  1.2643  2.7477
  432MOL0     H59605   0.707   2.812  11.192 -4.1360 -0.1336 -1.0659
  432MOL0     H59606   0.946   2.815  11.074 -1.0409  0.5523 -1.7227
  432MOL0     H59607   0.909   2.646  11.036  3.8592  2.3346 -0.8597
  432MOL0     H59608   0.867   2.597  11.284  2.7600 -0.1759  2.5765
  432MOL0     H59609   1.035   2.635  11.238 -0.3881 -2.2712  2.5636
  432MOL0     H59610   0.946   2.755  11.460 -4.1481  5.4480  3.2960
  432MOL0     H59611   0.843   2.843  11.356  0.5222 -0.1764 -2.0137
  432MOL0     H59612   1.225   2.998  11.261  0.0196  0.2555 -0.5788
  432MOL0     H59613   0.517   2.483  10.955  3.3335  2.0971 -0.0521
  432MOL0     H59614   0.353   2.425  10.813  1.2072  1.8807 -0.5726
  432MOL0     H59615   0.251   2.381  10.945  0.0913 -1.6916 -1.8316
  432MOL0     H59616   0.185   2.480  10.813  2.5553  3.0273 -2.5008
  433MOL0     O59617   7.747   5.098   2.265  0.5710  0.3930  0.3394
  433MOL0     C59618   7.646   5.164   2.291 -0.7644 -0.0818  0.8317
  433MOL0     O59619   7.541   5.114   2.357 -0.2101 -0.6353 -0.3128
  433MOL0     C59620   7.538   4.984   2.386  1.0748  0.6682  0.8997
  433MOL0     C59621   7.585   4.877   2.306  0.4138  0.6298 -0.4348
  433MOL0     C59622   7.565   4.744   2.352  0.5259  0.2975 -0.2056
  433MOL0     C59623   7.502   4.710   2.470  0.9842  0.3219 -0.8131
  433MOL0     O59624   7.497   4.578   2.508 -0.4514 -0.0531 -0.9431
  433MOL0     C59625   7.589   4.549   2.615  0.1983  0.6711 -0.1413
  433MOL0     C59626   7.632   4.402   2.629 -0.2016 -0.8470 -0.5250
  433MOL0     C59627   7.588   4.328   2.751 -0.2337 -0.6583 -0.3420
  433MOL0     C59628   7.666   4.384   2.872  0.4103 -0.1875  0.3418
  433MOL0     C59629   7.638   4.292   2.991 -0.4627 -0.3137 -0.6219
  433MOL0     C59630   7.739   4.178   3.005  0.6055  0.6356 -0.1529
  433MOL0     C59631   7.715   4.097   3.134  0.6040  0.4965 -0.1982
  433MOL0     C59632   7.850   4.018   3.173 -0.1879 -0.0852 -0.4752
  433MOL0     N59633   7.856   3.943   3.299  0.4914 -0.4950 -0.2621
  433MOL0     C59634   7.758   3.881   3.382 -0.9483 -0.5429  0.0532
  433MOL0     C59635   7.832   3.838   3.490 -0.2355  0.3581 -0.4971
  433MOL0     C59636   7.782   3.770   3.611  0.6890  0.0720 -0.5529
  433MOL0     C59637   7.854   3.650   3.668  0.0472 -0.3235 -0.1177
  433MOL0     C59638   7.972   3.689   3.764 -0.7683 -0.0548  0.5405
  433MOL0     C59639   8.006   3.583   3.861 -0.7746 -0.0216 -0.1284
  433MOL0     O59640   8.029   3.449   3.808 -0.2694 -0.9592  0.3742
  433MOL0     C59641   8.147   3.421   3.745 -0.8125 -0.2149 -0.1864
  433MOL0     C59642   8.264   3.511   3.744 -0.3999  0.4544 -0.3858
  433MOL0     C59643   8.378   3.472   3.667 -0.2854 -0.5915  0.2377
  433MOL0     C59644   8.476   3.579   3.623 -0.1411  0.5984  0.0208
  433MOL0     C59645   8.375   3.350   3.598 -0.0720 -1.4285 -0.3353
  433MOL0     C59646   8.480   3.310   3.502  1.3980  0.3195 -0.4616
  433MOL0     O59647   8.418   3.254   3.390  0.4858  0.5217 -0.2015
  433MOL0     C59648   8.485   3.197   3.292  0.4018 -0.1406 -0.3601
  433MOL0     C59649   8.405   3.131   3.201 -1.0953  0.0533  0.8698
  433MOL0     C59650   8.447   3.073   3.079  0.2303 -0.4593  0.4210
  433MOL0     C59651   8.583   3.077   3.043 -0.0948 -0.1280  0.9808
  433MOL0     O59652   8.628   3.018   2.927  0.5487 -0.0764 -0.4550
  433MOL0     C59653   8.640   3.092   2.808 -0.1439  0.2556 -0.1361
  433MOL0     C59654   8.723   3.227   2.818 -0.9813 -0.6924  0.0578
  433MOL0     C59655   8.873   3.185   2.829 -0.9906 -0.1355 -0.2524
  433MOL0     C59656   8.960   3.161   2.698  0.0917  0.4549  0.0994
  433MOL0     C59657   9.109   3.118   2.712  0.3125 -0.1703  0.2986
  433MOL0     C59658   9.173   3.078   2.574  0.5172 -0.4826 -0.3618
  433MOL0     C59659   9.171   3.199   2.479  0.5187 -0.1111  0.3536
  433MOL0     C59660   9.248   3.326   2.515  0.1521 -0.6201  0.4414
  433MOL0    Cl59661   9.429   3.297   2.541  0.3857 -0.1398 -0.2467
  433MOL0     C59662   8.666   3.146   3.129 -0.2353 -0.0805 -1.0600
  433MOL0     C59663   8.614   3.202   3.246 -1.1572 -0.6787  0.8180
  433MOL0     O59664   8.598   3.323   3.525 -0.1129 -0.1202 -0.5125
  433MOL0     C59665   8.269   3.265   3.622 -0.0307 -1.0677 -0.3380
  433MOL0     C59666   8.157   3.300   3.687 -0.4918  0.4474 -0.7512
  433MOL0     N59667   7.955   3.876   3.469 -0.4446 -0.1751 -0.5154
  433MOL0     N59668   7.969   3.942   3.364 -0.0436 -0.0209  0.0401
  433MOL0     C59669   7.454   4.814   2.549 -0.0100  0.4955 -1.5157
  433MOL0     C59670   7.471   4.947   2.504 -0.6340 -0.4511  0.2135
  433MOL0     C59671   7.635   5.300   2.239 -0.2394 -0.4005 -0.8395
  433MOL0     C59672   7.536   5.381   2.294  0.4761 -0.3264 -0.1089
  433MOL0     C59673   7.518   5.517   2.237  0.7679  0.2863 -0.0594
  433MOL0     C59674   7.605   5.578   2.148  0.8666  0.8449  0.6252
  433MOL0     O59675   7.563   5.704   2.104 -0.6652 -0.6052 -0.2635
  433MOL0     C59676   7.672   5.803   2.103 -0.3960  0.3869  0.4362
  433MOL0     C59677   7.672   5.925   1.998  0.3733 -0.1045  0.0214
  433MOL0     C59678   7.672   5.869   1.852  0.1115  0.8723 -0.2707
  433MOL0     C59679   7.536   5.817   1.806  0.6836  0.3925 -0.2000
  433MOL0     C59680   7.444   5.935   1.798 -0.3852 -0.5166 -0.1503
  433MOL0     C59681   7.369   6.028   1.780  0.7102 -0.1473 -0.0134
  433MOL0     C59682   7.711   5.504   2.110  0.3678  0.4411 -0.9676
  433MOL0     C59683   7.726   5.363   2.143 -0.4453  0.2518  0.5060
  433MOL0     C59684   7.843   5.296   2.071 -0.3758  0.5889 -0.9539
  433MOL0     H59685   7.637   4.890   2.211  0.2165 -0.5631 -0.7145
  433MOL0     H59686   7.587   4.655   2.293  1.3696  0.6779 -0.4716
  433MOL0     H59687   7.529   4.575   2.702  0.0925 -0.6048  0.1835
  433MOL0     H59688   7.681   4.608   2.605 -0.1257  0.9911 -1.4479
  433MOL0     H59689   7.604   4.349   2.538 -0.7865  0.0044 -0.8520
  433MOL0     H59690   7.741   4.401   2.626 -0.2143 -1.1350 -1.0269
  433MOL0     H59691   7.481   4.339   2.767 -0.7233 -2.7864 -1.7470
  433MOL0     H59692   7.618   4.224   2.735 -2.0975 -1.1035 -1.2245
  433MOL0     H59693   7.773   4.379   2.847 -0.2628 -1.9466 -2.8250
  433MOL0     H59694   7.632   4.486   2.887  1.2541  0.9659 -3.9899
  433MOL0     H59695   7.535   4.253   2.993 -1.1471  1.0590 -3.4907
  433MOL0     H59696   7.649   4.352   3.081  3.7823  0.2694 -1.3154
  433MOL0     H59697   7.718   4.113   2.919 -0.7686 -0.3409  0.8828
  433MOL0     H59698   7.843   4.210   3.003  1.2848 -0.7123  4.1254
  433MOL0     H59699   7.621   4.041   3.132  0.1835  1.0680  1.7326
  433MOL0     H59700   7.702   4.170   3.215 -1.0808  0.6096 -0.5276
  433MOL0     H59701   7.879   3.952   3.091  0.0851  1.4126 -1.6292
  433MOL0     H59702   7.931   4.091   3.186  2.0342 -2.4276 -0.2895
  433MOL0     H59703   7.653   3.861   3.364 -1.0555 -0.0151  0.0846
  433MOL0     H59704   7.682   3.741   3.580  0.3429  0.4162  0.2204
  433MOL0     H59705   7.772   3.853   3.681  0.0997  0.5544 -1.1905
  433MOL0     H59706   7.775   3.583   3.703 -1.3664  0.8709 -0.9406
  433MOL0     H59707   7.890   3.598   3.579  0.3552 -1.6613  0.7525
  433MOL0     H59708   8.058   3.714   3.701  0.4775 -3.1685  0.8422
  433MOL0     H59709   7.936   3.768   3.831 -4.9243 -1.4053  0.2261
  433MOL0     H59710   8.088   3.613   3.927 -1.8977  1.4909  0.6217
  433MOL0     H59711   7.916   3.591   3.923 -1.0819  1.9584 -0.7818
  433MOL0     H59712   8.260   3.605   3.799  1.6293 -0.1338  0.8351
  433MOL0     H59713   8.450   3.659   3.693  0.6646 -2.2877  3.9673
  433MOL0     H59714   8.448   3.615   3.523 -1.1149  3.4632  1.2292
  433MOL0     H59715   8.579   3.545   3.633  0.0292  0.8937 -0.6702
  433MOL0     H59716   8.301   3.117   3.229 -0.5586 -3.8312  1.5449
  433MOL0     H59717   8.371   3.031   3.014 -1.0119  0.2435  1.3976
  433MOL0     H59718   8.702   3.037   2.737  1.6350  2.9706 -0.8355
  433MOL0     H59719   8.542   3.121   2.770  0.0878  1.3670  0.0717
  433MOL0     H59720   8.707   3.281   2.724  1.8098 -1.3328 -0.8885
  433MOL0     H59721   8.702   3.301   2.896  4.3584 -1.6595  2.9146
  433MOL0     H59722   8.882   3.098   2.895 -1.7044 -0.1273 -0.1267
  433MOL0     H59723   8.922   3.271   2.876 -3.4867  2.2618 -1.6876
  433MOL0     H59724   8.968   3.251   2.638 -0.5023 -0.1717 -0.9377
  433MOL0     H59725   8.928   3.075   2.639  1.1092 -0.6544  1.0773
  433MOL0     H59726   9.175   3.193   2.755 -1.1140  0.4145  1.5728
  433MOL0     H59727   9.108   3.026   2.772 -1.9341 -0.8076 -0.5920
  433MOL0     H59728   9.122   2.992   2.530 -1.8913 -1.7302  4.2282
  433MOL0     H59729   9.276   3.054   2.600  0.2458 -0.3697  0.8826
  433MOL0     H59730   9.066   3.222   2.459  0.7204 -0.4131 -1.1846
  433MOL0     H59731   9.208   3.158   2.384 -1.6895 -1.6043  0.0467
  433MOL0     H59732   9.205   3.366   2.607 -2.9076 -2.2550 -0.1233
  433MOL0     H59733   9.235   3.405   2.441 -0.0621  1.5371  2.6700
  433MOL0     H59734   8.773   3.156   3.113  0.1484  0.9085  1.6913
  433MOL0     H59735   8.679   3.271   3.300 -1.3229  0.6199 -0.5626
  433MOL0     H59736   8.280   3.168   3.572 -0.2876 -0.4372 -1.6719
  433MOL0     H59737   8.078   3.226   3.691  0.4322 -0.8555 -3.7498
  433MOL0     H59738   7.380   4.786   2.623  0.5647 -0.6484 -1.3645
  433MOL0     H59739   7.400   5.015   2.549 -2.8475 -2.2913 -0.2827
  433MOL0     H59740   7.466   5.342   2.367  1.2019 -1.3500  0.0525
  433MOL0     H59741   7.432   5.573   2.272 -0.6122 -0.6508 -1.7764
  433MOL0     H59742   7.674   5.843   2.205 -2.0990 -3.1539  2.0323
  433MOL0     H59743   7.771   5.763   2.077  0.3531  2.8314 -0.7489
  433MOL0     H59744   7.757   5.990   2.021 -0.5076  1.3436 -0.6981
  433MOL0     H59745   7.586   5.991   2.009 -1.1526 -1.2906 -3.2864
  433MOL0     H59746   7.714   5.936   1.777  0.0298  0.5667 -0.5932
  433MOL0     H59747   7.739   5.784   1.843  1.8130  2.2501 -1.0524
  433MOL0     H59748   7.493   5.739   1.870  0.7232  0.6966  0.1980
  433MOL0     H59749   7.550   5.767   1.710 -0.0411 -3.3147  1.4184
  433MOL0     H59750   7.304   6.109   1.752 -1.2563 -1.4987  0.4211
  433MOL0     H59751   7.776   5.549   2.036  1.4724 -0.4975 -0.6028
  433MOL0     H59752   7.843   5.187   2.082  0.8015  0.6022 -0.6842
  433MOL0     H59753   7.845   5.326   1.965 -0.8711 -0.2932 -1.2225
  433MOL0     H59754   7.932   5.329   2.125  0.0082 -2.5921  0.5736
  434MOL0     O59755   3.258   5.518   5.526  0.5834  0.6739  0.8177
  434MOL0     C59756   3.172   5.587   5.580 -0.4863 -1.0211 -0.1676
  434MOL0     O59757   3.115   5.702   5.520 -0.4108  0.4093 -0.9873
  434MOL0     C59758   3.089   5.705   5.386  0.9604  0.2442 -0.3121
  434MOL0     C59759   2.981   5.642   5.329  0.9379 -0.2497 -0.2482
  434MOL0     C59760   2.975   5.629   5.192 -0.5759  1.0037 -0.2851
  434MOL0     C59761   3.078   5.674   5.109 -0.5927  0.3066  0.5355
  434MOL0     O59762   3.061   5.669   4.975  0.5292  0.2601 -0.2065
  434MOL0     C59763   3.153   5.707   4.870  0.0830  0.1036  0.2885
  434MOL0     C59764   3.153   5.855   4.831  0.0978  0.0302 -0.6120
  434MOL0     C59765   3.281   5.899   4.759  0.0511  0.3984 -0.2441
  434MOL0     C59766   3.273   5.870   4.607 -0.1148  0.2919  0.1677
  434MOL0     C59767   3.408   5.891   4.532 -0.2303  0.3731 -0.0461
  434MOL0     C59768   3.452   6.048   4.550  0.9424  0.5418  0.4144
  434MOL0     C59769   3.595   6.089   4.497 -0.1493  0.7178 -0.3289
  434MOL0     C59770   3.715   6.042   4.584  0.4016 -0.5505  0.4394
  434MOL0     N59771   3.840   6.073   4.515 -0.6681 -0.3697  0.4232
  434MOL0     C59772   3.902   6.199   4.509  0.3326  0.0638 -1.0413
  434MOL0     C59773   4.026   6.181   4.463  0.4327 -0.8323 -0.3522
  434MOL0     C59774   4.121   6.302   4.440  0.3417 -0.2577 -0.6133
  434MOL0     C59775   4.229   6.317   4.549 -0.0397  1.0629  0.6642
  434MOL0     C59776   4.295   6.455   4.559  0.2243  0.4762  0.4415
  434MOL0     C59777   4.343   6.517   4.426 -0.0473  0.1631  0.0572
  434MOL0     O59778   4.459   6.444   4.385 -0.4317 -0.3732  0.0462
  434MOL0     C59779   4.518   6.470   4.264 -0.6632 -0.5514 -1.4425
  434MOL0     C59780   4.472   6.560   4.168  0.0623 -0.1861 -0.2905
  434MOL0     C59781   4.548   6.573   4.050  0.1965  0.3173  1.5176
  434MOL0     C59782   4.482   6.653   3.945  0.1377 -0.3450 -0.9849
  434MOL0     C59783   4.674   6.502   4.034  0.8102 -0.1356 -0.6459
  434MOL0     C59784   4.766   6.536   3.925  0.7741 -0.0114 -0.1345
  434MOL0     O59785   4.870   6.444   3.912  0.8587  0.3896  0.3930
  434MOL0     C59786   4.946   6.467   3.801  0.4686 -0.1565  0.1880
  434MOL0     C59787   4.893   6.448   3.665 -0.4371  0.0343  0.1415
  434MOL0     C59788   4.974   6.465   3.549  0.6430 -0.9463  0.0994
  434MOL0     C59789   5.116   6.484   3.567  0.3940  0.9358 -0.3283
  434MOL0     O59790   5.205   6.490   3.466 -0.1925 -0.1882  0.0859
  434MOL0     C59791   5.159   6.537   3.334  0.4645  0.0269 -0.4567
  434MOL0     C59792   5.272   6.564   3.235  0.4808  0.5386 -0.9653
  434MOL0     C59793   5.220   6.621   3.099  0.8364  0.4535  0.2025
  434MOL0     C59794   5.316   6.591   2.978  0.7713  0.4477  0.1851
  434MOL0     C59795   5.323   6.707   2.877 -0.6347 -0.2558  0.4484
  434MOL0     C59796   5.388   6.836   2.917  0.0688 -1.1256  0.0320
  434MOL0     C59797   5.414   6.928   2.784  0.8778  0.1209 -0.1393
  434MOL0     C59798   5.339   7.060   2.784 -0.1358  1.5936  0.3688
  434MOL0    Cl59799   5.160   7.029   2.774  0.1221 -0.2893 -0.0002
  434MOL0     C59800   5.170   6.498   3.692  0.4977  0.7488  0.7868
  434MOL0     C59801   5.088   6.493   3.808 -0.2506  0.2236  0.6279
  434MOL0     O59802   4.744   6.634   3.854 -0.0918 -0.3430  0.3772
  434MOL0     C59803   4.704   6.394   4.124  0.0462  0.7308 -0.3965
  434MOL0     C59804   4.620   6.385   4.237 -1.1382  0.4726  0.7773
  434MOL0     N59805   4.040   6.047   4.460  0.2813  0.6868 -0.7575
  434MOL0     N59806   3.931   5.980   4.483 -0.5669  0.1416  0.1438
  434MOL0     C59807   3.185   5.725   5.170 -0.4787  0.3857 -1.1279
  434MOL0     C59808   3.193   5.746   5.308  0.6275  0.5765  0.2218
  434MOL0     C59809   3.171   5.587   5.728  0.9381  0.3250 -0.6232
  434MOL0     C59810   3.196   5.460   5.787  0.2496  0.3742 -0.2421
  434MOL0     C59811   3.178   5.434   5.917  0.6988 -0.0081  0.8549
  434MOL0     C59812   3.151   5.538   6.010  0.7522  0.3488 -0.6045
  434MOL0     O59813   3.138   5.500   6.139  0.5410 -0.3851  0.0184
  434MOL0     C59814   3.102   5.598   6.243  0.5863 -0.1185 -0.1857
  434MOL0     C59815   3.090   5.548   6.386 -0.3403 -0.1620  0.2859
  434MOL0     C59816   2.974   5.459   6.426 -0.3444 -0.0844 -0.2367
  434MOL0     C59817   2.843   5.529   6.396  0.4410  1.4430 -0.0170
  434MOL0     C59818   2.736   5.453   6.472 -0.8960 -0.3563 -0.0403
  434MOL0     C59819   2.647   5.400   6.537 -0.2743 -0.1045  0.4528
  434MOL0     C59820   3.138   5.673   5.961 -0.7643 -0.0819  0.6904
  434MOL0     C59821   3.138   5.694   5.817  0.9992 -0.4519  0.0743
  434MOL0     C59822   3.133   5.832   5.768 -0.2604  0.6847  0.5605
  434MOL0     H59823   2.897   5.617   5.394  0.5473 -1.5193 -1.2101
  434MOL0     H59824   2.874   5.595   5.172 -0.5058  0.8908 -0.4487
  434MOL0     H59825   3.127   5.648   4.782  1.3414 -0.1440  0.0689
  434MOL0     H59826   3.255   5.674   4.890 -0.3366 -2.2366 -1.1060
  434MOL0     H59827   3.062   5.866   4.771 -1.2511 -2.6726  0.7530
  434MOL0     H59828   3.142   5.914   4.922 -0.3000 -0.5505 -0.2781
  434MOL0     H59829   3.281   6.007   4.774 -2.2208  0.3761  0.3470
  434MOL0     H59830   3.371   5.852   4.800 -0.4361 -1.1688 -0.8833
  434MOL0     H59831   3.234   5.773   4.575  1.2076  0.0608 -0.8486
  434MOL0     H59832   3.203   5.940   4.561 -0.8306 -1.0593 -0.8574
  434MOL0     H59833   3.391   5.880   4.424  0.6811 -0.6228 -0.1058
  434MOL0     H59834   3.479   5.816   4.566  0.1253 -0.7029 -2.8680
  434MOL0     H59835   3.377   6.103   4.493 -3.5455 -0.9299  4.3153
  434MOL0     H59836   3.456   6.086   4.652  2.8867 -1.1601  1.0522
  434MOL0     H59837   3.607   6.198   4.493 -2.3220  0.9977 -0.8198
  434MOL0     H59838   3.589   6.051   4.395 -0.0182  2.3752 -0.9941
  434MOL0     H59839   3.711   6.104   4.674 -2.2813  1.0947 -0.6807
  434MOL0     H59840   3.692   5.935   4.597 -0.3680 -0.7332 -1.9581
  434MOL0     H59841   3.862   6.299   4.525  0.5708  0.3568 -2.1473
  434MOL0     H59842   4.056   6.389   4.438  0.5334 -0.0498  0.9705
  434MOL0     H59843   4.170   6.295   4.343  0.6792 -0.9929 -0.3972
  434MOL0     H59844   4.212   6.302   4.656  2.1483  1.7698  1.1566
  434MOL0     H59845   4.299   6.237   4.525 -3.5121 -1.4191 -2.3539
  434MOL0     H59846   4.227   6.518   4.617  0.0997 -0.7559  1.6828
  434MOL0     H59847   4.383   6.432   4.619  0.5957 -1.4295 -0.7357
  434MOL0     H59848   4.267   6.505   4.348 -1.0168 -0.3958  1.0510
  434MOL0     H59849   4.358   6.624   4.439  0.9068  0.2732 -1.5998
  434MOL0     H59850   4.373   6.599   4.186 -0.9895 -2.6528 -0.3658
  434MOL0     H59851   4.487   6.596   3.852  2.5147 -0.8372 -0.6206
  434MOL0     H59852   4.537   6.742   3.913  0.5938 -0.4160 -0.4115
  434MOL0     H59853   4.378   6.674   3.968  0.5247  0.7183 -0.1553
  434MOL0     H59854   4.790   6.421   3.643  0.2548 -0.6067 -2.6855
  434MOL0     H59855   4.941   6.457   3.446 -0.5503  0.6578  0.3108
  434MOL0     H59856   5.098   6.457   3.290 -0.6405 -0.1510  1.3080
  434MOL0     H59857   5.107   6.632   3.348  3.2793  1.7331 -0.9935
  434MOL0     H59858   5.328   6.644   3.286 -0.8271  0.5278  0.5700
  434MOL0     H59859   5.331   6.474   3.216 -1.0638 -0.9959  1.0161
  434MOL0     H59860   5.191   6.726   3.110 -2.1187 -0.5398  3.5290
  434MOL0     H59861   5.120   6.581   3.083  2.2501 -4.1483  1.4981
  434MOL0     H59862   5.283   6.499   2.930 -1.5226  0.3277  1.8543
  434MOL0     H59863   5.418   6.576   3.013  0.0452 -4.2477  0.9045
  434MOL0     H59864   5.363   6.661   2.786 -1.5596 -2.3833  1.0720
  434MOL0     H59865   5.219   6.729   2.851 -1.5554 -1.0082  3.1553
  434MOL0     H59866   5.480   6.810   2.969  0.6649 -0.1638 -0.5295
  434MOL0     H59867   5.316   6.886   2.983  0.3213  3.5219 -2.7833
  434MOL0     H59868   5.386   6.874   2.693 -0.2098 -0.7501  0.6907
  434MOL0     H59869   5.522   6.933   2.765  0.6310 -1.3847 -2.3539
  434MOL0     H59870   5.367   7.131   2.705  4.9960  0.2702  0.5819
  434MOL0     H59871   5.349   7.116   2.877  1.2091  0.5754  0.8784
  434MOL0     H59872   5.275   6.520   3.701  1.5970 -2.4033 -2.0467
  434MOL0     H59873   5.136   6.506   3.905  0.3013 -1.9951  0.7074
  434MOL0     H59874   4.779   6.319   4.102  1.0951  0.8085  2.4454
  434MOL0     H59875   4.635   6.296   4.297 -0.1451  2.4650  3.7392
  434MOL0     H59876   3.272   5.770   5.121  0.4949  0.3781  0.5389
  434MOL0     H59877   3.276   5.788   5.365  0.8023 -2.3388  2.3335
  434MOL0     H59878   3.217   5.377   5.720  0.7140 -0.4500  0.9067
  434MOL0     H59879   3.192   5.337   5.963  1.8111  1.0518  2.8929
  434MOL0     H59880   3.181   5.673   6.235  2.7978 -2.0771  1.7001
  434MOL0     H59881   3.014   5.659   6.219  2.9455  3.7422  0.0347
  434MOL0     H59882   3.079   5.637   6.448  2.6177  0.0208  0.7162
  434MOL0     H59883   3.188   5.501   6.401  1.0059  2.5586  0.4938
  434MOL0     H59884   2.979   5.364   6.372 -1.7032 -1.4556  1.8986
  434MOL0     H59885   2.986   5.440   6.533  0.0517  1.4373  0.0063
  434MOL0     H59886   2.814   5.520   6.291 -0.8668 -2.0732  0.5273
  434MOL0     H59887   2.835   5.634   6.426  0.2332  1.0516  1.3887
  434MOL0     H59888   2.577   5.356   6.605  0.8761 -0.9464  1.1440
  434MOL0     H59889   3.119   5.756   6.028  0.4326  2.1044 -1.5079
  434MOL0     H59890   3.140   5.898   5.855  3.6288  0.4042  0.6273
  434MOL0     H59891   3.233   5.849   5.728  0.7472  0.8745  3.0020
  434MOL0     H59892   3.056   5.847   5.692  2.5986  1.2348 -2.3981
  435MOL0     O59893   5.109   3.497   4.756  0.2475  0.1964 -0.1865
  435MOL0     C59894   5.059   3.576   4.835  0.5864  0.2895 -0.9720
  435MOL0     O59895   5.123   3.649   4.925  0.2323 -0.0345  0.4283
  435MOL0     C59896   5.257   3.683   4.897 -0.0262  0.9146  0.0678
  435MOL0     C59897   5.308   3.739   4.778  0.0748 -0.7765 -0.4618
  435MOL0     C59898   5.442   3.755   4.747  0.2055  0.1513 -0.4942
  435MOL0     C59899   5.530   3.705   4.842 -0.3267 -1.1690 -0.5099
  435MOL0     O59900   5.673   3.719   4.842  0.4466 -0.3379  0.4615
  435MOL0     C59901   5.724   3.799   4.729  0.0491  0.6080 -1.2955
  435MOL0     C59902   5.882   3.809   4.739 -0.2224 -0.2090 -1.0114
  435MOL0     C59903   5.946   3.916   4.656  0.0933  0.5600 -0.0890
  435MOL0     C59904   5.908   3.913   4.503 -0.3397  0.0683 -0.1197
  435MOL0     C59905   5.980   4.025   4.424 -0.2022  0.3105 -0.4197
  435MOL0     C59906   6.127   3.981   4.411 -0.0514  0.4508  0.5987
  435MOL0     C59907   6.189   4.081   4.304 -0.5012  1.2238  0.2335
  435MOL0     C59908   6.345   4.070   4.305 -0.4935 -0.3140 -0.2599
  435MOL0     N59909   6.406   4.101   4.429  0.1721  0.8498 -0.7882
  435MOL0     C59910   6.375   4.220   4.494  0.4977 -0.6563 -0.4731
  435MOL0     C59911   6.392   4.186   4.625  0.1895 -0.1829 -0.2246
  435MOL0     C59912   6.378   4.281   4.734  0.2276  0.6953 -0.0154
  435MOL0     C59913   6.425   4.212   4.859  0.5126 -0.3435 -0.3670
  435MOL0     C59914   6.424   4.313   4.977  0.4224  0.2730  0.6419
  435MOL0     C59915   6.459   4.253   5.110  0.3706 -0.7544  0.3523
  435MOL0     O59916   6.462   4.361   5.205 -0.6073 -0.7671  0.6176
  435MOL0     C59917   6.536   4.338   5.315 -0.0500 -0.1541  0.4599
  435MOL0     C59918   6.501   4.254   5.416 -0.5461  0.0595 -0.4836
  435MOL0     C59919   6.575   4.257   5.541  0.4997 -0.7110  0.5489
  435MOL0     C59920   6.555   4.138   5.634  0.7079  0.1146 -0.5530
  435MOL0     C59921   6.676   4.360   5.557 -0.4034 -1.0799  0.1175
  435MOL0     C59922   6.760   4.382   5.678  0.0980  0.2863 -0.0774
  435MOL0     O59923   6.883   4.429   5.667 -0.0356  0.4425 -0.3164
  435MOL0     C59924   6.965   4.465   5.769  0.8064 -0.2054 -0.5283
  435MOL0     C59925   6.945   4.576   5.851 -0.6667  0.0694  0.2536
  435MOL0     C59926   7.045   4.613   5.950 -0.2282  0.1848 -0.7793
  435MOL0     C59927   7.158   4.537   5.956  0.0626 -0.0695  0.5653
  435MOL0     O59928   7.270   4.562   6.028  0.3962  1.1302 -0.3643
  435MOL0     C59929   7.333   4.679   5.979  0.6267  0.6670  0.1820
  435MOL0     C59930   7.477   4.703   6.035  0.2722  0.9392  0.1808
  435MOL0     C59931   7.477   4.733   6.178 -0.4492 -0.1233 -0.3674
  435MOL0     C59932   7.614   4.786   6.219 -0.3783  0.4422  0.1964
  435MOL0     C59933   7.620   4.844   6.356  0.1562  0.2508  0.6225
  435MOL0     C59934   7.769   4.890   6.381 -0.1445  0.7120 -0.7612
  435MOL0     C59935   7.799   4.924   6.532 -0.1908  0.0908 -0.0210
  435MOL0     C59936   7.905   4.831   6.586  0.6592 -0.0970  0.2035
  435MOL0    Cl59937   7.841   4.663   6.603 -0.0420 -0.1430 -0.0159
  435MOL0     C59938   7.166   4.416   5.886  0.3498  0.1547 -0.5426
  435MOL0     C59939   7.068   4.380   5.797  0.5876 -0.2542  0.3174
  435MOL0     O59940   6.708   4.352   5.784  0.7360 -0.0863  0.8928
  435MOL0     C59941   6.704   4.455   5.454  0.5503  0.5415 -0.1312
  435MOL0     C59942   6.639   4.435   5.335  0.4234 -0.7216 -0.6236
  435MOL0     N59943   6.438   4.055   4.634  0.1732 -0.0318 -0.1780
  435MOL0     N59944   6.437   4.003   4.520  0.4343  0.3487 -0.1567
  435MOL0     C59945   5.488   3.652   4.967  0.5273 -0.2193 -0.5704
  435MOL0     C59946   5.351   3.638   4.984  0.6510 -0.8778  0.3577
  435MOL0     C59947   4.917   3.611   4.836  0.4557 -0.1995 -0.3473
  435MOL0     C59948   4.872   3.711   4.924 -0.1301 -0.7656  0.2421
  435MOL0     C59949   4.741   3.764   4.899  0.3087 -0.0783 -0.3178
  435MOL0     C59950   4.659   3.722   4.801  0.2648  0.1754 -0.5372
  435MOL0     O59951   4.537   3.786   4.787 -0.7928  0.1585  0.1901
  435MOL0     C59952   4.426   3.715   4.713 -0.3002  0.1228 -0.5601
  435MOL0     C59953   4.292   3.790   4.738 -0.2829  0.1818  1.2310
  435MOL0     C59954   4.180   3.732   4.657  0.4658 -0.0456  0.1954
  435MOL0     C59955   4.066   3.824   4.604  0.3476  0.2846 -0.7526
  435MOL0     C59956   3.978   3.891   4.706 -0.3882  1.2979  0.8001
  435MOL0     C59957   3.912   3.953   4.779 -1.0093  0.0441  0.3024
  435MOL0     C59958   4.700   3.619   4.725 -0.4006 -0.0338  0.7196
  435MOL0     C59959   4.824   3.568   4.734 -0.1521 -0.0684  1.4855
  435MOL0     C59960   4.860   3.468   4.620  0.1906 -0.9095 -0.1945
  435MOL0     H59961   5.245   3.790   4.705  0.9504  1.0953  0.0306
  435MOL0     H59962   5.463   3.807   4.653 -2.1971 -1.7509 -2.2148
  435MOL0     H59963   5.680   3.899   4.734  0.0984  0.7606 -3.1974
  435MOL0     H59964   5.697   3.759   4.631  0.9865 -0.9705 -0.9404
  435MOL0     H59965   5.904   3.828   4.844  0.9190  0.9624 -1.4313
  435MOL0     H59966   5.937   3.715   4.725  0.6912  0.1248  0.1290
  435MOL0     H59967   5.912   4.012   4.697 -0.8376 -0.1189  0.7883
  435MOL0     H59968   6.054   3.916   4.673 -0.0516 -2.6266  1.6148
  435MOL0     H59969   5.933   3.815   4.463 -0.1964  0.1829 -0.3115
  435MOL0     H59970   5.799   3.921   4.495 -0.5193  0.5339  2.1612
  435MOL0     H59971   5.969   4.122   4.472 -0.1597 -1.0196  2.4917
  435MOL0     H59972   5.925   4.033   4.330  0.9728 -0.7458 -1.2473
  435MOL0     H59973   6.184   3.980   4.504  4.4676 -1.8106 -1.8346
  435MOL0     H59974   6.145   3.881   4.370 -1.9712 -0.0580  0.8783
  435MOL0     H59975   6.158   4.183   4.327 -0.0481  1.1774  1.1165
  435MOL0     H59976   6.150   4.051   4.206 -1.2524  1.7138  0.3757
  435MOL0     H59977   6.377   3.968   4.277  0.6778  0.3561 -1.5272
  435MOL0     H59978   6.386   4.140   4.232 -1.1171 -1.8604 -2.2058
  435MOL0     H59979   6.345   4.318   4.458  1.4881  0.3844  1.3608
  435MOL0     H59980   6.274   4.315   4.736  0.1364  0.7338 -2.3734
  435MOL0     H59981   6.442   4.369   4.719  0.7810  0.0022 -2.0415
  435MOL0     H59982   6.356   4.127   4.867  0.5607 -0.3914 -0.4586
  435MOL0     H59983   6.528   4.175   4.852 -0.1319 -2.2098 -0.7741
  435MOL0     H59984   6.495   4.395   4.964  1.7652 -0.9847 -0.2626
  435MOL0     H59985   6.329   4.368   4.988 -0.0752  0.4149 -3.0214
  435MOL0     H59986   6.385   4.175   5.128 -2.5088  0.6630 -3.8194
  435MOL0     H59987   6.558   4.208   5.110  0.7369 -0.3883 -4.2781
  435MOL0     H59988   6.422   4.181   5.402 -1.5086  0.7486  1.1511
  435MOL0     H59989   6.576   4.157   5.739  0.6511 -2.5779  0.0245
  435MOL0     H59990   6.608   4.044   5.613  3.1391  0.8058  1.8466
  435MOL0     H59991   6.446   4.127   5.636  0.2209  3.8970  1.2826
  435MOL0     H59992   6.857   4.638   5.841  0.3561  1.4871 -0.3291
  435MOL0     H59993   7.033   4.680   6.034  1.5392 -1.4434  0.8592
  435MOL0     H59994   7.336   4.681   5.870  2.6052  1.4657  0.2114
  435MOL0     H59995   7.273   4.766   6.011 -1.0140 -0.5909  0.6825
  435MOL0     H59996   7.544   4.619   6.016  0.0380  0.3996  1.6218
  435MOL0     H59997   7.534   4.770   5.970  3.3347 -0.4583  1.2507
  435MOL0     H59998   7.467   4.645   6.242  2.4441 -0.6653 -0.5234
  435MOL0     H59999   7.397   4.806   6.196 -0.1226  0.7753 -2.2276
  435MOL0     H60000   7.653   4.863   6.151 -0.0330  0.5955  0.5674
  435MOL0     H60001   7.691   4.711   6.198 -1.1057  0.5087 -3.3670
  435MOL0     H60002   7.542   4.918   6.372 -1.9089 -1.2518 -1.7305
  435MOL0     H60003   7.591   4.765   6.426 -2.6465  1.4682  0.9536
  435MOL0     H60004   7.797   4.963   6.305 -0.7799  2.2366  0.4257
  435MOL0     H60005   7.832   4.803   6.359  1.3292  1.4236  0.5299
  435MOL0     H60006   7.705   4.922   6.589 -0.0712 -0.2899  0.1683
  435MOL0     H60007   7.846   5.022   6.535 -2.2883  1.1522  0.3140
  435MOL0     H60008   7.945   4.857   6.685  1.8828 -0.9852 -0.0421
  435MOL0     H60009   7.990   4.829   6.519  0.4783 -1.7802 -0.0219
  435MOL0     H60010   7.252   4.349   5.885 -2.2400 -3.4298 -1.7944
  435MOL0     H60011   7.068   4.297   5.727 -3.6838  1.7089 -2.4001
  435MOL0     H60012   6.781   4.531   5.452 -0.0390  1.2074  1.1333
  435MOL0     H60013   6.667   4.507   5.259  4.8724 -0.7050  0.7482
  435MOL0     H60014   5.558   3.615   5.041 -0.1853 -0.2879  0.0775
  435MOL0     H60015   5.314   3.598   5.079  1.2540 -0.2633  0.8594
  435MOL0     H60016   4.943   3.753   4.995  1.0972 -4.5463  1.5293
  435MOL0     H60017   4.712   3.852   4.956 -1.1936 -0.2216 -0.7989
  435MOL0     H60018   4.463   3.712   4.610  2.1572 -0.0730  0.2545
  435MOL0     H60019   4.414   3.612   4.746 -2.0435  1.4231  3.6283
  435MOL0     H60020   4.302   3.898   4.727  0.1032  0.1612  1.3435
  435MOL0     H60021   4.273   3.775   4.844 -0.5481  4.0815  1.8718
  435MOL0     H60022   4.219   3.676   4.571 -3.7910 -1.3388 -1.1241
  435MOL0     H60023   4.137   3.658   4.725  3.4821 -0.8665  1.3937
  435MOL0     H60024   4.000   3.753   4.553 -1.5545  2.0720 -0.9705
  435MOL0     H60025   4.108   3.893   4.530 -0.8975 -0.6477 -2.4181
  435MOL0     H60026   3.854   4.006   4.852 -1.4800  2.9600 -2.0045
  435MOL0     H60027   4.636   3.589   4.643 -0.0258  0.9214  0.0504
  435MOL0     H60028   4.769   3.435   4.569 -1.3216 -0.4201  2.0006
  435MOL0     H60029   4.931   3.513   4.551 -0.5269  2.2966  0.9694
  435MOL0     H60030   4.908   3.382   4.668 -1.2669 -0.1569  2.8591
  436MOL0     O60031   0.476  10.111   8.083 -0.4095 -0.1129  0.8324
  436MOL0     C60032   0.526  10.027   8.153  0.6387  0.3758 -0.4764
  436MOL0     O60033   0.629   9.944   8.120 -0.1619  0.1320 -0.5204
  436MOL0     C60034   0.704   9.990   8.016  0.1547  0.0918  0.1832
  436MOL0     C60035   0.832  10.041   8.034 -0.3979 -0.4985 -0.1916
  436MOL0     C60036   0.902  10.089   7.919 -0.5543 -0.3949  0.1934
  436MOL0     C60037   0.848  10.079   7.789  1.0323 -0.6967  0.1056
  436MOL0     O60038   0.899  10.128   7.672  0.1690 -0.8908 -0.3905
  436MOL0     C60039   1.026  10.187   7.666  0.5528  0.2825 -0.4602
  436MOL0     C60040   1.026  10.341   7.695 -0.1900 -0.3554 -0.3570
  436MOL0     C60041   0.915  10.411   7.616  0.1246 -0.3671 -0.8804
  436MOL0     C60042   0.923  10.568   7.626  0.6468 -0.4408 -0.2741
  436MOL0     C60043   0.816  10.644   7.550  1.1795  0.6794  0.1296
  436MOL0     C60044   0.800  10.621   7.395  0.1537  0.3241  0.4657
  436MOL0     C60045   0.677  10.695   7.338  0.1179 -0.4918 -0.8165
  436MOL0     C60046   0.668  10.649   7.196  0.0944  0.1495  0.4262
  436MOL0     N60047   0.782  10.694   7.111  0.0019 -0.3695 -0.2562
  436MOL0     C60048   0.762  10.805   7.036  0.1848 -0.1648  0.2923
  436MOL0     C60049   0.886  10.814   6.973 -0.0655 -0.5782  0.4164
  436MOL0     C60050   0.933  10.904   6.855 -0.2533  0.7768 -0.5174
  436MOL0     C60051   1.089  10.957   6.866  0.0703 -0.2909  0.5959
  436MOL0     C60052   1.134  11.063   6.773  0.0497 -1.3937  1.0994
  436MOL0     C60053   1.276  11.115   6.802 -0.1431 -0.3694  0.9879
  436MOL0     O60054   1.379  11.007   6.796 -0.2434 -0.6247 -1.0237
  436MOL0     C60055   1.405  10.949   6.672 -0.2472 -0.1311 -0.7258
  436MOL0     C60056   1.454  11.025   6.566 -0.4705 -0.4265  0.2668
  436MOL0     C60057   1.517  10.960   6.454 -0.2202 -0.4314 -0.0268
  436MOL0     C60058   1.568  11.061   6.345  0.1063 -0.6025 -0.2489
  436MOL0     C60059   1.545  10.816   6.452  0.1096  0.1532  0.4163
  436MOL0     C60060   1.602  10.743   6.338 -0.4050 -0.2267 -0.1436
  436MOL0     O60061   1.585  10.611   6.348  0.2227 -0.9159 -0.0445
  436MOL0     C60062   1.601  10.533   6.243  0.3741  0.3891  0.1806
  436MOL0     C60063   1.525  10.549   6.128 -0.3051  0.5290 -0.1196
  436MOL0     C60064   1.553  10.474   6.014  0.0632 -0.1530  1.0524
  436MOL0     C60065   1.668  10.385   6.007  0.4399 -0.8284 -0.8682
  436MOL0     O60066   1.703  10.295   5.910 -0.6378  0.6177  0.3296
  436MOL0     C60067   1.688  10.346   5.779  0.6496 -0.8126 -0.0673
  436MOL0     C60068   1.746  10.252   5.673  0.3584 -0.8937 -1.1702
  436MOL0     C60069   1.718  10.317   5.529 -1.2694 -0.1956 -0.1961
  436MOL0     C60070   1.784  10.238   5.411 -0.7568  0.6354  0.3594
  436MOL0     C60071   1.674  10.144   5.339 -0.3988 -0.2818  0.4301
  436MOL0     C60072   1.623  10.027   5.410 -0.3716  0.5227  0.1484
  436MOL0     C60073   1.511   9.966   5.319 -1.0366  0.5058  0.9947
  436MOL0     C60074   1.455   9.844   5.397  0.6813 -0.3587 -0.9636
  436MOL0    Cl60075   1.324   9.771   5.303  0.2277 -0.0988  0.4791
  436MOL0     C60076   1.734  10.364   6.136 -0.2070 -0.1065 -0.5043
  436MOL0     C60077   1.708  10.442   6.250  0.0799  0.6135  0.1109
  436MOL0     O60078   1.658  10.802   6.248 -0.2413  0.0882  0.0605
  436MOL0     C60079   1.492  10.751   6.566  0.4636 -0.2438  0.4403
  436MOL0     C60080   1.421  10.817   6.668 -0.7255  0.2817  1.2881
  436MOL0     N60081   0.960  10.705   6.996  0.1019 -0.3235 -0.1701
  436MOL0     N60082   0.894  10.639   7.082 -0.3808  0.8116 -0.0052
  436MOL0     C60083   0.721  10.017   7.772  0.3050  0.2550 -0.0510
  436MOL0     C60084   0.650   9.974   7.884  0.4937  0.2473  0.4095
  436MOL0     C60085   0.445  10.007   8.277  0.0525 -0.9677  0.2742
  436MOL0     C60086   0.315  10.057   8.280  0.4128  0.3038  0.6091
  436MOL0     C60087   0.242  10.037   8.395 -0.1955 -0.8046  0.1105
  436MOL0     C60088   0.291   9.989   8.511 -0.8887 -0.5712  0.0466
  436MOL0     O60089   0.235   9.985   8.630 -0.5839  1.1136  0.0209
  436MOL0     C60090   0.096  10.025   8.654 -0.5497 -1.5497  0.7184
  436MOL0     C60091   0.008   9.905   8.628  0.1063 -0.2822 -0.0192
  436MOL0     C60092  -0.088   9.913   8.510 -0.2211 -1.1303  0.5434
  436MOL0     C60093  -0.175   9.796   8.491  1.1152 -0.2620  0.1337
  436MOL0     C60094  -0.249   9.809   8.365  0.3985  0.3170 -0.6862
  436MOL0     C60095  -0.328   9.808   8.272  0.2833 -0.8671 -0.6872
  436MOL0     C60096   0.426   9.951   8.513  0.2031 -0.2678  0.7045
  436MOL0     C60097   0.497   9.957   8.399 -0.9659 -0.1264  0.1589
  436MOL0     C60098   0.644   9.913   8.415  0.4150 -0.5418 -0.1400
  436MOL0     H60099   0.876  10.045   8.134  0.4765  1.5799 -0.6049
  436MOL0     H60100   0.996  10.137   7.946 -1.0671 -0.2440  1.7953
  436MOL0     H60101   1.073  10.160   7.571 -1.7744 -1.8494 -1.1016
  436MOL0     H60102   1.091  10.149   7.746  0.1268  0.9800  0.2364
  436MOL0     H60103   1.009  10.374   7.798  1.9021  2.5950 -0.8153
  436MOL0     H60104   1.121  10.380   7.656 -0.4341 -0.1163 -0.7160
  436MOL0     H60105   0.914  10.377   7.512 -0.4894 -1.7105 -0.4707
  436MOL0     H60106   0.822  10.381   7.667  1.2953 -2.2680  0.2517
  436MOL0     H60107   0.918  10.592   7.733 -4.0500 -1.8787  0.0701
  436MOL0     H60108   1.017  10.593   7.576  0.8336 -1.4189 -0.4410
  436MOL0     H60109   0.834  10.752   7.551  0.4378  0.8167 -0.1451
  436MOL0     H60110   0.718  10.611   7.586  0.4951 -0.3083 -2.3736
  436MOL0     H60111   0.891  10.655   7.344 -0.9227 -1.9215 -3.3423
  436MOL0     H60112   0.786  10.518   7.363 -1.1367  1.1383 -1.7778
  436MOL0     H60113   0.685  10.804   7.341 -2.9506 -0.1868 -0.1477
  436MOL0     H60114   0.588  10.670   7.398 -0.2792  0.7389 -0.8590
  436MOL0     H60115   0.661  10.541   7.180 -2.3999  0.4148 -0.7542
  436MOL0     H60116   0.569  10.683   7.165  0.0539  1.4519  1.8576
  436MOL0     H60117   0.677  10.871   7.023  0.3629  0.5554  2.3642
  436MOL0     H60118   0.863  10.988   6.864 -1.2399  0.3234 -2.9660
  436MOL0     H60119   0.897  10.861   6.761 -2.7774  0.0887  0.6645
  436MOL0     H60120   1.102  10.998   6.966 -2.2218  0.3995  0.6551
  436MOL0     H60121   1.147  10.864   6.854  1.7221  0.6078  1.2846
  436MOL0     H60122   1.148  11.027   6.671  1.3134  2.4938 -0.2823
  436MOL0     H60123   1.062  11.145   6.774  2.1675  0.6558 -1.3284
  436MOL0     H60124   1.300  11.207   6.747  2.5817 -0.7002  1.4574
  436MOL0     H60125   1.261  11.163   6.899 -0.3746  4.9898 -1.3058
  436MOL0     H60126   1.461  11.132   6.583  1.3406  0.4234 -4.2913
  436MOL0     H60127   1.507  11.043   6.257  0.0143  3.9327 -1.3780
  436MOL0     H60128   1.676  11.058   6.329  0.3216  1.0429  0.6230
  436MOL0     H60129   1.545  11.164   6.374 -2.4768 -1.3146  0.5090
  436MOL0     H60130   1.445  10.623   6.135 -1.0139 -0.2382  0.0917
  436MOL0     H60131   1.502  10.497   5.921  0.1950 -2.3375  0.3776
  436MOL0     H60132   1.580  10.341   5.760  0.4505  0.0690  0.7192
  436MOL0     H60133   1.719  10.451   5.782 -1.4871 -0.1283 -0.1197
  436MOL0     H60134   1.851  10.249   5.702  0.1576  4.0333  1.1997
  436MOL0     H60135   1.699  10.154   5.678 -0.2738 -0.6325 -1.8062
  436MOL0     H60136   1.766  10.415   5.542  2.2571 -2.0208  2.3230
  436MOL0     H60137   1.611  10.332   5.512 -1.8182 -2.2097  1.2113
  436MOL0     H60138   1.882  10.194   5.433  2.0755  6.9349  2.7497
  436MOL0     H60139   1.811  10.313   5.336  1.9901  0.5611  1.1553
  436MOL0     H60140   1.594  10.216   5.317  0.2942 -0.1085 -1.7828
  436MOL0     H60141   1.711  10.115   5.240  1.3790 -3.1418  1.8146
  436MOL0     H60142   1.588  10.053   5.510  0.2803 -1.8834  1.0550
  436MOL0     H60143   1.710   9.962   5.421 -3.1616 -3.2019  2.6164
  436MOL0     H60144   1.546   9.925   5.223 -2.6071  0.2338  0.5148
  436MOL0     H60145   1.428  10.034   5.299 -0.4607  0.8691 -0.2807
  436MOL0     H60146   1.420   9.871   5.497 -2.0393  0.3741 -2.0264
  436MOL0     H60147   1.536   9.771   5.400  1.6588  0.7044 -0.2610
  436MOL0     H60148   1.820  10.298   6.144 -1.2048 -1.5039 -0.7903
  436MOL0     H60149   1.773  10.455   6.337  0.1499  2.4623 -0.1735
  436MOL0     H60150   1.506  10.644   6.571  1.4260 -0.1807 -0.5669
  436MOL0     H60151   1.394  10.764   6.758 -2.4957 -0.0598  0.6077
  436MOL0     H60152   0.679  10.010   7.672  2.9372 -1.3233 -1.1480
  436MOL0     H60153   0.545   9.945   7.877  0.1532  1.3948  0.5466
  436MOL0     H60154   0.268  10.094   8.189  0.5278 -1.0694 -0.0308
  436MOL0     H60155   0.136  10.060   8.396 -0.2835 -0.2725 -4.0761
  436MOL0     H60156   0.086  10.056   8.759  3.6645  0.3355  0.7368
  436MOL0     H60157   0.069  10.113   8.596  1.4562 -0.0418  1.9389
  436MOL0     H60158  -0.054   9.881   8.715 -1.2114  4.9908  0.8783
  436MOL0     H60159   0.083   9.826   8.617  4.0419  3.3311 -2.1192
  436MOL0     H60160  -0.157   9.997   8.514  1.9411  0.6915  1.6559
  436MOL0     H60161  -0.023   9.919   8.422  0.8344 -0.6936  1.3301
  436MOL0     H60162  -0.239   9.771   8.576  1.8826 -3.2305 -0.0545
  436MOL0     H60163  -0.108   9.709   8.496 -1.4534 -2.3649  0.0997
  436MOL0     H60164  -0.393   9.805   8.186 -1.2152  0.0362  0.3668
  436MOL0     H60165   0.463   9.908   8.606 -0.0667 -2.6731 -0.2252
  436MOL0     H60166   0.668   9.951   8.515 -1.5953  0.2137  0.0991
  436MOL0     H60167   0.653   9.804   8.411  1.0168 -0.6596  2.4507
  436MOL0     H60168   0.720   9.957   8.351 -1.6734 -0.5650 -2.8165
  437MOL0     O60169   7.152   0.999   4.670 -0.7993  0.5955  0.2002
  437MOL0     C60170   7.062   0.974   4.749 -0.9245  0.6283 -0.1030
  437MOL0     O60171   7.074   0.910   4.858 -0.6440  0.0091 -0.8517
  437MOL0     C60172   7.200   0.861   4.876  0.0639  0.7254 -0.0527
  437MOL0     C60173   7.280   0.929   4.971 -0.5624  0.2603  0.1158
  437MOL0     C60174   7.403   0.869   4.996 -0.1711 -0.3470  0.1325
  437MOL0     C60175   7.451   0.752   4.939 -0.9841  0.9427 -0.5470
  437MOL0     O60176   7.579   0.717   4.976  0.1464  0.6153  0.7416
  437MOL0     C60177   7.648   0.594   4.934 -0.1438 -0.1765 -0.1236
  437MOL0     C60178   7.779   0.580   5.000 -0.8751  0.5465  0.0701
  437MOL0     C60179   7.899   0.628   4.906  1.0851  0.1199  0.3004
  437MOL0     C60180   8.035   0.597   4.969  0.3993  0.0976  0.5818
  437MOL0     C60181   8.066   0.696   5.083  0.1504 -0.0811 -0.2370
  437MOL0     C60182   8.203   0.657   5.142  0.0057  0.1095  0.3788
  437MOL0     C60183   8.243   0.749   5.257 -0.3231  0.2278  0.3239
  437MOL0     C60184   8.345   0.685   5.358  0.0391  0.6531  0.6561
  437MOL0     N60185   8.467   0.642   5.297  0.1396 -0.2382  0.9965
  437MOL0     C60186   8.494   0.517   5.284  0.2339  0.2998  0.6716
  437MOL0     C60187   8.615   0.520   5.237  0.7988  0.4015  0.5068
  437MOL0     C60188   8.711   0.414   5.196 -0.1909  0.4428  0.5767
  437MOL0     C60189   8.646   0.273   5.178 -0.2877  0.3730 -0.5225
  437MOL0     C60190   8.600   0.241   5.035 -0.4668 -1.2351  0.3701
  437MOL0     C60191   8.482   0.332   4.980 -0.2292 -0.0600 -0.7982
  437MOL0     O60192   8.361   0.302   5.060 -0.7487 -0.4151 -0.2098
  437MOL0     C60193   8.245   0.289   4.990  0.8012 -0.4768 -0.2117
  437MOL0     C60194   8.208   0.337   4.866  0.0569 -1.1794 -0.2295
  437MOL0     C60195   8.086   0.312   4.798 -0.4467 -0.0271 -0.1953
  437MOL0     C60196   8.078   0.374   4.661  0.1399 -0.1831 -0.4562
  437MOL0     C60197   7.985   0.248   4.868  0.4809  0.1217  0.4173
  437MOL0     C60198   7.849   0.230   4.816  0.3951  0.0672  0.3019
  437MOL0     O60199   7.753   0.222   4.912 -0.0159 -0.1157 -0.4016
  437MOL0     C60200   7.644   0.149   4.891  0.6148 -0.3047  0.8591
  437MOL0     C60201   7.531   0.170   4.972  0.1108  0.4809  0.0938
  437MOL0     C60202   7.431   0.074   4.999 -0.6037  0.4912  0.3583
  437MOL0     C60203   7.429  -0.043   4.924  0.1467 -0.0398 -0.4277
  437MOL0     O60204   7.323  -0.125   4.944 -0.4087  0.3745  0.6414
  437MOL0     C60205   7.256  -0.159   4.826 -0.8005  0.0159  0.4425
  437MOL0     C60206   7.161  -0.045   4.789 -0.0855 -0.6528 -0.2379
  437MOL0     C60207   7.065  -0.096   4.681 -0.2882 -0.0782  0.3368
  437MOL0     C60208   6.990   0.023   4.606  0.3859 -0.6136  0.7909
  437MOL0     C60209   6.864  -0.041   4.550  0.2741 -0.2580  0.4862
  437MOL0     C60210   6.766   0.063   4.478  0.1525 -0.0927 -0.5494
  437MOL0     C60211   6.771   0.066   4.330  0.8172  0.0794  0.3537
  437MOL0     C60212   6.875   0.169   4.286 -0.0710  0.2059  0.3732
  437MOL0    Cl60213   6.878   0.172   4.112 -0.5244 -0.4103  0.3823
  437MOL0     C60214   7.541  -0.071   4.837 -0.0445 -0.6203 -0.3458
  437MOL0     C60215   7.644   0.025   4.822 -0.6990  0.6844  0.0241
  437MOL0     O60216   7.833   0.203   4.693 -0.1582 -0.0072 -0.1903
  437MOL0     C60217   8.020   0.195   4.995 -0.2368  0.3578  0.0227
  437MOL0     C60218   8.148   0.217   5.053 -0.0554  0.6650  0.2773
  437MOL0     N60219   8.668   0.645   5.234 -0.6086 -1.0150 -0.7374
  437MOL0     N60220   8.566   0.719   5.259 -0.5087 -0.1398 -0.3096
  437MOL0     C60221   7.369   0.688   4.846 -0.0040  0.0917  0.1981
  437MOL0     C60222   7.245   0.746   4.808  0.3615  1.1846 -0.3551
  437MOL0     C60223   6.923   1.028   4.731 -0.1222 -0.0508  0.8351
  437MOL0     C60224   6.850   1.068   4.841 -0.3290 -0.6600  0.0588
  437MOL0     C60225   6.731   1.136   4.829  0.0207  0.1653 -0.6388
  437MOL0     C60226   6.665   1.163   4.701 -0.4213 -0.6632  0.3460
  437MOL0     O60227   6.550   1.237   4.671  0.0925 -0.7684  0.1899
  437MOL0     C60228   6.438   1.197   4.741 -0.9194  0.2439 -0.5865
  437MOL0     C60229   6.427   1.043   4.744  0.0033  1.5193 -0.1063
  437MOL0     C60230   6.413   0.973   4.607 -0.4297  0.2396 -0.8323
  437MOL0     C60231   6.396   0.824   4.605  0.1314  0.0762 -0.6894
  437MOL0     C60232   6.490   0.752   4.699  0.4792 -0.1564  0.8600
  437MOL0     C60233   6.575   0.703   4.774  0.1579  0.5783  0.0347
  437MOL0     C60234   6.739   1.114   4.592 -0.0139 -0.4113  1.4155
  437MOL0     C60235   6.861   1.054   4.606  0.1879  0.0541 -0.2454
  437MOL0     C60236   6.929   1.014   4.480  1.0838 -0.2359  0.0468
  437MOL0     H60237   7.251   1.027   5.009 -1.1922 -0.4284  1.5089
  437MOL0     H60238   7.475   0.930   5.050 -0.3381  0.8598 -0.9696
  437MOL0     H60239   7.666   0.611   4.827  5.4297  2.6281  0.8773
  437MOL0     H60240   7.586   0.512   4.969 -2.1099  1.9560  1.7193
  437MOL0     H60241   7.787   0.636   5.094  0.1693 -2.0351  1.6194
  437MOL0     H60242   7.789   0.477   5.034 -1.6333  0.7967  1.0715
  437MOL0     H60243   7.899   0.571   4.813 -1.8576 -0.5163  0.5834
  437MOL0     H60244   7.896   0.733   4.879 -0.1857 -0.0825 -0.4743
  437MOL0     H60245   8.049   0.494   5.005 -0.8481 -0.6922 -1.0361
  437MOL0     H60246   8.119   0.600   4.899 -0.9928  0.0193 -1.1834
  437MOL0     H60247   7.983   0.695   5.155 -0.8931  0.2963 -1.3945
  437MOL0     H60248   8.091   0.794   5.041  1.2953  0.1861  1.0167
  437MOL0     H60249   8.198   0.554   5.179 -0.1121 -0.2245 -0.5401
  437MOL0     H60250   8.280   0.647   5.065 -0.4879  0.0990 -0.1206
  437MOL0     H60251   8.155   0.790   5.307 -2.0009  2.7057 -4.1807
  437MOL0     H60252   8.293   0.834   5.211  0.2830 -1.8993 -3.3320
  437MOL0     H60253   8.366   0.758   5.436  0.2227  1.0352  0.2493
  437MOL0     H60254   8.301   0.597   5.406 -1.9000  0.4806 -1.2840
  437MOL0     H60255   8.428   0.431   5.286 -1.2219  1.3248 -0.6676
  437MOL0     H60256   8.791   0.413   5.271 -0.1182  1.4645  0.5205
  437MOL0     H60257   8.755   0.449   5.102 -0.5536 -1.8449 -0.5036
  437MOL0     H60258   8.722   0.200   5.206  0.7300  1.6575  0.1337
  437MOL0     H60259   8.563   0.254   5.247 -1.4720  0.5438 -1.8466
  437MOL0     H60260   8.690   0.261   4.977 -0.2507 -1.7995  0.5032
  437MOL0     H60261   8.562   0.138   5.032  2.7880 -2.6774  2.4625
  437MOL0     H60262   8.509   0.437   4.985  1.1926 -0.4560  0.8921
  437MOL0     H60263   8.479   0.304   4.874  5.3069 -1.7149 -0.7943
  437MOL0     H60264   8.276   0.401   4.810 -1.0500 -0.1427 -0.4336
  437MOL0     H60265   8.113   0.478   4.654 -1.4808  0.3640 -0.8618
  437MOL0     H60266   7.988   0.365   4.600  1.1108  0.1357 -1.9690
  437MOL0     H60267   8.157   0.324   4.605 -0.4446 -0.0744 -1.4001
  437MOL0     H60268   7.522   0.256   5.038 -2.0489 -1.0284  1.9342
  437MOL0     H60269   7.357   0.101   5.073 -0.2525  1.0448  0.5120
  437MOL0     H60270   7.330  -0.183   4.749 -0.3613  2.4615  0.0192
  437MOL0     H60271   7.192  -0.243   4.853 -2.6865  1.0575 -0.5932
  437MOL0     H60272   7.098  -0.006   4.869  0.1743 -0.0132 -0.3345
  437MOL0     H60273   7.226   0.035   4.751 -0.9266  0.3388  0.3751
  437MOL0     H60274   6.995  -0.166   4.726  0.8091 -1.7202 -0.4102
  437MOL0     H60275   7.122  -0.159   4.612  3.5720  1.4216  1.8671
  437MOL0     H60276   7.051   0.078   4.534 -1.6228  4.5790  2.5885
  437MOL0     H60277   6.955   0.101   4.675 -1.6475 -0.0270 -0.8233
  437MOL0     H60278   6.876  -0.125   4.481  1.5363 -0.6281  1.1287
  437MOL0     H60279   6.819  -0.098   4.632 -0.0847  0.9885  1.1773
  437MOL0     H60280   6.767   0.167   4.511 -2.4452  0.1624 -1.0522
  437MOL0     H60281   6.662   0.038   4.503  0.4305  0.1514  0.9215
  437MOL0     H60282   6.675   0.101   4.291  1.8038  0.0855 -2.2269
  437MOL0     H60283   6.782  -0.034   4.289  0.8766  0.4414 -0.5343
  437MOL0     H60284   6.978   0.146   4.315  0.0544  0.0599 -0.1831
  437MOL0     H60285   6.846   0.267   4.323  1.0660  0.8322 -0.3222
  437MOL0     H60286   7.549  -0.169   4.792 -6.0215 -1.7234  0.2080
  437MOL0     H60287   7.721  -0.025   4.765  1.2644  0.9796  2.2647
  437MOL0     H60288   7.961   0.125   5.053 -2.1598  2.2594  0.5080
  437MOL0     H60289   8.173   0.165   5.144 -0.0304 -0.6356 -0.4459
  437MOL0     H60290   7.402   0.601   4.790  1.9361 -1.7084  3.7571
  437MOL0     H60291   7.184   0.701   4.730 -0.7872  0.8134  0.7286
  437MOL0     H60292   6.893   1.045   4.938 -2.9771 -2.5310  0.8927
  437MOL0     H60293   6.694   1.162   4.927 -1.0207 -3.6402  0.1151
  437MOL0     H60294   6.434   1.247   4.838 -1.1112  0.0989 -0.5188
  437MOL0     H60295   6.348   1.229   4.687 -2.3351  0.1424  1.5903
  437MOL0     H60296   6.325   1.020   4.778  0.1515 -0.8269 -1.0344
  437MOL0     H60297   6.502   0.994   4.807 -0.3744  3.3850  1.9035
  437MOL0     H60298   6.326   1.022   4.563 -1.0735  2.5565  2.5820
  437MOL0     H60299   6.497   0.994   4.540 -0.0033  3.1894  0.4646
  437MOL0     H60300   6.399   0.779   4.506 -1.1736 -3.7268  0.7889
  437MOL0     H60301   6.294   0.795   4.631  0.2744 -2.2444 -2.3206
  437MOL0     H60302   6.647   0.660   4.840 -1.1770 -0.1363  1.0851
  437MOL0     H60303   6.707   1.111   4.488  0.8075 -1.5266  1.1866
  437MOL0     H60304   7.015   1.080   4.467  1.2190 -0.1937  1.0716
  437MOL0     H60305   6.958   0.909   4.488  1.3261 -0.0175  3.2226
  437MOL0     H60306   6.874   1.021   4.386 -1.7630  0.8622  1.6602
  438MOL0     O60307   4.279  11.439   1.864  0.8718  0.0145 -0.6545
  438MOL0     C60308   4.356  11.405   1.768 -0.1202  0.0639  0.7364
  438MOL0     O60309   4.313  11.340   1.658  0.3964 -0.2250  0.3504
  438MOL0     C60310   4.186  11.370   1.613 -0.6179 -0.6632  1.6350
  438MOL0     C60311   4.108  11.270   1.551  0.3120  1.1070 -0.1005
  438MOL0     C60312   3.986  11.305   1.484  0.7417 -1.0060  0.0296
  438MOL0     C60313   3.946  11.441   1.466  0.3879 -0.3716  0.4304
  438MOL0     O60314   3.838  11.495   1.410 -0.7382  0.7084  0.1442
  438MOL0     C60315   3.785  11.455   1.294  0.3816  0.0337  1.5838
  438MOL0     C60316   3.647  11.385   1.317  0.6265  0.2868  0.0264
  438MOL0     C60317   3.574  11.367   1.187  0.8141  0.0205  0.8197
  438MOL0     C60318   3.613  11.245   1.101 -0.7319  0.2816  1.2664
  438MOL0     C60319   3.524  11.216   0.979  0.2102 -1.0473 -1.2913
  438MOL0     C60320   3.472  11.346   0.909 -0.0210 -0.2038  0.4009
  438MOL0     C60321   3.427  11.308   0.767 -0.4181 -1.5066  0.9134
  438MOL0     C60322   3.302  11.215   0.759  0.1124 -0.2938 -0.8400
  438MOL0     N60323   3.189  11.278   0.840  0.9462  0.2391  0.0143
  438MOL0     C60324   3.146  11.235   0.966 -0.1649 -0.6826 -0.5173
  438MOL0     C60325   3.050  11.322   1.018 -0.4416  0.4877  0.8799
  438MOL0     C60326   2.975  11.322   1.145  0.2264 -0.7807 -0.4154
  438MOL0     C60327   3.051  11.420   1.241 -0.4348  0.0374 -0.6184
  438MOL0     C60328   2.975  11.457   1.375  0.0750  0.7904  0.3090
  438MOL0     C60329   3.064  11.543   1.466 -0.2558 -0.1072  0.4507
  438MOL0     O60330   3.184  11.466   1.505  0.2663  0.2278 -0.0051
  438MOL0     C60331   3.302  11.521   1.542 -0.6085  0.6919 -0.6909
  438MOL0     C60332   3.399  11.431   1.595  0.6564 -0.7388  0.9962
  438MOL0     C60333   3.527  11.471   1.637  0.1419  1.6446  0.4970
  438MOL0     C60334   3.608  11.355   1.685 -0.4747 -0.5032 -0.0054
  438MOL0     C60335   3.560  11.609   1.644 -0.7062  0.5274  0.5006
  438MOL0     C60336   3.692  11.659   1.675 -0.3520 -0.1253  0.2012
  438MOL0     O60337   3.777  11.590   1.750  0.2483 -0.6172 -1.0059
  438MOL0     C60338   3.862  11.652   1.840  1.0251 -0.6883  0.3242
  438MOL0     C60339   3.838  11.786   1.889  0.0363 -0.1413  0.6231
  438MOL0     C60340   3.932  11.856   1.988  0.0648 -0.0158  0.1972
  438MOL0     C60341   4.037  11.780   2.044 -0.4603  0.0578 -0.2423
  438MOL0     O60342   4.128  11.839   2.127  0.5314  0.2742 -0.6391
  438MOL0     C60343   4.080  11.931   2.227  0.0460  1.0268 -0.1699
  438MOL0     C60344   4.128  11.891   2.364  0.0754 -0.3035 -0.1175
  438MOL0     C60345   4.275  11.936   2.384  0.0662  0.1488 -0.1756
  438MOL0     C60346   4.317  11.924   2.535  0.5934  0.4589  0.8568
  438MOL0     C60347   4.460  11.934   2.579 -0.6794 -0.6534  0.0332
  438MOL0     C60348   4.508  11.797   2.624  0.1247 -0.1117 -0.4789
  438MOL0     C60349   4.651  11.790   2.696  0.8397  0.2328  0.5757
  438MOL0     C60350   4.699  11.652   2.764 -0.2802 -0.7303  0.4836
  438MOL0    Cl60351   4.576  11.601   2.883 -0.2165  0.1249  0.1846
  438MOL0     C60352   4.053  11.652   2.003  0.0390  0.6363  0.2938
  438MOL0     C60353   3.968  11.587   1.910  0.9111 -0.2105  0.5461
  438MOL0     O60354   3.709  11.771   1.625  0.0805 -0.3310  0.2328
  438MOL0     C60355   3.464  11.690   1.595 -0.7678 -0.4516  0.1973
  438MOL0     C60356   3.343  11.651   1.549  0.3219  0.2832  0.2088
  438MOL0     N60357   3.037  11.411   0.913 -0.1660  0.2992 -0.4256
  438MOL0     N60358   3.110  11.379   0.809 -0.1054 -0.5648 -0.0235
  438MOL0     C60359   4.028  11.536   1.523  0.1398 -0.4939  0.8536
  438MOL0     C60360   4.143  11.501   1.597 -0.5299 -0.9460 -0.2980
  438MOL0     C60361   4.496  11.450   1.774 -0.5051 -0.9643 -0.7044
  438MOL0     C60362   4.556  11.466   1.652  0.2473  0.3992 -0.8608
  438MOL0     C60363   4.674  11.539   1.650  0.0700 -0.5574  0.6521
  438MOL0     C60364   4.746  11.568   1.772 -0.5868 -0.4258 -0.1472
  438MOL0     O60365   4.884  11.603   1.779 -0.6437  1.0482  0.3573
  438MOL0     C60366   4.948  11.623   1.647  0.9869  0.0251  0.2312
  438MOL0     C60367   5.095  11.666   1.635  0.9432 -0.6057  0.0271
  438MOL0     C60368   5.195  11.566   1.691 -0.0279 -0.7568 -0.0214
  438MOL0     C60369   5.316  11.626   1.757  0.6101 -0.3463 -0.9444
  438MOL0     C60370   5.401  11.522   1.822  0.0183 -0.3264  0.7335
  438MOL0     C60371   5.472  11.434   1.847 -0.4324  0.4246  0.7403
  438MOL0     C60372   4.676  11.559   1.899  0.1336 -0.3570 -0.6687
  438MOL0     C60373   4.550  11.498   1.903 -0.4308  0.7572  0.9522
  438MOL0     C60374   4.492  11.472   2.044 -0.0033 -0.8187  0.4342
  438MOL0     H60375   4.146  11.168   1.554  1.1263  1.4029 -0.0468
  438MOL0     H60376   3.933  11.226   1.432 -0.9425  0.5167 -0.6384
  438MOL0     H60377   3.854  11.386   1.245 -2.2920 -1.5125 -0.2506
  438MOL0     H60378   3.763  11.534   1.222 -1.2259  0.6374  2.6680
  438MOL0     H60379   3.652  11.288   1.366 -2.1022  0.2875  0.4091
  438MOL0     H60380   3.579  11.448   1.375  1.8830 -0.5811  2.5903
  438MOL0     H60381   3.468  11.370   1.218  0.6841 -0.0431  0.3850
  438MOL0     H60382   3.589  11.457   1.126 -0.3198 -2.6244 -3.8188
  438MOL0     H60383   3.717  11.256   1.067 -0.0754 -3.0827  1.8687
  438MOL0     H60384   3.604  11.154   1.161  0.2715  1.0428  2.6203
  438MOL0     H60385   3.425  11.174   1.000 -0.0876 -0.8734 -2.2996
  438MOL0     H60386   3.570  11.144   0.911 -0.6350 -2.2045 -0.6816
  438MOL0     H60387   3.396  11.403   0.963 -1.3251  0.1016 -1.6520
  438MOL0     H60388   3.558  11.414   0.904 -0.6753  0.6605 -4.1269
  438MOL0     H60389   3.507  11.275   0.699 -0.2693  1.7575 -0.7192
  438MOL0     H60390   3.403  11.408   0.728  0.0454 -1.2869  1.1823
  438MOL0     H60391   3.271  11.216   0.655  0.2858 -0.1263 -0.8907
  438MOL0     H60392   3.317  11.112   0.793 -2.4728 -0.6222 -0.5099
  438MOL0     H60393   3.182  11.148   1.020 -2.4143 -2.6607 -1.9636
  438MOL0     H60394   2.969  11.222   1.189 -0.4427 -0.4793  0.2059
  438MOL0     H60395   2.871  11.347   1.123  0.4759  2.0312  1.1208
  438MOL0     H60396   3.142  11.366   1.268 -0.1155  1.3626  1.1799
  438MOL0     H60397   3.080  11.517   1.199 -0.4567  0.8161  1.0802
  438MOL0     H60398   2.876  11.499   1.354 -1.2947 -1.9850  0.7304
  438MOL0     H60399   2.966  11.365   1.435  0.6328  1.2307  1.0911
  438MOL0     H60400   3.097  11.633   1.413  2.2817 -0.6523  0.9844
  438MOL0     H60401   3.006  11.573   1.554  0.4441  0.9366  0.5769
  438MOL0     H60402   3.374  11.326   1.583 -1.1511 -0.6608  3.2851
  438MOL0     H60403   3.572  11.259   1.647  1.7744  0.0565 -4.1077
  438MOL0     H60404   3.612  11.345   1.794 -0.6073 -0.4876  0.0011
  438MOL0     H60405   3.704  11.356   1.633  0.0209  0.1465  0.8904
  438MOL0     H60406   3.761  11.857   1.860  0.1172  0.0527  0.8776
  438MOL0     H60407   3.938  11.963   2.002  0.6964  0.4293 -2.7096
  438MOL0     H60408   4.111  12.031   2.195 -1.4164  0.4030 -4.0122
  438MOL0     H60409   3.972  11.935   2.239 -0.3301  2.2476 -3.2097
  438MOL0     H60410   4.065  11.948   2.434  2.6688  0.6924  1.5403
  438MOL0     H60411   4.118  11.783   2.376  1.0238 -0.6415 -2.1214
  438MOL0     H60412   4.283  12.041   2.353  2.1906 -0.4076 -1.7699
  438MOL0     H60413   4.355  11.883   2.331 -0.3529 -1.8530  1.0940
  438MOL0     H60414   4.286  11.828   2.577  4.1492 -1.8443 -1.1979
  438MOL0     H60415   4.260  12.009   2.575 -0.5805  1.0871 -1.9326
  438MOL0     H60416   4.517  11.979   2.497  2.5903 -1.9700  1.4041
  438MOL0     H60417   4.480  12.001   2.663 -0.4575 -2.5021  1.5307
  438MOL0     H60418   4.501  11.725   2.542  3.2297 -1.9855  0.7185
  438MOL0     H60419   4.429  11.763   2.692  0.3601 -0.2631 -0.2795
  438MOL0     H60420   4.647  11.855   2.784 -1.5155 -1.1373  1.5862
  438MOL0     H60421   4.724  11.823   2.622 -1.1193 -0.3983 -1.7609
  438MOL0     H60422   4.801  11.668   2.801 -0.4381  0.1684  0.5445
  438MOL0     H60423   4.703  11.570   2.692 -1.7652  1.0578 -1.7762
  438MOL0     H60424   4.132  11.594   2.049 -0.7933 -0.6665  0.1491
  438MOL0     H60425   4.002  11.489   1.877  3.0113  1.4236 -2.6351
  438MOL0     H60426   3.475  11.798   1.595  2.3626 -0.5488  4.0316
  438MOL0     H60427   3.277  11.732   1.521 -1.5308 -0.8174  1.2103
  438MOL0     H60428   3.986  11.636   1.528 -0.4893 -0.6841 -0.3164
  438MOL0     H60429   4.192  11.583   1.648  2.0766 -0.9960 -2.5104
  438MOL0     H60430   4.514  11.427   1.559 -0.2298 -2.0829  0.3032
  438MOL0     H60431   4.703  11.563   1.549  0.8066  3.0390  1.5532
  438MOL0     H60432   4.943  11.537   1.580  2.4194  3.4268 -4.8808
  438MOL0     H60433   4.884  11.694   1.594 -3.1082 -1.4422  2.8111
  438MOL0     H60434   5.114  11.762   1.685 -1.9684  0.1467 -0.1390
  438MOL0     H60435   5.114  11.665   1.528  0.7149 -0.8947 -0.0119
  438MOL0     H60436   5.144  11.513   1.771 -0.0777 -1.0581 -0.2513
  438MOL0     H60437   5.222  11.502   1.606 -3.1457  1.7292 -3.1943
  438MOL0     H60438   5.280  11.694   1.835 -0.7961 -1.5656 -0.4724
  438MOL0     H60439   5.380  11.686   1.692  3.3528  1.9576  3.4098
  438MOL0     H60440   5.506  11.338   1.882 -1.7528 -1.2338 -2.0853
  438MOL0     H60441   4.731  11.590   1.988  1.0706  0.4787 -1.5121
  438MOL0     H60442   4.414  11.543   2.072  0.1075 -1.5590  2.9326
  438MOL0     H60443   4.453  11.369   2.041 -3.4651  0.3731  0.5089
  438MOL0     H60444   4.572  11.464   2.118  1.6383  0.1119 -1.1629
  439MOL0     O60445   8.431   8.818   5.078 -0.4329 -0.0658  0.5279
  439MOL0     C60446   8.420   8.775   4.961  0.1860 -0.1231 -0.2316
  439MOL0     O60447   8.516   8.802   4.862 -0.2223  0.3509  0.1362
  439MOL0     C60448   8.642   8.838   4.911  0.2326 -0.3008  0.1039
  439MOL0     C60449   8.675   8.970   4.920 -0.1304 -0.0701  0.4084
  439MOL0     C60450   8.812   9.007   4.946  0.9233 -0.2470  0.0716
  439MOL0     C60451   8.909   8.909   4.983 -0.0973 -0.8935  0.1462
  439MOL0     O60452   9.036   8.940   5.032  0.6922  0.3193 -0.2636
  439MOL0     C60453   9.095   9.066   4.999  0.3190 -0.2149  0.4563
  439MOL0     C60454   9.092   9.168   5.124 -0.0994  0.0949  0.2558
  439MOL0     C60455   9.178   9.300   5.112  0.3492  2.0684  0.9435
  439MOL0     C60456   9.218   9.354   5.253  0.3374  0.1962 -0.6003
  439MOL0     C60457   9.244   9.504   5.232 -0.0218 -0.6498  0.6097
  439MOL0     C60458   9.284   9.581   5.358 -0.9428 -0.3876  0.6028
  439MOL0     C60459   9.294   9.738   5.323  0.2558  0.6966 -0.4057
  439MOL0     C60460   9.317   9.820   5.450 -0.0727 -0.3444 -0.2853
  439MOL0     N60461   9.426   9.766   5.526  0.1403 -0.1316 -0.6989
  439MOL0     C60462   9.562   9.777   5.498  0.2959  1.1076 -0.4178
  439MOL0     C60463   9.620   9.711   5.601 -0.5295  0.2221  0.4229
  439MOL0     C60464   9.776   9.687   5.621  0.1985 -0.3706 -0.1347
  439MOL0     C60465   9.842   9.809   5.682 -0.0696 -0.2125  0.8991
  439MOL0     C60466   9.996   9.809   5.659 -0.6972 -0.3380 -1.3607
  439MOL0     C60467  10.044   9.897   5.541 -0.2823 -0.4055  0.7123
  439MOL0     O60468   9.952   9.868   5.429 -0.1703  0.2967 -0.0087
  439MOL0     C60469   9.958   9.963   5.330 -0.0973 -0.2157  0.6979
  439MOL0     C60470  10.032  10.074   5.330 -0.1264 -0.3414  0.5705
  439MOL0     C60471  10.026  10.162   5.223 -1.1218  0.5385  0.4304
  439MOL0     C60472  10.124  10.277   5.247  0.2901  0.4803  0.2075
  439MOL0     C60473   9.936  10.139   5.125 -0.3934 -0.0338 -0.0669
  439MOL0     C60474   9.904  10.237   5.017 -0.0873  0.3648 -0.5038
  439MOL0     O60475   9.826  10.193   4.915 -0.1176  0.2348  0.6587
  439MOL0     C60476   9.808  10.286   4.812  0.6000 -0.5145  0.5073
  439MOL0     C60477   9.913  10.322   4.730 -1.1168  0.1929  0.1375
  439MOL0     C60478   9.896  10.407   4.621  1.0694  0.2026 -0.1382
  439MOL0     C60479   9.768  10.455   4.588 -0.5169 -0.0569 -0.6213
  439MOL0     O60480   9.772  10.544   4.488 -0.4710 -0.2890 -0.0568
  439MOL0     C60481   9.654  10.578   4.432 -0.3284 -1.0435  0.5761
  439MOL0     C60482   9.686  10.675   4.305 -0.2510 -0.0440 -0.1485
  439MOL0     C60483   9.789  10.789   4.328  0.5207  0.2881  0.1890
  439MOL0     C60484   9.745  10.926   4.274 -0.2067 -0.1571 -0.2559
  439MOL0     C60485   9.863  11.024   4.298  0.8993  0.0847 -1.2625
  439MOL0     C60486   9.819  11.172   4.269 -0.2396  0.2940 -0.4742
  439MOL0     C60487   9.941  11.260   4.256 -0.6926  0.9517  0.2588
  439MOL0     C60488   9.907  11.404   4.244  0.3596 -0.5423  0.6896
  439MOL0    Cl60489   9.792  11.455   4.104  0.2489  0.2121 -0.5048
  439MOL0     C60490   9.657  10.410   4.662  0.5759  0.1638 -0.3031
  439MOL0     C60491   9.676  10.322   4.769  0.1896  0.1351 -0.1930
  439MOL0     O60492   9.944  10.354   5.032  0.1079 -0.6068  0.5482
  439MOL0     C60493   9.867  10.012   5.117  0.8443  0.0443 -0.8876
  439MOL0     C60494   9.888   9.922   5.218  0.1663 -0.1546 -0.1803
  439MOL0     N60495   9.528   9.653   5.682  0.0284 -0.5327 -0.4040
  439MOL0     N60496   9.407   9.686   5.639  0.3386 -0.0794  0.5240
  439MOL0     C60497   8.872   8.770   4.979 -0.1042  0.0748  0.3153
  439MOL0     C60498   8.745   8.733   4.932  0.4062 -0.8516  0.2450
  439MOL0     C60499   8.318   8.670   4.926 -0.1101 -0.0958 -0.9978
  439MOL0     C60500   8.338   8.607   4.800  0.0421  0.4617  0.2675
  439MOL0     C60501   8.240   8.516   4.744 -0.2380 -0.1314  0.0623
  439MOL0     C60502   8.137   8.472   4.833  0.3499  0.5856  0.3989
  439MOL0     O60503   8.042   8.370   4.812 -0.0071 -0.2177 -0.0110
  439MOL0     C60504   8.090   8.238   4.839  0.6257  0.0191  0.4794
  439MOL0     C60505   8.078   8.197   4.982 -0.0013  0.0731  0.3953
  439MOL0     C60506   7.934   8.197   5.049 -0.5846 -0.3693 -0.4249
  439MOL0     C60507   7.944   8.142   5.198 -0.4121  0.2190  0.0525
  439MOL0     C60508   7.971   7.995   5.202 -0.7304 -0.2855  0.2359
  439MOL0     C60509   7.988   7.876   5.200  0.2014 -0.2899  0.4214
  439MOL0     C60510   8.116   8.543   4.959  0.0192  0.5430 -0.4119
  439MOL0     C60511   8.198   8.640   5.006 -1.0845  1.0801  0.1296
  439MOL0     C60512   8.159   8.695   5.132 -0.3398 -0.9171 -0.1484
  439MOL0     H60513   8.597   9.040   4.894  0.6519  1.8692  2.9173
  439MOL0     H60514   8.826   9.114   4.960  0.0229 -0.1596  0.4018
  439MOL0     H60515   9.053   9.129   4.920  2.0298  2.6490  1.7051
  439MOL0     H60516   9.196   9.038   4.970  1.3322 -2.3790  5.0755
  439MOL0     H60517   8.988   9.197   5.143 -0.4013 -0.2423 -0.8041
  439MOL0     H60518   9.130   9.111   5.209  0.0559  1.4526  1.1274
  439MOL0     H60519   9.269   9.277   5.056  0.5062  0.6465  1.7374
  439MOL0     H60520   9.121   9.374   5.054 -0.1019  1.8742  1.1301
  439MOL0     H60521   9.134   9.337   5.322 -0.6647 -0.2707 -1.8847
  439MOL0     H60522   9.310   9.300   5.277  1.9475  1.7394 -2.8837
  439MOL0     H60523   9.154   9.553   5.194  0.4271  0.4387  0.8979
  439MOL0     H60524   9.319   9.512   5.153  0.8934 -0.7394  1.4485
  439MOL0     H60525   9.214   9.559   5.439 -0.6147 -0.6607  0.8183
  439MOL0     H60526   9.377   9.533   5.389 -2.0116 -5.0811 -2.3320
  439MOL0     H60527   9.204   9.776   5.275 -1.2841  1.5790  2.9372
  439MOL0     H60528   9.381   9.763   5.260  0.8754  0.4672  0.3410
  439MOL0     H60529   9.336   9.926   5.430 -2.8326  0.5944  1.5401
  439MOL0     H60530   9.226   9.821   5.510 -0.9038  1.5170 -1.4636
  439MOL0     H60531   9.617   9.841   5.430  0.4412 -0.5694 -1.9651
  439MOL0     H60532   9.813   9.650   5.525  0.3077 -1.1265  0.1909
  439MOL0     H60533   9.795   9.596   5.680  1.7993 -1.2132 -1.8648
  439MOL0     H60534   9.790   9.898   5.644 -0.9923 -1.1174 -0.0405
  439MOL0     H60535   9.820   9.807   5.789  0.9660 -0.4396  1.1128
  439MOL0     H60536  10.041   9.844   5.753  0.1595 -2.4634 -0.9003
  439MOL0     H60537  10.036   9.707   5.649 -1.2022 -0.4254 -2.6085
  439MOL0     H60538  10.027   9.998   5.582 -3.3157 -0.6497  0.3066
  439MOL0     H60539  10.148   9.868   5.526 -0.0930  0.9548 -0.8118
  439MOL0     H60540  10.096  10.094   5.415  0.0533  0.4839  0.2489
  439MOL0     H60541  10.220  10.249   5.293  0.3557 -1.4613 -1.0032
  439MOL0     H60542  10.072  10.355   5.303 -1.8459  0.4914 -1.6647
  439MOL0     H60543  10.159  10.328   5.156  1.0899 -0.2642  0.0789
  439MOL0     H60544  10.006  10.268   4.743 -0.4869  1.6426  2.1463
  439MOL0     H60545   9.983  10.436   4.563  0.5922 -2.5650 -2.5252
  439MOL0     H60546   9.593  10.492   4.405  0.4801 -0.7905 -2.4350
  439MOL0     H60547   9.613  10.651   4.502  0.3640  2.7304 -2.5811
  439MOL0     H60548   9.725  10.602   4.234 -1.2604 -3.8140  2.7767
  439MOL0     H60549   9.587  10.706   4.269 -0.4412 -1.1520 -0.6149
  439MOL0     H60550   9.882  10.758   4.279 -0.5247  0.3899 -1.9846
  439MOL0     H60551   9.811  10.799   4.434  4.4630  0.6018 -0.4981
  439MOL0     H60552   9.655  10.960   4.326 -0.7633  0.9541 -1.8455
  439MOL0     H60553   9.705  10.926   4.172 -1.1065 -1.1440  0.0870
  439MOL0     H60554   9.896  11.010   4.401 -0.0299  2.5526 -0.5608
  439MOL0     H60555   9.946  10.992   4.235  0.8670 -1.2850 -0.6392
  439MOL0     H60556   9.766  11.222   4.351  1.7854  0.1182  1.0272
  439MOL0     H60557   9.767  11.186   4.174 -0.2250  0.4047 -0.4665
  439MOL0     H60558   9.993  11.222   4.168  0.1461 -1.7036  1.7757
  439MOL0     H60559  10.008  11.236   4.339  2.7361 -2.2084 -3.0721
  439MOL0     H60560  10.001  11.459   4.239  0.3029 -0.4517  0.6292
  439MOL0     H60561   9.860  11.439   4.336 -0.5807 -1.4279  0.5685
  439MOL0     H60562   9.555  10.433   4.635 -0.1658 -0.6168  1.6331
  439MOL0     H60563   9.588  10.288   4.822  0.5384  0.4775  0.6119
  439MOL0     H60564   9.796   9.994   5.037 -0.6936 -0.7213  0.5945
  439MOL0     H60565   9.837   9.827   5.230  2.4586 -1.1930  2.6268
  439MOL0     H60566   8.940   8.689   5.004  1.3303  1.4312  0.9700
  439MOL0     H60567   8.710   8.631   4.924 -3.0804  0.2253 -0.0625
  439MOL0     H60568   8.411   8.628   4.722 -1.7204 -3.0431 -2.6179
  439MOL0     H60569   8.256   8.454   4.656 -2.8779 -0.7084 -0.1041
  439MOL0     H60570   8.036   8.166   4.776 -1.3028  1.6260  0.1806
  439MOL0     H60571   8.194   8.237   4.805  0.0446 -0.7789 -1.4058
  439MOL0     H60572   8.141   8.257   5.048 -2.0775 -1.3790  4.0178
  439MOL0     H60573   8.119   8.097   4.996  0.1588  0.1795  0.6988
  439MOL0     H60574   7.909   8.304   5.050 -2.5963 -0.7652  1.9745
  439MOL0     H60575   7.858   8.151   4.986 -1.1921 -1.8765  1.3026
  439MOL0     H60576   7.843   8.149   5.240  0.2558  1.8456  1.4888
  439MOL0     H60577   8.015   8.206   5.251  0.8381  1.1105 -2.5187
  439MOL0     H60578   8.011   7.772   5.194  1.4443  0.0532 -3.4964
  439MOL0     H60579   8.027   8.517   5.015  0.1573  0.8744 -0.0359
  439MOL0     H60580   8.051   8.680   5.143 -0.1124 -2.3808  0.2920
  439MOL0     H60581   8.210   8.646   5.216  1.7336 -0.6224 -1.1929
  439MOL0     H60582   8.185   8.801   5.127  3.2592 -1.7117 -1.3415
  440MOL0     O60583  10.800   5.158   3.635 -1.1156  0.2949  0.0986
  440MOL0     C60584  10.819   5.103   3.527  0.5967 -0.3432 -0.2294
  440MOL0     O60585  10.892   5.154   3.428  0.1828 -0.3644  0.0567
  440MOL0     C60586  10.897   5.291   3.409  0.0323  0.0878  0.4113
  440MOL0     C60587  11.022   5.350   3.416 -0.5417 -0.4923  1.1946
  440MOL0     C60588  11.044   5.492   3.409  0.0560  0.8668 -0.6867
  440MOL0     C60589  10.936   5.575   3.372 -0.1778 -0.3110 -0.2275
  440MOL0     O60590  10.947   5.710   3.352 -0.1008 -0.2523 -0.0925
  440MOL0     C60591  10.981   5.771   3.478  1.6446  0.5649  1.0535
  440MOL0     C60592  11.009   5.921   3.462 -0.0243 -0.2804  0.9092
  440MOL0     C60593  11.054   5.998   3.585  0.0107 -0.2460 -0.8577
  440MOL0     C60594  11.058   6.150   3.563 -0.1016 -0.0360  0.0038
  440MOL0     C60595  11.124   6.213   3.678 -0.7762 -0.3004 -0.3282
  440MOL0     C60596  11.026   6.224   3.798 -0.7157 -0.2741 -0.2186
  440MOL0     C60597  11.105   6.267   3.919 -0.0346  0.4013  0.5045
  440MOL0     C60598  11.050   6.355   4.034 -0.2108 -1.3636  0.5635
  440MOL0     N60599  11.020   6.254   4.134 -0.1169 -0.3190 -0.1426
  440MOL0     C60600  10.903   6.179   4.149 -0.9802  0.9897  0.5412
  440MOL0     C60601  10.935   6.100   4.253 -0.1560 -0.4520 -1.3155
  440MOL0     C60602  10.848   5.989   4.298  0.5160 -0.0648 -0.7235
  440MOL0     C60603  10.882   5.856   4.228 -0.1144  0.5580 -1.3406
  440MOL0     C60604  10.902   5.872   4.076 -1.2553  1.0373 -0.1339
  440MOL0     C60605  10.966   5.745   4.018 -0.3726 -0.4999 -1.1350
  440MOL0     O60606  10.972   5.759   3.879 -0.2964 -0.6544 -0.3822
  440MOL0     C60607  11.070   5.670   3.839 -0.0510 -0.6900  1.2029
  440MOL0     C60608  11.205   5.706   3.816 -0.3421  0.1455 -0.5254
  440MOL0     C60609  11.307   5.622   3.768  0.6622  1.0341 -0.1163
  440MOL0     C60610  11.436   5.682   3.736 -0.4322  0.4837 -0.3606
  440MOL0     C60611  11.274   5.488   3.735  0.5596 -0.6073 -0.1449
  440MOL0     C60612  11.373   5.395   3.695 -0.2796 -1.1225  0.4667
  440MOL0     O60613  11.348   5.317   3.592  0.4040  0.0249  0.0539
  440MOL0     C60614  11.446   5.270   3.503  0.0430 -0.3470  0.0274
  440MOL0     C60615  11.531   5.169   3.544 -0.8534 -0.0458  0.2857
  440MOL0     C60616  11.620   5.106   3.451  0.7582 -0.1179  0.4018
  440MOL0     C60617  11.626   5.154   3.319 -0.3686 -0.2279  0.5911
  440MOL0     O60618  11.719   5.112   3.232 -0.2553  0.1506 -0.6134
  440MOL0     C60619  11.852   5.094   3.285  0.0190  0.0786  0.5010
  440MOL0     C60620  11.932   5.038   3.172 -0.0307 -0.5364 -0.2962
  440MOL0     C60621  12.084   5.002   3.204 -0.6939  0.2448 -1.0945
  440MOL0     C60622  12.146   4.920   3.095  0.3083  0.0502 -0.0431
  440MOL0     C60623  12.301   4.901   3.113  0.2293 -0.2343 -0.2844
  440MOL0     C60624  12.390   5.030   3.103  0.2727  0.6617 -0.3412
  440MOL0     C60625  12.373   5.095   2.971  0.4195  0.2175  0.1685
  440MOL0     C60626  12.299   5.233   2.973 -0.4443 -1.1275  0.4162
  440MOL0    Cl60627  12.365   5.363   3.077  0.1639  0.2446  0.2677
  440MOL0     C60628  11.535   5.255   3.276 -0.1589  0.6239 -0.0309
  440MOL0     C60629  11.441   5.300   3.367 -0.1827 -0.3814  1.4492
  440MOL0     O60630  11.485   5.398   3.750 -0.2312  0.0978 -1.2275
  440MOL0     C60631  11.133   5.441   3.753  0.2853  0.0216 -1.1229
  440MOL0     C60632  11.036   5.537   3.793  0.4759 -0.2458 -0.5118
  440MOL0     N60633  11.055   6.142   4.304 -0.3460 -0.0910  0.0528
  440MOL0     N60634  11.102   6.236   4.232 -0.0220 -0.1985  0.3058
  440MOL0     C60635  10.810   5.523   3.354  0.0901  0.1680  0.3769
  440MOL0     C60636  10.790   5.380   3.371 -0.2182  0.0260 -0.2080
  440MOL0     C60637  10.750   4.971   3.516 -0.4196 -1.4047 -0.2684
  440MOL0     C60638  10.693   4.908   3.619  0.8561 -0.2059 -0.0670
  440MOL0     C60639  10.621   4.792   3.607 -0.1733  0.3463 -0.0147
  440MOL0     C60640  10.601   4.739   3.481 -0.4850  0.2146  0.1845
  440MOL0     O60641  10.536   4.613   3.479  0.1915 -0.3076  0.8584
  440MOL0     C60642  10.551   4.530   3.356 -0.0307  0.3873 -0.8463
  440MOL0     C60643  10.542   4.378   3.383 -0.5734 -0.5798  0.4207
  440MOL0     C60644  10.416   4.350   3.472 -0.0086 -0.1676  0.3434
  440MOL0     C60645  10.369   4.205   3.476  1.1055  0.7200 -0.5102
  440MOL0     C60646  10.298   4.168   3.351  0.1372  0.6221 -0.5034
  440MOL0     C60647  10.249   4.141   3.242 -0.0296 -0.2916  0.3354
  440MOL0     C60648  10.648   4.807   3.367 -0.1184 -0.1875 -0.0098
  440MOL0     C60649  10.728   4.924   3.383  0.2769  0.4499 -0.4114
  440MOL0     C60650  10.783   4.979   3.246  0.8184  0.0003  0.1955
  440MOL0     H60651  11.107   5.292   3.451  0.8723 -0.5688 -2.0518
  440MOL0     H60652  11.144   5.534   3.409 -0.6512  2.7814  1.7283
  440MOL0     H60653  11.071   5.721   3.513  0.7118 -0.8267  1.5511
  440MOL0     H60654  10.896   5.746   3.544  1.0672  1.0313  0.4997
  440MOL0     H60655  11.084   5.924   3.383 -2.8409  1.7502 -1.9501
  440MOL0     H60656  10.917   5.966   3.422 -0.6795 -1.7477  0.7177
  440MOL0     H60657  10.992   5.978   3.673 -0.4279  4.3311  0.1433
  440MOL0     H60658  11.158   5.969   3.600 -0.8265 -2.2718  1.9445
  440MOL0     H60659  11.126   6.167   3.479  1.0854  2.8522  1.3841
  440MOL0     H60660  10.959   6.189   3.540 -0.4482 -2.2585 -2.7408
  440MOL0     H60661  11.164   6.309   3.644  0.0444 -0.3238  0.5122
  440MOL0     H60662  11.212   6.161   3.719  1.7810  4.0000  0.2834
  440MOL0     H60663  10.959   6.305   3.768 -0.0088  0.7289  0.8282
  440MOL0     H60664  10.960   6.140   3.823  2.0114 -2.9876 -1.4322
  440MOL0     H60665  11.185   6.330   3.880  0.0937 -1.0589 -1.8086
  440MOL0     H60666  11.144   6.175   3.964 -0.8118  0.6152  1.6413
  440MOL0     H60667  11.116   6.436   4.065  1.0074 -1.2363 -2.0933
  440MOL0     H60668  10.966   6.407   3.988  0.3455  0.3743  1.4277
  440MOL0     H60669  10.810   6.174   4.093 -0.4484 -1.2385 -0.2721
  440MOL0     H60670  10.745   6.010   4.269  0.0317 -1.5496 -0.1617
  440MOL0     H60671  10.844   5.974   4.406 -3.1449 -4.1933 -1.1387
  440MOL0     H60672  10.975   5.807   4.258 -1.4925 -1.5068 -0.1412
  440MOL0     H60673  10.801   5.785   4.247 -1.5835  2.3733 -0.3813
  440MOL0     H60674  10.812   5.913   4.030 -0.0453  2.1822 -1.6307
  440MOL0     H60675  10.974   5.950   4.048 -0.7870  0.6450 -0.0254
  440MOL0     H60676  11.068   5.734   4.058  0.9278  1.1756 -3.6528
  440MOL0     H60677  10.902   5.661   4.043 -0.1146 -0.2941  0.2864
  440MOL0     H60678  11.236   5.808   3.837  2.8898  0.6651 -6.1035
  440MOL0     H60679  11.520   5.645   3.796 -0.9488  2.3356  1.6413
  440MOL0     H60680  11.431   5.791   3.744 -0.0564  0.5530 -0.9922
  440MOL0     H60681  11.478   5.664   3.637 -0.2982  0.9654 -0.3926
  440MOL0     H60682  11.528   5.142   3.650 -0.6521 -0.1004  0.2787
  440MOL0     H60683  11.689   5.028   3.482 -0.3910 -0.9981  0.8312
  440MOL0     H60684  11.888   5.193   3.315  0.3265  0.5106 -1.1807
  440MOL0     H60685  11.857   5.017   3.362  0.5549 -0.6607 -0.2540
  440MOL0     H60686  11.876   4.948   3.144 -0.5267 -0.5919  0.8136
  440MOL0     H60687  11.942   5.116   3.096  1.6221  0.4749  0.8878
  440MOL0     H60688  12.096   4.944   3.296 -0.2893  0.2217 -1.1604
  440MOL0     H60689  12.134   5.097   3.225 -1.7588  0.7886 -0.9211
  440MOL0     H60690  12.118   4.972   3.004 -0.4359 -0.4652 -0.1184
  440MOL0     H60691  12.098   4.824   3.071  0.4642  0.4889 -2.2375
  440MOL0     H60692  12.335   4.860   3.209 -0.8824  1.8965  1.1315
  440MOL0     H60693  12.341   4.840   3.032 -1.5521  0.3521 -1.6777
  440MOL0     H60694  12.493   5.002   3.126 -0.1308 -0.1112  0.5686
  440MOL0     H60695  12.357   5.097   3.182 -0.8952 -0.0835 -0.1693
  440MOL0     H60696  12.319   5.028   2.904  1.0854 -2.4160  2.1193
  440MOL0     H60697  12.476   5.111   2.936  2.0063 -0.0641  4.2291
  440MOL0     H60698  12.191   5.219   2.986 -0.9786  1.3982 -0.6228
  440MOL0     H60699  12.295   5.280   2.874 -2.0573 -1.0382  0.4951
  440MOL0     H60700  11.538   5.287   3.172 -1.8139  1.1249  0.0465
  440MOL0     H60701  11.377   5.373   3.319  1.4559  0.8266  0.9944
  440MOL0     H60702  11.102   5.337   3.750 -1.0730  0.2965  1.0641
  440MOL0     H60703  10.932   5.506   3.790 -1.6763  5.5140  0.4949
  440MOL0     H60704  10.735   5.595   3.323 -0.7304 -0.4501  0.9030
  440MOL0     H60705  10.693   5.330   3.367 -0.2475 -0.1192  1.5080
  440MOL0     H60706  10.710   4.950   3.718 -1.8979 -3.0786  1.8180
  440MOL0     H60707  10.588   4.749   3.701 -0.5476 -1.1421 -0.7886
  440MOL0     H60708  10.475   4.551   3.280  0.4503  0.4495 -1.3164
  440MOL0     H60709  10.648   4.549   3.309  0.4501  0.5676  0.1953
  440MOL0     H60710  10.634   4.356   3.438 -0.9420 -1.2209  0.7960
  440MOL0     H60711  10.534   4.318   3.292 -1.0542  0.6247 -0.3506
  440MOL0     H60712  10.465   4.371   3.567  0.5437 -0.0374  0.0349
  440MOL0     H60713  10.330   4.415   3.452  1.4042  1.5033 -0.6368
  440MOL0     H60714  10.296   4.186   3.555 -0.1863  1.9198 -1.3695
  440MOL0     H60715  10.453   4.138   3.496  1.1438  1.3984  1.9590
  440MOL0     H60716  10.225   4.133   3.138  0.9377  0.8806 -0.0029
  440MOL0     H60717  10.633   4.766   3.268 -0.3568 -0.2605  0.0555
  440MOL0     H60718  10.746   5.082   3.246  0.4022 -0.1472  0.3002
  440MOL0     H60719  10.892   4.974   3.250  0.7694 -0.9007  2.0664
  440MOL0     H60720  10.740   4.923   3.163 -3.3459  2.3455  0.5046
  441MOL0     O60721   7.097   1.083   3.567 -0.3362 -0.3602 -0.0133
  441MOL0     C60722   7.109   1.199   3.602  1.1398  0.3409 -0.5707
  441MOL0     O60723   7.218   1.252   3.663  0.6487  0.0134  0.1677
  441MOL0     C60724   7.321   1.172   3.684  0.7871 -0.1361 -0.9742
  441MOL0     C60725   7.397   1.122   3.575  0.6667  0.0702  0.2877
  441MOL0     C60726   7.498   1.033   3.602 -0.7514 -0.5647 -0.1852
  441MOL0     C60727   7.522   0.987   3.725 -0.4187 -1.0024  0.6967
  441MOL0     O60728   7.623   0.892   3.750 -0.4648 -0.2768 -0.7683
  441MOL0     C60729   7.720   0.863   3.647  0.2025 -0.2341 -0.5384
  441MOL0     C60730   7.816   0.750   3.687  0.5134  0.8583  0.0738
  441MOL0     C60731   7.739   0.610   3.686  0.1585  0.0070 -0.2460
  441MOL0     C60732   7.684   0.559   3.550  0.5510 -0.6745  0.1056
  441MOL0     C60733   7.592   0.445   3.556  0.3266  0.6619  0.5412
  441MOL0     C60734   7.582   0.375   3.416  0.4336 -0.9262  0.3849
  441MOL0     C60735   7.573   0.222   3.443  0.1250  0.2402  0.2099
  441MOL0     C60736   7.445   0.170   3.520 -0.4377 -0.6691  0.4306
  441MOL0     N60737   7.447   0.060   3.613 -0.7987 -0.8243 -0.2762
  441MOL0     C60738   7.344   0.015   3.676  0.4524 -1.6009  0.5798
  441MOL0     C60739   7.380  -0.075   3.764  0.0526  0.6134 -0.2524
  441MOL0     C60740   7.291  -0.145   3.857 -0.1899 -0.0664 -0.1389
  441MOL0     C60741   7.207  -0.046   3.937  0.3643  0.8020  0.8390
  441MOL0     C60742   7.108  -0.122   4.032  0.0825 -0.0185 -0.6464
  441MOL0     C60743   7.164  -0.193   4.158  0.3190 -0.3017 -0.2283
  441MOL0     O60744   7.256  -0.113   4.243 -0.3597 -0.0359 -0.3058
  441MOL0     C60745   7.337  -0.175   4.339  0.9597 -0.4418 -0.2145
  441MOL0     C60746   7.467  -0.128   4.349  1.0618  0.5956  0.0072
  441MOL0     C60747   7.565  -0.186   4.421 -0.8468 -0.8930  0.6284
  441MOL0     C60748   7.700  -0.122   4.443  0.3782 -0.2511 -0.2020
  441MOL0     C60749   7.535  -0.307   4.489  0.2788 -0.1887  0.8952
  441MOL0     C60750   7.632  -0.384   4.564  0.2615 -0.8025  0.0707
  441MOL0     O60751   7.676  -0.505   4.506  0.7340 -0.6356 -1.1118
  441MOL0     C60752   7.762  -0.587   4.585  0.3580 -0.0908 -0.0263
  441MOL0     C60753   7.739  -0.727   4.582 -0.8740  0.4687  0.1344
  441MOL0     C60754   7.835  -0.809   4.654 -1.1090 -0.6175 -0.4665
  441MOL0     C60755   7.944  -0.760   4.722 -0.1454 -0.2804  0.2322
  441MOL0     O60756   8.017  -0.859   4.778  0.3049 -0.3822 -0.0838
  441MOL0     C60757   8.145  -0.818   4.831 -0.9004 -0.0439 -0.6232
  441MOL0     C60758   8.225  -0.942   4.860  0.0261 -0.1394  0.6600
  441MOL0     C60759   8.205  -0.967   5.017  0.0897 -1.0629  0.2989
  441MOL0     C60760   8.279  -1.096   5.056 -1.3958 -0.5289 -0.3231
  441MOL0     C60761   8.242  -1.134   5.203  0.4179 -0.3741 -0.0521
  441MOL0     C60762   8.320  -1.260   5.233  0.0934  0.0685  1.0444
  441MOL0     C60763   8.293  -1.352   5.354 -0.9759  0.2951 -1.0046
  441MOL0     C60764   8.394  -1.466   5.357 -0.0049  0.0747 -0.3190
  441MOL0    Cl60765   8.535  -1.386   5.442  0.1447  0.0977 -0.1042
  441MOL0     C60766   7.969  -0.621   4.718  0.1068  0.4915 -0.2411
  441MOL0     C60767   7.875  -0.536   4.656  0.2354  0.3118 -0.3100
  441MOL0     O60768   7.635  -0.358   4.684 -0.0887 -0.3658  0.4407
  441MOL0     C60769   7.400  -0.354   4.490 -0.2397 -0.5738 -0.0926
  441MOL0     C60770   7.305  -0.297   4.402 -1.0387  0.0415 -0.5005
  441MOL0     N60771   7.515  -0.098   3.751 -0.5717  0.1227 -0.7348
  441MOL0     N60772   7.559   0.000   3.671  0.2811  0.3226 -0.4077
  441MOL0     C60773   7.451   1.026   3.833 -0.2176  1.0641 -0.4708
  441MOL0     C60774   7.349   1.120   3.815 -0.3978 -0.3609 -0.3166
  441MOL0     C60775   7.002   1.296   3.562 -0.1676  0.6725  0.9882
  441MOL0     C60776   6.989   1.314   3.422  0.2120  0.0751  1.0109
  441MOL0     C60777   6.901   1.411   3.370 -0.8252  1.1426  0.0638
  441MOL0     C60778   6.809   1.472   3.453  0.2083  0.1821 -0.6347
  441MOL0     O60779   6.715   1.553   3.400 -0.4061 -0.0209  0.3094
  441MOL0     C60780   6.578   1.555   3.452  0.3433  0.2084  0.2722
  441MOL0     C60781   6.476   1.637   3.367  0.4624 -0.1644 -0.3239
  441MOL0     C60782   6.516   1.778   3.331 -0.1355  0.2479 -0.3462
  441MOL0     C60783   6.419   1.826   3.230 -0.3562 -0.1948  1.1222
  441MOL0     C60784   6.389   1.972   3.243 -0.2367 -0.5602 -1.0033
  441MOL0     C60785   6.352   2.089   3.266  0.2608  0.0655  0.9229
  441MOL0     C60786   6.824   1.449   3.593  0.8581 -0.4970 -0.0349
  441MOL0     C60787   6.921   1.375   3.650 -0.6634  0.4395 -0.3706
  441MOL0     C60788   6.925   1.356   3.796 -0.4676 -0.0131 -0.7632
  441MOL0     H60789   7.365   1.164   3.480  1.0382 -0.6835 -0.1737
  441MOL0     H60790   7.552   1.006   3.512 -0.1139 -0.8202  0.2692
  441MOL0     H60791   7.775   0.956   3.631  0.2374 -0.5706 -2.7487
  441MOL0     H60792   7.671   0.841   3.552 -3.2950  0.2073  0.9954
  441MOL0     H60793   7.890   0.736   3.607 -0.5445 -0.7070 -0.6671
  441MOL0     H60794   7.865   0.786   3.778  3.1288  1.1350 -1.3142
  441MOL0     H60795   7.790   0.530   3.739 -2.2795 -1.1760  0.4636
  441MOL0     H60796   7.649   0.625   3.746  1.9543  1.2262  2.2860
  441MOL0     H60797   7.625   0.636   3.499  0.4637 -0.1431  1.0054
  441MOL0     H60798   7.770   0.535   3.486 -0.1919 -1.5162 -0.6093
  441MOL0     H60799   7.495   0.461   3.604  1.2501 -2.1179  3.7550
  441MOL0     H60800   7.628   0.365   3.622 -1.7378 -0.3175  0.5554
  441MOL0     H60801   7.498   0.410   3.355  1.4539  0.6237 -0.2062
  441MOL0     H60802   7.674   0.387   3.358 -0.7632  0.3200 -1.3828
  441MOL0     H60803   7.665   0.179   3.482  0.3160  1.9864  1.7981
  441MOL0     H60804   7.563   0.172   3.346 -1.1065 -1.9360  1.3534
  441MOL0     H60805   7.397   0.254   3.572  0.8918  0.9717 -0.8618
  441MOL0     H60806   7.389   0.134   3.434  0.8292  0.9260 -1.1388
  441MOL0     H60807   7.244   0.057   3.662  1.0840 -0.2301  0.0090
  441MOL0     H60808   7.354  -0.201   3.926 -0.6520  1.3967  1.5466
  441MOL0     H60809   7.224  -0.202   3.792 -0.3129  0.5854 -0.5917
  441MOL0     H60810   7.270   0.012   4.005  0.8039  0.1557  0.9893
  441MOL0     H60811   7.148   0.014   3.866  0.6868 -0.2506 -0.3433
  441MOL0     H60812   7.024  -0.057   4.059 -2.4645 -2.7223 -1.5613
  441MOL0     H60813   7.052  -0.199   3.978  0.5312 -1.5503  0.9684
  441MOL0     H60814   7.078  -0.220   4.220 -0.6126  1.7683 -0.5271
  441MOL0     H60815   7.223  -0.279   4.124  0.1519 -1.1565  1.5394
  441MOL0     H60816   7.502  -0.039   4.296 -0.7330  3.3906  3.1303
  441MOL0     H60817   7.780  -0.193   4.420 -0.7300 -1.3579 -0.7388
  441MOL0     H60818   7.706  -0.081   4.544 -0.6445  1.3733 -0.7585
  441MOL0     H60819   7.706  -0.031   4.382  1.9183  1.4681  2.3604
  441MOL0     H60820   7.655  -0.766   4.526 -2.5109 -1.8204  3.8385
  441MOL0     H60821   7.832  -0.917   4.643  2.8938 -0.8419 -0.9078
  441MOL0     H60822   8.198  -0.763   4.753  0.5584  0.6867  0.8172
  441MOL0     H60823   8.138  -0.753   4.919 -4.5939  0.8295 -1.3745
  441MOL0     H60824   8.212  -1.025   4.790  1.2450  1.0047 -0.9796
  441MOL0     H60825   8.329  -0.909   4.854 -0.0551 -0.0707 -0.7387
  441MOL0     H60826   8.097  -0.972   5.035 -0.7371  0.9992 -3.0516
  441MOL0     H60827   8.236  -0.881   5.077  0.0396 -1.3686  0.7674
  441MOL0     H60828   8.387  -1.084   5.040 -1.7847 -0.1036 -3.0286
  441MOL0     H60829   8.261  -1.179   4.988  2.8268 -2.7027  0.8702
  441MOL0     H60830   8.257  -1.056   5.278  2.0066 -1.5318  0.8947
  441MOL0     H60831   8.136  -1.161   5.204 -0.4227  2.5704  1.0178
  441MOL0     H60832   8.429  -1.250   5.227  0.1236 -0.4746  0.6792
  441MOL0     H60833   8.297  -1.335   5.157 -0.8158  0.3800  0.9985
  441MOL0     H60834   8.189  -1.386   5.348 -0.9280 -0.6289  1.8590
  441MOL0     H60835   8.295  -1.283   5.438 -1.4652  0.8446 -1.4362
  441MOL0     H60836   8.408  -1.493   5.252  0.5536 -0.7566 -0.0338
  441MOL0     H60837   8.352  -1.550   5.412  1.2254 -0.4146 -0.0941
  441MOL0     H60838   8.055  -0.575   4.766  0.5943  0.7043 -1.2995
  441MOL0     H60839   7.886  -0.429   4.656  2.9274  0.0967 -1.2005
  441MOL0     H60840   7.358  -0.443   4.535 -1.1786  0.6555  1.6169
  441MOL0     H60841   7.221  -0.360   4.376 -1.4724  0.1764  0.5289
  441MOL0     H60842   7.476   0.976   3.926 -1.3067  1.8075  0.2381
  441MOL0     H60843   7.298   1.160   3.903 -0.2349 -1.8051  0.4675
  441MOL0     H60844   7.056   1.248   3.368  0.6219 -0.3013  1.9568
  441MOL0     H60845   6.903   1.415   3.262  0.4390 -4.8907 -0.5171
  441MOL0     H60846   6.534   1.455   3.458 -1.4598  0.4124 -4.6554
  441MOL0     H60847   6.578   1.593   3.554  1.7067  1.2743 -0.0941
  441MOL0     H60848   6.384   1.645   3.425 -1.3868 -2.4356 -2.6879
  441MOL0     H60849   6.456   1.588   3.271 -2.7357 -0.8824  0.6160
  441MOL0     H60850   6.526   1.841   3.420  1.9432  1.1146 -1.1100
  441MOL0     H60851   6.617   1.769   3.288  0.9041  4.8889  0.5601
  441MOL0     H60852   6.326   1.771   3.247  0.8168 -3.1331 -1.1689
  441MOL0     H60853   6.447   1.810   3.126  1.9229  1.9653  1.2966
  441MOL0     H60854   6.310   2.187   3.275  0.3883  0.6571 -3.0073
  441MOL0     H60855   6.763   1.519   3.650  1.7382  0.2073  0.0751
  441MOL0     H60856   6.981   1.264   3.814 -3.2720 -1.8677 -0.9624
  441MOL0     H60857   6.984   1.438   3.839  0.6596 -1.8514  1.3813
  441MOL0     H60858   6.829   1.343   3.845 -0.1416  0.4164  0.0107
  442MOL0     O60859  10.086   5.915   2.543  0.3035 -0.1313  0.1468
  442MOL0     C60860  10.061   6.011   2.613  0.4186 -0.1109  0.2001
  442MOL0     O60861  10.124   6.128   2.588 -0.0386  0.8474 -0.2506
  442MOL0     C60862  10.227   6.145   2.502  0.8390 -1.0119 -0.0430
  442MOL0     C60863  10.237   6.278   2.452 -0.1837 -0.0937 -0.3438
  442MOL0     C60864  10.328   6.320   2.356  0.0413  0.9354  0.4411
  442MOL0     C60865  10.426   6.232   2.307  0.4006 -0.1254  0.5201
  442MOL0     O60866  10.519   6.289   2.222  0.0587 -0.2560  0.1188
  442MOL0     C60867  10.593   6.193   2.142 -0.6943  0.1936  0.0523
  442MOL0     C60868  10.696   6.244   2.041  0.5603  0.3140  0.4200
  442MOL0     C60869  10.722   6.132   1.938 -0.3954  0.6061  0.2110
  442MOL0     C60870  10.621   6.128   1.817  0.1077  0.1804  0.3165
  442MOL0     C60871  10.700   6.139   1.678 -0.8299  0.6830 -0.4967
  442MOL0     C60872  10.705   6.274   1.616  0.1071  0.9565 -0.6108
  442MOL0     C60873  10.562   6.317   1.576 -0.5770 -0.3970 -0.7475
  442MOL0     C60874  10.473   6.229   1.492  0.2432 -0.2572 -1.0568
  442MOL0     N60875  10.523   6.192   1.361 -0.1644 -0.4765  0.0613
  442MOL0     C60876  10.614   6.263   1.286  0.6063  0.3054  0.2460
  442MOL0     C60877  10.632   6.177   1.176 -0.1543  0.7872 -0.0512
  442MOL0     C60878  10.698   6.205   1.044 -0.8511  0.8266  0.5146
  442MOL0     C60879  10.825   6.105   1.015 -0.4841 -0.7487  0.7170
  442MOL0     C60880  10.936   6.118   1.116  0.6057 -0.1370  0.8139
  442MOL0     C60881  11.080   6.149   1.060  0.7870  0.6232 -0.3008
  442MOL0     O60882  11.111   6.034   0.983  0.7984 -0.0646  0.1323
  442MOL0     C60883  11.238   6.002   0.941 -0.3638 -0.1533  0.2341
  442MOL0     C60884  11.258   5.884   0.876  0.4926  0.4966 -0.7116
  442MOL0     C60885  11.386   5.832   0.833  0.2166 -0.4002 -0.2612
  442MOL0     C60886  11.398   5.702   0.767 -0.9313 -0.1665 -0.0530
  442MOL0     C60887  11.504   5.910   0.867  1.0018 -0.2981  0.2923
  442MOL0     C60888  11.636   5.862   0.854 -0.5359 -0.6053 -0.3418
  442MOL0     O60889  11.685   5.881   0.741  0.0854 -0.7685  0.2458
  442MOL0     C60890  11.808   5.818   0.721  0.2645 -0.5134 -0.3064
  442MOL0     C60891  11.810   5.685   0.671  0.1808  0.3284 -0.8361
  442MOL0     C60892  11.933   5.626   0.633 -0.3274 -0.5016 -0.1664
  442MOL0     C60893  12.052   5.704   0.623 -0.4671 -0.0647  0.0775
  442MOL0     O60894  12.165   5.662   0.551  0.0331  0.4419  0.1456
  442MOL0     C60895  12.191   5.523   0.569  0.0615 -0.4254 -0.0305
  442MOL0     C60896  12.342   5.509   0.533  0.8604  0.1630 -0.5535
  442MOL0     C60897  12.385   5.552   0.397 -0.8102 -0.2409  0.1087
  442MOL0     C60898  12.318   5.477   0.278 -0.8982 -0.6651 -0.1877
  442MOL0     C60899  12.402   5.492   0.150 -0.3259 -0.1094 -0.6767
  442MOL0     C60900  12.323   5.436   0.030  0.7858  0.7977  0.2943
  442MOL0     C60901  12.300   5.283   0.051 -0.1834  0.1955  0.3702
  442MOL0     C60902  12.217   5.211  -0.047 -0.4923 -0.3618 -0.0168
  442MOL0    Cl60903  12.289   5.205  -0.210  0.0394  0.2993  0.0766
  442MOL0     C60904  12.047   5.833   0.668 -0.4274 -1.4586  0.2006
  442MOL0     C60905  11.925   5.891   0.728 -1.0200 -0.1072  0.4288
  442MOL0     O60906  11.702   5.850   0.960  0.2885  0.2868  0.0470
  442MOL0     C60907  11.483   6.033   0.923  0.3444 -0.5918 -0.7508
  442MOL0     C60908  11.354   6.084   0.958 -0.5267  0.5786 -0.0339
  442MOL0     N60909  10.568   6.067   1.205  0.7478  1.1505 -0.3967
  442MOL0     N60910  10.511   6.069   1.318  1.3490 -0.1123  1.0398
  442MOL0     C60911  10.416   6.097   2.350 -0.0167  1.1343  1.1015
  442MOL0     C60912  10.322   6.057   2.446  0.5176  0.0433 -0.9831
  442MOL0     C60913   9.948   6.005   2.710 -0.0841  0.3807  0.1106
  442MOL0     C60914   9.856   5.898   2.683 -0.4920  0.4435 -0.7015
  442MOL0     C60915   9.751   5.866   2.765 -0.3112 -0.0280  0.0995
  442MOL0     C60916   9.729   5.950   2.878  0.2544 -0.3310  0.2008
  442MOL0     O60917   9.620   5.912   2.954 -0.0076  0.5262  0.2863
  442MOL0     C60918   9.581   5.980   3.068  0.8797 -0.5648 -0.1434
  442MOL0     C60919   9.500   6.109   3.025 -0.5275  0.0854 -0.1424
  442MOL0     C60920   9.350   6.083   3.006  0.5763 -0.1763  0.9520
  442MOL0     C60921   9.250   6.173   3.076 -0.6806  0.0640 -0.4902
  442MOL0     C60922   9.258   6.310   3.029 -0.1885  0.0106  0.0993
  442MOL0     C60923   9.260   6.431   3.010  1.3956  0.0157 -0.1098
  442MOL0     C60924   9.812   6.060   2.902  0.7770  0.0836 -0.6283
  442MOL0     C60925   9.918   6.088   2.814 -0.1597  0.3906 -0.5997
  442MOL0     C60926   9.995   6.211   2.841  0.2593  0.9862  0.8414
  442MOL0     H60927  10.159   6.342   2.492 -0.0772 -0.8022  1.0287
  442MOL0     H60928  10.322   6.420   2.313 -3.0258  0.7804  0.2952
  442MOL0     H60929  10.523   6.132   2.084 -2.8507  2.3990  0.1693
  442MOL0     H60930  10.658   6.139   2.212  0.1781  1.7150  0.4662
  442MOL0     H60931  10.664   6.334   1.987  1.7260  1.0495  0.9228
  442MOL0     H60932  10.779   6.276   2.103 -0.1822  2.2796  0.4622
  442MOL0     H60933  10.816   6.158   1.891 -0.8405  1.6423 -0.1301
  442MOL0     H60934  10.725   6.038   1.995  0.0871 -0.0450 -0.8675
  442MOL0     H60935  10.554   6.045   1.840  2.0679 -0.3832  5.2675
  442MOL0     H60936  10.557   6.217   1.818 -0.7272 -0.4184  0.9799
  442MOL0     H60937  10.659   6.069   1.605  1.0305  1.1819 -2.1242
  442MOL0     H60938  10.803   6.103   1.683 -1.3345 -0.6913  0.4434
  442MOL0     H60939  10.746   6.345   1.688 -3.9524  0.9198  2.0737
  442MOL0     H60940  10.782   6.288   1.540  0.2782  1.3290 -0.3730
  442MOL0     H60941  10.567   6.418   1.532 -5.3633  1.0060  1.3017
  442MOL0     H60942  10.505   6.340   1.666 -2.9516  0.1102 -2.2850
  442MOL0     H60943  10.449   6.136   1.545  0.5488  0.1447 -0.2034
  442MOL0     H60944  10.377   6.279   1.478  0.1970 -0.1712 -0.4305
  442MOL0     H60945  10.659   6.361   1.300  0.5369  0.5469 -1.0926
  442MOL0     H60946  10.739   6.306   1.056 -0.2222  0.5207  1.0226
  442MOL0     H60947  10.628   6.194   0.961 -1.2910  1.1518  0.8404
  442MOL0     H60948  10.786   6.004   1.000 -0.6363 -0.2502 -3.5891
  442MOL0     H60949  10.859   6.130   0.914  0.5997 -2.8878  0.4984
  442MOL0     H60950  10.910   6.190   1.194 -2.6068  2.0287 -2.0108
  442MOL0     H60951  10.937   6.025   1.175 -1.5029 -0.9558 -0.3511
  442MOL0     H60952  11.080   6.236   0.993  0.3044  0.6780 -0.2355
  442MOL0     H60953  11.149   6.160   1.144 -0.0272 -2.8617  0.9898
  442MOL0     H60954  11.169   5.826   0.855 -0.3456  1.6716 -0.4995
  442MOL0     H60955  11.460   5.636   0.829 -0.5225  0.2356 -0.0249
  442MOL0     H60956  11.447   5.712   0.669 -2.0290 -0.1840 -0.6170
  442MOL0     H60957  11.305   5.647   0.752  0.0956 -1.9075 -0.3930
  442MOL0     H60958  11.718   5.629   0.659  1.9260 -2.7959 -0.6346
  442MOL0     H60959  11.943   5.524   0.597 -2.6222 -1.2315  1.0925
  442MOL0     H60960  12.175   5.501   0.675 -3.5938  0.9694 -0.1290
  442MOL0     H60961  12.133   5.455   0.507  2.0563 -1.4088 -0.9087
  442MOL0     H60962  12.394   5.572   0.606  0.2783  0.3795 -0.3194
  442MOL0     H60963  12.363   5.402   0.537  1.3367  0.2711 -0.0263
  442MOL0     H60964  12.490   5.524   0.390 -0.8842 -0.5570  0.2337
  442MOL0     H60965  12.373   5.660   0.384  2.3719  0.0570 -1.3426
  442MOL0     H60966  12.220   5.525   0.273  0.1715  1.6820  0.2985
  442MOL0     H60967  12.307   5.371   0.306 -3.9652 -1.0475 -2.2976
  442MOL0     H60968  12.432   5.595   0.127 -0.2263  0.0312  0.0518
  442MOL0     H60969  12.488   5.427   0.170 -1.5515 -1.6971 -0.3803
  442MOL0     H60970  12.386   5.445  -0.060  1.6089  1.5632  0.9292
  442MOL0     H60971  12.229   5.486   0.006  1.1370  2.3279  1.9301
  442MOL0     H60972  12.259   5.258   0.149  1.9586 -0.2072  1.2216
  442MOL0     H60973  12.403   5.245   0.045 -0.6395 -0.9654 -0.4018
  442MOL0     H60974  12.121   5.263  -0.057 -0.1986  0.7516  2.3617
  442MOL0     H60975  12.191   5.113  -0.005 -0.4152 -0.8320 -1.0278
  442MOL0     H60976  12.131   5.898   0.646 -1.8803  0.2280 -0.6777
  442MOL0     H60977  11.918   5.996   0.752 -0.2993 -0.1441  0.8368
  442MOL0     H60978  11.572   6.092   0.942  0.2332 -0.3615 -0.9535
  442MOL0     H60979  11.358   6.187   0.993  3.2905 -0.0419  1.8785
  442MOL0     H60980  10.471   6.020   2.297 -4.5215 -1.6330 -0.1069
  442MOL0     H60981  10.336   5.953   2.473  1.5909  0.6246  0.8441
  442MOL0     H60982   9.880   5.837   2.597  2.5757 -0.9434  0.9637
  442MOL0     H60983   9.692   5.781   2.733 -0.8298  0.7792 -1.1827
  442MOL0     H60984   9.511   5.922   3.128 -2.4390  2.7112 -0.4931
  442MOL0     H60985   9.673   6.014   3.117  2.2911 -0.6674 -2.5566
  442MOL0     H60986   9.543   6.175   2.949  0.4777  2.6194  2.4389
  442MOL0     H60987   9.519   6.175   3.111  0.0696 -0.0221 -0.1900
  442MOL0     H60988   9.328   6.086   2.899 -1.8314 -2.1587  1.2979
  442MOL0     H60989   9.327   5.979   3.031  1.5929 -0.5099  0.5584
  442MOL0     H60990   9.274   6.169   3.182  0.7141  0.4632 -0.7568
  442MOL0     H60991   9.148   6.137   3.068 -0.4953 -1.0231  1.4999
  442MOL0     H60992   9.269   6.536   2.995 -0.6443 -0.1958 -4.1761
  442MOL0     H60993   9.800   6.142   2.973  0.0017 -1.0229  0.5746
  442MOL0     H60994   9.952   6.275   2.919 -1.0438  0.8832  0.2316
  442MOL0     H60995  10.096   6.183   2.870 -0.4592 -0.7305  1.8364
  442MOL0     H60996   9.998   6.265   2.746 -3.7012 -0.5588 -0.3612
  443MOL0     O60997   0.359   0.764  11.115  0.6660  0.1239 -0.4833
  443MOL0     C60998   0.449   0.845  11.140  0.3337  0.5360 -0.3244
  443MOL0     O60999   0.561   0.813  11.217  0.5625  0.0605 -0.1673
  443MOL0     C61000   0.584   0.676  11.242 -0.8057 -1.7421  0.0174
  443MOL0     C61001   0.618   0.643  11.377  0.4840  1.0850  0.3465
  443MOL0     C61002   0.648   0.507  11.401 -0.4131 -0.2706 -0.5838
  443MOL0     C61003   0.669   0.415  11.298  0.0628 -1.6406  0.4434
  443MOL0     O61004   0.713   0.291  11.319 -0.5166 -0.3541 -0.1901
  443MOL0     C61005   0.799   0.267  11.426 -0.6490 -0.1131 -0.0175
  443MOL0     C61006   0.845   0.129  11.423 -0.1287 -0.4917  0.5842
  443MOL0     C61007   0.961   0.093  11.505  1.1741 -0.1270 -0.5356
  443MOL0     C61008   0.929  -0.007  11.621 -0.3180  0.9561 -1.2081
  443MOL0     C61009   1.063  -0.067  11.661  0.2390 -0.7589  0.4826
  443MOL0     C61010   1.068  -0.168  11.775 -0.9837 -0.6696 -0.5338
  443MOL0     C61011   1.218  -0.198  11.819  0.9368  0.6643  0.2275
  443MOL0     C61012   1.205  -0.287  11.946  0.4396 -0.8188 -0.0362
  443MOL0     N61013   1.333  -0.323  12.005  0.8054 -0.5620  0.5666
  443MOL0     C61014   1.349  -0.368  12.131 -0.2911 -0.0338  0.6751
  443MOL0     C61015   1.483  -0.383  12.147 -0.0136  0.9556  1.2663
  443MOL0     C61016   1.535  -0.423  12.278  0.0686  0.3206  0.7523
  443MOL0     C61017   1.631  -0.316  12.335 -0.4963  0.1972 -0.4031
  443MOL0     C61018   1.674  -0.332  12.476  0.5154  0.7922 -0.0948
  443MOL0     C61019   1.784  -0.224  12.491  0.5298  0.2236 -1.3793
  443MOL0     O61020   1.814  -0.231  12.631 -1.2200 -1.0888  0.2248
  443MOL0     C61021   1.872  -0.121  12.691 -0.6207  0.9966 -0.5089
  443MOL0     C61022   1.985  -0.062  12.644  0.7562 -1.0215 -0.0142
  443MOL0     C61023   2.062   0.016  12.727 -0.1023 -1.0792 -0.3754
  443MOL0     C61024   2.189   0.065  12.670  0.2970  0.6682 -0.8496
  443MOL0     C61025   2.017   0.066  12.862 -0.1811  0.2110  0.1706
  443MOL0     C61026   2.094   0.155  12.950 -0.2296 -0.6886  0.7307
  443MOL0     O61027   2.210   0.206  12.896  0.1000 -0.6805 -0.1574
  443MOL0     C61028   2.288   0.295  12.963 -0.7626 -0.7688  0.0118
  443MOL0     C61029   2.434   0.290  12.955 -1.2806  0.5359 -0.7054
  443MOL0     C61030   2.523   0.374  13.021  0.8951  0.8655  0.7606
  443MOL0     C61031   2.475   0.473  13.106  0.6166 -0.0580  0.5436
  443MOL0     O61032   2.568   0.563  13.152  0.3752  0.8611 -0.4090
  443MOL0     C61033   2.528   0.678  13.232  0.1789  0.4007  0.0569
  443MOL0     C61034   2.636   0.775  13.253 -1.1389 -0.1686 -0.2040
  443MOL0     C61035   2.719   0.746  13.380  0.0199  0.4488  0.3720
  443MOL0     C61036   2.807   0.871  13.393 -0.8960  0.3548  0.4026
  443MOL0     C61037   2.896   0.855  13.510 -0.9938 -0.5446 -0.3194
  443MOL0     C61038   3.001   0.978  13.515  0.0992  0.6485 -0.3864
  443MOL0     C61039   3.064   1.019  13.659  0.7720  0.1721 -0.2602
  443MOL0     C61040   3.114   0.894  13.733  1.2051  0.2224 -0.1623
  443MOL0    Cl61041   3.220   0.789  13.612 -0.1610  0.2144 -0.2870
  443MOL0     C61042   2.338   0.479  13.118  0.2774  0.8686  1.1257
  443MOL0     C61043   2.245   0.393  13.045  0.0197  0.0593  0.3941
  443MOL0     O61044   2.053   0.174  13.064 -0.1337  0.2721 -0.1869
  443MOL0     C61045   1.897   0.012  12.904  0.4429 -0.3840  0.3204
  443MOL0     C61046   1.832  -0.085  12.827  0.4929  0.3838 -1.2389
  443MOL0     N61047   1.545  -0.348  12.032 -1.0315 -0.8082  0.0738
  443MOL0     N61048   1.455  -0.317  11.950  0.2940 -0.1137 -0.0446
  443MOL0     C61049   0.634   0.451  11.175  0.0973 -0.8588  0.4646
  443MOL0     C61050   0.596   0.585  11.142  0.1414 -0.0736 -0.0023
  443MOL0     C61051   0.443   0.969  11.067 -0.1547  1.0361 -0.1169
  443MOL0     C61052   0.566   1.021  11.032 -0.8139  0.0461  0.5578
  443MOL0     C61053   0.575   1.137  10.952 -0.1421  0.2009  0.2067
  443MOL0     C61054   0.459   1.207  10.910  0.4597 -0.3600 -0.8205
  443MOL0     O61055   0.464   1.328  10.843  0.4117  0.0271 -0.5245
  443MOL0     C61056   0.436   1.307  10.700 -0.1330 -0.2415  0.0055
  443MOL0     C61057   0.560   1.261  10.629  0.2073 -0.5681 -0.1110
  443MOL0     C61058   0.672   1.364  10.628 -0.3455 -0.7201 -0.7921
  443MOL0     C61059   0.810   1.321  10.570 -0.8945 -0.5740  1.5458
  443MOL0     C61060   0.793   1.296  10.423 -1.0272 -0.6703  0.5913
  443MOL0     C61061   0.767   1.286  10.304 -0.0090 -0.2308  0.1054
  443MOL0     C61062   0.335   1.157  10.952 -0.1682  1.2244  0.1400
  443MOL0     C61063   0.324   1.042  11.039 -0.1483 -0.4484 -0.3418
  443MOL0     C61064   0.196   1.019  11.111  0.5876  0.8884 -0.9334
  443MOL0     H61065   0.614   0.715  11.458 -0.6923 -2.0020  3.2901
  443MOL0     H61066   0.658   0.466  11.501  1.8824 -0.9425 -1.0261
  443MOL0     H61067   0.756   0.281  11.526 -0.9772  2.4183 -0.4517
  443MOL0     H61068   0.878   0.341  11.444 -0.5044 -0.6378  1.6683
  443MOL0     H61069   0.764   0.067  11.462  0.6762  0.4074  4.0083
  443MOL0     H61070   0.872   0.110  11.318 -1.5962 -2.9519  0.5749
  443MOL0     H61071   1.024   0.042  11.432  3.1265 -2.2225  2.3811
  443MOL0     H61072   1.016   0.178  11.547  1.3048 -0.8451  0.7859
  443MOL0     H61073   0.888   0.048  11.706 -0.6310 -0.6606 -0.2532
  443MOL0     H61074   0.868  -0.094  11.593  0.4451 -0.5079  1.3096
  443MOL0     H61075   1.131   0.016  11.683  1.2189 -0.9432 -1.6374
  443MOL0     H61076   1.113  -0.112  11.575 -4.2294  0.0217 -2.8944
  443MOL0     H61077   1.017  -0.118  11.858  2.9750 -0.4759  2.0421
  443MOL0     H61078   1.008  -0.257  11.754 -0.4795 -0.7085 -1.9201
  443MOL0     H61079   1.278  -0.108  11.837  2.2018 -0.3171  1.1380
  443MOL0     H61080   1.261  -0.254  11.736 -1.2109  0.8466 -1.0597
  443MOL0     H61081   1.152  -0.240  12.030  2.5693 -0.1209  0.9761
  443MOL0     H61082   1.141  -0.375  11.928 -0.6076 -0.0879  0.0043
  443MOL0     H61083   1.269  -0.401  12.196 -0.2009 -0.3760  0.6164
  443MOL0     H61084   1.593  -0.516  12.277  1.1459  0.9713  1.2090
  443MOL0     H61085   1.462  -0.443  12.357  2.7544 -2.4103  2.7781
  443MOL0     H61086   1.723  -0.329  12.279  0.5967 -1.7292  1.6488
  443MOL0     H61087   1.591  -0.217  12.312  2.3385  1.4062 -0.4233
  443MOL0     H61088   1.593  -0.321  12.549 -0.3820  1.4206 -1.1554
  443MOL0     H61089   1.721  -0.431  12.480 -1.6092 -0.2834 -0.0323
  443MOL0     H61090   1.865  -0.250  12.422 -0.1472 -0.5699 -1.8962
  443MOL0     H61091   1.745  -0.128  12.456  2.0308  1.0917 -0.7778
  443MOL0     H61092   2.005  -0.084  12.540 -3.1810 -0.6779 -1.0063
  443MOL0     H61093   2.278   0.033  12.726  0.3996 -0.6459 -1.7195
  443MOL0     H61094   2.182   0.173  12.653  1.6857  1.3056  1.9082
  443MOL0     H61095   2.198   0.007  12.578 -1.1442 -0.8910 -0.0604
  443MOL0     H61096   2.467   0.206  12.895  2.7309  0.0281  1.8578
  443MOL0     H61097   2.630   0.354  13.020  0.2058 -4.0887 -1.4106
  443MOL0     H61098   2.449   0.730  13.178  1.2434  3.3883  1.1574
  443MOL0     H61099   2.487   0.637  13.326 -2.2176  0.5325 -0.8661
  443MOL0     H61100   2.710   0.781  13.172 -1.1030 -2.2769 -0.3595
  443MOL0     H61101   2.586   0.872  13.259  0.8478  0.8196  2.4494
  443MOL0     H61102   2.776   0.659  13.349  0.0445 -0.3331  2.4262
  443MOL0     H61103   2.665   0.717  13.471  2.1495 -1.4541  1.1226
  443MOL0     H61104   2.749   0.962  13.409  0.1882  0.8767  1.6383
  443MOL0     H61105   2.859   0.897  13.301 -2.3473  2.1154  0.0389
  443MOL0     H61106   2.844   0.848  13.606  3.7100 -2.2160  2.4686
  443MOL0     H61107   2.954   0.762  13.515 -1.2873 -0.6638  1.2910
  443MOL0     H61108   2.948   1.066  13.476 -0.7152 -0.0612 -0.9017
  443MOL0     H61109   3.079   0.960  13.441  1.6921  0.8838  1.1647
  443MOL0     H61110   2.987   1.068  13.719 -0.0130  1.8916 -2.5333
  443MOL0     H61111   3.153   1.078  13.635  1.0149 -1.0225 -2.6286
  443MOL0     H61112   3.032   0.827  13.762  1.9421 -0.5223  0.2208
  443MOL0     H61113   3.168   0.928  13.822 -2.4641 -0.5937  2.6678
  443MOL0     H61114   2.297   0.557  13.181  0.0663  0.3373  1.6544
  443MOL0     H61115   2.138   0.409  13.056  0.7086  4.5654  2.3687
  443MOL0     H61116   1.855   0.041  13.000  0.6601  1.1286 -0.0053
  443MOL0     H61117   1.747  -0.131  12.877  0.3503 -1.8170 -3.3669
  443MOL0     H61118   0.650   0.377  11.098 -0.4405 -2.5836  1.9254
  443MOL0     H61119   0.568   0.604  11.039 -0.5773 -0.3794  0.1315
  443MOL0     H61120   0.657   0.966  11.055  0.4957  1.9506  0.1375
  443MOL0     H61121   0.676   1.162  10.921  1.8656 -3.0294  3.3430
  443MOL0     H61122   0.356   1.234  10.688  0.9477 -1.7883  1.6702
  443MOL0     H61123   0.408   1.403  10.654 -1.2007  0.1692  1.4359
  443MOL0     H61124   0.536   1.255  10.523  4.4796  1.0906 -1.4145
  443MOL0     H61125   0.598   1.167  10.671 -0.7194 -1.0739 -0.3820
  443MOL0     H61126   0.642   1.447  10.563 -1.1524 -0.6305 -0.3179
  443MOL0     H61127   0.692   1.384  10.734  2.7288  0.6646 -1.5236
  443MOL0     H61128   0.850   1.228  10.612 -0.2309 -2.1612 -2.1984
  443MOL0     H61129   0.880   1.404  10.579 -0.3132 -0.6961 -1.0074
  443MOL0     H61130   0.730   1.273  10.205  2.9283  0.7102 -1.2327
  443MOL0     H61131   0.242   1.212  10.940 -0.6510  0.9644  2.2393
  443MOL0     H61132   0.218   1.021  11.218 -1.1954  1.0097 -0.5335
  443MOL0     H61133   0.114   1.088  11.090 -1.2555  0.8143  4.4707
  443MOL0     H61134   0.153   0.919  11.094  1.1800  0.0700  1.8253
  444MOL0     O61135   3.931   1.792   4.353 -0.0710  0.6983 -0.0300
  444MOL0     C61136   3.905   1.871   4.264  0.2066  0.8115  0.1497
  444MOL0     O61137   3.936   1.858   4.125  0.1512 -0.2062 -0.4374
  444MOL0     C61138   3.993   1.739   4.072  0.8743 -1.3436  0.0672
  444MOL0     C61139   4.126   1.729   4.089  0.9583  0.0354 -0.0316
  444MOL0     C61140   4.185   1.605   4.046 -0.0997  0.0313 -0.0075
  444MOL0     C61141   4.113   1.513   3.975 -0.4338 -0.3605  0.1520
  444MOL0     O61142   4.176   1.403   3.922  0.0238  0.1215 -0.4070
  444MOL0     C61143   4.191   1.311   4.022  0.0000  0.3416 -0.1732
  444MOL0     C61144   4.314   1.231   3.991  1.2366  0.7794 -0.2436
  444MOL0     C61145   4.437   1.312   3.973 -0.1214  0.2722  0.8514
  444MOL0     C61146   4.559   1.224   4.009  0.1270 -0.7922 -0.5711
  444MOL0     C61147   4.685   1.289   3.967  0.1281 -0.0750  0.5487
  444MOL0     C61148   4.795   1.235   4.055 -0.0152 -1.3209 -0.5913
  444MOL0     C61149   4.929   1.266   4.001  0.5224  0.0455  0.0826
  444MOL0     C61150   4.961   1.154   3.900  0.2742  0.8375  0.2435
  444MOL0     N61151   5.007   1.025   3.965 -0.0566 -0.1435  0.4390
  444MOL0     C61152   4.932   0.938   4.048 -0.4923  0.3017  0.5443
  444MOL0     C61153   5.000   0.829   4.073 -0.6355  1.2872 -1.4279
  444MOL0     C61154   4.957   0.720   4.170  0.2365  0.5455  0.4634
  444MOL0     C61155   5.084   0.657   4.236  0.0148 -0.0985 -0.2205
  444MOL0     C61156   5.039   0.546   4.334  0.5243 -0.5315 -0.2945
  444MOL0     C61157   4.964   0.429   4.271  1.0691  0.6897  0.6167
  444MOL0     O61158   5.025   0.400   4.143 -0.5991 -0.5492  0.0521
  444MOL0     C61159   5.008   0.272   4.103 -0.1809 -0.1448  0.5838
  444MOL0     C61160   4.933   0.228   3.991  0.4403  0.5525 -0.1526
  444MOL0     C61161   4.926   0.102   3.940  0.4813  0.3196 -0.3463
  444MOL0     C61162   4.859   0.080   3.803  0.1314 -0.3352 -0.1731
  444MOL0     C61163   5.002  -0.001   4.006 -0.2143  0.0388 -0.3514
  444MOL0     C61164   5.013  -0.142   3.961 -0.2094  0.1113 -1.4989
  444MOL0     O61165   4.951  -0.183   3.844  1.0270 -0.1598  0.1579
  444MOL0     C61166   4.906  -0.311   3.817  0.0654  1.0597 -0.3646
  444MOL0     C61167   4.894  -0.350   3.692  0.2507  0.4296 -0.7902
  444MOL0     C61168   4.865  -0.483   3.655  0.8351 -0.1741  1.2328
  444MOL0     C61169   4.832  -0.580   3.750 -0.0039  0.5104 -0.6717
  444MOL0     O61170   4.795  -0.709   3.708 -0.6830  0.3146  0.6122
  444MOL0     C61171   4.673  -0.722   3.642  0.3518 -0.9415  0.7110
  444MOL0     C61172   4.619  -0.862   3.665 -0.1027 -0.3575 -0.4584
  444MOL0     C61173   4.471  -0.877   3.655 -0.7221  0.2996  1.0608
  444MOL0     C61174   4.439  -1.023   3.688  0.7362 -0.3669  0.1986
  444MOL0     C61175   4.298  -1.026   3.761  0.7459  0.1324  0.8267
  444MOL0     C61176   4.178  -0.998   3.666 -0.8675  0.5657  0.7510
  444MOL0     C61177   4.049  -0.989   3.756  1.5797 -0.4207 -0.4222
  444MOL0     C61178   3.919  -1.061   3.709 -0.9052 -0.0559  0.7097
  444MOL0    Cl61179   3.775  -1.000   3.800  0.0963  0.4653 -0.1733
  444MOL0     C61180   4.847  -0.544   3.879 -0.5495 -0.4018  0.3309
  444MOL0     C61181   4.880  -0.413   3.914  1.4037 -0.4268 -0.3547
  444MOL0     O61182   5.069  -0.210   4.046 -0.4967 -0.6141 -0.7813
  444MOL0     C61183   5.075   0.033   4.119  1.0420 -0.4235 -0.3988
  444MOL0     C61184   5.071   0.169   4.171  0.2773 -0.5729  0.0417
  444MOL0     N61185   5.123   0.848   4.008 -1.2390  0.8278  0.3714
  444MOL0     N61186   5.129   0.965   3.949 -0.0494  0.2184  0.1027
  444MOL0     C61187   3.970   1.529   3.962  0.0524 -0.6864 -0.0492
  444MOL0     C61188   3.912   1.647   4.015 -0.0772 -0.1132 -0.4851
  444MOL0     C61189   3.782   1.965   4.288  0.2888  0.2746 -0.2330
  444MOL0     C61190   3.710   2.012   4.174  0.3074 -0.1251 -0.2367
  444MOL0     C61191   3.600   2.099   4.199  0.7141  0.2084 -0.8091
  444MOL0     C61192   3.570   2.144   4.331 -0.2130 -0.2159 -0.3555
  444MOL0     O61193   3.468   2.233   4.373 -0.8353 -0.1462  0.0398
  444MOL0     C61194   3.436   2.336   4.285 -0.1291  0.0443 -0.4655
  444MOL0     C61195   3.551   2.427   4.247  0.3174  0.2672 -0.2212
  444MOL0     C61196   3.520   2.502   4.116 -0.2907  0.4653  0.8297
  444MOL0     C61197   3.383   2.574   4.122 -0.3405 -0.2321 -0.4182
  444MOL0     C61198   3.379   2.673   4.233  0.2494  0.1794  0.3033
  444MOL0     C61199   3.365   2.751   4.323  0.0579  0.1145 -0.7020
  444MOL0     C61200   3.640   2.097   4.441 -0.9330  1.2353  0.0120
  444MOL0     C61201   3.753   2.016   4.420 -0.3357  0.3591 -0.3990
  444MOL0     C61202   3.847   2.003   4.544 -0.5312  0.6888  0.7992
  444MOL0     H61203   4.174   1.812   4.142  2.2106 -0.7121  0.0548
  444MOL0     H61204   4.293   1.595   4.042 -0.2110 -0.9501 -1.2045
  444MOL0     H61205   4.109   1.240   4.010  2.1550 -1.7780 -3.6433
  444MOL0     H61206   4.204   1.354   4.122 -2.9881  0.6963  0.1782
  444MOL0     H61207   4.329   1.159   4.072  0.9718  2.6909  1.6141
  444MOL0     H61208   4.291   1.182   3.896 -0.4140  2.4964 -0.7957
  444MOL0     H61209   4.427   1.341   3.868 -0.8207  1.6796  1.2787
  444MOL0     H61210   4.437   1.409   4.023  2.1984  1.1802 -0.7337
  444MOL0     H61211   4.561   1.184   4.111 -2.6566 -3.1734 -1.2789
  444MOL0     H61212   4.556   1.129   3.955  2.0946  0.6380 -3.4243
  444MOL0     H61213   4.686   1.397   3.983  3.8388 -0.2520  2.6838
  444MOL0     H61214   4.710   1.273   3.862  4.4292  1.3253  1.1643
  444MOL0     H61215   4.787   1.288   4.151  0.4626 -0.1387 -1.1735
  444MOL0     H61216   4.775   1.129   4.069 -0.0333 -1.2801 -0.2935
  444MOL0     H61217   5.001   1.280   4.081  1.3421 -0.7446 -0.4993
  444MOL0     H61218   4.921   1.362   3.950 -2.8695 -0.0467  0.1579
  444MOL0     H61219   4.876   1.139   3.834  1.0087 -2.5045 -0.1116
  444MOL0     H61220   5.037   1.187   3.828  1.6166  0.8361  1.6010
  444MOL0     H61221   4.847   0.961   4.112 -1.7140 -4.1258  0.8141
  444MOL0     H61222   4.899   0.651   4.109 -0.5192  0.5350  1.1858
  444MOL0     H61223   4.882   0.751   4.243 -0.8228  1.6364 -1.0212
  444MOL0     H61224   5.160   0.617   4.168  1.2145 -0.7533  1.4399
  444MOL0     H61225   5.144   0.739   4.276  0.3917 -0.0012 -0.9680
  444MOL0     H61226   5.127   0.511   4.388  0.8142 -0.1671 -0.5206
  444MOL0     H61227   4.978   0.588   4.415  1.0090 -3.4105  1.7003
  444MOL0     H61228   4.963   0.341   4.336 -1.6861  1.2050  1.4046
  444MOL0     H61229   4.863   0.468   4.257  1.1278  0.5555 -0.2178
  444MOL0     H61230   4.877   0.295   3.926 -1.3193 -0.7985 -0.1024
  444MOL0     H61231   4.794  -0.007   3.817 -0.2229  0.2703  2.6171
  444MOL0     H61232   4.933   0.052   3.728  1.6119  1.2223  0.6382
  444MOL0     H61233   4.797   0.166   3.776 -1.6479 -0.6618  2.4463
  444MOL0     H61234   4.918  -0.272   3.620 -1.5864  0.9535 -0.8859
  444MOL0     H61235   4.871  -0.515   3.551 -1.3775 -0.2902  1.0980
  444MOL0     H61236   4.616  -0.643   3.692  2.6151  0.5602  1.0872
  444MOL0     H61237   4.688  -0.704   3.536  1.4212  1.4176  1.1996
  444MOL0     H61238   4.674  -0.934   3.603  1.3647  1.3777 -1.2416
  444MOL0     H61239   4.656  -0.884   3.766 -3.1672 -1.5915  0.5208
  444MOL0     H61240   4.444  -0.866   3.549 -1.6857 -3.1880  0.7897
  444MOL0     H61241   4.421  -0.807   3.723 -0.5231 -1.4056  3.0743
  444MOL0     H61242   4.524  -1.068   3.741  0.1712  0.9069  2.3061
  444MOL0     H61243   4.439  -1.077   3.593  1.5080  2.8759 -1.7957
  444MOL0     H61244   4.289  -1.129   3.798 -0.2291  1.1777  3.7788
  444MOL0     H61245   4.294  -0.957   3.846 -0.4072  1.2967 -0.1455
  444MOL0     H61246   4.178  -1.068   3.582  0.2473 -1.0904  2.0427
  444MOL0     H61247   4.193  -0.900   3.621 -2.8559 -0.2758 -2.0122
  444MOL0     H61248   4.035  -0.880   3.766  1.8519 -0.5043  1.1303
  444MOL0     H61249   4.069  -1.018   3.859 -1.3640  0.7518  0.5849
  444MOL0     H61250   3.919  -1.169   3.724 -3.3073 -0.6835 -2.7743
  444MOL0     H61251   3.912  -1.046   3.601  3.4756  0.3196  0.3147
  444MOL0     H61252   4.829  -0.621   3.954  1.7220  0.2972  1.7125
  444MOL0     H61253   4.899  -0.389   4.019 -1.2934  0.8947 -0.0833
  444MOL0     H61254   5.136  -0.029   4.184  2.5432  0.2063 -1.1592
  444MOL0     H61255   5.124   0.185   4.265  1.5308 -2.0548 -0.3718
  444MOL0     H61256   3.914   1.446   3.919  0.6715 -0.5259 -1.2185
  444MOL0     H61257   3.805   1.666   4.013 -0.0560  0.1108  0.1654
  444MOL0     H61258   3.735   1.981   4.073  1.6290  1.2805 -0.3722
  444MOL0     H61259   3.554   2.135   4.108 -0.5666 -0.8828 -0.6227
  444MOL0     H61260   3.390   2.285   4.199 -0.3658 -1.9318  0.7844
  444MOL0     H61261   3.348   2.387   4.325 -1.3828 -2.4421  0.1727
  444MOL0     H61262   3.638   2.363   4.232 -1.7077 -2.8972  0.5907
  444MOL0     H61263   3.570   2.496   4.329  1.6190  0.5620 -0.7492
  444MOL0     H61264   3.597   2.578   4.098 -1.7333  2.2588  1.8226
  444MOL0     H61265   3.525   2.441   4.026  1.3093  1.2937  0.3109
  444MOL0     H61266   3.295   2.511   4.129 -1.7688  1.7085 -0.1117
  444MOL0     H61267   3.376   2.629   4.028 -1.6217  1.6093  0.7010
  444MOL0     H61268   3.335   2.822   4.398  0.8086  0.7715 -1.0125
  444MOL0     H61269   3.636   2.150   4.536  3.9234  1.4182  0.3410
  444MOL0     H61270   3.832   2.078   4.623 -3.6918  1.7170 -0.6091
  444MOL0     H61271   3.851   1.899   4.578  1.5490  0.1892 -0.8080
  444MOL0     H61272   3.947   2.018   4.504 -0.8942 -2.2004 -1.5193
  445MOL0     O61273   6.604   0.549   0.793 -0.3628  0.9874  0.2336
  445MOL0     C61274   6.496   0.606   0.771  0.1881  0.3716  0.4858
  445MOL0     O61275   6.419   0.576   0.655 -0.4624  0.2265  0.4721
  445MOL0     C61276   6.457   0.463   0.574  0.6541 -0.0295  0.6004
  445MOL0     C61277   6.463   0.491   0.435  0.4511 -0.5029  0.2038
  445MOL0     C61278   6.485   0.379   0.349  0.0885 -1.2408 -0.4745
  445MOL0     C61279   6.482   0.250   0.389 -0.0448 -0.6018 -0.0144
  445MOL0     O61280   6.500   0.140   0.310 -0.4732 -0.4053 -0.0167
  445MOL0     C61281   6.486   0.159   0.173  0.5449  0.8136  0.3306
  445MOL0     C61282   6.624   0.186   0.112  0.5758 -0.4993 -1.6672
  445MOL0     C61283   6.629   0.138  -0.030 -0.0032 -0.2206  0.7009
  445MOL0     C61284   6.768   0.098  -0.065  1.4755 -0.9612 -0.1965
  445MOL0     C61285   6.791   0.040  -0.200 -0.3295  0.6502  0.3807
  445MOL0     C61286   6.786   0.149  -0.312  0.7279 -0.2068  0.4836
  445MOL0     C61287   6.842   0.106  -0.449 -0.6882 -0.4729 -0.8772
  445MOL0     C61288   6.779  -0.019  -0.496  0.5046 -0.1964 -1.1730
  445MOL0     N61289   6.643   0.004  -0.555 -0.2155 -0.7161 -0.1657
  445MOL0     C61290   6.613   0.087  -0.653 -0.0502 -0.7977  0.3588
  445MOL0     C61291   6.477   0.062  -0.688 -0.8108  0.3166 -0.1809
  445MOL0     C61292   6.400   0.125  -0.796  0.0885  1.3130 -0.7039
  445MOL0     C61293   6.416   0.069  -0.932 -0.6303 -0.6898 -0.3114
  445MOL0     C61294   6.300   0.134  -1.016 -0.0231 -0.6144  0.1317
  445MOL0     C61295   6.296   0.088  -1.164 -0.1125  0.0525 -0.1152
  445MOL0     O61296   6.221   0.189  -1.231  0.3005 -0.8862  0.3869
  445MOL0     C61297   6.081   0.185  -1.214 -0.2736 -0.8475  0.4216
  445MOL0     C61298   5.995   0.068  -1.232 -0.2781 -0.0021 -0.3983
  445MOL0     C61299   5.855   0.052  -1.192 -0.9092  0.4515  0.4126
  445MOL0     C61300   5.795  -0.080  -1.232  0.7139  0.4997 -0.1489
  445MOL0     C61301   5.792   0.168  -1.147  0.1768  0.3542  0.2165
  445MOL0     C61302   5.654   0.161  -1.092 -0.2633 -0.1190  0.0115
  445MOL0     O61303   5.600   0.283  -1.055 -0.0016  0.1633 -0.3181
  445MOL0     C61304   5.490   0.287  -0.984  0.6568  0.0079 -0.0571
  445MOL0     C61305   5.390   0.388  -1.017  0.4620  0.6530  0.1248
  445MOL0     C61306   5.271   0.400  -0.939 -0.2134  0.4139 -0.0720
  445MOL0     C61307   5.237   0.315  -0.843  0.2536 -0.3533 -1.3888
  445MOL0     O61308   5.121   0.320  -0.775  0.0553  0.2189  0.0173
  445MOL0     C61309   5.096   0.444  -0.707  1.2133  0.4641 -0.5933
  445MOL0     C61310   4.984   0.408  -0.597  0.1106 -0.3834 -0.3562
  445MOL0     C61311   5.069   0.343  -0.490  0.0944 -0.2065 -0.0686
  445MOL0     C61312   4.986   0.314  -0.368  1.2231  1.2113 -0.3567
  445MOL0     C61313   5.051   0.252  -0.243  0.4447  0.4473  0.2976
  445MOL0     C61314   5.115   0.112  -0.260  0.8357 -0.2427  0.2762
  445MOL0     C61315   5.179   0.062  -0.129  0.0642  0.1691 -0.1008
  445MOL0     C61316   5.183  -0.088  -0.140 -0.6450  0.4729  0.7885
  445MOL0    Cl61317   5.013  -0.153  -0.117  0.2798 -0.3750  0.0407
  445MOL0     C61318   5.323   0.211  -0.823  0.1830  0.1631 -0.6935
  445MOL0     C61319   5.446   0.189  -0.884  0.1398 -0.6629 -0.3985
  445MOL0     O61320   5.593   0.054  -1.097  0.4778 -0.5437  0.1719
  445MOL0     C61321   5.871   0.289  -1.144  0.1345 -0.3388  0.3553
  445MOL0     C61322   6.009   0.296  -1.174  0.0468  0.0155 -0.1099
  445MOL0     N61323   6.438  -0.047  -0.603 -0.1057 -0.6185 -0.3466
  445MOL0     N61324   6.529  -0.066  -0.520 -0.7284  0.4473 -0.4133
  445MOL0     C61325   6.461   0.230   0.523  1.0782 -0.0306  0.2053
  445MOL0     C61326   6.444   0.332   0.613  0.0282  0.3036  0.2294
  445MOL0     C61327   6.451   0.712   0.862 -0.5350  0.6280  0.9736
  445MOL0     C61328   6.319   0.760   0.833  0.4706  0.7227  0.0794
  445MOL0     C61329   6.251   0.839   0.927 -0.8505  0.6599  0.2732
  445MOL0     C61330   6.316   0.887   1.033  2.0975 -0.1253 -0.4739
  445MOL0     O61331   6.225   0.962   1.110 -0.2830 -1.0858  0.6213
  445MOL0     C61332   6.166   0.899   1.221  0.4823 -0.1221 -0.2593
  445MOL0     C61333   6.234   0.912   1.354  0.2730 -0.3531 -0.5892
  445MOL0     C61334   6.185   1.027   1.438 -0.8030 -0.3905 -0.3246
  445MOL0     C61335   6.282   1.079   1.554  0.6915  0.7806  0.5286
  445MOL0     C61336   6.293   0.970   1.661  0.7697  0.2135 -0.2998
  445MOL0     C61337   6.296   0.879   1.742  0.6992  1.1374  0.0600
  445MOL0     C61338   6.441   0.847   1.063 -0.6027  0.7595 -0.4839
  445MOL0     C61339   6.508   0.751   0.988 -0.7967 -0.8139 -0.8139
  445MOL0     C61340   6.632   0.692   1.043  0.0758 -0.0629 -0.0931
  445MOL0     H61341   6.472   0.595   0.404  0.3705 -0.9641 -1.4778
  445MOL0     H61342   6.498   0.415   0.248  0.8312 -0.1502 -0.0042
  445MOL0     H61343   6.413   0.238   0.155  0.5666  1.9678  4.3268
  445MOL0     H61344   6.445   0.073   0.119  2.4065 -0.7584  1.2623
  445MOL0     H61345   6.641   0.294   0.110 -2.8970  0.1765 -2.3509
  445MOL0     H61346   6.696   0.137   0.177 -1.8116 -1.8807  0.1228
  445MOL0     H61347   6.561   0.055  -0.054  1.1916 -0.1044 -4.0796
  445MOL0     H61348   6.596   0.217  -0.097  0.8733 -1.8628 -1.8366
  445MOL0     H61349   6.826   0.190  -0.052 -2.7316  2.0059 -0.3861
  445MOL0     H61350   6.791   0.027   0.015  1.1768 -0.6715  0.1522
  445MOL0     H61351   6.722  -0.044  -0.217 -1.6568  1.1228  2.8746
  445MOL0     H61352   6.893   0.001  -0.194 -0.1027  0.9050 -1.4760
  445MOL0     H61353   6.679   0.170  -0.326  0.8622  0.1739 -0.0180
  445MOL0     H61354   6.840   0.239  -0.281  3.5310 -2.2475  2.0106
  445MOL0     H61355   6.948   0.084  -0.437 -1.0382 -2.6864 -1.3854
  445MOL0     H61356   6.831   0.183  -0.526  2.3198 -0.3127 -1.2617
  445MOL0     H61357   6.844  -0.071  -0.567  1.0224 -0.8795 -0.2213
  445MOL0     H61358   6.769  -0.094  -0.416 -3.0364  1.3856  0.0603
  445MOL0     H61359   6.685   0.155  -0.697 -0.8406  1.0142  1.7320
  445MOL0     H61360   6.426   0.231  -0.790  2.0225  0.8079  1.9943
  445MOL0     H61361   6.294   0.106  -0.776  0.6287 -2.3271 -0.5447
  445MOL0     H61362   6.516   0.078  -0.977 -1.1135 -1.3245 -1.5496
  445MOL0     H61363   6.402  -0.038  -0.946 -1.3541 -0.3437 -2.7326
  445MOL0     H61364   6.204   0.115  -0.967  0.6822 -1.7471  1.1491
  445MOL0     H61365   6.324   0.241  -1.013 -2.6441  0.0125  0.7674
  445MOL0     H61366   6.396   0.076  -1.207 -0.2330  0.7123 -0.5885
  445MOL0     H61367   6.251  -0.012  -1.161 -3.2052  1.3602  0.8171
  445MOL0     H61368   6.043  -0.020  -1.273 -1.4343 -0.3161 -1.1212
  445MOL0     H61369   5.712  -0.070  -1.304 -1.8317  1.1917  2.6921
  445MOL0     H61370   5.746  -0.125  -1.146  2.5589 -1.2467  0.0685
  445MOL0     H61371   5.875  -0.143  -1.272  0.8570  1.6491 -1.7829
  445MOL0     H61372   5.408   0.469  -1.087 -1.9406  0.3215 -0.9749
  445MOL0     H61373   5.215   0.488  -0.969 -1.9562  0.8263  3.8825
  445MOL0     H61374   5.180   0.480  -0.647  1.6732 -0.7016 -0.5228
  445MOL0     H61375   5.059   0.521  -0.776  0.4349  0.6952  0.0633
  445MOL0     H61376   4.930   0.494  -0.555  0.9624 -0.4769  0.9899
  445MOL0     H61377   4.898   0.351  -0.633  0.1638  0.5984 -2.1591
  445MOL0     H61378   5.156   0.394  -0.447  1.3021 -1.5989 -0.7649
  445MOL0     H61379   5.115   0.250  -0.523 -0.8286 -0.8142  0.3261
  445MOL0     H61380   4.900   0.250  -0.387 -0.3464  3.0480  0.1852
  445MOL0     H61381   4.938   0.404  -0.327 -2.7116 -1.7056  2.1726
  445MOL0     H61382   5.120   0.317  -0.189  0.1695 -0.4582  1.7856
  445MOL0     H61383   4.970   0.255  -0.170  2.1604  1.9758  2.2753
  445MOL0     H61384   5.176   0.114  -0.351 -0.0358 -3.1596 -0.4833
  445MOL0     H61385   5.032   0.047  -0.288 -1.7761  1.7045  2.9113
  445MOL0     H61386   5.119   0.103  -0.047  1.0694  1.3042  0.1082
  445MOL0     H61387   5.283   0.096  -0.118 -0.7553  2.3316  1.9131
  445MOL0     H61388   5.245  -0.131  -0.061 -1.4021  2.7825  2.7735
  445MOL0     H61389   5.217  -0.121  -0.239 -0.6282  1.1782  0.5541
  445MOL0     H61390   5.298   0.137  -0.748  0.6586  1.0121  0.3231
  445MOL0     H61391   5.500   0.098  -0.860 -1.5146 -1.9075 -1.2227
  445MOL0     H61392   5.812   0.379  -1.134 -0.3409 -0.3801 -1.5387
  445MOL0     H61393   6.049   0.397  -1.166 -1.2313  0.7819 -2.6256
  445MOL0     H61394   6.445   0.125   0.543 -3.4375 -0.1725 -2.6947
  445MOL0     H61395   6.417   0.314   0.716  0.3827 -0.5804  0.1807
  445MOL0     H61396   6.266   0.728   0.744  0.3720 -2.7403  1.2351
  445MOL0     H61397   6.153   0.865   0.889 -0.8063 -0.9827 -1.1242
  445MOL0     H61398   6.065   0.941   1.235  1.3450  1.5065  1.5244
  445MOL0     H61399   6.158   0.796   1.186 -2.9989  1.1411 -4.1558
  445MOL0     H61400   6.343   0.925   1.347  0.0608  1.5358 -0.8803
  445MOL0     H61401   6.200   0.826   1.413 -1.9284  0.3719 -0.7287
  445MOL0     H61402   6.170   1.109   1.367  0.4769  1.3693  1.3347
  445MOL0     H61403   6.089   0.989   1.473 -0.0329 -0.2987  2.0811
  445MOL0     H61404   6.248   1.177   1.587  0.5884  1.4017 -1.3259
  445MOL0     H61405   6.384   1.095   1.520  1.7606  1.3392  3.6531
  445MOL0     H61406   6.299   0.786   1.796 -0.3422  0.7311 -0.5637
  445MOL0     H61407   6.494   0.882   1.151 -0.2919 -2.0320  0.5241
  445MOL0     H61408   6.622   0.590   1.081  4.3637  0.0820  1.9427
  445MOL0     H61409   6.706   0.691   0.962 -1.5508 -2.0246 -1.7055
  445MOL0     H61410   6.666   0.745   1.132  3.4354  4.3765 -3.5430
  446MOL0     O61411  10.923   7.172   4.536  0.4736  0.3387  0.8015
  446MOL0     C61412  10.852   7.085   4.480  0.6107  0.1618 -0.5727
  446MOL0     O61413  10.877   7.040   4.350  0.2845 -0.6861  0.8381
  446MOL0     C61414  10.983   7.073   4.273 -1.0729 -0.2193 -0.1968
  446MOL0     C61415  11.090   7.156   4.301 -0.7899  0.0376  0.6563
  446MOL0     C61416  11.194   7.169   4.205 -0.4424 -1.1256 -0.2452
  446MOL0     C61417  11.199   7.097   4.089  0.4763  0.6781 -0.1387
  446MOL0     O61418  11.301   7.115   3.999  0.1252  0.3916 -0.0644
  446MOL0     C61419  11.411   7.025   4.011  0.3028 -0.1099 -0.5535
  446MOL0     C61420  11.514   7.070   3.920 -0.7896 -1.0589  0.5415
  446MOL0     C61421  11.467   7.038   3.770 -0.4645 -0.7155 -0.1940
  446MOL0     C61422  11.590   7.047   3.670 -1.0698  0.1401  0.4808
  446MOL0     C61423  11.553   6.964   3.543  0.1116 -0.2718 -0.0115
  446MOL0     C61424  11.660   6.999   3.438 -0.3289  0.6797 -1.2531
  446MOL0     C61425  11.653   6.905   3.313  0.5272 -0.3971 -0.4487
  446MOL0     C61426  11.566   6.956   3.197  0.4694 -0.7378  0.0622
  446MOL0     N61427  11.617   7.079   3.150  0.1127 -1.8406 -0.4931
  446MOL0     C61428  11.749   7.115   3.115 -0.0941  0.3254 -0.7000
  446MOL0     C61429  11.755   7.251   3.081  0.7474 -0.4087  0.3223
  446MOL0     C61430  11.871   7.326   3.034  0.1592 -0.6449  1.0391
  446MOL0     C61431  11.858   7.341   2.878 -0.6748  0.1243 -0.6837
  446MOL0     C61432  11.983   7.415   2.826 -0.2157 -0.1806  0.0367
  446MOL0     C61433  11.972   7.565   2.850 -0.6096  0.3064  0.7517
  446MOL0     O61434  12.065   7.649   2.774  1.0790  0.3659 -0.7550
  446MOL0     C61435  12.198   7.621   2.793  0.3211  1.0678 -0.3302
  446MOL0     C61436  12.270   7.558   2.692  0.3688  0.7130  0.4698
  446MOL0     C61437  12.389   7.484   2.717  1.6285  0.1327 -0.5750
  446MOL0     C61438  12.456   7.409   2.601  0.6327 -0.3204 -0.7026
  446MOL0     C61439  12.453   7.485   2.844 -0.3195  0.4141 -0.5532
  446MOL0     C61440  12.583   7.407   2.877  0.3764  0.2776 -0.0766
  446MOL0     O61441  12.604   7.381   3.010  0.2890 -0.1866 -0.0045
  446MOL0     C61442  12.720   7.317   3.049  0.6324  0.2319 -0.0850
  446MOL0     C61443  12.712   7.216   3.143 -0.1786  0.0288  0.6448
  446MOL0     C61444  12.831   7.168   3.208 -0.3270 -0.0630 -0.2175
  446MOL0     C61445  12.957   7.228   3.184 -0.7119 -1.1706 -0.3240
  446MOL0     O61446  13.072   7.195   3.245 -0.6416  0.3068 -0.1666
  446MOL0     C61447  13.064   7.153   3.381 -0.5125 -0.1810 -0.3200
  446MOL0     C61448  13.191   7.200   3.452 -0.0862  0.3947 -1.0884
  446MOL0     C61449  13.315   7.102   3.457 -0.2431  0.1179  0.4635
  446MOL0     C61450  13.292   6.993   3.563  0.5411 -0.2594 -0.9805
  446MOL0     C61451  13.418   6.916   3.588  0.7775 -0.4845  0.4168
  446MOL0     C61452  13.398   6.788   3.676  0.0131 -0.4946  0.4964
  446MOL0     C61453  13.349   6.822   3.818  0.1612  0.9233  1.0434
  446MOL0     C61454  13.361   6.694   3.902  0.1546 -0.1449 -0.0348
  446MOL0    Cl61455  13.528   6.634   3.912  0.0575  0.3517  0.3680
  446MOL0     C61456  12.964   7.325   3.092  0.2361 -0.4862 -0.2418
  446MOL0     C61457  12.851   7.369   3.020  0.8766  0.2714 -0.8308
  446MOL0     O61458  12.669   7.381   2.789 -0.7516 -0.8374  0.9394
  446MOL0     C61459  12.382   7.552   2.946 -0.5108 -0.1347 -0.2715
  446MOL0     C61460  12.260   7.619   2.914 -0.4138 -0.7709 -0.8064
  446MOL0     N61461  11.622   7.300   3.106  0.0534 -0.3879 -0.0432
  446MOL0     N61462  11.556   7.197   3.151  0.2707 -0.3605 -0.3348
  446MOL0     C61463  11.103   7.001   4.066  0.7871  0.2446  0.0890
  446MOL0     C61464  10.996   6.999   4.162  0.0930  0.1684 -0.3513
  446MOL0     C61465  10.745   7.013   4.553 -0.4320  0.1990 -0.3437
  446MOL0     C61466  10.687   6.890   4.495 -1.1790 -0.7997  0.6508
  446MOL0     C61467  10.612   6.801   4.571 -0.5285  0.9099  0.2515
  446MOL0     C61468  10.566   6.838   4.692 -0.1196 -0.9523  0.6630
  446MOL0     O61469  10.473   6.764   4.735 -0.3344  0.2569 -0.6198
  446MOL0     C61470  10.493   6.716   4.875  0.3339  0.6102 -0.0419
  446MOL0     C61471  10.483   6.566   4.878  0.4282  0.0236  0.5388
  446MOL0     C61472  10.548   6.485   4.761 -0.3331  0.6468 -0.0694
  446MOL0     C61473  10.703   6.491   4.763  0.3054 -0.1491 -0.2012
  446MOL0     C61474  10.749   6.409   4.649  0.5877  1.1754 -0.6328
  446MOL0     C61475  10.800   6.331   4.577 -0.1191  0.9966 -0.0033
  446MOL0     C61476  10.589   6.969   4.742 -0.8268 -0.9433 -0.1880
  446MOL0     C61477  10.678   7.058   4.674 -0.3127  0.6914  0.3020
  446MOL0     C61478  10.684   7.194   4.744 -0.3397 -0.1373  0.3468
  446MOL0     H61479  11.104   7.210   4.393  1.0369 -0.5550  0.7589
  446MOL0     H61480  11.268   7.248   4.215 -2.4568  1.3933 -3.1536
  446MOL0     H61481  11.381   6.922   3.988  0.0110  0.2285 -1.7459
  446MOL0     H61482  11.461   7.035   4.108  0.2860  1.8859 -0.7205
  446MOL0     H61483  11.536   7.176   3.932  1.7248 -1.2531 -1.4321
  446MOL0     H61484  11.606   7.015   3.945 -0.9065 -0.6403  2.0156
  446MOL0     H61485  11.427   6.936   3.764 -2.3104 -0.0910  0.7405
  446MOL0     H61486  11.391   7.110   3.741  0.4602  0.8136  1.0198
  446MOL0     H61487  11.623   7.150   3.652 -2.6889  0.5485 -0.3390
  446MOL0     H61488  11.677   6.993   3.709  1.4145  1.9969 -2.0655
  446MOL0     H61489  11.451   6.980   3.508 -0.4367 -0.1955  1.5749
  446MOL0     H61490  11.568   6.857   3.562  0.6608 -0.3864 -1.0108
  446MOL0     H61491  11.648   7.101   3.401 -0.9850  0.0725 -2.7979
  446MOL0     H61492  11.754   6.993   3.493 -1.1800  0.8880  0.3066
  446MOL0     H61493  11.615   6.807   3.345  0.5979 -1.1849 -2.5565
  446MOL0     H61494  11.753   6.891   3.272  0.9549 -0.1518  0.4997
  446MOL0     H61495  11.566   6.883   3.115 -4.3788 -0.2211 -0.7162
  446MOL0     H61496  11.462   6.970   3.230 -0.6160 -1.0848 -2.8452
  446MOL0     H61497  11.832   7.047   3.103  1.0186  1.5760 -0.3149
  446MOL0     H61498  11.966   7.277   3.059 -0.0837 -1.5002  0.3173
  446MOL0     H61499  11.872   7.425   3.080  0.5514 -0.7375  1.2403
  446MOL0     H61500  11.839   7.242   2.835 -4.1743 -0.8163  2.4434
  446MOL0     H61501  11.769   7.395   2.845 -0.8637  0.7702  0.8056
  446MOL0     H61502  12.080   7.376   2.859  0.8949  0.1584 -2.6034
  446MOL0     H61503  11.989   7.401   2.717 -1.4218  2.8377 -0.4967
  446MOL0     H61504  11.871   7.596   2.822 -0.3986 -1.0649 -1.8013
  446MOL0     H61505  11.969   7.600   2.954 -2.4337  0.7393  0.5926
  446MOL0     H61506  12.219   7.554   2.597 -0.7785  1.2255  1.0358
  446MOL0     H61507  12.539   7.472   2.567 -0.4307  0.7231 -1.4372
  446MOL0     H61508  12.378   7.394   2.526 -1.1433  2.3777  0.4685
  446MOL0     H61509  12.497   7.313   2.631 -1.2495 -0.7089  0.7824
  446MOL0     H61510  12.623   7.159   3.168  0.2484 -1.0445 -0.1960
  446MOL0     H61511  12.835   7.085   3.278  0.3527  1.1420  1.2544
  446MOL0     H61512  12.977   7.201   3.427 -0.1061 -0.0653  0.3440
  446MOL0     H61513  13.053   7.044   3.386 -2.7220 -0.1747 -2.8529
  446MOL0     H61514  13.225   7.298   3.416  0.2505  1.1271  1.1145
  446MOL0     H61515  13.173   7.225   3.556 -0.3988 -0.4151 -0.9406
  446MOL0     H61516  13.406   7.157   3.484  0.7448 -0.5593 -1.2606
  446MOL0     H61517  13.332   7.050   3.362  2.2777  0.6768  0.5395
  446MOL0     H61518  13.208   6.924   3.549  1.2145 -2.1051  2.7335
  446MOL0     H61519  13.275   7.053   3.653  3.6492  3.0846 -2.4344
  446MOL0     H61520  13.452   6.882   3.490 -2.7231 -1.5128 -0.6027
  446MOL0     H61521  13.491   6.985   3.631 -0.5154  0.8494  0.5715
  446MOL0     H61522  13.491   6.729   3.670  0.4925  0.2442  0.5530
  446MOL0     H61523  13.322   6.728   3.624 -1.8888  1.8460  0.4163
  446MOL0     H61524  13.247   6.858   3.798 -0.2719 -1.7038 -2.5394
  446MOL0     H61525  13.418   6.894   3.863  1.8623  1.0988 -1.6474
  446MOL0     H61526  13.307   6.611   3.855  2.1477 -1.4664 -0.0749
  446MOL0     H61527  13.301   6.707   3.992 -1.2185 -0.6945 -0.8342
  446MOL0     H61528  13.064   7.360   3.067  0.8452 -2.3567 -0.5460
  446MOL0     H61529  12.864   7.453   2.953  0.0432  1.3428  0.3043
  446MOL0     H61530  12.424   7.553   3.046 -0.1993 -0.9638 -0.3850
  446MOL0     H61531  12.198   7.669   2.988 -1.7043 -0.2340 -2.1930
  446MOL0     H61532  11.092   6.942   3.975 -1.6904 -1.3420  1.3099
  446MOL0     H61533  10.918   6.926   4.142 -1.1497  1.3778 -0.0401
  446MOL0     H61534  10.723   6.855   4.399  0.5697  0.4593  0.8010
  446MOL0     H61535  10.593   6.710   4.514 -0.4057  0.3267  1.1260
  446MOL0     H61536  10.583   6.762   4.917  0.6142 -1.5313  1.8755
  446MOL0     H61537  10.405   6.754   4.929 -1.7008 -0.4523 -2.3990
  446MOL0     H61538  10.380   6.533   4.860  1.0692 -2.7148  1.4618
  446MOL0     H61539  10.515   6.544   4.980 -1.3683  2.1412  1.6296
  446MOL0     H61540  10.512   6.382   4.773  0.7851  0.0636 -1.4120
  446MOL0     H61541  10.510   6.515   4.663  0.1665 -1.3549 -0.9197
  446MOL0     H61542  10.729   6.454   4.862 -2.1015 -0.8702  0.2002
  446MOL0     H61543  10.750   6.590   4.755  2.8992 -1.2328  0.6790
  446MOL0     H61544  10.861   6.269   4.515 -2.1582  0.1711 -1.3213
  446MOL0     H61545  10.528   7.000   4.826 -0.5198  2.0766 -0.9927
  446MOL0     H61546  10.584   7.222   4.780 -0.2032 -1.3791  1.7787
  446MOL0     H61547  10.742   7.177   4.835  1.0856 -0.6719 -0.6356
  446MOL0     H61548  10.721   7.275   4.680 -2.7942  2.1508  1.6142
  447MOL0     O61549   5.878   2.095   8.908  0.0853 -0.0496  0.5198
  447MOL0     C61550   5.968   2.140   8.834  1.0520 -0.4753 -0.0498
  447MOL0     O61551   5.970   2.129   8.700  0.3617 -0.0643  0.1513
  447MOL0     C61552   5.867   2.073   8.625 -0.5439 -0.1564  0.4578
  447MOL0     C61553   5.731   2.058   8.659  1.0137 -0.4776  0.0211
  447MOL0     C61554   5.636   2.010   8.566  0.1524 -0.2429 -0.4928
  447MOL0     C61555   5.671   1.972   8.434 -0.4095  0.0357  0.4402
  447MOL0     O61556   5.573   1.937   8.337  0.6056 -0.7774 -0.1704
  447MOL0     C61557   5.617   1.885   8.211  0.8581  0.2612  0.2402
  447MOL0     C61558   5.490   1.896   8.117 -0.2313  0.3104  0.5244
  447MOL0     C61559   5.450   2.051   8.104 -0.4695 -0.0839  0.5865
  447MOL0     C61560   5.361   2.047   7.983 -0.0791 -0.4237 -1.0258
  447MOL0     C61561   5.294   2.181   7.960  0.3517 -0.4069 -0.4329
  447MOL0     C61562   5.177   2.205   8.060 -0.5497  0.8446  0.2145
  447MOL0     C61563   5.092   2.315   7.998 -0.2792 -0.3016 -0.3168
  447MOL0     C61564   5.004   2.380   8.107  0.2199 -0.0937  0.2865
  447MOL0     N61565   4.955   2.506   8.063 -0.0766 -0.6916  0.9120
  447MOL0     C61566   4.847   2.516   7.978 -0.1181  0.9368  0.9742
  447MOL0     C61567   4.821   2.641   7.967  0.7149  0.3951 -0.4810
  447MOL0     C61568   4.701   2.692   7.892  0.1019  0.6244  0.4412
  447MOL0     C61569   4.738   2.711   7.742 -0.7132  0.2064 -1.4580
  447MOL0     C61570   4.633   2.806   7.678  0.0671  0.1963 -0.2418
  447MOL0     C61571   4.484   2.766   7.688 -0.3979 -0.1232  0.1255
  447MOL0     O61572   4.443   2.662   7.589 -0.7967 -0.0465  0.3680
  447MOL0     C61573   4.323   2.603   7.598  0.4849 -1.2726 -1.0480
  447MOL0     C61574   4.210   2.676   7.655  0.5454  1.1726  0.2799
  447MOL0     C61575   4.077   2.627   7.656  0.0804 -0.8316 -0.4389
  447MOL0     C61576   3.975   2.729   7.711  0.4943 -1.3535 -0.7203
  447MOL0     C61577   4.055   2.500   7.604  0.2952  0.5026  0.3074
  447MOL0     C61578   3.919   2.440   7.616  1.2093 -0.7571 -0.2377
  447MOL0     O61579   3.930   2.299   7.604 -0.3906 -0.5854  0.8297
  447MOL0     C61580   3.837   2.196   7.571  0.1509 -0.0994 -0.0836
  447MOL0     C61581   3.709   2.219   7.515 -0.1009  0.3498  0.1984
  447MOL0     C61582   3.628   2.114   7.473 -0.0235 -0.3038 -0.1219
  447MOL0     C61583   3.679   1.978   7.496 -0.6467  0.0529  0.1396
  447MOL0     O61584   3.605   1.872   7.457 -0.3106  0.2998  1.1331
  447MOL0     C61585   3.634   1.738   7.490 -0.7580  0.7481 -0.0624
  447MOL0     C61586   3.541   1.629   7.439  0.6032 -0.7073 -0.8126
  447MOL0     C61587   3.602   1.495   7.415  0.2310  0.1501 -0.0310
  447MOL0     C61588   3.497   1.396   7.360  0.3586 -0.1974  0.4245
  447MOL0     C61589   3.487   1.418   7.207  0.6477 -0.4381  0.5025
  447MOL0     C61590   3.338   1.449   7.162  0.1059 -0.7167  1.3700
  447MOL0     C61591   3.304   1.405   7.015 -0.5471  0.2687 -0.2566
  447MOL0     C61592   3.159   1.437   6.975 -0.0901  0.2793  0.3564
  447MOL0    Cl61593   3.035   1.352   7.070 -0.0563 -0.4801 -0.7200
  447MOL0     C61594   3.816   1.960   7.538  0.3173  0.2876  0.4819
  447MOL0     C61595   3.900   2.068   7.575  0.1502 -0.2774 -0.0438
  447MOL0     O61596   3.814   2.498   7.643  0.3578 -0.0237  1.1935
  447MOL0     C61597   4.166   2.431   7.544 -0.1449  0.2923  0.6202
  447MOL0     C61598   4.293   2.491   7.532  0.6711  0.0872 -0.9462
  447MOL0     N61599   4.902   2.717   8.039  0.6728  0.6766  0.1537
  447MOL0     N61600   4.995   2.634   8.099  0.7062  0.7356  0.4816
  447MOL0     C61601   5.814   1.993   8.403  0.6544  0.2433 -0.6278
  447MOL0     C61602   5.906   2.035   8.501 -0.8625  0.6602  1.1482
  447MOL0     C61603   6.099   2.179   8.913 -0.5520  0.4984  1.0165
  447MOL0     C61604   6.076   2.201   9.058  0.2894  0.6742  0.4374
  447MOL0     C61605   6.164   2.268   9.134 -0.2890 -0.0108  0.1335
  447MOL0     C61606   6.280   2.312   9.081 -0.1953 -0.6603  0.2951
  447MOL0     O61607   6.346   2.386   9.172 -0.4557 -0.3489  0.1164
  447MOL0     C61608   6.487   2.405   9.149 -0.1920  0.0233 -0.1252
  447MOL0     C61609   6.566   2.422   9.275  0.1442  0.1278 -0.0539
  447MOL0     C61610   6.522   2.536   9.367 -0.1742  0.0565 -0.2757
  447MOL0     C61611   6.565   2.672   9.306  0.1283 -0.3087  0.2584
  447MOL0     C61612   6.535   2.785   9.396 -0.1579  0.3910  0.2059
  447MOL0     C61613   6.512   2.890   9.457  0.5128  0.1205  0.1578
  447MOL0     C61614   6.315   2.297   8.947 -0.3644  0.3721  0.3246
  447MOL0     C61615   6.233   2.212   8.864  0.1120 -0.2441  0.3884
  447MOL0     C61616   6.290   2.177   8.731  0.0451  0.0459 -0.9095
  447MOL0     H61617   5.695   2.087   8.756 -1.1589  0.2308 -0.9434
  447MOL0     H61618   5.532   1.991   8.590 -0.5663  2.9169 -0.7506
  447MOL0     H61619   5.651   1.782   8.229  0.8904  0.3337  0.5864
  447MOL0     H61620   5.694   1.941   8.158  0.0175 -0.8680 -2.3898
  447MOL0     H61621   5.530   1.861   8.021 -0.1635  2.3001 -0.2159
  447MOL0     H61622   5.399   1.841   8.143 -3.1793  2.9555 -3.1635
  447MOL0     H61623   5.390   2.090   8.186 -0.4473  0.7611  0.2157
  447MOL0     H61624   5.539   2.115   8.102 -0.9632  0.5900 -0.7939
  447MOL0     H61625   5.408   2.023   7.888  1.7655  2.4526 -0.9601
  447MOL0     H61626   5.284   1.975   8.012  0.0462  0.5585  2.2764
  447MOL0     H61627   5.244   2.165   7.864 -1.4875 -1.7023  0.6820
  447MOL0     H61628   5.359   2.268   7.972 -0.5049  0.0207  1.6915
  447MOL0     H61629   5.121   2.111   8.065 -0.1489  0.5012 -1.3993
  447MOL0     H61630   5.203   2.234   8.162  1.7093  0.3464 -0.1672
  447MOL0     H61631   5.047   2.266   7.911  1.8356 -2.4977 -0.2715
  447MOL0     H61632   5.162   2.391   7.965  1.3113 -0.2718  2.7965
  447MOL0     H61633   4.917   2.319   8.134 -0.8195  0.0773 -2.3683
  447MOL0     H61634   5.072   2.407   8.188  0.7554  2.6770 -0.9434
  447MOL0     H61635   4.784   2.443   7.929 -2.1590  2.0663  1.7834
  447MOL0     H61636   4.656   2.783   7.933 -2.5678 -1.1923  1.8554
  447MOL0     H61637   4.624   2.614   7.894  0.1579  0.5742  0.7382
  447MOL0     H61638   4.829   2.771   7.730 -1.2885  0.8223 -2.9475
  447MOL0     H61639   4.746   2.613   7.694 -0.5140 -1.0907  1.0661
  447MOL0     H61640   4.643   2.899   7.735 -1.2378  0.0577  0.2365
  447MOL0     H61641   4.647   2.821   7.571 -1.4111  4.0507 -0.0499
  447MOL0     H61642   4.478   2.710   7.782  1.5574 -0.8733 -0.1540
  447MOL0     H61643   4.415   2.852   7.683 -2.0052 -1.2205  2.0415
  447MOL0     H61644   4.228   2.781   7.681  0.2766  1.7960 -1.9032
  447MOL0     H61645   4.023   2.827   7.716  1.1750 -1.7012  3.7599
  447MOL0     H61646   3.948   2.723   7.817 -0.9814  1.2807 -0.8546
  447MOL0     H61647   3.890   2.743   7.643  0.2094  2.2425  0.1699
  447MOL0     H61648   3.661   2.317   7.512  0.7566  0.8942  2.5686
  447MOL0     H61649   3.525   2.115   7.439 -1.4980  2.1277  3.7036
  447MOL0     H61650   3.738   1.710   7.468 -1.2716 -0.6874 -0.8336
  447MOL0     H61651   3.626   1.735   7.599 -1.8447  3.2852  0.0026
  447MOL0     H61652   3.459   1.624   7.511  0.8430 -0.8902 -0.5492
  447MOL0     H61653   3.495   1.667   7.347 -0.0505  2.4840  0.7219
  447MOL0     H61654   3.630   1.451   7.511  0.3513  1.8144  0.7240
  447MOL0     H61655   3.693   1.501   7.355 -0.8635 -2.0743 -2.0805
  447MOL0     H61656   3.402   1.405   7.413 -0.6022 -4.2540 -0.2595
  447MOL0     H61657   3.532   1.292   7.371  1.8605  0.4010  1.7846
  447MOL0     H61658   3.556   1.488   7.159  0.6332 -0.4925  0.4026
  447MOL0     H61659   3.522   1.322   7.170 -1.4610 -1.1370  0.1696
  447MOL0     H61660   3.335   1.559   7.168 -0.9156 -0.2573 -3.5226
  447MOL0     H61661   3.269   1.395   7.227  1.5858 -0.3464  3.3403
  447MOL0     H61662   3.325   1.298   7.002 -1.2664  0.2026 -0.9144
  447MOL0     H61663   3.369   1.460   6.947 -0.9418 -1.3613 -2.0512
  447MOL0     H61664   3.136   1.406   6.873 -0.5642  0.3218  0.4456
  447MOL0     H61665   3.147   1.545   6.966 -1.8000  0.0988  0.2534
  447MOL0     H61666   3.857   1.860   7.546  0.7381  0.5842  2.9990
  447MOL0     H61667   3.996   2.056   7.624  0.2127 -0.9523 -0.3231
  447MOL0     H61668   4.160   2.329   7.508 -1.7858  0.4327  0.4109
  447MOL0     H61669   4.377   2.441   7.485  1.3458 -0.0095  0.3171
  447MOL0     H61670   5.846   1.973   8.302  0.0973 -3.7906 -0.1559
  447MOL0     H61671   6.014   2.043   8.486 -0.7153 -1.8653  0.3339
  447MOL0     H61672   5.981   2.179   9.107 -0.3952 -0.3641 -1.2559
  447MOL0     H61673   6.150   2.291   9.239  0.4121  1.4580 -0.0654
  447MOL0     H61674   6.517   2.321   9.086  3.0706  2.5234 -2.2804
  447MOL0     H61675   6.493   2.499   9.093 -0.3736  0.3225  0.3541
  447MOL0     H61676   6.672   2.418   9.248  0.4245 -1.2312  1.1110
  447MOL0     H61677   6.552   2.325   9.325  2.5135  1.0267  2.6473
  447MOL0     H61678   6.415   2.537   9.389 -0.2441  1.3780 -0.6253
  447MOL0     H61679   6.571   2.527   9.465  1.4799 -0.7371 -1.1276
  447MOL0     H61680   6.511   2.692   9.213  1.8724  2.6306 -0.2456
  447MOL0     H61681   6.672   2.669   9.286  0.1875  0.2600  0.4752
  447MOL0     H61682   6.456   2.965   9.509 -0.3989 -1.2292  1.1880
  447MOL0     H61683   6.414   2.325   8.913  0.2080  2.0056  3.0606
  447MOL0     H61684   6.304   2.272   8.678  0.4555 -0.5697 -1.9409
  447MOL0     H61685   6.388   2.129   8.743  1.3502  2.4406 -1.4491
  447MOL0     H61686   6.234   2.111   8.663  2.0611 -1.4117 -1.2606
  448MOL0     O61687  10.177   0.932   4.486 -0.1799 -0.2041 -0.4405
  448MOL0     C61688  10.131   0.989   4.588 -1.4388 -0.2412  0.6725
  448MOL0     O61689  10.031   0.957   4.663  0.8448  0.1219  0.1026
  448MOL0     C61690   9.954   0.860   4.628 -0.0531 -0.1445 -0.5238
  448MOL0     C61691   9.855   0.870   4.530  1.2607  0.1181  0.6299
  448MOL0     C61692   9.788   0.749   4.496  0.0532 -0.3476 -0.4325
  448MOL0     C61693   9.788   0.629   4.557  0.6836  0.5287 -0.1521
  448MOL0     O61694   9.690   0.542   4.524  0.4038  0.9056  0.7662
  448MOL0     C61695   9.706   0.404   4.563 -0.0799  0.8214 -0.1381
  448MOL0     C61696   9.565   0.329   4.555 -0.1729  0.5374  0.0499
  448MOL0     C61697   9.573   0.182   4.606 -0.7099 -0.8517 -0.1058
  448MOL0     C61698   9.476   0.174   4.723 -0.2392  0.1507  0.2095
  448MOL0     C61699   9.440   0.035   4.755 -1.1198  0.5558  0.2163
  448MOL0     C61700   9.358  -0.047   4.655  0.6852  0.2631 -0.0415
  448MOL0     C61701   9.379  -0.197   4.667 -0.6195  1.1122 -0.8556
  448MOL0     C61702   9.524  -0.252   4.650  0.0475 -0.2282 -1.1632
  448MOL0     N61703   9.527  -0.399   4.653 -0.5736  0.4658 -0.0400
  448MOL0     C61704   9.535  -0.495   4.749  0.4138 -0.5688 -0.4862
  448MOL0     C61705   9.510  -0.618   4.694  0.6009  0.4280  0.0232
  448MOL0     C61706   9.494  -0.752   4.766  0.0326  0.4144 -0.0879
  448MOL0     C61707   9.360  -0.825   4.724 -0.8039  0.0932 -0.2437
  448MOL0     C61708   9.329  -0.937   4.819 -0.3646 -0.4494 -0.1140
  448MOL0     C61709   9.238  -1.040   4.753  0.6928 -0.1165 -0.3640
  448MOL0     O61710   9.127  -0.966   4.698  0.3530 -0.0632  0.5819
  448MOL0     C61711   9.043  -1.015   4.600  0.1513 -0.4156 -0.2043
  448MOL0     C61712   8.949  -0.934   4.551  0.6803 -0.0223  0.3958
  448MOL0     C61713   8.874  -0.971   4.442  0.7270  0.8671  0.0707
  448MOL0     C61714   8.794  -0.853   4.377 -0.2341  0.7768  0.5070
  448MOL0     C61715   8.873  -1.104   4.390  0.7562 -0.4150 -0.1412
  448MOL0     C61716   8.805  -1.165   4.272  0.2180  0.2112 -0.7562
  448MOL0     O61717   8.676  -1.130   4.247 -0.3929 -0.5282 -0.0290
  448MOL0     C61718   8.573  -1.188   4.325 -0.0011 -0.5886 -0.4222
  448MOL0     C61719   8.587  -1.288   4.422 -0.6624 -0.5008  0.1322
  448MOL0     C61720   8.477  -1.354   4.487  0.5960 -0.2325 -0.1943
  448MOL0     C61721   8.347  -1.317   4.455  0.2383 -0.0042 -1.0205
  448MOL0     O61722   8.228  -1.366   4.513  0.2453 -0.3713 -0.1514
  448MOL0     C61723   8.246  -1.441   4.631 -0.1096  0.6218  0.4825
  448MOL0     C61724   8.108  -1.480   4.685  0.9918 -0.8630 -0.2950
  448MOL0     C61725   8.030  -1.356   4.712  0.2444  0.0890  0.2699
  448MOL0     C61726   7.901  -1.381   4.784 -0.9282  0.6436  1.1371
  448MOL0     C61727   7.793  -1.442   4.698  0.0768  0.1578 -0.0012
  448MOL0     C61728   7.651  -1.431   4.757 -0.4312 -0.0725  0.3415
  448MOL0     C61729   7.620  -1.510   4.873 -0.5280 -0.5363 -0.8962
  448MOL0     C61730   7.498  -1.465   4.948  0.3563 -0.1523 -0.3715
  448MOL0    Cl61731   7.348  -1.491   4.853 -0.2668 -0.2145  0.2226
  448MOL0     C61732   8.322  -1.219   4.357 -0.1240  1.0713 -0.3713
  448MOL0     C61733   8.436  -1.160   4.296 -0.0003  0.3030  0.3528
  448MOL0     O61734   8.872  -1.241   4.205  0.2077 -0.2800  1.3189
  448MOL0     C61735   8.963  -1.186   4.448 -0.3509 -0.4790  0.4594
  448MOL0     C61736   9.046  -1.146   4.557  0.5164  0.1638 -0.1199
  448MOL0     N61737   9.521  -0.599   4.557 -0.8243  0.0704  0.0681
  448MOL0     N61738   9.534  -0.469   4.535 -0.0659 -0.5546 -0.6973
  448MOL0     C61739   9.874   0.627   4.679 -0.3907  0.5470 -0.5024
  448MOL0     C61740   9.956   0.740   4.705  0.0439  0.7616 -0.3029
  448MOL0     C61741  10.169   1.123   4.620 -0.0200 -0.0364 -0.2258
  448MOL0     C61742  10.157   1.225   4.524  0.9831 -0.7103 -0.2607
  448MOL0     C61743  10.203   1.356   4.548  0.9145 -0.3133 -0.2247
  448MOL0     C61744  10.215   1.398   4.675 -0.8199  0.0529  0.1758
  448MOL0     O61745  10.252   1.531   4.686  0.1680  0.5895 -0.0927
  448MOL0     C61746  10.323   1.579   4.799  0.4186 -0.0328  0.0151
  448MOL0     C61747  10.340   1.725   4.813 -0.5410 -0.8366  0.1722
  448MOL0     C61748  10.421   1.787   4.696 -0.0013  0.0845 -1.0303
  448MOL0     C61749  10.467   1.929   4.733 -0.4966 -0.0269  0.5375
  448MOL0     C61750  10.374   2.041   4.719  1.1983 -0.0175  0.6702
  448MOL0     C61751  10.300   2.134   4.694 -1.5391 -1.0130 -0.1906
  448MOL0     C61752  10.242   1.296   4.773 -0.2950 -0.7676  0.8541
  448MOL0     C61753  10.216   1.164   4.742  0.7275 -0.1116  0.6265
  448MOL0     C61754  10.241   1.068   4.853  0.8443  0.2665  0.1658
  448MOL0     H61755   9.851   0.960   4.469 -0.4357 -0.4851 -0.2295
  448MOL0     H61756   9.702   0.764   4.432 -1.1539 -0.5820  1.0818
  448MOL0     H61757   9.755   0.389   4.659  1.3587 -3.5646 -1.3030
  448MOL0     H61758   9.776   0.345   4.503 -0.2072  1.5279 -1.0137
  448MOL0     H61759   9.492   0.390   4.610  1.1643  1.5597  0.7524
  448MOL0     H61760   9.536   0.325   4.449 -1.2580  3.0127  0.1814
  448MOL0     H61761   9.548   0.114   4.524  3.0820  2.4657 -4.5580
  448MOL0     H61762   9.675   0.152   4.632  0.7335  1.4629 -2.4977
  448MOL0     H61763   9.519   0.221   4.811 -2.4767  1.1162  0.8580
  448MOL0     H61764   9.384   0.231   4.704 -0.2596 -0.0941 -0.4475
  448MOL0     H61765   9.385   0.022   4.848 -1.2034 -1.8266 -0.0901
  448MOL0     H61766   9.537  -0.014   4.766 -1.7068 -0.9315 -0.8585
  448MOL0     H61767   9.257  -0.019   4.688  0.0566 -1.7629 -0.0694
  448MOL0     H61768   9.362  -0.013   4.552 -0.3200 -0.6865 -0.4219
  448MOL0     H61769   9.322  -0.246   4.587 -0.1630 -2.3054  0.7092
  448MOL0     H61770   9.343  -0.247   4.758  2.4002 -0.3740 -0.3525
  448MOL0     H61771   9.558  -0.206   4.557 -1.4545 -0.0503 -1.6451
  448MOL0     H61772   9.599  -0.218   4.722  0.1946 -0.1565 -1.3510
  448MOL0     H61773   9.555  -0.476   4.854  2.4030  0.1595 -0.9650
  448MOL0     H61774   9.501  -0.738   4.874  1.2106  0.3147 -0.1398
  448MOL0     H61775   9.580  -0.816   4.743 -1.1395 -0.5384 -2.0802
  448MOL0     H61776   9.280  -0.750   4.726 -0.3003  0.6401 -0.6433
  448MOL0     H61777   9.366  -0.861   4.621  0.0352 -0.5099  0.0009
  448MOL0     H61778   9.426  -0.984   4.837 -1.4677 -3.0313 -0.4630
  448MOL0     H61779   9.305  -0.897   4.918  1.9059 -0.7429  0.6278
  448MOL0     H61780   9.291  -1.104   4.682 -2.0087  0.4249 -3.1088
  448MOL0     H61781   9.211  -1.109   4.833  0.1304  0.2413 -0.2363
  448MOL0     H61782   8.942  -0.835   4.594 -0.2093 -0.8446  2.2663
  448MOL0     H61783   8.739  -0.885   4.288 -0.6604  4.1371 -0.5784
  448MOL0     H61784   8.864  -0.774   4.349  1.4176 -1.3147 -1.6098
  448MOL0     H61785   8.710  -0.825   4.442 -2.2023 -0.3970 -1.3836
  448MOL0     H61786   8.688  -1.315   4.452  0.0311 -2.1041 -3.2391
  448MOL0     H61787   8.507  -1.435   4.553  1.5117 -0.4381 -0.8383
  448MOL0     H61788   8.302  -1.534   4.615 -0.6115 -0.5960  4.7311
  448MOL0     H61789   8.311  -1.387   4.700  1.6822  0.8527 -1.2807
  448MOL0     H61790   8.058  -1.541   4.609  0.9848 -0.3975 -0.6684
  448MOL0     H61791   8.115  -1.544   4.773 -1.0296  0.0123  0.5646
  448MOL0     H61792   8.006  -1.314   4.614 -3.0088 -0.5089  0.7154
  448MOL0     H61793   8.092  -1.287   4.769  3.1267 -2.6981  0.7921
  448MOL0     H61794   7.880  -1.280   4.819  1.8708  1.2385  1.3627
  448MOL0     H61795   7.909  -1.437   4.878  1.3377  0.4483  0.8878
  448MOL0     H61796   7.789  -1.397   4.598  1.6089  0.0979 -0.1084
  448MOL0     H61797   7.817  -1.549   4.705 -3.9960 -0.7851  3.2535
  448MOL0     H61798   7.582  -1.473   4.684 -0.0356 -0.0023 -0.0760
  448MOL0     H61799   7.628  -1.324   4.767 -3.0891 -0.4311 -1.1453
  448MOL0     H61800   7.696  -1.505   4.951 -3.0987  2.3278  1.6808
  448MOL0     H61801   7.597  -1.613   4.841 -1.5382 -0.8934  0.8402
  448MOL0     H61802   7.505  -1.362   4.986 -0.4383 -0.1541 -0.2108
  448MOL0     H61803   7.497  -1.522   5.041  1.6386 -2.5377 -1.7284
  448MOL0     H61804   8.217  -1.202   4.336 -0.6832 -0.7304  0.7553
  448MOL0     H61805   8.416  -1.091   4.216 -0.4039  1.0880  1.1142
  448MOL0     H61806   8.965  -1.284   4.401 -2.2656  0.2655 -1.3589
  448MOL0     H61807   9.113  -1.226   4.583 -2.4998 -2.2312  0.9267
  448MOL0     H61808   9.873   0.549   4.754  0.8857  0.8895 -0.0981
  448MOL0     H61809  10.022   0.736   4.792  1.6696  0.8237 -1.4958
  448MOL0     H61810  10.121   1.203   4.423  0.3963 -1.3370  0.0706
  448MOL0     H61811  10.210   1.421   4.462 -0.0559 -1.0600 -0.8884
  448MOL0     H61812  10.259   1.559   4.885 -5.4266  1.8910 -3.3290
  448MOL0     H61813  10.422   1.532   4.794 -1.0148 -3.7947 -6.8034
  448MOL0     H61814  10.393   1.741   4.907 -0.0657  2.5780 -0.5544
  448MOL0     H61815  10.241   1.771   4.827 -0.8376 -0.9156 -1.4455
  448MOL0     H61816  10.513   1.729   4.680 -1.0877 -1.8529 -0.5002
  448MOL0     H61817  10.359   1.782   4.606  0.6764 -2.9103 -1.4365
  448MOL0     H61818  10.558   1.947   4.674  0.7488  1.5883  2.8051
  448MOL0     H61819  10.499   1.936   4.837 -0.4952  1.5445  0.4563
  448MOL0     H61820  10.249   2.224   4.666  3.0603  1.3050 -2.2969
  448MOL0     H61821  10.265   1.329   4.874  3.1320 -0.8647  0.2247
  448MOL0     H61822  10.324   1.105   4.915  0.9708 -1.6277  1.2051
  448MOL0     H61823  10.157   1.035   4.914  2.4613 -0.7998  1.9308
  448MOL0     H61824  10.267   0.970   4.811  0.6844 -0.4421  1.6588
  449MOL0     O61825   5.822   6.157   2.783  0.3573 -0.0699 -0.3287
  449MOL0     C61826   5.796   6.192   2.666  0.3560 -0.0078 -0.9951
  449MOL0     O61827   5.811   6.116   2.553 -0.5448 -0.2182 -0.3941
  449MOL0     C61828   5.870   5.993   2.547  0.2289 -0.3497  0.6570
  449MOL0     C61829   5.852   5.901   2.447  0.4951 -0.4272 -0.3826
  449MOL0     C61830   5.920   5.784   2.437  0.1358 -0.5183 -0.7735
  449MOL0     C61831   6.019   5.752   2.531 -0.2397 -0.1757 -0.0846
  449MOL0     O61832   6.075   5.627   2.527 -0.4184  0.3971  0.1238
  449MOL0     C61833   6.083   5.541   2.411 -0.1250 -0.1183 -0.9605
  449MOL0     C61834   6.180   5.422   2.437  0.1114  0.0514  0.2826
  449MOL0     C61835   6.198   5.327   2.315  0.3746  0.2063  0.1960
  449MOL0     C61836   6.339   5.265   2.318  0.4106 -0.0197 -0.1640
  449MOL0     C61837   6.357   5.170   2.434  0.1164  0.5391 -0.6512
  449MOL0     C61838   6.484   5.082   2.429 -0.7184 -0.2719  0.6125
  449MOL0     C61839   6.472   4.954   2.512 -0.2240 -0.3377 -0.0458
  449MOL0     C61840   6.601   4.881   2.516 -0.2152 -0.8873 -0.0748
  449MOL0     N61841   6.615   4.801   2.395 -0.8821 -0.1538 -0.6025
  449MOL0     C61842   6.680   4.854   2.281  0.0097  0.4339 -0.8666
  449MOL0     C61843   6.686   4.748   2.193  0.1932  0.3534  0.1131
  449MOL0     C61844   6.715   4.760   2.042 -0.1758 -0.5933 -0.4272
  449MOL0     C61845   6.680   4.630   1.960 -0.6786  0.5886 -0.1508
  449MOL0     C61846   6.642   4.660   1.811  0.8267  0.3053  0.0998
  449MOL0     C61847   6.766   4.723   1.736  0.1180  0.3111  1.0226
  449MOL0     O61848   6.731   4.729   1.592  0.2559 -0.4657 -0.4052
  449MOL0     C61849   6.648   4.826   1.542 -0.0245 -0.3837 -0.4291
  449MOL0     C61850   6.625   4.808   1.400  0.2342  0.8692 -0.9646
  449MOL0     C61851   6.555   4.901   1.330  0.1161  1.0297 -0.4994
  449MOL0     C61852   6.540   4.871   1.186 -0.4232  0.7435 -0.9029
  449MOL0     C61853   6.481   4.999   1.385 -0.2329 -0.5282 -0.9577
  449MOL0     C61854   6.401   5.109   1.322 -0.1629 -0.7825 -0.2988
  449MOL0     O61855   6.402   5.218   1.395 -0.3318  0.1416 -0.9814
  449MOL0     C61856   6.315   5.314   1.352  0.3102  0.0583  0.9474
  449MOL0     C61857   6.352   5.404   1.256 -0.1331  0.5971 -0.0443
  449MOL0     C61858   6.254   5.497   1.210  0.1742  0.4267 -0.2279
  449MOL0     C61859   6.125   5.505   1.266  0.5312 -0.1144  0.2774
  449MOL0     O61860   6.029   5.595   1.248 -0.1553 -0.2848  0.4132
  449MOL0     C61861   6.013   5.645   1.117  0.3949 -0.1690  0.2654
  449MOL0     C61862   5.950   5.552   1.004  1.1444 -0.6972 -0.1388
  449MOL0     C61863   5.991   5.581   0.861 -0.0203 -0.7528  1.0229
  449MOL0     C61864   5.970   5.459   0.772  0.4220  0.3784 -0.3742
  449MOL0     C61865   5.816   5.441   0.749 -0.3329  0.3867 -0.6253
  449MOL0     C61866   5.779   5.345   0.626  0.7804  0.0265 -1.4785
  449MOL0     C61867   5.824   5.408   0.491 -0.7402  0.0232 -0.3127
  449MOL0     C61868   5.896   5.301   0.412  0.7168  0.3914  0.1998
  449MOL0    Cl61869   6.065   5.270   0.473 -0.3510 -0.2433  0.1461
  449MOL0     C61870   6.098   5.424   1.375 -0.9311  0.5364 -0.3802
  449MOL0     C61871   6.185   5.325   1.405 -0.2637  0.6499 -0.2612
  449MOL0     O61872   6.355   5.105   1.207  0.3552 -0.1256 -0.2917
  449MOL0     C61873   6.484   4.996   1.532 -0.4949  0.1623  0.3806
  449MOL0     C61874   6.559   4.905   1.606 -0.1708  0.2110  1.0618
  449MOL0     N61875   6.626   4.639   2.258 -0.7611 -0.4154  0.0980
  449MOL0     N61876   6.585   4.672   2.372 -0.1412 -0.7699  0.0034
  449MOL0     C61877   6.051   5.839   2.634 -0.7094  0.1077  0.2299
  449MOL0     C61878   5.976   5.956   2.640  0.8323 -0.2887 -0.3231
  449MOL0     C61879   5.715   6.317   2.647 -0.6102 -0.2446 -0.7981
  449MOL0     C61880   5.659   6.338   2.524  0.1678 -0.2812 -0.0576
  449MOL0     C61881   5.577   6.446   2.486 -0.3886 -0.0879  0.1842
  449MOL0     C61882   5.566   6.549   2.580  0.4190  0.0201 -0.1172
  449MOL0     O61883   5.503   6.666   2.557 -0.2675 -0.6884  0.6214
  449MOL0     C61884   5.520   6.729   2.424  0.5540 -0.0323 -0.2015
  449MOL0     C61885   5.664   6.742   2.396  0.2857  0.8697 -0.5379
  449MOL0     C61886   5.699   6.846   2.286 -0.1935 -0.1877  0.8078
  449MOL0     C61887   5.709   6.792   2.143  0.7302  0.1710  0.0215
  449MOL0     C61888   5.583   6.738   2.095  0.7249  0.4854 -0.4555
  449MOL0     C61889   5.474   6.705   2.049 -0.7793  0.1782  0.0014
  449MOL0     C61890   5.617   6.538   2.706 -0.6201  0.1715  0.3924
  449MOL0     C61891   5.694   6.416   2.743  0.3565 -0.5893 -0.2772
  449MOL0     C61892   5.769   6.407   2.880 -0.4460 -0.1599  0.0068
  449MOL0     H61893   5.773   5.923   2.375  0.4099 -0.1375 -0.2032
  449MOL0     H61894   5.885   5.716   2.361 -2.1008 -2.0418  1.4563
  449MOL0     H61895   6.120   5.593   2.322  1.8652 -2.2280 -1.4437
  449MOL0     H61896   5.979   5.507   2.397 -0.9153  0.1332  3.1266
  449MOL0     H61897   6.273   5.469   2.472 -0.9329  2.7687 -0.3409
  449MOL0     H61898   6.155   5.364   2.526 -1.0206 -2.7180 -1.7213
  449MOL0     H61899   6.116   5.259   2.289  0.9408 -1.1867  1.8544
  449MOL0     H61900   6.206   5.401   2.235 -0.3501  1.9431  1.6567
  449MOL0     H61901   6.353   5.211   2.224  0.2688 -2.8345  1.3169
  449MOL0     H61902   6.400   5.356   2.318 -0.1621  0.3713 -0.5337
  449MOL0     H61903   6.266   5.110   2.438  0.5747 -0.1930 -0.9270
  449MOL0     H61904   6.349   5.223   2.530 -5.9423 -0.5420 -0.1664
  449MOL0     H61905   6.512   5.054   2.327  2.2861  2.7615  0.4083
  449MOL0     H61906   6.570   5.138   2.467  0.8828 -0.5132 -2.3575
  449MOL0     H61907   6.385   4.902   2.469 -0.2691  0.7460 -1.3202
  449MOL0     H61908   6.432   4.979   2.611  0.5353 -1.4575  0.5754
  449MOL0     H61909   6.681   4.955   2.529  1.0419 -2.0436 -0.9206
  449MOL0     H61910   6.609   4.812   2.600  3.0582 -1.1337 -0.4655
  449MOL0     H61911   6.714   4.956   2.267 -1.0485  0.8618 -0.3909
  449MOL0     H61912   6.823   4.779   2.039 -0.2411 -0.2883 -2.1304
  449MOL0     H61913   6.668   4.852   2.005  0.5834 -0.1409 -0.2944
  449MOL0     H61914   6.772   4.573   1.952 -0.5335  0.5460  1.5424
  449MOL0     H61915   6.608   4.574   2.020 -0.5788  2.6230  2.0288
  449MOL0     H61916   6.628   4.566   1.756  2.2789 -0.3883  0.8552
  449MOL0     H61917   6.550   4.719   1.805  0.7537  0.0789 -1.3148
  449MOL0     H61918   6.790   4.816   1.789 -2.6115  0.9163  1.3372
  449MOL0     H61919   6.845   4.647   1.731 -1.3222 -1.2809  1.5861
  449MOL0     H61920   6.673   4.722   1.355 -1.1789  1.0639 -3.0060
  449MOL0     H61921   6.592   4.780   1.155 -1.4328  0.1205 -0.8000
  449MOL0     H61922   6.566   4.960   1.127  0.2338  3.0673  2.5977
  449MOL0     H61923   6.433   4.853   1.176 -0.4494 -0.1310  0.6492
  449MOL0     H61924   6.454   5.404   1.219 -0.5435  3.4685 -1.4693
  449MOL0     H61925   6.287   5.580   1.148  1.3999  0.3889  0.3555
  449MOL0     H61926   5.936   5.721   1.133  0.9094  1.2824 -3.1847
  449MOL0     H61927   6.096   5.705   1.080 -0.2804  0.4980 -0.2107
  449MOL0     H61928   5.975   5.448   1.023  1.7777 -0.5865 -0.3519
  449MOL0     H61929   5.840   5.548   1.008  0.5168 -3.6097 -6.8803
  449MOL0     H61930   6.097   5.607   0.866  0.0788 -1.2342  1.4779
  449MOL0     H61931   5.943   5.667   0.814  1.1531 -2.9769 -5.1628
  449MOL0     H61932   6.027   5.373   0.806  3.6224  1.6986 -1.9759
  449MOL0     H61933   6.020   5.487   0.678  3.2105  1.2280  1.2479
  449MOL0     H61934   5.776   5.400   0.842  0.4418 -0.6335 -0.7282
  449MOL0     H61935   5.765   5.536   0.729  0.3996  0.4875 -2.1630
  449MOL0     H61936   5.669   5.344   0.622  0.6936 -2.8627 -0.7558
  449MOL0     H61937   5.816   5.244   0.646  0.9039  0.4953  1.0288
  449MOL0     H61938   5.874   5.500   0.522 -2.8151  0.3926  2.2738
  449MOL0     H61939   5.741   5.454   0.437  0.3466 -0.0213 -2.1193
  449MOL0     H61940   5.906   5.335   0.309 -3.5354 -1.1529 -0.9300
  449MOL0     H61941   5.839   5.209   0.430  3.0566 -0.7685  2.6328
  449MOL0     H61942   6.001   5.430   1.423 -0.5605 -0.2726  0.4743
  449MOL0     H61943   6.150   5.250   1.476  0.8493 -2.1911 -2.4927
  449MOL0     H61944   6.408   5.049   1.588 -2.5846 -3.5378  1.3674
  449MOL0     H61945   6.563   4.910   1.715  1.2336 -1.0287  1.1104
  449MOL0     H61946   6.135   5.815   2.697 -0.5436 -0.6752 -0.2820
  449MOL0     H61947   6.000   6.028   2.717 -0.7983 -0.7884  0.7117
  449MOL0     H61948   5.655   6.254   2.455  0.6368  0.2723 -0.7557
  449MOL0     H61949   5.533   6.458   2.388  0.6708 -0.3407 -0.3321
  449MOL0     H61950   5.472   6.676   2.342 -0.1108  0.6812 -0.2952
  449MOL0     H61951   5.489   6.834   2.429  0.5996 -0.0525  0.6567
  449MOL0     H61952   5.702   6.642   2.375 -0.0432  1.3343 -3.8837
  449MOL0     H61953   5.719   6.776   2.485  0.7153  3.2391 -1.6364
  449MOL0     H61954   5.621   6.922   2.275 -0.3269 -0.5311 -1.1232
  449MOL0     H61955   5.794   6.888   2.317 -0.8341  0.4254  2.0158
  449MOL0     H61956   5.783   6.711   2.133 -2.2689 -3.5191  4.1402
  449MOL0     H61957   5.738   6.869   2.070  1.1024 -0.9801 -1.0880
  449MOL0     H61958   5.390   6.655   2.006  0.1223  0.3993 -2.1208
  449MOL0     H61959   5.599   6.617   2.778  3.1818  0.4591  1.2286
  449MOL0     H61960   5.752   6.496   2.942  4.4775  1.9170 -1.1492
  449MOL0     H61961   5.744   6.321   2.943  4.0840 -1.6440  0.1176
  449MOL0     H61962   5.876   6.405   2.857 -0.5793 -0.6449 -0.6196
  450MOL0     O61963   1.017   8.895  10.468 -0.5529  0.0277 -0.1295
  450MOL0     C61964   0.997   8.970  10.566  1.0079  0.6349 -0.4254
  450MOL0     O61965   1.067   8.971  10.684  0.5815 -0.0421 -0.6195
  450MOL0     C61966   1.192   8.931  10.667  0.7807 -1.0338 -0.6072
  450MOL0     C61967   1.274   8.984  10.571  0.1973 -0.4030 -0.3197
  450MOL0     C61968   1.400   8.933  10.539  0.1321 -0.7744 -0.3907
  450MOL0     C61969   1.442   8.813  10.585  0.2201  0.2017  0.0281
  450MOL0     O61970   1.565   8.762  10.547 -1.0239  0.3149  0.3049
  450MOL0     C61971   1.561   8.634  10.476  0.3436 -1.0839 -1.5106
  450MOL0     C61972   1.699   8.567  10.474  0.3894  0.3453 -0.2002
  450MOL0     C61973   1.743   8.533  10.328 -0.2770 -0.8711 -0.3599
  450MOL0     C61974   1.652   8.435  10.254 -0.2305 -0.2496 -0.1844
  450MOL0     C61975   1.670   8.423  10.102 -0.1293  0.3104 -0.3539
  450MOL0     C61976   1.815   8.401  10.049  0.1160  0.3543 -0.1259
  450MOL0     C61977   1.814   8.427   9.902 -0.1003  0.3241 -0.0590
  450MOL0     C61978   1.958   8.408   9.863 -0.2814 -0.4893  0.1102
  450MOL0     N61979   2.012   8.271   9.864  0.0723 -0.2948 -0.2643
  450MOL0     C61980   2.079   8.222   9.756 -0.5972 -0.3256  0.7391
  450MOL0     C61981   2.116   8.098   9.794 -1.4453  0.2573  0.0219
  450MOL0     C61982   2.209   8.005   9.712  0.0486 -0.9181 -0.2488
  450MOL0     C61983   2.194   7.859   9.755  0.6363  0.6162 -1.0622
  450MOL0     C61984   2.257   7.765   9.655  0.0660 -0.2673  0.5081
  450MOL0     C61985   2.266   7.628   9.713 -0.5176  0.9728 -0.0981
  450MOL0     O61986   2.136   7.565   9.732 -0.2520  0.3565 -0.5635
  450MOL0     C61987   2.057   7.531   9.630 -0.8968 -0.6636  0.8246
  450MOL0     C61988   2.102   7.500   9.502 -0.1289 -0.4586  0.0980
  450MOL0     C61989   2.014   7.454   9.405 -0.0241 -0.1883 -0.2229
  450MOL0     C61990   2.067   7.403   9.268 -0.5981  0.3673 -0.5484
  450MOL0     C61991   1.877   7.442   9.441  0.1910 -0.3374  0.7596
  450MOL0     C61992   1.766   7.421   9.343 -0.1690 -0.1824  0.1846
  450MOL0     O61993   1.643   7.390   9.396  0.3827 -0.2747 -0.6204
  450MOL0     C61994   1.549   7.360   9.303 -0.5896  0.3283 -0.1464
  450MOL0     C61995   1.511   7.219   9.302  0.1772 -0.2049  0.5302
  450MOL0     C61996   1.408   7.189   9.217 -0.8400  1.0232  0.1010
  450MOL0     C61997   1.358   7.274   9.118  0.0541  0.8515 -0.3025
  450MOL0     O61998   1.267   7.231   9.018  0.2353  0.6477  0.3693
  450MOL0     C61999   1.204   7.324   8.934  0.7780 -0.0421  0.9734
  450MOL0     C62000   1.111   7.273   8.833  1.1473  0.9639  0.1940
  450MOL0     C62001   0.990   7.192   8.913 -0.3136 -0.8948  0.6998
  450MOL0     C62002   0.850   7.213   8.851  0.4918 -0.1095  0.0465
  450MOL0     C62003   0.745   7.178   8.955  0.0200  0.3225 -0.5874
  450MOL0     C62004   0.594   7.183   8.917  0.8578  0.3457  0.2930
  450MOL0     C62005   0.521   7.122   9.036  0.5765  0.4475 -0.0013
  450MOL0     C62006   0.368   7.111   9.003  0.1819 -0.7364  0.1318
  450MOL0    Cl62007   0.283   7.100   9.165 -0.4181 -0.3528 -1.0274
  450MOL0     C62008   1.407   7.410   9.117 -0.0578  0.3184 -0.5498
  450MOL0     C62009   1.497   7.454   9.208 -0.6978 -0.6469  0.1315
  450MOL0     O62010   1.786   7.456   9.227  0.2337 -0.2002  0.7615
  450MOL0     C62011   1.833   7.465   9.571 -0.1459  0.3765  0.0386
  450MOL0     C62012   1.926   7.507   9.665  0.4572  0.6536  0.5993
  450MOL0     N62013   2.090   8.088   9.928 -0.1925  0.1342  0.1014
  450MOL0     N62014   2.032   8.189   9.970  0.0952  0.2807 -0.0293
  450MOL0     C62015   1.356   8.746  10.674  0.0834  0.1761  0.2923
  450MOL0     C62016   1.229   8.800  10.711 -0.1236 -0.5068 -0.1499
  450MOL0     C62017   0.868   9.045  10.563  0.0893  0.7493 -0.7099
  450MOL0     C62018   0.790   9.059  10.439  0.0095  0.1244 -0.3333
  450MOL0     C62019   0.673   9.131  10.422  0.2722 -0.5569 -0.2809
  450MOL0     C62020   0.625   9.215  10.520 -0.7415 -1.3032  0.1259
  450MOL0     O62021   0.520   9.297  10.502 -0.2975  0.8352  0.5415
  450MOL0     C62022   0.473   9.379  10.605 -0.1619  0.0173  0.1192
  450MOL0     C62023   0.346   9.475  10.567 -0.8306  0.0379  0.5414
  450MOL0     C62024   0.388   9.593  10.479 -0.3875 -0.7915 -0.2045
  450MOL0     C62025   0.450   9.715  10.560 -0.1549 -0.6186 -0.3035
  450MOL0     C62026   0.363   9.796  10.645  0.5418 -0.5701  0.5938
  450MOL0     C62027   0.295   9.877  10.703  0.5150  1.2815 -0.7291
  450MOL0     C62028   0.685   9.203  10.640  0.0678 -0.2791  0.7689
  450MOL0     C62029   0.805   9.116  10.664  0.7756  1.2965 -0.6121
  450MOL0     C62030   0.852   9.103  10.800 -0.3419  0.3532 -1.3147
  450MOL0     H62031   1.237   9.072  10.520 -1.8947 -0.3712  1.1094
  450MOL0     H62032   1.452   8.987  10.460 -0.0150  1.2309  0.8146
  450MOL0     H62033   1.536   8.670  10.375 -2.9643  3.4126  0.5828
  450MOL0     H62034   1.483   8.565  10.511  1.0691 -2.2149 -2.0415
  450MOL0     H62035   1.772   8.633  10.522 -1.0535  1.3035  0.7693
  450MOL0     H62036   1.693   8.468  10.521 -0.4402  1.2591  1.7360
  450MOL0     H62037   1.754   8.618  10.260 -1.7365 -1.0483 -0.8557
  450MOL0     H62038   1.843   8.489  10.331 -1.5466 -4.0693 -0.6530
  450MOL0     H62039   1.677   8.340  10.302 -0.9686 -1.6228 -2.3674
  450MOL0     H62040   1.545   8.439  10.276 -0.0254 -1.3007  1.1446
  450MOL0     H62041   1.629   8.515  10.060 -0.3169 -1.4988 -4.7827
  450MOL0     H62042   1.610   8.341  10.059  2.8515 -1.0585 -2.2850
  450MOL0     H62043   1.890   8.465  10.095  1.2970 -2.4607  2.1361
  450MOL0     H62044   1.833   8.295  10.070  0.5454 -0.2502 -3.0480
  450MOL0     H62045   1.789   8.528   9.871  0.5994  0.6316  0.3540
  450MOL0     H62046   1.749   8.352   9.856  2.7901 -0.4361 -3.3604
  450MOL0     H62047   1.965   8.444   9.760 -1.4512 -1.3771 -0.3119
  450MOL0     H62048   2.027   8.464   9.927 -0.6341  1.6889 -1.3468
  450MOL0     H62049   2.095   8.269   9.660 -0.1273 -3.3642 -0.7848
  450MOL0     H62050   2.306   8.051   9.730 -1.3470  1.2166  2.6180
  450MOL0     H62051   2.186   8.023   9.607 -1.9707 -1.8323  0.0017
  450MOL0     H62052   2.253   7.845   9.847 -2.6052 -0.7051  0.9747
  450MOL0     H62053   2.091   7.830   9.775  0.4050  0.1278 -2.8185
  450MOL0     H62054   2.198   7.764   9.562 -0.4233  1.6297  0.7549
  450MOL0     H62055   2.356   7.809   9.636  0.4055  0.4629  3.4817
  450MOL0     H62056   2.325   7.578   9.635  1.6026  2.5884  0.3713
  450MOL0     H62057   2.319   7.631   9.809 -4.3617  1.4560  2.2238
  450MOL0     H62058   2.208   7.492   9.482  0.1628 -3.2689  2.1574
  450MOL0     H62059   2.031   7.303   9.243 -1.5080  0.3938  0.5775
  450MOL0     H62060   2.175   7.392   9.279 -0.8634 -0.9241  1.1850
  450MOL0     H62061   2.039   7.476   9.192 -1.6359  1.1130  0.5174
  450MOL0     H62062   1.565   7.140   9.354 -1.1584 -1.6419 -0.1457
  450MOL0     H62063   1.383   7.086   9.195  0.9846  0.4558  0.5110
  450MOL0     H62064   1.159   7.404   8.993 -0.8575 -0.5525  0.4730
  450MOL0     H62065   1.281   7.372   8.872 -1.0081  0.7607 -0.7198
  450MOL0     H62066   1.047   7.353   8.795 -3.2187 -2.1866  0.2235
  450MOL0     H62067   1.152   7.212   8.753 -2.8337 -0.1058 -1.2671
  450MOL0     H62068   0.991   7.206   9.021  2.9731  2.4025  0.4355
  450MOL0     H62069   0.989   7.085   8.890 -0.2315 -0.1306 -3.7612
  450MOL0     H62070   0.842   7.160   8.756 -2.4049  1.8769 -0.9750
  450MOL0     H62071   0.835   7.321   8.837 -1.9877 -0.5720 -1.3871
  450MOL0     H62072   0.769   7.078   8.991 -0.2106  1.5944  3.5851
  450MOL0     H62073   0.766   7.242   9.041  0.5152 -3.1294  2.0871
  450MOL0     H62074   0.562   7.125   8.830  1.1549 -0.3553  0.6475
  450MOL0     H62075   0.564   7.288   8.907  0.0720  0.4910  3.3666
  450MOL0     H62076   0.522   7.195   9.118 -4.2191  0.9052 -0.0146
  450MOL0     H62077   0.572   7.032   9.071 -2.4915 -1.0240  1.0850
  450MOL0     H62078   0.357   7.029   8.931 -1.2721 -3.6435  3.3497
  450MOL0     H62079   0.336   7.207   8.963 -0.5836 -0.5669  1.1007
  450MOL0     H62080   1.367   7.486   9.051 -4.1996  0.3508  1.6568
  450MOL0     H62081   1.531   7.557   9.210 -0.9241 -0.5840  1.6165
  450MOL0     H62082   1.730   7.442   9.598 -0.8350 -0.2163 -2.7943
  450MOL0     H62083   1.887   7.524   9.765  1.1077 -1.9885  1.3651
  450MOL0     H62084   1.379   8.651  10.721 -0.0161 -0.6344 -1.2146
  450MOL0     H62085   1.155   8.737  10.760 -1.4684 -0.5394 -2.1019
  450MOL0     H62086   0.820   8.999  10.353 -3.6844 -1.4209 -0.7003
  450MOL0     H62087   0.639   9.141  10.319  2.2755 -0.1475 -0.9404
  450MOL0     H62088   0.439   9.315  10.687  0.0040 -0.1025  0.0936
  450MOL0     H62089   0.558   9.440  10.638  0.8665  0.8485 -3.5765
  450MOL0     H62090   0.292   9.511  10.655  1.3275  0.9127  1.6086
  450MOL0     H62091   0.276   9.423  10.501 -0.3914 -0.1220  0.1949
  450MOL0     H62092   0.464   9.564  10.406  1.1850  2.0240  0.1506
  450MOL0     H62093   0.303   9.620  10.415 -2.3515 -1.2683  2.0345
  450MOL0     H62094   0.502   9.770  10.481  0.6150  0.0501  0.6539
  450MOL0     H62095   0.525   9.674  10.628 -2.3159 -0.1145  2.5885
  450MOL0     H62096   0.242   9.952  10.758  0.0434  0.3446  0.1299
  450MOL0     H62097   0.649   9.265  10.721  0.8080  1.7264 -0.3823
  450MOL0     H62098   0.860   8.998  10.826 -1.7405 -0.8533 -5.0264
  450MOL0     H62099   0.950   9.153  10.804  0.5839 -1.0211 -3.9617
  450MOL0     H62100   0.787   9.157  10.869 -1.3837 -2.5774  0.1346
  451MOL0     O62101   9.341   0.516   9.776 -0.5795  0.4247  0.2658
  451MOL0     C62102   9.250   0.592   9.817 -0.0022  1.3027  0.6062
  451MOL0     O62103   9.253   0.727   9.822 -0.6228  0.0536 -0.5462
  451MOL0     C62104   9.387   0.789   9.815  1.3808 -1.3734  0.0259
  451MOL0     C62105   9.439   0.830   9.934  0.6154  0.5545  0.4269
  451MOL0     C62106   9.566   0.891   9.943 -0.2491 -0.4185  1.4959
  451MOL0     C62107   9.634   0.905   9.820 -0.5735  0.2154 -0.2815
  451MOL0     O62108   9.746   0.983   9.827 -0.6812  0.7831  0.5214
  451MOL0     C62109   9.862   0.973   9.750 -0.8747  0.2825 -0.1570
  451MOL0     C62110   9.972   1.067   9.801  0.1823  0.0873 -0.6873
  451MOL0     C62111  10.099   1.065   9.719 -0.7504  0.2589 -0.4296
  451MOL0     C62112  10.174   0.936   9.758  0.3452 -0.5589 -0.5475
  451MOL0     C62113  10.237   0.869   9.639 -0.0983  1.1631  0.4141
  451MOL0     C62114  10.131   0.791   9.555  0.3162  0.0068  0.3247
  451MOL0     C62115  10.068   0.668   9.628 -0.0454 -0.0132 -0.1031
  451MOL0     C62116  10.152   0.535   9.627 -0.3174  0.6737  0.6155
  451MOL0     N62117  10.196   0.496   9.494  1.0933 -0.2031 -0.0478
  451MOL0     C62118  10.151   0.380   9.433 -0.4092  0.4141  0.1792
  451MOL0     C62119  10.247   0.342   9.340 -0.2870  0.0803 -0.3511
  451MOL0     C62120  10.254   0.221   9.250 -0.4341  0.3653  0.1738
  451MOL0     C62121  10.119   0.185   9.188 -0.4168  0.1644  0.0167
  451MOL0     C62122  10.057   0.076   9.260 -0.7237  0.4054 -2.0386
  451MOL0     C62123   9.918   0.053   9.205 -1.0534  0.4693 -0.5557
  451MOL0     O62124   9.854  -0.069   9.252 -0.3668 -0.9850  0.3796
  451MOL0     C62125   9.818  -0.083   9.385  0.7336  0.6844 -0.6346
  451MOL0     C62126   9.837  -0.204   9.441  0.7227 -0.3941 -0.1999
  451MOL0     C62127   9.788  -0.228   9.576  0.9254  0.6391 -0.6246
  451MOL0     C62128   9.771  -0.374   9.619 -0.0542 -0.9099 -0.4469
  451MOL0     C62129   9.755  -0.121   9.666  0.7765 -0.0519 -0.6827
  451MOL0     C62130   9.741  -0.122   9.811  0.4142  0.4904 -0.5675
  451MOL0     O62131   9.748  -0.003   9.884  0.6581  0.0355  0.4015
  451MOL0     C62132   9.729  -0.006  10.022 -0.8024  0.2218  1.2604
  451MOL0     C62133   9.812   0.068  10.105 -0.1878  0.4323 -0.0960
  451MOL0     C62134   9.799   0.063  10.242 -0.2099  0.1668  0.0086
  451MOL0     C62135   9.698  -0.012  10.304  0.0357  0.5234 -0.5699
  451MOL0     O62136   9.674   0.000  10.442 -0.1143 -0.6058  0.8368
  451MOL0     C62137   9.787  -0.018  10.524  0.0951  0.7943 -0.2708
  451MOL0     C62138   9.768   0.036  10.670 -0.0271  1.5134  0.3388
  451MOL0     C62139   9.755   0.190  10.654 -0.5830 -0.2521 -0.2659
  451MOL0     C62140   9.887   0.261  10.624  0.4135  1.3365 -0.7547
  451MOL0     C62141   9.848   0.387  10.544  1.3350 -1.4467  0.2998
  451MOL0     C62142   9.761   0.502  10.619 -0.6363  0.3128  0.3298
  451MOL0     C62143   9.781   0.640  10.552  0.8530  0.1841 -0.7775
  451MOL0     C62144   9.912   0.692  10.603  0.8125 -0.5209  0.2680
  451MOL0    Cl62145   9.932   0.855  10.534  0.0242  0.0704  0.2675
  451MOL0     C62146   9.606  -0.072  10.222 -0.0287 -0.4297  1.1422
  451MOL0     C62147   9.625  -0.064  10.086  0.4201  0.4568  0.6386
  451MOL0     O62148   9.716  -0.232   9.865  0.0084  0.5092  0.1230
  451MOL0     C62149   9.739   0.005   9.604  0.6557  0.5910  1.5721
  451MOL0     C62150   9.762   0.017   9.463  0.9823 -0.5585  0.1735
  451MOL0     N62151  10.339   0.452   9.341  0.4915  0.3647 -0.3064
  451MOL0     N62152  10.314   0.534   9.432  0.3648 -0.1665 -0.7111
  451MOL0     C62153   9.586   0.867   9.699  0.1490  1.2514  0.5074
  451MOL0     C62154   9.458   0.810   9.696 -0.2890 -0.1907 -0.2921
  451MOL0     C62155   9.115   0.534   9.831 -0.0548  0.6220  0.2824
  451MOL0     C62156   9.044   0.556   9.955  0.4002  0.9293  1.1253
  451MOL0     C62157   8.920   0.496   9.985  0.5774  0.5963  0.2307
  451MOL0     C62158   8.862   0.408   9.890  0.6293 -0.3772  0.3775
  451MOL0     O62159   8.739   0.350   9.896 -0.3446 -0.4718  0.0231
  451MOL0     C62160   8.651   0.386  10.002  0.0374  0.8685  0.6904
  451MOL0     C62161   8.507   0.325   9.994 -0.8499 -0.1878 -0.1633
  451MOL0     C62162   8.436   0.332  10.133 -0.2946 -0.9164 -0.2760
  451MOL0     C62163   8.309   0.246  10.135 -0.6047  0.0013  0.6050
  451MOL0     C62164   8.256   0.220  10.265 -0.9543 -1.4202 -0.0084
  451MOL0     C62165   8.241   0.218  10.381  0.0882  0.0119 -0.0220
  451MOL0     C62166   8.935   0.384   9.774  0.9382 -0.1532  0.9823
  451MOL0     C62167   9.052   0.448   9.734  0.1796 -0.4818  0.7304
  451MOL0     C62168   9.119   0.412   9.602 -0.4376 -0.1091  0.0134
  451MOL0     H62169   9.377   0.808  10.021 -1.9854  0.2659 -1.3671
  451MOL0     H62170   9.612   0.927  10.034  1.7240 -2.1948  1.2554
  451MOL0     H62171   9.840   0.992   9.645 -0.7621  0.4451 -0.1517
  451MOL0     H62172   9.902   0.871   9.744 -1.2662  0.2156 -2.0434
  451MOL0     H62173   9.939   1.172   9.796 -1.4910 -0.3794 -0.1684
  451MOL0     H62174   9.995   1.054   9.907 -0.5619 -0.1772 -0.5499
  451MOL0     H62175  10.061   1.060   9.617 -5.0551 -1.5029  1.0561
  451MOL0     H62176  10.150   1.162   9.733 -2.2830  1.0401 -0.0328
  451MOL0     H62177  10.260   0.973   9.814 -0.2100 -1.0722  0.6959
  451MOL0     H62178  10.114   0.878   9.829 -1.0548  1.5389  0.0826
  451MOL0     H62179  10.325   0.811   9.668  1.8198  3.7904  0.2273
  451MOL0     H62180  10.276   0.953   9.581  0.6942  1.0837  0.8224
  451MOL0     H62181  10.049   0.855   9.521  0.1139 -0.3858  0.0559
  451MOL0     H62182  10.180   0.769   9.460 -0.9660 -0.4718 -0.2579
  451MOL0     H62183   9.967   0.652   9.588 -0.5486 -0.3901  1.2430
  451MOL0     H62184  10.047   0.691   9.733 -1.3628  0.4650 -0.4550
  451MOL0     H62185  10.238   0.541   9.694 -0.5232  0.8165  0.8670
  451MOL0     H62186  10.093   0.450   9.664  1.7995 -1.9872 -1.6356
  451MOL0     H62187  10.052   0.343   9.455 -0.4425  1.3913  1.8565
  451MOL0     H62188  10.294   0.131   9.298  1.1266  0.3943 -0.9837
  451MOL0     H62189  10.332   0.247   9.178 -1.2479 -1.0071 -1.2750
  451MOL0     H62190  10.051   0.270   9.181  0.4097  1.1353  2.5281
  451MOL0     H62191  10.131   0.151   9.085  0.2885 -0.1755  0.2000
  451MOL0     H62192  10.111  -0.019   9.252  2.1765  1.5997  0.9721
  451MOL0     H62193  10.055   0.104   9.366  0.7897  0.3988 -1.9898
  451MOL0     H62194   9.844   0.132   9.222  1.5055  2.2277  4.3133
  451MOL0     H62195   9.943   0.036   9.100  5.5550 -3.3127  1.0222
  451MOL0     H62196   9.854  -0.289   9.375  1.0698 -1.1635  0.8547
  451MOL0     H62197   9.777  -0.445   9.536 -0.7292 -0.8226 -0.5748
  451MOL0     H62198   9.675  -0.391   9.669 -1.0050 -0.8958 -2.2173
  451MOL0     H62199   9.840  -0.405   9.699 -2.8742 -2.3510  1.6150
  451MOL0     H62200   9.901   0.119  10.071  0.7358 -0.2893  1.1314
  451MOL0     H62201   9.882   0.119  10.287  1.6419 -1.5859 -1.0620
  451MOL0     H62202   9.805  -0.126  10.519 -3.5436 -0.2295  3.1460
  451MOL0     H62203   9.876   0.028  10.481  3.4843 -1.1627  3.8449
  451MOL0     H62204   9.686  -0.021  10.713  0.9299  1.0217  1.5542
  451MOL0     H62205   9.855   0.001  10.726 -2.6208 -2.2359  2.4164
  451MOL0     H62206   9.715   0.224  10.750 -2.2958  2.0363 -1.7022
  451MOL0     H62207   9.682   0.223  10.580 -2.7651 -1.2438  1.3473
  451MOL0     H62208   9.957   0.200  10.566  2.8406 -0.0478  3.2269
  451MOL0     H62209   9.948   0.291  10.710 -0.3283 -0.7955  0.5857
  451MOL0     H62210   9.936   0.432  10.497 -1.5087  0.5715 -3.6345
  451MOL0     H62211   9.792   0.368  10.452  2.9551  3.0171 -1.9191
  451MOL0     H62212   9.777   0.509  10.727 -2.4358 -1.1884  0.7313
  451MOL0     H62213   9.656   0.473  10.605 -0.1305 -0.4869 -2.3550
  451MOL0     H62214   9.694   0.699  10.582 -0.9302 -2.0328 -1.2923
  451MOL0     H62215   9.792   0.624  10.445  1.5944 -1.9493 -0.4418
  451MOL0     H62216   9.993   0.622  10.577  0.4798  0.0628 -2.7700
  451MOL0     H62217   9.911   0.706  10.711  1.3034  0.0094  0.2109
  451MOL0     H62218   9.522  -0.126  10.264 -0.7154 -0.4268 -0.1602
  451MOL0     H62219   9.556  -0.113  10.019  3.4496 -0.2459 -2.2462
  451MOL0     H62220   9.721   0.094   9.662 -0.3634 -0.0004  2.2007
  451MOL0     H62221   9.744   0.113   9.414  0.8205 -1.3302 -1.3285
  451MOL0     H62222   9.642   0.878   9.607 -2.1651  2.0205 -0.8742
  451MOL0     H62223   9.418   0.779   9.600 -1.3205 -0.4326  0.2128
  451MOL0     H62224   9.089   0.617  10.032  5.3545  0.6122 -1.1434
  451MOL0     H62225   8.865   0.516  10.076  0.0737  1.0816 -0.1707
  451MOL0     H62226   8.699   0.334  10.085  0.7090  0.4460  0.0452
  451MOL0     H62227   8.640   0.495  10.007  2.3053  1.1436  0.8629
  451MOL0     H62228   8.500   0.220   9.963 -2.7260  0.0379 -0.6304
  451MOL0     H62229   8.449   0.374   9.916  0.9160  1.6056 -0.4047
  451MOL0     H62230   8.507   0.295  10.208 -1.3197 -0.0100  1.2141
  451MOL0     H62231   8.402   0.432  10.162 -2.2466 -1.8956  1.0223
  451MOL0     H62232   8.328   0.146  10.094 -4.7720 -0.9834  0.5854
  451MOL0     H62233   8.227   0.286  10.074 -0.4956  0.7873  0.9646
  451MOL0     H62234   8.229   0.207  10.487 -1.1320 -1.7224 -0.2843
  451MOL0     H62235   8.892   0.313   9.705  1.8903  2.0098 -2.0662
  451MOL0     H62236   9.165   0.495   9.547  1.1670 -0.9677 -0.0292
  451MOL0     H62237   9.204   0.349   9.632 -0.8818  0.8638  3.8304
  451MOL0     H62238   9.050   0.363   9.532  2.7520 -0.7719 -2.9694
  452MOL0     O62239   2.199   6.247   1.744 -1.0699 -0.0694  0.5127
  452MOL0     C62240   2.177   6.287   1.630 -0.6051 -0.4255  0.5322
  452MOL0     O62241   2.067   6.241   1.555  0.5563 -0.1448  0.3431
  452MOL0     C62242   1.976   6.142   1.594  0.4073  0.8244  0.1881
  452MOL0     C62243   1.877   6.167   1.690 -0.2550 -0.6643 -0.1346
  452MOL0     C62244   1.791   6.066   1.723  0.2577  0.4293 -0.7741
  452MOL0     C62245   1.804   5.937   1.672  0.4985 -0.2478  0.3864
  452MOL0     O62246   1.718   5.836   1.708  1.1083 -0.1790 -0.0365
  452MOL0     C62247   1.768   5.736   1.798 -0.1189  0.1964  0.6150
  452MOL0     C62248   1.676   5.618   1.790  0.1064 -0.5083  0.1592
  452MOL0     C62249   1.555   5.640   1.892 -0.4269 -0.1048  0.7468
  452MOL0     C62250   1.422   5.563   1.867 -0.1708 -0.0841  0.7526
  452MOL0     C62251   1.342   5.593   1.737 -0.3454  0.8281 -0.6198
  452MOL0     C62252   1.211   5.510   1.752  0.6196 -0.3016 -0.6160
  452MOL0     C62253   1.148   5.491   1.612 -0.2948  0.5938 -0.4500
  452MOL0     C62254   1.001   5.457   1.595  0.0659 -0.7656 -0.3450
  452MOL0     N62255   0.955   5.341   1.675  0.2207  0.1501  0.5082
  452MOL0     C62256   0.966   5.208   1.640  0.1619  1.2189  0.4084
  452MOL0     C62257   0.908   5.137   1.738 -0.7885  0.0666 -0.4515
  452MOL0     C62258   0.894   4.991   1.731 -0.4847 -0.0398  0.8325
  452MOL0     C62259   0.750   4.951   1.745 -0.1793  0.4459 -0.0365
  452MOL0     C62260   0.742   4.802   1.761 -0.2340 -0.1654  0.2861
  452MOL0     C62261   0.594   4.756   1.723  0.1328  0.8389  0.2046
  452MOL0     O62262   0.592   4.614   1.734 -0.2846 -0.7411  0.3735
  452MOL0     C62263   0.514   4.543   1.645  0.4915  0.3339  0.2301
  452MOL0     C62264   0.409   4.597   1.584 -0.4477 -0.9785  0.4062
  452MOL0     C62265   0.327   4.520   1.493  0.4640  0.6067  0.0938
  452MOL0     C62266   0.237   4.600   1.403  0.6804 -0.3187 -0.0465
  452MOL0     C62267   0.350   4.377   1.477 -0.1948 -0.1797 -0.2136
  452MOL0     C62268   0.277   4.286   1.389 -0.0457  0.3222 -0.1243
  452MOL0     O62269   0.311   4.151   1.386 -0.1090  0.3679  0.2552
  452MOL0     C62270   0.221   4.056   1.341 -1.7786 -0.3690 -0.7418
  452MOL0     C62271   0.269   3.946   1.259  0.1649  0.8710 -0.4040
  452MOL0     C62272   0.187   3.840   1.218  0.8933 -0.3946  0.7775
  452MOL0     C62273   0.045   3.845   1.242 -1.0042 -0.5270  0.6057
  452MOL0     O62274  -0.038   3.757   1.182 -0.3652  0.3797  0.2677
  452MOL0     C62275  -0.162   3.801   1.098 -1.0446  0.2875 -1.2665
  452MOL0     C62276  -0.231   3.684   1.022  0.4338 -0.0028  0.0062
  452MOL0     C62277  -0.267   3.565   1.113  0.6113  0.6069 -0.0920
  452MOL0     C62278  -0.389   3.486   1.034 -1.1531  0.3720 -0.0330
  452MOL0     C62279  -0.408   3.338   1.078  0.0191 -0.8746 -1.2661
  452MOL0     C62280  -0.420   3.321   1.235  0.1669 -1.0202 -0.5166
  452MOL0     C62281  -0.438   3.175   1.267  0.2192 -0.1948 -0.5799
  452MOL0     C62282  -0.404   3.148   1.413 -0.0816  0.7991 -0.2867
  452MOL0    Cl62283  -0.225   3.180   1.447 -0.3573  0.5469 -0.1489
  452MOL0     C62284  -0.001   3.948   1.327  0.5801  0.2134 -0.0036
  452MOL0     C62285   0.084   4.052   1.373 -0.1795 -0.3907  0.0324
  452MOL0     O62286   0.192   4.332   1.312 -0.4957 -0.6831  0.2772
  452MOL0     C62287   0.445   4.325   1.556 -0.5085 -0.3523  0.0936
  452MOL0     C62288   0.528   4.407   1.636 -0.1701  0.8944  0.0478
  452MOL0     N62289   0.862   5.223   1.838  0.5507  0.5719 -0.3099
  452MOL0     N62290   0.895   5.341   1.800 -0.3727  0.2854 -0.0863
  452MOL0     C62291   1.910   5.916   1.584  1.4292 -0.6127  0.5961
  452MOL0     C62292   1.993   6.016   1.538  0.2681  0.3381 -0.4371
  452MOL0     C62293   2.270   6.379   1.570  0.3433 -0.9583 -0.9584
  452MOL0     C62294   2.222   6.495   1.495  0.5290 -0.5898 -0.5926
  452MOL0     C62295   2.305   6.578   1.419  0.7755  1.0908  0.1063
  452MOL0     C62296   2.437   6.562   1.419  0.0612 -0.0442  1.3734
  452MOL0     O62297   2.513   6.646   1.325 -0.4347  0.3756 -0.0249
  452MOL0     C62298   2.591   6.588   1.212  0.2871 -0.3456 -0.5956
  452MOL0     C62299   2.510   6.515   1.111 -0.0808 -0.2196  1.1460
  452MOL0     C62300   2.412   6.615   1.048 -0.2800 -0.7929 -0.0921
  452MOL0     C62301   2.321   6.554   0.938 -1.0446  0.3467 -0.8014
  452MOL0     C62302   2.409   6.476   0.843 -0.0946 -1.1809 -0.1694
  452MOL0     C62303   2.481   6.429   0.763 -0.6406 -0.1250 -0.6716
  452MOL0     C62304   2.499   6.459   1.499 -0.0769  0.7915 -0.6383
  452MOL0     C62305   2.414   6.363   1.570 -0.7663  0.0983  1.0238
  452MOL0     C62306   2.492   6.252   1.643  0.0931 -0.5253 -0.5851
  452MOL0     H62307   1.876   6.261   1.744  0.0344  0.1636 -1.5083
  452MOL0     H62308   1.724   6.088   1.806  3.3435  0.8188  1.7880
  452MOL0     H62309   1.773   5.774   1.900  2.2370  1.2168  0.1883
  452MOL0     H62310   1.869   5.705   1.770 -0.0675 -0.3260  1.3447
  452MOL0     H62311   1.637   5.610   1.688 -1.8143  2.2346  0.5674
  452MOL0     H62312   1.715   5.524   1.830 -1.4543 -0.4131  2.0707
  452MOL0     H62313   1.581   5.638   1.998 -2.4757  2.4134  1.4073
  452MOL0     H62314   1.525   5.745   1.879 -0.9714 -0.4415 -1.0705
  452MOL0     H62315   1.446   5.457   1.876 -0.8387 -0.1281  2.5229
  452MOL0     H62316   1.362   5.585   1.956  0.8558 -3.5416  2.4857
  452MOL0     H62317   1.408   5.543   1.666  1.9999  0.7420  1.5096
  452MOL0     H62318   1.324   5.696   1.706  2.6548  0.7634 -3.0600
  452MOL0     H62319   1.219   5.418   1.812 -1.9762 -0.9002 -1.0502
  452MOL0     H62320   1.144   5.565   1.820  1.0888  0.8278 -1.0542
  452MOL0     H62321   1.196   5.413   1.552 -2.3952  2.4014 -4.9783
  452MOL0     H62322   1.152   5.584   1.553 -3.3262  0.7603 -0.5740
  452MOL0     H62323   0.944   5.547   1.619  0.3433 -0.6204 -0.2266
  452MOL0     H62324   0.975   5.440   1.491  0.7792  0.8480 -0.8218
  452MOL0     H62325   1.017   5.165   1.555  3.5534  0.3134  2.6626
  452MOL0     H62326   0.954   4.944   1.809 -0.4341 -1.2924  0.0567
  452MOL0     H62327   0.928   4.944   1.639 -2.4409 -0.0508  0.0545
  452MOL0     H62328   0.706   5.010   1.827  1.9792  0.8977  0.8573
  452MOL0     H62329   0.706   4.974   1.648 -0.9524 -3.5811 -0.7855
  452MOL0     H62330   0.819   4.756   1.698  1.3100  1.5832  0.8169
  452MOL0     H62331   0.756   4.785   1.868 -0.2255  2.1670  0.7150
  452MOL0     H62332   0.523   4.803   1.792 -2.9227 -0.0134 -2.1530
  452MOL0     H62333   0.557   4.797   1.628 -0.9230  0.3061  0.3806
  452MOL0     H62334   0.374   4.695   1.614  2.2962 -0.6263  2.9300
  452MOL0     H62335   0.282   4.598   1.303 -0.2658  1.0699 -0.5356
  452MOL0     H62336   0.232   4.703   1.438 -1.0857 -0.1689 -0.6697
  452MOL0     H62337   0.133   4.566   1.404  1.0248 -1.3894  1.2574
  452MOL0     H62338   0.377   3.946   1.242  0.9576  2.6546  3.5630
  452MOL0     H62339   0.223   3.762   1.152 -3.4944 -2.1177  0.0860
  452MOL0     H62340  -0.231   3.835   1.175  0.9680  1.1475  0.2345
  452MOL0     H62341  -0.136   3.874   1.021 -2.1502  0.4362 -1.5250
  452MOL0     H62342  -0.315   3.726   0.967  0.1862 -1.1360 -0.4963
  452MOL0     H62343  -0.158   3.644   0.951  2.3973  0.6767  1.5300
  452MOL0     H62344  -0.305   3.598   1.210 -3.5465  1.8815 -1.9146
  452MOL0     H62345  -0.187   3.493   1.131  0.1055 -0.1312 -0.6846
  452MOL0     H62346  -0.361   3.493   0.929 -1.1112  1.5214  0.0439
  452MOL0     H62347  -0.481   3.543   1.051  0.0476  1.9268  1.7785
  452MOL0     H62348  -0.497   3.296   1.030 -0.4026  0.4776 -1.7279
  452MOL0     H62349  -0.319   3.284   1.047  0.6014  0.0471 -1.2398
  452MOL0     H62350  -0.494   3.386   1.282  0.2137 -1.7906  0.6745
  452MOL0     H62351  -0.329   3.355   1.285 -0.0146  0.1666 -0.9598
  452MOL0     H62352  -0.370   3.114   1.207  1.0909 -2.0005  2.0680
  452MOL0     H62353  -0.541   3.144   1.251 -0.0343  0.4021 -0.1633
  452MOL0     H62354  -0.421   3.040   1.416  1.0656  0.6291  2.2238
  452MOL0     H62355  -0.469   3.194   1.488 -0.2690  0.9807 -0.5597
  452MOL0     H62356  -0.107   3.950   1.353  0.7645 -3.7439  1.7260
  452MOL0     H62357   0.037   4.130   1.431  1.4526  0.6483  0.0090
  452MOL0     H62358   0.461   4.218   1.565  3.7620  0.2869  3.8052
  452MOL0     H62359   0.590   4.361   1.713 -2.0514 -1.8329  0.0766
  452MOL0     H62360   1.925   5.817   1.541 -0.9974  0.4767 -3.3536
  452MOL0     H62361   2.081   6.002   1.476  0.7760 -0.9255  0.5422
  452MOL0     H62362   2.116   6.516   1.499  0.8358  0.9159  0.5984
  452MOL0     H62363   2.268   6.661   1.360 -0.4697  0.0471 -0.6672
  452MOL0     H62364   2.635   6.670   1.153 -2.5436  0.4669 -1.7417
  452MOL0     H62365   2.682   6.535   1.241  0.9932  2.4470  2.9752
  452MOL0     H62366   2.459   6.428   1.153  1.0664 -1.1381  0.7080
  452MOL0     H62367   2.568   6.475   1.028 -0.4615  3.5243 -1.1790
  452MOL0     H62368   2.355   6.672   1.122 -2.5540 -2.4587 -0.4650
  452MOL0     H62369   2.469   6.683   0.983 -1.7464 -0.6153 -1.2341
  452MOL0     H62370   2.270   6.639   0.892 -0.4268  1.1526 -0.0325
  452MOL0     H62371   2.245   6.485   0.977 -2.2168  2.2020  0.3198
  452MOL0     H62372   2.538   6.423   0.672 -0.0851 -4.6055 -0.2603
  452MOL0     H62373   2.605   6.447   1.514 -0.3317  1.2882  2.1510
  452MOL0     H62374   2.575   6.209   1.587  1.0200 -1.4327  1.3948
  452MOL0     H62375   2.541   6.288   1.734  0.8067 -1.2108 -0.6889
  452MOL0     H62376   2.429   6.164   1.661  0.0070 -0.5689 -1.0895
  453MOL0     O62377   3.456   0.463   3.369 -0.1146  0.0742 -0.1194
  453MOL0     C62378   3.408   0.436   3.486  0.2583  0.4312  0.3821
  453MOL0     O62379   3.408   0.310   3.551 -0.5173  0.2726 -0.3707
  453MOL0     C62380   3.433   0.199   3.478  1.2082  0.9071  0.2505
  453MOL0     C62381   3.365   0.156   3.363 -0.1706 -1.0448 -0.1124
  453MOL0     C62382   3.404   0.029   3.305  0.7797 -0.0834 -0.5807
  453MOL0     C62383   3.504  -0.052   3.357  0.4509 -0.0572 -0.4055
  453MOL0     O62384   3.545  -0.176   3.300 -0.0514 -0.0218 -0.9875
  453MOL0     C62385   3.600  -0.286   3.380  0.3607  0.9722 -0.0902
  453MOL0     C62386   3.571  -0.400   3.278  0.4902  0.3603 -0.5064
  453MOL0     C62387   3.426  -0.419   3.229 -0.0063 -0.7496  0.2902
  453MOL0     C62388   3.401  -0.556   3.168 -0.3762 -0.2380  0.1514
  453MOL0     C62389   3.279  -0.557   3.084 -0.3359 -0.3526 -0.1538
  453MOL0     C62390   3.261  -0.706   3.040 -0.7509  0.2852  0.6990
  453MOL0     C62391   3.124  -0.722   2.985 -0.4402 -0.2235  0.5889
  453MOL0     C62392   3.124  -0.691   2.833  0.0235  0.0619 -0.0770
  453MOL0     N62393   2.992  -0.728   2.769 -1.2401  0.1764 -0.4248
  453MOL0     C62394   2.873  -0.674   2.802 -0.1793 -0.6769 -0.1108
  453MOL0     C62395   2.779  -0.753   2.731  0.2316 -0.2511 -1.0162
  453MOL0     C62396   2.625  -0.756   2.733 -0.0033  0.4119  0.2416
  453MOL0     C62397   2.575  -0.643   2.652  0.7191  0.0542 -0.6051
  453MOL0     C62398   2.599  -0.500   2.712 -0.6121  0.5475 -0.3627
  453MOL0     C62399   2.540  -0.470   2.860 -0.5031 -0.4675  0.1272
  453MOL0     O62400   2.403  -0.494   2.862  0.6622  0.4006 -1.2900
  453MOL0     C62401   2.329  -0.412   2.777 -0.1663  0.0524  1.3104
  453MOL0     C62402   2.368  -0.280   2.726 -0.2231 -0.0708 -0.2302
  453MOL0     C62403   2.280  -0.219   2.640  0.0822 -0.3192  0.1998
  453MOL0     C62404   2.317  -0.072   2.601  0.3379  1.2067  0.1284
  453MOL0     C62405   2.162  -0.282   2.585 -0.3952  0.9145 -0.0813
  453MOL0     C62406   2.081  -0.226   2.477 -0.3523 -1.3620 -0.0739
  453MOL0     O62407   2.126  -0.116   2.419  0.3230 -0.6780 -0.5100
  453MOL0     C62408   2.031  -0.033   2.369  0.2498 -0.0757  0.1075
  453MOL0     C62409   2.018  -0.017   2.229  1.3045  0.5663  0.8596
  453MOL0     C62410   1.950   0.089   2.173 -0.7019  0.0534  0.4236
  453MOL0     C62411   1.906   0.196   2.247 -0.1798 -0.3969 -1.4454
  453MOL0     O62412   1.841   0.297   2.184  0.3110  0.0282 -0.3950
  453MOL0     C62413   1.727   0.355   2.247  0.1054 -1.3595 -0.1133
  453MOL0     C62414   1.609   0.348   2.158 -0.4727 -1.4556  0.2997
  453MOL0     C62415   1.588   0.207   2.099 -0.3716  0.0170  0.1001
  453MOL0     C62416   1.458   0.179   2.029  0.4230 -0.0409  0.0848
  453MOL0     C62417   1.415   0.296   1.934  0.2943 -0.3303 -0.6798
  453MOL0     C62418   1.346   0.247   1.810 -0.0082  0.1317 -0.2608
  453MOL0     C62419   1.442   0.218   1.690 -0.3112 -0.3601 -0.2731
  453MOL0     C62420   1.533   0.104   1.712  0.0573 -0.7222 -0.5008
  453MOL0    Cl62421   1.608   0.070   1.560  0.2677  0.2514  0.1151
  453MOL0     C62422   1.927   0.191   2.382 -0.5537  0.0918  0.0559
  453MOL0     C62423   1.995   0.084   2.448  0.5128  0.9665  0.6467
  453MOL0     O62424   1.971  -0.273   2.456  0.9135 -0.0443 -0.0681
  453MOL0     C62425   2.124  -0.406   2.646  0.7693  0.0816 -0.5221
  453MOL0     C62426   2.198  -0.461   2.744 -1.2660  0.3566  0.1976
  453MOL0     N62427   2.857  -0.829   2.642  0.0909  0.7906  0.4542
  453MOL0     N62428   2.979  -0.807   2.660 -0.0575  0.8476 -0.0127
  453MOL0     C62429   3.575  -0.011   3.467 -0.0372 -0.2857 -0.4845
  453MOL0     C62430   3.539   0.115   3.525  0.1658  0.3459  0.7508
  453MOL0     C62431   3.352   0.553   3.556 -0.5577  0.7620 -0.7292
  453MOL0     C62432   3.274   0.531   3.668 -0.7101 -0.3610  1.0882
  453MOL0     C62433   3.202   0.633   3.720  0.3625 -1.0615  0.5721
  453MOL0     C62434   3.210   0.765   3.679 -0.5586 -0.5403  1.3720
  453MOL0     O62435   3.147   0.856   3.748  0.1234  0.3587  0.3381
  453MOL0     C62436   3.221   0.977   3.775 -0.0356 -0.6834  0.9976
  453MOL0     C62437   3.127   1.068   3.865 -0.1228 -0.1492 -0.1204
  453MOL0     C62438   3.220   1.181   3.915  0.1077 -0.3756  0.0587
  453MOL0     C62439   3.153   1.285   3.999  0.1110  0.3534 -0.3690
  453MOL0     C62440   3.057   1.355   3.914 -0.2305 -0.1429 -1.0613
  453MOL0     C62441   2.970   1.402   3.843 -0.3096 -1.7793 -0.2043
  453MOL0     C62442   3.292   0.791   3.566 -0.3416 -0.9276 -0.1291
  453MOL0     C62443   3.366   0.687   3.507 -0.4595 -0.9183  0.5059
  453MOL0     C62444   3.434   0.744   3.383  0.4445  0.1488  0.7966
  453MOL0     H62445   3.289   0.225   3.329 -3.6433 -2.5260  3.7501
  453MOL0     H62446   3.355   0.006   3.211 -0.1685  1.4403 -0.5028
  453MOL0     H62447   3.546  -0.297   3.474  0.7991 -1.1917 -0.0222
  453MOL0     H62448   3.709  -0.285   3.389  0.7619 -4.0905 -1.0190
  453MOL0     H62449   3.633  -0.394   3.188 -0.1578  0.6886 -0.9331
  453MOL0     H62450   3.593  -0.491   3.334 -4.8149  0.1997  1.9021
  453MOL0     H62451   3.359  -0.403   3.314  1.0715 -0.6139  1.1357
  453MOL0     H62452   3.420  -0.344   3.149  2.5963 -1.5454 -0.7294
  453MOL0     H62453   3.490  -0.580   3.109 -0.5899  1.9691 -1.1836
  453MOL0     H62454   3.380  -0.629   3.247 -5.0410 -0.5162 -1.0358
  453MOL0     H62455   3.299  -0.495   2.996  2.3945 -1.5037 -0.4414
  453MOL0     H62456   3.197  -0.520   3.146  0.1457 -2.4692  1.8814
  453MOL0     H62457   3.340  -0.738   2.971 -0.3032  0.8200  0.9582
  453MOL0     H62458   3.256  -0.771   3.128  0.2765 -0.8443 -0.0472
  453MOL0     H62459   3.062  -0.652   3.042 -1.5112 -0.8453  0.2144
  453MOL0     H62460   3.081  -0.821   3.000 -1.0208 -0.0910 -0.1114
  453MOL0     H62461   3.135  -0.583   2.819 -4.6089  0.5535 -1.4356
  453MOL0     H62462   3.205  -0.739   2.778  0.9577  0.2536  1.0948
  453MOL0     H62463   2.846  -0.590   2.866 -0.4951  0.9017 -2.1805
  453MOL0     H62464   2.583  -0.767   2.833  0.7845 -1.7032  0.3796
  453MOL0     H62465   2.595  -0.848   2.683 -0.3077  1.5443 -1.7366
  453MOL0     H62466   2.632  -0.651   2.560  0.4305  1.2652 -0.9144
  453MOL0     H62467   2.468  -0.658   2.633  0.4696  1.1115 -0.1493
  453MOL0     H62468   2.706  -0.484   2.698 -0.6458 -0.6474 -2.2650
  453MOL0     H62469   2.569  -0.424   2.639 -2.5791  0.2919  0.1103
  453MOL0     H62470   2.569  -0.541   2.937 -3.5874 -0.1395  1.7681
  453MOL0     H62471   2.568  -0.367   2.883 -0.4734 -0.3987 -0.2066
  453MOL0     H62472   2.462  -0.236   2.758 -0.5318 -0.7749  1.7722
  453MOL0     H62473   2.357  -0.062   2.499 -0.0780 -2.2579 -0.5058
  453MOL0     H62474   2.385  -0.032   2.676  1.9938 -0.0290 -0.6420
  453MOL0     H62475   2.223  -0.023   2.626 -2.1524 -3.9099  2.4760
  453MOL0     H62476   2.072  -0.085   2.164 -2.3332 -1.8462  0.0653
  453MOL0     H62477   1.928   0.098   2.067 -0.3932  1.7316  0.4787
  453MOL0     H62478   1.690   0.304   2.336 -0.0614  2.0958  1.9774
  453MOL0     H62479   1.747   0.460   2.270  2.5564 -1.9291  0.6821
  453MOL0     H62480   1.530   0.375   2.229  1.9585  1.9158  1.9647
  453MOL0     H62481   1.617   0.422   2.079 -3.9092 -0.3402  0.8096
  453MOL0     H62482   1.587   0.125   2.171 -2.0710  0.4538  0.6261
  453MOL0     H62483   1.662   0.191   2.020  0.2029 -1.8727  0.9634
  453MOL0     H62484   1.374   0.171   2.099  1.3370 -1.2151  1.0987
  453MOL0     H62485   1.470   0.079   1.986  1.1395 -0.0874  0.3824
  453MOL0     H62486   1.360   0.381   1.975  1.6273  0.7698 -1.1098
  453MOL0     H62487   1.510   0.336   1.898  0.3919  1.3952  1.3171
  453MOL0     H62488   1.284   0.333   1.784  2.9246  2.6260  0.3188
  453MOL0     H62489   1.299   0.152   1.836  1.8731 -1.4445 -2.3126
  453MOL0     H62490   1.489   0.310   1.654 -2.8181  0.3802 -1.9466
  453MOL0     H62491   1.371   0.195   1.609  0.8043  1.5354 -1.8972
  453MOL0     H62492   1.491   0.016   1.762 -0.2569  0.5828  1.6718
  453MOL0     H62493   1.621   0.136   1.770  0.4966  0.0475 -1.5633
  453MOL0     H62494   1.891   0.275   2.440 -1.2765 -0.9123  1.1100
  453MOL0     H62495   2.030   0.082   2.551  2.0872 -2.6047  0.1792
  453MOL0     H62496   2.038  -0.467   2.621  0.7676  0.1638 -0.7216
  453MOL0     H62497   2.156  -0.547   2.795 -1.6821  1.2196  1.3563
  453MOL0     H62498   3.662  -0.064   3.505 -1.6300 -3.4078 -0.8677
  453MOL0     H62499   3.586   0.148   3.617  0.1709  2.1329  0.1322
  453MOL0     H62500   3.265   0.431   3.709  3.6778 -0.3512  2.6236
  453MOL0     H62501   3.136   0.601   3.800  0.3459  0.9801  1.4296
  453MOL0     H62502   3.312   0.955   3.833  0.6157  2.6130  1.4567
  453MOL0     H62503   3.242   1.030   3.682  1.4751 -0.0424  1.6644
  453MOL0     H62504   3.086   1.018   3.953 -0.5044 -0.7755 -0.6481
  453MOL0     H62505   3.041   1.106   3.809  0.6742  2.9817  0.5330
  453MOL0     H62506   3.280   1.133   3.993 -2.5998  0.3247  2.7675
  453MOL0     H62507   3.276   1.229   3.834 -1.9000  1.5571 -0.2809
  453MOL0     H62508   3.227   1.362   4.024 -1.1049  2.7010 -3.3676
  453MOL0     H62509   3.094   1.234   4.075  0.9389 -1.0777 -0.6485
  453MOL0     H62510   2.910   1.467   3.784 -0.7310  0.9000  2.9109
  453MOL0     H62511   3.288   0.892   3.525 -1.4591 -0.3979  1.1725
  453MOL0     H62512   3.412   0.692   3.289  2.0530 -1.7310  1.3844
  453MOL0     H62513   3.429   0.852   3.372  0.7926  0.5388  3.7027
  453MOL0     H62514   3.537   0.706   3.382 -0.5171 -2.7013  0.5462
  454MOL0     O62515   2.647  10.029   7.281 -1.4041  0.4370  0.2494
  454MOL0     C62516   2.581   9.975   7.199 -0.4642  0.0893  0.3715
  454MOL0     O62517   2.605   9.865   7.141 -0.4262 -0.0255 -1.1682
  454MOL0     C62518   2.692   9.780   7.208  0.3260 -0.5211 -0.4437
  454MOL0     C62519   2.831   9.781   7.197 -0.0938 -1.1337  0.3187
  454MOL0     C62520   2.903   9.695   7.264 -0.1461  0.0018 -0.1910
  454MOL0     C62521   2.844   9.587   7.341  0.2128  0.0707  0.2500
  454MOL0     O62522   2.919   9.489   7.403 -0.6528 -0.1768  0.8187
  454MOL0     C62523   3.061   9.494   7.402  0.4635 -0.1651  0.5668
  454MOL0     C62524   3.124   9.384   7.485  0.4457 -0.7066  1.2872
  454MOL0     C62525   3.106   9.389   7.642  0.5536  0.2738  0.6434
  454MOL0     C62526   2.982   9.302   7.665 -0.0102 -0.3179  0.9588
  454MOL0     C62527   2.958   9.283   7.819 -0.1799  0.1068  0.3358
  454MOL0     C62528   2.932   9.418   7.884  0.2560 -0.2586 -0.2050
  454MOL0     C62529   2.802   9.502   7.823 -0.1814 -0.7005 -0.0649
  454MOL0     C62530   2.826   9.649   7.866  0.3411  0.2263  0.1241
  454MOL0     N62531   2.924   9.712   7.790  0.4702  0.4740  0.0233
  454MOL0     C62532   2.889   9.788   7.678  0.3915 -0.3940 -0.5434
  454MOL0     C62533   3.007   9.843   7.642 -0.1629  0.0954  0.0433
  454MOL0     C62534   3.030   9.941   7.524 -1.1582 -0.3132 -0.2026
  454MOL0     C62535   3.151  10.030   7.557 -0.4655  0.2030 -0.0340
  454MOL0     C62536   3.147  10.155   7.470  0.4639  0.0899  0.2957
  454MOL0     C62537   3.283  10.229   7.458 -0.1055  0.5040 -0.3997
  454MOL0     O62538   3.279  10.317   7.355 -0.1824 -0.4738  0.0072
  454MOL0     C62539   3.378  10.403   7.340 -0.8915  0.3196  0.3484
  454MOL0     C62540   3.361  10.501   7.238 -1.4734 -0.1310  0.3241
  454MOL0     C62541   3.449  10.616   7.223 -0.0133  0.0351 -0.2999
  454MOL0     C62542   3.402  10.728   7.129 -0.2420 -1.7072  0.5990
  454MOL0     C62543   3.559  10.626   7.316 -0.5441  0.2136 -0.6533
  454MOL0     C62544   3.651  10.747   7.324  0.0189 -0.6303  0.5582
  454MOL0     O62545   3.640  10.826   7.216  1.0797 -0.7002  0.1943
  454MOL0     C62546   3.676  10.959   7.210 -0.0960 -0.9491 -0.0188
  454MOL0     C62547   3.622  11.042   7.108  0.0618  0.6907  0.4863
  454MOL0     C62548   3.636  11.178   7.102 -0.5423 -0.4525  1.2302
  454MOL0     C62549   3.714  11.245   7.182  0.4072  0.7507 -0.8229
  454MOL0     O62550   3.711  11.377   7.178 -0.5634  0.5081  0.4525
  454MOL0     C62551   3.834  11.457   7.209 -0.2383  0.1787  0.0889
  454MOL0     C62552   3.961  11.404   7.130 -0.4599  0.1963 -1.1063
  454MOL0     C62553   3.954  11.446   6.987 -0.0713  0.9408  0.8247
  454MOL0     C62554   4.089  11.402   6.921 -0.6499 -0.8291 -0.2295
  454MOL0     C62555   4.098  11.486   6.797 -0.4588  0.1477  0.9031
  454MOL0     C62556   4.223  11.459   6.704  0.5216 -0.0653 -0.8948
  454MOL0     C62557   4.232  11.552   6.585 -0.0376  0.2120 -0.7654
  454MOL0     C62558   4.127  11.508   6.473 -0.5349 -0.8714 -0.5508
  454MOL0    Cl62559   4.156  11.349   6.397  0.1364 -0.1192 -0.2399
  454MOL0     C62560   3.778  11.163   7.286 -0.0110 -0.0570 -0.1955
  454MOL0     C62561   3.762  11.023   7.297 -0.0131  0.5887 -0.3714
  454MOL0     O62562   3.728  10.762   7.421  0.0201  0.8017  0.9244
  454MOL0     C62563   3.578  10.523   7.416  0.3336 -0.1380  0.6508
  454MOL0     C62564   3.485  10.418   7.435 -0.5009  0.4017 -0.2262
  454MOL0     N62565   3.108   9.795   7.723 -0.4006 -0.0385 -1.1000
  454MOL0     N62566   3.059   9.720   7.805  0.8068 -0.3999  0.2795
  454MOL0     C62567   2.705   9.579   7.353 -0.0057 -0.1350  0.3144
  454MOL0     C62568   2.629   9.678   7.286 -0.1919 -1.1518  0.1430
  454MOL0     C62569   2.464  10.041   7.135  0.5235  0.0474 -0.1115
  454MOL0     C62570   2.401  10.146   7.206  0.8412  0.5383  0.9453
  454MOL0     C62571   2.288  10.213   7.166 -0.7933  0.2674  0.6721
  454MOL0     C62572   2.223  10.181   7.047  0.7634 -1.1867  0.1814
  454MOL0     O62573   2.128  10.272   6.997 -0.3654  0.1634  0.1769
  454MOL0     C62574   2.067  10.258   6.874  0.0167  1.1001  0.3369
  454MOL0     C62575   1.980  10.378   6.865  0.3193  0.7154 -0.1078
  454MOL0     C62576   1.876  10.368   6.751 -1.2011  0.0496  0.2967
  454MOL0     C62577   1.735  10.380   6.805 -0.2441 -0.6239 -0.9373
  454MOL0     C62578   1.644  10.394   6.696 -0.5075 -1.6174  0.0975
  454MOL0     C62579   1.590  10.402   6.590  0.0651 -0.2849 -0.3613
  454MOL0     C62580   2.275  10.078   6.970  0.0562  0.7352  0.2874
  454MOL0     C62581   2.395  10.007   7.012  0.4417  0.3285 -0.0185
  454MOL0     C62582   2.448   9.905   6.909  0.4312  0.0286  0.1803
  454MOL0     H62583   2.877   9.851   7.128  1.4311 -3.8584 -1.6018
  454MOL0     H62584   3.011   9.707   7.253 -0.4977  1.7275 -2.8498
  454MOL0     H62585   3.091   9.585   7.456 -2.7031 -0.5531  3.3023
  454MOL0     H62586   3.095   9.493   7.299  0.0208  1.8903  0.3475
  454MOL0     H62587   3.096   9.291   7.435 -0.1902  1.3942 -2.6466
  454MOL0     H62588   3.227   9.401   7.452 -0.4682  0.4271 -1.1816
  454MOL0     H62589   3.194   9.347   7.691 -0.0007 -0.4195  1.0553
  454MOL0     H62590   3.091   9.491   7.680 -3.3490  1.0806 -2.4513
  454MOL0     H62591   2.900   9.345   7.608  0.8879 -2.0931 -1.8695
  454MOL0     H62592   2.997   9.207   7.613  2.5059  2.6063 -4.4718
  454MOL0     H62593   3.045   9.231   7.860 -1.9188 -2.8751  0.5926
  454MOL0     H62594   2.869   9.223   7.839 -1.6682  2.4356  1.1038
  454MOL0     H62595   2.903   9.399   7.988  1.3853  1.7931  0.5397
  454MOL0     H62596   3.026   9.474   7.883  0.0097  0.3002  2.2904
  454MOL0     H62597   2.709   9.465   7.867  0.3770 -0.5107  1.3001
  454MOL0     H62598   2.797   9.491   7.714 -1.9760 -1.3169  0.0338
  454MOL0     H62599   2.731   9.704   7.865  0.1623 -0.0374  1.0518
  454MOL0     H62600   2.852   9.644   7.973 -2.9659  0.1840  1.0495
  454MOL0     H62601   2.788   9.813   7.645 -0.2191 -0.3368  1.2614
  454MOL0     H62602   2.933   9.989   7.508 -0.2096  1.7985  0.0933
  454MOL0     H62603   3.052   9.895   7.427  1.4627 -1.3931  0.7912
  454MOL0     H62604   3.173  10.049   7.663  0.7530 -1.4286  0.0480
  454MOL0     H62605   3.243   9.980   7.524 -0.5071  0.4862 -0.5815
  454MOL0     H62606   3.121  10.137   7.365 -0.5669  1.5758  0.2602
  454MOL0     H62607   3.067  10.223   7.502  0.4134  1.2367 -2.0105
  454MOL0     H62608   3.303  10.277   7.555 -0.5603  0.3180 -0.2105
  454MOL0     H62609   3.357  10.152   7.435  0.7029  1.7261 -2.0830
  454MOL0     H62610   3.266  10.501   7.186 -2.3063  1.3271  1.7413
  454MOL0     H62611   3.313  10.695   7.073 -0.2434 -1.0623  0.2166
  454MOL0     H62612   3.475  10.738   7.049 -1.5187 -1.4767 -0.5799
  454MOL0     H62613   3.375  10.822   7.179  0.7759 -0.6886 -0.7209
  454MOL0     H62614   3.552  11.013   7.031  0.0762  1.4437  0.1796
  454MOL0     H62615   3.582  11.230   7.024 -0.9885  0.5898  2.2038
  454MOL0     H62616   3.824  11.563   7.187 -2.7346 -0.4797 -2.5680
  454MOL0     H62617   3.855  11.444   7.316 -4.8634 -0.8972  1.0696
  454MOL0     H62618   4.040  11.467   7.173 -2.3830  1.3278  0.9777
  454MOL0     H62619   3.977  11.296   7.130  1.9252  0.4729  0.6850
  454MOL0     H62620   3.933  11.552   6.972 -0.8929  0.7488  0.5712
  454MOL0     H62621   3.862  11.401   6.948  0.0092 -0.0850  1.7634
  454MOL0     H62622   4.094  11.297   6.893 -1.1527 -1.4601  1.8479
  454MOL0     H62623   4.179  11.424   6.980 -0.3899 -1.9282 -0.1975
  454MOL0     H62624   4.007  11.468   6.738 -0.8324  0.2537  1.4380
  454MOL0     H62625   4.097  11.592   6.827  1.9579  0.7517 -0.8933
  454MOL0     H62626   4.244  11.356   6.673  2.1053  0.0714 -0.3865
  454MOL0     H62627   4.300  11.486   6.776 -1.6557  0.1745  1.4920
  454MOL0     H62628   4.332  11.562   6.541 -0.0716 -0.2272 -0.9516
  454MOL0     H62629   4.215  11.654   6.618 -0.7858  0.4800 -1.8984
  454MOL0     H62630   4.135  11.582   6.393  2.0661 -2.0034 -1.4182
  454MOL0     H62631   4.025  11.518   6.512  1.0327 -0.3683  4.1366
  454MOL0     H62632   3.822  11.208   7.374 -2.4902 -0.3537  1.2974
  454MOL0     H62633   3.826  10.971   7.369 -1.3431  2.6976  2.5519
  454MOL0     H62634   3.660  10.541   7.485  1.9522  1.7922 -1.5800
  454MOL0     H62635   3.507  10.345   7.512  1.7288 -1.9884 -2.8477
  454MOL0     H62636   2.655   9.505   7.414 -1.8118 -0.6749 -1.7211
  454MOL0     H62637   2.522   9.666   7.298 -0.3594 -0.3021 -0.4048
  454MOL0     H62638   2.435  10.188   7.300 -3.6061  2.2902  2.0325
  454MOL0     H62639   2.273  10.311   7.210  2.6097  0.7590  0.9782
  454MOL0     H62640   2.147  10.263   6.800 -0.3515  0.1150 -0.1478
  454MOL0     H62641   2.014  10.169   6.839  0.8267  0.6750  0.1555
  454MOL0     H62642   2.037  10.470   6.847 -0.5763  1.0430 -1.4401
  454MOL0     H62643   1.933  10.381   6.964  3.0741 -3.7818  1.6451
  454MOL0     H62644   1.893  10.450   6.680 -0.1314  0.2689  0.7850
  454MOL0     H62645   1.868  10.273   6.697  3.3357 -1.5696  1.9444
  454MOL0     H62646   1.725  10.474   6.860  0.6560 -1.0789  0.0441
  454MOL0     H62647   1.697  10.295   6.864 -3.3199  0.9018 -0.4872
  454MOL0     H62648   1.529  10.393   6.502 -1.3076  0.1001  0.5267
  454MOL0     H62649   2.228  10.043   6.878 -2.6749  0.6629  1.6028
  454MOL0     H62650   2.403   9.806   6.911  0.5507 -0.0240  1.3669
  454MOL0     H62651   2.444   9.938   6.805  4.3640 -0.0739 -0.1500
  454MOL0     H62652   2.557   9.899   6.915  0.6195  0.7211 -1.8262
  455MOL0     O62653   3.565   3.533   1.597  0.5704 -0.2931 -0.4056
  455MOL0     C62654   3.480   3.619   1.615  0.7309 -0.2157  1.0690
  455MOL0     O62655   3.495   3.748   1.585 -0.4638 -0.4698  0.3320
  455MOL0     C62656   3.595   3.782   1.493 -0.0719  1.7728  0.0650
  455MOL0     C62657   3.553   3.759   1.360 -0.5509 -0.1750  0.4381
  455MOL0     C62658   3.643   3.796   1.257 -0.4814 -0.4505 -1.4074
  455MOL0     C62659   3.769   3.848   1.279 -0.2325 -0.0597  0.0521
  455MOL0     O62660   3.843   3.897   1.177 -0.0885 -0.8584  0.8087
  455MOL0     C62661   3.942   3.801   1.138 -0.0307 -0.4862  0.0540
  455MOL0     C62662   3.999   3.858   1.000 -0.7439 -0.4028  0.2288
  455MOL0     C62663   3.916   3.886   0.877  0.5934 -0.4904 -0.7841
  455MOL0     C62664   3.837   3.762   0.829  1.0855 -0.2549 -0.7390
  455MOL0     C62665   3.697   3.785   0.766 -0.5416 -0.3337 -0.1864
  455MOL0     C62666   3.627   3.649   0.732  0.0276  0.3609 -0.3656
  455MOL0     C62667   3.704   3.562   0.629 -0.2713 -0.3255  0.1668
  455MOL0     C62668   3.611   3.444   0.584 -1.4350  0.1176 -0.5575
  455MOL0     N62669   3.572   3.359   0.692 -0.0674  0.3865  0.3008
  455MOL0     C62670   3.666   3.304   0.783  0.0392  0.6817  0.3669
  455MOL0     C62671   3.584   3.203   0.831  0.2709  0.0708 -0.2186
  455MOL0     C62672   3.616   3.092   0.914  0.2700 -0.8930  0.0481
  455MOL0     C62673   3.591   2.960   0.833 -0.8279 -0.2528 -0.7687
  455MOL0     C62674   3.617   2.831   0.913  0.8989 -0.6044 -0.0817
  455MOL0     C62675   3.759   2.810   0.971  0.3728  0.4707  0.1983
  455MOL0     O62676   3.862   2.772   0.875 -0.2931 -0.3263  0.3362
  455MOL0     C62677   3.879   2.639   0.835  0.2747  0.0161 -0.4151
  455MOL0     C62678   3.984   2.602   0.752 -0.3892  0.8069  0.0544
  455MOL0     C62679   4.006   2.467   0.724 -0.2116 -0.0964 -0.4592
  455MOL0     C62680   4.135   2.428   0.649  0.2358  0.5773  0.6845
  455MOL0     C62681   3.912   2.369   0.760  0.1868 -0.8509  0.4226
  455MOL0     C62682   3.904   2.228   0.717 -0.8484 -0.4644  0.2883
  455MOL0     O62683   3.779   2.172   0.720  0.6343 -0.2503 -0.1091
  455MOL0     C62684   3.757   2.047   0.676 -0.1805 -0.3844  0.5412
  455MOL0     C62685   3.729   2.038   0.534 -0.4561 -0.8218  0.7478
  455MOL0     C62686   3.695   1.921   0.473 -0.7374  0.0792  0.1534
  455MOL0     C62687   3.681   1.801   0.549  0.7179  0.4585  0.4598
  455MOL0     O62688   3.655   1.675   0.498  0.5541 -0.1083 -0.2775
  455MOL0     C62689   3.669   1.642   0.359 -0.1271  0.4020 -0.2911
  455MOL0     C62690   3.632   1.500   0.325  0.6715  0.3002 -0.0460
  455MOL0     C62691   3.743   1.410   0.387 -0.2800  0.7446  0.2442
  455MOL0     C62692   3.739   1.257   0.343 -0.0695 -0.0906  0.7380
  455MOL0     C62693   3.875   1.181   0.377  0.2856  0.4336  0.1498
  455MOL0     C62694   3.885   1.172   0.530 -0.4955 -0.3062 -0.4177
  455MOL0     C62695   4.003   1.077   0.564  0.2169 -0.5122 -0.6077
  455MOL0     C62696   4.004   1.073   0.717 -1.2569  0.5539  0.1882
  455MOL0    Cl62697   4.083   0.918   0.772  0.0115 -0.6854 -0.0203
  455MOL0     C62698   3.687   1.820   0.694  0.0598 -0.3738 -0.3348
  455MOL0     C62699   3.727   1.939   0.761  1.1575 -0.8539  0.7459
  455MOL0     O62700   4.006   2.157   0.694  0.2678  0.2334  0.3039
  455MOL0     C62701   3.812   2.413   0.854 -0.1318 -0.2094 -0.1510
  455MOL0     C62702   3.795   2.544   0.886 -0.2218  0.6123  0.0596
  455MOL0     N62703   3.461   3.204   0.774 -0.1693 -0.0371 -0.0693
  455MOL0     N62704   3.461   3.292   0.685  0.1366 -0.6355 -0.0367
  455MOL0     C62705   3.806   3.870   1.416  0.4658 -0.5570  0.8730
  455MOL0     C62706   3.722   3.836   1.524  0.1946 -0.3446  0.0559
  455MOL0     C62707   3.356   3.566   1.690  0.3329  1.4003 -0.0183
  455MOL0     C62708   3.367   3.434   1.748 -0.8693  0.4973  0.2778
  455MOL0     C62709   3.256   3.375   1.818 -0.3876 -0.4892  0.0260
  455MOL0     C62710   3.153   3.458   1.861 -0.7958  0.0689  0.5762
  455MOL0     O62711   3.050   3.427   1.938  0.7905  1.4541 -0.1142
  455MOL0     C62712   3.026   3.291   1.953 -0.4450  0.0789 -0.9198
  455MOL0     C62713   2.918   3.261   2.052  0.1327  0.7249 -0.3406
  455MOL0     C62714   2.971   3.283   2.197 -0.1800 -0.5547  0.4597
  455MOL0     C62715   2.856   3.285   2.303  0.0115  0.0487  0.4356
  455MOL0     C62716   2.912   3.294   2.440  0.5897 -0.6592  0.0443
  455MOL0     C62717   2.952   3.291   2.552  0.5194 -0.1464  0.1680
  455MOL0     C62718   3.146   3.589   1.809 -0.6920  0.0018  1.4672
  455MOL0     C62719   3.239   3.638   1.714 -0.8828  0.2393  0.8739
  455MOL0     C62720   3.213   3.780   1.663 -0.0494  0.4467  0.5227
  455MOL0     H62721   3.464   3.703   1.331 -4.1917  5.0474  0.1660
  455MOL0     H62722   3.624   3.775   1.153 -1.3397 -1.2033 -1.1049
  455MOL0     H62723   3.904   3.699   1.128  0.0124 -0.4575 -0.4088
  455MOL0     H62724   4.023   3.798   1.212  0.8354  1.2008 -0.7557
  455MOL0     H62725   4.052   3.950   1.028 -0.5683 -0.6737  0.7836
  455MOL0     H62726   4.072   3.786   0.961 -1.3907 -0.0646 -1.6984
  455MOL0     H62727   3.842   3.967   0.888 -0.9116 -1.8590 -0.4479
  455MOL0     H62728   3.981   3.898   0.790 -0.0933 -3.2821 -1.7855
  455MOL0     H62729   3.897   3.690   0.773 -0.3272 -2.8864  0.9680
  455MOL0     H62730   3.808   3.707   0.919 -2.4225 -2.0520 -2.7429
  455MOL0     H62731   3.706   3.816   0.662 -2.0229 -3.7831 -1.5162
  455MOL0     H62732   3.632   3.852   0.823  0.6734 -1.2102  2.4191
  455MOL0     H62733   3.601   3.599   0.826  2.2500 -2.1013 -0.9489
  455MOL0     H62734   3.533   3.666   0.679  0.3771 -0.8999 -1.4271
  455MOL0     H62735   3.792   3.521   0.680 -0.5525  0.1268  1.0346
  455MOL0     H62736   3.743   3.623   0.547  0.7685 -0.8966  0.2280
  455MOL0     H62737   3.519   3.483   0.539 -0.4319  0.9161 -1.9821
  455MOL0     H62738   3.659   3.376   0.513  1.4853 -1.0967  2.3005
  455MOL0     H62739   3.772   3.316   0.798  0.5518  0.7711 -2.6949
  455MOL0     H62740   3.559   3.099   1.007 -0.9296 -0.1944 -0.7234
  455MOL0     H62741   3.725   3.082   0.921  0.7202 -0.3704 -3.9077
  455MOL0     H62742   3.487   2.954   0.800 -1.4193 -1.7310  1.1557
  455MOL0     H62743   3.664   2.962   0.751 -1.5671 -0.5402 -1.4427
  455MOL0     H62744   3.544   2.832   0.993  0.2108  1.6412 -0.6674
  455MOL0     H62745   3.596   2.737   0.861  3.3667 -1.5683  0.4827
  455MOL0     H62746   3.786   2.904   1.020 -1.8606  1.7168 -0.8279
  455MOL0     H62747   3.757   2.741   1.057  1.2167  1.8032  1.3318
  455MOL0     H62748   4.046   2.687   0.727  0.1582  0.0184 -1.3694
  455MOL0     H62749   4.193   2.346   0.692  0.1722  0.2735  0.1899
  455MOL0     H62750   4.199   2.516   0.656 -0.6222  1.4500 -1.5222
  455MOL0     H62751   4.127   2.407   0.543  0.7434 -2.1253  1.1155
  455MOL0     H62752   3.739   2.127   0.473 -1.0402 -1.0314  0.3334
  455MOL0     H62753   3.689   1.911   0.365 -0.2320  2.3271 -0.1229
  455MOL0     H62754   3.607   1.696   0.287 -1.1849 -0.0138  0.2990
  455MOL0     H62755   3.772   1.670   0.335 -1.2871  3.7210 -2.0940
  455MOL0     H62756   3.529   1.474   0.352  0.0742  2.8453  0.3680
  455MOL0     H62757   3.640   1.476   0.219 -1.1031 -3.5176  0.5005
  455MOL0     H62758   3.745   1.407   0.496  2.0883 -0.6887  0.2451
  455MOL0     H62759   3.844   1.442   0.360 -0.2889 -0.0243 -0.7585
  455MOL0     H62760   3.713   1.264   0.237 -0.6802  1.5925  0.9631
  455MOL0     H62761   3.650   1.211   0.389 -1.8522  3.6744  1.4512
  455MOL0     H62762   3.884   1.079   0.338  2.3819  0.2094  1.0522
  455MOL0     H62763   3.961   1.239   0.341  0.6203  1.1388  1.9568
  455MOL0     H62764   3.794   1.131   0.574 -0.8314  0.3234 -0.5155
  455MOL0     H62765   3.888   1.265   0.587 -2.4621 -0.9520  0.8290
  455MOL0     H62766   4.097   1.119   0.529 -0.2324  1.2372  0.1757
  455MOL0     H62767   3.980   0.974   0.536 -0.5345 -1.4242  2.8238
  455MOL0     H62768   3.907   1.075   0.766 -1.1806 -5.8216  1.3708
  455MOL0     H62769   4.073   1.152   0.749  0.6545 -0.8744 -0.1881
  455MOL0     H62770   3.686   1.739   0.765  1.3373 -2.1767 -2.2609
  455MOL0     H62771   3.734   1.953   0.868 -1.7889  3.3902  0.6440
  455MOL0     H62772   3.749   2.332   0.891 -0.2576 -1.7728 -3.3783
  455MOL0     H62773   3.739   2.557   0.978 -3.1855 -0.9380 -1.3933
  455MOL0     H62774   3.890   3.931   1.445 -0.5575  1.8609 -0.9079
  455MOL0     H62775   3.758   3.870   1.621 -1.5435  1.6487  0.0852
  455MOL0     H62776   3.448   3.362   1.738  0.3680  1.9555 -0.6653
  455MOL0     H62777   3.269   3.276   1.860 -0.9276  0.2188  1.9898
  455MOL0     H62778   3.010   3.238   1.858  3.0594 -2.0171 -0.5245
  455MOL0     H62779   3.119   3.245   1.988 -0.8264  1.2262  1.8475
  455MOL0     H62780   2.905   3.152   2.042 -1.2038  0.6555  1.6791
  455MOL0     H62781   2.831   3.323   2.032  0.2207  0.9736  0.0318
  455MOL0     H62782   3.045   3.205   2.219  1.2216  0.4666 -0.4759
  455MOL0     H62783   3.015   3.383   2.204  0.2367 -0.8543  3.7112
  455MOL0     H62784   2.808   3.188   2.291  2.2471 -1.3951  2.3629
  455MOL0     H62785   2.782   3.361   2.274  0.9928  1.6705  1.9696
  455MOL0     H62786   2.996   3.308   2.648  0.6665 -1.9475  0.4360
  455MOL0     H62787   3.058   3.652   1.812 -0.6769 -0.0022  2.2795
  455MOL0     H62788   3.104   3.785   1.667  0.0117  1.2034  2.2514
  455MOL0     H62789   3.257   3.855   1.729  1.5220  0.6530 -0.6907
  455MOL0     H62790   3.240   3.793   1.558 -1.5346 -4.2873 -0.7074
  456MOL0     O62791   2.183  10.865   3.912 -0.6056  0.1824 -0.0835
  456MOL0     C62792   2.198  10.746   3.885 -0.2732  0.2076  0.5026
  456MOL0     O62793   2.151  10.644   3.953  0.0904  0.2244  0.1264
  456MOL0     C62794   2.096  10.673   4.073  0.9470  0.0858  0.4473
  456MOL0     C62795   1.955  10.671   4.073  0.2749 -0.3805 -0.8092
  456MOL0     C62796   1.886  10.683   4.198  0.6317  0.0089 -0.4125
  456MOL0     C62797   1.951  10.718   4.314 -0.5286 -0.8428  0.2341
  456MOL0     O62798   1.874  10.766   4.415 -0.4093 -0.0787  0.0196
  456MOL0     C62799   1.936  10.865   4.498  0.7943  0.1061  0.3496
  456MOL0     C62800   1.846  10.880   4.633  0.3120  0.3873  0.1921
  456MOL0     C62801   1.781  11.013   4.648  0.4238 -0.0457 -0.4145
  456MOL0     C62802   1.880  11.131   4.675  0.1298 -0.1879  0.7412
  456MOL0     C62803   1.802  11.258   4.708 -0.0987 -0.9319 -0.0580
  456MOL0     C62804   1.897  11.368   4.749  0.8762 -0.2751 -0.6076
  456MOL0     C62805   1.817  11.497   4.782  0.8874  0.8728  0.4260
  456MOL0     C62806   1.915  11.597   4.839  0.3793 -0.8600 -0.2454
  456MOL0     N62807   1.841  11.709   4.900  0.4347  0.9103  0.2817
  456MOL0     C62808   1.743  11.787   4.830  0.6919  0.1679 -0.4646
  456MOL0     C62809   1.696  11.866   4.929 -0.6356  0.3093  1.8333
  456MOL0     C62810   1.583  11.972   4.933  0.4125  0.1048 -0.8013
  456MOL0     C62811   1.456  11.923   5.003 -0.2459 -0.0127  0.6882
  456MOL0     C62812   1.342  12.019   4.986  0.5112 -0.1274 -0.1112
  456MOL0     C62813   1.273  12.002   4.849 -0.6085  0.2108 -0.0498
  456MOL0     O62814   1.341  12.080   4.743  0.9389 -0.4873 -0.1706
  456MOL0     C62815   1.263  12.112   4.632 -0.2861  0.4052 -0.3943
  456MOL0     C62816   1.272  12.252   4.614  0.4248 -0.5539 -0.1594
  456MOL0     C62817   1.185  12.312   4.526 -0.9669  0.3730  0.0811
  456MOL0     C62818   1.208  12.460   4.520  0.1733 -0.9984 -0.3436
  456MOL0     C62819   1.089  12.235   4.452 -0.9712  0.2323  0.4558
  456MOL0     C62820   0.981  12.301   4.365 -0.9762 -0.0753 -1.2036
  456MOL0     O62821   0.937  12.233   4.252  0.1908  0.2294 -1.0006
  456MOL0     C62822   0.808  12.262   4.205  0.3957  0.0023  0.7637
  456MOL0     C62823   0.694  12.213   4.268 -0.4479  0.4691 -0.6666
  456MOL0     C62824   0.572  12.234   4.213 -0.3676  0.4828 -0.3152
  456MOL0     C62825   0.544  12.290   4.087 -0.2565 -1.2542 -0.4118
  456MOL0     O62826   0.416  12.322   4.052  0.8405  0.8602 -0.3560
  456MOL0     C62827   0.341  12.209   4.002  0.1301  0.3794  0.0719
  456MOL0     C62828   0.352  12.183   3.851 -0.2617 -0.1206  0.6135
  456MOL0     C62829   0.269  12.272   3.772 -0.2861  0.5893  0.1931
  456MOL0     C62830   0.255  12.229   3.627  0.3415  0.8365 -0.3532
  456MOL0     C62831   0.188  12.335   3.539 -0.2180 -0.9227 -0.3780
  456MOL0     C62832   0.207  12.305   3.387  0.0680 -0.0757 -0.2133
  456MOL0     C62833   0.152  12.421   3.296  0.4005  0.5356 -0.2484
  456MOL0     C62834  -0.000  12.429   3.313 -0.6567  0.6318  0.9026
  456MOL0    Cl62835  -0.093  12.274   3.281  0.0482  0.4609  0.8784
  456MOL0     C62836   0.660  12.343   4.025  0.6965  0.7814  0.6890
  456MOL0     C62837   0.791  12.325   4.081 -0.0324 -0.0151  0.2820
  456MOL0     O62838   0.932  12.407   4.406  0.4183  0.5802 -0.7080
  456MOL0     C62839   1.091  12.094   4.464  0.2532  0.7088  0.2276
  456MOL0     C62840   1.170  12.032   4.558 -0.1866 -1.1841 -0.7986
  456MOL0     N62841   1.769  11.845   5.041 -0.6835  0.9146  0.5298
  456MOL0     N62842   1.857  11.748   5.026 -0.4690  0.0319  0.2811
  456MOL0     C62843   2.096  10.720   4.304 -0.5484  0.2790  0.2187
  456MOL0     C62844   2.164  10.700   4.190 -0.5620  1.7225 -0.3526
  456MOL0     C62845   2.278  10.726   3.764  0.2915  0.3147  0.1095
  456MOL0     C62846   2.407  10.778   3.759  0.2346 -0.0124  0.6090
  456MOL0     C62847   2.497  10.736   3.662 -0.4405 -0.0970  0.0226
  456MOL0     C62848   2.468  10.625   3.578 -0.3509 -0.5989 -0.6217
  456MOL0     O62849   2.569  10.588   3.490  0.8140  0.3373 -0.0748
  456MOL0     C62850   2.555  10.462   3.429  0.9852  1.1694 -0.5099
  456MOL0     C62851   2.690  10.430   3.353  0.5970  0.1173  0.9791
  456MOL0     C62852   2.681  10.305   3.257  0.2405 -0.8019 -0.3420
  456MOL0     C62853   2.803  10.283   3.168  0.8582 -0.0644  0.4355
  456MOL0     C62854   2.831  10.399   3.083 -0.2749 -0.1173  0.6054
  456MOL0     C62855   2.826  10.493   3.008  0.5422 -0.5162 -0.4691
  456MOL0     C62856   2.332  10.587   3.569  0.3432 -0.4925 -0.1165
  456MOL0     C62857   2.239  10.636   3.658 -0.0962 -0.2582 -0.1302
  456MOL0     C62858   2.099  10.570   3.648  0.2322  0.8249 -0.6982
  456MOL0     H62859   1.894  10.668   3.983  0.5132  1.7837 -1.0983
  456MOL0     H62860   1.778  10.686   4.203  0.4329 -0.1842 -3.3077
  456MOL0     H62861   1.932  10.965   4.454  0.6732  1.3053  2.8849
  456MOL0     H62862   2.037  10.832   4.524  0.7962 -0.2897 -0.1496
  456MOL0     H62863   1.760  10.815   4.613  2.8703 -2.7014 -1.9349
  456MOL0     H62864   1.895  10.839   4.722  0.7561 -3.4046 -1.5883
  456MOL0     H62865   1.717  11.027   4.561 -4.4070 -1.0323  2.5961
  456MOL0     H62866   1.710  11.009   4.731  1.7154 -0.7489  0.6969
  456MOL0     H62867   1.945  11.108   4.759  1.4341 -0.3645 -0.2908
  456MOL0     H62868   1.943  11.141   4.586  1.3739 -1.2700  1.4627
  456MOL0     H62869   1.728  11.242   4.787  1.1739 -2.2890  0.9219
  456MOL0     H62870   1.749  11.296   4.621 -4.7080 -0.4301  2.6648
  456MOL0     H62871   1.940  11.317   4.835  0.9954  0.1270 -0.4250
  456MOL0     H62872   1.977  11.376   4.674  0.8166 -1.3232 -0.7967
  456MOL0     H62873   1.725  11.480   4.840 -1.0239 -0.6380 -2.8155
  456MOL0     H62874   1.776  11.539   4.690  0.5470  1.0469  0.6535
  456MOL0     H62875   1.995  11.558   4.903  0.9647  1.3446  0.4882
  456MOL0     H62876   1.971  11.636   4.753  0.1221  2.6200  0.9800
  456MOL0     H62877   1.728  11.777   4.722  1.4919  1.3388 -0.7050
  456MOL0     H62878   1.568  11.989   4.826  1.0184 -4.6328 -1.8182
  456MOL0     H62879   1.609  12.070   4.975 -1.2161  1.0662 -1.9251
  456MOL0     H62880   1.421  11.826   4.968 -1.6996  1.6536 -2.9538
  456MOL0     H62881   1.478  11.906   5.109 -1.8856 -1.6107  0.8352
  456MOL0     H62882   1.272  12.006   5.069  0.1133  3.3498  0.2567
  456MOL0     H62883   1.380  12.120   5.001 -1.0521  0.3424  0.9492
  456MOL0     H62884   1.253  11.901   4.812 -2.2120  0.5922 -0.3038
  456MOL0     H62885   1.176  12.050   4.865  0.0605  2.1929 -1.6182
  456MOL0     H62886   1.337  12.317   4.671  3.0967  0.5493 -4.0323
  456MOL0     H62887   1.234  12.481   4.416 -1.1951  2.7135 -0.0804
  456MOL0     H62888   1.285  12.498   4.587 -2.7765 -0.6185  3.1806
  456MOL0     H62889   1.116  12.516   4.544  1.1406  1.5319 -2.0737
  456MOL0     H62890   0.687  12.153   4.358 -1.2830 -1.6117 -2.0522
  456MOL0     H62891   0.489  12.196   4.272 -2.8517 -0.6601 -4.2062
  456MOL0     H62892   0.371  12.112   4.043  0.6145  0.9421  1.0693
  456MOL0     H62893   0.236  12.228   4.024  0.7130  2.4866  1.3529
  456MOL0     H62894   0.454  12.209   3.821 -1.3360  2.4754 -1.1792
  456MOL0     H62895   0.327  12.077   3.838 -3.0648  0.3749  1.3143
  456MOL0     H62896   0.316  12.370   3.777  1.3579 -0.1557 -0.1216
  456MOL0     H62897   0.164  12.281   3.804 -0.7330  2.9430 -1.6120
  456MOL0     H62898   0.196  12.137   3.635  0.0594  0.7834 -2.4282
  456MOL0     H62899   0.346  12.201   3.573 -1.2159 -3.3371 -1.2588
  456MOL0     H62900   0.083  12.338   3.570  0.0667 -0.1122  0.5660
  456MOL0     H62901   0.232  12.431   3.569  1.2057 -0.8416 -2.5445
  456MOL0     H62902   0.146  12.217   3.365 -1.7282  0.5366  1.8713
  456MOL0     H62903   0.313  12.279   3.377  0.6691  0.9433  2.4728
  456MOL0     H62904   0.173  12.392   3.192 -2.5864 -0.6997 -0.6342
  456MOL0     H62905   0.192  12.520   3.318 -3.4356  2.8018 -2.3060
  456MOL0     H62906  -0.039  12.515   3.258  1.4619  1.3764  0.4950
  456MOL0     H62907  -0.006  12.451   3.420 -2.1138 -2.9267  1.6991
  456MOL0     H62908   0.644  12.412   3.943  3.5922  0.5356 -0.1882
  456MOL0     H62909   0.882  12.356   4.030  0.7248  1.2166  2.2858
  456MOL0     H62910   1.027  12.030   4.405 -0.2116 -0.3834  1.8402
  456MOL0     H62911   1.153  11.926   4.573  0.5010 -1.1509  0.4226
  456MOL0     H62912   2.155  10.737   4.394  0.1117  4.4785 -0.7833
  456MOL0     H62913   2.273  10.691   4.190 -0.6313  0.3277 -2.2523
  456MOL0     H62914   2.447  10.856   3.823 -2.0290  0.9028  1.0031
  456MOL0     H62915   2.600  10.765   3.649  0.0371 -2.4178 -2.1773
  456MOL0     H62916   2.547  10.382   3.503 -0.1807  2.8057  1.2305
  456MOL0     H62917   2.466  10.458   3.366 -1.3610  1.0633  2.5692
  456MOL0     H62918   2.762  10.416   3.434  1.4751  1.9930  0.5777
  456MOL0     H62919   2.719  10.512   3.285  3.4849 -1.1614  0.5140
  456MOL0     H62920   2.661  10.216   3.318  1.2511 -2.2073 -1.9980
  456MOL0     H62921   2.598  10.316   3.187 -0.0213 -1.5032 -0.1504
  456MOL0     H62922   2.783  10.197   3.104  1.1910  1.3939 -1.7377
  456MOL0     H62923   2.892  10.255   3.224  0.7936 -0.8928  0.1400
  456MOL0     H62924   2.834  10.582   2.948  0.2189 -2.5635 -3.8172
  456MOL0     H62925   2.298  10.520   3.490  0.3651 -2.7047  1.6361
  456MOL0     H62926   2.020  10.644   3.634 -3.3624 -2.9629 -3.1246
  456MOL0     H62927   2.089  10.502   3.563 -0.3596  1.0889 -0.8433
  456MOL0     H62928   2.069  10.508   3.733  1.1843 -0.8262 -1.5177
  457MOL0     O62929   8.749  10.314   4.935  1.0882  0.7173 -0.5521
  457MOL0     C62930   8.780  10.417   4.986  0.2848 -0.0719 -0.2041
  457MOL0     O62931   8.839  10.426   5.105  0.5925 -1.0332 -0.0340
  457MOL0     C62932   8.862  10.315   5.176 -0.2258  0.1246 -0.0998
  457MOL0     C62933   8.995  10.283   5.204 -0.3782 -0.1911 -0.7661
  457MOL0     C62934   9.026  10.164   5.277 -0.6084 -0.9735  0.1609
  457MOL0     C62935   8.932  10.076   5.306  0.1599  0.1930 -0.5513
  457MOL0     O62936   8.967   9.967   5.369  0.4373  0.1300  0.2134
  457MOL0     C62937   8.875   9.894   5.449  0.1253 -1.3312 -0.7278
  457MOL0     C62938   8.951   9.776   5.511 -0.9138 -0.1515  0.5798
  457MOL0     C62939   8.862   9.659   5.526 -0.3366  0.2886 -0.9457
  457MOL0     C62940   8.934   9.550   5.604 -0.1768 -0.4452  0.2294
  457MOL0     C62941   8.861   9.421   5.610  0.9384 -0.1775 -0.7796
  457MOL0     C62942   8.878   9.334   5.482  0.1615 -1.2171 -0.0603
  457MOL0     C62943   8.792   9.212   5.496 -0.0499  0.0168  1.0735
  457MOL0     C62944   8.814   9.114   5.380  0.5481 -1.2432 -0.2634
  457MOL0     N62945   8.715   9.147   5.274  0.4643  0.1798  0.4483
  457MOL0     C62946   8.587   9.102   5.266 -0.4635 -0.8138 -0.0212
  457MOL0     C62947   8.540   9.167   5.152 -0.3986  0.2064 -0.3494
  457MOL0     C62948   8.394   9.173   5.120  0.2894  0.4072  0.4047
  457MOL0     C62949   8.356   9.283   5.016  0.8703  0.5740 -0.4676
  457MOL0     C62950   8.200   9.288   5.013  0.3463 -0.0392  1.1215
  457MOL0     C62951   8.141   9.166   4.935  1.0795  0.2234  0.4946
  457MOL0     O62952   8.027   9.085   4.998 -1.0595 -0.3715 -0.0925
  457MOL0     C62953   7.938   9.051   4.903  0.0760  0.4519 -0.5225
  457MOL0     C62954   7.962   8.935   4.821  0.7766 -0.0331  0.4881
  457MOL0     C62955   7.884   8.897   4.708 -0.3866  0.3843 -0.4391
  457MOL0     C62956   7.944   8.791   4.618 -0.0607  0.0623 -0.2910
  457MOL0     C62957   7.763   8.970   4.687  0.6406 -0.2012 -0.4875
  457MOL0     C62958   7.665   8.931   4.579  0.1528 -0.5014  0.9653
  457MOL0     O62959   7.534   8.950   4.609 -0.5030 -0.9644  0.4966
  457MOL0     C62960   7.428   8.971   4.521  0.2458  0.2787 -0.3570
  457MOL0     C62961   7.296   8.972   4.560  0.4561  0.0938  0.1547
  457MOL0     C62962   7.186   8.992   4.477 -0.0921  0.3484  0.3803
  457MOL0     C62963   7.212   9.010   4.342  0.0680  0.6061  0.3287
  457MOL0     O62964   7.108   9.046   4.256 -0.2684  0.5963  0.1652
  457MOL0     C62965   7.004   8.939   4.241 -0.1326 -0.4123 -0.1810
  457MOL0     C62966   6.921   8.955   4.111  0.3536 -0.2496 -0.3868
  457MOL0     C62967   6.994   8.884   3.992  0.1161 -1.0966  1.1332
  457MOL0     C62968   6.891   8.825   3.897 -0.6335 -0.1646 -0.5247
  457MOL0     C62969   6.959   8.797   3.764 -1.2423  0.0811  0.1958
  457MOL0     C62970   7.087   8.707   3.748 -0.6862  0.5694 -0.8629
  457MOL0     C62971   7.095   8.643   3.606  0.2388 -0.0018  0.7537
  457MOL0     C62972   7.018   8.516   3.589 -0.8409  0.0151  0.1371
  457MOL0    Cl62973   6.937   8.508   3.433  0.4442  0.0139 -0.0311
  457MOL0     C62974   7.342   9.014   4.292 -0.1277 -1.2676 -1.1213
  457MOL0     C62975   7.446   8.997   4.379 -1.2138  0.4116 -0.5998
  457MOL0     O62976   7.699   8.874   4.475  0.5387  1.0217 -0.3361
  457MOL0     C62977   7.731   9.088   4.770  0.6701 -0.1919  0.9215
  457MOL0     C62978   7.829   9.121   4.870  0.7964 -0.4147  0.0444
  457MOL0     N62979   8.645   9.254   5.097  0.6442  0.6602  0.8598
  457MOL0     N62980   8.743   9.234   5.167  0.3440 -0.4026  0.4107
  457MOL0     C62981   8.799  10.100   5.273  0.2819  0.1869 -1.4172
  457MOL0     C62982   8.764  10.224   5.225  0.3146  0.7507 -0.6841
  457MOL0     C62983   8.753  10.533   4.903 -0.2898 -0.6921 -0.5495
  457MOL0     C62984   8.836  10.648   4.915  0.3632  0.6030  0.7524
  457MOL0     C62985   8.797  10.768   4.852 -1.3312 -0.0219 -0.3013
  457MOL0     C62986   8.689  10.776   4.764  0.9527 -0.3487  0.0848
  457MOL0     O62987   8.663  10.897   4.707  0.4452  0.5067 -0.5599
  457MOL0     C62988   8.520  10.926   4.733 -0.5016 -0.8252 -0.9879
  457MOL0     C62989   8.466  11.060   4.689 -0.1858  0.2465  0.4969
  457MOL0     C62990   8.394  11.061   4.554 -0.3171  0.2598 -0.3583
  457MOL0     C62991   8.497  11.017   4.445 -0.1338 -1.0739 -0.4284
  457MOL0     C62992   8.470  10.878   4.407 -0.9712 -0.0506 -0.2358
  457MOL0     C62993   8.437  10.757   4.393  0.7250 -0.7567  0.2168
  457MOL0     C62994   8.624  10.660   4.728 -0.4432  0.2797  0.8895
  457MOL0     C62995   8.655  10.540   4.801  1.2351 -0.1247  0.1689
  457MOL0     C62996   8.549  10.433   4.778 -0.0315 -0.4427 -0.3895
  457MOL0     H62997   9.078  10.345   5.173  2.2781 -2.7216  0.7618
  457MOL0     H62998   9.131  10.141   5.292  0.8951  3.6672 -1.3526
  457MOL0     H62999   8.797   9.855   5.382  0.0531  2.4206 -3.0980
  457MOL0     H63000   8.841   9.972   5.519 -2.4571 -0.4880 -2.7451
  457MOL0     H63001   9.034   9.747   5.446  0.9080  0.6361  2.4379
  457MOL0     H63002   8.997   9.816   5.602  1.2880 -2.0075  0.3769
  457MOL0     H63003   8.773   9.686   5.583 -0.0576  2.6193 -1.5365
  457MOL0     H63004   8.821   9.614   5.435 -1.9232 -0.6932  0.2085
  457MOL0     H63005   9.026   9.530   5.547 -1.0529  0.4830 -1.5974
  457MOL0     H63006   8.972   9.594   5.696 -1.4255 -0.2623  0.6660
  457MOL0     H63007   8.756   9.431   5.638  0.6913 -1.6456 -1.1276
  457MOL0     H63008   8.901   9.354   5.687 -0.5520 -3.4584 -2.6482
  457MOL0     H63009   8.842   9.398   5.400  1.2273 -0.3344  0.1325
  457MOL0     H63010   8.984   9.313   5.464  0.6909  2.6556 -2.8732
  457MOL0     H63011   8.686   9.230   5.512 -0.0463 -0.8317  2.2067
  457MOL0     H63012   8.829   9.160   5.586 -2.6372  0.3262  2.4028
  457MOL0     H63013   8.916   9.122   5.344  1.0573  2.3756  1.5264
  457MOL0     H63014   8.803   9.011   5.416  1.1443 -0.5682  2.0758
  457MOL0     H63015   8.533   9.035   5.333  0.7677 -0.6486  1.1843
  457MOL0     H63016   8.334   9.200   5.207  1.4285  3.2878  0.4109
  457MOL0     H63017   8.371   9.070   5.091 -1.6716  0.9603 -0.1810
  457MOL0     H63018   8.386   9.381   5.055 -1.0730  1.0423 -0.0169
  457MOL0     H63019   8.393   9.262   4.916 -2.6101  1.7874 -2.1920
  457MOL0     H63020   8.139   9.297   5.103 -0.9392  2.4412  0.1250
  457MOL0     H63021   8.169   9.384   4.970  1.1067  0.7991  2.3869
  457MOL0     H63022   8.108   9.200   4.837 -0.8022  1.4815  1.5023
  457MOL0     H63023   8.222   9.097   4.911  0.8625 -0.1947  0.9454
  457MOL0     H63024   8.054   8.881   4.842  0.5818  0.4312  2.7675
  457MOL0     H63025   7.981   8.833   4.523 -1.5575  0.7394 -0.5957
  457MOL0     H63026   7.863   8.723   4.590  0.7203 -2.0121  2.0893
  457MOL0     H63027   8.023   8.722   4.650 -2.3166 -2.9613 -0.8033
  457MOL0     H63028   7.258   8.970   4.662 -1.9033  0.1493 -0.6713
  457MOL0     H63029   7.086   9.010   4.515 -0.5293  0.8744 -0.9563
  457MOL0     H63030   7.054   8.843   4.251  1.4631  0.2072 -1.6069
  457MOL0     H63031   6.940   8.939   4.329  1.0992  2.7871  0.8661
  457MOL0     H63032   6.828   8.902   4.130 -0.8009  0.9607 -2.2917
  457MOL0     H63033   6.906   9.061   4.085  1.2763 -0.2028 -0.7647
  457MOL0     H63034   7.068   8.810   4.024  2.0724  0.3472  0.1415
  457MOL0     H63035   7.051   8.963   3.943 -0.5280 -1.2645  0.0680
  457MOL0     H63036   6.805   8.889   3.875 -1.7834 -0.6027  2.2647
  457MOL0     H63037   6.847   8.739   3.948  0.4794  0.5399  1.7431
  457MOL0     H63038   6.884   8.746   3.703 -1.1561  0.2092 -0.0177
  457MOL0     H63039   6.969   8.895   3.717  1.1264  0.3987  1.1900
  457MOL0     H63040   7.089   8.629   3.825  2.2805  2.5419  1.2910
  457MOL0     H63041   7.169   8.779   3.761 -0.1873  0.1187 -1.4164
  457MOL0     H63042   7.200   8.621   3.581  1.5508  4.0415  2.0409
  457MOL0     H63043   7.073   8.714   3.526  2.2701  1.2409  1.2310
  457MOL0     H63044   6.939   8.508   3.664  0.5473 -0.4694  1.6067
  457MOL0     H63045   7.080   8.426   3.596 -1.5326 -0.4704  0.1895
  457MOL0     H63046   7.354   9.032   4.185 -2.4088  0.9228 -1.1002
  457MOL0     H63047   7.548   9.008   4.344 -0.0671  1.3347  2.6690
  457MOL0     H63048   7.651   9.157   4.745  1.6095  1.8722  3.2241
  457MOL0     H63049   7.827   9.215   4.925 -3.1256  0.2575 -0.9432
  457MOL0     H63050   8.716  10.032   5.289  0.2673  0.0029 -2.2182
  457MOL0     H63051   8.659  10.253   5.226 -1.0613 -3.4884  0.9004
  457MOL0     H63052   8.920  10.646   4.984 -0.0488  0.7743  1.2688
  457MOL0     H63053   8.851  10.859   4.876  0.6452 -1.2478  0.2297
  457MOL0     H63054   8.452  10.849   4.696  0.2893 -0.5557 -3.1747
  457MOL0     H63055   8.511  10.915   4.842 -1.7933 -0.1583 -1.0138
  457MOL0     H63056   8.551  11.129   4.695 -0.6791  0.8604  0.4621
  457MOL0     H63057   8.394  11.104   4.758 -1.2342  3.2413 -2.2507
  457MOL0     H63058   8.306  10.997   4.548  0.6709 -1.4845  2.1948
  457MOL0     H63059   8.351  11.161   4.539 -3.7302 -0.6052  2.4584
  457MOL0     H63060   8.600  11.017   4.484 -0.5894 -3.3823  0.9523
  457MOL0     H63061   8.477  11.084   4.361  2.5644 -1.5637 -1.5600
  457MOL0     H63062   8.393  10.659   4.389 -1.0346 -0.1313  2.3007
  457MOL0     H63063   8.564  10.674   4.639  0.3237  1.5913  0.5517
  457MOL0     H63064   8.587  10.363   4.703  3.3242 -1.3834  1.9285
  457MOL0     H63065   8.525  10.373   4.866  0.4625  0.2250  0.2172
  457MOL0     H63066   8.458  10.471   4.733  1.3100  2.5036 -0.8295
  458MOL0     O63067   1.380  11.334   6.250 -0.1413  0.4580 -0.4134
  458MOL0     C63068   1.288  11.281   6.316 -0.3108 -0.0888 -0.4739
  458MOL0     O63069   1.261  11.309   6.448 -0.1088  0.3860  1.1854
  458MOL0     C63070   1.316  11.422   6.499  0.5431  0.2459 -0.0464
  458MOL0     C63071   1.450  11.436   6.520  0.0485 -0.6257 -0.0809
  458MOL0     C63072   1.514  11.562   6.552 -0.5244  0.2923 -1.7108
  458MOL0     C63073   1.432  11.675   6.556 -0.0506 -0.1196 -0.3554
  458MOL0     O63074   1.494  11.794   6.568 -0.1169  0.1233  0.5927
  458MOL0     C63075   1.425  11.903   6.495  0.1346  0.1313 -0.4922
  458MOL0     C63076   1.496  12.040   6.498  0.0217  0.2985  0.1717
  458MOL0     C63077   1.593  12.066   6.381  0.1399  0.6623 -0.0468
  458MOL0     C63078   1.512  12.134   6.268 -0.3431  0.7963 -0.7799
  458MOL0     C63079   1.583  12.150   6.143  0.1613  0.1907 -0.6144
  458MOL0     C63080   1.717  12.231   6.139 -0.1717  0.0648  0.3184
  458MOL0     C63081   1.707  12.386   6.189 -0.4275  0.1824 -0.3833
  458MOL0     C63082   1.843  12.457   6.201  0.5906 -0.2020 -0.5529
  458MOL0     N63083   1.825  12.602   6.219 -0.4347  0.1590 -0.7472
  458MOL0     C63084   1.888  12.678   6.311 -0.2420 -0.0399  0.0043
  458MOL0     C63085   1.831  12.802   6.297 -0.7102  0.3387  1.1437
  458MOL0     C63086   1.851  12.930   6.379  0.6453 -0.1163  0.7306
  458MOL0     C63087   1.720  12.962   6.461  0.4142  1.0452 -0.2998
  458MOL0     C63088   1.702  12.862   6.574 -0.4223  0.3413 -0.1890
  458MOL0     C63089   1.602  12.905   6.669 -0.0596 -0.4328 -0.6876
  458MOL0     O63090   1.670  12.936   6.795  0.0447  0.0477  0.2756
  458MOL0     C63091   1.712  12.838   6.884 -0.0880 -0.3708 -1.1965
  458MOL0     C63092   1.776  12.881   7.000  0.5314 -0.6339  0.4011
  458MOL0     C63093   1.800  12.795   7.110 -1.0055 -0.0250  0.5037
  458MOL0     C63094   1.874  12.857   7.233 -0.5400 -0.7335  0.2575
  458MOL0     C63095   1.782  12.656   7.096  0.2843 -0.6440  0.7981
  458MOL0     C63096   1.825  12.553   7.188 -0.0508 -0.1920  0.7698
  458MOL0     O63097   1.869  12.433   7.117  0.2150 -0.0682  0.0834
  458MOL0     C63098   1.939  12.348   7.194  0.6802 -0.3156  0.6070
  458MOL0     C63099   1.885  12.243   7.258 -0.6528  0.3462 -0.3003
  458MOL0     C63100   1.966  12.138   7.322  0.1413  0.4359 -0.8354
  458MOL0     C63101   2.102  12.152   7.330 -0.0434 -0.2066 -0.2599
  458MOL0     O63102   2.199  12.068   7.387  0.0656 -0.6584 -0.2484
  458MOL0     C63103   2.167  11.929   7.412 -0.7744 -0.8309  0.2851
  458MOL0     C63104   2.282  11.873   7.505 -0.1933 -0.4416 -0.1808
  458MOL0     C63105   2.414  11.849   7.427 -0.6752 -0.3896 -0.0497
  458MOL0     C63106   2.538  11.797   7.506  0.5334  0.8826 -0.3603
  458MOL0     C63107   2.655  11.815   7.411 -0.2291 -0.7896  0.3152
  458MOL0     C63108   2.663  11.715   7.302 -0.8864  0.9397  0.1507
  458MOL0     C63109   2.800  11.711   7.246 -0.3206 -0.8770  0.0869
  458MOL0     C63110   2.814  11.598   7.151 -1.4143  0.0124  0.3485
  458MOL0    Cl63111   2.851  11.441   7.227 -0.2682  0.0577 -0.1213
  458MOL0     C63112   2.151  12.278   7.276 -0.5330 -0.5519  0.5111
  458MOL0     C63113   2.077  12.368   7.208 -0.6630  0.3060  0.7063
  458MOL0     O63114   1.832  12.568   7.311 -0.0197  0.1804  0.4553
  458MOL0     C63115   1.718  12.614   6.973 -0.6910  0.2419 -0.1753
  458MOL0     C63116   1.684  12.702   6.869 -0.8359 -0.4248  0.3564
  458MOL0     N63117   1.746  12.804   6.182  0.7396 -0.7833 -0.6586
  458MOL0     N63118   1.749  12.686   6.139 -0.7211 -0.1240 -0.3662
  458MOL0     C63119   1.292  11.657   6.554 -0.1066  0.9772 -0.4309
  458MOL0     C63120   1.234  11.529   6.523 -0.6926 -0.6006  0.8392
  458MOL0     C63121   1.226  11.157   6.258 -0.4845  0.3239  1.0863
  458MOL0     C63122   1.164  11.069   6.355  0.0089  0.0413  0.9964
  458MOL0     C63123   1.099  10.954   6.313  0.6568 -0.7315 -1.2475
  458MOL0     C63124   1.091  10.915   6.181  1.3289 -0.0556  0.1464
  458MOL0     O63125   1.038  10.798   6.126  0.0564 -0.4238 -0.2893
  458MOL0     C63126   0.949  10.701   6.189 -0.0373 -0.1355 -0.4729
  458MOL0     C63127   0.802  10.717   6.148  0.3332  0.2572  0.1044
  458MOL0     C63128   0.778  10.693   6.004 -0.5557 -0.4774  0.2452
  458MOL0     C63129   0.640  10.607   6.000 -0.1273  0.1852 -0.5077
  458MOL0     C63130   0.518  10.694   6.008  1.0259 -0.3333  0.3520
  458MOL0     C63131   0.411  10.759   6.010 -0.3837 -0.0695 -0.2224
  458MOL0     C63132   1.148  11.002   6.091 -0.3448  0.4449 -0.0532
  458MOL0     C63133   1.230  11.117   6.121  0.4280 -0.2963 -0.1122
  458MOL0     C63134   1.296  11.196   6.021 -0.0459  0.6385 -0.1850
  458MOL0     H63135   1.520  11.354   6.508  0.3931 -0.1647 -1.4176
  458MOL0     H63136   1.621  11.568   6.570 -0.7031  0.3778 -0.6567
  458MOL0     H63137   1.320  11.917   6.524  0.7788  2.9248  0.8451
  458MOL0     H63138   1.420  11.880   6.388  1.7158 -0.2689 -0.5039
  458MOL0     H63139   1.416  12.115   6.501 -1.7288 -1.3725 -1.8349
  458MOL0     H63140   1.570  12.047   6.577  2.2415  0.0571 -1.7779
  458MOL0     H63141   1.680  12.124   6.412  0.9912 -0.1660 -0.8387
  458MOL0     H63142   1.613  11.966   6.342  1.0178 -0.1131  2.2267
  458MOL0     H63143   1.422  12.079   6.242 -1.1075  2.7757 -2.5769
  458MOL0     H63144   1.486  12.235   6.300  2.2844  1.9162 -1.8595
  458MOL0     H63145   1.518  12.182   6.060  0.1359  0.6744 -0.4142
  458MOL0     H63146   1.606  12.050   6.106  2.5473  0.7622 -0.8152
  458MOL0     H63147   1.792  12.178   6.199  0.9730 -1.1119 -2.0107
  458MOL0     H63148   1.768  12.213   6.043 -1.4358 -0.5064 -0.2667
  458MOL0     H63149   1.666  12.397   6.290  0.9798 -1.7164  0.4609
  458MOL0     H63150   1.631  12.432   6.125 -0.4595  3.9370  2.0524
  458MOL0     H63151   1.905  12.414   6.280 -0.4131  1.1555  1.0734
  458MOL0     H63152   1.889  12.450   6.102  4.2877  0.9984  0.9246
  458MOL0     H63153   1.966  12.651   6.383 -0.3145  0.2956  0.2143
  458MOL0     H63154   1.864  13.005   6.301 -1.1061 -3.7632 -3.5928
  458MOL0     H63155   1.941  12.918   6.440  2.4539  0.3792 -1.7007
  458MOL0     H63156   1.718  13.068   6.484  1.1927  1.1542 -0.6860
  458MOL0     H63157   1.637  12.933   6.395  1.4354 -0.7578 -0.8879
  458MOL0     H63158   1.662  12.770   6.530  2.3470 -1.2597  0.3562
  458MOL0     H63159   1.801  12.849   6.618 -0.6525  0.4713  0.3773
  458MOL0     H63160   1.553  12.991   6.623 -1.7640 -0.3952  1.0299
  458MOL0     H63161   1.533  12.823   6.694  0.7159 -1.6635 -2.3695
  458MOL0     H63162   1.797  12.987   7.000  3.6675 -1.0993  2.7616
  458MOL0     H63163   1.901  12.962   7.215  2.3247 -1.9730 -3.9309
  458MOL0     H63164   1.962  12.798   7.256 -0.0509  0.8776  2.9940
  458MOL0     H63165   1.804  12.856   7.317 -1.0915 -0.5804 -0.1922
  458MOL0     H63166   1.777  12.253   7.255 -0.5916  1.0396 -0.3386
  458MOL0     H63167   1.916  12.045   7.348 -4.5258  2.7347 -0.6272
  458MOL0     H63168   2.067  11.906   7.448 -0.1398 -1.8657  1.4656
  458MOL0     H63169   2.187  11.869   7.323  3.5969 -0.4535  0.7632
  458MOL0     H63170   2.301  11.938   7.591 -3.3588 -2.5955  2.4429
  458MOL0     H63171   2.240  11.783   7.553  0.0746 -0.2082  0.5089
  458MOL0     H63172   2.437  11.951   7.394 -1.0050  0.4726  2.1562
  458MOL0     H63173   2.384  11.792   7.339 -0.6929 -1.1457  0.4375
  458MOL0     H63174   2.525  11.695   7.544  0.8671  0.5111 -1.2100
  458MOL0     H63175   2.542  11.855   7.598  2.6942  0.4170 -0.1143
  458MOL0     H63176   2.655  11.921   7.383 -0.4445 -0.9323 -0.2359
  458MOL0     H63177   2.739  11.787   7.475 -1.4876  1.8460  3.4549
  458MOL0     H63178   2.599  11.734   7.216  1.6641  1.4722 -1.7231
  458MOL0     H63179   2.650  11.614   7.344  2.9009  0.5750  0.7457
  458MOL0     H63180   2.884  11.696   7.315  1.9363 -0.6225 -2.4178
  458MOL0     H63181   2.807  11.805   7.190 -3.7821 -1.0129 -0.7838
  458MOL0     H63182   2.884  11.631   7.073 -0.5898  1.1819  1.5375
  458MOL0     H63183   2.720  11.590   7.096 -1.6640  0.8000  0.6506
  458MOL0     H63184   2.252  12.310   7.299 -0.9660  3.0833 -1.8954
  458MOL0     H63185   2.121  12.457   7.164 -1.6026  1.0776  1.2742
  458MOL0     H63186   1.673  12.515   6.975 -3.4241  1.3874 -0.6136
  458MOL0     H63187   1.630  12.677   6.779 -2.0105  4.3480 -0.5453
  458MOL0     H63188   1.220  11.737   6.569 -0.1812  0.9901 -0.8371
  458MOL0     H63189   1.126  11.522   6.510 -0.5507 -1.3656 -0.0983
  458MOL0     H63190   1.179  11.079   6.462 -1.3324 -1.0534  1.3225
  458MOL0     H63191   1.045  10.903   6.393 -0.2838  1.2865 -0.5392
  458MOL0     H63192   0.979  10.603   6.151  0.2934  0.5521 -2.0622
  458MOL0     H63193   0.963  10.699   6.297  1.4086  0.2408 -0.6232
  458MOL0     H63194   0.776  10.820   6.172  2.7959  0.8022  0.6939
  458MOL0     H63195   0.738  10.645   6.200 -0.9594 -2.7718 -5.0493
  458MOL0     H63196   0.768  10.785   5.945  2.5461 -0.1971 -0.0265
  458MOL0     H63197   0.862  10.638   5.962  0.6125  0.8939  0.7023
  458MOL0     H63198   0.642  10.527   6.074  0.1258  0.7687  0.1339
  458MOL0     H63199   0.640  10.564   5.900 -0.5852  1.2367 -0.9818
  458MOL0     H63200   0.334  10.830   5.990  1.0199  0.9219 -2.5880
  458MOL0     H63201   1.122  10.964   5.993 -2.3663  0.8701  0.2732
  458MOL0     H63202   1.402  11.201   6.047 -0.2537  3.2381  0.4938
  458MOL0     H63203   1.291  11.158   5.918  0.0847  0.6952 -0.2129
  458MOL0     H63204   1.260  11.298   6.037 -0.1516  0.7588 -1.1376
  459MOL0     O63205  10.004   9.371   6.261 -0.8103 -0.4073  0.1847
  459MOL0     C63206  10.073   9.472   6.256 -0.4564  0.9056 -0.0973
  459MOL0     O63207  10.110   9.531   6.142  0.1878  0.0630  0.5472
  459MOL0     C63208  10.072   9.488   6.019  0.0462  0.6589  0.1346
  459MOL0     C63209  10.175   9.465   5.932  0.7917 -0.9897 -0.2902
  459MOL0     C63210  10.156   9.410   5.807  0.3592  1.0113  0.6032
  459MOL0     C63211  10.029   9.378   5.758  1.0294  0.9451 -0.7852
  459MOL0     O63212  10.011   9.339   5.625 -0.2125  0.4469 -0.8627
  459MOL0     C63213  10.061   9.205   5.598 -0.5182 -0.2855  0.1807
  459MOL0     C63214   9.979   9.138   5.487  0.6256  0.5145  0.0041
  459MOL0     C63215  10.038   8.996   5.472 -1.1025 -0.0444 -0.5510
  459MOL0     C63216   9.937   8.904   5.412 -0.3104 -0.9832 -0.6626
  459MOL0     C63217   9.825   8.874   5.506  0.3056  0.4264 -0.3067
  459MOL0     C63218   9.721   8.771   5.444  0.9450 -1.3191  0.2890
  459MOL0     C63219   9.611   8.703   5.525 -0.1333 -0.9283 -0.0519
  459MOL0     C63220   9.663   8.624   5.646 -0.4857 -0.6691 -0.5357
  459MOL0     N63221   9.550   8.553   5.704 -0.2785  0.3694 -0.6373
  459MOL0     C63222   9.462   8.609   5.792 -0.0744 -0.4365  0.1868
  459MOL0     C63223   9.402   8.512   5.857  0.1294  0.2448 -0.0835
  459MOL0     C63224   9.294   8.522   5.959 -0.0703 -0.2484 -0.5252
  459MOL0     C63225   9.350   8.550   6.094 -0.1210 -0.6662  0.7605
  459MOL0     C63226   9.253   8.580   6.208  0.9013  0.2449  0.0021
  459MOL0     C63227   9.326   8.594   6.341 -1.1786  0.0931  0.0725
  459MOL0     O63228   9.409   8.710   6.331 -0.0914  0.2207 -0.1372
  459MOL0     C63229   9.518   8.723   6.413 -0.6377  0.0319  0.6063
  459MOL0     C63230   9.594   8.841   6.403 -0.5786  0.8992  1.6349
  459MOL0     C63231   9.690   8.865   6.501  0.0587  0.2100 -0.1400
  459MOL0     C63232   9.739   9.004   6.491  0.4218 -0.1328 -0.0095
  459MOL0     C63233   9.708   8.778   6.618 -0.4693 -0.0149 -0.6906
  459MOL0     C63234   9.805   8.794   6.727 -0.3413  0.2970  0.0213
  459MOL0     O63235   9.764   8.743   6.849  0.0674 -1.1669  0.2273
  459MOL0     C63236   9.852   8.739   6.954  1.4759 -0.1331  0.4197
  459MOL0     C63237   9.793   8.760   7.080  0.1186 -0.6772  0.4528
  459MOL0     C63238   9.876   8.769   7.191 -1.9018 -0.4477 -0.0750
  459MOL0     C63239  10.011   8.736   7.179  0.4460 -0.5273 -0.5108
  459MOL0     O63240  10.100   8.743   7.278 -0.2282 -0.5426 -0.0119
  459MOL0     C63241  10.082   8.859   7.367  0.4039  0.2118 -0.5269
  459MOL0     C63242  10.003   8.833   7.489 -0.1549  0.1121 -0.2129
  459MOL0     C63243  10.076   8.723   7.582  0.3051 -0.2263 -0.3695
  459MOL0     C63244  10.144   8.804   7.696 -1.0170  0.4243 -1.0025
  459MOL0     C63245  10.245   8.722   7.769 -0.0136  0.4404 -0.1804
  459MOL0     C63246  10.309   8.788   7.886 -0.1049  0.3851 -0.3849
  459MOL0     C63247  10.436   8.721   7.923 -0.4759  0.1504  0.4184
  459MOL0     C63248  10.511   8.778   8.049  0.6307  0.2803  0.7802
  459MOL0    Cl63249  10.466   8.691   8.192 -0.4442 -0.0123  0.6554
  459MOL0     C63250  10.065   8.700   7.053  1.4790 -0.9287 -0.8602
  459MOL0     C63251   9.987   8.702   6.941 -0.3210  0.2006  0.5185
  459MOL0     O63252   9.910   8.847   6.703 -0.3511 -0.3766 -0.2400
  459MOL0     C63253   9.631   8.660   6.622  0.2350 -1.1192 -0.5072
  459MOL0     C63254   9.543   8.635   6.518 -0.0059  0.9527 -0.2142
  459MOL0     N63255   9.448   8.391   5.795  0.5185 -0.5371  0.8203
  459MOL0     N63256   9.538   8.419   5.709  0.0339  0.3471 -0.0601
  459MOL0     C63257   9.924   9.402   5.849 -0.1579 -1.0430  0.0814
  459MOL0     C63258   9.942   9.451   5.973  0.7151 -0.7807  0.4658
  459MOL0     C63259  10.125   9.528   6.380 -0.1711  0.1393 -1.0809
  459MOL0     C63260  10.222   9.632   6.362 -0.5079 -0.2322  1.2181
  459MOL0     C63261  10.305   9.668   6.466  0.7959 -0.0961 -0.3101
  459MOL0     C63262  10.291   9.611   6.599 -0.3326 -0.0132  0.0725
  459MOL0     O63263  10.377   9.625   6.716 -0.1332 -0.1752  0.7489
  459MOL0     C63264  10.487   9.712   6.700 -0.3737 -0.9445 -0.5682
  459MOL0     C63265  10.583   9.694   6.822  0.6505 -0.1912 -0.3251
  459MOL0     C63266  10.691   9.791   6.838 -0.9802 -0.8790 -0.2565
  459MOL0     C63267  10.804   9.765   6.739 -0.3178 -0.4420 -0.2156
  459MOL0     C63268  10.887   9.886   6.705  0.9133  0.2609  0.1820
  459MOL0     C63269  10.950   9.977   6.664  0.2660 -0.4939  0.0636
  459MOL0     C63270  10.187   9.522   6.622  0.5800 -0.4675  1.0072
  459MOL0     C63271  10.103   9.478   6.511 -0.2336 -0.1180  0.3854
  459MOL0     C63272   9.987   9.385   6.532 -0.2029 -0.0682  0.1228
  459MOL0     H63273  10.270   9.507   5.964 -0.4416  3.0159 -1.3772
  459MOL0     H63274  10.234   9.381   5.738  0.0714  1.9405 -0.1410
  459MOL0     H63275  10.051   9.151   5.692  3.6655 -1.2277  0.3060
  459MOL0     H63276  10.166   9.223   5.571 -0.8243  1.2270 -0.0805
  459MOL0     H63277   9.871   9.136   5.504  0.5122  2.0485 -0.3597
  459MOL0     H63278  10.000   9.197   5.397  3.4101 -2.3560 -1.4012
  459MOL0     H63279  10.113   8.989   5.392  2.4521 -0.5544  2.5849
  459MOL0     H63280  10.083   8.954   5.562 -2.4055 -0.2615  0.0187
  459MOL0     H63281   9.884   8.956   5.332 -4.0809 -1.9743  0.9434
  459MOL0     H63282   9.982   8.814   5.369  0.3224 -1.2778  0.5620
  459MOL0     H63283   9.765   8.962   5.528 -2.3017 -1.6681  1.6756
  459MOL0     H63284   9.862   8.825   5.597 -3.8278  0.9686  1.8747
  459MOL0     H63285   9.667   8.816   5.360 -1.1776  1.0037  2.7186
  459MOL0     H63286   9.790   8.694   5.410 -0.1265 -1.3553 -1.9832
  459MOL0     H63287   9.549   8.634   5.467  1.0580 -1.6611 -0.4934
  459MOL0     H63288   9.543   8.782   5.558 -1.7264 -0.9443 -2.9880
  459MOL0     H63289   9.734   8.549   5.608  0.1646 -0.2032 -0.2703
  459MOL0     H63290   9.728   8.676   5.717  3.1464 -2.3078 -2.3349
  459MOL0     H63291   9.445   8.712   5.823  1.2639 -0.5216  1.2717
  459MOL0     H63292   9.244   8.425   5.955 -1.1873  0.0070  3.5229
  459MOL0     H63293   9.219   8.600   5.939  0.3930  0.0112 -1.3009
  459MOL0     H63294   9.421   8.474   6.126  0.7308  0.3692  1.4342
  459MOL0     H63295   9.412   8.640   6.082 -0.1467 -0.7625 -0.1495
  459MOL0     H63296   9.200   8.674   6.193  0.8131  0.2599  0.4041
  459MOL0     H63297   9.169   8.511   6.220 -1.9745  3.0353 -2.4280
  459MOL0     H63298   9.256   8.607   6.424  0.2340 -1.3789  1.5986
  459MOL0     H63299   9.377   8.499   6.363  0.2313  0.8387  0.1388
  459MOL0     H63300   9.582   8.907   6.318 -0.6352  0.3999  1.2512
  459MOL0     H63301   9.834   8.997   6.438 -0.5753  1.2169 -2.1043
  459MOL0     H63302   9.742   9.052   6.589 -2.8440  0.0134  0.1305
  459MOL0     H63303   9.670   9.070   6.437 -0.6643 -1.7841 -0.7404
  459MOL0     H63304   9.687   8.777   7.074  0.4247  1.2258 -0.1061
  459MOL0     H63305   9.834   8.802   7.285  1.5158  1.2781  1.0189
  459MOL0     H63306  10.184   8.876   7.401  0.4074 -3.7408  2.1824
  459MOL0     H63307  10.038   8.946   7.319  1.6452  1.1700  0.0186
  459MOL0     H63308  10.007   8.926   7.547  1.2817 -0.7531  1.1309
  459MOL0     H63309   9.900   8.798   7.477 -0.2789 -0.0050  1.0395
  459MOL0     H63310  10.148   8.677   7.514 -0.2634  1.5191 -2.2647
  459MOL0     H63311  10.014   8.647   7.630  1.9264  0.5012  3.1691
  459MOL0     H63312  10.073   8.840   7.770 -0.0956  1.7887 -0.7243
  459MOL0     H63313  10.189   8.893   7.650 -1.8036  0.4620 -1.7183
  459MOL0     H63314  10.197   8.628   7.801  1.5349 -1.4676 -3.0121
  459MOL0     H63315  10.313   8.704   7.686 -1.8245 -1.2130 -1.3908
  459MOL0     H63316  10.239   8.780   7.969  0.7569 -2.4400  0.2047
  459MOL0     H63317  10.334   8.893   7.873  3.7440 -0.1048  1.5768
  459MOL0     H63318  10.511   8.729   7.843  0.6184 -1.3860  1.2343
  459MOL0     H63319  10.403   8.618   7.943  1.2885 -0.3229  1.0763
  459MOL0     H63320  10.496   8.885   8.066  0.0943  0.4519 -0.6098
  459MOL0     H63321  10.619   8.766   8.033  0.7078 -0.6711  1.9004
  459MOL0     H63322  10.164   8.663   7.029  1.6408 -2.3529  1.6465
  459MOL0     H63323  10.017   8.659   6.846 -2.8935 -0.9644  0.1630
  459MOL0     H63324   9.645   8.599   6.711 -2.1269 -0.0041  0.7144
  459MOL0     H63325   9.480   8.548   6.536  0.4762  0.4398 -0.9704
  459MOL0     H63326   9.824   9.375   5.815 -0.9318  2.1915 -0.4953
  459MOL0     H63327   9.862   9.468   6.044  0.5131 -2.1989  0.6072
  459MOL0     H63328  10.232   9.677   6.264  2.3812  2.9601  2.7641
  459MOL0     H63329  10.385   9.741   6.458  1.4063 -0.5511  1.2115
  459MOL0     H63330  10.541   9.695   6.607  2.3258 -0.3879  0.8188
  459MOL0     H63331  10.448   9.815   6.706 -3.8386 -2.1736  0.1754
  459MOL0     H63332  10.636   9.602   6.794 -0.3285  0.0397 -3.3211
  459MOL0     H63333  10.514   9.686   6.906  0.5759 -0.9376 -0.4524
  459MOL0     H63334  10.662   9.895   6.831  0.5011 -0.3564  0.7265
  459MOL0     H63335  10.739   9.777   6.936  0.5597  4.1508 -0.0177
  459MOL0     H63336  10.761   9.733   6.643  0.2198  2.3335 -1.4648
  459MOL0     H63337  10.875   9.686   6.766  0.8460  0.0652 -1.6503
  459MOL0     H63338  10.992  10.063   6.614 -1.0421  0.6992  0.9469
  459MOL0     H63339  10.157   9.463   6.707 -2.4963 -2.6323 -1.3299
  459MOL0     H63340  10.001   9.278   6.517 -3.2605 -1.0035  2.8494
  459MOL0     H63341   9.958   9.390   6.638  0.3274  2.0939  0.2161
  459MOL0     H63342   9.898   9.415   6.477 -1.5644  0.8806  2.6812
  460MOL0     O63343   9.125   2.341   2.838  0.4835 -0.2465  0.0395
  460MOL0     C63344   9.062   2.314   2.734  0.4042 -0.3644  0.8489
  460MOL0     O63345   9.119   2.283   2.609 -0.1101 -0.1494 -0.2542
  460MOL0     C63346   9.251   2.236   2.594 -0.5435  0.1266  0.3202
  460MOL0     C63347   9.305   2.152   2.693 -0.4654 -0.9129  0.4087
  460MOL0     C63348   9.439   2.105   2.674  0.0959  0.2673 -0.5049
  460MOL0     C63349   9.519   2.140   2.560  0.5880 -0.2409 -0.8075
  460MOL0     O63350   9.646   2.105   2.549 -0.6771  0.1382 -0.1531
  460MOL0     C63351   9.688   1.965   2.547  0.6491  0.3907  0.5085
  460MOL0     C63352   9.672   1.905   2.403 -0.0299 -0.2300 -1.4272
  460MOL0     C63353   9.773   1.976   2.310  0.3728  0.3969 -0.3323
  460MOL0     C63354   9.925   1.984   2.332  0.1274 -0.1474 -0.0965
  460MOL0     C63355   9.986   1.841   2.338  0.4215 -0.3069  0.2961
  460MOL0     C63356  10.140   1.808   2.364 -0.4954 -0.2609 -0.5047
  460MOL0     C63357  10.209   1.891   2.479  0.0722  0.7158  0.7518
  460MOL0     C63358  10.350   1.827   2.526  0.6005  0.6651 -0.9749
  460MOL0     N63359  10.339   1.697   2.595  0.5244  0.0910  0.2626
  460MOL0     C63360  10.444   1.625   2.626 -0.1175 -0.4955  0.2385
  460MOL0     C63361  10.389   1.530   2.701  0.2724  0.5520 -0.1936
  460MOL0     C63362  10.462   1.403   2.761 -0.1268 -0.7646  0.8176
  460MOL0     C63363  10.424   1.278   2.669 -0.2188 -0.6073  0.5153
  460MOL0     C63364  10.458   1.145   2.719  0.4627  0.1375 -0.5753
  460MOL0     C63365  10.612   1.112   2.712 -0.3126 -0.4765  0.6583
  460MOL0     O63366  10.645   1.110   2.574 -0.3844  0.0897 -0.3314
  460MOL0     C63367  10.752   1.032   2.535  0.5606 -0.4748 -0.1806
  460MOL0     C63368  10.845   0.967   2.616 -1.0395 -0.3821 -0.4377
  460MOL0     C63369  10.927   0.859   2.575  0.3989 -0.6161  0.3827
  460MOL0     C63370  10.978   0.775   2.687 -1.3075  0.0866 -0.2203
  460MOL0     C63371  10.944   0.832   2.441 -1.6598 -0.0193  0.4199
  460MOL0     C63372  11.036   0.729   2.389 -0.1121  0.2526 -0.9480
  460MOL0     O63373  11.030   0.689   2.258 -0.4182 -0.6710 -0.0626
  460MOL0     C63374  11.118   0.598   2.195  0.5576  0.4617  0.8501
  460MOL0     C63375  11.141   0.476   2.245  0.1649  0.5494 -0.8949
  460MOL0     C63376  11.224   0.383   2.176  0.0887 -0.0657  0.8121
  460MOL0     C63377  11.288   0.413   2.053  0.6529  0.1359  0.3042
  460MOL0     O63378  11.370   0.320   1.995  0.5143 -0.2159 -0.0459
  460MOL0     C63379  11.433   0.349   1.871  0.3555  1.0107 -0.0436
  460MOL0     C63380  11.518   0.232   1.850 -0.8504 -0.1687 -0.0708
  460MOL0     C63381  11.576   0.223   1.716  0.1107  0.5116  0.1870
  460MOL0     C63382  11.667   0.101   1.701 -0.5873  0.2271  0.9722
  460MOL0     C63383  11.747   0.119   1.573  0.0570  0.4693 -0.0477
  460MOL0     C63384  11.878   0.032   1.568 -0.0632 -0.2096  0.3907
  460MOL0     C63385  11.841  -0.119   1.595 -0.3178  0.1565 -1.0679
  460MOL0     C63386  11.980  -0.195   1.580  0.0970  0.7298 -0.4547
  460MOL0    Cl63387  11.973  -0.368   1.644  0.3301 -0.1401 -0.2164
  460MOL0     C63388  11.257   0.537   1.992 -0.3257  0.5857  0.4057
  460MOL0     C63389  11.181   0.626   2.065  1.3220  0.3312 -0.2393
  460MOL0     O63390  11.124   0.685   2.466  0.1354  0.0929 -0.4133
  460MOL0     C63391  10.873   0.918   2.352 -1.3270 -0.2234 -1.1439
  460MOL0     C63392  10.781   1.017   2.396  1.0904 -0.6988 -0.1858
  460MOL0     N63393  10.252   1.539   2.693 -0.2618  0.1181 -0.7288
  460MOL0     N63394  10.218   1.639   2.629 -0.1260  0.6567 -1.1193
  460MOL0     C63395   9.464   2.232   2.473  0.6113 -0.1509  0.2821
  460MOL0     C63396   9.331   2.278   2.484  0.2462 -0.6872  0.6412
  460MOL0     C63397   8.913   2.331   2.738 -0.1609 -0.1173 -0.3759
  460MOL0     C63398   8.844   2.374   2.617  0.1074  0.6584  0.3019
  460MOL0     C63399   8.702   2.378   2.602  0.7530  0.0896 -0.3604
  460MOL0     C63400   8.624   2.351   2.712  0.7553 -0.2026  0.3381
  460MOL0     O63401   8.488   2.358   2.733  0.4339  0.1254  0.2088
  460MOL0     C63402   8.394   2.399   2.632 -0.5739 -0.2239 -0.1087
  460MOL0     C63403   8.358   2.294   2.527 -0.3105 -0.0524 -0.1787
  460MOL0     C63404   8.337   2.151   2.590 -0.2031 -0.3215 -0.7015
  460MOL0     C63405   8.197   2.096   2.574  0.5324 -0.8954  0.2345
  460MOL0     C63406   8.135   2.063   2.443 -0.8983  0.6589  0.0582
  460MOL0     C63407   8.084   2.040   2.337 -0.2742 -0.3158 -0.8268
  460MOL0     C63408   8.692   2.327   2.832 -0.0481  0.1139  0.2154
  460MOL0     C63409   8.827   2.317   2.848 -0.8233  0.2654 -0.6355
  460MOL0     C63410   8.886   2.263   2.994  0.5191 -0.2551  0.4747
  460MOL0     H63411   9.236   2.098   2.758 -2.2827 -4.1140 -3.6829
  460MOL0     H63412   9.482   2.035   2.745  3.9026  1.7242 -1.1079
  460MOL0     H63413   9.642   1.904   2.626  0.3504 -0.3476 -0.2172
  460MOL0     H63414   9.794   1.952   2.572  0.4570 -1.0055  0.6638
  460MOL0     H63415   9.717   1.806   2.393  2.1002  0.3202  1.5518
  460MOL0     H63416   9.566   1.912   2.374 -0.3983 -3.1855 -1.1753
  460MOL0     H63417   9.764   1.932   2.210 -0.8156  3.0571 -1.5041
  460MOL0     H63418   9.733   2.078   2.310 -2.2230 -0.5452 -1.0035
  460MOL0     H63419   9.969   2.027   2.241 -0.7124 -2.1680 -1.5364
  460MOL0     H63420   9.958   2.037   2.421  0.1285  0.0489 -0.2128
  460MOL0     H63421   9.955   1.796   2.244 -0.5817  1.1185 -0.0830
  460MOL0     H63422   9.934   1.788   2.418 -1.7334 -0.7214 -1.2960
  460MOL0     H63423  10.152   1.703   2.393 -5.0893 -0.1334  3.2040
  460MOL0     H63424  10.189   1.829   2.269 -0.0703  2.7748  0.2828
  460MOL0     H63425  10.149   1.877   2.569  0.4400 -0.5454  0.8271
  460MOL0     H63426  10.228   1.995   2.454 -2.4923  0.3539 -3.8989
  460MOL0     H63427  10.410   1.824   2.435  1.9113  1.2324 -0.1628
  460MOL0     H63428  10.401   1.898   2.592  2.6764 -1.0861 -0.5933
  460MOL0     H63429  10.550   1.644   2.609  0.0057 -1.6563 -0.4187
  460MOL0     H63430  10.428   1.389   2.864 -2.9297  1.1788  0.2612
  460MOL0     H63431  10.567   1.432   2.763 -0.9892  2.7574  1.7120
  460MOL0     H63432  10.320   1.280   2.633  1.1137  0.9938 -3.9381
  460MOL0     H63433  10.483   1.283   2.577  1.0504 -0.8773  1.3067
  460MOL0     H63434  10.421   1.130   2.821  2.3452 -0.2076  0.0907
  460MOL0     H63435  10.396   1.081   2.656 -2.6870  1.9394  0.4532
  460MOL0     H63436  10.672   1.194   2.752 -1.4648  0.1761  1.1258
  460MOL0     H63437  10.633   1.024   2.772 -1.3113 -0.9340  0.3732
  460MOL0     H63438  10.826   0.983   2.721 -3.3390 -4.6045  0.0316
  460MOL0     H63439  10.938   0.803   2.785 -1.1935 -0.6158  0.0374
  460MOL0     H63440  11.087   0.782   2.689 -1.4284  2.7906 -0.0457
  460MOL0     H63441  10.946   0.671   2.673  3.9762 -1.8495 -0.1390
  460MOL0     H63442  11.094   0.461   2.341  4.4625  3.1350  1.9460
  460MOL0     H63443  11.240   0.289   2.229  1.7170 -1.0630 -1.3059
  460MOL0     H63444  11.361   0.362   1.789  1.0137 -1.1487 -1.0429
  460MOL0     H63445  11.503   0.432   1.873  0.4614  0.9136  0.3203
  460MOL0     H63446  11.591   0.212   1.929 -0.5830  1.6564  0.1754
  460MOL0     H63447  11.456   0.142   1.865  0.5106 -0.7347  2.8100
  460MOL0     H63448  11.632   0.316   1.728  1.1521  0.2192 -1.9172
  460MOL0     H63449  11.504   0.247   1.637 -0.7332 -1.0846  0.4269
  460MOL0     H63450  11.617   0.004   1.691 -2.5515  1.0320  2.4514
  460MOL0     H63451  11.738   0.083   1.782 -1.4780 -3.5871  1.1140
  460MOL0     H63452  11.681   0.093   1.490 -1.9093 -3.2326  2.3982
  460MOL0     H63453  11.768   0.226   1.569 -0.5195  0.5693 -0.5603
  460MOL0     H63454  11.959   0.063   1.634  0.2430  1.9640 -0.8964
  460MOL0     H63455  11.917   0.036   1.466 -0.5081  1.5523  0.2583
  460MOL0     H63456  11.770  -0.159   1.521 -1.5782 -1.9750  1.1645
  460MOL0     H63457  11.805  -0.143   1.695  0.6670  1.4809 -0.3662
  460MOL0     H63458  12.056  -0.134   1.629 -0.2037  0.4538  0.3641
  460MOL0     H63459  12.007  -0.194   1.474 -0.5075 -3.0944 -0.7930
  460MOL0     H63460  11.314   0.555   1.902 -2.1253 -0.5959 -1.0306
  460MOL0     H63461  11.172   0.731   2.040  2.0016  0.0962 -1.5448
  460MOL0     H63462  10.893   0.889   2.250  1.6415  0.4382 -0.8617
  460MOL0     H63463  10.728   1.072   2.319 -0.0022 -1.4978 -0.0239
  460MOL0     H63464   9.525   2.264   2.390 -0.6617 -2.0227 -1.4922
  460MOL0     H63465   9.283   2.346   2.415  1.7434  2.2882  2.3482
  460MOL0     H63466   8.911   2.394   2.535  2.3944 -1.5960  1.4600
  460MOL0     H63467   8.646   2.420   2.519  0.7221 -0.6204 -0.7012
  460MOL0     H63468   8.306   2.435   2.687 -3.0211 -2.7452 -2.0742
  460MOL0     H63469   8.428   2.490   2.582  1.1731  1.2515  3.4254
  460MOL0     H63470   8.444   2.285   2.460 -0.4904 -1.5533 -0.2382
  460MOL0     H63471   8.280   2.340   2.466 -0.5999  0.6199  0.6808
  460MOL0     H63472   8.409   2.089   2.534  1.5682  3.1034 -2.5472
  460MOL0     H63473   8.368   2.151   2.695 -0.5119  0.6838 -0.6014
  460MOL0     H63474   8.145   2.174   2.631  2.0044 -1.0797  1.9002
  460MOL0     H63475   8.184   2.012   2.643  4.9353 -3.9991 -2.2061
  460MOL0     H63476   8.041   2.018   2.242 -1.0825  0.0311 -0.5561
  460MOL0     H63477   8.628   2.324   2.919 -1.9405  0.4846 -1.0923
  460MOL0     H63478   8.967   2.190   2.987  0.7248 -0.1143  1.2752
  460MOL0     H63479   8.920   2.351   3.049  1.4420  0.4793 -1.2072
  460MOL0     H63480   8.810   2.224   3.062 -1.1655  4.3343  1.6141
  461MOL0     O63481   9.367   0.923   4.755  0.5097 -0.6512 -0.0823
  461MOL0     C63482   9.325   0.987   4.660 -0.0985 -0.1757 -0.1462
  461MOL0     O63483   9.259   1.113   4.672  0.5079  0.1508  0.3883
  461MOL0     C63484   9.232   1.158   4.800  0.3622  0.0293  0.0542
  461MOL0     C63485   9.316   1.239   4.866  0.3614 -0.9185  0.0791
  461MOL0     C63486   9.286   1.292   5.001 -0.3382  0.2124 -0.4208
  461MOL0     C63487   9.149   1.252   5.049 -0.1373 -1.0499 -0.3083
  461MOL0     O63488   9.105   1.263   5.181  0.3581 -0.6146 -0.2351
  461MOL0     C63489   9.078   1.393   5.241  0.8548  0.5456 -0.0842
  461MOL0     C63490   8.957   1.463   5.178  0.3932  0.3161  0.4782
  461MOL0     C63491   8.938   1.602   5.245  0.6664  0.0903 -0.1669
  461MOL0     C63492   8.789   1.612   5.278 -0.4902  0.1902  0.4274
  461MOL0     C63493   8.732   1.533   5.398 -1.1142 -0.5541 -0.7463
  461MOL0     C63494   8.578   1.542   5.412  1.3053  0.5180  0.8850
  461MOL0     C63495   8.542   1.453   5.531  0.5339 -0.1733  0.4178
  461MOL0     C63496   8.389   1.444   5.551  0.0403 -0.0603 -1.0793
  461MOL0     N63497   8.351   1.340   5.645 -0.4868  0.7235  0.0623
  461MOL0     C63498   8.378   1.202   5.656  0.4084 -0.1326 -0.1246
  461MOL0     C63499   8.304   1.150   5.761  1.1954 -0.4038  0.0991
  461MOL0     C63500   8.299   1.004   5.797  0.3682 -0.1384 -0.5555
  461MOL0     C63501   8.157   0.955   5.816  0.1331 -0.0763  0.3181
  461MOL0     C63502   8.142   0.817   5.890  0.0533 -0.3351 -0.0136
  461MOL0     C63503   8.001   0.751   5.884  0.1881 -0.0261  0.0007
  461MOL0     O63504   7.939   0.707   6.005  0.3171  0.3848  0.0931
  461MOL0     C63505   7.898   0.796   6.099 -0.2597  0.1630  1.2988
  461MOL0     C63506   7.852   0.924   6.073 -0.7622 -0.2671 -1.1176
  461MOL0     C63507   7.811   1.017   6.172 -0.6214  0.9433  0.5275
  461MOL0     C63508   7.750   1.145   6.121 -0.1518 -0.8099 -0.4249
  461MOL0     C63509   7.826   0.982   6.307  0.5588 -0.1483 -0.2403
  461MOL0     C63510   7.788   1.068   6.419  0.5769 -0.6754 -0.1098
  461MOL0     O63511   7.867   1.059   6.532  0.5085  0.5856 -0.0309
  461MOL0     C63512   7.859   1.151   6.633 -0.8486 -0.0592  0.4933
  461MOL0     C63513   7.819   1.281   6.605  0.2144 -0.0161  0.5268
  461MOL0     C63514   7.837   1.382   6.701  1.3532 -0.4065 -0.4676
  461MOL0     C63515   7.900   1.349   6.829  0.2668 -0.1166  0.0576
  461MOL0     O63516   7.923   1.433   6.932 -0.9586  0.4635  0.6928
  461MOL0     C63517   7.844   1.545   6.934  0.2165 -0.6313  1.1438
  461MOL0     C63518   7.798   1.578   7.075  0.0216  0.5744 -0.0474
  461MOL0     C63519   7.730   1.451   7.136 -0.5323  0.3219 -1.0966
  461MOL0     C63520   7.696   1.469   7.288 -0.4328 -0.3288  1.1964
  461MOL0     C63521   7.642   1.351   7.358  0.6891 -0.0586  0.4224
  461MOL0     C63522   7.754   1.240   7.391 -0.8116  0.1688 -0.1505
  461MOL0     C63523   7.711   1.104   7.437 -0.0011 -0.1722  0.6885
  461MOL0     C63524   7.634   1.071   7.568 -0.5512  0.1066  0.1192
  461MOL0    Cl63525   7.720   1.129   7.718 -0.0726 -0.8139  0.0465
  461MOL0     C63526   7.935   1.213   6.856  0.2719  0.5805  1.0045
  461MOL0     C63527   7.914   1.115   6.755  0.1235  0.1929 -1.6590
  461MOL0     O63528   7.675   1.116   6.412  0.5340 -0.1614 -0.9284
  461MOL0     C63529   7.859   0.846   6.329  0.6688  0.0345  0.2205
  461MOL0     C63530   7.906   0.757   6.228 -0.0311 -0.5404  0.2228
  461MOL0     N63531   8.250   1.255   5.822 -0.0554 -0.1424 -0.3439
  461MOL0     N63532   8.272   1.368   5.755  0.2089  0.9129 -0.2869
  461MOL0     C63533   9.073   1.152   4.984  0.3452  0.2829  0.7345
  461MOL0     C63534   9.110   1.110   4.856  0.7659  0.7254  1.2159
  461MOL0     C63535   9.338   0.917   4.526 -0.1593 -0.2128  0.4024
  461MOL0     C63536   9.434   0.811   4.509  0.1460 -0.4700 -0.8206
  461MOL0     C63537   9.455   0.759   4.378  0.4025  0.5280 -0.5189
  461MOL0     C63538   9.381   0.803   4.277 -0.0274 -0.4831 -0.4554
  461MOL0     O63539   9.393   0.764   4.139 -0.3261  0.0078 -0.0542
  461MOL0     C63540   9.512   0.693   4.100 -0.5273  0.3967  0.8412
  461MOL0     C63541   9.476   0.547   4.100 -0.4403  0.2365 -0.1723
  461MOL0     C63542   9.608   0.469   4.124  0.6769  0.1414 -0.3109
  461MOL0     C63543   9.571   0.328   4.154  0.2016 -1.3056  0.6428
  461MOL0     C63544   9.692   0.253   4.203  0.8528 -0.9451 -0.1061
  461MOL0     C63545   9.787   0.201   4.255  0.0512 -0.0341  0.8414
  461MOL0     C63546   9.274   0.893   4.297 -0.5655  0.7214  0.0845
  461MOL0     C63547   9.255   0.952   4.414 -1.1613 -0.3519  0.9152
  461MOL0     C63548   9.148   1.051   4.415  0.8576 -0.3727  0.0042
  461MOL0     H63549   9.413   1.259   4.820  0.3474 -0.5960  0.1877
  461MOL0     H63550   9.351   1.357   5.060 -3.4917 -0.7759  4.8162
  461MOL0     H63551   9.166   1.457   5.230  0.4480  0.7324 -3.5055
  461MOL0     H63552   9.046   1.370   5.343  2.4072 -0.3759  0.2161
  461MOL0     H63553   8.976   1.482   5.072 -1.7035 -1.0459 -0.2089
  461MOL0     H63554   8.863   1.407   5.186  0.9742 -0.5921  1.0292
  461MOL0     H63555   8.993   1.611   5.339  1.1130  0.2753 -0.4425
  461MOL0     H63556   8.970   1.683   5.179  1.9341  0.6777  1.1105
  461MOL0     H63557   8.774   1.713   5.319 -1.8842  1.0905 -2.0937
  461MOL0     H63558   8.747   1.601   5.178  3.3499 -2.4375 -1.1519
  461MOL0     H63559   8.762   1.576   5.494 -2.8851 -2.7726  0.9204
  461MOL0     H63560   8.774   1.432   5.397 -0.4953 -0.3606  1.2726
  461MOL0     H63561   8.550   1.646   5.427 -1.7804  0.0712 -0.9368
  461MOL0     H63562   8.521   1.515   5.323 -1.5491  3.0274  1.7842
  461MOL0     H63563   8.589   1.501   5.618  0.3521  1.6536 -0.4546
  461MOL0     H63564   8.589   1.355   5.516 -3.5320 -2.0779 -1.3931
  461MOL0     H63565   8.358   1.536   5.601 -0.7474 -0.6532 -0.4629
  461MOL0     H63566   8.338   1.432   5.455 -2.0756  1.1513 -0.1750
  461MOL0     H63567   8.457   1.149   5.603  3.1317  2.7110  0.7413
  461MOL0     H63568   8.352   1.008   5.892  2.1670 -0.6137 -1.5053
  461MOL0     H63569   8.361   0.935   5.740  1.3866 -3.5900  4.1029
  461MOL0     H63570   8.097   1.028   5.871  1.2103  0.4138  0.8860
  461MOL0     H63571   8.098   0.943   5.725 -0.0198  1.3002  0.2128
  461MOL0     H63572   8.223   0.748   5.861  3.0407  1.1630  3.8768
  461MOL0     H63573   8.168   0.839   5.993  4.7054  0.4905 -1.1391
  461MOL0     H63574   7.930   0.820   5.839 -0.8021  2.3466  4.5826
  461MOL0     H63575   8.000   0.658   5.827 -0.0433 -0.5651  0.8577
  461MOL0     H63576   7.836   0.949   5.968 -1.8306 -1.1909 -1.1975
  461MOL0     H63577   7.659   1.159   6.180  1.6831  0.8826  2.2326
  461MOL0     H63578   7.736   1.139   6.013  0.4867 -0.6639 -0.5222
  461MOL0     H63579   7.815   1.231   6.142 -0.6239 -1.0367  2.4804
  461MOL0     H63580   7.772   1.304   6.509  3.0611 -1.4908 -1.3553
  461MOL0     H63581   7.806   1.483   6.678  2.4552  0.1514  0.4291
  461MOL0     H63582   7.907   1.628   6.901 -0.9279 -0.4906 -0.8490
  461MOL0     H63583   7.761   1.531   6.865  1.2523  0.7273 -0.4678
  461MOL0     H63584   7.886   1.602   7.135 -0.1448  0.2646  0.3244
  461MOL0     H63585   7.732   1.665   7.068 -4.7327 -2.6063  0.3886
  461MOL0     H63586   7.800   1.368   7.123 -1.4953 -0.7876  0.4138
  461MOL0     H63587   7.637   1.421   7.087 -0.5172 -2.0357  0.1505
  461MOL0     H63588   7.618   1.546   7.281 -2.3403 -2.0967  1.6866
  461MOL0     H63589   7.785   1.501   7.342 -0.6511  0.3403  1.1691
  461MOL0     H63590   7.597   1.383   7.453  0.6495 -0.7633  0.6497
  461MOL0     H63591   7.565   1.307   7.294  2.8028  1.3604 -3.3915
  461MOL0     H63592   7.805   1.301   7.466  0.1323  2.6958 -2.6950
  461MOL0     H63593   7.827   1.231   7.311  0.9195 -2.0434  1.5514
  461MOL0     H63594   7.800   1.039   7.436  2.0062  2.3701  1.5230
  461MOL0     H63595   7.636   1.067   7.367  2.3672 -1.6279 -1.2609
  461MOL0     H63596   7.637   0.962   7.576 -2.1251 -0.2194 -2.6422
  461MOL0     H63597   7.535   1.117   7.579 -0.8053  0.0007 -1.5834
  461MOL0     H63598   7.978   1.187   6.952 -1.2297 -1.7088  1.1399
  461MOL0     H63599   7.953   1.019   6.789 -1.0604  0.9223  2.3469
  461MOL0     H63600   7.855   0.816   6.433 -1.1784  1.7773  0.7241
  461MOL0     H63601   7.954   0.665   6.259  0.6523 -0.3391 -0.2386
  461MOL0     H63602   8.987   1.104   5.029 -1.4855  2.5516 -0.1428
  461MOL0     H63603   9.045   1.041   4.803  1.2150  0.5581  0.8801
  461MOL0     H63604   9.483   0.769   4.596 -3.3567 -1.7546  0.7403
  461MOL0     H63605   9.519   0.676   4.351  0.3518  0.3053  0.0450
  461MOL0     H63606   9.540   0.713   3.996  1.6562  0.0895  1.3247
  461MOL0     H63607   9.603   0.724   4.152  0.1364  2.7974 -1.5454
  461MOL0     H63608   9.444   0.519   3.999 -2.4439  1.5847  0.0378
  461MOL0     H63609   9.392   0.535   4.169 -0.5644  3.8629  0.5250
  461MOL0     H63610   9.686   0.472   4.047  3.7813 -0.4363  2.5964
  461MOL0     H63611   9.662   0.509   4.210 -0.3392  1.0579 -0.0905
  461MOL0     H63612   9.542   0.281   4.060  2.1316 -1.5892  0.1471
  461MOL0     H63613   9.486   0.311   4.221 -0.4120 -1.1201 -0.0810
  461MOL0     H63614   9.878   0.156   4.292  0.1378 -1.2878 -0.7779
  461MOL0     H63615   9.222   0.932   4.210  0.0865 -1.8572 -1.5867
  461MOL0     H63616   9.080   1.039   4.500  0.6636 -3.3670 -0.4752
  461MOL0     H63617   9.182   1.156   4.415 -1.8938  0.6034 -0.7426
  461MOL0     H63618   9.083   1.037   4.328 -1.1803 -1.9596  1.6796
  462MOL0     O63619   2.000   8.168   1.365  0.9845 -0.2301  0.3846
  462MOL0     C63620   2.102   8.178   1.427 -0.8505 -0.3566 -0.1262
  462MOL0     O63621   2.115   8.226   1.560 -0.2895  0.1817  0.0073
  462MOL0     C63622   2.005   8.274   1.632 -0.3626  0.8338  0.0625
  462MOL0     C63623   1.886   8.331   1.584  0.0714  0.0152 -0.5402
  462MOL0     C63624   1.780   8.368   1.675 -0.5583  0.1232 -0.1966
  462MOL0     C63625   1.793   8.350   1.810  0.4720  0.6131 -0.4642
  462MOL0     O63626   1.685   8.382   1.887 -0.3365  0.3030 -0.2087
  462MOL0     C63627   1.709   8.396   2.031  0.3178 -0.0232 -0.1841
  462MOL0     C63628   1.583   8.456   2.103 -0.6237  0.3389  0.0835
  462MOL0     C63629   1.560   8.606   2.093  0.3794  0.0177  0.3837
  462MOL0     C63630   1.422   8.645   2.150 -0.3514  0.1128  0.4327
  462MOL0     C63631   1.430   8.685   2.295 -0.0598 -0.4974 -0.7558
  462MOL0     C63632   1.301   8.734   2.354  0.9821 -0.0623 -0.6720
  462MOL0     C63633   1.198   8.626   2.394 -1.4166  0.8649 -0.0048
  462MOL0     C63634   1.253   8.489   2.449 -0.5605  0.1473  0.0252
  462MOL0     N63635   1.159   8.377   2.433 -0.3540 -0.2590  0.0251
  462MOL0     C63636   1.123   8.323   2.313  0.1304 -0.6489 -0.2835
  462MOL0     C63637   1.055   8.211   2.349  0.1510 -0.4439 -0.4688
  462MOL0     C63638   0.991   8.105   2.264  0.7010  0.5271  0.0445
  462MOL0     C63639   1.055   8.086   2.132  0.3034  0.2270 -0.2772
  462MOL0     C63640   0.999   7.969   2.054  0.7700  0.1447 -0.0635
  462MOL0     C63641   1.056   7.965   1.916  0.0653  0.5519  1.0534
  462MOL0     O63642   1.188   7.936   1.916  0.8614  0.9483 -0.4537
  462MOL0     C63643   1.255   7.957   1.799  0.5418 -0.3541  0.1042
  462MOL0     C63644   1.195   7.934   1.672 -0.6919  0.7746 -0.1547
  462MOL0     C63645   1.264   7.981   1.559 -0.7623 -0.9672  0.1702
  462MOL0     C63646   1.189   7.938   1.433  1.1011  0.1287  0.3144
  462MOL0     C63647   1.389   8.046   1.567  0.1135  0.2640 -0.1639
  462MOL0     C63648   1.467   8.080   1.449  0.3366 -0.2489 -0.1275
  462MOL0     O63649   1.555   8.185   1.470  0.3147  0.4408  0.3493
  462MOL0     C63650   1.627   8.228   1.365  0.5742  0.2862 -0.1893
  462MOL0     C63651   1.704   8.137   1.287  0.5709 -0.6233  1.1787
  462MOL0     C63652   1.760   8.185   1.163  1.3024 -0.0963 -0.3349
  462MOL0     C63653   1.730   8.313   1.113  0.2455 -0.5726  0.4748
  462MOL0     O63654   1.766   8.367   0.990 -0.8467 -0.3574 -0.8253
  462MOL0     C63655   1.826   8.274   0.894  0.8685 -0.0509 -0.8428
  462MOL0     C63656   1.981   8.278   0.919  0.8194  0.7175  0.1230
  462MOL0     C63657   2.053   8.193   0.817  0.0393  0.2831  0.0364
  462MOL0     C63658   2.029   8.244   0.672 -0.1450 -0.2247  0.1376
  462MOL0     C63659   2.107   8.145   0.578  0.1268 -0.1776  0.0985
  462MOL0     C63660   2.252   8.136   0.588 -0.4463 -0.8271 -0.2715
  462MOL0     C63661   2.313   8.126   0.445  0.7420 -0.0159  0.8804
  462MOL0     C63662   2.456   8.161   0.438 -0.0682  0.4689  0.1936
  462MOL0    Cl63663   2.485   8.349   0.440 -0.3016  0.2728  0.3785
  462MOL0     C63664   1.655   8.397   1.195  0.2061  1.1911 -0.0673
  462MOL0     C63665   1.614   8.358   1.325  0.6157 -0.4046  0.2313
  462MOL0     O63666   1.449   8.015   1.343 -0.1938  0.6430  0.6470
  462MOL0     C63667   1.441   8.078   1.692  0.6014  1.1474 -0.2514
  462MOL0     C63668   1.378   8.024   1.804  0.7490  0.4959  0.2423
  462MOL0     N63669   1.052   8.209   2.489  0.3580  0.0226  0.5494
  462MOL0     N63670   1.107   8.312   2.540 -0.2364 -0.4500 -0.0522
  462MOL0     C63671   1.914   8.294   1.861  0.2353  0.0462 -0.4341
  462MOL0     C63672   2.012   8.257   1.772  0.1905  1.0068  0.0051
  462MOL0     C63673   2.232   8.118   1.372 -0.1353  0.5747 -0.4100
  462MOL0     C63674   2.350   8.168   1.430  0.8826  0.3894 -0.4294
  462MOL0     C63675   2.478   8.129   1.383 -0.6865 -0.0539  0.5938
  462MOL0     C63676   2.486   8.039   1.275  0.8483 -0.1258 -0.5192
  462MOL0     O63677   2.600   8.006   1.216 -0.3953 -0.3129 -0.2851
  462MOL0     C63678   2.654   7.873   1.249 -0.1525 -0.3741 -0.0043
  462MOL0     C63679   2.694   7.884   1.391 -0.8856  0.8314  0.6714
  462MOL0     C63680   2.802   7.774   1.412 -0.3263 -0.0876 -0.8549
  462MOL0     C63681   2.754   7.632   1.372 -0.4502 -0.3746  0.4262
  462MOL0     C63682   2.855   7.525   1.392 -0.1924  0.3267 -0.8867
  462MOL0     C63683   2.925   7.424   1.395 -1.2966 -1.2026  0.4798
  462MOL0     C63684   2.370   7.986   1.224 -0.0723  0.3649 -0.0151
  462MOL0     C63685   2.244   8.028   1.262  0.4562 -0.3152  0.3805
  462MOL0     C63686   2.123   7.974   1.194  0.6705  0.4923 -0.0008
  462MOL0     H63687   1.871   8.334   1.476 -0.1728 -1.2849 -0.5520
  462MOL0     H63688   1.695   8.429   1.646  0.3234  1.1822 -0.5941
  462MOL0     H63689   1.787   8.471   2.043 -0.1115  0.0466  2.7643
  462MOL0     H63690   1.739   8.313   2.096 -2.0642 -1.7559 -1.1217
  462MOL0     H63691   1.499   8.395   2.069 -2.0191  3.5481 -2.8147
  462MOL0     H63692   1.604   8.439   2.209  2.5539 -0.7903 -0.6057
  462MOL0     H63693   1.638   8.672   2.130 -0.5118  1.3403 -0.0153
  462MOL0     H63694   1.558   8.624   1.985 -2.8038  1.4512  0.5555
  462MOL0     H63695   1.388   8.733   2.096  1.7528  0.7274  0.0296
  462MOL0     H63696   1.358   8.558   2.130  0.6329 -1.7655  4.3407
  462MOL0     H63697   1.504   8.766   2.288 -0.1462 -0.2222  1.0873
  462MOL0     H63698   1.468   8.607   2.361  0.5461  0.5316  0.1321
  462MOL0     H63699   1.320   8.789   2.446  2.7543 -0.7558 -0.5901
  462MOL0     H63700   1.259   8.809   2.286  1.0246  2.0214  1.4765
  462MOL0     H63701   1.143   8.595   2.304 -0.2013  3.4536 -1.7453
  462MOL0     H63702   1.126   8.664   2.467 -0.1746  1.4385  0.9577
  462MOL0     H63703   1.343   8.463   2.392  0.0540  2.4075 -0.1257
  462MOL0     H63704   1.283   8.499   2.554  3.8286  4.3158 -1.2787
  462MOL0     H63705   1.134   8.356   2.210  2.8214  2.6481  0.8476
  462MOL0     H63706   0.885   8.130   2.250  0.0745 -1.9998 -0.2320
  462MOL0     H63707   0.998   8.008   2.314 -0.4920 -0.2294 -1.1824
  462MOL0     H63708   1.047   8.180   2.076 -1.9909 -0.1747 -0.6936
  462MOL0     H63709   1.159   8.061   2.156 -0.9276 -4.3685  1.1530
  462MOL0     H63710   1.032   7.875   2.099  1.4747 -0.2818 -1.3995
  462MOL0     H63711   0.890   7.978   2.048  0.3180 -2.0404  2.7129
  462MOL0     H63712   0.995   7.895   1.858  0.1229 -0.9249  2.7024
  462MOL0     H63713   1.045   8.065   1.874  0.5181  0.4155  0.6014
  462MOL0     H63714   1.103   7.876   1.665  1.2555 -2.4576 -1.5275
  462MOL0     H63715   1.080   7.943   1.442  0.9702  1.0914 -1.2619
  462MOL0     H63716   1.195   7.832   1.405 -1.8213 -1.1993  3.9339
  462MOL0     H63717   1.193   8.006   1.347 -6.3899  0.0784 -0.7030
  462MOL0     H63718   1.727   8.036   1.319 -0.0043 -0.2970  2.7308
  462MOL0     H63719   1.809   8.115   1.096  2.9484  0.8511 -0.1873
  462MOL0     H63720   1.783   8.174   0.888 -1.1488  0.5658  1.6591
  462MOL0     H63721   1.808   8.321   0.797 -1.1818  0.7973 -0.1148
  462MOL0     H63722   2.011   8.383   0.917  0.6993  0.7465 -0.2752
  462MOL0     H63723   2.004   8.247   1.021  1.8163 -2.0562 -0.8416
  462MOL0     H63724   2.021   8.094   0.852 -1.6528  1.0548  0.7410
  462MOL0     H63725   2.159   8.201   0.845  1.1565 -3.4269 -2.3775
  462MOL0     H63726   2.067   8.346   0.670 -3.5479  1.1542  0.0006
  462MOL0     H63727   1.931   8.264   0.627  1.2945  4.0391 -1.5709
  462MOL0     H63728   2.065   8.044   0.583 -3.9671  1.2918 -0.7131
  462MOL0     H63729   2.082   8.183   0.479 -0.0135 -1.2197 -0.2826
  462MOL0     H63730   2.282   8.048   0.647 -0.5981 -2.6033 -2.7103
  462MOL0     H63731   2.294   8.221   0.642  2.4384 -0.9484 -2.1345
  462MOL0     H63732   2.262   8.199   0.382  1.1333 -0.7616 -0.3183
  462MOL0     H63733   2.296   8.024   0.410  1.8392 -0.4020  1.4209
  462MOL0     H63734   2.505   8.105   0.357 -0.2078 -0.5350  0.7928
  462MOL0     H63735   2.515   8.125   0.522 -2.3480 -0.1335  1.6104
  462MOL0     H63736   1.621   8.495   1.163 -3.0963 -0.2529 -1.4195
  462MOL0     H63737   1.552   8.428   1.380  1.1654 -0.6503  1.1734
  462MOL0     H63738   1.537   8.123   1.711  2.8864 -3.5147  0.7164
  462MOL0     H63739   1.410   8.043   1.906  1.0931  1.7889 -0.0979
  462MOL0     H63740   1.930   8.268   1.965  0.4677 -0.1076 -0.5081
  462MOL0     H63741   2.104   8.216   1.814 -1.4843 -4.2291 -0.6809
  462MOL0     H63742   2.331   8.257   1.489 -1.3178 -0.9475  1.0670
  462MOL0     H63743   2.566   8.182   1.416 -0.6001  0.8898 -1.0782
  462MOL0     H63744   2.578   7.794   1.241  1.0930 -2.0701  3.1632
  462MOL0     H63745   2.737   7.855   1.180 -1.1654 -0.1165 -1.3373
  462MOL0     H63746   2.607   7.869   1.456 -0.0955 -0.6650  1.4459
  462MOL0     H63747   2.746   7.975   1.421 -2.7832  1.6302  1.7279
  462MOL0     H63748   2.889   7.808   1.356 -0.0029  1.0916  0.3169
  462MOL0     H63749   2.836   7.767   1.515 -3.2673 -3.9477  0.0809
  462MOL0     H63750   2.737   7.632   1.264 -1.4678  3.0666  0.4792
  462MOL0     H63751   2.660   7.607   1.421  0.0020  2.3139  2.9625
  462MOL0     H63752   2.983   7.335   1.389  0.3314 -0.5818  4.4220
  462MOL0     H63753   2.365   7.908   1.148 -3.1622 -0.7475  1.1566
  462MOL0     H63754   2.111   8.038   1.106  2.2249  1.5456  0.5180
  462MOL0     H63755   2.136   7.872   1.156  4.5432  0.2786  1.4224
  462MOL0     H63756   2.040   7.959   1.263 -0.3062 -0.9647 -1.4290
  463MOL0     O63757   6.752   1.717  10.030 -0.1610 -0.2628 -0.0957
  463MOL0     C63758   6.668   1.688  10.114 -0.6312  0.3213 -0.1076
  463MOL0     O63759   6.664   1.565  10.180  0.3243  0.0659  0.2879
  463MOL0     C63760   6.738   1.465  10.127  0.0409  0.0644  0.1363
  463MOL0     C63761   6.698   1.381  10.026  0.7681  0.4041 -0.2103
  463MOL0     C63762   6.791   1.296   9.963  1.2244  0.7357  0.1845
  463MOL0     C63763   6.917   1.284  10.019 -0.1222 -0.2121  0.0495
  463MOL0     O63764   7.027   1.199   9.975 -0.0962  0.8094 -0.0796
  463MOL0     C63765   6.999   1.115   9.851  0.0143  0.2354 -0.4671
  463MOL0     C63766   7.096   0.993   9.834  0.2731  0.4289 -0.2076
  463MOL0     C63767   7.092   0.906   9.961 -0.2998  0.6690 -0.3833
  463MOL0     C63768   6.951   0.853  10.000  0.3687 -0.2011 -0.0084
  463MOL0     C63769   6.964   0.709  10.051  0.8927  0.2664 -0.1552
  463MOL0     C63770   6.825   0.664  10.112 -0.0863  0.2890 -0.1555
  463MOL0     C63771   6.829   0.514  10.142  0.1253 -0.8256  0.0388
  463MOL0     C63772   6.745   0.459  10.260  0.3418  0.1424  0.8038
  463MOL0     N63773   6.794   0.331  10.324  1.2063  0.1635  0.1041
  463MOL0     C63774   6.926   0.289  10.361 -0.2218 -0.3210 -0.3891
  463MOL0     C63775   6.915   0.161  10.415 -0.6242  0.2510 -0.1600
  463MOL0     C63776   7.033   0.083  10.481 -0.0814  0.2397  0.4315
  463MOL0     C63777   7.088  -0.044  10.415  1.1786 -0.1365 -0.1182
  463MOL0     C63778   7.092  -0.043  10.253  0.5424 -0.8635 -1.0836
  463MOL0     C63779   7.209   0.037  10.201  0.4169  0.7799 -0.2558
  463MOL0     O63780   7.217   0.172  10.239  0.7905  0.4969 -0.1300
  463MOL0     C63781   7.240   0.248  10.138  0.3385 -1.0938  0.6892
  463MOL0     C63782   7.365   0.306  10.124 -0.4654 -0.7045 -0.5825
  463MOL0     C63783   7.389   0.408  10.031  0.1608 -0.3004  0.6905
  463MOL0     C63784   7.520   0.479  10.043 -0.1753 -0.2670  0.2072
  463MOL0     C63785   7.294   0.436   9.928  0.2539 -0.1468 -0.1970
  463MOL0     C63786   7.317   0.537   9.827 -0.3894  0.1254  0.2305
  463MOL0     O63787   7.256   0.518   9.717  1.0573  0.7505  0.1382
  463MOL0     C63788   7.223   0.624   9.637  0.2753  0.1014  0.9165
  463MOL0     C63789   7.084   0.645   9.601  0.6939  0.0470  0.8138
  463MOL0     C63790   7.045   0.735   9.501  0.4147 -0.1172  0.1164
  463MOL0     C63791   7.144   0.816   9.439  0.4862  0.1771  1.0504
  463MOL0     O63792   7.118   0.913   9.343 -0.0483 -0.2761  0.7246
  463MOL0     C63793   7.019   1.011   9.376 -0.2736 -0.9024  0.5395
  463MOL0     C63794   7.102   1.117   9.447 -0.1018 -1.1450 -0.5236
  463MOL0     C63795   7.124   1.233   9.348  0.0645 -0.4974 -0.5211
  463MOL0     C63796   7.220   1.204   9.226  0.5846 -0.8103 -0.8997
  463MOL0     C63797   7.209   1.336   9.131 -0.6342 -0.1912 -0.4532
  463MOL0     C63798   7.282   1.463   9.188  0.9112 -0.4020  0.2703
  463MOL0     C63799   7.307   1.585   9.094  0.5353  0.8819 -0.4437
  463MOL0     C63800   7.347   1.713   9.176 -0.3646  0.6647  0.3047
  463MOL0    Cl63801   7.519   1.695   9.256  0.7419  0.4060 -0.4823
  463MOL0     C63802   7.285   0.794   9.473 -0.1967 -0.5712 -0.3264
  463MOL0     C63803   7.321   0.710   9.571  0.7570  0.0593 -0.4623
  463MOL0     O63804   7.371   0.640   9.861 -0.7365 -0.7766  0.2325
  463MOL0     C63805   7.173   0.363   9.927  0.6510  1.2545 -0.0547
  463MOL0     C63806   7.140   0.282  10.041  0.0961  0.1115 -0.7290
  463MOL0     N63807   6.782   0.142  10.431  1.0121 -0.5730  0.5401
  463MOL0     N63808   6.709   0.241  10.375 -0.5304  1.1218 -0.8848
  463MOL0     C63809   6.962   1.365  10.127 -0.1195  0.1166  0.1879
  463MOL0     C63810   6.862   1.455  10.175 -0.5677  1.1623 -0.1901
  463MOL0     C63811   6.554   1.779  10.142 -0.7659 -0.5431 -0.1557
  463MOL0     C63812   6.439   1.718  10.183  0.1989  1.0713 -0.7075
  463MOL0     C63813   6.325   1.790  10.217 -0.6512 -0.1263 -0.4643
  463MOL0     C63814   6.334   1.926  10.238 -0.5212 -0.0545  0.6629
  463MOL0     O63815   6.228   2.010  10.288 -0.4963 -0.7420  0.6113
  463MOL0     C63816   6.097   1.958  10.282 -0.6137 -0.8097 -0.5987
  463MOL0     C63817   5.994   2.073  10.311  0.0737 -0.0541  0.6411
  463MOL0     C63818   6.030   2.148  10.439 -0.4221 -0.6347  0.0303
  463MOL0     C63819   5.914   2.247  10.485  0.3696  0.3899  0.6110
  463MOL0     C63820   5.894   2.340  10.378 -0.4573  0.1127 -0.3239
  463MOL0     C63821   5.875   2.407  10.273  0.4893 -1.5678  0.6598
  463MOL0     C63822   6.452   1.993  10.196  0.0489  0.0741 -0.8427
  463MOL0     C63823   6.560   1.922  10.144  0.4171 -1.2927  0.2831
  463MOL0     C63824   6.670   2.008  10.089  0.4786 -0.4655 -0.4142
  463MOL0     H63825   6.594   1.392   9.998 -0.1454  1.6403  3.1968
  463MOL0     H63826   6.765   1.225   9.885  0.1344 -2.4406  3.1702
  463MOL0     H63827   7.012   1.179   9.764 -2.4892 -1.2170 -2.0059
  463MOL0     H63828   6.895   1.082   9.850 -0.7126  2.2788  0.9424
  463MOL0     H63829   7.065   0.932   9.748 -1.0199 -0.1239  0.6040
  463MOL0     H63830   7.198   1.027   9.816  0.6243 -1.0012 -1.0512
  463MOL0     H63831   7.160   0.823   9.942 -0.1521 -0.1757  3.2502
  463MOL0     H63832   7.139   0.955  10.047  0.2809 -1.7606  0.7758
  463MOL0     H63833   6.905   0.917  10.076 -0.3006 -3.0479  2.1423
  463MOL0     H63834   6.883   0.870   9.916 -1.0713 -0.1682  1.1357
  463MOL0     H63835   7.038   0.698  10.132  0.5976 -0.1333  0.0660
  463MOL0     H63836   7.008   0.652   9.969  3.3264  0.9873  0.5611
  463MOL0     H63837   6.797   0.724  10.200 -2.6018 -0.0527 -0.6337
  463MOL0     H63838   6.757   0.687  10.029 -0.3032 -0.6336 -0.2412
  463MOL0     H63839   6.934   0.496  10.168  0.6159 -0.7892 -1.7909
  463MOL0     H63840   6.811   0.457  10.050  0.6742 -0.1779 -0.4727
  463MOL0     H63841   6.735   0.529  10.343 -1.7586  0.7134  0.1162
  463MOL0     H63842   6.646   0.438  10.219  0.7194  1.3030 -0.7871
  463MOL0     H63843   7.023   0.331  10.334 -0.2514 -0.7211 -1.1499
  463MOL0     H63844   7.017   0.062  10.587  2.5467  0.4155  0.9330
  463MOL0     H63845   7.114   0.157  10.482 -0.7080  1.0091  3.4448
  463MOL0     H63846   7.192  -0.064  10.444  0.3436 -0.2364  3.3098
  463MOL0     H63847   7.035  -0.130  10.458 -2.5720  2.5371  1.0349
  463MOL0     H63848   7.083  -0.146  10.220  2.1431 -2.4558  2.8529
  463MOL0     H63849   7.002   0.011  10.221  1.2415  0.4967 -0.8350
  463MOL0     H63850   7.287  -0.013  10.258 -0.1966  2.2100  1.9655
  463MOL0     H63851   7.220   0.020  10.093  1.4787  2.3164 -0.4310
  463MOL0     H63852   7.438   0.289  10.202 -1.9596 -0.6262  0.8782
  463MOL0     H63853   7.580   0.474   9.951  0.0077 -1.1351  0.3660
  463MOL0     H63854   7.587   0.446  10.123 -0.7622 -1.4292  0.2452
  463MOL0     H63855   7.487   0.582  10.060 -1.1650 -0.6600  0.7459
  463MOL0     H63856   7.010   0.580   9.645 -1.5010  0.2946 -2.2162
  463MOL0     H63857   6.939   0.745   9.485  0.5522  0.1745 -0.6625
  463MOL0     H63858   6.977   1.056   9.285 -0.9851 -0.9506  0.8397
  463MOL0     H63859   6.940   0.974   9.442 -2.5322  1.5663 -0.5947
  463MOL0     H63860   7.048   1.144   9.538  0.9893  0.2796 -0.2620
  463MOL0     H63861   7.202   1.083   9.473 -0.8657 -2.4643  0.8104
  463MOL0     H63862   7.170   1.319   9.398  1.5215 -1.1089 -0.7548
  463MOL0     H63863   7.038   1.280   9.301  1.4773  1.5201 -1.2413
  463MOL0     H63864   7.190   1.116   9.168 -2.2952 -0.9518  0.5963
  463MOL0     H63865   7.322   1.190   9.261 -0.3406 -1.9554  1.5972
  463MOL0     H63866   7.261   1.302   9.041 -4.6475 -2.4878 -2.2236
  463MOL0     H63867   7.108   1.355   9.094 -1.6981 -3.0471  0.6900
  463MOL0     H63868   7.372   1.416   9.230  0.5193 -1.2457  0.1888
  463MOL0     H63869   7.225   1.498   9.275  0.0590 -3.1047  0.8925
  463MOL0     H63870   7.208   1.620   9.060  0.8069  1.9734 -0.1481
  463MOL0     H63871   7.378   1.567   9.012 -0.1360 -0.0133 -0.8494
  463MOL0     H63872   7.272   1.721   9.255 -1.7654 -3.1444 -0.4439
  463MOL0     H63873   7.339   1.809   9.123 -0.0139  0.3380 -0.3576
  463MOL0     H63874   7.353   0.866   9.430  0.2373 -0.6241  0.2595
  463MOL0     H63875   7.424   0.709   9.606  0.8069  0.1576 -0.6031
  463MOL0     H63876   7.095   0.379   9.853  0.4597  4.0321  0.5999
  463MOL0     H63877   7.045   0.232  10.055  0.5332  0.1419  3.9997
  463MOL0     H63878   7.063   1.354  10.164  2.7160  2.5166 -5.6132
  463MOL0     H63879   6.890   1.503  10.269 -3.4460 -0.1138  1.4504
  463MOL0     H63880   6.440   1.611  10.203  1.2622  1.2251  0.1697
  463MOL0     H63881   6.231   1.740  10.239 -0.9045  0.7929  0.6131
  463MOL0     H63882   6.085   1.913  10.183  0.1889 -3.3855  0.4044
  463MOL0     H63883   6.084   1.879  10.357 -2.4058  0.3638  0.3963
  463MOL0     H63884   5.890   2.042  10.323 -0.4623  1.2690 -0.3015
  463MOL0     H63885   5.991   2.130  10.217  1.1784 -3.3172 -1.5906
  463MOL0     H63886   6.037   2.075  10.520 -1.5759  0.8193  1.5197
  463MOL0     H63887   6.126   2.198  10.424  0.0376 -1.9139 -1.5634
  463MOL0     H63888   5.937   2.285  10.585  0.0794 -1.3084  1.3764
  463MOL0     H63889   5.829   2.179  10.500  1.5994 -1.6533 -1.0665
  463MOL0     H63890   5.843   2.471  10.194  0.7645 -1.4784  0.6187
  463MOL0     H63891   6.468   2.099  10.205  2.0914 -0.3197  0.8395
  463MOL0     H63892   6.645   2.115  10.082 -0.1056 -0.6103 -0.6381
  463MOL0     H63893   6.759   2.000  10.151 -1.5622 -0.3906  2.7374
  463MOL0     H63894   6.690   1.970   9.988  1.0279  1.4784 -1.0908
  464MOL0     O63895   7.627   9.416   4.895  0.3427 -0.3625 -0.1079
  464MOL0     C63896   7.651   9.534   4.911 -0.3089  0.0482 -0.2325
  464MOL0     O63897   7.601   9.615   5.004  0.6481 -0.8141 -0.0369
  464MOL0     C63898   7.485   9.580   5.076 -1.1256 -0.3235  0.0914
  464MOL0     C63899   7.377   9.509   5.031  0.2921  0.7230 -0.2298
  464MOL0     C63900   7.262   9.464   5.109 -0.6750  0.4675  0.3709
  464MOL0     C63901   7.283   9.499   5.251  0.4061 -0.0546  0.5818
  464MOL0     O63902   7.202   9.462   5.352 -0.2247  0.4065  0.9591
  464MOL0     C63903   7.064   9.482   5.319  0.0777  0.5307 -0.6999
  464MOL0     C63904   6.997   9.338   5.323  0.3434  0.9958  0.0413
  464MOL0     C63905   6.983   9.261   5.192 -0.4656 -0.0868  0.7433
  464MOL0     C63906   6.902   9.134   5.212  0.3517  0.1056 -0.5642
  464MOL0     C63907   6.898   9.037   5.085  0.5973 -0.2319 -0.7623
  464MOL0     C63908   6.794   8.931   5.103  0.8423  0.0425  1.1887
  464MOL0     C63909   6.649   8.985   5.075  0.8587  0.5954 -1.1016
  464MOL0     C63910   6.558   8.876   5.126 -0.5934 -0.7979 -0.0687
  464MOL0     N63911   6.420   8.932   5.120  0.2357  0.0371 -0.3079
  464MOL0     C63912   6.344   8.970   5.012  1.5541 -0.1058 -0.1059
  464MOL0     C63913   6.230   9.001   5.077  0.3838 -1.8638 -0.3670
  464MOL0     C63914   6.122   9.077   5.008  0.1554 -0.2356 -0.0754
  464MOL0     C63915   6.175   9.192   4.920 -0.7197  0.5004  0.1516
  464MOL0     C63916   6.264   9.288   4.988 -0.7348 -0.2833  1.0306
  464MOL0     C63917   6.277   9.408   4.888  0.1031  0.2140 -0.1639
  464MOL0     O63918   6.327   9.380   4.759 -0.6837  0.9033 -0.3691
  464MOL0     C63919   6.460   9.342   4.758  0.0214  0.2596 -0.5735
  464MOL0     C63920   6.483   9.218   4.700  0.9179 -0.2205  0.9084
  464MOL0     C63921   6.616   9.165   4.689  0.1472 -0.3804 -0.1761
  464MOL0     C63922   6.630   9.021   4.642  0.1932 -0.2645  0.0703
  464MOL0     C63923   6.724   9.239   4.747 -0.0799 -1.1276  0.9642
  464MOL0     C63924   6.871   9.214   4.724  1.0418  0.1566 -0.6629
  464MOL0     O63925   6.958   9.320   4.751  0.1851 -0.0570 -0.0444
  464MOL0     C63926   7.087   9.322   4.714  0.5499  0.3797 -0.4690
  464MOL0     C63927   7.198   9.260   4.786  0.0650  0.7351  0.1343
  464MOL0     C63928   7.332   9.259   4.731  0.3667  0.1394 -0.0799
  464MOL0     C63929   7.343   9.315   4.607 -0.5882 -0.1562  0.1498
  464MOL0     O63930   7.470   9.300   4.557  0.8963 -0.1046  0.5625
  464MOL0     C63931   7.524   9.417   4.507 -1.1686 -0.5166 -1.2564
  464MOL0     C63932   7.668   9.393   4.509 -0.9316  0.2244 -0.4954
  464MOL0     C63933   7.711   9.263   4.441 -0.6477  0.6746 -0.7709
  464MOL0     C63934   7.859   9.249   4.391  1.2593 -0.0640  0.6732
  464MOL0     C63935   7.962   9.244   4.498  0.4210 -0.3147 -0.1613
  464MOL0     C63936   8.095   9.210   4.437 -0.6464  0.1810  0.8355
  464MOL0     C63937   8.211   9.211   4.539  0.3893 -0.7383 -0.1155
  464MOL0     C63938   8.237   9.063   4.578  0.4621 -0.4531  0.3181
  464MOL0    Cl63939   8.388   9.050   4.678  0.2124 -0.1008 -0.0358
  464MOL0     C63940   7.241   9.389   4.538  0.0198  0.7076 -0.4808
  464MOL0     C63941   7.115   9.386   4.595 -0.3826 -0.1643  0.6780
  464MOL0     O63942   6.913   9.104   4.685 -0.0628 -0.0888 -0.0025
  464MOL0     C63943   6.698   9.356   4.821 -0.9214  0.0962 -0.8906
  464MOL0     C63944   6.566   9.414   4.814 -0.5249  0.5411  0.0685
  464MOL0     N63945   6.233   8.971   5.214  0.0755 -0.5539 -0.4209
  464MOL0     N63946   6.356   8.936   5.242  0.1161 -0.5288  0.9603
  464MOL0     C63947   7.390   9.565   5.292  0.0600  0.0451 -0.7871
  464MOL0     C63948   7.487   9.617   5.208  0.1032 -0.1052  0.1472
  464MOL0     C63949   7.749   9.593   4.818 -0.2337  0.4929  0.6310
  464MOL0     C63950   7.701   9.660   4.705 -0.6815 -0.7470 -0.3382
  464MOL0     C63951   7.786   9.716   4.619 -1.0192  0.1518 -0.2852
  464MOL0     C63952   7.928   9.712   4.627 -0.5204  0.3854  0.0317
  464MOL0     O63953   8.016   9.769   4.543 -0.0084  0.2855 -0.0947
  464MOL0     C63954   7.984   9.835   4.420 -0.1638  0.6486  0.0834
  464MOL0     C63955   8.104   9.827   4.325  0.7382 -0.3320 -0.1797
  464MOL0     C63956   8.222   9.895   4.387 -0.2628  0.1074  0.1555
  464MOL0     C63957   8.348   9.892   4.289 -0.4200 -0.3032  0.3628
  464MOL0     C63958   8.400   9.757   4.283  0.5568  0.3966 -0.0048
  464MOL0     C63959   8.437   9.638   4.295 -0.2425  0.0199 -0.9371
  464MOL0     C63960   7.972   9.653   4.746 -0.3065  0.3085 -0.8880
  464MOL0     C63961   7.889   9.594   4.841  0.1051 -0.4075 -0.8470
  464MOL0     C63962   7.949   9.527   4.964 -0.0491  0.8180 -0.3803
  464MOL0     H63963   7.369   9.486   4.925 -2.4980  2.0742 -0.4044
  464MOL0     H63964   7.186   9.409   5.055 -0.2247  2.2824 -2.2849
  464MOL0     H63965   7.045   9.546   5.232 -1.1180 -1.6214 -2.1047
  464MOL0     H63966   7.029   9.536   5.408 -0.3042  1.4718 -1.3978
  464MOL0     H63967   7.061   9.260   5.366 -1.9477 -1.4951 -0.7717
  464MOL0     H63968   6.906   9.344   5.385  0.3896  0.2928  0.1880
  464MOL0     H63969   6.920   9.312   5.118 -0.8832 -1.1173  0.3640
  464MOL0     H63970   7.080   9.240   5.145 -0.3734  2.6980 -0.5253
  464MOL0     H63971   6.959   9.084   5.290  0.4862 -0.8659 -1.2603
  464MOL0     H63972   6.800   9.158   5.246 -0.3440  0.9120 -2.9923
  464MOL0     H63973   6.995   8.988   5.086  1.6601  1.7604  0.2457
  464MOL0     H63974   6.894   9.101   4.996 -0.5866  1.9633  0.7727
  464MOL0     H63975   6.802   8.848   5.031 -2.6735  0.6213 -0.0813
  464MOL0     H63976   6.792   8.896   5.207  1.6803  0.9717  1.5260
  464MOL0     H63977   6.633   9.011   4.970  0.7030 -0.9031 -1.4643
  464MOL0     H63978   6.641   9.082   5.125 -1.8056  1.2451 -2.5933
  464MOL0     H63979   6.556   8.789   5.060 -2.6148  0.3033 -1.5271
  464MOL0     H63980   6.594   8.850   5.227 -0.0425 -1.3680 -0.4057
  464MOL0     H63981   6.359   8.975   4.905 -1.4952  1.2246 -0.5890
  464MOL0     H63982   6.064   9.125   5.087  1.0785  1.4351 -0.3716
  464MOL0     H63983   6.051   9.010   4.958 -2.5989  0.2886  2.8262
  464MOL0     H63984   6.229   9.146   4.836 -0.9141 -0.9192  0.7770
  464MOL0     H63985   6.083   9.239   4.886 -2.7822 -3.2402  0.0506
  464MOL0     H63986   6.221   9.325   5.081 -1.2292  1.2642  0.2349
  464MOL0     H63987   6.359   9.238   5.007 -0.2354  0.5822  0.8749
  464MOL0     H63988   6.178   9.453   4.874 -0.1143 -0.8014 -2.3017
  464MOL0     H63989   6.342   9.492   4.916 -0.1368  1.1536 -2.2844
  464MOL0     H63990   6.401   9.167   4.651  0.1069  3.3104 -1.8024
  464MOL0     H63991   6.608   8.951   4.724 -1.0964  1.3399  1.1520
  464MOL0     H63992   6.715   9.002   4.576 -1.0843  0.4228 -1.8653
  464MOL0     H63993   6.552   9.013   4.565 -0.3678  0.9261  0.5002
  464MOL0     H63994   7.168   9.205   4.875  2.6528  0.2520  0.7843
  464MOL0     H63995   7.420   9.227   4.785 -0.1579  3.8975  3.5485
  464MOL0     H63996   7.489   9.437   4.405  1.9963 -0.5394 -2.4400
  464MOL0     H63997   7.502   9.510   4.560 -0.7376 -2.5510  2.8995
  464MOL0     H63998   7.720   9.483   4.475 -1.8109  0.4835 -1.2107
  464MOL0     H63999   7.696   9.385   4.615  2.0499  3.1755 -0.8889
  464MOL0     H64000   7.649   9.233   4.357 -3.3257  2.3393  0.4675
  464MOL0     H64001   7.697   9.193   4.524  1.1785  2.1459  0.8905
  464MOL0     H64002   7.882   9.326   4.317  0.0046 -2.0638 -1.9771
  464MOL0     H64003   7.875   9.154   4.339  2.7127 -0.3066  1.4926
  464MOL0     H64004   7.972   9.335   4.559  1.3968 -0.1964 -0.4874
  464MOL0     H64005   7.937   9.159   4.562 -2.5368  0.2677 -0.4036
  464MOL0     H64006   8.111   9.284   4.359  2.1636 -1.5236 -0.3793
  464MOL0     H64007   8.097   9.119   4.376 -0.0516  1.0450 -0.4638
  464MOL0     H64008   8.177   9.272   4.624 -0.4848  0.0633 -1.0086
  464MOL0     H64009   8.303   9.249   4.493  0.7390 -3.5438 -2.0072
  464MOL0     H64010   8.250   8.998   4.491  3.1865  0.6347 -0.2094
  464MOL0     H64011   8.161   9.026   4.648  0.5516 -0.6231  0.3268
  464MOL0     H64012   7.261   9.424   4.437  3.0153 -2.5489 -1.2133
  464MOL0     H64013   7.038   9.431   4.534  1.5069  0.6008 -1.2929
  464MOL0     H64014   6.784   9.414   4.854  0.9636 -0.9357 -3.6360
  464MOL0     H64015   6.545   9.506   4.868  2.8900  0.1959  2.2383
  464MOL0     H64016   7.394   9.581   5.399 -1.6745  3.2398 -1.0915
  464MOL0     H64017   7.572   9.671   5.249 -1.6821  2.5440  0.5764
  464MOL0     H64018   7.594   9.677   4.702 -0.5602  1.4847  2.7145
  464MOL0     H64019   7.736   9.748   4.528  0.5619  0.2050 -1.1697
  464MOL0     H64020   7.893   9.802   4.369 -1.5657  3.1970  0.7233
  464MOL0     H64021   7.951   9.938   4.439 -0.2738  0.3057  1.9129
  464MOL0     H64022   8.092   9.886   4.233 -0.4584 -1.3891 -0.7231
  464MOL0     H64023   8.125   9.721   4.310  2.6915  0.3225 -2.9696
  464MOL0     H64024   8.199  10.001   4.400  1.1819  0.0862  4.4597
  464MOL0     H64025   8.255   9.859   4.486  3.4918 -2.1048 -1.6793
  464MOL0     H64026   8.422   9.947   4.347  1.2817 -2.9390  0.9092
  464MOL0     H64027   8.327   9.932   4.190  0.6944 -0.1470  0.1703
  464MOL0     H64028   8.473   9.539   4.313 -2.4534 -0.4519  1.5038
  464MOL0     H64029   8.079   9.641   4.762 -0.7567 -2.7892  0.6204
  464MOL0     H64030   7.932   9.420   4.973  3.2936  0.2486  0.5987
  464MOL0     H64031   8.053   9.552   4.985  1.0636 -2.7251 -1.1351
  464MOL0     H64032   7.911   9.570   5.058 -0.3782  0.7181 -0.4671
  465MOL0     O64033  11.544   3.084   2.041  0.4380  0.6775  0.1695
  465MOL0     C64034  11.421   3.084   2.059  1.0511  0.6222  1.0412
  465MOL0     O64035  11.354   3.127   2.169 -0.9649  0.4026 -0.1925
  465MOL0     C64036  11.430   3.185   2.267 -0.4988 -0.1114 -0.0415
  465MOL0     C64037  11.425   3.321   2.273 -0.1793 -0.2659 -0.5588
  465MOL0     C64038  11.521   3.383   2.359 -0.1164 -0.3135 -0.5835
  465MOL0     C64039  11.608   3.310   2.443 -0.1575 -0.4390 -0.5613
  465MOL0     O64040  11.699   3.369   2.535 -0.7128  0.4292 -0.8489
  465MOL0     C64041  11.674   3.503   2.585 -0.1649 -0.2106 -0.4313
  465MOL0     C64042  11.751   3.537   2.719  0.5826 -0.5278  0.0186
  465MOL0     C64043  11.863   3.635   2.698  0.5522 -0.0263 -0.5045
  465MOL0     C64044  11.994   3.567   2.646  0.7981 -0.5335  0.1548
  465MOL0     C64045  12.112   3.658   2.674  0.1226 -0.7014  0.3958
  465MOL0     C64046  12.124   3.790   2.587 -0.4834 -0.6026 -1.0313
  465MOL0     C64047  12.281   3.818   2.596  0.6058 -0.3393 -0.0320
  465MOL0     C64048  12.317   3.933   2.509 -0.7555  0.2493 -0.9055
  465MOL0     N64049  12.332   3.894   2.374  0.8411  0.0662  0.4000
  465MOL0     C64050  12.251   3.938   2.266 -0.4466  0.7181  0.2655
  465MOL0     C64051  12.324   3.904   2.155  0.1441 -0.7028  0.3203
  465MOL0     C64052  12.306   3.940   2.011  0.4029 -0.2648  0.3579
  465MOL0     C64053  12.328   4.094   1.969  0.1805  0.4147 -0.6579
  465MOL0     C64054  12.226   4.203   2.008  0.3480 -0.1025  0.1038
  465MOL0     C64055  12.091   4.190   1.936 -0.0560 -0.4679  0.1612
  465MOL0     O64056  12.032   4.311   1.927 -1.0537 -0.7551  0.7996
  465MOL0     C64057  11.903   4.317   1.875 -0.3847 -0.0683 -0.1894
  465MOL0     C64058  11.858   4.450   1.877  0.2453 -0.5193  1.1456
  465MOL0     C64059  11.732   4.483   1.817  0.6413  0.0203 -0.6616
  465MOL0     C64060  11.692   4.637   1.809  0.7144 -0.4548 -0.2053
  465MOL0     C64061  11.664   4.380   1.754  1.1877 -0.3924 -0.6554
  465MOL0     C64062  11.532   4.409   1.685 -0.6043  0.3835  0.3241
  465MOL0     O64063  11.522   4.368   1.552 -0.0624  0.0904 -0.4361
  465MOL0     C64064  11.401   4.369   1.492 -0.6264  0.5921 -0.1681
  465MOL0     C64065  11.330   4.246   1.470 -0.2410 -0.1190  0.5583
  465MOL0     C64066  11.219   4.253   1.379  0.4429  0.8281 -0.5910
  465MOL0     C64067  11.171   4.374   1.334 -0.5323  0.7241  1.0341
  465MOL0     O64068  11.061   4.368   1.261  1.0827 -0.7294 -0.0708
  465MOL0     C64069  11.008   4.498   1.223  0.3931  0.4826 -0.9001
  465MOL0     C64070  10.866   4.466   1.174  0.1885  0.1071  0.0886
  465MOL0     C64071  10.786   4.381   1.279  0.0115  0.0752 -0.1224
  465MOL0     C64072  10.796   4.224   1.264  0.0342 -0.7698  0.5375
  465MOL0     C64073  10.667   4.157   1.320 -0.1600  0.0728  0.6775
  465MOL0     C64074  10.640   4.005   1.302 -0.4292 -0.8260  0.1468
  465MOL0     C64075  10.537   3.953   1.396 -0.6747 -0.2380 -0.2150
  465MOL0     C64076  10.526   3.803   1.399  0.2065 -0.1157 -0.2992
  465MOL0    Cl64077  10.401   3.763   1.521 -0.7184 -0.3346 -0.1764
  465MOL0     C64078  11.238   4.494   1.374 -0.2725 -0.7568 -0.9303
  465MOL0     C64079  11.361   4.482   1.436  1.0376 -0.1316 -0.0753
  465MOL0     O64080  11.439   4.439   1.757  0.0449 -0.2522 -0.3154
  465MOL0     C64081  11.704   4.245   1.776 -0.2006  0.0518  0.2062
  465MOL0     C64082  11.830   4.216   1.836  0.8867  0.2713 -0.3335
  465MOL0     N64083  12.440   3.844   2.197 -0.4161 -0.2665 -0.1290
  465MOL0     N64084  12.450   3.842   2.323 -0.0919  0.4107  0.3523
  465MOL0     C64085  11.604   3.170   2.438  0.0938  0.4203 -0.9866
  465MOL0     C64086  11.505   3.112   2.358  0.6554 -0.2638  0.2165
  465MOL0     C64087  11.332   3.035   1.943 -0.8324  0.5455  0.3531
  465MOL0     C64088  11.206   2.982   1.970  0.5900  0.0650  0.3007
  465MOL0     C64089  11.119   2.929   1.870  0.1544  0.0310 -0.1580
  465MOL0     C64090  11.156   2.932   1.734  1.0216 -0.7280 -0.1287
  465MOL0     O64091  11.084   2.891   1.626 -0.0555 -0.0166  0.2177
  465MOL0     C64092  10.953   2.850   1.641 -0.8424 -0.3890  0.1256
  465MOL0     C64093  10.894   2.797   1.513 -0.5029 -0.0607  0.7083
  465MOL0     C64094  10.875   2.907   1.403 -0.2137  0.5115  0.0605
  465MOL0     C64095  10.847   2.848   1.268 -0.2165 -0.7224  0.1827
  465MOL0     C64096  10.813   2.959   1.176  0.3780 -1.1184  0.5276
  465MOL0     C64097  10.752   3.046   1.120  1.0907  0.1782  1.1524
  465MOL0     C64098  11.287   2.977   1.707 -0.1237  0.0913 -0.5850
  465MOL0     C64099  11.371   3.037   1.807 -0.3265 -0.1989  0.0229
  465MOL0     C64100  11.504   3.081   1.755 -1.3005  0.3909  0.4797
  465MOL0     H64101  11.358   3.388   2.221  0.3553 -0.2085 -1.1985
  465MOL0     H64102  11.516   3.492   2.353 -0.7906 -0.1926  1.3519
  465MOL0     H64103  11.569   3.498   2.614 -0.1928 -2.2456 -0.7415
  465MOL0     H64104  11.679   3.575   2.502  3.2423  2.5078  1.8056
  465MOL0     H64105  11.688   3.583   2.795 -1.6429  1.2775 -2.7123
  465MOL0     H64106  11.794   3.441   2.749  4.0037  0.4342 -1.3778
  465MOL0     H64107  11.840   3.714   2.627  0.3990 -0.5401 -1.0341
  465MOL0     H64108  11.888   3.684   2.793  4.5227 -2.6615  0.0443
  465MOL0     H64109  12.007   3.472   2.699  0.6485 -1.4613 -1.4060
  465MOL0     H64110  11.983   3.537   2.541 -2.1686  0.5291  0.0610
  465MOL0     H64111  12.204   3.600   2.675  1.0331  0.6031 -1.2203
  465MOL0     H64112  12.105   3.693   2.778 -2.1568 -1.5543  0.5852
  465MOL0     H64113  12.100   3.762   2.484 -0.5248 -1.4048 -0.8097
  465MOL0     H64114  12.065   3.875   2.622  1.4285  2.3283 -4.2068
  465MOL0     H64115  12.347   3.733   2.575  0.7389  0.3656 -2.8869
  465MOL0     H64116  12.295   3.833   2.703  2.1614 -2.2814  0.0943
  465MOL0     H64117  12.242   4.013   2.501 -1.0484 -0.1210 -2.0110
  465MOL0     H64118  12.409   3.978   2.548  0.9660 -3.8322  0.1843
  465MOL0     H64119  12.162   3.995   2.243 -1.9727 -1.1642  1.2231
  465MOL0     H64120  12.210   3.899   1.979  0.2292 -0.2216  0.8064
  465MOL0     H64121  12.389   3.885   1.965  1.1200  0.5115  0.6839
  465MOL0     H64122  12.421   4.117   2.024  0.5597 -0.3635 -0.9592
  465MOL0     H64123  12.365   4.099   1.866 -0.3565  0.2964 -0.8570
  465MOL0     H64124  12.211   4.211   2.116 -0.0445  0.1888  0.0306
  465MOL0     H64125  12.283   4.287   1.968 -0.4525 -0.2723 -1.4659
  465MOL0     H64126  12.102   4.148   1.835  2.9136  3.1488 -1.2487
  465MOL0     H64127  12.021   4.126   1.990 -2.5097  1.2218 -0.8113
  465MOL0     H64128  11.920   4.526   1.923 -0.0391 -0.6889  1.8264
  465MOL0     H64129  11.769   4.698   1.763  0.7084  0.2819  0.7347
  465MOL0     H64130  11.674   4.667   1.912  0.5299 -1.5582  0.1038
  465MOL0     H64131  11.598   4.645   1.754  0.1827  0.6466  0.8033
  465MOL0     H64132  11.357   4.148   1.509 -3.2080 -0.4269  2.1368
  465MOL0     H64133  11.158   4.166   1.356  0.5368  0.9038 -1.1249
  465MOL0     H64134  11.003   4.575   1.300 -1.7894 -1.2123  0.7843
  465MOL0     H64135  11.067   4.534   1.138  4.3106 -4.3863 -0.7269
  465MOL0     H64136  10.819   4.559   1.141  1.5113  0.1778 -1.7958
  465MOL0     H64137  10.879   4.403   1.085  3.2825  0.6914  0.0049
  465MOL0     H64138  10.678   4.401   1.278 -1.0695 -4.0907 -4.3612
  465MOL0     H64139  10.815   4.415   1.379  1.9278  2.9735 -1.5261
  465MOL0     H64140  10.882   4.185   1.318 -0.6767  0.0982  2.4130
  465MOL0     H64141  10.810   4.196   1.160 -1.2370 -2.2566  0.7198
  465MOL0     H64142  10.646   4.187   1.422 -0.9713 -1.0952  0.8672
  465MOL0     H64143  10.582   4.202   1.268 -1.8479 -3.4289  0.1040
  465MOL0     H64144  10.735   3.954   1.320 -0.8417 -1.3592  0.9010
  465MOL0     H64145  10.609   3.978   1.200 -3.0296  0.2534  0.5737
  465MOL0     H64146  10.441   3.986   1.353  0.2780 -0.8078 -2.9367
  465MOL0     H64147  10.557   3.979   1.500  0.8815 -3.3562  0.3799
  465MOL0     H64148  10.622   3.759   1.429  0.1455  0.1932  0.3579
  465MOL0     H64149  10.498   3.765   1.300  0.0751  2.1722 -1.1976
  465MOL0     H64150  11.189   4.589   1.355  1.1393  0.1364 -0.2830
  465MOL0     H64151  11.421   4.568   1.465  0.1578  0.1891  0.8500
  465MOL0     H64152  11.638   4.169   1.736  1.0234  0.3168 -2.4987
  465MOL0     H64153  11.856   4.112   1.850 -1.1614  0.0418  2.7286
  465MOL0     H64154  11.658   3.112   2.511 -1.2814 -1.2238 -1.2128
  465MOL0     H64155  11.495   3.004   2.368 -0.6834 -0.2518 -0.7131
  465MOL0     H64156  11.165   3.003   2.068  2.1560  0.2503  0.9460
  465MOL0     H64157  11.023   2.886   1.898  2.6789 -5.4733  1.4820
  465MOL0     H64158  10.958   2.768   1.714  2.4744 -2.9450 -2.6460
  465MOL0     H64159  10.893   2.933   1.679 -0.3485 -1.0291  2.5261
  465MOL0     H64160  10.799   2.752   1.545 -0.0511  0.0224  2.2589
  465MOL0     H64161  10.959   2.717   1.477  1.5178  2.1864 -0.9775
  465MOL0     H64162  10.787   2.968   1.425 -1.6944 -0.5681 -2.5227
  465MOL0     H64163  10.959   2.977   1.406 -0.1465  0.4419 -0.1758
  465MOL0     H64164  10.768   2.773   1.265 -0.4763 -0.4250 -0.6377
  465MOL0     H64165  10.936   2.789   1.241  1.6181  1.7422  0.5045
  465MOL0     H64166  10.700   3.115   1.056 -0.3539 -4.1432 -2.8857
  465MOL0     H64167  11.317   2.978   1.602  0.5609 -1.0232 -0.4208
  465MOL0     H64168  11.575   2.998   1.765 -0.9521  0.8207  1.7736
  465MOL0     H64169  11.492   3.135   1.660  3.6209  0.7011 -0.2322
  465MOL0     H64170  11.543   3.168   1.810  0.0432 -0.1285  0.3977
  466MOL0     O64171   7.318  11.299  11.527 -0.7911 -0.6593 -0.5510
  466MOL0     C64172   7.201  11.255  11.519 -0.2833 -0.0035  0.4310
  466MOL0     O64173   7.096  11.294  11.596 -0.2979 -0.2174 -0.5244
  466MOL0     C64174   7.126  11.386  11.694  0.2510  1.0068  0.5400
  466MOL0     C64175   7.225  11.360  11.798 -0.0252 -0.8783 -0.3034
  466MOL0     C64176   7.245  11.457  11.894  0.5534 -0.1945  0.0973
  466MOL0     C64177   7.182  11.586  11.896 -0.6329 -0.3293 -0.2727
  466MOL0     O64178   7.197  11.686  11.990  0.1323  0.4648 -0.3378
  466MOL0     C64179   7.334  11.718  12.021 -0.4957  0.2450  0.1685
  466MOL0     C64180   7.419  11.749  11.892  0.1079 -0.0768 -0.1295
  466MOL0     C64181   7.383  11.865  11.795  0.5560  0.4786 -0.5785
  466MOL0     C64182   7.394  12.008  11.865 -0.4139 -0.7417  0.2159
  466MOL0     C64183   7.316  12.120  11.795  0.5954 -1.0301  0.3386
  466MOL0     C64184   7.254  12.230  11.883  0.4774 -0.1491 -0.6154
  466MOL0     C64185   7.338  12.281  12.002 -0.4189  0.3399 -0.2310
  466MOL0     C64186   7.304  12.219  12.144 -0.5748 -1.0507 -1.1882
  466MOL0     N64187   7.375  12.299  12.236 -0.3955 -0.1843  0.4501
  466MOL0     C64188   7.333  12.423  12.279 -0.0830  0.6362  0.3294
  466MOL0     C64189   7.420  12.470  12.369 -0.1331 -0.5722  0.9005
  466MOL0     C64190   7.416  12.610  12.422  0.7516 -0.0604 -0.0477
  466MOL0     C64191   7.507  12.700  12.351 -0.3261  0.4441  0.3969
  466MOL0     C64192   7.522  12.843  12.411 -0.3834 -0.2638 -0.2408
  466MOL0     C64193   7.639  12.923  12.348 -0.6911 -0.4852 -0.3302
  466MOL0     O64194   7.762  12.856  12.350 -0.6665 -0.4088 -0.1405
  466MOL0     C64195   7.877  12.917  12.312 -0.7994  0.5718  0.0285
  466MOL0     C64196   7.986  12.838  12.274 -0.4231 -0.5418  0.2205
  466MOL0     C64197   8.109  12.889  12.231 -0.1440  0.1055  0.2904
  466MOL0     C64198   8.232  12.791  12.237 -0.7273  0.3857  0.2420
  466MOL0     C64199   8.122  13.030  12.210  0.5211  0.0531  1.3734
  466MOL0     C64200   8.236  13.095  12.142  0.0238 -0.4760  0.8567
  466MOL0     O64201   8.268  13.217  12.181  0.5397 -0.2487  0.8382
  466MOL0     C64202   8.367  13.300  12.145 -0.0566 -0.3836  0.0558
  466MOL0     C64203   8.423  13.381  12.246 -0.0094 -0.6870  0.5638
  466MOL0     C64204   8.513  13.483  12.207  0.0702  0.1095 -0.4723
  466MOL0     C64205   8.555  13.501  12.080  0.4534 -0.1418 -0.2497
  466MOL0     O64206   8.630  13.614  12.060 -0.4147 -0.5239  0.0197
  466MOL0     C64207   8.725  13.621  11.954 -0.0515  0.1709  0.4348
  466MOL0     C64208   8.847  13.702  11.998 -0.0404  0.5986 -0.3730
  466MOL0     C64209   8.955  13.598  12.032  0.1478  0.7200  0.7365
  466MOL0     C64210   9.080  13.670  12.074 -0.4074  0.6990 -0.1310
  466MOL0     C64211   9.090  13.713  12.221 -0.0247 -0.9786 -0.1177
  466MOL0     C64212   9.215  13.803  12.223  0.5801  0.7330  0.3819
  466MOL0     C64213   9.254  13.826  12.368 -0.0017 -0.5448 -0.0464
  466MOL0     C64214   9.367  13.932  12.376 -0.5432  0.3877  0.0306
  466MOL0    Cl64215   9.497  13.954  12.255  0.1268  0.6161  0.6524
  466MOL0     C64216   8.505  13.409  11.982 -1.5040  0.2230  0.5698
  466MOL0     C64217   8.410  13.313  12.009  1.1618  0.1876 -0.4136
  466MOL0     O64218   8.296  13.027  12.061 -0.0104 -0.2715  0.1201
  466MOL0     C64219   8.020  13.107  12.256 -0.0565 -0.2835 -0.2473
  466MOL0     C64220   7.899  13.056  12.304 -0.0272  0.5080 -0.2658
  466MOL0     N64221   7.524  12.368  12.374  0.1394  0.0651 -0.2196
  466MOL0     N64222   7.500  12.279  12.292 -0.1430 -0.0230  0.4587
  466MOL0     C64223   7.087  11.603  11.800  0.7086  0.3026  0.6275
  466MOL0     C64224   7.055  11.508  11.701  0.7216 -0.1928  1.2903
  466MOL0     C64225   7.180  11.134  11.428 -0.0016  0.3047 -0.6744
  466MOL0     C64226   7.046  11.098  11.402  0.7505 -0.0742  0.7571
  466MOL0     C64227   6.997  11.006  11.312 -0.0779 -0.5454 -0.1593
  466MOL0     C64228   7.093  10.924  11.263 -0.3063  0.0373  0.3119
  466MOL0     O64229   7.060  10.809  11.196  0.1253 -0.0002  0.7129
  466MOL0     C64230   6.926  10.768  11.180  0.1080  0.3646  0.4481
  466MOL0     C64231   6.898  10.662  11.288  0.2748  0.5176  0.4505
  466MOL0     C64232   6.885  10.726  11.419  0.2049 -0.8942 -0.1654
  466MOL0     C64233   6.867  10.621  11.535  0.6333  0.1131  0.2194
  466MOL0     C64234   6.730  10.570  11.555  0.9654  0.0008  0.3731
  466MOL0     C64235   6.612  10.558  11.565  0.0680 -0.5069 -0.1769
  466MOL0     C64236   7.227  10.935  11.308  0.0293 -0.6338 -0.1305
  466MOL0     C64237   7.279  11.043  11.382 -0.0900 -0.2535 -0.2188
  466MOL0     C64238   7.421  11.060  11.417  0.0791  0.3160 -0.5643
  466MOL0     H64239   7.289  11.273  11.796 -0.8682 -1.5266  0.1792
  466MOL0     H64240   7.326  11.435  11.963  0.2619  3.4754  1.8492
  466MOL0     H64241   7.372  11.625  12.063  0.6461 -1.1885 -3.6642
  466MOL0     H64242   7.349  11.791  12.101 -1.0025 -0.6873  1.1480
  466MOL0     H64243   7.512  11.776  11.944  1.0769  1.6912 -2.6015
  466MOL0     H64244   7.430  11.653  11.840 -0.4365  0.1650 -0.6938
  466MOL0     H64245   7.445  11.862  11.705  0.8440 -4.2880 -0.4619
  466MOL0     H64246   7.281  11.858  11.756  1.2936 -0.8568 -2.4249
  466MOL0     H64247   7.347  11.995  11.963 -0.1786  2.7347  0.8954
  466MOL0     H64248   7.499  12.035  11.878  1.5934 -6.4891 -1.2320
  466MOL0     H64249   7.229  12.074  11.747  0.3440  0.3476 -0.5764
  466MOL0     H64250   7.376  12.164  11.715 -0.5084  0.1323  0.1202
  466MOL0     H64251   7.230  12.316  11.820 -2.3880 -1.8030 -2.0275
  466MOL0     H64252   7.161  12.198  11.932  0.2363 -0.3807 -1.2120
  466MOL0     H64253   7.314  12.387  12.012  0.8837  0.5631  0.8278
  466MOL0     H64254   7.445  12.276  11.979  0.0056  3.5668  0.5290
  466MOL0     H64255   7.197  12.217  12.169 -0.0876 -0.3107  1.2495
  466MOL0     H64256   7.350  12.120  12.152  1.0989 -0.1808  1.2562
  466MOL0     H64257   7.246  12.469  12.233  0.9668 -0.7354 -3.3820
  466MOL0     H64258   7.444  12.602  12.527  0.0397 -2.3693  0.0290
  466MOL0     H64259   7.310  12.637  12.421 -0.4860 -4.2048 -0.2337
  466MOL0     H64260   7.599  12.644  12.333 -1.0541 -0.7657  0.2855
  466MOL0     H64261   7.467  12.721  12.251 -1.6701  4.4802  1.5955
  466MOL0     H64262   7.436  12.911  12.400 -1.5014 -1.2950  1.5664
  466MOL0     H64263   7.532  12.831  12.519 -1.4739 -4.2891 -0.4435
  466MOL0     H64264   7.614  12.955  12.246 -1.5419  2.5671  0.6990
  466MOL0     H64265   7.640  13.019  12.402  1.7037 -0.0363 -1.0592
  466MOL0     H64266   7.993  12.730  12.287 -2.4150 -0.9139 -1.2544
  466MOL0     H64267   8.239  12.737  12.142  0.7283  1.6177 -0.4017
  466MOL0     H64268   8.213  12.711  12.310  2.5236 -1.6536 -0.9237
  466MOL0     H64269   8.323  12.846  12.263  0.7680 -0.9293 -1.8977
  466MOL0     H64270   8.396  13.361  12.349  0.1213  2.2681  1.2390
  466MOL0     H64271   8.534  13.557  12.283  1.0241 -0.1098 -0.5155
  466MOL0     H64272   8.753  13.518  11.927  1.0764  0.8252 -1.0014
  466MOL0     H64273   8.674  13.665  11.869 -0.5130  2.3915  1.7873
  466MOL0     H64274   8.887  13.748  11.907  1.3955 -0.9504 -0.5730
  466MOL0     H64275   8.824  13.779  12.072 -1.0629 -0.0608  0.0135
  466MOL0     H64276   8.990  13.546  11.942  0.6239 -1.5124  2.1350
  466MOL0     H64277   8.914  13.521  12.098 -2.4544 -0.4919 -2.0670
  466MOL0     H64278   9.095  13.757  12.009  0.5425 -1.2267 -2.6927
  466MOL0     H64279   9.169  13.608  12.055  0.1134  2.3610 -4.2407
  466MOL0     H64280   8.999  13.763  12.257  0.2947  1.0919 -1.9766
  466MOL0     H64281   9.107  13.631  12.292 -2.8509 -0.2201  1.6090
  466MOL0     H64282   9.182  13.902  12.189 -0.0208  1.8268  3.6948
  466MOL0     H64283   9.294  13.762  12.160 -1.8137 -2.6525 -0.7018
  466MOL0     H64284   9.292  13.731  12.406  0.1480 -0.2765  0.4890
  466MOL0     H64285   9.168  13.864  12.424  0.5718  1.4752 -0.4567
  466MOL0     H64286   9.425  13.885  12.457 -0.4217  0.3659 -0.0700
  466MOL0     H64287   9.334  14.025  12.423  1.7745 -0.4662  3.7802
  466MOL0     H64288   8.531  13.435  11.879 -0.0800  1.2840  1.1630
  466MOL0     H64289   8.372  13.242  11.937 -0.3721  0.5395  0.0104
  466MOL0     H64290   8.027  13.215  12.255 -1.5619 -0.1640 -1.6539
  466MOL0     H64291   7.810  13.119  12.305 -0.5699 -0.2280  0.9231
  466MOL0     H64292   7.043  11.702  11.806  1.1616  0.5091  0.5771
  466MOL0     H64293   6.984  11.540  11.626  2.6858 -1.6042 -1.3217
  466MOL0     H64294   6.965  11.159  11.441  0.3563  0.2904 -0.5959
  466MOL0     H64295   6.891  10.998  11.289  0.1601 -0.9645 -1.1831
  466MOL0     H64296   6.849  10.846  11.180  0.4629  0.7711  2.4403
  466MOL0     H64297   6.927  10.716  11.084  0.5737 -0.8854  1.1110
  466MOL0     H64298   6.978  10.588  11.287 -1.6297 -1.7053  1.5850
  466MOL0     H64299   6.803  10.610  11.271 -1.4555  2.9740  1.9744
  466MOL0     H64300   6.975  10.785  11.438 -0.4887  1.1731 -2.7037
  466MOL0     H64301   6.798  10.792  11.424 -0.5107 -1.8118  4.6652
  466MOL0     H64302   6.897  10.665  11.631  3.8805  0.6645 -0.9059
  466MOL0     H64303   6.928  10.534  11.512  0.2629  0.4336 -2.1963
  466MOL0     H64304   6.505  10.558  11.562  0.0047 -1.0537  1.3217
  466MOL0     H64305   7.296  10.861  11.268  0.6259 -0.5531  0.7167
  466MOL0     H64306   7.468  11.151  11.380 -0.0333  0.2681 -0.8263
  466MOL0     H64307   7.441  11.041  11.523 -0.0036 -0.7673 -0.7319
  466MOL0     H64308   7.475  10.977  11.370 -0.4572 -0.9930  1.0030
  467MOL0     O64309  10.931   1.250   4.813  0.1424 -1.4523  0.2797
  467MOL0     C64310  10.814   1.230   4.806  0.1867 -0.5167 -0.6600
  467MOL0     O64311  10.725   1.244   4.906  0.4926 -0.6053 -1.0559
  467MOL0     C64312  10.762   1.232   5.036  0.6319  0.0903 -0.4252
  467MOL0     C64313  10.663   1.266   5.128  0.1727  0.0295  0.6044
  467MOL0     C64314  10.681   1.250   5.267  0.6474  0.3974  0.9244
  467MOL0     C64315  10.805   1.203   5.315 -0.1542  0.3477 -0.3872
  467MOL0     O64316  10.843   1.187   5.446  1.0907  0.4195 -0.2003
  467MOL0     C64317  10.750   1.224   5.544  0.9182 -0.6821  0.0083
  467MOL0     C64318  10.788   1.187   5.682 -0.3723  0.1982 -1.0397
  467MOL0     C64319  10.664   1.203   5.771 -0.8193  0.6203 -0.2513
  467MOL0     C64320  10.604   1.060   5.803  0.3634 -0.2121 -0.1679
  467MOL0     C64321  10.466   1.078   5.868 -0.8360  0.3740 -0.3334
  467MOL0     C64322  10.412   0.939   5.915 -0.5699  0.3571  0.1981
  467MOL0     C64323  10.259   0.932   5.943 -0.2036  0.2223 -0.2039
  467MOL0     C64324  10.229   1.032   6.057 -0.4739 -0.5170  0.9118
  467MOL0     N64325  10.087   1.026   6.098  0.2546  0.2397  0.5964
  467MOL0     C64326   9.972   1.033   6.019  0.0285  0.2164 -0.2050
  467MOL0     C64327   9.865   1.034   6.098 -0.8689 -0.5981  0.6104
  467MOL0     C64328   9.728   1.056   6.062 -1.0668 -1.4491  0.3360
  467MOL0     C64329   9.687   1.198   6.101 -0.3829  0.2072  0.0688
  467MOL0     C64330   9.533   1.229   6.099 -0.1120 -0.5194  0.0336
  467MOL0     C64331   9.447   1.133   6.182  0.5095 -0.2698 -1.2924
  467MOL0     O64332   9.312   1.169   6.170  0.3587 -0.4802 -0.1893
  467MOL0     C64333   9.236   1.116   6.269 -0.4949 -0.1890 -1.0663
  467MOL0     C64334   9.117   1.181   6.312 -0.1993 -0.3870  0.6215
  467MOL0     C64335   9.032   1.122   6.401 -0.1117  0.5607 -0.4818
  467MOL0     C64336   8.892   1.173   6.405  0.3724  0.3053 -0.4560
  467MOL0     C64337   9.068   0.996   6.458 -0.0778 -0.9207  0.4586
  467MOL0     C64338   8.976   0.924   6.547 -0.3135  2.1948 -0.0178
  467MOL0     O64339   8.922   0.992   6.640 -0.1954 -0.7764  0.4367
  467MOL0     C64340   8.826   0.953   6.735 -0.3410 -0.0944  0.1853
  467MOL0     C64341   8.808   1.028   6.851  0.5088 -0.1693 -0.1937
  467MOL0     C64342   8.703   1.002   6.947  0.1791 -0.5245 -1.3737
  467MOL0     C64343   8.615   0.892   6.921  0.4589  0.7356 -0.5434
  467MOL0     O64344   8.500   0.876   6.997  0.1076 -0.4197  0.3498
  467MOL0     C64345   8.487   0.935   7.126 -0.2046 -1.2321 -0.3521
  467MOL0     C64346   8.394   0.849   7.204  0.3295  0.2466 -0.0149
  467MOL0     C64347   8.298   0.931   7.285  0.2120  0.1078 -0.7034
  467MOL0     C64348   8.228   0.847   7.393 -0.0078  0.4036 -0.3789
  467MOL0     C64349   8.136   0.938   7.481  0.5057  0.3606  0.3627
  467MOL0     C64350   8.015   0.874   7.543  0.2839  0.2564  0.4808
  467MOL0     C64351   8.054   0.766   7.644  0.0536  0.1513 -0.2988
  467MOL0     C64352   8.067   0.623   7.588 -0.0561  0.2815  0.5393
  467MOL0    Cl64353   8.079   0.509   7.721 -0.1294 -0.2850  0.2766
  467MOL0     C64354   8.619   0.824   6.797 -0.3557  0.0340  0.2676
  467MOL0     C64355   8.723   0.861   6.707  0.8846 -0.2357  0.2610
  467MOL0     O64356   8.962   0.806   6.529 -0.4174 -0.5704 -0.7207
  467MOL0     C64357   9.176   0.932   6.415  0.1290 -0.0524 -0.3482
  467MOL0     C64358   9.265   0.989   6.326  0.0437  0.5658  0.0170
  467MOL0     N64359   9.908   1.012   6.231 -0.5389  0.8015  0.8621
  467MOL0     N64360  10.039   1.015   6.227 -0.2267 -0.3319 -0.2705
  467MOL0     C64361  10.906   1.169   5.222  0.0009  0.1670  0.4160
  467MOL0     C64362  10.881   1.179   5.087 -0.2216  0.5335 -0.9142
  467MOL0     C64363  10.760   1.182   4.682  0.9670 -0.4550  0.3514
  467MOL0     C64364  10.635   1.114   4.691  0.5397 -1.3494 -0.5852
  467MOL0     C64365  10.569   1.073   4.576  0.6646  1.0766 -0.1024
  467MOL0     C64366  10.626   1.096   4.451 -0.4651  0.6968 -0.4271
  467MOL0     O64367  10.568   1.073   4.329  0.0407 -0.1066  0.0074
  467MOL0     C64368  10.448   0.996   4.329 -0.8555 -0.0478  0.2230
  467MOL0     C64369  10.408   1.007   4.182  0.0480  0.4346 -0.8313
  467MOL0     C64370  10.277   0.933   4.151 -0.1486 -0.2704 -0.4728
  467MOL0     C64371  10.149   1.022   4.161  0.2415 -0.1187 -0.3692
  467MOL0     C64372  10.022   0.946   4.169 -0.5706  0.3449 -0.4158
  467MOL0     C64373   9.914   0.885   4.172 -0.7369  0.6258 -0.4413
  467MOL0     C64374  10.746   1.168   4.441  0.3054  0.2412 -0.7129
  467MOL0     C64375  10.822   1.203   4.551  0.5498 -0.2673 -0.0424
  467MOL0     C64376  10.952   1.275   4.517 -0.3093  0.2961 -0.3461
  467MOL0     H64377  10.566   1.297   5.092  0.3599  2.6692  2.0905
  467MOL0     H64378  10.608   1.285   5.339  1.6401  4.1691  0.2954
  467MOL0     H64379  10.654   1.174   5.527  0.1762  0.2647  1.2140
  467MOL0     H64380  10.731   1.331   5.540 -0.2008 -0.8915 -0.9254
  467MOL0     H64381  10.834   1.088   5.691  0.0517  0.4781  0.1572
  467MOL0     H64382  10.870   1.252   5.715 -0.7855  0.0019  0.4523
  467MOL0     H64383  10.699   1.252   5.862 -1.7560  1.4854 -0.3456
  467MOL0     H64384  10.605   1.282   5.723  0.7278  2.0211  0.0484
  467MOL0     H64385  10.594   1.014   5.704 -0.1390  0.7782 -0.5921
  467MOL0     H64386  10.677   1.005   5.863 -0.5373  1.0906  2.2821
  467MOL0     H64387  10.395   1.107   5.790 -1.2774 -0.6707 -0.3378
  467MOL0     H64388  10.461   1.157   5.943  0.7739  0.7930 -0.6374
  467MOL0     H64389  10.438   0.862   5.841  2.5390 -0.5576  2.0136
  467MOL0     H64390  10.472   0.888   5.992  0.2569 -1.5679 -1.6196
  467MOL0     H64391  10.229   0.830   5.967 -1.6526  0.4952 -0.7406
  467MOL0     H64392  10.216   0.960   5.847 -1.8217 -2.1346 -0.2389
  467MOL0     H64393  10.296   1.011   6.141  1.3683  3.3535  0.5973
  467MOL0     H64394  10.244   1.133   6.020 -0.7384 -0.6173  0.5262
  467MOL0     H64395   9.959   1.045   5.912  0.2173 -0.8178 -0.3484
  467MOL0     H64396   9.664   0.971   6.087 -3.8326 -0.1379 -1.7539
  467MOL0     H64397   9.728   1.058   5.953 -2.8126 -0.4930  0.3209
  467MOL0     H64398   9.727   1.208   6.202  1.0974 -0.1332 -0.4502
  467MOL0     H64399   9.740   1.270   6.038 -0.4106 -0.0748 -0.2823
  467MOL0     H64400   9.523   1.330   6.140  0.3802 -0.4780  0.0520
  467MOL0     H64401   9.495   1.240   5.997  1.8020  4.1243 -0.3894
  467MOL0     H64402   9.467   1.031   6.146 -1.9752 -1.6818  1.0300
  467MOL0     H64403   9.478   1.145   6.286 -0.6712 -0.9607 -0.8482
  467MOL0     H64404   9.089   1.275   6.264 -0.9689 -0.7331  0.3800
  467MOL0     H64405   8.879   1.252   6.480 -0.5710 -0.2998  0.0455
  467MOL0     H64406   8.821   1.093   6.429  1.2376 -0.9137 -1.7995
  467MOL0     H64407   8.856   1.222   6.314  1.0981  1.2657 -0.2506
  467MOL0     H64408   8.876   1.110   6.875  0.8012 -0.2046 -0.8695
  467MOL0     H64409   8.676   1.065   7.031 -2.4760 -2.9705 -0.2684
  467MOL0     H64410   8.578   0.939   7.187 -0.7003 -0.4827  0.3504
  467MOL0     H64411   8.458   1.039   7.115 -1.1727 -1.3655  0.7366
  467MOL0     H64412   8.338   0.778   7.142  0.7890 -1.0318  1.0105
  467MOL0     H64413   8.454   0.788   7.272 -0.2827  0.2135  0.5029
  467MOL0     H64414   8.232   0.976   7.211  1.4747 -1.4656 -2.8853
  467MOL0     H64415   8.332   1.023   7.333 -3.3778  1.0610  0.3055
  467MOL0     H64416   8.304   0.802   7.456  0.3206  2.7515  1.0317
  467MOL0     H64417   8.165   0.771   7.346 -0.3428 -0.6251  1.6290
  467MOL0     H64418   8.199   0.982   7.558 -0.0942  1.4832  0.2268
  467MOL0     H64419   8.091   1.015   7.418  2.5069  0.3300 -1.2216
  467MOL0     H64420   7.953   0.831   7.463 -0.8144 -0.0474  1.4561
  467MOL0     H64421   7.953   0.950   7.592 -2.6719 -0.5678 -1.6921
  467MOL0     H64422   7.978   0.768   7.723  0.3526  1.1660 -0.0326
  467MOL0     H64423   8.150   0.796   7.685  0.4767  0.5690 -1.5524
  467MOL0     H64424   8.157   0.597   7.531 -1.5309 -1.6776 -1.0708
  467MOL0     H64425   7.979   0.605   7.525 -0.1296  0.6738  0.5279
  467MOL0     H64426   8.539   0.754   6.776  0.7074 -0.2958 -3.2578
  467MOL0     H64427   8.722   0.810   6.611 -2.3158  0.5290 -0.2309
  467MOL0     H64428   9.182   0.827   6.445  1.3257  0.1908  0.2920
  467MOL0     H64429   9.338   0.921   6.283 -2.9029 -2.9160 -0.0407
  467MOL0     H64430  11.002   1.131   5.257 -0.3411  0.1597  1.3839
  467MOL0     H64431  10.962   1.150   5.021 -0.2341 -1.6890 -0.0506
  467MOL0     H64432  10.588   1.103   4.788  2.1255 -0.8216  0.2729
  467MOL0     H64433  10.477   1.016   4.581  0.6442  0.4514 -4.2869
  467MOL0     H64434  10.468   0.891   4.356  1.7729 -0.1650 -1.8168
  467MOL0     H64435  10.376   1.045   4.395  1.9579  2.2226  1.8194
  467MOL0     H64436  10.486   0.971   4.115 -1.2744 -1.6352 -1.3422
  467MOL0     H64437  10.395   1.113   4.157 -1.5757  0.1553 -1.2682
  467MOL0     H64438  10.286   0.913   4.044 -3.2901 -1.1209 -0.6771
  467MOL0     H64439  10.266   0.838   4.206  1.4076 -0.2570 -0.0907
  467MOL0     H64440  10.151   1.084   4.071 -0.1209 -0.9603 -0.9708
  467MOL0     H64441  10.155   1.096   4.241 -1.6242  1.3351 -1.4929
  467MOL0     H64442   9.826   0.835   4.136 -0.3316 -0.1099 -0.4257
  467MOL0     H64443  10.778   1.189   4.340 -2.8174  0.5603 -1.7219
  467MOL0     H64444  10.963   1.308   4.413  0.8674 -2.1085 -1.0640
  467MOL0     H64445  10.958   1.360   4.585 -5.2260  0.0488  0.7937
  467MOL0     H64446  11.035   1.208   4.540 -1.6341 -1.5763 -0.7293
  468MOL0     O64447  11.450   5.169   2.516 -0.6789 -0.2489  0.4398
  468MOL0     C64448  11.568   5.199   2.534  0.3597 -0.0254 -0.4386
  468MOL0     O64449  11.658   5.205   2.437  0.1680 -0.2102 -0.0124
  468MOL0     C64450  11.636   5.144   2.319  0.8163  0.3257  0.4334
  468MOL0     C64451  11.686   5.222   2.216  0.3085 -0.7650 -0.7608
  468MOL0     C64452  11.691   5.171   2.089  1.1442 -0.5889  0.7801
  468MOL0     C64453  11.661   5.039   2.059  0.4440  1.1461  0.2107
  468MOL0     O64454  11.687   4.997   1.935 -0.2331 -0.0888  0.3903
  468MOL0     C64455  11.593   5.061   1.840  0.4891  0.2091 -1.0998
  468MOL0     C64456  11.521   4.948   1.758 -0.5798  0.0383 -0.0217
  468MOL0     C64457  11.423   4.876   1.850  0.6881 -0.3268  0.6955
  468MOL0     C64458  11.343   4.778   1.765  0.4508  0.6294  0.8772
  468MOL0     C64459  11.200   4.753   1.814 -0.2491 -0.4104 -0.5974
  468MOL0     C64460  11.107   4.691   1.712  0.3834  1.0433 -0.1864
  468MOL0     C64461  10.962   4.698   1.762  0.8323 -0.5479 -0.4066
  468MOL0     C64462  10.870   4.638   1.649 -0.2259 -0.7606 -0.1729
  468MOL0     N64463  10.849   4.495   1.676  0.2001  0.2805 -0.4070
  468MOL0     C64464  10.926   4.393   1.626  0.7818  0.0243  0.5666
  468MOL0     C64465  10.862   4.279   1.671 -0.7887 -0.1684  0.6612
  468MOL0     C64466  10.914   4.138   1.654  0.2055 -0.1471 -0.1738
  468MOL0     C64467  11.021   4.110   1.754 -0.6006 -0.3197 -0.1541
  468MOL0     C64468  10.983   3.996   1.860 -0.7409  0.5005  0.1232
  468MOL0     C64469  10.861   4.029   1.946 -0.0410  0.1279  0.4527
  468MOL0     O64470  10.845   3.943   2.060  0.1999 -0.8499  0.0687
  468MOL0     C64471  10.746   3.847   2.054 -1.1873  0.1082 -0.0141
  468MOL0     C64472  10.679   3.790   1.945 -0.9577 -0.3151  0.6483
  468MOL0     C64473  10.623   3.668   1.960  0.3960 -1.0060  0.0244
  468MOL0     C64474  10.580   3.612   1.823 -0.0387  0.8738 -0.7995
  468MOL0     C64475  10.612   3.613   2.088 -0.8487 -0.6086  0.3634
  468MOL0     C64476  10.534   3.490   2.110  1.1119  0.5941 -0.1309
  468MOL0     O64477  10.575   3.411   2.214 -0.1824  0.9719  0.0638
  468MOL0     C64478  10.520   3.286   2.231  0.0922  0.1446  0.2530
  468MOL0     C64479  10.605   3.182   2.259 -0.8332  0.6396  0.9260
  468MOL0     C64480  10.563   3.042   2.295 -0.0926 -0.1413 -0.1058
  468MOL0     C64481  10.428   3.017   2.302  0.9100 -0.3065  0.6364
  468MOL0     O64482  10.379   2.883   2.323  0.7525 -0.4836  0.1854
  468MOL0     C64483  10.238   2.871   2.372 -0.3316 -0.3622 -0.1096
  468MOL0     C64484  10.205   2.727   2.395 -0.4239  0.0909  0.6989
  468MOL0     C64485  10.213   2.638   2.274 -0.7870 -0.3247 -0.2088
  468MOL0     C64486  10.092   2.630   2.186  0.5318 -0.1728  0.0480
  468MOL0     C64487  10.126   2.615   2.037  0.0512 -0.6483  0.0366
  468MOL0     C64488  10.229   2.501   2.017  0.4611 -0.1376 -0.3070
  468MOL0     C64489  10.272   2.474   1.877  0.6074 -0.4689  1.2567
  468MOL0     C64490  10.159   2.402   1.794 -0.0142 -0.1589  0.0298
  468MOL0    Cl64491  10.142   2.241   1.851  0.2985  0.6316  0.0570
  468MOL0     C64492  10.335   3.123   2.276 -0.4979  0.8136 -0.1214
  468MOL0     C64493  10.382   3.254   2.236 -0.4593  0.0462 -0.0358
  468MOL0     O64494  10.440   3.459   2.032 -0.1199  0.1045  0.0672
  468MOL0     C64495  10.683   3.664   2.196  0.7041 -0.4653  0.9678
  468MOL0     C64496  10.753   3.783   2.180  0.2914 -0.1894  0.4558
  468MOL0     N64497  10.754   4.314   1.749 -0.6678  0.2611  0.1868
  468MOL0     N64498  10.746   4.440   1.741  0.6823  0.0521 -0.3317
  468MOL0     C64499  11.599   4.962   2.155  1.0085 -0.4574 -0.2000
  468MOL0     C64500  11.582   5.008   2.288 -0.2609 -0.1305 -0.1054
  468MOL0     C64501  11.605   5.244   2.673  0.3215 -0.0581  0.3168
  468MOL0     C64502  11.735   5.243   2.715 -0.7651  0.4017  1.0978
  468MOL0     C64503  11.774   5.288   2.837 -0.2558 -0.1907 -0.1110
  468MOL0     C64504  11.688   5.354   2.928 -0.1945  0.6511 -0.1327
  468MOL0     O64505  11.732   5.398   3.046  0.8702  0.3268 -0.5153
  468MOL0     C64506  11.866   5.439   3.064  1.5653  0.8409 -0.1663
  468MOL0     C64507  11.873   5.597   3.054 -0.9195  0.6164  0.1791
  468MOL0     C64508  11.840   5.657   2.922 -0.7026  0.2200 -0.5922
  468MOL0     C64509  11.919   5.600   2.806  0.3730  0.1169 -0.5865
  468MOL0     C64510  12.065   5.595   2.827  0.0686  0.4145  0.2479
  468MOL0     C64511  12.174   5.613   2.867 -0.5033  0.0961  0.2765
  468MOL0     C64512  11.560   5.362   2.886  0.9741 -0.0744  0.2023
  468MOL0     C64513  11.516   5.315   2.764 -0.9235 -0.2004  0.9924
  468MOL0     C64514  11.374   5.343   2.725  0.7941 -0.5010  0.8544
  468MOL0     H64515  11.716   5.325   2.234  4.1003 -1.8443  0.0459
  468MOL0     H64516  11.736   5.232   2.011 -1.2605 -0.8146 -0.8987
  468MOL0     H64517  11.639   5.130   1.769 -0.6738 -0.2037 -2.2892
  468MOL0     H64518  11.510   5.117   1.885  2.4644  2.2070  0.2589
  468MOL0     H64519  11.456   4.984   1.678  0.9001  2.0737 -0.3834
  468MOL0     H64520  11.594   4.885   1.707 -2.8961 -2.8854  0.0193
  468MOL0     H64521  11.482   4.822   1.924  2.3210 -0.7966 -0.8663
  468MOL0     H64522  11.362   4.948   1.906 -0.0123 -2.5624  2.9714
  468MOL0     H64523  11.341   4.813   1.661  2.5581 -2.7565 -0.4630
  468MOL0     H64524  11.397   4.683   1.769 -0.9380 -0.1482  3.8310
  468MOL0     H64525  11.153   4.848   1.843  2.8705  0.8066  0.9819
  468MOL0     H64526  11.191   4.695   1.907 -0.0017  0.0566 -0.2757
  468MOL0     H64527  11.107   4.746   1.617 -1.0156  1.4739  0.0475
  468MOL0     H64528  11.158   4.596   1.691 -0.4603  0.5696 -0.1178
  468MOL0     H64529  10.929   4.802   1.773  1.9170 -0.1258 -1.0474
  468MOL0     H64530  10.936   4.646   1.855 -0.0516 -3.0113 -1.9272
  468MOL0     H64531  10.777   4.693   1.635  0.7217  0.5425 -1.8117
  468MOL0     H64532  10.920   4.647   1.552 -1.5489 -1.3122 -0.9293
  468MOL0     H64533  11.020   4.401   1.571  1.0508  3.3672  1.3550
  468MOL0     H64534  10.956   4.120   1.554 -3.2651 -2.5886 -1.3767
  468MOL0     H64535  10.826   4.075   1.669  0.1093  0.3316  1.4252
  468MOL0     H64536  11.117   4.087   1.706 -1.5992 -4.3894 -0.5692
  468MOL0     H64537  11.035   4.204   1.807  0.0865 -1.0333  0.9721
  468MOL0     H64538  10.979   3.897   1.814 -2.2763  1.6620 -2.4005
  468MOL0     H64539  11.072   3.983   1.923  0.3130  0.0456 -1.3954
  468MOL0     H64540  10.866   4.133   1.979  0.3844  0.6104 -1.0387
  468MOL0     H64541  10.771   4.026   1.885 -1.2448  0.1273  2.1694
  468MOL0     H64542  10.668   3.842   1.850 -2.0053  1.4402  1.6800
  468MOL0     H64543  10.475   3.579   1.828  0.0830  0.4866 -0.8054
  468MOL0     H64544  10.652   3.534   1.798 -0.7353 -2.3969  5.3366
  468MOL0     H64545  10.564   3.693   1.751 -0.4759  1.0920 -0.4629
  468MOL0     H64546  10.712   3.203   2.262 -0.0750 -2.7191  1.5279
  468MOL0     H64547  10.630   2.959   2.315  1.1331  0.7586 -0.3463
  468MOL0     H64548  10.234   2.913   2.473 -0.5382 -2.5932  0.8607
  468MOL0     H64549  10.166   2.921   2.306 -0.3651 -1.2988 -0.8031
  468MOL0     H64550  10.295   2.701   2.452  0.4125  2.6566  0.6661
  468MOL0     H64551  10.116   2.710   2.457  0.4375  0.0058  1.9475
  468MOL0     H64552  10.241   2.543   2.320 -0.6940 -0.0854  0.2279
  468MOL0     H64553  10.295   2.670   2.209 -0.9364 -1.8169 -1.1894
  468MOL0     H64554  10.043   2.725   2.212  2.7303  1.1641 -0.3590
  468MOL0     H64555  10.032   2.544   2.216  2.8008 -1.3607  1.4928
  468MOL0     H64556  10.038   2.584   1.980  0.0868 -1.5266  0.4351
  468MOL0     H64557  10.170   2.708   1.999 -0.5164  0.1471  1.2766
  468MOL0     H64558  10.182   2.409   2.054  0.8473 -0.3502 -0.3412
  468MOL0     H64559  10.324   2.526   2.064  1.6561 -0.5232 -2.4069
  468MOL0     H64560  10.366   2.419   1.874  0.2135 -1.1573  1.3333
  468MOL0     H64561  10.292   2.574   1.837  0.0398  0.2831  2.7860
  468MOL0     H64562  10.179   2.405   1.687 -3.0035 -0.3893 -0.6201
  468MOL0     H64563  10.063   2.453   1.804 -0.4118 -1.0641  1.0167
  468MOL0     H64564  10.229   3.108   2.263 -0.5494  1.9207 -1.2413
  468MOL0     H64565  10.316   3.339   2.231  1.5623  1.7334  0.3461
  468MOL0     H64566  10.666   3.616   2.292 -3.6239 -2.6314 -0.5744
  468MOL0     H64567  10.807   3.824   2.265  1.1334 -1.1142  0.3945
  468MOL0     H64568  11.569   4.861   2.128  1.8426 -0.8609  0.3774
  468MOL0     H64569  11.530   4.952   2.365 -0.2229 -2.3021 -1.5749
  468MOL0     H64570  11.814   5.190   2.661 -2.2207 -2.1352  1.3338
  468MOL0     H64571  11.876   5.256   2.857  0.2283  0.5661 -1.2724
  468MOL0     H64572  11.916   5.398   3.152  0.4881 -0.9195 -0.3432
  468MOL0     H64573  11.933   5.391   2.992  3.0090 -0.0763  1.7090
  468MOL0     H64574  11.979   5.608   3.078  0.0461  2.4175 -3.9591
  468MOL0     H64575  11.808   5.639   3.131 -1.4561 -0.8259  0.5440
  468MOL0     H64576  11.739   5.641   2.883  0.1116  0.2300 -2.8433
  468MOL0     H64577  11.865   5.763   2.935  2.8746 -0.4899 -0.5522
  468MOL0     H64578  11.905   5.666   2.720 -0.0553 -2.0069 -2.2307
  468MOL0     H64579  11.877   5.509   2.761  0.2340  0.2609 -0.7487
  468MOL0     H64580  12.275   5.605   2.901  0.1800 -3.0585 -2.0616
  468MOL0     H64581  11.493   5.417   2.951  0.6750  2.5756 -2.1907
  468MOL0     H64582  11.322   5.250   2.750 -0.9145  0.0409 -0.4730
  468MOL0     H64583  11.331   5.428   2.779  0.3130 -0.1106 -0.1146
  468MOL0     H64584  11.359   5.370   2.620 -3.0066 -1.0817  1.1103
  469MOL0     O64585  10.058   1.606   1.745 -0.0814 -0.4508 -0.0997
  469MOL0     C64586  10.068   1.721   1.789 -0.0726  0.1916 -0.2433
  469MOL0     O64587   9.965   1.814   1.779  0.6584  0.0715  0.2484
  469MOL0     C64588   9.854   1.797   1.695  0.6982  0.4749 -0.3326
  469MOL0     C64589   9.722   1.807   1.758  0.3255  0.0900  0.8631
  469MOL0     C64590   9.611   1.777   1.670 -0.5815 -0.1865  0.1559
  469MOL0     C64591   9.633   1.742   1.539  0.4439 -0.5313 -0.2073
  469MOL0     O64592   9.523   1.740   1.448 -0.2375  0.4318  0.5531
  469MOL0     C64593   9.497   1.626   1.362 -0.0192 -0.9441 -0.4026
  469MOL0     C64594   9.460   1.505   1.441 -0.2110 -0.1700 -0.3789
  469MOL0     C64595   9.467   1.391   1.344 -0.4747  0.2114 -0.5125
  469MOL0     C64596   9.460   1.243   1.409 -0.3345  0.5908 -0.2004
  469MOL0     C64597   9.520   1.207   1.550  0.2515 -0.5122 -0.7813
  469MOL0     C64598   9.672   1.222   1.549 -0.1368  0.8123  0.3841
  469MOL0     C64599   9.730   1.199   1.683 -0.4014 -0.6264 -0.1838
  469MOL0     C64600   9.695   1.291   1.803  0.1885  0.1728  0.8174
  469MOL0     N64601   9.787   1.282   1.915 -1.1483 -0.0794  0.0591
  469MOL0     C64602   9.873   1.388   1.949 -0.9087  0.3917  0.2222
  469MOL0     C64603   9.911   1.367   2.074  0.4269 -0.1497 -0.1974
  469MOL0     C64604   9.974   1.469   2.164  0.9292 -1.1366  0.5923
  469MOL0     C64605  10.125   1.453   2.164 -0.3883  0.1972  1.1249
  469MOL0     C64606  10.189   1.364   2.265  0.2650 -0.9935  0.2189
  469MOL0     C64607  10.346   1.396   2.270 -0.1709 -0.3632  1.1025
  469MOL0     O64608  10.401   1.384   2.132 -0.4812 -0.0329  0.1323
  469MOL0     C64609  10.453   1.263   2.101  0.4539  0.8023 -0.1182
  469MOL0     C64610  10.425   1.142   2.168 -0.0714  0.2071 -0.7704
  469MOL0     C64611  10.488   1.026   2.135  0.0626 -0.7752 -0.6521
  469MOL0     C64612  10.466   0.911   2.235  0.4050  0.0586 -0.5681
  469MOL0     C64613  10.565   1.021   2.013 -0.4497 -1.0931 -0.0135
  469MOL0     C64614  10.646   0.904   1.962  0.7024  0.3054  0.0011
  469MOL0     O64615  10.749   0.921   1.879  0.1614  0.1378  0.6563
  469MOL0     C64616  10.834   0.823   1.838 -0.2943 -0.1972 -0.5003
  469MOL0     C64617  10.879   0.715   1.911  0.6565 -1.2597 -0.5538
  469MOL0     C64618  10.969   0.626   1.850  0.1361  1.1594 -0.0848
  469MOL0     C64619  11.018   0.660   1.724 -0.6867 -0.0797 -0.2080
  469MOL0     O64620  11.104   0.574   1.662 -0.0640  0.6060 -0.1035
  469MOL0     C64621  11.041   0.469   1.594 -0.6207  0.6661  0.3525
  469MOL0     C64622  11.016   0.344   1.677  0.6480  0.6535  0.7136
  469MOL0     C64623  10.999   0.214   1.602  1.3470 -0.7735  0.4819
  469MOL0     C64624  11.086   0.107   1.657  0.5880 -0.4505 -0.3620
  469MOL0     C64625  11.033  -0.041   1.634 -0.0835 -0.3653  0.0717
  469MOL0     C64626  11.134  -0.135   1.688  0.1397  0.9896  0.4390
  469MOL0     C64627  11.127  -0.268   1.617  0.4091  0.6327 -1.0570
  469MOL0     C64628  11.222  -0.356   1.689 -0.2523 -0.6924  0.5049
  469MOL0    Cl64629  11.236  -0.525   1.621 -0.6850 -0.2264 -0.0171
  469MOL0     C64630  10.989   0.777   1.652  0.2420 -0.2719 -0.4674
  469MOL0     C64631  10.889   0.849   1.710 -0.2282 -0.1265 -0.6907
  469MOL0     O64632  10.601   0.795   2.001  0.0632  0.1915 -0.2788
  469MOL0     C64633  10.582   1.146   1.945  0.3070 -0.8372  0.9023
  469MOL0     C64634  10.518   1.266   1.982 -0.2847  0.3973  0.1819
  469MOL0     N64635   9.864   1.237   2.107 -0.7758 -0.1407 -0.1717
  469MOL0     N64636   9.798   1.185   2.008 -1.3000 -0.2804 -0.0753
  469MOL0     C64637   9.763   1.728   1.491 -0.4942 -0.1291 -0.0991
  469MOL0     C64638   9.871   1.749   1.569 -0.2148 -0.4399 -0.4864
  469MOL0     C64639  10.186   1.739   1.883  0.1643  0.6296  0.3995
  469MOL0     C64640  10.298   1.651   1.870  0.0557 -0.4192  0.2820
  469MOL0     C64641  10.415   1.667   1.933 -0.3954 -1.2062 -0.0489
  469MOL0     C64642  10.428   1.772   2.032  0.0857 -0.3851  0.0781
  469MOL0     O64643  10.551   1.815   2.080  0.5821  0.0448  0.2580
  469MOL0     C64644  10.641   1.701   2.111 -0.6957  0.2199  0.4142
  469MOL0     C64645  10.740   1.754   2.222 -0.4079  0.5417 -0.3422
  469MOL0     C64646  10.853   1.641   2.248 -0.5928 -0.0512 -0.1956
  469MOL0     C64647  10.894   1.630   2.393 -0.1250 -0.5587  0.6259
  469MOL0     C64648  10.929   1.499   2.432 -0.3953 -0.4391 -0.8443
  469MOL0     C64649  10.949   1.392   2.484  0.3294 -0.0233 -0.2554
  469MOL0     C64650  10.325   1.869   2.038  0.3345 -0.4864  0.6850
  469MOL0     C64651  10.199   1.852   1.969  0.2075  0.2466 -0.1743
  469MOL0     C64652  10.093   1.958   1.989 -0.5290  0.6951  0.1536
  469MOL0     H64653   9.711   1.824   1.865 -2.9582  2.9217  0.2531
  469MOL0     H64654   9.511   1.774   1.711 -0.6866  0.9852  0.0018
  469MOL0     H64655   9.593   1.606   1.314  0.9879 -0.4289  1.3184
  469MOL0     H64656   9.425   1.640   1.280  0.0662  1.0850 -0.1739
  469MOL0     H64657   9.522   1.486   1.529 -1.3974  1.2080  0.7944
  469MOL0     H64658   9.356   1.508   1.474  0.1517 -0.4984  0.8332
  469MOL0     H64659   9.378   1.401   1.281 -0.1354  3.9979 -0.6383
  469MOL0     H64660   9.552   1.399   1.276 -0.4384 -1.4559 -0.6898
  469MOL0     H64661   9.357   1.207   1.414 -0.6840  1.5852  3.6927
  469MOL0     H64662   9.506   1.176   1.337  0.6493 -0.6851  1.5490
  469MOL0     H64663   9.513   1.101   1.573  2.7016 -1.0423 -2.0908
  469MOL0     H64664   9.481   1.281   1.621 -0.2423  0.7154 -2.2830
  469MOL0     H64665   9.706   1.159   1.466  0.0963 -1.2998  2.0055
  469MOL0     H64666   9.693   1.328   1.531 -0.0936  1.0216  1.6041
  469MOL0     H64667   9.835   1.228   1.670 -1.2558  3.4090  0.5653
  469MOL0     H64668   9.733   1.092   1.705  1.1026 -0.4174  0.7797
  469MOL0     H64669   9.681   1.395   1.771  0.3823 -0.2396 -0.7134
  469MOL0     H64670   9.604   1.256   1.853  0.6576  0.1440  1.6580
  469MOL0     H64671   9.880   1.479   1.889 -2.6190 -0.1900 -0.9287
  469MOL0     H64672   9.941   1.461   2.268  1.2453 -0.1651  0.7759
  469MOL0     H64673   9.953   1.572   2.133  1.7706 -0.5218  1.9618
  469MOL0     H64674  10.160   1.412   2.068 -3.7414 -0.7034  0.1476
  469MOL0     H64675  10.162   1.554   2.180 -0.9836  0.8412 -1.1229
  469MOL0     H64676  10.139   1.388   2.359 -1.1235  0.7914 -0.9137
  469MOL0     H64677  10.169   1.259   2.241  1.1578 -1.0483 -0.3486
  469MOL0     H64678  10.366   1.496   2.309 -0.1477 -0.2610  0.8323
  469MOL0     H64679  10.392   1.334   2.348  4.2129  1.6180  0.4104
  469MOL0     H64680  10.355   1.145   2.251  1.2544 -5.3585  0.9766
  469MOL0     H64681  10.402   0.949   2.316 -0.3349  2.3049 -2.1008
  469MOL0     H64682  10.562   0.876   2.273 -0.2547  1.5127  2.8693
  469MOL0     H64683  10.403   0.839   2.182 -0.0942  1.6960 -2.3322
  469MOL0     H64684  10.845   0.702   2.013 -1.2743  1.1930 -0.7925
  469MOL0     H64685  10.995   0.529   1.889  2.0710 -0.3684 -4.5312
  469MOL0     H64686  10.941   0.477   1.550 -1.2174 -4.4333  0.1740
  469MOL0     H64687  11.106   0.444   1.509  1.9944  2.4722  1.6785
  469MOL0     H64688  11.099   0.335   1.747 -0.3016  0.9340  1.9156
  469MOL0     H64689  10.935   0.355   1.750 -0.7856 -1.5036 -0.4350
  469MOL0     H64690  11.020   0.231   1.496  3.0287 -1.6526  0.6350
  469MOL0     H64691  10.895   0.183   1.617  1.6286 -3.1841 -1.7820
  469MOL0     H64692  11.116   0.132   1.759 -0.4971 -0.6233  0.0173
  469MOL0     H64693  11.179   0.106   1.599  0.6840 -1.3604 -0.2149
  469MOL0     H64694  10.943  -0.045   1.696 -1.3700 -0.8561 -1.7597
  469MOL0     H64695  11.005  -0.066   1.532  1.9756  0.0993 -0.6731
  469MOL0     H64696  11.105  -0.146   1.793 -0.7857  0.6734  0.1649
  469MOL0     H64697  11.232  -0.088   1.683  2.1121 -2.8600 -1.5338
  469MOL0     H64698  11.174  -0.261   1.519  3.7918 -0.6230  0.3241
  469MOL0     H64699  11.028  -0.313   1.613  1.3526 -1.6037 -0.5183
  469MOL0     H64700  11.201  -0.363   1.797 -1.3028  0.4333  0.3890
  469MOL0     H64701  11.318  -0.304   1.695 -2.0532  2.8151  4.3972
  469MOL0     H64702  11.031   0.796   1.554  1.0394 -1.2194 -0.3196
  469MOL0     H64703  10.854   0.933   1.651  0.9863  0.7757 -0.1516
  469MOL0     H64704  10.657   1.150   1.867  0.4103 -1.2929  0.9790
  469MOL0     H64705  10.543   1.356   1.926  2.6250 -1.1850 -1.3315
  469MOL0     H64706   9.776   1.696   1.388  0.6528 -1.0322  0.2994
  469MOL0     H64707   9.971   1.736   1.529  0.3377  0.1947  0.6331
  469MOL0     H64708  10.298   1.570   1.798  0.0982  0.7240 -1.0229
  469MOL0     H64709  10.503   1.609   1.906 -1.3052 -1.8906 -1.7055
  469MOL0     H64710  10.590   1.607   2.135  0.3090 -0.3587  0.3562
  469MOL0     H64711  10.699   1.696   2.018 -2.0235  0.6375 -0.4690
  469MOL0     H64712  10.685   1.768   2.315  0.3567 -1.9362  0.5875
  469MOL0     H64713  10.780   1.848   2.184 -1.8907  0.1575 -3.1401
  469MOL0     H64714  10.818   1.541   2.221 -0.8549  0.6234 -2.5433
  469MOL0     H64715  10.932   1.659   2.174 -0.1050 -0.2984  0.2538
  469MOL0     H64716  10.811   1.657   2.458 -1.6942  1.1821 -1.9130
  469MOL0     H64717  10.979   1.697   2.411 -0.8093  0.1931  1.1227
  469MOL0     H64718  10.960   1.287   2.502  0.9942 -0.4414 -2.7163
  469MOL0     H64719  10.331   1.946   2.114 -2.0435 -0.4502  0.9271
  469MOL0     H64720  10.120   2.037   2.059  0.1513 -0.4794  1.2682
  469MOL0     H64721  10.075   2.005   1.892 -0.8351  1.8095  0.7345
  469MOL0     H64722  10.001   1.910   2.025  1.3270 -2.3384  1.2823
  470MOL0     O64723   6.310   2.463   5.186  0.2718 -0.2204  0.3695
  470MOL0     C64724   6.264   2.554   5.112  0.1459  1.3071  0.3442
  470MOL0     O64725   6.158   2.550   5.029  0.4347 -0.0065  0.3830
  470MOL0     C64726   6.094   2.435   5.011  0.4132 -0.4822  1.2983
  470MOL0     C64727   6.040   2.357   5.112 -1.0272 -0.2407 -0.2143
  470MOL0     C64728   5.956   2.256   5.091  0.1463  0.2315  0.2276
  470MOL0     C64729   5.922   2.217   4.964 -0.2368 -0.0172  0.6693
  470MOL0     O64730   5.851   2.097   4.947  0.8501  0.3934 -0.0463
  470MOL0     C64731   5.882   2.003   4.844 -0.1978 -0.6132 -0.1935
  470MOL0     C64732   5.786   2.007   4.715  0.1694  0.6279 -1.0998
  470MOL0     C64733   5.828   1.911   4.599  0.8065  0.1021 -1.1271
  470MOL0     C64734   5.727   1.885   4.490  0.3860  0.6618  0.1484
  470MOL0     C64735   5.774   1.764   4.407  0.1252  0.0903 -0.3584
  470MOL0     C64736   5.712   1.638   4.472  0.3898 -0.4641  0.0552
  470MOL0     C64737   5.768   1.504   4.423  0.0700  0.0798 -0.1430
  470MOL0     C64738   5.908   1.484   4.457  0.0684 -0.8681  0.6224
  470MOL0     N64739   5.949   1.344   4.461 -0.7766 -0.6094 -0.2663
  470MOL0     C64740   5.945   1.266   4.578 -0.1290 -0.1921 -0.0438
  470MOL0     C64741   5.976   1.142   4.534 -0.3896 -0.1992  0.2574
  470MOL0     C64742   5.996   1.021   4.620 -0.0239 -0.1884 -0.2249
  470MOL0     C64743   5.955   1.041   4.769  0.1266 -0.1533  0.2411
  470MOL0     C64744   5.975   0.902   4.846 -0.4035  0.6203 -0.1835
  470MOL0     C64745   6.001   0.918   4.998  0.2850 -0.0255  0.2516
  470MOL0     O64746   6.113   1.010   5.027  0.3466  0.5283 -1.1104
  470MOL0     C64747   6.230   0.956   5.055  0.7627 -1.0045 -0.1625
  470MOL0     C64748   6.323   1.054   5.095  1.1741 -0.6242  0.7654
  470MOL0     C64749   6.460   1.026   5.133  0.0851 -1.0718 -0.5987
  470MOL0     C64750   6.543   1.131   5.205  0.5936 -0.2548  0.2656
  470MOL0     C64751   6.500   0.885   5.124 -0.0559 -0.7701  0.4914
  470MOL0     C64752   6.631   0.838   5.174 -0.2701  0.9099  0.3274
  470MOL0     O64753   6.648   0.709   5.228  0.3507 -1.0509  0.2031
  470MOL0     C64754   6.774   0.660   5.244 -0.0430 -0.5545 -0.4604
  470MOL0     C64755   6.883   0.681   5.146 -0.1004  0.6274  0.1999
  470MOL0     C64756   7.010   0.633   5.180 -0.0713 -0.2243  1.3723
  470MOL0     C64757   7.036   0.558   5.291 -0.2403  0.5947 -0.4479
  470MOL0     O64758   7.166   0.516   5.315  0.5581 -1.4316 -0.5006
  470MOL0     C64759   7.207   0.467   5.449  0.3931 -0.1147  0.1176
  470MOL0     C64760   7.355   0.442   5.487  0.6838  0.0552 -0.5345
  470MOL0     C64761   7.437   0.360   5.383 -1.2731 -1.2465 -1.0070
  470MOL0     C64762   7.591   0.383   5.401 -0.7056  1.1056 -0.5342
  470MOL0     C64763   7.671   0.288   5.312 -0.3377  0.1581 -0.4165
  470MOL0     C64764   7.820   0.318   5.307  0.4136 -0.0490  0.7900
  470MOL0     C64765   7.894   0.274   5.435  0.1359  0.3544  0.0601
  470MOL0     C64766   8.046   0.291   5.428  0.5357  0.1102 -0.2052
  470MOL0    Cl64767   8.095   0.457   5.432 -0.2773  0.0761  0.3510
  470MOL0     C64768   6.925   0.523   5.365 -0.5202  0.0151 -0.6184
  470MOL0     C64769   6.799   0.586   5.357 -0.1779  0.5372  0.7668
  470MOL0     O64770   6.717   0.917   5.158  0.6799  0.1951  0.2574
  470MOL0     C64771   6.402   0.791   5.067  0.5940 -1.5066  0.0365
  470MOL0     C64772   6.272   0.826   5.041 -0.4373 -0.8537 -0.7094
  470MOL0     N64773   6.011   1.146   4.403  0.2748 -0.4063 -1.4648
  470MOL0     N64774   5.993   1.271   4.364 -0.4674  0.9371 -0.1395
  470MOL0     C64775   5.954   2.300   4.857  0.0815 -0.5663 -0.5049
  470MOL0     C64776   6.046   2.408   4.877  1.0586 -0.5274  0.4255
  470MOL0     C64777   6.352   2.671   5.104  0.7513 -0.5421  0.2475
  470MOL0     C64778   6.302   2.784   5.158  0.8734 -0.7682 -0.6609
  470MOL0     C64779   6.384   2.903   5.172  0.4560 -0.1201 -0.1308
  470MOL0     C64780   6.513   2.904   5.124 -0.4439 -0.4658  0.2724
  470MOL0     O64781   6.583   3.017   5.172  0.4226 -0.0390  0.8177
  470MOL0     C64782   6.713   3.052   5.108  0.8214 -0.5912  0.7836
  470MOL0     C64783   6.690   3.134   4.970 -0.0144 -0.9229  0.1209
  470MOL0     C64784   6.611   3.266   4.994 -1.0246 -0.0590  0.4844
  470MOL0     C64785   6.708   3.383   5.010 -0.9278 -0.4905 -0.6689
  470MOL0     C64786   6.759   3.451   4.891  0.3845 -0.6117  0.7293
  470MOL0     C64787   6.805   3.515   4.801  0.3130  0.0023 -0.0476
  470MOL0     C64788   6.567   2.787   5.067  0.1641 -0.8686  0.8046
  470MOL0     C64789   6.486   2.674   5.062  0.3109  0.6026  0.0634
  470MOL0     C64790   6.549   2.547   5.012  0.0241 -0.8441 -0.4256
  470MOL0     H64791   6.077   2.369   5.214 -2.0794 -1.4133  0.3397
  470MOL0     H64792   5.909   2.211   5.177  0.0735 -0.7023 -0.2884
  470MOL0     H64793   5.901   1.905   4.889  0.4978 -0.5910 -0.4217
  470MOL0     H64794   5.977   2.042   4.807 -0.0895  1.7303  2.2190
  470MOL0     H64795   5.684   1.979   4.745 -0.7532  1.4176 -3.2894
  470MOL0     H64796   5.780   2.113   4.689 -3.2465  0.8938  0.2554
  470MOL0     H64797   5.916   1.959   4.556  2.9896 -0.5873  2.1815
  470MOL0     H64798   5.860   1.819   4.649 -2.4671 -2.1063 -2.7408
  470MOL0     H64799   5.627   1.866   4.532  0.7878 -0.8728  0.4540
  470MOL0     H64800   5.726   1.974   4.427  0.3373  2.0038  1.9436
  470MOL0     H64801   5.882   1.778   4.403  0.2106 -0.6270 -0.7162
  470MOL0     H64802   5.738   1.758   4.304  1.9432 -2.6656 -0.9527
  470MOL0     H64803   5.737   1.644   4.579 -1.8783  0.4473  0.6136
  470MOL0     H64804   5.604   1.642   4.455 -0.0603  1.4521  2.6845
  470MOL0     H64805   5.753   1.485   4.317  3.5406 -0.9625 -0.5914
  470MOL0     H64806   5.710   1.417   4.456 -0.2248 -0.2419 -1.4734
  470MOL0     H64807   5.968   1.543   4.387 -1.4109  1.2651  1.0592
  470MOL0     H64808   5.936   1.529   4.552  2.9357  1.0164 -0.9549
  470MOL0     H64809   5.913   1.298   4.677 -0.2671  1.2608 -0.5378
  470MOL0     H64810   6.104   1.001   4.621 -0.1057 -0.6625  0.9298
  470MOL0     H64811   5.940   0.938   4.574  0.3008 -1.3655  1.4212
  470MOL0     H64812   5.998   1.131   4.813  0.0279 -0.7698  1.6583
  470MOL0     H64813   5.847   1.053   4.784 -0.7021 -4.2893 -1.2469
  470MOL0     H64814   5.886   0.841   4.831  1.3026 -1.9665 -0.3459
  470MOL0     H64815   6.061   0.848   4.807 -0.9483 -2.3004  2.2222
  470MOL0     H64816   5.905   0.958   5.031  0.1765 -0.6974  0.7635
  470MOL0     H64817   6.007   0.823   5.053  0.6908  0.4175  0.9911
  470MOL0     H64818   6.286   1.154   5.116 -0.1768 -0.6158 -1.3817
  470MOL0     H64819   6.597   1.198   5.138  3.3346 -1.9618  0.6077
  470MOL0     H64820   6.611   1.079   5.273  2.5353  2.1765  0.3080
  470MOL0     H64821   6.476   1.181   5.275  1.1815 -2.0399  2.2087
  470MOL0     H64822   6.883   0.748   5.061  0.8709  2.3239  1.4656
  470MOL0     H64823   7.088   0.670   5.115 -1.8625  4.3686  1.4647
  470MOL0     H64824   7.167   0.537   5.523  0.5371 -1.0518  1.0889
  470MOL0     H64825   7.156   0.373   5.469  0.2256 -0.0377  0.0566
  470MOL0     H64826   7.398   0.542   5.493  2.1115 -0.6065  1.4895
  470MOL0     H64827   7.356   0.395   5.586 -0.2562  1.5795  0.2475
  470MOL0     H64828   7.402   0.388   5.283 -1.7398  0.6114 -0.3692
  470MOL0     H64829   7.440   0.254   5.411 -1.2415 -0.7690  0.9474
  470MOL0     H64830   7.615   0.372   5.507 -0.4551 -0.2437 -0.7093
  470MOL0     H64831   7.623   0.485   5.378 -0.8859  0.6860 -2.9226
  470MOL0     H64832   7.657   0.185   5.347  0.0194  0.9671  2.3960
  470MOL0     H64833   7.637   0.301   5.209 -0.8752  1.8604 -0.0615
  470MOL0     H64834   7.831   0.426   5.290 -1.8726 -0.0206 -1.1165
  470MOL0     H64835   7.863   0.262   5.224 -2.0879 -1.3937  0.3011
  470MOL0     H64836   7.873   0.167   5.444 -0.4195  0.3343 -1.2075
  470MOL0     H64837   7.845   0.322   5.520 -0.2609 -0.3644  0.2508
  470MOL0     H64838   8.080   0.238   5.339 -0.6520  0.3350 -0.8172
  470MOL0     H64839   8.102   0.241   5.507 -0.1023  1.8957  1.4564
  470MOL0     H64840   6.943   0.466   5.455 -2.7596  1.5905  0.9292
  470MOL0     H64841   6.723   0.540   5.420 -1.7827 -0.8053 -1.9911
  470MOL0     H64842   6.425   0.685   5.060  0.1365 -2.2072  5.1446
  470MOL0     H64843   6.202   0.748   5.015  0.0423 -1.8848  0.9257
  470MOL0     H64844   5.925   2.271   4.757  3.1175 -1.0172 -1.3761
  470MOL0     H64845   6.081   2.455   4.786 -2.2585  1.8799  0.2048
  470MOL0     H64846   6.201   2.781   5.196  1.5735 -5.4707  1.5549
  470MOL0     H64847   6.354   2.991   5.227  1.4337  0.1307  0.0268
  470MOL0     H64848   6.774   3.110   5.178  0.4157 -1.2476  1.6918
  470MOL0     H64849   6.771   2.962   5.084  1.0875 -0.5371  1.2108
  470MOL0     H64850   6.640   3.058   4.909 -2.2540 -1.2839  2.2476
  470MOL0     H64851   6.790   3.151   4.929 -0.0089 -5.0397 -2.0977
  470MOL0     H64852   6.556   3.284   4.902  0.6347 -2.8208 -1.2076
  470MOL0     H64853   6.531   3.265   5.068 -0.3046 -1.7974  1.3192
  470MOL0     H64854   6.793   3.350   5.071 -1.0016 -1.3229 -0.9988
  470MOL0     H64855   6.657   3.455   5.074  1.3179  0.2559  0.3925
  470MOL0     H64856   6.847   3.571   4.721  2.2563 -3.2675 -1.5320
  470MOL0     H64857   6.671   2.776   5.038  1.1028 -2.1670  4.2119
  470MOL0     H64858   6.646   2.570   4.967  1.5437  0.6175  3.2568
  470MOL0     H64859   6.557   2.481   5.099 -2.5585 -2.1346 -1.0489
  470MOL0     H64860   6.472   2.501   4.949 -3.0143  1.3597  1.3937
  471MOL0     O64861  11.429   8.929   0.118 -0.2717  0.9650  0.5504
  471MOL0     C64862  11.391   8.845   0.028 -0.0190  0.0123 -0.7051
  471MOL0     O64863  11.482   8.764  -0.040  0.1466 -0.0850 -0.4989
  471MOL0     C64864  11.606   8.741   0.023  0.3362 -0.5675 -0.2262
  471MOL0     C64865  11.651   8.611   0.026 -0.4176 -0.0678  0.5855
  471MOL0     C64866  11.773   8.573   0.080 -0.5276 -0.8159  0.4771
  471MOL0     C64867  11.854   8.679   0.125 -0.3554 -0.3765  0.4789
  471MOL0     O64868  11.992   8.644   0.146  0.0955  0.2647  0.4498
  471MOL0     C64869  12.082   8.679   0.042 -0.5736  0.2251  0.3543
  471MOL0     C64870  12.140   8.566  -0.054  0.5802 -0.9370  0.2006
  471MOL0     C64871  12.279   8.525  -0.021 -1.0375  0.2142  0.6164
  471MOL0     C64872  12.323   8.439  -0.145 -0.6047  0.1190  0.3885
  471MOL0     C64873  12.468   8.391  -0.136  1.0513  0.1302 -0.4364
  471MOL0     C64874  12.479   8.272  -0.242  0.0557  0.0047 -0.9205
  471MOL0     C64875  12.615   8.202  -0.232  0.4604  0.3881 -0.7943
  471MOL0     C64876  12.654   8.110  -0.347 -0.4091  0.0884  0.4528
  471MOL0     N64877  12.721   8.174  -0.464 -0.7430 -0.2645  0.1709
  471MOL0     C64878  12.811   8.276  -0.460  0.2851 -0.1066 -1.1075
  471MOL0     C64879  12.853   8.291  -0.589 -0.2284 -0.6320 -0.2382
  471MOL0     C64880  12.942   8.402  -0.642  0.0271  0.3223  0.5654
  471MOL0     C64881  13.086   8.376  -0.601 -0.2116 -1.0717  0.2274
  471MOL0     C64882  13.162   8.499  -0.648  0.0281  0.9395 -0.2999
  471MOL0     C64883  13.310   8.497  -0.607  0.4406  0.2259  0.8515
  471MOL0     O64884  13.378   8.388  -0.679 -0.2537  0.0671 -0.1320
  471MOL0     C64885  13.501   8.418  -0.730 -0.5074 -0.3943 -1.0156
  471MOL0     C64886  13.521   8.528  -0.815  0.6320  0.0886 -0.3039
  471MOL0     C64887  13.640   8.565  -0.869 -0.5819  0.1862 -0.8456
  471MOL0     C64888  13.646   8.683  -0.958 -0.2242  0.4308  0.4676
  471MOL0     C64889  13.755   8.483  -0.829  0.4370 -0.1677  0.0364
  471MOL0     C64890  13.896   8.502  -0.864  0.2100  0.5666  0.3870
  471MOL0     O64891  13.990   8.450  -0.783 -0.3399  0.2394  0.6087
  471MOL0     C64892  14.114   8.510  -0.792 -0.3982 -0.4647  0.0978
  471MOL0     C64893  14.136   8.625  -0.738 -0.2430 -0.2122 -0.5346
  471MOL0     C64894  14.271   8.673  -0.738  0.5694 -0.0081 -0.1409
  471MOL0     C64895  14.369   8.601  -0.804  0.0316  0.0764  0.6584
  471MOL0     O64896  14.501   8.648  -0.802 -0.3472 -0.7207  0.8460
  471MOL0     C64897  14.525   8.782  -0.855 -0.5371  0.5986  0.3945
  471MOL0     C64898  14.514   8.791  -1.005 -0.9503 -0.4094 -0.7345
  471MOL0     C64899  14.600   8.706  -1.089  0.3403 -0.3914 -0.0875
  471MOL0     C64900  14.560   8.744  -1.232  0.8879  0.3546 -1.1297
  471MOL0     C64901  14.638   8.663  -1.334  0.1794 -0.3340  0.1870
  471MOL0     C64902  14.601   8.714  -1.477 -1.2820 -0.0959 -0.0463
  471MOL0     C64903  14.681   8.633  -1.585 -0.3020  1.0099  0.9025
  471MOL0     C64904  14.662   8.688  -1.726  0.1310 -0.4599 -0.3684
  471MOL0    Cl64905  14.787   8.815  -1.776  0.4374  0.1287 -0.4588
  471MOL0     C64906  14.343   8.478  -0.859 -0.1178 -0.0565  0.3074
  471MOL0     C64907  14.215   8.435  -0.857 -0.3431  0.5206  0.6285
  471MOL0     O64908  13.923   8.576  -0.958  0.1996  0.0291  0.1663
  471MOL0     C64909  13.735   8.368  -0.751 -0.2654 -0.2175  0.3915
  471MOL0     C64910  13.606   8.338  -0.707 -1.4328  0.2335  0.0604
  471MOL0     N64911  12.783   8.206  -0.665 -0.6173 -0.1784  0.0989
  471MOL0     N64912  12.707   8.132  -0.596 -0.0407 -0.9100  0.0005
  471MOL0     C64913  11.812   8.810   0.120  0.7249 -0.4887 -1.1339
  471MOL0     C64914  11.691   8.838   0.067  0.1989  0.4054 -0.8825
  471MOL0     C64915  11.249   8.839  -0.027  0.9058  0.1711 -1.0004
  471MOL0     C64916  11.216   8.776  -0.147  0.6119  0.0676 -0.1426
  471MOL0     C64917  11.086   8.781  -0.195  0.6121 -0.8310 -0.7304
  471MOL0     C64918  10.980   8.833  -0.117 -0.5749  0.0908 -0.3534
  471MOL0     O64919  10.851   8.810  -0.165 -0.7863  0.4810  0.7401
  471MOL0     C64920  10.731   8.850  -0.086  0.2417  0.6353 -0.1619
  471MOL0     C64921  10.693   8.999  -0.093 -0.9938 -0.5539  0.1539
  471MOL0     C64922  10.642   9.036  -0.238  0.0105  1.0921  0.3796
  471MOL0     C64923  10.597   9.177  -0.238 -0.5836 -0.3532 -0.6175
  471MOL0     C64924  10.463   9.184  -0.181 -0.9569  0.0097  1.0846
  471MOL0     C64925  10.358   9.195  -0.123  0.2771 -0.7514  0.2681
  471MOL0     C64926  11.011   8.908   0.000 -1.3933  0.7671 -0.5319
  471MOL0     C64927  11.149   8.913   0.048  0.9820  0.2651  0.1934
  471MOL0     C64928  11.169   8.977   0.189  0.4468 -0.3609 -0.8622
  471MOL0     H64929  11.600   8.531  -0.027  0.0838 -0.5326  0.7910
  471MOL0     H64930  11.813   8.472   0.072 -1.6250 -1.1306 -2.9084
  471MOL0     H64931  12.169   8.725   0.090  0.5154 -1.7785  0.4085
  471MOL0     H64932  12.035   8.750  -0.027 -0.2670  2.3950  2.2599
  471MOL0     H64933  12.069   8.484  -0.042 -0.5769  0.0101 -0.0257
  471MOL0     H64934  12.132   8.601  -0.157  0.1539 -1.7977 -0.0678
  471MOL0     H64935  12.334   8.619  -0.009  0.5499 -0.6989  0.7655
  471MOL0     H64936  12.293   8.471   0.073  0.2419  1.8462  1.4131
  471MOL0     H64937  12.258   8.351  -0.140 -2.1356  1.2733  1.7110
  471MOL0     H64938  12.319   8.492  -0.240  4.5050  0.9149  0.3364
  471MOL0     H64939  12.489   8.346  -0.038  0.7893 -0.8003 -0.8054
  471MOL0     H64940  12.537   8.474  -0.153  1.3062 -0.5037 -2.8825
  471MOL0     H64941  12.399   8.198  -0.229  0.0224  0.1639 -0.1996
  471MOL0     H64942  12.475   8.335  -0.331 -0.6529  1.1620 -0.0965
  471MOL0     H64943  12.597   8.137  -0.146 -2.7614  0.9667 -0.9057
  471MOL0     H64944  12.690   8.280  -0.214  3.5519 -2.0841 -1.9797
  471MOL0     H64945  12.713   8.028  -0.305  0.5954  0.1447 -0.7986
  471MOL0     H64946  12.563   8.064  -0.386 -1.3035  2.4090 -0.4014
  471MOL0     H64947  12.847   8.329  -0.372 -1.9101  3.0858 -1.9598
  471MOL0     H64948  12.912   8.499  -0.601  1.6866  1.2888 -0.4322
  471MOL0     H64949  12.921   8.408  -0.749 -0.0455 -2.9860  0.2962
  471MOL0     H64950  13.097   8.366  -0.492 -0.5278  2.8830  0.7896
  471MOL0     H64951  13.137   8.294  -0.652  2.9380 -0.2884  1.8416
  471MOL0     H64952  13.167   8.495  -0.757  1.5249  1.7613 -0.2952
  471MOL0     H64953  13.110   8.592  -0.620 -0.1789  0.1754  2.1094
  471MOL0     H64954  13.351   8.596  -0.631 -1.4670  1.1155  1.0091
  471MOL0     H64955  13.321   8.479  -0.500 -0.6136  1.8733  1.2896
  471MOL0     H64956  13.447   8.593  -0.860  1.1115  1.1547  0.4215
  471MOL0     H64957  13.544   8.711  -0.985 -0.8324 -3.6697 -2.6512
  471MOL0     H64958  13.699   8.669  -1.053  0.3394  3.9649  0.1497
  471MOL0     H64959  13.701   8.767  -0.916  4.1685 -1.3150 -1.1525
  471MOL0     H64960  14.052   8.668  -0.685  1.0640 -0.8181  2.2174
  471MOL0     H64961  14.297   8.759  -0.677  0.4080 -0.0855  0.0372
  471MOL0     H64962  14.457   8.851  -0.803 -3.5493  0.5782 -3.1479
  471MOL0     H64963  14.629   8.798  -0.825 -0.8158  4.1456 -0.0658
  471MOL0     H64964  14.410   8.770  -1.032 -0.5704 -1.2135 -1.6169
  471MOL0     H64965  14.525   8.895  -1.035  0.4121 -0.2405  0.2696
  471MOL0     H64966  14.583   8.599  -1.076 -0.7840 -0.3096 -0.7123
  471MOL0     H64967  14.705   8.736  -1.089  0.1378  0.6805 -2.7324
  471MOL0     H64968  14.570   8.845  -1.270  0.5241  0.9265  0.2188
  471MOL0     H64969  14.451   8.737  -1.246  1.0616 -0.8152 -2.0580
  471MOL0     H64970  14.747   8.673  -1.326  0.3082 -1.2963 -0.1693
  471MOL0     H64971  14.614   8.556  -1.332 -0.6016 -0.1992  3.3646
  471MOL0     H64972  14.626   8.820  -1.484  0.8872 -0.6768 -2.2529
  471MOL0     H64973  14.494   8.704  -1.498 -1.4003  2.7942 -1.3229
  471MOL0     H64974  14.650   8.528  -1.583 -1.2339  1.1849 -1.3095
  471MOL0     H64975  14.787   8.630  -1.558  0.1600 -1.3145 -0.8221
  471MOL0     H64976  14.556   8.715  -1.727  0.3952  1.2949  3.1403
  471MOL0     H64977  14.670   8.613  -1.805 -4.0758 -0.3711 -1.1141
  471MOL0     H64978  14.412   8.429  -0.926  1.2776  2.5925 -0.3658
  471MOL0     H64979  14.182   8.338  -0.893  1.2437  0.2943 -0.3129
  471MOL0     H64980  13.820   8.302  -0.739  0.6386  0.7338 -0.6279
  471MOL0     H64981  13.581   8.238  -0.673  0.8170 -1.0706 -1.8243
  471MOL0     H64982  11.889   8.881   0.148 -2.1029  2.9681 -1.4347
  471MOL0     H64983  11.667   8.941   0.042  0.3808  0.1082 -2.3620
  471MOL0     H64984  11.294   8.721  -0.199  0.1175 -1.5533  0.7706
  471MOL0     H64985  11.055   8.734  -0.287  1.0272 -1.9503 -0.3155
  471MOL0     H64986  10.637   8.798  -0.108 -0.0704  1.9901 -2.2036
  471MOL0     H64987  10.761   8.819   0.015 -0.1329  4.9728  1.4594
  471MOL0     H64988  10.779   9.065  -0.079 -1.5952  0.5998 -1.2596
  471MOL0     H64989  10.620   9.033  -0.020  1.1623 -0.3608  2.3522
  471MOL0     H64990  10.722   9.014  -0.308 -0.2464 -2.9458  1.0934
  471MOL0     H64991  10.552   8.982  -0.270  0.9554  0.8275 -1.9458
  471MOL0     H64992  10.601   9.222  -0.338  0.8584  1.2981  0.1401
  471MOL0     H64993  10.676   9.229  -0.183 -0.2018 -0.3546 -1.1540
  471MOL0     H64994  10.257   9.210  -0.088  0.4763 -0.9142  0.9208
  471MOL0     H64995  10.930   8.962   0.048 -4.1880 -1.4224 -2.4668
  471MOL0     H64996  11.245   9.056   0.187  1.9582 -1.6554  1.2948
  471MOL0     H64997  11.075   9.030   0.208  1.6708  1.8756 -0.7424
  471MOL0     H64998  11.189   8.906   0.269  0.1420  0.0223 -0.4379
  472MOL0     O64999   1.218   4.132   7.032 -0.0814  0.5272 -0.2412
  472MOL0     C65000   1.337   4.109   7.023 -0.0113  0.2852 -0.0297
  472MOL0     O65001   1.432   4.189   6.964  0.6605 -0.3699  1.1261
  472MOL0     C65002   1.397   4.278   6.860 -0.7062  0.0856  0.0446
  472MOL0     C65003   1.301   4.247   6.763  0.5428  0.3676  0.9763
  472MOL0     C65004   1.266   4.335   6.660  0.6070  0.3865  0.3848
  472MOL0     C65005   1.341   4.453   6.653  0.1545 -0.2290  0.9146
  472MOL0     O65006   1.313   4.550   6.556 -0.3249  0.3818  0.4305
  472MOL0     C65007   1.220   4.646   6.600  0.5307 -0.0203 -0.2324
  472MOL0     C65008   1.200   4.750   6.491  0.1974 -0.3427  0.7176
  472MOL0     C65009   1.100   4.852   6.532 -0.2555 -0.3451  0.6904
  472MOL0     C65010   1.094   4.963   6.426 -1.0584  0.1664 -0.1337
  472MOL0     C65011   1.159   5.093   6.468 -0.2689  0.2093 -0.3428
  472MOL0     C65012   1.179   5.178   6.351 -0.3511 -0.8300 -0.1619
  472MOL0     C65013   1.272   5.297   6.402 -0.0326  0.4994 -0.1706
  472MOL0     C65014   1.291   5.426   6.309  0.4644 -0.4714 -1.0097
  472MOL0     N65015   1.169   5.497   6.273 -0.3732 -0.2090  0.6122
  472MOL0     C65016   1.153   5.538   6.144 -0.4643 -0.5395  0.7584
  472MOL0     C65017   1.066   5.643   6.148  0.6165  0.2919 -0.0056
  472MOL0     C65018   1.001   5.715   6.033  0.4844 -0.4652  0.4534
  472MOL0     C65019   1.080   5.749   5.911 -0.2303  0.1575 -0.2266
  472MOL0     C65020   1.207   5.834   5.963  0.0481  0.5004  1.0646
  472MOL0     C65021   1.288   5.872   5.839  0.7401 -0.5472  0.0696
  472MOL0     O65022   1.204   5.955   5.756 -0.5928  0.2930 -0.2028
  472MOL0     C65023   1.256   6.023   5.656  0.0007  0.4214  0.0441
  472MOL0     C65024   1.394   6.008   5.622 -0.3789  0.4299  0.6232
  472MOL0     C65025   1.449   6.095   5.528  0.1357 -0.1158 -0.2042
  472MOL0     C65026   1.578   6.052   5.468  0.8093 -0.0929 -0.5591
  472MOL0     C65027   1.372   6.200   5.474  0.3368 -0.0272  1.3174
  472MOL0     C65028   1.430   6.305   5.376  0.2362  0.3075 -0.2719
  472MOL0     O65029   1.566   6.319   5.354  0.2560  0.1591 -0.1727
  472MOL0     C65030   1.598   6.396   5.246  0.5814 -0.0200 -0.2222
  472MOL0     C65031   1.619   6.531   5.261 -0.5187  0.0174 -0.0311
  472MOL0     C65032   1.657   6.607   5.152  0.3103 -0.9589  0.6568
  472MOL0     C65033   1.671   6.547   5.033 -0.5758 -0.6475  0.6162
  472MOL0     O65034   1.717   6.635   4.929  0.2375  0.2620  0.6654
  472MOL0     C65035   1.788   6.574   4.822 -0.8522  1.0139  0.7361
  472MOL0     C65036   1.918   6.525   4.873 -0.1430 -0.0927  0.5697
  472MOL0     C65037   1.997   6.454   4.765 -0.3559  0.5413  0.0625
  472MOL0     C65038   2.112   6.369   4.818 -0.0776 -0.8904  0.6028
  472MOL0     C65039   2.188   6.319   4.695 -0.3039  0.6894 -0.5129
  472MOL0     C65040   2.283   6.206   4.721  0.0636  0.3865  0.3388
  472MOL0     C65041   2.323   6.153   4.579  0.5321  0.4236  0.4019
  472MOL0     C65042   2.398   6.020   4.592 -0.4204 -0.4904  0.6834
  472MOL0    Cl65043   2.563   6.048   4.660 -0.3540 -0.1542  0.5023
  472MOL0     C65044   1.651   6.408   5.012 -0.4182  0.6334 -0.6358
  472MOL0     C65045   1.617   6.331   5.124 -0.3860 -0.6492  0.0612
  472MOL0     O65046   1.342   6.364   5.315  0.0338 -0.5807 -0.9000
  472MOL0     C65047   1.240   6.214   5.512 -0.3260  0.4450  0.3165
  472MOL0     C65048   1.181   6.124   5.599 -0.1502 -0.3102  0.0191
  472MOL0     N65049   1.024   5.657   6.284 -0.2302  1.0880  0.1970
  472MOL0     N65050   1.097   5.577   6.361 -0.3385  0.5791 -1.0847
  472MOL0     C65051   1.443   4.485   6.735 -0.9549 -0.1119  1.1446
  472MOL0     C65052   1.466   4.405   6.848 -0.3769  1.5272 -0.2751
  472MOL0     C65053   1.394   3.982   7.092  1.1581  0.1618 -0.4861
  472MOL0     C65054   1.505   3.989   7.176  0.2982 -1.1515  0.2068
  472MOL0     C65055   1.565   3.878   7.230 -0.0912 -0.3100 -0.3732
  472MOL0     C65056   1.520   3.748   7.192 -1.6016 -0.4017 -0.6965
  472MOL0     O65057   1.584   3.623   7.220  0.3844 -0.2229 -0.3195
  472MOL0     C65058   1.703   3.605   7.280  0.1120  0.3842  0.8311
  472MOL0     C65059   1.758   3.464   7.289 -1.5265  0.5945  0.2395
  472MOL0     C65060   1.898   3.466   7.340 -0.8686  0.1652  0.6278
  472MOL0     C65061   1.960   3.330   7.321 -0.4619 -0.4653  0.5783
  472MOL0     C65062   1.898   3.212   7.386 -1.7583  0.0992 -0.1496
  472MOL0     C65063   1.842   3.125   7.452  0.4033  0.0201  1.2057
  472MOL0     C65064   1.404   3.736   7.119  0.0714  0.0316  0.0729
  472MOL0     C65065   1.342   3.853   7.063  0.5041 -0.4208  0.3542
  472MOL0     C65066   1.223   3.834   6.978 -1.1161 -0.4717  0.0301
  472MOL0     H65067   1.260   4.146   6.767  1.4308 -0.2202 -2.1795
  472MOL0     H65068   1.174   4.315   6.606  0.8874 -2.2777  0.7541
  472MOL0     H65069   1.244   4.707   6.687  0.1335  3.0720 -2.1103
  472MOL0     H65070   1.126   4.596   6.624  1.3094 -1.5046 -0.1575
  472MOL0     H65071   1.295   4.801   6.471 -0.6719  0.9234 -0.3677
  472MOL0     H65072   1.167   4.698   6.401  1.0125  3.2034 -1.8256
  472MOL0     H65073   1.005   4.798   6.532 -1.2744  1.3761 -0.3310
  472MOL0     H65074   1.115   4.893   6.632  0.1682  0.8884  0.1376
  472MOL0     H65075   1.143   4.924   6.336  2.3520 -3.2281  2.8312
  472MOL0     H65076   0.993   4.977   6.387 -0.9029  1.5863 -0.0884
  472MOL0     H65077   1.255   5.071   6.516  0.8069  5.0284  0.2187
  472MOL0     H65078   1.099   5.148   6.541  1.3399  0.0542  1.1490
  472MOL0     H65079   1.241   5.126   6.277 -1.0867 -1.6140 -0.2518
  472MOL0     H65080   1.085   5.216   6.311 -0.8755  0.0611  1.8198
  472MOL0     H65081   1.378   5.273   6.414 -0.0750  1.1033  1.7587
  472MOL0     H65082   1.237   5.338   6.497  0.7488 -2.2673  1.4464
  472MOL0     H65083   1.352   5.495   6.368 -0.8818 -1.8236  2.1983
  472MOL0     H65084   1.353   5.397   6.223  0.5098 -3.0782 -0.1934
  472MOL0     H65085   1.215   5.489   6.069 -0.2686 -1.9526  1.7928
  472MOL0     H65086   0.961   5.803   6.083  0.2431  0.0163 -0.5636
  472MOL0     H65087   0.915   5.657   5.999 -1.2471  2.3609 -0.2395
  472MOL0     H65088   1.114   5.656   5.864 -1.0060  0.3525 -1.2323
  472MOL0     H65089   1.023   5.802   5.833 -0.8293  1.6299  1.1567
  472MOL0     H65090   1.169   5.916   6.025 -0.5372  1.0185  0.0567
  472MOL0     H65091   1.269   5.776   6.032 -2.5366  1.3485  4.3551
  472MOL0     H65092   1.364   5.940   5.876 -2.0670  3.2432 -0.5147
  472MOL0     H65093   1.319   5.777   5.795  1.0850 -1.2700  1.7871
  472MOL0     H65094   1.455   5.925   5.656 -1.4529 -1.3415 -1.5945
  472MOL0     H65095   1.657   6.086   5.536  1.7317 -1.0728 -1.0958
  472MOL0     H65096   1.610   6.080   5.367  2.8421  1.5447  0.4618
  472MOL0     H65097   1.585   5.943   5.467 -0.9913 -0.2284 -0.4766
  472MOL0     H65098   1.593   6.573   5.357  0.2111 -1.8683  1.0422
  472MOL0     H65099   1.682   6.712   5.164 -0.1087 -0.6329 -1.1305
  472MOL0     H65100   1.732   6.493   4.775  5.2750 -2.5935 -1.4336
  472MOL0     H65101   1.814   6.635   4.735  0.4199 -1.0599 -0.4278
  472MOL0     H65102   1.982   6.610   4.900 -1.4389  1.1087  0.0256
  472MOL0     H65103   1.916   6.463   4.963  2.0204 -0.4051  0.4671
  472MOL0     H65104   2.037   6.525   4.692 -2.3517  0.6099 -1.0090
  472MOL0     H65105   1.930   6.386   4.712  2.0372 -1.6319 -0.4052
  472MOL0     H65106   2.069   6.288   4.877 -2.2583 -0.7572 -0.7036
  472MOL0     H65107   2.174   6.426   4.887  1.0780 -0.6832 -0.5799
  472MOL0     H65108   2.102   6.286   4.637  0.5549 -2.7703 -0.0375
  472MOL0     H65109   2.233   6.401   4.638  0.0040  0.6007 -0.4024
  472MOL0     H65110   2.237   6.127   4.780  1.0363  0.0895  0.7297
  472MOL0     H65111   2.372   6.239   4.776  0.4453  0.9948 -0.6052
  472MOL0     H65112   2.386   6.219   4.519  0.5590 -1.1145 -1.3469
  472MOL0     H65113   2.232   6.131   4.521 -0.4827 -1.2324  2.4913
  472MOL0     H65114   2.417   5.978   4.493  0.9696  0.7061  0.4068
  472MOL0     H65115   2.345   5.942   4.648 -1.7813  0.4145  0.7025
  472MOL0     H65116   1.666   6.358   4.916  1.9821 -0.9986  0.4937
  472MOL0     H65117   1.602   6.224   5.124 -1.2083 -0.6078 -2.3869
  472MOL0     H65118   1.170   6.286   5.471 -1.7653 -1.8307 -1.4574
  472MOL0     H65119   1.073   6.131   5.609 -0.0821 -0.6622  1.1171
  472MOL0     H65120   1.498   4.576   6.713 -0.8141 -0.7109 -1.1791
  472MOL0     H65121   1.538   4.438   6.922 -2.6742 -0.3488  3.0241
  472MOL0     H65122   1.539   4.089   7.200  2.4629 -1.4540 -1.3473
  472MOL0     H65123   1.656   3.884   7.289  0.2019 -1.8170 -0.6398
  472MOL0     H65124   1.776   3.652   7.213 -0.8680 -0.1428 -0.6259
  472MOL0     H65125   1.706   3.644   7.383  3.5307 -1.8194  1.7659
  472MOL0     H65126   1.762   3.413   7.192  2.6382 -0.0113  0.5315
  472MOL0     H65127   1.699   3.409   7.362 -0.4331  0.3709  0.9860
  472MOL0     H65128   1.952   3.547   7.289 -0.5933 -1.5358 -2.0322
  472MOL0     H65129   1.889   3.490   7.446  2.2121  2.4964  0.5207
  472MOL0     H65130   2.063   3.335   7.359 -0.7219  1.0143  1.1676
  472MOL0     H65131   1.961   3.307   7.214 -2.0820 -0.2524  0.4993
  472MOL0     H65132   1.810   3.038   7.507 -0.9887 -0.5164 -0.3787
  472MOL0     H65133   1.365   3.637   7.093  1.1571 -0.4111  0.0792
  472MOL0     H65134   1.173   3.742   7.008  0.3241 -0.8636  1.3837
  472MOL0     H65135   1.145   3.911   6.987 -1.7176 -0.9956 -0.6290
  472MOL0     H65136   1.239   3.833   6.870 -5.7059 -0.7188 -0.8426
  473MOL0     O65137  10.863   0.089   9.154  0.3824  0.9797 -0.2115
  473MOL0     C65138  10.827  -0.014   9.198  0.6230  0.3419 -0.3294
  473MOL0     O65139  10.906  -0.097   9.279  0.1293 -0.9323  0.7537
  473MOL0     C65140  11.033  -0.073   9.333  0.2365 -0.4663 -0.7587
  473MOL0     C65141  11.104  -0.188   9.386  0.0103 -0.0218  0.5170
  473MOL0     C65142  11.234  -0.175   9.443 -0.3954  0.3181 -1.0673
  473MOL0     C65143  11.294  -0.048   9.456  0.8368  0.2454 -1.4469
  473MOL0     O65144  11.410  -0.040   9.532  0.3740 -0.0585 -0.1086
  473MOL0     C65145  11.442   0.075   9.612 -0.3012  0.0184 -0.6316
  473MOL0     C65146  11.526   0.191   9.552 -0.9343 -0.3064  0.2280
  473MOL0     C65147  11.658   0.142   9.491 -0.8490 -0.0770 -0.5612
  473MOL0     C65148  11.762   0.099   9.609  0.3295  0.5472 -0.4935
  473MOL0     C65149  11.893   0.039   9.562 -0.2667  0.0866 -0.3871
  473MOL0     C65150  11.887  -0.100   9.498  0.8197  0.6115  0.0434
  473MOL0     C65151  11.817  -0.196   9.589  0.4915  0.1332  0.0310
  473MOL0     C65152  11.845  -0.345   9.560  0.1352 -0.2216 -0.2406
  473MOL0     N65153  11.857  -0.374   9.418  0.2348  0.4834 -0.2845
  473MOL0     C65154  11.753  -0.389   9.326  0.0587  0.9470  0.5497
  473MOL0     C65155  11.804  -0.407   9.202 -0.1584  0.0928 -0.3961
  473MOL0     C65156  11.724  -0.421   9.079 -0.1484 -0.0349  0.4483
  473MOL0     C65157  11.672  -0.297   9.005  0.4348  0.6223  0.6354
  473MOL0     C65158  11.773  -0.191   8.972 -1.1075 -0.5450 -0.8718
  473MOL0     C65159  11.699  -0.063   8.942  0.6895 -0.3411  0.0118
  473MOL0     O65160  11.756   0.004   8.827  0.7105 -0.2823  0.2859
  473MOL0     C65161  11.867   0.080   8.832  0.8831 -0.7649 -1.7222
  473MOL0     C65162  11.925   0.124   8.952 -0.6721  0.7064  0.6231
  473MOL0     C65163  12.046   0.202   8.952  0.2848  0.1067 -0.1045
  473MOL0     C65164  12.094   0.233   9.085  0.4162 -0.9116  0.1269
  473MOL0     C65165  12.101   0.243   8.830 -0.5215 -0.6561 -0.3071
  473MOL0     C65166  12.231   0.327   8.813  1.1156  0.3010 -0.2518
  473MOL0     O65167  12.263   0.366   8.687 -1.0293 -0.5568 -0.8076
  473MOL0     C65168  12.384   0.433   8.665 -0.1627 -0.5185  0.7332
  473MOL0     C65169  12.429   0.535   8.748  0.0309 -0.3595  0.6295
  473MOL0     C65170  12.563   0.579   8.731 -0.7638 -0.1762 -0.6768
  473MOL0     C65171  12.647   0.541   8.620  0.0861 -0.0035  0.0547
  473MOL0     O65172  12.771   0.600   8.591 -0.4447  0.8233 -0.0064
  473MOL0     C65173  12.788   0.742   8.642 -0.0346 -0.0358  0.2182
  473MOL0     C65174  12.855   0.814   8.530  0.6459  0.1463 -0.1255
  473MOL0     C65175  12.734   0.857   8.432 -0.8123  0.5791  1.2357
  473MOL0     C65176  12.804   0.892   8.304 -1.1502  0.2654  0.2321
  473MOL0     C65177  12.729   0.964   8.193 -0.1977  0.8056  0.9474
  473MOL0     C65178  12.700   1.110   8.214  0.3322 -0.5678  0.7219
  473MOL0     C65179  12.819   1.196   8.259 -0.3660 -0.4665  0.1415
  473MOL0     C65180  12.771   1.329   8.280 -0.1328 -0.0259 -0.5658
  473MOL0    Cl65181  12.650   1.348   8.409 -0.2784 -0.0317  0.2089
  473MOL0     C65182  12.587   0.453   8.524 -0.6118 -0.5899  0.5070
  473MOL0     C65183  12.457   0.401   8.547  0.9671 -1.1025 -0.0906
  473MOL0     O65184  12.302   0.344   8.913 -0.4885  0.6297  0.5392
  473MOL0     C65185  12.036   0.214   8.713 -1.1793 -0.1360  0.3022
  473MOL0     C65186  11.918   0.135   8.709 -0.5254  1.1936 -0.6388
  473MOL0     N65187  11.942  -0.412   9.234  0.1377  0.3348 -1.0591
  473MOL0     N65188  11.972  -0.378   9.353 -0.3584  0.5052 -0.5830
  473MOL0     C65189  11.234   0.065   9.398  0.6137 -0.5789  0.4320
  473MOL0     C65190  11.106   0.054   9.342 -0.3127 -0.2466  0.1675
  473MOL0     C65191  10.693  -0.067   9.159 -0.5992  0.0694  0.3174
  473MOL0     C65192  10.645  -0.193   9.212 -0.4706  0.7512  0.3303
  473MOL0     C65193  10.510  -0.237   9.190 -0.5491  0.4736  0.1908
  473MOL0     C65194  10.411  -0.153   9.130  0.1120  0.6248  0.2963
  473MOL0     O65195  10.283  -0.206   9.130  0.4965 -0.1971  0.3621
  473MOL0     C65196  10.275  -0.326   9.054  0.5647  0.1159 -1.0854
  473MOL0     C65197  10.138  -0.334   8.996  0.5155 -0.6967  0.0552
  473MOL0     C65198  10.100  -0.475   8.951 -0.1481 -0.9423 -1.1100
  473MOL0     C65199   9.993  -0.466   8.840 -0.5273  0.2212 -0.4443
  473MOL0     C65200   9.934  -0.592   8.807  0.7355 -0.1339  0.0613
  473MOL0     C65201   9.888  -0.696   8.756  0.8734 -0.1519  0.6465
  473MOL0     C65202  10.448  -0.032   9.088 -0.2204  0.7035 -0.5054
  473MOL0     C65203  10.583   0.013   9.091 -0.4808  0.5554  0.4006
  473MOL0     C65204  10.606   0.153   9.029  0.0573  0.1784  0.1719
  473MOL0     H65205  11.056  -0.284   9.372 -2.7434  1.4258 -0.6812
  473MOL0     H65206  11.300  -0.255   9.474 -0.0640  0.9401 -0.1303
  473MOL0     H65207  11.514   0.029   9.681 -0.0310  0.0635 -0.8839
  473MOL0     H65208  11.352   0.114   9.659 -1.9736 -2.5020 -1.5858
  473MOL0     H65209  11.476   0.244   9.471  1.7499 -0.1706 -1.4387
  473MOL0     H65210  11.547   0.255   9.638  0.1191 -1.0217  0.5251
  473MOL0     H65211  11.640   0.056   9.427 -0.3114 -1.0579  0.5730
  473MOL0     H65212  11.705   0.223   9.434 -1.5190  2.4119  2.1881
  473MOL0     H65213  11.780   0.187   9.671 -3.1728  0.3690  0.9876
  473MOL0     H65214  11.706   0.028   9.670 -0.6053  1.7406  0.0716
  473MOL0     H65215  11.960   0.027   9.648 -0.6380 -2.6159 -0.3941
  473MOL0     H65216  11.941   0.102   9.486  2.5748  1.7157  2.5199
  473MOL0     H65217  11.846  -0.101   9.396  1.5252 -0.6943 -0.2540
  473MOL0     H65218  11.992  -0.131   9.486  0.7483 -0.1149  1.2032
  473MOL0     H65219  11.712  -0.175   9.566  0.8965  2.1137 -0.1501
  473MOL0     H65220  11.829  -0.170   9.695 -1.0378  1.5151 -0.0934
  473MOL0     H65221  11.942  -0.371   9.605 -0.0583 -1.0550 -0.2845
  473MOL0     H65222  11.766  -0.405   9.606  0.6097  0.0265  0.9275
  473MOL0     H65223  11.645  -0.391   9.330 -0.0437  0.6910 -1.4071
  473MOL0     H65224  11.629  -0.469   9.105 -1.1642  1.3944 -0.5123
  473MOL0     H65225  11.790  -0.490   9.025  0.4006 -0.1560  1.2509
  473MOL0     H65226  11.636  -0.332   8.908 -0.9366  1.3892  0.8366
  473MOL0     H65227  11.579  -0.260   9.049 -1.9842 -2.1934 -1.7017
  473MOL0     H65228  11.836  -0.183   9.061 -1.3240 -0.7883 -0.6958
  473MOL0     H65229  11.829  -0.213   8.880  1.4507  0.9738  0.2199
  473MOL0     H65230  11.599  -0.083   8.904 -0.8054  0.7340  3.0600
  473MOL0     H65231  11.674   0.002   9.027 -1.3535 -0.2097 -0.6471
  473MOL0     H65232  11.877   0.101   9.047 -1.5109  1.6535  0.4533
  473MOL0     H65233  12.127   0.337   9.080  0.5737 -1.0189 -1.6576
  473MOL0     H65234  12.188   0.193   9.124 -0.3333 -1.7284  1.1497
  473MOL0     H65235  12.021   0.210   9.163 -0.4036 -1.7040 -0.8473
  473MOL0     H65236  12.368   0.564   8.833 -0.5476  5.6492 -1.4300
  473MOL0     H65237  12.604   0.647   8.804  0.0370 -0.1112 -1.1707
  473MOL0     H65238  12.698   0.802   8.661 -0.6097 -0.4462 -1.1550
  473MOL0     H65239  12.847   0.742   8.734 -1.4890  3.0843  1.3206
  473MOL0     H65240  12.902   0.903   8.574 -0.3035  0.3778  0.4591
  473MOL0     H65241  12.931   0.754   8.480  0.7670 -0.5856  0.9024
  473MOL0     H65242  12.682   0.951   8.447 -0.9918  0.6296  0.3513
  473MOL0     H65243  12.657   0.783   8.411  1.5995 -1.8439  0.2991
  473MOL0     H65244  12.851   0.798   8.274  1.2508  1.2694  0.5847
  473MOL0     H65245  12.895   0.947   8.328 -0.3064 -0.2700 -1.5802
  473MOL0     H65246  12.802   0.966   8.111  0.6339 -0.3436  1.6363
  473MOL0     H65247  12.639   0.915   8.154 -1.0173  2.2376  0.9747
  473MOL0     H65248  12.613   1.119   8.281 -0.8194  1.3099 -0.9386
  473MOL0     H65249  12.671   1.154   8.119 -0.1882 -0.7307  0.8013
  473MOL0     H65250  12.898   1.191   8.184 -1.9232  0.6107 -1.6851
  473MOL0     H65251  12.867   1.156   8.348 -0.7503  1.9016  1.5140
  473MOL0     H65252  12.727   1.368   8.188  0.4460 -0.8757 -1.2289
  473MOL0     H65253  12.851   1.403   8.294  2.3123 -2.7726  1.1077
  473MOL0     H65254  12.643   0.416   8.440 -3.7666 -4.4801 -0.1946
  473MOL0     H65255  12.408   0.338   8.474 -1.2320  2.0573 -1.5612
  473MOL0     H65256  12.072   0.248   8.617 -0.6261 -0.2528  0.4637
  473MOL0     H65257  11.883   0.108   8.609 -3.2774  0.6751  0.3661
  473MOL0     H65258  11.289   0.157   9.378  1.9940 -1.4028  0.3309
  473MOL0     H65259  11.057   0.141   9.301 -2.1666 -0.1452  2.3371
  473MOL0     H65260  10.713  -0.264   9.259 -3.5681 -2.4652  0.3852
  473MOL0     H65261  10.489  -0.334   9.233 -0.6570  1.5578  2.7528
  473MOL0     H65262  10.352  -0.328   8.976  3.5129 -0.0774  1.6129
  473MOL0     H65263  10.282  -0.410   9.124  0.0148  1.7610  1.0463
  473MOL0     H65264  10.124  -0.257   8.920 -3.4172  1.7219  2.8399
  473MOL0     H65265  10.062  -0.299   9.066 -0.0968 -0.5658 -0.6626
  473MOL0     H65266  10.181  -0.513   8.888  1.3347 -0.4432  0.4108
  473MOL0     H65267  10.075  -0.555   9.020  0.5646 -1.2798 -1.2321
  473MOL0     H65268  10.052  -0.411   8.766  0.6949 -0.3073  0.0962
  473MOL0     H65269   9.911  -0.400   8.869 -1.9145 -0.8948 -1.6813
  473MOL0     H65270   9.855  -0.778   8.696 -2.7887  1.7219 -0.2035
  473MOL0     H65271  10.374   0.035   9.044  2.8572  4.3524 -0.7014
  473MOL0     H65272  10.704   0.170   8.984 -1.1365 -2.5025 -3.9854
  473MOL0     H65273  10.538   0.181   8.948  2.1366 -0.6446 -1.9965
  473MOL0     H65274  10.605   0.227   9.110  0.0077  0.5429 -0.1611
  474MOL0     O65275  11.569   8.019   0.092 -0.2754  0.5048  0.6544
  474MOL0     C65276  11.490   8.091   0.039 -0.5410  0.7119  0.5397
  474MOL0     O65277  11.433   8.075  -0.078 -0.0613 -0.8144  0.1820
  474MOL0     C65278  11.444   7.959  -0.143 -0.3251  0.0955  0.8505
  474MOL0     C65279  11.345   7.863  -0.116  0.3953 -0.0928  0.3455
  474MOL0     C65280  11.360   7.730  -0.155  0.0332  0.1491 -0.5485
  474MOL0     C65281  11.475   7.690  -0.222  0.4025  1.0164  0.3451
  474MOL0     O65282  11.489   7.558  -0.268 -0.4584 -0.4724  0.6116
  474MOL0     C65283  11.615   7.487  -0.244  0.4829  0.0711  0.8103
  474MOL0     C65284  11.711   7.475  -0.362  0.2745 -0.6745  0.3099
  474MOL0     C65285  11.647   7.417  -0.498  0.0585  0.3404 -1.0828
  474MOL0     C65286  11.757   7.370  -0.588 -0.8499 -0.5004 -0.2088
  474MOL0     C65287  11.834   7.481  -0.665  0.0893  0.3478 -0.9166
  474MOL0     C65288  11.861   7.616  -0.607  0.2744  1.0275  0.0473
  474MOL0     C65289  11.911   7.722  -0.711  0.2824 -0.5590 -0.1188
  474MOL0     C65290  12.059   7.723  -0.755  0.8361  0.1435 -0.7879
  474MOL0     N65291  12.092   7.623  -0.853 -0.6236 -0.7305 -0.1019
  474MOL0     C65292  12.051   7.617  -0.986  0.2123 -0.2484 -0.6970
  474MOL0     C65293  12.144   7.549  -1.053  0.1461 -0.2717  0.1848
  474MOL0     C65294  12.158   7.529  -1.204  0.1264 -0.4929  0.0695
  474MOL0     C65295  12.225   7.650  -1.274 -0.4521 -0.1106  0.4115
  474MOL0     C65296  12.132   7.773  -1.299 -0.8886  0.1757 -0.2668
  474MOL0     C65297  12.196   7.897  -1.368  1.2647  0.5763 -0.2032
  474MOL0     O65298  12.322   7.943  -1.318  0.2026 -0.6379 -0.9197
  474MOL0     C65299  12.378   8.056  -1.369  0.0869  0.4344 -0.5786
  474MOL0     C65300  12.332   8.146  -1.469 -0.9410 -0.1449  0.3731
  474MOL0     C65301  12.415   8.251  -1.516  0.1888  0.1077 -0.5411
  474MOL0     C65302  12.357   8.337  -1.618  0.6226  0.5826  0.6124
  474MOL0     C65303  12.547   8.275  -1.466  0.3814  0.1846  0.5301
  474MOL0     C65304  12.638   8.387  -1.518  0.4654 -0.3952  0.0497
  474MOL0     O65305  12.756   8.385  -1.452  0.1531  0.0465  1.0678
  474MOL0     C65306  12.829   8.492  -1.493 -0.3861  0.5428 -0.6365
  474MOL0     C65307  12.917   8.469  -1.599 -0.0296  0.0213 -0.5414
  474MOL0     C65308  12.983   8.572  -1.650 -0.4994 -0.0820 -1.0383
  474MOL0     C65309  12.980   8.703  -1.593  0.1077  0.4424 -0.1536
  474MOL0     O65310  13.031   8.812  -1.654  0.6693  0.9225 -0.9009
  474MOL0     C65311  13.089   8.807  -1.783 -0.0805 -0.3900 -0.1803
  474MOL0     C65312  13.095   8.952  -1.849  0.4590  0.7201  0.0778
  474MOL0     C65313  13.206   9.040  -1.784 -0.3973 -0.3082 -0.0087
  474MOL0     C65314  13.166   9.192  -1.778  1.4564  0.3391  0.8635
  474MOL0     C65315  13.266   9.296  -1.729  0.8820  0.2016 -0.2744
  474MOL0     C65316  13.369   9.335  -1.835 -0.6398  1.1875 -0.3193
  474MOL0     C65317  13.476   9.235  -1.867 -0.0210 -0.6338  0.2357
  474MOL0     C65318  13.476   9.181  -2.005 -0.9247  0.0250 -0.0642
  474MOL0    Cl65319  13.600   9.045  -2.023  0.1310  0.2042  0.0317
  474MOL0     C65320  12.922   8.710  -1.468  0.7585  0.7049  0.4936
  474MOL0     C65321  12.839   8.608  -1.424 -0.1998 -0.0008 -0.2057
  474MOL0     O65322  12.608   8.458  -1.612 -0.3635  0.0217 -0.9087
  474MOL0     C65323  12.583   8.195  -1.354  0.3589  0.0706 -0.1487
  474MOL0     C65324  12.504   8.086  -1.316  0.8104  0.0122 -0.9366
  474MOL0     N65325  12.230   7.500  -0.962 -0.1720 -0.1046 -1.2846
  474MOL0     N65326  12.206   7.551  -0.839  0.1756  0.2341  0.7850
  474MOL0     C65327  11.569   7.788  -0.248  1.0135 -0.4838  0.0115
  474MOL0     C65328  11.557   7.917  -0.201 -0.1213  1.0091 -0.4680
  474MOL0     C65329  11.475   8.228   0.104  0.1380  0.0883 -0.5341
  474MOL0     C65330  11.366   8.297   0.047  0.4572 -0.7726  0.0936
  474MOL0     C65331  11.328   8.422   0.097  0.5090  0.1787 -0.4093
  474MOL0     C65332  11.389   8.481   0.202  0.0824 -1.2434  0.1760
  474MOL0     O65333  11.327   8.607   0.244 -0.3196 -0.1360  0.2561
  474MOL0     C65334  11.407   8.675   0.343  0.4348 -1.2617 -0.2520
  474MOL0     C65335  11.370   8.628   0.482 -0.7379 -0.0882  0.1653
  474MOL0     C65336  11.457   8.714   0.570 -0.8115 -0.4303  0.3109
  474MOL0     C65337  11.414   8.684   0.713  0.2303  0.2074 -0.3421
  474MOL0     C65338  11.530   8.718   0.794 -0.4432 -0.0911  0.3180
  474MOL0     C65339  11.636   8.761   0.842  0.6539 -0.2498  0.9044
  474MOL0     C65340  11.495   8.411   0.263 -0.0146  1.4857 -0.5901
  474MOL0     C65341  11.542   8.285   0.210 -0.0186 -0.2382  0.1340
  474MOL0     C65342  11.664   8.230   0.284  0.1690  0.5781 -0.0252
  474MOL0     H65343  11.262   7.886  -0.050  1.0117  0.6845  0.8703
  474MOL0     H65344  11.296   7.650  -0.117 -0.0640 -0.1565 -1.3444
  474MOL0     H65345  11.589   7.397  -0.188 -1.9013  0.2835  0.1688
  474MOL0     H65346  11.669   7.543  -0.167  2.4783 -2.2949  1.2542
  474MOL0     H65347  11.742   7.577  -0.390 -3.4680 -0.0553 -2.3884
  474MOL0     H65348  11.802   7.421  -0.333  1.1864 -0.9741 -2.6903
  474MOL0     H65349  11.591   7.326  -0.475 -0.5085  0.9444 -0.0031
  474MOL0     H65350  11.575   7.488  -0.540 -3.8306 -2.8244 -0.3963
  474MOL0     H65351  11.819   7.307  -0.523 -0.4271  0.1896  0.0604
  474MOL0     H65352  11.705   7.297  -0.650 -2.7455  0.8654 -0.3071
  474MOL0     H65353  11.769   7.513  -0.747 -0.2547  2.1462 -0.0022
  474MOL0     H65354  11.922   7.439  -0.714  0.3403  2.0299 -1.9853
  474MOL0     H65355  11.767   7.647  -0.562 -0.7969 -2.7350  0.7334
  474MOL0     H65356  11.935   7.615  -0.526 -0.0057 -2.0712  0.3564
  474MOL0     H65357  11.893   7.819  -0.664  0.6035 -0.3433 -0.4306
  474MOL0     H65358  11.850   7.721  -0.802 -0.8958  0.6140  0.6270
  474MOL0     H65359  12.073   7.827  -0.789 -1.6652  0.5540 -0.7653
  474MOL0     H65360  12.120   7.712  -0.665 -0.9319 -0.6067  0.3739
  474MOL0     H65361  11.964   7.660  -1.035  2.3427  1.2984 -3.4193
  474MOL0     H65362  12.060   7.518  -1.250  1.4168  1.0204 -3.4345
  474MOL0     H65363  12.218   7.439  -1.222 -2.1220 -1.7730 -1.3991
  474MOL0     H65364  12.311   7.673  -1.212 -0.4007  2.0520 -0.3633
  474MOL0     H65365  12.270   7.613  -1.367 -0.4538 -2.5876  1.3273
  474MOL0     H65366  12.042   7.755  -1.358 -0.4490 -0.7202 -0.6858
  474MOL0     H65367  12.097   7.796  -1.198 -1.3438  0.7068 -0.5363
  474MOL0     H65368  12.211   7.876  -1.474 -1.5156 -0.6527 -0.4388
  474MOL0     H65369  12.125   7.980  -1.357  0.2678 -0.2412 -0.2444
  474MOL0     H65370  12.226   8.143  -1.491 -1.8970  2.4237  3.7182
  474MOL0     H65371  12.410   8.320  -1.712 -1.8107 -1.1716 -0.5548
  474MOL0     H65372  12.347   8.443  -1.593  0.7558  1.1906 -1.6783
  474MOL0     H65373  12.256   8.299  -1.633  0.3076  2.0673 -1.6112
  474MOL0     H65374  12.921   8.370  -1.644 -3.8460 -1.4650  1.8841
  474MOL0     H65375  13.037   8.562  -1.743 -2.1406  0.4347 -2.0859
  474MOL0     H65376  13.193   8.773  -1.786  0.9526  2.5425 -1.5157
  474MOL0     H65377  13.036   8.729  -1.839 -0.2292 -3.7005  4.0458
  474MOL0     H65378  13.125   8.937  -1.953 -0.9668  0.2827 -0.2966
  474MOL0     H65379  12.997   9.000  -1.845 -0.7738 -0.9365 -4.1953
  474MOL0     H65380  13.297   9.034  -1.846  4.0203  0.7522  5.5156
  474MOL0     H65381  13.226   9.009  -1.681  1.0951  0.4865 -0.0276
  474MOL0     H65382  13.081   9.190  -1.709 -0.6977 -1.6014 -1.6718
  474MOL0     H65383  13.115   9.226  -1.868 -0.6247 -2.2285  0.9724
  474MOL0     H65384  13.208   9.385  -1.703 -1.8685 -1.4480 -0.3490
  474MOL0     H65385  13.302   9.259  -1.633 -0.6874  2.9398  1.5173
  474MOL0     H65386  13.415   9.408  -1.767 -2.9677  1.8641  0.6149
  474MOL0     H65387  13.333   9.387  -1.923  1.1109 -1.3962 -2.7396
  474MOL0     H65388  13.474   9.154  -1.793 -1.4341  0.9012  1.9959
  474MOL0     H65389  13.565   9.296  -1.846 -0.5472 -0.3856  1.9060
  474MOL0     H65390  13.495   9.262  -2.075 -0.6271 -0.0486 -0.0693
  474MOL0     H65391  13.378   9.137  -2.025 -0.2437 -2.2003  1.1092
  474MOL0     H65392  12.916   8.798  -1.405 -2.2152 -0.3017  1.7838
  474MOL0     H65393  12.780   8.610  -1.333  2.5304  2.5877  1.6882
  474MOL0     H65394  12.665   8.233  -1.294 -1.6798 -0.1522  3.0551
  474MOL0     H65395  12.544   8.021  -1.240  0.1078  0.5377 -0.0981
  474MOL0     H65396  11.659   7.783  -0.310  0.2469  2.3956 -1.5052
  474MOL0     H65397  11.633   7.991  -0.221  0.1528  1.4495  1.9050
  474MOL0     H65398  11.306   8.246  -0.027  0.0648 -1.3561  0.8034
  474MOL0     H65399  11.238   8.469   0.059  0.2154 -1.6271 -2.1464
  474MOL0     H65400  11.515   8.666   0.325  0.6813  3.0813 -2.1945
  474MOL0     H65401  11.410   8.784   0.328  0.6862 -1.4738 -1.9673
  474MOL0     H65402  11.407   8.526   0.497  2.0312  0.7754 -0.1880
  474MOL0     H65403  11.266   8.641   0.514 -0.3937  2.0813  0.5554
  474MOL0     H65404  11.561   8.681   0.555 -1.0531 -1.1317  0.1446
  474MOL0     H65405  11.448   8.821   0.550 -3.1035 -0.9361 -1.8603
  474MOL0     H65406  11.390   8.580   0.735  1.2044  0.4322  2.1655
  474MOL0     H65407  11.343   8.763   0.741  0.0402  0.4777 -1.5506
  474MOL0     H65408  11.731   8.782   0.888  0.3377  0.2431  1.3375
  474MOL0     H65409  11.541   8.448   0.354  1.0908  0.7072 -0.8053
  474MOL0     H65410  11.734   8.313   0.269 -1.8500  2.1789 -1.1425
  474MOL0     H65411  11.636   8.223   0.389  0.2198  1.0238  0.0193
  474MOL0     H65412  11.702   8.136   0.244  0.7898  1.4317 -1.5371
  475MOL0     O65413   9.770   7.400   1.675  0.1275  0.1588  0.0585
  475MOL0     C65414   9.778   7.275   1.655  0.2654 -0.4997 -0.4210
  475MOL0     O65415   9.831   7.180   1.744 -0.9381 -0.6613 -1.0629
  475MOL0     C65416   9.819   7.205   1.880 -0.2245 -0.1572  1.3196
  475MOL0     C65417   9.695   7.189   1.945  0.3553  0.7707  0.3289
  475MOL0     C65418   9.680   7.235   2.081  0.9968  0.5418 -0.4293
  475MOL0     C65419   9.783   7.300   2.141 -0.1785 -0.5202  0.2782
  475MOL0     O65420   9.789   7.363   2.260 -0.4761 -0.2091 -0.9089
  475MOL0     C65421   9.672   7.366   2.346  0.3602  0.0723 -0.6562
  475MOL0     C65422   9.688   7.440   2.481 -0.3657 -0.5522  0.2805
  475MOL0     C65423   9.787   7.558   2.463  0.4944 -0.6530  0.5156
  475MOL0     C65424   9.810   7.616   2.600 -0.1506  0.7863 -0.4762
  475MOL0     C65425   9.930   7.715   2.611 -0.2888 -0.3213  0.0813
  475MOL0     C65426   9.924   7.841   2.522  0.4660  0.2817 -0.9907
  475MOL0     C65427  10.043   7.938   2.553 -0.1486 -0.0643  0.1711
  475MOL0     C65428  10.022   8.011   2.689  0.3677 -0.1918 -0.6794
  475MOL0     N65429  10.132   8.101   2.719 -0.3649 -0.1513  0.8773
  475MOL0     C65430  10.251   8.120   2.658  0.4734  0.6503  0.4730
  475MOL0     C65431  10.304   8.227   2.715  0.4972 -0.1665 -0.7058
  475MOL0     C65432  10.437   8.286   2.691 -0.9053  0.3864  0.3422
  475MOL0     C65433  10.542   8.175   2.653  0.2623 -0.0506 -0.0329
  475MOL0     C65434  10.685   8.229   2.642  0.4279  0.3288  0.2745
  475MOL0     C65435  10.716   8.288   2.505 -0.3072 -0.0387  0.0888
  475MOL0     O65436  10.843   8.357   2.514 -0.1531 -0.1460 -0.0828
  475MOL0     C65437  10.899   8.384   2.392  0.2242  0.4403 -0.9080
  475MOL0     C65438  11.034   8.391   2.390  0.2946 -0.4457  1.0158
  475MOL0     C65439  11.107   8.412   2.274 -0.7492 -0.8890 -0.3911
  475MOL0     C65440  11.258   8.398   2.282 -0.7759  0.2616 -0.0927
  475MOL0     C65441  11.042   8.442   2.147  0.1963  0.9999  0.2371
  475MOL0     C65442  11.105   8.450   2.013 -0.3031 -0.2935  0.1380
  475MOL0     O65443  11.226   8.391   1.992 -0.0850  0.2894 -0.1244
  475MOL0     C65444  11.294   8.376   1.873  0.5697 -0.2858  0.5448
  475MOL0     C65445  11.436   8.356   1.889  0.4372 -0.0370  0.1620
  475MOL0     C65446  11.523   8.356   1.776  0.4436  0.0797 -0.4394
  475MOL0     C65447  11.474   8.383   1.650  0.3184 -0.3494  0.4710
  475MOL0     O65448  11.558   8.409   1.536  0.1267  0.1091 -0.9428
  475MOL0     C65449  11.628   8.531   1.552  0.0858  0.0874 -0.4023
  475MOL0     C65450  11.634   8.603   1.414 -0.3704 -0.1537  0.5202
  475MOL0     C65451  11.733   8.726   1.430 -0.4564 -0.8359 -0.1940
  475MOL0     C65452  11.703   8.822   1.316  0.0434  0.3546  0.0718
  475MOL0     C65453  11.727   8.970   1.352  0.2025  0.4573 -0.3977
  475MOL0     C65454  11.729   9.054   1.220  0.1117 -0.4255  0.1004
  475MOL0     C65455  11.761   9.206   1.254 -1.2016  0.7871 -0.2713
  475MOL0     C65456  11.648   9.283   1.326 -0.1263 -0.5256  0.3165
  475MOL0    Cl65457  11.514   9.310   1.206  0.2490  0.2525 -0.2429
  475MOL0     C65458  11.336   8.390   1.634 -0.2249  0.4254 -0.3146
  475MOL0     C65459  11.249   8.383   1.742 -0.3854 -0.0408  0.4803
  475MOL0     O65460  11.049   8.521   1.932  0.2016 -0.0786 -0.3625
  475MOL0     C65461  10.898   8.453   2.158 -0.5293 -0.2261 -0.7729
  475MOL0     C65462  10.834   8.435   2.274  0.1126  0.0457 -0.7900
  475MOL0     N65463  10.213   8.271   2.808 -0.1914 -1.0167  0.0906
  475MOL0     N65464  10.110   8.190   2.819  0.1170  0.0002 -0.8106
  475MOL0     C65465   9.903   7.315   2.069 -0.0674 -0.8181  0.7190
  475MOL0     C65466   9.918   7.277   1.936 -0.5436 -0.5374 -1.1644
  475MOL0     C65467   9.760   7.209   1.521  0.7089  0.4255 -0.9416
  475MOL0     C65468   9.856   7.137   1.469  0.2055  1.3805 -0.3300
  475MOL0     C65469   9.841   7.089   1.332  0.7736  0.5112  0.1127
  475MOL0     C65470   9.726   7.106   1.260  0.1799  0.6754 -0.0121
  475MOL0     O65471   9.691   7.060   1.134 -0.3163 -0.9327  0.3359
  475MOL0     C65472   9.789   7.025   1.039 -0.8383 -0.3924 -0.6777
  475MOL0     C65473   9.803   6.885   0.989 -0.3107 -0.1720  0.1424
  475MOL0     C65474   9.925   6.867   0.892 -0.2244 -0.7726 -0.4101
  475MOL0     C65475   9.916   6.726   0.831  0.8454  0.0071 -0.0027
  475MOL0     C65476   9.921   6.604   0.920  0.6900 -1.0892  0.2195
  475MOL0     C65477   9.948   6.500   0.986  0.0969 -0.0685  0.0035
  475MOL0     C65478   9.618   7.182   1.323 -0.2387 -0.4645 -0.1943
  475MOL0     C65479   9.635   7.229   1.453  0.2117 -0.6227  0.0169
  475MOL0     C65480   9.518   7.303   1.516  0.3317 -0.2264 -0.2642
  475MOL0     H65481   9.608   7.137   1.906  0.1392  0.2327  1.4785
  475MOL0     H65482   9.589   7.214   2.136 -0.3362  2.0505 -1.9567
  475MOL0     H65483   9.643   7.263   2.368  2.8454 -0.3123  1.4399
  475MOL0     H65484   9.591   7.420   2.297 -1.4289 -1.6033  0.3149
  475MOL0     H65485   9.594   7.469   2.529  0.3813  1.0151  0.8627
  475MOL0     H65486   9.740   7.377   2.554  0.2410 -0.4742 -0.0856
  475MOL0     H65487   9.876   7.513   2.418 -1.0511 -0.8433 -2.6159
  475MOL0     H65488   9.757   7.643   2.402 -0.0785  1.0167  2.9773
  475MOL0     H65489   9.720   7.664   2.638 -0.8508 -1.8650  1.5064
  475MOL0     H65490   9.833   7.536   2.670 -0.4381  1.2745  0.1834
  475MOL0     H65491  10.013   7.645   2.595 -1.4028 -1.7192  0.2077
  475MOL0     H65492   9.947   7.751   2.713  0.5573  1.7618 -0.7445
  475MOL0     H65493   9.935   7.811   2.418  0.0835 -2.3039 -0.3690
  475MOL0     H65494   9.832   7.900   2.530  0.2911 -0.0623 -0.3258
  475MOL0     H65495  10.055   8.008   2.469  0.5991 -0.4054 -0.0124
  475MOL0     H65496  10.133   7.875   2.554 -0.3173 -0.3069  0.1198
  475MOL0     H65497   9.929   8.068   2.682 -1.1424 -2.6874 -3.4761
  475MOL0     H65498  10.015   7.933   2.765 -1.9040  0.3912 -0.2054
  475MOL0     H65499  10.289   8.058   2.577 -1.4769 -0.5583  0.4133
  475MOL0     H65500  10.471   8.342   2.778  1.4107 -2.0202  1.1164
  475MOL0     H65501  10.443   8.360   2.611  0.8644  0.7930  0.8087
  475MOL0     H65502  10.548   8.095   2.728 -1.6524 -2.2962 -2.1133
  475MOL0     H65503  10.523   8.122   2.559 -2.3430  0.1154  0.3353
  475MOL0     H65504  10.704   8.294   2.728 -0.9214  2.4629 -0.9525
  475MOL0     H65505  10.755   8.145   2.634  2.5990  2.1759 -3.9218
  475MOL0     H65506  10.703   8.218   2.422 -0.9495  0.8721 -0.5906
  475MOL0     H65507  10.652   8.376   2.498  0.3338  0.3006 -2.9175
  475MOL0     H65508  11.082   8.353   2.480 -0.4305 -2.6063  0.5576
  475MOL0     H65509  11.278   8.407   2.389  2.2321 -1.2652 -0.4081
  475MOL0     H65510  11.304   8.484   2.232  0.6591 -0.2752  0.2429
  475MOL0     H65511  11.289   8.302   2.238 -4.3124 -0.6629 -0.8853
  475MOL0     H65512  11.484   8.349   1.986 -1.2273 -1.6196  0.9412
  475MOL0     H65513  11.625   8.373   1.809  0.4891  1.0692 -1.0377
  475MOL0     H65514  11.580   8.598   1.624  1.1554  0.6762 -0.2185
  475MOL0     H65515  11.731   8.520   1.587 -0.0361  0.0633 -0.0532
  475MOL0     H65516  11.678   8.522   1.356 -2.1081 -1.2052  0.6029
  475MOL0     H65517  11.536   8.621   1.369 -2.3458 -7.2082  0.7567
  475MOL0     H65518  11.839   8.699   1.425  0.9558  3.9898 -3.7789
  475MOL0     H65519  11.713   8.798   1.510 -1.8379  0.2830 -1.4758
  475MOL0     H65520  11.600   8.811   1.280  0.7822 -0.5177 -1.9666
  475MOL0     H65521  11.773   8.795   1.237 -1.0200  0.0992 -0.8115
  475MOL0     H65522  11.648   9.005   1.420  1.6302  1.0274  1.0488
  475MOL0     H65523  11.815   8.998   1.411  3.0688 -3.4567 -2.3862
  475MOL0     H65524  11.629   9.046   1.178 -0.1619 -1.3436  0.8916
  475MOL0     H65525  11.806   9.016   1.152 -0.7295 -1.1417 -0.4808
  475MOL0     H65526  11.785   9.253   1.158  3.1906  1.4991  0.9311
  475MOL0     H65527  11.850   9.206   1.318 -1.9353 -2.0646  0.9064
  475MOL0     H65528  11.688   9.382   1.348 -2.9718  1.2986 -2.0848
  475MOL0     H65529  11.601   9.228   1.408  0.1121 -1.1295  0.0538
  475MOL0     H65530  11.292   8.406   1.536  1.1416 -3.4840 -1.7451
  475MOL0     H65531  11.146   8.409   1.724  0.4779  3.2326 -0.5605
  475MOL0     H65532  10.845   8.489   2.070  0.3528  0.0879 -1.1897
  475MOL0     H65533  10.732   8.469   2.293  0.4236  0.4929  0.1540
  475MOL0     H65534   9.983   7.374   2.114  0.9069 -0.5067 -1.3155
  475MOL0     H65535  10.008   7.290   1.876 -0.9610 -2.1960 -2.2126
  475MOL0     H65536   9.956   7.125   1.510  0.5552 -1.2111 -1.7677
  475MOL0     H65537   9.930   7.039   1.295  1.5557 -1.0812  3.7213
  475MOL0     H65538   9.758   7.094   0.960  1.4325  1.7435  0.1422
  475MOL0     H65539   9.889   7.051   1.076 -1.5547  0.6340  0.6374
  475MOL0     H65540   9.711   6.867   0.932 -0.9685 -1.5479  1.5984
  475MOL0     H65541   9.810   6.808   1.066  4.7045  1.4660  1.7534
  475MOL0     H65542   9.932   6.943   0.814  0.7095 -0.9071 -0.4717
  475MOL0     H65543  10.006   6.886   0.964 -1.4617  0.3074  0.7408
  475MOL0     H65544   9.994   6.713   0.756  0.9845 -0.6497  0.2467
  475MOL0     H65545   9.821   6.729   0.777  1.6565  2.8134 -1.3980
  475MOL0     H65546   9.962   6.407   1.036  0.2477 -1.2022 -2.0597
  475MOL0     H65547   9.519   7.185   1.280 -0.1232 -0.8976 -0.5007
  475MOL0     H65548   9.428   7.250   1.483 -1.5599  2.7966 -0.3481
  475MOL0     H65549   9.508   7.308   1.624 -2.8745 -0.6737 -0.4259
  475MOL0     H65550   9.506   7.406   1.482 -2.3987  0.3471  2.0704
  476MOL0     O65551   2.665   0.773  10.276  1.0626  1.4043 -0.9172
  476MOL0     C65552   2.737   0.770  10.374  0.3271  0.1390 -0.4235
  476MOL0     O65553   2.694   0.706  10.493  0.2641  0.6167 -1.0681
  476MOL0     C65554   2.557   0.694  10.506 -0.1635  0.0141  1.0021
  476MOL0     C65555   2.475   0.803  10.499 -0.3122  0.0304 -0.7302
  476MOL0     C65556   2.336   0.795  10.503 -0.3949 -0.6533  0.3301
  476MOL0     C65557   2.277   0.666  10.528  0.1547 -0.6960 -0.3622
  476MOL0     O65558   2.132   0.669  10.536 -0.4441  0.9582  0.6970
  476MOL0     C65559   2.080   0.577  10.629  0.5431 -0.3750 -0.4910
  476MOL0     C65560   1.929   0.605  10.618  0.4925 -0.2735  0.4079
  476MOL0     C65561   1.843   0.519  10.705 -0.8288  0.4286 -0.2276
  476MOL0     C65562   1.748   0.445  10.614 -0.2710 -1.0513  0.2251
  476MOL0     C65563   1.667   0.348  10.704 -0.3281 -0.4365  0.3788
  476MOL0     C65564   1.567   0.424  10.788 -0.1093  0.3838 -0.7017
  476MOL0     C65565   1.447   0.333  10.801  0.9963 -0.1273 -0.5629
  476MOL0     C65566   1.325   0.403  10.880 -0.5009  0.2804  0.1141
  476MOL0     N65567   1.223   0.454  10.790  0.7896  0.4956  0.1675
  476MOL0     C65568   1.132   0.372  10.721 -0.1345  0.3679  0.1023
  476MOL0     C65569   1.060   0.456  10.641 -0.4035  1.2020 -0.1066
  476MOL0     C65570   0.965   0.398  10.534 -0.5736 -0.1759  0.0157
  476MOL0     C65571   0.816   0.402  10.562 -0.9066  0.0138 -0.8495
  476MOL0     C65572   0.780   0.274  10.643  0.3239  0.6446  0.5005
  476MOL0     C65573   0.633   0.267  10.674 -0.1874 -0.2293  0.6971
  476MOL0     O65574   0.557   0.250  10.549  0.2393  0.8665 -0.6144
  476MOL0     C65575   0.424   0.285  10.541  0.5759 -0.4219 -0.2860
  476MOL0     C65576   0.318   0.207  10.563 -0.0572 -0.0312 -1.0187
  476MOL0     C65577   0.190   0.254  10.551 -0.0667 -0.0119 -0.2093
  476MOL0     C65578   0.089   0.143  10.593  0.7991 -0.0816 -1.0928
  476MOL0     C65579   0.163   0.376  10.495 -0.1131  0.0529 -0.5184
  476MOL0     C65580   0.032   0.422  10.456 -0.3573 -0.6214 -0.2733
  476MOL0     O65581   0.005   0.552  10.480 -0.5359  0.0442 -0.3219
  476MOL0     C65582  -0.122   0.594  10.462  0.8796  0.5735  0.5880
  476MOL0     C65583  -0.237   0.582  10.551 -0.2513  0.6182 -0.2425
  476MOL0     C65584  -0.368   0.608  10.511  0.4662 -0.2808  0.3327
  476MOL0     C65585  -0.377   0.679  10.387 -0.2230 -0.4359  0.1532
  476MOL0     O65586  -0.502   0.736  10.374 -0.0489  0.4801  0.6015
  476MOL0     C65587  -0.513   0.843  10.277  0.3197  1.2628 -0.5083
  476MOL0     C65588  -0.665   0.838  10.228 -0.0251 -0.4331  0.0440
  476MOL0     C65589  -0.724   0.697  10.198 -1.9039 -0.1401  0.4916
  476MOL0     C65590  -0.872   0.722  10.147  0.1034 -1.0139  0.1234
  476MOL0     C65591  -0.946   0.591  10.137  0.4734  1.0043 -0.2780
  476MOL0     C65592  -1.085   0.606  10.065 -0.0352  0.2909 -0.3011
  476MOL0     C65593  -1.073   0.579   9.914  0.4653 -1.0263 -0.2000
  476MOL0     C65594  -1.066   0.429   9.882  0.0105 -0.0067 -0.0794
  476MOL0    Cl65595  -1.086   0.403   9.714 -0.5302 -0.0844 -0.0342
  476MOL0     C65596  -0.261   0.700  10.304  0.5830  0.3094  0.6064
  476MOL0     C65597  -0.136   0.655  10.341  0.2710  1.1429  0.7016
  476MOL0     O65598  -0.044   0.338  10.423  0.9967  0.1640 -0.4041
  476MOL0     C65599   0.272   0.457  10.470  0.8284 -0.3539 -0.3601
  476MOL0     C65600   0.399   0.411  10.483 -0.1667  0.1283 -1.3172
  476MOL0     N65601   1.100   0.587  10.663 -0.2170 -0.6719 -0.1905
  476MOL0     N65602   1.199   0.582  10.751  0.1168 -0.4498  0.7578
  476MOL0     C65603   2.365   0.550  10.535 -0.6249  0.0175 -0.4291
  476MOL0     C65604   2.505   0.573  10.527 -1.6966  0.8090  0.2188
  476MOL0     C65605   2.872   0.846  10.380  0.1115  0.4869  0.0716
  476MOL0     C65606   2.931   0.860  10.503 -0.0911  0.6786 -0.1437
  476MOL0     C65607   3.053   0.929  10.506 -0.3970 -0.4198 -0.4328
  476MOL0     C65608   3.117   0.985  10.398 -0.0277 -0.9778  0.5854
  476MOL0     O65609   3.226   1.066  10.439  0.5798  0.4094  0.2333
  476MOL0     C65610   3.298   1.108  10.325 -0.7843 -0.5606 -0.0662
  476MOL0     C65611   3.402   1.209  10.389 -0.5996 -1.0891  0.2317
  476MOL0     C65612   3.487   1.279  10.276 -0.1931  0.3883 -0.6630
  476MOL0     C65613   3.592   1.360  10.340 -0.6204 -0.1432  0.6872
  476MOL0     C65614   3.540   1.487  10.383 -0.6814 -0.1953 -0.6417
  476MOL0     C65615   3.507   1.592  10.433  0.1670  0.7273  0.5146
  476MOL0     C65616   3.058   0.972  10.278  0.4531  0.4158 -0.5715
  476MOL0     C65617   2.937   0.898  10.268  0.5344 -1.1158  0.0846
  476MOL0     C65618   2.884   0.879  10.123 -1.2459 -0.8491 -0.4261
  476MOL0     H65619   2.524   0.900  10.497  0.7625 -0.3686  2.1127
  476MOL0     H65620   2.277   0.884  10.484  2.0818  0.6982 -1.5596
  476MOL0     H65621   2.108   0.613  10.728 -0.3865 -3.4698  1.0260
  476MOL0     H65622   2.099   0.471  10.613  2.3387 -0.6169  2.4053
  476MOL0     H65623   1.919   0.711  10.645  1.2098  0.6761 -2.6084
  476MOL0     H65624   1.892   0.599  10.515  1.0714  2.0686  0.0087
  476MOL0     H65625   1.913   0.453  10.758 -0.9157  1.1308  0.7930
  476MOL0     H65626   1.783   0.572  10.780 -0.8885 -0.9966  0.7666
  476MOL0     H65627   1.678   0.508  10.558  2.1217  0.9414 -0.7245
  476MOL0     H65628   1.794   0.397  10.528 -1.8257  0.3958 -1.5042
  476MOL0     H65629   1.735   0.289  10.767 -0.1741 -0.2359  0.4025
  476MOL0     H65630   1.610   0.279  10.642  0.6689  1.6855 -3.1848
  476MOL0     H65631   1.619   0.449  10.881 -1.1399 -0.5504  0.1520
  476MOL0     H65632   1.533   0.513  10.734  0.9201  2.3866  1.7627
  476MOL0     H65633   1.476   0.247  10.861 -4.1878 -1.3286  0.7365
  476MOL0     H65634   1.413   0.300  10.703  0.8752  0.6124 -0.7792
  476MOL0     H65635   1.284   0.331  10.952 -0.1932 -0.2968 -0.2800
  476MOL0     H65636   1.362   0.488  10.939  0.0723  0.9089 -1.1219
  476MOL0     H65637   1.131   0.264  10.716 -0.9436  0.4036 -0.8400
  476MOL0     H65638   1.001   0.298  10.505  2.3016  0.1940  1.8387
  476MOL0     H65639   0.982   0.461  10.446 -1.5274  1.8804  1.2423
  476MOL0     H65640   0.801   0.490  10.626 -1.5438 -0.5097 -0.2672
  476MOL0     H65641   0.752   0.423  10.476 -2.5600  0.3158  0.4021
  476MOL0     H65642   0.809   0.189  10.581 -0.5592  3.5700 -4.4313
  476MOL0     H65643   0.835   0.275  10.738  0.8489 -1.8389  0.2757
  476MOL0     H65644   0.611   0.176  10.732 -1.1141  0.5513  1.6032
  476MOL0     H65645   0.600   0.356  10.728  0.5373  0.2637  0.3497
  476MOL0     H65646   0.330   0.105  10.598 -2.7329 -0.6129 -1.6089
  476MOL0     H65647   0.060   0.076  10.512 -1.6335  0.5121 -0.8103
  476MOL0     H65648   0.005   0.188  10.648  1.1773 -2.3307  1.4761
  476MOL0     H65649   0.128   0.071  10.664 -2.4323 -2.8087 -1.8237
  476MOL0     H65650  -0.217   0.533  10.646  0.8653  0.5318 -0.5013
  476MOL0     H65651  -0.445   0.630  10.584 -0.4196  1.6471 -1.0714
  476MOL0     H65652  -0.482   0.945  10.300 -0.2449  1.2910  0.1565
  476MOL0     H65653  -0.462   0.817  10.184  1.0742  0.5441  0.0904
  476MOL0     H65654  -0.719   0.889  10.309 -3.3884 -3.2990 -0.1562
  476MOL0     H65655  -0.677   0.892  10.134 -0.3639  0.7995  0.7775
  476MOL0     H65656  -0.714   0.645  10.294  0.7957  1.1619  0.9882
  476MOL0     H65657  -0.671   0.626  10.135 -1.5245 -2.6740  3.4223
  476MOL0     H65658  -0.865   0.777  10.052 -1.1204 -1.7930 -0.4433
  476MOL0     H65659  -0.913   0.784  10.227 -0.0614 -0.7381 -0.1692
  476MOL0     H65660  -0.881   0.516  10.092 -0.3293  1.4375 -2.2430
  476MOL0     H65661  -0.961   0.548  10.236  0.6423  0.5334 -0.4566
  476MOL0     H65662  -1.125   0.705  10.089 -1.2583 -0.3654  0.5009
  476MOL0     H65663  -1.150   0.534  10.116 -1.0583  2.1061  1.1128
  476MOL0     H65664  -0.995   0.639   9.865  0.6684 -0.5950  0.6396
  476MOL0     H65665  -1.166   0.623   9.879  0.7355  0.5354  0.9518
  476MOL0     H65666  -1.128   0.358   9.938 -0.5945 -0.7791 -1.6890
  476MOL0     H65667  -0.961   0.401   9.901  0.0587  0.4484  0.3491
  476MOL0     H65668  -0.280   0.763  10.217 -1.4895 -0.0387  0.7448
  476MOL0     H65669  -0.044   0.661  10.283 -1.3402 -0.2827 -2.2144
  476MOL0     H65670   0.259   0.560  10.438  0.8896  0.0645  0.9130
  476MOL0     H65671   0.483   0.471  10.449  1.1934  0.8723  2.8489
  476MOL0     H65672   2.341   0.451  10.573 -0.8595  0.9889  2.0946
  476MOL0     H65673   2.572   0.489  10.538  0.0479  2.1744  0.4052
  476MOL0     H65674   2.887   0.820  10.593  2.7710 -1.5987  0.4040
  476MOL0     H65675   3.112   0.933  10.597 -0.6273 -2.0424 -0.1689
  476MOL0     H65676   3.347   1.023  10.276 -1.0735 -1.2865  0.8827
  476MOL0     H65677   3.232   1.161  10.256 -0.3499 -2.2098 -1.8478
  476MOL0     H65678   3.475   1.161  10.454  1.0438 -1.7147 -1.9724
  476MOL0     H65679   3.344   1.284  10.444  2.5458  1.1032  0.8061
  476MOL0     H65680   3.535   1.201  10.216 -2.1436 -0.7407 -0.8216
  476MOL0     H65681   3.420   1.340  10.215  0.1482 -1.1862 -2.7036
  476MOL0     H65682   3.679   1.382  10.277 -0.3438  0.2064  1.1770
  476MOL0     H65683   3.633   1.305  10.426 -2.2549 -0.4642  1.2987
  476MOL0     H65684   3.475   1.694  10.442  2.7103  1.5319  1.3862
  476MOL0     H65685   3.105   1.005  10.186  5.7697 -0.8667  1.3469
  476MOL0     H65686   2.788   0.927  10.104 -1.0818 -0.6854 -0.8563
  476MOL0     H65687   2.957   0.919  10.053 -0.1781 -0.1252  1.0479
  476MOL0     H65688   2.876   0.773  10.099 -1.7367 -1.8961  3.5867
  477MOL0     O65689   5.368   2.485   3.389 -0.3809 -0.4662  0.1391
  477MOL0     C65690   5.302   2.398   3.326  0.3704  0.6226  0.3932
  477MOL0     O65691   5.190   2.427   3.249  0.0966  0.0638 -0.0023
  477MOL0     C65692   5.165   2.544   3.193  0.7712 -0.0319 -0.4249
  477MOL0     C65693   5.045   2.540   3.119  0.1594  0.4974 -0.3168
  477MOL0     C65694   5.013   2.651   3.043  0.1882  0.7479 -0.5266
  477MOL0     C65695   5.097   2.757   3.021  0.4667  0.0184 -0.4711
  477MOL0     O65696   5.078   2.860   2.937  0.2681 -0.2706 -0.1557
  477MOL0     C65697   5.041   2.832   2.799 -0.1393  0.1007 -0.4142
  477MOL0     C65698   4.972   2.955   2.743 -0.9175  1.2414  0.4901
  477MOL0     C65699   4.926   2.946   2.602  0.9754 -0.0002  0.1109
  477MOL0     C65700   4.851   2.808   2.573 -0.1357 -0.4297  1.0602
  477MOL0     C65701   4.722   2.793   2.647  0.8450  1.0147  0.7590
  477MOL0     C65702   4.672   2.643   2.632  0.0804 -0.1963  0.2921
  477MOL0     C65703   4.727   2.568   2.763  0.0122 -0.8615 -0.4984
  477MOL0     C65704   4.642   2.446   2.792  1.1871 -0.0158 -0.3072
  477MOL0     N65705   4.705   2.383   2.903 -0.3216  0.2458 -0.1538
  477MOL0     C65706   4.786   2.266   2.891 -0.4850 -0.4946  0.8245
  477MOL0     C65707   4.796   2.224   3.021  0.2609 -0.4032 -0.3239
  477MOL0     C65708   4.874   2.108   3.057  0.3901  0.1650 -0.5436
  477MOL0     C65709   4.778   1.991   3.088 -0.1245  1.7041  0.9614
  477MOL0     C65710   4.834   1.850   3.111  0.6743  1.0107 -0.3957
  477MOL0     C65711   4.717   1.745   3.157  0.6223  0.0345  0.5303
  477MOL0     O65712   4.749   1.607   3.129 -0.2918  0.3937 -0.3428
  477MOL0     C65713   4.690   1.566   3.010 -0.6133  0.6500 -0.3178
  477MOL0     C65714   4.580   1.479   2.995 -0.2586 -1.0459  0.5743
  477MOL0     C65715   4.519   1.447   2.876 -0.8822  0.3352  0.0893
  477MOL0     C65716   4.395   1.352   2.870 -0.2728 -0.3736  0.4587
  477MOL0     C65717   4.585   1.488   2.751 -0.2776 -0.2755 -0.3551
  477MOL0     C65718   4.526   1.471   2.620 -0.5473  0.1530 -0.0826
  477MOL0     O65719   4.393   1.435   2.615 -0.6235 -0.3658 -0.5738
  477MOL0     C65720   4.317   1.454   2.507  1.0710  0.1185  0.5842
  477MOL0     C65721   4.343   1.547   2.399  0.5809 -0.6289 -1.2923
  477MOL0     C65722   4.245   1.548   2.294  0.6431 -0.6608 -0.8226
  477MOL0     C65723   4.141   1.459   2.287 -0.2030  0.3171 -0.3542
  477MOL0     O65724   4.067   1.467   2.174 -0.2969  0.4760  0.2639
  477MOL0     C65725   4.033   1.355   2.093 -0.4296  0.5822 -0.6037
  477MOL0     C65726   3.986   1.408   1.965  0.5697  0.9197 -0.6557
  477MOL0     C65727   3.880   1.525   1.971  0.5859  0.5134  1.2934
  477MOL0     C65728   3.851   1.594   1.838 -0.4237  1.4794 -0.5849
  477MOL0     C65729   3.712   1.664   1.839 -0.0745  0.6293  0.0199
  477MOL0     C65730   3.667   1.730   1.703 -0.0070  0.1746  0.3052
  477MOL0     C65731   3.748   1.859   1.661 -0.4018 -0.5090 -0.3113
  477MOL0     C65732   3.721   1.974   1.754 -0.3178  0.7121  0.6911
  477MOL0    Cl65733   3.558   2.056   1.722  0.2552 -0.3437 -0.1979
  477MOL0     C65734   4.132   1.356   2.376  0.1662  0.6348 -0.2904
  477MOL0     C65735   4.214   1.355   2.490  0.0844  0.5599  1.3299
  477MOL0     O65736   4.604   1.486   2.525 -0.0767  0.3403 -0.2876
  477MOL0     C65737   4.701   1.564   2.763  0.5965 -0.3907  0.1687
  477MOL0     C65738   4.755   1.593   2.891  0.4774  0.0220 -1.6746
  477MOL0     N65739   4.717   2.299   3.105  0.5378 -0.8406  0.0733
  477MOL0     N65740   4.661   2.399   3.038  0.6451 -0.2625  0.5347
  477MOL0     C65741   5.215   2.760   3.097  0.5284 -0.7889 -0.4079
  477MOL0     C65742   5.247   2.654   3.179  1.2072 -0.5226 -0.1509
  477MOL0     C65743   5.319   2.256   3.362 -0.4851  0.5570  0.1090
  477MOL0     C65744   5.208   2.193   3.430 -0.2090  0.1849  0.3073
  477MOL0     C65745   5.216   2.067   3.485  0.3972  0.5933  0.9735
  477MOL0     C65746   5.336   1.997   3.468  0.4291  0.4285  0.5107
  477MOL0     O65747   5.342   1.865   3.499 -0.0724 -0.5721  0.7667
  477MOL0     C65748   5.417   1.808   3.608 -0.2232  0.0379 -1.1964
  477MOL0     C65749   5.397   1.875   3.744  0.5084  0.5418  0.8697
  477MOL0     C65750   5.265   1.837   3.807 -0.5785  0.0695 -0.5625
  477MOL0     C65751   5.228   1.907   3.942 -0.1736 -0.2663 -0.1910
  477MOL0     C65752   5.221   2.051   3.923  0.4355 -0.7451  0.2107
  477MOL0     C65753   5.218   2.171   3.888  0.5053  0.5041 -0.3963
  477MOL0     C65754   5.450   2.058   3.409  0.1109 -0.1905 -0.1243
  477MOL0     C65755   5.443   2.182   3.357  0.5773 -1.7503  0.2047
  477MOL0     C65756   5.577   2.251   3.310 -0.2258  0.5356  0.3122
  477MOL0     H65757   4.973   2.460   3.132  1.1614 -0.5095 -0.8251
  477MOL0     H65758   4.915   2.651   2.997 -0.5081  3.2336  0.7795
  477MOL0     H65759   4.972   2.747   2.796 -0.7548  0.4740  1.6794
  477MOL0     H65760   5.134   2.806   2.749 -0.2329  0.0385 -0.5555
  477MOL0     H65761   4.883   2.977   2.803 -1.5451  1.5937 -0.5416
  477MOL0     H65762   5.032   3.044   2.761 -0.2381  0.4866  2.1850
  477MOL0     H65763   4.860   3.031   2.581  2.5436  1.3997  0.6880
  477MOL0     H65764   5.012   2.972   2.540 -0.8418  1.1518 -2.0661
  477MOL0     H65765   4.830   2.809   2.465 -2.6053  1.8663  1.4470
  477MOL0     H65766   4.910   2.718   2.588 -0.5962 -1.2754 -1.6200
  477MOL0     H65767   4.643   2.857   2.608 -0.3492 -0.7620  0.1190
  477MOL0     H65768   4.745   2.829   2.747 -1.4697  0.6274  1.4902
  477MOL0     H65769   4.565   2.628   2.646  0.3463 -0.1646  2.7184
  477MOL0     H65770   4.706   2.585   2.546 -0.7675  1.4190 -1.1949
  477MOL0     H65771   4.733   2.638   2.848  1.2397 -1.1747 -0.3042
  477MOL0     H65772   4.830   2.533   2.755 -0.2002 -1.6428  0.0665
  477MOL0     H65773   4.539   2.460   2.825  1.1076 -2.0114  0.4666
  477MOL0     H65774   4.641   2.371   2.712 -1.2807 -3.8107  2.8852
  477MOL0     H65775   4.829   2.225   2.800 -2.4173 -0.6364 -0.0717
  477MOL0     H65776   4.937   2.122   3.145  1.3534 -1.0103 -1.0071
  477MOL0     H65777   4.941   2.080   2.975  1.7542  1.8236 -0.0506
  477MOL0     H65778   4.724   2.026   3.177 -0.4489  2.6796  0.4034
  477MOL0     H65779   4.705   1.983   3.007  0.0090  1.9104  0.8192
  477MOL0     H65780   4.887   1.818   3.021 -4.6854 -0.0372 -3.6294
  477MOL0     H65781   4.888   1.874   3.203 -1.7969  0.9870  1.1839
  477MOL0     H65782   4.700   1.758   3.264  1.6948 -2.4231  1.0668
  477MOL0     H65783   4.623   1.761   3.104  1.2018 -2.4415 -1.4419
  477MOL0     H65784   4.531   1.430   3.079 -1.4196 -0.4378  0.2652
  477MOL0     H65785   4.387   1.293   2.962  3.1245 -2.8272 -0.5917
  477MOL0     H65786   4.401   1.268   2.800  0.3667 -0.4738  0.6178
  477MOL0     H65787   4.310   1.417   2.849 -1.8765 -2.1610  1.1134
  477MOL0     H65788   4.418   1.625   2.406 -1.3133  1.3345 -1.8596
  477MOL0     H65789   4.248   1.627   2.220  0.4233  1.1988  1.0635
  477MOL0     H65790   4.123   1.294   2.080 -1.4759 -1.4365  1.0040
  477MOL0     H65791   3.958   1.297   2.148  2.0261 -1.4918  0.7798
  477MOL0     H65792   4.070   1.448   1.906 -0.7203  2.4810 -1.5381
  477MOL0     H65793   3.956   1.324   1.902  2.3577 -1.2881  1.2779
  477MOL0     H65794   3.907   1.610   2.033 -2.7027  2.0737  0.8221
  477MOL0     H65795   3.783   1.478   1.992 -0.0186 -0.6241 -3.0193
  477MOL0     H65796   3.856   1.512   1.766 -1.9839  0.2761  0.6112
  477MOL0     H65797   3.938   1.660   1.833  2.0215 -1.5998 -3.3102
  477MOL0     H65798   3.639   1.595   1.880 -0.9639  0.3739 -1.9232
  477MOL0     H65799   3.717   1.742   1.916 -0.7966 -0.3891  1.1372
  477MOL0     H65800   3.563   1.765   1.699  0.6201  2.8096  2.8379
  477MOL0     H65801   3.678   1.654   1.626  5.7593  0.5267  0.3288
  477MOL0     H65802   3.725   1.898   1.561  0.9601  0.6022 -0.2250
  477MOL0     H65803   3.856   1.842   1.664  0.2493  2.6359 -1.6373
  477MOL0     H65804   3.799   2.048   1.733  2.5793 -2.6363 -1.1991
  477MOL0     H65805   3.747   1.942   1.855 -0.1794  2.2210  1.1662
  477MOL0     H65806   4.065   1.273   2.354  2.4669 -1.7693  1.3146
  477MOL0     H65807   4.206   1.266   2.552  1.8572  0.4670  1.4748
  477MOL0     H65808   4.753   1.589   2.671  3.1108 -4.6726  0.1687
  477MOL0     H65809   4.830   1.672   2.885 -1.6942  2.4882  0.5567
  477MOL0     H65810   5.289   2.839   3.101 -1.0309  0.7112 -0.1687
  477MOL0     H65811   5.347   2.677   3.216  0.4731  2.5982  0.1784
  477MOL0     H65812   5.113   2.243   3.446 -0.7014 -1.3377  2.6478
  477MOL0     H65813   5.134   2.031   3.546 -0.4282  1.7912  0.6012
  477MOL0     H65814   5.392   1.702   3.617  0.6247 -0.0505  0.6077
  477MOL0     H65815   5.519   1.807   3.569  0.0493  1.0891 -0.5616
  477MOL0     H65816   5.411   1.982   3.727 -0.2680  0.7887  1.7373
  477MOL0     H65817   5.477   1.851   3.814 -1.8282 -3.3116  2.5655
  477MOL0     H65818   5.180   1.851   3.740 -4.8776  0.3716  4.3547
  477MOL0     H65819   5.260   1.728   3.815 -2.7044  0.2338  1.2271
  477MOL0     H65820   5.302   1.876   4.016  0.2909 -1.0528 -0.9653
  477MOL0     H65821   5.127   1.882   3.976 -0.4613  1.5431  0.3920
  477MOL0     H65822   5.205   2.276   3.874  1.1369  1.2301  3.4242
  477MOL0     H65823   5.546   2.011   3.392 -1.2457 -3.0508 -0.4328
  477MOL0     H65824   5.666   2.201   3.349  0.1803  1.0612  0.0691
  477MOL0     H65825   5.601   2.257   3.204  0.4933  0.5565  0.4718
  477MOL0     H65826   5.579   2.354   3.349  0.7382  0.6316  0.0245
  478MOL0     O65827   5.625   4.940   7.948  0.5052 -0.2527  0.5684
  478MOL0     C65828   5.515   4.952   8.000 -0.0649  0.1694 -0.7968
  478MOL0     O65829   5.431   4.849   8.030  0.2483 -0.2768  0.5410
  478MOL0     C65830   5.478   4.726   7.993  0.6467  0.4547  0.0434
  478MOL0     C65831   5.474   4.685   7.859 -0.0691 -0.6201  0.3822
  478MOL0     C65832   5.519   4.563   7.819 -0.1964 -0.0960  0.6899
  478MOL0     C65833   5.578   4.478   7.913  0.1717 -0.1907 -0.3772
  478MOL0     O65834   5.642   4.360   7.883 -0.3305 -0.7382 -0.2212
  478MOL0     C65835   5.686   4.337   7.749 -0.1843 -0.6386 -0.2818
  478MOL0     C65836   5.764   4.209   7.727  0.1898 -0.7484 -0.6271
  478MOL0     C65837   5.691   4.122   7.631  0.8705  0.9773  0.5956
  478MOL0     C65838   5.802   4.027   7.592  0.5248 -0.3051 -0.4879
  478MOL0     C65839   5.752   3.893   7.537 -0.5656 -0.4934 -0.6260
  478MOL0     C65840   5.668   3.907   7.403 -0.2818  0.2252  0.3133
  478MOL0     C65841   5.533   3.836   7.401 -0.1007 -0.0298  0.7450
  478MOL0     C65842   5.441   3.880   7.514  0.3157 -0.2278  0.2761
  478MOL0     N65843   5.300   3.864   7.474 -0.6306 -0.1460  0.2382
  478MOL0     C65844   5.213   3.970   7.470 -0.4409  0.7677  0.9058
  478MOL0     C65845   5.102   3.906   7.423  0.0938 -0.4212 -0.5345
  478MOL0     C65846   4.971   3.972   7.397 -0.6733 -0.0478  0.3498
  478MOL0     C65847   4.881   3.960   7.527 -0.8734  0.0857  0.6429
  478MOL0     C65848   4.752   4.040   7.511  1.2836  0.2819 -0.5707
  478MOL0     C65849   4.679   4.036   7.657  0.5428 -0.2095  0.5398
  478MOL0     O65850   4.615   3.916   7.696  0.2302  0.7745  0.3578
  478MOL0     C65851   4.563   3.904   7.818  0.7628  0.1614 -0.1896
  478MOL0     C65852   4.507   4.017   7.888  0.2799  0.9152  0.2388
  478MOL0     C65853   4.447   4.002   8.012  0.0941  0.5084 -0.5133
  478MOL0     C65854   4.378   4.117   8.079 -0.5013 -0.2959 -1.2116
  478MOL0     C65855   4.465   3.877   8.075 -0.8771 -0.0455  0.7130
  478MOL0     C65856   4.393   3.841   8.208  0.3593  0.0822  0.1693
  478MOL0     O65857   4.366   3.940   8.295 -0.3422  0.2990 -0.0472
  478MOL0     C65858   4.318   3.908   8.413 -0.0520  0.7406  0.2964
  478MOL0     C65859   4.388   3.828   8.503 -0.2401  0.8081 -0.6801
  478MOL0     C65860   4.355   3.793   8.629  0.3156 -1.0849 -0.7465
  478MOL0     C65861   4.244   3.868   8.686 -0.4904 -0.0272  0.2033
  478MOL0     O65862   4.191   3.863   8.809  0.0929 -0.3789 -0.7224
  478MOL0     C65863   4.224   3.758   8.907 -0.1427  0.7118 -0.5341
  478MOL0     C65864   4.327   3.804   9.019  1.1934  0.4642  0.0284
  478MOL0     C65865   4.363   3.699   9.113  0.0643  0.3810 -0.2949
  478MOL0     C65866   4.451   3.586   9.048  1.6643 -0.1157  1.0195
  478MOL0     C65867   4.488   3.472   9.143 -0.5816  1.7171  0.2946
  478MOL0     C65868   4.559   3.356   9.079  0.0125  0.1978 -0.6813
  478MOL0     C65869   4.566   3.225   9.164  0.8043  0.5148  0.3281
  478MOL0     C65870   4.646   3.234   9.295 -0.0787 -0.6170 -0.3544
  478MOL0    Cl65871   4.534   3.301   9.409 -0.0830 -0.2407 -0.1690
  478MOL0     C65872   4.171   3.951   8.597 -0.4917 -0.4370 -0.1763
  478MOL0     C65873   4.212   3.974   8.468 -0.2152 -1.1142 -0.4441
  478MOL0     O65874   4.379   3.720   8.229  0.2976 -0.6070  0.0238
  478MOL0     C65875   4.528   3.767   8.007 -0.1537  0.8197  0.1316
  478MOL0     C65876   4.576   3.782   7.879  0.0528 -0.2157  0.7900
  478MOL0     N65877   5.114   3.774   7.402 -1.0648  0.4826  0.6017
  478MOL0     N65878   5.235   3.747   7.441  0.7121 -0.1685 -0.1159
  478MOL0     C65879   5.579   4.512   8.045  0.0121 -0.8727 -0.0763
  478MOL0     C65880   5.535   4.643   8.089  0.0329  0.1283 -0.5224
  478MOL0     C65881   5.473   5.098   8.028  0.9928 -0.4266  0.2835
  478MOL0     C65882   5.340   5.123   7.998 -0.1048 -0.4066  0.0152
  478MOL0     C65883   5.285   5.255   7.986 -0.1139 -0.3730  1.1095
  478MOL0     C65884   5.363   5.361   8.036 -0.3382  0.3422  0.9925
  478MOL0     O65885   5.299   5.484   8.046 -0.3309  0.3364  0.5120
  478MOL0     C65886   5.342   5.589   8.133  0.4055  0.0668 -0.8318
  478MOL0     C65887   5.443   5.692   8.090  0.6914 -1.4537 -0.5098
  478MOL0     C65888   5.404   5.753   7.949 -0.1056 -0.2126 -0.0831
  478MOL0     C65889   5.265   5.801   7.937 -0.9811  0.3014  0.2005
  478MOL0     C65890   5.247   5.911   8.038 -0.9329  0.4933  1.1405
  478MOL0     C65891   5.230   5.992   8.123  0.5523 -0.7155  0.4971
  478MOL0     C65892   5.490   5.335   8.077 -0.4498 -0.3298 -0.8167
  478MOL0     C65893   5.556   5.212   8.064  0.5439 -0.7514 -0.1546
  478MOL0     C65894   5.706   5.193   8.098  0.2863 -0.1951 -0.6747
  478MOL0     H65895   5.460   4.760   7.782  0.0971 -0.5845  0.3861
  478MOL0     H65896   5.515   4.557   7.710  1.5540  3.1219  0.3161
  478MOL0     H65897   5.744   4.420   7.708  2.5577 -2.6780 -0.8223
  478MOL0     H65898   5.595   4.336   7.688  0.5618  0.2481 -1.4377
  478MOL0     H65899   5.865   4.242   7.699  0.7582 -0.9927  1.0025
  478MOL0     H65900   5.769   4.151   7.819  0.7344 -1.2807 -0.9842
  478MOL0     H65901   5.603   4.082   7.684  1.2289  2.3899  2.3571
  478MOL0     H65902   5.659   4.178   7.542  0.5329  2.1583  1.4362
  478MOL0     H65903   5.844   4.090   7.513  0.5586 -0.4310 -0.5692
  478MOL0     H65904   5.869   3.994   7.672 -0.8567 -3.2673 -0.4435
  478MOL0     H65905   5.701   3.835   7.615 -0.2391 -1.4576 -1.1150
  478MOL0     H65906   5.839   3.829   7.523 -1.3823 -1.6236 -0.6894
  478MOL0     H65907   5.665   4.009   7.361  4.1506  0.3054 -0.2544
  478MOL0     H65908   5.734   3.864   7.327  0.4687 -1.8839  2.0782
  478MOL0     H65909   5.530   3.727   7.393 -2.7742 -0.0220  0.8151
  478MOL0     H65910   5.508   3.868   7.300  0.2619 -1.1242  0.2987
  478MOL0     H65911   5.472   3.834   7.608 -0.9434  2.7432  2.2835
  478MOL0     H65912   5.453   3.987   7.533 -1.3610  0.4380 -1.9825
  478MOL0     H65913   5.237   4.072   7.499  2.4314 -0.0458  1.6742
  478MOL0     H65914   4.918   3.920   7.317 -1.5589  1.2212  0.0678
  478MOL0     H65915   4.975   4.076   7.363  1.0483 -0.7395 -1.8298
  478MOL0     H65916   4.879   3.853   7.548 -0.1933  0.0626  0.5874
  478MOL0     H65917   4.931   4.021   7.603 -1.3353  2.0587 -0.5466
  478MOL0     H65918   4.785   4.143   7.498  1.2829  0.7371  2.2945
  478MOL0     H65919   4.677   4.008   7.438 -2.4040  0.2590  2.8352
  478MOL0     H65920   4.756   4.047   7.733  1.0138  1.7107 -0.1391
  478MOL0     H65921   4.621   4.129   7.660  0.7661 -0.0020 -0.8844
  478MOL0     H65922   4.495   4.111   7.835  2.9109  0.7467 -0.8230
  478MOL0     H65923   4.354   4.202   8.014 -2.0003 -1.3310 -2.0751
  478MOL0     H65924   4.451   4.154   8.152 -1.0876 -0.8240 -0.3345
  478MOL0     H65925   4.288   4.087   8.135  0.4529 -1.2940 -0.1554
  478MOL0     H65926   4.484   3.786   8.475 -0.5198  0.6446 -1.4232
  478MOL0     H65927   4.429   3.742   8.689  3.3778  3.1733 -0.4694
  478MOL0     H65928   4.134   3.729   8.962  0.4360  0.2286  0.1905
  478MOL0     H65929   4.257   3.675   8.844 -0.0239  1.4361 -1.4365
  478MOL0     H65930   4.412   3.852   8.970  0.4578  1.5091 -0.2484
  478MOL0     H65931   4.272   3.880   9.074  1.4499  0.6233  0.0666
  478MOL0     H65932   4.274   3.657   9.160  1.1791  0.5848  2.1595
  478MOL0     H65933   4.420   3.743   9.195  0.5327 -2.7702  1.2551
  478MOL0     H65934   4.532   3.641   8.999  0.1076  0.4913 -0.9847
  478MOL0     H65935   4.391   3.541   8.969 -0.1793 -0.6681  2.6718
  478MOL0     H65936   4.553   3.513   9.221  1.3458  0.2171 -0.4402
  478MOL0     H65937   4.399   3.443   9.199  0.0147  1.6083  1.2097
  478MOL0     H65938   4.663   3.386   9.063  0.9676 -1.8250  1.1839
  478MOL0     H65939   4.517   3.343   8.979  0.0522 -1.6608 -0.4932
  478MOL0     H65940   4.613   3.149   9.101  0.8575  0.4984  0.3878
  478MOL0     H65941   4.467   3.178   9.175  2.0232 -2.2075  0.4346
  478MOL0     H65942   4.725   3.300   9.258 -1.2118  0.4692 -0.9271
  478MOL0     H65943   4.677   3.140   9.342 -0.3514 -0.2945  0.4771
  478MOL0     H65944   4.098   4.015   8.646  0.4479  0.5088  0.0219
  478MOL0     H65945   4.174   4.062   8.417  0.3057  1.0204  2.5669
  478MOL0     H65946   4.533   3.674   8.063 -0.7161  0.5852 -0.1953
  478MOL0     H65947   4.603   3.692   7.825 -0.8956 -0.2445  0.3407
  478MOL0     H65948   5.618   4.438   8.114 -1.2548  0.3517  2.0407
  478MOL0     H65949   5.554   4.668   8.193 -0.3992 -2.0406  0.1499
  478MOL0     H65950   5.268   5.046   7.976 -0.7699 -0.1243  1.1362
  478MOL0     H65951   5.181   5.263   7.953  0.3982 -2.8312 -1.4187
  478MOL0     H65952   5.248   5.639   8.159 -0.6684 -3.0672  2.1528
  478MOL0     H65953   5.368   5.551   8.232 -2.2576 -1.5854 -0.6609
  478MOL0     H65954   5.544   5.650   8.095  0.8523 -0.9556  3.0933
  478MOL0     H65955   5.464   5.771   8.162  2.0242  0.9710 -3.3590
  478MOL0     H65956   5.474   5.835   7.933 -1.6662  0.8940 -1.6383
  478MOL0     H65957   5.416   5.685   7.864 -0.3988  0.3221 -0.5613
  478MOL0     H65958   5.196   5.716   7.948  0.3207 -0.5140  2.8602
  478MOL0     H65959   5.251   5.853   7.841  2.6015 -0.5279 -0.9020
  478MOL0     H65960   5.221   6.078   8.187 -0.8814  0.3756 -1.0938
  478MOL0     H65961   5.549   5.422   8.104 -0.3671  0.2637 -2.8045
  478MOL0     H65962   5.759   5.169   8.006 -2.2208  1.2567 -2.6275
  478MOL0     H65963   5.749   5.273   8.159  3.3032 -3.5258  2.0426
  478MOL0     H65964   5.717   5.115   8.174 -1.8362 -3.2668 -3.2279
  479MOL0     O65965   7.844  10.975   8.298 -0.3490  0.2427 -0.5247
  479MOL0     C65966   7.791  10.884   8.357 -0.0107  0.2376  0.7039
  479MOL0     O65967   7.846  10.763   8.371 -0.1019 -0.0931 -0.0982
  479MOL0     C65968   7.956  10.736   8.291  0.3159 -0.2187 -1.2269
  479MOL0     C65969   7.957  10.771   8.156 -0.2822  0.9547  0.3766
  479MOL0     C65970   8.059  10.730   8.071  0.6496  0.8099  0.7612
  479MOL0     C65971   8.156  10.637   8.114  1.3337 -0.1716  0.8605
  479MOL0     O65972   8.268  10.600   8.045  0.3093  0.4532 -0.0793
  479MOL0     C65973   8.271  10.573   7.901 -0.7876  0.7235 -0.0740
  479MOL0     C65974   8.368  10.452   7.871  0.0839  0.7566 -0.4281
  479MOL0     C65975   8.371  10.396   7.732  0.0379  1.1112 -1.2208
  479MOL0     C65976   8.406  10.488   7.617 -0.3030  0.5842 -0.1306
  479MOL0     C65977   8.553  10.542   7.610 -0.4691 -0.7015  0.4554
  479MOL0     C65978   8.657  10.447   7.547 -1.2136  0.8071 -0.2827
  479MOL0     C65979   8.613  10.361   7.432 -0.0711  0.1729  0.1238
  479MOL0     C65980   8.729  10.269   7.370 -0.4024 -0.2244 -0.7325
  479MOL0     N65981   8.837  10.340   7.301  0.9550  0.5120  0.7600
  479MOL0     C65982   8.964  10.317   7.337  0.3928  0.4826 -0.5950
  479MOL0     C65983   9.047  10.381   7.248 -0.1525 -0.8940 -0.9590
  479MOL0     C65984   9.199  10.375   7.255  0.0254  0.4268  0.0269
  479MOL0     C65985   9.270  10.505   7.202  0.4083 -0.3773  0.1684
  479MOL0     C65986   9.418  10.519   7.252  0.7876  0.1739 -0.2693
  479MOL0     C65987   9.483  10.650   7.219  0.6134  0.3874  0.9863
  479MOL0     O65988   9.601  10.685   7.283  0.8007  0.4492 -0.5609
  479MOL0     C65989   9.721  10.629   7.254 -0.5511 -0.5265  0.1188
  479MOL0     C65990   9.764  10.516   7.330 -0.2122 -0.8368  0.7908
  479MOL0     C65991   9.891  10.459   7.299  0.9025 -0.4680  0.6480
  479MOL0     C65992   9.925  10.327   7.366 -0.6212  0.0775 -0.2316
  479MOL0     C65993   9.979  10.524   7.205  0.5704  1.1623  0.6108
  479MOL0     C65994  10.107  10.470   7.148  0.9111 -0.3604 -0.6729
  479MOL0     O65995  10.161  10.360   7.203 -0.8928 -0.1667  0.7772
  479MOL0     C65996  10.285  10.323   7.152  0.7204 -0.3820 -0.3424
  479MOL0     C65997  10.388  10.415   7.167  0.3874 -1.2181  1.1106
  479MOL0     C65998  10.522  10.374   7.147 -0.9158  0.2035  0.2659
  479MOL0     C65999  10.551  10.238   7.112 -0.1156  0.1348 -0.5285
  479MOL0     O66000  10.676  10.191   7.085 -0.1097  0.0752 -0.7120
  479MOL0     C66001  10.737  10.271   6.980  1.4161  0.3821  0.1969
  479MOL0     C66002  10.847  10.202   6.915 -0.0584  0.1523 -0.1466
  479MOL0     C66003  10.949  10.301   6.847 -0.2829  1.1811  0.4755
  479MOL0     C66004  10.881  10.398   6.751 -0.2445 -0.4444  0.2708
  479MOL0     C66005  10.976  10.496   6.676  0.0877  0.9482  0.1928
  479MOL0     C66006  10.909  10.609   6.596  0.0694 -0.5537 -0.3261
  479MOL0     C66007  10.845  10.713   6.698 -0.2318 -0.3686 -0.1445
  479MOL0     C66008  10.783  10.835   6.637  0.5839 -0.2432  0.5413
  479MOL0    Cl66009  10.649  10.770   6.540 -0.2567  0.5508  0.0791
  479MOL0     C66010  10.446  10.148   7.107  1.0564 -0.5347 -0.0260
  479MOL0     C66011  10.314  10.190   7.120 -1.1040 -0.9308  0.5264
  479MOL0     O66012  10.156  10.531   7.047  0.3172 -0.3681 -0.3774
  479MOL0     C66013   9.928  10.635   7.148 -0.5588  0.4361 -0.7760
  479MOL0     C66014   9.803  10.688   7.163  0.9573 -0.1511 -0.6785
  479MOL0     N66015   8.959  10.436   7.160 -0.2433  0.6513  0.0294
  479MOL0     N66016   8.835  10.414   7.188  0.4397  0.6644  0.3183
  479MOL0     C66017   8.145  10.607   8.244 -0.2194 -0.0481 -0.3383
  479MOL0     C66018   8.048  10.646   8.334  0.1399 -0.7881  0.8488
  479MOL0     C66019   7.674  10.922   8.445 -0.0493 -0.1808  0.0985
  479MOL0     C66020   7.640  10.835   8.554  0.4074  0.3121  0.6045
  479MOL0     C66021   7.531  10.856   8.630  0.0702  0.0214  0.4883
  479MOL0     C66022   7.450  10.967   8.607 -1.1055 -1.0055  0.6625
  479MOL0     O66023   7.343  10.983   8.692 -0.4683  0.3145 -0.5821
  479MOL0     C66024   7.227  10.909   8.663  0.7063 -0.2942 -0.4977
  479MOL0     C66025   7.125  10.991   8.724  0.1378 -0.5631  1.3643
  479MOL0     C66026   7.112  10.971   8.877  0.7438 -0.1533 -0.4080
  479MOL0     C66027   6.970  10.992   8.917  0.4857 -0.1969  0.7183
  479MOL0     C66028   6.961  11.011   9.062 -0.5138 -0.4701  0.3508
  479MOL0     C66029   6.962  11.046   9.180 -0.0035  0.5848 -0.1318
  479MOL0     C66030   7.477  11.054   8.505 -0.5061  0.3615  0.2610
  479MOL0     C66031   7.584  11.032   8.417  0.0510  0.3998 -0.1464
  479MOL0     C66032   7.593  11.127   8.305 -0.0442  0.4241 -0.1942
  479MOL0     H66033   7.873  10.820   8.109 -0.3734 -1.5998 -2.4452
  479MOL0     H66034   8.052  10.770   7.970 -2.9534  0.9131  0.9224
  479MOL0     H66035   8.305  10.664   7.850 -0.9177  1.1486  0.5811
  479MOL0     H66036   8.171  10.546   7.866 -1.9169  1.2855  2.4979
  479MOL0     H66037   8.467  10.484   7.906 -0.8173  1.6538  1.4642
  479MOL0     H66038   8.347  10.367   7.937 -0.3898 -0.2300 -1.7991
  479MOL0     H66039   8.447  10.318   7.724 -2.5449 -1.6448 -0.7813
  479MOL0     H66040   8.273  10.349   7.720  0.2309  0.2056  0.4109
  479MOL0     H66041   8.381  10.446   7.519  3.8057  1.3889 -1.7604
  479MOL0     H66042   8.347  10.573   7.652 -2.1629 -1.6209  2.5257
  479MOL0     H66043   8.597  10.579   7.703  1.2757 -0.9939 -0.2213
  479MOL0     H66044   8.558  10.630   7.545  1.7931  0.0183  1.5219
  479MOL0     H66045   8.746  10.502   7.515 -1.2121 -0.0967 -1.9018
  479MOL0     H66046   8.691  10.377   7.624 -2.3922  0.5834  0.0464
  479MOL0     H66047   8.570  10.425   7.354  2.3762  0.0985 -1.3897
  479MOL0     H66048   8.525  10.309   7.470 -1.8793  4.3887  2.3776
  479MOL0     H66049   8.757  10.189   7.439 -0.9771 -1.9699 -2.4302
  479MOL0     H66050   8.675  10.217   7.290 -0.2928 -2.1027  0.3520
  479MOL0     H66051   8.993  10.253   7.420  0.0685  2.2266  0.9289
  479MOL0     H66052   9.240  10.286   7.206  0.4518  1.1197 -0.8976
  479MOL0     H66053   9.221  10.351   7.359  2.2543 -0.3192 -0.5580
  479MOL0     H66054   9.265  10.493   7.094 -1.0338 -0.4032  0.2145
  479MOL0     H66055   9.210  10.592   7.229 -0.5224 -0.2881 -1.9716
  479MOL0     H66056   9.428  10.520   7.360 -2.6536  2.5560  0.1856
  479MOL0     H66057   9.467  10.441   7.192 -0.0021  1.6848 -3.0783
  479MOL0     H66058   9.489  10.664   7.110 -3.0105  3.2486  0.9474
  479MOL0     H66059   9.416  10.734   7.241 -0.8893 -0.5020 -0.0129
  479MOL0     H66060   9.687  10.480   7.397 -1.9088  0.4099 -0.3890
  479MOL0     H66061  10.010  10.334   7.435 -1.0734  1.4986  0.2241
  479MOL0     H66062   9.949  10.252   7.291 -1.6851 -0.7751  0.2470
  479MOL0     H66063   9.834  10.297   7.420 -3.1959  0.2136 -4.1167
  479MOL0     H66064  10.359  10.515   7.198 -2.7588 -1.4229 -0.7479
  479MOL0     H66065  10.597  10.452   7.145  1.6182 -2.0826 -1.7517
  479MOL0     H66066  10.661  10.288   6.903  1.6894 -2.5380 -0.8487
  479MOL0     H66067  10.757  10.372   7.018 -1.8570  1.6284 -1.0170
  479MOL0     H66068  10.897  10.156   7.000 -0.2807 -0.1184 -0.1656
  479MOL0     H66069  10.803  10.144   6.833 -2.0634  2.2346 -0.6680
  479MOL0     H66070  11.025  10.254   6.784 -2.3833  1.8676 -2.8122
  479MOL0     H66071  10.997  10.350   6.933  1.1195 -0.3126  0.5880
  479MOL0     H66072  10.810  10.459   6.808 -0.3880  0.6510 -1.0338
  479MOL0     H66073  10.818  10.346   6.679  0.0395  2.1319 -2.0245
  479MOL0     H66074  11.032  10.543   6.757  2.0761 -0.8797 -0.0516
  479MOL0     H66075  11.041  10.440   6.608 -0.3900  0.1062  0.4262
  479MOL0     H66076  10.824  10.568   6.542  1.4131 -1.6777 -1.6652
  479MOL0     H66077  10.974  10.663   6.527 -0.0835  3.8334  2.5891
  479MOL0     H66078  10.926  10.735   6.768 -0.1854  1.5839 -0.7691
  479MOL0     H66079  10.773  10.656   6.756  0.6898  0.3800  1.8152
  479MOL0     H66080  10.858  10.885   6.576  2.3381 -0.9364  2.0264
  479MOL0     H66081  10.739  10.902   6.712 -6.9090 -1.4370 -1.8810
  479MOL0     H66082  10.456  10.041   7.093 -0.2755 -0.5795 -0.8217
  479MOL0     H66083  10.232  10.118   7.122 -1.8615 -0.0759  0.5260
  479MOL0     H66084  10.008  10.691   7.101  2.2313 -1.5364  1.3022
  479MOL0     H66085   9.759  10.760   7.095 -2.4744 -3.1463 -1.9360
  479MOL0     H66086   8.214  10.536   8.289 -0.0904  0.2285 -0.0938
  479MOL0     H66087   8.049  10.602   8.433  1.2160  0.7250  1.5553
  479MOL0     H66088   7.702  10.750   8.582 -1.0125 -0.6175  1.0097
  479MOL0     H66089   7.504  10.784   8.706  0.5947 -1.5488 -0.7675
  479MOL0     H66090   7.211  10.894   8.556  1.6946  1.1320 -0.8693
  479MOL0     H66091   7.239  10.810   8.709  3.8739  0.5964  0.8450
  479MOL0     H66092   7.028  10.975   8.677 -1.8658 -0.6836  5.1067
  479MOL0     H66093   7.133  11.097   8.698 -2.6481 -0.6174 -0.1528
  479MOL0     H66094   7.153  10.873   8.903 -1.8118 -1.4145 -0.8679
  479MOL0     H66095   7.177  11.049   8.918 -3.2196  3.3182 -0.0815
  479MOL0     H66096   6.919  10.900   8.887 -0.1408 -0.2499  1.8923
  479MOL0     H66097   6.926  11.078   8.866 -2.2794 -0.4629  2.4047
  479MOL0     H66098   6.962  11.072   9.284 -3.2870  3.4240 -0.6485
  479MOL0     H66099   7.413  11.142   8.499 -0.1032  0.5485 -2.3456
  479MOL0     H66100   7.508  11.133   8.237 -2.2506  1.5339  2.4818
  479MOL0     H66101   7.609  11.225   8.349  1.0635 -0.5627  1.7537
  479MOL0     H66102   7.687  11.113   8.250 -0.2548 -1.7638 -0.0985
  480MOL0     O66103   7.947   9.652   3.936  0.0228  0.3675 -0.4201
  480MOL0     C66104   8.070   9.625   3.932 -0.1919 -0.0410  0.5876
  480MOL0     O66105   8.160   9.677   3.847 -0.1237 -1.0224  0.3407
  480MOL0     C66106   8.132   9.808   3.804 -0.8265  0.1168 -0.3323
  480MOL0     C66107   8.178   9.925   3.871  0.0312 -0.3823  0.4178
  480MOL0     C66108   8.152  10.051   3.814  0.0005 -0.3477  0.3781
  480MOL0     C66109   8.073  10.063   3.701  0.2787  0.4822  0.6091
  480MOL0     O66110   8.061  10.187   3.644  0.0270  0.2706  0.1238
  480MOL0     C66111   8.154  10.196   3.538 -0.2959 -0.9230 -0.7409
  480MOL0     C66112   8.090  10.286   3.429 -0.6447 -1.1495  0.2977
  480MOL0     C66113   8.113  10.442   3.453 -0.3568 -0.1583 -0.7272
  480MOL0     C66114   8.255  10.498   3.435 -0.3852  0.0151  0.2375
  480MOL0     C66115   8.266  10.654   3.439  1.2241 -0.1059 -0.9218
  480MOL0     C66116   8.415  10.705   3.426  0.4728  0.2811 -0.7158
  480MOL0     C66117   8.499  10.623   3.530  0.6904 -0.5081  0.1350
  480MOL0     C66118   8.630  10.691   3.563  0.6682  0.3412 -0.6820
  480MOL0     N66119   8.597  10.806   3.644 -0.0072  0.5538 -0.8832
  480MOL0     C66120   8.554  10.804   3.784  0.2536  1.2005 -0.0634
  480MOL0     C66121   8.533  10.928   3.820 -0.1523 -0.2680  1.1513
  480MOL0     C66122   8.486  10.990   3.947  0.3534  0.3479  0.5390
  480MOL0     C66123   8.592  10.992   4.054  0.2607 -0.4704 -0.5628
  480MOL0     C66124   8.695  11.104   4.020 -0.2877  0.3989 -1.0083
  480MOL0     C66125   8.793  11.117   4.128  0.1361 -0.1799 -0.7618
  480MOL0     O66126   8.729  11.171   4.257  0.2936 -0.1920 -0.3458
  480MOL0     C66127   8.793  11.172   4.380 -0.1244 -0.8413 -0.2148
  480MOL0     C66128   8.912  11.097   4.400  0.3494  0.0396 -0.4628
  480MOL0     C66129   8.970  11.097   4.528  0.9901 -0.5620  0.3822
  480MOL0     C66130   9.081  10.995   4.540 -0.8547 -0.2206  0.0904
  480MOL0     C66131   8.919  11.168   4.636  0.0720  0.0870  0.1449
  480MOL0     C66132   8.961  11.160   4.775  0.5334 -0.3677  1.3727
  480MOL0     O66133   9.096  11.150   4.801 -0.0609  0.6282 -0.1779
  480MOL0     C66134   9.133  11.117   4.929 -0.7849  0.3976 -0.6946
  480MOL0     C66135   9.169  11.213   5.025  0.3075  0.2523  0.8276
  480MOL0     C66136   9.200  11.174   5.160 -0.1685 -1.2096 -0.8094
  480MOL0     C66137   9.179  11.037   5.193  0.4959 -0.4010  0.2200
  480MOL0     O66138   9.210  10.985   5.311  0.5224 -0.0623  0.1838
  480MOL0     C66139   9.235  11.076   5.422 -0.5400  0.1070  0.2528
  480MOL0     C66140   9.254  10.996   5.552 -0.3374 -0.0976  0.1097
  480MOL0     C66141   9.116  10.944   5.602  0.4409 -0.3308 -0.7378
  480MOL0     C66142   9.022  11.055   5.652 -0.1916 -1.0350 -0.5859
  480MOL0     C66143   8.879  11.029   5.650 -0.6680  0.6613  0.5305
  480MOL0     C66144   8.797  11.158   5.692  0.8614 -0.6576 -0.8265
  480MOL0     C66145   8.642  11.153   5.660 -0.0591  0.2596 -0.0621
  480MOL0     C66146   8.585  11.294   5.687  0.2036 -0.5445 -0.2099
  480MOL0    Cl66147   8.408  11.297   5.647  0.3589  0.2582  0.1333
  480MOL0     C66148   9.155  10.937   5.102 -0.6980 -0.5391  0.0383
  480MOL0     C66149   9.131  10.981   4.971 -0.2061  0.4053  0.1540
  480MOL0     O66150   8.868  11.148   4.857  0.2154  0.0493  0.0902
  480MOL0     C66151   8.808  11.252   4.615  0.3118  0.4855 -0.6570
  480MOL0     C66152   8.747  11.253   4.485 -0.3178 -0.5730  0.2618
  480MOL0     N66153   8.579  11.005   3.708  0.4642  0.0569  0.5507
  480MOL0     N66154   8.618  10.937   3.613  0.9178 -0.0131  0.2035
  480MOL0     C66155   8.026   9.947   3.639 -0.1307  1.3277 -0.0110
  480MOL0     C66156   8.054   9.815   3.687 -0.3163  0.2313 -0.7176
  480MOL0     C66157   8.122   9.514   4.011 -0.3773 -0.1607  0.1264
  480MOL0     C66158   8.267   9.509   4.038  0.5005  0.1743 -0.2785
  480MOL0     C66159   8.330   9.393   4.094 -0.1369 -0.5024  0.0487
  480MOL0     C66160   8.257   9.272   4.114 -0.3219 -0.5175 -0.0395
  480MOL0     O66161   8.305   9.157   4.167 -0.6420 -0.3465 -0.4137
  480MOL0     C66162   8.443   9.126   4.140 -0.1604  0.4154  0.5480
  480MOL0     C66163   8.497   9.027   4.248  0.3687 -0.7484  0.2973
  480MOL0     C66164   8.417   8.891   4.250 -0.3273 -0.4303 -0.8246
  480MOL0     C66165   8.510   8.785   4.308 -0.3034 -0.3696  0.7952
  480MOL0     C66166   8.462   8.659   4.248 -0.3083 -0.0937  0.4548
  480MOL0     C66167   8.421   8.550   4.219 -1.1658  0.3585 -0.1635
  480MOL0     C66168   8.123   9.279   4.088  0.8281  0.0060  0.6052
  480MOL0     C66169   8.055   9.391   4.034 -0.4254  0.1670 -0.4705
  480MOL0     C66170   7.908   9.368   4.003 -0.8867  0.2047  0.3992
  480MOL0     H66171   8.232   9.915   3.965  0.8801 -2.2808 -0.2149
  480MOL0     H66172   8.180  10.138   3.874  2.2650 -0.4956 -0.3635
  480MOL0     H66173   8.194  10.097   3.513  3.4968 -1.4502  5.2525
  480MOL0     H66174   8.238  10.243   3.589 -0.1300 -1.9500 -0.0174
  480MOL0     H66175   8.126  10.267   3.327  1.5996  1.4797  0.4535
  480MOL0     H66176   7.983  10.268   3.420 -1.6461  2.5498  2.4909
  480MOL0     H66177   8.053  10.497   3.380 -1.1960  2.6383  1.8773
  480MOL0     H66178   8.074  10.464   3.553 -0.4038  0.5847 -0.9028
  480MOL0     H66179   8.324  10.443   3.500  2.2534  1.8283 -0.8628
  480MOL0     H66180   8.299  10.472   3.339  2.8137 -0.4870  1.7084
  480MOL0     H66181   8.232  10.675   3.540  4.8506  3.1211 -0.1314
  480MOL0     H66182   8.193  10.701   3.372  1.8220  3.4511  0.7119
  480MOL0     H66183   8.460  10.682   3.329 -0.0897 -4.0420 -0.1521
  480MOL0     H66184   8.432  10.808   3.457  2.6347 -0.4181  0.6214
  480MOL0     H66185   8.525  10.523   3.495  1.4719 -0.6857  1.1914
  480MOL0     H66186   8.443  10.615   3.623  2.1142 -1.8309  0.9106
  480MOL0     H66187   8.700  10.622   3.611 -0.0915  0.4181  0.5834
  480MOL0     H66188   8.682  10.722   3.472  2.5609 -0.3793  0.1008
  480MOL0     H66189   8.549  10.709   3.836  3.0438 -1.3154 -3.8851
  480MOL0     H66190   8.401  10.937   3.991 -0.4193  1.1874  0.0938
  480MOL0     H66191   8.439  11.086   3.924 -1.3645 -0.0332  2.2706
  480MOL0     H66192   8.546  11.007   4.152  0.2863  0.3142 -0.6639
  480MOL0     H66193   8.635  10.892   4.061 -0.0443 -0.6243 -0.8541
  480MOL0     H66194   8.743  11.067   3.929  0.8656  0.0224 -0.2680
  480MOL0     H66195   8.656  11.206   4.011 -2.0595 -0.2033 -0.5309
  480MOL0     H66196   8.844  11.021   4.143  0.2363  0.2354  2.1674
  480MOL0     H66197   8.871  11.184   4.089  2.2419 -2.6579 -1.1234
  480MOL0     H66198   8.961  11.045   4.318 -0.3565 -1.5272  0.0640
  480MOL0     H66199   9.069  10.907   4.476  1.6692 -0.4997 -0.0719
  480MOL0     H66200   9.091  10.952   4.640  1.5009 -0.5192 -0.2236
  480MOL0     H66201   9.172  11.054   4.528 -1.4088  0.6829  0.1581
  480MOL0     H66202   9.179  11.313   4.984 -3.4446 -0.9030 -3.8559
  480MOL0     H66203   9.233  11.249   5.231 -2.4069  1.1177 -2.0469
  480MOL0     H66204   9.331  11.125   5.405 -0.6217 -0.4045 -2.0354
  480MOL0     H66205   9.156  11.150   5.428  0.7954  2.0705 -3.4666
  480MOL0     H66206   9.328  10.918   5.531  3.7118  2.6695  2.5712
  480MOL0     H66207   9.300  11.061   5.627  0.2087 -2.7528  2.2583
  480MOL0     H66208   9.136  10.875   5.684  0.9364  2.1329  1.3607
  480MOL0     H66209   9.066  10.895   5.518  0.4030  1.6756 -1.9516
  480MOL0     H66210   9.048  11.148   5.601  0.4927  0.7149  2.6680
  480MOL0     H66211   9.042  11.083   5.756  2.7414 -0.2659 -1.2480
  480MOL0     H66212   8.853  10.997   5.549 -0.2037 -0.3861  0.7357
  480MOL0     H66213   8.880  10.950   5.726  3.4900  0.1937  0.2020
  480MOL0     H66214   8.837  11.245   5.639 -0.3081 -0.1424 -0.9006
  480MOL0     H66215   8.818  11.190   5.795  1.0715  4.6135 -2.2385
  480MOL0     H66216   8.589  11.081   5.723 -2.0688  0.3156 -1.5980
  480MOL0     H66217   8.623  11.121   5.557 -0.6941 -0.4631  0.2728
  480MOL0     H66218   8.646  11.348   5.614  2.4459 -0.5702  1.5510
  480MOL0     H66219   8.601  11.317   5.793 -0.7434  0.8352 -0.3466
  480MOL0     H66220   9.155  10.838   5.146  0.7725 -1.2292 -1.4012
  480MOL0     H66221   9.095  10.905   4.902  1.8850 -0.7074  0.2099
  480MOL0     H66222   8.747  11.302   4.690 -0.6851 -1.9456  0.2347
  480MOL0     H66223   8.655  11.309   4.468  0.8311  1.1044 -0.6399
  480MOL0     H66224   7.974   9.957   3.545  0.5189 -0.8774 -0.6753
  480MOL0     H66225   8.031   9.716   3.650  1.4963 -1.1849  1.6742
  480MOL0     H66226   8.334   9.593   4.023 -1.6381  1.9457 -0.3864
  480MOL0     H66227   8.437   9.394   4.114 -0.2879 -1.6182  1.0901
  480MOL0     H66228   8.453   9.089   4.037 -0.5705 -2.3456  1.4232
  480MOL0     H66229   8.509   9.213   4.136 -0.6501  0.7511 -0.4434
  480MOL0     H66230   8.473   9.071   4.345  0.1791 -1.9760  0.8269
  480MOL0     H66231   8.603   9.014   4.226 -0.1970 -0.8315 -3.0046
  480MOL0     H66232   8.316   8.895   4.292 -0.5809 -2.4561 -1.1274
  480MOL0     H66233   8.404   8.881   4.142  0.4016 -3.0317 -0.7371
  480MOL0     H66234   8.507   8.786   4.418  0.2336  0.5473  0.8090
  480MOL0     H66235   8.612   8.817   4.288 -0.8427  3.8740  3.5500
  480MOL0     H66236   8.381   8.455   4.190  2.5297 -0.4766 -3.4762
  480MOL0     H66237   8.061   9.195   4.116  0.3556  0.8723  2.2687
  480MOL0     H66238   7.881   9.354   3.898 -1.8352 -0.9996  0.7829
  480MOL0     H66239   7.884   9.276   4.057  0.5502 -2.5500 -3.2621
  480MOL0     H66240   7.856   9.453   4.048 -2.0741 -0.5225  0.4216
  481MOL0     O66241   5.786   5.426   1.977 -0.7190 -0.1429 -0.0867
  481MOL0     C66242   5.815   5.412   1.861 -1.3514 -0.5433  0.3788
  481MOL0     O66243   5.833   5.289   1.785 -0.6160  0.4483 -0.2926
  481MOL0     C66244   5.831   5.165   1.852  0.2905  0.1503  1.1958
  481MOL0     C66245   5.878   5.147   1.986  0.1142  0.5367  0.6852
  481MOL0     C66246   5.871   5.014   2.036  0.4363 -0.4409 -0.3483
  481MOL0     C66247   5.808   4.906   1.978  0.1895  0.2375  0.3568
  481MOL0     O66248   5.816   4.784   2.049  0.8397  0.3774  0.0825
  481MOL0     C66249   5.773   4.660   1.984 -0.3805 -0.7396 -0.9238
  481MOL0     C66250   5.740   4.552   2.090 -0.9857 -0.3152 -0.0080
  481MOL0     C66251   5.650   4.598   2.204  0.0499 -0.2083  0.7011
  481MOL0     C66252   5.734   4.655   2.322  0.0982 -0.0362  0.3853
  481MOL0     C66253   5.645   4.719   2.419  0.2615 -0.2643  0.0375
  481MOL0     C66254   5.709   4.709   2.562  0.0256  0.0323 -0.1372
  481MOL0     C66255   5.838   4.807   2.585  0.4076  0.0396  1.1968
  481MOL0     C66256   5.903   4.773   2.710  0.0196 -0.3728 -0.1531
  481MOL0     N66257   6.016   4.857   2.730  0.0627 -0.1406 -0.1354
  481MOL0     C66258   6.010   4.989   2.750  0.4368 -0.3271  1.0121
  481MOL0     C66259   6.134   5.025   2.751 -0.4211 -0.4885 -0.4394
  481MOL0     C66260   6.170   5.166   2.792 -0.4323  1.1013 -0.1939
  481MOL0     C66261   6.160   5.209   2.946 -0.6861 -0.0362 -0.0691
  481MOL0     C66262   6.271   5.311   2.978 -0.2890  0.3181  0.1355
  481MOL0     C66263   6.253   5.363   3.121  1.2134 -0.0246  0.5498
  481MOL0     O66264   6.362   5.445   3.154  0.4777 -0.8525  0.4854
  481MOL0     C66265   6.335   5.486   3.290 -0.1982 -0.1129  0.8891
  481MOL0     C66266   6.264   5.606   3.314 -0.2871 -0.9824 -0.1827
  481MOL0     C66267   6.241   5.653   3.453  0.4055 -0.7868  0.3828
  481MOL0     C66268   6.139   5.763   3.484 -0.1612  0.5165 -0.0306
  481MOL0     C66269   6.304   5.580   3.557  0.1998  0.6216  0.3087
  481MOL0     C66270   6.316   5.636   3.695  0.7190  0.4139  0.0342
  481MOL0     O66271   6.357   5.771   3.719  0.1147  0.1080 -0.0805
  481MOL0     C66272   6.360   5.814   3.850 -0.4607 -0.6285 -0.3388
  481MOL0     C66273   6.251   5.880   3.896 -0.3082  0.4529  0.0771
  481MOL0     C66274   6.249   5.929   4.020  0.0115 -0.0484 -0.3703
  481MOL0     C66275   6.363   5.925   4.108  1.3180 -0.2580 -0.1754
  481MOL0     O66276   6.390   5.981   4.227 -0.5410 -0.3387 -0.8039
  481MOL0     C66277   6.276   6.028   4.295 -0.1271 -0.6302 -0.6434
  481MOL0     C66278   6.325   6.103   4.426  0.4244  1.2328  0.1576
  481MOL0     C66279   6.429   6.017   4.483  0.9326 -0.3870 -0.0283
  481MOL0     C66280   6.390   5.880   4.515  0.4646 -0.0252  0.3706
  481MOL0     C66281   6.298   5.860   4.636 -0.7593 -0.2423 -0.7409
  481MOL0     C66282   6.360   5.915   4.765  0.6317 -0.3648  0.9592
  481MOL0     C66283   6.268   5.878   4.871 -0.2156 -0.4318 -0.1475
  481MOL0     C66284   6.321   5.931   4.995 -0.1414 -1.0549 -0.5486
  481MOL0    Cl66285   6.305   6.119   4.997 -0.5320  0.2473  0.3178
  481MOL0     C66286   6.482   5.872   4.050 -0.2291 -0.2212 -0.4587
  481MOL0     C66287   6.483   5.818   3.922 -0.0486  0.7338 -0.2753
  481MOL0     O66288   6.294   5.555   3.787 -0.3667  0.7167 -0.6511
  481MOL0     C66289   6.365   5.456   3.537  0.0967  0.9258  0.0710
  481MOL0     C66290   6.387   5.418   3.396  0.3205 -0.6345  0.2253
  481MOL0     N66291   6.221   4.917   2.746 -0.0724 -1.0186 -0.0269
  481MOL0     N66292   6.143   4.821   2.713 -0.0470  0.7429  0.5211
  481MOL0     C66293   5.763   4.930   1.847  0.6016  0.2296  0.1730
  481MOL0     C66294   5.778   5.054   1.782 -0.7264 -0.9322 -0.4331
  481MOL0     C66295   5.863   5.545   1.802 -0.4959 -0.6179 -0.2780
  481MOL0     C66296   5.897   5.547   1.663  0.5911  0.5895 -0.7430
  481MOL0     C66297   5.933   5.669   1.612 -0.7659  0.1855 -0.4351
  481MOL0     C66298   5.944   5.783   1.682  1.0702 -0.4179 -1.0876
  481MOL0     O66299   5.987   5.905   1.644  0.5008  0.3503  1.0205
  481MOL0     C66300   6.014   5.923   1.504  0.4560 -0.5471  0.0397
  481MOL0     C66301   6.063   6.068   1.479  0.0083 -0.2188 -0.1855
  481MOL0     C66302   6.141   6.087   1.349  0.3489  0.3938 -0.5327
  481MOL0     C66303   6.227   6.223   1.357  0.2026  0.1162 -0.4783
  481MOL0     C66304   6.343   6.217   1.445  0.3504  0.5871 -0.4313
  481MOL0     C66305   6.450   6.218   1.514  0.2304  0.8975 -0.0406
  481MOL0     C66306   5.913   5.775   1.821  1.4424  0.2104 -0.2003
  481MOL0     C66307   5.872   5.661   1.883 -0.3336  0.5294  0.4906
  481MOL0     C66308   5.838   5.679   2.031  0.1198 -0.2462 -0.6483
  481MOL0     H66309   5.935   5.228   2.030  4.7237 -1.8750 -0.2039
  481MOL0     H66310   5.935   4.993   2.121  0.6347 -1.6673 -0.7780
  481MOL0     H66311   5.849   4.625   1.913 -0.6687 -0.1120 -1.5624
  481MOL0     H66312   5.676   4.689   1.941 -0.2063  2.9077  0.7553
  481MOL0     H66313   5.693   4.466   2.041 -1.9953 -0.0250  0.4221
  481MOL0     H66314   5.829   4.517   2.143 -0.5655  0.3925 -0.2430
  481MOL0     H66315   5.579   4.673   2.167  1.5100  1.6600  1.5315
  481MOL0     H66316   5.604   4.503   2.233  0.9546 -0.3526  1.7282
  481MOL0     H66317   5.780   4.570   2.374 -0.0826  2.0769  4.3486
  481MOL0     H66318   5.816   4.720   2.290 -1.8585  1.7377 -1.2985
  481MOL0     H66319   5.554   4.658   2.423  1.3645 -2.0036 -0.3600
  481MOL0     H66320   5.618   4.819   2.385  1.7646  0.2181  0.1686
  481MOL0     H66321   5.635   4.727   2.640  0.9829 -0.2035  0.8557
  481MOL0     H66322   5.726   4.602   2.575 -4.0157 -1.0786 -2.2117
  481MOL0     H66323   5.804   4.911   2.575 -0.2146 -0.3401 -1.5667
  481MOL0     H66324   5.912   4.790   2.506  1.2538  2.2742  1.4469
  481MOL0     H66325   5.848   4.785   2.804  1.7157 -1.7627  1.0830
  481MOL0     H66326   5.943   4.673   2.696 -0.2785 -0.1405 -3.4607
  481MOL0     H66327   5.925   5.056   2.756  1.5414  1.1195  0.8818
  481MOL0     H66328   6.111   5.234   2.729 -0.6948 -0.7165 -2.0432
  481MOL0     H66329   6.275   5.165   2.763 -0.6770  0.3513 -1.1436
  481MOL0     H66330   6.064   5.255   2.972 -0.3606 -0.1576  1.4481
  481MOL0     H66331   6.175   5.123   3.012  1.5486  0.4307  0.0999
  481MOL0     H66332   6.363   5.252   2.982 -0.4703  0.0930  1.2142
  481MOL0     H66333   6.292   5.388   2.902  1.6448 -1.6407 -1.4749
  481MOL0     H66334   6.165   5.427   3.118  0.1891 -1.0638  4.0048
  481MOL0     H66335   6.237   5.285   3.196  2.5141  0.3074  1.2088
  481MOL0     H66336   6.227   5.664   3.229 -0.1279 -0.4522  0.1087
  481MOL0     H66337   6.197   5.848   3.521 -2.0464  0.9896  2.0164
  481MOL0     H66338   6.079   5.742   3.573 -1.6572 -1.3458 -1.4004
  481MOL0     H66339   6.082   5.783   3.393  1.9381 -1.5568 -1.9222
  481MOL0     H66340   6.159   5.890   3.839 -0.4281  0.8069  0.3259
  481MOL0     H66341   6.159   5.978   4.055 -1.6496  0.6586 -4.9430
  481MOL0     H66342   6.222   6.095   4.228  1.6013  1.4616 -0.0517
  481MOL0     H66343   6.209   5.945   4.322  1.4173 -1.6530  0.1853
  481MOL0     H66344   6.360   6.200   4.392  0.8343  1.7098  1.8724
  481MOL0     H66345   6.241   6.118   4.494 -0.7792  2.4058 -1.5124
  481MOL0     H66346   6.457   6.072   4.573  2.1625  4.2515 -2.9398
  481MOL0     H66347   6.510   6.023   4.410 -0.2284  1.9246 -1.2124
  481MOL0     H66348   6.481   5.825   4.539 -0.6452 -1.5092  1.3401
  481MOL0     H66349   6.337   5.828   4.434 -0.5764 -0.9475  1.5941
  481MOL0     H66350   6.208   5.916   4.610 -1.5869 -1.2685 -0.1669
  481MOL0     H66351   6.263   5.757   4.647  0.1123 -1.2130 -5.0603
  481MOL0     H66352   6.363   6.024   4.766  0.7964 -0.2289 -2.6693
  481MOL0     H66353   6.461   5.878   4.782  1.4204  1.7424  1.1644
  481MOL0     H66354   6.247   5.771   4.872 -1.0906 -0.3563 -2.7520
  481MOL0     H66355   6.176   5.935   4.851  0.6085  0.7171 -0.7404
  481MOL0     H66356   6.424   5.900   5.016  1.1317  2.4987 -0.8561
  481MOL0     H66357   6.263   5.897   5.081  0.7971  4.2240  2.6396
  481MOL0     H66358   6.573   5.865   4.110  0.4059  0.1611 -1.3450
  481MOL0     H66359   6.577   5.781   3.882  1.3743  1.1991  2.4525
  481MOL0     H66360   6.395   5.401   3.625 -1.4104  2.7311  1.8376
  481MOL0     H66361   6.441   5.330   3.364  1.5639  0.3136 -0.3739
  481MOL0     H66362   5.715   4.854   1.786 -2.4022  3.2738 -1.6135
  481MOL0     H66363   5.736   5.067   1.683  0.5367 -1.7307 -1.0972
  481MOL0     H66364   5.885   5.456   1.604 -0.0030  0.9750 -1.2231
  481MOL0     H66365   5.968   5.681   1.510  2.8934  3.9703  0.9732
  481MOL0     H66366   6.091   5.852   1.472 -0.6496 -1.7934  0.0668
  481MOL0     H66367   5.928   5.921   1.436  1.3648 -0.2515 -1.1579
  481MOL0     H66368   6.125   6.098   1.564  3.7211 -0.3512 -2.6444
  481MOL0     H66369   5.976   6.135   1.472  0.6182  0.4446 -1.9497
  481MOL0     H66370   6.219   6.011   1.343 -0.7775 -0.7196 -1.8791
  481MOL0     H66371   6.074   6.076   1.263  0.5895 -3.0009 -0.4397
  481MOL0     H66372   6.164   6.305   1.394 -2.0219 -1.7643  0.1398
  481MOL0     H66373   6.265   6.240   1.256  2.5824  1.5931  0.5694
  481MOL0     H66374   6.537   6.213   1.576  0.0088 -2.8916  0.1878
  481MOL0     H66375   5.926   5.867   1.878 -0.2140 -1.7507  3.7939
  481MOL0     H66376   5.890   5.597   2.082 -2.2621 -1.2768  0.3048
  481MOL0     H66377   5.872   5.771   2.078 -0.7372  1.5349 -3.2493
  481MOL0     H66378   5.729   5.676   2.043  0.3672  0.6150  2.7712
  482MOL0     O66379   4.521   7.278   0.869  0.4442 -0.1158  0.3917
  482MOL0     C66380   4.595   7.370   0.912 -0.6468 -0.3482 -1.4239
  482MOL0     O66381   4.643   7.386   1.050 -1.1117 -0.7905  0.2700
  482MOL0     C66382   4.599   7.304   1.153 -1.0092  0.2993  0.0904
  482MOL0     C66383   4.589   7.171   1.139 -0.0445  0.4938  0.6577
  482MOL0     C66384   4.567   7.086   1.242 -0.0779 -0.6039  0.5536
  482MOL0     C66385   4.541   7.143   1.373  0.4591  0.0578  1.0243
  482MOL0     O66386   4.505   7.063   1.477 -0.1645  0.1633  0.4142
  482MOL0     C66387   4.454   7.138   1.589 -0.4099 -0.7116  0.6632
  482MOL0     C66388   4.438   7.036   1.690  0.6158  0.3873  0.0784
  482MOL0     C66389   4.558   6.957   1.734  0.1555  0.3729 -0.3648
  482MOL0     C66390   4.545   6.902   1.883  0.1628 -0.6954  0.8377
  482MOL0     C66391   4.676   6.848   1.942 -0.1698  0.1912 -0.4201
  482MOL0     C66392   4.679   6.898   2.092 -0.4264 -0.4634  0.1286
  482MOL0     C66393   4.788   6.851   2.195 -1.2593  0.2999  0.4877
  482MOL0     C66394   4.914   6.938   2.195 -0.6429 -0.0631 -0.7429
  482MOL0     N66395   5.018   6.864   2.266 -0.4618  0.4233  0.2646
  482MOL0     C66396   5.000   6.800   2.396 -0.0341 -0.4135 -0.4528
  482MOL0     C66397   5.127   6.751   2.415  0.3215  1.2228  0.8870
  482MOL0     C66398   5.158   6.665   2.540 -0.1738 -0.5816 -0.1115
  482MOL0     C66399   5.210   6.523   2.509  0.2141 -1.1118  1.4010
  482MOL0     C66400   5.092   6.419   2.480 -0.4353 -0.2123  0.3348
  482MOL0     C66401   5.148   6.298   2.397  0.2077 -0.1918  1.0086
  482MOL0     O66402   5.035   6.257   2.313  0.6710  0.6436 -0.0110
  482MOL0     C66403   5.009   6.128   2.283 -0.1769  0.7596 -0.0463
  482MOL0     C66404   4.879   6.088   2.248 -0.1310 -0.7061 -0.1710
  482MOL0     C66405   4.829   5.958   2.229 -0.5432  0.1503  0.7232
  482MOL0     C66406   4.685   5.936   2.193  0.2422  0.4160  0.6865
  482MOL0     C66407   4.919   5.852   2.235 -0.3248 -0.1954  0.2045
  482MOL0     C66408   4.902   5.713   2.189  0.7457 -0.2465  0.5509
  482MOL0     O66409   4.975   5.613   2.241 -0.5981 -1.2512 -0.5974
  482MOL0     C66410   4.960   5.477   2.225  0.0368 -1.0384 -0.1964
  482MOL0     C66411   4.869   5.409   2.140  0.7302  0.5110  0.5191
  482MOL0     C66412   4.859   5.274   2.145 -0.2526  0.5850  0.3108
  482MOL0     C66413   4.950   5.203   2.233  0.2074 -0.7809 -1.1724
  482MOL0     O66414   4.961   5.067   2.244 -0.7309  0.0698 -0.8973
  482MOL0     C66415   4.987   4.999   2.123 -0.1549 -0.7127 -0.1016
  482MOL0     C66416   4.988   4.854   2.145  0.1604  0.2187  0.8014
  482MOL0     C66417   5.095   4.814   2.232  0.5610  0.1616  0.4741
  482MOL0     C66418   5.100   4.658   2.235 -0.5772  0.0127  0.2694
  482MOL0     C66419   5.222   4.590   2.273 -0.4414 -0.1065 -0.5845
  482MOL0     C66420   5.189   4.439   2.286  0.7170  0.5729 -0.5012
  482MOL0     C66421   5.316   4.357   2.340 -0.3800  0.0976 -0.0485
  482MOL0     C66422   5.283   4.207   2.355 -0.4279  0.1186 -1.0285
  482MOL0    Cl66423   5.404   4.125   2.433 -0.0892 -0.0856 -0.0550
  482MOL0     C66424   5.039   5.269   2.314  0.3759  0.6475  0.1147
  482MOL0     C66425   5.050   5.411   2.309  0.0018  0.3635 -0.1886
  482MOL0     O66426   4.829   5.700   2.091 -0.1772  0.1132  0.2571
  482MOL0     C66427   5.055   5.892   2.276  0.3813 -0.3440 -0.2567
  482MOL0     C66428   5.102   6.022   2.307  0.1436 -0.8009  0.9340
  482MOL0     N66429   5.209   6.780   2.306 -0.3052  0.1728  0.6270
  482MOL0     N66430   5.143   6.855   2.220  0.1591 -0.2541  0.5973
  482MOL0     C66431   4.550   7.285   1.378  1.4843 -0.6394 -1.2276
  482MOL0     C66432   4.578   7.368   1.275  0.3445 -0.1608  0.5716
  482MOL0     C66433   4.621   7.482   0.818 -0.2111  0.8770 -0.3769
  482MOL0     C66434   4.509   7.535   0.758  0.5206  0.5160  0.1325
  482MOL0     C66435   4.521   7.648   0.678  0.2254  0.8748  0.2821
  482MOL0     C66436   4.641   7.705   0.649  0.0743 -0.2741  0.9216
  482MOL0     O66437   4.635   7.821   0.577 -0.3513 -0.5406  0.2294
  482MOL0     C66438   4.762   7.882   0.534  0.8195 -0.8270  0.3083
  482MOL0     C66439   4.741   7.985   0.427  0.0564  0.7113 -0.5831
  482MOL0     C66440   4.696   8.119   0.487 -0.4976 -0.1620  0.4361
  482MOL0     C66441   4.660   8.226   0.380 -0.9218 -0.6693 -1.2165
  482MOL0     C66442   4.542   8.195   0.291  1.1405  1.0634 -0.4081
  482MOL0     C66443   4.456   8.160   0.205  0.7254  0.1094  0.3632
  482MOL0     C66444   4.755   7.649   0.709 -0.3115  0.4800  1.0671
  482MOL0     C66445   4.739   7.552   0.807 -0.1943  0.1645 -0.7198
  482MOL0     C66446   4.856   7.503   0.888  0.1829 -0.6142  0.3818
  482MOL0     H66447   4.607   7.133   1.038  2.6276  0.2834  1.1421
  482MOL0     H66448   4.552   6.978   1.241 -0.8824 -0.4980  0.2662
  482MOL0     H66449   4.370   7.202   1.560 -0.9095 -0.6301  2.2137
  482MOL0     H66450   4.532   7.209   1.618 -1.4415  0.5701  0.3743
  482MOL0     H66451   4.399   7.085   1.780  3.5044 -0.0434  1.6990
  482MOL0     H66452   4.368   6.955   1.667  3.3979 -2.6017  1.1417
  482MOL0     H66453   4.568   6.867   1.672  0.1389  0.2029 -0.1234
  482MOL0     H66454   4.646   7.023   1.738 -2.0129  3.4088  0.9129
  482MOL0     H66455   4.510   6.987   1.943  0.5996  0.6733 -0.7621
  482MOL0     H66456   4.471   6.821   1.884 -0.8835  0.2342  0.3774
  482MOL0     H66457   4.760   6.897   1.892 -0.0483  3.0637  2.2511
  482MOL0     H66458   4.683   6.740   1.935  0.5749 -0.0649  2.8230
  482MOL0     H66459   4.685   7.007   2.093  1.6752 -0.5348  1.3006
  482MOL0     H66460   4.578   6.871   2.124  0.1761 -4.7040 -0.9237
  482MOL0     H66461   4.816   6.748   2.168 -2.0686  0.4343 -0.9439
  482MOL0     H66462   4.746   6.842   2.295 -0.9163  2.6439  0.8927
  482MOL0     H66463   4.964   6.956   2.099  2.3819 -3.7069 -0.0794
  482MOL0     H66464   4.895   7.033   2.247 -1.9724 -1.4248  1.3919
  482MOL0     H66465   4.916   6.797   2.465 -0.5403 -0.2360 -1.0540
  482MOL0     H66466   5.072   6.641   2.602 -0.3267 -0.7899 -0.3978
  482MOL0     H66467   5.222   6.712   2.615 -3.0305  1.3969  1.2528
  482MOL0     H66468   5.282   6.528   2.426 -1.4360  2.9174 -0.0755
  482MOL0     H66469   5.267   6.491   2.597  1.5618 -1.2111  0.5277
  482MOL0     H66470   5.051   6.399   2.579  0.8475  0.5282  1.0385
  482MOL0     H66471   5.022   6.468   2.410  1.8493 -0.7991 -2.5688
  482MOL0     H66472   5.239   6.321   2.340  2.7860 -3.2625  3.5263
  482MOL0     H66473   5.186   6.215   2.457 -0.5622  1.1978  3.5802
  482MOL0     H66474   4.813   6.170   2.222  1.1634  0.7136  0.8269
  482MOL0     H66475   4.646   6.037   2.178 -1.3782 -0.4978 -2.1983
  482MOL0     H66476   4.633   5.866   2.259 -1.3302  0.6960 -0.2027
  482MOL0     H66477   4.689   5.896   2.091  1.9155  1.7041  0.1944
  482MOL0     H66478   4.800   5.455   2.070  2.6982  0.4766 -1.5590
  482MOL0     H66479   4.790   5.217   2.084  2.0376 -1.6837 -0.3511
  482MOL0     H66480   4.921   5.026   2.040  1.0127  3.7202  0.1104
  482MOL0     H66481   5.091   5.027   2.104 -0.7680  0.6627 -1.6907
  482MOL0     H66482   4.888   4.829   2.183  0.1161  1.2058  1.3709
  482MOL0     H66483   5.000   4.799   2.052 -0.0109  0.5520  0.5841
  482MOL0     H66484   5.054   4.847   2.329  0.5508 -0.2012  0.5928
  482MOL0     H66485   5.188   4.867   2.211 -1.0474  3.0812  0.0453
  482MOL0     H66486   5.067   4.623   2.137  0.3010  5.0086 -2.1122
  482MOL0     H66487   5.020   4.627   2.303 -0.5404 -0.3988  0.1280
  482MOL0     H66488   5.298   4.615   2.198 -0.4153  0.6666 -0.3077
  482MOL0     H66489   5.261   4.627   2.368  0.9571 -2.6521 -0.0509
  482MOL0     H66490   5.153   4.399   2.190 -1.2570  1.3551 -0.1358
  482MOL0     H66491   5.113   4.432   2.364  0.1074  2.4552 -0.8692
  482MOL0     H66492   5.342   4.388   2.441 -0.4436 -3.7894  1.3380
  482MOL0     H66493   5.395   4.383   2.269  0.3716 -2.1126 -0.1124
  482MOL0     H66494   5.245   4.162   2.262  0.0101 -1.3802 -0.4921
  482MOL0     H66495   5.205   4.216   2.431 -0.2221  1.6864 -0.9632
  482MOL0     H66496   5.110   5.212   2.374  2.1956  0.8383 -1.7496
  482MOL0     H66497   5.121   5.456   2.377  2.1357 -2.4450 -0.3294
  482MOL0     H66498   5.127   5.812   2.289  1.4227  0.9597  2.8455
  482MOL0     H66499   5.203   6.052   2.333  0.1565  1.0388 -0.9831
  482MOL0     H66500   4.524   7.349   1.461 -0.7061 -1.8394 -0.8881
  482MOL0     H66501   4.584   7.475   1.290  0.5060 -0.3698  2.2030
  482MOL0     H66502   4.415   7.486   0.780  0.3777  1.9962  3.3223
  482MOL0     H66503   4.427   7.679   0.635 -1.4718 -1.5572  1.9199
  482MOL0     H66504   4.802   7.933   0.622 -0.6569 -0.6562  0.9148
  482MOL0     H66505   4.831   7.805   0.500  2.0523  0.5971 -0.5054
  482MOL0     H66506   4.671   7.955   0.347  0.2417 -1.2261 -0.0643
  482MOL0     H66507   4.832   7.995   0.368  0.3503 -0.5731 -0.3738
  482MOL0     H66508   4.602   8.103   0.541 -2.8499  3.0634 -2.2452
  482MOL0     H66509   4.773   8.163   0.551  1.1005 -0.8358 -0.9512
  482MOL0     H66510   4.751   8.235   0.319 -0.6690  0.1745 -0.7245
  482MOL0     H66511   4.650   8.324   0.428 -2.3328 -1.7307  0.7976
  482MOL0     H66512   4.389   8.112   0.136 -2.5824 -1.4929  4.3318
  482MOL0     H66513   4.851   7.691   0.684 -0.8877  1.9995  1.3193
  482MOL0     H66514   4.867   7.394   0.879 -2.7468 -0.9200 -0.6587
  482MOL0     H66515   4.953   7.541   0.856 -0.2307 -2.0297 -2.9749
  482MOL0     H66516   4.832   7.525   0.992 -0.0586  0.7719  0.0533
  483MOL0     O66517   3.759   4.038   6.542 -0.9200  0.0726  0.1733
  483MOL0     C66518   3.678   4.098   6.473  0.6476  0.9246  0.7613
  483MOL0     O66519   3.600   4.196   6.508  0.0265 -0.6433 -0.2035
  483MOL0     C66520   3.594   4.254   6.632 -0.5685  0.5524  1.1257
  483MOL0     C66521   3.601   4.180   6.745 -1.7203  0.3369 -0.8728
  483MOL0     C66522   3.564   4.237   6.872 -0.7987 -1.0787 -0.3720
  483MOL0     C66523   3.554   4.377   6.877 -0.4077  0.5017  0.6294
  483MOL0     O66524   3.495   4.437   6.990  0.0280 -0.4390  0.0147
  483MOL0     C66525   3.353   4.467   6.970  0.3449 -0.0334  0.0337
  483MOL0     C66526   3.298   4.544   7.090  0.0061 -0.0938  0.7781
  483MOL0     C66527   3.143   4.539   7.069 -0.4804  0.2287 -0.2398
  483MOL0     C66528   3.068   4.619   7.174 -0.5623  0.0431 -0.1498
  483MOL0     C66529   2.921   4.631   7.137  0.0104 -0.3865 -0.6761
  483MOL0     C66530   2.856   4.717   7.251 -0.3017  0.0945  0.4428
  483MOL0     C66531   2.697   4.699   7.249 -0.9224  0.2394  0.7125
  483MOL0     C66532   2.639   4.799   7.129 -0.2538  0.5028  0.0350
  483MOL0     N66533   2.515   4.733   7.073  0.1609  0.4942 -0.2316
  483MOL0     C66534   2.403   4.706   7.147 -0.7957 -0.2950 -1.0086
  483MOL0     C66535   2.318   4.632   7.074  0.4823  0.9439  0.4299
  483MOL0     C66536   2.178   4.577   7.114  0.8778  0.0751  0.2682
  483MOL0     C66537   2.085   4.609   6.992  0.9787 -0.1113  0.4200
  483MOL0     C66538   2.026   4.739   7.009 -0.1912 -0.8043  0.1531
  483MOL0     C66539   1.919   4.776   6.898 -0.0063 -0.5256 -0.4179
  483MOL0     O66540   1.979   4.783   6.772 -0.7066  0.7471  0.2084
  483MOL0     C66541   1.927   4.866   6.678 -0.4962  0.2152 -0.3019
  483MOL0     C66542   1.794   4.853   6.650  0.4941  0.4684 -0.6716
  483MOL0     C66543   1.729   4.943   6.565 -1.1181  1.2288  0.5022
  483MOL0     C66544   1.590   4.907   6.519 -0.6979  0.7257  0.2018
  483MOL0     C66545   1.802   5.055   6.532 -0.7680 -0.7683 -0.1081
  483MOL0     C66546   1.752   5.162   6.440  0.4695  0.7746 -0.0276
  483MOL0     O66547   1.832   5.228   6.353 -0.6043 -0.6332 -0.1445
  483MOL0     C66548   1.772   5.308   6.247  0.8381  0.1818 -0.7750
  483MOL0     C66549   1.722   5.434   6.290 -1.4627 -0.6520 -0.5575
  483MOL0     C66550   1.705   5.526   6.190  0.3829 -0.4532 -0.5622
  483MOL0     C66551   1.706   5.494   6.052  0.3549  0.3056  0.0488
  483MOL0     O66552   1.676   5.582   5.949 -0.1342  0.4343  0.4166
  483MOL0     C66553   1.625   5.710   5.988  0.8894  0.2066  0.6977
  483MOL0     C66554   1.622   5.817   5.878  0.5204 -0.9259  0.8787
  483MOL0     C66555   1.756   5.825   5.802 -0.4969  0.2710 -0.6499
  483MOL0     C66556   1.863   5.902   5.888 -0.3230  0.5966  0.2445
  483MOL0     C66557   1.855   6.047   5.898  1.3382  0.2778 -0.3327
  483MOL0     C66558   1.886   6.106   5.751 -0.9729  0.6983 -0.3972
  483MOL0     C66559   1.928   6.259   5.751  0.2157  0.1365 -0.2565
  483MOL0     C66560   1.813   6.351   5.798  0.2351 -0.3448  0.2424
  483MOL0    Cl66561   1.669   6.307   5.708  0.1005  0.4094 -0.6824
  483MOL0     C66562   1.740   5.363   6.021  0.4431  0.4993  0.6548
  483MOL0     C66563   1.790   5.272   6.119  0.2114 -0.1185  0.0721
  483MOL0     O66564   1.630   5.179   6.449 -0.2946  0.3497 -0.8672
  483MOL0     C66565   1.929   5.081   6.587 -0.2666 -0.0142  0.1679
  483MOL0     C66566   1.998   4.983   6.651  0.3318  1.1075 -0.1604
  483MOL0     N66567   2.394   4.596   6.966  0.2795 -0.0406  0.1369
  483MOL0     N66568   2.508   4.657   6.965  0.5242  0.2055 -0.0848
  483MOL0     C66569   3.573   4.452   6.763  0.5940  0.5216  0.8835
  483MOL0     C66570   3.597   4.390   6.642  0.0156  0.1673 -0.2354
  483MOL0     C66571   3.666   4.063   6.331 -0.0215  0.2236 -0.4869
  483MOL0     C66572   3.784   4.036   6.270  0.9788  0.3863 -0.0167
  483MOL0     C66573   3.776   3.995   6.136 -0.9146 -0.2124  0.0278
  483MOL0     C66574   3.663   3.967   6.063 -0.7144 -0.6497 -0.0506
  483MOL0     O66575   3.672   3.913   5.941  0.2466  0.0303 -0.4048
  483MOL0     C66576   3.597   3.795   5.915 -0.1525  0.2367  1.1496
  483MOL0     C66577   3.656   3.709   5.802  0.2563 -0.1142  0.4053
  483MOL0     C66578   3.548   3.626   5.734  0.7580 -0.3791 -0.1384
  483MOL0     C66579   3.591   3.577   5.596  0.3186 -0.2746 -0.0843
  483MOL0     C66580   3.707   3.490   5.597  0.1425 -0.5760 -0.7161
  483MOL0     C66581   3.799   3.419   5.602 -0.5316  0.3308  0.2406
  483MOL0     C66582   3.536   3.994   6.126 -0.6833  1.1800  0.6498
  483MOL0     C66583   3.541   4.040   6.263 -0.3530 -0.9122  0.1853
  483MOL0     C66584   3.411   4.037   6.330  0.3623 -0.7039  0.6718
  483MOL0     H66585   3.592   4.072   6.741  0.2976  0.1619 -3.6465
  483MOL0     H66586   3.562   4.167   6.955  1.0722 -0.5355  0.1798
  483MOL0     H66587   3.307   4.368   6.976  0.5142 -0.0482  1.2445
  483MOL0     H66588   3.326   4.523   6.880  1.5843  2.9694  1.3857
  483MOL0     H66589   3.327   4.507   7.189 -2.8038 -0.1456  1.6806
  483MOL0     H66590   3.330   4.648   7.076 -2.3564  0.9528  2.4624
  483MOL0     H66591   3.111   4.574   6.971 -2.1125 -2.8822 -0.9661
  483MOL0     H66592   3.101   4.438   7.074 -2.2456  0.9406  0.0899
  483MOL0     H66593   3.077   4.568   7.270 -1.3491  4.0844  2.3350
  483MOL0     H66594   3.115   4.718   7.178  2.6665 -1.3367 -1.1057
  483MOL0     H66595   2.880   4.530   7.130  2.5559 -1.4182 -2.1684
  483MOL0     H66596   2.895   4.674   7.040  0.5772  0.7416 -0.3427
  483MOL0     H66597   2.891   4.667   7.342  1.4308 -1.3838 -0.9452
  483MOL0     H66598   2.903   4.816   7.251 -0.1219  0.0126 -0.0164
  483MOL0     H66599   2.656   4.736   7.344  0.0474  1.2962  0.7409
  483MOL0     H66600   2.663   4.596   7.234 -3.2562  1.1682 -0.9487
  483MOL0     H66601   2.629   4.897   7.175  3.4443  1.0469  0.0171
  483MOL0     H66602   2.716   4.800   7.050 -0.8108 -0.2681 -0.5344
  483MOL0     H66603   2.367   4.746   7.241 -1.1573  1.1138 -1.7122
  483MOL0     H66604   2.151   4.631   7.205  2.0857  1.6863 -0.2841
  483MOL0     H66605   2.191   4.468   7.123 -0.1052 -0.1263 -0.6335
  483MOL0     H66606   2.139   4.601   6.897 -0.3326  1.6723 -0.5395
  483MOL0     H66607   2.003   4.536   7.000  2.3474 -1.4917  3.1322
  483MOL0     H66608   1.980   4.759   7.106 -2.2744  0.8056 -1.0790
  483MOL0     H66609   2.112   4.805   6.998 -2.3101  1.8098 -2.5570
  483MOL0     H66610   1.839   4.702   6.897 -1.8523  1.3353 -2.4422
  483MOL0     H66611   1.874   4.868   6.937  3.3012  1.1906 -0.2582
  483MOL0     H66612   1.733   4.771   6.689 -1.7483 -0.2470 -5.0113
  483MOL0     H66613   1.604   4.888   6.413 -0.5429  2.4448 -0.1249
  483MOL0     H66614   1.510   4.981   6.523 -0.5444  0.9170 -0.2537
  483MOL0     H66615   1.556   4.814   6.564 -0.9440 -1.5436 -4.2115
  483MOL0     H66616   1.730   5.458   6.395 -0.0386  1.0439 -1.0199
  483MOL0     H66617   1.683   5.624   6.231  1.4100  0.5175 -2.2203
  483MOL0     H66618   1.523   5.704   6.026  0.1885  3.0606 -0.4487
  483MOL0     H66619   1.684   5.761   6.065 -1.1471  1.6081  1.4090
  483MOL0     H66620   1.544   5.793   5.805 -0.5624 -1.1062  2.0631
  483MOL0     H66621   1.600   5.914   5.923  3.2666 -0.3494  1.1389
  483MOL0     H66622   1.749   5.869   5.702 -1.3626  0.9172 -0.3134
  483MOL0     H66623   1.793   5.723   5.790 -1.0883 -0.2804  1.7407
  483MOL0     H66624   1.957   5.871   5.842 -0.6593 -1.2219  0.6773
  483MOL0     H66625   1.860   5.855   5.987  1.5052 -1.4792 -0.5839
  483MOL0     H66626   1.748   6.065   5.913  1.3963  1.1003 -0.8656
  483MOL0     H66627   1.920   6.080   5.979 -2.2763  0.3359  2.8139
  483MOL0     H66628   1.795   6.091   5.693 -0.0650 -1.0083 -1.4604
  483MOL0     H66629   1.966   6.048   5.704  2.8625  3.5107  2.0347
  483MOL0     H66630   1.955   6.273   5.646 -3.2636  1.5650 -1.0777
  483MOL0     H66631   2.018   6.273   5.812 -0.8645  0.6653  1.2528
  483MOL0     H66632   1.843   6.453   5.776 -3.2320  1.6359  3.4075
  483MOL0     H66633   1.793   6.354   5.906 -1.2965 -0.1868 -0.0215
  483MOL0     H66634   1.752   5.340   5.915  2.2635 -1.2709  1.2047
  483MOL0     H66635   1.840   5.180   6.090  1.2409  1.0368 -2.1375
  483MOL0     H66636   1.985   5.171   6.561 -0.4849 -0.3147 -1.4911
  483MOL0     H66637   2.102   4.997   6.675  0.3960  1.5176 -0.6576
  483MOL0     H66638   3.562   4.559   6.779  1.3203  0.6659  0.4413
  483MOL0     H66639   3.599   4.432   6.542  1.9863 -2.1017 -1.2204
  483MOL0     H66640   3.875   4.068   6.320 -0.4668  3.0255  1.1135
  483MOL0     H66641   3.864   3.976   6.076 -0.8471 -0.6440  0.2591
  483MOL0     H66642   3.595   3.734   6.006 -2.3374 -2.0800 -0.3562
  483MOL0     H66643   3.491   3.809   5.896 -0.2583  0.5886  1.9250
  483MOL0     H66644   3.726   3.639   5.849  0.9587  1.5332  1.9295
  483MOL0     H66645   3.708   3.767   5.725 -0.6703  0.1283 -0.0534
  483MOL0     H66646   3.531   3.535   5.793  0.5935  1.1170  2.2406
  483MOL0     H66647   3.452   3.677   5.724  0.7208 -0.2799  0.7163
  483MOL0     H66648   3.585   3.662   5.527  0.6683 -0.1889 -0.0147
  483MOL0     H66649   3.510   3.511   5.564  0.2245 -0.8274  1.2576
  483MOL0     H66650   3.900   3.382   5.607 -0.7528 -0.8084 -2.3313
  483MOL0     H66651   3.454   3.963   6.063  1.4531  0.9193 -2.1659
  483MOL0     H66652   3.401   4.113   6.409 -0.0704  1.1730 -1.1121
  483MOL0     H66653   3.342   4.069   6.252  0.3524 -1.8553  0.1993
  483MOL0     H66654   3.388   3.938   6.370  0.8874 -1.2992 -0.4640
  484MOL0     O66655   6.112  10.559   6.967 -0.1268  0.1925  0.2625
  484MOL0     C66656   6.025  10.570   7.057 -0.1522  0.4014  0.1064
  484MOL0     O66657   5.951  10.681   7.089 -0.9814 -0.3128  1.2176
  484MOL0     C66658   5.851  10.662   7.187  0.4215 -1.0060  0.7747
  484MOL0     C66659   5.886  10.659   7.321  0.1729 -0.0687 -0.4305
  484MOL0     C66660   5.787  10.680   7.420  0.6052 -0.5454  0.5022
  484MOL0     C66661   5.650  10.702   7.380  0.2473  0.2964  0.2212
  484MOL0     O66662   5.554  10.717   7.471  0.0855  0.2208  0.8938
  484MOL0     C66663   5.493  10.600   7.539 -1.1548  0.2145 -0.0699
  484MOL0     C66664   5.391  10.659   7.644  0.2862 -0.4716 -0.6915
  484MOL0     C66665   5.437  10.753   7.758  0.6476  0.6910 -0.3008
  484MOL0     C66666   5.307  10.777   7.842  0.7466 -0.0308 -0.8934
  484MOL0     C66667   5.325  10.905   7.919  0.7598 -0.5392 -0.1256
  484MOL0     C66668   5.425  10.897   8.038 -0.1203 -0.1462 -0.0148
  484MOL0     C66669   5.450  11.037   8.097  0.2916  0.2039 -0.6962
  484MOL0     C66670   5.333  11.130   8.132 -1.1311 -0.4765  0.3240
  484MOL0     N66671   5.365  11.259   8.201 -0.0777  0.2596 -0.1532
  484MOL0     C66672   5.481  11.337   8.186 -0.2300 -0.5246 -0.7113
  484MOL0     C66673   5.467  11.421   8.294 -0.8854  0.1846 -0.1663
  484MOL0     C66674   5.559  11.529   8.336  0.0251 -1.2048 -0.0675
  484MOL0     C66675   5.672  11.500   8.441  0.4629 -0.3174 -0.2932
  484MOL0     C66676   5.633  11.444   8.581 -0.5818  0.5433  0.3142
  484MOL0     C66677   5.654  11.289   8.595  0.0865 -0.6236 -0.7506
  484MOL0     O66678   5.790  11.256   8.577 -0.1485  0.5472 -0.0131
  484MOL0     C66679   5.889  11.338   8.640 -0.3320  0.0656  0.8614
  484MOL0     C66680   5.896  11.363   8.780 -0.3297 -0.2792  0.7310
  484MOL0     C66681   5.995  11.445   8.849  0.6278  0.3426 -0.0342
  484MOL0     C66682   5.975  11.469   8.993 -0.7441  0.0074  0.3323
  484MOL0     C66683   6.109  11.493   8.773  0.1686 -0.0392  0.2034
  484MOL0     C66684   6.222  11.559   8.834 -0.3858 -0.1175 -0.2505
  484MOL0     O66685   6.291  11.649   8.750  0.3537  0.7974  0.0739
  484MOL0     C66686   6.421  11.687   8.773  0.1777 -0.2785 -0.2017
  484MOL0     C66687   6.524  11.600   8.821 -0.1330 -0.3240  0.0450
  484MOL0     C66688   6.651  11.665   8.836 -0.4137  1.3667  0.1024
  484MOL0     C66689   6.690  11.788   8.789  0.4243 -0.7531 -0.3532
  484MOL0     O66690   6.822  11.821   8.816 -0.3018 -0.6061 -1.0934
  484MOL0     C66691   6.860  11.957   8.806 -0.9071 -0.2571 -0.6084
  484MOL0     C66692   6.835  12.040   8.939 -0.1529  0.9619  0.0179
  484MOL0     C66693   6.898  12.178   8.929  0.4000 -0.2704  0.3471
  484MOL0     C66694   6.869  12.257   9.051 -0.0150 -0.4117 -0.6193
  484MOL0     C66695   6.922  12.392   9.064 -0.7809  0.2103 -0.0855
  484MOL0     C66696   6.923  12.480   8.940 -0.2961  0.3706 -0.2004
  484MOL0     C66697   6.784  12.491   8.881 -0.8009 -0.5938  0.1764
  484MOL0     C66698   6.775  12.622   8.790  0.5741 -0.6861 -0.3911
  484MOL0    Cl66699   6.904  12.612   8.660  0.3560  0.1481  0.0219
  484MOL0     C66700   6.595  11.864   8.727  0.3089 -0.0986  0.5319
  484MOL0     C66701   6.463  11.814   8.720  0.2790 -0.3175 -0.2072
  484MOL0     O66702   6.268  11.524   8.938 -0.0854  0.9649  0.7922
  484MOL0     C66703   6.105  11.462   8.632  0.1623 -0.2742  1.2733
  484MOL0     C66704   6.002  11.390   8.572  0.3166 -0.3921 -0.2191
  484MOL0     N66705   5.355  11.388   8.363  0.5853  0.4120 -0.0341
  484MOL0     N66706   5.292  11.285   8.313 -0.3958 -0.0580 -0.0308
  484MOL0     C66707   5.617  10.706   7.248 -0.5747 -0.8875  0.3308
  484MOL0     C66708   5.716  10.675   7.158  0.8793  0.3685  0.7242
  484MOL0     C66709   6.019  10.445   7.146 -0.7237  0.9009  0.9071
  484MOL0     C66710   6.104  10.444   7.257  0.5348 -0.5751  0.0575
  484MOL0     C66711   6.106  10.331   7.333 -0.0687  0.4836 -0.2262
  484MOL0     C66712   6.011  10.224   7.322  0.0678 -0.4498 -0.4485
  484MOL0     O66713   6.013  10.120   7.408 -0.3909 -0.1142 -0.3865
  484MOL0     C66714   5.886  10.055   7.429  0.1121 -0.3777 -0.5094
  484MOL0     C66715   5.907   9.947   7.542 -0.3432 -0.1350  0.0413
  484MOL0     C66716   5.774   9.920   7.613 -0.0131  0.4362 -0.2818
  484MOL0     C66717   5.773   9.875   7.756 -0.4597  0.3332 -0.0999
  484MOL0     C66718   5.836   9.739   7.765  0.3506 -0.4238  0.5698
  484MOL0     C66719   5.906   9.641   7.766 -0.0012  0.4418 -0.1426
  484MOL0     C66720   5.912  10.238   7.218  0.1450  0.7504 -0.7037
  484MOL0     C66721   5.921  10.342   7.123 -0.2804  0.9658 -0.6068
  484MOL0     C66722   5.828  10.360   7.007  0.9383 -0.8644  0.0288
  484MOL0     H66723   5.989  10.684   7.345  0.7231  1.7243 -3.9791
  484MOL0     H66724   5.809  10.687   7.526 -1.1545  0.2925  0.8425
  484MOL0     H66725   5.574  10.544   7.586 -0.7560  0.8916  0.0645
  484MOL0     H66726   5.440  10.540   7.464  1.6970  1.3631 -3.2555
  484MOL0     H66727   5.314  10.713   7.589 -0.9866  0.7278  2.0752
  484MOL0     H66728   5.350  10.568   7.689  2.1808 -0.5734  0.9434
  484MOL0     H66729   5.512  10.701   7.818 -0.2795 -2.3343 -1.5818
  484MOL0     H66730   5.483  10.846   7.723 -4.9665  3.4471 -1.5936
  484MOL0     H66731   5.216  10.782   7.782  0.1685  0.7040  0.0174
  484MOL0     H66732   5.287  10.697   7.914  1.3236  0.0573 -0.6238
  484MOL0     H66733   5.231  10.946   7.958  1.3479 -0.0445  0.8077
  484MOL0     H66734   5.377  10.971   7.849  3.1798  0.4263  2.3824
  484MOL0     H66735   5.398  10.831   8.121  2.3746  0.1328  1.1221
  484MOL0     H66736   5.520  10.860   8.000  2.5056  3.3028  2.5788
  484MOL0     H66737   5.514  11.089   8.024 -0.2321  1.3410 -0.3759
  484MOL0     H66738   5.505  11.028   8.191 -3.1976 -2.1904  1.3302
  484MOL0     H66739   5.295  11.159   8.033  2.2517  3.8106 -0.0396
  484MOL0     H66740   5.258  11.068   8.182  0.2985 -0.7040  2.2864
  484MOL0     H66741   5.556  11.332   8.108 -3.4519  2.0730 -4.3705
  484MOL0     H66742   5.501  11.608   8.384  0.0551 -2.2207  1.7362
  484MOL0     H66743   5.604  11.570   8.245  0.6666 -0.1596  0.7036
  484MOL0     H66744   5.739  11.435   8.384 -0.5469 -0.0017 -1.9359
  484MOL0     H66745   5.731  11.590   8.460 -0.3396 -0.2052  1.9427
  484MOL0     H66746   5.680  11.508   8.655 -0.7646  1.8054 -0.6353
  484MOL0     H66747   5.525  11.460   8.591 -0.3392  1.8412  1.0172
  484MOL0     H66748   5.632  11.274   8.701  0.7360  2.0343 -0.1806
  484MOL0     H66749   5.582  11.238   8.529  2.0652 -0.6784 -3.0174
  484MOL0     H66750   5.809  11.326   8.833 -1.1022  0.2588 -0.1301
  484MOL0     H66751   5.867  11.451   9.005 -0.7366 -2.2376 -2.2077
  484MOL0     H66752   5.999  11.571   9.026 -1.6185 -0.0504  1.2149
  484MOL0     H66753   6.031  11.407   9.064  1.3110  1.0572 -0.3131
  484MOL0     H66754   6.510  11.497   8.850  1.1613 -0.3967  0.4962
  484MOL0     H66755   6.725  11.603   8.885 -2.1712  1.3081  2.8941
  484MOL0     H66756   6.969  11.952   8.799 -0.3941  1.1905  3.3920
  484MOL0     H66757   6.822  12.010   8.718 -2.0214 -1.0509 -0.6278
  484MOL0     H66758   6.730  12.032   8.968  0.9011 -0.6482  4.0997
  484MOL0     H66759   6.891  11.978   9.009 -1.9359 -1.2083 -0.3708
  484MOL0     H66760   6.847  12.221   8.843  2.3460  2.0422  0.2481
  484MOL0     H66761   7.007  12.167   8.918  0.7500 -1.1832  3.4972
  484MOL0     H66762   6.909  12.191   9.128 -1.2493 -0.4579  0.0071
  484MOL0     H66763   6.761  12.258   9.071  0.2758 -1.0598  1.1723
  484MOL0     H66764   6.860  12.444   9.137  0.1689  3.1389 -1.2434
  484MOL0     H66765   7.028  12.382   9.086 -0.9949 -0.5609  0.6638
  484MOL0     H66766   6.996  12.450   8.864  0.0149  1.2784 -0.2791
  484MOL0     H66767   6.952  12.582   8.968  2.1784 -0.1649 -0.5712
  484MOL0     H66768   6.713  12.492   8.965  3.4427 -0.2593  4.1829
  484MOL0     H66769   6.770  12.397   8.826  0.8686 -0.4082 -0.6080
  484MOL0     H66770   6.781  12.712   8.853  0.6014 -0.1067 -1.2159
  484MOL0     H66771   6.675  12.615   8.746  0.3014 -0.2982  0.1461
  484MOL0     H66772   6.618  11.963   8.689  0.0888 -0.1458  0.2735
  484MOL0     H66773   6.394  11.874   8.661  0.8417  1.8118  1.1793
  484MOL0     H66774   6.189  11.495   8.572 -0.0872 -2.3249 -0.3462
  484MOL0     H66775   5.997  11.370   8.466 -2.6629 -0.4850 -0.1502
  484MOL0     H66776   5.515  10.731   7.224 -0.9864  1.1540  3.5715
  484MOL0     H66777   5.692  10.663   7.053  1.1043 -1.3747  0.8367
  484MOL0     H66778   6.182  10.517   7.275  1.0503 -1.0482 -0.2305
  484MOL0     H66779   6.193  10.318   7.396  0.9940  0.9658 -1.5304
  484MOL0     H66780   5.819  10.132   7.467  2.7615  1.9439 -0.2686
  484MOL0     H66781   5.834  10.004   7.347 -1.7605 -0.4000  0.6364
  484MOL0     H66782   5.966   9.992   7.623 -0.9255  3.3009 -1.2550
  484MOL0     H66783   5.954   9.862   7.494  1.3251  0.5218  0.4438
  484MOL0     H66784   5.719  10.015   7.618  0.1243  0.5316 -0.5424
  484MOL0     H66785   5.717   9.848   7.554 -2.2805  1.4112  0.6087
  484MOL0     H66786   5.668   9.856   7.777 -0.7192 -0.1316 -1.6729
  484MOL0     H66787   5.823   9.941   7.828 -1.1067  2.6550 -1.6653
  484MOL0     H66788   5.965   9.553   7.782 -0.0589  0.1015 -1.6975
  484MOL0     H66789   5.831  10.167   7.216  1.0734 -0.5727  2.4510
  484MOL0     H66790   5.851  10.446   6.943  0.6270 -0.4419  0.4827
  484MOL0     H66791   5.838  10.267   6.951 -1.2852 -1.1178 -0.0215
  484MOL0     H66792   5.721  10.368   7.030  1.1263 -0.4746  0.7884
  485MOL0     O66793  11.333   6.884   1.002  0.2112 -0.1416  0.1803
  485MOL0     C66794  11.438   6.843   1.052  0.0890 -0.2915  0.0463
  485MOL0     O66795  11.562   6.909   1.048 -0.0835 -0.9342 -0.5200
  485MOL0     C66796  11.563   7.028   0.978 -0.4725 -0.6209 -0.9271
  485MOL0     C66797  11.529   7.140   1.046 -0.5367  0.4752  0.5321
  485MOL0     C66798  11.528   7.273   0.974 -0.0737  0.3504 -0.4292
  485MOL0     C66799  11.572   7.275   0.839 -0.4980 -0.3152 -0.3033
  485MOL0     O66800  11.574   7.394   0.771 -0.2168  0.2355  0.7798
  485MOL0     C66801  11.703   7.463   0.780 -0.1181 -0.2136 -0.3934
  485MOL0     C66802  11.696   7.579   0.872 -0.4392 -0.0654 -0.3077
  485MOL0     C66803  11.615   7.699   0.835  0.1992 -0.1054 -0.1816
  485MOL0     C66804  11.464   7.683   0.807 -0.1204 -0.5909 -0.9193
  485MOL0     C66805  11.381   7.805   0.830  0.4913 -0.2601  0.6590
  485MOL0     C66806  11.232   7.780   0.805 -0.0743  0.3090 -0.3750
  485MOL0     C66807  11.159   7.707   0.918 -1.0678  0.3310 -0.1581
  485MOL0     C66808  11.010   7.726   0.902 -0.1248 -0.6850  0.4601
  485MOL0     N66809  10.976   7.868   0.937 -0.3403  0.3601  0.2268
  485MOL0     C66810  10.940   7.909   1.060  0.2265  1.0983  0.2424
  485MOL0     C66811  10.866   8.018   1.039  0.2661 -0.2602  0.4365
  485MOL0     C66812  10.784   8.090   1.149 -0.8421 -0.9757 -0.6375
  485MOL0     C66813  10.859   8.216   1.194  0.3867 -0.3086 -0.3447
  485MOL0     C66814  10.961   8.181   1.303  0.2133 -0.2749  0.4900
  485MOL0     C66815  10.909   8.124   1.430 -0.9748  0.6545 -0.0639
  485MOL0     O66816  10.978   8.137   1.556 -0.5158  0.2112  0.1307
  485MOL0     C66817  10.913   8.134   1.675 -0.0144 -0.2879 -0.4441
  485MOL0     C66818  11.002   8.120   1.783  0.2394 -0.2274 -0.2486
  485MOL0     C66819  10.969   8.081   1.911 -0.1754  1.3599  0.5728
  485MOL0     C66820  11.074   8.071   2.012  0.1773 -0.4051 -0.0882
  485MOL0     C66821  10.832   8.051   1.933  0.6765 -0.1839  0.9936
  485MOL0     C66822  10.786   8.015   2.069 -0.0696  0.2877 -0.0578
  485MOL0     O66823  10.672   7.941   2.076 -0.0510  0.7736 -0.2005
  485MOL0     C66824  10.608   7.921   2.197 -0.0877  0.5371 -0.2604
  485MOL0     C66825  10.668   7.867   2.307 -0.0467 -0.7562  0.5905
  485MOL0     C66826  10.593   7.836   2.426  0.5389 -0.2323 -0.4276
  485MOL0     C66827  10.456   7.863   2.429  0.6011 -0.7760  0.2902
  485MOL0     O66828  10.375   7.842   2.542  0.4830  0.6960  0.7504
  485MOL0     C66829  10.443   7.791   2.654  0.9566  1.0546  0.2067
  485MOL0     C66830  10.343   7.769   2.769 -0.5885  0.1126 -0.3701
  485MOL0     C66831  10.408   7.674   2.872 -0.3594  0.1869 -0.7704
  485MOL0     C66832  10.314   7.666   2.988 -0.0207  0.1473 -0.3165
  485MOL0     C66833  10.223   7.544   2.974 -0.9306 -0.3557 -0.2499
  485MOL0     C66834  10.139   7.534   3.095  0.1850  1.4678 -0.9488
  485MOL0     C66835  10.060   7.402   3.091 -0.0949 -0.4222  0.7488
  485MOL0     C66836   9.938   7.394   3.184 -0.0968 -0.9601  0.1534
  485MOL0    Cl66837   9.864   7.233   3.160 -0.4306 -0.0779  0.1491
  485MOL0     C66838  10.396   7.919   2.322 -0.2095  0.3883  0.8181
  485MOL0     C66839  10.474   7.959   2.211 -0.0443  0.9384 -0.2561
  485MOL0     O66840  10.847   8.060   2.164 -0.1701 -1.2306 -0.0623
  485MOL0     C66841  10.741   8.076   1.829  0.7287  0.6106  0.6387
  485MOL0     C66842  10.780   8.116   1.702  0.0581 -0.8992 -0.0374
  485MOL0     N66843  10.863   8.042   0.910  0.7622 -0.3497  0.1148
  485MOL0     N66844  10.928   7.953   0.839  0.1483  0.4306  1.0540
  485MOL0     C66845  11.594   7.155   0.772 -0.4404  0.0273 -0.1995
  485MOL0     C66846  11.592   7.034   0.842 -0.4263  0.3257 -0.4859
  485MOL0     C66847  11.447   6.708   1.110 -0.0823 -1.1117  0.2085
  485MOL0     C66848  11.576   6.653   1.130  0.8097 -0.4047  0.7841
  485MOL0     C66849  11.590   6.518   1.158  0.7849  0.4459  0.0078
  485MOL0     C66850  11.478   6.435   1.167 -0.3910  0.1580  0.1764
  485MOL0     O66851  11.511   6.302   1.192  0.0192  0.2095 -0.7025
  485MOL0     C66852  11.437   6.233   1.299  0.1074  0.6463 -0.3148
  485MOL0     C66853  11.531   6.121   1.362 -0.1739 -0.6544  0.1604
  485MOL0     C66854  11.583   6.024   1.266  0.0715 -0.4101 -0.6009
  485MOL0     C66855  11.647   5.903   1.328  0.3108  0.1845 -0.2876
  485MOL0     C66856  11.783   5.930   1.387 -0.4553 -0.4319  0.1744
  485MOL0     C66857  11.889   5.959   1.439  0.5582 -1.1317 -0.3632
  485MOL0     C66858  11.353   6.491   1.164 -0.9005 -0.3408 -0.4482
  485MOL0     C66859  11.326   6.625   1.136  0.9649  0.5690  0.3203
  485MOL0     C66860  11.179   6.660   1.150 -0.3229 -0.2187  0.0453
  485MOL0     H66861  11.482   7.133   1.143 -0.4658 -3.3259  0.4412
  485MOL0     H66862  11.498   7.364   1.025  1.4613  0.5045  0.2567
  485MOL0     H66863  11.727   7.486   0.675  1.0183  0.7570  0.0536
  485MOL0     H66864  11.776   7.396   0.825  3.1725  3.6916  0.6305
  485MOL0     H66865  11.661   7.536   0.966  2.2514 -2.0182 -0.0843
  485MOL0     H66866  11.799   7.613   0.887 -0.4313 -0.0442 -0.4081
  485MOL0     H66867  11.625   7.769   0.918  1.7519 -1.8895  1.2284
  485MOL0     H66868  11.664   7.748   0.750  1.8200 -1.8933 -0.3417
  485MOL0     H66869  11.455   7.655   0.702  0.7155 -2.2004 -0.6087
  485MOL0     H66870  11.418   7.604   0.869 -0.9307  2.2980  2.5061
  485MOL0     H66871  11.399   7.890   0.764 -3.8954  0.8946  0.6405
  485MOL0     H66872  11.408   7.847   0.928  0.3771 -1.8317  1.4053
  485MOL0     H66873  11.188   7.879   0.787 -2.6055 -0.3843  1.4412
  485MOL0     H66874  11.218   7.708   0.724 -3.9278 -0.2788  0.6311
  485MOL0     H66875  11.210   7.758   1.000 -1.1504  2.0130 -1.1096
  485MOL0     H66876  11.185   7.601   0.903  1.0038  0.9263 -1.2231
  485MOL0     H66877  10.986   7.708   0.797  1.9210  0.4556 -0.2832
  485MOL0     H66878  10.961   7.663   0.977  0.8032 -2.6432 -0.5075
  485MOL0     H66879  10.963   7.853   1.150  0.6546  2.0259  0.7250
  485MOL0     H66880  10.750   8.037   1.238  0.4971 -2.1329 -0.7787
  485MOL0     H66881  10.701   8.140   1.098  0.1835 -1.0483 -2.5037
  485MOL0     H66882  10.906   8.277   1.116  1.1334  0.5534  0.7487
  485MOL0     H66883  10.792   8.271   1.261  2.0219 -0.4824  1.5316
  485MOL0     H66884  11.029   8.109   1.257 -0.2321  0.2028 -0.9752
  485MOL0     H66885  11.025   8.268   1.320  1.3388 -0.5235 -1.9690
  485MOL0     H66886  10.805   8.156   1.437 -0.2054  3.1959  0.5202
  485MOL0     H66887  10.903   8.015   1.416 -0.7907  0.7116 -0.5848
  485MOL0     H66888  11.106   8.128   1.751  0.3248 -1.7555 -0.4325
  485MOL0     H66889  11.170   8.089   1.963 -1.3936 -1.1173 -3.7319
  485MOL0     H66890  11.064   7.970   2.053  0.8820 -0.6368 -0.4719
  485MOL0     H66891  11.073   8.147   2.092  0.6983  0.1104 -0.5585
  485MOL0     H66892  10.772   7.841   2.287 -0.8195 -1.7020 -2.7318
  485MOL0     H66893  10.647   7.789   2.508 -0.5770  1.3836  1.3251
  485MOL0     H66894  10.481   7.689   2.644 -4.1228 -1.2481  1.1423
  485MOL0     H66895  10.518   7.865   2.683  1.7309 -0.0287  1.0314
  485MOL0     H66896  10.313   7.865   2.811 -3.5562 -0.1923 -1.5203
  485MOL0     H66897  10.258   7.710   2.733 -1.5266  1.3272 -0.1918
  485MOL0     H66898  10.500   7.720   2.910 -0.8294 -1.3632  2.7062
  485MOL0     H66899  10.425   7.577   2.825  1.7104  0.5288 -0.8273
  485MOL0     H66900  10.266   7.764   3.001 -1.7590 -0.6952 -0.0797
  485MOL0     H66901  10.367   7.647   3.082  1.0916 -1.2472 -1.1860
  485MOL0     H66902  10.163   7.553   2.883 -2.7002 -1.2222  0.7830
  485MOL0     H66903  10.290   7.457   2.973 -0.7896 -0.4259  3.5877
  485MOL0     H66904  10.062   7.611   3.087 -5.2859 -3.1077  0.4140
  485MOL0     H66905  10.200   7.536   3.186 -0.6449 -0.9590 -0.2373
  485MOL0     H66906  10.130   7.321   3.114 -1.8598 -2.1518  0.2286
  485MOL0     H66907  10.039   7.389   2.985  0.0054  2.2098  0.3388
  485MOL0     H66908   9.868   7.473   3.156  0.0214 -1.7736 -2.6886
  485MOL0     H66909   9.963   7.414   3.289  0.9515 -2.1565  0.1545
  485MOL0     H66910  10.290   7.939   2.327 -1.0959 -2.7418 -2.0701
  485MOL0     H66911  10.440   8.009   2.121  0.9094 -1.6115 -2.1586
  485MOL0     H66912  10.639   8.044   1.847  1.1504 -0.6082  0.9820
  485MOL0     H66913  10.709   8.128   1.620 -0.3000  0.4574  0.4444
  485MOL0     H66914  11.613   7.158   0.665 -1.7951 -0.0810 -0.4583
  485MOL0     H66915  11.610   6.943   0.786  2.6768 -0.1418  1.0807
  485MOL0     H66916  11.668   6.709   1.124  0.2416  0.6956  2.0933
  485MOL0     H66917  11.688   6.478   1.135 -0.0706 -0.8269 -1.6424
  485MOL0     H66918  11.396   6.292   1.381 -2.5062  1.2370 -1.9123
  485MOL0     H66919  11.353   6.180   1.253  0.7831  1.1375 -2.2457
  485MOL0     H66920  11.482   6.072   1.447  0.8395 -0.3928  0.9097
  485MOL0     H66921  11.624   6.163   1.399  1.4269 -2.1769 -1.8813
  485MOL0     H66922  11.504   5.994   1.197  1.7487 -0.8429 -2.4424
  485MOL0     H66923  11.643   6.082   1.195 -1.6279 -0.3900 -2.0884
  485MOL0     H66924  11.648   5.820   1.256  2.3959 -3.1898  3.2398
  485MOL0     H66925  11.577   5.858   1.398  0.9161  0.1487  0.2991
  485MOL0     H66926  11.973   5.970   1.505 -0.7680 -2.3419  1.6575
  485MOL0     H66927  11.273   6.420   1.183  1.6470 -2.8627  1.8340
  485MOL0     H66928  11.128   6.634   1.057 -1.8474  2.5067  0.0139
  485MOL0     H66929  11.128   6.614   1.234 -1.5309 -2.7189 -1.9217
  485MOL0     H66930  11.159   6.767   1.162  0.1088  0.0810 -1.5699
  486MOL0     O66931   0.037   5.085   9.444  0.1061  0.0226  0.1026
  486MOL0     C66932  -0.065   5.026   9.411 -0.1417 -0.0691  0.3453
  486MOL0     O66933  -0.133   4.940   9.490  0.2500  0.0825  0.3042
  486MOL0     C66934  -0.086   4.911   9.621  0.2104 -0.6820  0.4460
  486MOL0     C66935   0.033   4.843   9.630 -0.4968  0.5132 -0.1328
  486MOL0     C66936   0.095   4.812   9.748 -0.6163  1.0836 -0.4924
  486MOL0     C66937   0.044   4.846   9.872  0.1285  0.1415 -0.8579
  486MOL0     O66938   0.108   4.794   9.984 -0.0161 -0.6872 -0.2971
  486MOL0     C66939   0.049   4.825  10.108  0.5335  0.1167 -0.4813
  486MOL0     C66940   0.155   4.768  10.205 -0.0658 -0.1984 -0.3271
  486MOL0     C66941   0.121   4.801  10.353 -0.0462  0.7610 -0.0843
  486MOL0     C66942  -0.026   4.781  10.388  0.4333  0.2591  0.0019
  486MOL0     C66943  -0.070   4.639  10.384 -0.0394  0.2477 -0.4422
  486MOL0     C66944  -0.199   4.619  10.466 -1.1392 -0.1541  0.6157
  486MOL0     C66945  -0.263   4.484  10.424 -0.7551  0.4341  0.1699
  486MOL0     C66946  -0.292   4.471  10.265 -1.0754 -0.6201 -0.3175
  486MOL0     N66947  -0.392   4.357  10.241 -0.2452 -0.7896  1.0452
  486MOL0     C66948  -0.527   4.360  10.237  0.2549 -0.1508 -0.5984
  486MOL0     C66949  -0.564   4.232  10.197  0.2063 -0.0811  0.1414
  486MOL0     C66950  -0.707   4.190  10.189  0.7373 -0.3131 -0.1193
  486MOL0     C66951  -0.753   4.151  10.324  0.6023  0.2937 -0.5765
  486MOL0     C66952  -0.852   4.020  10.317 -0.2767  0.1138  0.0804
  486MOL0     C66953  -0.984   4.064  10.250  1.0072  0.9478 -0.0524
  486MOL0     O66954  -1.037   4.153  10.347  0.5440 -0.1620  0.1878
  486MOL0     C66955  -1.174   4.184  10.325 -0.1888 -0.1087  0.7083
  486MOL0     C66956  -1.266   4.195  10.436 -0.0806  0.6722  0.0184
  486MOL0     C66957  -1.397   4.232  10.414  0.8236  0.5077  0.1999
  486MOL0     C66958  -1.468   4.257  10.548  0.3015  0.1191 -0.5143
  486MOL0     C66959  -1.448   4.256  10.283  0.9924  0.8685  0.4296
  486MOL0     C66960  -1.585   4.314  10.262  0.4909  0.6429  0.4726
  486MOL0     O66961  -1.621   4.295  10.138  0.1749  0.5733 -0.7164
  486MOL0     C66962  -1.751   4.330  10.099  0.0516 -0.1471 -0.6035
  486MOL0     C66963  -1.843   4.226  10.097  0.0755  0.0111  0.2248
  486MOL0     C66964  -1.962   4.235  10.014 -0.2395 -0.5390 -1.2786
  486MOL0     C66965  -1.984   4.346   9.938 -0.7165  0.0599 -0.5620
  486MOL0     O66966  -2.086   4.347   9.841 -0.7754 -0.0749  0.3923
  486MOL0     C66967  -2.164   4.463   9.812 -0.6590 -0.1366  0.2628
  486MOL0     C66968  -2.307   4.420   9.782 -0.4620  0.4884 -0.1899
  486MOL0     C66969  -2.363   4.346   9.907  0.1668  0.0739  1.1709
  486MOL0     C66970  -2.507   4.307   9.878 -0.6051  0.4526  0.0175
  486MOL0     C66971  -2.586   4.301  10.010 -0.2200 -0.1469 -0.3878
  486MOL0     C66972  -2.706   4.211   9.997 -0.1026 -0.3951 -0.1421
  486MOL0     C66973  -2.787   4.208  10.126 -0.4529  0.3312 -0.7025
  486MOL0     C66974  -2.916   4.122  10.109  0.1634 -0.0419  0.6808
  486MOL0    Cl66975  -2.987   4.114  10.280 -0.0369 -0.5722 -0.2345
  486MOL0     C66976  -1.887   4.450   9.946 -0.0273  0.3663  0.1300
  486MOL0     C66977  -1.773   4.439  10.021  0.1543 -0.4544  0.0902
  486MOL0     O66978  -1.634   4.389  10.338  0.7748 -0.0383  0.0009
  486MOL0     C66979  -1.363   4.239  10.180  0.5737 -0.2293  0.3904
  486MOL0     C66980  -1.231   4.200  10.194  0.5157  0.4423 -0.4493
  486MOL0     N66981  -0.454   4.161  10.179 -0.4096 -0.1671  0.3455
  486MOL0     N66982  -0.358   4.242  10.189 -0.4756 -0.3326  0.0409
  486MOL0     C66983  -0.080   4.920   9.864 -0.1575 -0.2944  0.3165
  486MOL0     C66984  -0.145   4.945   9.745  0.5967 -0.5361  0.3787
  486MOL0     C66985  -0.133   5.073   9.283  0.1154  0.7025  0.3056
  486MOL0     C66986  -0.274   5.075   9.301 -1.0530  0.1197  0.1763
  486MOL0     C66987  -0.351   5.136   9.204 -0.9975 -0.5738 -0.0005
  486MOL0     C66988  -0.298   5.183   9.081  0.2606  0.8437  0.4489
  486MOL0     O66989  -0.375   5.236   8.979 -0.7430 -0.3710 -0.2113
  486MOL0     C66990  -0.501   5.193   8.945  0.3345  1.0010 -0.7962
  486MOL0     C66991  -0.560   5.236   8.806  0.7441  0.0898 -0.6874
  486MOL0     C66992  -0.469   5.192   8.693 -0.8114 -0.0990  0.2204
  486MOL0     C66993  -0.533   5.217   8.554 -0.6993 -0.3098  1.1707
  486MOL0     C66994  -0.432   5.167   8.452 -0.5064  0.3825  0.4054
  486MOL0     C66995  -0.363   5.138   8.364 -0.6576  1.0724  0.8385
  486MOL0     C66996  -0.160   5.173   9.063 -1.1280 -0.6959  0.4127
  486MOL0     C66997  -0.075   5.128   9.166 -0.3324  0.5082 -0.0656
  486MOL0     C66998   0.081   5.122   9.139 -0.0057  0.2341  0.1703
  486MOL0     H66999   0.084   4.815   9.538 -1.4512 -1.7586 -0.0305
  486MOL0     H67000   0.199   4.781   9.746 -1.6037 -2.9494  0.5947
  486MOL0     H67001  -0.049   4.777  10.114  0.0907  1.0599 -0.0572
  486MOL0     H67002   0.035   4.932  10.121  2.1307  0.4529 -1.2180
  486MOL0     H67003   0.173   4.661  10.196  0.4924  0.0139 -2.2669
  486MOL0     H67004   0.251   4.812  10.176 -0.4558 -0.1861 -1.6837
  486MOL0     H67005   0.186   4.740  10.416 -0.8722 -1.4881 -1.3002
  486MOL0     H67006   0.145   4.903  10.383 -0.5345  1.5633 -2.2772
  486MOL0     H67007  -0.036   4.804  10.495  0.1111 -2.1324  0.5478
  486MOL0     H67008  -0.083   4.851  10.327 -1.9673  0.2361  2.0477
  486MOL0     H67009   0.003   4.571  10.429  0.1290  1.3156  0.9546
  486MOL0     H67010  -0.078   4.605  10.280  0.1880 -2.1220  0.2553
  486MOL0     H67011  -0.169   4.622  10.571 -2.2014 -0.7486  0.9554
  486MOL0     H67012  -0.263   4.706  10.452  0.1830  0.7774  0.2136
  486MOL0     H67013  -0.361   4.481  10.473 -1.7182  1.8232 -1.5259
  486MOL0     H67014  -0.207   4.395  10.454  1.4990  1.4344 -0.8328
  486MOL0     H67015  -0.324   4.568  10.225  4.6259  1.8846  0.2104
  486MOL0     H67016  -0.204   4.455  10.203 -0.6824 -1.4334  0.4349
  486MOL0     H67017  -0.594   4.436  10.275  0.4281  0.7537 -2.0394
  486MOL0     H67018  -0.716   4.108  10.118 -1.8281 -1.7407  1.6769
  486MOL0     H67019  -0.766   4.274  10.151  0.9520 -0.1196 -0.0287
  486MOL0     H67020  -0.668   4.118  10.384  0.9003 -1.1366 -1.7089
  486MOL0     H67021  -0.802   4.237  10.370  1.8099  1.5895 -1.5942
  486MOL0     H67022  -0.812   3.939  10.255 -0.7957  0.5761 -0.8806
  486MOL0     H67023  -0.845   3.977  10.418  0.9681 -1.9641 -0.8414
  486MOL0     H67024  -0.981   4.124  10.158 -2.5439  0.0310 -0.9185
  486MOL0     H67025  -1.049   3.978  10.234  0.5775  0.9313  1.6613
  486MOL0     H67026  -1.218   4.190  10.533  3.6959 -1.0037 -1.7311
  486MOL0     H67027  -1.429   4.193  10.628  2.5672 -0.0261 -1.6745
  486MOL0     H67028  -1.576   4.237  10.545 -0.0302  1.1627  1.9944
  486MOL0     H67029  -1.452   4.359  10.583  2.6856 -0.1587 -0.6350
  486MOL0     H67030  -1.807   4.138  10.149  3.2914 -1.4973 -3.9328
  486MOL0     H67031  -2.034   4.155  10.003  2.7295 -3.4766 -1.0817
  486MOL0     H67032  -2.149   4.539   9.888  5.0644  0.7406 -1.2344
  486MOL0     H67033  -2.129   4.510   9.720 -1.0715 -1.9208 -0.8709
  486MOL0     H67034  -2.370   4.504   9.751 -1.7420  1.0698  3.4467
  486MOL0     H67035  -2.311   4.361   9.690  2.7507  0.8706 -0.6902
  486MOL0     H67036  -2.368   4.417   9.991 -1.8361  0.6835  0.6101
  486MOL0     H67037  -2.313   4.252   9.930 -3.3804 -1.5285  3.2376
  486MOL0     H67038  -2.501   4.205   9.839  2.9242 -0.1517  1.7275
  486MOL0     H67039  -2.566   4.380   9.821 -3.1999  1.0201  3.1287
  486MOL0     H67040  -2.515   4.256  10.080  1.6877  2.1786 -0.7229
  486MOL0     H67041  -2.606   4.401  10.047  1.8380 -0.9007  3.2010
  486MOL0     H67042  -2.675   4.112   9.962  1.1415  0.1225 -0.5563
  486MOL0     H67043  -2.774   4.257   9.925 -1.5432 -0.3272  1.2150
  486MOL0     H67044  -2.813   4.308  10.163  4.6983  2.6045 -2.2618
  486MOL0     H67045  -2.722   4.174  10.207  0.4134  2.1505 -0.5687
  486MOL0     H67046  -2.900   4.020  10.072 -1.5409  0.6175 -2.1942
  486MOL0     H67047  -2.980   4.164  10.031 -0.8722  2.2598  2.6727
  486MOL0     H67048  -1.889   4.543   9.890  2.0672  0.3638 -0.0426
  486MOL0     H67049  -1.702   4.520  10.018 -0.6134  0.4910  3.2589
  486MOL0     H67050  -1.394   4.272  10.081  0.3926  1.6362  1.0306
  486MOL0     H67051  -1.166   4.188  10.109  2.7333 -1.5832  1.3794
  486MOL0     H67052  -0.132   4.951   9.954 -0.7931  0.4055 -0.2652
  486MOL0     H67053  -0.230   5.011   9.739  0.5117 -0.7620 -1.6911
  486MOL0     H67054  -0.337   5.042   9.384 -0.3746  1.8651  1.4586
  486MOL0     H67055  -0.458   5.141   9.221 -1.0807 -1.3373 -0.2896
  486MOL0     H67056  -0.487   5.085   8.940 -1.2643  0.8182 -2.1133
  486MOL0     H67057  -0.572   5.221   9.024  1.2997 -0.3311  0.6060
  486MOL0     H67058  -0.561   5.345   8.796 -2.7143  0.2434 -0.0696
  486MOL0     H67059  -0.666   5.209   8.800 -0.1477  2.7915  0.8616
  486MOL0     H67060  -0.365   5.227   8.693 -0.0136 -2.2557 -1.2145
  486MOL0     H67061  -0.449   5.086   8.707 -0.6427  0.1969  2.5632
  486MOL0     H67062  -0.554   5.323   8.538  1.0262 -0.2332 -1.0659
  486MOL0     H67063  -0.629   5.166   8.567 -1.3057  0.8445  1.3820
  486MOL0     H67064  -0.299   5.142   8.278 -0.4739  1.3531  0.9848
  486MOL0     H67065  -0.119   5.207   8.968 -1.1795  0.2245  0.7059
  486MOL0     H67066   0.124   5.221   9.159  1.5907 -0.3085 -0.4298
  486MOL0     H67067   0.133   5.054   9.208 -1.0036 -0.0158  0.6959
  486MOL0     H67068   0.112   5.087   9.041  2.1989 -3.8969  2.0905
  487MOL0     O67069  10.059   3.314   3.832 -0.4269  0.3850 -0.0657
  487MOL0     C67070  10.154   3.235   3.787 -0.5163 -0.6165  0.6616
  487MOL0     O67071  10.137   3.116   3.716 -0.1741 -0.9807 -0.3477
  487MOL0     C67072  10.008   3.094   3.688  1.0419 -0.4441 -0.1968
  487MOL0     C67073   9.919   3.044   3.779 -0.0806  0.0922  0.6650
  487MOL0     C67074   9.786   3.043   3.759  0.0285  0.6814  0.5770
  487MOL0     C67075   9.733   3.105   3.640 -0.3051  0.9120  0.3112
  487MOL0     O67076   9.596   3.117   3.637  0.0836 -0.4012  0.5186
  487MOL0     C67077   9.531   3.168   3.514 -0.7410 -0.1001  0.2696
  487MOL0     C67078   9.392   3.142   3.519  0.0566 -0.1981 -0.0702
  487MOL0     C67079   9.308   3.209   3.404 -0.1055  0.1868  0.1342
  487MOL0     C67080   9.356   3.349   3.363 -0.5017 -0.2918 -0.3562
  487MOL0     C67081   9.270   3.375   3.244  0.4451  0.2062 -0.0732
  487MOL0     C67082   9.317   3.327   3.105 -0.3678  0.9548 -0.1790
  487MOL0     C67083   9.448   3.387   3.046 -0.3876  0.2858 -0.3508
  487MOL0     C67084   9.434   3.516   2.960  0.8172  0.2303  0.2171
  487MOL0     N67085   9.388   3.629   3.032 -0.4028 -1.1235  0.5011
  487MOL0     C67086   9.432   3.672   3.158  0.9709 -0.4624  0.0840
  487MOL0     C67087   9.356   3.780   3.198  0.2975  0.8941  0.3947
  487MOL0     C67088   9.385   3.855   3.326  0.4544 -0.1563  0.6090
  487MOL0     C67089   9.298   3.972   3.346  0.6921  0.0949 -0.2319
  487MOL0     C67090   9.307   4.092   3.246  0.4103  0.2495 -0.2243
  487MOL0     C67091   9.185   4.113   3.158  0.5414 -0.0593 -0.8435
  487MOL0     O67092   9.069   4.112   3.252 -0.0237  0.3390  0.3448
  487MOL0     C67093   8.978   4.208   3.246  0.0316 -0.5030 -0.6064
  487MOL0     C67094   8.926   4.262   3.129 -0.0649  0.7355 -0.2747
  487MOL0     C67095   8.846   4.379   3.134  0.5238  0.4121  0.7739
  487MOL0     C67096   8.793   4.437   3.006 -0.3920 -0.0740 -0.2425
  487MOL0     C67097   8.816   4.433   3.261  0.1817 -0.8880  0.5625
  487MOL0     C67098   8.724   4.547   3.284 -0.0279 -0.0403 -0.2352
  487MOL0     O67099   8.627   4.526   3.378 -0.1757 -0.6245 -0.2126
  487MOL0     C67100   8.555   4.633   3.412  0.1735  0.8522  0.5998
  487MOL0     C67101   8.418   4.642   3.374 -0.2128 -0.3558  0.3661
  487MOL0     C67102   8.346   4.759   3.409 -0.3727  0.7551 -0.1910
  487MOL0     C67103   8.400   4.854   3.490 -0.8588 -0.3354 -0.1473
  487MOL0     O67104   8.304   4.947   3.510  0.9229 -0.1872  0.3519
  487MOL0     C67105   8.329   5.055   3.596  0.0520 -0.6850 -0.2816
  487MOL0     C67106   8.259   5.033   3.730 -0.4924 -0.4237 -1.5642
  487MOL0     C67107   8.226   5.154   3.812 -0.6894  0.1545  0.5722
  487MOL0     C67108   8.109   5.236   3.761 -0.7565 -0.2324  0.1197
  487MOL0     C67109   7.967   5.175   3.784  0.5994  0.3185 -0.9807
  487MOL0     C67110   7.851   5.277   3.749 -0.6233 -0.0980 -0.1108
  487MOL0     C67111   7.796   5.352   3.874  0.8821 -0.1135 -0.3641
  487MOL0     C67112   7.709   5.492   3.853 -0.3988  0.0333  0.5755
  487MOL0    Cl67113   7.809   5.616   3.767 -0.3407 -0.2621  0.6700
  487MOL0     C67114   8.527   4.837   3.539 -0.1326  0.2600 -0.1928
  487MOL0     C67115   8.606   4.722   3.501 -0.1774 -0.2925 -1.0520
  487MOL0     O67116   8.742   4.653   3.220 -0.1687 -0.3454  0.6472
  487MOL0     C67117   8.867   4.373   3.378 -0.3956  0.5741  0.7071
  487MOL0     C67118   8.946   4.261   3.373 -0.1720  0.2421 -1.2037
  487MOL0     N67119   9.255   3.789   3.099 -1.2532 -0.3966 -0.2097
  487MOL0     N67120   9.277   3.707   3.004  0.1178 -0.3318  0.5081
  487MOL0     C67121   9.819   3.170   3.549  1.0032  0.2873 -0.2709
  487MOL0     C67122   9.955   3.149   3.571  0.4306 -0.6022 -0.3432
  487MOL0     C67123  10.298   3.253   3.849 -0.8733  0.3153  0.5195
  487MOL0     C67124  10.362   3.136   3.872 -0.4687  0.3886 -0.1637
  487MOL0     C67125  10.490   3.146   3.939  0.9671  0.6589 -0.4196
  487MOL0     C67126  10.549   3.271   3.983 -0.0294 -0.1879  0.7737
  487MOL0     O67127  10.661   3.291   4.056 -0.3187  0.5353 -0.0668
  487MOL0     C67128  10.735   3.175   4.085  0.2056  1.0492 -0.4023
  487MOL0     C67129  10.685   3.090   4.212 -0.2876 -0.0201 -0.4025
  487MOL0     C67130  10.753   3.137   4.347  0.1533  0.4324  0.0282
  487MOL0     C67131  10.677   3.085   4.473  0.1242  0.0488  0.3816
  487MOL0     C67132  10.670   2.938   4.485 -0.4544  1.7607  0.0358
  487MOL0     C67133  10.678   2.813   4.497 -0.4260  0.5606 -0.5255
  487MOL0     C67134  10.479   3.378   3.950 -0.5596 -0.5672 -0.1422
  487MOL0     C67135  10.362   3.376   3.880 -0.4104 -0.8819 -0.9661
  487MOL0     C67136  10.290   3.502   3.849 -0.3328  0.2925  0.7348
  487MOL0     H67137   9.948   3.022   3.881 -2.3855  3.4030  2.2160
  487MOL0     H67138   9.734   2.995   3.842  3.0274 -0.1786  2.1015
  487MOL0     H67139   9.576   3.127   3.423 -2.2174  1.0807 -1.0402
  487MOL0     H67140   9.550   3.274   3.526  2.2614 -0.5827  0.4861
  487MOL0     H67141   9.359   3.038   3.523 -2.0634  0.3210 -2.0359
  487MOL0     H67142   9.361   3.177   3.618  0.0369 -0.9230  0.1823
  487MOL0     H67143   9.307   3.139   3.321 -1.0015 -0.2062  0.4619
  487MOL0     H67144   9.202   3.222   3.426  0.6369  2.6001  2.9154
  487MOL0     H67145   9.327   3.422   3.439 -0.5115  1.7369 -2.2117
  487MOL0     H67146   9.465   3.344   3.351 -0.3632  0.9943  0.1882
  487MOL0     H67147   9.253   3.482   3.235  0.0203  0.1080 -0.4940
  487MOL0     H67148   9.169   3.342   3.270 -0.0047  1.3005 -0.3929
  487MOL0     H67149   9.334   3.219   3.104  1.8826  1.2347 -1.9990
  487MOL0     H67150   9.233   3.332   3.035 -0.4772 -3.7303 -0.6830
  487MOL0     H67151   9.473   3.304   2.978 -1.0583  0.4711 -0.8292
  487MOL0     H67152   9.518   3.400   3.129 -0.9633  1.8270 -0.0882
  487MOL0     H67153   9.528   3.544   2.913  0.2342  2.5138  0.3093
  487MOL0     H67154   9.367   3.499   2.875  3.6855 -1.2238 -1.9335
  487MOL0     H67155   9.509   3.619   3.212 -2.9111 -3.8290  2.9238
  487MOL0     H67156   9.493   3.870   3.335  0.7951 -3.1331  2.6119
  487MOL0     H67157   9.368   3.784   3.407  1.2725  1.3295  2.1708
  487MOL0     H67158   9.198   3.930   3.356  0.9315 -0.0529  2.1776
  487MOL0     H67159   9.319   4.014   3.445  0.7466  0.3666 -0.3572
  487MOL0     H67160   9.322   4.185   3.301  1.8675 -0.0550 -0.0656
  487MOL0     H67161   9.386   4.064   3.175  0.3594 -1.4948  0.3630
  487MOL0     H67162   9.196   4.206   3.101  0.4385  1.0706  0.8971
  487MOL0     H67163   9.178   4.039   3.078 -1.4786  0.7583 -1.4662
  487MOL0     H67164   8.977   4.220   3.043  1.3373 -1.3187  1.4288
  487MOL0     H67165   8.685   4.448   3.006 -0.4918 -0.2746 -2.8298
  487MOL0     H67166   8.814   4.369   2.923  0.3244  0.6217 -0.6480
  487MOL0     H67167   8.835   4.536   2.984 -1.0654 -0.1956 -2.2522
  487MOL0     H67168   8.384   4.551   3.325  2.0637 -1.1982  0.2155
  487MOL0     H67169   8.243   4.758   3.376 -0.2275  1.0917 -0.6662
  487MOL0     H67170   8.436   5.069   3.609  0.0618 -1.7412  0.9929
  487MOL0     H67171   8.286   5.138   3.538 -0.4930 -0.1536  0.8524
  487MOL0     H67172   8.171   4.969   3.714 -0.5889 -0.6787 -0.1873
  487MOL0     H67173   8.328   4.984   3.799 -1.6410 -0.1758 -0.1620
  487MOL0     H67174   8.316   5.216   3.801  0.6865 -1.8613 -0.0838
  487MOL0     H67175   8.204   5.120   3.914 -1.2661 -0.1200  0.3607
  487MOL0     H67176   8.113   5.265   3.656 -2.0436  0.6226  0.2920
  487MOL0     H67177   8.123   5.329   3.815  1.7403  0.8221 -2.0926
  487MOL0     H67178   7.959   5.074   3.742 -0.4198  0.2566 -0.6597
  487MOL0     H67179   7.948   5.159   3.890 -1.2634 -0.1326 -1.3566
  487MOL0     H67180   7.772   5.231   3.689 -0.6137  3.2228 -2.9929
  487MOL0     H67181   7.900   5.349   3.682  1.2034 -0.4721  0.7651
  487MOL0     H67182   7.886   5.379   3.929  1.1806 -2.8952  0.6467
  487MOL0     H67183   7.731   5.281   3.925  1.5697 -1.4798 -1.3440
  487MOL0     H67184   7.671   5.543   3.943  2.9432  2.9202  0.5697
  487MOL0     H67185   7.633   5.459   3.782  0.9034 -1.2453 -0.2618
  487MOL0     H67186   8.574   4.909   3.605  1.1378  2.2832 -3.1056
  487MOL0     H67187   8.699   4.711   3.557  0.0449 -2.4071 -1.7669
  487MOL0     H67188   8.840   4.431   3.466 -1.0593  4.5666 -1.8567
  487MOL0     H67189   8.975   4.230   3.473 -1.5106 -3.6618 -1.8741
  487MOL0     H67190   9.774   3.227   3.468 -1.6238  0.9319  1.5163
  487MOL0     H67191  10.028   3.191   3.503 -0.9589 -2.3161 -3.0950
  487MOL0     H67192  10.332   3.034   3.847  2.2508 -0.2986 -0.9925
  487MOL0     H67193  10.535   3.050   3.963  3.2834  1.4753 -1.2846
  487MOL0     H67194  10.753   3.118   3.994 -1.5278  0.9907 -0.7325
  487MOL0     H67195  10.836   3.197   4.122  1.2967 -1.9398 -1.3406
  487MOL0     H67196  10.713   2.989   4.181  1.5977  1.1469 -2.9447
  487MOL0     H67197  10.577   3.105   4.221 -0.3635 -1.2299  1.0823
  487MOL0     H67198  10.858   3.109   4.354  0.2579  1.1177  1.4200
  487MOL0     H67199  10.751   3.246   4.343 -0.7319  0.4821  1.3703
  487MOL0     H67200  10.574   3.124   4.474  0.0841  0.0257  2.8329
  487MOL0     H67201  10.730   3.124   4.560  2.0583  2.1017 -1.5843
  487MOL0     H67202  10.670   2.706   4.504 -1.8277  0.4404 -2.7994
  487MOL0     H67203  10.526   3.469   3.986 -1.9881 -0.4312  1.5002
  487MOL0     H67204  10.203   3.529   3.909 -1.5806  1.5653 -1.5058
  487MOL0     H67205  10.351   3.592   3.848 -0.9406  0.7348 -1.3790
  487MOL0     H67206  10.252   3.483   3.748 -2.1663 -0.5084  1.5206
  488MOL0     O67207   8.004   8.727   3.157  0.2476  0.6101 -0.1104
  488MOL0     C67208   7.933   8.827   3.139 -1.4105  0.1212 -0.1039
  488MOL0     O67209   7.985   8.960   3.144 -0.1725  0.4109  0.1732
  488MOL0     C67210   8.127   8.972   3.148  1.2541  0.4696  0.5885
  488MOL0     C67211   8.194   8.981   3.029  0.0192  0.6361  0.2176
  488MOL0     C67212   8.333   8.997   3.022  0.3932  0.1514  0.0097
  488MOL0     C67213   8.410   8.994   3.137 -0.1534 -0.0561  0.5227
  488MOL0     O67214   8.542   9.031   3.101  0.2927  0.5188 -0.5600
  488MOL0     C67215   8.636   9.021   3.216  0.5310  0.6854  0.3782
  488MOL0     C67216   8.780   9.041   3.158  0.1136  0.7655 -0.1631
  488MOL0     C67217   8.836   8.913   3.090  0.1371 -0.3920 -0.4311
  488MOL0     C67218   8.910   8.943   2.953  0.3563 -0.0238 -0.5883
  488MOL0     C67219   8.963   8.813   2.889 -0.9614 -0.5508  0.3720
  488MOL0     C67220   9.023   8.841   2.754 -0.4273 -0.2278  0.2442
  488MOL0     C67221   9.114   8.728   2.694 -0.0736  0.1425  0.3007
  488MOL0     C67222   9.242   8.700   2.779 -0.1540  0.4872  1.1320
  488MOL0     N67223   9.337   8.627   2.697 -0.7467  0.0649  0.1598
  488MOL0     C67224   9.423   8.690   2.606  0.3088  0.8851 -0.1803
  488MOL0     C67225   9.483   8.584   2.549 -0.5921  0.1353 -0.5324
  488MOL0     C67226   9.577   8.592   2.431  0.1804 -0.9910 -0.1302
  488MOL0     C67227   9.513   8.631   2.299 -0.7707  0.4172  1.1753
  488MOL0     C67228   9.461   8.503   2.226 -0.0890 -0.4325  1.6542
  488MOL0     C67229   9.349   8.540   2.132  0.6202  1.3138  0.1281
  488MOL0     O67230   9.411   8.585   2.015 -0.3493  0.7599 -0.1820
  488MOL0     C67231   9.315   8.639   1.948 -0.2326 -0.6901 -0.9032
  488MOL0     C67232   9.221   8.570   1.872  0.5152 -0.4085  0.0541
  488MOL0     C67233   9.147   8.643   1.775  0.9778  0.2893 -1.5917
  488MOL0     C67234   9.047   8.554   1.700 -0.0273 -0.1970 -0.4901
  488MOL0     C67235   9.162   8.779   1.751  0.3669  0.5212 -0.8369
  488MOL0     C67236   9.076   8.861   1.667 -0.3130 -0.9836  0.4905
  488MOL0     O67237   8.959   8.813   1.631  0.6437  0.9168 -0.8440
  488MOL0     C67238   8.852   8.894   1.602 -0.6654 -0.9372  0.3661
  488MOL0     C67239   8.763   8.853   1.500 -0.0888 -0.9300  0.2474
  488MOL0     C67240   8.636   8.919   1.479  0.4034 -0.8281 -0.8624
  488MOL0     C67241   8.605   9.038   1.543 -0.7410 -0.3871 -0.1525
  488MOL0     O67242   8.489   9.101   1.508 -0.1252  0.2892 -0.2595
  488MOL0     C67243   8.452   9.119   1.371  0.4537  0.7125  0.2608
  488MOL0     C67244   8.578   9.171   1.297 -0.5039  0.7716 -0.3028
  488MOL0     C67245   8.528   9.234   1.175 -0.4497 -0.0522 -0.7862
  488MOL0     C67246   8.453   9.114   1.089 -0.9314 -0.6417  0.2655
  488MOL0     C67247   8.437   9.159   0.943  0.9145 -0.4396 -0.0360
  488MOL0     C67248   8.330   9.077   0.859  0.1702 -0.4897 -0.2097
  488MOL0     C67249   8.374   8.925   0.851 -0.1401 -0.2138  0.5115
  488MOL0     C67250   8.269   8.844   0.769 -0.3279  0.6536  0.3346
  488MOL0    Cl67251   8.324   8.679   0.746 -0.1266  0.1884 -0.1381
  488MOL0     C67252   8.695   9.085   1.646  0.7447  0.9706  0.4950
  488MOL0     C67253   8.811   9.017   1.670  0.6291  0.3162 -0.4775
  488MOL0     O67254   9.122   8.965   1.619  0.1006 -0.5530 -0.4504
  488MOL0     C67255   9.250   8.845   1.841 -0.0386  0.6536  0.7111
  488MOL0     C67256   9.323   8.775   1.935  1.1181 -0.5913 -1.0407
  488MOL0     N67257   9.441   8.459   2.610 -0.1891 -0.2788  0.1767
  488MOL0     N67258   9.359   8.495   2.700  0.5563  0.6962  0.1909
  488MOL0     C67259   8.351   8.967   3.257  0.7796 -0.3777 -0.5472
  488MOL0     C67260   8.210   8.964   3.263 -0.8196  0.5847  0.1520
  488MOL0     C67261   7.781   8.820   3.140 -0.2624  0.1133 -0.9053
  488MOL0     C67262   7.710   8.927   3.197 -0.1908  0.4199 -0.0012
  488MOL0     C67263   7.571   8.942   3.178  0.1950  0.4644  0.5753
  488MOL0     C67264   7.506   8.852   3.091 -0.4005  0.2200 -0.0864
  488MOL0     O67265   7.375   8.870   3.083  0.4387 -1.2161  0.5473
  488MOL0     C67266   7.305   8.797   3.177 -0.2100  0.7196 -0.7220
  488MOL0     C67267   7.206   8.876   3.266 -0.3302  0.2238  0.3878
  488MOL0     C67268   7.279   8.972   3.366 -0.2411  1.1839 -0.3981
  488MOL0     C67269   7.201   9.016   3.488  0.2934  0.1095  0.3374
  488MOL0     C67270   7.294   9.085   3.584  1.5667  0.8560  1.4405
  488MOL0     C67271   7.364   9.142   3.662  0.2506 -1.0689  0.1947
  488MOL0     C67272   7.572   8.731   3.054  0.5212 -0.1018 -0.1162
  488MOL0     C67273   7.703   8.716   3.084 -0.7950 -0.7383  0.6155
  488MOL0     C67274   7.775   8.599   3.032 -0.6218  0.3072  0.0497
  488MOL0     H67275   8.139   8.973   2.936 -0.2345  0.5880  0.3704
  488MOL0     H67276   8.374   9.014   2.923 -0.4263  0.9696 -0.2023
  488MOL0     H67277   8.631   8.923   3.263  0.1046  0.7798  0.5338
  488MOL0     H67278   8.605   9.097   3.288 -0.1459 -0.9055  1.8015
  488MOL0     H67279   8.782   9.125   3.089 -1.1233  1.1735  0.2725
  488MOL0     H67280   8.839   9.046   3.250 -2.5069 -4.3048  2.2357
  488MOL0     H67281   8.902   8.854   3.155 -0.3897  0.3030  0.7755
  488MOL0     H67282   8.748   8.860   3.054 -0.0719 -1.1395  1.1037
  488MOL0     H67283   8.833   8.986   2.888 -0.5121  0.6271  0.8188
  488MOL0     H67284   8.996   9.008   2.969 -0.7992  1.2665  0.6275
  488MOL0     H67285   8.899   8.725   2.881  3.1365 -3.9544  1.5105
  488MOL0     H67286   9.043   8.769   2.950  0.1277  0.3671 -0.3552
  488MOL0     H67287   8.930   8.850   2.697  0.2318 -2.4638 -1.3489
  488MOL0     H67288   9.079   8.935   2.750 -3.3204  1.6055 -0.1582
  488MOL0     H67289   9.145   8.756   2.593  0.3677  2.6675  1.0570
  488MOL0     H67290   9.063   8.632   2.699  0.8024 -0.8231 -4.3500
  488MOL0     H67291   9.281   8.798   2.806 -0.8838  0.8265  0.9833
  488MOL0     H67292   9.221   8.635   2.865  2.3540 -0.5036  1.0798
  488MOL0     H67293   9.437   8.798   2.603 -1.3174  1.2278  2.1072
  488MOL0     H67294   9.636   8.500   2.428  1.6433 -0.2834  3.1309
  488MOL0     H67295   9.647   8.674   2.450  0.1528 -0.8931 -0.4457
  488MOL0     H67296   9.423   8.685   2.332 -1.8413 -1.8951  2.2880
  488MOL0     H67297   9.583   8.685   2.235 -1.7544  0.9102  0.4822
  488MOL0     H67298   9.546   8.449   2.184  0.1004 -0.3943  1.9870
  488MOL0     H67299   9.418   8.433   2.299  1.6563 -2.5495  0.7802
  488MOL0     H67300   9.286   8.453   2.111  1.0368 -0.4451  4.8426
  488MOL0     H67301   9.297   8.625   2.178 -0.4568  1.0903 -0.6304
  488MOL0     H67302   9.206   8.464   1.891  1.0021 -0.1271  2.2575
  488MOL0     H67303   9.092   8.454   1.697 -0.0306 -0.3265  1.9470
  488MOL0     H67304   9.052   8.576   1.593 -2.3902  1.9790 -0.2366
  488MOL0     H67305   8.945   8.557   1.739  0.6257 -2.0830  1.5756
  488MOL0     H67306   8.794   8.760   1.453  0.9031  0.1607 -1.3569
  488MOL0     H67307   8.563   8.875   1.412 -2.4172 -1.6326  2.4971
  488MOL0     H67308   8.416   9.027   1.324 -1.5111  1.6295 -0.1430
  488MOL0     H67309   8.368   9.188   1.363  0.5267  0.5937 -2.9839
  488MOL0     H67310   8.612   9.254   1.359  0.9649  0.4781 -0.6839
  488MOL0     H67311   8.661   9.100   1.295  0.9000  2.0990  3.1005
  488MOL0     H67312   8.615   9.271   1.119 -0.8410 -0.9555 -2.0491
  488MOL0     H67313   8.470   9.325   1.191  2.0024  1.3835  0.4423
  488MOL0     H67314   8.351   9.099   1.127 -1.5382 -1.0326 -1.4338
  488MOL0     H67315   8.521   9.028   1.090 -0.5665 -0.3565  1.3529
  488MOL0     H67316   8.416   9.267   0.937 -0.2040 -0.7087 -1.9462
  488MOL0     H67317   8.530   9.137   0.891  3.5346  1.1439  3.5441
  488MOL0     H67318   8.329   9.120   0.758  0.2122 -0.0027 -0.0069
  488MOL0     H67319   8.228   9.084   0.898  0.1554 -2.0788  0.1031
  488MOL0     H67320   8.386   8.882   0.951  1.8531 -0.7902  0.0784
  488MOL0     H67321   8.468   8.911   0.796  0.8631 -1.6092  2.4405
  488MOL0     H67322   8.259   8.887   0.669 -1.9802 -3.9979 -1.7932
  488MOL0     H67323   8.171   8.843   0.817 -0.7504 -2.1980 -0.3583
  488MOL0     H67324   8.657   9.176   1.691  1.8577 -0.2405  4.1876
  488MOL0     H67325   8.871   9.051   1.754  0.7029 -1.9098  0.4479
  488MOL0     H67326   9.274   8.949   1.818 -1.2374  0.6808 -0.5023
  488MOL0     H67327   9.389   8.834   1.998 -2.2631  2.8608 -0.3022
  488MOL0     H67328   8.399   8.958   3.354 -1.3956 -2.4722  0.4457
  488MOL0     H67329   8.149   8.943   3.350  0.0025  2.4477  1.2493
  488MOL0     H67330   7.768   8.998   3.255  1.3443  0.0406 -1.0200
  488MOL0     H67331   7.533   9.031   3.228  3.1694 -0.4333  4.9952
  488MOL0     H67332   7.259   8.705   3.140 -1.8958  2.1043 -2.2848
  488MOL0     H67333   7.381   8.758   3.244 -1.1759  2.1609  1.3345
  488MOL0     H67334   7.137   8.815   3.325  2.2369 -0.2398  3.1547
  488MOL0     H67335   7.151   8.938   3.195  2.6449 -0.6482 -3.0257
  488MOL0     H67336   7.370   8.918   3.393  2.2485  3.4938 -3.5013
  488MOL0     H67337   7.319   9.053   3.305 -0.2801 -0.1906 -2.3154
  488MOL0     H67338   7.148   8.936   3.541  0.9631  0.3210  1.3441
  488MOL0     H67339   7.129   9.093   3.460  3.5013  3.2601  0.0361
  488MOL0     H67340   7.416   9.196   3.738 -2.4296  1.9352  0.1212
  488MOL0     H67341   7.505   8.662   3.003 -1.8364  0.8991  1.4173
  488MOL0     H67342   7.847   8.560   3.105 -2.1433 -1.3068  0.7473
  488MOL0     H67343   7.723   8.508   3.000 -0.5672  0.3329 -0.1164
  488MOL0     H67344   7.821   8.625   2.936 -0.4136 -2.9434 -0.8733
  489MOL0     O67345   5.420   1.353   6.933  0.3923 -0.0019 -0.5849
  489MOL0     C67346   5.481   1.407   7.023  0.0442  0.0188  0.7634
  489MOL0     O67347   5.456   1.382   7.157 -0.2449 -0.0151 -0.0456
  489MOL0     C67348   5.377   1.282   7.189 -0.0688  0.1979 -0.4303
  489MOL0     C67349   5.255   1.316   7.232 -0.6100 -0.0437  0.1119
  489MOL0     C67350   5.165   1.227   7.283  0.1125  1.4096  0.6226
  489MOL0     C67351   5.194   1.085   7.289  0.0760 -0.4863  1.1092
  489MOL0     O67352   5.111   0.992   7.340  0.5144 -0.1445  0.0510
  489MOL0     C67353   4.993   1.034   7.423 -0.2946 -0.3877 -0.0107
  489MOL0     C67354   4.906   0.920   7.458 -0.2731  0.1037 -0.7275
  489MOL0     C67355   4.766   0.954   7.478  0.5453  0.5686 -0.1191
  489MOL0     C67356   4.676   0.830   7.516  0.6670  0.3521  0.8401
  489MOL0     C67357   4.625   0.755   7.391 -0.7391  0.2405  0.2172
  489MOL0     C67358   4.548   0.642   7.447 -0.0076 -0.1695  0.2592
  489MOL0     C67359   4.491   0.553   7.338  0.2400 -0.2955  0.0121
  489MOL0     C67360   4.443   0.421   7.388 -0.1149  0.3697  0.5574
  489MOL0     N67361   4.525   0.335   7.480 -0.5694 -0.1809  0.2888
  489MOL0     C67362   4.657   0.291   7.453 -0.4759 -0.1779 -0.6085
  489MOL0     C67363   4.710   0.257   7.576  0.1964 -0.8406 -0.1315
  489MOL0     C67364   4.852   0.218   7.607  0.7364 -0.4422  0.4448
  489MOL0     C67365   4.964   0.331   7.579 -0.0764  0.2657  0.2667
  489MOL0     C67366   4.975   0.424   7.692  0.5153  0.1794 -0.1041
  489MOL0     C67367   5.058   0.544   7.672 -0.9052 -0.1199  0.7022
  489MOL0     O67368   5.196   0.501   7.677  0.4200 -0.2290 -0.8052
  489MOL0     C67369   5.304   0.579   7.650 -0.4267  0.0259 -0.3060
  489MOL0     C67370   5.304   0.714   7.605  0.7792  0.0130 -0.5235
  489MOL0     C67371   5.417   0.794   7.582 -0.2635  0.0190 -0.4577
  489MOL0     C67372   5.400   0.941   7.552  0.6802 -0.3431  0.3936
  489MOL0     C67373   5.543   0.733   7.607  0.4104 -0.1258 -0.9486
  489MOL0     C67374   5.677   0.798   7.598  0.5290  0.1507  0.0161
  489MOL0     O67375   5.775   0.718   7.553 -0.1815 -0.2205 -0.6193
  489MOL0     C67376   5.910   0.764   7.553  0.5357 -0.5244 -0.4678
  489MOL0     C67377   5.942   0.862   7.465 -0.3369 -1.3656  0.9840
  489MOL0     C67378   6.066   0.927   7.471  0.1250 -0.1589 -0.6481
  489MOL0     C67379   6.155   0.898   7.572  0.7597  0.0447  0.6679
  489MOL0     O67380   6.257   0.985   7.578 -0.0861  0.0837  0.3775
  489MOL0     C67381   6.370   0.946   7.653 -0.7843  0.7440  0.3741
  489MOL0     C67382   6.510   0.996   7.599  0.1050  0.5084  0.5129
  489MOL0     C67383   6.509   1.144   7.575 -1.2336 -1.1729 -0.1917
  489MOL0     C67384   6.633   1.169   7.485  0.3209  0.0952  0.4145
  489MOL0     C67385   6.654   1.315   7.432  0.5339 -0.4258 -0.4862
  489MOL0     C67386   6.560   1.372   7.326 -0.3872  0.2202  0.0835
  489MOL0     C67387   6.573   1.311   7.180 -0.0518 -0.4405 -0.1774
  489MOL0     C67388   6.541   1.420   7.063  1.0865 -0.1500 -1.3757
  489MOL0    Cl67389   6.518   1.335   6.901 -0.1870 -0.2698 -0.2906
  489MOL0     C67390   6.125   0.784   7.658 -0.2412  0.8200 -0.3774
  489MOL0     C67391   6.000   0.718   7.646 -0.7047 -0.3209 -0.1862
  489MOL0     O67392   5.689   0.911   7.641  0.0879 -0.9190 -0.5857
  489MOL0     C67393   5.546   0.596   7.648  0.4383 -0.2039  0.3538
  489MOL0     C67394   5.431   0.522   7.670  0.4588 -0.5726 -0.4131
  489MOL0     N67395   4.615   0.272   7.670  0.6659 -0.1516 -0.6554
  489MOL0     N67396   4.506   0.324   7.615  0.8371 -0.5316  0.7223
  489MOL0     C67397   5.317   1.049   7.237 -0.8879  0.4542 -0.1303
  489MOL0     C67398   5.407   1.144   7.192 -0.3391  0.1740  0.5983
  489MOL0     C67399   5.594   1.505   6.996  0.6395 -0.3666 -0.3556
  489MOL0     C67400   5.620   1.546   6.861  0.4420  0.5297 -0.4771
  489MOL0     C67401   5.718   1.632   6.832 -0.0802  1.0408  0.1409
  489MOL0     C67402   5.798   1.695   6.930 -0.6179 -0.0442 -0.3585
  489MOL0     O67403   5.908   1.773   6.916 -0.5693  0.0889 -0.0392
  489MOL0     C67404   5.947   1.807   6.786  0.7224  0.4973 -0.2804
  489MOL0     C67405   6.083   1.881   6.794  0.1264 -0.7426 -0.5400
  489MOL0     C67406   6.154   1.918   6.658  0.2473  0.1073 -0.4084
  489MOL0     C67407   6.273   2.012   6.694  0.7579  0.1562  0.7817
  489MOL0     C67408   6.332   2.068   6.570 -0.2140 -0.2583  0.3283
  489MOL0     C67409   6.385   2.100   6.467 -0.7357 -0.6312  0.2294
  489MOL0     C67410   5.759   1.661   7.065 -0.7264  0.5052  0.9749
  489MOL0     C67411   5.669   1.565   7.105  0.0275  0.9571 -0.0231
  489MOL0     C67412   5.655   1.522   7.255 -0.1485  0.3718 -0.2492
  489MOL0     H67413   5.225   1.420   7.220  1.7695  0.8180  1.1105
  489MOL0     H67414   5.072   1.277   7.306 -0.8974  0.3971 -1.0840
  489MOL0     H67415   4.927   1.102   7.367 -1.2400  1.4816  3.1375
  489MOL0     H67416   5.026   1.088   7.512  1.2173 -0.8010 -0.3037
  489MOL0     H67417   4.908   0.846   7.377  0.3026 -1.7697  0.8992
  489MOL0     H67418   4.934   0.868   7.550 -1.4497 -0.5969 -0.7386
  489MOL0     H67419   4.746   1.033   7.550  0.0284  0.0604  0.3143
  489MOL0     H67420   4.728   0.994   7.384  2.0883 -0.1295 -1.0681
  489MOL0     H67421   4.719   0.761   7.589  0.7383  2.5734  3.0480
  489MOL0     H67422   4.585   0.871   7.561 -0.1725 -0.4186 -0.1055
  489MOL0     H67423   4.712   0.718   7.334  2.1120  2.5396  2.7383
  489MOL0     H67424   4.561   0.811   7.322 -1.6041 -2.8889 -1.7169
  489MOL0     H67425   4.626   0.581   7.493 -0.4564  0.4014  1.8287
  489MOL0     H67426   4.476   0.680   7.520  0.1103  1.3228 -0.3470
  489MOL0     H67427   4.569   0.532   7.265  1.1478  0.4162  0.7486
  489MOL0     H67428   4.408   0.612   7.297  2.2129  1.8968 -1.0627
  489MOL0     H67429   4.358   0.452   7.449  0.0804 -0.7726  1.4445
  489MOL0     H67430   4.424   0.363   7.297  1.9768 -1.6936  1.3246
  489MOL0     H67431   4.712   0.287   7.360  1.0056 -2.7397  0.2850
  489MOL0     H67432   4.894   0.138   7.545  1.4146  0.7614 -0.7181
  489MOL0     H67433   4.848   0.193   7.713 -2.6796 -0.0305  0.5294
  489MOL0     H67434   5.054   0.270   7.572 -1.3357 -2.5655  4.3802
  489MOL0     H67435   4.941   0.377   7.482  0.9677  2.6025  1.0580
  489MOL0     H67436   4.876   0.462   7.716  0.1999 -1.9163  2.2647
  489MOL0     H67437   4.995   0.369   7.784 -0.3043  1.6714  0.9937
  489MOL0     H67438   5.044   0.597   7.577  2.9154  0.9843  0.5672
  489MOL0     H67439   5.045   0.613   7.756  1.6342 -2.5576  3.3075
  489MOL0     H67440   5.208   0.762   7.587 -0.1061  0.0212  3.3111
  489MOL0     H67441   5.308   0.953   7.494  1.6720 -1.5727 -1.5457
  489MOL0     H67442   5.476   0.969   7.478 -1.2803  1.1369 -1.1796
  489MOL0     H67443   5.401   1.003   7.642 -1.0713 -1.4484  1.2364
  489MOL0     H67444   5.859   0.876   7.397 -1.4732 -0.8642  2.4056
  489MOL0     H67445   6.105   1.004   7.404 -0.4242  1.3335  0.6833
  489MOL0     H67446   6.364   0.979   7.757  2.4361 -0.0593  0.9315
  489MOL0     H67447   6.377   0.838   7.667  4.5223  0.7961  0.2300
  489MOL0     H67448   6.593   0.974   7.667  0.7503  0.2613 -0.3464
  489MOL0     H67449   6.526   0.936   7.509 -1.1389 -0.9133  1.1786
  489MOL0     H67450   6.527   1.184   7.675  1.5197 -3.1214  0.2168
  489MOL0     H67451   6.411   1.185   7.551 -2.4875 -2.7667  1.8421
  489MOL0     H67452   6.646   1.100   7.400  0.2698 -0.7199  1.0550
  489MOL0     H67453   6.719   1.153   7.550 -0.2173  0.2358  1.1685
  489MOL0     H67454   6.642   1.381   7.518  0.4458  0.3500 -1.0834
  489MOL0     H67455   6.759   1.339   7.413  0.6239  1.6297  2.0099
  489MOL0     H67456   6.578   1.480   7.326  0.1130  0.1376  0.0458
  489MOL0     H67457   6.459   1.354   7.365 -0.7405  0.4278 -0.7104
  489MOL0     H67458   6.521   1.215   7.172 -0.2102 -0.3423 -0.3460
  489MOL0     H67459   6.677   1.280   7.171  0.1306 -2.1414  4.5296
  489MOL0     H67460   6.629   1.486   7.060 -0.2118  1.7437 -0.0460
  489MOL0     H67461   6.458   1.485   7.090 -0.0761 -1.2369 -2.2003
  489MOL0     H67462   6.193   0.752   7.737 -0.2102  0.6736 -0.4633
  489MOL0     H67463   5.977   0.648   7.726 -0.0083  2.0845  2.2938
  489MOL0     H67464   5.634   0.536   7.661  0.4495 -0.5973 -1.3487
  489MOL0     H67465   5.453   0.428   7.717  4.4082 -0.1748 -1.1171
  489MOL0     H67466   5.333   0.942   7.230  1.1436  0.7583 -1.1388
  489MOL0     H67467   5.494   1.096   7.147 -0.8978  1.4146 -2.0306
  489MOL0     H67468   5.556   1.496   6.788 -1.0315 -0.4262  1.3629
  489MOL0     H67469   5.742   1.640   6.726  0.4848  0.3550  0.2128
  489MOL0     H67470   5.969   1.710   6.741 -2.6467 -2.7969  4.3205
  489MOL0     H67471   5.867   1.864   6.738  0.5563  0.0220 -0.5713
  489MOL0     H67472   6.151   1.834   6.865 -0.7699  0.5339  1.2138
  489MOL0     H67473   6.069   1.977   6.845 -0.7227  0.0899 -2.2398
  489MOL0     H67474   6.189   1.823   6.616 -1.5595 -0.4854 -0.6229
  489MOL0     H67475   6.083   1.957   6.584  0.2501 -1.6342 -1.3859
  489MOL0     H67476   6.353   1.958   6.746 -0.0885 -4.8460 -2.4343
  489MOL0     H67477   6.236   2.101   6.747 -2.0450  0.1897 -1.0480
  489MOL0     H67478   6.417   2.124   6.368 -1.3664 -0.0898  0.1457
  489MOL0     H67479   5.817   1.716   7.138  2.6204 -1.2380 -0.1805
  489MOL0     H67480   5.656   1.413   7.254 -0.1502  0.3233 -3.1229
  489MOL0     H67481   5.736   1.554   7.321 -0.3996  1.6383 -0.5296
  489MOL0     H67482   5.557   1.555   7.292  0.2232  0.0146  1.1008
  490MOL0     O67483   3.141   9.069  10.467 -0.2215  0.7466 -0.2967
  490MOL0     C67484   3.179   9.185  10.465  0.3907 -1.0935  0.1610
  490MOL0     O67485   3.105   9.280  10.533  0.0768 -1.3332  0.8563
  490MOL0     C67486   2.986   9.237  10.597  0.1861  0.1383  0.6335
  490MOL0     C67487   2.993   9.172  10.719  0.0809 -0.4850 -0.6549
  490MOL0     C67488   2.876   9.120  10.776  0.7831 -0.8231  0.5437
  490MOL0     C67489   2.750   9.147  10.724  0.4907  0.4756 -0.6260
  490MOL0     O67490   2.626   9.124  10.769 -0.1157 -0.3665 -0.1666
  490MOL0     C67491   2.613   9.094  10.916 -0.5782 -1.2712 -0.5653
  490MOL0     C67492   2.525   9.193  10.982 -0.5568 -0.3433 -0.4566
  490MOL0     C67493   2.614   9.311  11.036 -0.1777  0.1956  0.1104
  490MOL0     C67494   2.699   9.271  11.156 -0.5770  0.1962 -0.4563
  490MOL0     C67495   2.800   9.376  11.184 -0.0525  0.6387  0.1801
  490MOL0     C67496   2.901   9.396  11.073  0.1079 -0.2358  0.4404
  490MOL0     C67497   3.000   9.494  11.119 -0.3934  0.0674 -0.0333
  490MOL0     C67498   3.102   9.433  11.217  0.2375  0.2988  0.4553
  490MOL0     N67499   3.223   9.511  11.222 -0.1160  0.3858 -0.9882
  490MOL0     C67500   3.240   9.649  11.244 -0.3118  0.6097  0.2292
  490MOL0     C67501   3.380   9.658  11.225 -0.2703  0.4014  0.2990
  490MOL0     C67502   3.460   9.789  11.236  0.1179 -0.0556 -0.7096
  490MOL0     C67503   3.480   9.823  11.387  0.3016  0.5315  1.5574
  490MOL0     C67504   3.544   9.959  11.403  0.5298 -0.1865  0.1815
  490MOL0     C67505   3.519  10.013  11.546  0.1911  0.7707 -0.5618
  490MOL0     O67506   3.545   9.911  11.645  0.3620  0.2544 -0.4952
  490MOL0     C67507   3.664   9.920  11.707  0.8064  1.3151  0.0670
  490MOL0     C67508   3.784   9.871  11.657 -0.3098  1.1601 -0.1720
  490MOL0     C67509   3.904   9.884  11.731 -0.2322  0.5992  0.5332
  490MOL0     C67510   4.029   9.841  11.663  0.3352 -0.1131 -0.7288
  490MOL0     C67511   3.897   9.946  11.866  0.0990  0.6792  0.0234
  490MOL0     C67512   4.009   9.961  11.953  0.4304  1.0998 -0.1130
  490MOL0     O67513   3.982   9.982  12.075  0.8368 -0.3354 -0.6346
  490MOL0     C67514   4.073   9.984  12.183 -0.2648  0.4621  1.2662
  490MOL0     C67515   4.051  10.078  12.284  0.1370  0.9293  0.3318
  490MOL0     C67516   4.113  10.078  12.404 -0.3350 -0.4558 -0.5032
  490MOL0     C67517   4.199   9.975  12.428 -0.0034 -0.1920  0.1772
  490MOL0     O67518   4.257   9.955  12.547  0.2833  0.1126 -0.9808
  490MOL0     C67519   4.309  10.075  12.614  0.2501 -0.0887  0.1754
  490MOL0     C67520   4.373  10.011  12.736 -0.0986 -0.5251 -0.2984
  490MOL0     C67521   4.484   9.926  12.695  0.3988  0.3608 -0.6547
  490MOL0     C67522   4.556   9.871  12.813  0.0795 -0.8705 -0.5194
  490MOL0     C67523   4.686   9.798  12.761  0.3411  0.2688 -0.2070
  490MOL0     C67524   4.799   9.894  12.725 -0.0435  0.2755  0.2725
  490MOL0     C67525   4.894   9.828  12.630  0.1902  0.1358  0.9433
  490MOL0     C67526   5.018   9.895  12.589  0.0593 -0.2827  0.4749
  490MOL0    Cl67527   5.120   9.930  12.726  0.2297 -0.2147 -0.3986
  490MOL0     C67528   4.229   9.874  12.329 -0.1612  0.0060 -0.4038
  490MOL0     C67529   4.171   9.887  12.203 -1.1827  0.8063 -0.8732
  490MOL0     O67530   4.123   9.950  11.909  0.0312 -0.0479 -0.5023
  490MOL0     C67531   3.770   9.981  11.908 -1.0328 -0.3950 -0.3820
  490MOL0     C67532   3.663   9.978  11.832 -0.0900 -0.5890 -0.9939
  490MOL0     N67533   3.435   9.537  11.195 -0.0185  0.9369  0.2052
  490MOL0     N67534   3.337   9.456  11.175 -0.5083  1.4220 -0.0565
  490MOL0     C67535   2.752   9.219  10.604  0.5887  0.4083  0.6689
  490MOL0     C67536   2.864   9.256  10.532 -0.8822  1.9536 -0.7613
  490MOL0     C67537   3.307   9.216  10.395  0.0011 -0.1715 -0.2345
  490MOL0     C67538   3.369   9.339  10.439  0.3102 -0.7146 -0.4600
  490MOL0     C67539   3.478   9.397  10.375  0.5288  0.2217  0.4507
  490MOL0     C67540   3.533   9.336  10.265  0.4382  0.0378  0.2775
  490MOL0     O67541   3.638   9.395  10.201 -0.0794  0.2431  0.0334
  490MOL0     C67542   3.696   9.349  10.070  0.7009 -0.8016 -0.1785
  490MOL0     C67543   3.594   9.393   9.957  0.0633  0.3569 -0.7607
  490MOL0     C67544   3.540   9.537   9.968 -0.3551 -0.4344  0.9508
  490MOL0     C67545   3.631   9.643   9.896  0.1026  0.2015 -0.2317
  490MOL0     C67546   3.559   9.706   9.790 -0.0008 -0.1315  0.5286
  490MOL0     C67547   3.480   9.762   9.713 -0.2592 -0.1532 -0.3790
  490MOL0     C67548   3.479   9.216  10.219 -0.0598  0.3533 -0.2408
  490MOL0     C67549   3.364   9.159  10.279 -0.0681  0.1358 -0.2065
  490MOL0     C67550   3.297   9.036  10.219 -0.5175  0.4079 -0.0912
  490MOL0     H67551   3.089   9.156  10.767 -0.1170 -0.3416 -0.2074
  490MOL0     H67552   2.885   9.064  10.868 -2.2061 -1.9337  0.2472
  490MOL0     H67553   2.709   9.092  10.968 -1.6433  2.6486  1.9784
  490MOL0     H67554   2.575   8.992  10.913  1.4350 -2.0820 -0.0404
  490MOL0     H67555   2.442   9.219  10.917  0.1206 -1.3544 -1.7786
  490MOL0     H67556   2.483   9.138  11.067 -0.1984  0.6390  0.3775
  490MOL0     H67557   2.677   9.336  10.950 -2.1576  2.7042 -0.6937
  490MOL0     H67558   2.552   9.398  11.057  0.4382  0.6099  0.2442
  490MOL0     H67559   2.630   9.249  11.238  1.2832 -3.0256  0.4111
  490MOL0     H67560   2.747   9.176  11.132 -2.1504 -0.7148 -0.0765
  490MOL0     H67561   2.848   9.342  11.276  2.4145 -1.3908 -1.7106
  490MOL0     H67562   2.762   9.475  11.213 -0.0389  0.6461  0.1740
  490MOL0     H67563   2.955   9.301  11.058  1.1413  0.4531 -0.3994
  490MOL0     H67564   2.858   9.432  10.979  2.5379 -0.0039 -0.6699
  490MOL0     H67565   2.950   9.585  11.152  0.3253  0.0470  1.1745
  490MOL0     H67566   3.055   9.521  11.028 -2.4550  0.1556 -1.3183
  490MOL0     H67567   3.060   9.421  11.318 -0.7370 -0.9444 -0.0749
  490MOL0     H67568   3.123   9.329  11.192  1.1573  0.4148  0.6676
  490MOL0     H67569   3.172   9.729  11.271 -2.4929 -1.4278  1.1086
  490MOL0     H67570   3.392   9.855  11.182  0.5400  3.5249  2.7311
  490MOL0     H67571   3.550   9.779  11.174  0.0515 -0.5738 -0.7339
  490MOL0     H67572   3.383   9.817  11.436 -0.1823 -2.0978  0.4375
  490MOL0     H67573   3.527   9.734  11.428 -3.2922 -0.5457  3.6759
  490MOL0     H67574   3.650   9.945  11.384  0.4590 -3.7347  1.7145
  490MOL0     H67575   3.489  10.029  11.339  0.3132  0.6615  1.2662
  490MOL0     H67576   3.588  10.095  11.571 -1.0064  1.0826  2.0268
  490MOL0     H67577   3.421  10.060  11.559 -0.2609  0.0757 -1.3671
  490MOL0     H67578   3.789   9.818  11.563  0.8395  2.7430 -1.0387
  490MOL0     H67579   4.085   9.931  11.639  1.3933 -0.6732 -0.4447
  490MOL0     H67580   3.997   9.789  11.573 -0.4716  0.5130 -0.8114
  490MOL0     H67581   4.101   9.781  11.720  0.5853  0.4031 -0.5010
  490MOL0     H67582   3.963  10.141  12.276 -2.4104 -2.3272  0.4574
  490MOL0     H67583   4.085  10.150  12.480 -2.3220 -1.1409 -0.5287
  490MOL0     H67584   4.383  10.123  12.549  1.3669 -1.2743  0.5254
  490MOL0     H67585   4.230  10.142  12.650 -3.6527 -2.8276 -2.4953
  490MOL0     H67586   4.415  10.088  12.801 -0.5234 -2.1910  2.0842
  490MOL0     H67587   4.293   9.960  12.791  0.3584  2.1380  3.2088
  490MOL0     H67588   4.557   9.984  12.638 -0.5262  1.9852 -0.2752
  490MOL0     H67589   4.448   9.845  12.631  1.1055 -0.0142 -0.5778
  490MOL0     H67590   4.492   9.809  12.876  0.7185  1.9408  3.2660
  490MOL0     H67591   4.600   9.949  12.877  0.0859 -0.5947 -0.8571
  490MOL0     H67592   4.721   9.735  12.843  1.1610  1.4417  0.3568
  490MOL0     H67593   4.658   9.737  12.674  2.4181 -0.3625 -0.5003
  490MOL0     H67594   4.846   9.915  12.821 -2.8395 -0.4607  1.9096
  490MOL0     H67595   4.758   9.989  12.689 -0.2228  1.1589  2.6105
  490MOL0     H67596   4.852   9.815  12.529  2.2763  2.9532 -0.4113
  490MOL0     H67597   4.930   9.734  12.674  2.2404  1.0668  1.3209
  490MOL0     H67598   4.990   9.992  12.548 -0.9629 -1.3118 -1.3786
  490MOL0     H67599   5.080   9.852  12.509  1.5297  1.8642  0.3936
  490MOL0     H67600   4.325   9.827  12.348 -0.0070  0.4818  0.0287
  490MOL0     H67601   4.199   9.820  12.123  0.5416  0.9016 -0.3856
  490MOL0     H67602   3.751  10.012  12.011 -0.9739 -1.5665 -0.0078
  490MOL0     H67603   3.575  10.001  11.891 -1.4673 -3.5917 -1.6582
  490MOL0     H67604   2.658   9.234  10.551 -1.1468 -1.8998  2.8435
  490MOL0     H67605   2.849   9.303  10.435 -2.2937 -2.1070 -2.7582
  490MOL0     H67606   3.327   9.388  10.527  1.4516 -0.1717 -0.2064
  490MOL0     H67607   3.510   9.495  10.410 -1.4149  0.6851  1.0444
  490MOL0     H67608   3.790   9.402  10.054  0.8015 -0.3098  1.8281
  490MOL0     H67609   3.715   9.241  10.069  3.6376 -0.4708  2.8037
  490MOL0     H67610   3.512   9.324   9.941  1.2078 -0.7424 -2.1590
  490MOL0     H67611   3.652   9.398   9.864  2.3047  2.9443  0.6285
  490MOL0     H67612   3.440   9.540   9.924 -0.3752  3.2368  0.9289
  490MOL0     H67613   3.542   9.570  10.072  0.1302  0.8225  0.5723
  490MOL0     H67614   3.726   9.607   9.857 -0.6665 -2.0645 -0.1234
  490MOL0     H67615   3.657   9.721   9.968  0.4605  1.6977 -1.9067
  490MOL0     H67616   3.413   9.802   9.640 -2.3241 -0.0420  1.4606
  490MOL0     H67617   3.538   9.167  10.142 -0.3361 -0.8140  0.2687
  490MOL0     H67618   3.285   8.960  10.297  0.9834 -1.0185 -1.1960
  490MOL0     H67619   3.202   9.053  10.169  1.0190 -1.9015 -4.2556
  490MOL0     H67620   3.370   8.997  10.148 -1.7832 -0.3157 -1.0141
  491MOL0     O67621  10.283   0.887   6.794 -0.0939  0.1937  0.0500
  491MOL0     C67622  10.218   0.814   6.713 -0.7478  1.0225 -0.4785
  491MOL0     O67623  10.278   0.718   6.637 -0.2932  0.6532 -0.7295
  491MOL0     C67624  10.401   0.664   6.674  0.5293 -0.1803  0.5439
  491MOL0     C67625  10.470   0.594   6.569 -0.4483 -0.0071 -0.6039
  491MOL0     C67626  10.601   0.544   6.590  0.5705 -0.1815  1.0496
  491MOL0     C67627  10.657   0.556   6.713  0.7456 -0.3822 -0.5144
  491MOL0     O67628  10.772   0.502   6.736  0.3655  0.2828  0.5810
  491MOL0     C67629  10.878   0.580   6.677  0.3843 -0.2739 -0.3916
  491MOL0     C67630  10.998   0.479   6.656 -0.9455  0.8103 -0.3195
  491MOL0     C67631  11.059   0.446   6.786 -0.0272 -0.1772 -0.3620
  491MOL0     C67632  11.112   0.304   6.807  0.0924 -0.2908 -0.9142
  491MOL0     C67633  11.189   0.280   6.943  0.1143  0.3255  0.0422
  491MOL0     C67634  11.088   0.293   7.064  1.1976  0.2187  0.0480
  491MOL0     C67635  10.953   0.215   7.058 -0.0602  1.2612 -0.0699
  491MOL0     C67636  10.987   0.064   7.051  0.4362  0.1754  0.1185
  491MOL0     N67637  10.879  -0.013   7.113  0.5980  0.3820 -0.1650
  491MOL0     C67638  10.884  -0.052   7.246  0.0666 -0.4363  0.0026
  491MOL0     C67639  10.757  -0.101   7.265 -0.2434  0.0431  0.3552
  491MOL0     C67640  10.714  -0.149   7.404 -0.0654  0.1087 -0.1922
  491MOL0     C67641  10.649  -0.290   7.396  0.0105 -0.3265  0.5367
  491MOL0     C67642  10.630  -0.345   7.534  1.2290 -0.1704  0.2709
  491MOL0     C67643  10.503  -0.281   7.602  0.1972  0.3412 -0.3889
  491MOL0     O67644  10.516  -0.292   7.744 -0.5724 -0.0379  0.5362
  491MOL0     C67645  10.487  -0.403   7.824  0.5754  0.4379 -0.2129
  491MOL0     C67646  10.375  -0.495   7.805 -0.4353 -0.5566 -0.1135
  491MOL0     C67647  10.351  -0.599   7.899  0.8952 -0.6445  0.0365
  491MOL0     C67648  10.245  -0.698   7.873 -0.3963 -0.4166  0.3483
  491MOL0     C67649  10.438  -0.606   8.006 -0.2851  0.1266  0.4296
  491MOL0     C67650  10.451  -0.720   8.099  0.0301  0.3740 -0.2519
  491MOL0     O67651  10.383  -0.833   8.056  0.2928 -0.8741  0.0611
  491MOL0     C67652  10.346  -0.927   8.151 -0.7904 -0.2023  0.2697
  491MOL0     C67653  10.443  -0.989   8.232 -0.4826 -0.6340 -0.0097
  491MOL0     C67654  10.418  -1.082   8.333 -0.1563  0.1944  0.2156
  491MOL0     C67655  10.288  -1.126   8.339 -0.1176 -0.3940  0.3122
  491MOL0     O67656  10.230  -1.207   8.437 -0.2181  0.5615 -0.2448
  491MOL0     C67657  10.315  -1.299   8.512 -1.5027 -0.7117  0.6382
  491MOL0     C67658  10.254  -1.419   8.580 -0.3254  1.4233  0.2046
  491MOL0     C67659  10.167  -1.498   8.479  1.1701 -0.0340 -0.2184
  491MOL0     C67660  10.044  -1.556   8.545  0.2061  1.0305  0.1646
  491MOL0     C67661   9.978  -1.645   8.436 -0.5169  0.0234  0.3565
  491MOL0     C67662   9.864  -1.734   8.488  0.4090 -1.1934 -0.8127
  491MOL0     C67663   9.832  -1.853   8.388  0.4454 -0.2245 -0.5185
  491MOL0     C67664   9.776  -1.802   8.252 -0.9158 -0.5979  0.5255
  491MOL0    Cl67665   9.727  -1.930   8.142 -0.4944  0.3029  0.2176
  491MOL0     C67666  10.192  -1.074   8.256 -0.2680  0.0925 -0.1621
  491MOL0     C67667  10.219  -0.974   8.156 -1.0096 -0.0349 -0.3215
  491MOL0     O67668  10.505  -0.706   8.210  0.1970 -0.6818  0.1162
  491MOL0     C67669  10.539  -0.509   8.028  0.6359 -1.0330 -0.1346
  491MOL0     C67670  10.567  -0.413   7.941  0.4938 -0.0365 -0.5710
  491MOL0     N67671  10.681  -0.075   7.155  0.5135 -0.1977 -0.3017
  491MOL0     N67672  10.751  -0.021   7.071 -0.2006  0.5148  0.0710
  491MOL0     C67673  10.596   0.619   6.824  0.0713 -1.1023 -0.7814
  491MOL0     C67674  10.468   0.677   6.795 -1.1447  0.5288 -0.0069
  491MOL0     C67675  10.072   0.807   6.725 -0.1980 -0.4728 -0.5439
  491MOL0     C67676  10.010   0.681   6.692 -0.3074  0.7629 -0.4292
  491MOL0     C67677   9.874   0.668   6.701  0.6000  1.1103 -0.3283
  491MOL0     C67678   9.792   0.770   6.750 -0.1382  0.2982  0.0929
  491MOL0     O67679   9.658   0.750   6.735 -0.3910 -0.0074  0.3421
  491MOL0     C67680   9.596   0.713   6.863  0.0541  0.4495  0.4424
  491MOL0     C67681   9.447   0.737   6.881  0.2519 -0.2450  0.1510
  491MOL0     C67682   9.403   0.874   6.822 -0.3185 -0.0329 -1.2158
  491MOL0     C67683   9.258   0.882   6.790  0.2712  0.1336 -0.3145
  491MOL0     C67684   9.207   1.019   6.780  0.6184 -0.1354 -0.0866
  491MOL0     C67685   9.171   1.135   6.788  0.0108 -0.1399 -0.2757
  491MOL0     C67686   9.856   0.887   6.784  0.7556  0.7306 -0.1607
  491MOL0     C67687   9.992   0.912   6.780  0.2043  0.4431 -0.6298
  491MOL0     C67688  10.034   1.054   6.808  0.6991  0.7871 -0.2794
  491MOL0     H67689  10.412   0.581   6.478 -0.7047  1.7460 -0.7283
  491MOL0     H67690  10.644   0.474   6.520  0.4721  4.1257 -3.9921
  491MOL0     H67691  10.904   0.667   6.739 -0.0371  0.1027 -0.7431
  491MOL0     H67692  10.851   0.619   6.579  0.9919 -0.4338 -0.6277
  491MOL0     H67693  10.944   0.396   6.609  0.8918 -0.4733 -0.2489
  491MOL0     H67694  11.074   0.513   6.585 -0.2015 -0.0702  0.0288
  491MOL0     H67695  11.146   0.511   6.796  0.3343 -0.8956  1.4527
  491MOL0     H67696  10.990   0.476   6.865 -0.2019  1.2352 -1.0183
  491MOL0     H67697  11.039   0.228   6.780  1.4706 -1.3245 -1.8871
  491MOL0     H67698  11.192   0.300   6.732 -0.0426  0.2346 -1.0869
  491MOL0     H67699  11.255   0.367   6.945 -1.3460  1.4993  3.0339
  491MOL0     H67700  11.241   0.183   6.940  1.2659  0.8076 -4.7288
  491MOL0     H67701  11.138   0.258   7.155  1.9741 -0.9829 -0.8153
  491MOL0     H67702  11.058   0.398   7.075 -1.3304 -0.5574  1.3515
  491MOL0     H67703  10.898   0.235   6.966 -0.2850  0.6113 -0.0837
  491MOL0     H67704  10.885   0.234   7.142  1.3545 -0.7783  1.6712
  491MOL0     H67705  10.993   0.038   6.945  1.4605  1.0681 -0.0581
  491MOL0     H67706  11.085   0.038   7.093  0.6980  0.6519 -0.1764
  491MOL0     H67707  10.965  -0.033   7.315 -1.1700 -1.1423  1.7308
  491MOL0     H67708  10.651  -0.075   7.453  1.4874  0.2874  1.6274
  491MOL0     H67709  10.799  -0.157   7.472 -2.3975 -1.6817  2.7504
  491MOL0     H67710  10.554  -0.286   7.342 -1.0027  5.5464  2.0704
  491MOL0     H67711  10.716  -0.363   7.348 -0.1865 -0.0773 -0.1256
  491MOL0     H67712  10.623  -0.454   7.532 -1.5483 -0.0727  0.4710
  491MOL0     H67713  10.707  -0.323   7.608  0.4445 -1.8925  1.6619
  491MOL0     H67714  10.493  -0.175   7.577  3.6667  1.4335  2.1398
  491MOL0     H67715  10.416  -0.336   7.565  0.0307  1.2182 -1.3676
  491MOL0     H67716  10.308  -0.484   7.720 -1.0501  3.2438  0.6824
  491MOL0     H67717  10.295  -0.784   7.826  1.2239  1.8861 -2.5366
  491MOL0     H67718  10.181  -0.672   7.789 -0.2460  0.7143  0.5700
  491MOL0     H67719  10.179  -0.704   7.960  1.2093  0.9177  1.7418
  491MOL0     H67720  10.546  -0.959   8.219 -0.9043 -0.4091 -4.1682
  491MOL0     H67721  10.492  -1.138   8.389 -0.5167 -0.7001 -0.1810
  491MOL0     H67722  10.396  -1.334   8.448 -2.9799  0.0228 -1.7357
  491MOL0     H67723  10.362  -1.237   8.589  0.5160 -0.4056 -0.7654
  491MOL0     H67724  10.330  -1.469   8.641 -1.6941  0.2763  1.0424
  491MOL0     H67725  10.187  -1.380   8.657 -0.9073  1.3683 -0.2654
  491MOL0     H67726  10.229  -1.578   8.436 -1.2019 -3.5810  2.3664
  491MOL0     H67727  10.134  -1.424   8.405  1.4820  1.3836  1.0121
  491MOL0     H67728   9.978  -1.485   8.596 -2.1053 -2.2810  2.1408
  491MOL0     H67729  10.078  -1.622   8.625  0.7352  1.6553  0.4706
  491MOL0     H67730   9.928  -1.585   8.359 -0.8740  0.1988  0.7168
  491MOL0     H67731  10.052  -1.712   8.392 -1.5994 -1.9304  1.3244
  491MOL0     H67732   9.774  -1.689   8.533  0.8485 -1.2105  0.1095
  491MOL0     H67733   9.906  -1.787   8.574 -1.9488 -2.1771 -0.1774
  491MOL0     H67734   9.748  -1.908   8.430 -0.2387 -2.0594 -3.9086
  491MOL0     H67735   9.921  -1.914   8.369  1.5151  1.6320 -1.8738
  491MOL0     H67736   9.856  -1.745   8.203 -2.8729  2.6585  0.8042
  491MOL0     H67737   9.698  -1.734   8.288 -1.7389 -1.7117  0.8798
  491MOL0     H67738  10.093  -1.119   8.254 -0.0433 -0.5914  1.6654
  491MOL0     H67739  10.143  -0.942   8.085 -1.9525 -0.1340  0.6230
  491MOL0     H67740  10.599  -0.505   8.118 -0.1153  4.2746  0.4526
  491MOL0     H67741  10.628  -0.329   7.972 -1.6310  0.9471  1.2857
  491MOL0     H67742  10.638   0.636   6.922 -0.2616  1.0587 -0.9560
  491MOL0     H67743  10.411   0.722   6.876 -3.0836 -0.8343 -0.5370
  491MOL0     H67744  10.077   0.597   6.673  1.0945  1.0496  2.5774
  491MOL0     H67745   9.820   0.577   6.679 -0.6738  0.9860  2.7605
  491MOL0     H67746   9.610   0.606   6.882  3.1991  0.4993 -0.9971
  491MOL0     H67747   9.631   0.764   6.954 -0.3647 -0.4619  1.1309
  491MOL0     H67748   9.423   0.728   6.987  0.8023  0.2651  0.3238
  491MOL0     H67749   9.400   0.653   6.829  1.6658 -0.9016 -0.1170
  491MOL0     H67750   9.430   0.958   6.886  0.1636 -1.5348  0.6509
  491MOL0     H67751   9.456   0.891   6.728  0.2314  1.9878 -0.5823
  491MOL0     H67752   9.196   0.827   6.861 -1.4558  0.6894 -1.3087
  491MOL0     H67753   9.228   0.833   6.697 -1.5989  0.2544  0.1820
  491MOL0     H67754   9.133   1.234   6.807 -1.6676 -0.6143 -0.9840
  491MOL0     H67755   9.790   0.972   6.804 -2.0755 -1.1879 -0.7478
  491MOL0     H67756  10.018   1.060   6.916 -0.3949 -4.0725  0.0439
  491MOL0     H67757  10.139   1.080   6.794  1.9312 -4.0142 -1.7641
  491MOL0     H67758   9.978   1.129   6.751  2.5991  0.8529 -2.1610
  492MOL0     O67759   8.973   5.666  11.553 -0.0175 -0.5396  0.5403
  492MOL0     C67760   9.042   5.722  11.468 -0.9641  0.0264  0.0254
  492MOL0     O67761   9.057   5.676  11.341 -0.0959  0.7245  0.3050
  492MOL0     C67762   8.976   5.586  11.270  0.2284  1.0902 -0.3273
  492MOL0     C67763   8.948   5.460  11.328 -0.5924  0.6537  0.2526
  492MOL0     C67764   8.872   5.364  11.260 -0.3510 -0.2019  1.4642
  492MOL0     C67765   8.837   5.389  11.124  0.2474 -0.4111  0.5046
  492MOL0     O67766   8.768   5.295  11.051  0.5227  0.0430 -0.4749
  492MOL0     C67767   8.691   5.194  11.119  0.4012  0.5177 -0.2455
  492MOL0     C67768   8.615   5.111  11.014 -0.4818  0.1677 -0.6564
  492MOL0     C67769   8.506   5.186  10.951  0.3258 -0.3613  0.3045
  492MOL0     C67770   8.368   5.181  11.031  2.0014 -0.2630 -0.4932
  492MOL0     C67771   8.262   5.274  10.955 -0.3695  0.7137 -0.5414
  492MOL0     C67772   8.126   5.299  11.030 -0.9562  0.6695 -0.2696
  492MOL0     C67773   8.028   5.378  10.943  0.2598  0.7298 -0.2233
  492MOL0     C67774   8.073   5.525  10.926  0.0511 -0.4233 -0.1642
  492MOL0     N67775   7.949   5.613  10.897  0.2660 -0.1057  1.5812
  492MOL0     C67776   7.824   5.584  10.931 -1.0926 -0.0558 -0.0134
  492MOL0     C67777   7.759   5.699  10.890  0.0021 -0.6477 -0.2942
  492MOL0     C67778   7.618   5.744  10.932 -1.1730  0.0038 -0.8456
  492MOL0     C67779   7.613   5.882  11.004  0.0005  0.0810  0.3327
  492MOL0     C67780   7.686   5.872  11.133  0.4483 -1.2642  0.0408
  492MOL0     C67781   7.709   6.008  11.204  0.9076 -0.9084  0.4818
  492MOL0     O67782   7.783   6.112  11.135  0.0810 -0.7749 -0.7673
  492MOL0     C67783   7.916   6.106  11.146  0.4913 -0.1080 -0.8091
  492MOL0     C67784   7.970   6.188  11.240 -0.1496 -0.4753 -0.3694
  492MOL0     C67785   8.101   6.185  11.281 -1.6458  0.6791 -1.3567
  492MOL0     C67786   8.157   6.296  11.376  0.8264 -0.5353  1.2936
  492MOL0     C67787   8.189   6.092  11.218  0.6597 -0.4795  0.5263
  492MOL0     C67788   8.339   6.069  11.247  0.5903 -0.4777 -0.5354
  492MOL0     O67789   8.407   5.984  11.169  0.7368  1.0611 -0.0869
  492MOL0     C67790   8.543   5.980  11.175  0.5829 -0.5655  0.2442
  492MOL0     C67791   8.600   5.975  11.046 -0.6418 -0.5897  0.0059
  492MOL0     C67792   8.738   5.983  11.030 -0.1470 -0.8201 -0.1104
  492MOL0     C67793   8.820   5.968  11.134 -1.2030  0.2824 -0.4642
  492MOL0     O67794   8.951   5.973  11.127  0.2612  0.4128 -0.2920
  492MOL0     C67795   9.026   6.002  11.006  0.8561 -0.1423  0.7219
  492MOL0     C67796   9.178   5.977  11.022  0.2023 -0.0507  0.0807
  492MOL0     C67797   9.239   6.093  11.116 -0.6001 -0.7649 -1.0035
  492MOL0     C67798   9.391   6.070  11.131  0.6547  0.5317  0.2985
  492MOL0     C67799   9.460   6.167  11.226 -0.1284  0.0613 -0.2439
  492MOL0     C67800   9.622   6.149  11.205  0.4495 -0.9681 -0.8586
  492MOL0     C67801   9.693   6.271  11.254  0.4520 -0.3813  0.1910
  492MOL0     C67802   9.827   6.312  11.191  0.4888  1.0089 -0.2841
  492MOL0    Cl67803   9.939   6.315  11.330  0.4138  0.5025  0.3447
  492MOL0     C67804   8.765   5.962  11.264 -0.6035 -0.1908 -0.0774
  492MOL0     C67805   8.626   5.975  11.292 -0.5213  0.9522 -1.1016
  492MOL0     O67806   8.384   6.116  11.356 -0.0134  0.5802  0.6527
  492MOL0     C67807   8.128   6.003  11.128  1.0847  1.0715  1.0202
  492MOL0     C67808   7.993   6.010  11.091 -0.1439  0.4572  0.0174
  492MOL0     N67809   7.843   5.785  10.820  0.2941  0.3036  0.1994
  492MOL0     N67810   7.961   5.732  10.828  0.6162  0.7230  0.3156
  492MOL0     C67811   8.879   5.508  11.062 -0.4857 -0.9035 -0.5798
  492MOL0     C67812   8.933   5.617  11.144  0.0074 -0.4597 -0.6875
  492MOL0     C67813   9.132   5.835  11.512  0.4468  0.4315 -0.4649
  492MOL0     C67814   9.137   5.954  11.445  0.0920  0.3107  0.0614
  492MOL0     C67815   9.220   6.059  11.477 -0.7437  0.0399  0.9134
  492MOL0     C67816   9.296   6.048  11.596  0.2714  0.9878 -0.2183
  492MOL0     O67817   9.369   6.163  11.624  0.6177 -0.0650 -0.0882
  492MOL0     C67818   9.514   6.149  11.645  0.9377  0.3799 -0.3222
  492MOL0     C67819   9.544   6.141  11.798  0.8558  0.5340 -0.2010
  492MOL0     C67820   9.697   6.150  11.831 -0.1948  0.4043 -1.0308
  492MOL0     C67821   9.775   6.257  11.749  1.2558  0.4870 -0.3641
  492MOL0     C67822   9.912   6.263  11.785 -0.1501 -0.7296 -0.4111
  492MOL0     C67823  10.031   6.279  11.828  0.4606  0.5517  0.3056
  492MOL0     C67824   9.298   5.929  11.671  1.5785  0.4028  0.6514
  492MOL0     C67825   9.218   5.825  11.627 -0.1847 -0.4163 -0.5772
  492MOL0     C67826   9.202   5.696  11.715  0.0660 -0.4313 -0.1201
  492MOL0     H67827   8.975   5.434  11.430 -4.0422  0.5955  1.2888
  492MOL0     H67828   8.875   5.266  11.307 -0.4416  0.1621  2.2582
  492MOL0     H67829   8.621   5.225  11.196 -1.1239 -2.0168 -0.4772
  492MOL0     H67830   8.772   5.135  11.163 -1.7713 -1.8934  0.8011
  492MOL0     H67831   8.682   5.085  10.932  1.9701 -2.1975  1.9090
  492MOL0     H67832   8.583   5.020  11.065  0.0269  1.1057  1.4328
  492MOL0     H67833   8.538   5.284  10.917  2.3871 -1.4585 -1.1634
  492MOL0     H67834   8.494   5.123  10.862  0.9540  0.8557 -0.6603
  492MOL0     H67835   8.329   5.078  11.033 -3.3619  1.4354  0.4175
  492MOL0     H67836   8.380   5.223  11.131  0.3911  1.4720 -0.9768
  492MOL0     H67837   8.243   5.238  10.854 -1.2908  1.6695 -0.7200
  492MOL0     H67838   8.311   5.371  10.942  3.8157 -1.3719 -2.2339
  492MOL0     H67839   8.073   5.207  11.057 -1.5982  0.9931 -0.3924
  492MOL0     H67840   8.146   5.355  11.122 -0.4692  2.4206 -1.3765
  492MOL0     H67841   7.937   5.370  11.004  1.2871 -1.7592  1.1106
  492MOL0     H67842   8.011   5.334  10.844 -0.5678 -1.4074  0.8250
  492MOL0     H67843   8.122   5.556  11.019  0.6579  0.8793 -0.8855
  492MOL0     H67844   8.153   5.547  10.854  0.5794  1.1678  0.8474
  492MOL0     H67845   7.773   5.514  10.997  0.4661  2.2789  4.0674
  492MOL0     H67846   7.591   5.677  11.014 -0.5302  3.9509  2.9787
  492MOL0     H67847   7.548   5.737  10.849 -2.3663 -2.8009  0.2473
  492MOL0     H67848   7.660   5.962  10.946  2.8879 -1.4463  0.3307
  492MOL0     H67849   7.508   5.904  11.025 -0.6093 -2.7202  0.7082
  492MOL0     H67850   7.631   5.809  11.203  2.1728 -0.3767  2.3266
  492MOL0     H67851   7.784   5.828  11.119  1.5490  0.8831  0.5285
  492MOL0     H67852   7.608   6.044  11.229  0.7647 -0.3446 -0.8498
  492MOL0     H67853   7.754   5.991  11.302  3.1837 -0.3285 -0.4099
  492MOL0     H67854   7.892   6.242  11.293 -0.0416 -1.5034  0.8931
  492MOL0     H67855   8.240   6.342  11.323 -0.0357  0.2538  0.5832
  492MOL0     H67856   8.181   6.258  11.476  2.6913  1.2366  1.5717
  492MOL0     H67857   8.086   6.379  11.385  4.6636  3.3114 -0.7074
  492MOL0     H67858   8.537   5.981  10.958  0.3269  1.6440 -0.6074
  492MOL0     H67859   8.788   6.014  10.939 -0.7037  4.4367  1.0660
  492MOL0     H67860   8.998   5.936  10.923  2.2478 -0.3391  0.3848
  492MOL0     H67861   9.030   6.108  10.980  2.2681  0.1187  1.8802
  492MOL0     H67862   9.195   5.877  11.062 -0.8913  0.0279  0.7631
  492MOL0     H67863   9.231   5.969  10.926  2.4802 -2.2647  1.4246
  492MOL0     H67864   9.179   6.093  11.207  0.2282 -1.1412 -0.4451
  492MOL0     H67865   9.236   6.193  11.072 -0.4589 -0.1065  0.4150
  492MOL0     H67866   9.433   6.060  11.030 -0.0933 -0.0964  0.0413
  492MOL0     H67867   9.411   5.973  11.177 -1.4408  0.4316  1.1151
  492MOL0     H67868   9.423   6.269  11.222 -0.1077  0.0274 -1.3937
  492MOL0     H67869   9.438   6.138  11.330 -1.8925  0.7654 -0.3954
  492MOL0     H67870   9.646   6.146  11.099  0.1983  1.1062 -1.0260
  492MOL0     H67871   9.666   6.060  11.250  1.5474  1.0028  2.2875
  492MOL0     H67872   9.708   6.253  11.361 -1.9635  2.8631  1.2366
  492MOL0     H67873   9.626   6.354  11.232  0.5112 -0.2923  0.3432
  492MOL0     H67874   9.817   6.409  11.142 -1.6007  0.8505 -0.2870
  492MOL0     H67875   9.847   6.220  11.136  2.9210 -0.9770  3.5175
  492MOL0     H67876   8.827   5.956  11.353 -1.3894 -2.5316  0.4024
  492MOL0     H67877   8.588   5.986  11.393  2.2183  5.5298 -0.2827
  492MOL0     H67878   8.173   5.941  11.052  1.1313  3.0386 -0.6415
  492MOL0     H67879   7.949   5.944  11.016  1.6757 -1.0524  0.2114
  492MOL0     H67880   8.854   5.516  10.957 -1.4048 -1.5370 -0.4224
  492MOL0     H67881   8.966   5.705  11.089 -0.1807 -0.7493 -1.2733
  492MOL0     H67882   9.073   5.957  11.357 -0.6827  1.3522  0.6460
  492MOL0     H67883   9.232   6.145  11.412 -1.3506 -2.2164 -2.3935
  492MOL0     H67884   9.555   6.064  11.591  1.4999 -0.2932  1.1170
  492MOL0     H67885   9.557   6.240  11.602 -0.6143 -0.3392 -3.7275
  492MOL0     H67886   9.501   6.049  11.838 -3.1636  2.2164 -0.1510
  492MOL0     H67887   9.493   6.227  11.844  0.0137  0.0283 -0.1648
  492MOL0     H67888   9.717   6.168  11.937  0.6136 -0.1829 -1.0704
  492MOL0     H67889   9.740   6.053  11.805  0.1305 -0.8707  3.3760
  492MOL0     H67890   9.733   6.358  11.742  0.3304  0.0220 -2.0799
  492MOL0     H67891   9.776   6.223  11.645  0.4341  3.1268 -1.3094
  492MOL0     H67892  10.131   6.266  11.866  0.2941  3.8680  2.3115
  492MOL0     H67893   9.351   5.925  11.766 -0.9129  1.2975  2.1766
  492MOL0     H67894   9.286   5.672  11.782 -0.5818  2.1223  1.7712
  492MOL0     H67895   9.119   5.732  11.778 -0.9816  1.3622 -2.3924
  492MOL0     H67896   9.181   5.607  11.655 -1.9823 -0.0124 -0.0834
  493MOL0     O67897   9.861  10.289  10.687  0.0880 -0.2067  0.4466
  493MOL0     C67898   9.824  10.296  10.570  0.5730 -0.1134  0.7010
  493MOL0     O67899   9.903  10.315  10.464 -0.4228 -0.0949  0.2428
  493MOL0     C67900  10.039  10.339  10.463  0.9851 -0.0166 -0.1051
  493MOL0     C67901  10.133  10.273  10.539  0.0991 -0.9254 -0.6367
  493MOL0     C67902  10.273  10.305  10.534 -0.4986  0.5268 -0.4200
  493MOL0     C67903  10.315  10.396  10.436 -0.4598 -0.3452  0.6046
  493MOL0     O67904  10.445  10.430  10.410  0.3748 -0.3402  0.5535
  493MOL0     C67905  10.548  10.335  10.447 -0.3891 -0.4345 -0.5568
  493MOL0     C67906  10.688  10.383  10.411  1.6088  0.3080 -0.5509
  493MOL0     C67907  10.791  10.277  10.401  0.7708  0.2785  0.3916
  493MOL0     C67908  10.920  10.356  10.381 -0.1128  0.5331  1.1932
  493MOL0     C67909  11.040  10.265  10.380  0.5339 -0.0615  0.0155
  493MOL0     C67910  11.146  10.314  10.273 -0.5079 -0.7809  0.1382
  493MOL0     C67911  11.261  10.213  10.241 -0.4615 -0.2033 -0.5539
  493MOL0     C67912  11.372  10.268  10.156 -0.6133 -0.4620  0.0283
  493MOL0     N67913  11.488  10.324  10.233 -0.2863  0.2189 -0.0146
  493MOL0     C67914  11.471  10.403  10.345  0.5438 -0.2742 -0.2972
  493MOL0     C67915  11.600  10.450  10.367 -0.1514  0.6957 -0.6146
  493MOL0     C67916  11.635  10.541  10.486 -0.2615 -1.1791  0.5172
  493MOL0     C67917  11.591  10.688  10.477 -0.2044  0.0982  0.0271
  493MOL0     C67918  11.682  10.778  10.388  0.5930 -0.5151  0.3538
  493MOL0     C67919  11.634  10.924  10.376 -0.8118 -0.0046 -0.1860
  493MOL0     O67920  11.606  10.983  10.504  0.6612 -0.2180  0.4799
  493MOL0     C67921  11.719  11.049  10.550  0.8227 -0.3435 -0.6085
  493MOL0     C67922  11.729  11.181  10.529 -0.8960  0.4194  0.1686
  493MOL0     C67923  11.831  11.272  10.572 -0.4992  0.5491 -0.7059
  493MOL0     C67924  11.833  11.415  10.521 -0.3174 -0.6526 -0.3185
  493MOL0     C67925  11.931  11.215  10.655 -0.0579  0.0913  0.7896
  493MOL0     C67926  12.046  11.287  10.708  0.6968 -0.6672 -0.1417
  493MOL0     O67927  12.161  11.236  10.664  0.1790 -0.4412 -0.3718
  493MOL0     C67928  12.282  11.294  10.687 -0.1767  0.8141 -0.2856
  493MOL0     C67929  12.308  11.428  10.690 -0.2480 -0.0124 -0.3904
  493MOL0     C67930  12.441  11.470  10.730 -0.2882 -0.9650 -0.2407
  493MOL0     C67931  12.548  11.381  10.754 -0.0897 -0.0059  0.5954
  493MOL0     O67932  12.672  11.432  10.786 -0.5365  0.2754  0.3900
  493MOL0     C67933  12.783  11.344  10.774 -1.2338 -0.1052 -0.3867
  493MOL0     C67934  12.905  11.433  10.748 -0.4422  0.4468 -0.1977
  493MOL0     C67935  12.987  11.462  10.881 -0.4932  0.0928 -0.9632
  493MOL0     C67936  13.074  11.346  10.922 -0.6350 -0.5234 -0.4308
  493MOL0     C67937  13.175  11.382  11.026 -0.5380 -0.6207 -0.7189
  493MOL0     C67938  13.126  11.423  11.166  0.1486  0.1681  0.0053
  493MOL0     C67939  13.246  11.460  11.258 -0.9167  0.7503  0.6859
  493MOL0     C67940  13.193  11.455  11.407  0.0300  0.1111  0.7439
  493MOL0    Cl67941  13.336  11.481  11.525  0.0982 -0.0575 -0.2159
  493MOL0     C67942  12.517  11.248  10.752 -0.0910  0.1610 -0.2013
  493MOL0     C67943  12.389  11.202  10.719 -0.0775 -0.9357  0.8415
  493MOL0     O67944  12.040  11.390  10.786  0.2803  0.5839  0.2883
  493MOL0     C67945  11.926  11.074  10.672 -0.4455  0.5508 -0.1100
  493MOL0     C67946  11.823  10.992  10.622  0.3204 -0.0536 -0.0847
  493MOL0     N67947  11.685  10.398  10.277  0.0430  0.1054  0.7047
  493MOL0     N67948  11.614  10.321  10.197  0.1480  0.5785  0.4276
  493MOL0     C67949  10.221  10.450  10.351  0.6482  0.0217 -0.8764
  493MOL0     C67950  10.083  10.419  10.359 -0.4375 -0.1888  0.1959
  493MOL0     C67951   9.675  10.275  10.551  0.5804 -0.0278 -0.1848
  493MOL0     C67952   9.602  10.178  10.633  0.1092  0.6287 -0.6485
  493MOL0     C67953   9.460  10.166  10.618 -0.3451  0.4610 -1.0114
  493MOL0     C67954   9.392  10.249  10.534  0.0587 -0.5072  1.3836
  493MOL0     O67955   9.257  10.255  10.526  0.3052  0.5947 -0.3701
  493MOL0     C67956   9.181  10.349  10.459 -0.5677  0.9124 -0.5453
  493MOL0     C67957   9.031  10.336  10.483 -0.2719  0.5391 -0.3525
  493MOL0     C67958   9.000  10.374  10.629  1.4672 -0.2382 -0.3097
  493MOL0     C67959   8.842  10.364  10.646 -1.1614 -0.6171  0.5376
  493MOL0     C67960   8.801  10.226  10.667  0.3865  0.3978  0.2662
  493MOL0     C67961   8.771  10.107  10.688 -0.6154  0.5037  1.0810
  493MOL0     C67962   9.464  10.350  10.471  0.8671 -0.2512 -0.0663
  493MOL0     C67963   9.598  10.365  10.476  0.4070  0.1154  0.0855
  493MOL0     C67964   9.661  10.477  10.400 -1.1316 -0.2218 -0.7979
  493MOL0     H67965  10.100  10.194  10.606  0.8381  1.2945  2.5623
  493MOL0     H67966  10.344  10.270  10.609  0.1464  0.3882 -1.0770
  493MOL0     H67967  10.531  10.244  10.389 -4.1563  1.2072 -2.3591
  493MOL0     H67968  10.560  10.318  10.554  0.3383  1.8708 -0.2181
  493MOL0     H67969  10.686  10.436  10.315 -0.8572 -0.3946 -0.9584
  493MOL0     H67970  10.715  10.446  10.496 -0.2476 -0.5407  0.7240
  493MOL0     H67971  10.779  10.221  10.495 -1.1410  1.0811  0.6806
  493MOL0     H67972  10.769  10.214  10.314 -0.2370  1.0653  0.0573
  493MOL0     H67973  10.905  10.403  10.283 -0.1528  0.1204  1.0007
  493MOL0     H67974  10.938  10.433  10.457  3.8687 -1.3547  2.4582
  493MOL0     H67975  11.008  10.167  10.345 -3.7774  0.6467  1.4517
  493MOL0     H67976  11.086  10.254  10.478  0.4168  0.0768  0.0869
  493MOL0     H67977  11.087  10.323  10.181 -1.8408  0.3956  1.0622
  493MOL0     H67978  11.197  10.405  10.306  1.8970 -1.7489 -0.7103
  493MOL0     H67979  11.223  10.128  10.184  2.4585 -1.0969 -1.2928
  493MOL0     H67980  11.299  10.180  10.338 -2.4880  2.0547  1.1394
  493MOL0     H67981  11.408  10.182  10.099 -2.6600 -0.9311 -0.6461
  493MOL0     H67982  11.334  10.348  10.092 -2.4067 -0.9412  0.4426
  493MOL0     H67983  11.376  10.405  10.398  1.4740 -1.9052  1.5526
  493MOL0     H67984  11.742  10.538  10.508  0.2256  2.6751 -0.5279
  493MOL0     H67985  11.582  10.495  10.569  1.3211 -1.8941  1.1670
  493MOL0     H67986  11.486  10.674  10.451 -0.2638 -0.5331  0.5635
  493MOL0     H67987  11.599  10.727  10.578 -2.0979 -0.7540  0.5483
  493MOL0     H67988  11.783  10.785  10.431 -0.0448 -0.3561  1.8954
  493MOL0     H67989  11.688  10.727  10.292 -0.5273 -2.2899  1.1672
  493MOL0     H67990  11.700  10.989  10.319  1.1005 -0.0990  1.7684
  493MOL0     H67991  11.541  10.922  10.318 -0.3918  0.4947 -0.8867
  493MOL0     H67992  11.657  11.223  10.460 -0.7595  2.0254  0.9544
  493MOL0     H67993  11.795  11.434  10.421 -0.2597  3.9643  0.3419
  493MOL0     H67994  11.936  11.451  10.507 -1.4293  1.6590 -3.5932
  493MOL0     H67995  11.775  11.468  10.597 -0.4478  4.0366 -3.3148
  493MOL0     H67996  12.231  11.503  10.674  0.7134  0.5224 -2.9832
  493MOL0     H67997  12.464  11.575  10.741 -0.7435 -0.1059 -5.1141
  493MOL0     H67998  12.796  11.279  10.861  0.6087 -1.1053 -1.3341
  493MOL0     H67999  12.769  11.283  10.684  2.2058 -1.5793 -0.0957
  493MOL0     H68000  12.960  11.372  10.677 -1.7460  1.4389 -2.1317
  493MOL0     H68001  12.884  11.528  10.699 -2.1976  2.1950  3.4878
  493MOL0     H68002  12.919  11.492  10.961 -0.1147  0.4030 -0.7574
  493MOL0     H68003  13.061  11.542  10.872 -0.7003  0.2506 -1.2958
  493MOL0     H68004  13.127  11.307  10.834  1.6127  1.1232  0.1053
  493MOL0     H68005  13.008  11.265  10.954 -0.9692 -0.0275  0.1440
  493MOL0     H68006  13.253  11.308  11.044  0.4331  0.9594  2.2882
  493MOL0     H68007  13.242  11.461  10.991  1.2857  0.5405  4.5144
  493MOL0     H68008  13.065  11.347  11.215 -2.3842  0.4179 -2.5166
  493MOL0     H68009  13.059  11.509  11.162 -1.8905 -1.2391  1.7581
  493MOL0     H68010  13.311  11.545  11.235  2.5195 -1.0698  2.8130
  493MOL0     H68011  13.314  11.376  11.243  1.3664  2.7358 -0.7876
  493MOL0     H68012  13.139  11.364  11.433 -4.1582  2.3670  0.8359
  493MOL0     H68013  13.122  11.535  11.430  0.9379  0.2996  3.2838
  493MOL0     H68014  12.587  11.178  10.796 -2.7743 -1.6064  1.5861
  493MOL0     H68015  12.365  11.097  10.710  1.2560 -1.0899 -1.9580
  493MOL0     H68016  12.001  11.028  10.736  0.9146  2.3786 -0.3103
  493MOL0     H68017  11.831  10.886  10.645 -0.9763 -0.3090 -0.7512
  493MOL0     H68018  10.248  10.519  10.271 -0.7067  1.4862 -0.1254
  493MOL0     H68019  10.032  10.468  10.277  2.7393  1.7877 -0.7829
  493MOL0     H68020   9.653  10.120  10.709  1.3560  2.2953 -0.1328
  493MOL0     H68021   9.408  10.100  10.687 -0.7407  0.2758 -1.4786
  493MOL0     H68022   9.205  10.448  10.498 -0.5539  0.9931 -0.7562
  493MOL0     H68023   9.196  10.350  10.351 -0.1452  0.8585 -0.4864
  493MOL0     H68024   9.000  10.234  10.456  1.2888  0.4968 -2.1851
  493MOL0     H68025   8.982  10.401  10.410  0.6810  2.9685  1.0552
  493MOL0     H68026   9.045  10.310  10.705  1.2019  3.5642  3.4733
  493MOL0     H68027   9.034  10.473  10.662  0.9618 -0.6685  1.6217
  493MOL0     H68028   8.786  10.412  10.566  1.2247 -1.8589 -2.0499
  493MOL0     H68029   8.827  10.392  10.751  0.6691 -0.3313  0.7476
  493MOL0     H68030   8.755  10.002  10.703 -1.5113  0.4878  0.1671
  493MOL0     H68031   9.422  10.414  10.394  0.7330  0.9264  0.9747
  493MOL0     H68032   9.713  10.532  10.479 -1.9036 -3.6232  2.3974
  493MOL0     H68033   9.739  10.428  10.341 -1.1299  0.4779 -1.3794
  493MOL0     H68034   9.596  10.535  10.334 -1.4305  2.1429  1.4194
  494MOL0     O68035   6.894   5.400   8.703  0.9860 -0.2113 -0.7885
  494MOL0     C68036   6.989   5.386   8.633 -0.7503 -1.4053  1.1670
  494MOL0     O68037   7.118   5.433   8.660 -0.1639  0.8983  0.2128
  494MOL0     C68038   7.164   5.448   8.785  0.0321 -0.0757  0.8104
  494MOL0     C68039   7.297   5.492   8.790 -0.3929 -0.3561  0.2335
  494MOL0     C68040   7.364   5.489   8.910  0.3403 -1.2928  0.3458
  494MOL0     C68041   7.293   5.461   9.029  0.9168 -0.1817 -0.0694
  494MOL0     O68042   7.344   5.477   9.154  0.5039 -0.2663  1.4704
  494MOL0     C68043   7.440   5.381   9.188 -0.0006  0.3129  0.0724
  494MOL0     C68044   7.369   5.263   9.259 -0.0303  0.4179 -0.0690
  494MOL0     C68045   7.390   5.124   9.197 -0.7491 -0.0001  0.0294
  494MOL0     C68046   7.344   5.118   9.054 -0.5064 -0.0825  0.5262
  494MOL0     C68047   7.344   4.973   8.975 -0.0464 -0.5418 -0.5756
  494MOL0     C68048   7.306   4.971   8.829  0.1956  0.1441  0.3767
  494MOL0     C68049   7.190   5.058   8.786 -0.9873 -0.4163  0.1449
  494MOL0     C68050   7.184   5.062   8.629  1.0279 -0.9600 -0.2312
  494MOL0     N68051   7.279   5.138   8.551  0.1270  0.9049  0.5059
  494MOL0     C68052   7.374   5.218   8.597 -0.2809 -0.3978  0.6067
  494MOL0     C68053   7.465   5.246   8.500 -0.6063  0.3791  0.3769
  494MOL0     C68054   7.566   5.353   8.491  0.1299 -0.2203 -0.2898
  494MOL0     C68055   7.679   5.313   8.392  0.1136  0.5242 -0.7537
  494MOL0     C68056   7.797   5.407   8.418 -0.5138  0.2458  0.2903
  494MOL0     C68057   7.766   5.549   8.384  0.5142 -0.4879  0.2423
  494MOL0     O68058   7.732   5.570   8.241 -0.1714 -0.4504  0.4237
  494MOL0     C68059   7.627   5.661   8.228  0.8597 -0.4684  0.5667
  494MOL0     C68060   7.643   5.791   8.265  0.5116 -0.1954  0.7269
  494MOL0     C68061   7.546   5.891   8.231  0.7871 -0.0291  0.0446
  494MOL0     C68062   7.579   6.026   8.285 -0.3431 -0.1672 -0.2843
  494MOL0     C68063   7.407   5.848   8.201  0.4758 -0.4230 -0.1340
  494MOL0     C68064   7.288   5.943   8.177  0.4108 -0.0928 -0.4242
  494MOL0     O68065   7.181   5.887   8.106  0.3314  0.1276 -0.2216
  494MOL0     C68066   7.058   5.933   8.131 -0.2807 -0.3935 -0.1967
  494MOL0     C68067   7.013   5.977   8.264 -0.2097  0.1018 -0.6254
  494MOL0     C68068   6.879   6.017   8.290  0.0084 -0.0880  0.1007
  494MOL0     C68069   6.790   6.039   8.185  0.0850  0.9833 -0.8063
  494MOL0     O68070   6.667   6.091   8.216 -0.4198 -0.3170 -0.2582
  494MOL0     C68071   6.571   6.089   8.115 -1.0116  0.2229 -0.5532
  494MOL0     C68072   6.426   6.105   8.164 -0.4846  0.2422 -1.8625
  494MOL0     C68073   6.362   5.978   8.214  0.3891  0.3259  0.5916
  494MOL0     C68074   6.238   6.012   8.296 -1.0691 -0.1222  0.6189
  494MOL0     C68075   6.105   6.038   8.214 -0.5035 -0.4199  0.1050
  494MOL0     C68076   5.988   6.012   8.305 -0.0767  0.0842  0.3265
  494MOL0     C68077   5.859   6.030   8.229  0.3574  0.8110  0.3804
  494MOL0     C68078   5.733   6.030   8.328 -0.0748  0.2312  0.0362
  494MOL0    Cl68079   5.586   6.066   8.238  0.8616 -0.1131  0.0035
  494MOL0     C68080   6.832   6.005   8.059 -0.0775 -0.0850  0.3417
  494MOL0     C68081   6.963   5.955   8.032  0.3293 -0.0643  0.7483
  494MOL0     O68082   7.293   6.054   8.228  0.0551  0.8719  1.1267
  494MOL0     C68083   7.384   5.715   8.185 -0.7414 -0.2682  0.1561
  494MOL0     C68084   7.493   5.622   8.196  0.7074 -0.1329 -0.2547
  494MOL0     N68085   7.421   5.162   8.387  0.4463 -0.0623  0.1647
  494MOL0     N68086   7.311   5.097   8.423  0.1690  0.3917  0.6117
  494MOL0     C68087   7.152   5.446   9.029  0.3781  0.6250  0.4654
  494MOL0     C68088   7.089   5.422   8.907 -0.3191 -0.3355  0.1620
  494MOL0     C68089   6.958   5.352   8.491  0.6335  0.3566 -0.2110
  494MOL0     C68090   6.839   5.283   8.471  0.4212 -0.2125  0.3481
  494MOL0     C68091   6.804   5.232   8.346 -0.1060 -0.9277  0.1340
  494MOL0     C68092   6.889   5.247   8.241  0.8214 -0.6861 -0.0845
  494MOL0     O68093   6.863   5.201   8.114  0.0725 -0.2827  0.3494
  494MOL0     C68094   6.736   5.154   8.068  0.5861 -0.1223  0.2750
  494MOL0     C68095   6.706   5.189   7.919  0.3527  0.9774 -0.4190
  494MOL0     C68096   6.646   5.333   7.904  0.8016  0.3513 -0.7416
  494MOL0     C68097   6.601   5.370   7.765 -0.0695 -0.3245 -0.0018
  494MOL0     C68098   6.489   5.283   7.712  0.1679 -0.2624 -0.2188
  494MOL0     C68099   6.429   5.200   7.647  0.0658 -0.4576  0.1010
  494MOL0     C68100   7.007   5.314   8.261  0.4906  0.3388 -0.4827
  494MOL0     C68101   7.038   5.376   8.381 -0.3450  0.0428 -0.4036
  494MOL0     C68102   7.152   5.469   8.383 -0.9703  0.1790  0.2741
  494MOL0     H68103   7.355   5.515   8.701 -1.9647  0.9945 -0.4901
  494MOL0     H68104   7.465   5.525   8.923 -0.5147  1.4853 -0.0992
  494MOL0     H68105   7.501   5.431   9.264  0.7799  0.8900 -0.9132
  494MOL0     H68106   7.505   5.342   9.109  1.0558 -0.6306  1.3654
  494MOL0     H68107   7.420   5.249   9.354  0.2454  0.5082 -0.2028
  494MOL0     H68108   7.262   5.277   9.279 -0.8411 -2.7941 -1.5058
  494MOL0     H68109   7.498   5.106   9.200 -0.9158 -0.9918  0.9485
  494MOL0     H68110   7.327   5.054   9.253 -2.4932  1.1724 -0.3803
  494MOL0     H68111   7.248   5.169   9.049 -0.4071 -0.0285 -1.5506
  494MOL0     H68112   7.413   5.180   8.996 -2.6692  1.3081 -0.7051
  494MOL0     H68113   7.277   4.909   9.032 -4.2580  2.5913 -1.4544
  494MOL0     H68114   7.443   4.930   8.986  0.6298  0.4590 -2.2122
  494MOL0     H68115   7.393   4.998   8.769  1.2924 -0.1852  1.7651
  494MOL0     H68116   7.278   4.867   8.809  0.2763  0.5768 -2.3053
  494MOL0     H68117   7.196   5.156   8.833  2.3493  0.6310 -2.1140
  494MOL0     H68118   7.093   5.021   8.821 -0.5785 -1.0051  0.6865
  494MOL0     H68119   7.195   4.963   8.583  0.4785 -0.4081 -1.5651
  494MOL0     H68120   7.088   5.104   8.600  1.9350 -0.3969 -2.5872
  494MOL0     H68121   7.377   5.262   8.696 -1.0788  3.1517 -0.7928
  494MOL0     H68122   7.603   5.368   8.594 -2.9287 -0.7911  0.9853
  494MOL0     H68123   7.519   5.444   8.455 -1.3152 -1.7604 -2.5756
  494MOL0     H68124   7.705   5.210   8.417 -3.4921  0.0816  1.9422
  494MOL0     H68125   7.644   5.312   8.289 -1.7266  0.2418 -0.1612
  494MOL0     H68126   7.824   5.408   8.524 -0.9984  4.7396  0.5783
  494MOL0     H68127   7.886   5.362   8.373 -0.8521  0.1459 -0.2811
  494MOL0     H68128   7.691   5.580   8.458 -2.0304  0.0646 -2.3660
  494MOL0     H68129   7.856   5.610   8.390  1.6557 -1.0152 -5.8991
  494MOL0     H68130   7.734   5.833   8.307  0.2098 -0.2324  1.4158
  494MOL0     H68131   7.506   6.101   8.253  1.5683  2.1021  0.4398
  494MOL0     H68132   7.675   6.043   8.237 -0.1283  1.4292  0.6469
  494MOL0     H68133   7.597   6.024   8.393 -2.3941 -2.5232  0.1192
  494MOL0     H68134   7.094   5.963   8.334  0.0397 -0.7267 -1.0628
  494MOL0     H68135   6.849   6.044   8.391 -1.4795  2.1793 -0.8543
  494MOL0     H68136   6.597   6.179   8.057 -1.1657  0.0605 -0.8761
  494MOL0     H68137   6.563   5.997   8.057 -0.6509 -0.9665  1.2030
  494MOL0     H68138   6.427   6.185   8.238 -1.5114  0.9718 -2.5946
  494MOL0     H68139   6.356   6.141   8.088  1.8219 -2.2536 -5.5213
  494MOL0     H68140   6.424   5.908   8.271  0.6819  1.4333  1.6750
  494MOL0     H68141   6.326   5.923   8.126 -2.1646 -0.5480  2.0764
  494MOL0     H68142   6.258   6.099   8.358 -1.7291  0.9307 -0.5831
  494MOL0     H68143   6.220   5.925   8.360 -0.7427 -0.3472  0.4086
  494MOL0     H68144   6.094   6.145   8.193 -0.6042 -0.2878  0.8218
  494MOL0     H68145   6.088   5.987   8.118  1.6915  0.6413 -0.9253
  494MOL0     H68146   5.989   6.088   8.385 -2.5675  2.7924 -1.9941
  494MOL0     H68147   5.990   5.914   8.353  1.4899  0.6826  1.6012
  494MOL0     H68148   5.843   5.946   8.160 -0.9256 -0.0890  1.6981
  494MOL0     H68149   5.864   6.117   8.164 -1.0932  0.8762  0.3157
  494MOL0     H68150   5.758   6.101   8.407 -0.5005 -1.1778  1.4967
  494MOL0     H68151   5.707   5.935   8.377 -1.4874  0.5150 -0.1065
  494MOL0     H68152   6.773   6.021   7.969  4.6400  0.5651 -3.0174
  494MOL0     H68153   6.987   5.925   7.931  1.1719  0.7908  0.6859
  494MOL0     H68154   7.289   5.679   8.149  0.8638 -3.1270 -1.5933
  494MOL0     H68155   7.485   5.514   8.184  0.3103 -0.3651  1.8241
  494MOL0     H68156   7.105   5.439   9.126 -2.6584  2.6377 -0.7306
  494MOL0     H68157   6.986   5.388   8.905 -0.2403 -0.7695  1.8561
  494MOL0     H68158   6.770   5.256   8.551  0.5887 -2.3272 -0.1640
  494MOL0     H68159   6.716   5.170   8.332 -1.2610 -0.0063  2.7421
  494MOL0     H68160   6.723   5.045   8.068 -0.1896 -0.0649 -1.3699
  494MOL0     H68161   6.652   5.204   8.117  1.6870  0.5743  1.4870
  494MOL0     H68162   6.641   5.108   7.886  0.3461  0.6737  0.3173
  494MOL0     H68163   6.801   5.182   7.864  0.5007 -3.9965  0.0251
  494MOL0     H68164   6.555   5.342   7.964  0.3169  0.5081 -1.4935
  494MOL0     H68165   6.721   5.407   7.935  1.4655  0.0400 -1.5635
  494MOL0     H68166   6.686   5.362   7.697 -2.6078  0.8688 -3.6666
  494MOL0     H68167   6.562   5.473   7.764 -3.2935 -1.4312 -0.1088
  494MOL0     H68168   6.360   5.145   7.586 -0.2867  1.2833 -1.1275
  494MOL0     H68169   7.078   5.330   8.180  0.6584 -1.2311 -0.6853
  494MOL0     H68170   7.192   5.484   8.283 -1.0114 -0.3096  0.1841
  494MOL0     H68171   7.138   5.573   8.416 -0.2993 -0.5654  3.2464
  494MOL0     H68172   7.245   5.438   8.433 -0.0537  0.7448 -1.0312
  495MOL0     O68173   7.475   3.157   0.034  0.2672 -0.4767  0.0264
  495MOL0     C68174   7.500   3.171   0.149  0.5674 -0.3501 -0.1522
  495MOL0     O68175   7.614   3.207   0.198  0.1909 -0.7127 -0.9485
  495MOL0     C68176   7.729   3.199   0.121  0.0013 -0.3427 -0.7001
  495MOL0     C68177   7.809   3.097   0.161 -0.6350 -0.2322  0.1033
  495MOL0     C68178   7.936   3.078   0.108  0.5579  0.5472 -0.1194
  495MOL0     C68179   7.996   3.169   0.016  0.4617  1.0190  0.1075
  495MOL0     O68180   8.124   3.150  -0.044  0.4275 -0.1603  0.3786
  495MOL0     C68181   8.212   3.051   0.012 -0.5933 -0.0656 -0.5741
  495MOL0     C68182   8.349   3.100  -0.032  0.0915 -0.2996  1.1015
  495MOL0     C68183   8.418   3.212   0.053  1.0680  0.2666 -0.1248
  495MOL0     C68184   8.334   3.339   0.053  0.5393  1.0104 -0.7624
  495MOL0     C68185   8.388   3.458   0.129  1.0350 -0.3753 -0.1815
  495MOL0     C68186   8.283   3.568   0.113 -0.6378 -0.1278 -0.2477
  495MOL0     C68187   8.335   3.698   0.179  0.0114  0.0359 -0.0731
  495MOL0     C68188   8.457   3.763   0.110  0.7357  0.4595 -0.1370
  495MOL0     N68189   8.422   3.800  -0.028  0.5485  0.9616  0.0081
  495MOL0     C68190   8.353   3.918  -0.059  0.6327  0.5935  0.1133
  495MOL0     C68191   8.356   3.910  -0.202  1.3516  0.1299 -0.4148
  495MOL0     C68192   8.311   4.036  -0.279 -0.7186 -0.0192 -0.2061
  495MOL0     C68193   8.440   4.127  -0.301  0.1174 -1.3971  0.2228
  495MOL0     C68194   8.419   4.280  -0.318 -0.1758  0.5123 -0.1958
  495MOL0     C68195   8.320   4.313  -0.427  0.7488  0.2026  0.0352
  495MOL0     O68196   8.310   4.456  -0.440  0.2535 -0.0896 -0.2991
  495MOL0     C68197   8.236   4.506  -0.546  0.1796 -0.9422 -0.4559
  495MOL0     C68198   8.153   4.442  -0.640 -0.0399  0.0666 -0.6412
  495MOL0     C68199   8.076   4.509  -0.735 -1.0077  0.2020 -1.0893
  495MOL0     C68200   7.976   4.417  -0.806  0.3298  0.4025  0.4408
  495MOL0     C68201   8.090   4.655  -0.749 -0.6850  1.2161 -0.1616
  495MOL0     C68202   8.015   4.729  -0.852 -0.2159  0.8371  0.0808
  495MOL0     O68203   7.995   4.866  -0.836 -0.5402  0.5081 -0.1552
  495MOL0     C68204   7.889   4.930  -0.889 -0.5794  0.6150  1.2518
  495MOL0     C68205   7.885   5.062  -0.912  0.0373  0.1210 -0.2290
  495MOL0     C68206   7.775   5.136  -0.966  0.3119  0.1898 -0.2110
  495MOL0     C68207   7.665   5.058  -1.002  0.5739 -0.2017 -0.8247
  495MOL0     O68208   7.555   5.120  -1.066  0.4183  0.5040 -0.3110
  495MOL0     C68209   7.461   5.176  -0.971 -0.6381 -0.9386 -0.3137
  495MOL0     C68210   7.342   5.247  -1.031 -0.6129 -0.0309 -0.7303
  495MOL0     C68211   7.239   5.143  -1.087 -0.0055  0.2883 -0.0671
  495MOL0     C68212   7.129   5.097  -0.983  0.2261  0.7847 -0.1569
  495MOL0     C68213   7.016   5.013  -1.037  0.1950  0.5553  0.3186
  495MOL0     C68214   6.902   4.984  -0.955 -0.1738  0.5019  0.3942
  495MOL0     C68215   6.791   4.936  -1.054  1.1507 -0.8386 -0.1716
  495MOL0     C68216   6.670   4.867  -0.986  0.5685  0.1344  0.3184
  495MOL0    Cl68217   6.545   4.813  -1.106  0.2890 -0.0504  0.1492
  495MOL0     C68218   7.663   4.926  -0.967 -0.1486 -0.3106  0.5412
  495MOL0     C68219   7.776   4.868  -0.916  0.4045 -0.3467 -0.2045
  495MOL0     O68220   7.990   4.669  -0.959 -0.1275  0.6859 -0.0188
  495MOL0     C68221   8.170   4.710  -0.646 -0.5502  0.0968  0.9019
  495MOL0     C68222   8.235   4.642  -0.547  0.0191  0.2893 -0.6833
  495MOL0     N68223   8.410   3.798  -0.249  0.1139 -0.0942 -0.2546
  495MOL0     N68224   8.457   3.735  -0.145 -0.2703  0.2281 -0.2465
  495MOL0     C68225   7.913   3.270  -0.030 -0.0022  0.1651 -0.0752
  495MOL0     C68226   7.775   3.277   0.023  0.3918 -1.0040  1.2005
  495MOL0     C68227   7.392   3.152   0.255  0.0288 -0.6360  1.2445
  495MOL0     C68228   7.410   3.202   0.385  0.3607 -0.0201  0.1933
  495MOL0     C68229   7.329   3.172   0.497  1.0972 -0.3657 -0.0590
  495MOL0     C68230   7.208   3.107   0.476  0.2892 -0.0953  0.0069
  495MOL0     O68231   7.121   3.108   0.584 -0.5059 -0.1496 -0.3528
  495MOL0     C68232   6.987   3.067   0.562  0.4721  0.0840 -0.7156
  495MOL0     C68233   6.923   3.057   0.699 -0.3945 -0.0536 -0.5939
  495MOL0     C68234   6.944   2.932   0.786 -0.4152 -0.2219  1.1253
  495MOL0     C68235   7.083   2.921   0.832 -0.5150  0.5665  0.5086
  495MOL0     C68236   7.134   3.020   0.935  0.9334 -0.6440  0.9584
  495MOL0     C68237   7.173   3.112   1.007  0.4633  0.5285 -0.2833
  495MOL0     C68238   7.182   3.065   0.340 -0.3683  0.2434  1.0418
  495MOL0     C68239   7.269   3.086   0.237  1.0291 -0.3183 -0.4857
  495MOL0     C68240   7.252   3.009   0.111  0.6081  0.0631  0.9312
  495MOL0     H68241   7.766   3.022   0.226  4.6005 -1.9920  2.0444
  495MOL0     H68242   7.980   2.979   0.121 -2.4031 -0.9020 -0.3450
  495MOL0     H68243   8.184   2.953  -0.026 -1.7960  0.3895 -0.8882
  495MOL0     H68244   8.204   3.034   0.120 -1.3228  0.3940 -0.5532
  495MOL0     H68245   8.429   3.027  -0.045  2.3941  2.2650  0.0344
  495MOL0     H68246   8.336   3.124  -0.138  0.1626 -3.4375  0.2930
  495MOL0     H68247   8.433   3.177   0.156  0.1031  0.0278 -0.0521
  495MOL0     H68248   8.511   3.237   0.002  1.9117  3.7241  2.6862
  495MOL0     H68249   8.320   3.370  -0.051  3.2229 -2.7445 -2.4815
  495MOL0     H68250   8.233   3.322   0.090  0.0415 -0.6592 -2.6859
  495MOL0     H68251   8.486   3.485   0.089  1.0491  0.2477  0.2513
  495MOL0     H68252   8.398   3.433   0.235  0.4672 -2.0449 -0.4921
  495MOL0     H68253   8.261   3.587   0.008 -3.3120 -1.2424  0.0165
  495MOL0     H68254   8.191   3.543   0.167 -1.3669 -0.3453 -1.5526
  495MOL0     H68255   8.355   3.681   0.286 -1.3419  1.0950  0.3694
  495MOL0     H68256   8.260   3.776   0.190 -0.1308 -0.1454  0.2697
  495MOL0     H68257   8.479   3.856   0.162 -0.7111  0.3516  0.7123
  495MOL0     H68258   8.537   3.689   0.104 -1.7973 -2.4464 -0.7809
  495MOL0     H68259   8.308   3.990   0.008 -0.0828 -0.2739  0.5960
  495MOL0     H68260   8.240   4.095  -0.220  1.9497  1.1952  1.9901
  495MOL0     H68261   8.269   4.014  -0.378 -2.5227  0.4249  0.4094
  495MOL0     H68262   8.505   4.119  -0.213  0.4869  0.0559  0.1127
  495MOL0     H68263   8.492   4.082  -0.386  0.6630 -1.6177  0.6714
  495MOL0     H68264   8.391   4.329  -0.224  0.9205  2.9925 -1.0723
  495MOL0     H68265   8.510   4.330  -0.352 -0.6087  1.4192 -0.0694
  495MOL0     H68266   8.357   4.275  -0.522 -2.0282  3.4394 -2.6025
  495MOL0     H68267   8.220   4.279  -0.399  0.4636 -0.4400 -1.6707
  495MOL0     H68268   8.150   4.333  -0.642 -2.4891 -0.0206  1.8817
  495MOL0     H68269   7.888   4.476  -0.834 -1.3167 -2.7392 -1.6361
  495MOL0     H68270   7.957   4.328  -0.745  5.0829 -0.0135  1.7203
  495MOL0     H68271   8.024   4.372  -0.894 -1.8452  0.9605 -1.1039
  495MOL0     H68272   7.976   5.114  -0.882  0.4806 -0.3124 -0.8014
  495MOL0     H68273   7.779   5.243  -0.984 -1.1352  1.1399  4.0992
  495MOL0     H68274   7.426   5.117  -0.885  0.2371  1.1524  1.5652
  495MOL0     H68275   7.517   5.254  -0.918 -4.5681  1.3648  0.8889
  495MOL0     H68276   7.291   5.299  -0.950 -1.4294 -1.1833 -0.4843
  495MOL0     H68277   7.369   5.323  -1.105  1.1712 -1.4028 -1.5765
  495MOL0     H68278   7.289   5.059  -1.137 -0.1759  0.7854 -1.0980
  495MOL0     H68279   7.187   5.198  -1.166  0.7437  0.5561 -0.3868
  495MOL0     H68280   7.083   5.191  -0.949 -0.4027 -0.4388  2.5877
  495MOL0     H68281   7.181   5.047  -0.901  0.3480  0.0876 -0.6465
  495MOL0     H68282   6.977   5.057  -1.129  2.3946 -0.5335 -1.2349
  495MOL0     H68283   7.057   4.917  -1.071 -0.2551 -0.1710  1.7325
  495MOL0     H68284   6.852   5.075  -0.919 -1.5076  0.0230 -0.1900
  495MOL0     H68285   6.924   4.912  -0.876  3.3530 -1.4061 -2.0712
  495MOL0     H68286   6.837   4.860  -1.120  1.2461 -0.5437 -0.4481
  495MOL0     H68287   6.755   5.021  -1.111  1.5887 -0.7518 -0.3245
  495MOL0     H68288   6.631   4.939  -0.913 -0.9461  0.6604 -0.9531
  495MOL0     H68289   6.710   4.783  -0.929  0.8348  0.2138  0.2506
  495MOL0     H68290   7.580   4.856  -0.971  0.0936 -0.5619 -0.3209
  495MOL0     H68291   7.776   4.764  -0.888  0.4807 -0.0855  0.8170
  495MOL0     H68292   8.185   4.817  -0.636 -0.8984  0.1489  0.8730
  495MOL0     H68293   8.296   4.701  -0.479 -1.5071  6.5630 -4.0433
  495MOL0     H68294   7.953   3.347  -0.096 -4.5490  3.0773  0.0998
  495MOL0     H68295   7.707   3.348  -0.022  2.1433 -0.4202 -0.7236
  495MOL0     H68296   7.510   3.243   0.402 -0.3369  0.9698  2.2108
  495MOL0     H68297   7.359   3.208   0.595 -3.7127  1.8571  0.8939
  495MOL0     H68298   6.922   3.138   0.508 -2.2864 -0.8563  1.1314
  495MOL0     H68299   6.999   2.976   0.502  4.2149  0.0521 -0.1192
  495MOL0     H68300   6.814   3.066   0.697 -0.4496 -0.5765 -0.1739
  495MOL0     H68301   6.954   3.143   0.759  3.0146 -2.5325  1.5644
  495MOL0     H68302   6.876   2.931   0.871 -2.2724  2.0668 -0.2183
  495MOL0     H68303   6.903   2.851   0.724 -0.4100 -0.1419  1.0167
  495MOL0     H68304   7.151   2.922   0.746  3.4322 -1.6403  3.2714
  495MOL0     H68305   7.085   2.816   0.861  1.4033  0.4544  0.0653
  495MOL0     H68306   7.193   3.188   1.080  0.0313 -0.2510  0.6828
  495MOL0     H68307   7.091   3.009   0.317  1.4624 -3.0657  1.2805
  495MOL0     H68308   7.342   2.952   0.087 -0.2740 -1.2072  0.5152
  495MOL0     H68309   7.172   2.936   0.131 -0.3681  1.1773  1.2201
  495MOL0     H68310   7.224   3.067   0.023  2.3184 -0.5463 -0.0628
  496MOL0     O68311   2.061   3.058   4.939 -0.8887 -0.4766  0.4139
  496MOL0     C68312   2.130   3.030   4.838  0.3655 -0.5253  0.0393
  496MOL0     O68313   2.076   3.011   4.708  0.2199 -0.1702  0.0089
  496MOL0     C68314   1.950   2.966   4.698 -0.5802 -0.1956 -0.0504
  496MOL0     C68315   1.848   3.064   4.708 -0.7062  0.5712 -0.5754
  496MOL0     C68316   1.709   3.035   4.702  0.4539  0.5667 -0.3537
  496MOL0     C68317   1.677   2.899   4.682  0.1759 -0.0841 -0.1781
  496MOL0     O68318   1.539   2.879   4.662  0.6840  0.1040  0.2621
  496MOL0     C68319   1.486   2.849   4.791 -0.0527  0.0315  0.3001
  496MOL0     C68320   1.332   2.834   4.791 -0.1277  0.1220 -0.3256
  496MOL0     C68321   1.294   2.712   4.703 -0.2251 -0.2898 -0.5863
  496MOL0     C68322   1.327   2.574   4.750  1.0116  0.6533  0.1840
  496MOL0     C68323   1.292   2.474   4.644  0.1602 -0.3515 -1.5973
  496MOL0     C68324   1.299   2.338   4.697 -0.9830  0.8002  0.0961
  496MOL0     C68325   1.258   2.233   4.596  0.4944  0.8472  0.8041
  496MOL0     C68326   1.101   2.224   4.567  0.4385  0.1614  0.7788
  496MOL0     N68327   1.044   2.123   4.471  0.1434 -0.5334  0.1376
  496MOL0     C68328   1.010   2.148   4.342  0.5438  0.5618  0.0356
  496MOL0     C68329   0.952   2.040   4.298  0.4916  0.9523 -0.1184
  496MOL0     C68330   0.902   2.014   4.158 -1.0090 -0.8941 -0.2755
  496MOL0     C68331   0.997   2.053   4.050 -0.2278 -0.8714 -0.1660
  496MOL0     C68332   0.928   2.054   3.913  0.1581  0.0706 -0.0374
  496MOL0     C68333   1.029   2.089   3.802 -0.2005 -0.7446 -0.1165
  496MOL0     O68334   1.111   1.975   3.783 -0.2489 -0.3318 -0.2346
  496MOL0     C68335   1.134   1.925   3.661 -0.1600  0.7288  0.3935
  496MOL0     C68336   1.103   1.965   3.537 -0.1458 -0.0819  0.0053
  496MOL0     C68337   1.159   1.907   3.426 -0.0573  0.9972 -0.8530
  496MOL0     C68338   1.118   1.965   3.284  0.1352 -0.6215 -0.3202
  496MOL0     C68339   1.240   1.793   3.440  0.0746  0.1094  0.6630
  496MOL0     C68340   1.285   1.702   3.334 -0.6735  0.7512 -0.3676
  496MOL0     O68341   1.388   1.627   3.379  0.3968 -0.1528 -0.2977
  496MOL0     C68342   1.427   1.516   3.315  0.0745  0.8401 -0.5991
  496MOL0     C68343   1.469   1.412   3.395 -0.4299 -0.0782  0.0854
  496MOL0     C68344   1.518   1.292   3.347  1.0522 -0.2178  0.5023
  496MOL0     C68345   1.530   1.278   3.212  0.3935 -0.2229  0.3661
  496MOL0     O68346   1.572   1.157   3.155  0.8304  0.5028 -0.9250
  496MOL0     C68347   1.492   1.095   3.055 -0.1422  0.3562 -0.3973
  496MOL0     C68348   1.474   0.945   3.081 -0.1236  0.3355 -0.7948
  496MOL0     C68349   1.361   0.883   2.995 -0.4941 -0.1192  0.4091
  496MOL0     C68350   1.362   0.729   3.011 -1.2259 -0.3594 -0.0831
  496MOL0     C68351   1.243   0.675   2.934 -0.4591  0.1527 -0.0764
  496MOL0     C68352   1.198   0.531   2.980 -0.0894 -0.9410  0.1904
  496MOL0     C68353   1.069   0.477   2.910 -0.1773 -0.7216 -0.9158
  496MOL0     C68354   1.104   0.376   2.808  0.1317  0.3913  0.7316
  496MOL0    Cl68355   0.959   0.325   2.709 -0.6756  0.1785 -0.3181
  496MOL0     C68356   1.502   1.387   3.125  0.2341  0.1403 -0.4525
  496MOL0     C68357   1.456   1.507   3.175 -0.9162 -0.4051  0.4115
  496MOL0     O68358   1.215   1.679   3.240  0.1410  0.4039 -0.2239
  496MOL0     C68359   1.276   1.755   3.575 -0.2878  0.0485  0.1625
  496MOL0     C68360   1.226   1.826   3.683 -0.2772 -0.2359  0.1183
  496MOL0     N68361   0.928   1.950   4.405 -0.3781 -1.1891 -0.1397
  496MOL0     N68362   0.985   2.002   4.512 -0.0009  0.9937 -0.5490
  496MOL0     C68363   1.773   2.802   4.661  0.4480 -0.2605 -0.1982
  496MOL0     C68364   1.907   2.832   4.673 -0.5758  0.2450  0.1248
  496MOL0     C68365   2.264   2.999   4.857 -0.7302  0.3442  0.3691
  496MOL0     C68366   2.309   2.878   4.810  0.1098 -0.2214  0.0942
  496MOL0     C68367   2.431   2.826   4.853  0.7668 -0.1683 -0.0757
  496MOL0     C68368   2.514   2.898   4.937 -0.2575  0.3691 -0.2700
  496MOL0     O68369   2.623   2.829   4.992 -0.0361  0.2951  0.6349
  496MOL0     C68370   2.730   2.896   5.063  0.4186 -0.1457 -0.6881
  496MOL0     C68371   2.864   2.832   5.025  0.7015  0.5194 -0.3033
  496MOL0     C68372   2.974   2.862   5.130  0.4585 -0.0111 -0.6551
  496MOL0     C68373   3.101   2.802   5.074 -0.5174 -0.1894 -0.1532
  496MOL0     C68374   3.129   2.660   5.107  0.4763 -0.2682  0.0097
  496MOL0     C68375   3.152   2.533   5.113  0.2701 -0.5589 -0.9957
  496MOL0     C68376   2.475   3.029   4.970  0.8908  1.0062  0.5407
  496MOL0     C68377   2.348   3.074   4.933 -0.3185 -0.5572 -0.2754
  496MOL0     C68378   2.313   3.220   4.979 -0.9175 -0.1573 -0.4127
  496MOL0     H68379   1.879   3.168   4.716  0.7480  0.0136  3.5851
  496MOL0     H68380   1.632   3.111   4.703  0.6510  0.8898 -2.5940
  496MOL0     H68381   1.506   2.936   4.855 -0.0643  0.6866 -0.5735
  496MOL0     H68382   1.534   2.760   4.832  0.4829  1.4538  3.0073
  496MOL0     H68383   1.297   2.816   4.893  0.7584  0.0183 -0.0242
  496MOL0     H68384   1.276   2.919   4.753 -2.2109 -1.4467 -0.9719
  496MOL0     H68385   1.186   2.724   4.688 -0.9570 -2.1760  2.2943
  496MOL0     H68386   1.339   2.722   4.604 -4.1314  0.1057 -2.5395
  496MOL0     H68387   1.433   2.557   4.771  1.1708  0.8889 -0.4021
  496MOL0     H68388   1.283   2.557   4.848 -3.2794  0.1782 -1.5790
  496MOL0     H68389   1.350   2.489   4.553 -0.3085 -0.7757 -1.9700
  496MOL0     H68390   1.188   2.501   4.619 -0.7518 -1.0024  1.1321
  496MOL0     H68391   1.405   2.323   4.715 -0.7132  0.0120 -1.9096
  496MOL0     H68392   1.243   2.328   4.790 -0.8317 -0.4575  0.0662
  496MOL0     H68393   1.277   2.134   4.639 -3.7869 -1.2929 -1.5191
  496MOL0     H68394   1.319   2.216   4.507  0.6402 -2.0709  1.3698
  496MOL0     H68395   1.060   2.193   4.664  0.6069  2.3326  1.5999
  496MOL0     H68396   1.062   2.324   4.548  0.7999  0.1946  0.1864
  496MOL0     H68397   1.038   2.237   4.288  3.9522 -0.5096 -0.2270
  496MOL0     H68398   0.820   2.086   4.154 -1.5239 -1.4960 -3.6017
  496MOL0     H68399   0.855   1.915   4.161  0.0039 -1.3786  2.9202
  496MOL0     H68400   1.032   2.152   4.079  0.1318 -0.7959 -0.8385
  496MOL0     H68401   1.089   1.994   4.049  1.0121  0.8208 -3.4079
  496MOL0     H68402   0.879   1.958   3.895  2.7186 -0.8794 -2.7213
  496MOL0     H68403   0.856   2.136   3.910  1.4755  1.2837  0.4723
  496MOL0     H68404   0.967   2.115   3.715  1.3083  1.5973 -0.5665
  496MOL0     H68405   1.081   2.178   3.837  2.9311 -2.9794  1.3863
  496MOL0     H68406   1.045   2.055   3.523  1.1234  0.9149  0.8769
  496MOL0     H68407   1.118   1.880   3.214  1.0838 -0.8076 -0.1062
  496MOL0     H68408   1.178   2.048   3.245  0.2094 -1.4375 -2.0553
  496MOL0     H68409   1.013   1.996   3.277  0.2176 -0.1114  0.6347
  496MOL0     H68410   1.465   1.424   3.502 -0.0035 -0.0487  0.1016
  496MOL0     H68411   1.551   1.210   3.411 -0.5091 -0.9073  0.4810
  496MOL0     H68412   1.388   1.130   3.064 -0.5177 -0.8244  0.2018
  496MOL0     H68413   1.531   1.106   2.954 -1.5152 -2.2462 -1.3010
  496MOL0     H68414   1.569   0.892   3.076 -0.4189 -0.6186  1.8891
  496MOL0     H68415   1.434   0.932   3.183 -1.7751  0.4157 -1.3998
  496MOL0     H68416   1.377   0.896   2.887  0.6342 -1.9976  0.2838
  496MOL0     H68417   1.265   0.926   3.021  0.4138  0.5613  2.9043
  496MOL0     H68418   1.349   0.706   3.118  0.1198  1.1501  0.4377
  496MOL0     H68419   1.453   0.676   2.983 -0.4854  0.1692  1.2439
  496MOL0     H68420   1.160   0.746   2.942 -0.6978 -0.1229 -0.0847
  496MOL0     H68421   1.281   0.668   2.831 -1.1393  1.1680 -0.4132
  496MOL0     H68422   1.194   0.527   3.090  0.3801 -0.5646  0.2229
  496MOL0     H68423   1.278   0.458   2.969  0.1458 -0.7639  0.6837
  496MOL0     H68424   1.008   0.563   2.883 -0.9267 -0.5590  1.1054
  496MOL0     H68425   1.007   0.435   2.990 -0.8898  0.7896 -0.6438
  496MOL0     H68426   1.158   0.291   2.851  3.2370  2.4995  1.3591
  496MOL0     H68427   1.176   0.424   2.742  1.2420 -1.0453  0.8738
  496MOL0     H68428   1.535   1.377   3.022  1.1157  3.1359 -0.5465
  496MOL0     H68429   1.452   1.598   3.115  2.1765  1.1837  2.3686
  496MOL0     H68430   1.336   1.668   3.598 -1.7636 -1.2388 -0.6609
  496MOL0     H68431   1.271   1.783   3.772  0.8753 -3.1981 -1.7444
  496MOL0     H68432   1.760   2.695   4.650 -0.0850 -0.4040  1.6226
  496MOL0     H68433   1.973   2.747   4.660  1.7814  2.2045 -1.6583
  496MOL0     H68434   2.243   2.824   4.743 -4.0531  0.6177  3.1031
  496MOL0     H68435   2.458   2.721   4.841  3.2469  0.4623 -0.5093
  496MOL0     H68436   2.726   3.003   5.043 -2.4534  0.3902  1.9918
  496MOL0     H68437   2.716   2.870   5.168 -1.1374  0.4395 -0.7295
  496MOL0     H68438   2.893   2.873   4.928  0.1119  0.2708 -0.5919
  496MOL0     H68439   2.861   2.724   5.006  0.8460  0.9497 -3.0952
  496MOL0     H68440   2.975   2.970   5.146 -2.4285 -0.2104  1.9232
  496MOL0     H68441   2.947   2.811   5.223  0.7356 -1.5859 -1.3975
  496MOL0     H68442   3.185   2.863   5.109 -0.9495  1.6191 -2.1093
  496MOL0     H68443   3.086   2.817   4.967 -1.1265 -0.8366 -0.1655
  496MOL0     H68444   3.163   2.427   5.125  0.3882 -0.5079 -0.6483
  496MOL0     H68445   2.548   3.093   5.018  0.6736 -0.3709  2.9100
  496MOL0     H68446   2.272   3.216   5.080 -1.2999  0.6345 -0.5247
  496MOL0     H68447   2.407   3.277   4.980 -0.1780 -1.3080 -1.4544
  496MOL0     H68448   2.244   3.278   4.916  0.6116 -0.4176 -2.4406
  497MOL0     O68449   1.339   1.434   6.467  0.5283  0.2467  0.1375
  497MOL0     C68450   1.263   1.524   6.444 -0.5247 -0.8024  1.2296
  497MOL0     O68451   1.173   1.580   6.542  0.2462  0.0409  0.2995
  497MOL0     C68452   1.177   1.537   6.671 -0.2264  0.3415  0.7026
  497MOL0     C68453   1.295   1.554   6.752 -0.9172  0.3528  0.2325
  497MOL0     C68454   1.299   1.504   6.883  0.0888  0.2154  0.6104
  497MOL0     C68455   1.179   1.450   6.935  0.3367 -0.2580 -0.0950
  497MOL0     O68456   1.160   1.393   7.060 -0.3555 -0.6890 -0.6518
  497MOL0     C68457   1.272   1.369   7.141 -0.6357  0.4646 -1.3646
  497MOL0     C68458   1.360   1.249   7.080 -0.0338 -1.0968  0.3495
  497MOL0     C68459   1.282   1.126   7.048  0.6640  1.8216  0.1832
  497MOL0     C68460   1.366   1.021   6.977 -0.3267 -0.0139 -0.9751
  497MOL0     C68461   1.285   0.894   6.942  0.7221  0.1819  0.5556
  497MOL0     C68462   1.380   0.780   6.929  0.2680  0.2544  0.5914
  497MOL0     C68463   1.302   0.654   6.883  0.2162  0.1821 -0.1691
  497MOL0     C68464   1.394   0.518   6.893 -0.7666 -0.1700 -0.2880
  497MOL0     N68465   1.447   0.489   7.031 -0.1426 -0.0162  0.4997
  497MOL0     C68466   1.363   0.445   7.140 -0.1338  0.4818 -0.1911
  497MOL0     C68467   1.453   0.433   7.239  0.5938 -0.2612 -0.2500
  497MOL0     C68468   1.426   0.372   7.376 -0.5494  0.8934  0.0247
  497MOL0     C68469   1.359   0.230   7.379 -0.1253 -0.5615  0.0636
  497MOL0     C68470   1.453   0.106   7.366 -0.1375 -0.0816  0.0784
  497MOL0     C68471   1.383  -0.028   7.344  0.4410 -0.7565 -1.3659
  497MOL0     O68472   1.331  -0.035   7.208 -0.7752  0.1936  0.0104
  497MOL0     C68473   1.410  -0.106   7.129  0.2813  0.0780  0.6328
  497MOL0     C68474   1.504  -0.040   7.046  0.3143  0.2226 -0.2275
  497MOL0     C68475   1.578  -0.116   6.955  0.2663 -0.7298 -0.5619
  497MOL0     C68476   1.668  -0.034   6.862 -0.0904 -0.1010  0.1145
  497MOL0     C68477   1.554  -0.256   6.944 -0.5411 -1.5513  0.5054
  497MOL0     C68478   1.635  -0.339   6.855 -0.8873 -0.6903 -0.1702
  497MOL0     O68479   1.705  -0.448   6.900 -0.0419 -0.6019 -0.0263
  497MOL0     C68480   1.748  -0.538   6.808  0.8445 -0.7435 -0.6458
  497MOL0     C68481   1.715  -0.674   6.834 -0.3977 -0.1285  0.4151
  497MOL0     C68482   1.781  -0.777   6.758 -0.7921  0.0992 -0.4061
  497MOL0     C68483   1.866  -0.750   6.650 -0.3721 -0.4343 -0.1157
  497MOL0     O68484   1.931  -0.864   6.600 -0.8671  0.3278 -0.0060
  497MOL0     C68485   2.029  -0.838   6.500 -0.7467 -0.8351  0.4500
  497MOL0     C68486   2.163  -0.778   6.542 -0.4640  0.1322  0.1211
  497MOL0     C68487   2.276  -0.763   6.437  0.4512 -0.3012  1.0176
  497MOL0     C68488   2.413  -0.753   6.511 -0.4967  0.2104  0.3811
  497MOL0     C68489   2.529  -0.716   6.421  0.0065  0.1478 -0.4209
  497MOL0     C68490   2.568  -0.569   6.422  0.3058 -0.0622  0.6072
  497MOL0     C68491   2.677  -0.560   6.325 -0.2666 -0.2415 -0.5644
  497MOL0     C68492   2.721  -0.420   6.283 -0.1937  0.8319  0.2081
  497MOL0    Cl68493   2.602  -0.327   6.187 -0.4668 -0.5746  0.3934
  497MOL0     C68494   1.885  -0.614   6.619 -0.6065 -0.1536  0.0904
  497MOL0     C68495   1.832  -0.508   6.700  0.0941  0.1921 -0.2640
  497MOL0     O68496   1.623  -0.301   6.739  0.0913 -0.0143 -0.0310
  497MOL0     C68497   1.479  -0.319   7.041  0.5040  0.2222  0.1858
  497MOL0     C68498   1.403  -0.244   7.129 -0.0735  0.1734 -0.1453
  497MOL0     N68499   1.582   0.465   7.192  0.5845 -0.6444  0.6545
  497MOL0     N68500   1.582   0.493   7.069  0.5247  0.5968  0.2042
  497MOL0     C68501   1.069   1.444   6.855  0.5418  0.1359 -0.9333
  497MOL0     C68502   1.061   1.484   6.726 -1.0551 -0.0270  1.2883
  497MOL0     C68503   1.263   1.600   6.310 -0.1000  0.1903  0.5154
  497MOL0     C68504   1.179   1.718   6.298 -0.1494 -0.3841  0.4607
  497MOL0     C68505   1.168   1.787   6.176 -0.4281  0.2130  0.4795
  497MOL0     C68506   1.257   1.763   6.068 -0.5163  0.1669  0.3633
  497MOL0     O68507   1.265   1.841   5.950 -0.6111  0.9330 -0.6241
  497MOL0     C68508   1.198   1.964   5.938  0.0987  0.8269 -0.3243
  497MOL0     C68509   1.195   1.998   5.793 -0.4760  0.1207 -0.0268
  497MOL0     C68510   1.134   2.132   5.784 -0.9840 -0.4332  0.5955
  497MOL0     C68511   1.147   2.193   5.644  0.8665 -0.6206  0.1182
  497MOL0     C68512   1.030   2.165   5.559  0.0378 -0.0197  0.2697
  497MOL0     C68513   0.954   2.119   5.479 -0.3319  0.6219  0.2818
  497MOL0     C68514   1.337   1.651   6.078  0.2324 -0.4966  0.4005
  497MOL0     C68515   1.344   1.568   6.196 -0.4142 -0.5330 -0.1997
  497MOL0     C68516   1.432   1.450   6.184  0.2364 -0.0539 -0.4901
  497MOL0     H68517   1.379   1.616   6.722 -0.4109 -0.5355 -0.2336
  497MOL0     H68518   1.386   1.495   6.948 -0.5551 -4.4131  1.1715
  497MOL0     H68519   1.246   1.361   7.247  2.5185 -0.8534 -0.5818
  497MOL0     H68520   1.338   1.454   7.159  0.7814 -0.9412  0.4966
  497MOL0     H68521   1.416   1.287   6.995  2.4259  0.6817  2.6083
  497MOL0     H68522   1.439   1.233   7.153  0.2678 -0.0870  0.2540
  497MOL0     H68523   1.242   1.071   7.133  0.2205 -2.2364 -2.3692
  497MOL0     H68524   1.191   1.146   6.991  0.4699 -2.6111 -1.4640
  497MOL0     H68525   1.412   1.052   6.882  0.2182 -1.7733 -1.3284
  497MOL0     H68526   1.437   1.002   7.057 -0.1008  4.0186  0.0117
  497MOL0     H68527   1.223   0.907   6.853 -1.5916 -0.3135  2.0038
  497MOL0     H68528   1.220   0.867   7.026  0.8108 -2.6825 -0.2026
  497MOL0     H68529   1.451   0.803   6.849  1.7584 -1.2982  1.3952
  497MOL0     H68530   1.445   0.768   7.016 -0.1728 -1.4249  0.7296
  497MOL0     H68531   1.252   0.672   6.788 -1.8708  0.8593  0.9836
  497MOL0     H68532   1.223   0.634   6.957 -1.5066  3.1162 -1.0764
  497MOL0     H68533   1.331   0.436   6.858 -1.4267  0.6163 -1.0045
  497MOL0     H68534   1.483   0.527   6.831  1.3249 -0.5312  2.5008
  497MOL0     H68535   1.259   0.415   7.141 -0.3283  1.0516  2.1199
  497MOL0     H68536   1.363   0.446   7.427 -1.0947  2.9313 -3.2875
  497MOL0     H68537   1.528   0.357   7.410 -1.2865 -2.2298  1.1786
  497MOL0     H68538   1.313   0.219   7.478  0.0552 -1.8558  0.0240
  497MOL0     H68539   1.274   0.223   7.311 -1.3981  0.5191  1.4618
  497MOL0     H68540   1.536   0.131   7.298  0.3278  1.9270  1.2761
  497MOL0     H68541   1.509   0.101   7.460  1.3826  2.1170 -0.6096
  497MOL0     H68542   1.458  -0.107   7.348  0.4434 -1.0826 -4.8667
  497MOL0     H68543   1.307  -0.041   7.423 -0.0303  2.9281 -0.9990
  497MOL0     H68544   1.496   0.067   7.035 -0.6616  0.0990 -0.8346
  497MOL0     H68545   1.601   0.023   6.797  0.4616 -0.2488 -0.5983
  497MOL0     H68546   1.742  -0.093   6.807 -1.0706 -0.6065 -0.7019
  497MOL0     H68547   1.718   0.040   6.925  0.3386 -0.4128  0.1447
  497MOL0     H68548   1.656  -0.686   6.924 -0.1627  3.7634  1.2637
  497MOL0     H68549   1.752  -0.878   6.783 -0.6302 -0.1378 -1.1513
  497MOL0     H68550   2.043  -0.935   6.450 -0.9198 -1.7423  2.0849
  497MOL0     H68551   1.986  -0.777   6.421 -1.1527 -1.9180 -0.1934
  497MOL0     H68552   2.152  -0.675   6.577  0.9102  0.9894 -1.7771
  497MOL0     H68553   2.201  -0.839   6.625  0.2133  2.0262  1.2800
  497MOL0     H68554   2.264  -0.672   6.377  0.4207 -0.7871  0.2666
  497MOL0     H68555   2.276  -0.846   6.365 -0.2120 -0.2920  0.9986
  497MOL0     H68556   2.430  -0.853   6.551 -2.1934 -1.2017 -2.1906
  497MOL0     H68557   2.406  -0.680   6.592  1.3112 -0.4123  1.1642
  497MOL0     H68558   2.617  -0.751   6.475  1.2924  3.1673 -0.3889
  497MOL0     H68559   2.522  -0.771   6.327  0.0410  0.7916 -0.8057
  497MOL0     H68560   2.589  -0.527   6.520  1.6113  0.8205 -0.0302
  497MOL0     H68561   2.481  -0.516   6.382 -0.6834 -1.3698  0.9593
  497MOL0     H68562   2.647  -0.610   6.232  0.9258 -0.0015 -1.0940
  497MOL0     H68563   2.754  -0.631   6.356 -0.6661 -2.1315 -3.5115
  497MOL0     H68564   2.812  -0.425   6.223 -1.0763 -0.5458 -1.0863
  497MOL0     H68565   2.740  -0.372   6.380 -1.3518  1.1403  0.2920
  497MOL0     H68566   1.954  -0.589   6.539 -0.2009 -0.4998  0.3282
  497MOL0     H68567   1.860  -0.405   6.680  0.8484  0.9188  3.7011
  497MOL0     H68568   1.472  -0.427   7.046 -2.8042  0.3747  4.6115
  497MOL0     H68569   1.338  -0.283   7.208  0.6784 -0.0016  0.3966
  497MOL0     H68570   0.978   1.397   6.892  0.8783 -1.4697 -2.0413
  497MOL0     H68571   0.971   1.465   6.668  0.4096  0.6546 -1.3931
  497MOL0     H68572   1.131   1.764   6.384 -0.7917  3.6146 -1.7875
  497MOL0     H68573   1.092   1.865   6.174  0.9197  1.5856  1.0589
  497MOL0     H68574   1.099   1.958   5.984 -0.2538 -1.4329 -1.2686
  497MOL0     H68575   1.254   2.045   5.986 -0.1852  1.9572 -1.8413
  497MOL0     H68576   1.143   1.931   5.725 -0.5719 -0.0698  0.2325
  497MOL0     H68577   1.298   2.006   5.755 -0.8741  3.2513 -0.6749
  497MOL0     H68578   1.028   2.130   5.809 -1.2524  1.8781 -0.1169
  497MOL0     H68579   1.188   2.197   5.854  2.4509  1.6904 -3.5359
  497MOL0     H68580   1.234   2.157   5.588  0.1372 -2.0717 -0.1181
  497MOL0     H68581   1.154   2.300   5.664  0.2344 -0.6385  0.4802
  497MOL0     H68582   0.894   2.072   5.403  0.1952  0.5124 -0.0782
  497MOL0     H68583   1.388   1.613   5.990  0.0543 -0.0800  0.1158
  497MOL0     H68584   1.517   1.476   6.248 -1.6019  5.1406  0.2736
  497MOL0     H68585   1.388   1.351   6.200  1.0757 -0.2416  0.7386
  497MOL0     H68586   1.479   1.436   6.085 -0.0148 -2.5129 -0.3353
  498MOL0     O68587  10.784   4.574   9.843 -0.0894  0.7119  0.3794
  498MOL0     C68588  10.861   4.478   9.869  0.1087  0.7267 -0.2175
  498MOL0     O68589  10.988   4.488   9.907  0.2275 -0.7023 -0.6930
  498MOL0     C68590  11.034   4.606   9.957 -0.8024  0.6747  0.1093
  498MOL0     C68591  11.163   4.623   9.935  0.3492  0.9984 -0.3396
  498MOL0     C68592  11.238   4.727   9.994  0.1876 -0.2829  0.5007
  498MOL0     C68593  11.171   4.822  10.067  0.0381 -0.3167 -0.3704
  498MOL0     O68594  11.254   4.916  10.132  0.0183  0.2440  0.4283
  498MOL0     C68595  11.204   5.006  10.234  0.1844 -0.0950 -0.3701
  498MOL0     C68596  11.103   5.106  10.176  0.3870  0.0813 -0.1817
  498MOL0     C68597  11.153   5.236  10.104 -0.0460  0.5526  0.5219
  498MOL0     C68598  11.252   5.323  10.183 -0.4961  0.5786 -0.2923
  498MOL0     C68599  11.298   5.456  10.112  0.3854 -0.0831 -0.3064
  498MOL0     C68600  11.182   5.566  10.139  0.3016 -1.1212 -0.3958
  498MOL0     C68601  11.214   5.696  10.064  0.3031 -0.6158  0.7745
  498MOL0     C68602  11.178   5.700   9.913 -0.5939  0.1116  0.1098
  498MOL0     N68603  11.270   5.795   9.836 -0.2999  0.6120 -0.1509
  498MOL0     C68604  11.405   5.815   9.847  0.1398 -0.1532  0.6581
  498MOL0     C68605  11.431   5.923   9.771 -0.0709 -0.2735 -0.1841
  498MOL0     C68606  11.552   6.006   9.754  0.0111  0.2559 -0.7858
  498MOL0     C68607  11.655   5.932   9.675 -0.8384 -0.0274  1.0091
  498MOL0     C68608  11.796   5.988   9.680 -1.4506  0.0236  0.4675
  498MOL0     C68609  11.880   5.940   9.792  0.5165 -0.4497  0.6553
  498MOL0     O68610  11.898   5.799   9.782  0.6267  0.1208 -0.8530
  498MOL0     C68611  11.958   5.739   9.896  0.4807  0.6775  0.9792
  498MOL0     C68612  12.089   5.747   9.923 -1.2015 -1.7929  0.6204
  498MOL0     C68613  12.146   5.670  10.038  0.3876 -1.1135  0.6518
  498MOL0     C68614  12.290   5.682  10.066 -0.3479  0.0400 -0.1475
  498MOL0     C68615  12.059   5.591  10.118  0.0344  0.3368  0.0969
  498MOL0     C68616  12.101   5.504  10.226  0.4982 -0.9083 -0.0356
  498MOL0     O68617  12.233   5.467  10.234  0.4344 -0.5189  0.0234
  498MOL0     C68618  12.269   5.436  10.366 -0.3456  0.5482 -0.2895
  498MOL0     C68619  12.299   5.528  10.465  0.4991 -0.0002 -0.8000
  498MOL0     C68620  12.359   5.480  10.582  0.7103  0.1924  0.1689
  498MOL0     C68621  12.371   5.342  10.609  0.6000 -0.5403  0.2593
  498MOL0     O68622  12.422   5.288  10.723  0.4135 -0.7002 -0.7268
  498MOL0     C68623  12.497   5.374  10.819 -0.5863 -0.6548 -0.0865
  498MOL0     C68624  12.574   5.266  10.906 -0.2640 -0.6301 -0.6946
  498MOL0     C68625  12.481   5.194  11.012  0.6839 -0.2735 -0.0554
  498MOL0     C68626  12.560   5.071  11.060  0.1559 -0.3263 -0.3184
  498MOL0     C68627  12.497   4.987  11.172  0.5680 -0.9955  0.3668
  498MOL0     C68628  12.349   4.942  11.155 -0.0535  0.3986  0.4354
  498MOL0     C68629  12.341   4.851  11.043  0.2608  0.7617 -0.0484
  498MOL0     C68630  12.186   4.829  11.017  0.1434  0.1396  0.4270
  498MOL0    Cl68631  12.113   4.734  11.148 -0.0631 -0.3349  0.0753
  498MOL0     C68632  12.331   5.247  10.505 -0.2198 -0.0337 -0.2170
  498MOL0     C68633  12.286   5.297  10.386 -0.3737  0.2674  0.4628
  498MOL0     O68634  12.020   5.473  10.318 -0.3239  0.1950  0.0369
  498MOL0     C68635  11.920   5.585  10.082 -0.5506 -0.1273 -0.8704
  498MOL0     C68636  11.877   5.663   9.976 -0.7045  0.5327 -0.6891
  498MOL0     N68637  11.313   5.963   9.716  0.2691 -0.3627 -0.9208
  498MOL0     N68638  11.211   5.899   9.767 -0.3211 -0.0171  0.0808
  498MOL0     C68639  11.039   4.797  10.098  0.3067  0.8741 -0.2134
  498MOL0     C68640  10.972   4.684  10.051  0.1831 -0.2548  0.1319
  498MOL0     C68641  10.809   4.341   9.853  0.0141 -0.9151 -0.1296
  498MOL0     C68642  10.903   4.243   9.810 -0.4476  0.9919  0.0511
  498MOL0     C68643  10.857   4.103   9.792 -0.5756 -0.0899 -0.3024
  498MOL0     C68644  10.719   4.081   9.800  0.4000  0.3823 -0.1889
  498MOL0     O68645  10.653   3.955   9.793 -0.1550 -0.0124 -0.2334
  498MOL0     C68646  10.743   3.846   9.800 -0.3373  0.0472 -0.7677
  498MOL0     C68647  10.663   3.711   9.800  0.2618 -0.6851  0.1464
  498MOL0     C68648  10.584   3.681   9.938 -0.5815  0.2461  1.0528
  498MOL0     C68649  10.677   3.663  10.054  0.0336  0.7085 -0.3437
  498MOL0     C68650  10.792   3.571  10.028 -0.7611 -0.0057 -0.2456
  498MOL0     C68651  10.873   3.477  10.016 -0.1222 -0.3646 -0.3785
  498MOL0     C68652  10.632   4.183   9.837  0.4749 -0.1687 -0.7176
  498MOL0     C68653  10.669   4.314   9.865  0.1484 -0.6502  0.1024
  498MOL0     C68654  10.560   4.424   9.902 -0.5354 -0.3930 -0.0517
  498MOL0     H68655  11.204   4.545   9.871  0.4863  0.4799  0.3604
  498MOL0     H68656  11.344   4.740   9.975  0.3678  0.4825  1.8579
  498MOL0     H68657  11.289   5.059  10.278  0.6585 -1.5219  0.4819
  498MOL0     H68658  11.157   4.951  10.316 -0.8573  0.5674 -0.5022
  498MOL0     H68659  11.020   5.075  10.112  0.6213  2.2273 -1.6129
  498MOL0     H68660  11.053   5.131  10.270 -0.4818 -1.7969 -0.0904
  498MOL0     H68661  11.213   5.204  10.019 -0.1081  2.8626 -0.4391
  498MOL0     H68662  11.068   5.296  10.070 -0.5278 -0.0487  0.6273
  498MOL0     H68663  11.200   5.346  10.276 -1.2944  2.0251 -1.0681
  498MOL0     H68664  11.341   5.262  10.202  0.8478  2.6741  0.5010
  498MOL0     H68665  11.301   5.435  10.005  0.3935 -2.4367  0.0994
  498MOL0     H68666  11.397   5.490  10.144 -0.6754  1.8082  1.1345
  498MOL0     H68667  11.090   5.530  10.092  1.9582 -1.9774 -3.2439
  498MOL0     H68668  11.164   5.585  10.245 -1.9798 -1.6011 -0.6379
  498MOL0     H68669  11.319   5.726  10.073  0.8175 -1.4673 -1.5189
  498MOL0     H68670  11.154   5.779  10.100  1.6190  0.9226 -0.3872
  498MOL0     H68671  11.174   5.599   9.870 -2.3368  0.3737 -0.4303
  498MOL0     H68672  11.074   5.734   9.907  0.2614  2.8427 -0.1871
  498MOL0     H68673  11.490   5.759   9.887  2.2146  0.6464 -2.3315
  498MOL0     H68674  11.585   6.048   9.850 -3.9311  1.3810  0.2523
  498MOL0     H68675  11.532   6.089   9.686  3.3133  0.2113 -1.9864
  498MOL0     H68676  11.656   5.826   9.705  3.1259 -1.1352 -2.1225
  498MOL0     H68677  11.614   5.941   9.574  1.3454  1.7938  0.2107
  498MOL0     H68678  11.851   5.965   9.588  0.5764  0.7815  1.4254
  498MOL0     H68679  11.772   6.095   9.682 -1.0608  0.1068  1.6716
  498MOL0     H68680  11.975   5.994   9.800  0.2797  0.8820 -3.3891
  498MOL0     H68681  11.838   5.960   9.891  1.0199  1.7620  0.4925
  498MOL0     H68682  12.143   5.810   9.852 -2.4829  0.8125  1.8522
  498MOL0     H68683  12.339   5.750   9.995 -0.6019  0.1226 -0.2441
  498MOL0     H68684  12.348   5.590  10.049 -0.0843  0.5793 -2.6303
  498MOL0     H68685  12.314   5.701  10.171 -1.5978  0.5248  0.0583
  498MOL0     H68686  12.289   5.636  10.467  0.3200  0.0349  2.7329
  498MOL0     H68687  12.389   5.552  10.657 -1.0679  0.8653  0.2858
  498MOL0     H68688  12.564   5.444  10.767 -1.7242  1.7550  1.5391
  498MOL0     H68689  12.422   5.430  10.875 -1.0538 -3.1844  1.9966
  498MOL0     H68690  12.611   5.184  10.844 -2.0774 -2.3382  0.3193
  498MOL0     H68691  12.660   5.314  10.952  1.4975 -0.8907 -3.4868
  498MOL0     H68692  12.378   5.171  10.982 -0.0110  2.8024 -0.4480
  498MOL0     H68693  12.485   5.271  11.090 -1.6868  0.7420 -0.8448
  498MOL0     H68694  12.663   5.102  11.079 -0.0056 -0.6668  1.3130
  498MOL0     H68695  12.561   5.007  10.972  2.0794 -4.2754  2.2667
  498MOL0     H68696  12.555   4.896  11.192  0.7732 -0.4206  2.6877
  498MOL0     H68697  12.519   5.053  11.257  0.9799  1.3046 -1.4308
  498MOL0     H68698  12.298   5.037  11.137 -1.0179 -0.0891  0.4971
  498MOL0     H68699  12.305   4.904  11.248 -2.9614  2.9270  0.2735
  498MOL0     H68700  12.376   4.750  11.066 -1.3304  0.1395 -0.2437
  498MOL0     H68701  12.388   4.893  10.953 -1.9572  3.4531 -0.0854
  498MOL0     H68702  12.168   4.777  10.922 -2.7216 -1.3843  1.6863
  498MOL0     H68703  12.137   4.927  11.015  0.3408  0.2336 -0.5332
  498MOL0     H68704  12.355   5.141  10.506 -3.9644 -1.0910  3.0610
  498MOL0     H68705  12.266   5.227  10.306  0.9234 -1.1196  1.3162
  498MOL0     H68706  11.842   5.532  10.136  0.0029 -0.3146 -0.2384
  498MOL0     H68707  11.772   5.656   9.952 -1.0710  1.4315  0.5842
  498MOL0     H68708  10.978   4.855  10.166 -1.9474 -1.7649  0.2272
  498MOL0     H68709  10.871   4.668  10.087  0.1268  0.8371  0.4904
  498MOL0     H68710  11.006   4.272   9.793 -0.5000  1.2272  0.1273
  498MOL0     H68711  10.926   4.021   9.779 -0.8058 -0.2718 -0.3834
  498MOL0     H68712  10.805   3.845   9.710  3.1967 -1.1748  1.4625
  498MOL0     H68713  10.806   3.859   9.889  0.9278  0.7493 -1.7388
  498MOL0     H68714  10.725   3.625   9.777  1.3340  0.4192 -1.3420
  498MOL0     H68715  10.580   3.715   9.728  0.8941 -3.8424 -0.8824
  498MOL0     H68716  10.513   3.761   9.961 -1.1464 -0.4441  1.7241
  498MOL0     H68717  10.534   3.585   9.926 -0.3439  0.0081  1.9231
  498MOL0     H68718  10.634   3.612  10.141  0.4765 -0.3672 -0.7325
  498MOL0     H68719  10.718   3.759  10.087  2.2121 -0.4331  0.4964
  498MOL0     H68720  10.939   3.394  10.002 -1.8318 -1.6625 -1.1114
  498MOL0     H68721  10.530   4.148   9.832  0.5056 -1.7337  4.2534
  498MOL0     H68722  10.587   4.467   9.999  0.5095 -2.5848  0.7148
  498MOL0     H68723  10.555   4.494   9.819  1.9609  0.3137  0.2979
  498MOL0     H68724  10.459   4.386   9.919 -2.0316  3.2556  0.0896
  499MOL0     O68725   8.263   2.974   7.182  0.6859  0.5344  0.2795
  499MOL0     C68726   8.319   2.886   7.120 -0.3605  0.4052  0.0809
  499MOL0     O68727   8.454   2.868   7.129 -0.0808 -0.1924  0.1380
  499MOL0     C68728   8.548   2.938   7.198 -0.5184 -1.0956  0.4509
  499MOL0     C68729   8.581   2.888   7.322 -0.0490  0.4362  0.1827
  499MOL0     C68730   8.695   2.937   7.392 -0.1595 -0.3734  0.2158
  499MOL0     C68731   8.767   3.049   7.339 -0.6470 -0.1039 -0.6959
  499MOL0     O68732   8.884   3.103   7.387  0.3936 -0.0091  0.6229
  499MOL0     C68733   8.957   3.052   7.506  0.8990 -0.7748  0.0780
  499MOL0     C68734   9.100   3.004   7.469 -0.0975  0.4442  0.5410
  499MOL0     C68735   9.168   2.927   7.584  0.4903 -0.2567  0.2142
  499MOL0     C68736   9.321   2.913   7.554 -0.2589  1.2294  0.3270
  499MOL0     C68737   9.403   2.806   7.643  0.3794 -0.3681  0.1048
  499MOL0     C68738   9.359   2.796   7.790 -0.6970 -1.1783 -0.5676
  499MOL0     C68739   9.409   2.911   7.877 -0.6007  0.5750  1.1907
  499MOL0     C68740   9.367   2.884   8.015 -0.3486  0.0385  0.5391
  499MOL0     N68741   9.438   2.962   8.108 -0.5294  0.3511 -0.7449
  499MOL0     C68742   9.394   3.009   8.231 -0.4967  0.7426 -0.0030
  499MOL0     C68743   9.502   3.078   8.282  0.4853  1.4287  0.5213
  499MOL0     C68744   9.514   3.125   8.427 -0.3709 -0.1646 -1.1993
  499MOL0     C68745   9.553   3.006   8.517 -0.3568  0.4019 -0.6802
  499MOL0     C68746   9.695   2.957   8.498 -0.4164 -0.1341  0.1857
  499MOL0     C68747   9.806   3.064   8.506  0.0115  0.4984  0.2966
  499MOL0     O68748   9.921   2.988   8.539  0.8511  0.4019  0.1885
  499MOL0     C68749  10.037   3.071   8.519  0.2837  0.6952  0.5271
  499MOL0     C68750  10.096   3.108   8.629 -0.9426 -0.5593 -0.2432
  499MOL0     C68751  10.221   3.170   8.629  0.3017  0.4328 -0.0268
  499MOL0     C68752  10.288   3.177   8.763  0.9619  0.2177 -0.4423
  499MOL0     C68753  10.263   3.242   8.514  0.1114 -0.7617 -1.0565
  499MOL0     C68754  10.384   3.328   8.508  0.2801  0.6696 -0.3620
  499MOL0     O68755  10.422   3.384   8.389 -0.0685  0.1634  0.7418
  499MOL0     C68756  10.538   3.448   8.376 -1.0373 -0.6994  0.0878
  499MOL0     C68757  10.648   3.384   8.321  0.1655  0.9388 -0.9621
  499MOL0     C68758  10.766   3.457   8.291  0.0973 -0.2207  0.2060
  499MOL0     C68759  10.777   3.599   8.326 -0.9652 -0.3080 -0.3191
  499MOL0     O68760  10.889   3.677   8.307  1.0077  0.5159  0.1598
  499MOL0     C68761  11.000   3.617   8.239  0.6102 -0.2968  0.5482
  499MOL0     C68762  11.108   3.720   8.182 -0.2596 -1.0171  0.4769
  499MOL0     C68763  11.134   3.827   8.291 -0.7123  1.0655  0.0857
  499MOL0     C68764  11.216   3.942   8.235 -0.3728  0.1325  0.9849
  499MOL0     C68765  11.236   4.059   8.330 -0.8204  0.5285  0.7957
  499MOL0     C68766  11.302   4.183   8.265  0.7858  0.8932  0.0454
  499MOL0     C68767  11.320   4.303   8.357 -0.3182  0.3137 -0.6469
  499MOL0     C68768  11.397   4.411   8.289  0.3839  0.0024  0.0368
  499MOL0    Cl68769  11.327   4.452   8.131 -0.2768 -0.5235  0.0730
  499MOL0     C68770  10.665   3.658   8.384 -0.5296  1.0515 -0.2008
  499MOL0     C68771  10.548   3.587   8.403  0.7978 -0.6299 -0.0742
  499MOL0     O68772  10.446   3.355   8.611  0.2401 -0.6997  0.7765
  499MOL0     C68773  10.201   3.204   8.397 -0.0685  0.9103 -0.2244
  499MOL0     C68774  10.092   3.111   8.399  0.5055  0.5162 -0.3320
  499MOL0     N68775   9.604   3.062   8.184 -0.5736 -0.2572 -0.3393
  499MOL0     N68776   9.572   2.983   8.087  0.4563 -0.0470 -0.4849
  499MOL0     C68777   8.726   3.100   7.218  1.2076 -0.1724  0.4450
  499MOL0     C68778   8.620   3.036   7.137  0.7435  0.6895 -0.4018
  499MOL0     C68779   8.240   2.805   7.026 -0.0401  0.2008 -0.0572
  499MOL0     C68780   8.308   2.716   6.938  0.3740  0.0705  1.0692
  499MOL0     C68781   8.240   2.624   6.859 -0.5429  0.7539 -0.9552
  499MOL0     C68782   8.100   2.623   6.865 -0.5415 -0.2014  0.1372
  499MOL0     O68783   8.024   2.547   6.783  0.4829  0.2582 -0.0408
  499MOL0     C68784   8.086   2.437   6.700 -0.0590 -0.1405  0.3747
  499MOL0     C68785   8.000   2.319   6.662  0.5150  0.1309  0.0187
  499MOL0     C68786   7.888   2.356   6.566 -0.3637  0.1794  0.1917
  499MOL0     C68787   7.781   2.250   6.553  0.6024  0.7064 -0.3338
  499MOL0     C68788   7.825   2.136   6.469  0.0034  0.2923 -1.1843
  499MOL0     C68789   7.855   2.036   6.410 -0.0933 -0.8965  0.7220
  499MOL0     C68790   8.036   2.722   6.938 -0.4853  0.4752 -0.1049
  499MOL0     C68791   8.096   2.810   7.023  0.2682 -0.0403  0.0778
  499MOL0     C68792   8.010   2.865   7.133  0.2133 -0.1469  0.6837
  499MOL0     H68793   8.526   2.804   7.363  2.0993 -1.8217 -1.3233
  499MOL0     H68794   8.720   2.890   7.487  0.8868  1.5011  0.9239
  499MOL0     H68795   8.911   2.962   7.548 -0.4599 -0.5735 -0.9224
  499MOL0     H68796   8.964   3.126   7.587  0.7210 -1.0175  0.3201
  499MOL0     H68797   9.091   2.932   7.386  2.6502  0.1751  0.3817
  499MOL0     H68798   9.162   3.088   7.438  1.6730 -1.0974 -0.3431
  499MOL0     H68799   9.148   2.982   7.677 -1.8232 -0.3140 -0.1886
  499MOL0     H68800   9.130   2.826   7.600 -1.7096  0.6841  1.3383
  499MOL0     H68801   9.335   2.880   7.451 -1.1441 -4.6277  1.7197
  499MOL0     H68802   9.362   3.013   7.569  1.0984  0.4943  1.9043
  499MOL0     H68803   9.511   2.822   7.646  0.6512 -1.9073 -0.5867
  499MOL0     H68804   9.398   2.709   7.591 -1.3677 -0.9096  1.1853
  499MOL0     H68805   9.250   2.787   7.786 -0.9419  1.3039 -1.1120
  499MOL0     H68806   9.398   2.703   7.833  1.7291 -0.8099 -1.7492
  499MOL0     H68807   9.362   3.001   7.838 -0.9912 -0.6952 -1.5070
  499MOL0     H68808   9.517   2.913   7.859 -0.9696  1.5292 -1.4009
  499MOL0     H68809   9.258   2.881   8.028 -0.2936 -3.0726  1.1903
  499MOL0     H68810   9.407   2.787   8.047  0.1687  1.0096  3.1302
  499MOL0     H68811   9.301   2.988   8.283 -0.3988  2.4277  0.8957
  499MOL0     H68812   9.416   3.168   8.451 -0.8848 -2.6025  1.7159
  499MOL0     H68813   9.586   3.206   8.438 -1.6284  0.9531 -0.8864
  499MOL0     H68814   9.544   3.034   8.622 -0.0366 -0.7652 -0.3295
  499MOL0     H68815   9.480   2.926   8.503 -1.7806  0.7436  3.5908
  499MOL0     H68816   9.704   2.884   8.578 -1.3929 -0.7312 -0.2271
  499MOL0     H68817   9.698   2.910   8.399 -0.1436  1.4432 -0.6006
  499MOL0     H68818   9.820   3.111   8.409 -2.9651  2.2360  0.6048
  499MOL0     H68819   9.792   3.141   8.582 -2.6890  2.8769 -2.3568
  499MOL0     H68820  10.055   3.095   8.728 -1.5759  3.1366  0.1242
  499MOL0     H68821  10.390   3.139   8.758  1.2643  1.0326 -0.5569
  499MOL0     H68822  10.235   3.110   8.832  1.1003 -1.5866 -1.9944
  499MOL0     H68823  10.288   3.281   8.794 -0.5379  0.9585 -2.6693
  499MOL0     H68824  10.652   3.280   8.291  1.3430  1.8855 -4.6066
  499MOL0     H68825  10.840   3.405   8.229 -0.6526  0.2173 -1.0919
  499MOL0     H68826  11.041   3.550   8.316 -3.0361 -1.2435  1.8635
  499MOL0     H68827  10.977   3.553   8.153  1.9650  0.5416 -0.4749
  499MOL0     H68828  11.201   3.672   8.152 -0.2182 -1.5815  1.4485
  499MOL0     H68829  11.055   3.777   8.105  0.7030 -1.4828 -0.5540
  499MOL0     H68830  11.191   3.774   8.368 -0.4196 -2.6963 -2.4371
  499MOL0     H68831  11.044   3.868   8.337 -0.2374 -1.3594  3.6544
  499MOL0     H68832  11.154   3.970   8.149  1.4565 -1.0464 -0.8351
  499MOL0     H68833  11.307   3.909   8.183 -0.3124  1.4877  0.1819
  499MOL0     H68834  11.137   4.097   8.355 -0.9723  2.2640 -2.0473
  499MOL0     H68835  11.299   4.028   8.414 -1.4609  3.1782  2.3587
  499MOL0     H68836  11.236   4.213   8.183  0.6825 -0.9782 -0.5920
  499MOL0     H68837  11.390   4.153   8.207 -1.9221 -2.7405 -2.6204
  499MOL0     H68838  11.369   4.279   8.452 -2.2451  4.4153  1.6416
  499MOL0     H68839  11.219   4.338   8.379 -0.5069 -1.8482  2.5636
  499MOL0     H68840  11.502   4.385   8.274  0.2744 -0.8002  0.6184
  499MOL0     H68841  11.395   4.498   8.355  2.4708 -2.6558  4.0576
  499MOL0     H68842  10.656   3.762   8.415 -1.3891  0.4971  1.5171
  499MOL0     H68843  10.457   3.644   8.420  1.3852  0.0913  0.7525
  499MOL0     H68844  10.230   3.243   8.301  1.7035  1.0137  0.3250
  499MOL0     H68845  10.051   3.075   8.306  2.0589  0.3842 -0.9916
  499MOL0     H68846   8.766   3.197   7.193  1.2823 -0.7278 -1.8684
  499MOL0     H68847   8.588   3.073   7.040  1.8529 -0.1995 -1.1314
  499MOL0     H68848   8.417   2.715   6.930  0.6092 -2.5013  3.2270
  499MOL0     H68849   8.305   2.565   6.794  0.0157 -1.6739  1.5890
  499MOL0     H68850   8.127   2.477   6.607 -0.4084 -2.5580 -0.9069
  499MOL0     H68851   8.165   2.394   6.764 -0.2348 -0.0487  0.6551
  499MOL0     H68852   7.962   2.262   6.746 -0.2961 -0.4355 -0.7218
  499MOL0     H68853   8.063   2.249   6.605 -0.9146 -0.2386 -1.1650
  499MOL0     H68854   7.851   2.447   6.614  0.6026  0.2772  0.7755
  499MOL0     H68855   7.925   2.379   6.466 -2.6456 -3.9815 -1.8667
  499MOL0     H68856   7.694   2.291   6.502 -0.8723 -2.0907 -0.2252
  499MOL0     H68857   7.738   2.218   6.648 -1.3381 -1.0046 -1.7031
  499MOL0     H68858   7.875   1.956   6.342 -0.3846 -0.5039  0.1718
  499MOL0     H68859   7.929   2.705   6.932 -0.0378 -2.1467 -2.8979
  499MOL0     H68860   7.988   2.967   7.100  0.2036  0.2559  1.8989
  499MOL0     H68861   7.912   2.817   7.141 -0.2681  0.5516 -0.7105
  499MOL0     H68862   8.054   2.871   7.233  2.3247  2.6583 -0.2685
  500MOL0     O68863   2.614   8.285   7.188 -0.2248 -0.3446 -0.8895
  500MOL0     C68864   2.538   8.235   7.109  0.8472  1.0637 -0.5372
  500MOL0     O68865   2.407   8.266   7.071 -0.1407  0.1710 -0.4614
  500MOL0     C68866   2.346   8.377   7.113  0.3678 -0.3167  0.4029
  500MOL0     C68867   2.406   8.503   7.093  0.1597 -0.0815 -0.1229
  500MOL0     C68868   2.335   8.617   7.112 -0.0699  0.1737 -0.1268
  500MOL0     C68869   2.204   8.612   7.157  0.5866 -0.4762 -0.1214
  500MOL0     O68870   2.115   8.715   7.181 -0.1480 -0.6707 -0.2859
  500MOL0     C68871   2.126   8.848   7.137 -0.2573 -0.7422 -0.3857
  500MOL0     C68872   1.991   8.913   7.191 -1.0316  0.0827  0.2493
  500MOL0     C68873   1.997   9.062   7.161  0.0879 -1.2215  1.2866
  500MOL0     C68874   1.891   9.149   7.242  0.7802  0.1969  0.3351
  500MOL0     C68875   1.884   9.298   7.191 -0.2250  1.1242  0.2178
  500MOL0     C68876   1.856   9.393   7.304  0.1854 -0.6324  0.7232
  500MOL0     C68877   1.844   9.525   7.240  0.8616 -0.2867  0.7939
  500MOL0     C68878   1.800   9.630   7.349  0.5741 -0.4858  0.6108
  500MOL0     N68879   1.769   9.764   7.297 -0.9499  0.3090  0.5182
  500MOL0     C68880   1.839   9.879   7.327 -0.5710 -0.5211 -0.2268
  500MOL0     C68881   1.761   9.981   7.280  0.7397 -0.1497  0.2506
  500MOL0     C68882   1.810  10.125   7.269 -0.2709  0.0777  0.2314
  500MOL0     C68883   1.756  10.215   7.380 -0.6371  0.2158 -0.2362
  500MOL0     C68884   1.852  10.335   7.420 -0.3811 -0.4169  0.7748
  500MOL0     C68885   1.881  10.445   7.310  0.0827 -0.0925 -1.1637
  500MOL0     O68886   1.976  10.546   7.371  0.1451  0.0391 -0.7898
  500MOL0     C68887   2.045  10.635   7.287 -0.3411  0.2215 -0.2779
  500MOL0     C68888   1.990  10.734   7.212  0.2335 -0.3988  0.2830
  500MOL0     C68889   2.060  10.813   7.119  0.3965  0.4236 -1.1599
  500MOL0     C68890   1.996  10.917   7.034 -1.1932 -0.3100 -1.1145
  500MOL0     C68891   2.196  10.794   7.108 -0.3227 -0.3057  0.4446
  500MOL0     C68892   2.286  10.870   7.007 -0.8399 -0.2090 -0.4754
  500MOL0     O68893   2.310  11.005   7.032 -0.0239  0.2479 -0.7638
  500MOL0     C68894   2.404  11.072   6.950 -0.2458  0.3994  0.7863
  500MOL0     C68895   2.357  11.080   6.819 -0.1526  0.8995  0.9062
  500MOL0     C68896   2.430  11.162   6.729 -1.6926 -0.2799  1.0192
  500MOL0     C68897   2.549  11.228   6.760  1.0379  0.2092  0.1668
  500MOL0     O68898   2.611  11.304   6.663 -0.0115 -0.1468 -0.1526
  500MOL0     C68899   2.750  11.314   6.672 -0.2565 -0.4734 -0.6643
  500MOL0     C68900   2.768  11.459   6.735  0.0899  0.7922  0.6935
  500MOL0     C68901   2.651  11.558   6.740  0.6577  0.4438  0.3840
  500MOL0     C68902   2.689  11.697   6.778 -0.7621 -0.6094  0.2277
  500MOL0     C68903   2.590  11.812   6.757 -0.2964 -0.2578  0.0784
  500MOL0     C68904   2.523  11.840   6.889  0.1589  0.3302  0.3908
  500MOL0     C68905   2.414  11.731   6.908 -0.8031 -0.1631  0.1959
  500MOL0     C68906   2.332  11.742   7.034  0.8922  0.2741  0.1419
  500MOL0    Cl68907   2.265  11.894   7.070 -0.1802 -0.0400 -0.1968
  500MOL0     C68908   2.596  11.211   6.892  0.8571 -0.1660 -0.8889
  500MOL0     C68909   2.524  11.137   6.985  0.7742 -0.3150 -0.1087
  500MOL0     O68910   2.341  10.799   6.922  0.0349  0.0543  0.0766
  500MOL0     C68911   2.255  10.699   7.182  0.9415  0.2624  0.1770
  500MOL0     C68912   2.184  10.608   7.263 -0.0089 -0.1454  0.5013
  500MOL0     N68913   1.644   9.933   7.218 -0.6975 -0.0120 -0.4341
  500MOL0     N68914   1.656   9.806   7.230  0.9913 -0.2824  0.2669
  500MOL0     C68915   2.149   8.488   7.187 -0.1669 -0.2480 -0.5539
  500MOL0     C68916   2.215   8.375   7.162  0.6621  0.1694 -1.0696
  500MOL0     C68917   2.577   8.103   7.055 -0.3034 -0.6854  0.0510
  500MOL0     C68918   2.515   7.986   7.101  0.4031 -0.2524 -0.3710
  500MOL0     C68919   2.553   7.856   7.058  0.4305 -0.4328  0.5624
  500MOL0     C68920   2.654   7.845   6.965  0.5120 -0.4401  0.5759
  500MOL0     O68921   2.706   7.717   6.940  0.4889 -0.2828  1.0272
  500MOL0     C68922   2.708   7.676   6.794  0.1009  0.3118 -0.6365
  500MOL0     C68923   2.813   7.563   6.776  0.1798  0.0893  0.4670
  500MOL0     C68924   2.959   7.605   6.757 -0.9683  0.9274 -0.0056
  500MOL0     C68925   2.981   7.655   6.612  0.1968 -0.0037  0.4273
  500MOL0     C68926   2.954   7.802   6.593 -0.2107 -0.6271 -0.3670
  500MOL0     C68927   2.946   7.918   6.585  1.4773 -0.3798  0.1624
  500MOL0     C68928   2.720   7.962   6.918 -0.2102 -1.2553  0.5048
  500MOL0     C68929   2.686   8.091   6.966 -0.5286 -0.6733 -1.0093
  500MOL0     C68930   2.774   8.208   6.922  0.3754 -0.5366  0.1624
  500MOL0     H68931   2.509   8.510   7.062 -0.2279  0.2752 -1.3895
  500MOL0     H68932   2.377   8.717   7.115 -4.9120  2.4745  2.5644
  500MOL0     H68933   2.132   8.850   7.027  1.1166  2.1957 -0.3557
  500MOL0     H68934   2.208   8.904   7.182 -1.8294  0.0285  1.6468
  500MOL0     H68935   1.906   8.871   7.136 -0.7529 -1.1319  0.7297
  500MOL0     H68936   1.969   8.893   7.297 -2.1945  1.6324  0.3513
  500MOL0     H68937   2.099   9.097   7.148 -0.6013 -0.1452 -3.1926
  500MOL0     H68938   1.962   9.063   7.057 -0.3455 -1.6971  1.4204
  500MOL0     H68939   1.791   9.114   7.213  0.0039  2.0499  0.6716
  500MOL0     H68940   1.917   9.132   7.347  0.8219  1.4693  0.5378
  500MOL0     H68941   1.798   9.302   7.124 -0.5648 -3.2768  0.1194
  500MOL0     H68942   1.980   9.321   7.145  0.5866 -0.8094  0.8889
  500MOL0     H68943   1.765   9.363   7.359 -0.4207  0.2380  0.2199
  500MOL0     H68944   1.935   9.389   7.380 -0.3213  0.3681  1.3311
  500MOL0     H68945   1.769   9.529   7.161  0.8193  0.1509  0.8525
  500MOL0     H68946   1.938   9.557   7.193  1.1655 -4.4858 -1.9570
  500MOL0     H68947   1.718   9.598   7.414  1.1027 -0.2088  1.4234
  500MOL0     H68948   1.882   9.625   7.421  3.0726  0.1604 -1.9522
  500MOL0     H68949   1.935   9.884   7.379 -0.1435  1.8165 -1.0965
  500MOL0     H68950   1.788  10.160   7.167 -1.3736  2.4471  1.2093
  500MOL0     H68951   1.918  10.131   7.285  0.0829 -1.4631 -1.2132
  500MOL0     H68952   1.658  10.257   7.353 -1.1058 -2.1068 -2.6378
  500MOL0     H68953   1.740  10.153   7.468 -1.5907  0.7279 -0.0329
  500MOL0     H68954   1.812  10.393   7.503 -1.2159 -2.9383  2.2637
  500MOL0     H68955   1.949  10.295   7.452  0.2313 -0.9780 -1.6257
  500MOL0     H68956   1.940  10.388   7.238  1.6350  0.6163 -0.4823
  500MOL0     H68957   1.794  10.495   7.267 -1.6028 -0.8230  1.1917
  500MOL0     H68958   1.883  10.736   7.230  0.1052 -5.8895  2.0899
  500MOL0     H68959   1.999  10.894   6.927 -1.8426 -0.9092 -1.0061
  500MOL0     H68960   2.046  11.010   7.064 -2.0755 -1.3348  4.6875
  500MOL0     H68961   1.891  10.926   7.063 -0.2021 -1.2761  3.7206
  500MOL0     H68962   2.262  11.045   6.780  0.5783  1.7863 -1.9104
  500MOL0     H68963   2.399  11.176   6.626 -0.0833  0.5705  0.6028
  500MOL0     H68964   2.788  11.236   6.739  2.7876 -0.2499 -1.9838
  500MOL0     H68965   2.808  11.306   6.580  1.2098 -1.2171  0.2958
  500MOL0     H68966   2.808  11.439   6.835 -0.7338 -2.6519  0.4551
  500MOL0     H68967   2.844  11.497   6.666 -0.0207 -3.7819 -2.3754
  500MOL0     H68968   2.582  11.522   6.816 -2.0592  2.6013 -0.8672
  500MOL0     H68969   2.593  11.560   6.647  0.5317 -0.4559  0.4391
  500MOL0     H68970   2.761  11.739   6.708 -0.8559  1.8150  1.4821
  500MOL0     H68971   2.730  11.704   6.880 -0.2332 -0.3146  0.0015
  500MOL0     H68972   2.641  11.903   6.726 -2.6199  0.2903 -2.5929
  500MOL0     H68973   2.516  11.793   6.679 -0.3532  0.7303 -0.1124
  500MOL0     H68974   2.469  11.933   6.869 -0.4162 -0.0818 -0.0444
  500MOL0     H68975   2.596  11.841   6.970  1.0648  4.2494 -0.2800
  500MOL0     H68976   2.453  11.629   6.901  1.5413  0.6699  0.1423
  500MOL0     H68977   2.337  11.751   6.833 -0.2871  4.1197  0.6043
  500MOL0     H68978   2.394  11.717   7.121  1.5175 -0.5744 -0.5335
  500MOL0     H68979   2.252  11.669   7.024  3.2974 -2.8145  1.4610
  500MOL0     H68980   2.672  11.274   6.937 -1.2227  0.8957  1.2935
  500MOL0     H68981   2.561  11.135   7.087 -3.0194  2.5499  1.5432
  500MOL0     H68982   2.361  10.683   7.166  1.1562  1.8111 -0.0724
  500MOL0     H68983   2.226  10.517   7.302  0.1012 -0.2239  0.2007
  500MOL0     H68984   2.043   8.490   7.210 -0.1976  1.7228 -0.7137
  500MOL0     H68985   2.167   8.277   7.172 -0.3099  0.5695 -1.6490
  500MOL0     H68986   2.435   8.002   7.173  0.8815 -3.6052  1.0679
  500MOL0     H68987   2.504   7.765   7.091 -0.9882 -0.1779 -0.7018
  500MOL0     H68988   2.615   7.629   6.761  1.5364 -2.9477 -0.4510
  500MOL0     H68989   2.725   7.759   6.724  0.4787  0.5210 -0.2977
  500MOL0     H68990   2.793   7.517   6.678 -1.7444  1.9149 -0.0762
  500MOL0     H68991   2.802   7.497   6.863  0.3839  2.4519  2.3767
  500MOL0     H68992   3.001   7.671   6.833 -2.7490  2.6076 -0.4249
  500MOL0     H68993   3.026   7.519   6.767  0.5945  1.8058 -2.1353
  500MOL0     H68994   2.914   7.612   6.536  1.1499  0.7385 -0.8837
  500MOL0     H68995   3.075   7.626   6.565  0.6972  2.2780 -0.0965
  500MOL0     H68996   2.960   8.020   6.554  0.4511 -0.0078  0.8656
  500MOL0     H68997   2.794   7.955   6.839 -2.8503 -2.5195 -2.0901
  500MOL0     H68998   2.858   8.231   6.987  0.9462 -1.3883 -0.2532
  500MOL0     H68999   2.820   8.178   6.827 -1.6532  1.6499 -1.6342
  500MOL0     H69000   2.724   8.304   6.907  1.5872 -0.0352 -0.8716
  501MOL0     O69001   8.201   9.808   1.348 -0.3442  0.3782  0.8783
  501MOL0     C69002   8.195   9.692   1.295  0.2589  0.3084  0.6506
  501MOL0     O69003   8.272   9.578   1.336 -0.2220 -0.4077 -0.1772
  501MOL0     C69004   8.379   9.593   1.419  0.2773  0.2932  0.0767
  501MOL0     C69005   8.413   9.489   1.504 -0.6595 -0.0600  0.0144
  501MOL0     C69006   8.543   9.474   1.558  0.7492  0.4219 -0.2899
  501MOL0     C69007   8.634   9.582   1.555  0.1807 -0.6263 -0.6007
  501MOL0     O69008   8.760   9.591   1.607  0.6092  0.4520 -0.0428
  501MOL0     C69009   8.834   9.474   1.637 -0.6631  0.6735  1.0133
  501MOL0     C69010   8.984   9.496   1.625  0.0126 -1.0030  0.4718
  501MOL0     C69011   9.042   9.472   1.488  0.1546 -0.4431  0.2539
  501MOL0     C69012   8.975   9.552   1.374  0.1425  0.0194 -1.2292
  501MOL0     C69013   9.067   9.542   1.248 -0.6373 -0.0041  0.6285
  501MOL0     C69014   9.016   9.628   1.136 -0.3926 -0.1389 -0.0217
  501MOL0     C69015   9.079   9.578   1.010 -0.3608  0.8061 -0.0986
  501MOL0     C69016   9.226   9.614   0.986 -0.8787 -0.3889  0.3123
  501MOL0     N69017   9.284   9.555   0.862 -1.0790 -0.4694  0.0271
  501MOL0     C69018   9.237   9.535   0.737  0.5693  0.1665  0.1010
  501MOL0     C69019   9.305   9.433   0.692  0.2442  0.2313 -0.2471
  501MOL0     C69020   9.264   9.349   0.576 -0.3330 -0.3697 -0.4139
  501MOL0     C69021   9.369   9.373   0.462  0.5351 -0.7858 -0.2060
  501MOL0     C69022   9.500   9.300   0.489 -0.3834  0.4820  0.4485
  501MOL0     C69023   9.591   9.302   0.357  0.6062 -0.2401  0.0684
  501MOL0     O69024   9.545   9.209   0.255 -0.4823  0.7118  1.2733
  501MOL0     C69025   9.614   9.172   0.145 -0.4241  0.7052 -0.5352
  501MOL0     C69026   9.745   9.211   0.120 -1.0925 -0.7977  0.3673
  501MOL0     C69027   9.826   9.169   0.003 -0.0382 -0.2234  0.6873
  501MOL0     C69028   9.972   9.214   0.011  0.8324  0.1829  0.3396
  501MOL0     C69029   9.766   9.078  -0.094  0.9334 -0.2686  0.0013
  501MOL0     C69030   9.829   9.024  -0.214 -0.0723 -1.2265 -0.4736
  501MOL0     O69031   9.761   8.942  -0.295  0.4027 -0.6021  0.3608
  501MOL0     C69032   9.829   8.860  -0.377  0.5265 -1.4636  0.3221
  501MOL0     C69033   9.955   8.812  -0.353  0.1284  0.2130  0.8203
  501MOL0     C69034  10.016   8.725  -0.447  0.1395 -0.5274 -0.8022
  501MOL0     C69035   9.959   8.708  -0.568 -0.1043 -0.0723 -0.0485
  501MOL0     O69036  10.020   8.632  -0.662 -0.2904 -0.1999  0.7579
  501MOL0     C69037  10.049   8.688  -0.792  0.3494  0.6251  0.7327
  501MOL0     C69038  10.197   8.704  -0.815  0.0330  0.2511 -0.4710
  501MOL0     C69039  10.227   8.738  -0.958  0.6589  1.0506 -0.1680
  501MOL0     C69040  10.371   8.706  -0.988  0.7589  0.4176 -0.3621
  501MOL0     C69041  10.416   8.709  -1.132 -0.7609  0.7328  0.0350
  501MOL0     C69042  10.572   8.707  -1.127 -0.2178  0.1602 -0.1090
  501MOL0     C69043  10.637   8.582  -1.123 -0.3348  0.0994 -0.8743
  501MOL0     C69044  10.788   8.605  -1.142 -0.8620 -0.1401  0.3724
  501MOL0    Cl69045  10.885   8.519  -1.023 -0.3119 -0.3894 -0.0144
  501MOL0     C69046   9.836   8.759  -0.597  0.4773  0.6514  0.4087
  501MOL0     C69047   9.767   8.827  -0.491 -0.2802  0.8104 -0.0596
  501MOL0     O69048   9.937   9.077  -0.240 -0.3416 -0.0184  0.2124
  501MOL0     C69049   9.634   9.048  -0.066 -0.1737  0.1833 -0.0891
  501MOL0     C69050   9.559   9.093   0.048  0.9369 -0.5794 -0.9005
  501MOL0     N69051   9.414   9.408   0.776 -0.0911 -0.7851  0.1855
  501MOL0     N69052   9.400   9.492   0.872 -0.7592  0.1081 -0.7213
  501MOL0     C69053   8.588   9.702   1.491  0.3122  0.3770  0.1110
  501MOL0     C69054   8.465   9.701   1.429  0.1706 -0.1650  0.3268
  501MOL0     C69055   8.089   9.675   1.195 -0.0630 -0.1761 -0.4785
  501MOL0     C69056   7.956   9.713   1.228  0.0174  0.1629  0.2749
  501MOL0     C69057   7.856   9.702   1.141 -0.4463 -0.7306 -0.0478
  501MOL0     C69058   7.887   9.647   1.018  0.2135 -0.0903  0.4315
  501MOL0     O69059   7.782   9.649   0.931 -0.9505  0.6461  0.8172
  501MOL0     C69060   7.778   9.559   0.819  0.0098  0.0232 -0.6795
  501MOL0     C69061   7.640   9.573   0.758  0.3752  0.5845  0.7211
  501MOL0     C69062   7.593   9.715   0.736 -0.2665 -0.3839  0.0084
  501MOL0     C69063   7.454   9.703   0.663 -0.0511  0.4138  0.2193
  501MOL0     C69064   7.364   9.804   0.716 -0.6231 -0.6159  0.9802
  501MOL0     C69065   7.288   9.896   0.746  0.5609  1.2569  0.3268
  501MOL0     C69066   8.013   9.613   0.977 -0.3230 -0.7703 -0.1037
  501MOL0     C69067   8.117   9.636   1.068 -0.1935 -0.8261  1.0642
  501MOL0     C69068   8.264   9.610   1.019 -0.3206  0.6468 -0.2408
  501MOL0     H69069   8.359   9.396   1.519 -2.4751  0.6483 -1.6964
  501MOL0     H69070   8.575   9.377   1.595 -1.6433  0.0098  0.9105
  501MOL0     H69071   8.809   9.406   1.556  1.3896  0.8793  0.1451
  501MOL0     H69072   8.802   9.438   1.735  0.4294 -0.5285  0.9525
  501MOL0     H69073   8.996   9.602   1.647  0.6265 -1.0465  0.3866
  501MOL0     H69074   9.052   9.435   1.686 -2.1099 -0.3718  3.6879
  501MOL0     H69075   9.144   9.513   1.489 -1.0328  2.8182  0.6429
  501MOL0     H69076   9.039   9.365   1.469  1.8022 -0.7445  1.4405
  501MOL0     H69077   8.872   9.521   1.356 -0.6068  1.9936 -0.6072
  501MOL0     H69078   8.976   9.656   1.410  3.0001  0.2152 -1.6332
  501MOL0     H69079   9.051   9.437   1.222 -3.6059  0.5040  0.0102
  501MOL0     H69080   9.174   9.560   1.264 -0.3901  0.3543 -1.2374
  501MOL0     H69081   8.910   9.599   1.142  0.1459 -1.9403  2.5460
  501MOL0     H69082   9.027   9.737   1.137 -1.1776  0.0545 -3.0584
  501MOL0     H69083   9.022   9.612   0.922 -0.2057 -1.9312 -1.3427
  501MOL0     H69084   9.078   9.470   0.998 -0.5845  1.0486 -2.9119
  501MOL0     H69085   9.256   9.720   0.987 -0.4490 -0.4418 -1.9858
  501MOL0     H69086   9.276   9.572   1.074 -1.0610  0.3816  0.7979
  501MOL0     H69087   9.150   9.576   0.687 -0.0110 -0.7943  0.3063
  501MOL0     H69088   9.166   9.385   0.543 -0.6080  0.3164  1.0584
  501MOL0     H69089   9.266   9.243   0.600 -0.6797  0.0416  1.6349
  501MOL0     H69090   9.327   9.334   0.368 -1.2454 -2.6660  1.2783
  501MOL0     H69091   9.392   9.480   0.462 -0.6562 -0.4743 -1.9913
  501MOL0     H69092   9.556   9.340   0.575 -2.9673  0.3758  2.3039
  501MOL0     H69093   9.476   9.197   0.515  1.2221  1.2178  6.3820
  501MOL0     H69094   9.603   9.404   0.320  1.6437  0.3991  2.0666
  501MOL0     H69095   9.692   9.276   0.388 -0.3670 -2.0328  1.9554
  501MOL0     H69096   9.799   9.266   0.196  0.6105  2.7873 -3.0670
  501MOL0     H69097  10.001   9.314  -0.023  2.5623 -0.3970 -0.0017
  501MOL0     H69098  10.038   9.142  -0.039  0.4609  1.3497 -1.9330
  501MOL0     H69099  10.001   9.226   0.116 -2.1856  0.8399  1.1835
  501MOL0     H69100   9.995   8.839  -0.256 -5.0233  4.2126  2.2461
  501MOL0     H69101  10.110   8.678  -0.419  1.8434  3.7270  1.6033
  501MOL0     H69102  10.019   8.615  -0.868  3.1530  1.1399 -1.0142
  501MOL0     H69103  10.002   8.781  -0.825  0.2801  0.1493 -0.6000
  501MOL0     H69104  10.235   8.788  -0.757 -0.4507  2.3727 -3.0477
  501MOL0     H69105  10.242   8.611  -0.778  0.9912 -0.5349 -3.3860
  501MOL0     H69106  10.211   8.845  -0.971 -2.6812  0.4368 -2.6013
  501MOL0     H69107  10.163   8.689  -1.032 -2.3426  2.5138  1.2669
  501MOL0     H69108  10.381   8.603  -0.954 -1.0780  0.6542  1.0196
  501MOL0     H69109  10.430   8.774  -0.925  0.0324 -1.0513  2.0272
  501MOL0     H69110  10.379   8.619  -1.180  0.0823 -0.6841  1.9245
  501MOL0     H69111  10.385   8.797  -1.189  2.2508  0.3556 -2.4058
  501MOL0     H69112  10.598   8.776  -1.046  2.9435  1.0241 -1.6846
  501MOL0     H69113  10.613   8.761  -1.213  1.8804 -0.6159  0.3499
  501MOL0     H69114  10.596   8.514  -1.198  0.2426 -3.0835  1.4832
  501MOL0     H69115  10.615   8.523  -1.035 -0.6925  1.6048  0.0830
  501MOL0     H69116  10.813   8.710  -1.127 -2.5326  0.0850  1.9641
  501MOL0     H69117  10.813   8.569  -1.242 -2.4843  0.1245 -0.1714
  501MOL0     H69118   9.782   8.730  -0.686  0.7519 -0.3591  0.5599
  501MOL0     H69119   9.665   8.857  -0.509 -1.0706 -1.0107  1.1075
  501MOL0     H69120   9.584   8.985  -0.139  1.7417  1.0867 -2.2805
  501MOL0     H69121   9.460   9.052   0.067  0.4976  1.3044  1.4038
  501MOL0     H69122   8.646   9.792   1.503 -4.3264  4.5475 -3.9941
  501MOL0     H69123   8.442   9.796   1.382  1.2445  0.0730  0.2427
  501MOL0     H69124   7.940   9.746   1.330  0.4862 -0.3904  0.5379
  501MOL0     H69125   7.754   9.720   1.175 -0.5741 -3.7471  1.5386
  501MOL0     H69126   7.856   9.587   0.748  1.3094  0.2672  0.7922
  501MOL0     H69127   7.800   9.454   0.838 -1.3660 -0.1063  0.3709
  501MOL0     H69128   7.568   9.517   0.819 -1.0748  1.0395 -0.5158
  501MOL0     H69129   7.632   9.526   0.660 -1.6904  3.8500 -0.8377
  501MOL0     H69130   7.573   9.762   0.833  1.4984  2.0481 -0.6879
  501MOL0     H69131   7.666   9.776   0.682 -1.2253  1.1766  0.3792
  501MOL0     H69132   7.407   9.605   0.677 -1.1788  0.8972 -0.0565
  501MOL0     H69133   7.470   9.716   0.555  0.8386 -2.6211 -0.1314
  501MOL0     H69134   7.223   9.976   0.774 -0.4833  0.3315  0.6424
  501MOL0     H69135   8.038   9.573   0.879 -0.1848 -0.2931 -0.2672
  501MOL0     H69136   8.274   9.501   1.020 -2.5260  0.3887  0.7792
  501MOL0     H69137   8.278   9.661   0.923 -1.0592  1.3148  0.0013
  501MOL0     H69138   8.338   9.654   1.086  0.4514 -0.3970 -0.3706
  502MOL0     O69139   3.282   4.503   9.389  0.0439  0.0439 -0.9920
  502MOL0     C69140   3.170   4.544   9.364  0.4680  0.2270 -0.7729
  502MOL0     O69141   3.071   4.489   9.284 -0.1053  0.0544  0.6015
  502MOL0     C69142   3.093   4.374   9.211  0.3467 -1.3537 -0.6711
  502MOL0     C69143   3.211   4.301   9.200  0.2047  0.6766 -0.0627
  502MOL0     C69144   3.215   4.190   9.122 -0.3329  1.0518  0.2200
  502MOL0     C69145   3.108   4.144   9.047  0.1096  0.1807  0.4421
  502MOL0     O69146   3.119   4.030   8.968  0.0772 -0.5740  0.5711
  502MOL0     C69147   3.019   3.935   8.978  0.3349  0.2438 -0.3659
  502MOL0     C69148   2.992   3.868   9.115 -0.6138  0.3049  0.9363
  502MOL0     C69149   3.063   3.740   9.139 -0.7905  0.5686  0.1501
  502MOL0     C69150   3.034   3.678   9.273  0.0283  0.9312  1.2961
  502MOL0     C69151   3.079   3.530   9.294 -0.5603  0.0739  0.0693
  502MOL0     C69152   3.233   3.511   9.289 -0.1243 -0.1003  0.1390
  502MOL0     C69153   3.274   3.386   9.219 -0.4644  0.0719  0.4547
  502MOL0     C69154   3.238   3.253   9.276 -1.0108 -0.2213 -0.6064
  502MOL0     N69155   3.324   3.217   9.394 -0.3807 -0.1697  1.1413
  502MOL0     C69156   3.458   3.186   9.393 -0.7937  0.0786 -0.0377
  502MOL0     C69157   3.483   3.145   9.521 -0.1760  0.8778  0.5784
  502MOL0     C69158   3.620   3.106   9.578  0.9236  0.6143  0.8737
  502MOL0     C69159   3.668   3.226   9.665  0.0866 -0.0051  0.6075
  502MOL0     C69160   3.788   3.180   9.754 -0.0931  0.1133 -0.3391
  502MOL0     C69161   3.754   3.204   9.903 -0.9103  0.1903 -0.9616
  502MOL0     O69162   3.878   3.208   9.980  0.0854  0.0071  0.5694
  502MOL0     C69163   3.889   3.271  10.099  0.1664  0.2311  0.6662
  502MOL0     C69164   3.839   3.396  10.103 -0.0448 -0.6669 -0.1955
  502MOL0     C69165   3.834   3.466  10.229  0.6010  0.4992 -0.2724
  502MOL0     C69166   3.801   3.611  10.225  0.9231  0.0764  0.4186
  502MOL0     C69167   3.872   3.400  10.348 -0.2340  0.1802  0.4885
  502MOL0     C69168   3.879   3.463  10.484 -0.0834  1.1233 -0.0836
  502MOL0     O69169   3.911   3.383  10.584  0.0895  0.8320  0.5740
  502MOL0     C69170   3.934   3.434  10.704  0.0336  0.1207  0.3192
  502MOL0     C69171   4.068   3.461  10.736 -0.0057 -1.1945  0.4710
  502MOL0     C69172   4.096   3.516  10.859  0.2288  0.3156  1.1067
  502MOL0     C69173   4.002   3.530  10.958 -0.5151 -0.1949  0.0779
  502MOL0     O69174   4.046   3.567  11.085  0.1073 -0.3669 -0.5894
  502MOL0     C69175   4.082   3.451  11.159 -0.4958  0.4122  0.7987
  502MOL0     C69176   4.224   3.476  11.200 -0.0000 -0.9928  0.0360
  502MOL0     C69177   4.243   3.583  11.313  0.1374  0.2511  0.7368
  502MOL0     C69178   4.360   3.668  11.278 -1.0046  0.4292 -0.0517
  502MOL0     C69179   4.485   3.577  11.267  0.1433 -0.8800 -0.6868
  502MOL0     C69180   4.619   3.652  11.224 -0.1296 -0.2650  0.0487
  502MOL0     C69181   4.725   3.561  11.172 -0.8179  0.1628 -0.1958
  502MOL0     C69182   4.848   3.630  11.114  0.1032 -0.1105  0.1258
  502MOL0    Cl69183   4.801   3.747  10.977  0.0744 -0.3610 -0.9778
  502MOL0     C69184   3.868   3.509  10.928  0.6538  0.7911  0.4154
  502MOL0     C69185   3.835   3.468  10.799  0.0179  1.2278  0.5008
  502MOL0     O69186   3.840   3.576  10.505  0.2539 -0.2734  0.2770
  502MOL0     C69187   3.925   3.264  10.332  0.4794  0.0444  0.4665
  502MOL0     C69188   3.935   3.202  10.216  0.3948 -0.3372  0.5674
  502MOL0     N69189   3.369   3.170   9.601  0.7851 -0.0146 -0.6630
  502MOL0     N69190   3.279   3.208   9.520 -0.0123  0.3053  0.3295
  502MOL0     C69191   2.990   4.224   9.055  0.0961  0.7116  0.2315
  502MOL0     C69192   2.984   4.337   9.134  0.2535 -0.9148 -0.4134
  502MOL0     C69193   3.147   4.679   9.413 -0.0787 -0.0399 -0.0535
  502MOL0     C69194   3.238   4.781   9.389 -0.6179 -0.2125  0.7718
  502MOL0     C69195   3.225   4.911   9.437 -0.4959  0.3561  1.0716
  502MOL0     C69196   3.109   4.948   9.507 -0.4730  0.1493  0.5692
  502MOL0     O69197   3.095   5.072   9.574  0.0699  0.3509  0.3495
  502MOL0     C69198   3.083   5.052   9.716 -0.4138  0.2139  0.1252
  502MOL0     C69199   3.005   5.171   9.764  0.4219  0.6044  0.0721
  502MOL0     C69200   3.080   5.309   9.770 -0.7930  0.9146 -0.6527
  502MOL0     C69201   3.190   5.322   9.891  0.2335  0.7944 -0.6668
  502MOL0     C69202   3.147   5.266  10.019  0.1247  0.6285 -0.1260
  502MOL0     C69203   3.126   5.202  10.120  0.2257  0.2430  0.6470
  502MOL0     C69204   3.009   4.854   9.525  0.2593  1.2573  0.2642
  502MOL0     C69205   3.034   4.719   9.488  0.1925  0.5943 -0.0979
  502MOL0     C69206   2.918   4.617   9.523 -0.1361  0.2477 -0.2537
  502MOL0     H69207   3.307   4.323   9.246  0.8476 -0.9145 -0.5863
  502MOL0     H69208   3.307   4.132   9.115 -0.5564  0.8593 -1.4215
  502MOL0     H69209   3.034   3.864   8.896  1.9780  0.2700 -0.1172
  502MOL0     H69210   2.921   3.972   8.945 -0.4414 -2.4084 -1.2628
  502MOL0     H69211   3.024   3.939   9.191  0.9606 -1.4711  2.0256
  502MOL0     H69212   2.883   3.857   9.120 -0.8990  2.2720 -0.1020
  502MOL0     H69213   3.028   3.665   9.068  0.4243 -2.0258  2.1134
  502MOL0     H69214   3.171   3.754   9.127 -0.9687  2.0576  0.0667
  502MOL0     H69215   3.087   3.740   9.346  1.1714  3.9167 -1.7867
  502MOL0     H69216   2.929   3.685   9.303 -0.0976 -1.4648  1.5659
  502MOL0     H69217   3.038   3.470   9.211 -2.4356 -1.6000  2.0745
  502MOL0     H69218   3.049   3.485   9.389  4.8627  2.4414  3.3148
  502MOL0     H69219   3.283   3.590   9.231 -0.6293  0.3572  0.3126
  502MOL0     H69220   3.264   3.518   9.393  0.7542 -2.5478  0.0937
  502MOL0     H69221   3.383   3.383   9.220 -0.4699 -1.4854 -0.8478
  502MOL0     H69222   3.242   3.385   9.114  0.7817 -0.1647  0.0645
  502MOL0     H69223   3.134   3.252   9.310 -1.3556 -0.9491 -1.6638
  502MOL0     H69224   3.254   3.184   9.194  0.5668 -0.0227 -0.4902
  502MOL0     H69225   3.525   3.191   9.307  1.0222 -0.3913  1.3072
  502MOL0     H69226   3.678   3.066   9.495 -0.0772 -3.3082  1.8642
  502MOL0     H69227   3.608   3.025   9.650  2.3434  0.0482  0.4935
  502MOL0     H69228   3.709   3.297   9.592  0.3882  0.0602  0.8360
  502MOL0     H69229   3.593   3.277   9.725 -1.2928 -1.1879 -0.0714
  502MOL0     H69230   3.807   3.076   9.728  0.3406 -0.4050  1.8535
  502MOL0     H69231   3.885   3.226   9.731  1.0385 -1.9832  0.0059
  502MOL0     H69232   3.698   3.297   9.909  0.1323  0.7749 -0.0752
  502MOL0     H69233   3.698   3.116   9.938  1.2386 -1.2464 -0.9451
  502MOL0     H69234   3.815   3.457  10.017 -0.5263 -1.2861 -0.5155
  502MOL0     H69235   3.779   3.650  10.125  0.9445 -0.8374  0.0534
  502MOL0     H69236   3.886   3.673  10.256  0.3379  1.3552 -0.4477
  502MOL0     H69237   3.710   3.624  10.284  0.1895 -1.9882 -0.1822
  502MOL0     H69238   4.149   3.438  10.667  1.1963 -1.0362  1.7855
  502MOL0     H69239   4.198   3.545  10.883  0.1749  2.3295 -0.8161
  502MOL0     H69240   4.030   3.440  11.255 -0.9734  1.7681  0.7210
  502MOL0     H69241   4.086   3.354  11.109 -0.4758  0.1655  1.2701
  502MOL0     H69242   4.275   3.391  11.246 -0.4643 -0.3338  1.8308
  502MOL0     H69243   4.280   3.507  11.111  0.7215  0.2570  0.8940
  502MOL0     H69244   4.257   3.522  11.404  0.5327 -5.3185 -2.5891
  502MOL0     H69245   4.153   3.641  11.333 -0.5713 -0.4541 -0.2887
  502MOL0     H69246   4.378   3.732  11.365 -2.3148  0.6855  0.0418
  502MOL0     H69247   4.340   3.737  11.195 -1.7439  1.4572  0.9539
  502MOL0     H69248   4.498   3.516  11.357 -0.4039 -0.4161 -0.2811
  502MOL0     H69249   4.470   3.498  11.193 -2.0619 -1.3462  0.1653
  502MOL0     H69250   4.645   3.706  11.315 -1.9165  0.1008  0.3804
  502MOL0     H69251   4.586   3.719  11.144 -2.7462 -2.2448 -0.6897
  502MOL0     H69252   4.688   3.484  11.103 -0.1887  0.6489 -1.0979
  502MOL0     H69253   4.761   3.517  11.265 -2.6637  2.9707  1.9808
  502MOL0     H69254   4.912   3.552  11.072 -0.8931 -1.1876  0.5639
  502MOL0     H69255   4.909   3.692  11.181 -0.5735  1.8860 -1.0194
  502MOL0     H69256   3.787   3.524  11.000  1.2826  2.7822  0.7767
  502MOL0     H69257   3.735   3.457  10.760  0.0527  0.5476  0.5967
  502MOL0     H69258   3.964   3.217  10.421 -1.1917 -1.3345  0.5276
  502MOL0     H69259   3.976   3.103  10.201  0.6191  0.0939 -2.3710
  502MOL0     H69260   2.903   4.194   8.998  0.5200 -1.9445  0.8738
  502MOL0     H69261   2.887   4.384   9.142  0.4812 -0.6154  0.8120
  502MOL0     H69262   3.327   4.764   9.330 -0.9934  1.8204 -0.4712
  502MOL0     H69263   3.301   4.988   9.432  0.9391 -0.8751  2.5011
  502MOL0     H69264   3.023   4.965   9.741 -2.2105  0.5697 -2.5168
  502MOL0     H69265   3.185   5.040   9.755 -0.2971 -1.0111 -0.5241
  502MOL0     H69266   2.970   5.155   9.866 -0.6880 -2.2485 -0.6603
  502MOL0     H69267   2.911   5.184   9.709 -1.2675 -3.3818  1.6522
  502MOL0     H69268   3.136   5.316   9.676  1.1339  0.7791  0.4154
  502MOL0     H69269   3.014   5.396   9.767 -1.7055  0.3194  1.1605
  502MOL0     H69270   3.215   5.426   9.912  1.3000  0.3483  0.3852
  502MOL0     H69271   3.290   5.290   9.863  0.2558 -0.7355  0.9595
  502MOL0     H69272   3.098   5.142  10.204  3.6080 -0.1968  1.5753
  502MOL0     H69273   2.917   4.861   9.582 -1.9158 -1.6340 -2.4731
  502MOL0     H69274   2.888   4.634   9.626  2.6906  0.6009  0.5774
  502MOL0     H69275   2.836   4.628   9.451 -0.8828  3.2531  0.9449
  502MOL0     H69276   2.941   4.510   9.534  0.1618  0.3098 -0.2704
  503MOL0     O69277   6.681   4.836   5.192 -0.3021  0.0472 -0.4309
  503MOL0     C69278   6.767   4.910   5.244 -0.2198  0.1338  0.3659
  503MOL0     O69279   6.861   4.981   5.165 -0.1128  0.0195  0.5429
  503MOL0     C69280   6.845   4.980   5.032  0.1721 -1.1885  0.3108
  503MOL0     C69281   6.753   5.058   4.967 -0.0087  0.0529 -0.0377
  503MOL0     C69282   6.743   5.046   4.827 -0.6044  0.0137  0.0315
  503MOL0     C69283   6.831   4.953   4.757 -0.1779 -0.0814 -0.2840
  503MOL0     O69284   6.813   4.914   4.630 -0.0864 -0.4305  0.4715
  503MOL0     C69285   6.895   4.979   4.536  0.2239 -0.9319 -0.5767
  503MOL0     C69286   6.857   4.919   4.403 -0.3910  0.7067 -0.4757
  503MOL0     C69287   6.957   4.947   4.290  0.9715 -0.2319 -0.5944
  503MOL0     C69288   7.097   4.895   4.317 -0.8046  0.2040  0.7503
  503MOL0     C69289   7.177   4.893   4.184 -0.8532 -0.3914 -0.1012
  503MOL0     C69290   7.141   4.771   4.095  0.9081  0.1069  0.5490
  503MOL0     C69291   7.242   4.765   3.971 -0.6030 -0.6131  0.1902
  503MOL0     C69292   7.373   4.691   4.015 -0.0786 -0.0088  0.9876
  503MOL0     N69293   7.352   4.544   4.011  0.0573 -0.9942  0.1170
  503MOL0     C69294   7.341   4.469   3.894  0.1430 -0.0895  0.0774
  503MOL0     C69295   7.329   4.342   3.945 -0.0048  0.7421  0.5825
  503MOL0     C69296   7.339   4.231   3.858  0.4455  0.0994  0.0774
  503MOL0     C69297   7.481   4.206   3.835 -0.3612  0.0620  0.2574
  503MOL0     C69298   7.527   4.309   3.724 -1.1696  0.0955 -0.3517
  503MOL0     C69299   7.661   4.279   3.677  0.2898  0.3815  0.7243
  503MOL0     O69300   7.690   4.377   3.568 -0.2915 -1.3682  0.1398
  503MOL0     C69301   7.800   4.362   3.493  0.3807 -0.3134 -0.4171
  503MOL0     C69302   7.816   4.441   3.381  0.3497 -0.7538  0.5066
  503MOL0     C69303   7.910   4.426   3.290 -0.1813  0.4974  0.1945
  503MOL0     C69304   7.905   4.525   3.173 -0.2058  0.0120  0.2493
  503MOL0     C69305   8.020   4.339   3.313 -0.5691 -0.5088 -0.3705
  503MOL0     C69306   8.142   4.316   3.228 -0.4453 -0.1909  0.2024
  503MOL0     O69307   8.240   4.233   3.276  0.0155 -0.2078  0.1657
  503MOL0     C69308   8.345   4.216   3.185  0.1225  0.3109  0.6903
  503MOL0     C69309   8.325   4.166   3.052  0.0354 -1.0979  0.4835
  503MOL0     C69310   8.430   4.137   2.964  0.2638  0.1182  0.8607
  503MOL0     C69311   8.561   4.152   3.013  0.0735 -0.1783 -0.1722
  503MOL0     O69312   8.676   4.104   2.944 -0.1244  0.9710 -0.3588
  503MOL0     C69313   8.660   4.004   2.838 -0.3300  0.1420  0.2430
  503MOL0     C69314   8.795   3.986   2.765 -0.5958  0.0191 -0.2438
  503MOL0     C69315   8.923   3.966   2.858  0.6495 -0.2928  0.7888
  503MOL0     C69316   9.039   3.890   2.794 -0.2215 -0.6208  0.2929
  503MOL0     C69317   9.121   3.970   2.694  0.1845  0.8915 -0.4346
  503MOL0     C69318   9.251   3.909   2.657  1.0625  0.4340  0.6210
  503MOL0     C69319   9.243   3.803   2.547  0.1025  0.4738  0.6596
  503MOL0     C69320   9.304   3.670   2.594  0.8327  1.1492  0.3772
  503MOL0    Cl69321   9.478   3.686   2.626  0.3697  0.1069 -0.2072
  503MOL0     C69322   8.589   4.196   3.140  0.1401 -0.1725 -0.9520
  503MOL0     C69323   8.477   4.239   3.223  0.0306 -0.1339 -0.1898
  503MOL0     O69324   8.159   4.392   3.133  0.0633 -0.5907  1.1132
  503MOL0     C69325   8.012   4.264   3.430  0.4060  0.0294  0.4399
  503MOL0     C69326   7.899   4.264   3.511  0.1537 -0.3498  0.0105
  503MOL0     N69327   7.317   4.346   4.083  0.1127 -0.3157  0.2963
  503MOL0     N69328   7.339   4.466   4.123 -0.0374 -1.1159  0.3540
  503MOL0     C69329   6.933   4.885   4.830  0.1414 -0.4363 -0.2288
  503MOL0     C69330   6.933   4.896   4.968 -0.5031 -0.1129  0.0425
  503MOL0     C69331   6.775   4.926   5.393  0.8853  0.1560 -0.1546
  503MOL0     C69332   6.716   4.830   5.472  0.7893 -0.7575 -0.3704
  503MOL0     C69333   6.738   4.815   5.605 -0.0147 -0.1859 -0.0860
  503MOL0     C69334   6.808   4.911   5.673 -0.9461  0.1592  0.6453
  503MOL0     O69335   6.835   4.910   5.814  0.4010  0.3591  0.1061
  503MOL0     C69336   6.880   5.035   5.877  0.8685  0.9592 -0.6838
  503MOL0     C69337   6.938   4.977   6.003 -0.2757 -0.5386 -0.5071
  503MOL0     C69338   6.949   5.088   6.103 -0.2875 -0.0883 -0.6020
  503MOL0     C69339   7.061   5.055   6.211 -0.0278  0.1715 -0.4996
  503MOL0     C69340   7.198   5.081   6.164  0.6498  0.4563 -0.4414
  503MOL0     C69341   7.297   5.117   6.105 -1.2415  0.0947 -0.6849
  503MOL0     C69342   6.868   5.013   5.597  0.4331 -0.3934 -0.5176
  503MOL0     C69343   6.861   5.025   5.461  0.1245  0.8003  0.2082
  503MOL0     C69344   6.933   5.131   5.388 -0.3800  0.0716 -0.2490
  503MOL0     H69345   6.696   5.129   5.026 -0.5254  0.8768 -1.4876
  503MOL0     H69346   6.664   5.094   4.772 -2.9153 -2.1157  1.2761
  503MOL0     H69347   6.999   4.949   4.551  0.5013  1.1684  2.4481
  503MOL0     H69348   6.900   5.088   4.546 -0.6753 -0.8690 -0.7617
  503MOL0     H69349   6.857   4.810   4.413  2.0339  0.5976 -1.0270
  503MOL0     H69350   6.751   4.945   4.392 -0.3087  2.0805  1.4421
  503MOL0     H69351   6.906   4.911   4.200 -1.9469 -2.4236  1.7233
  503MOL0     H69352   6.956   5.056   4.278 -2.4435 -0.2897 -1.8436
  503MOL0     H69353   7.156   4.960   4.382  0.7350  1.8177 -2.0647
  503MOL0     H69354   7.097   4.791   4.351 -1.6391 -0.2857 -0.6604
  503MOL0     H69355   7.284   4.886   4.206 -0.1443  0.2592 -2.9710
  503MOL0     H69356   7.163   4.985   4.126  1.1224  0.1065  0.1345
  503MOL0     H69357   7.153   4.677   4.148  0.6726  0.6437  1.5688
  503MOL0     H69358   7.043   4.783   4.048  1.7571 -0.7017 -1.5774
  503MOL0     H69359   7.259   4.868   3.938  1.2625 -1.0772 -0.4537
  503MOL0     H69360   7.205   4.713   3.883  2.2503 -2.3801 -0.1081
  503MOL0     H69361   7.460   4.719   3.955 -0.3168  1.3780  1.2573
  503MOL0     H69362   7.393   4.727   4.116  0.4841 -1.0275  1.2571
  503MOL0     H69363   7.356   4.514   3.797 -0.0754  0.9455  0.5100
  503MOL0     H69364   7.291   4.251   3.762 -2.7759  1.2914  1.7690
  503MOL0     H69365   7.295   4.141   3.903 -2.2964  0.0708 -2.3391
  503MOL0     H69366   7.549   4.204   3.921 -0.5899  0.8694  0.4654
  503MOL0     H69367   7.478   4.109   3.785 -1.7664  1.5123 -2.7329
  503MOL0     H69368   7.451   4.322   3.647 -1.1984 -1.5349 -0.6262
  503MOL0     H69369   7.541   4.403   3.778 -4.0830  0.1735  0.4089
  503MOL0     H69370   7.733   4.284   3.759 -0.2398 -0.4248  1.2557
  503MOL0     H69371   7.668   4.177   3.637 -3.9633  0.5145 -0.8156
  503MOL0     H69372   7.740   4.513   3.352 -0.8728 -2.2227 -0.0788
  503MOL0     H69373   7.991   4.592   3.180 -0.1870  0.7681 -4.3782
  503MOL0     H69374   7.817   4.589   3.182 -0.9830 -1.0264  0.2417
  503MOL0     H69375   7.902   4.474   3.077  0.5076  3.0317 -1.4854
  503MOL0     H69376   8.225   4.132   3.028  0.0350 -0.2054 -0.9441
  503MOL0     H69377   8.401   4.098   2.866 -0.6614  0.3068  1.0541
  503MOL0     H69378   8.632   3.909   2.883  0.4694 -1.4290 -2.3870
  503MOL0     H69379   8.593   4.046   2.762 -0.5087  0.5581  0.6232
  503MOL0     H69380   8.777   3.888   2.718  0.2261  0.2590 -1.0781
  503MOL0     H69381   8.826   4.059   2.690  1.0016  2.3982  2.5027
  503MOL0     H69382   8.904   3.913   2.952  2.1627 -1.5462  0.4441
  503MOL0     H69383   8.967   4.062   2.888  2.1096 -1.2246  1.8158
  503MOL0     H69384   9.013   3.796   2.744  0.8143  0.1929 -1.9529
  503MOL0     H69385   9.107   3.864   2.876  0.8033  0.3422 -0.2193
  503MOL0     H69386   9.061   3.989   2.604 -0.1023 -1.2472 -0.7458
  503MOL0     H69387   9.142   4.063   2.748  2.4124  0.4610 -0.4924
  503MOL0     H69388   9.291   3.867   2.750 -1.1907 -1.0178  1.0198
  503MOL0     H69389   9.329   3.980   2.628 -0.0444  2.2548  1.8895
  503MOL0     H69390   9.304   3.830   2.460  1.8609 -2.1356  0.9693
  503MOL0     H69391   9.141   3.782   2.512  0.9551 -3.5142  0.0593
  503MOL0     H69392   9.288   3.589   2.522  1.3378  0.6239  0.8530
  503MOL0     H69393   9.264   3.639   2.690  2.4472 -0.4141  0.5925
  503MOL0     H69394   8.684   4.199   3.193 -0.9089 -0.6569  1.0812
  503MOL0     H69395   8.490   4.287   3.320  4.0023 -0.7169 -0.2842
  503MOL0     H69396   8.090   4.194   3.458  1.1521 -0.5169 -2.5819
  503MOL0     H69397   7.893   4.191   3.592  1.5786 -1.9770 -1.2572
  503MOL0     H69398   7.023   4.851   4.780  1.9842  3.8579 -0.3267
  503MOL0     H69399   7.020   4.855   5.018 -0.7619 -4.1795 -2.4026
  503MOL0     H69400   6.664   4.749   5.422  2.2282 -0.7918 -1.8882
  503MOL0     H69401   6.696   4.729   5.655 -1.1540  0.5746  0.3068
  503MOL0     H69402   6.946   5.114   5.842  1.5633  0.9916  0.6381
  503MOL0     H69403   6.794   5.099   5.897  0.1878  0.4795 -1.9408
  503MOL0     H69404   7.038   4.944   5.972  2.1315  3.5208  2.0430
  503MOL0     H69405   6.887   4.894   6.054  1.1137 -1.5457 -0.6679
  503MOL0     H69406   6.976   5.184   6.059 -0.7008  0.3026 -0.0115
  503MOL0     H69407   6.849   5.102   6.144  0.0232 -0.4674  0.3049
  503MOL0     H69408   7.058   4.951   6.244  3.1895  0.7393  1.9995
  503MOL0     H69409   7.056   5.129   6.291  2.4935  1.6557 -1.5840
  503MOL0     H69410   7.385   5.143   6.050  0.3576  0.9972  2.1232
  503MOL0     H69411   6.917   5.097   5.645  0.4553 -0.9304  0.4263
  503MOL0     H69412   6.998   5.076   5.320  1.9077 -0.0087  1.8683
  503MOL0     H69413   6.867   5.190   5.323  1.3957 -1.2132 -3.4306
  503MOL0     H69414   6.994   5.193   5.453  0.3582  0.2495 -1.0956
  504MOL0     O69415   3.473   6.058   5.363  0.7696 -0.0899 -0.0474
  504MOL0     C69416   3.473   6.173   5.310 -0.0446  0.9346 -0.0474
  504MOL0     O69417   3.536   6.199   5.187 -0.6892 -1.0275  0.0266
  504MOL0     C69418   3.579   6.097   5.106  0.5393 -0.8269  0.9468
  504MOL0     C69419   3.701   6.126   5.034  0.3431  0.8568  0.7080
  504MOL0     C69420   3.760   6.028   4.952  0.9484  0.0995 -0.6483
  504MOL0     C69421   3.689   5.917   4.920 -0.5708 -0.1660  0.7259
  504MOL0     O69422   3.733   5.807   4.855  0.4158 -0.3723 -0.6238
  504MOL0     C69423   3.864   5.807   4.813 -0.5169  0.1456 -0.1484
  504MOL0     C69424   3.883   5.680   4.730  0.6374  0.2013 -0.5218
  504MOL0     C69425   4.023   5.689   4.676  0.8661  0.2897 -0.7450
  504MOL0     C69426   4.024   5.603   4.553  0.1334 -0.0796  0.2615
  504MOL0     C69427   4.170   5.556   4.525 -0.2154 -1.3835 -0.5626
  504MOL0     C69428   4.269   5.671   4.481 -0.6917  0.0615 -0.0863
  504MOL0     C69429   4.415   5.624   4.484  0.3551  0.5165 -0.3707
  504MOL0     C69430   4.468   5.524   4.384  0.5427  0.6449  0.2161
  504MOL0     N69431   4.605   5.481   4.411  0.0835 -0.1657 -0.9360
  504MOL0     C69432   4.710   5.541   4.349 -0.1702 -0.4062 -0.6201
  504MOL0     C69433   4.824   5.491   4.402 -0.3171  0.0881  0.8946
  504MOL0     C69434   4.959   5.521   4.335  0.2177  0.6634  0.4245
  504MOL0     C69435   5.080   5.512   4.431 -0.4864  1.1567  0.5264
  504MOL0     C69436   5.134   5.373   4.474  0.3139 -0.3436 -0.2610
  504MOL0     C69437   5.258   5.387   4.558 -0.1559  0.1561 -0.0662
  504MOL0     O69438   5.226   5.459   4.682 -0.0900 -0.4741  0.0116
  504MOL0     C69439   5.288   5.578   4.708 -0.1650  0.0020 -0.8347
  504MOL0     C69440   5.416   5.631   4.668  0.1610 -0.2247  0.6931
  504MOL0     C69441   5.464   5.759   4.692  0.0193  0.0566  0.9311
  504MOL0     C69442   5.594   5.791   4.618 -0.0599  0.4934  0.8364
  504MOL0     C69443   5.377   5.849   4.756 -0.0998 -0.0034 -0.0369
  504MOL0     C69444   5.408   5.994   4.774 -0.5436  0.2385 -0.0746
  504MOL0     O69445   5.343   6.068   4.872  0.6739  0.4290  0.2326
  504MOL0     C69446   5.335   6.196   4.842 -0.1463  0.1529 -0.0226
  504MOL0     C69447   5.428   6.287   4.895  0.4462 -0.3245 -1.1307
  504MOL0     C69448   5.432   6.418   4.877  0.1292  1.0110 -0.5636
  504MOL0     C69449   5.330   6.466   4.792 -0.3313  0.2660 -1.0469
  504MOL0     O69450   5.326   6.601   4.755  0.2462  0.1267 -0.2678
  504MOL0     C69451   5.342   6.694   4.859  0.2861 -0.3828  0.5302
  504MOL0     C69452   5.204   6.701   4.926  0.3208  0.3596  0.9178
  504MOL0     C69453   5.204   6.798   5.047  0.8524 -0.1967  0.4034
  504MOL0     C69454   5.276   6.757   5.176  0.5854  0.0608  0.2712
  504MOL0     C69455   5.215   6.634   5.244  0.0112 -0.4729 -0.0505
  504MOL0     C69456   5.088   6.662   5.330 -0.2350 -0.4928  0.6112
  504MOL0     C69457   5.060   6.535   5.429  0.3544 -0.1363 -0.2245
  504MOL0     C69458   4.912   6.497   5.429 -0.4635  0.8461 -1.1741
  504MOL0    Cl69459   4.817   6.644   5.456  0.3055 -0.4443  0.7684
  504MOL0     C69460   5.227   6.386   4.744 -0.3458  0.2127  0.2385
  504MOL0     C69461   5.234   6.248   4.763  0.7586 -0.0371  0.9395
  504MOL0     O69462   5.485   6.043   4.695  0.4375 -0.1975 -0.0007
  504MOL0     C69463   5.250   5.798   4.796  0.3121  0.3534  0.3364
  504MOL0     C69464   5.208   5.668   4.776 -0.2588  1.2938  0.5178
  504MOL0     N69465   4.779   5.414   4.514 -0.1508  0.6237  0.5742
  504MOL0     N69466   4.653   5.394   4.508  0.3455 -0.2337 -0.0257
  504MOL0     C69467   3.570   5.888   4.975  0.4496 -0.4684 -0.4917
  504MOL0     C69468   3.515   5.977   5.070  1.0387  0.3963 -0.1501
  504MOL0     C69469   3.414   6.293   5.384  0.6179  0.0292 -0.6909
  504MOL0     C69470   3.371   6.403   5.310 -0.2925 -0.0402 -0.2782
  504MOL0     C69471   3.327   6.518   5.365  0.4207 -0.8742 -0.4223
  504MOL0     C69472   3.322   6.532   5.508 -0.5029  1.1128 -0.0474
  504MOL0     O69473   3.269   6.647   5.561  0.4509  0.1039 -0.2733
  504MOL0     C69474   3.334   6.717   5.657 -0.3445 -0.7016 -0.3466
  504MOL0     C69475   3.247   6.803   5.754 -0.2659  0.4983  0.8926
  504MOL0     C69476   3.329   6.868   5.868  0.0473  0.5893  0.9646
  504MOL0     C69477   3.219   6.949   5.947 -0.4898  0.9869  0.2048
  504MOL0     C69478   3.259   6.988   6.084  0.0260  1.0013  0.0899
  504MOL0     C69479   3.303   7.030   6.190  0.2661  0.5045  0.0146
  504MOL0     C69480   3.353   6.416   5.579  0.0373  0.6721 -0.1789
  504MOL0     C69481   3.408   6.299   5.518  0.2956 -0.3880  0.6100
  504MOL0     C69482   3.445   6.190   5.612  0.3858 -0.1251  0.1597
  504MOL0     H69483   3.759   6.216   5.053 -0.7250  1.5728  0.6522
  504MOL0     H69484   3.852   6.051   4.900  1.7953 -2.6362 -0.5106
  504MOL0     H69485   3.928   5.805   4.902  0.2899 -3.5797 -0.6464
  504MOL0     H69486   3.882   5.901   4.760 -3.2426  0.6874 -0.2494
  504MOL0     H69487   3.874   5.586   4.787 -0.0416 -1.2064 -2.8099
  504MOL0     H69488   3.814   5.694   4.646 -0.5757  3.0896  0.8443
  504MOL0     H69489   4.036   5.794   4.647  2.8513  0.3250  0.0629
  504MOL0     H69490   4.101   5.668   4.750  0.2790  1.0609  0.1178
  504MOL0     H69491   3.963   5.517   4.583  0.7491  0.3319  2.9784
  504MOL0     H69492   3.979   5.660   4.471  1.0233 -1.2294 -1.0802
  504MOL0     H69493   4.162   5.469   4.459 -0.3754 -1.8284  0.0334
  504MOL0     H69494   4.202   5.515   4.621  2.2226  0.7761 -0.3484
  504MOL0     H69495   4.246   5.718   4.385 -2.0192 -0.9000 -0.2656
  504MOL0     H69496   4.254   5.745   4.560 -0.6963  0.1801 -0.1986
  504MOL0     H69497   4.434   5.581   4.583  2.2452 -1.1436 -1.3775
  504MOL0     H69498   4.481   5.711   4.482  1.9993 -0.6896 -2.1965
  504MOL0     H69499   4.404   5.436   4.379  0.6774  0.6183 -2.2807
  504MOL0     H69500   4.450   5.565   4.284 -0.9156 -2.2793 -0.8229
  504MOL0     H69501   4.709   5.608   4.263  0.7929  1.5883  0.8312
  504MOL0     H69502   4.958   5.623   4.297  0.7623 -0.0921 -1.8055
  504MOL0     H69503   4.975   5.463   4.243 -1.2782  1.4083 -0.3272
  504MOL0     H69504   5.165   5.565   4.387  0.6354 -0.9415  0.0063
  504MOL0     H69505   5.058   5.559   4.526  0.8211 -0.0810  1.4911
  504MOL0     H69506   5.061   5.310   4.527  1.3864  0.0539  1.7971
  504MOL0     H69507   5.162   5.319   4.383  2.8973  0.2587  0.1237
  504MOL0     H69508   5.300   5.287   4.569  0.0384  0.2740  0.2754
  504MOL0     H69509   5.327   5.443   4.494  0.9949 -1.2217 -0.0786
  504MOL0     H69510   5.476   5.576   4.596  0.2082 -2.3102  2.2625
  504MOL0     H69511   5.585   5.844   4.523 -0.3423 -2.2468 -0.7951
  504MOL0     H69512   5.652   5.700   4.601  1.2761  1.3821  0.4483
  504MOL0     H69513   5.646   5.856   4.690 -3.7022  2.9418  1.5021
  504MOL0     H69514   5.508   6.239   4.949  0.6794  2.6225  1.4158
  504MOL0     H69515   5.498   6.490   4.924 -1.5446  0.9848  1.9806
  504MOL0     H69516   5.422   6.686   4.934  1.1603  5.1540  0.5600
  504MOL0     H69517   5.359   6.791   4.812  1.1860 -1.4574 -1.4835
  504MOL0     H69518   5.134   6.717   4.844  0.9479  1.4333  0.5763
  504MOL0     H69519   5.172   6.601   4.956 -2.3185  0.2343 -1.8047
  504MOL0     H69520   5.101   6.832   5.063  2.5550  4.1344  3.9203
  504MOL0     H69521   5.254   6.888   5.012  1.1549 -1.0022 -1.3611
  504MOL0     H69522   5.264   6.842   5.244  0.2313  2.8801 -2.9844
  504MOL0     H69523   5.384   6.747   5.172  0.4835 -0.8652 -0.8581
  504MOL0     H69524   5.183   6.557   5.174 -1.3092 -2.5356  2.6096
  504MOL0     H69525   5.292   6.587   5.307 -2.2925 -1.8756  1.9370
  504MOL0     H69526   5.001   6.670   5.264  2.9300 -1.3196 -4.1776
  504MOL0     H69527   5.105   6.751   5.391 -1.7452 -0.7903  1.5348
  504MOL0     H69528   5.082   6.555   5.534  0.9622  1.5803 -0.6460
  504MOL0     H69529   5.120   6.450   5.396 -1.1022 -0.3106 -2.7421
  504MOL0     H69530   4.888   6.429   5.511  0.6746  1.0074 -0.6879
  504MOL0     H69531   4.886   6.442   5.338  3.1993 -0.5112 -1.5725
  504MOL0     H69532   5.138   6.422   4.692 -1.4815 -2.5853  0.0542
  504MOL0     H69533   5.169   6.173   4.718  0.7399  1.5044 -1.8391
  504MOL0     H69534   5.173   5.862   4.838 -0.1368 -0.6522  1.0601
  504MOL0     H69535   5.108   5.631   4.797 -0.4690  1.0980 -0.7286
  504MOL0     H69536   3.514   5.798   4.954 -0.8507  0.0572  0.6248
  504MOL0     H69537   3.418   5.961   5.117  1.0926  0.6036  0.0304
  504MOL0     H69538   3.388   6.402   5.202 -2.4187  2.4219 -0.7431
  504MOL0     H69539   3.282   6.600   5.310 -4.9585  0.3463  4.7240
  504MOL0     H69540   3.395   6.651   5.719  2.2698 -0.9461 -2.9641
  504MOL0     H69541   3.415   6.780   5.619 -0.8588  0.8456  0.9696
  504MOL0     H69542   3.175   6.737   5.804 -1.5821  0.7889 -0.5574
  504MOL0     H69543   3.192   6.874   5.692 -0.0825 -0.1460 -0.0344
  504MOL0     H69544   3.373   6.793   5.934  0.0985 -0.0694  0.1819
  504MOL0     H69545   3.408   6.931   5.828 -1.0371  0.1671 -2.0681
  504MOL0     H69546   3.138   6.881   5.975 -1.4852  3.0016  2.5787
  504MOL0     H69547   3.175   7.033   5.893 -0.8719  2.0313  2.0571
  504MOL0     H69548   3.332   7.077   6.282 -1.4555 -0.8977  1.3482
  504MOL0     H69549   3.332   6.420   5.686 -0.2370  0.2425 -0.2184
  504MOL0     H69550   3.410   6.225   5.709 -2.3456  0.4324 -0.9582
  504MOL0     H69551   3.379   6.105   5.591  0.4757 -0.5054  1.3342
  504MOL0     H69552   3.552   6.166   5.602  0.5933  0.8325  0.0406
  505MOL0     O69553   8.845   1.212   0.268  0.5163  1.0200  0.2979
  505MOL0     C69554   8.904   1.101   0.275 -0.6403 -0.4061 -0.1536
  505MOL0     O69555   8.933   1.044   0.396 -0.8466  0.3019 -0.0697
  505MOL0     C69556   8.865   1.069   0.519  0.0108  0.6771  0.9877
  505MOL0     C69557   8.936   1.046   0.632 -0.6842  0.7060  1.1953
  505MOL0     C69558   8.878   1.061   0.762  0.2880 -0.0103  0.7973
  505MOL0     C69559   8.745   1.106   0.769  0.6423  0.5024  0.3465
  505MOL0     O69560   8.673   1.135   0.897  0.5726  0.9795  0.1132
  505MOL0     C69561   8.697   1.040   1.004  0.2999  0.5926 -0.0563
  505MOL0     C69562   8.597   0.928   0.974 -0.3516  0.1717  0.5438
  505MOL0     C69563   8.460   0.990   0.942  0.0912  0.2903 -0.3917
  505MOL0     C69564   8.350   0.879   0.963  0.6303  0.9258  0.6450
  505MOL0     C69565   8.204   0.945   0.934 -0.3207  0.6216 -0.0883
  505MOL0     C69566   8.100   0.922   1.043 -0.3127  0.7859  0.2191
  505MOL0     C69567   7.978   0.997   1.003  0.6900  0.1262 -0.0494
  505MOL0     C69568   7.847   0.958   1.070 -0.3279 -0.3385  0.4820
  505MOL0     N69569   7.849   0.944   1.213 -0.1939  0.0053 -0.8549
  505MOL0     C69570   7.912   0.844   1.286 -0.2929 -1.0851 -0.3355
  505MOL0     C69571   7.890   0.877   1.414  0.3539  0.1942 -0.2816
  505MOL0     C69572   7.935   0.799   1.532 -0.1637 -0.1520 -0.4003
  505MOL0     C69573   7.839   0.832   1.647  0.1391  0.6640 -1.4457
  505MOL0     C69574   7.841   0.716   1.757  0.0208  0.1854 -0.1550
  505MOL0     C69575   7.977   0.711   1.839  0.4429  0.7124  0.2852
  505MOL0     O69576   8.004   0.837   1.891  0.6728  0.7149  0.4382
  505MOL0     C69577   8.096   0.855   1.988  0.3812  0.2453  0.3745
  505MOL0     C69578   8.048   0.945   2.083  0.0853 -0.5688 -0.4116
  505MOL0     C69579   8.139   0.991   2.183  0.0717  0.5170  0.3840
  505MOL0     C69580   8.091   1.107   2.273  0.5697 -0.1532  0.4699
  505MOL0     C69581   8.263   0.921   2.204 -0.1489 -0.5036  0.0232
  505MOL0     C69582   8.364   0.941   2.319 -0.0796  0.7164  0.6462
  505MOL0     O69583   8.374   1.068   2.367 -0.4334 -0.4484 -0.5917
  505MOL0     C69584   8.428   1.092   2.491 -0.1714 -0.7527  0.5976
  505MOL0     C69585   8.484   1.218   2.511 -0.2587  0.0155 -0.4428
  505MOL0     C69586   8.537   1.246   2.639  1.1367  0.3662 -0.1426
  505MOL0     C69587   8.540   1.147   2.741  0.5539 -0.5776  0.0890
  505MOL0     O69588   8.581   1.200   2.864 -0.5360  0.3300  0.1299
  505MOL0     C69589   8.597   1.104   2.975  0.6436 -0.3160  0.1256
  505MOL0     C69590   8.629   1.158   3.107 -0.2838 -0.2108 -0.0206
  505MOL0     C69591   8.712   1.286   3.093 -0.2367  0.3242 -0.1940
  505MOL0     C69592   8.745   1.336   3.230 -0.3656 -1.0084  0.4422
  505MOL0     C69593   8.798   1.484   3.222 -0.7328 -0.6385 -0.4281
  505MOL0     C69594   8.904   1.524   3.115  0.0596 -0.1100 -0.3051
  505MOL0     C69595   9.027   1.431   3.142 -0.0522 -0.3475 -0.0187
  505MOL0     C69596   9.153   1.479   3.068  0.6867 -0.5090 -0.5476
  505MOL0    Cl69597   9.281   1.359   3.089 -0.5873 -0.1685 -0.6420
  505MOL0     C69598   8.500   1.019   2.716  0.0414 -0.4789 -0.0837
  505MOL0     C69599   8.432   0.989   2.600 -0.4237 -0.5322 -0.6019
  505MOL0     O69600   8.418   0.836   2.362  1.1345 -0.1592  0.6050
  505MOL0     C69601   8.299   0.835   2.103 -0.0392  0.4595  0.2106
  505MOL0     C69602   8.225   0.806   1.989 -0.4674  1.1333  0.7529
  505MOL0     N69603   7.813   0.995   1.421  0.3597  0.2623  0.1340
  505MOL0     N69604   7.784   1.026   1.298 -0.6041  0.5996 -0.5600
  505MOL0     C69605   8.672   1.119   0.654  0.4659 -0.1431  0.0558
  505MOL0     C69606   8.724   1.081   0.530 -0.1751 -0.3773  0.4877
  505MOL0     C69607   8.948   1.035   0.155 -0.0410 -1.1944 -0.9137
  505MOL0     C69608   9.044   0.935   0.153  0.3893 -0.3336  0.3150
  505MOL0     C69609   9.079   0.870   0.038 -0.5851 -0.4562  0.6848
  505MOL0     C69610   9.038   0.914  -0.096  0.0922  0.3096 -1.2681
  505MOL0     O69611   9.089   0.868  -0.212  0.0902 -0.3736  0.1873
  505MOL0     C69612   9.147   0.738  -0.209  0.4030  0.9265 -0.8062
  505MOL0     C69613   9.124   0.652  -0.332  0.9663  0.3320  0.0611
  505MOL0     C69614   9.205   0.517  -0.321  0.1692  0.0695  0.9810
  505MOL0     C69615   9.186   0.429  -0.448  0.7199  1.3153  0.2414
  505MOL0     C69616   9.260   0.310  -0.417  1.0680 -0.1344 -0.3763
  505MOL0     C69617   9.311   0.202  -0.400 -0.3453  0.0575  0.0798
  505MOL0     C69618   8.943   1.016  -0.086 -0.5402  0.2909  0.8566
  505MOL0     C69619   8.896   1.079   0.024 -0.4865 -0.5171 -0.6776
  505MOL0     C69620   8.793   1.179  -0.003 -0.2506  0.5565 -0.5209
  505MOL0     H69621   9.035   1.001   0.630 -1.4133 -0.9558 -0.4085
  505MOL0     H69622   8.942   1.052   0.850 -0.3589  0.8744  1.3740
  505MOL0     H69623   8.666   1.099   1.091  0.4500  3.2883 -1.7085
  505MOL0     H69624   8.799   1.002   1.014 -0.0295  0.1408  1.7562
  505MOL0     H69625   8.632   0.876   0.884  0.9298  0.9992  0.5431
  505MOL0     H69626   8.594   0.854   1.055 -1.4815 -0.7916 -0.3510
  505MOL0     H69627   8.436   1.077   1.003  2.4642 -0.8478  2.4479
  505MOL0     H69628   8.455   1.002   0.834 -3.9235  1.8498 -0.1679
  505MOL0     H69629   8.359   0.790   0.900  0.3472  0.5541  1.1142
  505MOL0     H69630   8.348   0.828   1.060 -0.8161 -2.1086 -0.8270
  505MOL0     H69631   8.166   0.929   0.833 -0.1351 -0.0094 -0.0604
  505MOL0     H69632   8.225   1.052   0.944  3.8177 -0.2165  3.1878
  505MOL0     H69633   8.073   0.817   1.051  1.6628 -0.1681 -3.3620
  505MOL0     H69634   8.132   0.966   1.138 -3.5729  0.4813  1.5699
  505MOL0     H69635   7.968   0.991   0.894  0.5106 -0.2481 -0.0137
  505MOL0     H69636   8.004   1.097   1.039 -1.3830 -0.0332  2.0531
  505MOL0     H69637   7.773   1.025   1.025  1.8576  1.2424 -0.9783
  505MOL0     H69638   7.819   0.860   1.030  2.3024 -1.2193  0.6329
  505MOL0     H69639   7.975   0.760   1.259  1.8681  0.8321 -1.6705
  505MOL0     H69640   8.031   0.834   1.570 -0.6991  0.5488  0.3590
  505MOL0     H69641   7.931   0.693   1.505 -0.2798 -0.0714 -0.7112
  505MOL0     H69642   7.858   0.929   1.693 -6.7439  1.5862  0.6609
  505MOL0     H69643   7.735   0.847   1.614 -1.4917 -2.1638  1.8144
  505MOL0     H69644   7.765   0.737   1.834  0.5110  1.1264  0.0820
  505MOL0     H69645   7.816   0.626   1.701 -0.6348 -1.0513  1.9864
  505MOL0     H69646   7.977   0.634   1.918 -1.2287  1.6527  1.2541
  505MOL0     H69647   8.059   0.688   1.770  1.1719  1.3169  0.9401
  505MOL0     H69648   7.959   1.005   2.068  1.1008  1.5737  1.3407
  505MOL0     H69649   8.020   1.163   2.211  0.2322  0.0991  1.0684
  505MOL0     H69650   8.166   1.180   2.305 -0.5944  0.6984  1.3588
  505MOL0     H69651   8.030   1.069   2.355 -0.8938 -1.1461 -1.0161
  505MOL0     H69652   8.475   1.297   2.438  0.5142  1.1723  0.6676
  505MOL0     H69653   8.563   1.348   2.667 -1.9080  0.9666  0.7919
  505MOL0     H69654   8.508   1.041   2.986 -0.3125  0.5962 -1.8762
  505MOL0     H69655   8.676   1.043   2.931 -1.1066 -0.4283 -3.1855
  505MOL0     H69656   8.540   1.172   3.170  2.5043  0.3135  4.2534
  505MOL0     H69657   8.678   1.082   3.168 -0.8632 -1.3751 -0.9745
  505MOL0     H69658   8.661   1.361   3.032  0.0433  1.1856  0.6031
  505MOL0     H69659   8.800   1.262   3.032 -0.3493 -0.6927  0.0406
  505MOL0     H69660   8.815   1.265   3.276  0.6675 -2.8315 -3.5025
  505MOL0     H69661   8.657   1.345   3.294 -0.4454 -0.1315  0.2207
  505MOL0     H69662   8.710   1.546   3.199 -0.2556 -0.3075 -1.4069
  505MOL0     H69663   8.838   1.526   3.315  1.0828  0.2446 -1.5558
  505MOL0     H69664   8.919   1.632   3.122  0.7568 -0.1639 -0.8193
  505MOL0     H69665   8.865   1.500   3.016  1.6274 -3.7270 -0.2324
  505MOL0     H69666   8.994   1.329   3.117 -3.4521  0.7310 -0.4392
  505MOL0     H69667   9.052   1.442   3.247 -0.6890 -1.8410  0.3210
  505MOL0     H69668   9.179   1.576   3.111 -0.5810 -0.2194 -0.3855
  505MOL0     H69669   9.129   1.488   2.962 -0.2098  1.6632 -0.2135
  505MOL0     H69670   8.528   0.943   2.788  0.4678  0.1757  0.4510
  505MOL0     H69671   8.394   0.889   2.581 -3.4289 -0.0830  2.2104
  505MOL0     H69672   8.397   0.792   2.119 -0.0937  0.5066  0.6864
  505MOL0     H69673   8.271   0.736   1.919 -1.3340 -0.0528  1.3396
  505MOL0     H69674   8.568   1.152   0.659 -0.2563 -1.7295 -2.5507
  505MOL0     H69675   8.647   1.102   0.456 -1.3674  2.2328  2.2967
  505MOL0     H69676   9.086   0.898   0.246 -0.1308  1.4475  1.2997
  505MOL0     H69677   9.153   0.791   0.048  1.4771  1.1407 -1.1202
  505MOL0     H69678   9.255   0.748  -0.196  0.2263  3.4655 -0.8748
  505MOL0     H69679   9.115   0.682  -0.121  2.6886  2.0279  0.8530
  505MOL0     H69680   9.149   0.698  -0.428 -1.5449  0.7452 -0.4737
  505MOL0     H69681   9.018   0.626  -0.340  1.2829 -2.1733  2.4831
  505MOL0     H69682   9.306   0.557  -0.306 -0.6746  3.0461 -0.3017
  505MOL0     H69683   9.174   0.464  -0.231  2.1393 -2.5265  0.2303
  505MOL0     H69684   9.222   0.470  -0.543 -0.5648 -0.2085 -0.9816
  505MOL0     H69685   9.085   0.391  -0.471  1.3427  0.0664 -0.5540
  505MOL0     H69686   9.368   0.111  -0.392 -0.1808  0.2148  0.7614
  505MOL0     H69687   8.904   1.050  -0.182 -2.6155 -1.1176  1.1222
  505MOL0     H69688   8.822   1.283   0.018 -1.0487  0.9039 -1.0558
  505MOL0     H69689   8.754   1.178  -0.106 -0.8175  0.1445 -0.3072
  505MOL0     H69690   8.697   1.160   0.047 -1.3455  1.1357 -2.2743
  506MOL0     O69691   0.153  11.103   2.535 -0.2081  0.5823 -0.4847
  506MOL0     C69692   0.173  11.210   2.476  1.1783  0.1010  0.4105
  506MOL0     O69693   0.290  11.249   2.418  0.3852  0.0050  0.2491
  506MOL0     C69694   0.373  11.151   2.378 -0.5657  1.0235  0.9005
  506MOL0     C69695   0.424  11.161   2.241  0.1591  0.2666  0.3968
  506MOL0     C69696   0.503  11.057   2.185  1.1426 -0.1107  0.5217
  506MOL0     C69697   0.560  10.959   2.270  0.0572 -0.2455 -1.1787
  506MOL0     O69698   0.640  10.863   2.222  0.0879 -0.1408  0.0196
  506MOL0     C69699   0.779  10.847   2.278 -0.2410 -1.0321  0.1067
  506MOL0     C69700   0.855  10.740   2.197  0.3257 -0.7335 -0.7929
  506MOL0     C69701   1.003  10.740   2.234  0.2053 -0.6322 -1.3417
  506MOL0     C69702   1.024  10.710   2.387  0.4774 -0.2757 -0.3309
  506MOL0     C69703   1.175  10.693   2.414 -0.5680 -0.9092  0.5411
  506MOL0     C69704   1.210  10.717   2.562  0.3069 -0.2051 -0.6528
  506MOL0     C69705   1.352  10.664   2.606 -1.0549 -0.3465 -0.2977
  506MOL0     C69706   1.367  10.626   2.751 -0.6746 -0.8402 -0.1818
  506MOL0     N69707   1.508  10.608   2.804  0.1444  0.2405 -0.1365
  506MOL0     C69708   1.580  10.496   2.780  0.5891 -0.6705 -0.7138
  506MOL0     C69709   1.689  10.524   2.860 -0.9509 -0.7680 -0.3728
  506MOL0     C69710   1.826  10.446   2.883  0.3495 -0.5805  0.5261
  506MOL0     C69711   1.888  10.394   2.754  0.4680  0.4624 -0.1110
  506MOL0     C69712   1.872  10.239   2.731  0.0718 -0.2424 -0.3818
  506MOL0     C69713   1.938  10.200   2.608 -0.1054  0.3546 -0.0037
  506MOL0     O69714   2.081  10.203   2.618 -0.1138 -0.8583 -0.4275
  506MOL0     C69715   2.147  10.117   2.698  0.5869 -0.5265 -0.1319
  506MOL0     C69716   2.096  10.000   2.757  0.2365 -0.9549 -0.9445
  506MOL0     C69717   2.176   9.910   2.823  0.2299 -0.0588  0.7503
  506MOL0     C69718   2.115   9.780   2.869  0.4569 -0.0714  0.1126
  506MOL0     C69719   2.310   9.949   2.850 -1.0124  0.2189  0.2498
  506MOL0     C69720   2.401   9.876   2.944 -0.1129  0.3798  0.7825
  506MOL0     O69721   2.527   9.898   2.920  0.0058  0.5439  0.0806
  506MOL0     C69722   2.615   9.793   2.935 -0.2086  0.0026 -0.2066
  506MOL0     C69723   2.748   9.825   2.990  0.3197 -0.0476 -0.3395
  506MOL0     C69724   2.836   9.716   3.005 -0.4701 -0.6562 -0.1499
  506MOL0     C69725   2.805   9.579   2.977  0.9146  0.5137  0.5154
  506MOL0     O69726   2.903   9.482   2.997  0.5041 -0.2503  0.0992
  506MOL0     C69727   2.874   9.379   3.095  1.2311 -0.6364  0.5402
  506MOL0     C69728   2.993   9.354   3.187  0.1742 -0.1825  1.2986
  506MOL0     C69729   2.997   9.452   3.306 -0.4925 -1.0156 -0.2832
  506MOL0     C69730   3.060   9.591   3.290 -0.6183  1.0980  0.5307
  506MOL0     C69731   3.054   9.693   3.403  1.0365  0.7739  0.4638
  506MOL0     C69732   2.910   9.734   3.453 -0.3451 -0.3163 -0.7122
  506MOL0     C69733   2.834   9.805   3.351 -0.1576  0.3234  0.0409
  506MOL0     C69734   2.899   9.923   3.282  0.7347 -0.1919 -0.1286
  506MOL0    Cl69735   2.989  10.029   3.387 -0.4015 -0.3778 -0.1355
  506MOL0     C69736   2.676   9.554   2.931  0.6436 -0.0663 -0.3127
  506MOL0     C69737   2.586   9.660   2.909  0.4512 -0.3161  1.0136
  506MOL0     O69738   2.360   9.787   3.020 -0.3489 -0.0296 -0.0388
  506MOL0     C69739   2.365  10.066   2.783  0.7293  0.3874 -0.6005
  506MOL0     C69740   2.282  10.141   2.702  0.0013 -0.3268 -0.0392
  506MOL0     N69741   1.678  10.636   2.929  0.7916 -0.4058  0.2025
  506MOL0     N69742   1.567  10.687   2.890  0.1754  0.0383 -0.4651
  506MOL0     C69743   0.518  10.956   2.405  0.0894  0.6079 -1.4173
  506MOL0     C69744   0.424  11.047   2.452 -0.1355  0.0180 -0.7499
  506MOL0     C69745   0.066  11.318   2.467 -0.6202 -0.1698  0.3460
  506MOL0     C69746   0.086  11.431   2.391 -0.2533 -0.1554 -0.4390
  506MOL0     C69747  -0.006  11.530   2.375  0.8565  0.5637 -0.3515
  506MOL0     C69748  -0.130  11.521   2.430  0.5798  0.5111  0.3752
  506MOL0     O69749  -0.228  11.610   2.401 -0.9798  0.4626  0.3967
  506MOL0     C69750  -0.363  11.613   2.450 -0.7533  1.5679 -0.4489
  506MOL0     C69751  -0.455  11.537   2.367  0.4707 -0.1310  0.1640
  506MOL0     C69752  -0.596  11.530   2.432 -1.0065 -0.8941  0.2518
  506MOL0     C69753  -0.602  11.469   2.574 -0.9454  0.8928  0.3353
  506MOL0     C69754  -0.525  11.355   2.593  0.7263  0.1083  0.8339
  506MOL0     C69755  -0.463  11.248   2.568  0.0067 -0.1831 -0.4939
  506MOL0     C69756  -0.154  11.414   2.508 -0.2076 -0.0896  0.0339
  506MOL0     C69757  -0.055  11.317   2.536 -0.7895  0.1835 -0.9726
  506MOL0     C69758  -0.097  11.190   2.615  0.3290 -0.1651  0.0001
  506MOL0     H69759   0.389  11.236   2.172 -1.6133 -1.3089 -0.5050
  506MOL0     H69760   0.523  11.053   2.078  1.5661 -3.1325  0.6139
  506MOL0     H69761   0.765  10.825   2.384 -4.2774 -0.1916 -0.0879
  506MOL0     H69762   0.841  10.937   2.267  0.2372 -1.5625 -2.1650
  506MOL0     H69763   0.811  10.645   2.229  0.1413 -0.7472 -1.0760
  506MOL0     H69764   0.838  10.748   2.089  0.2875 -1.6694 -0.8618
  506MOL0     H69765   1.061  10.674   2.168  0.4178 -1.1695 -0.6356
  506MOL0     H69766   1.052  10.836   2.216  0.8936 -0.7720 -0.2607
  506MOL0     H69767   0.980  10.795   2.440  1.4395  1.0153 -1.5209
  506MOL0     H69768   0.974  10.615   2.409 -1.3300  0.8347  0.5626
  506MOL0     H69769   1.238  10.754   2.348  0.9982 -1.4822  1.4425
  506MOL0     H69770   1.202  10.589   2.394  0.3156 -0.3383 -1.6302
  506MOL0     H69771   1.183  10.819   2.590  0.2281 -0.4976  0.3813
  506MOL0     H69772   1.145  10.660   2.629  0.1144  1.7930  0.9503
  506MOL0     H69773   1.432  10.735   2.581  1.3219 -3.2588 -1.6307
  506MOL0     H69774   1.382  10.573   2.552 -1.7336 -1.0420  0.4609
  506MOL0     H69775   1.318  10.706   2.808  0.6860 -0.7949  1.0015
  506MOL0     H69776   1.309  10.534   2.755 -5.1540  1.7267  0.2405
  506MOL0     H69777   1.545  10.405   2.733 -2.1318  0.0573 -0.2970
  506MOL0     H69778   1.833  10.356   2.945  0.7924 -0.7224  0.2784
  506MOL0     H69779   1.896  10.515   2.931  2.2398  1.0460 -3.9698
  506MOL0     H69780   1.847  10.440   2.663  0.1371 -1.3212 -0.9026
  506MOL0     H69781   1.994  10.420   2.763  0.6872 -1.2298  4.5400
  506MOL0     H69782   1.905  10.181   2.817 -0.2914  0.6712  0.3952
  506MOL0     H69783   1.764  10.226   2.720  0.3433 -0.9335 -2.7002
  506MOL0     H69784   1.897  10.101   2.591 -0.0599 -0.3155  3.1241
  506MOL0     H69785   1.919  10.261   2.520  1.2198 -0.4722 -0.8974
  506MOL0     H69786   1.988   9.987   2.753 -0.8760  1.4489  6.0610
  506MOL0     H69787   2.086   9.765   2.974  1.9576 -0.6765  0.4742
  506MOL0     H69788   2.171   9.692   2.836 -2.4240 -2.1186  0.2906
  506MOL0     H69789   2.025   9.770   2.809  0.9936  0.1390 -0.7433
  506MOL0     H69790   2.782   9.926   3.011  0.3978 -0.1546  0.0559
  506MOL0     H69791   2.933   9.740   3.046 -1.4177  2.4797  0.4828
  506MOL0     H69792   2.785   9.410   3.152 -0.3860  0.5801 -2.3910
  506MOL0     H69793   2.830   9.286   3.058 -2.4052  0.6796  1.0687
  506MOL0     H69794   2.988   9.251   3.224 -0.1058 -0.2174  1.1705
  506MOL0     H69795   3.088   9.361   3.134  0.5643  2.1484  2.2130
  506MOL0     H69796   3.054   9.416   3.393 -0.1255 -2.4648 -1.0873
  506MOL0     H69797   2.893   9.468   3.333 -1.8439 -1.7906 -4.4218
  506MOL0     H69798   3.022   9.624   3.193  2.2728  0.1113 -1.0689
  506MOL0     H69799   3.166   9.569   3.274 -1.0958 -0.5102 -0.6329
  506MOL0     H69800   3.114   9.662   3.489  4.9099  2.5239 -1.3716
  506MOL0     H69801   3.120   9.775   3.376  0.3461  1.7532  1.6224
  506MOL0     H69802   2.914   9.795   3.544  1.9140 -0.4540 -0.6554
  506MOL0     H69803   2.853   9.644   3.477  3.1290 -1.7444  3.6260
  506MOL0     H69804   2.741   9.839   3.397  0.2962  1.7828 -0.0693
  506MOL0     H69805   2.802   9.739   3.270  0.7973  0.2411 -0.2813
  506MOL0     H69806   2.827   9.986   3.229  1.1208 -0.1863 -0.6515
  506MOL0     H69807   2.961   9.881   3.203 -1.0934 -0.4260 -1.4931
  506MOL0     H69808   2.645   9.455   2.898 -0.3441  0.6301 -1.5876
  506MOL0     H69809   2.492   9.628   2.866  1.2236  0.0482 -1.1216
  506MOL0     H69810   2.469  10.096   2.784  1.6131 -2.3959 -1.9571
  506MOL0     H69811   2.323  10.234   2.665 -2.9986  1.1267  0.0447
  506MOL0     H69812   0.552  10.879   2.474 -0.1295  0.8240 -1.0677
  506MOL0     H69813   0.400  11.053   2.558  1.8618  0.5557 -0.2796
  506MOL0     H69814   0.172  11.451   2.327  2.3076  2.1354  3.3006
  506MOL0     H69815   0.016  11.621   2.319  0.7686  0.0378 -1.2561
  506MOL0     H69816  -0.361  11.562   2.547  3.6677 -0.0494 -1.1288
  506MOL0     H69817  -0.401  11.716   2.451 -1.0720  1.4585  0.5784
  506MOL0     H69818  -0.426  11.436   2.334 -2.0935 -0.2508 -2.0664
  506MOL0     H69819  -0.473  11.594   2.276  1.6527 -0.9605 -0.6172
  506MOL0     H69820  -0.620  11.637   2.444 -0.4962 -0.5065 -1.7719
  506MOL0     H69821  -0.672  11.492   2.363 -1.3548  0.8996 -0.4203
  506MOL0     H69822  -0.706  11.439   2.591 -0.9384  1.0825  0.7291
  506MOL0     H69823  -0.577  11.542   2.652 -0.4240  1.0190  0.0562
  506MOL0     H69824  -0.410  11.157   2.548  2.7825  0.9745  1.0664
  506MOL0     H69825  -0.248  11.402   2.560  0.8144  1.5967  2.4630
  506MOL0     H69826  -0.093  11.102   2.549  0.6883 -2.0066  2.3398
  506MOL0     H69827  -0.030  11.174   2.699  0.7701  1.0877 -0.0942
  506MOL0     H69828  -0.200  11.207   2.648 -0.8140 -3.6332 -1.3128
  507MOL0     O69829   9.950   9.840  11.012 -0.7563  0.0521  0.2314
  507MOL0     C69830   9.975   9.958  10.984  0.7042 -0.3067  0.2115
  507MOL0     O69831   9.865  10.055  10.975 -0.1848  0.4379  0.3141
  507MOL0     C69832   9.731  10.036  11.003 -0.2978  1.0266 -1.8242
  507MOL0     C69833   9.675   9.920  11.069 -0.7608 -0.5493 -0.0071
  507MOL0     C69834   9.543   9.913  11.110 -0.1087 -0.0328  0.1712
  507MOL0     C69835   9.459  10.017  11.083  0.7912  0.0301  0.5415
  507MOL0     O69836   9.324  10.036  11.123 -0.0709  0.3504  0.2368
  507MOL0     C69837   9.264   9.917  11.175 -0.9469 -0.0984 -0.2162
  507MOL0     C69838   9.128   9.938  11.235  0.2765 -0.3552  0.7330
  507MOL0     C69839   9.110  10.049  11.336 -1.2140  0.1459 -0.0391
  507MOL0     C69840   8.980  10.015  11.420 -0.3375  0.2385  0.9905
  507MOL0     C69841   8.964  10.102  11.540 -0.6497  0.0124 -1.2879
  507MOL0     C69842   8.865  10.024  11.625  0.0941  0.0796  0.8136
  507MOL0     C69843   8.859  10.087  11.763  0.2844  0.5959  0.8718
  507MOL0     C69844   8.776   9.996  11.845  0.0919 -0.4441 -0.2441
  507MOL0     N69845   8.765  10.039  11.986  0.2857 -0.5629  0.0085
  507MOL0     C69846   8.652  10.091  12.048 -0.0587 -0.0191  0.2333
  507MOL0     C69847   8.693  10.110  12.174 -0.1962 -1.0279 -0.2765
  507MOL0     C69848   8.609  10.164  12.282 -0.4830 -0.7300  0.3542
  507MOL0     C69849   8.682  10.263  12.376  0.4124  0.3565 -0.4348
  507MOL0     C69850   8.602  10.329  12.486  0.6728 -0.1765  0.4241
  507MOL0     C69851   8.517  10.455  12.432 -0.2368  0.0561  0.6854
  507MOL0     O69852   8.430  10.499  12.522  0.0307 -0.1089 -0.5499
  507MOL0     C69853   8.348  10.615  12.485 -0.0225  0.5970 -0.1715
  507MOL0     C69854   8.366  10.687  12.365 -0.0865 -0.4381 -0.4964
  507MOL0     C69855   8.310  10.814  12.342  1.1384 -0.3809 -0.3470
  507MOL0     C69856   8.344  10.904  12.220 -0.2270  0.6907 -1.1296
  507MOL0     C69857   8.239  10.872  12.449  1.0336  0.7010 -0.6064
  507MOL0     C69858   8.175  11.000  12.436 -0.3798  0.3307  0.1332
  507MOL0     O69859   8.090  11.015  12.332  0.5205 -0.3967  0.6976
  507MOL0     C69860   8.028  11.139  12.325  0.7969 -0.0770 -0.6178
  507MOL0     C69861   8.093  11.246  12.255 -0.0214  0.7607  0.5909
  507MOL0     C69862   8.042  11.369  12.262 -0.8322  0.1211 -0.2355
  507MOL0     C69863   7.931  11.402  12.340 -0.6738 -0.0370 -0.5671
  507MOL0     O69864   7.892  11.539  12.346 -0.5932 -0.1733  0.4012
  507MOL0     C69865   7.889  11.603  12.477 -0.7903 -0.1547  1.0577
  507MOL0     C69866   7.959  11.734  12.447 -0.4555 -0.1894  0.8536
  507MOL0     C69867   8.115  11.717  12.470  0.8822 -0.9699 -0.3606
  507MOL0     C69868   8.187  11.738  12.340 -0.3604 -0.6556 -0.7354
  507MOL0     C69869   8.337  11.710  12.334  0.4494  0.2645  0.2983
  507MOL0     C69870   8.357  11.563  12.357 -0.2537 -0.7500  0.0761
  507MOL0     C69871   8.500  11.522  12.309  0.3178  0.5380 -0.0919
  507MOL0     C69872   8.534  11.383  12.383  0.6172 -0.2548  0.2976
  507MOL0    Cl69873   8.711  11.372  12.384  0.0532 -0.1986 -0.1281
  507MOL0     C69874   7.868  11.305  12.414  0.7592 -0.1570  0.3206
  507MOL0     C69875   7.920  11.176  12.416  0.3393 -0.7127  0.5117
  507MOL0     O69876   8.191  11.081  12.533  0.4405  1.2238  0.0278
  507MOL0     C69877   8.219  10.800  12.569 -0.1658  0.5336  0.5384
  507MOL0     C69878   8.270  10.666  12.583  0.7475 -0.7557 -0.3562
  507MOL0     N69879   8.823  10.061  12.187  0.3839 -0.1259  0.2402
  507MOL0     N69880   8.869  10.030  12.070  0.4001  1.1653 -0.5285
  507MOL0     C69881   9.522  10.137  11.025  0.1791 -0.1172  0.4490
  507MOL0     C69882   9.653  10.148  10.986  0.7916  0.2889  0.2417
  507MOL0     C69883  10.105  10.000  10.942  0.2653 -0.3947  0.3683
  507MOL0     C69884  10.119  10.135  10.915  0.9665 -1.5661  0.5989
  507MOL0     C69885  10.246  10.185  10.891 -0.1777 -0.5051  0.1814
  507MOL0     C69886  10.358  10.104  10.879 -0.6078 -0.4364  0.6680
  507MOL0     O69887  10.485  10.155  10.862 -0.3950  0.7054 -0.3488
  507MOL0     C69888  10.538  10.187  10.993  0.4721 -0.2328 -0.4776
  507MOL0     C69889  10.678  10.258  10.973  0.7001  0.0254  0.6638
  507MOL0     C69890  10.765  10.186  10.865  0.3930  0.4365 -0.2240
  507MOL0     C69891  10.889  10.266  10.841  0.5241 -0.4349  0.7296
  507MOL0     C69892  11.007  10.189  10.792 -0.3258 -0.3852  1.3747
  507MOL0     C69893  11.117  10.144  10.751  0.0189  0.8883 -0.1072
  507MOL0     C69894  10.344   9.968  10.901  1.0213  0.2437 -0.3315
  507MOL0     C69895  10.213   9.912  10.939  0.2958  0.3858  0.5754
  507MOL0     C69896  10.200   9.754  10.949  0.1095 -0.0354  0.2778
  507MOL0     H69897   9.739   9.834  11.084  0.5195  0.5229  0.9375
  507MOL0     H69898   9.514   9.822  11.162 -2.0162 -0.6171 -1.7715
  507MOL0     H69899   9.321   9.877  11.260 -1.3459 -0.8163 -0.2850
  507MOL0     H69900   9.253   9.841  11.097 -2.6478  1.3376 -1.4526
  507MOL0     H69901   9.053   9.948  11.156  1.6121  0.6605 -0.4897
  507MOL0     H69902   9.108   9.843  11.285  1.6751 -1.2734 -0.3706
  507MOL0     H69903   9.200  10.047  11.398 -0.4713  0.5254 -1.0766
  507MOL0     H69904   9.105  10.151  11.295 -0.7175  0.9420  1.7700
  507MOL0     H69905   8.895  10.021  11.352  1.2262 -3.1963 -1.5538
  507MOL0     H69906   8.996   9.911  11.450 -1.9518 -0.0712  0.8660
  507MOL0     H69907   8.929  10.204  11.522  1.0202  1.4104  2.4791
  507MOL0     H69908   9.061  10.111  11.589 -1.4829 -1.1295  0.6770
  507MOL0     H69909   8.768  10.039  11.576 -1.4835 -0.3682  3.6035
  507MOL0     H69910   8.880   9.916  11.632 -0.9496  0.0102  2.6986
  507MOL0     H69911   8.831  10.193  11.764  3.6367  1.6151  2.7583
  507MOL0     H69912   8.957  10.080  11.813  0.2841  0.8789  0.9133
  507MOL0     H69913   8.677   9.988  11.799 -1.0835  1.6054  1.6697
  507MOL0     H69914   8.818   9.896  11.854  0.0239 -0.3681  1.2777
  507MOL0     H69915   8.567  10.143  12.004 -0.8932 -0.7453  0.9551
  507MOL0     H69916   8.584  10.068  12.329 -0.6784 -1.1048 -0.4893
  507MOL0     H69917   8.513  10.211  12.257 -0.5258  0.4279  2.4735
  507MOL0     H69918   8.765  10.211  12.425  3.0298  3.1002 -1.5932
  507MOL0     H69919   8.728  10.325  12.298 -2.8512 -0.5059 -3.2626
  507MOL0     H69920   8.531  10.251  12.512  0.6838 -1.5984 -3.2327
  507MOL0     H69921   8.669  10.350  12.570 -1.0819  0.1005  1.7962
  507MOL0     H69922   8.594  10.526  12.399 -1.5018  2.4023  2.4619
  507MOL0     H69923   8.464  10.423  12.343  1.3397  0.6692 -0.5167
  507MOL0     H69924   8.439  10.656  12.291  0.8865  3.0659 -1.2087
  507MOL0     H69925   8.428  10.862  12.163 -2.6897 -0.5252 -4.1360
  507MOL0     H69926   8.367  11.008  12.245  1.4906  0.7442 -2.6794
  507MOL0     H69927   8.255  10.911  12.157  0.3740  1.2043 -1.9395
  507MOL0     H69928   8.173  11.214  12.189 -0.8772 -2.1139  0.7928
  507MOL0     H69929   8.084  11.458  12.217 -5.5083  1.4899 -2.4904
  507MOL0     H69930   7.786  11.622  12.511 -0.0634  2.2173  2.0920
  507MOL0     H69931   7.945  11.559  12.559  0.9211  1.0535  0.5978
  507MOL0     H69932   7.928  11.791  12.358 -1.3267  0.7627  1.7425
  507MOL0     H69933   7.914  11.799  12.522 -1.5274 -1.0329  0.9756
  507MOL0     H69934   8.138  11.621  12.517 -2.2914 -0.9512  1.4959
  507MOL0     H69935   8.136  11.795  12.544 -0.1683 -0.5728 -0.4678
  507MOL0     H69936   8.174  11.844  12.315  3.0494  0.7432  2.4599
  507MOL0     H69937   8.131  11.676  12.269  1.0974  0.8012 -3.3230
  507MOL0     H69938   8.374  11.756  12.242 -1.3799  0.7507 -0.2361
  507MOL0     H69939   8.389  11.764  12.414  2.1493  0.8945 -1.1799
  507MOL0     H69940   8.277  11.511  12.304 -2.3341  1.8627  0.4956
  507MOL0     H69941   8.348  11.536  12.463  3.7242 -2.8443  0.0767
  507MOL0     H69942   8.578  11.585  12.352  0.9880 -0.4812  0.2198
  507MOL0     H69943   8.513  11.518  12.201  0.5979 -1.1617 -0.0203
  507MOL0     H69944   8.482  11.306  12.325  0.8180  2.3281 -3.7770
  507MOL0     H69945   8.493  11.373  12.484 -0.9619  2.9812  0.1316
  507MOL0     H69946   7.788  11.336  12.481  0.7968 -1.8409  1.2136
  507MOL0     H69947   7.875  11.097  12.476 -0.4582 -1.7568 -1.3667
  507MOL0     H69948   8.153  10.842  12.645 -0.3331 -3.1586  2.7040
  507MOL0     H69949   8.269  10.630  12.685 -0.1381 -1.6351 -0.6613
  507MOL0     H69950   9.458  10.222  11.007  0.7912  0.0558 -1.0020
  507MOL0     H69951   9.684  10.244  10.946  2.1473 -0.3279 -0.2528
  507MOL0     H69952  10.037  10.205  10.924  1.2008 -1.0446 -0.9318
  507MOL0     H69953  10.266  10.290  10.873 -0.7546 -0.8418 -2.9584
  507MOL0     H69954  10.469  10.253  11.045  1.4390  2.1498 -2.0656
  507MOL0     H69955  10.555  10.094  11.048  0.6045  0.8599  1.3816
  507MOL0     H69956  10.728  10.264  11.070 -1.2289  0.6864  1.6590
  507MOL0     H69957  10.659  10.356  10.929 -0.9214 -0.8423 -0.7146
  507MOL0     H69958  10.784  10.081  10.889  1.7383  0.5636 -0.6220
  507MOL0     H69959  10.714  10.184  10.768 -2.7426  0.1734  1.3311
  507MOL0     H69960  10.913  10.294  10.944 -2.5103  1.3083  1.0970
  507MOL0     H69961  10.879  10.348  10.770 -0.4071 -0.7763  0.4497
  507MOL0     H69962  11.213  10.110  10.718 -0.1955 -0.1850  0.3238
  507MOL0     H69963  10.439   9.916  10.899  0.7797 -0.5738  2.8545
  507MOL0     H69964  10.245   9.725  10.854  1.1398 -1.1581  1.0810
  507MOL0     H69965  10.255   9.709  11.032 -0.3272  1.4891  1.4344
  507MOL0     H69966  10.102   9.706  10.961 -0.3143  0.5947 -0.5757
  508MOL0     O69967   4.377   4.428   9.329  0.1824 -0.4692  0.1083
  508MOL0     C69968   4.417   4.309   9.342  0.7996 -0.3722 -0.6317
  508MOL0     O69969   4.367   4.199   9.281 -0.2810  0.1475  0.1109
  508MOL0     C69970   4.274   4.220   9.178  0.0286 -0.4205 -0.1201
  508MOL0     C69971   4.288   4.179   9.043 -0.1830  0.0894  1.3723
  508MOL0     C69972   4.186   4.203   8.949  1.0456 -0.2708 -0.0486
  508MOL0     C69973   4.064   4.260   8.996 -0.0758 -0.2822  0.1553
  508MOL0     O69974   3.955   4.286   8.917  0.1020 -0.8958 -0.4169
  508MOL0     C69975   3.932   4.215   8.789  0.1705 -0.1341 -0.3686
  508MOL0     C69976   3.885   4.072   8.821 -0.1762 -1.0656 -0.6428
  508MOL0     C69977   3.737   4.059   8.871  0.0422 -0.7092  0.4880
  508MOL0     C69978   3.647   4.106   8.764 -0.2455  0.1092 -0.3476
  508MOL0     C69979   3.503   4.047   8.777  0.5216 -0.5218 -0.5230
  508MOL0     C69980   3.507   3.893   8.754  0.3409 -0.1967 -0.0461
  508MOL0     C69981   3.366   3.852   8.752  0.9227 -0.4845 -0.0652
  508MOL0     C69982   3.338   3.710   8.720 -0.6397 -0.5483 -0.2980
  508MOL0     N69983   3.329   3.688   8.574 -0.1687  0.2117 -1.5869
  508MOL0     C69984   3.441   3.647   8.495  0.2651 -0.3529 -0.3690
  508MOL0     C69985   3.391   3.647   8.360  0.3696 -0.7148 -0.3243
  508MOL0     C69986   3.469   3.618   8.240 -0.5479  0.4965  0.3904
  508MOL0     C69987   3.393   3.648   8.111  0.7655 -0.5887 -0.4235
  508MOL0     C69988   3.497   3.689   8.008 -0.2634 -0.0983  0.5498
  508MOL0     C69989   3.582   3.564   7.969 -0.2378 -0.1260 -0.1579
  508MOL0     O69990   3.605   3.566   7.835 -0.5087 -0.0236 -1.3257
  508MOL0     C69991   3.653   3.454   7.775  0.0416 -0.8332 -0.8938
  508MOL0     C69992   3.725   3.355   7.838 -0.8645  0.1888  0.4145
  508MOL0     C69993   3.771   3.242   7.784 -0.1413 -0.1651  0.1016
  508MOL0     C69994   3.818   3.128   7.871  0.0354  0.3363  0.2192
  508MOL0     C69995   3.752   3.231   7.646  0.1799 -0.6692 -0.8392
  508MOL0     C69996   3.780   3.104   7.580  0.0404  0.0266  0.3369
  508MOL0     O69997   3.681   3.048   7.504  0.1297  0.1794  0.0449
  508MOL0     C69998   3.711   2.941   7.428 -0.6202  0.3647 -0.2190
  508MOL0     C69999   3.803   2.944   7.325 -0.5011 -0.8243 -1.0589
  508MOL0     C70000   3.840   2.827   7.258  0.4106 -0.5650 -0.0910
  508MOL0     C70001   3.785   2.706   7.284 -0.2354 -0.1934 -0.1993
  508MOL0     O70002   3.821   2.611   7.191 -0.0528  0.0394  0.8983
  508MOL0     C70003   3.877   2.501   7.263 -0.2715  0.4315  1.2613
  508MOL0     C70004   3.894   2.376   7.170  0.8354 -0.4167 -0.6940
  508MOL0     C70005   3.773   2.364   7.073 -0.8472 -0.3498  0.1570
  508MOL0     C70006   3.636   2.357   7.154 -0.4574  0.7450  0.7306
  508MOL0     C70007   3.517   2.275   7.081 -0.0035  0.1169 -0.1824
  508MOL0     C70008   3.469   2.155   7.174  0.3698 -0.8961  0.1582
  508MOL0     C70009   3.401   2.043   7.094 -1.0855 -0.7090 -0.8516
  508MOL0     C70010   3.329   1.937   7.194  0.5502  0.1497 -0.3703
  508MOL0    Cl70011   3.235   1.823   7.096  0.5867  0.3012 -0.1463
  508MOL0     C70012   3.684   2.702   7.382  0.1567  0.9020  0.3228
  508MOL0     C70013   3.647   2.822   7.456 -0.3359 -0.2145  0.3737
  508MOL0     O70014   3.890   3.048   7.604 -0.0594 -0.3790  0.3095
  508MOL0     C70015   3.707   3.342   7.572 -0.0624  0.1191 -0.7158
  508MOL0     C70016   3.642   3.447   7.637  1.2342  0.0443  0.0449
  508MOL0     N70017   3.264   3.707   8.366  0.5424 -1.0425  0.4171
  508MOL0     N70018   3.233   3.728   8.494  0.7399  0.7165  0.9333
  508MOL0     C70019   4.053   4.300   9.129  0.1116  0.0137  1.0703
  508MOL0     C70020   4.154   4.278   9.215 -0.1558  0.2796  0.5870
  508MOL0     C70021   4.513   4.286   9.445 -0.9484 -0.4428  0.1135
  508MOL0     C70022   4.487   4.193   9.556 -0.2485 -0.6142  0.0450
  508MOL0     C70023   4.586   4.166   9.656  0.8393  0.2371  0.5394
  508MOL0     C70024   4.712   4.228   9.652  0.5852 -0.8620 -0.4558
  508MOL0     O70025   4.809   4.184   9.741  0.9264  0.7897  0.1727
  508MOL0     C70026   4.942   4.229   9.720  0.3526 -0.0532 -0.2316
  508MOL0     C70027   5.055   4.132   9.774  0.0614 -0.4589 -0.3544
  508MOL0     C70028   5.079   4.142   9.921  0.9408 -0.7555 -0.5075
  508MOL0     C70029   5.143   4.018   9.978 -0.0823  0.1441  0.2820
  508MOL0     C70030   5.280   4.044  10.034 -0.4674 -0.5219 -0.0718
  508MOL0     C70031   5.384   4.111  10.071  0.0628  0.1485 -0.1820
  508MOL0     C70032   4.729   4.329   9.554 -0.5148 -0.0628 -0.5894
  508MOL0     C70033   4.629   4.355   9.451 -1.0628 -0.8514  0.0167
  508MOL0     C70034   4.662   4.473   9.352  0.4036  0.8892  0.0902
  508MOL0     H70035   4.379   4.129   9.012 -1.6199 -2.6821  1.3515
  508MOL0     H70036   4.187   4.166   8.847  0.1956  0.9837 -0.5430
  508MOL0     H70037   4.017   4.226   8.722  0.7129 -1.2792  0.0950
  508MOL0     H70038   3.851   4.265   8.736  0.6609 -0.7447 -1.7264
  508MOL0     H70039   3.901   4.012   8.731 -5.7066 -3.5874 -0.3380
  508MOL0     H70040   3.948   4.018   8.892 -0.6309 -4.9812 -2.9545
  508MOL0     H70041   3.722   3.952   8.886  2.6843 -1.6078 -2.1831
  508MOL0     H70042   3.717   4.114   8.963 -1.0247 -0.4376  0.1089
  508MOL0     H70043   3.645   4.214   8.779  0.8541 -0.2585  3.1410
  508MOL0     H70044   3.673   4.093   8.658 -0.6917  0.4713 -0.5079
  508MOL0     H70045   3.436   4.098   8.707  2.8687  2.6128 -0.7474
  508MOL0     H70046   3.466   4.059   8.880 -0.4062  0.4061 -0.9394
  508MOL0     H70047   3.540   3.867   8.653 -1.5243  0.0511 -0.7682
  508MOL0     H70048   3.571   3.836   8.822 -0.4624 -0.5677  0.4224
  508MOL0     H70049   3.304   3.909   8.682  0.3627 -1.3000 -0.2495
  508MOL0     H70050   3.330   3.877   8.852 -2.4219 -1.5372 -0.8802
  508MOL0     H70051   3.417   3.649   8.765  1.0999  3.2696  2.3877
  508MOL0     H70052   3.241   3.677   8.758 -0.9116 -1.2987 -1.5755
  508MOL0     H70053   3.544   3.635   8.525 -0.1451 -0.0434  1.2228
  508MOL0     H70054   3.497   3.512   8.238  1.5517  1.0008  0.3717
  508MOL0     H70055   3.561   3.678   8.235 -0.9887  1.1304 -0.1537
  508MOL0     H70056   3.332   3.565   8.072  2.7626 -1.8424 -1.0026
  508MOL0     H70057   3.344   3.743   8.132 -0.9798 -1.5837  0.2769
  508MOL0     H70058   3.448   3.721   7.916 -2.0884 -0.0329  1.4981
  508MOL0     H70059   3.561   3.771   8.042  2.9074  0.0095 -4.6743
  508MOL0     H70060   3.672   3.544   8.029  1.7512  2.1346 -2.1809
  508MOL0     H70061   3.529   3.469   7.981 -0.3650 -0.1854 -1.1401
  508MOL0     H70062   3.734   3.356   7.946  0.1558 -0.3922  0.3446
  508MOL0     H70063   3.925   3.113   7.858 -0.4583 -1.7590 -2.3234
  508MOL0     H70064   3.774   3.028   7.866  3.1346 -1.0601 -1.8575
  508MOL0     H70065   3.806   3.170   7.971  2.5969  1.6637  0.0412
  508MOL0     H70066   3.857   3.035   7.300  3.8257 -1.4103  4.3294
  508MOL0     H70067   3.914   2.830   7.178  1.5343 -0.8180  0.9108
  508MOL0     H70068   3.982   2.517   7.290  1.8761 -4.1882 -2.6266
  508MOL0     H70069   3.818   2.471   7.350 -2.1847  3.0830  0.9798
  508MOL0     H70070   3.986   2.388   7.113  0.7184  2.4546 -0.3939
  508MOL0     H70071   3.918   2.288   7.231 -2.5589 -0.9243  0.1233
  508MOL0     H70072   3.787   2.279   7.006  1.0987  0.0259  0.0170
  508MOL0     H70073   3.769   2.451   7.007 -2.5864 -0.1039  0.5335
  508MOL0     H70074   3.602   2.459   7.176 -0.2003  0.6202  1.7639
  508MOL0     H70075   3.644   2.309   7.252 -1.3581 -1.2111 -0.1021
  508MOL0     H70076   3.427   2.333   7.061  1.0200  0.1837 -6.6271
  508MOL0     H70077   3.543   2.238   6.981 -2.4426  3.6311 -2.3486
  508MOL0     H70078   3.391   2.197   7.238  1.0665  1.5238 -0.4691
  508MOL0     H70079   3.553   2.117   7.233  1.6055  0.4744 -0.6613
  508MOL0     H70080   3.468   1.977   7.037 -0.8109 -0.8047 -0.4292
  508MOL0     H70081   3.335   2.090   7.022 -1.3352  1.4576  0.6986
  508MOL0     H70082   3.250   1.987   7.251 -0.5639 -2.0139  0.0871
  508MOL0     H70083   3.403   1.886   7.257  2.0565  0.0970 -2.1068
  508MOL0     H70084   3.630   2.614   7.417 -1.3170  2.2944  1.7070
  508MOL0     H70085   3.570   2.802   7.530 -0.1996  0.3213  0.6633
  508MOL0     H70086   3.689   3.342   7.465  0.6903 -0.3329 -0.8500
  508MOL0     H70087   3.583   3.512   7.573  1.9291 -3.6690 -4.9148
  508MOL0     H70088   3.958   4.346   9.155  0.7094  2.4505 -0.7104
  508MOL0     H70089   4.151   4.292   9.323  0.9374 -1.2071  0.8435
  508MOL0     H70090   4.400   4.128   9.542  0.0222 -0.9694 -0.0185
  508MOL0     H70091   4.567   4.091   9.733  2.9655  2.1192  3.0563
  508MOL0     H70092   4.952   4.234   9.611  2.9933 -0.5599 -0.0581
  508MOL0     H70093   4.952   4.329   9.764  0.6767 -1.2674  2.6973
  508MOL0     H70094   5.146   4.171   9.728  0.7019 -0.7269  0.6533
  508MOL0     H70095   5.032   4.030   9.741 -1.9293  0.8033 -3.3131
  508MOL0     H70096   5.134   4.234   9.943  0.5305  0.2178 -3.2240
  508MOL0     H70097   4.977   4.146   9.962  0.0423 -2.4521 -2.4085
  508MOL0     H70098   5.163   3.944   9.900  0.9003 -2.4839  2.8342
  508MOL0     H70099   5.075   3.982  10.056 -1.0960  0.4266 -0.4515
  508MOL0     H70100   5.448   4.181  10.122 -2.4029  2.1566  0.4017
  508MOL0     H70101   4.822   4.385   9.560 -1.8662  2.4015 -1.4510
  508MOL0     H70102   4.764   4.510   9.368  0.6357 -0.7805  3.2760
  508MOL0     H70103   4.651   4.427   9.254  1.4198  0.3740  0.2090
  508MOL0     H70104   4.599   4.556   9.386  2.2602  1.6535  1.8949
  509MOL0     O70105   0.133   3.197  10.957 -0.0693 -0.1641 -1.1080
  509MOL0     C70106   0.056   3.287  10.912 -0.6315  0.1836  1.1565
  509MOL0     O70107  -0.080   3.297  10.936  0.8623  0.7045  0.1311
  509MOL0     C70108  -0.131   3.272  11.058 -0.6857 -0.0383 -0.7562
  509MOL0     C70109  -0.135   3.141  11.101  0.5424 -0.2334  0.8305
  509MOL0     C70110  -0.187   3.108  11.224 -0.0149  0.2152 -0.2205
  509MOL0     C70111  -0.251   3.202  11.306  0.7399 -0.6888  0.6084
  509MOL0     O70112  -0.309   3.172  11.424 -0.4444 -0.3171  0.2553
  509MOL0     C70113  -0.370   3.045  11.441 -0.8003  0.3774  0.3059
  509MOL0     C70114  -0.444   3.039  11.575  0.3510  0.8681  0.3391
  509MOL0     C70115  -0.577   2.963  11.552  0.2409  0.4591  0.1960
  509MOL0     C70116  -0.609   2.870  11.678 -0.0255  1.0925  0.3037
  509MOL0     C70117  -0.610   2.953  11.806 -0.4017 -0.5211  0.0719
  509MOL0     C70118  -0.650   2.887  11.938 -0.2726 -0.2128  0.3060
  509MOL0     C70119  -0.679   2.985  12.049 -0.7681 -0.4864 -0.4039
  509MOL0     C70120  -0.593   2.973  12.168  0.0438  1.0024  0.7153
  509MOL0     N70121  -0.604   3.091  12.249 -0.2795  0.3822  0.2580
  509MOL0     C70122  -0.715   3.150  12.296 -0.0515  0.1749  1.2613
  509MOL0     C70123  -0.661   3.261  12.344 -0.1237 -0.9111  0.2054
  509MOL0     C70124  -0.760   3.375  12.396  0.0903 -0.3742  0.4069
  509MOL0     C70125  -0.739   3.518  12.334  0.1527 -0.2076  0.6916
  509MOL0     C70126  -0.750   3.529  12.182 -0.2687  0.0899  0.0925
  509MOL0     C70127  -0.777   3.666  12.137 -0.1688 -0.0066  0.3803
  509MOL0     O70128  -0.671   3.752  12.183  0.9372  0.1132 -0.3436
  509MOL0     C70129  -0.671   3.877  12.128 -0.5553  0.8611  0.0186
  509MOL0     C70130  -0.783   3.953  12.082 -0.5624  0.8637 -0.1875
  509MOL0     C70131  -0.761   4.083  12.036 -0.4473 -0.6870 -0.1983
  509MOL0     C70132  -0.887   4.166  11.998  0.3255  0.5852  0.0429
  509MOL0     C70133  -0.632   4.143  12.033  0.9625  0.5444  0.2000
  509MOL0     C70134  -0.598   4.282  11.993 -0.2882 -0.7709 -0.3823
  509MOL0     O70135  -0.467   4.293  11.946 -0.5918  0.1866 -0.5620
  509MOL0     C70136  -0.415   4.416  11.915  0.6368 -0.4819  0.2398
  509MOL0     C70137  -0.370   4.445  11.785 -0.9340  0.4700 -1.3019
  509MOL0     C70138  -0.329   4.571  11.742  0.1399  0.0303 -0.3079
  509MOL0     C70139  -0.335   4.685  11.822 -0.6917  0.3234 -1.3183
  509MOL0     O70140  -0.297   4.812  11.775 -0.6990  0.9676  0.4223
  509MOL0     C70141  -0.373   4.924  11.829 -0.3961  0.8168  0.2095
  509MOL0     C70142  -0.339   5.052  11.741 -0.6259 -1.3850  0.4673
  509MOL0     C70143  -0.379   5.024  11.590  0.3529 -0.3891 -0.6505
  509MOL0     C70144  -0.336   5.141  11.505  0.6750 -0.0277 -0.4994
  509MOL0     C70145  -0.432   5.250  11.495  0.5668 -0.8097  0.6660
  509MOL0     C70146  -0.462   5.286  11.349 -0.3973 -0.0434  0.5879
  509MOL0     C70147  -0.544   5.412  11.340 -0.6352  0.8001  0.5059
  509MOL0     C70148  -0.568   5.460  11.192 -0.7495  0.2555  0.3438
  509MOL0    Cl70149  -0.404   5.492  11.110  0.0480 -0.6323  0.0457
  509MOL0     C70150  -0.363   4.656  11.961  0.2780 -0.3454 -0.5164
  509MOL0     C70151  -0.406   4.531  12.009 -0.3543 -0.2688  0.0180
  509MOL0     O70152  -0.680   4.379  12.004 -0.4547  0.1093  0.3269
  509MOL0     C70153  -0.528   4.054  12.062 -0.1918 -0.0634  0.5279
  509MOL0     C70154  -0.548   3.919  12.099 -0.4936 -0.2311  0.5661
  509MOL0     N70155  -0.524   3.269  12.326 -0.2989  0.1853 -0.2084
  509MOL0     N70156  -0.491   3.163  12.270  0.3198  0.4894 -0.0668
  509MOL0     C70157  -0.259   3.334  11.258  0.0738 -0.4774  0.0606
  509MOL0     C70158  -0.199   3.367  11.133 -0.4545 -1.0117  0.2376
  509MOL0     C70159   0.100   3.377  10.798 -0.1763 -0.2761 -0.7638
  509MOL0     C70160   0.012   3.405  10.695  0.0438  0.9313  0.0995
  509MOL0     C70161   0.050   3.502  10.604  0.1438 -0.1841  0.5008
  509MOL0     C70162   0.188   3.541  10.588  0.3471 -0.7992 -0.0072
  509MOL0     O70163   0.231   3.623  10.483 -0.3937  0.5520 -0.2667
  509MOL0     C70164   0.140   3.707  10.408 -0.4344 -0.3935  0.3535
  509MOL0     C70165   0.067   3.814  10.491 -0.3181  0.3713  0.1449
  509MOL0     C70166   0.152   3.883  10.601  0.7785 -0.8946  0.9988
  509MOL0     C70167   0.083   4.007  10.654 -0.1347  0.1390 -1.2209
  509MOL0     C70168   0.167   4.059  10.762  0.3813 -0.1659  1.2306
  509MOL0     C70169   0.239   4.117  10.836 -0.6859  0.0878  0.7793
  509MOL0     C70170   0.273   3.501  10.690  0.5654 -0.2734 -0.1695
  509MOL0     C70171   0.229   3.432  10.801 -0.3094  0.0714  0.7489
  509MOL0     C70172   0.343   3.389  10.894  1.3622 -0.2460  0.0704
  509MOL0     H70173  -0.089   3.063  11.042  1.9267  0.3114  1.1670
  509MOL0     H70174  -0.163   3.007  11.256 -1.3465  0.6784  2.5697
  509MOL0     H70175  -0.307   2.956  11.437 -0.4350  0.6932 -1.5945
  509MOL0     H70176  -0.438   3.028  11.357  0.9949  1.3390 -1.4087
  509MOL0     H70177  -0.386   2.978  11.645 -0.9596 -1.2630 -0.3534
  509MOL0     H70178  -0.466   3.138  11.616  1.4358  0.7844  1.1742
  509MOL0     H70179  -0.660   3.033  11.547 -1.0369 -0.8076  2.2470
  509MOL0     H70180  -0.587   2.900  11.463 -2.5358 -1.1711  1.5390
  509MOL0     H70181  -0.703   2.815  11.666 -0.2507  1.8342 -1.7383
  509MOL0     H70182  -0.535   2.790  11.683 -2.1357 -0.8948  1.6909
  509MOL0     H70183  -0.678   3.035  11.779 -0.1934 -1.2178 -2.8745
  509MOL0     H70184  -0.513   2.999  11.825  1.1166 -3.0069 -1.2199
  509MOL0     H70185  -0.744   2.832  11.921  0.8499 -1.9517 -0.5658
  509MOL0     H70186  -0.591   2.799  11.965 -2.5333 -3.0647 -3.0667
  509MOL0     H70187  -0.785   2.986  12.077 -0.7584 -1.8343 -0.2531
  509MOL0     H70188  -0.653   3.082  12.006  1.9532  0.1680  2.3702
  509MOL0     H70189  -0.613   2.873  12.206  1.0587 -0.0741 -1.3676
  509MOL0     H70190  -0.491   2.976  12.129  0.2466 -1.5571  0.8803
  509MOL0     H70191  -0.815   3.108  12.287 -0.3546  1.2663 -1.9363
  509MOL0     H70192  -0.735   3.366  12.502  1.1689 -5.0636 -0.0467
  509MOL0     H70193  -0.863   3.346  12.371  0.1418  0.8117 -1.4497
  509MOL0     H70194  -0.816   3.571  12.392  0.2556  0.2729  0.3921
  509MOL0     H70195  -0.640   3.555  12.361  2.8091 -2.3685 -4.6841
  509MOL0     H70196  -0.656   3.487  12.145  1.4235 -0.8772  4.7399
  509MOL0     H70197  -0.838   3.468  12.163 -3.8897  3.7643  3.0789
  509MOL0     H70198  -0.775   3.672  12.028  2.2938  0.9454  0.3874
  509MOL0     H70199  -0.871   3.697  12.184  0.3549  1.3882  0.5646
  509MOL0     H70200  -0.882   3.909  12.087 -0.4106  0.4035 -1.0741
  509MOL0     H70201  -0.980   4.109  12.006  0.7301 -0.4393 -1.9553
  509MOL0     H70202  -0.887   4.191  11.892 -4.0666  0.5121 -0.1388
  509MOL0     H70203  -0.895   4.252  12.065 -1.8974  1.1620 -0.8790
  509MOL0     H70204  -0.370   4.364  11.713  1.2040  0.0998 -0.9626
  509MOL0     H70205  -0.288   4.580  11.642 -0.8569 -2.3269 -1.0006
  509MOL0     H70206  -0.479   4.897  11.835 -0.0450 -0.5612  0.7150
  509MOL0     H70207  -0.347   4.954  11.931 -3.7076  6.8101 -0.2275
  509MOL0     H70208  -0.384   5.139  11.788  0.8685 -0.2373 -0.1370
  509MOL0     H70209  -0.229   5.058  11.740 -0.6863 -0.1422  0.5714
  509MOL0     H70210  -0.487   5.003  11.588  0.0294  0.2585  3.0596
  509MOL0     H70211  -0.316   4.941  11.556  2.4049  0.7566  0.1811
  509MOL0     H70212  -0.317   5.096  11.408  1.3062 -1.6648  0.3501
  509MOL0     H70213  -0.236   5.176  11.529 -0.0318  2.3445 -0.6872
  509MOL0     H70214  -0.528   5.234  11.544 -0.8993  3.6566 -0.2581
  509MOL0     H70215  -0.392   5.341  11.541 -1.5563  2.6172 -3.5139
  509MOL0     H70216  -0.497   5.198  11.294 -0.6262  0.3447  0.1072
  509MOL0     H70217  -0.364   5.317  11.313  0.2416 -1.9301  0.6011
  509MOL0     H70218  -0.499   5.491  11.400 -0.8864 -0.7413  2.8497
  509MOL0     H70219  -0.642   5.391  11.384 -0.2889  0.8329  1.3071
  509MOL0     H70220  -0.641   5.542  11.190  0.8994  1.8954  2.1955
  509MOL0     H70221  -0.608   5.376  11.135  1.8007 -1.2129  0.5557
  509MOL0     H70222  -0.385   4.737  12.030 -2.1562 -1.3495  0.0072
  509MOL0     H70223  -0.427   4.527  12.115  0.3377  1.8070  0.2765
  509MOL0     H70224  -0.420   4.064  12.053  0.0082 -0.4953  2.0741
  509MOL0     H70225  -0.453   3.869  12.117 -0.1472 -0.4187 -1.4998
  509MOL0     H70226  -0.306   3.410  11.320  3.7603  2.1693 -0.0946
  509MOL0     H70227  -0.197   3.473  11.110  1.0179 -1.0521  0.0991
  509MOL0     H70228  -0.084   3.354  10.696 -0.6277  2.1340 -0.4612
  509MOL0     H70229  -0.022   3.525  10.527 -0.1697 -1.2754  0.4585
  509MOL0     H70230   0.211   3.757  10.341  1.0462 -2.6389  0.1217
  509MOL0     H70231   0.069   3.649  10.349 -0.4146  0.2704 -0.3303
  509MOL0     H70232  -0.016   3.772  10.548  0.2851 -0.2907  0.5689
  509MOL0     H70233   0.024   3.885  10.421  0.8697 -0.0248 -1.0259
  509MOL0     H70234   0.177   3.819  10.686  2.3818 -1.9689 -0.2157
  509MOL0     H70235   0.255   3.901  10.568  0.1369  0.5439 -0.3158
  509MOL0     H70236  -0.013   3.983  10.700  1.0501 -1.4584  0.5803
  509MOL0     H70237   0.075   4.086  10.579  0.9059  0.3628 -1.1183
  509MOL0     H70238   0.298   4.178  10.901 -0.7429 -2.1801  3.1370
  509MOL0     H70239   0.372   3.541  10.670 -0.0723  0.9913 -0.9228
  509MOL0     H70240   0.438   3.430  10.859  0.2394  0.8566 -1.9231
  509MOL0     H70241   0.318   3.420  10.996 -0.6615 -0.2954 -0.3697
  509MOL0     H70242   0.344   3.282  10.873  2.0379  0.0915 -1.8185
  510MOL0     O70243   4.555   7.888   0.026 -0.6437  0.9727  0.8859
  510MOL0     C70244   4.650   7.835   0.095 -0.3792  0.7132  0.6972
  510MOL0     O70245   4.645   7.736   0.186 -0.2917 -1.3539  0.0967
  510MOL0     C70246   4.518   7.677   0.197 -0.1393 -0.4534  0.5381
  510MOL0     C70247   4.419   7.718   0.290 -0.3495  0.2632  0.4150
  510MOL0     C70248   4.293   7.659   0.283 -0.5612  0.0628  0.8370
  510MOL0     C70249   4.270   7.554   0.195 -0.8681  0.0580 -0.2647
  510MOL0     O70250   4.145   7.494   0.174 -0.4447 -0.4680 -0.1525
  510MOL0     C70251   4.040   7.587   0.130 -0.8512 -1.4694 -0.8997
  510MOL0     C70252   3.932   7.500   0.094  0.4216  0.0580  0.3490
  510MOL0     C70253   3.806   7.590   0.069 -0.6121 -0.1305  0.2797
  510MOL0     C70254   3.777   7.715   0.163 -0.6781  0.2625 -0.5820
  510MOL0     C70255   3.660   7.781   0.113  0.1463  0.1350  0.9242
  510MOL0     C70256   3.645   7.930   0.148  0.3615 -0.7956 -0.4492
  510MOL0     C70257   3.518   7.984   0.077  0.0217  0.9056  0.3330
  510MOL0     C70258   3.505   8.136   0.059  0.2944 -0.3708 -0.4864
  510MOL0     N70259   3.405   8.201   0.146  0.4976 -0.1618 -0.1704
  510MOL0     C70260   3.272   8.217   0.121  0.5060  0.0636  0.3190
  510MOL0     C70261   3.213   8.249   0.242  0.1644  0.2151  0.5077
  510MOL0     C70262   3.062   8.265   0.257  0.6457 -0.3735 -0.5444
  510MOL0     C70263   2.983   8.216   0.140 -0.6917 -0.7934 -0.8903
  510MOL0     C70264   2.834   8.242   0.176  0.7452 -0.2853 -0.3078
  510MOL0     C70265   2.735   8.210   0.065  0.0253  1.5594 -0.2275
  510MOL0     O70266   2.727   8.067   0.053  0.4275  0.0698 -0.4107
  510MOL0     C70267   2.634   8.025  -0.035  0.1472 -0.0411 -0.3343
  510MOL0     C70268   2.665   7.897  -0.085  0.0492  0.7443  0.2328
  510MOL0     C70269   2.590   7.827  -0.180 -0.6804  0.7695 -0.0533
  510MOL0     C70270   2.634   7.688  -0.207  0.1327  0.0007  0.3641
  510MOL0     C70271   2.473   7.891  -0.226  0.2993  0.9661 -0.1321
  510MOL0     C70272   2.398   7.829  -0.332 -0.0303  0.7378  0.3046
  510MOL0     O70273   2.351   7.900  -0.440  0.1150 -0.3143 -0.5807
  510MOL0     C70274   2.296   7.829  -0.541 -0.1484  0.7147 -0.9772
  510MOL0     C70275   2.373   7.725  -0.602 -0.9121 -0.7649  0.3959
  510MOL0     C70276   2.317   7.654  -0.707 -0.3094 -0.0624  1.2044
  510MOL0     C70277   2.181   7.683  -0.747 -0.9109  1.1656  0.4879
  510MOL0     O70278   2.123   7.604  -0.842  0.7780  0.1249  0.1558
  510MOL0     C70279   2.036   7.671  -0.926  0.5234 -0.3924  0.2995
  510MOL0     C70280   2.106   7.790  -0.990  1.1628 -0.5512  0.0508
  510MOL0     C70281   2.226   7.751  -1.070  0.3352 -0.1086 -0.7520
  510MOL0     C70282   2.337   7.855  -1.067 -0.2604 -0.3262  0.3500
  510MOL0     C70283   2.296   7.996  -1.136  0.3214 -0.3638  0.2547
  510MOL0     C70284   2.388   8.116  -1.122 -0.5959  0.5669  0.0768
  510MOL0     C70285   2.315   8.244  -1.179 -0.2238  0.0437  0.0548
  510MOL0     C70286   2.391   8.369  -1.203  0.5099  0.0882  0.1570
  510MOL0    Cl70287   2.494   8.339  -1.357  0.0240 -0.1363  0.0369
  510MOL0     C70288   2.106   7.783  -0.687  0.5184  0.4561  0.2913
  510MOL0     C70289   2.166   7.850  -0.580 -1.2048 -0.4253 -0.1087
  510MOL0     O70290   2.377   7.709  -0.307  0.3710  0.6069 -0.1391
  510MOL0     C70291   2.440   8.021  -0.179  0.1011  0.2112  0.2240
  510MOL0     C70292   2.521   8.091  -0.089 -0.6820  0.0114 -0.4483
  510MOL0     N70293   3.307   8.244   0.343  0.2164 -0.0827 -0.2641
  510MOL0     N70294   3.423   8.228   0.274  0.9168  0.2215  1.0009
  510MOL0     C70295   4.366   7.514   0.111  0.0174  0.0265  1.4223
  510MOL0     C70296   4.493   7.570   0.115  0.1914 -0.2947 -0.3498
  510MOL0     C70297   4.793   7.868   0.049 -0.9205 -1.1027  0.0547
  510MOL0     C70298   4.904   7.804   0.108 -0.1149  0.1180 -0.1141
  510MOL0     C70299   5.034   7.834   0.081 -0.1807 -0.4280 -0.9349
  510MOL0     C70300   5.065   7.922  -0.026 -0.7611 -0.2068  0.0705
  510MOL0     O70301   5.193   7.960  -0.043 -1.1621 -0.6971 -0.7588
  510MOL0     C70302   5.233   8.009  -0.169  0.1168 -0.1533  0.0586
  510MOL0     C70303   5.384   8.013  -0.186 -0.1666  1.3617 -0.2090
  510MOL0     C70304   5.412   8.067  -0.333  0.2305 -0.6103  0.0685
  510MOL0     C70305   5.501   8.192  -0.329 -0.0350  1.1169 -0.3490
  510MOL0     C70306   5.473   8.282  -0.217  0.1896  0.5090  0.3976
  510MOL0     C70307   5.451   8.364  -0.133  0.6672 -0.6893 -0.8482
  510MOL0     C70308   4.957   7.992  -0.093  1.4337 -0.1643  0.3306
  510MOL0     C70309   4.824   7.963  -0.050 -0.7196  0.3622  0.1310
  510MOL0     C70310   4.725   8.066  -0.094  0.8721 -0.3406  0.3308
  510MOL0     H70311   4.437   7.793   0.366 -0.9229  0.0690  0.7444
  510MOL0     H70312   4.218   7.696   0.351  0.6053  1.4182  1.4363
  510MOL0     H70313   4.085   7.621   0.036  0.6640  0.8947  0.5953
  510MOL0     H70314   4.023   7.670   0.198  0.2860 -0.2127 -2.0775
  510MOL0     H70315   3.955   7.446   0.002 -1.0249 -0.7215  0.4115
  510MOL0     H70316   3.923   7.429   0.177  3.2758 -0.5990  0.1805
  510MOL0     H70317   3.822   7.614  -0.037  0.9082 -2.7010 -0.1630
  510MOL0     H70318   3.722   7.520   0.077  1.2343 -2.2532  3.7540
  510MOL0     H70319   3.770   7.696   0.270 -1.1231  1.9826 -0.2865
  510MOL0     H70320   3.864   7.781   0.156 -0.1742 -0.4129 -0.8116
  510MOL0     H70321   3.574   7.722   0.147  1.7037 -1.5579  2.1272
  510MOL0     H70322   3.662   7.786   0.004 -1.2334 -1.3375  0.7915
  510MOL0     H70323   3.637   7.951   0.255  0.6784  0.9248 -0.7251
  510MOL0     H70324   3.728   7.998   0.126 -1.7895  2.3660  0.4706
  510MOL0     H70325   3.429   7.952   0.133  0.4051 -2.8519 -0.9993
  510MOL0     H70326   3.518   7.934  -0.020 -1.7511 -0.4339  0.9749
  510MOL0     H70327   3.602   8.175   0.090 -0.0209  1.4097 -1.6049
  510MOL0     H70328   3.488   8.164  -0.046  2.3675 -0.4771 -0.9045
  510MOL0     H70329   3.224   8.199   0.025  0.8790  1.2373 -0.0970
  510MOL0     H70330   3.058   8.374   0.251 -0.3933 -0.4030 -0.6638
  510MOL0     H70331   3.010   8.233   0.347 -0.9251  0.9023 -0.9373
  510MOL0     H70332   3.023   8.238   0.040 -0.9717 -2.3860 -1.3770
  510MOL0     H70333   2.992   8.107   0.148  1.6315 -0.5057  2.7751
  510MOL0     H70334   2.808   8.201   0.274 -0.0808  2.4138  0.6898
  510MOL0     H70335   2.819   8.351   0.183  0.4883 -0.2655 -1.1250
  510MOL0     H70336   2.652   8.265   0.111  0.0986  1.9197 -0.5221
  510MOL0     H70337   2.763   8.241  -0.036 -1.1523  1.6622 -0.5378
  510MOL0     H70338   2.750   7.845  -0.042 -0.0827 -0.7938 -1.2668
  510MOL0     H70339   2.611   7.658  -0.310 -0.3891  3.0452 -0.4919
  510MOL0     H70340   2.574   7.626  -0.140  0.6735  1.5808  2.3953
  510MOL0     H70341   2.742   7.676  -0.196  0.1465  0.1128  0.3485
  510MOL0     H70342   2.474   7.710  -0.567 -0.4836  3.2419  1.3634
  510MOL0     H70343   2.382   7.576  -0.746 -0.6484 -0.4188  1.3394
  510MOL0     H70344   2.002   7.605  -1.006 -1.6467  1.6671 -0.5684
  510MOL0     H70345   1.943   7.683  -0.870  1.3460 -4.6535  3.0388
  510MOL0     H70346   2.040   7.816  -1.073  0.7006 -3.4447 -0.6020
  510MOL0     H70347   2.104   7.877  -0.924 -0.3082 -0.5903  0.0923
  510MOL0     H70348   2.198   7.743  -1.175  0.2751  0.3050 -0.7663
  510MOL0     H70349   2.261   7.655  -1.031  0.2030  0.5900  1.2439
  510MOL0     H70350   2.422   7.825  -1.129 -1.2522  2.8993 -2.9339
  510MOL0     H70351   2.369   7.874  -0.964  0.5761  0.7506 -0.0923
  510MOL0     H70352   2.281   7.972  -1.242  0.9389 -0.2471  0.1417
  510MOL0     H70353   2.197   8.020  -1.095  1.0069  0.8733  1.2245
  510MOL0     H70354   2.482   8.091  -1.173 -0.9177 -2.3184  0.7270
  510MOL0     H70355   2.424   8.130  -1.020  3.0941 -2.4812 -0.5784
  510MOL0     H70356   2.231   8.260  -1.111  0.4110 -0.3505  0.9431
  510MOL0     H70357   2.276   8.216  -1.277  1.6193  1.9747 -1.3215
  510MOL0     H70358   2.459   8.401  -1.123  1.9105  0.7216 -1.2222
  510MOL0     H70359   2.327   8.456  -1.218  1.1671  0.8223  1.4131
  510MOL0     H70360   2.002   7.800  -0.712  0.6447  1.4703  0.4258
  510MOL0     H70361   2.110   7.925  -0.525  1.8952  2.8400 -1.0017
  510MOL0     H70362   2.353   8.073  -0.215  1.4757  2.9139  0.5454
  510MOL0     H70363   2.502   8.192  -0.054  1.3360  1.3849 -2.9791
  510MOL0     H70364   4.346   7.445   0.029  2.0011  1.7853 -0.6669
  510MOL0     H70365   4.572   7.544   0.045 -0.0798 -1.1264 -0.3665
  510MOL0     H70366   4.887   7.730   0.186  3.0984  1.9064  2.5364
  510MOL0     H70367   5.116   7.781   0.128  2.9160  4.5620 -0.0136
  510MOL0     H70368   5.178   7.958  -0.248 -2.3749  1.9617  0.3032
  510MOL0     H70369   5.206   8.115  -0.166 -1.6336 -0.6019  2.1219
  510MOL0     H70370   5.414   7.908  -0.181 -0.9658  1.1500  0.2179
  510MOL0     H70371   5.431   8.066  -0.103  0.6588  0.0758  0.1872
  510MOL0     H70372   5.446   7.984  -0.396 -1.0680 -0.9076 -0.2633
  510MOL0     H70373   5.321   8.098  -0.385  0.6906  1.9928  0.6737
  510MOL0     H70374   5.503   8.256  -0.417 -0.9453 -0.0293 -1.2347
  510MOL0     H70375   5.605   8.160  -0.314 -0.2372  0.8764  0.5811
  510MOL0     H70376   5.444   8.438  -0.057  0.4496 -1.3535 -0.2083
  510MOL0     H70377   4.969   8.072  -0.165  0.0887 -0.6127 -0.4206
  510MOL0     H70378   4.686   8.110  -0.002  3.0482  2.2381  0.1414
  510MOL0     H70379   4.763   8.155  -0.145 -0.2650 -0.6598 -1.1657
  510MOL0     H70380   4.647   8.030  -0.162  1.0492  0.0119 -0.0682
  511MOL0     O70381   1.263  10.809   5.585 -0.5365 -0.8568  0.2439
  511MOL0     C70382   1.256  10.726   5.672  0.5293  0.6449  0.0278
  511MOL0     O70383   1.355  10.702   5.766 -0.0183 -0.7633 -0.1788
  511MOL0     C70384   1.488  10.706   5.731  0.2806 -1.1703 -0.2213
  511MOL0     C70385   1.539  10.677   5.602 -0.3114  0.3951 -0.7663
  511MOL0     C70386   1.680  10.704   5.563  0.0454 -0.1798 -0.4406
  511MOL0     C70387   1.772  10.758   5.665  0.4174 -0.2327  0.9621
  511MOL0     O70388   1.902  10.769   5.637  0.4257  0.2223 -0.3014
  511MOL0     C70389   1.991  10.741   5.739 -0.1853  0.3620 -0.4308
  511MOL0     C70390   2.125  10.706   5.681 -0.3891 -0.1890  0.4843
  511MOL0     C70391   2.114  10.585   5.590  0.6115  0.0845  0.2045
  511MOL0     C70392   2.247  10.564   5.517 -0.2602  0.4821  0.0870
  511MOL0     C70393   2.237  10.460   5.403 -0.0429  0.0288  0.8782
  511MOL0     C70394   2.153  10.507   5.281  0.2486  0.7328  0.4005
  511MOL0     C70395   2.149  10.387   5.185  0.3159 -0.1930 -0.0825
  511MOL0     C70396   2.064  10.420   5.059 -0.6229 -0.2193  0.7895
  511MOL0     N70397   2.021  10.307   4.973  0.5780 -0.5678  0.2262
  511MOL0     C70398   2.055  10.288   4.845  0.4300 -1.4220 -0.2377
  511MOL0     C70399   1.976  10.197   4.798 -0.6836 -0.0299  0.8001
  511MOL0     C70400   1.953  10.135   4.667 -0.4490 -0.1579  0.5874
  511MOL0     C70401   2.034   9.992   4.659  0.3726 -0.8853 -0.8163
  511MOL0     C70402   2.185   9.997   4.674 -1.0182  0.3546 -0.0976
  511MOL0     C70403   2.250   9.860   4.699  0.2426 -0.5583 -0.6350
  511MOL0     O70404   2.230   9.775   4.593 -0.0777 -0.6828 -0.3310
  511MOL0     C70405   2.183   9.651   4.628 -0.3139  0.0640 -0.4581
  511MOL0     C70406   2.233   9.554   4.716 -0.0240 -1.1316 -0.0886
  511MOL0     C70407   2.180   9.424   4.730  0.0684 -0.2341  0.3686
  511MOL0     C70408   2.246   9.322   4.828 -0.8172  0.4662  0.7500
  511MOL0     C70409   2.074   9.389   4.647  0.5357 -0.2353 -0.0072
  511MOL0     C70410   2.009   9.259   4.656  0.5463  0.0340  0.6951
  511MOL0     O70411   1.871   9.268   4.665 -0.4768  0.1436  0.2944
  511MOL0     C70412   1.798   9.170   4.596 -1.1302 -0.6945 -0.0058
  511MOL0     C70413   1.795   9.178   4.460  0.4114 -0.2898  0.9541
  511MOL0     C70414   1.693   9.102   4.392 -0.0650 -0.1726 -0.1875
  511MOL0     C70415   1.608   9.012   4.467 -0.2583  0.6400 -0.0064
  511MOL0     O70416   1.521   8.924   4.408  0.1340  0.7435 -0.8481
  511MOL0     C70417   1.568   8.856   4.292  0.0520  0.4679  0.1548
  511MOL0     C70418   1.454   8.786   4.226  0.7177 -0.0644  1.0169
  511MOL0     C70419   1.475   8.745   4.082  0.5055 -0.3061 -1.0521
  511MOL0     C70420   1.373   8.635   4.036 -0.1197 -0.3212 -0.3953
  511MOL0     C70421   1.247   8.702   3.982  0.4211  0.2407  0.1867
  511MOL0     C70422   1.149   8.597   3.928 -0.1997 -0.1220  0.9603
  511MOL0     C70423   1.043   8.658   3.819  1.4153 -0.9008 -0.5868
  511MOL0     C70424   0.914   8.715   3.882 -0.0030  0.6962  0.0544
  511MOL0    Cl70425   0.823   8.566   3.959  0.3635 -0.1311 -0.3797
  511MOL0     C70426   1.615   9.016   4.599 -0.2511  0.4465  0.0858
  511MOL0     C70427   1.711   9.097   4.665 -0.1636 -0.7388  0.2040
  511MOL0     O70428   2.066   9.159   4.641 -0.8888 -0.2599  0.2513
  511MOL0     C70429   2.011   9.491   4.572 -0.2583 -0.2799  0.0086
  511MOL0     C70430   2.071   9.620   4.561  0.3549  1.1031  0.7780
  511MOL0     N70431   1.883  10.158   4.899 -0.2245 -0.3590  0.5371
  511MOL0     N70432   1.917  10.223   5.000 -0.7775 -1.2618  0.6371
  511MOL0     C70433   1.706  10.784   5.793 -0.3338 -1.4693  0.6413
  511MOL0     C70434   1.575  10.757   5.828 -0.1810  0.6441  0.1099
  511MOL0     C70435   1.119  10.654   5.666 -0.5949 -0.3620  0.6709
  511MOL0     C70436   1.009  10.722   5.596  1.2340  0.1480 -0.1472
  511MOL0     C70437   0.885  10.661   5.596  0.5113 -0.5514  0.9541
  511MOL0     C70438   0.855  10.541   5.657 -0.6671  0.0655  0.7538
  511MOL0     O70439   0.744  10.466   5.648  0.0290  0.2461 -0.0891
  511MOL0     C70440   0.627  10.526   5.603  0.9035 -0.8636 -0.5778
  511MOL0     C70441   0.511  10.439   5.656 -1.6987  1.0377 -0.6113
  511MOL0     C70442   0.384  10.460   5.561  0.5607  0.3756 -0.0745
  511MOL0     C70443   0.259  10.413   5.647 -0.2303  0.1268 -0.6526
  511MOL0     C70444   0.224  10.498   5.758  0.1103  0.0361 -1.1264
  511MOL0     C70445   0.214  10.570   5.853  0.4899  0.3810  0.0705
  511MOL0     C70446   0.966  10.479   5.721 -0.6466 -0.1035 -0.3913
  511MOL0     C70447   1.093  10.537   5.739  0.1702  0.6994 -0.9139
  511MOL0     C70448   1.199  10.461   5.834 -0.0290 -0.0921  0.3096
  511MOL0     H70449   1.481  10.627   5.525  0.8499 -3.9726  0.8691
  511MOL0     H70450   1.722  10.676   5.467  0.0124 -1.5563 -0.0667
  511MOL0     H70451   1.958  10.655   5.799  1.4195  1.0047  1.4719
  511MOL0     H70452   2.005  10.823   5.810  0.2374  0.6583 -0.8531
  511MOL0     H70453   2.154  10.796   5.627  1.6722 -0.7270  0.6258
  511MOL0     H70454   2.196  10.686   5.762 -0.2093 -3.1374 -0.3019
  511MOL0     H70455   2.074  10.500   5.647 -1.4240  1.2699  0.6626
  511MOL0     H70456   2.033  10.596   5.517  0.2461 -4.4490 -0.3659
  511MOL0     H70457   2.282  10.660   5.476 -1.7129 -0.6694 -4.4118
  511MOL0     H70458   2.316  10.523   5.591 -1.1909 -1.7713 -0.2096
  511MOL0     H70459   2.183  10.373   5.442 -0.4076  1.5137  3.9844
  511MOL0     H70460   2.342  10.441   5.378  0.7223  0.6379  3.3866
  511MOL0     H70461   2.053  10.547   5.300 -0.8380  0.1273 -3.3120
  511MOL0     H70462   2.212  10.587   5.236 -0.3987 -0.8793 -3.7660
  511MOL0     H70463   2.097  10.306   5.236 -0.7684 -1.2454 -2.6764
  511MOL0     H70464   2.244  10.340   5.159 -0.3380 -2.9651  2.0354
  511MOL0     H70465   1.965  10.440   5.102 -0.6153 -0.0832  0.7441
  511MOL0     H70466   2.103  10.503   4.999 -0.2635  1.0182  2.6488
  511MOL0     H70467   2.122  10.348   4.784 -2.7994  0.5988 -2.0927
  511MOL0     H70468   1.980  10.193   4.578 -1.0322 -0.0566  0.4700
  511MOL0     H70469   1.849  10.106   4.653  0.7398 -4.5590 -1.0088
  511MOL0     H70470   2.002   9.930   4.743 -1.0310 -0.9649 -1.3835
  511MOL0     H70471   1.987   9.946   4.572  0.2507 -2.1211 -0.1157
  511MOL0     H70472   2.218  10.030   4.575 -3.0179 -2.1256 -1.7243
  511MOL0     H70473   2.215  10.071   4.750 -2.4153 -0.7802  1.6382
  511MOL0     H70474   2.357   9.883   4.707  0.8513 -1.7198 -3.8098
  511MOL0     H70475   2.229   9.814   4.796  2.3597 -0.5508 -0.1309
  511MOL0     H70476   2.325   9.567   4.772 -0.6206  0.0809  0.6480
  511MOL0     H70477   2.333   9.374   4.870 -0.0899  0.1831 -0.3716
  511MOL0     H70478   2.276   9.236   4.767 -1.5519  0.9823 -0.3684
  511MOL0     H70479   2.182   9.276   4.905  0.9902 -6.3192 -1.0866
  511MOL0     H70480   1.868   9.233   4.401 -1.8677 -2.5904 -4.7239
  511MOL0     H70481   1.690   9.092   4.284 -0.1772 -0.7502 -0.1346
  511MOL0     H70482   1.596   8.935   4.222  0.4653 -0.8916 -1.2910
  511MOL0     H70483   1.652   8.788   4.312  0.7976  1.1739 -0.5131
  511MOL0     H70484   1.446   8.698   4.290  1.2831 -0.9888 -0.1385
  511MOL0     H70485   1.367   8.850   4.240 -0.3393 -0.2076 -3.2493
  511MOL0     H70486   1.577   8.704   4.082  0.0855 -1.5105  1.2337
  511MOL0     H70487   1.469   8.839   4.026 -3.3055  0.7049  0.7060
  511MOL0     H70488   1.353   8.570   4.122 -0.3664 -0.7289 -0.7568
  511MOL0     H70489   1.424   8.569   3.967 -1.0779 -1.2441 -0.2468
  511MOL0     H70490   1.192   8.757   4.059 -2.6267  1.0165 -2.3128
  511MOL0     H70491   1.264   8.789   3.917  0.4560  2.3906  2.9035
  511MOL0     H70492   1.091   8.560   4.013  1.0851  0.6919  2.2486
  511MOL0     H70493   1.208   8.519   3.880 -1.6628 -0.6812  0.0189
  511MOL0     H70494   1.003   8.582   3.751 -1.7858  2.7154 -3.2089
  511MOL0     H70495   1.100   8.738   3.770  0.2181  0.6765  0.4710
  511MOL0     H70496   0.864   8.761   3.796 -0.2382  0.0366 -0.1672
  511MOL0     H70497   0.940   8.796   3.951  2.6063  0.7183 -0.8225
  511MOL0     H70498   1.552   8.953   4.660  1.8146 -2.4593 -0.5996
  511MOL0     H70499   1.696   9.100   4.772 -0.1809  0.8849  0.1786
  511MOL0     H70500   1.922   9.483   4.510 -2.1359  3.1367  1.9177
  511MOL0     H70501   2.029   9.693   4.494  1.6577 -0.2642 -1.6542
  511MOL0     H70502   1.757  10.836   5.874 -0.6257  1.1555 -0.7736
  511MOL0     H70503   1.533  10.786   5.924 -1.6903  1.3958 -0.7420
  511MOL0     H70504   1.024  10.821   5.553  2.8920 -0.1448 -0.3200
  511MOL0     H70505   0.813  10.725   5.544  0.0022 -1.6431  0.2676
  511MOL0     H70506   0.616  10.626   5.645 -0.5288 -0.2236 -2.3494
  511MOL0     H70507   0.623  10.538   5.495 -1.4538 -1.0287 -0.5790
  511MOL0     H70508   0.496  10.450   5.764 -2.5411 -0.9298 -0.4814
  511MOL0     H70509   0.537  10.335   5.637 -1.4042  1.4245 -2.5998
  511MOL0     H70510   0.373  10.569   5.549  1.5201  0.4127 -0.7349
  511MOL0     H70511   0.391  10.402   5.469 -0.4696 -1.0269  0.6985
  511MOL0     H70512   0.283  10.308   5.665  3.5148  0.9519 -0.0311
  511MOL0     H70513   0.165  10.403   5.592 -0.1177 -0.9517 -0.6788
  511MOL0     H70514   0.220  10.611   5.952  3.5050 -2.8933  1.4440
  511MOL0     H70515   0.956  10.400   5.794 -1.8716 -0.6647 -1.1372
  511MOL0     H70516   1.154  10.378   5.889  1.8349 -2.1673 -1.1193
  511MOL0     H70517   1.274  10.419   5.767  2.2067  0.3508  2.3784
  511MOL0     H70518   1.243  10.528   5.909 -0.2724  1.2016 -0.6546
  512MOL0     O70519   8.821   5.119   4.015  0.4385 -0.1332  0.6229
  512MOL0     C70520   8.886   5.220   3.973  0.6156  0.4603 -0.5641
  512MOL0     O70521   9.012   5.223   3.934  0.0817 -0.2464 -0.8679
  512MOL0     C70522   9.078   5.106   3.948 -0.9824 -0.0244 -0.3627
  512MOL0     C70523   9.104   5.049   4.075  0.3998  0.6170  0.7332
  512MOL0     C70524   9.168   4.922   4.084  0.1381 -0.4099 -0.5495
  512MOL0     C70525   9.216   4.862   3.971 -0.3602 -0.1469  0.5527
  512MOL0     O70526   9.300   4.748   3.981 -0.2482 -0.1852  0.1401
  512MOL0     C70527   9.420   4.759   3.914  0.0803 -0.9598  1.0271
  512MOL0     C70528   9.475   4.621   3.877 -0.2064  0.3590 -0.1271
  512MOL0     C70529   9.533   4.525   3.984 -0.5486  0.0966 -0.7197
  512MOL0     C70530   9.659   4.582   4.050 -0.3339  0.3682  0.0248
  512MOL0     C70531   9.697   4.507   4.178  0.5863 -0.4115  0.3991
  512MOL0     C70532   9.827   4.565   4.219 -0.0003 -0.4475 -0.6883
  512MOL0     C70533   9.896   4.497   4.334  0.0028 -0.2035 -0.4987
  512MOL0     C70534   9.921   4.352   4.306  0.1396 -0.2137 -0.2635
  512MOL0     N70535   9.955   4.276   4.426  1.0556 -0.0328  1.0082
  512MOL0     C70536  10.071   4.295   4.488 -0.1516 -0.7600 -0.3369
  512MOL0     C70537  10.068   4.214   4.595  0.0205  0.6132  0.4970
  512MOL0     C70538  10.169   4.173   4.698  0.4953 -0.6275  0.9910
  512MOL0     C70539  10.112   4.127   4.838  0.2658 -0.5075 -0.2692
  512MOL0     C70540  10.225   4.111   4.943  0.0404  0.7717 -1.0043
  512MOL0     C70541  10.310   3.980   4.931 -0.1078  0.8580 -0.1450
  512MOL0     O70542  10.371   3.956   4.803  0.4312 -0.2239  0.2925
  512MOL0     C70543  10.480   4.027   4.768 -0.5671 -0.2307 -0.1222
  512MOL0     C70544  10.501   4.027   4.635 -0.2014  0.3292  0.4168
  512MOL0     C70545  10.597   4.104   4.568 -0.4141 -0.1358  0.3415
  512MOL0     C70546  10.628   4.097   4.418 -0.1067 -0.2223  0.1206
  512MOL0     C70547  10.668   4.200   4.647  0.5739 -0.2195 -0.0733
  512MOL0     C70548  10.792   4.278   4.597 -0.5412  0.9567 -0.3013
  512MOL0     O70549  10.796   4.320   4.465  0.2529  0.6591 -0.8018
  512MOL0     C70550  10.896   4.396   4.417  0.2315  0.3641  0.1372
  512MOL0     C70551  10.945   4.389   4.284  0.8613  0.0372 -0.2578
  512MOL0     C70552  11.050   4.456   4.238  0.6706 -0.2238 -0.4562
  512MOL0     C70553  11.117   4.545   4.311 -0.1457 -0.4542 -0.4884
  512MOL0     O70554  11.235   4.594   4.269 -0.1441 -0.2175  0.1030
  512MOL0     C70555  11.334   4.514   4.203  0.0802  0.4488 -0.2631
  512MOL0     C70556  11.454   4.510   4.283  0.0084  0.2253  0.4284
  512MOL0     C70557  11.575   4.498   4.187  0.3422 -0.1679 -0.0469
  512MOL0     C70558  11.712   4.491   4.274 -1.0655 -0.0500  0.1823
  512MOL0     C70559  11.840   4.456   4.197 -0.4498  0.0056  0.3029
  512MOL0     C70560  11.834   4.312   4.142 -1.1359  0.2106 -0.7661
  512MOL0     C70561  11.964   4.270   4.068  0.4893  0.1743  0.1850
  512MOL0     C70562  11.948   4.124   4.037 -0.1581 -0.2186 -0.4449
  512MOL0    Cl70563  12.108   4.067   3.984 -0.4508 -0.1008 -0.1212
  512MOL0     C70564  11.072   4.580   4.444  0.2921  1.1063  0.4002
  512MOL0     C70565  10.956   4.505   4.490 -0.5693 -0.0043  0.3372
  512MOL0     O70566  10.881   4.301   4.682 -0.0757 -0.2040  0.0375
  512MOL0     C70567  10.645   4.210   4.783  0.5577 -0.2605  0.5175
  512MOL0     C70568  10.546   4.127   4.846  0.2771 -0.4536  0.8453
  512MOL0     N70569   9.951   4.144   4.588  0.0238  1.0324 -0.1446
  512MOL0     N70570   9.878   4.185   4.487  0.2712  0.8126 -0.9633
  512MOL0     C70571   9.204   4.926   3.844  0.4087  0.6359 -0.0222
  512MOL0     C70572   9.133   5.045   3.834  0.2089 -1.1203 -0.3152
  512MOL0     C70573   8.826   5.355   3.974  1.4630  0.1686  0.0035
  512MOL0     C70574   8.689   5.366   3.928 -0.2847  0.4832  0.1630
  512MOL0     C70575   8.627   5.480   3.898  0.6872 -0.3697 -0.5063
  512MOL0     C70576   8.697   5.602   3.929 -0.3986 -0.5251 -0.2669
  512MOL0     O70577   8.644   5.721   3.891  0.5950 -0.8921 -0.7264
  512MOL0     C70578   8.678   5.768   3.763 -0.1474 -0.0172  0.0445
  512MOL0     C70579   8.548   5.795   3.672 -0.4847  0.5181 -0.5681
  512MOL0     C70580   8.597   5.876   3.555 -0.4429  0.2043  0.3703
  512MOL0     C70581   8.474   5.900   3.462 -0.7415 -0.1824  0.0653
  512MOL0     C70582   8.514   5.963   3.340 -0.0692 -0.1601  0.3452
  512MOL0     C70583   8.550   6.015   3.238 -0.0119  0.2245  0.7284
  512MOL0     C70584   8.825   5.599   3.990  1.6474 -0.4801 -0.3191
  512MOL0     C70585   8.893   5.479   4.015  0.6325  0.6770  0.5510
  512MOL0     C70586   9.022   5.473   4.094 -0.2492 -0.9349 -0.8264
  512MOL0     H70587   9.085   5.107   4.164 -1.7234 -0.2505  0.9065
  512MOL0     H70588   9.187   4.882   4.183 -0.7560  3.2296  1.2542
  512MOL0     H70589   9.497   4.818   3.966 -0.2850  0.4360  0.0298
  512MOL0     H70590   9.405   4.812   3.820 -5.5395 -0.5613  1.8121
  512MOL0     H70591   9.404   4.568   3.814  1.4777  0.7860 -2.5393
  512MOL0     H70592   9.564   4.642   3.816 -0.5927  0.3939 -0.6842
  512MOL0     H70593   9.454   4.509   4.059  2.3608  1.3994  2.9697
  512MOL0     H70594   9.558   4.427   3.944 -3.4530 -1.5412  1.1236
  512MOL0     H70595   9.738   4.566   3.976 -0.7194  2.3340 -0.8713
  512MOL0     H70596   9.645   4.689   4.071 -2.4502  0.1200  0.0864
  512MOL0     H70597   9.689   4.400   4.155  0.8040 -0.3764  0.1545
  512MOL0     H70598   9.623   4.535   4.254  0.9002  1.6947 -0.0146
  512MOL0     H70599   9.895   4.556   4.134  0.1156 -1.6210 -0.4915
  512MOL0     H70600   9.799   4.668   4.242  2.0866 -0.4792  2.6672
  512MOL0     H70601   9.819   4.503   4.411  0.1713  2.3648 -0.4709
  512MOL0     H70602   9.987   4.547   4.371  0.7290 -1.2777 -0.7657
  512MOL0     H70603   9.830   4.307   4.264 -0.0727  1.7276 -2.0078
  512MOL0     H70604   9.993   4.341   4.226 -0.8591 -3.2287 -0.8961
  512MOL0     H70605  10.155   4.362   4.472 -1.6812  2.9799  4.4923
  512MOL0     H70606  10.252   4.243   4.698 -0.6838  0.8530 -0.4459
  512MOL0     H70607  10.201   4.078   4.654 -1.9127 -0.8796 -0.3782
  512MOL0     H70608  10.040   4.200   4.876 -0.5691 -0.6914 -1.4582
  512MOL0     H70609  10.053   4.035   4.826 -2.4148  1.4690 -5.9596
  512MOL0     H70610  10.283   4.202   4.961 -1.1309  1.0337  2.1161
  512MOL0     H70611  10.164   4.104   5.033 -2.1190  3.5382 -2.0921
  512MOL0     H70612  10.371   3.973   5.021  0.0212  0.5636 -0.2506
  512MOL0     H70613  10.232   3.903   4.942  0.2588  0.7920  2.6087
  512MOL0     H70614  10.433   3.977   4.566 -0.5355 -0.4139  1.2614
  512MOL0     H70615  10.589   4.181   4.358  1.5614  0.8920  0.5162
  512MOL0     H70616  10.571   4.010   4.386 -1.5634  0.5570  0.5031
  512MOL0     H70617  10.730   4.075   4.387 -0.3414 -1.7741  0.3990
  512MOL0     H70618  10.908   4.318   4.210  0.8666 -2.8750  2.3133
  512MOL0     H70619  11.079   4.432   4.137  0.1875  1.9651 -1.1873
  512MOL0     H70620  11.304   4.409   4.191 -1.9164  0.8656  0.5813
  512MOL0     H70621  11.338   4.546   4.098 -0.2960  1.0157 -0.1084
  512MOL0     H70622  11.475   4.609   4.325  1.6153  0.4455 -0.8303
  512MOL0     H70623  11.454   4.431   4.359  1.1567  0.6493  0.8966
  512MOL0     H70624  11.569   4.591   4.130  1.2014 -0.3270 -0.4042
  512MOL0     H70625  11.566   4.411   4.121 -0.6670  1.6815 -2.5317
  512MOL0     H70626  11.709   4.416   4.354  2.6751 -0.7372 -0.1164
  512MOL0     H70627  11.728   4.585   4.327  0.2329 -0.8332  1.2568
  512MOL0     H70628  11.856   4.533   4.120  0.7321  0.6102  1.1308
  512MOL0     H70629  11.925   4.468   4.264 -1.4275  0.3806  1.5230
  512MOL0     H70630  11.750   4.302   4.073 -1.6763 -0.9072  0.0282
  512MOL0     H70631  11.820   4.250   4.231 -0.0784  0.9884 -0.0346
  512MOL0     H70632  12.049   4.281   4.137 -1.6626 -3.4508  3.8367
  512MOL0     H70633  11.979   4.338   3.984  0.9220 -0.0233  0.0938
  512MOL0     H70634  11.865   4.114   3.967 -2.8060  1.7463  2.1450
  512MOL0     H70635  11.917   4.065   4.124 -0.3227 -0.3900 -0.6193
  512MOL0     H70636  11.134   4.643   4.506  0.7294  0.4541  0.6332
  512MOL0     H70637  10.923   4.531   4.590  1.8400  1.2146  0.9151
  512MOL0     H70638  10.696   4.284   4.843 -0.8311  2.1637 -1.1019
  512MOL0     H70639  10.517   4.144   4.949  0.1980  0.4306  0.6874
  512MOL0     H70640   9.240   4.886   3.750 -0.9412 -1.5456  0.3141
  512MOL0     H70641   9.142   5.092   3.736 -1.0338  6.8149  2.6572
  512MOL0     H70642   8.638   5.270   3.916 -0.8555  0.4477  2.3062
  512MOL0     H70643   8.534   5.465   3.845 -0.7108  1.1067  1.3954
  512MOL0     H70644   8.725   5.865   3.782  3.8936 -1.5480 -1.0224
  512MOL0     H70645   8.758   5.709   3.717 -0.9172 -2.4703  1.6861
  512MOL0     H70646   8.474   5.837   3.740 -0.2889 -1.9010  1.2812
  512MOL0     H70647   8.508   5.701   3.633  0.5353 -1.1012  2.0679
  512MOL0     H70648   8.637   5.971   3.592 -2.9691  0.9507  1.3615
  512MOL0     H70649   8.677   5.826   3.499  0.0804 -0.1589  1.4211
  512MOL0     H70650   8.400   5.963   3.513 -0.5275 -0.6487  0.9814
  512MOL0     H70651   8.429   5.805   3.434 -1.5052  0.2068 -0.0702
  512MOL0     H70652   8.573   6.061   3.144  1.0294 -1.1432  0.2855
  512MOL0     H70653   8.869   5.696   4.011 -1.9273  1.2028  0.1360
  512MOL0     H70654   9.096   5.397   4.071  0.2248 -1.1245  1.1901
  512MOL0     H70655   9.080   5.565   4.078  0.2413 -1.0025  0.4528
  512MOL0     H70656   8.995   5.474   4.200  0.5396  1.6575 -0.5683
  513MOL0     O70657  10.497   7.853   9.785 -0.1476 -0.5519  0.2200
  513MOL0     C70658  10.451   7.805   9.886 -0.6380  0.2480  0.3093
  513MOL0     O70659  10.531   7.757   9.987 -0.9193  0.6541 -0.0079
  513MOL0     C70660  10.666   7.778   9.988 -0.5967 -0.0140 -0.1348
  513MOL0     C70661  10.731   7.898   9.955  0.2262  0.4814 -0.1271
  513MOL0     C70662  10.870   7.905   9.963 -0.3599  0.1990  0.3753
  513MOL0     C70663  10.948   7.799  10.007  0.4181 -0.1988  0.2345
  513MOL0     O70664  11.086   7.789  10.023  0.2509  0.2476  0.0621
  513MOL0     C70665  11.179   7.869   9.951 -0.1256 -0.1281  0.2530
  513MOL0     C70666  11.203   8.013   9.996  0.1342  0.8513 -0.6141
  513MOL0     C70667  11.210   8.013  10.151  0.0800  0.1567  0.4038
  513MOL0     C70668  11.302   7.916  10.225  0.3544 -1.2826  0.4753
  513MOL0     C70669  11.318   7.975  10.366  0.4156 -0.0301  0.2840
  513MOL0     C70670  11.444   7.911  10.430 -0.1782 -0.2551  0.1085
  513MOL0     C70671  11.475   7.964  10.572  0.3713 -0.1286  0.2423
  513MOL0     C70672  11.594   7.899  10.630  0.4539  0.3191 -0.7202
  513MOL0     N70673  11.718   7.953  10.570 -0.3824 -0.0170 -0.1046
  513MOL0     C70674  11.775   8.080  10.587  0.5513 -0.8801  0.1083
  513MOL0     C70675  11.904   8.068  10.546  0.3186  1.3671 -0.0608
  513MOL0     C70676  12.019   8.164  10.566 -0.1436  0.3656 -1.0506
  513MOL0     C70677  12.145   8.119  10.482 -0.5678 -0.1065  0.1997
  513MOL0     C70678  12.265   8.177  10.542 -0.1983 -0.3274 -0.7839
  513MOL0     C70679  12.322   8.099  10.659  0.1638 -1.0814  0.2117
  513MOL0     O70680  12.384   7.985  10.602  0.5884 -0.3021  0.7275
  513MOL0     C70681  12.434   7.879  10.673  0.5285 -0.0014  0.9714
  513MOL0     C70682  12.472   7.772  10.587 -0.3854 -0.2279 -0.3043
  513MOL0     C70683  12.540   7.663  10.634  0.1210 -0.7566  0.3650
  513MOL0     C70684  12.583   7.562  10.534 -0.7842 -1.0757 -0.3334
  513MOL0     C70685  12.574   7.662  10.777 -0.1355  0.1963  0.1203
  513MOL0     C70686  12.664   7.563  10.843 -0.2128  0.0056 -1.1165
  513MOL0     O70687  12.772   7.516  10.767 -0.7170  0.1440 -0.1233
  513MOL0     C70688  12.841   7.417  10.824 -0.0930  0.4311  0.1417
  513MOL0     C70689  12.889   7.416  10.958  0.1207  0.3425  0.1217
  513MOL0     C70690  12.961   7.306  10.996  0.3843 -0.6015 -0.0470
  513MOL0     C70691  12.987   7.192  10.909 -0.2501  0.2711 -0.7081
  513MOL0     O70692  13.058   7.077  10.943  0.6130 -0.1000 -0.2735
  513MOL0     C70693  13.110   7.049  11.070 -0.4835  0.0452 -0.3788
  513MOL0     C70694  13.001   7.014  11.177  0.7943 -0.4698 -0.5965
  513MOL0     C70695  13.059   6.934  11.291  0.0003  0.3831 -0.3127
  513MOL0     C70696  12.939   6.903  11.389 -0.1195  0.1829  0.4719
  513MOL0     C70697  13.017   6.834  11.501  0.2263  0.0033  0.1005
  513MOL0     C70698  12.923   6.754  11.587 -0.3734 -0.4111  0.6702
  513MOL0     C70699  12.988   6.648  11.682 -0.0702  0.1961  1.0688
  513MOL0     C70700  13.067   6.701  11.795  0.2097 -0.7188 -0.8302
  513MOL0    Cl70701  13.237   6.756  11.753  0.1259  0.3564 -0.1916
  513MOL0     C70702  12.951   7.206  10.779  0.0493 -0.4006  0.0583
  513MOL0     C70703  12.858   7.306  10.737 -0.7286 -0.5306 -0.6461
  513MOL0     O70704  12.641   7.548  10.969  0.1313  0.1183  0.2328
  513MOL0     C70705  12.522   7.768  10.862  0.7411  0.2250 -0.1851
  513MOL0     C70706  12.454   7.878  10.811  0.2449  0.2940  0.4995
  513MOL0     N70707  11.922   7.939  10.495  0.8869 -0.5444 -0.7736
  513MOL0     N70708  11.807   7.864  10.512 -0.0990 -0.3634  0.1428
  513MOL0     C70709  10.878   7.672  10.034  0.0758 -0.4160  0.2219
  513MOL0     C70710  10.744   7.670  10.021  1.0192 -0.1736 -0.4956
  513MOL0     C70711  10.303   7.791   9.879 -0.4539  0.2750 -0.6764
  513MOL0     C70712  10.236   7.809   9.754  0.4309 -0.0073  0.3602
  513MOL0     C70713  10.095   7.778   9.744  0.4982  0.2930 -0.3871
  513MOL0     C70714  10.015   7.752   9.854 -0.4828 -0.8022  1.0446
  513MOL0     O70715   9.884   7.717   9.819 -0.5133 -0.0233 -0.0406
  513MOL0     C70716   9.813   7.620   9.890 -0.2057 -0.0195 -0.5776
  513MOL0     C70717   9.675   7.610   9.844  0.4656  0.1465  0.0481
  513MOL0     C70718   9.604   7.735   9.893 -1.7325  0.3221  0.3075
  513MOL0     C70719   9.460   7.709   9.875 -0.4823  0.6784  0.2848
  513MOL0     C70720   9.381   7.816   9.917 -0.0485 -0.3064  0.0111
  513MOL0     C70721   9.296   7.903   9.933  0.0561  0.0361 -0.0694
  513MOL0     C70722  10.081   7.757   9.980  0.2556 -0.3767 -0.4322
  513MOL0     C70723  10.222   7.762   9.991 -0.0958  0.6708  0.1508
  513MOL0     C70724  10.276   7.772  10.133  0.7668 -0.1515  0.6858
  513MOL0     H70725  10.688   7.996   9.937  3.0929  2.0739  0.8990
  513MOL0     H70726  10.920   7.998   9.939 -0.7148 -0.0657 -1.5730
  513MOL0     H70727  11.148   7.878   9.847 -2.9889  1.7157  1.1504
  513MOL0     H70728  11.275   7.817   9.945 -0.1026  0.0621 -1.2950
  513MOL0     H70729  11.298   8.043   9.951 -0.5416  0.0319 -2.6906
  513MOL0     H70730  11.124   8.078   9.956 -1.7266 -0.8299  0.1401
  513MOL0     H70731  11.250   8.111  10.181 -1.1770  1.1335 -0.9235
  513MOL0     H70732  11.112   8.016  10.200 -0.3805  3.4089 -0.4387
  513MOL0     H70733  11.256   7.817  10.229 -0.2453 -1.2568 -2.7495
  513MOL0     H70734  11.395   7.896  10.172 -0.0540 -0.0221 -0.7980
  513MOL0     H70735  11.235   7.945  10.430 -0.4974  3.9206  1.2323
  513MOL0     H70736  11.329   8.084  10.374  3.3930 -0.2871  0.9502
  513MOL0     H70737  11.431   7.803  10.432 -1.6089 -0.0959  0.6628
  513MOL0     H70738  11.532   7.935  10.370  2.7790 -2.1268  3.3079
  513MOL0     H70739  11.396   7.943  10.644 -0.1169 -0.1592 -0.2936
  513MOL0     H70740  11.511   8.067  10.573  0.1226 -0.0077  2.5062
  513MOL0     H70741  11.599   7.917  10.738 -4.6071 -1.3383  0.0331
  513MOL0     H70742  11.584   7.792  10.613 -0.4801  0.3628 -0.5212
  513MOL0     H70743  11.741   8.171  10.636 -0.5728 -0.8646 -0.6429
  513MOL0     H70744  12.044   8.175  10.672 -1.8550 -0.0560 -0.5837
  513MOL0     H70745  12.000   8.267  10.536 -0.8388  1.1952  1.9080
  513MOL0     H70746  12.164   8.012  10.491  2.7466  0.2948 -0.9170
  513MOL0     H70747  12.133   8.144  10.376 -0.0827 -0.6401  0.0170
  513MOL0     H70748  12.341   8.205  10.468 -0.6870 -0.9121 -1.5167
  513MOL0     H70749  12.242   8.270  10.595  2.3041  0.1833 -0.4545
  513MOL0     H70750  12.400   8.155  10.712 -0.4682 -0.8379  0.9065
  513MOL0     H70751  12.243   8.070  10.730  0.7161 -0.6480  1.0228
  513MOL0     H70752  12.456   7.783  10.480 -0.1182 -1.3244 -0.4697
  513MOL0     H70753  12.569   7.458  10.567 -0.9442 -0.0844  3.0328
  513MOL0     H70754  12.692   7.565  10.519 -0.5301 -2.9409  0.7748
  513MOL0     H70755  12.533   7.579  10.439 -2.2451  0.3535  0.6615
  513MOL0     H70756  12.888   7.505  11.020 -1.9935 -0.2382  1.0132
  513MOL0     H70757  12.990   7.304  11.100  0.5743  0.5343 -0.0656
  513MOL0     H70758  13.175   6.961  11.067  0.6368  0.4640  4.3008
  513MOL0     H70759  13.172   7.130  11.108 -1.7047  1.2073 -0.8042
  513MOL0     H70760  12.947   7.102  11.213 -1.9595 -2.5618  0.9290
  513MOL0     H70761  12.923   6.955  11.128 -3.0751  2.3749  1.5670
  513MOL0     H70762  13.135   6.996  11.340  0.5270  0.0367 -0.6718
  513MOL0     H70763  13.120   6.850  11.255  1.4933  1.7631 -1.1071
  513MOL0     H70764  12.859   6.845  11.341  2.1186 -1.8745 -1.0315
  513MOL0     H70765  12.900   6.998  11.427 -0.0711  0.4235 -0.0647
  513MOL0     H70766  13.090   6.771  11.450  0.1158  1.4381 -1.9377
  513MOL0     H70767  13.080   6.906  11.554  1.2793  0.2849 -1.4845
  513MOL0     H70768  12.850   6.706  11.522 -2.2495 -0.1284  2.4810
  513MOL0     H70769  12.864   6.823  11.648  0.9879  1.3181  0.0980
  513MOL0     H70770  13.059   6.586  11.625 -0.4581  1.1647 -0.5060
  513MOL0     H70771  12.905   6.585  11.716 -0.0757 -0.5864 -0.3049
  513MOL0     H70772  13.068   6.624  11.873  4.5477  1.6367  1.7927
  513MOL0     H70773  13.016   6.792  11.829  0.9721 -0.2921 -0.8128
  513MOL0     H70774  12.985   7.135  10.704 -0.4487  0.2740 -0.8335
  513MOL0     H70775  12.833   7.310  10.632 -1.0924 -2.6457 -0.6933
  513MOL0     H70776  12.556   7.781  10.964 -3.7708  1.0406  1.4428
  513MOL0     H70777  12.416   7.960  10.870 -1.3214 -0.6945  0.9225
  513MOL0     H70778  10.935   7.587  10.071 -2.0717 -1.4547  1.2793
  513MOL0     H70779  10.686   7.580  10.038 -3.0527  2.4778  1.0005
  513MOL0     H70780  10.293   7.843   9.669  2.0083 -2.6001  0.2911
  513MOL0     H70781  10.037   7.762   9.654 -3.5483  0.5262  1.9285
  513MOL0     H70782   9.866   7.526   9.876  1.6524  0.8643  0.2064
  513MOL0     H70783   9.825   7.655   9.993 -0.7483  1.5213 -1.0080
  513MOL0     H70784   9.631   7.513   9.869 -1.1174  0.8189  0.0060
  513MOL0     H70785   9.669   7.607   9.734  0.1201 -2.9750  0.0637
  513MOL0     H70786   9.637   7.755   9.995 -0.8860 -0.9295  0.3062
  513MOL0     H70787   9.628   7.814   9.822 -0.6141 -1.1231 -0.9979
  513MOL0     H70788   9.445   7.621   9.938  1.5530  2.4540  3.5073
  513MOL0     H70789   9.437   7.686   9.771  2.0213  3.0415 -0.9381
  513MOL0     H70790   9.229   7.980   9.964  0.1884 -0.3051  1.1352
  513MOL0     H70791  10.025   7.747  10.073  0.4705 -2.1552 -0.4596
  513MOL0     H70792  10.329   7.680  10.156 -2.2558 -1.9151  1.1934
  513MOL0     H70793  10.345   7.856  10.134  0.6804 -0.0671  0.1333
  513MOL0     H70794  10.199   7.787  10.209  0.4651  3.7167 -0.1762
  514MOL0     O70795   4.906   2.004   5.052 -0.2593  0.0652  0.5236
  514MOL0     C70796   4.969   2.055   4.961 -0.5880  0.3967  0.8950
  514MOL0     O70797   4.962   2.180   4.926 -0.0845 -0.6613  0.0796
  514MOL0     C70798   4.935   2.261   5.026 -0.2093 -1.3009  0.8516
  514MOL0     C70799   5.038   2.299   5.118 -0.4036 -0.2124 -0.1153
  514MOL0     C70800   5.007   2.378   5.227  0.7753  0.6047 -0.6470
  514MOL0     C70801   4.876   2.440   5.235  0.4896 -0.2235 -0.7380
  514MOL0     O70802   4.843   2.526   5.335 -0.6532 -0.4283  0.5981
  514MOL0     C70803   4.773   2.453   5.439  0.7912 -0.6739 -0.0223
  514MOL0     C70804   4.863   2.422   5.552 -1.0506 -0.1920 -0.2009
  514MOL0     C70805   4.785   2.415   5.687  0.1297  0.4039  0.1205
  514MOL0     C70806   4.680   2.311   5.681  0.3863 -0.0201  0.4720
  514MOL0     C70807   4.616   2.278   5.821 -0.6631 -0.6430 -0.0771
  514MOL0     C70808   4.723   2.199   5.912 -0.3976  0.0438  0.1083
  514MOL0     C70809   4.670   2.149   6.040  0.2627 -0.1263 -0.6208
  514MOL0     C70810   4.784   2.087   6.127  0.3898  0.6284 -0.8077
  514MOL0     N70811   4.911   2.170   6.136  0.3185 -0.4297 -0.1063
  514MOL0     C70812   4.931   2.283   6.218 -0.3743 -0.0767  0.3900
  514MOL0     C70813   5.048   2.341   6.174  0.2537  0.6336 -0.0658
  514MOL0     C70814   5.093   2.476   6.221 -1.3925 -0.1758  0.4275
  514MOL0     C70815   5.205   2.546   6.137  0.3086 -0.5276 -0.0572
  514MOL0     C70816   5.151   2.591   6.001 -0.1597  0.0754  0.0146
  514MOL0     C70817   5.074   2.725   6.005  0.7719 -0.1798 -0.2167
  514MOL0     O70818   5.154   2.846   6.003 -0.6489 -0.0060  0.4930
  514MOL0     C70819   5.190   2.903   5.885  0.2636  0.0884  0.1675
  514MOL0     C70820   5.195   3.039   5.885 -0.2468 -0.1817  0.5133
  514MOL0     C70821   5.228   3.109   5.773 -1.0623 -0.3950 -0.6385
  514MOL0     C70822   5.203   3.256   5.771  0.2749 -0.3157  0.3219
  514MOL0     C70823   5.259   3.039   5.647  0.3183 -0.2361 -0.2983
  514MOL0     C70824   5.303   3.107   5.524 -0.6457  0.1973 -0.2108
  514MOL0     O70825   5.305   3.036   5.408 -0.2938  0.0829 -0.4572
  514MOL0     C70826   5.344   3.085   5.281  0.3510  0.5972 -0.2886
  514MOL0     C70827   5.426   3.008   5.202  0.1481 -0.2382 -0.1396
  514MOL0     C70828   5.476   3.065   5.083 -0.0209  1.0725  1.2145
  514MOL0     C70829   5.440   3.189   5.030 -0.7806  0.7442  0.5934
  514MOL0     O70830   5.497   3.217   4.903  0.0827  0.2827 -0.3642
  514MOL0     C70831   5.428   3.327   4.834  0.1510 -0.2920 -0.3233
  514MOL0     C70832   5.448   3.296   4.691 -1.2271  0.0216 -0.1901
  514MOL0     C70833   5.387   3.401   4.595  0.1702 -0.2074  0.4274
  514MOL0     C70834   5.259   3.347   4.523  0.6084  0.6077 -0.4740
  514MOL0     C70835   5.228   3.438   4.401 -0.3534  0.0771  0.0992
  514MOL0     C70836   5.148   3.363   4.293 -0.8513 -0.3271 -0.0867
  514MOL0     C70837   5.107   3.468   4.185  0.1806  0.4237 -0.3984
  514MOL0     C70838   5.030   3.405   4.061 -0.7686  0.4541 -0.2945
  514MOL0    Cl70839   4.879   3.333   4.100  0.5986  1.1150  0.0352
  514MOL0     C70840   5.354   3.263   5.116 -0.0971 -0.2517  0.2849
  514MOL0     C70841   5.305   3.217   5.239  0.9936  0.3351 -0.2442
  514MOL0     O70842   5.323   3.227   5.525  0.5545 -0.8270 -0.0296
  514MOL0     C70843   5.229   2.899   5.643 -0.4326 -0.4928 -0.0379
  514MOL0     C70844   5.197   2.830   5.766 -0.6863  0.2142 -0.7203
  514MOL0     N70845   5.106   2.259   6.076 -0.0487  0.8953  0.6139
  514MOL0     N70846   5.026   2.161   6.056 -0.1265 -0.5254  0.5321
  514MOL0     C70847   4.784   2.411   5.129  0.5191 -0.4946  0.2113
  514MOL0     C70848   4.815   2.332   5.028 -0.0327  0.8979  0.4964
  514MOL0     C70849   5.078   1.971   4.902 -0.4411 -0.0366 -0.1038
  514MOL0     C70850   5.201   2.022   4.870  0.1661  0.4551  0.7282
  514MOL0     C70851   5.303   1.951   4.810 -0.9633 -0.2597 -0.6439
  514MOL0     C70852   5.284   1.818   4.786 -0.1710  0.7571 -0.1191
  514MOL0     O70853   5.386   1.757   4.720 -0.0603 -0.2959  0.0689
  514MOL0     C70854   5.357   1.639   4.646 -0.0092  0.2517  0.1139
  514MOL0     C70855   5.233   1.635   4.547  0.7529  0.2050  0.4992
  514MOL0     C70856   5.216   1.493   4.500 -0.4063  0.0788  0.0736
  514MOL0     C70857   5.322   1.449   4.393  0.3189 -0.9232 -0.2355
  514MOL0     C70858   5.337   1.544   4.281  0.1114  0.2648 -0.5368
  514MOL0     C70859   5.348   1.611   4.185 -0.7965 -0.5040  0.3250
  514MOL0     C70860   5.163   1.753   4.827 -0.0099  0.8808 -1.1166
  514MOL0     C70861   5.060   1.830   4.885 -0.1657  0.2740  0.0306
  514MOL0     C70862   4.935   1.762   4.907  0.4141  0.8983  0.4788
  514MOL0     H70863   5.134   2.249   5.114  1.2156  2.4466  2.1110
  514MOL0     H70864   5.087   2.414   5.291 -2.0563  3.4860  1.6554
  514MOL0     H70865   4.723   2.363   5.401  0.1000 -0.9249  1.3860
  514MOL0     H70866   4.696   2.522   5.477  1.0750  1.1228 -2.4824
  514MOL0     H70867   4.935   2.343   5.530  1.4943  1.4847  1.6000
  514MOL0     H70868   4.928   2.507   5.575  0.2525 -1.3813  0.5806
  514MOL0     H70869   4.855   2.397   5.770 -0.2445  0.1267  0.3759
  514MOL0     H70870   4.736   2.512   5.698 -0.8849  0.7288 -4.8406
  514MOL0     H70871   4.598   2.359   5.627 -0.0814 -0.2105  1.0035
  514MOL0     H70872   4.692   2.222   5.617 -4.2052  1.1529 -2.4629
  514MOL0     H70873   4.527   2.215   5.811  0.6089 -2.0215 -5.4416
  514MOL0     H70874   4.580   2.371   5.868 -0.0210  1.4806 -3.4406
  514MOL0     H70875   4.764   2.115   5.853 -3.1688 -0.3733 -1.4291
  514MOL0     H70876   4.812   2.259   5.928  1.1560 -2.1040 -0.0380
  514MOL0     H70877   4.593   2.073   6.022  2.3718 -2.2664 -1.0986
  514MOL0     H70878   4.626   2.229   6.101 -1.4522 -1.8630  0.5571
  514MOL0     H70879   4.738   2.077   6.226 -1.2197  2.0790 -1.3521
  514MOL0     H70880   4.807   1.990   6.082 -2.3668  0.5958 -2.3300
  514MOL0     H70881   4.863   2.320   6.295  1.7370  0.1820  2.2269
  514MOL0     H70882   5.155   2.457   6.309  2.8161  1.5440 -1.8736
  514MOL0     H70883   5.011   2.543   6.248 -1.0095  0.1079  0.9104
  514MOL0     H70884   5.254   2.632   6.183  0.4202 -0.9407  0.6022
  514MOL0     H70885   5.277   2.466   6.115 -1.8210 -1.7393 -3.4663
  514MOL0     H70886   5.232   2.608   5.929 -1.0228 -0.3961 -1.1117
  514MOL0     H70887   5.092   2.507   5.962 -0.9052  0.8518 -0.5695
  514MOL0     H70888   5.005   2.726   5.920 -1.7433 -2.5860  1.5941
  514MOL0     H70889   5.011   2.738   6.094  1.1618  0.6278 -0.0511
  514MOL0     H70890   5.189   3.086   5.983  1.9546  1.5990 -0.1091
  514MOL0     H70891   5.145   3.300   5.689  0.7086  0.1960  0.2825
  514MOL0     H70892   5.296   3.312   5.776 -0.0746  0.9119 -3.5101
  514MOL0     H70893   5.150   3.276   5.865  1.7722 -0.1565  1.1553
  514MOL0     H70894   5.451   2.911   5.244 -1.2974 -0.1719  0.9525
  514MOL0     H70895   5.544   3.004   5.024 -1.6064 -0.5422  0.9801
  514MOL0     H70896   5.322   3.340   4.860  0.7977  2.1816  1.4098
  514MOL0     H70897   5.473   3.422   4.864 -0.6496 -0.0361  0.1176
  514MOL0     H70898   5.556   3.306   4.682 -0.9810 -0.2094  1.8486
  514MOL0     H70899   5.409   3.199   4.659  0.6338 -0.0736 -2.3228
  514MOL0     H70900   5.462   3.420   4.517  0.5588 -0.7819  0.6494
  514MOL0     H70901   5.349   3.492   4.641 -1.3690 -1.0977  0.9760
  514MOL0     H70902   5.173   3.334   4.590  0.0056  3.4445 -0.5620
  514MOL0     H70903   5.263   3.243   4.491  0.9555 -0.1650  1.9012
  514MOL0     H70904   5.188   3.532   4.439  1.2190  0.3155  1.2701
  514MOL0     H70905   5.325   3.454   4.354  1.1861 -2.9919  1.8811
  514MOL0     H70906   5.057   3.315   4.330 -0.4000 -0.0073  1.5117
  514MOL0     H70907   5.209   3.287   4.243  0.4034 -0.4518  1.5242
  514MOL0     H70908   5.198   3.517   4.146  1.3763 -3.2857 -2.7647
  514MOL0     H70909   5.037   3.533   4.238  0.7119 -0.1332  1.0328
  514MOL0     H70910   5.100   3.338   4.010  0.7287  2.4818 -1.0994
  514MOL0     H70911   5.020   3.488   3.990  1.2915  0.2786 -0.8700
  514MOL0     H70912   5.308   3.352   5.074 -2.9184 -1.6203  0.2119
  514MOL0     H70913   5.224   3.263   5.294 -0.5373 -1.2703 -1.0191
  514MOL0     H70914   5.228   2.834   5.557 -4.1486  0.9733 -1.3006
  514MOL0     H70915   5.197   2.722   5.755 -0.4318  0.0846  0.4293
  514MOL0     H70916   4.687   2.458   5.138 -0.2913 -1.2584 -3.2404
  514MOL0     H70917   4.737   2.319   4.954 -0.0536  0.9081  0.5165
  514MOL0     H70918   5.207   2.129   4.887  2.1815  0.4858  0.0639
  514MOL0     H70919   5.392   2.001   4.773  1.1013 -0.4991  3.4936
  514MOL0     H70920   5.448   1.592   4.607 -1.8246 -2.7653 -0.8401
  514MOL0     H70921   5.336   1.561   4.719  0.9727  2.6164  3.1418
  514MOL0     H70922   5.235   1.709   4.466 -0.8740 -2.7608 -2.4791
  514MOL0     H70923   5.136   1.649   4.597  0.3134  1.2982 -0.6181
  514MOL0     H70924   5.231   1.429   4.587  3.6747  1.9611  0.9990
  514MOL0     H70925   5.116   1.476   4.459 -0.9748  0.1604  1.3937
  514MOL0     H70926   5.289   1.351   4.357 -1.3245 -0.1018 -1.0872
  514MOL0     H70927   5.418   1.432   4.443  0.4081  1.6436  0.5924
  514MOL0     H70928   5.353   1.666   4.094 -2.5499 -2.2500 -0.9313
  514MOL0     H70929   5.153   1.646   4.808  0.1247  1.1350 -2.6980
  514MOL0     H70930   4.957   1.657   4.931  2.6109  1.1877 -0.0509
  514MOL0     H70931   4.876   1.794   4.993  1.0908 -3.3775  2.8128
  514MOL0     H70932   4.871   1.781   4.821 -0.8252  2.4510  1.6822
  515MOL0     O70933   1.448   5.212   4.361  0.1750 -0.1078 -0.7187
  515MOL0     C70934   1.351   5.138   4.394  0.0785 -0.0539  0.0506
  515MOL0     O70935   1.351   5.058   4.505  0.5837  0.0166  0.7392
  515MOL0     C70936   1.459   4.971   4.526  0.2233 -0.4873  0.7900
  515MOL0     C70937   1.581   4.959   4.451 -0.4564  0.1202 -0.4419
  515MOL0     C70938   1.679   4.856   4.490 -0.6395 -0.2609  0.0178
  515MOL0     C70939   1.655   4.767   4.599 -0.0943 -0.6414 -0.1429
  515MOL0     O70940   1.738   4.661   4.629 -0.1204 -0.2425 -0.5129
  515MOL0     C70941   1.849   4.644   4.547  0.7393  0.6429  0.0266
  515MOL0     C70942   1.926   4.520   4.581  0.4184  1.0130  0.5702
  515MOL0     C70943   1.936   4.514   4.735  0.6487  0.0042  0.2976
  515MOL0     C70944   2.039   4.406   4.766 -0.6589 -0.9955 -0.6431
  515MOL0     C70945   1.996   4.348   4.899  0.3811 -0.2661  0.7816
  515MOL0     C70946   2.057   4.225   4.947  0.3190  0.2492  0.6535
  515MOL0     C70947   2.208   4.217   4.920 -0.6161 -0.6832  0.1025
  515MOL0     C70948   2.258   4.085   4.974 -0.1813  0.5310 -0.3974
  515MOL0     N70949   2.410   4.081   4.970  0.7480  0.4427  0.9060
  515MOL0     C70950   2.506   4.000   4.922  0.5775 -0.3458  0.3921
  515MOL0     C70951   2.628   4.063   4.949 -0.3098 -0.7499  1.2469
  515MOL0     C70952   2.765   4.047   4.877 -0.1848 -0.1425  0.3017
  515MOL0     C70953   2.843   3.918   4.905  1.1422 -0.0902  0.0121
  515MOL0     C70954   2.786   3.806   4.804  0.0450  0.4714  0.1889
  515MOL0     C70955   2.811   3.656   4.849 -0.2380 -0.4196 -1.0080
  515MOL0     O70956   2.719   3.623   4.942 -0.0117 -0.6252  0.7033
  515MOL0     C70957   2.744   3.519   5.021 -0.6413 -0.5535  0.1102
  515MOL0     C70958   2.637   3.483   5.107  1.0368 -1.0321  0.0348
  515MOL0     C70959   2.635   3.371   5.188 -0.5567 -0.0855 -0.6520
  515MOL0     C70960   2.525   3.363   5.297  0.7501 -0.1377 -0.6382
  515MOL0     C70961   2.755   3.291   5.192  0.8961 -0.0430 -0.7206
  515MOL0     C70962   2.782   3.197   5.307  0.0416  1.0641  0.7900
  515MOL0     O70963   2.682   3.112   5.331  0.2855 -0.9332  0.7961
  515MOL0     C70964   2.680   3.013   5.422 -0.2793  0.1450 -0.6792
  515MOL0     C70965   2.562   2.967   5.487  0.0334 -1.3499  0.4704
  515MOL0     C70966   2.568   2.870   5.582 -0.3345 -0.0988  0.0159
  515MOL0     C70967   2.683   2.802   5.614  0.1356  0.3711  0.5398
  515MOL0     O70968   2.662   2.693   5.698  0.0106 -0.3718  0.1159
  515MOL0     C70969   2.767   2.664   5.790 -0.7291 -0.1745 -0.2025
  515MOL0     C70970   2.745   2.531   5.862  1.4165  0.1095 -0.3879
  515MOL0     C70971   2.725   2.416   5.759 -0.1857 -0.1606 -0.7395
  515MOL0     C70972   2.727   2.265   5.801 -0.1664 -0.5688  1.2159
  515MOL0     C70973   2.672   2.186   5.685 -0.4655  1.2840 -0.0079
  515MOL0     C70974   2.690   2.033   5.693 -0.4574  0.1704 -0.3474
  515MOL0     C70975   2.597   1.972   5.585 -0.3554 -0.3074  0.6565
  515MOL0     C70976   2.595   1.822   5.599 -0.4890  0.7345 -0.1405
  515MOL0    Cl70977   2.762   1.757   5.583  0.2055  0.6080  0.4430
  515MOL0     C70978   2.802   2.836   5.548 -0.0086 -0.3236 -0.2223
  515MOL0     C70979   2.799   2.936   5.443  0.0837  0.4034 -0.7713
  515MOL0     O70980   2.886   3.204   5.368 -0.6693 -0.0502  0.3482
  515MOL0     C70981   2.858   3.323   5.101  0.5032  0.3172 -0.0665
  515MOL0     C70982   2.852   3.431   5.022 -0.8191 -0.0988  0.4768
  515MOL0     N70983   2.608   4.175   5.021  0.4273 -0.2900  0.3129
  515MOL0     N70984   2.481   4.177   5.031  0.7794 -0.7970  0.5404
  515MOL0     C70985   1.526   4.769   4.640 -0.0228  1.1833  0.1554
  515MOL0     C70986   1.433   4.867   4.615 -0.6332  0.2887  0.5136
  515MOL0     C70987   1.228   5.143   4.313  0.4328 -0.3770 -0.1228
  515MOL0     C70988   1.115   5.066   4.348  0.5017  0.5010  0.2579
  515MOL0     C70989   1.003   5.052   4.263 -0.1298  0.5151 -0.4187
  515MOL0     C70990   1.003   5.123   4.144 -0.0217  0.5157  0.2401
  515MOL0     O70991   0.886   5.100   4.074 -1.3617 -0.1576  0.3902
  515MOL0     C70992   0.870   5.162   3.944  0.0675  0.6958 -1.2042
  515MOL0     C70993   0.794   5.287   3.959 -0.0226 -0.4019  0.2257
  515MOL0     C70994   0.833   5.377   3.843  0.6276  0.0948 -0.1514
  515MOL0     C70995   0.767   5.519   3.837  0.8088 -0.5520 -0.1757
  515MOL0     C70996   0.776   5.575   3.699 -0.6332  0.2768  0.6125
  515MOL0     C70997   0.778   5.634   3.588 -0.4482 -0.8723  0.5677
  515MOL0     C70998   1.107   5.218   4.111  0.6844  0.7063  0.0486
  515MOL0     C70999   1.223   5.214   4.193 -0.1874 -0.9451 -0.0380
  515MOL0     C71000   1.328   5.317   4.147  0.7163 -0.5589  0.1423
  515MOL0     H71001   1.580   5.007   4.354 -2.8401  2.8527  0.8027
  515MOL0     H71002   1.758   4.837   4.419  0.3966 -1.4842  1.4391
  515MOL0     H71003   1.920   4.728   4.544  1.0132  0.3880 -2.4443
  515MOL0     H71004   1.798   4.628   4.452  1.0898 -0.9281  0.0765
  515MOL0     H71005   1.866   4.436   4.544 -0.0874  1.5806  0.0679
  515MOL0     H71006   2.015   4.521   4.517 -0.0796 -1.7350 -0.2961
  515MOL0     H71007   1.966   4.612   4.774  0.7962  0.1071 -0.0694
  515MOL0     H71008   1.837   4.487   4.773  0.3615 -3.8330 -2.4827
  515MOL0     H71009   2.026   4.327   4.691 -0.8678 -1.2468 -0.3435
  515MOL0     H71010   2.140   4.447   4.759 -0.5687 -1.4518 -2.5855
  515MOL0     H71011   1.889   4.328   4.882  0.9478 -1.6236 -1.8269
  515MOL0     H71012   2.003   4.432   4.969 -2.0684  1.4096 -0.8006
  515MOL0     H71013   2.044   4.216   5.056 -0.2455  2.6123  0.8428
  515MOL0     H71014   2.006   4.155   4.881 -0.0953  1.6400 -0.5723
  515MOL0     H71015   2.267   4.294   4.971 -1.3608 -1.4527  2.2415
  515MOL0     H71016   2.223   4.216   4.812  1.8184 -2.7848  0.3442
  515MOL0     H71017   2.225   4.070   5.077  3.5484 -3.9458  0.4276
  515MOL0     H71018   2.224   4.009   4.903  2.4717 -0.6384 -0.5006
  515MOL0     H71019   2.503   3.907   4.866  2.0576 -0.9707  1.2832
  515MOL0     H71020   2.830   4.133   4.890  2.4805 -2.0209  0.2595
  515MOL0     H71021   2.743   4.054   4.770 -1.3944  1.9886  0.6435
  515MOL0     H71022   2.952   3.934   4.902  1.4676 -1.3815  2.1889
  515MOL0     H71023   2.827   3.887   5.009  0.5450  2.5580  0.7766
  515MOL0     H71024   2.680   3.816   4.778 -0.3905 -0.7219  1.3706
  515MOL0     H71025   2.835   3.808   4.706 -0.9859  1.7757 -0.3320
  515MOL0     H71026   2.792   3.595   4.760 -1.6010 -1.8657  0.2018
  515MOL0     H71027   2.910   3.638   4.890  0.0088  3.4465  0.4795
  515MOL0     H71028   2.559   3.558   5.112  0.3989 -1.6720 -0.0604
  515MOL0     H71029   2.497   3.462   5.333 -3.9757 -1.1549 -0.8461
  515MOL0     H71030   2.557   3.300   5.381  0.2848 -1.1832 -1.2170
  515MOL0     H71031   2.435   3.317   5.254  0.8472 -0.3565 -0.6114
  515MOL0     H71032   2.463   3.003   5.464  0.6183  2.4762  2.9380
  515MOL0     H71033   2.480   2.840   5.637 -1.6624  1.8591 -0.9055
  515MOL0     H71034   2.859   2.643   5.735  0.5901 -1.4140  2.2934
  515MOL0     H71035   2.794   2.741   5.863 -1.9772 -0.5536  0.7106
  515MOL0     H71036   2.828   2.509   5.930  0.6595 -0.1040  0.4847
  515MOL0     H71037   2.651   2.541   5.918 -0.8531  1.6722 -4.0709
  515MOL0     H71038   2.808   2.418   5.688  1.4067 -2.4666  0.9110
  515MOL0     H71039   2.636   2.433   5.697 -0.5620 -1.5316 -0.6068
  515MOL0     H71040   2.660   2.248   5.886 -0.3798  1.1356  1.4283
  515MOL0     H71041   2.829   2.232   5.824  0.0346 -0.7836  0.0578
  515MOL0     H71042   2.564   2.201   5.684 -0.7915 -0.5311  2.0780
  515MOL0     H71043   2.719   2.239   5.601  0.1214  1.7990  0.6315
  515MOL0     H71044   2.659   2.010   5.796  0.0578  1.1291  0.0340
  515MOL0     H71045   2.792   2.001   5.674  0.3303 -0.0402  3.4870
  515MOL0     H71046   2.624   2.002   5.483 -1.2730 -1.7790 -0.0602
  515MOL0     H71047   2.495   2.007   5.606  0.5660  5.9151 -2.7713
  515MOL0     H71048   2.534   1.778   5.519  0.3670 -1.6254  0.4132
  515MOL0     H71049   2.555   1.794   5.697 -0.2653  0.2890 -0.1738
  515MOL0     H71050   2.891   2.777   5.570 -1.0067 -1.5793  0.5930
  515MOL0     H71051   2.893   2.959   5.393  0.1908  0.7498 -0.4147
  515MOL0     H71052   2.939   3.252   5.088 -0.0523 -0.3735  0.2041
  515MOL0     H71053   2.943   3.448   4.965  1.0059 -0.6811  3.0698
  515MOL0     H71054   1.484   4.703   4.715 -0.9964 -0.9506 -2.1187
  515MOL0     H71055   1.334   4.861   4.660 -0.6377 -1.4159  0.3094
  515MOL0     H71056   1.109   5.013   4.443 -2.2038  1.1033  0.4960
  515MOL0     H71057   0.916   4.995   4.294  1.8948 -1.9167  1.1394
  515MOL0     H71058   0.957   5.166   3.878 -0.1018  0.8694 -1.4178
  515MOL0     H71059   0.814   5.087   3.886  0.0828  0.0497 -0.3968
  515MOL0     H71060   0.818   5.344   4.050  2.2452 -1.2917  0.2499
  515MOL0     H71061   0.689   5.261   3.973 -0.3760  1.4844  1.4688
  515MOL0     H71062   0.941   5.385   3.836  0.7531 -0.3771  0.9249
  515MOL0     H71063   0.793   5.330   3.753 -0.0538 -1.2892  0.8167
  515MOL0     H71064   0.830   5.576   3.907  0.8767 -0.4686 -0.3046
  515MOL0     H71065   0.665   5.529   3.876  1.2837 -0.4915  1.1114
  515MOL0     H71066   0.793   5.697   3.503  0.1510 -1.9704 -0.1663
  515MOL0     H71067   1.079   5.280   4.027 -3.3370 -1.5870 -0.5900
  515MOL0     H71068   1.403   5.251   4.103 -0.3533 -3.2860  2.1339
  515MOL0     H71069   1.275   5.389   4.083 -1.6544 -0.6152  1.8901
  515MOL0     H71070   1.353   5.386   4.228 -1.4171  2.8265 -1.8325
  516MOL0     O71071   4.149   9.185   9.899  0.5669  0.2737  0.0093
  516MOL0     C71072   4.038   9.141   9.858  0.0103  1.0760  0.0870
  516MOL0     O71073   3.981   9.165   9.741 -0.1898  0.1706  0.5152
  516MOL0     C71074   4.048   9.228   9.642 -0.5663 -0.1985  0.4895
  516MOL0     C71075   4.013   9.357   9.616 -0.1802  0.3755 -0.0615
  516MOL0     C71076   4.064   9.422   9.507 -1.3725  0.4817 -0.4590
  516MOL0     C71077   4.155   9.355   9.418 -0.1892  0.3803 -0.4638
  516MOL0     O71078   4.209   9.405   9.305 -0.8493 -0.4078 -0.2289
  516MOL0     C71079   4.134   9.508   9.232 -0.6623 -0.9636 -0.3296
  516MOL0     C71080   4.179   9.522   9.081 -0.7045  0.5053 -0.2577
  516MOL0     C71081   4.165   9.390   9.008 -0.7642  1.8432 -0.7384
  516MOL0     C71082   4.169   9.409   8.859  0.4036  0.5811  0.1864
  516MOL0     C71083   4.117   9.281   8.780 -0.2829 -0.0524  0.0474
  516MOL0     C71084   4.142   9.271   8.629  1.0404 -0.0613 -0.0767
  516MOL0     C71085   4.069   9.148   8.565  0.6099  0.0054  0.4315
  516MOL0     C71086   4.106   9.153   8.421 -0.7022  0.3067  0.1576
  516MOL0     N71087   4.075   9.022   8.358  0.2704  0.2414 -0.0770
  516MOL0     C71088   3.959   8.980   8.311 -0.5069 -0.5096  0.7553
  516MOL0     C71089   3.983   8.862   8.245 -0.1601 -0.4548 -0.4532
  516MOL0     C71090   3.885   8.769   8.181  0.1504 -0.8560  0.5503
  516MOL0     C71091   3.861   8.820   8.043  0.3208 -0.3698 -0.8394
  516MOL0     C71092   3.755   8.752   7.963  1.4954 -0.5640 -0.3875
  516MOL0     C71093   3.636   8.836   7.924 -0.9747 -0.3245  0.1412
  516MOL0     O71094   3.538   8.752   7.872  0.5406  0.2279  0.1533
  516MOL0     C71095   3.467   8.803   7.765  0.5420 -0.0232  0.2475
  516MOL0     C71096   3.463   8.941   7.724 -0.2912  0.8030 -0.0588
  516MOL0     C71097   3.399   8.980   7.600  0.4563  0.0860 -0.0670
  516MOL0     C71098   3.419   9.128   7.554  0.0678  0.5331 -0.2071
  516MOL0     C71099   3.320   8.879   7.519 -0.2066 -0.1433 -0.5029
  516MOL0     C71100   3.246   8.908   7.399 -0.1764  0.4724 -0.7720
  516MOL0     O71101   3.252   8.801   7.301  0.4154 -0.0224 -0.0863
  516MOL0     C71102   3.149   8.788   7.210 -0.4983 -0.2213 -0.0225
  516MOL0     C71103   3.167   8.763   7.073 -0.4143 -0.7506 -0.2327
  516MOL0     C71104   3.058   8.743   6.983 -0.5299 -0.1947 -0.3392
  516MOL0     C71105   2.925   8.736   7.032 -0.1897 -0.4541 -0.1990
  516MOL0     O71106   2.829   8.710   6.945  0.4579  0.2002  0.0332
  516MOL0     C71107   2.692   8.736   6.977  0.0488 -0.5308 -0.9676
  516MOL0     C71108   2.648   8.878   6.993  0.6231 -0.4047 -0.5370
  516MOL0     C71109   2.568   8.941   6.877  0.4497  0.8137  0.1792
  516MOL0     C71110   2.665   9.010   6.780 -1.4217 -0.7077  0.2525
  516MOL0     C71111   2.590   9.091   6.680  0.3573 -0.4021 -0.6953
  516MOL0     C71112   2.543   9.230   6.723 -0.9631  0.1091  0.3124
  516MOL0     C71113   2.454   9.309   6.623 -0.5801 -0.1314 -0.6236
  516MOL0     C71114   2.351   9.394   6.690  0.2055 -0.1754  0.0513
  516MOL0    Cl71115   2.298   9.516   6.570  0.1554 -0.2808 -0.3452
  516MOL0     C71116   2.909   8.743   7.172  0.4415  0.1751  0.2551
  516MOL0     C71117   3.018   8.771   7.252  0.4340 -0.3680  0.3344
  516MOL0     O71118   3.169   9.004   7.396 -0.3576  0.2144  0.8189
  516MOL0     C71119   3.336   8.745   7.565 -0.3617  0.3309 -0.2299
  516MOL0     C71120   3.395   8.712   7.684  0.1286  0.6764 -0.2080
  516MOL0     N71121   4.114   8.825   8.283  0.3133 -0.2128 -0.9066
  516MOL0     N71122   4.169   8.923   8.344  0.0111  0.2914 -0.4333
  516MOL0     C71123   4.197   9.226   9.446  0.4070  0.0438  0.8109
  516MOL0     C71124   4.136   9.160   9.561  0.6902  0.0954  0.2268
  516MOL0     C71125   3.949   9.055   9.943  0.4499 -0.0924  0.5929
  516MOL0     C71126   3.845   8.985   9.879 -0.1598  0.3479 -0.8319
  516MOL0     C71127   3.753   8.922   9.957  1.3397  0.7401  0.0589
  516MOL0     C71128   3.758   8.911  10.093  0.8422 -0.5261  0.4790
  516MOL0     O71129   3.647   8.855  10.162 -0.6268  0.3114  0.2725
  516MOL0     C71130   3.691   8.768  10.277 -0.3537 -1.0931  0.2767
  516MOL0     C71131   3.564   8.732  10.358 -0.5018  1.4304 -0.7080
  516MOL0     C71132   3.587   8.649  10.489 -0.1880 -0.4916  0.3414
  516MOL0     C71133   3.567   8.500  10.453  0.2549 -0.2175 -0.1484
  516MOL0     C71134   3.430   8.447  10.420 -0.5219  0.3277  0.0735
  516MOL0     C71135   3.319   8.408  10.390 -0.1589  0.3326 -0.3698
  516MOL0     C71136   3.863   8.979  10.153  0.0040 -0.9909 -0.9894
  516MOL0     C71137   3.957   9.054  10.083  0.1349 -0.0986  0.4995
  516MOL0     C71138   4.073   9.117  10.162 -0.3956  0.4471 -0.0449
  516MOL0     H71139   3.947   9.411   9.684 -1.3733 -0.6659 -0.3765
  516MOL0     H71140   4.044   9.529   9.508  3.0831  1.7237  4.3233
  516MOL0     H71141   4.162   9.604   9.278  0.0078 -0.2851 -2.0706
  516MOL0     H71142   4.026   9.494   9.237 -0.5188 -3.0683 -1.9668
  516MOL0     H71143   4.125   9.606   9.037 -3.1334  0.2692  2.0637
  516MOL0     H71144   4.285   9.550   9.083 -0.4926  0.0359 -2.4065
  516MOL0     H71145   4.241   9.316   9.036 -1.7042  1.4987  1.0791
  516MOL0     H71146   4.070   9.342   9.033  1.1555 -2.6281 -1.1595
  516MOL0     H71147   4.111   9.497   8.831 -0.7230 -0.2556 -0.2058
  516MOL0     H71148   4.271   9.437   8.832  0.5719 -0.8554 -0.7515
  516MOL0     H71149   4.009   9.267   8.791 -0.9798  2.4086 -2.4165
  516MOL0     H71150   4.156   9.195   8.836 -2.7065 -2.4952 -1.7346
  516MOL0     H71151   4.110   9.365   8.583  0.6556 -0.1133  0.0818
  516MOL0     H71152   4.251   9.270   8.616  1.1039  3.3452 -0.6549
  516MOL0     H71153   3.962   9.135   8.578  0.7689 -0.0164  1.8301
  516MOL0     H71154   4.099   9.056   8.616 -0.4640 -0.7939 -0.3344
  516MOL0     H71155   4.057   9.232   8.363 -0.3478  1.0546  0.8574
  516MOL0     H71156   4.214   9.172   8.411 -0.7090  0.7010  0.7873
  516MOL0     H71157   3.858   9.019   8.310 -0.1819  0.5044 -1.9046
  516MOL0     H71158   3.791   8.775   8.236 -0.5358  2.9963 -0.7664
  516MOL0     H71159   3.922   8.667   8.168  1.9822  0.0741 -2.6225
  516MOL0     H71160   3.829   8.924   8.046  2.1598  0.2652 -1.7134
  516MOL0     H71161   3.959   8.818   7.994  1.7998 -1.2929  1.9493
  516MOL0     H71162   3.806   8.722   7.871  1.8063 -0.4251 -0.2630
  516MOL0     H71163   3.710   8.668   8.016 -0.3295  1.2069  1.0367
  516MOL0     H71164   3.593   8.894   8.006  1.1478  1.1637  0.3028
  516MOL0     H71165   3.689   8.902   7.854  0.4997  0.9863  2.3440
  516MOL0     H71166   3.519   9.012   7.784  2.6233 -3.3079  2.6352
  516MOL0     H71167   3.321   9.178   7.551  0.9463  2.3060 -1.0984
  516MOL0     H71168   3.460   9.144   7.454 -2.5551  0.4302 -1.3695
  516MOL0     H71169   3.489   9.177   7.623  2.8114 -1.2907 -1.5484
  516MOL0     H71170   3.269   8.746   7.041 -0.6861 -1.0556 -0.9631
  516MOL0     H71171   3.084   8.727   6.879 -0.1847  0.3556 -0.3424
  516MOL0     H71172   2.632   8.701   6.893 -2.7232  2.1420 -0.2751
  516MOL0     H71173   2.672   8.671   7.062 -0.0487 -2.2915 -2.2926
  516MOL0     H71174   2.588   8.884   7.085  0.7159 -0.1846 -0.4891
  516MOL0     H71175   2.734   8.940   7.020  1.9808 -2.3425 -0.2243
  516MOL0     H71176   2.480   9.000   6.905 -1.1578  0.2793 -3.2449
  516MOL0     H71177   2.521   8.855   6.828  2.2352 -0.1789  0.1467
  516MOL0     H71178   2.721   8.939   6.720  0.7475  0.6034  0.6354
  516MOL0     H71179   2.727   9.087   6.827 -0.4726 -1.2247 -0.1383
  516MOL0     H71180   2.649   9.102   6.588 -0.6632 -0.8784 -1.4304
  516MOL0     H71181   2.497   9.040   6.652 -0.6476  0.7355  0.4428
  516MOL0     H71182   2.627   9.292   6.754  0.8240 -2.1761  0.2569
  516MOL0     H71183   2.478   9.210   6.809  0.7258  2.7220  2.3624
  516MOL0     H71184   2.417   9.234   6.553  0.2549  0.0359 -1.2580
  516MOL0     H71185   2.520   9.368   6.560  2.1406 -1.8622  0.4598
  516MOL0     H71186   2.407   9.455   6.762  0.3714  1.7509 -1.6133
  516MOL0     H71187   2.277   9.332   6.741 -2.7943  2.4452 -0.8219
  516MOL0     H71188   2.814   8.728   7.221 -0.8194 -1.5032 -2.5106
  516MOL0     H71189   3.001   8.778   7.359  0.8528 -1.2334  0.4613
  516MOL0     H71190   3.279   8.663   7.523 -0.5053  1.1818 -1.7687
  516MOL0     H71191   3.379   8.614   7.728 -1.7833  1.1411  0.2317
  516MOL0     H71192   4.268   9.171   9.384 -1.3271 -3.5205  1.6880
  516MOL0     H71193   4.162   9.058   9.586  0.2235 -0.7532 -2.3800
  516MOL0     H71194   3.823   8.973   9.773  0.6239 -3.5580 -0.6825
  516MOL0     H71195   3.667   8.880   9.906  0.6854  3.7719 -1.5519
  516MOL0     H71196   3.739   8.671  10.257  1.4658 -0.0175 -0.8511
  516MOL0     H71197   3.766   8.816  10.340  0.1337  0.6832 -1.5700
  516MOL0     H71198   3.497   8.681  10.288  0.8391  1.5405 -2.1109
  516MOL0     H71199   3.509   8.812  10.409 -1.4306 -0.6965  1.8200
  516MOL0     H71200   3.682   8.671  10.538 -0.1942  0.6056 -0.1071
  516MOL0     H71201   3.511   8.669  10.565 -0.3449  0.4989 -0.0538
  516MOL0     H71202   3.592   8.452  10.548  0.5910 -0.2954 -0.2757
  516MOL0     H71203   3.635   8.472  10.373 -2.2860  0.6763 -2.8030
  516MOL0     H71204   3.215   8.391  10.370 -1.0879  3.9178  0.5827
  516MOL0     H71205   3.878   8.973  10.260 -2.9222  2.0051 -0.2630
  516MOL0     H71206   4.048   9.134  10.267 -1.4718  0.4351 -0.2869
  516MOL0     H71207   4.163   9.057  10.150  0.0561  0.9897  0.5633
  516MOL0     H71208   4.095   9.221  10.135 -0.1291  0.4740  0.2812
  517MOL0     O71209  11.165   3.540   9.833  0.0163  0.7026 -0.2260
  517MOL0     C71210  11.206   3.631   9.761  0.6764  0.0884 -0.0565
  517MOL0     O71211  11.334   3.665   9.761 -0.3926 -0.0734  0.2873
  517MOL0     C71212  11.422   3.590   9.839 -0.0338  0.5259  0.9297
  517MOL0     C71213  11.427   3.603   9.978 -0.2731 -0.0197 -1.0363
  517MOL0     C71214  11.531   3.538  10.046 -0.9395  0.0352  0.2805
  517MOL0     C71215  11.621   3.452   9.984 -0.4475 -0.9535 -0.7647
  517MOL0     O71216  11.727   3.385  10.040  0.7733  0.3320 -0.6505
  517MOL0     C71217  11.768   3.399  10.174  1.1056 -0.1538 -0.7672
  517MOL0     C71218  11.868   3.291  10.216 -0.4398  0.2332  1.6777
  517MOL0     C71219  11.879   3.263  10.361 -0.8447  0.7583 -0.5303
  517MOL0     C71220  12.007   3.197  10.405 -0.8392 -0.4887  0.1978
  517MOL0     C71221  12.028   3.200  10.554 -1.1085  0.5167  0.6654
  517MOL0     C71222  12.156   3.131  10.589 -0.6068  0.2916 -0.4087
  517MOL0     C71223  12.164   3.075  10.737  0.2973 -0.3100  0.0294
  517MOL0     C71224  12.210   3.190  10.828  0.5322 -0.0253 -0.0645
  517MOL0     N71225  12.198   3.163  10.977 -0.5092 -0.7131  0.0176
  517MOL0     C71226  12.084   3.143  11.051 -0.0316  1.2081 -0.0215
  517MOL0     C71227  12.115   3.180  11.176 -1.1496 -0.5498 -0.5456
  517MOL0     C71228  12.034   3.162  11.302  0.1941  0.8940  0.3902
  517MOL0     C71229  11.990   3.293  11.364  0.2840 -0.4827  0.4422
  517MOL0     C71230  12.032   3.314  11.511  0.2728  0.1960  0.2336
  517MOL0     C71231  11.991   3.457  11.563  0.5390  0.2527 -0.1962
  517MOL0     O71232  11.999   3.462  11.703 -0.1044 -0.0121 -0.8160
  517MOL0     C71233  12.117   3.480  11.764  0.1329 -0.1350  1.4758
  517MOL0     C71234  12.134   3.448  11.890  0.2458  0.5093 -0.0126
  517MOL0     C71235  12.254   3.430  11.958 -0.0389  0.7099  0.8155
  517MOL0     C71236  12.238   3.398  12.104  0.1948 -0.9373 -0.7032
  517MOL0     C71237  12.370   3.452  11.880  0.8545 -0.5847 -0.6149
  517MOL0     C71238  12.490   3.439  11.956  0.6805 -0.7086  0.5615
  517MOL0     O71239  12.548   3.321  11.972 -0.2444  0.3557  0.6899
  517MOL0     C71240  12.660   3.302  12.051 -0.1339  0.3278 -0.8084
  517MOL0     C71241  12.723   3.384  12.152 -0.1409 -0.4842 -0.0422
  517MOL0     C71242  12.831   3.326  12.230  0.2534  0.5072 -0.5244
  517MOL0     C71243  12.884   3.205  12.199 -0.3358  0.0738 -1.6513
  517MOL0     O71244  12.993   3.154  12.270  0.7973  0.5288  0.2856
  517MOL0     C71245  13.110   3.232  12.280  0.0831  0.8385 -0.7495
  517MOL0     C71246  13.162   3.267  12.143  1.1612 -0.1377 -0.1332
  517MOL0     C71247  13.294   3.338  12.165 -0.6435  0.0963 -0.4752
  517MOL0     C71248  13.408   3.234  12.141  0.7953  0.0189  0.0690
  517MOL0     C71249  13.542   3.288  12.130 -0.1275 -0.8535 -0.2711
  517MOL0     C71250  13.572   3.379  11.996  0.8825 -0.0818  0.1819
  517MOL0     C71251  13.717   3.349  11.952 -0.1516 -0.6739 -0.7623
  517MOL0     C71252  13.750   3.408  11.815  0.9214  0.1392  1.5255
  517MOL0    Cl71253  13.745   3.588  11.835 -0.5914  0.4746  0.7145
  517MOL0     C71254  12.831   3.127  12.110  0.2699  0.2314  0.6970
  517MOL0     C71255  12.721   3.180  12.031 -0.2390 -0.0404  0.1519
  517MOL0     O71256  12.517   3.540  12.019 -0.2283 -0.5615 -0.4315
  517MOL0     C71257  12.369   3.497  11.749 -0.7054 -1.1067 -0.7615
  517MOL0     C71258  12.242   3.495  11.681  0.4326 -0.6780  0.5564
  517MOL0     N71259  12.240   3.237  11.171  0.0648  0.1624  1.4283
  517MOL0     N71260  12.291   3.207  11.057 -0.4514 -0.1485 -0.5755
  517MOL0     C71261  11.603   3.421   9.850 -0.2008  0.3772  0.5138
  517MOL0     C71262  11.509   3.498   9.779 -0.4615  0.8252  0.1854
  517MOL0     C71263  11.110   3.700   9.666  0.0560  0.4916 -0.5872
  517MOL0     C71264  11.134   3.832   9.647 -0.1411 -0.1220 -0.3840
  517MOL0     C71265  11.065   3.906   9.551  0.0505 -1.3503  0.0172
  517MOL0     C71266  10.965   3.854   9.470 -0.3939 -0.3484 -0.5422
  517MOL0     O71267  10.931   3.927   9.355 -0.4355 -0.5917  0.4573
  517MOL0     C71268  10.811   3.900   9.296 -0.1230  0.1713  0.6731
  517MOL0     C71269  10.702   3.890   9.397  0.3797  0.0837 -0.5718
  517MOL0     C71270  10.564   3.893   9.335 -1.2526 -0.2986  0.6657
  517MOL0     C71271  10.455   3.862   9.438  0.6378  1.1060 -0.3696
  517MOL0     C71272  10.320   3.904   9.393 -0.2394  0.2378 -0.3992
  517MOL0     C71273  10.220   3.960   9.360  0.4223  0.0846  1.0668
  517MOL0     C71274  10.946   3.711   9.493  0.2318 -0.4838  0.1668
  517MOL0     C71275  10.996   3.641   9.600  0.0902 -0.2583 -0.2291
  517MOL0     C71276  10.946   3.497   9.615 -0.5791  0.0815  0.5321
  517MOL0     H71277  11.364   3.669  10.037  0.1651  0.0327 -0.6255
  517MOL0     H71278  11.535   3.564  10.151 -0.6791  1.3524 -0.0438
  517MOL0     H71279  11.679   3.376  10.234  2.1403 -1.5452  0.3367
  517MOL0     H71280  11.796   3.503  10.187 -1.2817  0.3229  1.4032
  517MOL0     H71281  11.830   3.201  10.167 -0.0052  0.1966  1.4063
  517MOL0     H71282  11.962   3.324  10.170 -1.8875 -0.1557 -1.8310
  517MOL0     H71283  11.878   3.357  10.416  3.5479 -0.5882  2.4588
  517MOL0     H71284  11.794   3.196  10.380  1.3251 -2.3550 -0.8786
  517MOL0     H71285  12.019   3.093  10.372 -0.9269 -1.0935  1.9604
  517MOL0     H71286  12.088   3.255  10.360  0.0328 -0.3369  1.9051
  517MOL0     H71287  11.942   3.153  10.604 -2.4979  1.7265 -0.4767
  517MOL0     H71288  12.024   3.302  10.593 -1.9636  0.7465  0.0120
  517MOL0     H71289  12.177   3.047  10.521  0.9601  1.6861 -1.7426
  517MOL0     H71290  12.238   3.200  10.567 -0.3252 -0.6123 -2.4781
  517MOL0     H71291  12.243   3.002  10.723 -2.2700 -2.9890 -1.5573
  517MOL0     H71292  12.070   3.027  10.765 -0.6591  0.3277 -1.9232
  517MOL0     H71293  12.315   3.210  10.806  0.7586 -1.8521 -0.8643
  517MOL0     H71294  12.151   3.281  10.814 -2.9823 -2.2567 -1.0876
  517MOL0     H71295  11.986   3.109  11.018  0.4752  1.7171 -2.1486
  517MOL0     H71296  12.095   3.101  11.370 -0.5961 -1.1010 -0.6262
  517MOL0     H71297  11.949   3.102  11.270  0.3865  1.1154 -0.5578
  517MOL0     H71298  12.037   3.367  11.298 -3.8625 -0.5236 -2.9344
  517MOL0     H71299  11.882   3.296  11.348  0.3549  1.5841 -0.0211
  517MOL0     H71300  11.984   3.239  11.574 -1.6180  1.7876  0.7957
  517MOL0     H71301  12.140   3.306  11.527  0.6003  2.3939 -0.5092
  517MOL0     H71302  12.049   3.528  11.504 -0.5027  1.3058  0.0141
  517MOL0     H71303  11.886   3.473  11.536  0.0498  2.9995  2.7910
  517MOL0     H71304  12.051   3.439  11.959  0.6037  0.6512  0.4461
  517MOL0     H71305  12.263   3.293  12.121 -2.0911 -1.6732 -1.5192
  517MOL0     H71306  12.138   3.418  12.142  1.1984  2.4105  0.4726
  517MOL0     H71307  12.311   3.461  12.156 -0.3640  0.7578 -1.8902
  517MOL0     H71308  12.686   3.483  12.176  0.3104  0.0267 -1.3937
  517MOL0     H71309  12.873   3.383  12.312 -0.0034  1.2548 -0.9015
  517MOL0     H71310  13.111   3.309  12.358 -0.3445 -1.6993  1.9535
  517MOL0     H71311  13.177   3.157  12.323  0.9021 -0.2053 -3.6309
  517MOL0     H71312  13.164   3.181  12.074  2.1474 -1.2657  1.2431
  517MOL0     H71313  13.090   3.340  12.106  0.3970 -0.4565  0.7172
  517MOL0     H71314  13.304   3.367  12.270  2.1471 -0.5213 -0.4948
  517MOL0     H71315  13.308   3.423  12.097  0.4586  0.0952 -0.2603
  517MOL0     H71316  13.380   3.173  12.054 -3.7998  0.9916  0.5677
  517MOL0     H71317  13.416   3.170  12.229  3.7371 -0.2612 -0.3197
  517MOL0     H71318  13.549   3.346  12.222 -0.7055  0.6621 -1.1566
  517MOL0     H71319  13.616   3.207  12.132  0.9785  0.1438  0.4924
  517MOL0     H71320  13.545   3.483  12.014 -2.2560 -0.5117 -1.4083
  517MOL0     H71321  13.498   3.357  11.918 -0.3967  1.4321  0.9140
  517MOL0     H71322  13.741   3.243  11.940  1.7104 -0.3547 -0.2517
  517MOL0     H71323  13.793   3.390  12.020 -0.6427 -3.3956  1.6284
  517MOL0     H71324  13.659   3.390  11.758  0.4006 -0.1113  2.4109
  517MOL0     H71325  13.837   3.375  11.756  1.2548  0.4149  1.8587
  517MOL0     H71326  12.874   3.033  12.078  2.4880  1.9367 -1.7174
  517MOL0     H71327  12.686   3.125  11.944  0.9938 -1.0380  0.2452
  517MOL0     H71328  12.457   3.512  11.687 -0.3304  3.8195  0.5211
  517MOL0     H71329  12.250   3.520  11.576  3.1003  2.9657  1.4469
  517MOL0     H71330  11.663   3.344   9.802 -0.1744  0.5165  0.3195
  517MOL0     H71331  11.500   3.484   9.672 -0.2626 -2.5096  0.4867
  517MOL0     H71332  11.203   3.888   9.710 -1.5067 -0.3030  1.3691
  517MOL0     H71333  11.086   4.011   9.531 -0.8422 -1.1515  0.0794
  517MOL0     H71334  10.788   3.993   9.244  4.3996  1.8136  1.1191
  517MOL0     H71335  10.821   3.820   9.222  1.2039 -0.6263  1.6512
  517MOL0     H71336  10.714   3.965   9.475 -1.8249 -2.2014  2.2038
  517MOL0     H71337  10.703   3.799   9.458 -1.0007 -0.3359 -1.1222
  517MOL0     H71338  10.554   3.997   9.303  0.8053  0.3722  1.9991
  517MOL0     H71339  10.554   3.832   9.245 -1.3721  0.8620 -0.1347
  517MOL0     H71340  10.473   3.911   9.534 -0.7277 -0.0600  0.5237
  517MOL0     H71341  10.448   3.757   9.465  1.6611  1.7034  2.6148
  517MOL0     H71342  10.126   4.003   9.331  0.1561 -0.7163  0.6967
  517MOL0     H71343  10.878   3.651   9.434  0.7585  0.9561 -2.0040
  517MOL0     H71344  10.874   3.500   9.698 -3.5278  2.2514 -1.8750
  517MOL0     H71345  10.898   3.461   9.524  0.3471  0.3600 -0.0775
  517MOL0     H71346  11.034   3.436   9.634  1.6473  2.9237  0.0700
  518MOL0     O71347   4.325   0.871   8.012 -0.0029 -0.7456 -0.5916
  518MOL0     C71348   4.401   0.965   7.990  0.4273  0.5764  0.0377
  518MOL0     O71349   4.370   1.098   8.018 -0.8240  0.1511 -0.3171
  518MOL0     C71350   4.277   1.130   8.116 -0.8889  0.8955  0.6005
  518MOL0     C71351   4.307   1.251   8.190 -0.6226  0.3440  0.9061
  518MOL0     C71352   4.220   1.308   8.290  0.5848  0.4301  0.1219
  518MOL0     C71353   4.100   1.232   8.318  0.4304  0.2443  0.0614
  518MOL0     O71354   4.026   1.280   8.423 -0.4462  0.0731  0.8091
  518MOL0     C71355   3.890   1.329   8.392 -0.2008  0.1690  0.3697
  518MOL0     C71356   3.802   1.279   8.499  0.6712 -0.2890  0.4769
  518MOL0     C71357   3.803   1.127   8.521 -0.3304 -0.3246 -0.1577
  518MOL0     C71358   3.675   1.083   8.599  0.1661  0.4125  0.6293
  518MOL0     C71359   3.705   0.957   8.675 -0.0505 -0.6356  0.7926
  518MOL0     C71360   3.594   0.922   8.778  0.5832 -0.5148 -0.0851
  518MOL0     C71361   3.579   1.040   8.883  0.9998  0.1395 -0.2201
  518MOL0     C71362   3.480   1.004   8.994 -0.1567  0.1933  0.4124
  518MOL0     N71363   3.525   0.876   9.050 -0.4762 -0.3906  0.2343
  518MOL0     C71364   3.457   0.758   9.070  0.5470 -0.2778 -0.6113
  518MOL0     C71365   3.537   0.677   9.144 -1.0822  0.2361 -0.5424
  518MOL0     C71366   3.492   0.565   9.228 -0.0735 -0.3626  0.9589
  518MOL0     C71367   3.617   0.456   9.239  0.6363 -0.1060  0.6157
  518MOL0     C71368   3.550   0.319   9.273  0.7035 -0.2598  1.1321
  518MOL0     C71369   3.647   0.229   9.360  0.3798 -0.0995 -0.1438
  518MOL0     O71370   3.580   0.119   9.429  1.6953  0.5881  0.0027
  518MOL0     C71371   3.573   0.015   9.342  0.3406  0.7186 -0.3612
  518MOL0     C71372   3.683  -0.060   9.314 -0.8972  0.3851 -0.4637
  518MOL0     C71373   3.666  -0.166   9.227  0.1900 -0.3215  0.7829
  518MOL0     C71374   3.792  -0.239   9.208 -0.1935  0.8224  0.8796
  518MOL0     C71375   3.542  -0.214   9.185  0.3188  0.2629  0.5921
  518MOL0     C71376   3.521  -0.351   9.122 -0.1251 -0.1554  0.3740
  518MOL0     O71377   3.411  -0.402   9.173  0.1274  0.4007  0.0031
  518MOL0     C71378   3.344  -0.510   9.144 -0.5336  0.6507 -0.1872
  518MOL0     C71379   3.261  -0.549   9.240  0.4283 -0.6103  0.8731
  518MOL0     C71380   3.169  -0.652   9.212  0.0109 -0.0379  0.0909
  518MOL0     C71381   3.156  -0.713   9.090  0.2473 -1.6837 -0.3228
  518MOL0     O71382   3.064  -0.811   9.074  0.5586  0.0565  0.1145
  518MOL0     C71383   3.028  -0.839   8.938 -0.7234 -0.6048 -0.0262
  518MOL0     C71384   2.956  -0.727   8.866  0.5734 -0.1203  0.3100
  518MOL0     C71385   2.910  -0.759   8.723  0.4745 -0.9941 -1.1033
  518MOL0     C71386   2.797  -0.858   8.724  0.0743  1.0996  1.7518
  518MOL0     C71387   2.746  -0.882   8.584 -0.2104 -0.3836  0.4334
  518MOL0     C71388   2.654  -1.002   8.591 -0.0275  0.9012 -0.3282
  518MOL0     C71389   2.513  -0.989   8.663 -0.0682 -0.1402  0.4040
  518MOL0     C71390   2.453  -1.130   8.692  0.5973  0.4945 -0.3476
  518MOL0    Cl71391   2.564  -1.203   8.808  0.0668  0.0961  0.3415
  518MOL0     C71392   3.242  -0.660   8.993  0.6142 -0.7396  1.1997
  518MOL0     C71393   3.338  -0.567   9.018  0.3651 -0.6723  0.3246
  518MOL0     O71394   3.597  -0.402   9.047 -0.3799 -0.5326 -0.6410
  518MOL0     C71395   3.432  -0.139   9.233  0.4456  0.2436  0.7688
  518MOL0     C71396   3.450  -0.025   9.304  0.4432 -0.9443  0.3956
  518MOL0     N71397   3.653   0.754   9.171 -0.5396 -0.2274 -0.1656
  518MOL0     N71398   3.642   0.874   9.119 -0.0104  0.5745 -0.0248
  518MOL0     C71399   4.068   1.123   8.240  0.8542  0.4107  0.0848
  518MOL0     C71400   4.148   1.075   8.138  0.3193 -0.3833  0.0927
  518MOL0     C71401   4.542   0.936   7.940 -0.0224 -0.0352  0.0201
  518MOL0     C71402   4.645   1.038   7.933 -0.6366  0.3054  0.4754
  518MOL0     C71403   4.768   1.011   7.890  0.6612  0.3052  0.3007
  518MOL0     C71404   4.812   0.881   7.860 -0.2711 -0.5186 -0.4608
  518MOL0     O71405   4.945   0.851   7.849 -0.3967 -0.3133  0.7808
  518MOL0     C71406   5.047   0.944   7.831 -0.5363  0.3700 -0.0835
  518MOL0     C71407   5.133   0.939   7.972 -0.0013  0.5312  1.1468
  518MOL0     C71408   5.256   1.031   7.981  0.1651  0.3664 -0.4442
  518MOL0     C71409   5.296   1.043   8.131  0.5223  0.5040 -0.1471
  518MOL0     C71410   5.377   1.162   8.135  1.1454  0.0910 -0.2002
  518MOL0     C71411   5.440   1.268   8.129  0.2503  0.4330 -0.7137
  518MOL0     C71412   4.722   0.773   7.886  0.4995  0.0077  0.0174
  518MOL0     C71413   4.587   0.802   7.920 -0.9403  0.3398 -0.2827
  518MOL0     C71414   4.496   0.677   7.917 -0.3512 -0.9687 -0.3343
  518MOL0     H71415   4.396   1.306   8.164  0.5803 -2.2018 -0.7376
  518MOL0     H71416   4.249   1.402   8.336  1.6334  0.2644 -0.1721
  518MOL0     H71417   3.862   1.295   8.293  1.9591 -0.9483  0.0722
  518MOL0     H71418   3.876   1.438   8.395  0.2352  0.2369  0.0007
  518MOL0     H71419   3.833   1.317   8.596  0.1686 -0.2695  0.6341
  518MOL0     H71420   3.706   1.330   8.482  0.0540 -0.7933  2.2630
  518MOL0     H71421   3.801   1.074   8.425 -1.1736  0.0577 -0.3594
  518MOL0     H71422   3.894   1.101   8.577 -0.5952  0.5168  0.6810
  518MOL0     H71423   3.641   1.158   8.671 -2.4148  0.1732 -0.2358
  518MOL0     H71424   3.591   1.073   8.530  1.5460  0.1065 -1.0807
  518MOL0     H71425   3.806   0.973   8.715  0.2650 -0.8544  0.1063
  518MOL0     H71426   3.717   0.865   8.618 -0.8176 -1.4497  1.9098
  518MOL0     H71427   3.496   0.907   8.731  0.2494 -0.3681  0.5516
  518MOL0     H71428   3.612   0.826   8.827 -0.7952 -0.3382  0.8454
  518MOL0     H71429   3.524   1.113   8.824 -1.2489 -2.2428 -1.2791
  518MOL0     H71430   3.679   1.075   8.910  1.3086  0.1815 -1.3545
  518MOL0     H71431   3.460   1.081   9.068  0.5973  0.7566  0.0433
  518MOL0     H71432   3.390   0.979   8.937  2.8123 -4.0466 -3.1761
  518MOL0     H71433   3.353   0.745   9.043  0.6966 -2.0060 -0.4630
  518MOL0     H71434   3.412   0.513   9.174 -1.2881 -2.2309  4.2515
  518MOL0     H71435   3.460   0.606   9.324  0.7926 -0.4170  1.2796
  518MOL0     H71436   3.678   0.448   9.148  1.1484  1.6127  0.7854
  518MOL0     H71437   3.666   0.503   9.324 -2.0427  2.3946  0.9252
  518MOL0     H71438   3.458   0.329   9.330  0.4396  1.8548  0.4070
  518MOL0     H71439   3.522   0.267   9.181 -0.2441 -0.7849  1.7058
  518MOL0     H71440   3.733   0.200   9.299  0.3516  2.2329 -1.4038
  518MOL0     H71441   3.679   0.293   9.444 -1.6901  0.6439  0.1268
  518MOL0     H71442   3.775  -0.029   9.361 -1.1843 -0.9544  1.0779
  518MOL0     H71443   3.882  -0.182   9.235 -1.6999  2.9453  1.7141
  518MOL0     H71444   3.804  -0.289   9.112  1.0207 -0.3800  1.6275
  518MOL0     H71445   3.790  -0.317   9.284  2.0992  1.8930  2.1531
  518MOL0     H71446   3.256  -0.494   9.334 -0.5972 -0.1358  0.5545
  518MOL0     H71447   3.101  -0.669   9.295 -0.2233  0.9834  0.1156
  518MOL0     H71448   3.115  -0.870   8.880 -0.8068 -2.6590  0.8728
  518MOL0     H71449   2.960  -0.924   8.942 -1.8753  0.3015  3.5180
  518MOL0     H71450   2.877  -0.691   8.933  2.0075  2.8902  0.5146
  518MOL0     H71451   3.026  -0.644   8.855  0.0859  0.3939  1.0190
  518MOL0     H71452   2.996  -0.797   8.667  1.0897 -1.7734  0.3141
  518MOL0     H71453   2.880  -0.666   8.674 -0.1438  0.4775  1.8019
  518MOL0     H71454   2.728  -0.808   8.792 -2.3077  0.6716 -0.2056
  518MOL0     H71455   2.822  -0.952   8.774  2.2490 -1.2383 -3.0545
  518MOL0     H71456   2.690  -0.797   8.544 -0.8775 -0.8354  0.3974
  518MOL0     H71457   2.836  -0.880   8.521 -0.7139 -1.8096 -0.3694
  518MOL0     H71458   2.707  -1.087   8.634 -2.4030 -1.1769 -1.2490
  518MOL0     H71459   2.634  -1.028   8.486 -0.8633 -0.5542  0.1637
  518MOL0     H71460   2.452  -0.936   8.589 -0.7492 -1.3516  0.0798
  518MOL0     H71461   2.538  -0.933   8.754  0.0911 -2.7747  2.0815
  518MOL0     H71462   2.453  -1.185   8.597 -0.4754  1.0591 -0.6886
  518MOL0     H71463   2.352  -1.125   8.734  0.4402  0.3593 -0.7083
  518MOL0     H71464   3.240  -0.695   8.890  1.2220  2.6014 -0.0445
  518MOL0     H71465   3.395  -0.536   8.931 -1.2074 -1.3592 -0.9964
  518MOL0     H71466   3.336  -0.186   9.213  0.1627  1.3597 -0.7926
  518MOL0     H71467   3.356   0.022   9.330  0.1475 -0.6288 -1.1441
  518MOL0     H71468   3.977   1.071   8.268 -0.8018  2.3735 -1.3606
  518MOL0     H71469   4.106   0.994   8.078 -2.6736  1.0872 -0.0024
  518MOL0     H71470   4.624   1.140   7.966  1.1948  0.7774  0.2653
  518MOL0     H71471   4.829   1.100   7.893 -2.6435  2.9162 -1.5982
  518MOL0     H71472   5.109   0.908   7.749 -1.1103  1.3332 -0.9637
  518MOL0     H71473   5.017   1.047   7.809 -3.0020 -0.6016 -1.8256
  518MOL0     H71474   5.182   0.841   7.966 -1.1890 -0.0836  1.2489
  518MOL0     H71475   5.065   0.962   8.055 -0.3188  1.1153  0.7314
  518MOL0     H71476   5.335   1.005   7.909 -0.6069  1.5933 -1.8024
  518MOL0     H71477   5.214   1.131   7.961 -1.4305  0.1643  1.6144
  518MOL0     H71478   5.349   0.958   8.174 -0.0640  0.3496  0.2792
  518MOL0     H71479   5.209   1.053   8.196  0.0861  2.0330 -0.9016
  518MOL0     H71480   5.493   1.361   8.122 -0.6966  0.9491 -1.1828
  518MOL0     H71481   4.742   0.670   7.860  0.8118  0.8567 -3.6237
  518MOL0     H71482   4.556   0.589   7.891  1.1062  0.6772 -2.9707
  518MOL0     H71483   4.467   0.671   8.022  1.6513 -0.9795  0.2765
  518MOL0     H71484   4.410   0.676   7.850 -1.0312  1.6789  0.3503
  519MOL0     O71485   5.543   6.178   0.311  0.1395 -0.3155  0.1760
  519MOL0     C71486   5.598   6.105   0.400  0.2482 -0.7550 -0.5091
  519MOL0     O71487   5.670   6.163   0.510 -0.6868  0.4733  0.1533
  519MOL0     C71488   5.664   6.300   0.519  0.5804 -0.4287  0.5794
  519MOL0     C71489   5.541   6.365   0.560 -0.8716  1.0126  0.1236
  519MOL0     C71490   5.538   6.501   0.582  0.5369 -0.4064 -0.5799
  519MOL0     C71491   5.650   6.576   0.563 -1.0453  0.2164 -0.3711
  519MOL0     O71492   5.660   6.708   0.598  0.1244 -0.3779 -0.2394
  519MOL0     C71493   5.544   6.789   0.560 -0.7118  0.3545  0.3291
  519MOL0     C71494   5.610   6.882   0.452  0.7816  0.2681 -0.5885
  519MOL0     C71495   5.640   6.805   0.324  0.1028 -0.1366  1.1496
  519MOL0     C71496   5.508   6.784   0.243 -0.5055 -0.3382 -0.5970
  519MOL0     C71497   5.531   6.720   0.105 -0.6198 -0.6899  0.1604
  519MOL0     C71498   5.406   6.657   0.045  0.2572  0.0793  0.9470
  519MOL0     C71499   5.428   6.580  -0.089  0.3295 -0.3395 -0.5553
  519MOL0     C71500   5.528   6.655  -0.183 -0.1586  0.1641 -0.1204
  519MOL0     N71501   5.527   6.597  -0.324 -0.3312 -0.3179 -0.0108
  519MOL0     C71502   5.580   6.479  -0.363  0.5833 -0.0175  1.1855
  519MOL0     C71503   5.586   6.469  -0.496 -0.0415  0.6843 -0.0338
  519MOL0     C71504   5.657   6.353  -0.568 -0.2384  0.4801 -0.2671
  519MOL0     C71505   5.796   6.377  -0.612  0.0419 -0.5846 -0.6255
  519MOL0     C71506   5.887   6.256  -0.627 -0.6096  0.3768  0.8995
  519MOL0     C71507   6.031   6.289  -0.657 -0.8454 -0.5930  0.8024
  519MOL0     O71508   6.093   6.168  -0.698  0.0206 -0.3144 -0.2469
  519MOL0     C71509   6.126   6.070  -0.609 -0.4847 -0.2493  0.7423
  519MOL0     C71510   6.135   6.093  -0.470 -0.5415 -0.0943  0.3643
  519MOL0     C71511   6.131   5.988  -0.387  1.1765  0.0025  0.3255
  519MOL0     C71512   6.108   6.022  -0.235  0.4112  0.2878  0.5143
  519MOL0     C71513   6.129   5.852  -0.439  0.1007  1.1733 -0.1523
  519MOL0     C71514   6.113   5.729  -0.344  0.3705  0.0637  0.1834
  519MOL0     O71515   6.088   5.616  -0.409  0.0276  0.1651  0.5140
  519MOL0     C71516   6.099   5.495  -0.355  0.2065  0.5846 -0.2559
  519MOL0     C71517   6.216   5.447  -0.295 -0.6832  1.0106 -0.4606
  519MOL0     C71518   6.220   5.318  -0.239  0.7515  0.3817  0.0113
  519MOL0     C71519   6.119   5.228  -0.269 -0.6147 -0.6396 -0.4353
  519MOL0     O71520   6.126   5.100  -0.224 -0.0429 -0.1562  0.4124
  519MOL0     C71521   6.045   5.066  -0.108 -0.5296  0.0913 -0.1297
  519MOL0     C71522   6.134   5.038   0.011  0.1615 -0.2687  0.3385
  519MOL0     C71523   6.048   5.028   0.138 -0.5122  1.1324 -0.7492
  519MOL0     C71524   6.140   4.986   0.253 -0.0199 -0.1038 -0.3195
  519MOL0     C71525   6.190   4.842   0.265 -0.7856 -0.4520 -0.6901
  519MOL0     C71526   6.298   4.826   0.380  0.6171 -0.3248 -0.2651
  519MOL0     C71527   6.373   4.694   0.390 -1.0564  0.0780 -0.2626
  519MOL0     C71528   6.281   4.565   0.394 -0.0811  0.3083  0.3280
  519MOL0    Cl71529   6.289   4.454   0.249  0.0653  0.3873 -0.2015
  519MOL0     C71530   5.998   5.273  -0.326  0.3298 -0.1014  0.8054
  519MOL0     C71531   5.990   5.404  -0.370 -0.4665  0.1067 -0.5389
  519MOL0     O71532   6.118   5.733  -0.225  0.0973 -0.3026  0.1401
  519MOL0     C71533   6.144   5.831  -0.574 -0.6431 -0.6004  0.5500
  519MOL0     C71534   6.136   5.938  -0.661 -1.6499  0.4734  0.6433
  519MOL0     N71535   5.533   6.590  -0.538 -0.7375  0.2700 -0.2296
  519MOL0     N71536   5.495   6.661  -0.439 -0.7176 -0.2034 -0.9125
  519MOL0     C71537   5.762   6.523   0.509 -0.1840 -0.1577 -0.1999
  519MOL0     C71538   5.772   6.385   0.483 -0.8242  0.0348  0.2975
  519MOL0     C71539   5.578   5.958   0.399  0.2186  0.2664 -0.1113
  519MOL0     C71540   5.660   5.882   0.471 -0.8308 -0.1362 -0.2764
  519MOL0     C71541   5.633   5.748   0.501  0.0541  0.7611  0.5353
  519MOL0     C71542   5.517   5.692   0.461  0.4645  0.5351  0.3675
  519MOL0     O71543   5.495   5.554   0.486 -0.7584 -0.6837  0.0318
  519MOL0     C71544   5.360   5.515   0.527  0.7632 -0.4467  0.2055
  519MOL0     C71545   5.351   5.416   0.647 -0.3639  0.2426 -0.6654
  519MOL0     C71546   5.385   5.501   0.768 -0.1117  0.3226  0.2244
  519MOL0     C71547   5.249   5.559   0.811  0.5152  0.3928 -0.6390
  519MOL0     C71548   5.277   5.650   0.923  0.0832 -1.2081 -1.4117
  519MOL0     C71549   5.306   5.727   1.016 -0.7696  0.4670 -0.0465
  519MOL0     C71550   5.428   5.765   0.384 -0.1687 -0.7105 -0.6695
  519MOL0     C71551   5.452   5.903   0.354  0.2533  1.0043 -0.5182
  519MOL0     C71552   5.331   5.969   0.287 -0.1125  0.8737  0.1255
  519MOL0     H71553   5.459   6.295   0.570  1.9326 -2.9056 -1.4871
  519MOL0     H71554   5.442   6.538   0.618 -0.5070 -1.7738 -1.8229
  519MOL0     H71555   5.514   6.851   0.645  1.1123  0.3307  1.0382
  519MOL0     H71556   5.458   6.738   0.516 -2.0971  3.7135 -1.1181
  519MOL0     H71557   5.537   6.958   0.424  1.7512  1.1512 -0.7587
  519MOL0     H71558   5.703   6.930   0.484 -0.2953  0.3266  2.8140
  519MOL0     H71559   5.715   6.858   0.265  0.8065 -0.4258  1.7627
  519MOL0     H71560   5.691   6.712   0.349 -0.0924 -0.7298 -0.5430
  519MOL0     H71561   5.453   6.714   0.307 -0.6328  3.3775  3.9167
  519MOL0     H71562   5.440   6.870   0.234 -1.2633 -0.8247  0.2525
  519MOL0     H71563   5.609   6.644   0.116 -0.5406 -0.6033  0.1970
  519MOL0     H71564   5.561   6.797   0.033 -0.1299  0.6920  1.7650
  519MOL0     H71565   5.355   6.595   0.120 -2.2662  2.8241  1.6813
  519MOL0     H71566   5.337   6.737   0.017  0.2296 -0.1445  0.3491
  519MOL0     H71567   5.330   6.559  -0.133  1.4190 -1.7018 -2.5438
  519MOL0     H71568   5.468   6.480  -0.068  0.1693 -0.0162  1.4579
  519MOL0     H71569   5.510   6.762  -0.194 -1.9459 -0.1908 -0.9238
  519MOL0     H71570   5.627   6.651  -0.137  1.8223  0.9916 -3.8898
  519MOL0     H71571   5.611   6.400  -0.295  2.3936  0.1550  0.6127
  519MOL0     H71572   5.600   6.329  -0.658  3.6418 -0.3081 -2.7916
  519MOL0     H71573   5.652   6.266  -0.503  0.3024  0.3336 -0.4127
  519MOL0     H71574   5.791   6.424  -0.711  1.3928 -0.1355 -0.5145
  519MOL0     H71575   5.840   6.452  -0.546  0.6414 -0.8288 -0.7413
  519MOL0     H71576   5.883   6.201  -0.533  0.5432 -0.0618  0.7112
  519MOL0     H71577   5.846   6.191  -0.705 -0.3282 -0.5006  1.4697
  519MOL0     H71578   6.029   6.347  -0.750 -0.7174 -0.6615  0.7570
  519MOL0     H71579   6.087   6.338  -0.577 -0.2873 -1.2874  0.8424
  519MOL0     H71580   6.125   6.193  -0.429  0.1099 -0.2056  0.8049
  519MOL0     H71581   6.166   5.958  -0.169  0.5703  1.8424  1.9231
  519MOL0     H71582   6.000   6.010  -0.220  0.2589  0.0660 -0.5954
  519MOL0     H71583   6.131   6.121  -0.195 -0.8408 -0.5204  3.5177
  519MOL0     H71584   6.302   5.512  -0.280 -0.2176  0.4917 -0.8444
  519MOL0     H71585   6.311   5.292  -0.187  1.4117 -0.5389 -1.5363
  519MOL0     H71586   5.982   5.155  -0.096  0.4279  0.5553  1.7370
  519MOL0     H71587   5.975   4.983  -0.124 -2.4629  1.5126  0.5143
  519MOL0     H71588   6.194   4.948  -0.006 -0.9184 -0.5288 -2.6049
  519MOL0     H71589   6.208   5.117   0.025 -1.4291  1.2607  0.4197
  519MOL0     H71590   5.965   4.957   0.126  1.7187 -1.6898 -0.7746
  519MOL0     H71591   6.017   5.128   0.169 -2.6146 -0.4716  3.0298
  519MOL0     H71592   6.090   5.017   0.345 -1.2841  0.5540 -1.1956
  519MOL0     H71593   6.236   5.038   0.246 -0.1250 -0.1545 -3.3065
  519MOL0     H71594   6.107   4.776   0.292  0.8406 -2.2097  0.2788
  519MOL0     H71595   6.235   4.797   0.176 -1.4680 -3.3419  0.3057
  519MOL0     H71596   6.252   4.858   0.474 -1.4679 -1.9339 -0.6589
  519MOL0     H71597   6.378   4.900   0.369  1.3932 -1.1342 -0.1975
  519MOL0     H71598   6.435   4.685   0.479 -5.0996 -2.1647  2.6312
  519MOL0     H71599   6.445   4.676   0.310 -0.6622 -0.9499  0.3068
  519MOL0     H71600   6.175   4.586   0.407  0.1565  0.6273  1.8904
  519MOL0     H71601   6.309   4.498   0.476  0.6860 -0.4144 -0.5011
  519MOL0     H71602   5.928   5.194  -0.351  3.4657 -4.0419  3.1738
  519MOL0     H71603   5.897   5.434  -0.417 -1.3755 -0.5643  0.7534
  519MOL0     H71604   6.142   5.733  -0.620 -2.9737 -0.0818 -0.6144
  519MOL0     H71605   6.117   5.931  -0.767 -0.9398  1.8720  0.4071
  519MOL0     H71606   5.832   6.599   0.477  1.1205 -0.0390  2.6577
  519MOL0     H71607   5.862   6.353   0.431 -2.0120 -0.0249 -1.8215
  519MOL0     H71608   5.749   5.935   0.504 -1.5787  1.2340 -0.3594
  519MOL0     H71609   5.690   5.686   0.568 -0.9498 -0.2824  0.4461
  519MOL0     H71610   5.302   5.606   0.541  3.7303  1.6109  0.1601
  519MOL0     H71611   5.315   5.461   0.443 -1.4605 -0.2494  1.2149
  519MOL0     H71612   5.426   5.337   0.643 -0.2505  0.3913 -2.0422
  519MOL0     H71613   5.253   5.369   0.658 -0.0636 -0.7890 -2.1358
  519MOL0     H71614   5.429   5.450   0.855  1.1623  1.5385  0.3392
  519MOL0     H71615   5.452   5.586   0.753  0.3436  0.1623  1.2589
  519MOL0     H71616   5.179   5.485   0.851 -1.2778  3.3469  2.1717
  519MOL0     H71617   5.204   5.607   0.724  1.1672  0.5630 -0.8891
  519MOL0     H71618   5.343   5.797   1.088  1.2503  0.7012 -1.2351
  519MOL0     H71619   5.330   5.721   0.367 -0.8239  0.7353 -0.7191
  519MOL0     H71620   5.281   6.044   0.350 -0.5037  1.9633 -1.3993
  519MOL0     H71621   5.375   6.018   0.199 -0.6057  0.3813 -0.4049
  519MOL0     H71622   5.256   5.902   0.244  0.8814 -2.5333  3.2315
  520MOL0     O71623   5.532   5.804   8.462 -0.1620  0.4561  0.2132
  520MOL0     C71624   5.475   5.705   8.514 -0.8070 -0.7142 -0.6484
  520MOL0     O71625   5.373   5.704   8.594 -0.4296  1.1167 -0.6129
  520MOL0     C71626   5.271   5.790   8.596  0.2529  0.5275  1.0760
  520MOL0     C71627   5.166   5.756   8.687 -0.1763 -0.4704 -0.3767
  520MOL0     C71628   5.037   5.820   8.675  0.3970  1.1136 -0.3431
  520MOL0     C71629   5.009   5.901   8.567 -0.1141  0.5820 -0.1596
  520MOL0     O71630   4.877   5.935   8.558  0.5212 -0.8356 -0.6787
  520MOL0     C71631   4.839   6.052   8.495  0.2018 -1.1138  0.4408
  520MOL0     C71632   4.753   6.138   8.596 -0.7611  0.1099 -0.5463
  520MOL0     C71633   4.628   6.065   8.650  0.5121  0.5060  0.6801
  520MOL0     C71634   4.534   6.020   8.545 -0.2425  0.5003 -0.1630
  520MOL0     C71635   4.406   6.097   8.566  0.3075  0.3644  0.2349
  520MOL0     C71636   4.300   6.071   8.472  0.6911 -0.8119 -0.1416
  520MOL0     C71637   4.225   5.939   8.504 -0.8121 -0.5641  0.0714
  520MOL0     C71638   4.114   5.924   8.398  0.6733 -0.3924  0.2697
  520MOL0     N71639   4.035   5.808   8.428  0.7104  0.0475  0.0814
  520MOL0     C71640   3.920   5.800   8.502  0.2012  0.1340 -0.1663
  520MOL0     C71641   3.863   5.684   8.483  0.7623  0.2023 -0.2574
  520MOL0     C71642   3.735   5.638   8.553 -1.0174  1.0137 -0.1050
  520MOL0     C71643   3.616   5.626   8.463  0.5826  0.0207  0.4307
  520MOL0     C71644   3.483   5.631   8.540  0.3463  1.6824 -1.6717
  520MOL0     C71645   3.375   5.522   8.491 -0.4992 -1.0411  0.2509
  520MOL0     O71646   3.420   5.397   8.531  0.0209 -1.1627  0.6276
  520MOL0     C71647   3.311   5.312   8.543 -0.6754  0.8553 -0.3726
  520MOL0     C71648   3.343   5.186   8.600 -0.6872 -0.1319 -0.5323
  520MOL0     C71649   3.266   5.067   8.612 -0.7512 -0.3245  1.0510
  520MOL0     C71650   3.311   4.961   8.707  0.1797  0.5112 -0.6111
  520MOL0     C71651   3.128   5.084   8.568  0.0891 -0.2286 -0.0061
  520MOL0     C71652   3.028   4.970   8.574 -0.8879 -0.2333  0.5166
  520MOL0     O71653   2.900   4.989   8.561 -0.1405  0.2096 -1.0151
  520MOL0     C71654   2.817   4.880   8.547 -0.1428 -0.0608  0.3205
  520MOL0     C71655   2.767   4.826   8.429 -0.2061 -0.2013 -0.0038
  520MOL0     C71656   2.671   4.725   8.414  0.2076  0.6253  0.0548
  520MOL0     C71657   2.637   4.656   8.532  0.3055  0.0274 -0.1981
  520MOL0     O71658   2.537   4.565   8.555  0.3708 -0.3053  0.3711
  520MOL0     C71659   2.471   4.510   8.434 -0.7468  0.3172 -0.0040
  520MOL0     C71660   2.428   4.367   8.469 -0.3650  1.3259 -0.0588
  520MOL0     C71661   2.550   4.279   8.502 -0.0446 -0.5386  0.2490
  520MOL0     C71662   2.502   4.152   8.569 -0.2144  0.1113 -0.2247
  520MOL0     C71663   2.440   4.046   8.476 -0.0063  0.6276 -0.5029
  520MOL0     C71664   2.543   3.998   8.379  0.3825 -0.0782 -0.6601
  520MOL0     C71665   2.508   3.876   8.288  0.1887 -0.1537 -0.3247
  520MOL0     C71666   2.632   3.818   8.213  0.1790 -0.7857  0.1094
  520MOL0    Cl71667   2.675   3.952   8.102  0.3730 -0.2831 -0.0379
  520MOL0     C71668   2.689   4.697   8.655 -0.2235 -0.0518  0.2421
  520MOL0     C71669   2.774   4.809   8.659 -1.0022  0.1685 -1.0625
  520MOL0     O71670   3.077   4.859   8.590 -0.3694  0.1531 -0.2156
  520MOL0     C71671   3.084   5.205   8.508  0.2247 -0.1072 -0.5579
  520MOL0     C71672   3.176   5.321   8.492 -0.7873  0.0733  0.7207
  520MOL0     N71673   3.951   5.610   8.408  0.6515  0.7990 -0.7087
  520MOL0     N71674   4.047   5.687   8.375 -0.9097 -0.1364  0.5662
  520MOL0     C71675   5.112   5.932   8.481 -0.4827 -0.7854 -0.1171
  520MOL0     C71676   5.243   5.880   8.489 -1.3906  0.9491 -0.4707
  520MOL0     C71677   5.534   5.564   8.495  0.4242  0.4645  0.3105
  520MOL0     C71678   5.437   5.458   8.496  1.1881 -0.3345 -0.9582
  520MOL0     C71679   5.480   5.327   8.483  0.2955 -0.5847  0.8970
  520MOL0     C71680   5.616   5.303   8.450 -1.1330  0.5551  0.1365
  520MOL0     O71681   5.675   5.176   8.429 -0.6968  0.7872  0.0094
  520MOL0     C71682   5.583   5.059   8.443 -0.0070 -0.4131 -0.2800
  520MOL0     C71683   5.650   4.920   8.401  0.5796  0.5876  0.4500
  520MOL0     C71684   5.751   4.870   8.502 -0.0129  0.4306  0.2352
  520MOL0     C71685   5.830   4.737   8.447  0.4780 -0.3009 -0.9409
  520MOL0     C71686   5.926   4.694   8.548 -0.3768 -0.2548  0.0746
  520MOL0     C71687   5.999   4.651   8.633  0.5926 -0.0635  0.4257
  520MOL0     C71688   5.697   5.405   8.449 -0.6168  0.4744  0.3255
  520MOL0     C71689   5.665   5.535   8.471 -0.2826 -0.0095 -0.1557
  520MOL0     C71690   5.779   5.645   8.478  0.1298 -0.3570 -0.2940
  520MOL0     H71691   5.176   5.685   8.768 -1.4868  0.7692  0.9285
  520MOL0     H71692   4.960   5.794   8.747  0.7755 -3.2761 -1.2088
  520MOL0     H71693   4.775   6.033   8.408  2.6561  1.3191 -2.0834
  520MOL0     H71694   4.918   6.108   8.445 -1.5458  1.3410  0.2556
  520MOL0     H71695   4.819   6.178   8.673 -1.5524  2.1864 -0.8881
  520MOL0     H71696   4.714   6.225   8.542  2.2907  2.3124  0.5192
  520MOL0     H71697   4.661   5.979   8.708 -1.0308  0.2829  1.2728
  520MOL0     H71698   4.576   6.132   8.719 -1.8455  0.8031 -1.2508
  520MOL0     H71699   4.563   6.024   8.440 -2.0030 -1.7937 -0.8316
  520MOL0     H71700   4.516   5.912   8.556 -0.3435  0.5096 -0.2364
  520MOL0     H71701   4.429   6.204   8.572  1.2999  0.1063  3.9176
  520MOL0     H71702   4.366   6.071   8.665 -1.7407  1.6217 -0.2123
  520MOL0     H71703   4.225   6.150   8.473  2.9344  1.5903 -3.1686
  520MOL0     H71704   4.341   6.066   8.371  2.5220 -2.6124  0.6129
  520MOL0     H71705   4.172   5.956   8.598  1.8858  1.8893  1.2761
  520MOL0     H71706   4.289   5.850   8.505  0.1588  0.0350 -2.1868
  520MOL0     H71707   4.055   6.016   8.408 -0.1145 -0.8068 -0.4603
  520MOL0     H71708   4.144   5.917   8.293  2.8906  1.1261  0.7260
  520MOL0     H71709   3.881   5.875   8.570 -3.1742 -2.7082  1.3500
  520MOL0     H71710   3.726   5.724   8.620  2.5993  2.4671 -1.2500
  520MOL0     H71711   3.749   5.541   8.602  1.0662  2.3358  2.0989
  520MOL0     H71712   3.614   5.717   8.402 -0.3227  0.4402  1.0640
  520MOL0     H71713   3.633   5.547   8.390  0.8910 -0.2584  0.8039
  520MOL0     H71714   3.499   5.596   8.643  0.2474 -2.3763 -2.8284
  520MOL0     H71715   3.439   5.730   8.528  1.0356  1.9551 -1.9598
  520MOL0     H71716   3.287   5.560   8.543  1.3888  1.1944  1.9854
  520MOL0     H71717   3.371   5.524   8.382  4.9576 -1.0650 -0.2045
  520MOL0     H71718   3.442   5.187   8.645  0.2232 -0.5047 -2.4439
  520MOL0     H71719   3.299   4.865   8.656  3.1573 -0.6318  0.5811
  520MOL0     H71720   3.248   4.966   8.796 -0.8835 -1.8828 -1.1310
  520MOL0     H71721   3.412   4.962   8.748 -0.0191 -3.8517  0.5497
  520MOL0     H71722   2.812   4.856   8.335  4.2028  1.0163  2.1989
  520MOL0     H71723   2.632   4.693   8.318  1.0005 -0.7052  0.1507
  520MOL0     H71724   2.386   4.569   8.398 -3.4104 -3.3134 -0.2383
  520MOL0     H71725   2.540   4.505   8.350 -1.9891  0.1189 -1.0563
  520MOL0     H71726   2.362   4.370   8.556  0.0732  1.7174  0.2651
  520MOL0     H71727   2.377   4.314   8.388  1.2595  0.1459 -0.3738
  520MOL0     H71728   2.596   4.341   8.579  0.2617 -1.1548  0.5658
  520MOL0     H71729   2.618   4.257   8.420  1.2212 -1.1134  1.4158
  520MOL0     H71730   2.424   4.185   8.638  0.4862  0.6942  0.2984
  520MOL0     H71731   2.583   4.111   8.629 -0.4474  0.4237  0.3094
  520MOL0     H71732   2.409   3.968   8.546 -0.0233  0.8792 -0.2267
  520MOL0     H71733   2.347   4.089   8.436 -0.2080 -0.3870 -1.1600
  520MOL0     H71734   2.636   3.979   8.434 -0.3094  1.0153  0.9742
  520MOL0     H71735   2.559   4.086   8.317  1.6947  2.1971  2.6012
  520MOL0     H71736   2.436   3.911   8.213  1.2601  2.2549 -0.3296
  520MOL0     H71737   2.460   3.795   8.343 -1.7041  0.2581 -1.2894
  520MOL0     H71738   2.587   3.730   8.165  0.0469 -0.9175  0.4746
  520MOL0     H71739   2.720   3.796   8.274  0.5185  2.2785  0.8975
  520MOL0     H71740   2.654   4.652   8.748 -1.4402  2.1580  0.9272
  520MOL0     H71741   2.822   4.830   8.754  3.6406 -2.5749 -2.4636
  520MOL0     H71742   2.976   5.205   8.494 -0.0549 -2.8370  0.7782
  520MOL0     H71743   3.149   5.418   8.453  1.7202  0.5745  0.0446
  520MOL0     H71744   5.085   5.990   8.394 -2.1313 -1.2725  0.0189
  520MOL0     H71745   5.308   5.923   8.413 -1.2106  0.9808 -0.3032
  520MOL0     H71746   5.335   5.475   8.530  0.6235  1.4045 -3.2749
  520MOL0     H71747   5.403   5.250   8.487 -0.7013  0.2978 -0.3828
  520MOL0     H71748   5.551   5.055   8.547  0.5994  0.2009 -0.0597
  520MOL0     H71749   5.498   5.066   8.375 -3.2637 -4.3314  2.9415
  520MOL0     H71750   5.701   4.948   8.309  0.7797 -1.4844 -0.1329
  520MOL0     H71751   5.576   4.848   8.362  1.7040 -0.8538  0.8799
  520MOL0     H71752   5.821   4.949   8.532  0.6833  1.0208 -2.5921
  520MOL0     H71753   5.694   4.853   8.594  0.2415 -1.8800  0.0221
  520MOL0     H71754   5.883   4.771   8.359  1.7392 -1.9452 -0.8564
  520MOL0     H71755   5.755   4.659   8.426 -1.2835  0.6115  1.4371
  520MOL0     H71756   6.069   4.595   8.691  1.2135 -2.6625 -2.5975
  520MOL0     H71757   5.800   5.379   8.426 -0.8048 -0.7488  0.7877
  520MOL0     H71758   5.789   5.703   8.386 -1.4371  0.1013 -0.2164
  520MOL0     H71759   5.755   5.722   8.553  1.9972  1.7141 -1.6907
  520MOL0     H71760   5.879   5.603   8.486  1.0870  1.6993 -0.6984
  521MOL0     O71761   5.087   9.073   0.304  0.6014  0.0356 -0.0904
  521MOL0     C71762   5.115   9.010   0.207 -0.7209  0.1761  0.5275
  521MOL0     O71763   5.120   8.872   0.196  0.5992 -1.1565 -0.8229
  521MOL0     C71764   5.073   8.786   0.294  0.1471  0.0095 -0.6166
  521MOL0     C71765   5.163   8.733   0.393 -0.2825  0.3720 -1.2607
  521MOL0     C71766   5.115   8.645   0.485  0.5846  0.0838 -0.4178
  521MOL0     C71767   4.977   8.605   0.487 -0.6325  0.0493 -0.3938
  521MOL0     O71768   4.936   8.516   0.577  0.3544  0.0744 -0.3165
  521MOL0     C71769   4.882   8.585   0.691  0.5707  0.5080 -0.1629
  521MOL0     C71770   4.831   8.489   0.804 -0.7311 -0.1455  1.7249
  521MOL0     C71771   4.715   8.402   0.757  0.5824  0.0306 -0.2741
  521MOL0     C71772   4.624   8.410   0.880  0.3280 -0.7731  0.2452
  521MOL0     C71773   4.494   8.335   0.861  0.2626  0.2642  0.6985
  521MOL0     C71774   4.387   8.339   0.974  0.2405  0.3898  0.7977
  521MOL0     C71775   4.431   8.295   1.109  0.0630  0.6878  0.1073
  521MOL0     C71776   4.471   8.152   1.118  0.2368  0.0436 -0.5513
  521MOL0     N71777   4.461   8.095   1.252  0.5298  0.2376 -0.3872
  521MOL0     C71778   4.345   8.072   1.319 -0.2851 -0.6422 -0.5745
  521MOL0     C71779   4.389   8.024   1.436 -1.0909 -0.8314  0.4414
  521MOL0     C71780   4.312   7.981   1.551 -0.7025 -1.0404  0.0616
  521MOL0     C71781   4.172   7.924   1.511  0.2881  0.1880 -0.5810
  521MOL0     C71782   4.178   7.808   1.407 -0.1406 -0.0060  0.6613
  521MOL0     C71783   4.052   7.737   1.361 -0.8275  0.3043 -0.3458
  521MOL0     O71784   4.008   7.677   1.478 -0.0158  1.5216  0.6248
  521MOL0     C71785   3.932   7.566   1.444 -0.4693 -0.0327  0.0759
  521MOL0     C71786   3.978   7.432   1.458 -0.0419 -0.0368  0.4852
  521MOL0     C71787   3.908   7.320   1.411 -0.8157 -0.5717  0.0610
  521MOL0     C71788   3.975   7.190   1.428 -0.5839  0.4315  0.0467
  521MOL0     C71789   3.773   7.338   1.363  1.0521 -0.1204 -0.4513
  521MOL0     C71790   3.677   7.217   1.351 -1.1738 -0.2703  0.0382
  521MOL0     O71791   3.557   7.239   1.294  0.2634 -0.5552 -0.1251
  521MOL0     C71792   3.484   7.137   1.254 -0.1660 -0.3161 -0.1023
  521MOL0     C71793   3.484   7.111   1.116  0.7719 -0.3904 -0.5982
  521MOL0     C71794   3.392   7.016   1.068 -0.4262  0.6980  1.2894
  521MOL0     C71795   3.306   6.950   1.156 -0.1540 -0.3448  0.5985
  521MOL0     O71796   3.210   6.873   1.095 -0.2368 -0.1932  1.0985
  521MOL0     C71797   3.260   6.735   1.088  0.5802 -0.2891 -0.1496
  521MOL0     C71798   3.152   6.618   1.083 -0.8609  0.1079 -0.9035
  521MOL0     C71799   3.025   6.647   1.169 -0.6522  0.1175 -0.5275
  521MOL0     C71800   3.054   6.624   1.322  0.4513 -1.0886  0.0812
  521MOL0     C71801   2.961   6.713   1.405 -0.0226 -0.0871  0.1496
  521MOL0     C71802   3.038   6.765   1.525 -0.1282  0.2353 -0.8865
  521MOL0     C71803   2.965   6.890   1.589 -0.7733  0.1695 -0.5804
  521MOL0     C71804   3.058   6.981   1.659 -0.6268  1.0543 -0.0071
  521MOL0    Cl71805   3.125   7.103   1.550 -0.1993  0.2396  0.6999
  521MOL0     C71806   3.302   6.986   1.290 -0.3216 -0.5802 -0.3262
  521MOL0     C71807   3.404   7.066   1.338  0.8320  0.2766  0.6899
  521MOL0     O71808   3.706   7.123   1.420 -0.0357 -0.3882 -0.9274
  521MOL0     C71809   3.732   7.467   1.336  0.3082  0.9863 -0.1361
  521MOL0     C71810   3.808   7.578   1.379  0.2370  0.1405 -0.2413
  521MOL0     N71811   4.528   8.040   1.437 -0.2148  0.4755 -0.7976
  521MOL0     N71812   4.570   8.069   1.326  0.4847  0.1253 -0.4919
  521MOL0     C71813   4.898   8.649   0.386  0.6489  0.1896 -0.3771
  521MOL0     C71814   4.939   8.742   0.292 -0.7275  0.1620  0.4493
  521MOL0     C71815   5.167   9.092   0.094  0.4143 -0.7898 -0.1048
  521MOL0     C71816   5.119   9.233   0.091 -0.5659 -0.0281  0.1354
  521MOL0     C71817   5.155   9.320  -0.011 -0.2191  0.6606  1.2514
  521MOL0     C71818   5.222   9.268  -0.124  0.0574  0.1201 -0.6554
  521MOL0     O71819   5.265   9.343  -0.230  0.0265  0.2564 -0.8355
  521MOL0     C71820   5.229   9.476  -0.253  0.4868 -0.0509 -0.8414
  521MOL0     C71821   5.070   9.478  -0.278 -0.6564 -0.3347  0.9208
  521MOL0     C71822   5.016   9.609  -0.231  0.2694 -1.1098 -0.7922
  521MOL0     C71823   5.033   9.728  -0.322 -0.2552 -0.1907 -0.8550
  521MOL0     C71824   5.003   9.706  -0.467 -0.0523  0.7769  0.4432
  521MOL0     C71825   4.992   9.675  -0.580 -0.3950  0.1064  0.1360
  521MOL0     C71826   5.263   9.139  -0.121 -0.8358 -0.5783 -0.2555
  521MOL0     C71827   5.241   9.047  -0.017  0.3405  1.5499  0.0098
  521MOL0     C71828   5.314   8.925  -0.017 -0.5535  0.1421 -0.6342
  521MOL0     H71829   5.270   8.748   0.404 -0.0854 -1.6088 -0.1157
  521MOL0     H71830   5.182   8.588   0.548  0.0229 -0.1922 -0.0648
  521MOL0     H71831   4.795   8.642   0.656  1.5679  1.0179 -1.9461
  521MOL0     H71832   4.953   8.656   0.735 -0.8410  1.0042  1.4165
  521MOL0     H71833   4.915   8.423   0.828 -0.9281 -1.3237 -0.5367
  521MOL0     H71834   4.813   8.542   0.898 -4.3730 -2.9400  2.8327
  521MOL0     H71835   4.669   8.453   0.672  2.7196  1.6214 -0.5622
  521MOL0     H71836   4.747   8.297   0.750  2.8147  0.7315 -1.2892
  521MOL0     H71837   4.668   8.367   0.970 -3.1098 -0.4826  2.2210
  521MOL0     H71838   4.600   8.516   0.892  4.7912  0.4587  0.0074
  521MOL0     H71839   4.528   8.231   0.847  1.4135  0.8224 -0.9324
  521MOL0     H71840   4.443   8.371   0.771  2.0500 -0.7550 -0.7907
  521MOL0     H71841   4.358   8.444   0.969  0.8495  0.5734 -4.1239
  521MOL0     H71842   4.300   8.280   0.942 -1.0808  2.8405 -0.4710
  521MOL0     H71843   4.353   8.319   1.182  1.9585  2.4232  1.6535
  521MOL0     H71844   4.515   8.358   1.140  0.8652 -1.6702  3.1797
  521MOL0     H71845   4.404   8.093   1.053  1.1916 -2.3756  0.5314
  521MOL0     H71846   4.576   8.149   1.089  2.0056  1.6592  4.6144
  521MOL0     H71847   4.243   8.082   1.284 -0.8321 -0.6271  0.9458
  521MOL0     H71848   4.315   8.058   1.628  1.4566 -1.5962  0.6179
  521MOL0     H71849   4.367   7.909   1.613  1.1164  2.1437  2.4576
  521MOL0     H71850   4.117   7.897   1.602  4.0777  0.4560  2.0475
  521MOL0     H71851   4.119   8.010   1.468 -0.2986  0.2040  0.1484
  521MOL0     H71852   4.214   7.856   1.316 -2.2116 -2.3782 -1.5534
  521MOL0     H71853   4.255   7.739   1.444 -2.2294 -3.4769 -0.9201
  521MOL0     H71854   3.984   7.806   1.311 -2.2304 -0.4401  0.4962
  521MOL0     H71855   4.089   7.669   1.283  0.8337  0.7366  0.0197
  521MOL0     H71856   4.077   7.432   1.504 -1.0069 -0.7075  2.7052
  521MOL0     H71857   3.957   7.124   1.343 -0.7642  1.8484 -1.0560
  521MOL0     H71858   3.938   7.143   1.519 -0.9570 -0.2471 -0.4442
  521MOL0     H71859   4.083   7.202   1.437 -0.2369  0.3666 -3.0149
  521MOL0     H71860   3.545   7.165   1.045 -0.3077 -0.4501 -1.6024
  521MOL0     H71861   3.383   7.010   0.960  2.0406  2.3241  0.9346
  521MOL0     H71862   3.331   6.728   1.005 -1.5676 -2.8406 -1.9192
  521MOL0     H71863   3.313   6.706   1.179  0.3247 -0.5912 -0.0953
  521MOL0     H71864   3.116   6.611   0.980 -1.8003  1.8350 -0.7370
  521MOL0     H71865   3.207   6.529   1.115  1.8438  1.5894 -1.1421
  521MOL0     H71866   2.947   6.581   1.132  0.7551 -1.0533 -1.5074
  521MOL0     H71867   2.987   6.749   1.166 -3.8969 -0.7529  2.9309
  521MOL0     H71868   3.158   6.656   1.333  1.0957 -3.2937  0.8808
  521MOL0     H71869   3.049   6.522   1.360 -1.1166 -0.1589  2.6200
  521MOL0     H71870   2.925   6.804   1.355  0.0528  1.5488  2.8426
  521MOL0     H71871   2.873   6.657   1.438 -0.0795 -1.1201 -1.6531
  521MOL0     H71872   3.144   6.778   1.502 -0.0351 -1.0882 -1.2594
  521MOL0     H71873   3.047   6.688   1.601 -1.6159 -0.6189 -1.5232
  521MOL0     H71874   2.892   6.861   1.665  0.4468  0.5484  0.7949
  521MOL0     H71875   2.899   6.934   1.514 -2.6198 -2.3297 -0.5484
  521MOL0     H71876   3.132   6.912   1.700  1.3240  2.5732 -0.8007
  521MOL0     H71877   3.016   7.024   1.750 -0.2834 -2.1492  1.7703
  521MOL0     H71878   3.253   6.934   1.371  3.5146 -0.1728  2.5147
  521MOL0     H71879   3.406   7.076   1.446 -2.5840  0.8104  0.7922
  521MOL0     H71880   3.637   7.472   1.283  1.1783  0.2531 -1.8658
  521MOL0     H71881   3.776   7.678   1.351  1.9321  1.5802  2.4431
  521MOL0     H71882   4.791   8.633   0.393  1.0035 -2.2078  0.1800
  521MOL0     H71883   4.870   8.774   0.215  0.1566  0.6822 -0.1521
  521MOL0     H71884   5.075   9.281   0.178  1.2580  0.2595  0.9352
  521MOL0     H71885   5.123   9.422   0.008 -1.8819  0.2394  0.8919
  521MOL0     H71886   5.256   9.533  -0.163  3.0648  2.8317 -3.1780
  521MOL0     H71887   5.290   9.517  -0.333  3.7079 -0.7759  1.0529
  521MOL0     H71888   5.021   9.393  -0.231 -2.0236 -1.2510 -1.9443
  521MOL0     H71889   5.062   9.465  -0.386 -0.9190 -0.0452  0.9068
  521MOL0     H71890   4.910   9.586  -0.216  0.7483 -3.6881 -0.9336
  521MOL0     H71891   5.056   9.633  -0.133 -3.7839 -4.2855  1.9808
  521MOL0     H71892   5.135   9.762  -0.301 -1.3871  1.6914  2.3295
  521MOL0     H71893   4.967   9.801  -0.273 -2.8516 -1.2191 -2.5775
  521MOL0     H71894   4.992   9.663  -0.687  0.5560 -0.1095  0.1532
  521MOL0     H71895   5.329   9.102  -0.200 -1.6230 -0.3048 -1.0551
  521MOL0     H71896   5.244   8.845  -0.044  0.9579 -0.8162 -1.9381
  521MOL0     H71897   5.386   8.915  -0.100 -3.7054 -2.3972 -3.3551
  521MOL0     H71898   5.369   8.906   0.076 -0.7680  1.1857 -0.2822
  522MOL0     O71899  10.385   6.899   4.172  0.3554  0.3732  0.3116
  522MOL0     C71900  10.429   7.012   4.179  0.7547 -0.5662 -0.1733
  522MOL0     O71901  10.359   7.114   4.240 -0.2974 -0.0936 -0.1341
  522MOL0     C71902  10.280   7.075   4.351  0.0529 -0.6857  0.9096
  522MOL0     C71903  10.342   7.021   4.459 -0.0081  0.2554  1.3788
  522MOL0     C71904  10.270   6.997   4.567  0.2713 -0.0814  0.1969
  522MOL0     C71905  10.134   7.016   4.585 -0.2604  0.3295  0.3972
  522MOL0     O71906  10.079   6.982   4.704 -0.0299  0.5498 -1.7200
  522MOL0     C71907  10.020   7.095   4.778 -0.8776 -0.6417  0.7691
  522MOL0     C71908  10.131   7.174   4.858  0.5043 -0.4736  0.2892
  522MOL0     C71909  10.189   7.082   4.964 -0.9205 -0.1941 -0.2140
  522MOL0     C71910  10.301   7.148   5.052  0.0755  0.7515 -1.1581
  522MOL0     C71911  10.380   7.033   5.122  0.6256  0.3195  0.4125
  522MOL0     C71912  10.478   7.060   5.233 -0.0526 -0.9148 -0.3037
  522MOL0     C71913  10.603   7.147   5.183 -0.5800  0.2626 -0.3979
  522MOL0     C71914  10.707   7.191   5.281 -1.1912 -0.1163 -1.0605
  522MOL0     N71915  10.830   7.236   5.213  0.9964 -0.2666  0.2339
  522MOL0     C71916  10.890   7.174   5.109  0.5092 -0.2007  0.5089
  522MOL0     C71917  10.986   7.256   5.064 -0.3332 -0.3339 -0.2851
  522MOL0     C71918  11.079   7.218   4.953 -0.0953  0.4567 -0.4297
  522MOL0     C71919  11.079   7.326   4.839 -1.1660 -0.2492 -0.8177
  522MOL0     C71920  11.180   7.297   4.724  0.6009 -0.2553 -0.9102
  522MOL0     C71921  11.320   7.324   4.769  0.1629  0.2569 -0.2354
  522MOL0     O71922  11.334   7.431   4.862  0.3891 -0.8378  0.0551
  522MOL0     C71923  11.446   7.427   4.944  0.4992  0.9373 -0.1913
  522MOL0     C71924  11.549   7.519   4.935 -0.4175 -0.3060  0.6474
  522MOL0     C71925  11.671   7.501   5.002 -0.4888 -1.0634 -0.6153
  522MOL0     C71926  11.784   7.593   4.951  1.2057  0.5705  0.3882
  522MOL0     C71927  11.680   7.410   5.108 -0.4237  0.2359 -0.2209
  522MOL0     C71928  11.806   7.374   5.176 -0.4796 -0.1595  0.7631
  522MOL0     O71929  11.899   7.464   5.198  0.2376  0.1252 -0.3958
  522MOL0     C71930  12.008   7.424   5.275  0.0054 -0.2433 -0.0166
  522MOL0     C71931  12.041   7.472   5.401 -1.3786 -0.4690 -0.2234
  522MOL0     C71932  12.154   7.437   5.465  0.0962  0.1121  0.4215
  522MOL0     C71933  12.236   7.343   5.422 -0.5254 -0.4287  0.0048
  522MOL0     O71934  12.354   7.306   5.488  0.3131  0.6495 -0.2947
  522MOL0     C71935  12.371   7.164   5.503  0.6981  0.4923  0.1757
  522MOL0     C71936  12.495   7.134   5.573 -0.6318  0.6285 -1.1993
  522MOL0     C71937  12.620   7.183   5.505 -0.1918 -0.8817  0.7905
  522MOL0     C71938  12.747   7.096   5.540 -0.1809 -0.6068  0.3420
  522MOL0     C71939  12.730   6.952   5.499  0.3585  0.4622  0.5320
  522MOL0     C71940  12.860   6.881   5.468  0.2639 -0.0664 -0.6221
  522MOL0     C71941  12.853   6.724   5.465 -0.6356 -0.8903 -0.2574
  522MOL0     C71942  12.785   6.678   5.336  0.9471 -0.5479  1.0073
  522MOL0    Cl71943  12.898   6.698   5.198 -0.0204  0.0078  0.4093
  522MOL0     C71944  12.216   7.286   5.293 -0.2280  0.7502  0.1646
  522MOL0     C71945  12.102   7.335   5.226 -0.3437 -1.0947  1.0063
  522MOL0     O71946  11.823   7.252   5.201  1.1037 -0.1538 -0.2088
  522MOL0     C71947  11.565   7.332   5.135  0.0895  0.3283  0.3545
  522MOL0     C71948  11.461   7.335   5.044  0.2302  1.0957 -0.6711
  522MOL0     N71949  10.983   7.372   5.143  0.3890 -0.1929 -0.4848
  522MOL0     N71950  10.888   7.363   5.233  0.0181  0.0002 -0.2191
  522MOL0     C71951  10.067   7.057   4.463  0.5801 -0.8267 -0.0115
  522MOL0     C71952  10.137   7.075   4.350  0.2668  0.0968 -0.0476
  522MOL0     C71953  10.561   7.041   4.111 -0.6378 -0.3238  0.2683
  522MOL0     C71954  10.597   6.968   3.999  0.7993 -0.0189 -0.2876
  522MOL0     C71955  10.710   6.994   3.932  0.1223 -0.0165  0.2795
  522MOL0     C71956  10.792   7.102   3.957  0.0800 -0.4790  0.9378
  522MOL0     O71957  10.890   7.112   3.862 -0.7256 -0.1142 -0.0841
  522MOL0     C71958  10.955   7.238   3.852  0.2760 -0.2485 -0.2820
  522MOL0     C71959  10.983   7.266   3.706 -0.4359 -0.5990  0.0315
  522MOL0     C71960  11.045   7.139   3.632  0.2728 -0.1988 -0.3981
  522MOL0     C71961  11.086   7.187   3.496 -0.2807  0.1143 -0.8556
  522MOL0     C71962  11.143   7.068   3.426  0.3221  0.0037 -0.7528
  522MOL0     C71963  11.201   6.989   3.355  0.6980  0.3222 -0.1808
  522MOL0     C71964  10.756   7.180   4.068 -0.4525 -0.5345 -0.3934
  522MOL0     C71965  10.633   7.155   4.143 -0.3598 -0.7251 -0.2820
  522MOL0     C71966  10.615   7.245   4.269  0.8688  0.6307  1.0153
  522MOL0     H71967  10.450   7.007   4.455 -0.1033 -0.2965 -0.7674
  522MOL0     H71968  10.324   6.983   4.660  1.5539  1.5217 -0.2458
  522MOL0     H71969   9.938   7.063   4.844 -0.6787  2.2813  2.6134
  522MOL0     H71970   9.987   7.168   4.704 -0.6428 -1.6384 -0.3397
  522MOL0     H71971  10.212   7.203   4.790  0.8682 -2.9151 -0.4038
  522MOL0     H71972  10.081   7.254   4.914 -0.3339 -1.1234  0.4911
  522MOL0     H71973  10.110   7.053   5.033 -2.5950  3.8770 -0.1343
  522MOL0     H71974  10.237   6.995   4.917  0.1331 -0.0839  0.6408
  522MOL0     H71975  10.364   7.214   4.992  4.4048 -0.3312  1.6722
  522MOL0     H71976  10.256   7.215   5.126 -0.7596  0.5813 -1.5136
  522MOL0     H71977  10.436   6.975   5.047 -1.9670 -1.7515 -0.0688
  522MOL0     H71978  10.315   6.961   5.173  4.4271 -0.4314  4.9228
  522MOL0     H71979  10.419   7.111   5.309 -1.8569 -1.3320 -1.3554
  522MOL0     H71980  10.519   6.970   5.280 -0.5042  0.0453  2.0699
  522MOL0     H71981  10.567   7.239   5.136 -0.5435 -0.3970 -1.7606
  522MOL0     H71982  10.654   7.091   5.103 -2.3604 -1.3001 -0.5003
  522MOL0     H71983  10.660   7.264   5.348  0.3867  0.6851 -0.7855
  522MOL0     H71984  10.741   7.112   5.349  4.1462  1.3204 -1.6185
  522MOL0     H71985  10.869   7.076   5.068  2.3773  0.8628 -3.4595
  522MOL0     H71986  11.064   7.113   4.927  2.2982 -0.8210  2.7069
  522MOL0     H71987  11.176   7.219   5.005 -1.5599  0.3721  2.4989
  522MOL0     H71988  10.977   7.333   4.800 -0.5822 -1.2675 -2.6032
  522MOL0     H71989  11.097   7.429   4.873  3.7875 -1.0599 -0.1932
  522MOL0     H71990  11.172   7.194   4.689 -0.8764 -0.8049  0.8712
  522MOL0     H71991  11.156   7.374   4.651  4.0086  2.8713  0.9035
  522MOL0     H71992  11.355   7.233   4.819 -1.6255  0.3236  1.2480
  522MOL0     H71993  11.390   7.339   4.686  0.1797 -2.2110 -0.7480
  522MOL0     H71994  11.528   7.604   4.870 -2.4440 -1.5996 -0.4856
  522MOL0     H71995  11.769   7.638   4.852 -2.8675 -0.1400  0.5272
  522MOL0     H71996  11.865   7.526   4.921 -1.4224 -1.6343 -2.4441
  522MOL0     H71997  11.818   7.666   5.025  1.7154  0.7424 -0.0081
  522MOL0     H71998  11.964   7.539   5.437 -1.5138 -1.2837  1.0416
  522MOL0     H71999  12.173   7.498   5.554 -0.9366  1.6584 -0.3725
  522MOL0     H72000  12.285   7.116   5.551  0.7185 -1.2820 -1.4688
  522MOL0     H72001  12.384   7.103   5.413  1.0007 -1.0248  1.2043
  522MOL0     H72002  12.495   7.177   5.674  2.5335  1.3183 -1.3790
  522MOL0     H72003  12.494   7.027   5.592 -1.6257  0.5134 -1.8898
  522MOL0     H72004  12.637   7.286   5.536  1.3143 -0.1706 -2.0883
  522MOL0     H72005  12.614   7.181   5.396  1.3623  0.0587  0.6634
  522MOL0     H72006  12.776   7.096   5.645  2.2690 -0.9080 -0.2710
  522MOL0     H72007  12.830   7.151   5.494  0.5342  0.0435  2.2822
  522MOL0     H72008  12.688   6.914   5.593  0.6245  4.3758  2.4473
  522MOL0     H72009  12.659   6.940   5.417 -0.3365  1.4359  0.9720
  522MOL0     H72010  12.918   6.887   5.560 -0.5800 -2.1077  0.1042
  522MOL0     H72011  12.914   6.927   5.385  5.3742 -1.3896  1.5814
  522MOL0     H72012  12.794   6.689   5.550 -0.2688 -0.9803 -0.0383
  522MOL0     H72013  12.954   6.682   5.474 -1.2150 -1.9180  2.2555
  522MOL0     H72014  12.692   6.732   5.318  2.1488  1.6793  1.2099
  522MOL0     H72015  12.764   6.570   5.334 -2.7515 -0.0266 -2.9761
  522MOL0     H72016  12.283   7.212   5.249 -0.6812  0.0852  0.5766
  522MOL0     H72017  12.100   7.297   5.124  1.2905 -0.6441  0.7804
  522MOL0     H72018  11.559   7.265   5.220  2.5673  0.2024  0.5168
  522MOL0     H72019  11.373   7.274   5.062  0.8621 -0.9644 -3.8913
  522MOL0     H72020   9.960   7.073   4.462  0.4607 -1.4549  1.0712
  522MOL0     H72021  10.080   7.103   4.262  1.3619 -1.1161 -1.1829
  522MOL0     H72022  10.536   6.881   3.977  0.5581 -0.2685  1.2632
  522MOL0     H72023  10.734   6.927   3.851  0.4487 -0.8412  1.0361
  522MOL0     H72024  10.894   7.321   3.889  1.4869  0.4116  0.2821
  522MOL0     H72025  11.046   7.250   3.912 -1.5533 -0.1932  2.7117
  522MOL0     H72026  11.048   7.353   3.691 -1.5627  0.3131  0.3471
  522MOL0     H72027  10.889   7.286   3.654 -1.7629 -1.9103  1.8207
  522MOL0     H72028  11.117   7.080   3.689  0.3698 -0.3344 -0.6604
  522MOL0     H72029  10.961   7.073   3.606 -3.2150  3.4426  0.5962
  522MOL0     H72030  11.159   7.266   3.510 -0.9294  0.8837 -1.6516
  522MOL0     H72031  10.998   7.227   3.444 -0.7596  0.2065  0.0188
  522MOL0     H72032  11.234   6.910   3.291  2.9062  0.4539  0.7039
  522MOL0     H72033  10.818   7.265   4.095  1.0701 -1.1904 -1.6366
  522MOL0     H72034  10.579   7.193   4.359 -2.5722 -2.3523 -1.7470
  522MOL0     H72035  10.708   7.297   4.295  1.5554  0.9162 -1.7639
  522MOL0     H72036  10.544   7.326   4.253  4.1183  3.7522  1.2404
  523MOL0     O72037   8.117   6.742   9.845  0.6474 -0.0005 -0.2653
  523MOL0     C72038   8.177   6.773   9.739  0.1752  0.4462 -0.7298
  523MOL0     O72039   8.106   6.792   9.623 -0.1432  0.1172  0.3685
  523MOL0     C72040   7.962   6.794   9.618 -0.0641  0.1079  0.3612
  523MOL0     C72041   7.911   6.725   9.506  0.1163  0.3085 -0.1431
  523MOL0     C72042   7.767   6.710   9.485  0.7698  0.6301 -0.2305
  523MOL0     C72043   7.683   6.777   9.571 -0.8153  0.1780 -0.0477
  523MOL0     O72044   7.552   6.761   9.539  0.7139 -0.3158 -0.3150
  523MOL0     C72045   7.480   6.744   9.662 -0.8270  0.0012  0.1618
  523MOL0     C72046   7.346   6.691   9.619  0.3978 -0.2993  0.3090
  523MOL0     C72047   7.255   6.655   9.727 -0.2795 -0.0543  0.2502
  523MOL0     C72048   7.126   6.610   9.670  0.6676 -0.7355 -0.1343
  523MOL0     C72049   7.017   6.650   9.772 -1.1496 -0.2873  0.3981
  523MOL0     C72050   7.024   6.572   9.908 -1.0655 -0.2389 -1.2025
  523MOL0     C72051   6.924   6.628  10.011  0.2866  0.8118 -0.2070
  523MOL0     C72052   6.779   6.619   9.956 -0.2503 -0.3509 -0.0678
  523MOL0     N72053   6.738   6.476   9.948 -0.1754  0.9918  0.6540
  523MOL0     C72054   6.692   6.422   9.834 -0.9827 -0.2295 -0.2000
  523MOL0     C72055   6.606   6.323   9.869  0.9566 -0.2071 -0.3248
  523MOL0     C72056   6.511   6.246   9.792 -1.2209  0.1328 -0.6049
  523MOL0     C72057   6.570   6.104   9.784 -0.1021 -0.3773  0.2039
  523MOL0     C72058   6.489   6.005   9.690  0.7435 -0.3619 -0.0104
  523MOL0     C72059   6.572   5.986   9.564 -0.6133 -0.3128 -0.5707
  523MOL0     O72060   6.676   5.888   9.599 -0.3819  0.6810 -0.1656
  523MOL0     C72061   6.673   5.775   9.519  0.6631 -0.1810 -0.7509
  523MOL0     C72062   6.569   5.683   9.534  0.1023 -0.4096 -0.0996
  523MOL0     C72063   6.572   5.555   9.479 -0.1827 -0.1811  0.4222
  523MOL0     C72064   6.446   5.476   9.499 -0.6041  0.0055  0.7340
  523MOL0     C72065   6.688   5.521   9.405  0.1817 -0.3486 -0.2009
  523MOL0     C72066   6.706   5.391   9.337 -0.5428 -0.2698 -0.2676
  523MOL0     O72067   6.800   5.394   9.238  0.4990 -0.4887 -0.5590
  523MOL0     C72068   6.783   5.303   9.142  0.3854  0.3298  0.9723
  523MOL0     C72069   6.852   5.187   9.159  0.4743 -0.1435 -0.8082
  523MOL0     C72070   6.837   5.078   9.056  0.3720  0.1117 -0.4946
  523MOL0     C72071   6.756   5.106   8.942  0.2468  0.3586 -0.5836
  523MOL0     O72072   6.728   5.003   8.843 -0.2962  0.2460 -0.7426
  523MOL0     C72073   6.833   4.971   8.758  0.4783 -0.0829  0.4076
  523MOL0     C72074   6.767   4.904   8.636 -0.6920 -0.2182  0.1906
  523MOL0     C72075   6.877   4.865   8.544  0.7235  0.6506 -0.3550
  523MOL0     C72076   6.829   4.821   8.405  0.3864  0.2212  1.1092
  523MOL0     C72077   6.942   4.770   8.307  0.1096 -0.7558 -0.0634
  523MOL0     C72078   6.873   4.718   8.173 -0.2275 -0.0557 -0.8946
  523MOL0     C72079   6.972   4.658   8.074 -0.4061  0.4085  0.1906
  523MOL0     C72080   7.030   4.760   7.976 -0.2198  1.0190  0.8279
  523MOL0    Cl72081   6.899   4.819   7.864  0.2103  0.4101 -0.1646
  523MOL0     C72082   6.689   5.220   8.936 -0.1153 -0.3702  0.1184
  523MOL0     C72083   6.709   5.328   9.030 -0.2028 -0.2049  0.1289
  523MOL0     O72084   6.645   5.291   9.381 -1.0767  0.6416  0.3885
  523MOL0     C72085   6.788   5.618   9.388  0.0716 -0.2042  0.3788
  523MOL0     C72086   6.779   5.737   9.449 -1.4744  0.6424 -0.3353
  523MOL0     N72087   6.606   6.314  10.004 -0.3014 -0.1733  0.2052
  523MOL0     N72088   6.684   6.403  10.056 -0.7135 -0.3713 -0.1840
  523MOL0     C72089   7.739   6.866   9.672 -0.0671  0.5473  0.4494
  523MOL0     C72090   7.879   6.876   9.695 -1.3015  0.6840  0.2414
  523MOL0     C72091   8.325   6.738   9.727  0.2549  0.5435 -0.9349
  523MOL0     C72092   8.387   6.724   9.599  0.6562  0.1917 -0.0074
  523MOL0     C72093   8.525   6.701   9.589  0.2175  0.0539  0.0297
  523MOL0     C72094   8.600   6.678   9.708  0.6283  0.1053  0.6984
  523MOL0     O72095   8.726   6.633   9.716 -1.1706 -0.0754  0.1396
  523MOL0     C72096   8.813   6.720   9.651 -0.4613 -0.2526  0.1750
  523MOL0     C72097   8.963   6.685   9.651  0.1019  0.0608 -0.0326
  523MOL0     C72098   9.051   6.781   9.581  0.1629 -0.2573 -0.2717
  523MOL0     C72099   9.195   6.724   9.585  0.8675 -0.1388  0.3837
  523MOL0     C72100   9.273   6.827   9.505  0.6722 -0.4245  0.2246
  523MOL0     C72101   9.333   6.918   9.463 -0.0178  0.0466 -0.9657
  523MOL0     C72102   8.549   6.698   9.837  0.3183 -0.1279  0.1635
  523MOL0     C72103   8.412   6.722   9.847  0.2939 -0.3156 -0.9572
  523MOL0     C72104   8.362   6.748   9.986  0.8163  0.3785  0.2272
  523MOL0     H72105   7.984   6.693   9.433  1.2120 -1.0497  1.4718
  523MOL0     H72106   7.736   6.642   9.407 -0.0026 -0.5162  1.0209
  523MOL0     H72107   7.466   6.836   9.718 -1.6496  0.4243 -0.7052
  523MOL0     H72108   7.531   6.666   9.719  1.6567  1.6074  0.2408
  523MOL0     H72109   7.303   6.771   9.559 -2.4615 -2.4368 -0.6747
  523MOL0     H72110   7.355   6.605   9.552  2.4393 -2.1335  2.7261
  523MOL0     H72111   7.298   6.575   9.788 -2.0158 -0.9117  0.4131
  523MOL0     H72112   7.248   6.744   9.790  1.7951  0.7510 -0.5761
  523MOL0     H72113   7.111   6.665   9.577  1.0449  4.4887  2.4723
  523MOL0     H72114   7.129   6.501   9.667  1.7845 -0.8067  1.7346
  523MOL0     H72115   6.916   6.637   9.734 -0.8066 -1.1661 -0.2366
  523MOL0     H72116   7.018   6.758   9.791  0.5917  0.1423 -1.7444
  523MOL0     H72117   7.015   6.466   9.883  0.9549 -0.5925 -0.5610
  523MOL0     H72118   7.120   6.588   9.957 -1.3441 -3.4419  0.6810
  523MOL0     H72119   6.933   6.733  10.040 -4.9451  1.5730 -0.4826
  523MOL0     H72120   6.939   6.568  10.102 -0.9833  0.6459 -0.0870
  523MOL0     H72121   6.715   6.666  10.031  2.3892  0.9680  1.5260
  523MOL0     H72122   6.762   6.679   9.866  1.3945  0.4147  0.0838
  523MOL0     H72123   6.721   6.456   9.735 -1.7981 -0.2555 -0.4575
  523MOL0     H72124   6.502   6.288   9.692 -2.2208 -2.0755 -1.5060
  523MOL0     H72125   6.415   6.241   9.844 -0.5152  1.9461  0.9719
  523MOL0     H72126   6.679   6.094   9.777  0.5427  4.8574 -1.4606
  523MOL0     H72127   6.554   6.066   9.886  0.5033 -0.5747  0.2305
  523MOL0     H72128   6.469   5.909   9.737 -0.2869 -1.2429 -2.1332
  523MOL0     H72129   6.390   6.047   9.671  0.5833 -0.4327  0.6545
  523MOL0     H72130   6.523   5.954   9.472  3.6359 -1.1766 -2.8047
  523MOL0     H72131   6.626   6.076   9.532  3.5572 -1.6939  1.8519
  523MOL0     H72132   6.488   5.715   9.598 -0.4662 -0.8368 -0.5851
  523MOL0     H72133   6.465   5.385   9.557 -0.6913  0.6775  1.8550
  523MOL0     H72134   6.397   5.465   9.402  2.7619  6.7639 -2.4129
  523MOL0     H72135   6.376   5.533   9.562  0.5497  0.9469  1.2067
  523MOL0     H72136   6.906   5.181   9.253  1.5416  1.5885 -1.2645
  523MOL0     H72137   6.877   4.978   9.070  1.0665  0.1465 -2.0240
  523MOL0     H72138   6.885   5.062   8.725  0.4000 -0.7892 -1.7543
  523MOL0     H72139   6.904   4.907   8.811  1.4968 -1.5440 -2.5473
  523MOL0     H72140   6.708   4.813   8.652  0.8757 -1.6211 -1.5706
  523MOL0     H72141   6.702   4.976   8.587 -4.5546 -1.5780  2.7987
  523MOL0     H72142   6.920   4.778   8.594  1.3784  0.9222 -0.4438
  523MOL0     H72143   6.951   4.944   8.528  1.3940  0.9736  3.3940
  523MOL0     H72144   6.776   4.902   8.353 -0.3276  0.2875  1.9168
  523MOL0     H72145   6.745   4.751   8.410  1.5943 -1.3001  0.8435
  523MOL0     H72146   7.013   4.849   8.279  0.8858 -2.0464 -1.9179
  523MOL0     H72147   7.005   4.699   8.362  1.3769 -0.3116 -0.8906
  523MOL0     H72148   6.815   4.793   8.119  0.6224 -0.7971 -2.9473
  523MOL0     H72149   6.807   4.634   8.197  1.7807 -1.8285 -1.2750
  523MOL0     H72150   6.914   4.582   8.021 -0.3866  0.6251 -0.1443
  523MOL0     H72151   7.044   4.607   8.139 -0.6225 -1.6547 -1.0941
  523MOL0     H72152   7.095   4.722   7.896 -0.5581  3.3737 -0.6551
  523MOL0     H72153   7.073   4.848   8.024 -1.4399  0.9692  2.0609
  523MOL0     H72154   6.621   5.231   8.852  1.4066  1.5262 -0.9357
  523MOL0     H72155   6.654   5.420   9.015  0.8861  0.1328 -2.2363
  523MOL0     H72156   6.870   5.596   9.320 -1.5699 -1.3007 -1.3442
  523MOL0     H72157   6.865   5.803   9.457 -0.5832 -0.5726  0.3766
  523MOL0     H72158   7.667   6.928   9.726 -1.0578  1.3699 -1.7092
  523MOL0     H72159   7.904   6.941   9.777  2.2022 -1.7358  1.3255
  523MOL0     H72160   8.333   6.745   9.507 -1.2017  2.1601  1.4377
  523MOL0     H72161   8.559   6.699   9.486  0.8271 -0.9532  0.2379
  523MOL0     H72162   8.776   6.740   9.550 -0.2497  0.7330  0.2854
  523MOL0     H72163   8.806   6.818   9.698  0.5879 -0.6090  1.1194
  523MOL0     H72164   8.985   6.585   9.612 -0.3553 -0.9880  2.2152
  523MOL0     H72165   8.992   6.694   9.756 -4.9239  0.3444  1.6099
  523MOL0     H72166   9.017   6.792   9.477  3.5975 -0.4812 -1.5762
  523MOL0     H72167   9.057   6.885   9.614  0.4218 -0.4438  0.2776
  523MOL0     H72168   9.192   6.629   9.531 -0.2256 -0.0988  0.3627
  523MOL0     H72169   9.230   6.712   9.688  0.6798  0.8599  0.5726
  523MOL0     H72170   9.381   7.007   9.428  0.2397  0.0207 -0.6806
  523MOL0     H72171   8.614   6.689   9.924  0.0389  1.9924  0.6441
  523MOL0     H72172   8.443   6.773  10.056  0.0959 -0.7455  1.5345
  523MOL0     H72173   8.293   6.831  10.006  0.5840 -0.2600  2.4087
  523MOL0     H72174   8.312   6.661  10.030 -2.1877  2.7154  1.8618
  524MOL0     O72175   1.913   7.036   5.458  0.0671 -0.0025 -0.0962
  524MOL0     C72176   1.805   7.021   5.402 -0.2317  0.2332 -0.4116
  524MOL0     O72177   1.745   6.902   5.375  0.8754  0.0211 -0.0695
  524MOL0     C72178   1.811   6.792   5.403  0.9177 -0.8220 -0.1657
  524MOL0     C72179   1.934   6.764   5.340  1.5078  0.0517  0.3151
  524MOL0     C72180   1.984   6.638   5.345 -0.9386  0.2085 -0.4911
  524MOL0     C72181   1.925   6.538   5.429  0.4832 -0.3410 -0.8626
  524MOL0     O72182   1.978   6.412   5.439 -0.4755 -0.4070  0.5379
  524MOL0     C72183   2.037   6.354   5.321  0.3697  0.7237 -0.5103
  524MOL0     C72184   2.031   6.195   5.334 -0.0252 -0.5248 -0.3372
  524MOL0     C72185   2.111   6.133   5.230 -0.5888 -0.3880  1.0907
  524MOL0     C72186   2.056   5.989   5.201 -0.0726  0.6049 -0.2405
  524MOL0     C72187   2.115   5.907   5.089  0.2728  0.1744 -0.0313
  524MOL0     C72188   2.260   5.906   5.089  1.1735 -0.5047 -0.3339
  524MOL0     C72189   2.332   5.819   4.991 -1.3842  0.0082  1.2362
  524MOL0     C72190   2.486   5.815   5.008  0.6217 -0.6256 -0.0707
  524MOL0     N72191   2.518   5.741   5.127 -0.2433  0.7298  0.3589
  524MOL0     C72192   2.450   5.643   5.188  0.3761  0.7136 -0.6312
  524MOL0     C72193   2.514   5.621   5.305 -0.5140  0.8640 -0.0191
  524MOL0     C72194   2.501   5.507   5.390 -0.3296  0.2365 -0.7108
  524MOL0     C72195   2.620   5.406   5.387  0.1063  0.4256 -1.1460
  524MOL0     C72196   2.578   5.284   5.466  0.5253  0.2616  0.9409
  524MOL0     C72197   2.581   5.294   5.612  0.1774 -0.4499 -0.0109
  524MOL0     O72198   2.477   5.378   5.672  0.6826 -0.4041 -0.3744
  524MOL0     C72199   2.363   5.315   5.711  0.3469  0.5195 -0.4374
  524MOL0     C72200   2.361   5.195   5.779  0.4541  0.3281 -1.0772
  524MOL0     C72201   2.234   5.142   5.804 -0.2412 -0.3860  0.0359
  524MOL0     C72202   2.246   5.017   5.882 -0.4514  0.2565 -0.4517
  524MOL0     C72203   2.106   5.204   5.761 -0.3211 -0.9100 -0.5033
  524MOL0     C72204   1.975   5.166   5.787  0.5997  0.2780  0.4110
  524MOL0     O72205   1.882   5.228   5.719  0.9962  0.0627  0.3328
  524MOL0     C72206   1.774   5.153   5.680 -0.6565 -0.3931 -0.6901
  524MOL0     C72207   1.678   5.101   5.768  0.6090  0.8130 -0.2785
  524MOL0     C72208   1.574   5.010   5.724 -0.2678  0.0604  0.0092
  524MOL0     C72209   1.575   4.972   5.589  0.2137  0.0845  1.3821
  524MOL0     O72210   1.495   4.872   5.529 -0.3255 -0.0120  0.4374
  524MOL0     C72211   1.499   4.761   5.620 -0.5517  0.9876  0.3101
  524MOL0     C72212   1.499   4.633   5.534 -0.3145 -0.3928  0.4885
  524MOL0     C72213   1.496   4.502   5.628 -0.3203 -0.9234 -0.6442
  524MOL0     C72214   1.520   4.384   5.540  0.1846 -0.0961  0.4050
  524MOL0     C72215   1.491   4.256   5.608 -0.1243  0.0537 -0.8535
  524MOL0     C72216   1.598   4.216   5.701 -0.6538  0.0050 -0.9311
  524MOL0     C72217   1.539   4.097   5.781  0.9546 -0.9712  0.2022
  524MOL0     C72218   1.621   3.977   5.812 -0.4251 -0.3836 -0.5569
  524MOL0    Cl72219   1.788   4.033   5.862 -0.6387 -0.4947 -0.3605
  524MOL0     C72220   1.673   5.031   5.504  0.0440 -0.1558  0.2163
  524MOL0     C72221   1.765   5.128   5.547  0.2184  0.6515  0.8974
  524MOL0     O72222   1.948   5.094   5.883  0.6942 -0.0865 -0.1531
  524MOL0     C72223   2.118   5.328   5.695 -0.4733 -0.1487  0.5808
  524MOL0     C72224   2.243   5.378   5.672 -0.8010  0.2110  0.7113
  524MOL0     N72225   2.622   5.693   5.307  0.4437  0.1084 -0.3646
  524MOL0     N72226   2.628   5.766   5.199 -0.4810  0.0042 -0.1678
  524MOL0     C72227   1.814   6.573   5.502 -0.3923 -0.2434  0.3642
  524MOL0     C72228   1.756   6.701   5.486 -0.7184 -0.0107 -1.0462
  524MOL0     C72229   1.729   7.145   5.383  0.5841  0.5527  0.3315
  524MOL0     C72230   1.592   7.135   5.403  0.1659  0.0583  0.5531
  524MOL0     C72231   1.513   7.244   5.381 -0.6190  0.7447 -0.2957
  524MOL0     C72232   1.568   7.368   5.346 -0.2712 -0.1921  0.2589
  524MOL0     O72233   1.500   7.483   5.343  1.4075 -0.3499 -0.9805
  524MOL0     C72234   1.354   7.470   5.356 -0.0019 -0.1099 -0.0212
  524MOL0     C72235   1.280   7.603   5.360  0.3421 -0.3944  0.6552
  524MOL0     C72236   1.130   7.589   5.397 -0.3490 -0.0520  0.2422
  524MOL0     C72237   1.057   7.540   5.268  0.1916 -0.3610 -0.5158
  524MOL0     C72238   0.948   7.641   5.233  1.2574  0.4507  0.3223
  524MOL0     C72239   0.866   7.718   5.189  0.6368  0.6649  0.6583
  524MOL0     C72240   1.709   7.369   5.329  0.3218  0.3109 -0.4980
  524MOL0     C72241   1.788   7.257   5.343 -0.6524 -0.8454  0.7990
  524MOL0     C72242   1.932   7.258   5.301 -0.4396 -0.4199 -0.1854
  524MOL0     H72243   1.976   6.836   5.270 -0.2128 -1.2392 -2.1959
  524MOL0     H72244   2.073   6.615   5.288 -1.0655 -2.4460  0.2533
  524MOL0     H72245   2.143   6.375   5.303  1.8413 -3.5909  1.6222
  524MOL0     H72246   1.980   6.381   5.232  0.8262 -0.3450 -1.1479
  524MOL0     H72247   2.065   6.160   5.432 -1.3999  0.0400  0.3760
  524MOL0     H72248   1.926   6.172   5.311 -0.7728  1.1004  1.1703
  524MOL0     H72249   2.092   6.176   5.131  4.1713 -0.8725 -0.2825
  524MOL0     H72250   2.220   6.134   5.240 -0.7163  0.9857  3.2922
  524MOL0     H72251   2.059   5.923   5.288  1.5496  0.0845 -0.6674
  524MOL0     H72252   1.951   5.986   5.170 -0.5332  1.7548  1.0956
  524MOL0     H72253   2.076   5.944   4.994 -0.5851  0.3893  0.3923
  524MOL0     H72254   2.082   5.804   5.107  0.4313  0.5653  2.9511
  524MOL0     H72255   2.295   6.009   5.073  1.5346 -0.9759 -3.2006
  524MOL0     H72256   2.283   5.875   5.191  1.1511 -0.0011 -0.1741
  524MOL0     H72257   2.317   5.850   4.887  1.3033 -2.8481 -0.1646
  524MOL0     H72258   2.291   5.718   4.988 -1.4913  0.0709  0.0136
  524MOL0     H72259   2.542   5.773   4.924  2.3813 -1.8175  1.6209
  524MOL0     H72260   2.519   5.920   5.012 -2.2261  0.2948  1.9603
  524MOL0     H72261   2.364   5.589   5.151  1.1223 -0.1019 -1.2173
  524MOL0     H72262   2.409   5.450   5.371 -0.4884  0.1909  0.1261
  524MOL0     H72263   2.484   5.544   5.492  1.7134  2.8295 -1.2040
  524MOL0     H72264   2.635   5.388   5.281  0.1002  1.1096 -1.2682
  524MOL0     H72265   2.706   5.453   5.437 -0.1926  0.8073 -0.9921
  524MOL0     H72266   2.475   5.256   5.443  0.9328 -3.0860  2.4979
  524MOL0     H72267   2.648   5.204   5.441  2.1799  1.5848  1.1518
  524MOL0     H72268   2.576   5.190   5.647 -3.3270 -0.3130  0.1815
  524MOL0     H72269   2.677   5.332   5.647 -0.7540  0.4417  1.6958
  524MOL0     H72270   2.447   5.134   5.806  0.1950  1.2895  2.3928
  524MOL0     H72271   2.310   4.942   5.835 -1.1127 -1.1705  0.8532
  524MOL0     H72272   2.149   4.968   5.895 -0.5443  0.3092 -0.9095
  524MOL0     H72273   2.287   5.032   5.981 -1.8034  2.2366 -0.1228
  524MOL0     H72274   1.676   5.115   5.876  0.3679 -0.1765 -0.1381
  524MOL0     H72275   1.497   4.980   5.794 -0.1614  3.1003  1.5669
  524MOL0     H72276   1.589   4.740   5.678 -1.6633  1.4745  2.3215
  524MOL0     H72277   1.416   4.759   5.692 -0.9423 -0.1328 -0.1552
  524MOL0     H72278   1.401   4.635   5.487 -0.7113 -0.7525  1.2833
  524MOL0     H72279   1.586   4.632   5.467 -0.8260 -2.0754 -0.1893
  524MOL0     H72280   1.402   4.491   5.682  0.9273 -0.0143  1.8435
  524MOL0     H72281   1.579   4.504   5.699 -0.3260  2.5861 -0.5840
  524MOL0     H72282   1.621   4.367   5.503 -0.1343 -4.3676  0.9203
  524MOL0     H72283   1.450   4.395   5.457  0.2904  3.0327  0.6284
  524MOL0     H72284   1.395   4.265   5.660  0.7467  2.0798  0.5300
  524MOL0     H72285   1.472   4.183   5.529 -0.0058 -0.4883 -0.3971
  524MOL0     H72286   1.628   4.293   5.773  1.6911 -2.9353  1.5218
  524MOL0     H72287   1.692   4.187   5.653 -1.3605 -1.8438 -1.2637
  524MOL0     H72288   1.449   4.060   5.731 -0.2809 -0.3450  1.8678
  524MOL0     H72289   1.491   4.144   5.867 -3.2089 -1.6564 -1.5057
  524MOL0     H72290   1.623   3.912   5.724  2.9678 -1.0983 -0.0931
  524MOL0     H72291   1.584   3.927   5.902 -1.1315 -1.7448 -1.5582
  524MOL0     H72292   1.650   5.020   5.399  1.6589  0.7121 -0.2653
  524MOL0     H72293   1.830   5.164   5.468 -0.5937 -0.2180 -0.2027
  524MOL0     H72294   2.039   5.398   5.674 -0.4677  1.2042  4.3063
  524MOL0     H72295   2.254   5.469   5.613  1.4097 -1.2163 -1.2907
  524MOL0     H72296   1.769   6.501   5.568  0.2631  0.2575  1.3857
  524MOL0     H72297   1.661   6.726   5.534 -0.9263  0.6044 -1.7511
  524MOL0     H72298   1.559   7.045   5.453  3.2997 -0.8914  1.0943
  524MOL0     H72299   1.407   7.229   5.392 -0.3731 -0.8173  0.2343
  524MOL0     H72300   1.318   7.427   5.262  3.3254 -2.4338 -0.3956
  524MOL0     H72301   1.330   7.421   5.451 -0.7418  0.1611 -0.0618
  524MOL0     H72302   1.286   7.656   5.264  1.1551  0.1678  1.0059
  524MOL0     H72303   1.332   7.664   5.434  3.6072 -0.6744 -1.2022
  524MOL0     H72304   1.113   7.523   5.483 -1.8733 -1.4117 -1.0235
  524MOL0     H72305   1.098   7.688   5.432  1.7952  1.6810 -2.3537
  524MOL0     H72306   1.011   7.444   5.294 -0.8150  0.7719  2.4216
  524MOL0     H72307   1.129   7.518   5.189  2.8505  1.0874  1.3382
  524MOL0     H72308   0.799   7.788   5.144 -1.6201 -1.2048  0.9083
  524MOL0     H72309   1.753   7.462   5.293  1.9955 -1.0692 -2.1522
  524MOL0     H72310   1.945   7.348   5.241  3.9005 -1.0136 -0.4595
  524MOL0     H72311   1.990   7.283   5.390 -0.2493 -1.3136 -0.0451
  524MOL0     H72312   1.965   7.170   5.245  1.2584  0.3211 -0.3924
  525MOL0     O72313   5.388   4.252   7.580  0.3272 -0.3184 -0.3715
  525MOL0     C72314   5.286   4.319   7.543 -0.4156  0.7755 -0.3866
  525MOL0     O72315   5.278   4.388   7.432  0.8066  0.4135 -0.1187
  525MOL0     C72316   5.398   4.403   7.361 -0.0014 -0.2162 -0.2841
  525MOL0     C72317   5.450   4.293   7.293  0.1273  0.1682 -0.0229
  525MOL0     C72318   5.565   4.314   7.218 -0.0573 -0.0503  0.0271
  525MOL0     C72319   5.635   4.434   7.214  0.1318 -0.7795 -0.0253
  525MOL0     O72320   5.751   4.464   7.144  0.8437  0.6534  0.2863
  525MOL0     C72321   5.825   4.349   7.095  0.0344 -0.4206  0.4442
  525MOL0     C72322   5.778   4.314   6.955 -0.5859 -0.2339 -0.6919
  525MOL0     C72323   5.841   4.184   6.909  0.1007  0.8023  0.4582
  525MOL0     C72324   5.773   4.131   6.772 -0.2341 -0.4299 -0.2228
  525MOL0     C72325   5.857   4.015   6.731 -0.2440  0.3401  0.3045
  525MOL0     C72326   5.783   3.926   6.629  0.2648 -0.2269  0.4328
  525MOL0     C72327   5.840   3.786   6.621  0.0310 -0.3342  0.3208
  525MOL0     C72328   5.775   3.693   6.514  0.2967  0.2627 -0.8481
  525MOL0     N72329   5.815   3.729   6.378 -0.7864  0.3766 -0.3074
  525MOL0     C72330   5.926   3.677   6.315  0.2406  0.0258 -0.2554
  525MOL0     C72331   5.910   3.703   6.181 -0.4165 -0.7258  0.4421
  525MOL0     C72332   5.995   3.652   6.070  0.5688 -1.0743 -0.2184
  525MOL0     C72333   5.898   3.615   5.956  0.1129  0.4473  0.1952
  525MOL0     C72334   5.979   3.575   5.829 -0.3558 -0.1217 -0.5771
  525MOL0     C72335   5.886   3.497   5.745 -0.3856  0.0202  0.3596
  525MOL0     O72336   5.928   3.516   5.614 -0.0965 -0.1139  0.2003
  525MOL0     C72337   5.874   3.627   5.552  0.8096 -0.2856  0.2969
  525MOL0     C72338   5.892   3.614   5.412 -0.3554 -0.0051 -0.7002
  525MOL0     C72339   5.854   3.727   5.330  0.0757  1.0201 -0.1598
  525MOL0     C72340   5.868   3.710   5.177  0.5563 -0.5392 -0.1923
  525MOL0     C72341   5.787   3.840   5.386  0.0304 -0.6562 -0.0593
  525MOL0     C72342   5.715   3.947   5.305 -0.4229 -0.8751 -0.2963
  525MOL0     O72343   5.605   3.913   5.223 -0.0152 -0.6690 -0.6977
  525MOL0     C72344   5.556   4.008   5.125 -0.4786  0.0808  0.1550
  525MOL0     C72345   5.426   3.988   5.083  0.1170 -0.7313 -0.9250
  525MOL0     C72346   5.361   4.074   4.996 -0.2868  0.1944 -0.7350
  525MOL0     C72347   5.430   4.181   4.936  0.3528  0.3370  0.0215
  525MOL0     O72348   5.351   4.270   4.858 -0.7249  0.4569 -0.4301
  525MOL0     C72349   5.416   4.361   4.766 -0.0605  0.6572 -0.2867
  525MOL0     C72350   5.375   4.320   4.627  1.0019  0.6249  0.1341
  525MOL0     C72351   5.425   4.175   4.577  0.6754 -0.3817  0.1104
  525MOL0     C72352   5.351   4.103   4.466 -0.1361  0.6270  0.1386
  525MOL0     C72353   5.436   4.004   4.389 -0.0286  0.3934 -0.1200
  525MOL0     C72354   5.358   3.881   4.351 -1.1597 -0.0049  0.1387
  525MOL0     C72355   5.457   3.762   4.326  1.1018 -0.1605 -0.7184
  525MOL0     C72356   5.562   3.788   4.221 -0.0466 -0.6746  0.1514
  525MOL0    Cl72357   5.484   3.831   4.075  0.2110  0.1792 -0.0075
  525MOL0     C72358   5.563   4.198   4.974 -0.8247 -0.2417  0.1371
  525MOL0     C72359   5.626   4.113   5.066  0.5462 -0.0140  0.4744
  525MOL0     O72360   5.755   4.058   5.345 -0.0204  0.1948  1.0378
  525MOL0     C72361   5.775   3.852   5.527 -0.1233  1.1599 -0.2584
  525MOL0     C72362   5.817   3.742   5.611 -0.5315 -0.0910  0.1143
  525MOL0     N72363   5.801   3.780   6.162  0.2778  0.2559  0.8291
  525MOL0     N72364   5.749   3.794   6.280  0.0724 -0.2776 -0.2396
  525MOL0     C72365   5.575   4.549   7.279 -0.2595  0.3786  0.8572
  525MOL0     C72366   5.461   4.532   7.356  0.7286  0.1723 -0.0161
  525MOL0     C72367   5.151   4.311   7.615 -0.5610 -0.1290  0.5696
  525MOL0     C72368   5.051   4.408   7.585 -1.1552  0.7156  0.7937
  525MOL0     C72369   4.932   4.402   7.650 -0.5613 -0.1932  1.3914
  525MOL0     C72370   4.908   4.318   7.745  0.7338 -0.1320  0.4072
  525MOL0     O72371   4.788   4.320   7.816 -0.9274  0.1035  0.1743
  525MOL0     C72372   4.794   4.393   7.937  0.4817 -0.2299 -1.2053
  525MOL0     C72373   4.671   4.348   8.011  0.7789 -0.0010 -0.0426
  525MOL0     C72374   4.650   4.408   8.154  0.2767 -0.2192  0.6971
  525MOL0     C72375   4.761   4.357   8.253  0.5117 -0.1662  0.0845
  525MOL0     C72376   4.793   4.457   8.358  0.7271 -0.2380  0.3867
  525MOL0     C72377   4.854   4.541   8.428  0.5050  0.3381  0.0705
  525MOL0     C72378   4.996   4.218   7.778 -0.3348 -0.5757 -0.4570
  525MOL0     C72379   5.124   4.218   7.726 -0.0153 -0.3904 -0.3232
  525MOL0     C72380   5.211   4.114   7.793  0.0803  0.6084  0.1785
  525MOL0     H72381   5.401   4.197   7.301 -1.0783  0.7001 -0.8864
  525MOL0     H72382   5.596   4.226   7.163 -1.7781 -2.3339  2.4986
  525MOL0     H72383   5.816   4.257   7.152 -3.5778 -1.0774 -0.9383
  525MOL0     H72384   5.931   4.379   7.090 -1.1732  4.6117 -1.9500
  525MOL0     H72385   5.670   4.300   6.956 -0.6588  0.3297 -0.3456
  525MOL0     H72386   5.790   4.394   6.881  0.9644 -0.7030 -0.9987
  525MOL0     H72387   5.950   4.179   6.895 -0.1266 -0.8662 -1.2251
  525MOL0     H72388   5.809   4.112   6.984 -2.0051  2.9933  1.8113
  525MOL0     H72389   5.674   4.090   6.795  0.9229 -3.1494  0.2915
  525MOL0     H72390   5.765   4.204   6.691 -2.5324  0.2278  0.4921
  525MOL0     H72391   5.885   3.958   6.819  4.3687 -0.0322 -1.1559
  525MOL0     H72392   5.958   4.041   6.699  1.1152 -1.7924  2.5484
  525MOL0     H72393   5.679   3.919   6.664  0.3187  1.5022  1.0554
  525MOL0     H72394   5.796   3.976   6.532 -0.5858  0.4403  0.6476
  525MOL0     H72395   5.844   3.738   6.718  0.4667 -0.3610  0.2923
  525MOL0     H72396   5.946   3.806   6.603 -0.7819  3.2050 -1.5269
  525MOL0     H72397   5.803   3.590   6.539  3.8550  0.8777 -1.8216
  525MOL0     H72398   5.667   3.680   6.526  0.4424  0.4863  0.8160
  525MOL0     H72399   6.006   3.612   6.347 -0.5007 -1.9091 -2.1341
  525MOL0     H72400   6.060   3.573   6.109  1.2300 -1.6091 -2.2831
  525MOL0     H72401   6.052   3.737   6.031 -0.6321 -0.9911 -1.8798
  525MOL0     H72402   5.846   3.524   5.989  1.5377 -0.1101  0.9972
  525MOL0     H72403   5.824   3.692   5.931 -2.1836 -1.9853 -1.0197
  525MOL0     H72404   6.023   3.665   5.785 -0.8323  0.4387  0.0877
  525MOL0     H72405   6.057   3.501   5.850  0.2861 -0.0960 -2.6302
  525MOL0     H72406   5.895   3.392   5.772 -0.4305 -0.2480 -0.6553
  525MOL0     H72407   5.783   3.534   5.752 -0.3739  0.1600 -0.1771
  525MOL0     H72408   5.943   3.531   5.364 -3.6560 -1.2474 -2.3772
  525MOL0     H72409   5.768   3.714   5.131  1.3549  2.1897 -1.9552
  525MOL0     H72410   5.921   3.621   5.142  2.3586 -0.3556  1.8739
  525MOL0     H72411   5.917   3.802   5.144 -2.4516  1.1808 -0.2207
  525MOL0     H72412   5.360   3.914   5.127  0.8904 -1.3761 -0.8272
  525MOL0     H72413   5.257   4.060   4.968 -0.4531  0.8044 -0.4185
  525MOL0     H72414   5.374   4.459   4.790 -0.8094  0.2226  0.2526
  525MOL0     H72415   5.525   4.371   4.770 -0.0428  0.2104  0.4258
  525MOL0     H72416   5.266   4.335   4.623  1.1271  3.2165  3.0724
  525MOL0     H72417   5.419   4.397   4.563  0.1114  0.3040 -0.8968
  525MOL0     H72418   5.439   4.116   4.667 -0.3770  2.0299  1.9673
  525MOL0     H72419   5.529   4.188   4.545  0.8364  1.4289  1.2519
  525MOL0     H72420   5.324   4.180   4.394  0.9605  2.2431  1.3947
  525MOL0     H72421   5.262   4.061   4.515 -0.6918  1.3542 -0.2317
  525MOL0     H72422   5.474   4.050   4.297 -2.9950 -0.3910 -1.8878
  525MOL0     H72423   5.515   3.974   4.458  0.6967  0.9789 -0.6765
  525MOL0     H72424   5.305   3.905   4.259  0.4224  1.9480 -0.3403
  525MOL0     H72425   5.286   3.860   4.430 -0.1921  5.1040  2.8320
  525MOL0     H72426   5.399   3.676   4.288  2.5990 -0.9649 -1.2718
  525MOL0     H72427   5.501   3.728   4.420 -3.0343 -3.0058  0.4837
  525MOL0     H72428   5.618   3.695   4.211  1.6759  0.2369  0.9263
  525MOL0     H72429   5.631   3.868   4.249 -1.8629  1.2843 -0.6761
  525MOL0     H72430   5.628   4.255   4.907 -0.8178 -0.7854 -0.3261
  525MOL0     H72431   5.730   4.134   5.092 -0.1584  1.5424  2.2951
  525MOL0     H72432   5.763   3.950   5.572  2.6316  1.4003  0.1382
  525MOL0     H72433   5.812   3.754   5.719 -4.4061 -0.0075  0.0563
  525MOL0     H72434   5.633   4.641   7.283  1.5036 -0.6713  0.8319
  525MOL0     H72435   5.419   4.617   7.408 -1.4380  1.5489 -3.5992
  525MOL0     H72436   5.071   4.492   7.520 -0.1484 -1.0221 -1.2843
  525MOL0     H72437   4.867   4.489   7.643  0.5927  0.6473  0.9061
  525MOL0     H72438   4.880   4.352   7.991 -1.1257 -0.0513  1.7683
  525MOL0     H72439   4.802   4.498   7.910 -1.1454  0.2596  0.0074
  525MOL0     H72440   4.663   4.239   8.015  0.4842 -0.1723 -3.1890
  525MOL0     H72441   4.585   4.381   7.952 -0.3787 -0.8470  1.1088
  525MOL0     H72442   4.657   4.517   8.150  1.0480 -0.0622  4.0525
  525MOL0     H72443   4.554   4.374   8.193  0.6416 -0.5155  1.3365
  525MOL0     H72444   4.857   4.335   8.205  0.1263 -1.0557 -0.2892
  525MOL0     H72445   4.729   4.265   8.303  0.3138 -0.2709 -0.2391
  525MOL0     H72446   4.925   4.586   8.494  2.7324 -0.9336 -1.3321
  525MOL0     H72447   4.951   4.143   7.842  0.4152 -1.1688 -0.6190
  525MOL0     H72448   5.298   4.155   7.846 -0.0236 -1.6520  2.2441
  525MOL0     H72449   5.165   4.040   7.859  3.7418 -1.5185  0.5650
  525MOL0     H72450   5.248   4.060   7.706 -2.0514  1.3759 -1.3111
  526MOL0     O72451   7.764   7.818   0.914  0.1110 -0.4575  0.3298
  526MOL0     C72452   7.719   7.771   1.018 -0.6342  0.6435 -0.2723
  526MOL0     O72453   7.792   7.721   1.124  0.3657  0.0215  0.7474
  526MOL0     C72454   7.913   7.776   1.158  0.2793 -0.2337 -0.2806
  526MOL0     C72455   7.999   7.689   1.222 -0.8181  0.0253 -0.5365
  526MOL0     C72456   8.117   7.735   1.266 -0.1794 -0.0133 -0.3944
  526MOL0     C72457   8.154   7.870   1.265  0.3810 -0.4398  0.0902
  526MOL0     O72458   8.282   7.911   1.296 -0.3417 -0.1418 -0.5325
  526MOL0     C72459   8.401   7.836   1.254  0.3456  0.5663  0.5269
  526MOL0     C72460   8.523   7.923   1.222  1.1495 -0.0714  0.1128
  526MOL0     C72461   8.624   7.841   1.138 -0.4115 -1.2410 -0.0870
  526MOL0     C72462   8.746   7.927   1.109  0.6707  0.1528 -0.7635
  526MOL0     C72463   8.856   7.845   1.037  0.1824  0.0447 -0.3556
  526MOL0     C72464   8.991   7.911   1.024  0.0974 -0.1939  0.0034
  526MOL0     C72465   9.079   7.814   0.948  0.0984 -0.2534 -0.4475
  526MOL0     C72466   9.228   7.850   0.966  0.2588 -0.0251 -0.0874
  526MOL0     N72467   9.255   7.972   0.901  0.1235 -0.2795  0.8123
  526MOL0     C72468   9.208   8.011   0.777 -0.6916  0.5390 -0.0927
  526MOL0     C72469   9.241   8.144   0.765  0.2497 -0.9851 -0.3181
  526MOL0     C72470   9.218   8.226   0.641  0.1607  0.2422  0.4526
  526MOL0     C72471   9.071   8.269   0.630 -0.3570  0.1286 -0.9993
  526MOL0     C72472   9.020   8.387   0.713 -0.4674  0.2917 -0.7316
  526MOL0     C72473   8.877   8.428   0.663  0.1193  0.0416 -0.0086
  526MOL0     O72474   8.885   8.496   0.536 -0.5961 -0.4061  0.0085
  526MOL0     C72475   8.789   8.485   0.438  0.1916  0.9277 -0.0325
  526MOL0     C72476   8.816   8.568   0.329 -0.0296 -0.0102 -0.3593
  526MOL0     C72477   8.737   8.551   0.220 -0.4084 -0.6791 -0.2741
  526MOL0     C72478   8.792   8.637   0.098  0.0665  0.4067  0.6905
  526MOL0     C72479   8.621   8.472   0.226  0.9040 -0.0090 -0.0146
  526MOL0     C72480   8.535   8.460   0.102  0.1024  0.6945  0.8381
  526MOL0     O72481   8.458   8.347   0.119 -0.1863  0.3512 -0.4267
  526MOL0     C72482   8.368   8.302   0.026  0.9064  0.9648  0.6097
  526MOL0     C72483   8.361   8.342  -0.112  0.1975  0.4423  0.3575
  526MOL0     C72484   8.256   8.298  -0.198  0.2125 -0.3378 -0.0688
  526MOL0     C72485   8.140   8.230  -0.154 -0.6514 -0.1806 -1.1979
  526MOL0     O72486   8.036   8.195  -0.224 -0.3245  0.3888  0.4434
  526MOL0     C72487   7.978   8.297  -0.304  0.9235  0.1836 -0.6491
  526MOL0     C72488   7.833   8.244  -0.325 -0.3058 -0.9955  0.2721
  526MOL0     C72489   7.763   8.342  -0.432  0.3532 -0.2596  0.1424
  526MOL0     C72490   7.662   8.441  -0.375 -0.0850 -0.1931  0.6913
  526MOL0     C72491   7.579   8.519  -0.478  0.1150 -0.0508 -0.1909
  526MOL0     C72492   7.663   8.615  -0.560  0.9043  0.5043  0.0320
  526MOL0     C72493   7.573   8.713  -0.636  0.5045 -0.2522  0.3654
  526MOL0     C72494   7.635   8.843  -0.666 -0.6265 -0.3610 -0.5245
  526MOL0    Cl72495   7.672   8.943  -0.522 -0.0801  0.1173  0.7314
  526MOL0     C72496   8.145   8.198  -0.015  0.6208  0.3561 -0.2553
  526MOL0     C72497   8.257   8.226   0.072 -0.2144 -0.0551 -0.5322
  526MOL0     O72498   8.543   8.540   0.000 -0.1336  0.8091 -0.2602
  526MOL0     C72499   8.580   8.403   0.344  0.1050  0.0673 -1.1330
  526MOL0     C72500   8.676   8.407   0.448 -1.4013 -0.5204 -0.5677
  526MOL0     N72501   9.311   8.185   0.878 -0.1937  0.0287  0.5415
  526MOL0     N72502   9.332   8.080   0.952 -0.1411  0.1136 -0.0944
  526MOL0     C72503   8.069   7.959   1.197 -0.2517  0.2251  0.6529
  526MOL0     C72504   7.950   7.912   1.145  0.2593  1.3694 -0.0292
  526MOL0     C72505   7.587   7.732   1.019  0.7431 -0.4873  0.4540
  526MOL0     C72506   7.553   7.601   1.025 -0.2251  0.6205 -0.3962
  526MOL0     C72507   7.420   7.559   1.012 -0.1811 -0.9119  0.8828
  526MOL0     C72508   7.318   7.652   0.997  0.0332  1.0853  0.0985
  526MOL0     O72509   7.188   7.608   0.963 -0.2378 -0.9563 -0.2035
  526MOL0     C72510   7.084   7.693   0.988  0.1087  0.1534 -0.1758
  526MOL0     C72511   6.954   7.645   0.934  0.3061  1.0775  0.8452
  526MOL0     C72512   6.913   7.505   0.983  0.0212 -0.0829 -0.6295
  526MOL0     C72513   6.767   7.483   0.970 -0.5086 -1.1156  0.1150
  526MOL0     C72514   6.709   7.501   0.834 -0.1743  0.7345 -0.3862
  526MOL0     C72515   6.666   7.513   0.724 -0.9484 -0.7257 -0.5882
  526MOL0     C72516   7.359   7.780   1.021 -0.4302  0.4878 -0.2784
  526MOL0     C72517   7.482   7.826   1.026  0.1547  0.5652  0.5326
  526MOL0     C72518   7.501   7.974   1.022  0.2470 -1.0338 -0.6575
  526MOL0     H72519   7.974   7.583   1.226  0.8004 -0.6469 -4.1486
  526MOL0     H72520   8.198   7.668   1.292 -0.4745  0.2380  1.2732
  526MOL0     H72521   8.378   7.777   1.165  1.6768 -1.0867  1.2076
  526MOL0     H72522   8.419   7.765   1.336 -3.1030  1.5545  2.3871
  526MOL0     H72523   8.488   8.015   1.174 -2.5476  1.2836  4.7193
  526MOL0     H72524   8.569   7.949   1.317  1.2578 -0.9228  0.3049
  526MOL0     H72525   8.655   7.752   1.193  1.7076 -2.3456 -2.8345
  526MOL0     H72526   8.576   7.809   1.045  0.3422  1.2746 -1.4445
  526MOL0     H72527   8.725   8.019   1.055 -1.4751  0.7846  0.9890
  526MOL0     H72528   8.787   7.955   1.207 -0.0633  1.2862 -0.7704
  526MOL0     H72529   8.812   7.827   0.939 -1.6903 -3.9521  0.9811
  526MOL0     H72530   8.861   7.746   1.084  0.5833 -0.5310 -1.5669
  526MOL0     H72531   8.993   8.010   0.976 -0.3051  1.5303  3.2304
  526MOL0     H72532   9.011   7.941   1.128 -0.9648  2.1650 -0.4083
  526MOL0     H72533   9.053   7.815   0.842 -0.6127 -2.3840 -0.3440
  526MOL0     H72534   9.076   7.709   0.979  0.0239 -0.8452 -2.3327
  526MOL0     H72535   9.253   7.862   1.072 -2.0026  0.2691  0.4558
  526MOL0     H72536   9.294   7.776   0.920 -2.0393 -1.3707 -1.4153
  526MOL0     H72537   9.160   7.954   0.698 -2.3805  0.7732  0.7229
  526MOL0     H72538   9.228   8.169   0.548  0.1298 -1.0901  1.2251
  526MOL0     H72539   9.291   8.307   0.638  2.8173 -1.9842  0.3449
  526MOL0     H72540   9.034   8.291   0.530 -1.0200 -0.3023 -0.8614
  526MOL0     H72541   9.015   8.182   0.666  2.3419 -1.3054  0.0671
  526MOL0     H72542   9.022   8.359   0.819  3.8671 -1.1196 -0.9902
  526MOL0     H72543   9.093   8.468   0.698  2.0438 -1.9626 -1.6237
  526MOL0     H72544   8.811   8.341   0.673 -0.2258  0.3271  0.2376
  526MOL0     H72545   8.827   8.499   0.730 -2.8793 -0.6870 -1.2761
  526MOL0     H72546   8.910   8.623   0.326  1.7150 -2.8192 -2.1673
  526MOL0     H72547   8.885   8.692   0.117 -0.6540  2.3157 -0.8643
  526MOL0     H72548   8.720   8.718   0.080  0.5729  1.0894  1.6614
  526MOL0     H72549   8.798   8.564   0.016  0.6279 -1.3694  2.2608
  526MOL0     H72550   8.441   8.405  -0.149 -0.7174  0.5212 -1.5777
  526MOL0     H72551   8.264   8.312  -0.306  1.0110  0.3104  0.0670
  526MOL0     H72552   7.979   8.392  -0.250 -0.1739 -0.5154  0.6703
  526MOL0     H72553   8.025   8.323  -0.399 -0.1410  3.4140 -0.4079
  526MOL0     H72554   7.841   8.142  -0.362  2.3148  0.1419 -2.8476
  526MOL0     H72555   7.770   8.233  -0.237  1.1386 -3.3520  1.0971
  526MOL0     H72556   7.707   8.275  -0.498 -2.1860  0.0604  1.8084
  526MOL0     H72557   7.836   8.396  -0.492 -0.5349  0.0528 -0.6826
  526MOL0     H72558   7.721   8.515  -0.320  1.8424  1.9280 -3.7245
  526MOL0     H72559   7.606   8.380  -0.303  0.7741 -0.5512  1.0805
  526MOL0     H72560   7.521   8.453  -0.543  0.4144  1.4063 -2.0169
  526MOL0     H72561   7.509   8.577  -0.417 -0.7013 -0.2971 -0.8772
  526MOL0     H72562   7.713   8.571  -0.647  0.0546  0.0918 -0.2634
  526MOL0     H72563   7.722   8.674  -0.490  0.9135 -0.9071  1.2788
  526MOL0     H72564   7.480   8.735  -0.582 -0.4055 -0.8589 -0.9094
  526MOL0     H72565   7.538   8.681  -0.735  0.8786 -1.0977  0.5043
  526MOL0     H72566   7.566   8.894  -0.734 -1.1433 -2.5078 -1.7090
  526MOL0     H72567   7.731   8.823  -0.714 -0.7702 -0.3349 -0.8240
  526MOL0     H72568   8.062   8.133   0.011 -0.5851  1.7529 -0.4941
  526MOL0     H72569   8.265   8.176   0.168 -1.7558 -2.2558 -1.4722
  526MOL0     H72570   8.485   8.351   0.350 -0.4749  0.4523 -4.6069
  526MOL0     H72571   8.661   8.347   0.537  1.8323 -1.3624 -0.4825
  526MOL0     H72572   8.103   8.060   1.176  2.3460 -1.0218 -1.7239
  526MOL0     H72573   7.884   7.981   1.093  1.0944  2.2231  0.0177
  526MOL0     H72574   7.622   7.517   1.029  0.7164  1.4298  2.7510
  526MOL0     H72575   7.404   7.452   1.016 -0.0511 -0.9075  1.5693
  526MOL0     H72576   7.080   7.688   1.097  0.6806 -3.5656 -0.1878
  526MOL0     H72577   7.104   7.790   0.942  0.7747  1.1453  2.0923
  526MOL0     H72578   6.960   7.635   0.825  2.3895  1.7978  0.8449
  526MOL0     H72579   6.878   7.717   0.967  1.3314  2.2429  0.7613
  526MOL0     H72580   6.975   7.428   0.936  2.8657  0.1022  2.4314
  526MOL0     H72581   6.936   7.495   1.089  0.6722  2.8534 -0.4136
  526MOL0     H72582   6.716   7.551   1.039  0.0377 -1.2530  0.6577
  526MOL0     H72583   6.754   7.383   1.013 -1.0005 -0.4249  1.6482
  526MOL0     H72584   6.632   7.517   0.622  0.4823 -1.0380 -1.0986
  526MOL0     H72585   7.284   7.859   1.021 -0.2104  0.8520 -3.4023
  526MOL0     H72586   7.518   8.007   0.919  3.1244 -0.9195 -0.2235
  526MOL0     H72587   7.417   8.023   1.072 -1.0074 -3.0382 -0.6539
  526MOL0     H72588   7.582   8.020   1.079 -1.1395  1.4113 -0.5227
  527MOL0     O72589   0.154   3.240   5.769  0.3693  0.1415  0.1153
  527MOL0     C72590   0.070   3.290   5.691 -0.9967  0.9600  0.0799
  527MOL0     O72591  -0.067   3.275   5.701  0.4891 -0.0892 -0.4688
  527MOL0     C72592  -0.118   3.208   5.815 -0.7825 -0.4825 -0.0109
  527MOL0     C72593  -0.081   3.078   5.845  0.0080 -0.0651 -0.1368
  527MOL0     C72594  -0.152   3.012   5.946 -0.7062 -0.5555 -1.4281
  527MOL0     C72595  -0.252   3.073   6.023 -0.1825  0.4392  0.4612
  527MOL0     O72596  -0.316   2.992   6.116 -0.8791 -0.3385 -0.5956
  527MOL0     C72597  -0.445   3.012   6.167  0.2465 -0.1205 -0.4753
  527MOL0     C72598  -0.449   3.066   6.312  0.7400 -0.3814  0.7816
  527MOL0     C72599  -0.589   3.098   6.367  0.3849 -0.0706  0.7985
  527MOL0     C72600  -0.591   3.114   6.524 -0.1801 -0.4534  0.3094
  527MOL0     C72601  -0.722   3.157   6.586  0.6678  0.2768  0.0664
  527MOL0     C72602  -0.846   3.070   6.561 -0.3839  0.0448  0.6240
  527MOL0     C72603  -0.841   2.932   6.632 -0.5714  1.1006  0.4341
  527MOL0     C72604  -0.776   2.815   6.553  0.1142  0.1875  0.0889
  527MOL0     N72605  -0.848   2.774   6.431  0.1113  0.4811  0.5334
  527MOL0     C72606  -0.977   2.804   6.383 -0.0608 -0.5470 -0.7917
  527MOL0     C72607  -0.979   2.755   6.254  0.3033  0.3145 -0.7625
  527MOL0     C72608  -1.087   2.745   6.150 -0.9923 -0.8421  0.1681
  527MOL0     C72609  -1.217   2.690   6.200  0.2318  0.2144 -0.6736
  527MOL0     C72610  -1.232   2.536   6.202  0.4654  0.2377  0.1804
  527MOL0     C72611  -1.374   2.482   6.251 -0.7439 -0.0163  0.0214
  527MOL0     O72612  -1.485   2.531   6.179  0.0089 -0.2086 -0.2201
  527MOL0     C72613  -1.571   2.630   6.233 -0.8130  0.6721  0.5258
  527MOL0     C72614  -1.631   2.724   6.145  0.4094  0.4361  0.2107
  527MOL0     C72615  -1.746   2.796   6.168 -0.2483  0.3568  0.3764
  527MOL0     C72616  -1.799   2.899   6.066  0.3578  0.9874  0.4559
  527MOL0     C72617  -1.793   2.785   6.296  0.2064 -0.4567  0.1053
  527MOL0     C72618  -1.893   2.887   6.324 -0.6404  0.1711  1.0382
  527MOL0     O72619  -2.018   2.863   6.313  0.4416  0.5887 -0.6137
  527MOL0     C72620  -2.072   2.746   6.268 -0.2691  0.0385  0.7601
  527MOL0     C72621  -2.081   2.636   6.352 -0.1193 -0.1360 -0.2818
  527MOL0     C72622  -2.140   2.517   6.308 -0.1144  1.2009  0.2505
  527MOL0     C72623  -2.209   2.506   6.185 -0.7218  0.6414 -0.6715
  527MOL0     O72624  -2.285   2.402   6.146  0.2761  0.1742  0.2194
  527MOL0     C72625  -2.207   2.283   6.130 -0.4982 -0.1276 -0.6522
  527MOL0     C72626  -2.276   2.187   6.031 -0.3834 -0.7443 -0.8547
  527MOL0     C72627  -2.328   2.073   6.115 -0.2137  1.2302  0.1712
  527MOL0     C72628  -2.445   1.994   6.045  0.2432  0.1548 -0.5386
  527MOL0     C72629  -2.472   1.870   6.149 -0.3261 -0.1056  0.8500
  527MOL0     C72630  -2.622   1.814   6.141 -0.3078 -0.0633  0.6955
  527MOL0     C72631  -2.649   1.719   6.260 -0.4190  1.0328 -0.0386
  527MOL0     C72632  -2.781   1.645   6.230 -0.7200  0.0129  0.4586
  527MOL0    Cl72633  -2.822   1.522   6.356  0.2259  0.1847  0.2294
  527MOL0     C72634  -2.203   2.619   6.112 -0.2990 -0.1300  0.7201
  527MOL0     C72635  -2.139   2.736   6.146 -0.1866 -0.4668  0.2541
  527MOL0     O72636  -1.861   2.999   6.370  0.0205  0.9840 -0.3142
  527MOL0     C72637  -1.728   2.711   6.391 -1.0970  0.7876 -0.4325
  527MOL0     C72638  -1.620   2.623   6.365 -0.1493  0.1831  0.1469
  527MOL0     N72639  -0.865   2.672   6.246  0.2803 -0.4653 -0.4721
  527MOL0     N72640  -0.789   2.689   6.343  0.1363  0.5448 -0.0645
  527MOL0     C72641  -0.280   3.205   5.991  0.3064  0.2171  0.0433
  527MOL0     C72642  -0.211   3.268   5.896 -0.3681 -0.2601  0.6141
  527MOL0     C72643   0.127   3.368   5.587 -0.0666 -0.4065 -0.6054
  527MOL0     C72644   0.052   3.472   5.545 -0.5335  0.4112  0.6353
  527MOL0     C72645   0.101   3.559   5.455 -0.7242  0.0604 -0.0103
  527MOL0     C72646   0.218   3.537   5.388 -0.2159  0.3146  0.9130
  527MOL0     O72647   0.246   3.622   5.284  0.0628  0.6977 -1.3597
  527MOL0     C72648   0.189   3.575   5.166  0.4345  0.0252 -0.6685
  527MOL0     C72649   0.299   3.548   5.060  0.4673  0.9800  0.5627
  527MOL0     C72650   0.378   3.669   5.045  0.4811  1.0349 -0.4157
  527MOL0     C72651   0.478   3.665   4.928  0.3825 -0.9242 -0.1048
  527MOL0     C72652   0.404   3.660   4.802  0.6133 -0.6365  0.5777
  527MOL0     C72653   0.347   3.668   4.691 -0.4208  0.6501 -1.0286
  527MOL0     C72654   0.299   3.433   5.428  0.5253  0.9106 -0.0094
  527MOL0     C72655   0.257   3.344   5.526  0.6506 -0.0991 -0.0487
  527MOL0     C72656   0.343   3.232   5.563  0.4798 -0.1295 -0.6013
  527MOL0     H72657  -0.011   3.015   5.791 -0.0355 -0.8458  0.6935
  527MOL0     H72658  -0.116   2.910   5.960  0.9038  0.0062 -1.3299
  527MOL0     H72659  -0.504   2.921   6.174 -2.9949  1.7962 -0.6743
  527MOL0     H72660  -0.504   3.081   6.104 -0.3581 -0.6744 -0.5276
  527MOL0     H72661  -0.402   2.998   6.384  0.9027  1.2547  2.2685
  527MOL0     H72662  -0.380   3.151   6.312  4.1147 -2.8934  0.0489
  527MOL0     H72663  -0.629   3.185   6.313 -2.9439 -0.7936  1.8374
  527MOL0     H72664  -0.663   3.021   6.344 -2.0092  1.4854  2.7375
  527MOL0     H72665  -0.565   3.018   6.568  0.6748 -0.1585  0.4596
  527MOL0     H72666  -0.522   3.191   6.560 -0.6639  0.0746  0.1282
  527MOL0     H72667  -0.746   3.260   6.560  3.1958  0.7348 -0.6919
  527MOL0     H72668  -0.706   3.159   6.694 -2.4744 -0.5525  0.6323
  527MOL0     H72669  -0.932   3.124   6.604  0.2206  2.1711 -0.7093
  527MOL0     H72670  -0.869   3.064   6.454 -0.2028  5.6062 -0.0162
  527MOL0     H72671  -0.941   2.896   6.657 -1.5094  0.5772 -3.3611
  527MOL0     H72672  -0.783   2.938   6.724  2.1966 -0.0660 -1.0796
  527MOL0     H72673  -0.673   2.848   6.534 -0.5942  0.9887 -2.8507
  527MOL0     H72674  -0.776   2.728   6.619 -1.5547 -1.0773 -1.4937
  527MOL0     H72675  -1.049   2.875   6.423 -2.6953 -3.4815  0.1072
  527MOL0     H72676  -1.045   2.694   6.063 -3.3089 -0.0064 -1.5400
  527MOL0     H72677  -1.119   2.845   6.118  2.2032  0.4146  0.5678
  527MOL0     H72678  -1.233   2.721   6.304 -3.5174 -1.4429 -0.6062
  527MOL0     H72679  -1.303   2.742   6.158  0.7550  1.1934 -0.5500
  527MOL0     H72680  -1.211   2.504   6.099  0.9194  2.5226 -0.4952
  527MOL0     H72681  -1.153   2.489   6.263 -0.6967 -1.7788  0.2324
  527MOL0     H72682  -1.361   2.374   6.250  3.3853  0.3204  0.4238
  527MOL0     H72683  -1.392   2.506   6.357  0.5296  0.0786  0.2244
  527MOL0     H72684  -1.589   2.735   6.045  0.7614 -2.5383 -0.0434
  527MOL0     H72685  -1.721   2.913   5.990  1.1723 -0.2090  1.0454
  527MOL0     H72686  -1.832   2.997   6.102 -0.6801  0.8195 -0.0022
  527MOL0     H72687  -1.874   2.844   6.009  2.0581 -1.4596  0.4338
  527MOL0     H72688  -2.045   2.638   6.454 -2.2884 -0.9528  0.5673
  527MOL0     H72689  -2.151   2.431   6.373 -1.5557 -0.1394 -1.6340
  527MOL0     H72690  -2.108   2.309   6.092 -0.1207  1.0713  1.0640
  527MOL0     H72691  -2.191   2.240   6.229 -3.7592  2.2020  1.0730
  527MOL0     H72692  -2.364   2.243   5.999  0.2299 -0.2348 -1.6726
  527MOL0     H72693  -2.219   2.165   5.941 -2.1120 -1.2146 -1.8810
  527MOL0     H72694  -2.359   2.112   6.212 -3.8758 -2.1509  0.6114
  527MOL0     H72695  -2.249   2.000   6.137  0.1369  1.3418 -0.6737
  527MOL0     H72696  -2.423   1.960   5.944 -0.9958 -0.5870 -0.5816
  527MOL0     H72697  -2.540   2.048   6.035 -1.0033 -1.9010 -0.6272
  527MOL0     H72698  -2.404   1.785   6.136 -0.3438  0.1384 -1.0598
  527MOL0     H72699  -2.450   1.892   6.254  3.6030 -0.0799  0.1753
  527MOL0     H72700  -2.639   1.774   6.041  3.4755  0.7844 -0.4363
  527MOL0     H72701  -2.686   1.902   6.153 -1.5735 -0.6261 -1.3590
  527MOL0     H72702  -2.658   1.779   6.352  2.8945  1.0528  0.3782
  527MOL0     H72703  -2.568   1.647   6.271  0.6019  2.1776  0.2277
  527MOL0     H72704  -2.766   1.591   6.136 -2.7605  2.3893 -1.3788
  527MOL0     H72705  -2.860   1.717   6.203 -2.5949 -2.3186 -0.6168
  527MOL0     H72706  -2.264   2.631   6.023 -0.7480  2.0351  1.2696
  527MOL0     H72707  -2.140   2.821   6.079  0.7879 -1.7484 -1.4754
  527MOL0     H72708  -1.758   2.716   6.495  1.8191 -0.3854  0.5780
  527MOL0     H72709  -1.583   2.556   6.442  1.8873  0.1481 -0.7975
  527MOL0     H72710  -0.347   3.258   6.058 -0.8353  0.1643 -1.0234
  527MOL0     H72711  -0.230   3.372   5.870  1.6497 -0.2516 -1.1523
  527MOL0     H72712  -0.052   3.469   5.579 -0.5113 -0.8123  0.6268
  527MOL0     H72713   0.039   3.643   5.425 -3.3678 -1.6553  0.2839
  527MOL0     H72714   0.123   3.487   5.163  1.1798 -0.5423 -3.2507
  527MOL0     H72715   0.119   3.656   5.143  3.1070  2.8541  0.5814
  527MOL0     H72716   0.261   3.503   4.968 -2.0118  2.1174  0.9588
  527MOL0     H72717   0.353   3.465   5.106  0.6860  2.1538  2.5435
  527MOL0     H72718   0.301   3.745   5.026 -2.9122 -1.7626  1.1282
  527MOL0     H72719   0.418   3.691   5.144 -2.4255  0.5109  0.9827
  527MOL0     H72720   0.544   3.580   4.948  0.0655 -1.0307  0.5070
  527MOL0     H72721   0.529   3.762   4.933  1.2608 -1.1272 -3.1423
  527MOL0     H72722   0.310   3.679   4.591 -1.4640 -0.7556 -0.8185
  527MOL0     H72723   0.390   3.417   5.371 -0.9942  2.2951 -3.0614
  527MOL0     H72724   0.289   3.143   5.594  2.4672 -1.6385 -1.2498
  527MOL0     H72725   0.407   3.200   5.480 -0.3578  0.5843 -1.5520
  527MOL0     H72726   0.409   3.265   5.644 -0.4745 -0.7873  0.4577
  528MOL0     O72727   1.057  10.384   6.176 -0.4340 -0.1788 -0.4526
  528MOL0     C72728   0.961  10.339   6.236  0.4445 -0.0736 -0.2693
  528MOL0     O72729   0.951  10.315   6.368 -0.2584 -0.0799  0.0568
  528MOL0     C72730   1.029  10.373   6.461  0.2667 -0.3004 -1.0777
  528MOL0     C72731   0.981  10.368   6.595  0.1488  0.3993  0.7851
  528MOL0     C72732   1.038  10.440   6.701  1.0209  0.1703  0.4319
  528MOL0     C72733   1.150  10.516   6.667  0.1536  0.3332 -0.5819
  528MOL0     O72734   1.218  10.592   6.759 -0.5761  0.1998  0.0816
  528MOL0     C72735   1.237  10.518   6.885  0.6001  0.3548 -0.2191
  528MOL0     C72736   1.351  10.574   6.975 -0.6399 -0.1040  0.6145
  528MOL0     C72737   1.312  10.696   7.062 -0.3063  0.0354  0.9520
  528MOL0     C72738   1.430  10.747   7.131  0.2510 -0.1976  0.5861
  528MOL0     C72739   1.403  10.875   7.216  0.0242 -0.2222  0.8316
  528MOL0     C72740   1.541  10.924   7.276  0.0176 -0.0919 -0.2026
  528MOL0     C72741   1.517  11.051   7.348 -0.4434  0.1953 -0.1739
  528MOL0     C72742   1.650  11.130   7.381  1.0731  0.4646 -0.9502
  528MOL0     N72743   1.624  11.232   7.486  0.3272 -0.0661 -0.3095
  528MOL0     C72744   1.689  11.232   7.615  0.5204 -0.1730 -0.0836
  528MOL0     C72745   1.606  11.301   7.697 -0.3402  0.0631 -0.3747
  528MOL0     C72746   1.635  11.322   7.838 -0.3077  0.5567 -0.6698
  528MOL0     C72747   1.718  11.456   7.873  0.4387 -0.0364 -0.4263
  528MOL0     C72748   1.680  11.566   7.784 -0.7492 -0.8464 -0.2962
  528MOL0     C72749   1.554  11.617   7.827  0.3772  0.2586  0.0065
  528MOL0     O72750   1.529  11.743   7.760 -0.3161  0.5009 -0.7031
  528MOL0     C72751   1.420  11.812   7.795 -0.9150 -0.2928 -0.8448
  528MOL0     C72752   1.334  11.782   7.905  0.2391 -0.6864  0.3279
  528MOL0     C72753   1.215  11.846   7.933 -0.6517  0.9022 -0.0180
  528MOL0     C72754   1.134  11.785   8.051 -0.1749 -0.2900  0.5962
  528MOL0     C72755   1.190  11.965   7.867 -0.7588 -1.2505  1.1392
  528MOL0     C72756   1.077  12.059   7.889  0.4085  0.0568  0.0041
  528MOL0     O72757   0.985  12.011   7.982  0.3798  0.1668  0.2030
  528MOL0     C72758   0.889  12.096   8.031 -0.8293 -0.4986  0.3998
  528MOL0     C72759   0.925  12.175   8.143 -0.0134 -0.1923  0.7116
  528MOL0     C72760   0.823  12.245   8.202  0.0844 -0.0105 -0.5227
  528MOL0     C72761   0.692  12.231   8.157  1.4650  0.1069  0.6290
  528MOL0     O72762   0.598  12.312   8.224 -0.2970 -0.0436  1.1264
  528MOL0     C72763   0.502  12.386   8.137 -0.0515  0.1850  0.0036
  528MOL0     C72764   0.513  12.527   8.207 -0.2751  0.5867  0.4576
  528MOL0     C72765   0.659  12.602   8.196  0.9536 -0.4994  0.2968
  528MOL0     C72766   0.680  12.662   8.063 -0.5300 -1.0660  0.6258
  528MOL0     C72767   0.800  12.760   8.065 -0.2175  0.2559 -0.6822
  528MOL0     C72768   0.787  12.883   8.156  0.4113  0.5526 -0.2686
  528MOL0     C72769   0.688  12.989   8.100  0.6300  0.7210 -0.2589
  528MOL0     C72770   0.686  13.100   8.204  0.9519  0.1035 -0.5396
  528MOL0    Cl72771   0.612  13.244   8.132 -0.0592 -0.3219  0.0260
  528MOL0     C72772   0.660  12.145   8.050  0.1875  0.9692  0.9591
  528MOL0     C72773   0.765  12.079   7.987  0.3919  0.8037  0.2091
  528MOL0     O72774   1.075  12.170   7.835  0.4753  0.4502 -0.4823
  528MOL0     C72775   1.278  12.010   7.760 -0.5277  0.7253 -0.2268
  528MOL0     C72776   1.397  11.935   7.736 -0.0664  0.1426 -0.0564
  528MOL0     N72777   1.487  11.335   7.626 -0.0692 -0.7439  0.3669
  528MOL0     N72778   1.500  11.287   7.507 -0.1604  0.3934 -0.4161
  528MOL0     C72779   1.214  10.518   6.545 -0.1514  0.0632 -0.1697
  528MOL0     C72780   1.142  10.453   6.439  0.1055 -0.3899 -0.0685
  528MOL0     C72781   0.841  10.291   6.153  1.0374  0.1088  0.1628
  528MOL0     C72782   0.857  10.273   6.018 -0.4527  0.4023  0.9008
  528MOL0     C72783   0.758  10.226   5.925 -0.0543  0.2580 -0.2498
  528MOL0     C72784   0.633  10.193   5.980 -1.1407  0.7141  0.2161
  528MOL0     O72785   0.543  10.147   5.889  1.0485 -0.4952 -0.2004
  528MOL0     C72786   0.404  10.109   5.925 -0.8341 -0.2537  0.1963
  528MOL0     C72787   0.320  10.227   5.950 -0.1186 -0.6731 -0.2604
  528MOL0     C72788   0.203  10.176   6.034 -0.3618 -0.7201 -0.3107
  528MOL0     C72789   0.096  10.295   6.073  0.4286  1.5906 -0.4203
  528MOL0     C72790   0.157  10.388   6.166 -0.8907  0.8393  0.3706
  528MOL0     C72791   0.197  10.470   6.248 -0.0564  0.2876  0.0449
  528MOL0     C72792   0.610  10.211   6.115  1.3151 -0.2683 -0.5716
  528MOL0     C72793   0.708  10.249   6.198 -0.5207  0.4094 -0.1089
  528MOL0     C72794   0.668  10.269   6.346 -0.2347 -0.4793  0.1802
  528MOL0     H72795   0.900  10.297   6.612  2.1996 -2.0258  0.9917
  528MOL0     H72796   0.992  10.431   6.799 -2.3954 -1.0310 -1.1224
  528MOL0     H72797   1.260  10.413   6.868 -1.3544 -1.0788  4.4593
  528MOL0     H72798   1.143  10.512   6.940 -0.0591 -1.4682 -1.4481
  528MOL0     H72799   1.388  10.498   7.044  1.0361  1.4766  1.5352
  528MOL0     H72800   1.430  10.611   6.909 -0.3568 -0.8281  0.5319
  528MOL0     H72801   1.281  10.783   7.004 -2.5814 -1.5150 -0.2943
  528MOL0     H72802   1.230  10.670   7.130 -2.8613  1.3268 -1.4455
  528MOL0     H72803   1.453  10.672   7.207 -2.3334 -2.6178 -0.8029
  528MOL0     H72804   1.506  10.760   7.053 -2.2249 -1.8949 -2.3736
  528MOL0     H72805   1.321  10.869   7.287 -2.2969  0.4685 -1.6373
  528MOL0     H72806   1.371  10.954   7.147  1.0555 -0.4413  0.0736
  528MOL0     H72807   1.579  10.841   7.336 -0.2067  0.1710  0.3050
  528MOL0     H72808   1.611  10.946   7.195  0.8728  1.5971  0.9311
  528MOL0     H72809   1.445  11.048   7.430 -0.4637  0.3743 -0.1838
  528MOL0     H72810   1.472  11.123   7.279 -3.1623 -1.7981 -0.6636
  528MOL0     H72811   1.728  11.062   7.416  2.0054 -0.5745 -4.5821
  528MOL0     H72812   1.695  11.183   7.297 -3.9668  3.2834 -2.2924
  528MOL0     H72813   1.786  11.185   7.629  0.9248  0.9197  1.0538
  528MOL0     H72814   1.693  11.236   7.871 -0.3462  0.5972 -0.4932
  528MOL0     H72815   1.541  11.328   7.894  1.9322 -0.6201  3.6856
  528MOL0     H72816   1.698  11.490   7.976 -0.5910  0.1949 -0.6894
  528MOL0     H72817   1.823  11.426   7.869  1.2910  2.1255  2.1122
  528MOL0     H72818   1.752  11.646   7.801 -1.2242 -1.1707  4.2695
  528MOL0     H72819   1.686  11.541   7.678  0.5085 -1.1543 -0.1638
  528MOL0     H72820   1.481  11.542   7.796 -0.7647  1.2980  0.0897
  528MOL0     H72821   1.546  11.633   7.935  1.5180 -0.1927  0.1692
  528MOL0     H72822   1.348  11.693   7.965 -2.1034 -2.4936 -1.5717
  528MOL0     H72823   1.111  11.867   8.120  1.1815  1.3060 -0.7587
  528MOL0     H72824   1.172  11.699   8.106 -0.1689 -0.1238  0.8522
  528MOL0     H72825   1.036  11.758   8.011 -0.0325  0.0831 -0.0147
  528MOL0     H72826   1.024  12.189   8.187 -0.7678  1.0307  2.0987
  528MOL0     H72827   0.837  12.306   8.290  0.7968  0.8765 -1.2366
  528MOL0     H72828   0.518  12.371   8.030 -0.6926 -2.7989  0.2499
  528MOL0     H72829   0.402  12.346   8.150  0.9122 -2.8077 -1.0525
  528MOL0     H72830   0.435  12.586   8.159 -0.0593 -0.3295 -1.0799
  528MOL0     H72831   0.489  12.513   8.313 -3.4013 -1.7971 -0.3776
  528MOL0     H72832   0.740  12.536   8.231  0.4649 -0.3933  1.6857
  528MOL0     H72833   0.653  12.691   8.259  3.1048  0.1045 -0.2500
  528MOL0     H72834   0.588  12.708   8.024 -0.0162  0.0519  0.6871
  528MOL0     H72835   0.694  12.584   7.988 -0.8495  0.4669 -1.1054
  528MOL0     H72836   0.886  12.695   8.086  0.2221  0.6078 -1.3665
  528MOL0     H72837   0.827  12.797   7.966  2.2565  0.0522 -0.1658
  528MOL0     H72838   0.888  12.927   8.150 -0.2009  1.9078 -1.1620
  528MOL0     H72839   0.752  12.849   8.254  2.7094 -1.2440  0.0170
  528MOL0     H72840   0.593  12.941   8.076  1.9672 -2.1518 -0.2173
  528MOL0     H72841   0.712  13.029   8.001 -3.3928 -1.5603 -2.3914
  528MOL0     H72842   0.788  13.129   8.231  0.8831 -1.1273  1.2048
  528MOL0     H72843   0.649  13.065   8.301  0.2498  0.6319 -0.6018
  528MOL0     H72844   0.562  12.137   8.005  0.1873  0.2624  1.0799
  528MOL0     H72845   0.739  12.013   7.905  3.7449  1.7677 -1.8372
  528MOL0     H72846   1.258  12.096   7.698  0.2976  0.6576 -0.5956
  528MOL0     H72847   1.473  11.957   7.660  0.8630 -0.0355  0.8000
  528MOL0     H72848   1.307  10.569   6.522 -1.5074  4.0329  2.1964
  528MOL0     H72849   1.178  10.464   6.337 -1.2820  1.2371 -0.4373
  528MOL0     H72850   0.954  10.296   5.975 -1.1398  1.9866  0.1096
  528MOL0     H72851   0.779  10.227   5.818 -3.4818  3.6069 -1.0943
  528MOL0     H72852   0.354  10.056   5.843  1.8520  1.0198 -2.4581
  528MOL0     H72853   0.425  10.043   6.010  1.8921  0.8893  0.4938
  528MOL0     H72854   0.284  10.265   5.854 -1.1458 -2.4545 -0.6332
  528MOL0     H72855   0.375  10.295   6.015  0.7063 -0.6750 -0.9436
  528MOL0     H72856   0.145  10.098   5.985  3.1288 -2.5184 -1.9275
  528MOL0     H72857   0.244  10.128   6.123 -0.0696 -1.1742 -0.6883
  528MOL0     H72858   0.006  10.248   6.114  1.8394 -0.4652  0.5213
  528MOL0     H72859   0.071  10.355   5.985 -1.1413  2.0021  0.2764
  528MOL0     H72860   0.222  10.532   6.332 -0.1990 -0.5268  0.6949
  528MOL0     H72861   0.516  10.178   6.160  0.5741 -2.3609 -3.3926
  528MOL0     H72862   0.668  10.375   6.376 -1.4843 -0.1924 -0.7172
  528MOL0     H72863   0.564  10.242   6.368 -0.9594  2.6169  1.1700
  528MOL0     H72864   0.740  10.223   6.414 -0.9963 -1.2166  0.5162
  529MOL0     O72865  11.377   9.528   7.781  0.1720  0.1303 -0.0543
  529MOL0     C72866  11.480   9.592   7.779 -0.4528  0.3267  0.9220
  529MOL0     O72867  11.493   9.729   7.788  0.4298  0.3894 -0.2804
  529MOL0     C72868  11.387   9.808   7.749  0.3322 -0.4898  0.5476
  529MOL0     C72869  11.333   9.812   7.619 -0.5034 -0.5532  0.3169
  529MOL0     C72870  11.234   9.902   7.580 -0.0493  0.1464  0.3256
  529MOL0     C72871  11.181   9.989   7.676  0.2757 -0.4983 -0.7650
  529MOL0     O72872  11.083  10.077   7.650  0.6663  0.1813  0.7853
  529MOL0     C72873  11.129  10.199   7.589  0.6175 -0.4920  0.2192
  529MOL0     C72874  11.187  10.310   7.682  0.7585  0.0517 -0.2382
  529MOL0     C72875  11.093  10.328   7.794 -0.2672  0.2259  0.5936
  529MOL0     C72876  10.958  10.393   7.754 -0.1354 -1.1569  1.7855
  529MOL0     C72877  10.878  10.431   7.877  0.5086 -0.2019 -0.0259
  529MOL0     C72878  10.731  10.452   7.847 -0.8718 -0.2914 -0.6199
  529MOL0     C72879  10.720  10.600   7.799  0.3123  0.4365  0.6353
  529MOL0     C72880  10.569  10.636   7.773 -0.2699  0.2301  0.1500
  529MOL0     N72881  10.548  10.676   7.629  0.2698  0.0597  0.0105
  529MOL0     C72882  10.563  10.798   7.571 -0.1125  0.4915 -0.7977
  529MOL0     C72883  10.545  10.780   7.439 -0.9437 -0.0131  0.5692
  529MOL0     C72884  10.550  10.892   7.327  0.1692  0.3449 -1.0388
  529MOL0     C72885  10.470  10.852   7.206  0.0912  0.1508  0.0495
  529MOL0     C72886  10.318  10.819   7.233  0.1695  0.6208 -0.3288
  529MOL0     C72887  10.250  10.896   7.348  0.2959  0.5006  0.3432
  529MOL0     O72888  10.249  11.037   7.331 -0.9624 -0.5973  0.4527
  529MOL0     C72889  10.174  11.104   7.417 -0.2975  0.6476  0.3474
  529MOL0     C72890  10.111  11.049   7.531  0.0253 -0.1351  0.3066
  529MOL0     C72891  10.027  11.128   7.622  0.8606  0.3779 -0.2581
  529MOL0     C72892   9.970  11.069   7.750  0.7329  0.5428  0.0425
  529MOL0     C72893  10.049  11.270   7.607 -0.4072  0.4006  0.5112
  529MOL0     C72894  10.005  11.363   7.716  0.5616 -0.3977 -0.4987
  529MOL0     O72895  10.069  11.483   7.710 -0.0825 -0.5401 -0.1995
  529MOL0     C72896  10.012  11.589   7.769 -0.0323 -0.7488  0.1683
  529MOL0     C72897  10.097  11.675   7.849  0.9983 -0.8572 -0.0869
  529MOL0     C72898  10.035  11.787   7.905 -1.3643 -0.0029  0.0967
  529MOL0     C72899   9.906  11.813   7.878  0.0016 -0.3820 -1.0825
  529MOL0     O72900   9.850  11.929   7.930  0.1940 -0.1078 -0.2198
  529MOL0     C72901   9.725  11.920   8.001  1.5450 -0.3745 -0.3611
  529MOL0     C72902   9.750  11.873   8.143 -0.0756  0.0702 -0.3180
  529MOL0     C72903   9.785  11.724   8.159  0.1228 -0.8322  0.7698
  529MOL0     C72904   9.875  11.693   8.276  0.0379  0.3078 -0.4733
  529MOL0     C72905   9.909  11.541   8.277 -0.1794 -0.6488 -0.3413
  529MOL0     C72906  10.032  11.517   8.198 -0.4412 -1.4398  0.0887
  529MOL0     C72907  10.094  11.381   8.223  0.3119  0.8322 -0.2066
  529MOL0     C72908  10.207  11.341   8.127  0.0419 -0.1402 -0.1055
  529MOL0    Cl72909  10.251  11.173   8.176  0.3568  0.0628  0.3152
  529MOL0     C72910   9.821  11.740   7.791  0.0447  0.1428  0.6762
  529MOL0     C72911   9.870  11.617   7.745 -0.2138 -0.0022 -0.0001
  529MOL0     O72912   9.921  11.325   7.801  0.1202 -0.4459  0.3556
  529MOL0     C72913  10.109  11.321   7.491 -0.7778  0.3811 -0.0656
  529MOL0     C72914  10.180  11.245   7.407 -0.2201  0.9624  0.1409
  529MOL0     N72915  10.540  10.643   7.416  0.0800 -0.7651 -0.3860
  529MOL0     N72916  10.537  10.583   7.529  0.3135 -0.4509  0.8641
  529MOL0     C72917  11.221   9.979   7.810  0.2034  0.2570  0.0785
  529MOL0     C72918  11.319   9.888   7.843 -0.3672 -0.7766  0.2710
  529MOL0     C72919  11.605   9.514   7.795 -0.8921  1.4921 -0.3315
  529MOL0     C72920  11.613   9.421   7.904  0.3735 -0.1470 -0.1890
  529MOL0     C72921  11.735   9.349   7.922  0.7105 -0.4493 -0.1302
  529MOL0     C72922  11.845   9.361   7.840 -0.4823 -0.5557  0.9498
  529MOL0     O72923  11.960   9.290   7.866 -0.8969  0.1979  0.2075
  529MOL0     C72924  12.077   9.309   7.784 -0.1014 -0.5770  0.3612
  529MOL0     C72925  12.169   9.426   7.839 -0.0859  0.7519 -1.0408
  529MOL0     C72926  12.319   9.442   7.800  0.2183  0.3801 -0.2885
  529MOL0     C72927  12.371   9.580   7.845 -0.2043 -0.0918 -0.6968
  529MOL0     C72928  12.358   9.668   7.730 -0.1125  0.5173  0.2865
  529MOL0     C72929  12.367   9.750   7.640  0.2193  0.1075 -0.4945
  529MOL0     C72930  11.840   9.461   7.740  0.1296  0.0551 -0.7121
  529MOL0     C72931  11.724   9.527   7.715  0.1748 -1.1047  0.1781
  529MOL0     C72932  11.717   9.617   7.585  0.9870  0.5654 -0.1072
  529MOL0     H72933  11.383   9.756   7.541  0.8786  0.7982  0.1934
  529MOL0     H72934  11.211   9.929   7.477  2.3689 -0.8712 -0.5474
  529MOL0     H72935  11.051  10.252   7.534  1.1274 -2.1935 -2.3167
  529MOL0     H72936  11.200  10.161   7.515 -0.2099  0.1032 -0.9241
  529MOL0     H72937  11.279  10.267   7.720  2.1282  1.8809 -1.3212
  529MOL0     H72938  11.210  10.407   7.638  0.7698  0.3898  0.5198
  529MOL0     H72939  11.078  10.230   7.839  2.3300  0.8656  3.1192
  529MOL0     H72940  11.137  10.400   7.864  2.0748  1.2344 -1.7352
  529MOL0     H72941  10.978  10.482   7.694 -0.7625 -2.2650 -0.1782
  529MOL0     H72942  10.903  10.324   7.689 -1.4445  1.3935  0.0143
  529MOL0     H72943  10.933  10.505   7.935  1.0256  0.8620 -1.7993
  529MOL0     H72944  10.872  10.346   7.945 -4.4155 -1.8963 -2.1274
  529MOL0     H72945  10.682  10.390   7.771 -2.1214 -0.2821  0.1470
  529MOL0     H72946  10.670  10.441   7.937 -0.8076  0.7855 -0.4284
  529MOL0     H72947  10.785  10.616   7.713  0.8383  3.0259  1.4510
  529MOL0     H72948  10.756  10.671   7.874 -1.5481  1.1019  0.9461
  529MOL0     H72949  10.508  10.548   7.797 -0.7634  0.4909 -0.1164
  529MOL0     H72950  10.550  10.716   7.844  3.3177  1.6046 -0.2241
  529MOL0     H72951  10.569  10.895   7.619 -0.8490  0.1730 -0.0357
  529MOL0     H72952  10.652  10.917   7.297 -0.6681  2.4340 -2.3651
  529MOL0     H72953  10.509  10.981   7.376  1.1172  0.4493 -0.4038
  529MOL0     H72954  10.479  10.937   7.138 -0.5738 -1.3720 -2.0705
  529MOL0     H72955  10.517  10.771   7.150  0.9003  1.5104 -1.2867
  529MOL0     H72956  10.268  10.849   7.140  0.2467 -0.2893 -0.6694
  529MOL0     H72957  10.306  10.713   7.254 -1.2081  0.7495 -0.3759
  529MOL0     H72958  10.148  10.861   7.367  0.7368 -0.7686  0.4788
  529MOL0     H72959  10.310  10.878   7.438  2.5060  0.9454 -0.9521
  529MOL0     H72960  10.130  10.947   7.562  0.4961  0.2076  1.1734
  529MOL0     H72961   9.863  11.084   7.766  1.1208  1.6943  1.9084
  529MOL0     H72962  10.012  11.102   7.845 -4.0933  1.0206  2.3154
  529MOL0     H72963   9.986  10.960   7.745 -1.6329  0.1671 -0.5079
  529MOL0     H72964  10.200  11.659   7.879  1.2462  1.2976  0.3411
  529MOL0     H72965  10.103  11.859   7.948  2.5551 -1.4224 -3.1065
  529MOL0     H72966   9.671  12.015   8.003 -0.3693 -1.4307  1.3490
  529MOL0     H72967   9.655  11.858   7.945 -1.0285  1.5848  0.5222
  529MOL0     H72968   9.829  11.937   8.183  0.3458  0.2085 -1.3474
  529MOL0     H72969   9.659  11.882   8.204 -0.1718 -2.0972 -0.0838
  529MOL0     H72970   9.833  11.694   8.065  1.7948  2.9977  0.2217
  529MOL0     H72971   9.687  11.677   8.157  0.0262 -0.6578  1.2997
  529MOL0     H72972   9.818  11.705   8.368  2.7385 -1.8693  1.6686
  529MOL0     H72973   9.961  11.760   8.287  0.6918 -0.5987  0.1272
  529MOL0     H72974   9.937  11.512   8.379  1.5222  0.0987 -0.5667
  529MOL0     H72975   9.827  11.485   8.232 -0.5562  1.4653 -2.4496
  529MOL0     H72976  10.105  11.594   8.221 -0.6454 -1.5835  1.2505
  529MOL0     H72977  10.004  11.517   8.092 -0.8669  0.1166  0.1803
  529MOL0     H72978  10.020  11.302   8.211  0.0382  1.0456  0.0554
  529MOL0     H72979  10.132  11.379   8.326  0.9178 -3.1764 -0.3449
  529MOL0     H72980  10.296  11.405   8.134 -1.3525  2.0382 -1.1968
  529MOL0     H72981  10.177  11.347   8.022  1.6050  2.0344 -0.5168
  529MOL0     H72982   9.720  11.768   7.761 -0.4840  0.5836  2.7418
  529MOL0     H72983   9.804  11.550   7.692 -0.4178 -1.8959  2.5034
  529MOL0     H72984  10.108  11.428   7.478  2.7460  0.7291  1.3961
  529MOL0     H72985  10.231  11.299   7.327 -0.5188  4.2539  1.9781
  529MOL0     H72986  11.178  10.042   7.887 -1.4764  0.3386 -0.8595
  529MOL0     H72987  11.358   9.878   7.944 -1.5877 -0.7518  0.7645
  529MOL0     H72988  11.531   9.391   7.969 -0.2060  1.5834 -0.0529
  529MOL0     H72989  11.761   9.291   8.010 -2.2831 -0.9660  0.5533
  529MOL0     H72990  12.127   9.212   7.792 -2.0975 -1.7976 -0.9575
  529MOL0     H72991  12.055   9.316   7.677 -2.0389 -0.0108  0.7542
  529MOL0     H72992  12.165   9.422   7.949 -2.1390  1.0573 -1.0571
  529MOL0     H72993  12.113   9.516   7.812  0.0660  1.4423  0.7921
  529MOL0     H72994  12.373   9.359   7.847 -1.9844 -1.2548 -0.4975
  529MOL0     H72995  12.314   9.424   7.692  0.7944 -0.1340 -0.2414
  529MOL0     H72996  12.474   9.555   7.871  0.0798  1.4961 -0.1884
  529MOL0     H72997  12.327   9.624   7.935  2.0344  1.0149 -0.0628
  529MOL0     H72998  12.393   9.806   7.552  3.5652  0.3771  0.5573
  529MOL0     H72999  11.919   9.473   7.666  0.7610 -2.7010 -0.5892
  529MOL0     H73000  11.696   9.715   7.629  1.1115 -0.2031  1.7412
  529MOL0     H73001  11.812   9.624   7.532 -0.3190  0.2676 -2.6218
  529MOL0     H73002  11.651   9.583   7.505  3.3450  1.7937 -2.7432
  530MOL0     O73003   7.770  10.792   2.594  0.2605  0.7538  0.5042
  530MOL0     C73004   7.678  10.852   2.528 -0.9108 -0.5262  0.0781
  530MOL0     O73005   7.547  10.867   2.559 -0.4766 -0.5583 -0.4873
  530MOL0     C73006   7.503  10.785   2.647 -1.2990 -0.4701 -0.4227
  530MOL0     C73007   7.470  10.850   2.770  0.1822 -0.7975  0.3935
  530MOL0     C73008   7.428  10.773   2.874 -0.0768  0.6750 -0.1045
  530MOL0     C73009   7.436  10.630   2.867  0.0075 -0.4657  0.1967
  530MOL0     O73010   7.392  10.552   2.965 -0.1941 -0.0004 -0.5553
  530MOL0     C73011   7.338  10.616   3.074 -0.2353  0.3324 -0.0519
  530MOL0     C73012   7.296  10.507   3.165  0.7871 -0.9399 -0.0454
  530MOL0     C73013   7.265  10.569   3.301  0.3456  0.1918 -0.9108
  530MOL0     C73014   7.370  10.647   3.380 -0.2036 -1.3239 -0.1257
  530MOL0     C73015   7.307  10.692   3.512  0.3162 -0.2595  1.0501
  530MOL0     C73016   7.417  10.754   3.599  0.4526 -0.1958  0.2655
  530MOL0     C73017   7.365  10.792   3.741 -0.2049 -0.0177  0.0924
  530MOL0     C73018   7.339  10.676   3.843  0.3292 -0.6744  0.3053
  530MOL0     N73019   7.464  10.630   3.907  0.0205  0.0277  0.5497
  530MOL0     C73020   7.557  10.542   3.850  0.5234 -0.4505 -0.2271
  530MOL0     C73021   7.666  10.548   3.928 -0.1920  0.4072  0.2975
  530MOL0     C73022   7.788  10.467   3.907 -0.1667  1.0630 -1.1379
  530MOL0     C73023   7.748  10.318   3.946 -0.5016  0.0826  0.0562
  530MOL0     C73024   7.875  10.224   3.922  0.6747  0.5629  0.0319
  530MOL0     C73025   7.840  10.089   3.974  0.7150  0.2682  0.1783
  530MOL0     O73026   7.836  10.100   4.117  0.8757  0.8362 -0.2375
  530MOL0     C73027   7.736  10.028   4.186 -0.5372  0.5528 -0.9707
  530MOL0     C73028   7.705   9.892   4.162 -0.3350 -0.2034  0.8569
  530MOL0     C73029   7.606   9.824   4.232 -0.7406 -0.1823  0.9957
  530MOL0     C73030   7.594   9.681   4.208  0.0610 -0.1653  0.2618
  530MOL0     C73031   7.529   9.894   4.334 -0.7065  0.6474 -0.0199
  530MOL0     C73032   7.407   9.837   4.423 -0.0085  0.8599  0.1682
  530MOL0     O73033   7.352   9.915   4.515  0.0256  0.2501  0.7510
  530MOL0     C73034   7.253   9.874   4.600 -0.6223 -0.2246 -0.7989
  530MOL0     C73035   7.240   9.744   4.655 -0.2536  0.6934 -0.2261
  530MOL0     C73036   7.141   9.719   4.749 -0.2149  0.1541  0.1482
  530MOL0     C73037   7.049   9.812   4.783  0.1676  0.3966  1.8058
  530MOL0     O73038   6.957   9.763   4.874 -0.6339 -1.0518  0.0899
  530MOL0     C73039   6.832   9.783   4.820  0.3007  0.5081 -0.8715
  530MOL0     C73040   6.713   9.748   4.922  0.3970  0.2076  0.0697
  530MOL0     C73041   6.678   9.855   5.017  0.1313 -0.0716 -0.2026
  530MOL0     C73042   6.768   9.870   5.138  0.0304  0.2453 -0.3054
  530MOL0     C73043   6.734   9.999   5.216  0.3607 -0.2099 -0.2715
  530MOL0     C73044   6.826  10.009   5.332  0.4367  0.6985  0.0155
  530MOL0     C73045   6.811  10.145   5.405  0.0986 -0.1532  0.0669
  530MOL0     C73046   6.897  10.160   5.537 -0.7715 -0.5802 -0.6687
  530MOL0    Cl73047   6.874  10.019   5.652 -0.1487  0.6956 -0.0756
  530MOL0     C73048   7.065   9.943   4.729 -1.0873  1.2911  0.1832
  530MOL0     C73049   7.167   9.972   4.639 -0.5517  0.4191  0.4377
  530MOL0     O73050   7.369   9.721   4.398  0.0552 -0.8522  0.2365
  530MOL0     C73051   7.563  10.033   4.363  0.1289  0.2724 -1.1705
  530MOL0     C73052   7.667  10.095   4.291  0.5241  0.3392  1.5690
  530MOL0     N73053   7.634  10.634   4.036 -0.0628  0.5237 -0.2907
  530MOL0     N73054   7.522  10.679   4.025  0.4676 -0.0616 -0.1186
  530MOL0     C73055   7.482  10.576   2.751  0.8231  0.3458 -0.0234
  530MOL0     C73056   7.515  10.645   2.642 -0.2379  0.4225  0.1489
  530MOL0     C73057   7.708  10.898   2.388  0.6200 -0.2108  0.2477
  530MOL0     C73058   7.607  10.903   2.285  1.3052  0.2011  0.5589
  530MOL0     C73059   7.649  10.927   2.151 -0.1638  1.1540 -0.7405
  530MOL0     C73060   7.788  10.956   2.126  0.3405 -0.3343  0.5923
  530MOL0     O73061   7.821  10.986   1.996  0.7198  0.0313  0.2226
  530MOL0     C73062   7.761  10.909   1.883 -0.4199 -0.0196 -0.5656
  530MOL0     C73063   7.653  10.990   1.809 -0.4353  0.1972  0.5246
  530MOL0     C73064   7.601  10.895   1.700  1.0096 -0.4350 -0.6616
  530MOL0     C73065   7.508  10.965   1.599  0.0824  0.1296  0.4355
  530MOL0     C73066   7.484  10.855   1.493 -0.0884 -0.4440 -0.1552
  530MOL0     C73067   7.468  10.764   1.411  0.1978  0.2544 -0.1029
  530MOL0     C73068   7.874  10.974   2.230 -0.5017  0.3480  0.4869
  530MOL0     C73069   7.836  10.947   2.359 -0.4835  0.1325  0.5192
  530MOL0     C73070   7.948  10.970   2.465 -0.0832 -0.9235  0.5603
  530MOL0     H73071   7.476  10.958   2.772  2.1029 -0.6753 -3.1855
  530MOL0     H73072   7.395  10.829   2.961  3.6195  1.6323  0.8960
  530MOL0     H73073   7.244  10.664   3.044 -0.2726  0.3645  0.1120
  530MOL0     H73074   7.417  10.674   3.123 -2.0313  2.7615  0.1653
  530MOL0     H73075   7.212  10.450   3.127  0.1837 -1.0032  1.3132
  530MOL0     H73076   7.373  10.431   3.180 -0.9784 -2.9655 -0.8521
  530MOL0     H73077   7.182  10.640   3.294 -2.3425 -2.5987  0.7563
  530MOL0     H73078   7.238  10.481   3.359  2.3584  0.2474  0.2223
  530MOL0     H73079   7.449  10.573   3.396  0.4629 -0.6970 -0.4180
  530MOL0     H73080   7.431  10.729   3.339  4.8965 -3.1983  2.7366
  530MOL0     H73081   7.267  10.597   3.550  2.2551 -1.5721  0.0156
  530MOL0     H73082   7.222  10.758   3.494  0.2058  0.5266  3.9647
  530MOL0     H73083   7.506  10.690   3.597 -0.2740 -1.2343 -2.1637
  530MOL0     H73084   7.452  10.845   3.549 -3.0796  0.1826 -1.8426
  530MOL0     H73085   7.269  10.835   3.711 -0.2894 -0.2595  0.0132
  530MOL0     H73086   7.414  10.876   3.792 -1.1075 -0.0859  1.0895
  530MOL0     H73087   7.272  10.715   3.921  0.3197 -1.0097  0.4659
  530MOL0     H73088   7.279  10.597   3.798 -2.9342  1.7540 -0.0283
  530MOL0     H73089   7.543  10.495   3.754  0.5034 -0.2184 -0.3386
  530MOL0     H73090   7.879  10.489   3.964 -2.0966 -0.6335  2.9694
  530MOL0     H73091   7.814  10.468   3.801 -2.9035 -1.2502 -1.9672
  530MOL0     H73092   7.702  10.299   4.043 -2.5735 -0.8512 -1.0585
  530MOL0     H73093   7.671  10.284   3.876  0.0264  1.0245 -1.0261
  530MOL0     H73094   7.910  10.217   3.818  2.2677 -0.5261  0.6023
  530MOL0     H73095   7.963  10.265   3.973  0.8005  1.8795 -1.1454
  530MOL0     H73096   7.739  10.061   3.942 -0.1925  2.0865  1.3125
  530MOL0     H73097   7.915  10.014   3.945 -0.0637 -0.0027 -1.2722
  530MOL0     H73098   7.763   9.834   4.091 -1.8514  0.9311 -1.4004
  530MOL0     H73099   7.641   9.646   4.300 -0.9577 -0.1239  0.8190
  530MOL0     H73100   7.649   9.631   4.128  1.6645 -0.9820  1.7964
  530MOL0     H73101   7.489   9.652   4.199  0.5504 -1.2838 -3.5875
  530MOL0     H73102   7.316   9.668   4.643  2.5158  3.1357  0.7735
  530MOL0     H73103   7.140   9.616   4.784  3.7006 -0.3295 -0.7322
  530MOL0     H73104   6.815   9.873   4.761  1.4846  0.1666 -1.7839
  530MOL0     H73105   6.847   9.706   4.744  4.1271  0.7955 -0.6271
  530MOL0     H73106   6.625   9.735   4.857  0.7527 -0.4480 -0.2988
  530MOL0     H73107   6.731   9.658   4.982 -1.7591  0.3775  1.0768
  530MOL0     H73108   6.574   9.833   5.044 -0.5006  1.3534 -1.3450
  530MOL0     H73109   6.682   9.949   4.962  1.7399 -0.1707 -0.3121
  530MOL0     H73110   6.875   9.862   5.114 -0.2807  0.2830 -1.7793
  530MOL0     H73111   6.751   9.795   5.216  4.3384 -0.3284  0.3439
  530MOL0     H73112   6.732  10.089   5.155  2.0643  0.3024  0.3646
  530MOL0     H73113   6.636  10.001   5.264 -0.1864  0.4642 -1.3942
  530MOL0     H73114   6.930  10.014   5.297 -0.2990  2.8570 -2.2188
  530MOL0     H73115   6.794   9.939   5.409 -0.8482  1.8400  0.5455
  530MOL0     H73116   6.703  10.156   5.419 -0.4833 -3.9347 -0.4398
  530MOL0     H73117   6.844  10.226   5.339  1.0232 -0.6234 -0.0672
  530MOL0     H73118   6.868  10.254   5.585 -0.0315 -0.4733 -0.4089
  530MOL0     H73119   6.999  10.175   5.501 -0.5264 -1.6165 -0.4571
  530MOL0     H73120   7.010  10.011   4.794 -3.2246 -1.0849  1.0302
  530MOL0     H73121   7.183  10.068   4.591 -0.9286  1.2131  1.8590
  530MOL0     H73122   7.507  10.080   4.442 -2.2496 -3.7840 -0.1582
  530MOL0     H73123   7.695  10.196   4.320  1.3565  0.3679  0.7183
  530MOL0     H73124   7.502  10.469   2.751 -0.8273  0.0054  0.0818
  530MOL0     H73125   7.560  10.593   2.558 -2.1284  0.2750 -0.8425
  530MOL0     H73126   7.500  10.896   2.301  1.6151 -0.1637  2.7085
  530MOL0     H73127   7.571  10.906   2.079 -2.2440 -0.6874  1.8728
  530MOL0     H73128   7.845  10.897   1.813  0.4322 -0.8695  0.5782
  530MOL0     H73129   7.730  10.809   1.912  1.5656 -0.6171 -0.3426
  530MOL0     H73130   7.704  11.073   1.759 -0.6973  0.4846  0.7310
  530MOL0     H73131   7.571  11.031   1.868  1.8194 -0.7438  4.6799
  530MOL0     H73132   7.687  10.861   1.643 -0.2381 -0.4087 -2.6448
  530MOL0     H73133   7.542  10.814   1.745  1.5518 -1.3065 -1.4908
  530MOL0     H73134   7.565  11.049   1.561 -0.3677  1.4932  2.5875
  530MOL0     H73135   7.415  11.004   1.641 -0.5206 -0.6478 -0.1484
  530MOL0     H73136   7.445  10.683   1.345  1.0231  1.8951 -2.5529
  530MOL0     H73137   7.975  11.010   2.219 -1.0394  1.8583  0.2820
  530MOL0     H73138   8.028  11.017   2.408 -0.6553 -1.5873 -0.8467
  530MOL0     H73139   7.905  11.026   2.549 -1.0261  2.2839 -1.8879
  530MOL0     H73140   7.992  10.878   2.506  2.0467  0.4992  1.6637
  531MOL0     O73141   8.931  10.018   2.382  0.4842  0.8842  0.1746
  531MOL0     C73142   8.810  10.011   2.362 -0.2089  0.2442  0.2789
  531MOL0     O73143   8.725   9.935   2.440  0.1132  0.4905 -0.3820
  531MOL0     C73144   8.777   9.817   2.507  1.0375 -0.3573  1.0923
  531MOL0     C73145   8.744   9.771   2.639  0.3531  0.5906 -0.6894
  531MOL0     C73146   8.815   9.665   2.706  0.2597  0.2489  0.6536
  531MOL0     C73147   8.911   9.598   2.639  0.6070  0.8116  1.1299
  531MOL0     O73148   8.995   9.500   2.695  0.4458  0.6058  0.1904
  531MOL0     C73149   8.995   9.477   2.838 -0.5307  0.4591 -0.0531
  531MOL0     C73150   9.129   9.408   2.874  0.5940  0.1032 -0.2956
  531MOL0     C73151   9.160   9.284   2.793 -0.1316 -0.0322  0.2878
  531MOL0     C73152   9.253   9.208   2.886  0.5314  0.0466 -0.1278
  531MOL0     C73153   9.338   9.105   2.812 -0.7795 -0.1820 -0.6012
  531MOL0     C73154   9.430   9.021   2.919 -0.3770 -0.6795 -0.0231
  531MOL0     C73155   9.546   9.118   2.959  0.0064  0.0396 -0.1839
  531MOL0     C73156   9.620   9.077   3.094  1.2722  0.5279  0.8256
  531MOL0     N73157   9.646   8.934   3.093  0.4242 -0.2869 -0.1943
  531MOL0     C73158   9.724   8.858   3.016 -0.4917 -0.0257  0.2113
  531MOL0     C73159   9.709   8.731   3.065  0.1529  1.0214  0.2576
  531MOL0     C73160   9.757   8.603   3.025  0.2597  0.2102 -1.2014
  531MOL0     C73161   9.686   8.567   2.891 -0.0768 -1.1105  0.5271
  531MOL0     C73162   9.718   8.432   2.821  0.9272  0.1350  0.0048
  531MOL0     C73163   9.861   8.395   2.793 -0.3804  0.3831 -1.0418
  531MOL0     O73164   9.947   8.477   2.714  0.6066  0.4301 -0.1604
  531MOL0     C73165   9.951   8.471   2.577 -0.1101 -0.2077 -0.7978
  531MOL0     C73166   9.886   8.368   2.499  0.2185 -0.2408 -0.9980
  531MOL0     C73167   9.897   8.351   2.366  0.0710 -0.8568  1.2456
  531MOL0     C73168   9.816   8.236   2.295 -0.8033 -0.2907  0.3033
  531MOL0     C73169   9.975   8.449   2.294 -0.1916 -0.4850  0.4503
  531MOL0     C73170   9.975   8.452   2.149  0.3450 -1.3660  0.1429
  531MOL0     O73171   9.875   8.519   2.102  0.8260 -0.2808 -0.9231
  531MOL0     C73172   9.826   8.489   1.976  0.5642 -0.5915 -0.2304
  531MOL0     C73173   9.831   8.364   1.905 -0.2660 -0.0469  0.0474
  531MOL0     C73174   9.749   8.339   1.801  0.1145  0.4287  0.0164
  531MOL0     C73175   9.642   8.425   1.770  0.1523  0.0831 -0.0801
  531MOL0     O73176   9.553   8.377   1.677 -0.2936  1.2931 -0.8521
  531MOL0     C73177   9.611   8.364   1.546  0.0952 -0.9645  1.1241
  531MOL0     C73178   9.601   8.494   1.461  0.0614 -0.0224  0.6986
  531MOL0     C73179   9.456   8.542   1.456  0.3275 -0.7401 -0.1519
  531MOL0     C73180   9.432   8.629   1.336  0.2762 -0.2177 -0.3865
  531MOL0     C73181   9.284   8.627   1.288  0.3334 -0.0464 -0.2691
  531MOL0     C73182   9.277   8.707   1.151  0.2440 -0.4929 -0.2235
  531MOL0     C73183   9.121   8.697   1.110 -0.0247  0.5258  0.1799
  531MOL0     C73184   9.084   8.740   0.966  0.1262 -0.0932 -0.4879
  531MOL0    Cl73185   9.205   8.743   0.839 -0.3433  0.1142  0.3952
  531MOL0     C73186   9.639   8.547   1.834  0.5049 -0.6319 -0.0092
  531MOL0     C73187   9.731   8.585   1.931 -0.3146  0.2978  0.2520
  531MOL0     O73188  10.061   8.396   2.083 -0.5974 -0.4380  0.3710
  531MOL0     C73189  10.046   8.540   2.363 -1.2864 -0.6787 -0.6302
  531MOL0     C73190  10.026   8.560   2.508 -1.4412 -0.3563  0.4665
  531MOL0     N73191   9.623   8.728   3.179  0.5085 -0.0909 -0.1249
  531MOL0     N73192   9.592   8.854   3.193 -0.5304 -0.0850 -0.1766
  531MOL0     C73193   8.934   9.637   2.506 -1.3917  0.0622  0.0638
  531MOL0     C73194   8.867   9.742   2.437 -0.0926  0.8117 -0.0499
  531MOL0     C73195   8.736  10.105   2.276 -0.4867 -0.7987 -0.2040
  531MOL0     C73196   8.607  10.067   2.234  0.6611 -0.0252 -0.5420
  531MOL0     C73197   8.534  10.141   2.146 -0.2572 -0.4131  0.6142
  531MOL0     C73198   8.594  10.253   2.084 -0.2896  0.2167 -0.7468
  531MOL0     O73199   8.535  10.337   1.990 -0.8903 -0.0726 -0.3374
  531MOL0     C73200   8.408  10.302   1.943  0.0408 -0.4154  0.6970
  531MOL0     C73201   8.364  10.385   1.816  0.3999 -0.0516  1.2022
  531MOL0     C73202   8.461  10.374   1.710  0.4258  0.4730 -1.1135
  531MOL0     C73203   8.421  10.436   1.581 -0.4387  0.8950  0.1635
  531MOL0     C73204   8.521  10.409   1.475  1.1439  0.4349 -0.7875
  531MOL0     C73205   8.575  10.383   1.372  0.4743 -0.2493  0.7040
  531MOL0     C73206   8.714  10.297   2.132  0.4896  0.1743 -0.5470
  531MOL0     C73207   8.789  10.229   2.219  0.0290 -0.8980 -0.3023
  531MOL0     C73208   8.920  10.290   2.270  0.7504  0.9778  0.6418
  531MOL0     H73209   8.664   9.814   2.698 -0.1367 -0.1950 -0.7640
  531MOL0     H73210   8.799   9.632   2.808  1.8026 -0.2836  0.7393
  531MOL0     H73211   8.909   9.418   2.870 -0.7545 -0.8536 -2.8039
  531MOL0     H73212   8.999   9.568   2.899  1.8459  0.6668 -0.4270
  531MOL0     H73213   9.210   9.480   2.865  2.1465 -1.4946  0.4738
  531MOL0     H73214   9.132   9.391   2.982  2.6410  0.2666 -0.2910
  531MOL0     H73215   9.075   9.216   2.781 -1.2402  1.3616 -0.0428
  531MOL0     H73216   9.188   9.295   2.687  2.5889  0.9475  1.0239
  531MOL0     H73217   9.302   9.276   2.956 -0.0598  0.0946  0.2422
  531MOL0     H73218   9.187   9.147   2.949  1.0222 -1.7157 -1.2272
  531MOL0     H73219   9.401   9.155   2.737 -1.6527  2.4911  0.3480
  531MOL0     H73220   9.278   9.037   2.751 -1.5078  0.8501 -1.0740
  531MOL0     H73221   9.369   8.995   3.006  0.6459 -1.2742  0.5355
  531MOL0     H73222   9.475   8.935   2.869  0.1933  1.0944 -2.7889
  531MOL0     H73223   9.503   9.219   2.964 -0.2050 -0.0623  0.0249
  531MOL0     H73224   9.626   9.117   2.883 -1.0197 -2.7503 -1.3400
  531MOL0     H73225   9.718   9.125   3.102  1.7841  0.7828 -3.9921
  531MOL0     H73226   9.559   9.112   3.177  1.7032  1.1549  0.8914
  531MOL0     H73227   9.786   8.893   2.933  0.1819  0.9950  1.1197
  531MOL0     H73228   9.733   8.532   3.105  1.9659 -0.1950 -1.0142
  531MOL0     H73229   9.866   8.610   3.024  0.3573  0.9067  1.9570
  531MOL0     H73230   9.579   8.559   2.911 -0.1163 -2.0884  0.0118
  531MOL0     H73231   9.701   8.651   2.823 -0.2233  0.4548  2.3445
  531MOL0     H73232   9.688   8.354   2.892 -2.6745  0.4010 -1.0508
  531MOL0     H73233   9.667   8.416   2.726 -1.9379 -0.2825  1.5162
  531MOL0     H73234   9.918   8.394   2.887 -2.8312  2.1538  0.5957
  531MOL0     H73235   9.868   8.295   2.750 -1.2516 -0.1502 -0.0008
  531MOL0     H73236   9.823   8.298   2.552  1.6044 -0.9397 -0.2088
  531MOL0     H73237   9.733   8.206   2.359 -1.6233  0.4150 -0.3933
  531MOL0     H73238   9.894   8.159   2.296 -2.4373 -2.0181  0.8387
  531MOL0     H73239   9.791   8.269   2.194  1.9570  0.2672 -0.2902
  531MOL0     H73240   9.898   8.282   1.926 -1.1416 -0.5094  1.1510
  531MOL0     H73241   9.748   8.243   1.749 -2.4535 -0.2788  1.2195
  531MOL0     H73242   9.714   8.328   1.537  0.4132  0.2448 -0.5529
  531MOL0     H73243   9.538   8.303   1.493 -2.4025  0.3994  2.7417
  531MOL0     H73244   9.659   8.575   1.507 -2.0844  0.4991  2.6969
  531MOL0     H73245   9.638   8.480   1.359 -4.1336 -0.6132 -0.9300
  531MOL0     H73246   9.439   8.607   1.542  0.8498 -0.3538 -0.3382
  531MOL0     H73247   9.380   8.464   1.467 -1.4259  1.1432  2.2999
  531MOL0     H73248   9.489   8.599   1.248 -1.8215 -3.3511 -0.8416
  531MOL0     H73249   9.469   8.727   1.366 -0.4698 -0.2289  0.6255
  531MOL0     H73250   9.246   8.525   1.282 -0.5247  0.1552  1.2240
  531MOL0     H73251   9.212   8.679   1.352 -2.0943 -0.1901 -2.6523
  531MOL0     H73252   9.338   8.652   1.078  1.8114  1.6463 -0.6101
  531MOL0     H73253   9.315   8.809   1.161 -1.2401  0.1098 -0.4390
  531MOL0     H73254   9.055   8.745   1.183 -0.7974  1.2597 -0.9618
  531MOL0     H73255   9.097   8.590   1.111  1.6868  0.0723 -1.2312
  531MOL0     H73256   9.044   8.842   0.975  0.6892 -0.0297  1.9256
  531MOL0     H73257   9.002   8.678   0.928 -2.7735  1.8912  1.9805
  531MOL0     H73258   9.555   8.612   1.811 -0.0905 -1.3713  0.0034
  531MOL0     H73259   9.732   8.676   1.991  1.6338 -0.0813  0.8771
  531MOL0     H73260  10.096   8.617   2.306 -0.9660  0.9436  1.7172
  531MOL0     H73261  10.073   8.635   2.572  2.5607 -2.3597  0.2247
  531MOL0     H73262   9.006   9.574   2.455  0.9101  2.4094  0.2097
  531MOL0     H73263   8.886   9.768   2.333  3.5383  1.6762  0.6628
  531MOL0     H73264   8.567   9.975   2.275  1.9011  0.4789  2.0297
  531MOL0     H73265   8.431  10.119   2.118 -0.6615 -0.6260  2.2037
  531MOL0     H73266   8.403  10.194   1.931  1.2232 -0.2292 -2.7646
  531MOL0     H73267   8.340  10.331   2.024 -1.6652  0.0119 -0.8178
  531MOL0     H73268   8.350  10.487   1.854  3.5833  0.8185  0.2957
  531MOL0     H73269   8.272  10.350   1.767  2.9616 -1.2848 -3.2673
  531MOL0     H73270   8.548  10.433   1.741  0.9822  0.4956 -2.6581
  531MOL0     H73271   8.477  10.266   1.696 -1.4272 -0.5173  2.8015
  531MOL0     H73272   8.407  10.544   1.592  0.4654  0.9775  0.6170
  531MOL0     H73273   8.321  10.393   1.570 -0.5804  1.2929 -0.1221
  531MOL0     H73274   8.612  10.362   1.274 -0.6366 -1.3416  0.4860
  531MOL0     H73275   8.756  10.389   2.093  2.1114  0.5859  2.0056
  531MOL0     H73276   8.932  10.392   2.233  1.2803  0.7974  0.2995
  531MOL0     H73277   8.906  10.293   2.378  2.0924 -4.0476  1.1961
  531MOL0     H73278   9.009  10.233   2.241 -0.2250 -0.9133  1.2155
  532MOL0     O73279   9.987   5.900  10.523  0.6413 -0.1741 -0.2516
  532MOL0     C73280   9.945   5.962  10.422 -1.6408 -0.4173  1.2214
  532MOL0     O73281   9.931   5.909  10.298  0.5120  0.2773 -0.2546
  532MOL0     C73282  10.006   5.796  10.282  0.3208 -0.1642 -0.3052
  532MOL0     C73283  10.116   5.803  10.204  1.5295 -0.2403  0.0998
  532MOL0     C73284  10.192   5.694  10.170  0.1074  0.1281 -0.2276
  532MOL0     C73285  10.158   5.563  10.211  0.2714 -0.9814 -0.5128
  532MOL0     O73286  10.231   5.447  10.196  0.2480  1.0714  0.9300
  532MOL0     C73287  10.355   5.438  10.106  0.4426  0.0312  0.3973
  532MOL0     C73288  10.421   5.301  10.129 -0.0849  0.5293  0.4427
  532MOL0     C73289  10.322   5.177  10.102  1.1870  0.2006  0.5825
  532MOL0     C73290  10.300   5.147   9.944 -0.0593 -0.0452  0.0810
  532MOL0     C73291  10.255   4.999   9.932 -0.9581  0.3023 -0.4363
  532MOL0     C73292  10.354   4.890   9.981  0.0514 -0.4236  0.1432
  532MOL0     C73293  10.497   4.917   9.925  0.2252  0.0443  0.2821
  532MOL0     C73294  10.599   4.822   9.992 -0.2933 -0.2411 -0.0863
  532MOL0     N73295  10.599   4.808  10.133 -0.0011 -0.2798 -0.0253
  532MOL0     C73296  10.520   4.728  10.207 -0.2065 -0.7920 -0.5552
  532MOL0     C73297  10.564   4.732  10.334 -0.0582  0.1333  0.6367
  532MOL0     C73298  10.502   4.670  10.451 -0.8382  0.2192 -0.2939
  532MOL0     C73299  10.363   4.721  10.487  0.6307 -0.2140 -0.7952
  532MOL0     C73300  10.254   4.649  10.416 -0.4125  0.6711 -1.0208
  532MOL0     C73301  10.112   4.688  10.462  0.0257  0.0095  0.3766
  532MOL0     O73302  10.098   4.820  10.414 -0.2519  0.2316  0.3897
  532MOL0     C73303   9.988   4.842  10.334  0.3651 -0.0309  0.0765
  532MOL0     C73304   9.869   4.766  10.338 -0.8511  0.5239 -0.5074
  532MOL0     C73305   9.756   4.799  10.264 -0.3225  0.3422 -0.2206
  532MOL0     C73306   9.643   4.701  10.280 -0.0064  0.7793  0.1368
  532MOL0     C73307   9.761   4.906  10.177 -0.1139 -0.4088  0.6466
  532MOL0     C73308   9.657   4.925  10.081  0.4254  0.5668  0.0916
  532MOL0     O73309   9.610   4.809  10.015  0.2120  0.1945  0.0140
  532MOL0     C73310   9.504   4.825   9.933 -1.2680  0.3970  0.5308
  532MOL0     C73311   9.382   4.857   9.979 -0.1365 -0.9631 -0.3296
  532MOL0     C73312   9.269   4.882   9.894 -0.2489  0.1673  0.0835
  532MOL0     C73313   9.275   4.853   9.756 -1.0173 -1.4406  0.0320
  532MOL0     O73314   9.166   4.845   9.666 -0.1002 -0.3570  0.2812
  532MOL0     C73315   9.034   4.861   9.705  0.6229  1.0006 -0.2603
  532MOL0     C73316   8.941   4.783   9.597  0.1865 -0.3625  0.1198
  532MOL0     C73317   8.973   4.630   9.580  0.3046  0.6101  1.5712
  532MOL0     C73318   8.864   4.551   9.498 -0.5058 -0.1675  0.1527
  532MOL0     C73319   8.722   4.543   9.563 -0.2933  0.3801 -0.9696
  532MOL0     C73320   8.745   4.484   9.713  0.0436  0.1179  1.2527
  532MOL0     C73321   8.598   4.458   9.761 -0.4101  0.1966 -0.2562
  532MOL0     C73322   8.552   4.533   9.885 -1.5457 -0.3525  1.0192
  532MOL0    Cl73323   8.422   4.438   9.967 -0.1261  0.4125  0.2030
  532MOL0     C73324   9.408   4.826   9.704 -0.3579  0.5263 -0.2576
  532MOL0     C73325   9.521   4.817   9.794  0.4291  0.1832  0.0959
  532MOL0     O73326   9.624   5.038  10.050  0.3316 -0.3606 -0.1232
  532MOL0     C73327   9.873   4.981  10.168 -0.0753  0.5013 -0.3630
  532MOL0     C73328   9.986   4.954  10.249  1.1967 -0.7855  0.1261
  532MOL0     N73329  10.668   4.821  10.323 -0.2625 -0.5844  0.1526
  532MOL0     N73330  10.685   4.874  10.210 -0.8888  0.3819  1.3526
  532MOL0     C73331  10.033   5.551  10.277 -1.0567 -0.3119  0.1557
  532MOL0     C73332   9.963   5.666  10.316  0.7592 -0.5426 -0.1374
  532MOL0     C73333   9.866   6.090  10.435 -0.1645  0.2237  0.0858
  532MOL0     C73334   9.738   6.097  10.375  0.1199 -0.7686 -0.8792
  532MOL0     C73335   9.668   6.217  10.368 -0.4305  0.0929  0.4861
  532MOL0     C73336   9.738   6.335  10.401 -0.3356  0.0457 -0.1689
  532MOL0     O73337   9.687   6.461  10.395 -0.3514  0.7029  0.1087
  532MOL0     C73338   9.563   6.473  10.462 -0.2167 -0.2145  0.7213
  532MOL0     C73339   9.488   6.578  10.396 -0.1056 -0.6381  0.7468
  532MOL0     C73340   9.434   6.535  10.257 -0.6364 -0.5675 -0.7468
  532MOL0     C73341   9.368   6.649  10.178  0.2664 -0.0053  0.5319
  532MOL0     C73342   9.318   6.596  10.047 -0.0670 -0.2423  0.6123
  532MOL0     C73343   9.266   6.558   9.945  0.2184  0.4326 -0.2486
  532MOL0     C73344   9.866   6.319  10.461 -0.1258  0.1456 -0.1426
  532MOL0     C73345   9.924   6.202  10.490  0.0177 -0.6318 -0.5436
  532MOL0     C73346  10.061   6.200  10.549 -0.2439  0.0265 -0.5453
  532MOL0     H73347  10.127   5.905  10.169 -0.7369 -0.4519 -1.3990
  532MOL0     H73348  10.282   5.720  10.114  0.8233  0.1861  0.9247
  532MOL0     H73349  10.423   5.514  10.145  1.1272 -0.5579  0.3581
  532MOL0     H73350  10.330   5.457  10.001  3.3511  0.1906 -0.3553
  532MOL0     H73351  10.509   5.283  10.067 -0.5297 -1.0616  0.2181
  532MOL0     H73352  10.446   5.306  10.235 -0.4138  2.7068  0.4511
  532MOL0     H73353  10.382   5.096  10.145 -0.9888 -2.3592 -0.9314
  532MOL0     H73354  10.223   5.193  10.145 -0.7653 -2.4429 -2.4733
  532MOL0     H73355  10.214   5.213   9.927 -0.5370 -0.4185  0.9343
  532MOL0     H73356  10.379   5.175   9.874  2.1665  3.0767  3.4720
  532MOL0     H73357  10.247   4.987   9.824 -1.5095  2.4704 -0.6651
  532MOL0     H73358  10.162   4.977   9.986  0.8488 -0.4151  2.6417
  532MOL0     H73359  10.351   4.881  10.090  2.2806  3.2006  0.6600
  532MOL0     H73360  10.302   4.803   9.941 -0.2716 -0.9674  1.6517
  532MOL0     H73361  10.522   5.023   9.936  0.7064  0.0380 -0.6541
  532MOL0     H73362  10.493   4.896   9.818 -3.2926  0.9520  0.1337
  532MOL0     H73363  10.584   4.720   9.953 -1.0667 -0.7891  1.5793
  532MOL0     H73364  10.697   4.857   9.956 -0.9585  0.1553 -1.6033
  532MOL0     H73365  10.432   4.681  10.164 -1.6342  0.0465  1.2911
  532MOL0     H73366  10.578   4.693  10.527  1.2248 -1.9670 -1.5583
  532MOL0     H73367  10.518   4.562  10.437  0.5649  0.1756  1.2992
  532MOL0     H73368  10.341   4.714  10.594 -0.7238  0.9190 -0.9807
  532MOL0     H73369  10.364   4.830  10.472 -6.2801  0.6418  1.3858
  532MOL0     H73370  10.271   4.667  10.309 -0.7503  1.0334 -1.0137
  532MOL0     H73371  10.262   4.544  10.445  1.8839  0.8922 -0.6518
  532MOL0     H73372  10.048   4.618  10.407 -2.7100  2.4466  0.2242
  532MOL0     H73373  10.097   4.685  10.571 -0.2293  2.3473  0.4553
  532MOL0     H73374   9.863   4.686  10.411 -1.6520  0.9080 -0.1345
  532MOL0     H73375   9.552   4.758  10.296  0.0113  0.3389  1.9406
  532MOL0     H73376   9.666   4.630  10.360 -0.2253 -0.7564 -1.1063
  532MOL0     H73377   9.627   4.645  10.187 -1.0255  2.0416 -0.4784
  532MOL0     H73378   9.371   4.855  10.087 -1.6037  0.6169 -0.4006
  532MOL0     H73379   9.169   4.906   9.929  0.2958  0.1024  1.7394
  532MOL0     H73380   9.012   4.813   9.801 -2.1696  0.7410 -0.9286
  532MOL0     H73381   9.012   4.966   9.724  2.2219  1.6677 -1.8066
  532MOL0     H73382   8.838   4.800   9.628  0.0133 -3.1551  1.3049
  532MOL0     H73383   8.963   4.825   9.498  1.0316 -0.1039  0.4114
  532MOL0     H73384   8.997   4.587   9.678  0.3321  1.1073  1.7838
  532MOL0     H73385   9.071   4.621   9.531  1.0503 -2.3277  3.2901
  532MOL0     H73386   8.897   4.447   9.494 -1.9719 -0.6401 -1.2610
  532MOL0     H73387   8.863   4.593   9.396  1.5633 -1.2518 -0.3689
  532MOL0     H73388   8.672   4.640   9.565 -2.7189 -0.7802 -1.4469
  532MOL0     H73389   8.663   4.473   9.503  0.4647  0.5151 -1.9010
  532MOL0     H73390   8.803   4.544   9.783  4.0890 -1.2453 -0.6111
  532MOL0     H73391   8.797   4.388   9.699  1.3151  1.0810 -1.4571
  532MOL0     H73392   8.602   4.356   9.800  0.7538 -0.0550 -0.9789
  532MOL0     H73393   8.519   4.473   9.687  0.4429 -0.5583 -1.3487
  532MOL0     H73394   8.521   4.636   9.860  1.8301  0.0199 -2.8006
  532MOL0     H73395   8.634   4.543   9.957 -0.3060  0.9648 -0.4675
  532MOL0     H73396   9.443   4.799   9.605  2.2341  1.0564  0.4280
  532MOL0     H73397   9.625   4.819   9.764  1.4736 -2.5156  3.0090
  532MOL0     H73398   9.882   5.052  10.086 -0.6304 -1.2641 -1.9950
  532MOL0     H73399  10.066   5.026  10.245 -0.6240  1.2982 -1.1716
  532MOL0     H73400  10.005   5.450  10.307  1.1333 -0.6211  1.3833
  532MOL0     H73401   9.866   5.667  10.366  0.0139  1.6406 -1.5002
  532MOL0     H73402   9.679   6.014  10.337  0.6602 -0.9389 -1.3575
  532MOL0     H73403   9.567   6.212  10.328  0.3083 -0.8411 -1.4079
  532MOL0     H73404   9.501   6.384  10.474 -1.3762  0.8403  3.1156
  532MOL0     H73405   9.591   6.494  10.566  0.2983  0.2403  0.4982
  532MOL0     H73406   9.555   6.664  10.391 -0.9673  0.2152  2.5468
  532MOL0     H73407   9.412   6.617  10.465 -0.7223 -2.3158  1.0741
  532MOL0     H73408   9.521   6.512  10.193  0.1500 -0.3044  0.2087
  532MOL0     H73409   9.368   6.448  10.255 -0.4257 -0.7292 -0.7165
  532MOL0     H73410   9.425   6.742  10.183 -0.0069  0.1260  1.3597
  532MOL0     H73411   9.279   6.658  10.242 -1.4630 -1.4997 -1.5189
  532MOL0     H73412   9.232   6.508   9.856 -2.3541 -0.3783  1.0728
  532MOL0     H73413   9.923   6.411  10.475 -0.8443  0.7539 -1.0740
  532MOL0     H73414  10.126   6.173  10.466 -1.5154 -5.5356 -0.1033
  532MOL0     H73415  10.089   6.292  10.601 -4.2497 -1.0996  4.4478
  532MOL0     H73416  10.068   6.119  10.622 -1.3064 -0.2704 -0.7542
  533MOL0     O73417   6.535   8.324   5.747 -0.3354 -0.9272  0.6721
  533MOL0     C73418   6.486   8.208   5.741 -0.5455 -0.4703 -0.6256
  533MOL0     O73419   6.433   8.146   5.632 -0.2991  0.0051  0.6568
  533MOL0     C73420   6.420   8.204   5.503  0.4865  1.2044  0.4359
  533MOL0     C73421   6.504   8.303   5.450 -0.2321  1.1875  0.9570
  533MOL0     C73422   6.480   8.353   5.323  0.4978 -0.0954  1.1208
  533MOL0     C73423   6.363   8.314   5.252 -0.5184  0.4640 -0.2446
  533MOL0     O73424   6.323   8.375   5.135 -0.6213  1.2422  0.0258
  533MOL0     C73425   6.372   8.515   5.118 -0.2188 -0.6560  0.7825
  533MOL0     C73426   6.289   8.583   5.014  0.1138  1.3977 -0.2057
  533MOL0     C73427   6.143   8.554   5.033 -1.2632  0.3358 -0.3004
  533MOL0     C73428   6.053   8.635   4.936  0.0500 -0.5376 -0.4764
  533MOL0     C73429   5.904   8.607   4.948 -1.0757  0.1303  0.3877
  533MOL0     C73430   5.807   8.727   4.926 -0.7326  0.0614 -0.3014
  533MOL0     C73431   5.810   8.755   4.779  0.0442  0.6421  0.4370
  533MOL0     C73432   5.727   8.869   4.727  0.3206  0.2588 -0.4540
  533MOL0     N73433   5.739   8.991   4.810 -0.0171 -0.3954  0.3340
  533MOL0     C73434   5.644   9.054   4.887 -0.0588 -1.0228 -0.5892
  533MOL0     C73435   5.710   9.169   4.930 -0.3362  0.1087 -0.7359
  533MOL0     C73436   5.651   9.274   5.023 -0.3041 -0.0526 -0.7325
  533MOL0     C73437   5.541   9.219   5.122  0.5741  0.1334  0.2199
  533MOL0     C73438   5.527   9.309   5.253  0.8392 -0.6222 -0.2404
  533MOL0     C73439   5.518   9.471   5.223  0.4861  0.8469  0.5277
  533MOL0     O73440   5.418   9.491   5.117 -0.1659  0.0337 -0.0378
  533MOL0     C73441   5.446   9.593   5.030 -1.4485 -0.0437  0.2076
  533MOL0     C73442   5.527   9.712   5.056 -0.1425  0.4574  0.2578
  533MOL0     C73443   5.537   9.814   4.959 -0.0149  0.5767 -0.2543
  533MOL0     C73444   5.620   9.936   4.985  0.5435  1.5193  0.7969
  533MOL0     C73445   5.454   9.806   4.843  0.6320  0.7108  0.2765
  533MOL0     C73446   5.435   9.916   4.746 -0.0392 -0.5594  0.7415
  533MOL0     O73447   5.476   9.894   4.618  0.4328 -0.7323  0.8285
  533MOL0     C73448   5.448   9.988   4.521  0.0344  0.3614 -0.0471
  533MOL0     C73449   5.550  10.049   4.448  0.8763  0.4048 -1.2960
  533MOL0     C73450   5.534  10.139   4.348 -0.0201 -0.1959  0.2830
  533MOL0     C73451   5.407  10.156   4.287  0.6433  0.1244 -1.0044
  533MOL0     O73452   5.386  10.220   4.166 -0.3864 -0.3627 -0.0522
  533MOL0     C73453   5.489  10.215   4.069  0.1409 -0.7747  0.8055
  533MOL0     C73454   5.430  10.205   3.929  0.0475  0.1721  0.3665
  533MOL0     C73455   5.368  10.061   3.920 -0.3177 -0.4381 -0.6931
  533MOL0     C73456   5.237  10.064   3.840  0.5999  0.2180 -1.3442
  533MOL0     C73457   5.177   9.924   3.824 -0.5756  0.2010 -0.1524
  533MOL0     C73458   5.051   9.931   3.730  0.4093  0.5366  0.6560
  533MOL0     C73459   4.996   9.787   3.705  0.1882 -1.3992  0.2092
  533MOL0     C73460   4.873   9.775   3.616 -0.1003  1.0566 -0.2836
  533MOL0    Cl73461   4.746   9.874   3.685  0.3989  0.4083  0.1042
  533MOL0     C73462   5.299  10.096   4.362 -0.0569  0.0839 -0.0820
  533MOL0     C73463   5.320  10.005   4.471 -0.5630 -0.6615  0.6176
  533MOL0     O73464   5.391  10.021   4.789  0.1116 -0.5369  0.7696
  533MOL0     C73465   5.396   9.679   4.814 -0.1330 -0.0594  0.0826
  533MOL0     C73466   5.384   9.575   4.905 -0.9634  0.0759 -0.2181
  533MOL0     N73467   5.831   9.169   4.875 -0.0527 -0.5068  0.0853
  533MOL0     N73468   5.854   9.063   4.803  0.1281  0.2759 -0.0214
  533MOL0     C73469   6.288   8.209   5.304 -0.5912  0.6632  1.7361
  533MOL0     C73470   6.315   8.162   5.430  0.3165 -0.9937 -0.3320
  533MOL0     C73471   6.510   8.119   5.863 -0.0169 -0.1705 -0.2298
  533MOL0     C73472   6.461   7.987   5.855  0.1101 -0.8297 -0.0300
  533MOL0     C73473   6.452   7.901   5.962  0.4205 -0.1139  0.2847
  533MOL0     C73474   6.511   7.933   6.088 -0.0066  0.0936  0.5516
  533MOL0     O73475   6.521   7.829   6.177  0.6971  0.0847  0.1689
  533MOL0     C73476   6.564   7.866   6.312 -0.0565  1.5801  0.9540
  533MOL0     C73477   6.542   7.745   6.405  0.7761  0.2856 -0.7519
  533MOL0     C73478   6.542   7.787   6.556  0.8889 -0.1801  0.5651
  533MOL0     C73479   6.688   7.814   6.602  0.2076  0.1628  0.5588
  533MOL0     C73480   6.713   7.875   6.740  0.9079 -1.2132 -0.3959
  533MOL0     C73481   6.725   7.930   6.848  0.1581  0.0366  0.6553
  533MOL0     C73482   6.569   8.067   6.098 -0.7083  0.6717  0.1100
  533MOL0     C73483   6.559   8.156   5.994 -0.5135 -1.2448 -1.0017
  533MOL0     C73484   6.614   8.298   6.017  0.8585  0.2810  0.9279
  533MOL0     H73485   6.591   8.340   5.502 -0.7274  0.5611  2.2767
  533MOL0     H73486   6.560   8.417   5.288  1.8076  0.1141  4.1774
  533MOL0     H73487   6.476   8.524   5.087 -1.2406  1.2333 -2.5460
  533MOL0     H73488   6.351   8.567   5.213 -0.2827 -2.1899  1.6313
  533MOL0     H73489   6.306   8.691   5.026 -2.6994  1.6717  2.9142
  533MOL0     H73490   6.314   8.553   4.912  1.2529 -0.2980  0.5408
  533MOL0     H73491   6.119   8.447   5.024 -0.7437  0.3136 -1.5742
  533MOL0     H73492   6.115   8.583   5.135 -2.0860 -1.5588  0.0579
  533MOL0     H73493   6.080   8.740   4.953  1.2983 -0.7423 -1.0200
  533MOL0     H73494   6.095   8.619   4.836  0.9192  3.1079 -0.8384
  533MOL0     H73495   5.882   8.566   5.047 -1.8049  1.1434  0.6694
  533MOL0     H73496   5.885   8.523   4.881  0.7775 -1.3830  1.6460
  533MOL0     H73497   5.707   8.702   4.962 -0.3660 -1.7329 -0.4304
  533MOL0     H73498   5.843   8.811   4.987 -1.3050 -0.5507  0.9106
  533MOL0     H73499   5.775   8.662   4.733  1.6280  0.4377 -0.4092
  533MOL0     H73500   5.912   8.777   4.747  0.4431  1.4021  2.1323
  533MOL0     H73501   5.750   8.888   4.622 -1.2868  0.7582 -0.7453
  533MOL0     H73502   5.623   8.839   4.736 -0.1057  1.3225 -1.5636
  533MOL0     H73503   5.546   9.017   4.915 -0.4475  1.8148  2.5615
  533MOL0     H73504   5.601   9.355   4.969 -3.5986 -0.9451  0.7347
  533MOL0     H73505   5.736   9.314   5.080  0.2426 -1.9940 -0.1047
  533MOL0     H73506   5.444   9.206   5.073 -0.7757 -5.3089  3.5007
  533MOL0     H73507   5.565   9.117   5.152 -0.8622 -0.3414 -0.1511
  533MOL0     H73508   5.435   9.277   5.303  1.5637 -3.2177 -0.4469
  533MOL0     H73509   5.601   9.282   5.328 -1.5765  0.0413  2.6133
  533MOL0     H73510   5.489   9.519   5.317 -1.4102 -3.1133  2.2301
  533MOL0     H73511   5.616   9.500   5.184 -0.0149  0.2039 -1.3036
  533MOL0     H73512   5.591   9.707   5.144  3.6065 -2.3257 -2.3167
  533MOL0     H73513   5.557  10.024   4.997 -0.1854  1.2627 -0.8164
  533MOL0     H73514   5.683   9.954   4.898 -1.0738  0.0297 -0.7869
  533MOL0     H73515   5.683   9.895   5.065 -1.6425 -1.2930  1.2705
  533MOL0     H73516   5.649  10.006   4.464 -1.0382 -3.1151  3.5976
  533MOL0     H73517   5.615  10.191   4.298  0.6408 -1.8106 -0.4113
  533MOL0     H73518   5.557  10.301   4.066 -1.6284  0.6991 -1.4242
  533MOL0     H73519   5.548  10.124   4.080 -0.2769 -0.8943  2.1653
  533MOL0     H73520   5.359  10.279   3.890 -2.5060 -2.8841 -1.2900
  533MOL0     H73521   5.508  10.193   3.853  0.4445 -2.2479  1.0876
  533MOL0     H73522   5.352  10.013   4.017 -1.8652 -4.2059 -2.6128
  533MOL0     H73523   5.442   9.994   3.874 -0.3156 -0.2095 -1.0222
  533MOL0     H73524   5.247  10.112   3.742 -2.2510 -0.4402 -2.0580
  533MOL0     H73525   5.162  10.126   3.889  0.9268 -0.9929  0.8119
  533MOL0     H73526   5.250   9.852   3.788  1.6769  2.4300 -0.3397
  533MOL0     H73527   5.133   9.898   3.921 -1.4761  0.9105 -0.3501
  533MOL0     H73528   5.070   9.986   3.637 -1.2598  1.7454  0.9713
  533MOL0     H73529   4.983   9.991   3.790  0.5449  0.7763  0.5693
  533MOL0     H73530   4.966   9.745   3.802 -0.8680 -0.6003  0.2465
  533MOL0     H73531   5.084   9.740   3.662  1.7036 -0.3520  2.0106
  533MOL0     H73532   4.833   9.673   3.628 -0.0941  1.0560 -0.2742
  533MOL0     H73533   4.887   9.806   3.512 -0.8639  1.1059 -0.3803
  533MOL0     H73534   5.198  10.102   4.322 -1.1641 -0.6803  2.3401
  533MOL0     H73535   5.233   9.952   4.507 -1.7766  0.5281 -0.4528
  533MOL0     H73536   5.367   9.659   4.711 -0.6790  0.1951  0.1859
  533MOL0     H73537   5.322   9.488   4.883  0.0872 -0.5448 -0.7797
  533MOL0     H73538   6.202   8.165   5.255  0.0345 -2.2540  3.0717
  533MOL0     H73539   6.257   8.080   5.473 -0.1442 -0.3898  0.2132
  533MOL0     H73540   6.421   7.945   5.763 -3.4654  0.4874  0.7812
  533MOL0     H73541   6.411   7.803   5.941  0.4767  0.3795 -2.5528
  533MOL0     H73542   6.668   7.898   6.299 -0.5457  3.2607  1.0031
  533MOL0     H73543   6.516   7.953   6.355  1.8646  2.5299  1.2800
  533MOL0     H73544   6.606   7.659   6.383 -0.1091 -1.3107  2.3141
  533MOL0     H73545   6.439   7.714   6.389  1.0961 -1.0553 -0.3540
  533MOL0     H73546   6.481   7.876   6.575  1.9492  0.8032 -0.4651
  533MOL0     H73547   6.508   7.700   6.614 -2.9334 -0.5729 -1.8631
  533MOL0     H73548   6.741   7.877   6.530 -1.4216 -1.0315 -1.8129
  533MOL0     H73549   6.744   7.719   6.599  1.2068  0.6684 -3.9282
  533MOL0     H73550   6.708   7.977   6.942 -0.9211 -2.5802  1.8592
  533MOL0     H73551   6.628   8.092   6.186  0.3162 -0.8864 -0.0764
  533MOL0     H73552   6.689   8.316   5.939 -0.0219 -1.9184 -0.5231
  533MOL0     H73553   6.529   8.367   6.022 -0.5055 -1.2607 -0.1717
  533MOL0     H73554   6.660   8.290   6.115  1.1628  1.3493  0.8823
  534MOL0     O73555   9.219   7.517   8.436  0.5224  0.1409  0.2936
  534MOL0     C73556   9.285   7.513   8.330 -0.0722 -0.3182  0.0881
  534MOL0     O73557   9.228   7.518   8.210 -0.7673  0.4713  0.3398
  534MOL0     C73558   9.087   7.536   8.192  0.0504  0.1072 -0.1691
  534MOL0     C73559   8.994   7.441   8.166  0.6302  0.4659  0.6824
  534MOL0     C73560   8.861   7.461   8.176  1.4064 -0.2168 -0.1462
  534MOL0     C73561   8.818   7.596   8.196 -0.6684 -0.8140 -0.2952
  534MOL0     O73562   8.689   7.616   8.233 -0.3256  0.1891 -0.1506
  534MOL0     C73563   8.595   7.579   8.137 -0.1760 -0.5160 -0.1836
  534MOL0     C73564   8.483   7.667   8.156  1.0461 -0.6186 -0.3837
  534MOL0     C73565   8.509   7.793   8.087 -0.5370 -0.4460 -0.6378
  534MOL0     C73566   8.380   7.878   8.072  0.7353  0.1305 -0.8103
  534MOL0     C73567   8.415   8.020   8.020 -0.4354  0.2460  0.5925
  534MOL0     C73568   8.286   8.088   7.969 -0.3145 -0.4713 -0.3796
  534MOL0     C73569   8.306   8.203   7.867 -0.1409  0.0513 -0.4704
  534MOL0     C73570   8.167   8.222   7.800 -0.6650 -0.2550  0.3876
  534MOL0     N73571   8.188   8.321   7.694  0.2376 -0.3847  0.3973
  534MOL0     C73572   8.172   8.451   7.706  0.5582  0.4087  0.3746
  534MOL0     C73573   8.205   8.509   7.582  1.8153  0.3499 -0.1382
  534MOL0     C73574   8.203   8.656   7.551  0.0708  0.4524 -0.0703
  534MOL0     C73575   8.074   8.741   7.583  0.0449  0.7900  0.4444
  534MOL0     C73576   8.118   8.869   7.648 -1.1002  0.2542  0.9374
  534MOL0     C73577   8.004   8.971   7.671  0.2709 -0.9866 -0.0853
  534MOL0     O73578   8.048   9.099   7.736  1.1048  0.4050 -0.1787
  534MOL0     C73579   8.035   9.107   7.878  0.1834  0.1906  0.1329
  534MOL0     C73580   8.008   8.999   7.965 -1.3455 -0.8269  0.0332
  534MOL0     C73581   8.012   9.019   8.104  0.0059  0.5124  0.5951
  534MOL0     C73582   8.002   8.889   8.181 -0.7716  0.3893 -0.6021
  534MOL0     C73583   8.028   9.148   8.159 -0.8493  0.3079 -0.1618
  534MOL0     C73584   8.027   9.187   8.305 -0.2718  0.2423 -0.1302
  534MOL0     O73585   8.087   9.307   8.341  0.2204 -0.1840 -0.1683
  534MOL0     C73586   8.025   9.392   8.437 -1.7376  0.1986  0.1715
  534MOL0     C73587   7.900   9.380   8.475  0.6031  0.3634 -0.3869
  534MOL0     C73588   7.857   9.471   8.573  0.7586  0.3241  0.5268
  534MOL0     C73589   7.941   9.571   8.623 -0.8338  0.0468  0.1245
  534MOL0     O73590   7.879   9.668   8.704 -0.8466  0.8387 -0.5594
  534MOL0     C73591   7.915   9.804   8.679 -0.3922  0.2254  0.0078
  534MOL0     C73592   7.811   9.903   8.740 -0.6129  0.4203  0.3213
  534MOL0     C73593   7.767   9.866   8.882  0.0880 -0.4840 -1.5198
  534MOL0     C73594   7.796   9.997   8.970  1.3474 -1.3804  0.2491
  534MOL0     C73595   7.770   9.975   9.116  0.2699  0.5324  0.5306
  534MOL0     C73596   7.767  10.105   9.196  0.6386 -0.1345 -1.4520
  534MOL0     C73597   7.708  10.069   9.329 -0.4209 -0.7317 -0.8960
  534MOL0     C73598   7.783  10.128   9.450 -0.3220  0.5744 -1.0816
  534MOL0    Cl73599   7.734  10.304   9.467 -0.2375 -0.0237  0.6932
  534MOL0     C73600   8.074   9.592   8.579 -0.4006  0.2687  1.0787
  534MOL0     C73601   8.110   9.493   8.480  0.1157 -0.4762  0.8829
  534MOL0     O73602   7.973   9.108   8.384 -0.3977 -0.0668  0.0761
  534MOL0     C73603   8.045   9.252   8.063 -0.1812 -0.4500  0.0726
  534MOL0     C73604   8.053   9.235   7.930  0.9745  0.0777  0.3154
  534MOL0     N73605   8.203   8.407   7.491  0.1182 -0.2399  1.2901
  534MOL0     N73606   8.194   8.296   7.559  0.4402  0.8178 -0.0547
  534MOL0     C73607   8.909   7.703   8.205 -0.8239 -0.2482  0.0444
  534MOL0     C73608   9.043   7.663   8.208  0.1308 -0.2488 -0.2789
  534MOL0     C73609   9.435   7.501   8.324 -0.1939  0.4396 -0.7277
  534MOL0     C73610   9.496   7.478   8.201  0.1412  0.0384  0.1392
  534MOL0     C73611   9.629   7.455   8.192 -0.0492 -0.7090 -0.4040
  534MOL0     C73612   9.707   7.465   8.305 -0.4300  0.1790  0.2656
  534MOL0     O73613   9.837   7.485   8.279  0.0215 -0.1900 -0.5925
  534MOL0     C73614   9.926   7.534   8.381 -0.3444 -0.4492  0.7009
  534MOL0     C73615  10.068   7.534   8.336 -0.1522 -0.4873 -0.2642
  534MOL0     C73616  10.099   7.543   8.184  0.9236  0.2589 -0.3786
  534MOL0     C73617  10.238   7.501   8.142 -0.0339  0.0681  0.1700
  534MOL0     C73618  10.334   7.596   8.195 -0.9225  0.3099 -0.5447
  534MOL0     C73619  10.426   7.667   8.237  0.5860 -0.0061  0.0187
  534MOL0     C73620   9.643   7.480   8.429 -0.1411 -0.7653 -0.4225
  534MOL0     C73621   9.506   7.493   8.446 -0.9172  0.2039  1.0691
  534MOL0     C73622   9.459   7.499   8.592 -0.0346  0.0328 -0.5431
  534MOL0     H73623   9.011   7.337   8.141  5.5863  0.3033  3.4365
  534MOL0     H73624   8.786   7.386   8.155  2.3431 -1.3100  0.2630
  534MOL0     H73625   8.567   7.475   8.158  2.1487 -1.3442 -0.7920
  534MOL0     H73626   8.629   7.578   8.033 -0.2885 -2.3982 -0.2432
  534MOL0     H73627   8.407   7.617   8.095  1.3846  1.0711 -2.2745
  534MOL0     H73628   8.455   7.694   8.258  1.7671 -1.2044 -0.0218
  534MOL0     H73629   8.586   7.854   8.136  0.1129 -2.5270  1.1202
  534MOL0     H73630   8.549   7.775   7.987 -2.1114  0.8245 -1.5299
  534MOL0     H73631   8.319   7.824   7.999  5.1993 -2.1964 -3.2482
  534MOL0     H73632   8.314   7.879   8.159  1.2354  1.3272 -0.4235
  534MOL0     H73633   8.474   8.007   7.928 -0.5303 -3.6307  0.9167
  534MOL0     H73634   8.470   8.089   8.084  2.0569 -0.3543 -0.7746
  534MOL0     H73635   8.231   8.010   7.914  0.6615 -0.6882 -1.0732
  534MOL0     H73636   8.219   8.119   8.050 -1.8935 -1.0205 -1.4284
  534MOL0     H73637   8.372   8.167   7.787 -2.0133 -2.4849 -1.0162
  534MOL0     H73638   8.342   8.295   7.914 -3.2423  0.3405  1.6055
  534MOL0     H73639   8.125   8.135   7.749  1.2055 -0.0434 -1.6490
  534MOL0     H73640   8.105   8.268   7.878  2.0607 -0.6273  2.9466
  534MOL0     H73641   8.167   8.515   7.794  2.9183  1.2610 -0.0281
  534MOL0     H73642   8.214   8.654   7.443 -0.2273 -3.2305 -0.1629
  534MOL0     H73643   8.291   8.710   7.590 -1.8074  3.5157  0.2603
  534MOL0     H73644   8.003   8.744   7.500  1.7649 -2.3629 -1.3288
  534MOL0     H73645   8.024   8.681   7.660  1.2972 -1.6984 -0.6072
  534MOL0     H73646   8.167   8.851   7.744  1.4408  1.5580 -0.0147
  534MOL0     H73647   8.177   8.924   7.574 -3.2163  2.3004  0.6700
  534MOL0     H73648   7.974   9.011   7.574  3.0988  2.0593  0.1389
  534MOL0     H73649   7.921   8.927   7.728 -1.0022  0.7186 -0.5714
  534MOL0     H73650   8.002   8.901   7.918 -2.3825 -1.0739  0.6448
  534MOL0     H73651   8.078   8.893   8.259 -3.0106  3.6192  1.6709
  534MOL0     H73652   8.016   8.795   8.126 -0.2813 -1.0307  1.8378
  534MOL0     H73653   7.905   8.883   8.231  0.0829  3.6376  1.7421
  534MOL0     H73654   7.825   9.311   8.438  0.7419  0.9858 -1.8733
  534MOL0     H73655   7.754   9.474   8.609  0.6634 -1.8993  0.5838
  534MOL0     H73656   8.012   9.828   8.722 -1.1307  5.5817 -0.5649
  534MOL0     H73657   7.910   9.833   8.574  0.4718  0.0475 -0.0870
  534MOL0     H73658   7.851  10.004   8.734  0.2166  0.1391  0.9064
  534MOL0     H73659   7.726   9.889   8.672 -0.0370 -0.7876 -0.1943
  534MOL0     H73660   7.823   9.792   8.939 -1.3625  0.0326  0.7112
  534MOL0     H73661   7.658   9.858   8.884 -0.1886  2.3155 -0.0403
  534MOL0     H73662   7.723  10.073   8.942 -0.3146 -1.6944  3.3241
  534MOL0     H73663   7.892  10.042   8.944  0.0575 -0.1190 -2.8104
  534MOL0     H73664   7.671   9.931   9.127 -1.1936  3.9908  3.3735
  534MOL0     H73665   7.838   9.900   9.157 -0.3994  1.1707  2.9175
  534MOL0     H73666   7.705  10.187   9.159  2.9200  2.3903  0.0040
  534MOL0     H73667   7.864  10.153   9.205 -1.0477  3.1861  1.3490
  534MOL0     H73668   7.698   9.961   9.346  0.8072 -0.6221  0.7712
  534MOL0     H73669   7.604  10.102   9.340 -0.0935 -0.5240  5.4433
  534MOL0     H73670   7.890  10.116   9.427  0.0724 -0.2863  0.9958
  534MOL0     H73671   7.745  10.076   9.538  2.0232  2.1408  1.0140
  534MOL0     H73672   8.127   9.686   8.593 -1.3255  1.2967 -1.6310
  534MOL0     H73673   8.207   9.502   8.432  0.7983 -3.3632  1.5266
  534MOL0     H73674   8.070   9.350   8.103  2.2470 -0.8939 -0.1831
  534MOL0     H73675   8.077   9.311   7.857  0.2890 -0.6417 -0.6816
  534MOL0     H73676   8.867   7.800   8.230 -0.2081 -0.6708  3.1474
  534MOL0     H73677   9.117   7.739   8.233 -0.2362 -0.2238  0.7613
  534MOL0     H73678   9.440   7.470   8.109 -0.0938 -1.2397  0.3662
  534MOL0     H73679   9.681   7.446   8.097  0.7803 -1.0608  0.0723
  534MOL0     H73680   9.893   7.635   8.404  0.0879  0.6998 -3.1161
  534MOL0     H73681   9.910   7.467   8.466 -1.8235  0.3073  1.0539
  534MOL0     H73682  10.121   7.456   8.391  3.8665  1.6137 -0.8248
  534MOL0     H73683  10.113   7.627   8.370  2.5508 -1.2953 -1.3646
  534MOL0     H73684  10.043   7.469   8.125  3.5659 -0.7939 -1.7480
  534MOL0     H73685  10.080   7.645   8.150 -1.4553 -0.4423 -1.3624
  534MOL0     H73686  10.243   7.512   8.033  0.0736  1.5663  0.3147
  534MOL0     H73687  10.246   7.396   8.172 -0.5348 -1.1803 -3.5339
  534MOL0     H73688  10.503   7.719   8.291  0.3623 -0.7940  1.1254
  534MOL0     H73689   9.702   7.502   8.517 -1.3373  1.4500 -0.0947
  534MOL0     H73690   9.379   7.427   8.609  0.5327 -1.1108 -2.4675
  534MOL0     H73691   9.543   7.471   8.657 -0.0621 -1.2207 -1.0276
  534MOL0     H73692   9.419   7.600   8.610  1.4249  0.7337 -1.0440
  535MOL0     O73693   2.611   9.785   8.110  0.8313  0.4470  0.2595
  535MOL0     C73694   2.588   9.820   8.227  0.8761  0.1158  0.8744
  535MOL0     O73695   2.531   9.740   8.322  1.0131  0.2739  0.3378
  535MOL0     C73696   2.486   9.617   8.276  0.2406  0.0306 -0.0252
  535MOL0     C73697   2.344   9.591   8.254 -0.1295 -0.1043 -0.1429
  535MOL0     C73698   2.305   9.478   8.184 -0.5628 -0.5914 -0.2705
  535MOL0     C73699   2.404   9.382   8.145  0.4130  0.0272  0.0729
  535MOL0     O73700   2.367   9.274   8.081  0.3829  0.4484 -0.8037
  535MOL0     C73701   2.441   9.255   7.959 -0.2033  0.5517 -0.3344
  535MOL0     C73702   2.374   9.137   7.883  0.6643  0.2144  0.0890
  535MOL0     C73703   2.487   9.076   7.795 -0.1413  0.0439 -0.1519
  535MOL0     C73704   2.445   8.951   7.714 -0.4880 -0.1907  0.5967
  535MOL0     C73705   2.555   8.902   7.631 -0.0344  0.0304  0.3523
  535MOL0     C73706   2.504   8.781   7.555  0.1765 -0.3018  0.2661
  535MOL0     C73707   2.617   8.706   7.477 -0.7380 -0.1261  0.0358
  535MOL0     C73708   2.664   8.588   7.552  0.0013  0.2133  0.2032
  535MOL0     N73709   2.805   8.566   7.517  0.6458  0.3284 -0.3675
  535MOL0     C73710   2.852   8.482   7.422  0.8843 -0.1538  0.3840
  535MOL0     C73711   2.980   8.478   7.432  0.4359  0.1009  0.6400
  535MOL0     C73712   3.058   8.416   7.317  1.3281  0.3811  0.2358
  535MOL0     C73713   3.187   8.358   7.364  0.5057 -1.5067  0.6145
  535MOL0     C73714   3.252   8.289   7.252  0.2493  1.5068 -0.4951
  535MOL0     C73715   3.352   8.371   7.176  0.7743 -0.1167  0.1389
  535MOL0     O73716   3.480   8.397   7.233  0.1728  0.4883  0.7839
  535MOL0     C73717   3.569   8.485   7.168  0.3326  0.5289 -0.6835
  535MOL0     C73718   3.679   8.435   7.105 -0.9101  0.3973  0.2867
  535MOL0     C73719   3.764   8.518   7.034 -0.2766 -0.0662  0.9554
  535MOL0     C73720   3.879   8.454   6.973  0.2593  0.7576  0.1978
  535MOL0     C73721   3.739   8.656   7.029  0.1197  0.1618 -0.4026
  535MOL0     C73722   3.822   8.748   6.936  0.1969  0.5220 -0.0540
  535MOL0     O73723   3.829   8.880   6.975 -0.2500  0.0865 -0.5296
  535MOL0     C73724   3.898   8.959   6.885 -0.6356  0.4460  0.1181
  535MOL0     C73725   4.038   8.950   6.886  0.2759 -0.8009  0.4104
  535MOL0     C73726   4.110   9.021   6.785  0.1759 -0.5480  0.1996
  535MOL0     C73727   4.033   9.121   6.705  0.1451 -0.1151  0.1224
  535MOL0     O73728   4.102   9.208   6.619 -0.5969  0.5614 -0.1145
  535MOL0     C73729   4.096   9.160   6.484  0.2184 -0.2525 -0.0821
  535MOL0     C73730   4.137   9.279   6.390 -0.5737 -0.6800 -0.2636
  535MOL0     C73731   4.169   9.234   6.250  0.3955 -0.0474 -0.5760
  535MOL0     C73732   4.200   9.359   6.158 -0.0287 -0.2916  0.4693
  535MOL0     C73733   4.235   9.317   6.008  0.2840  0.5516 -0.1830
  535MOL0     C73734   4.331   9.203   5.987  0.4912  0.2264 -0.4582
  535MOL0     C73735   4.331   9.139   5.849 -0.3122  1.1247 -0.1863
  535MOL0     C73736   4.440   9.037   5.843 -0.3230 -0.2699 -0.4309
  535MOL0    Cl73737   4.374   8.889   5.759  0.0083  0.0033  0.1415
  535MOL0     C73738   3.898   9.145   6.730 -0.2475 -0.8085  0.8095
  535MOL0     C73739   3.831   9.068   6.821 -0.9363 -0.0253 -0.8473
  535MOL0     O73740   3.868   8.705   6.827  0.2945 -0.9363 -0.1756
  535MOL0     C73741   3.627   8.708   7.104  0.2723 -0.2257  0.5459
  535MOL0     C73742   3.545   8.630   7.171  0.4687 -0.5055  0.6455
  535MOL0     N73743   3.010   8.571   7.529  0.1428 -0.6075 -0.1675
  535MOL0     N73744   2.910   8.622   7.575 -0.2501 -0.2996  0.7568
  535MOL0     C73745   2.539   9.396   8.181 -0.5470 -0.5628  0.3377
  535MOL0     C73746   2.580   9.514   8.240  0.2128  1.0819  0.1744
  535MOL0     C73747   2.634   9.947   8.274 -0.2987 -0.1913 -0.7442
  535MOL0     C73748   2.578  10.004   8.392 -0.7359  0.6540  0.8709
  535MOL0     C73749   2.625  10.123   8.442  0.7556 -0.4847 -1.0257
  535MOL0     C73750   2.716  10.195   8.364 -0.5611  0.2773 -0.6212
  535MOL0     O73751   2.726  10.323   8.406 -0.4356  0.5477 -0.9721
  535MOL0     C73752   2.856  10.384   8.384 -0.5206  0.0402 -0.4954
  535MOL0     C73753   2.954  10.342   8.497 -0.0661 -0.1905 -0.0973
  535MOL0     C73754   3.069  10.442   8.508  0.0913 -0.2919  0.0785
  535MOL0     C73755   3.154  10.415   8.629  0.3150 -0.0196 -0.2583
  535MOL0     C73756   3.254  10.520   8.649  0.0769 -0.6785 -0.1475
  535MOL0     C73757   3.330  10.609   8.646  0.2109  0.3929 -0.2224
  535MOL0     C73758   2.776  10.141   8.254 -0.1166 -0.5796 -0.4558
  535MOL0     C73759   2.741  10.014   8.211 -0.1749  0.3728  0.5026
  535MOL0     C73760   2.844   9.950   8.110  0.7555 -0.1686 -0.3936
  535MOL0     H73761   2.265   9.657   8.286 -2.0406 -1.6050 -1.5497
  535MOL0     H73762   2.202   9.467   8.150  0.3053 -1.2861 -2.9685
  535MOL0     H73763   2.538   9.227   8.002 -0.6525  0.5444  0.7122
  535MOL0     H73764   2.457   9.335   7.886 -1.2988 -1.1071 -2.4991
  535MOL0     H73765   2.342   9.063   7.958  1.8466 -1.3531 -0.8801
  535MOL0     H73766   2.284   9.165   7.828 -0.6969 -3.8401 -0.1108
  535MOL0     H73767   2.533   9.155   7.735 -1.4656  1.8188  1.0588
  535MOL0     H73768   2.571   9.046   7.859  1.1292  0.3866 -1.5897
  535MOL0     H73769   2.409   8.873   7.782  1.4989  0.4866  2.5364
  535MOL0     H73770   2.362   8.981   7.650  0.0886  1.2402  0.4723
  535MOL0     H73771   2.644   8.882   7.691 -1.2463  1.8630  2.9459
  535MOL0     H73772   2.578   8.981   7.559  0.3325 -0.8471 -0.5151
  535MOL0     H73773   2.440   8.717   7.616 -2.2399  0.6825 -1.0902
  535MOL0     H73774   2.439   8.823   7.477  0.0199  0.8402  0.9832
  535MOL0     H73775   2.706   8.765   7.452 -0.4314 -1.3443 -2.0320
  535MOL0     H73776   2.576   8.673   7.381 -0.8926  0.9008 -0.2622
  535MOL0     H73777   2.655   8.621   7.656  0.2319  2.8429 -0.5388
  535MOL0     H73778   2.608   8.495   7.539 -0.1452  0.4303 -0.8222
  535MOL0     H73779   2.795   8.437   7.341 -1.3154 -0.0790  1.7900
  535MOL0     H73780   3.077   8.487   7.236 -3.6553  2.3091  0.4092
  535MOL0     H73781   3.004   8.331   7.274  3.3430 -0.6145 -0.4739
  535MOL0     H73782   3.251   8.430   7.418 -2.6163  0.4445  2.0310
  535MOL0     H73783   3.170   8.277   7.436 -0.6379 -1.4024  0.4712
  535MOL0     H73784   3.304   8.214   7.311 -2.6584 -0.9071 -0.7390
  535MOL0     H73785   3.179   8.239   7.187  0.6447 -0.2048  0.3225
  535MOL0     H73786   3.366   8.317   7.083 -2.2941 -1.1957  0.1953
  535MOL0     H73787   3.317   8.473   7.159 -0.0665  0.0020  2.2148
  535MOL0     H73788   3.701   8.330   7.115  1.8369  1.0584  2.7385
  535MOL0     H73789   3.879   8.345   6.988  0.6264  0.7609  0.2446
  535MOL0     H73790   3.969   8.493   7.022  1.2458 -0.6998 -0.3632
  535MOL0     H73791   3.893   8.468   6.865  2.3091 -3.5232 -0.3113
  535MOL0     H73792   4.102   8.884   6.944  1.0305 -0.3063  0.1603
  535MOL0     H73793   4.216   9.044   6.790 -0.6996  4.2539  2.4075
  535MOL0     H73794   4.164   9.075   6.490  2.9098  1.8141  1.3988
  535MOL0     H73795   3.997   9.131   6.447 -0.9232  3.5724 -0.4490
  535MOL0     H73796   4.061   9.357   6.391  1.4847  1.4713 -1.8535
  535MOL0     H73797   4.225   9.332   6.428 -0.8436 -0.0043 -0.5651
  535MOL0     H73798   4.092   9.182   6.193  0.0823  0.2145 -0.3919
  535MOL0     H73799   4.260   9.172   6.251  1.0682  0.9001  1.2422
  535MOL0     H73800   4.291   9.404   6.198  1.4548 -1.3057 -1.6353
  535MOL0     H73801   4.119   9.432   6.147  0.2969 -0.1286 -0.9289
  535MOL0     H73802   4.138   9.282   5.971  0.3091 -2.1099  1.9417
  535MOL0     H73803   4.271   9.402   5.950 -1.4292  2.0368  0.8032
  535MOL0     H73804   4.310   9.120   6.055  0.2510  1.0457  0.4896
  535MOL0     H73805   4.432   9.237   6.011  1.0355 -0.8399 -1.1312
  535MOL0     H73806   4.348   9.219   5.778  3.7133  1.2987  0.7688
  535MOL0     H73807   4.234   9.088   5.843  0.7710 -0.9120 -1.6565
  535MOL0     H73808   4.476   9.016   5.944 -0.3209 -0.2998 -0.4382
  535MOL0     H73809   4.523   9.083   5.788 -0.4474  0.8845  0.3136
  535MOL0     H73810   3.846   9.226   6.680 -2.9589 -1.2543  2.6703
  535MOL0     H73811   3.729   9.089   6.850 -1.0370  2.4339 -2.5910
  535MOL0     H73812   3.607   8.814   7.101 -1.1962 -0.4191  1.9809
  535MOL0     H73813   3.459   8.676   7.219 -1.4291  0.2691 -3.1113
  535MOL0     H73814   2.615   9.319   8.166  0.2239 -0.4773  3.1717
  535MOL0     H73815   2.682   9.536   8.272  0.8338 -0.8604 -0.3316
  535MOL0     H73816   2.496   9.955   8.444 -1.9094 -0.4546 -1.8254
  535MOL0     H73817   2.585  10.176   8.528 -2.0359 -0.7784 -2.0329
  535MOL0     H73818   2.916  10.366   8.295  2.7006  0.2970  1.4915
  535MOL0     H73819   2.831  10.491   8.379  0.3510  0.3105  0.6559
  535MOL0     H73820   2.989  10.240   8.480  1.1061  0.2050 -0.1088
  535MOL0     H73821   2.900  10.341   8.592 -1.6116 -1.6555 -0.9296
  535MOL0     H73822   3.143  10.438   8.427  0.0133 -1.2108  0.0496
  535MOL0     H73823   3.034  10.546   8.514  4.6741  1.6518 -1.8433
  535MOL0     H73824   3.208  10.321   8.615  0.3441  0.0497 -0.6128
  535MOL0     H73825   3.100  10.405   8.724 -2.1666 -0.8682 -1.6750
  535MOL0     H73826   3.396  10.693   8.658 -0.8622  1.2538 -0.1703
  535MOL0     H73827   2.854  10.187   8.194  0.5493  1.2099  1.6781
  535MOL0     H73828   2.864   9.849   8.147  0.2355  0.8144  2.8211
  535MOL0     H73829   2.809   9.968   8.008 -1.4960  1.1253  0.5418
  535MOL0     H73830   2.943   9.997   8.107  0.1865  1.1748 -4.0001
  536MOL0     O73831  10.894   5.530   4.763  0.5091 -0.4928  0.0592
  536MOL0     C73832  10.898   5.479   4.647  0.0218 -0.6319  0.5319
  536MOL0     O73833  10.859   5.541   4.538  0.0522  0.3937 -0.0326
  536MOL0     C73834  10.771   5.647   4.552  0.5682  0.6346 -0.1394
  536MOL0     C73835  10.819   5.768   4.598  0.2017 -0.3206 -0.4986
  536MOL0     C73836  10.732   5.876   4.613  0.8913  0.0374 -0.6598
  536MOL0     C73837  10.610   5.875   4.561 -0.7650 -0.5294  0.0533
  536MOL0     O73838  10.531   5.985   4.575  0.8908 -0.3483 -0.0837
  536MOL0     C73839  10.484   6.011   4.710  1.2237  0.6208  0.2488
  536MOL0     C73840  10.576   6.090   4.792  0.0803  1.1960 -0.0491
  536MOL0     C73841  10.493   6.112   4.918  0.1245 -0.7038 -0.4148
  536MOL0     C73842  10.578   6.171   5.028  0.4260 -0.0929  0.3831
  536MOL0     C73843  10.510   6.189   5.168  0.7484 -0.7501 -0.7850
  536MOL0     C73844  10.379   6.266   5.167 -0.5470  0.5165  0.3500
  536MOL0     C73845  10.323   6.299   5.304 -0.3867  0.0119 -0.0628
  536MOL0     C73846  10.394   6.429   5.357  1.3921  0.7101  0.5415
  536MOL0     N73847  10.338   6.545   5.289  0.0189  0.2607  0.9339
  536MOL0     C73848  10.205   6.575   5.278  0.5761 -0.0070  0.5384
  536MOL0     C73849  10.203   6.681   5.198  0.1129 -0.3925 -0.3941
  536MOL0     C73850  10.071   6.747   5.151 -0.3002  0.1727 -0.4708
  536MOL0     C73851  10.074   6.762   4.991  0.0574 -0.4284  0.1493
  536MOL0     C73852  10.071   6.635   4.903 -0.5085 -0.2008 -0.1176
  536MOL0     C73853  10.124   6.650   4.765 -0.3480 -1.1482  0.2122
  536MOL0     O73854  10.126   6.530   4.698 -0.7317  0.3378 -0.4904
  536MOL0     C73855  10.212   6.518   4.586 -0.4866  0.7268 -0.2028
  536MOL0     C73856  10.256   6.393   4.545  0.4427 -1.4393 -0.1950
  536MOL0     C73857  10.358   6.381   4.453  0.3411  0.6110  0.3301
  536MOL0     C73858  10.414   6.235   4.444  0.3069 -0.5974 -0.1949
  536MOL0     C73859  10.409   6.492   4.379  0.2506 -0.4666 -0.3229
  536MOL0     C73860  10.515   6.484   4.285 -0.6390  1.1707 -0.8104
  536MOL0     O73861  10.566   6.600   4.253 -0.1254 -0.5042 -0.4519
  536MOL0     C73862  10.663   6.611   4.159  0.5947 -0.3208  0.5494
  536MOL0     C73863  10.628   6.602   4.025 -0.2615  1.2131  0.0741
  536MOL0     C73864  10.718   6.642   3.922 -0.3117 -0.9103  0.5978
  536MOL0     C73865  10.858   6.670   3.967 -0.4927 -0.3173 -0.5045
  536MOL0     O73866  10.960   6.712   3.892 -0.0605 -0.0764 -0.2507
  536MOL0     C73867  10.952   6.705   3.748  0.2159 -1.0138 -0.5981
  536MOL0     C73868  11.095   6.727   3.689  0.2454 -0.1077 -0.0475
  536MOL0     C73869  11.195   6.617   3.740  0.8068 -0.0774 -0.5600
  536MOL0     C73870  11.334   6.671   3.726 -0.8167  0.7757  0.5899
  536MOL0     C73871  11.450   6.586   3.778  0.0581 -0.5429  0.3221
  536MOL0     C73872  11.580   6.658   3.804 -0.5218 -0.2355  0.0473
  536MOL0     C73873  11.685   6.587   3.884 -0.1767  0.1003 -0.1526
  536MOL0     C73874  11.794   6.690   3.945 -0.8840  0.2798  0.1581
  536MOL0    Cl73875  11.873   6.781   3.811 -0.0571  0.1127 -0.0542
  536MOL0     C73876  10.889   6.668   4.100 -0.0261 -0.1924  0.3903
  536MOL0     C73877  10.790   6.635   4.193 -0.1103  0.2009 -0.2261
  536MOL0     O73878  10.557   6.378   4.241 -0.5224 -1.1264 -0.0145
  536MOL0     C73879  10.362   6.619   4.420  0.0196 -0.2298 -0.3757
  536MOL0     C73880  10.265   6.630   4.520  0.4541  0.7469 -0.7775
  536MOL0     N73881  10.337   6.719   5.168  0.3170 -0.8481  0.5059
  536MOL0     N73882  10.420   6.634   5.223  0.5935 -0.9752  0.6749
  536MOL0     C73883  10.560   5.761   4.505  0.4320 -0.3782  0.4738
  536MOL0     C73884  10.640   5.646   4.501  0.2018 -1.0048 -0.2376
  536MOL0     C73885  10.999   5.374   4.624 -0.7325 -0.6160 -0.7204
  536MOL0     C73886  11.047   5.367   4.493 -0.6800 -0.4862 -0.2970
  536MOL0     C73887  11.149   5.270   4.471 -0.0274  0.0395  0.0911
  536MOL0     C73888  11.208   5.199   4.566  0.0192  0.8884 -0.6493
  536MOL0     O73889  11.319   5.121   4.539  0.6884  1.0809 -0.3258
  536MOL0     C73890  11.326   5.046   4.419  0.3993 -0.2908 -0.7808
  536MOL0     C73891  11.432   4.944   4.426  0.3078 -0.5912  0.3543
  536MOL0     C73892  11.578   4.985   4.432 -0.6099  0.0584  0.0183
  536MOL0     C73893  11.692   4.874   4.432  0.2095 -0.1680  0.9135
  536MOL0     C73894  11.753   4.876   4.298 -1.1282  0.0343 -0.0525
  536MOL0     C73895  11.808   4.866   4.187  0.2051  0.6025  0.3385
  536MOL0     C73896  11.145   5.195   4.691 -0.9627  0.0663 -0.5703
  536MOL0     C73897  11.046   5.286   4.725 -0.3694 -0.6531  0.6722
  536MOL0     C73898  11.017   5.298   4.874  1.1483 -0.1848  0.5436
  536MOL0     H73899  10.923   5.784   4.624 -0.1319  0.6003  0.3356
  536MOL0     H73900  10.779   5.969   4.644 -2.4046  2.3559 -2.0814
  536MOL0     H73901  10.464   5.919   4.765 -0.8358 -0.1519 -1.6389
  536MOL0     H73902  10.384   6.054   4.707  0.9435  0.0509  1.1192
  536MOL0     H73903  10.660   6.027   4.823 -0.6267  0.7712  1.0641
  536MOL0     H73904  10.615   6.178   4.740  1.6267  0.5318 -0.0603
  536MOL0     H73905  10.407   6.177   4.900 -1.7506 -1.8085  3.5879
  536MOL0     H73906  10.457   6.017   4.958 -0.4203  0.0572  0.9280
  536MOL0     H73907  10.662   6.104   5.051  1.3299  0.4806 -1.0749
  536MOL0     H73908  10.605   6.265   4.978  0.8314 -0.9047 -0.9933
  536MOL0     H73909  10.581   6.232   5.239 -0.3925 -1.6713  0.9990
  536MOL0     H73910  10.478   6.089   5.200 -5.3416  0.8037 -0.8242
  536MOL0     H73911  10.401   6.349   5.099 -0.0505 -1.2653 -1.7974
  536MOL0     H73912  10.307   6.208   5.109  2.5749 -0.0395 -3.4287
  536MOL0     H73913  10.328   6.213   5.371  0.1537  0.0820 -0.0127
  536MOL0     H73914  10.214   6.306   5.297 -0.2538  0.3771 -3.2443
  536MOL0     H73915  10.369   6.424   5.464  3.4037  1.3889  1.1080
  536MOL0     H73916  10.503   6.417   5.355  1.1531 -1.9098 -0.9502
  536MOL0     H73917  10.124   6.518   5.323 -0.5884  1.8329  0.8585
  536MOL0     H73918  10.055   6.847   5.194  0.8744  0.3198 -0.3373
  536MOL0     H73919   9.984   6.689   5.181  1.7892 -3.2398 -0.4529
  536MOL0     H73920   9.992   6.832   4.972  3.0283  3.9706  1.7169
  536MOL0     H73921  10.175   6.790   4.960  0.0470 -0.5788 -0.0188
  536MOL0     H73922  10.129   6.565   4.964  1.7178  1.6742  0.0642
  536MOL0     H73923   9.970   6.598   4.881  0.0631 -0.9049 -1.7058
  536MOL0     H73924  10.065   6.733   4.724 -0.6825  0.0908  2.9417
  536MOL0     H73925  10.228   6.682   4.777 -0.1549 -1.3505 -0.7954
  536MOL0     H73926  10.209   6.315   4.605 -2.5359  0.5657  0.3044
  536MOL0     H73927  10.393   6.211   4.339  0.1424  1.2373 -0.6126
  536MOL0     H73928  10.376   6.168   4.522  1.5657  0.4963  1.4158
  536MOL0     H73929  10.522   6.246   4.458  0.0677  2.1580 -0.0246
  536MOL0     H73930  10.528   6.582   3.988 -0.4941 -3.2442  2.4619
  536MOL0     H73931  10.698   6.633   3.816  0.6542 -0.7962  0.3935
  536MOL0     H73932  10.893   6.616   3.725  0.5014 -1.0669 -1.1574
  536MOL0     H73933  10.888   6.784   3.709  1.0204 -0.5900 -1.0875
  536MOL0     H73934  11.092   6.713   3.581  1.9151  0.4588 -0.1959
  536MOL0     H73935  11.127   6.830   3.704 -1.3087  0.9331 -3.0539
  536MOL0     H73936  11.181   6.526   3.681  0.6761  1.6671 -3.4117
  536MOL0     H73937  11.177   6.611   3.848 -0.9493  2.2600 -0.6330
  536MOL0     H73938  11.342   6.770   3.771 -0.3344  0.1191  1.9968
  536MOL0     H73939  11.353   6.685   3.619 -0.0623 -3.1456  0.0292
  536MOL0     H73940  11.421   6.548   3.876 -0.7822  1.3532  0.8491
  536MOL0     H73941  11.465   6.502   3.709 -1.8460  0.8282 -1.9245
  536MOL0     H73942  11.547   6.742   3.866 -0.6128  0.5733 -1.0829
  536MOL0     H73943  11.619   6.688   3.707 -0.6895  1.3081  0.4367
  536MOL0     H73944  11.738   6.521   3.815  0.4732  1.4491 -0.9949
  536MOL0     H73945  11.639   6.522   3.959 -2.2371  1.7240  0.0748
  536MOL0     H73946  11.871   6.647   4.009  2.4975  2.5801 -2.0113
  536MOL0     H73947  11.747   6.764   4.010 -0.8872  0.7338 -0.3471
  536MOL0     H73948  10.988   6.697   4.135 -0.5475 -0.4377  2.1927
  536MOL0     H73949  10.824   6.644   4.295  4.8011  1.0106 -1.6677
  536MOL0     H73950  10.402   6.711   4.378  1.1379  1.1822  3.3946
  536MOL0     H73951  10.244   6.732   4.551 -0.6387 -0.2996  2.2924
  536MOL0     H73952  10.461   5.780   4.465 -0.7068 -0.9527  2.8078
  536MOL0     H73953  10.607   5.554   4.453 -1.3034 -1.2606  1.1828
  536MOL0     H73954  11.004   5.416   4.407 -0.9216  0.0322  0.1110
  536MOL0     H73955  11.165   5.260   4.364 -0.7590  2.7082 -0.3456
  536MOL0     H73956  11.230   4.999   4.397  0.1510  1.2238 -3.1929
  536MOL0     H73957  11.348   5.122   4.344  1.3669 -0.9403 -1.1801
  536MOL0     H73958  11.421   4.896   4.328 -1.6669  1.1400 -0.3333
  536MOL0     H73959  11.432   4.867   4.504  3.0285 -1.0688 -0.0393
  536MOL0     H73960  11.599   5.055   4.350  2.1199  1.0014  1.3817
  536MOL0     H73961  11.588   5.041   4.525 -2.4499 -2.7494  2.0275
  536MOL0     H73962  11.646   4.778   4.457 -2.9333  0.5527 -1.4544
  536MOL0     H73963  11.760   4.905   4.512  2.2535  3.3514 -1.8411
  536MOL0     H73964  11.852   4.872   4.089 -0.4610 -1.6304 -0.1577
  536MOL0     H73965  11.189   5.130   4.766 -3.7349 -2.0943 -0.6149
  536MOL0     H73966  10.910   5.316   4.891  0.6241 -1.3469 -1.2403
  536MOL0     H73967  11.057   5.203   4.912  0.3454 -0.7336  0.0545
  536MOL0     H73968  11.075   5.378   4.920  1.7304  0.7012 -1.6136
  537MOL0     O73969   5.912   8.140   1.849  0.0471 -0.1275 -0.0381
  537MOL0     C73970   5.984   8.195   1.932 -0.9463 -0.1221  0.2732
  537MOL0     O73971   6.125   8.195   1.917 -0.9579 -0.4654 -0.0495
  537MOL0     C73972   6.168   8.111   1.823 -0.1218  0.4591  0.5652
  537MOL0     C73973   6.245   7.998   1.863  0.7698 -0.4615  0.0455
  537MOL0     C73974   6.266   7.907   1.762 -1.1902 -1.1868 -0.1171
  537MOL0     C73975   6.237   7.924   1.622 -0.7410  1.0672 -0.2849
  537MOL0     O73976   6.283   7.827   1.528  0.6123 -0.1819 -0.0738
  537MOL0     C73977   6.272   7.849   1.390 -0.4578  0.3564 -0.4645
  537MOL0     C73978   6.131   7.847   1.350  0.9999 -0.3805  0.5332
  537MOL0     C73979   6.043   7.735   1.410  0.5288 -0.1388 -1.0520
  537MOL0     C73980   5.900   7.768   1.381  0.3026  0.3998  0.2982
  537MOL0     C73981   5.842   7.883   1.467  0.1618 -0.4577 -0.2576
  537MOL0     C73982   5.693   7.887   1.476  0.5231 -0.9110  0.2162
  537MOL0     C73983   5.642   8.013   1.555  0.4015  0.6926 -0.2679
  537MOL0     C73984   5.492   8.002   1.588  0.1117 -0.2225  0.9770
  537MOL0     N73985   5.463   8.114   1.674  0.4156 -0.6802 -0.1811
  537MOL0     C73986   5.361   8.212   1.653  0.6423 -0.0422 -0.6618
  537MOL0     C73987   5.364   8.293   1.760 -0.3101 -0.6668  0.1704
  537MOL0     C73988   5.271   8.397   1.808  0.2923 -1.1779  0.8164
  537MOL0     C73989   5.146   8.333   1.871  0.0321  0.2752 -0.6418
  537MOL0     C73990   5.031   8.429   1.918 -0.1209  0.2972  0.7934
  537MOL0     C73991   4.927   8.359   2.004 -0.7242  0.0409 -1.1321
  537MOL0     O73992   4.843   8.263   1.932  0.1017 -0.1536 -0.5070
  537MOL0     C73993   4.759   8.177   1.998 -0.1085 -0.0918  0.9926
  537MOL0     C73994   4.677   8.107   1.917  0.4141  1.0338  0.2571
  537MOL0     C73995   4.582   8.016   1.969 -0.0137  0.3985 -0.9724
  537MOL0     C73996   4.475   7.971   1.874  0.2911  0.3705 -0.1262
  537MOL0     C73997   4.573   8.000   2.119 -0.6855 -0.4116  0.0942
  537MOL0     C73998   4.478   7.902   2.182  0.3523  0.5158 -0.7450
  537MOL0     O73999   4.442   7.909   2.313  0.1658 -0.9736 -0.1281
  537MOL0     C74000   4.332   7.839   2.365  0.0440  1.1750  0.1711
  537MOL0     C74001   4.210   7.835   2.306  0.5441  0.0133 -0.5278
  537MOL0     C74002   4.117   7.741   2.356 -0.7109 -0.1651 -0.1221
  537MOL0     C74003   4.133   7.690   2.482 -0.4640 -0.0081  0.0924
  537MOL0     O74004   4.050   7.606   2.539 -0.4077  0.3586  0.4890
  537MOL0     C74005   4.010   7.499   2.461 -0.5658 -0.5633 -0.2978
  537MOL0     C74006   3.863   7.482   2.497  0.4883 -0.0514 -0.4557
  537MOL0     C74007   3.771   7.585   2.430 -0.1279  0.4849 -0.3585
  537MOL0     C74008   3.752   7.708   2.528 -0.0946 -0.1727  0.6056
  537MOL0     C74009   3.646   7.809   2.472  0.3379  1.2992  0.0622
  537MOL0     C74010   3.624   7.916   2.570  0.0022 -0.2409  0.0824
  537MOL0     C74011   3.529   8.018   2.511  0.4139  0.3577  0.9368
  537MOL0     C74012   3.485   8.122   2.616  0.0212  0.0637  1.4447
  537MOL0    Cl74013   3.342   8.221   2.563 -0.2004 -0.1609  0.0181
  537MOL0     C74014   4.254   7.719   2.554 -0.0745 -0.3767 -0.1923
  537MOL0     C74015   4.354   7.788   2.494  0.4701 -0.1742 -0.3367
  537MOL0     O74016   4.460   7.806   2.108  1.1114 -0.2055  0.1265
  537MOL0     C74017   4.663   8.081   2.196 -0.0444  0.5523  0.1511
  537MOL0     C74018   4.749   8.176   2.138 -0.3199  0.7942 -0.6713
  537MOL0     N74019   5.460   8.243   1.850  0.4029 -0.4615 -0.6377
  537MOL0     N74020   5.515   8.137   1.802  0.2817  0.5517 -0.3209
  537MOL0     C74021   6.188   8.048   1.590  0.3791 -0.4137  0.2636
  537MOL0     C74022   6.151   8.137   1.690 -0.0026  0.7017  0.9778
  537MOL0     C74023   5.932   8.267   2.050  0.5213 -0.6923 -0.6050
  537MOL0     C74024   5.832   8.368   2.026  0.0752 -0.3555 -0.0773
  537MOL0     C74025   5.774   8.451   2.117 -0.6280  0.6458  0.3874
  537MOL0     C74026   5.816   8.439   2.246 -0.8879 -0.8962 -0.9867
  537MOL0     O74027   5.740   8.519   2.336 -0.2388  0.1922 -0.2186
  537MOL0     C74028   5.791   8.528   2.474 -0.1482  0.0798  0.5196
  537MOL0     C74029   5.727   8.630   2.566  0.9869 -0.3956 -0.0056
  537MOL0     C74030   5.597   8.564   2.626  0.3255 -0.1937  0.4579
  537MOL0     C74031   5.497   8.664   2.660 -0.2956 -0.7259  1.1106
  537MOL0     C74032   5.368   8.598   2.658  0.5340 -0.3313 -1.1835
  537MOL0     C74033   5.270   8.523   2.665  0.7771 -0.1209  0.3281
  537MOL0     C74034   5.910   8.344   2.286  0.3437  0.6322 -0.9620
  537MOL0     C74035   5.971   8.259   2.187 -0.0371  0.6691  0.0921
  537MOL0     C74036   6.095   8.168   2.232  0.8882  0.0554  0.3333
  537MOL0     H74037   6.297   7.974   1.955 -1.9056  0.6265  1.9767
  537MOL0     H74038   6.320   7.819   1.795  2.4390  1.3370  1.3026
  537MOL0     H74039   6.304   7.762   1.332 -1.2539  1.5315 -2.7974
  537MOL0     H74040   6.331   7.935   1.359  1.3146 -1.0073 -1.0603
  537MOL0     H74041   6.074   7.939   1.366 -0.2597 -0.3955 -2.9883
  537MOL0     H74042   6.130   7.825   1.243  2.2787  1.5450  0.0722
  537MOL0     H74043   6.074   7.635   1.378 -1.2369 -1.2746  0.6033
  537MOL0     H74044   6.058   7.725   1.518 -0.8302 -1.4683 -0.9571
  537MOL0     H74045   5.860   7.759   1.280 -0.3210 -0.0794  0.5797
  537MOL0     H74046   5.842   7.686   1.424  3.6180 -0.4545  3.6623
  537MOL0     H74047   5.880   7.980   1.434 -1.1404 -0.3487 -1.5193
  537MOL0     H74048   5.876   7.867   1.570 -1.3356  0.6739  0.4446
  537MOL0     H74049   5.663   7.893   1.371  2.7602  0.4005 -0.4113
  537MOL0     H74050   5.661   7.789   1.513  1.1006 -2.1241 -2.2629
  537MOL0     H74051   5.681   8.111   1.524  0.2084  0.8035 -0.1629
  537MOL0     H74052   5.676   8.001   1.659 -0.1313  0.0856 -0.1603
  537MOL0     H74053   5.425   7.996   1.501  0.0664  0.6620  0.9396
  537MOL0     H74054   5.482   7.915   1.653  0.3288 -1.2122 -0.2832
  537MOL0     H74055   5.300   8.228   1.564 -1.0635  1.6311  0.7322
  537MOL0     H74056   5.218   8.447   1.726 -3.2528 -1.2627  2.8521
  537MOL0     H74057   5.323   8.472   1.868 -2.6935 -0.1757  2.3584
  537MOL0     H74058   5.107   8.253   1.808 -0.0143 -3.3314  3.4404
  537MOL0     H74059   5.175   8.279   1.962 -0.5903 -0.9258 -1.1416
  537MOL0     H74060   5.077   8.513   1.971  0.8580 -0.3154  0.9188
  537MOL0     H74061   4.982   8.467   1.827  1.3387  1.6216  0.5100
  537MOL0     H74062   4.982   8.300   2.078 -0.9381 -0.0088 -1.0110
  537MOL0     H74063   4.870   8.437   2.057 -1.5734 -1.2046 -0.1403
  537MOL0     H74064   4.690   8.134   1.813  0.1056  1.5047  0.3366
  537MOL0     H74065   4.469   8.053   1.801  3.2068  2.7520  2.0297
  537MOL0     H74066   4.380   7.950   1.923  0.0399 -1.2193 -1.2114
  537MOL0     H74067   4.502   7.879   1.821 -1.0482 -0.1001 -0.0361
  537MOL0     H74068   4.192   7.891   2.215 -1.1591  0.8926  0.3031
  537MOL0     H74069   4.028   7.732   2.295  1.2267  1.8020 -3.5895
  537MOL0     H74070   4.012   7.523   2.354  0.7163  0.4369 -0.0690
  537MOL0     H74071   4.071   7.409   2.474 -0.0603 -0.4333 -1.6213
  537MOL0     H74072   3.828   7.385   2.462 -2.4214  1.8105 -3.1551
  537MOL0     H74073   3.854   7.473   2.606 -0.7533  1.6064 -0.3869
  537MOL0     H74074   3.677   7.531   2.423  2.0260 -3.6876 -0.4296
  537MOL0     H74075   3.809   7.605   2.329  0.0973  0.6933 -0.2338
  537MOL0     H74076   3.848   7.758   2.539  0.8860 -2.2267  1.8430
  537MOL0     H74077   3.729   7.668   2.627 -2.7225 -1.2066 -0.3230
  537MOL0     H74078   3.686   7.844   2.376 -2.4700  0.5430 -1.5024
  537MOL0     H74079   3.550   7.762   2.448 -0.3377  2.2582  0.8388
  537MOL0     H74080   3.708   7.985   2.572 -1.4771  2.1818 -5.0095
  537MOL0     H74081   3.599   7.882   2.671 -1.6778 -3.8394 -1.3398
  537MOL0     H74082   3.440   7.970   2.469  0.5172  0.1400  0.9660
  537MOL0     H74083   3.588   8.058   2.428 -0.7321 -1.5039 -0.8924
  537MOL0     H74084   3.573   8.183   2.634 -0.1910  1.5319 -1.8525
  537MOL0     H74085   3.457   8.074   2.711 -3.3135 -0.5076  0.3284
  537MOL0     H74086   4.266   7.667   2.648 -2.3482 -3.6329 -1.5224
  537MOL0     H74087   4.453   7.796   2.536  1.7408 -3.4983 -2.2981
  537MOL0     H74088   4.662   8.074   2.305  2.1368 -2.2628  0.1122
  537MOL0     H74089   4.802   8.235   2.211  1.1696 -1.0951 -0.1399
  537MOL0     H74090   6.189   8.073   1.484  2.1088  1.5552  0.6741
  537MOL0     H74091   6.123   8.233   1.648 -0.4698  0.0072 -0.3862
  537MOL0     H74092   5.796   8.366   1.924 -2.0671 -0.3615  0.6250
  537MOL0     H74093   5.695   8.518   2.084 -1.3204  0.4459  1.5369
  537MOL0     H74094   5.787   8.430   2.523  2.7232  0.0209  0.8584
  537MOL0     H74095   5.899   8.546   2.470  0.1465 -1.5716  0.2325
  537MOL0     H74096   5.700   8.720   2.510  1.3863  0.2804  0.8724
  537MOL0     H74097   5.792   8.652   2.651 -2.1479 -4.7207  4.0468
  537MOL0     H74098   5.566   8.506   2.538  2.6556  0.3228 -0.7778
  537MOL0     H74099   5.613   8.496   2.710  1.0502 -0.8865 -0.2256
  537MOL0     H74100   5.509   8.740   2.582  2.8516 -1.1057  1.1101
  537MOL0     H74101   5.515   8.700   2.762 -0.5163  0.6023  0.6972
  537MOL0     H74102   5.189   8.453   2.663  0.5231  0.0034  3.1306
  537MOL0     H74103   5.930   8.329   2.392  0.4152 -0.0504 -1.0676
  537MOL0     H74104   6.116   8.176   2.339 -0.5426  0.1629  0.6260
  537MOL0     H74105   6.055   8.067   2.219 -1.5471  0.6990  2.1588
  537MOL0     H74106   6.178   8.199   2.168  1.8600 -0.4572  1.3161
  538MOL0     O74107   6.137  10.873   5.461  0.3076  0.3720  0.6540
  538MOL0     C74108   6.151  10.983   5.517  0.0441 -0.0108  1.0645
  538MOL0     O74109   6.220  11.081   5.468  0.9470  1.2405  0.7401
  538MOL0     C74110   6.293  11.060   5.346  0.8425  0.8073  0.8441
  538MOL0     C74111   6.218  11.036   5.226 -0.2388  0.8072 -0.4970
  538MOL0     C74112   6.293  11.044   5.105  0.8840 -0.1902 -0.4010
  538MOL0     C74113   6.428  11.051   5.104 -0.4649  0.6652 -0.1335
  538MOL0     O74114   6.482  11.023   4.975  0.4335  0.0584 -0.2299
  538MOL0     C74115   6.490  10.878   4.974  0.2097 -0.1161  0.9704
  538MOL0     C74116   6.458  10.840   4.833 -0.3500  0.1208  0.8471
  538MOL0     C74117   6.345  10.924   4.772  0.2351 -0.3303  0.7427
  538MOL0     C74118   6.292  10.864   4.652  0.6863 -0.6055 -0.2609
  538MOL0     C74119   6.176  10.953   4.591  0.0623  0.8596  0.8924
  538MOL0     C74120   6.228  11.046   4.493 -0.7807 -0.8991  0.1660
  538MOL0     C74121   6.123  11.147   4.434 -0.3828 -0.4937 -0.0252
  538MOL0     C74122   6.007  11.061   4.367 -0.3015  0.7842  0.1316
  538MOL0     N74123   5.941  11.144   4.264  0.7119  0.3717 -0.0772
  538MOL0     C74124   5.841  11.245   4.289 -0.3333 -0.0613  0.3557
  538MOL0     C74125   5.827  11.304   4.165 -1.2826 -0.8941  1.6140
  538MOL0     C74126   5.744  11.425   4.125 -1.1193  0.2875  0.3331
  538MOL0     C74127   5.617  11.373   4.073  0.3461  0.1321  0.2255
  538MOL0     C74128   5.535  11.491   4.014  0.7314  0.2793  0.0267
  538MOL0     C74129   5.390  11.438   3.984 -0.7744 -0.9873  0.2739
  538MOL0     O74130   5.326  11.535   3.892 -0.2797  0.0049  0.2589
  538MOL0     C74131   5.347  11.520   3.755  1.3629 -0.4956  0.0799
  538MOL0     C74132   5.256  11.588   3.666 -0.2984 -0.1976 -0.2542
  538MOL0     C74133   5.274  11.573   3.529  0.5538  0.0537 -0.2403
  538MOL0     C74134   5.179  11.654   3.445  0.1109 -0.2332 -0.8293
  538MOL0     C74135   5.358  11.479   3.469  0.8953  0.5914 -0.4604
  538MOL0     C74136   5.382  11.465   3.325 -0.7139  0.4360 -0.7472
  538MOL0     O74137   5.432  11.350   3.276 -0.0631  0.6541  0.0139
  538MOL0     C74138   5.437  11.334   3.137  0.6626 -0.0060 -0.1237
  538MOL0     C74139   5.320  11.279   3.070  0.8215  0.1960 -0.5793
  538MOL0     C74140   5.323  11.274   2.933 -0.1475  0.6058 -0.7563
  538MOL0     C74141   5.441  11.303   2.849  0.5186 -0.0350 -0.8305
  538MOL0     O74142   5.437  11.313   2.712  0.6957  0.3833 -0.3409
  538MOL0     C74143   5.353  11.214   2.634 -0.1179 -0.0168 -0.2187
  538MOL0     C74144   5.385  11.063   2.655  0.0997 -0.4434  0.8656
  538MOL0     C74145   5.310  10.960   2.564 -0.3252  0.1917  0.3965
  538MOL0     C74146   5.374  10.948   2.429 -0.1239  0.7194 -0.0067
  538MOL0     C74147   5.281  10.865   2.341 -0.0101  0.1375  0.0054
  538MOL0     C74148   5.332  10.868   2.196  0.3038 -0.6967  0.7167
  538MOL0     C74149   5.320  10.732   2.119  0.4570 -0.5661 -0.4046
  538MOL0     C74150   5.179  10.686   2.065 -0.8432  0.5082 -1.1567
  538MOL0    Cl74151   5.142  10.763   1.906  0.1574 -0.2635 -0.4434
  538MOL0     C74152   5.562  11.326   2.919 -0.4664 -0.1533 -0.0351
  538MOL0     C74153   5.559  11.345   3.064  0.5323 -0.6030  0.5927
  538MOL0     O74154   5.369  11.561   3.254  0.4742 -0.2216  0.0687
  538MOL0     C74155   5.444  11.412   3.560  0.5265 -0.2761 -0.0393
  538MOL0     C74156   5.446  11.446   3.696 -0.5905 -0.3004  0.3702
  538MOL0     N74157   5.911  11.235   4.072 -0.1633  0.2758  0.2591
  538MOL0     N74158   5.960  11.134   4.135 -0.7229  0.3422 -0.0519
  538MOL0     C74159   6.498  11.072   5.221  0.1220 -0.6490  0.2834
  538MOL0     C74160   6.435  11.086   5.341 -0.6420  0.2581 -0.2283
  538MOL0     C74161   6.083  11.017   5.646  0.1739  0.7695 -0.5179
  538MOL0     C74162   6.108  11.145   5.701 -0.4010 -0.0797 -0.2218
  538MOL0     C74163   6.053  11.185   5.830 -0.1246  0.0286  0.0744
  538MOL0     C74164   5.978  11.095   5.896  0.8408 -0.4662 -0.8749
  538MOL0     O74165   5.912  11.128   6.016 -0.9800  0.3455  0.5572
  538MOL0     C74166   5.994  11.139   6.136  0.1497  0.1143 -0.5051
  538MOL0     C74167   5.912  11.210   6.256  1.0150 -0.6676  0.0206
  538MOL0     C74168   5.772  11.148   6.286 -0.0324 -0.2379 -0.0541
  538MOL0     C74169   5.780  11.033   6.387  0.0196  0.0331 -0.6047
  538MOL0     C74170   5.808  10.903   6.324  0.5347 -0.6627 -0.1606
  538MOL0     C74171   5.859  10.806   6.271 -0.1235  0.4672  0.6362
  538MOL0     C74172   5.938  10.977   5.836 -0.0763 -0.6047 -0.2058
  538MOL0     C74173   5.982  10.938   5.713 -0.0013 -0.4018  0.5356
  538MOL0     C74174   5.938  10.803   5.648  0.1423 -0.2192 -0.7019
  538MOL0     H74175   6.112  11.014   5.235  0.3991 -2.3481  0.5976
  538MOL0     H74176   6.232  11.039   5.015 -4.9615 -1.5258  3.1227
  538MOL0     H74177   6.417  10.824   5.034  1.3836 -1.9385  0.8524
  538MOL0     H74178   6.592  10.848   5.002 -0.1926 -0.5188  2.0256
  538MOL0     H74179   6.547  10.848   4.772 -2.4783 -2.8991 -3.0774
  538MOL0     H74180   6.425  10.737   4.820  2.9307 -0.7352 -1.8930
  538MOL0     H74181   6.261  10.932   4.842 -0.9786 -1.1348 -0.5885
  538MOL0     H74182   6.371  11.026   4.743 -2.2570  0.7267  1.9107
  538MOL0     H74183   6.371  10.865   4.577  2.1610 -1.0046  1.2329
  538MOL0     H74184   6.248  10.765   4.662 -2.4034  0.5001 -1.6320
  538MOL0     H74185   6.118  10.993   4.674  1.6292 -2.1835  3.6871
  538MOL0     H74186   6.102  10.887   4.544  2.2047 -0.2073 -1.2242
  538MOL0     H74187   6.303  11.105   4.547  1.0035 -3.4020  0.5663
  538MOL0     H74188   6.277  10.997   4.408  0.2550  1.1373 -0.4774
  538MOL0     H74189   6.179  11.205   4.360 -1.6510  2.1628  0.9432
  538MOL0     H74190   6.093  11.218   4.512  0.5206  1.2655 -1.2033
  538MOL0     H74191   6.043  10.973   4.313 -3.5022 -0.1132 -0.7617
  538MOL0     H74192   5.939  11.028   4.446  0.5941  2.3270  1.6131
  538MOL0     H74193   5.801  11.275   4.385  0.9967  4.0064 -0.1418
  538MOL0     H74194   5.798  11.496   4.062 -0.9655 -1.3437 -1.4839
  538MOL0     H74195   5.733  11.472   4.223 -0.2481  2.3690 -0.5088
  538MOL0     H74196   5.643  11.299   3.998  1.0323  0.5339  0.0632
  538MOL0     H74197   5.562  11.327   4.156 -0.6151  0.4560 -0.2150
  538MOL0     H74198   5.539  11.591   4.059  1.6702  0.5294 -0.5973
  538MOL0     H74199   5.597  11.519   3.929  1.4007  0.7664  0.6602
  538MOL0     H74200   5.389  11.340   3.936  0.3279 -1.7257  1.6852
  538MOL0     H74201   5.327  11.423   4.071 -1.4310  4.2612  1.0361
  538MOL0     H74202   5.165  11.632   3.707 -1.4420 -1.6089 -1.1646
  538MOL0     H74203   5.108  11.710   3.508 -0.1919 -2.6425  1.1410
  538MOL0     H74204   5.125  11.581   3.383  1.0542 -2.0082  0.3651
  538MOL0     H74205   5.227  11.716   3.369  0.7746 -0.9324 -0.9900
  538MOL0     H74206   5.228  11.253   3.123  0.4881  0.4322 -1.0320
  538MOL0     H74207   5.239  11.222   2.886  0.2345 -0.8492  0.1176
  538MOL0     H74208   5.247  11.224   2.657 -0.4899  3.5768 -2.6754
  538MOL0     H74209   5.360  11.233   2.526 -0.3675  0.9757 -0.0654
  538MOL0     H74210   5.492  11.041   2.648  0.2405  0.5442 -0.3441
  538MOL0     H74211   5.338  11.048   2.753 -2.2900  1.8876  0.1907
  538MOL0     H74212   5.210  11.003   2.555 -1.0295 -1.6055 -0.9896
  538MOL0     H74213   5.307  10.860   2.608 -1.4377  0.2195  0.4116
  538MOL0     H74214   5.476  10.909   2.423  0.4754  2.3575 -3.3141
  538MOL0     H74215   5.384  11.046   2.381  1.4404 -0.0425 -1.3396
  538MOL0     H74216   5.274  10.765   2.386  0.9897  0.6428  1.3510
  538MOL0     H74217   5.188  10.922   2.342  0.8657  1.6250  1.5456
  538MOL0     H74218   5.439  10.893   2.194  0.1821 -0.1885  0.5936
  538MOL0     H74219   5.277  10.945   2.143 -1.0180 -1.3228  1.1394
  538MOL0     H74220   5.351  10.655   2.191  2.8395 -0.5496 -1.3260
  538MOL0     H74221   5.394  10.728   2.038 -1.1454  0.3159 -1.9852
  538MOL0     H74222   5.102  10.723   2.133 -1.1806  1.9379 -2.2350
  538MOL0     H74223   5.171  10.578   2.071  1.7237  0.2763 -0.5778
  538MOL0     H74224   5.653  11.354   2.866 -2.2817  1.1044 -2.6697
  538MOL0     H74225   5.649  11.378   3.114  0.5706 -1.7132  1.2798
  538MOL0     H74226   5.512  11.345   3.509  0.0948  0.2804 -1.4125
  538MOL0     H74227   5.529  11.396   3.744 -0.5016 -0.7374 -0.2237
  538MOL0     H74228   6.604  11.097   5.219 -0.2494  1.0647 -1.7945
  538MOL0     H74229   6.493  11.099   5.431 -2.5279  2.6461  0.7449
  538MOL0     H74230   6.165  11.221   5.649  2.2095  1.4132  4.2860
  538MOL0     H74231   6.062  11.289   5.859 -1.9814  0.7781 -1.7277
  538MOL0     H74232   6.044  11.046   6.164 -0.1974  0.1841  0.3735
  538MOL0     H74233   6.072  11.211   6.112 -3.2016  4.0889 -0.6847
  538MOL0     H74234   5.887  11.309   6.216 -1.1132 -0.0406  2.6689
  538MOL0     H74235   5.960  11.228   6.352  0.1662  1.0187  0.1614
  538MOL0     H74236   5.704  11.220   6.332  1.5398 -0.1734  2.3185
  538MOL0     H74237   5.728  11.116   6.191  2.1305  1.0452 -1.5793
  538MOL0     H74238   5.687  11.019   6.444 -1.5648  0.2096 -2.9879
  538MOL0     H74239   5.856  11.054   6.463  0.9603 -2.6500 -0.7047
  538MOL0     H74240   5.905  10.727   6.214 -1.9247  0.8154 -1.4629
  538MOL0     H74241   5.874  10.912   5.895 -0.8912  0.1930 -0.1932
  538MOL0     H74242   6.020  10.735   5.627 -0.0817 -0.2470 -1.5179
  538MOL0     H74243   5.868  10.753   5.716  0.9510 -0.6659 -0.1928
  538MOL0     H74244   5.881  10.828   5.558  2.8945  3.8072 -1.5962
  539MOL0     O74245   2.743   0.511  10.890 -0.0398 -0.2494 -0.0345
  539MOL0     C74246   2.688   0.430  10.829  0.1367  0.2861 -1.2965
  539MOL0     O74247   2.737   0.338  10.755  0.2932  0.1633  0.0692
  539MOL0     C74248   2.863   0.340  10.707 -0.0169  0.1173 -0.2093
  539MOL0     C74249   2.944   0.229  10.705 -0.2416  0.5665 -0.9610
  539MOL0     C74250   3.072   0.219  10.645 -0.0748  0.4509 -0.2534
  539MOL0     C74251   3.134   0.332  10.591  0.0820 -0.3446  0.2287
  539MOL0     O74252   3.252   0.314  10.530  0.4086 -0.2465  0.1985
  539MOL0     C74253   3.345   0.424  10.555 -0.2073  0.5223  0.1675
  539MOL0     C74254   3.485   0.381  10.598 -0.1040 -0.2737  0.3114
  539MOL0     C74255   3.487   0.306  10.737  1.8496 -0.0545  0.0021
  539MOL0     C74256   3.618   0.264  10.787 -0.6156 -1.1454  0.0368
  539MOL0     C74257   3.692   0.164  10.692 -0.5092  0.0117  0.2398
  539MOL0     C74258   3.816   0.113  10.762  1.0332 -0.0219 -0.1857
  539MOL0     C74259   3.796  -0.003  10.858 -0.5423  0.6840 -0.2016
  539MOL0     C74260   3.924  -0.090  10.862 -0.0151 -0.4941 -0.0796
  539MOL0     N74261   3.910  -0.207  10.953 -0.1350  0.1845  0.9309
  539MOL0     C74262   3.845  -0.202  11.070 -0.0000 -0.5977  0.3778
  539MOL0     C74263   3.868  -0.316  11.138 -0.0506  0.1270 -0.1011
  539MOL0     C74264   3.813  -0.356  11.270 -0.5540  0.4873  1.4985
  539MOL0     C74265   3.882  -0.289  11.383 -0.4634 -1.0697 -0.1025
  539MOL0     C74266   3.876  -0.376  11.511  0.4761 -0.0551 -0.1655
  539MOL0     C74267   3.985  -0.340  11.611  0.5197  0.5993  0.0052
  539MOL0     O74268   3.948  -0.215  11.662 -0.3512  0.2417 -0.5768
  539MOL0     C74269   4.030  -0.157  11.756 -0.3777 -0.4167 -0.5032
  539MOL0     C74270   4.162  -0.193  11.784 -0.6934  0.6249 -0.2850
  539MOL0     C74271   4.240  -0.142  11.889  0.7893  0.1070 -1.0044
  539MOL0     C74272   4.384  -0.183  11.902 -0.1735  1.4354 -0.2536
  539MOL0     C74273   4.176  -0.054  11.989  0.2040  0.4748  0.2378
  539MOL0     C74274   4.232   0.035  12.094 -0.4442 -0.1030  0.3334
  539MOL0     O74275   4.167   0.155  12.124  0.3555  0.7805 -0.8170
  539MOL0     C74276   4.239   0.258  12.186 -0.2178  0.0821  0.1609
  539MOL0     C74277   4.174   0.328  12.286 -0.0033 -1.2421 -0.4204
  539MOL0     C74278   4.237   0.437  12.344  1.1729  0.2264  0.2532
  539MOL0     C74279   4.352   0.488  12.292 -1.0931 -0.9181 -0.6496
  539MOL0     O74280   4.419   0.597  12.346  0.3123 -0.3890 -0.3449
  539MOL0     C74281   4.346   0.684  12.434  0.1999 -0.1656 -0.1602
  539MOL0     C74282   4.425   0.815  12.478 -0.0399  0.8002  0.1836
  539MOL0     C74283   4.425   0.921  12.372  1.3095 -0.3692 -0.7408
  539MOL0     C74284   4.412   1.060  12.454 -0.0426 -0.4702  0.9254
  539MOL0     C74285   4.434   1.176  12.363 -0.5407  1.0741 -0.1854
  539MOL0     C74286   4.360   1.300  12.396 -0.2150  0.4417  0.2112
  539MOL0     C74287   4.452   1.425  12.380  1.3695  0.0350  0.1267
  539MOL0     C74288   4.482   1.444  12.231  0.0013  0.2164  0.3654
  539MOL0    Cl74289   4.624   1.541  12.220 -0.1134  0.3379  0.3944
  539MOL0     C74290   4.416   0.412  12.195  0.6624 -0.8263 -0.3704
  539MOL0     C74291   4.371   0.294  12.144  0.2278  0.5328  1.2620
  539MOL0     O74292   4.338   0.000  12.147  0.2586 -0.4863  0.8648
  539MOL0     C74293   4.031  -0.038  11.967  0.4026 -0.0910  0.6623
  539MOL0     C74294   3.966  -0.086  11.853  0.1682 -0.2787  0.0620
  539MOL0     N74295   3.945  -0.393  11.046  0.9560 -0.0851  0.0147
  539MOL0     N74296   3.981  -0.324  10.941 -0.6307 -0.5112 -0.8358
  539MOL0     C74297   3.057   0.452  10.590 -0.5368 -0.5812  0.0859
  539MOL0     C74298   2.921   0.453  10.645 -0.3704  0.2975  0.2918
  539MOL0     C74299   2.542   0.432  10.855  0.2403  1.0319  0.1845
  539MOL0     C74300   2.470   0.310  10.803 -0.2852 -0.8389 -0.6915
  539MOL0     C74301   2.331   0.299  10.822 -0.1396  0.3869 -0.4282
  539MOL0     C74302   2.255   0.390  10.901  0.4474  0.3626  0.8730
  539MOL0     O74303   2.132   0.350  10.945  0.4245  0.4730 -0.3018
  539MOL0     C74304   2.139   0.274  11.075 -0.9019 -0.5958  0.1833
  539MOL0     C74305   2.086   0.136  11.060 -0.2663  0.1745 -0.7775
  539MOL0     C74306   1.952   0.122  11.126 -0.5532  0.2651  0.5164
  539MOL0     C74307   1.845   0.170  11.019 -0.5697  0.0364  0.6608
  539MOL0     C74308   1.710   0.186  11.084 -1.2035 -0.9936 -0.0560
  539MOL0     C74309   1.612   0.213  11.146 -0.3246 -0.2076  0.8209
  539MOL0     C74310   2.318   0.510  10.928 -0.0228 -0.2221 -0.0074
  539MOL0     C74311   2.460   0.535  10.912 -0.8275 -0.6835  0.5857
  539MOL0     C74312   2.509   0.678  10.945  0.2348  0.0597  0.3273
  539MOL0     H74313   2.899   0.142  10.752  4.9688 -0.5811  2.8230
  539MOL0     H74314   3.132   0.128  10.639  1.7183  1.0570  4.3480
  539MOL0     H74315   3.308   0.490  10.634 -2.9058 -0.7235  0.0523
  539MOL0     H74316   3.355   0.488  10.467  0.4889  0.5575  0.2613
  539MOL0     H74317   3.538   0.322  10.523  2.3323 -0.4099  2.0469
  539MOL0     H74318   3.548   0.470  10.607 -1.2628  0.4280  2.1015
  539MOL0     H74319   3.456   0.376  10.815  3.9811  2.5304 -1.3144
  539MOL0     H74320   3.427   0.215  10.726 -0.7326  1.6631 -1.0951
  539MOL0     H74321   3.685   0.350  10.795  0.6476 -2.2256  1.6719
  539MOL0     H74322   3.627   0.225  10.888  0.4927  1.4734  1.0386
  539MOL0     H74323   3.718   0.221  10.602  1.7244 -0.3393  0.5998
  539MOL0     H74324   3.623   0.082  10.674  0.9437 -1.5984  1.6209
  539MOL0     H74325   3.890   0.083  10.687  2.3214  1.5687  0.3881
  539MOL0     H74326   3.853   0.197  10.822 -0.5408  0.5833 -0.0082
  539MOL0     H74327   3.714  -0.063  10.817 -1.2990  1.1635  0.5749
  539MOL0     H74328   3.767   0.040  10.955  1.1995 -3.6393  2.5475
  539MOL0     H74329   3.960  -0.132  10.767  2.7115 -1.0075  1.0718
  539MOL0     H74330   4.004  -0.021  10.889 -0.4167  0.0016 -0.1392
  539MOL0     H74331   3.795  -0.116  11.113 -0.3664  0.9455 -2.8501
  539MOL0     H74332   3.810  -0.465  11.278 -4.2494  0.3922  0.6090
  539MOL0     H74333   3.706  -0.332  11.271 -0.1474  2.5334  0.8928
  539MOL0     H74334   3.988  -0.273  11.359 -0.0132 -4.0870 -0.4196
  539MOL0     H74335   3.844  -0.188  11.401  1.5236 -0.0531 -1.2737
  539MOL0     H74336   3.781  -0.352  11.560  1.4796  1.2721  1.2517
  539MOL0     H74337   3.884  -0.482  11.489  0.5782  0.1766 -1.2674
  539MOL0     H74338   3.993  -0.411  11.693 -0.2283  0.4980 -0.0073
  539MOL0     H74339   4.084  -0.327  11.567  1.4149 -3.4976  0.4364
  539MOL0     H74340   4.213  -0.262  11.718 -0.3346 -1.0363  1.6261
  539MOL0     H74341   4.408  -0.255  11.823 -0.7383  1.2635 -0.2798
  539MOL0     H74342   4.408  -0.225  12.000  1.6094  1.3900 -0.6819
  539MOL0     H74343   4.444  -0.095  11.879  1.9400  0.3147  0.7380
  539MOL0     H74344   4.080   0.289  12.324  0.7341 -3.1935 -0.4806
  539MOL0     H74345   4.193   0.478  12.434 -0.7904  1.4704 -1.1829
  539MOL0     H74346   4.259   0.723  12.380  1.7689  1.3141 -1.7716
  539MOL0     H74347   4.314   0.629  12.523 -4.0269 -2.9269 -2.9943
  539MOL0     H74348   4.365   0.846  12.564 -0.0902 -1.5263  1.0480
  539MOL0     H74349   4.523   0.776  12.506 -1.8440 -2.2718  2.9065
  539MOL0     H74350   4.330   0.907  12.320 -0.1491  0.8535  1.4258
  539MOL0     H74351   4.515   0.910  12.311  2.6953  1.0873  0.9465
  539MOL0     H74352   4.480   1.077  12.537  0.0970 -0.1311  0.7428
  539MOL0     H74353   4.320   1.056  12.513 -0.1010 -0.6294  0.8260
  539MOL0     H74354   4.541   1.195  12.372 -0.0426 -2.2020  4.8657
  539MOL0     H74355   4.419   1.155  12.257 -3.5033  0.1893  0.2952
  539MOL0     H74356   4.321   1.291  12.498 -0.5236  0.7263  0.1232
  539MOL0     H74357   4.266   1.311  12.340  0.4426 -0.6027 -1.1335
  539MOL0     H74358   4.546   1.414  12.435  1.4264 -0.0206  0.0176
  539MOL0     H74359   4.406   1.519  12.414 -0.0295  0.5355 -2.8989
  539MOL0     H74360   4.402   1.499  12.180 -1.4788  0.2703  2.6394
  539MOL0     H74361   4.488   1.347  12.181 -1.0627 -0.5328  1.6300
  539MOL0     H74362   4.511   0.457  12.169  1.8106 -0.9594  3.0350
  539MOL0     H74363   4.425   0.232  12.074 -0.0784  1.4158  0.2098
  539MOL0     H74364   3.976   0.018  12.041  0.5704 -4.1549  4.2474
  539MOL0     H74365   3.859  -0.072  11.840  0.6047  2.7386 -1.0212
  539MOL0     H74366   3.097   0.539  10.540 -3.3652  1.0732  0.4550
  539MOL0     H74367   2.864   0.545  10.644  0.7677  1.1268 -3.1253
  539MOL0     H74368   2.525   0.227  10.758  0.2067  1.4903 -5.0034
  539MOL0     H74369   2.284   0.201  10.815 -0.5566  0.0372  4.1079
  539MOL0     H74370   2.246   0.271  11.097 -0.8734  1.4616  0.5430
  539MOL0     H74371   2.086   0.323  11.157  0.6259 -2.9411  2.7510
  539MOL0     H74372   2.156   0.074  11.118  1.8836  2.1387 -1.0692
  539MOL0     H74373   2.090   0.101  10.957  2.2579  2.4545 -1.5818
  539MOL0     H74374   1.930   0.017  11.143 -0.4557 -0.4399 -2.8672
  539MOL0     H74375   1.948   0.175  11.222  2.1720 -0.5318  1.1377
  539MOL0     H74376   1.832   0.099  10.936 -1.6987  0.6016  0.3301
  539MOL0     H74377   1.869   0.271  10.986  1.2031 -0.1740  1.2296
  539MOL0     H74378   1.526   0.246  11.202 -3.1603 -1.0154 -2.6543
  539MOL0     H74379   2.256   0.593  10.960 -0.0057  1.0281 -2.8701
  539MOL0     H74380   2.555   0.721  10.855 -2.9690  0.2619 -1.3344
  539MOL0     H74381   2.432   0.751  10.972  0.2327  0.4811 -0.7427
  539MOL0     H74382   2.585   0.668  11.024  3.0230 -2.7522 -2.4210
  540MOL0     O74383   1.838   1.760   8.985 -0.0699 -0.3882 -0.4561
  540MOL0     C74384   1.839   1.647   8.940  0.6396 -0.0728  0.0209
  540MOL0     O74385   1.725   1.567   8.906 -0.8035 -0.4045 -0.7740
  540MOL0     C74386   1.610   1.625   8.939  0.4946  0.4840 -0.0136
  540MOL0     C74387   1.524   1.585   9.043 -0.4291  0.6145  1.1475
  540MOL0     C74388   1.391   1.624   9.035 -0.4544  0.8879 -0.1686
  540MOL0     C74389   1.336   1.702   8.937  0.7264  0.3783  0.3295
  540MOL0     O74390   1.201   1.729   8.933 -0.3111 -0.1102  0.1952
  540MOL0     C74391   1.156   1.859   8.913  0.8978 -0.0170 -0.3513
  540MOL0     C74392   1.203   1.953   9.025  0.3702  0.2057 -0.5355
  540MOL0     C74393   1.132   1.929   9.159  0.0691  0.8604  1.0604
  540MOL0     C74394   1.198   2.032   9.257  0.2214  0.2560  0.4812
  540MOL0     C74395   1.167   1.981   9.400  0.5443 -0.1330 -0.5221
  540MOL0     C74396   1.182   2.101   9.495 -0.2934 -0.4698 -0.3733
  540MOL0     C74397   1.255   2.071   9.625  0.1341  0.0370  0.1041
  540MOL0     C74398   1.232   2.180   9.733 -0.6581  0.4612 -0.0206
  540MOL0     N74399   1.328   2.291   9.724  0.2394  0.2548  0.4530
  540MOL0     C74400   1.302   2.424   9.683 -0.5848 -0.2282  0.9456
  540MOL0     C74401   1.422   2.475   9.663  0.1096  0.0456 -0.4894
  540MOL0     C74402   1.450   2.609   9.617 -0.2753 -0.9989 -0.5585
  540MOL0     C74403   1.463   2.617   9.467 -0.4563  1.3157  0.8900
  540MOL0     C74404   1.325   2.595   9.392 -0.0523  0.5071 -0.6862
  540MOL0     C74405   1.335   2.558   9.246  1.0198  0.1666 -0.0358
  540MOL0     O74406   1.198   2.564   9.184  0.2651  0.2430  0.6049
  540MOL0     C74407   1.171   2.492   9.066 -0.2256 -0.8249 -0.5353
  540MOL0     C74408   1.271   2.445   8.976 -0.0440 -0.3557 -0.4218
  540MOL0     C74409   1.243   2.377   8.860 -0.9902 -0.4405 -0.4185
  540MOL0     C74410   1.365   2.319   8.784  1.2583  0.0044  0.5325
  540MOL0     C74411   1.106   2.348   8.834 -0.0935  0.5528 -0.1799
  540MOL0     C74412   1.070   2.282   8.703 -0.4724  0.1805  0.2635
  540MOL0     O74413   1.005   2.338   8.595 -0.7665 -0.6235  0.7066
  540MOL0     C74414   0.952   2.464   8.614 -0.0134 -0.5249  0.0058
  540MOL0     C74415   0.812   2.466   8.606 -0.1571  0.4052 -0.4899
  540MOL0     C74416   0.752   2.592   8.624  0.6847  0.3008 -0.3168
  540MOL0     C74417   0.821   2.709   8.635  0.8859  0.0238  0.0595
  540MOL0     O74418   0.758   2.829   8.653 -0.5130 -0.2435 -0.0576
  540MOL0     C74419   0.742   2.920   8.542 -0.0768  0.2170  0.1720
  540MOL0     C74420   0.823   3.045   8.566  0.5989  0.2194  0.3947
  540MOL0     C74421   0.748   3.122   8.677  0.4104  0.5482  0.2379
  540MOL0     C74422   0.815   3.262   8.684  0.1245  1.0959  0.0855
  540MOL0     C74423   0.714   3.353   8.753  0.8606 -1.1606 -0.2901
  540MOL0     C74424   0.737   3.499   8.716 -0.6334  0.1443 -0.0716
  540MOL0     C74425   0.645   3.582   8.801  0.2454  0.2503 -0.6490
  540MOL0     C74426   0.625   3.719   8.735  1.0888 -0.0937  0.3368
  540MOL0    Cl74427   0.768   3.826   8.716 -0.2911  0.0246 -0.2552
  540MOL0     C74428   0.960   2.707   8.640  0.8047 -0.3225 -0.0855
  540MOL0     C74429   1.020   2.587   8.637 -0.3706 -0.3724 -0.6951
  540MOL0     O74430   1.122   2.170   8.702  0.0494 -0.1873 -0.1802
  540MOL0     C74431   1.002   2.403   8.910 -0.0758  0.0942 -0.7029
  540MOL0     C74432   1.032   2.465   9.031  0.8348  0.5942 -0.0288
  540MOL0     N74433   1.514   2.397   9.718 -0.1678  0.0912 -0.4381
  540MOL0     N74434   1.458   2.283   9.753  0.0839  0.0911  0.3175
  540MOL0     C74435   1.430   1.753   8.845 -0.1153  0.8400 -0.3557
  540MOL0     C74436   1.567   1.713   8.841  0.4802 -1.2137 -0.0207
  540MOL0     C74437   1.974   1.595   8.882  0.0084 -0.9058 -0.9998
  540MOL0     C74438   1.972   1.531   8.758 -0.1742  0.0700 -0.9761
  540MOL0     C74439   2.086   1.498   8.694  0.2590 -0.4344  0.1748
  540MOL0     C74440   2.216   1.511   8.757 -0.4531  0.2482  0.5383
  540MOL0     O74441   2.337   1.468   8.711 -0.3687 -0.3181 -0.1371
  540MOL0     C74442   2.338   1.334   8.706  0.4267 -1.2980  0.4639
  540MOL0     C74443   2.468   1.296   8.773  0.6341  0.3166 -0.3898
  540MOL0     C74444   2.500   1.148   8.785 -0.3837 -0.1860 -0.8752
  540MOL0     C74445   2.630   1.118   8.857 -0.4176 -0.9835  0.0461
  540MOL0     C74446   2.656   0.978   8.861  0.4918 -0.7568 -0.4511
  540MOL0     C74447   2.698   0.870   8.876 -0.3240 -0.5644 -0.6576
  540MOL0     C74448   2.225   1.576   8.879  0.4809 -0.3274  0.2164
  540MOL0     C74449   2.106   1.613   8.941  1.3853 -0.1323  0.6455
  540MOL0     C74450   2.109   1.668   9.083 -0.6160  0.5319 -0.2916
  540MOL0     H74451   1.546   1.517   9.124  0.2106  0.1014  0.5517
  540MOL0     H74452   1.320   1.586   9.108 -0.6697  1.5833 -0.0044
  540MOL0     H74453   1.048   1.865   8.923  0.8569 -2.9659  2.6067
  540MOL0     H74454   1.184   1.892   8.812  0.9236 -2.5027 -1.2173
  540MOL0     H74455   1.310   1.934   9.036  0.4094  1.1339  0.8182
  540MOL0     H74456   1.191   2.059   9.000 -4.5811  0.7330  2.7669
  540MOL0     H74457   1.030   1.954   9.129  1.2796  2.8465 -1.8364
  540MOL0     H74458   1.141   1.825   9.192  0.0164  0.2676 -0.6866
  540MOL0     H74459   1.308   2.033   9.255  0.2743  0.5709 -2.9575
  540MOL0     H74460   1.154   2.132   9.244  0.6972  0.1087 -3.9686
  540MOL0     H74461   1.219   1.893   9.438  2.3306  1.8844  2.0628
  540MOL0     H74462   1.061   1.957   9.416  0.9117 -1.5382 -0.0985
  540MOL0     H74463   1.252   2.176   9.459  0.2774  0.3306  2.1895
  540MOL0     H74464   1.085   2.149   9.513 -1.2411 -1.6727 -1.9554
  540MOL0     H74465   1.360   2.064   9.594 -0.4843 -1.1737 -1.9022
  540MOL0     H74466   1.226   1.973   9.664 -2.1793  0.7933  0.4101
  540MOL0     H74467   1.128   2.213   9.726 -1.0117 -0.1192  1.7470
  540MOL0     H74468   1.245   2.135   9.832 -3.7209 -0.3362  0.1217
  540MOL0     H74469   1.209   2.466   9.648 -1.5015 -2.8807 -0.0694
  540MOL0     H74470   1.549   2.632   9.658 -0.4857  1.1088 -1.0940
  540MOL0     H74471   1.376   2.680   9.655 -4.2007 -3.7681 -2.3328
  540MOL0     H74472   1.487   2.723   9.452  0.5712  0.8342 -1.1627
  540MOL0     H74473   1.545   2.559   9.426 -0.2447  1.4097  1.1760
  540MOL0     H74474   1.271   2.514   9.442 -0.1401  0.2971 -1.1155
  540MOL0     H74475   1.266   2.685   9.411  0.1151  0.2343  1.3335
  540MOL0     H74476   1.401   2.622   9.186 -0.5559  1.9259  0.0197
  540MOL0     H74477   1.378   2.457   9.248  0.3162 -0.1572 -0.6704
  540MOL0     H74478   1.376   2.451   9.002 -0.1101  1.0256 -0.4278
  540MOL0     H74479   1.350   2.342   8.678 -0.5907  1.2446  1.0220
  540MOL0     H74480   1.379   2.215   8.816  0.3117  0.2865  1.9421
  540MOL0     H74481   1.444   2.386   8.819  1.6164 -0.4954  0.6943
  540MOL0     H74482   0.765   2.369   8.599 -0.3333  0.5182 -0.8761
  540MOL0     H74483   0.644   2.592   8.632  0.6412 -0.8668 -0.7340
  540MOL0     H74484   0.770   2.865   8.452 -1.8178 -3.6696  1.7915
  540MOL0     H74485   0.638   2.949   8.527  0.7477  2.5592 -1.7611
  540MOL0     H74486   0.928   3.023   8.588 -0.2251 -3.7177  1.2069
  540MOL0     H74487   0.805   3.093   8.469 -4.6513 -1.3641  0.2453
  540MOL0     H74488   0.763   3.080   8.777  2.8827  0.4071 -0.1367
  540MOL0     H74489   0.639   3.114   8.666  0.5760 -0.3740 -0.9345
  540MOL0     H74490   0.837   3.297   8.582  0.9267 -3.6109 -1.6009
  540MOL0     H74491   0.906   3.266   8.744 -0.1004  3.0304  0.3798
  540MOL0     H74492   0.612   3.342   8.714  0.6757 -1.0550  0.1513
  540MOL0     H74493   0.716   3.330   8.860 -0.8730  2.3879  0.6525
  540MOL0     H74494   0.715   3.532   8.614 -1.1820  2.3401  0.6959
  540MOL0     H74495   0.844   3.517   8.733 -0.3789 -1.0197 -0.3560
  540MOL0     H74496   0.689   3.591   8.900  1.1503 -0.3474 -0.9815
  540MOL0     H74497   0.552   3.531   8.826  0.7068  1.1234  3.6463
  540MOL0     H74498   0.563   3.775   8.805  0.5751 -0.4448  0.1653
  540MOL0     H74499   0.578   3.704   8.637  0.1227  2.0097  0.4320
  540MOL0     H74500   1.010   2.803   8.643  1.1866 -0.5375  1.7648
  540MOL0     H74501   1.128   2.589   8.641 -0.3801  2.6591  0.8206
  540MOL0     H74502   0.901   2.379   8.878  0.2023 -2.7496  0.3079
  540MOL0     H74503   0.948   2.490   9.095 -3.2324 -1.5753 -4.0322
  540MOL0     H74504   1.398   1.808   8.757  1.1239  0.4800 -1.0635
  540MOL0     H74505   1.630   1.730   8.754  0.5354 -1.3299 -0.0041
  540MOL0     H74506   1.878   1.527   8.705 -0.5969 -1.8174 -0.1737
  540MOL0     H74507   2.080   1.444   8.600  1.4603 -1.1802  0.5062
  540MOL0     H74508   2.245   1.281   8.731 -0.3297 -0.2477 -0.0072
  540MOL0     H74509   2.346   1.308   8.600  2.7405 -2.8648  0.9487
  540MOL0     H74510   2.472   1.332   8.876 -0.4259 -1.2138  0.2299
  540MOL0     H74511   2.553   1.340   8.721  0.6875  3.0310  1.8058
  540MOL0     H74512   2.431   1.095   8.851  3.6593 -2.2742  2.0889
  540MOL0     H74513   2.502   1.117   8.680 -2.1437  1.3111 -1.4074
  540MOL0     H74514   2.631   1.160   8.957  3.6481 -0.2234 -0.1447
  540MOL0     H74515   2.707   1.176   8.804 -1.8386  1.1515  0.2381
  540MOL0     H74516   2.729   0.768   8.881 -0.3894 -0.6277 -1.4422
  540MOL0     H74517   2.321   1.601   8.922 -0.4564  1.6618  1.3275
  540MOL0     H74518   2.044   1.754   9.102  0.4625  1.1564  0.6810
  540MOL0     H74519   2.076   1.584   9.145 -1.2420  2.3955  2.0054
  540MOL0     H74520   2.217   1.678   9.101 -0.5389 -2.9639  2.3674
  541MOL0     O74521   7.604   9.869   9.606  1.1754  0.5058 -0.4767
  541MOL0     C74522   7.596   9.780   9.693 -0.6904  0.5280  0.6813
  541MOL0     O74523   7.621   9.648   9.669  0.0585 -0.1507 -0.6864
  541MOL0     C74524   7.667   9.616   9.541 -0.5881 -0.2629 -0.2443
  541MOL0     C74525   7.594   9.508   9.485 -0.0349  0.0895 -0.1717
  541MOL0     C74526   7.628   9.471   9.353 -0.4730  0.6052 -0.7383
  541MOL0     C74527   7.728   9.538   9.279  0.5757  0.2219 -0.7376
  541MOL0     O74528   7.742   9.503   9.146 -0.5391 -0.1056 -0.1209
  541MOL0     C74529   7.866   9.517   9.079  0.4501 -0.4058 -0.1807
  541MOL0     C74530   7.862   9.434   8.947  0.0412 -0.4942 -0.7888
  541MOL0     C74531   7.840   9.285   8.960  0.0763  0.1399  0.6381
  541MOL0     C74532   7.879   9.220   8.816  0.2721  0.3776  0.5231
  541MOL0     C74533   7.845   9.065   8.819 -0.9894  0.3623 -0.3888
  541MOL0     C74534   7.885   9.007   8.683  0.4003  0.1143 -0.0643
  541MOL0     C74535   7.842   8.860   8.670  1.0146  0.3256 -0.0420
  541MOL0     C74536   7.835   8.818   8.521  0.2161  0.5665  0.8310
  541MOL0     N74537   7.813   8.673   8.522  0.6151  1.1716 -0.2583
  541MOL0     C74538   7.687   8.617   8.538 -1.1582  0.2033 -0.7800
  541MOL0     C74539   7.708   8.488   8.525 -0.3333  0.1916  0.1047
  541MOL0     C74540   7.600   8.381   8.529 -0.0968  0.6103 -1.1410
  541MOL0     C74541   7.528   8.340   8.404 -0.1013 -1.3272  0.2903
  541MOL0     C74542   7.457   8.196   8.418 -0.0233 -0.4231  0.3586
  541MOL0     C74543   7.392   8.166   8.287  1.1910 -0.2027 -0.3045
  541MOL0     O74544   7.302   8.046   8.299  0.5384  0.0730  0.4784
  541MOL0     C74545   7.224   8.008   8.185  0.7538 -0.3527 -0.8546
  541MOL0     C74546   7.138   8.103   8.146  0.4237  0.0451  1.0112
  541MOL0     C74547   7.048   8.087   8.041 -0.3819  0.0769 -0.6221
  541MOL0     C74548   6.964   8.206   7.996 -0.1572 -0.2129 -0.2095
  541MOL0     C74549   7.037   7.958   7.977  0.3241  0.1861  0.5564
  541MOL0     C74550   6.948   7.923   7.865 -0.2649  0.2317  0.1272
  541MOL0     O74551   7.000   7.832   7.783  0.7278 -0.2364  0.8783
  541MOL0     C74552   6.930   7.726   7.710 -0.1964  0.0138 -0.5225
  541MOL0     C74553   6.972   7.595   7.732 -0.2928  0.2541 -0.3916
  541MOL0     C74554   6.898   7.492   7.668 -0.1624 -0.5754  0.3487
  541MOL0     C74555   6.784   7.518   7.584  0.6737 -1.1246  0.3386
  541MOL0     O74556   6.706   7.433   7.525  0.3619 -0.2025  0.3621
  541MOL0     C74557   6.733   7.297   7.558 -0.4119 -0.8760  0.1822
  541MOL0     C74558   6.628   7.198   7.497 -0.0195  0.1411 -0.7772
  541MOL0     C74559   6.653   7.168   7.352 -0.2955  0.8674 -0.1608
  541MOL0     C74560   6.550   7.065   7.293 -0.4375  0.3833  0.7635
  541MOL0     C74561   6.559   7.059   7.133  0.4219 -0.2919 -0.7061
  541MOL0     C74562   6.425   6.992   7.090  0.9784  0.1053 -0.1210
  541MOL0     C74563   6.409   7.008   6.936 -0.3601 -0.9300 -0.0355
  541MOL0     C74564   6.301   6.918   6.891  0.4479 -0.4371  0.6225
  541MOL0    Cl74565   6.303   6.913   6.718  0.0407 -0.5914 -0.0735
  541MOL0     C74566   6.744   7.649   7.571 -0.2457 -0.0546  0.7317
  541MOL0     C74567   6.825   7.749   7.622  0.5772  0.5390  0.4022
  541MOL0     O74568   6.833   7.962   7.864 -0.5719  0.6092  0.0802
  541MOL0     C74569   7.114   7.852   8.034  0.1033  0.1026 -0.2637
  541MOL0     C74570   7.209   7.879   8.137 -0.4813 -0.3442 -0.0207
  541MOL0     N74571   7.844   8.458   8.515 -1.2582  0.2437 -0.4086
  541MOL0     N74572   7.908   8.569   8.520  0.3323 -0.9901 -0.1052
  541MOL0     C74573   7.810   9.632   9.346 -0.3494 -0.1630  0.7101
  541MOL0     C74574   7.784   9.670   9.478  0.2117 -0.6538  0.6915
  541MOL0     C74575   7.568   9.821   9.833 -0.6247 -0.3583  0.4614
  541MOL0     C74576   7.614   9.737   9.935  0.8164  0.3665  0.9165
  541MOL0     C74577   7.591   9.757  10.071  0.2155 -0.0945 -0.7840
  541MOL0     C74578   7.519   9.862  10.120  0.6435 -0.2827  1.3385
  541MOL0     O74579   7.477   9.871  10.243  0.1758  0.2244  0.7169
  541MOL0     C74580   7.341   9.916  10.266 -0.6154  0.2417 -0.5649
  541MOL0     C74581   7.279   9.849  10.382  0.0699 -0.3972 -0.1608
  541MOL0     C74582   7.235   9.716  10.334  0.0003  1.0594  0.4777
  541MOL0     C74583   7.146   9.652  10.448  0.3195 -1.2156  0.0861
  541MOL0     C74584   7.170   9.503  10.458 -0.3913 -0.9265  0.0050
  541MOL0     C74585   7.208   9.388  10.476 -0.1195  0.1536  0.0322
  541MOL0     C74586   7.454   9.942  10.012 -0.5394 -0.6456 -0.6942
  541MOL0     C74587   7.482   9.938   9.872  1.0172  0.2577 -0.0739
  541MOL0     C74588   7.419  10.033   9.777  0.0307  0.1940  0.9316
  541MOL0     H74589   7.505   9.474   9.537 -0.5562 -0.4947 -1.4270
  541MOL0     H74590   7.565   9.398   9.305 -0.6337  0.7012 -0.6762
  541MOL0     H74591   7.949   9.478   9.139  0.4450 -0.1915 -0.0340
  541MOL0     H74592   7.889   9.622   9.062  2.2264 -0.3565  2.1011
  541MOL0     H74593   7.782   9.480   8.887 -0.7515 -0.4863  0.2546
  541MOL0     H74594   7.952   9.459   8.888  1.1349  0.4838  1.1988
  541MOL0     H74595   7.902   9.238   9.037 -0.0507 -0.2714  0.4909
  541MOL0     H74596   7.734   9.260   8.973 -0.5446  0.6459 -2.6573
  541MOL0     H74597   7.812   9.250   8.735  2.0728  0.4408 -0.9975
  541MOL0     H74598   7.985   9.241   8.800 -0.1122  1.2928 -1.0530
  541MOL0     H74599   7.740   9.053   8.849 -0.2973 -1.9289  1.4128
  541MOL0     H74600   7.902   9.006   8.891  1.8073 -0.6473 -3.1897
  541MOL0     H74601   7.824   9.054   8.604 -1.9511 -0.1149  1.5261
  541MOL0     H74602   7.991   9.022   8.661  0.1458  0.8430 -0.9003
  541MOL0     H74603   7.737   8.845   8.695  0.0872  0.8181 -3.2152
  541MOL0     H74604   7.909   8.802   8.734  1.8491  0.4783 -0.7646
  541MOL0     H74605   7.771   8.876   8.454  0.3140  0.7397  0.8882
  541MOL0     H74606   7.941   8.821   8.491  0.0862  1.3831  0.4424
  541MOL0     H74607   7.589   8.658   8.559 -1.6001 -1.1993  0.0001
  541MOL0     H74608   7.526   8.409   8.605  0.9586 -1.5644  0.8002
  541MOL0     H74609   7.652   8.292   8.565 -0.6923  0.9947  0.8170
  541MOL0     H74610   7.439   8.403   8.391 -0.1387 -1.5502 -0.5287
  541MOL0     H74611   7.586   8.342   8.312 -1.9460  2.0171 -0.9893
  541MOL0     H74612   7.528   8.114   8.434  1.0444 -0.0423 -1.9227
  541MOL0     H74613   7.390   8.197   8.504 -1.9259  0.4543 -1.0602
  541MOL0     H74614   7.341   8.255   8.249  0.1823 -0.3781  0.5800
  541MOL0     H74615   7.460   8.149   8.203 -1.3383  0.2202 -2.5704
  541MOL0     H74616   7.151   8.206   8.178  0.6398  1.7036 -3.5767
  541MOL0     H74617   6.869   8.222   8.048 -0.2871 -1.3370 -0.0887
  541MOL0     H74618   6.940   8.185   7.892  0.5588  2.0801 -0.8992
  541MOL0     H74619   7.020   8.300   7.997 -1.2327  0.4376  0.7209
  541MOL0     H74620   7.063   7.575   7.788  0.4303  1.5376 -1.0773
  541MOL0     H74621   6.933   7.390   7.681 -0.8916 -0.9629 -0.5716
  541MOL0     H74622   6.833   7.265   7.527  1.3522  5.2058 -1.8004
  541MOL0     H74623   6.735   7.291   7.667  1.1055  0.9460  0.3036
  541MOL0     H74624   6.627   7.117   7.571  3.1684  2.9528  2.7084
  541MOL0     H74625   6.524   7.233   7.491 -0.1332  0.1190  0.7289
  541MOL0     H74626   6.739   7.102   7.338 -0.3304  0.3891  1.5753
  541MOL0     H74627   6.668   7.262   7.298 -1.4096  3.1497  3.1544
  541MOL0     H74628   6.446   7.088   7.320 -1.4392 -3.2244  0.5669
  541MOL0     H74629   6.587   6.970   7.333  0.2220  0.7046  0.9285
  541MOL0     H74630   6.558   7.160   7.090  0.3202 -0.4595 -1.1008
  541MOL0     H74631   6.644   7.003   7.096  1.2234  2.3748 -3.2643
  541MOL0     H74632   6.345   7.050   7.136  0.3883 -0.8362  0.0658
  541MOL0     H74633   6.425   6.885   7.113 -1.9250 -0.4412 -2.0682
  541MOL0     H74634   6.502   6.986   6.884  1.7842  3.8769  1.1582
  541MOL0     H74635   6.383   7.112   6.912 -1.4411 -0.9259  1.0581
  541MOL0     H74636   6.209   6.965   6.926 -0.3639 -1.2500 -0.3664
  541MOL0     H74637   6.316   6.816   6.927 -0.7481 -1.0682 -0.5819
  541MOL0     H74638   6.661   7.690   7.513  1.4705  1.7179 -0.6084
  541MOL0     H74639   6.812   7.852   7.591 -1.6822  0.0117 -0.6309
  541MOL0     H74640   7.101   7.747   8.009 -1.0969  0.0166  0.6324
  541MOL0     H74641   7.263   7.803   8.194 -0.7155  1.0492  2.1701
  541MOL0     H74642   7.897   9.679   9.300 -0.0937 -0.3950  0.9593
  541MOL0     H74643   7.835   9.756   9.521 -2.5796  0.7704  1.3927
  541MOL0     H74644   7.665   9.649   9.897  2.0195  1.8907 -1.1440
  541MOL0     H74645   7.634   9.693  10.147  1.8004  1.1261 -0.6082
  541MOL0     H74646   7.337  10.023  10.287 -0.8445  0.3616 -1.1894
  541MOL0     H74647   7.276   9.896  10.180 -1.4763  0.1313  0.0945
  541MOL0     H74648   7.201   9.916  10.421 -1.4754 -1.0378 -2.0006
  541MOL0     H74649   7.356   9.845  10.460 -0.8624 -2.2540  0.7242
  541MOL0     H74650   7.178   9.727  10.241 -0.8558  1.1438  1.0051
  541MOL0     H74651   7.319   9.647  10.317 -0.1943  1.4362 -2.6381
  541MOL0     H74652   7.039   9.669  10.432  0.4379 -1.3074 -0.8199
  541MOL0     H74653   7.161   9.705  10.543 -0.6399 -2.4747  0.9848
  541MOL0     H74654   7.255   9.296  10.502 -0.6994  0.1441  1.1167
  541MOL0     H74655   7.381  10.020  10.033  1.9328  1.7431 -0.4374
  541MOL0     H74656   7.492  10.074   9.707  1.0358 -1.7995  0.7386
  541MOL0     H74657   7.346   9.977   9.718  0.3081  1.1010 -0.3021
  541MOL0     H74658   7.370  10.120   9.822 -0.6161  1.0547 -1.2956
  542MOL0     O74659   4.882   6.360   9.096 -0.2580  0.1502  0.2211
  542MOL0     C74660   5.005   6.377   9.095  0.3250  0.8409 -0.4105
  542MOL0     O74661   5.073   6.410   9.210 -0.0485  0.2552 -0.2332
  542MOL0     C74662   5.010   6.404   9.335  0.0182 -0.2090  0.7504
  542MOL0     C74663   4.929   6.289   9.369 -0.4459  0.6820 -0.5238
  542MOL0     C74664   4.870   6.286   9.496 -0.7604  0.2643  0.7682
  542MOL0     C74665   4.898   6.388   9.587  0.0137  0.3634  0.0548
  542MOL0     O74666   4.832   6.400   9.710 -0.4642  0.3848 -0.0662
  542MOL0     C74667   4.712   6.341   9.729 -0.5081  0.4012 -0.3166
  542MOL0     C74668   4.630   6.401   9.848 -1.0045 -1.2537  0.0150
  542MOL0     C74669   4.705   6.354   9.974  0.0277 -0.1848  0.4096
  542MOL0     C74670   4.625   6.366  10.097  0.3126  0.1269  0.2396
  542MOL0     C74671   4.595   6.515  10.140  0.0770 -1.0803  0.8172
  542MOL0     C74672   4.549   6.519  10.279 -0.5070 -1.2658  0.3389
  542MOL0     C74673   4.477   6.657  10.295  0.7784 -0.3187  0.2035
  542MOL0     C74674   4.425   6.682  10.442  0.6863 -0.0718  0.3460
  542MOL0     N74675   4.542   6.720  10.522  0.1487 -0.5084 -0.7662
  542MOL0     C74676   4.607   6.837  10.524  0.5017  0.7080  0.0405
  542MOL0     C74677   4.714   6.818  10.603 -0.1368 -0.0995 -0.5111
  542MOL0     C74678   4.813   6.927  10.640 -1.0342  0.1086 -0.2534
  542MOL0     C74679   4.938   6.919  10.561 -0.0931 -0.1857  1.0224
  542MOL0     C74680   5.012   7.048  10.571 -0.4997 -0.2682 -0.6625
  542MOL0     C74681   5.118   7.059  10.475  0.5281  0.1185 -0.5571
  542MOL0     O74682   5.223   6.975  10.526  0.1776  0.1454 -0.2217
  542MOL0     C74683   5.336   6.962  10.444 -1.0291 -0.8107 -0.7584
  542MOL0     C74684   5.394   6.843  10.408  1.2931  0.7246 -0.0702
  542MOL0     C74685   5.508   6.828  10.341  0.6701  0.5856 -0.0287
  542MOL0     C74686   5.536   6.692  10.291  0.1272  0.5269 -0.2122
  542MOL0     C74687   5.586   6.948  10.306  0.6312 -0.6030  0.0467
  542MOL0     C74688   5.709   6.952  10.226 -0.0754  0.8645 -1.1104
  542MOL0     O74689   5.742   6.828  10.179  0.6689  0.0673  0.3582
  542MOL0     C74690   5.860   6.808  10.115  0.0872 -0.1971  0.1060
  542MOL0     C74691   5.976   6.776  10.187  0.6122 -0.6581 -0.4452
  542MOL0     C74692   6.097   6.766  10.109 -0.3528 -0.4329 -0.2701
  542MOL0     C74693   6.104   6.793   9.972  0.0721 -0.0212  0.9761
  542MOL0     O74694   6.224   6.781   9.900 -0.0218 -1.0497 -0.3625
  542MOL0     C74695   6.328   6.693   9.940 -1.0077 -0.0886  0.3748
  542MOL0     C74696   6.400   6.633   9.821  0.1166  0.1745  0.5091
  542MOL0     C74697   6.475   6.730   9.736 -0.9087 -0.2170 -0.0289
  542MOL0     C74698   6.538   6.669   9.612  0.1689  0.0945  0.2434
  542MOL0     C74699   6.632   6.755   9.521 -1.1280  0.4799 -1.1396
  542MOL0     C74700   6.558   6.869   9.445  0.6250 -0.3269 -0.1699
  542MOL0     C74701   6.458   6.816   9.344  0.1989  0.3240 -0.1046
  542MOL0     C74702   6.418   6.934   9.250  0.2466 -0.1041  0.4780
  542MOL0    Cl74703   6.533   6.951   9.116  0.2670 -0.2541  0.1553
  542MOL0     C74704   5.989   6.830   9.910 -0.1085  0.0520 -0.5203
  542MOL0     C74705   5.865   6.828   9.978  0.4613 -0.7032 -0.3526
  542MOL0     O74706   5.770   7.057  10.196 -0.0149  0.5868 -0.2358
  542MOL0     C74707   5.531   7.070  10.341 -0.6425 -0.6795  0.1274
  542MOL0     C74708   5.406   7.078  10.405 -0.4828 -0.1380 -0.1387
  542MOL0     N74709   4.698   6.695  10.661 -0.0644  0.0497 -0.6594
  542MOL0     N74710   4.598   6.639  10.621 -0.0082 -0.4946 -0.3627
  542MOL0     C74711   4.979   6.493   9.555  0.8041  0.3348  0.3763
  542MOL0     C74712   5.034   6.503   9.428  0.2358  1.4179  0.2741
  542MOL0     C74713   5.070   6.349   8.956 -1.4844 -0.7489  0.3146
  542MOL0     C74714   5.205   6.306   8.950  0.0446 -0.4678 -0.5862
  542MOL0     C74715   5.277   6.289   8.839  0.0522  0.5413 -0.1099
  542MOL0     C74716   5.215   6.314   8.719 -0.7311  0.1880  0.2470
  542MOL0     O74717   5.261   6.286   8.592  0.2394  0.0707  0.4150
  542MOL0     C74718   5.399   6.243   8.580  0.7372  0.1079 -0.3796
  542MOL0     C74719   5.504   6.356   8.584 -0.4493  0.7056  0.8766
  542MOL0     C74720   5.474   6.478   8.488  0.7492 -0.2830  0.0097
  542MOL0     C74721   5.579   6.583   8.491 -0.7613 -0.0552  0.3697
  542MOL0     C74722   5.565   6.688   8.386 -0.6684  0.1941  0.0780
  542MOL0     C74723   5.541   6.777   8.305  0.0561  0.2583 -0.6367
  542MOL0     C74724   5.088   6.371   8.720 -0.4350 -0.0069  1.0663
  542MOL0     C74725   5.009   6.380   8.831 -0.3308  0.0147 -0.1735
  542MOL0     C74726   4.876   6.457   8.828 -0.0275  0.4049 -0.5923
  542MOL0     H74727   4.897   6.207   9.307  1.2813 -1.3380  1.1020
  542MOL0     H74728   4.820   6.201   9.542  0.3655 -0.2588  1.0518
  542MOL0     H74729   4.735   6.236   9.752  2.3640  0.7664 -1.1037
  542MOL0     H74730   4.655   6.340   9.636  0.3645 -2.9593 -0.9684
  542MOL0     H74731   4.639   6.509   9.841  1.1295 -1.5057 -2.3887
  542MOL0     H74732   4.525   6.369   9.849 -1.6571  0.6487  2.0876
  542MOL0     H74733   4.749   6.254   9.969  1.2589  0.4181 -1.9662
  542MOL0     H74734   4.790   6.421   9.989 -0.7358  1.1209 -0.9585
  542MOL0     H74735   4.531   6.310  10.106  0.4803 -0.6348 -2.2311
  542MOL0     H74736   4.695   6.337  10.176  1.2116 -1.0098 -0.9259
  542MOL0     H74737   4.521   6.550  10.067 -0.5672 -2.9675  0.5298
  542MOL0     H74738   4.690   6.569  10.132  0.0376 -1.2876 -1.4690
  542MOL0     H74739   4.466   6.452  10.302  0.0802 -1.3792  2.3274
  542MOL0     H74740   4.625   6.516  10.358 -0.1715  0.7189  0.1624
  542MOL0     H74741   4.397   6.655  10.221  2.9490 -0.4735 -2.3080
  542MOL0     H74742   4.539   6.742  10.263 -1.9890  1.8457  0.2164
  542MOL0     H74743   4.357   6.766  10.425  0.9811  0.0185 -0.4524
  542MOL0     H74744   4.372   6.593  10.476  0.7964 -0.8311 -1.3534
  542MOL0     H74745   4.581   6.927  10.469 -3.1751  0.4208  0.9856
  542MOL0     H74746   4.836   6.922  10.747 -1.1874 -0.6108 -0.2462
  542MOL0     H74747   4.773   7.024  10.609 -0.3113 -0.4247 -3.1068
  542MOL0     H74748   4.999   6.838  10.602  0.1836  0.1014  1.1795
  542MOL0     H74749   4.921   6.906  10.454  3.5912 -2.4125  0.5252
  542MOL0     H74750   4.940   7.121  10.534 -1.8084 -0.5440  1.1649
  542MOL0     H74751   5.057   7.056  10.671 -1.3526 -1.0177 -0.2009
  542MOL0     H74752   5.089   7.026  10.375 -1.0230  0.0830 -0.1243
  542MOL0     H74753   5.150   7.163  10.480 -1.5765  0.7536  1.7519
  542MOL0     H74754   5.321   6.765  10.425 -0.4974  2.0857 -1.1465
  542MOL0     H74755   5.558   6.680  10.185 -1.6607 -1.1252 -0.4592
  542MOL0     H74756   5.453   6.623  10.308  0.1734  1.0149  2.6143
  542MOL0     H74757   5.619   6.654  10.352  0.3085 -0.8000 -1.2589
  542MOL0     H74758   5.965   6.754  10.293 -0.1837 -1.3844 -0.6634
  542MOL0     H74759   6.188   6.746  10.166  0.8734  1.2576 -1.5345
  542MOL0     H74760   6.388   6.763   9.997  2.0365 -0.4467 -2.1253
  542MOL0     H74761   6.293   6.612  10.005 -0.7789 -1.9756 -1.7282
  542MOL0     H74762   6.471   6.560   9.860 -0.4977 -0.1208  1.0891
  542MOL0     H74763   6.325   6.580   9.761  0.1701  0.9601 -0.2806
  542MOL0     H74764   6.559   6.773   9.790  1.6579 -0.6019 -3.3357
  542MOL0     H74765   6.425   6.819   9.696  1.3237  2.0843  1.9892
  542MOL0     H74766   6.455   6.635   9.549  0.5970  0.0831 -0.3237
  542MOL0     H74767   6.591   6.577   9.638  2.4857  1.1823 -0.3050
  542MOL0     H74768   6.723   6.784   9.575 -0.1522 -3.3127 -0.4292
  542MOL0     H74769   6.664   6.690   9.439 -0.4346  0.5967 -0.9677
  542MOL0     H74770   6.629   6.931   9.389 -0.8828 -0.5376 -2.4143
  542MOL0     H74771   6.499   6.913   9.525 -1.0764 -3.5542  0.4972
  542MOL0     H74772   6.367   6.786   9.397  0.6869 -0.3421  0.3760
  542MOL0     H74773   6.508   6.731   9.295 -0.1478 -0.3517  0.6838
  542MOL0     H74774   6.422   7.023   9.313  5.1864  1.0239 -0.9769
  542MOL0     H74775   6.315   6.923   9.215  0.4603 -0.9434  0.0795
  542MOL0     H74776   5.989   6.847   9.802  0.0454  1.6225 -0.2922
  542MOL0     H74777   5.769   6.825   9.927 -0.3492 -1.8732  1.1299
  542MOL0     H74778   5.574   7.169  10.329 -1.0484 -0.8465 -4.6288
  542MOL0     H74779   5.361   7.172  10.435 -1.9810 -1.0848  0.7631
  542MOL0     H74780   5.009   6.563   9.632 -1.7120  1.7720  0.1682
  542MOL0     H74781   5.100   6.585   9.401  2.7415 -0.2872  0.9105
  542MOL0     H74782   5.250   6.281   9.045 -0.8838 -3.6564 -0.8635
  542MOL0     H74783   5.377   6.246   8.843  1.2274  3.1884  1.8984
  542MOL0     H74784   5.431   6.171   8.656 -1.0570  0.9093  1.2009
  542MOL0     H74785   5.404   6.184   8.488  0.8059  0.4872 -0.6196
  542MOL0     H74786   5.603   6.319   8.557 -1.7493 -0.7439 -2.3825
  542MOL0     H74787   5.510   6.381   8.690  1.8673 -0.2398  1.0303
  542MOL0     H74788   5.450   6.433   8.391 -0.2724 -0.4857  0.3546
  542MOL0     H74789   5.376   6.520   8.511 -0.7391 -3.0691 -0.7757
  542MOL0     H74790   5.680   6.541   8.492  0.3922  2.3796 -1.4455
  542MOL0     H74791   5.563   6.623   8.592  4.2874 -3.1428  2.7970
  542MOL0     H74792   5.518   6.856   8.236 -0.5863  1.1620  0.5813
  542MOL0     H74793   5.045   6.407   8.627 -0.0611  3.2341  2.0077
  542MOL0     H74794   4.807   6.384   8.870  2.9041 -1.4811  1.3458
  542MOL0     H74795   4.863   6.535   8.902  1.2173 -0.5158  0.6462
  542MOL0     H74796   4.854   6.473   8.722 -3.4060 -0.6947 -0.1822
  543MOL0     O74797   3.326   4.769   6.630  0.0307 -0.4256 -0.0841
  543MOL0     C74798   3.213   4.772   6.678  0.0908  0.3525  0.7548
  543MOL0     O74799   3.099   4.708   6.623  0.4223  0.5412  0.3556
  543MOL0     C74800   3.107   4.612   6.527 -0.1314 -1.0667  0.4665
  543MOL0     C74801   2.990   4.599   6.451  0.6445  0.1379  0.3450
  543MOL0     C74802   2.996   4.514   6.341 -1.2295 -0.4688  0.3272
  543MOL0     C74803   3.104   4.431   6.319 -0.4213 -0.0610 -0.1668
  543MOL0     O74804   3.111   4.337   6.209  0.7145 -0.3568 -0.1372
  543MOL0     C74805   3.048   4.375   6.085 -0.8336  0.0037 -0.1438
  543MOL0     C74806   3.110   4.280   5.964  0.5951  0.3515  0.0804
  543MOL0     C74807   3.085   4.315   5.821  0.2444  0.6622 -1.4555
  543MOL0     C74808   3.186   4.419   5.782  0.1821 -0.5008 -0.0178
  543MOL0     C74809   3.208   4.431   5.635 -1.4298 -0.7763  0.3508
  543MOL0     C74810   3.270   4.568   5.573  0.7171  0.7013  0.9623
  543MOL0     C74811   3.183   4.687   5.613  0.4885 -0.0453 -0.5178
  543MOL0     C74812   3.274   4.811   5.598  0.8423 -0.1273 -0.0262
  543MOL0     N74813   3.209   4.938   5.621  0.0393 -0.7720  0.2380
  543MOL0     C74814   3.149   5.003   5.518  0.1403 -0.5617 -0.3889
  543MOL0     C74815   3.082   5.107   5.570 -0.2064 -0.3334  0.4468
  543MOL0     C74816   2.972   5.197   5.523  0.3362 -0.0104  0.0363
  543MOL0     C74817   3.005   5.267   5.389 -0.4099 -0.7116  0.6695
  543MOL0     C74818   2.920   5.197   5.282  0.2382  0.8904  0.0746
  543MOL0     C74819   2.985   5.232   5.149  0.1388  0.1495 -0.2229
  543MOL0     O74820   2.919   5.174   5.037  0.0812  0.1681 -0.3777
  543MOL0     C74821   2.899   5.252   4.929 -1.0878  0.5539  0.2451
  543MOL0     C74822   2.835   5.376   4.939  1.3400  0.2865 -0.0169
  543MOL0     C74823   2.827   5.468   4.842 -0.3537 -0.2211 -0.7131
  543MOL0     C74824   2.748   5.600   4.859 -0.8481 -0.9668 -0.2792
  543MOL0     C74825   2.886   5.432   4.714 -0.2935 -0.2504 -0.0764
  543MOL0     C74826   2.872   5.516   4.593 -0.2703  0.8295 -0.8836
  543MOL0     O74827   2.983   5.514   4.516 -0.9885 -0.4386 -0.0804
  543MOL0     C74828   3.009   5.607   4.422 -0.3425 -0.5945  0.3527
  543MOL0     C74829   2.987   5.742   4.426 -0.9059  0.9901 -1.4532
  543MOL0     C74830   3.028   5.835   4.327  0.4658  1.0944  0.5570
  543MOL0     C74831   3.067   5.788   4.195 -0.2515 -0.3256 -0.3751
  543MOL0     O74832   3.081   5.863   4.087  0.3164  0.3323  0.0653
  543MOL0     C74833   2.963   5.934   4.055 -0.4225 -0.1695 -0.0763
  543MOL0     C74834   2.994   6.022   3.940 -0.1795 -0.4638  0.8459
  543MOL0     C74835   2.877   6.114   3.914  0.1423 -0.0010 -0.5389
  543MOL0     C74836   2.887   6.246   3.997  1.1714 -0.4738 -0.3114
  543MOL0     C74837   3.009   6.333   3.964 -0.3321  0.1278 -0.2057
  543MOL0     C74838   3.000   6.451   4.065  0.6346  0.9047  0.2889
  543MOL0     C74839   3.110   6.560   4.039 -0.0955 -1.3788  0.2100
  543MOL0     C74840   3.117   6.666   4.158 -0.0413 -1.0037  0.0143
  543MOL0    Cl74841   2.973   6.769   4.165 -0.2995  0.2116  0.3603
  543MOL0     C74842   3.094   5.655   4.189  0.6901  0.2527  0.5771
  543MOL0     C74843   3.070   5.567   4.302  0.3527 -0.0185 -0.5169
  543MOL0     O74844   2.775   5.582   4.570 -0.0968 -0.6309  0.5113
  543MOL0     C74845   2.957   5.302   4.705  0.7597  0.4920 -0.0515
  543MOL0     C74846   2.958   5.211   4.809  0.7360 -0.7461  0.7412
  543MOL0     N74847   3.098   5.095   5.712  0.0725 -0.0455 -0.6884
  543MOL0     N74848   3.183   5.000   5.735 -0.2340 -0.6073  0.5092
  543MOL0     C74849   3.208   4.428   6.406 -0.1936  0.5159 -1.5502
  543MOL0     C74850   3.207   4.517   6.511 -0.6654  0.2887 -0.8418
  543MOL0     C74851   3.193   4.865   6.799 -0.7903  1.3365 -0.8463
  543MOL0     C74852   3.062   4.899   6.836 -1.0821 -0.0968 -0.4203
  543MOL0     C74853   3.019   4.951   6.951 -0.5849  0.1930 -0.5098
  543MOL0     C74854   3.120   4.985   7.041 -0.0142 -0.1397 -0.5610
  543MOL0     O74855   3.085   5.033   7.158 -0.7528 -0.1128  0.6557
  543MOL0     C74856   3.144   5.166   7.180  0.6605 -0.5974 -0.0809
  543MOL0     C74857   3.067   5.277   7.121 -0.1544 -0.2113 -0.4518
  543MOL0     C74858   3.126   5.409   7.175  0.0482  0.3591  0.5136
  543MOL0     C74859   3.086   5.532   7.092 -0.0921  0.6389 -0.0741
  543MOL0     C74860   3.124   5.657   7.162 -0.2844  1.1664  1.6283
  543MOL0     C74861   3.160   5.751   7.219  0.0366 -0.8299  0.9878
  543MOL0     C74862   3.253   4.952   7.026  0.9352 -0.0204 -0.1268
  543MOL0     C74863   3.294   4.891   6.902  0.5220 -0.0890 -0.9389
  543MOL0     C74864   3.446   4.853   6.879 -0.6559 -0.2604 -0.1476
  543MOL0     H74865   2.895   4.650   6.466  0.1625  0.0133 -1.9622
  543MOL0     H74866   2.914   4.513   6.271  0.4108  2.6071 -1.9077
  543MOL0     H74867   3.072   4.477   6.055  0.9746 -0.5580 -0.8068
  543MOL0     H74868   2.941   4.353   6.085 -0.9224 -0.2709 -4.1156
  543MOL0     H74869   3.217   4.264   5.980  0.4173 -0.3184  0.6599
  543MOL0     H74870   3.063   4.181   5.977 -0.2569  0.6891 -0.3346
  543MOL0     H74871   3.114   4.232   5.756  2.0695  1.7952 -2.1776
  543MOL0     H74872   2.981   4.344   5.802  0.5222  0.7881 -2.8769
  543MOL0     H74873   3.148   4.514   5.821 -1.7951 -0.8099 -1.0629
  543MOL0     H74874   3.282   4.402   5.831  0.8862  1.5541 -0.5779
  543MOL0     H74875   3.108   4.424   5.589 -0.2543 -0.7405 -2.3848
  543MOL0     H74876   3.272   4.352   5.595  3.3247  2.4854  0.7601
  543MOL0     H74877   3.375   4.589   5.594  1.6098  1.8430 -3.5189
  543MOL0     H74878   3.261   4.567   5.464  1.7518  5.4635  0.6090
  543MOL0     H74879   3.146   4.679   5.715  0.5512 -4.8178 -0.6830
  543MOL0     H74880   3.101   4.700   5.541  0.2165  0.3804 -0.1368
  543MOL0     H74881   3.361   4.798   5.663  1.4344  2.5535 -0.1410
  543MOL0     H74882   3.322   4.813   5.500  0.2118  1.8623 -0.3423
  543MOL0     H74883   3.133   4.965   5.417 -1.6109  0.2788 -0.4613
  543MOL0     H74884   2.956   5.263   5.609  0.3858 -0.2646  0.2439
  543MOL0     H74885   2.884   5.132   5.509  1.0010 -0.4456 -2.7827
  543MOL0     H74886   2.987   5.374   5.399 -1.4210 -0.8106  0.0071
  543MOL0     H74887   3.113   5.257   5.374  0.0025  2.1433  1.2858
  543MOL0     H74888   2.932   5.092   5.308  0.2421  1.3758  2.2047
  543MOL0     H74889   2.818   5.234   5.292 -0.1626 -0.6819  2.9043
  543MOL0     H74890   2.978   5.341   5.144 -0.9346  0.1680  1.1645
  543MOL0     H74891   3.093   5.213   5.145 -0.1215 -2.2043  1.7815
  543MOL0     H74892   2.789   5.394   5.036  1.9932  0.2850  0.3019
  543MOL0     H74893   2.644   5.584   4.831  0.0077 -2.7843 -2.7861
  543MOL0     H74894   2.794   5.686   4.810 -0.2591 -0.1460  1.6069
  543MOL0     H74895   2.755   5.632   4.963 -0.5600  0.3776 -0.6978
  543MOL0     H74896   2.937   5.780   4.515 -2.1544  0.0433 -1.7296
  543MOL0     H74897   3.012   5.938   4.356  0.2300  1.2101  0.0257
  543MOL0     H74898   2.878   5.867   4.041 -0.0271 -1.2228  2.0930
  543MOL0     H74899   2.932   5.996   4.140  2.2803  1.4306 -0.1494
  543MOL0     H74900   3.077   6.090   3.966 -1.1333  1.7325 -1.4910
  543MOL0     H74901   3.015   5.960   3.853 -2.6885  0.0691 -0.2261
  543MOL0     H74902   2.778   6.068   3.923  0.6905 -2.0750 -3.6301
  543MOL0     H74903   2.872   6.144   3.809 -0.8499  2.3675  0.1051
  543MOL0     H74904   2.897   6.225   4.103  1.8289  4.8138  0.9741
  543MOL0     H74905   2.794   6.303   3.985  1.2020 -0.5182 -0.8061
  543MOL0     H74906   3.109   6.294   3.987  0.0829  0.0811 -2.0103
  543MOL0     H74907   3.006   6.367   3.860  2.8773 -0.9891 -0.7829
  543MOL0     H74908   2.995   6.415   4.168 -0.2559  0.1778  0.0044
  543MOL0     H74909   2.908   6.504   4.041  0.4995 -0.0887 -1.5254
  543MOL0     H74910   3.083   6.611   3.946 -1.1844 -2.0405  0.1487
  543MOL0     H74911   3.209   6.514   4.028  0.8260  0.4953  0.2084
  543MOL0     H74912   3.199   6.737   4.143 -2.1776  1.4574 -0.8893
  543MOL0     H74913   3.123   6.616   4.255  2.4421 -1.1370 -0.1456
  543MOL0     H74914   3.135   5.596   4.108  2.2267  0.0081  1.4935
  543MOL0     H74915   3.096   5.462   4.296  0.8655  0.0541  0.1888
  543MOL0     H74916   2.991   5.267   4.609  0.4232 -0.8324  0.2872
  543MOL0     H74917   3.000   5.111   4.805 -1.0851 -1.5240 -0.2333
  543MOL0     H74918   3.280   4.351   6.378 -0.0537  1.0506 -2.7599
  543MOL0     H74919   3.286   4.511   6.586  1.3114 -2.1842 -2.9445
  543MOL0     H74920   2.989   4.879   6.758  0.1822 -1.3377 -1.3103
  543MOL0     H74921   2.915   4.961   6.980 -0.4764 -0.2093  0.0450
  543MOL0     H74922   3.158   5.178   7.287  0.8017  2.5166 -0.3666
  543MOL0     H74923   3.247   5.173   7.143  0.8590  3.2322  0.8241
  543MOL0     H74924   2.963   5.259   7.149 -0.2260 -4.9079 -2.7587
  543MOL0     H74925   3.081   5.284   7.012 -4.0773  2.0559 -1.0027
  543MOL0     H74926   3.101   5.417   7.282  2.1473 -0.1121  1.0715
  543MOL0     H74927   3.234   5.414   7.163 -0.1468  1.3553 -1.2515
  543MOL0     H74928   2.976   5.534   7.088 -0.2711 -2.4985 -4.4142
  543MOL0     H74929   3.134   5.533   6.994  1.4235  0.5843  0.6439
  543MOL0     H74930   3.187   5.838   7.275 -1.9536  0.1381  0.5407
  543MOL0     H74931   3.331   4.960   7.101  0.5923  0.1100  0.2142
  543MOL0     H74932   3.486   4.925   6.806  3.3915 -0.3704  1.6899
  543MOL0     H74933   3.513   4.864   6.965 -2.7396  2.8838  1.2561
  543MOL0     H74934   3.460   4.752   6.841 -0.6474  0.6970 -2.9677
  544MOL0     O74935  10.489   3.683  10.987  0.1818  0.4830 -0.9368
  544MOL0     C74936  10.381   3.681  11.050  0.6653  0.5532 -0.5685
  544MOL0     O74937  10.262   3.628  11.007 -0.3628  0.2006  0.0601
  544MOL0     C74938  10.267   3.552  10.886  0.0749 -0.2108  0.1025
  544MOL0     C74939  10.217   3.422  10.900  0.0892  0.0187  0.5478
  544MOL0     C74940  10.215   3.328  10.792  1.2249  0.7043  0.4894
  544MOL0     C74941  10.272   3.364  10.669  0.0401  0.5490  0.1505
  544MOL0     O74942  10.287   3.283  10.557  1.0134 -0.0820  0.0196
  544MOL0     C74943  10.226   3.155  10.562  0.3732 -0.1911 -1.4263
  544MOL0     C74944  10.263   3.091  10.434 -0.2770  0.0698 -0.2162
  544MOL0     C74945  10.398   3.032  10.431 -0.6138 -0.9928  0.7376
  544MOL0     C74946  10.431   2.969  10.293  0.5515  0.0134 -0.3276
  544MOL0     C74947  10.554   2.875  10.295 -0.7291 -0.1944  0.5093
  544MOL0     C74948  10.561   2.787  10.165  0.1714 -0.5328 -0.1316
  544MOL0     C74949  10.599   2.869  10.038  0.1826 -0.1842 -0.9217
  544MOL0     C74950  10.609   2.778   9.922  1.0225 -0.0739  1.2199
  544MOL0     N74951  10.713   2.692   9.929 -0.8777  0.7212 -0.2570
  544MOL0     C74952  10.700   2.567   9.974 -0.4834 -0.4812 -0.1787
  544MOL0     C74953  10.822   2.505   9.965 -0.0290  0.1829 -0.1579
  544MOL0     C74954  10.842   2.360  10.002  0.4054  0.3960 -0.4867
  544MOL0     C74955  10.990   2.322  10.021  0.7039 -0.0467  0.4360
  544MOL0     C74956  10.987   2.179  10.072 -0.0975 -0.2875 -0.6940
  544MOL0     C74957  11.124   2.121  10.120 -0.5188 -1.5287  0.3143
  544MOL0     O74958  11.105   1.983  10.147  0.2988 -0.1286  0.3468
  544MOL0     C74959  11.191   1.927  10.238  0.0205 -0.6339  0.0465
  544MOL0     C74960  11.320   1.981  10.255 -0.4426  0.0719  0.2794
  544MOL0     C74961  11.406   1.944  10.366 -0.3746  0.3002 -0.7446
  544MOL0     C74962  11.541   2.007  10.376  0.3578  0.6556  0.2131
  544MOL0     C74963  11.352   1.843  10.461  0.0036  0.1875  0.0677
  544MOL0     C74964  11.438   1.785  10.572  0.9299  1.1647  0.2160
  544MOL0     O74965  11.397   1.666  10.629 -0.0351 -0.1647 -0.5954
  544MOL0     C74966  11.472   1.612  10.737  0.2836  0.2052  0.6487
  544MOL0     C74967  11.522   1.484  10.723 -0.7004 -1.2568  0.7818
  544MOL0     C74968  11.624   1.451  10.801  0.3926 -0.2497 -0.8412
  544MOL0     C74969  11.664   1.527  10.911 -0.6341  0.5344 -0.9601
  544MOL0     O74970  11.767   1.478  10.985  0.4283 -0.6371 -0.1337
  544MOL0     C74971  11.780   1.506  11.127 -0.2298 -0.2944  0.0595
  544MOL0     C74972  11.875   1.403  11.185 -0.0312  0.5656  0.0737
  544MOL0     C74973  11.933   1.453  11.321 -0.7148  1.2962 -0.8501
  544MOL0     C74974  12.051   1.360  11.363  0.4094 -0.2687 -0.4995
  544MOL0     C74975  12.049   1.211  11.334 -0.0089  0.1478  0.7987
  544MOL0     C74976  12.149   1.126  11.423  0.5101 -1.0799  0.4290
  544MOL0     C74977  12.111   1.132  11.574  0.3001  0.1522 -0.1310
  544MOL0     C74978  12.144   1.008  11.648  0.4007 -0.3543  0.1000
  544MOL0    Cl74979  12.326   1.003  11.651  0.2351 -0.5148 -0.1573
  544MOL0     C74980  11.598   1.642  10.942 -0.2839 -0.4576  0.1026
  544MOL0     C74981  11.506   1.685  10.847 -0.1224 -0.0650 -0.3600
  544MOL0     O74982  11.546   1.832  10.591 -0.0294  0.2314  0.0727
  544MOL0     C74983  11.227   1.783  10.432 -1.1912  0.2902 -0.2105
  544MOL0     C74984  11.150   1.822  10.322  1.2104  0.3377  0.3916
  544MOL0     N74985  10.911   2.591   9.908 -0.1786  0.2039 -0.3391
  544MOL0     N74986  10.846   2.703   9.891 -0.4555 -0.4178 -0.7854
  544MOL0     C74987  10.324   3.495  10.650 -0.6038 -0.8421  0.4292
  544MOL0     C74988  10.316   3.590  10.755 -0.1656 -0.5938 -0.4845
  544MOL0     C74989  10.370   3.746  11.181  0.1826 -0.3209 -0.4987
  544MOL0     C74990  10.465   3.839  11.227 -0.3159 -0.2671  0.4272
  544MOL0     C74991  10.453   3.906  11.349  0.0367  0.0898 -0.1472
  544MOL0     C74992  10.346   3.876  11.431  0.5050 -0.3452 -0.0433
  544MOL0     O74993  10.322   3.944  11.551 -0.2985 -0.0337 -0.3191
  544MOL0     C74994  10.410   4.049  11.593  0.4798 -0.1184  0.1286
  544MOL0     C74995  10.340   4.129  11.701 -0.8681  0.2455  0.4696
  544MOL0     C74996  10.370   4.074  11.844 -0.2395 -0.6162 -0.4844
  544MOL0     C74997  10.342   3.927  11.871  0.5682 -0.3501  0.4595
  544MOL0     C74998  10.461   3.847  11.839  0.7341  0.4122  1.3615
  544MOL0     C74999  10.558   3.781  11.804 -0.7403 -0.6081 -0.1319
  544MOL0     C75000  10.262   3.765  11.402  0.0535  0.2356  0.7468
  544MOL0     C75001  10.273   3.701  11.286 -1.5562 -0.5217 -0.0900
  544MOL0     C75002  10.195   3.573  11.279 -0.0254  0.3218  0.8643
  544MOL0     H75003  10.160   3.393  10.988 -0.0270 -2.4874 -0.2790
  544MOL0     H75004  10.174   3.227  10.795  3.0543 -0.3369 -3.3428
  544MOL0     H75005  10.118   3.171  10.570  0.0771 -1.8069 -1.9479
  544MOL0     H75006  10.256   3.096  10.649  2.2669  2.1081 -0.3947
  544MOL0     H75007  10.196   3.009  10.407  1.7353 -1.5533 -0.5198
  544MOL0     H75008  10.258   3.162  10.351  2.3198 -0.5386 -0.9794
  544MOL0     H75009  10.461   3.118  10.451 -0.1833 -1.3962  1.1369
  544MOL0     H75010  10.410   2.962  10.514 -4.4139 -0.9220  1.5383
  544MOL0     H75011  10.346   2.908  10.263  3.1268 -3.7989 -0.5087
  544MOL0     H75012  10.452   3.050  10.221  0.4077  0.3235 -0.0219
  544MOL0     H75013  10.526   2.797  10.367 -1.3167 -1.6224 -1.1941
  544MOL0     H75014  10.643   2.935  10.314  0.6760 -2.4422  1.3547
  544MOL0     H75015  10.634   2.708  10.183 -0.1410 -1.5650 -2.9366
  544MOL0     H75016  10.468   2.731  10.153  0.6918 -2.1264  2.4576
  544MOL0     H75017  10.694   2.923  10.045 -0.9475  1.7649  0.6364
  544MOL0     H75018  10.527   2.950  10.019  0.1101 -0.2849 -1.0764
  544MOL0     H75019  10.526   2.708   9.930  2.0556 -1.2866  1.5494
  544MOL0     H75020  10.600   2.826   9.824 -1.2536 -1.9320  0.4145
  544MOL0     H75021  10.611   2.518  10.011 -0.1269  0.3242  1.8494
  544MOL0     H75022  10.792   2.301   9.925 -3.2807  2.7192 -0.1578
  544MOL0     H75023  10.787   2.352  10.097  0.9456  1.4273 -0.0736
  544MOL0     H75024  11.045   2.320   9.927 -1.2078 -1.3548 -0.7250
  544MOL0     H75025  11.040   2.393  10.088  0.5892  1.5333 -1.0867
  544MOL0     H75026  10.918   2.162  10.155  0.3812 -4.2365 -0.9131
  544MOL0     H75027  10.944   2.115   9.994 -2.1763  3.1447 -2.6128
  544MOL0     H75028  11.202   2.147  10.048  2.5645 -1.3828  3.4621
  544MOL0     H75029  11.154   2.174  10.211 -1.9073  1.8532 -1.0111
  544MOL0     H75030  11.362   2.054  10.187  1.8481 -0.6082  0.8736
  544MOL0     H75031  11.567   2.036  10.478 -1.4187  1.4328  0.4825
  544MOL0     H75032  11.533   2.109  10.337 -2.9486 -0.0844 -1.3323
  544MOL0     H75033  11.611   1.938  10.328 -1.5418  0.3446 -2.2548
  544MOL0     H75034  11.489   1.421  10.641 -0.9979 -0.7396  0.4989
  544MOL0     H75035  11.673   1.356  10.782 -2.7901 -1.8656 -1.6022
  544MOL0     H75036  11.815   1.610  11.134 -1.1715  0.4610 -4.1663
  544MOL0     H75037  11.682   1.509  11.176  0.1337  1.9226  0.7797
  544MOL0     H75038  11.815   1.313  11.199 -1.1667  1.5076  1.4914
  544MOL0     H75039  11.960   1.383  11.120  2.1362 -2.2766  3.4212
  544MOL0     H75040  11.857   1.437  11.399  1.1202  1.5289  1.0740
  544MOL0     H75041  11.963   1.558  11.317  0.8479  0.8321 -3.0000
  544MOL0     H75042  12.042   1.372  11.471 -2.5057 -1.0108 -0.5694
  544MOL0     H75043  12.136   1.418  11.327  0.0045  3.1567  3.2926
  544MOL0     H75044  11.949   1.170  11.349  0.3596 -1.4153 -0.7717
  544MOL0     H75045  12.083   1.190  11.233  0.6544  1.2044  0.7773
  544MOL0     H75046  12.249   1.171  11.422  0.5163 -1.0561  1.3897
  544MOL0     H75047  12.149   1.025  11.382 -0.0322 -0.4926 -1.1125
  544MOL0     H75048  12.003   1.120  11.579  0.4557 -0.8891  1.7264
  544MOL0     H75049  12.139   1.222  11.629 -0.9408 -0.0514  0.8543
  544MOL0     H75050  12.095   0.921  11.604  0.5435  0.4060 -1.6593
  544MOL0     H75051  12.106   1.010  11.751 -1.9122 -3.7911 -0.5439
  544MOL0     H75052  11.623   1.713  11.021  1.7743 -3.3784  2.2858
  544MOL0     H75053  11.459   1.782  10.859 -2.3764 -0.8312 -2.1133
  544MOL0     H75054  11.204   1.702  10.499 -0.4060  1.2029  1.2230
  544MOL0     H75055  11.052   1.782  10.296  1.9051  0.4008 -2.6383
  544MOL0     H75056  10.384   3.527  10.565  2.5136 -1.5244  2.2129
  544MOL0     H75057  10.364   3.687  10.743  0.6250 -0.9208 -0.1054
  544MOL0     H75058  10.530   3.870  11.146 -2.9933  0.5609 -1.5642
  544MOL0     H75059  10.524   3.984  11.372 -0.0695  0.2896 -0.4908
  544MOL0     H75060  10.499   4.014  11.646  1.5393 -0.7390 -1.9386
  544MOL0     H75061  10.439   4.112  11.509  2.1434  0.4573  1.0944
  544MOL0     H75062  10.232   4.117  11.688 -0.4534 -2.3125 -1.4464
  544MOL0     H75063  10.365   4.236  11.695 -3.9111  1.0128 -0.0442
  544MOL0     H75064  10.477   4.094  11.861 -0.2167 -2.2650  1.7197
  544MOL0     H75065  10.316   4.144  11.909  1.5062  1.6146 -1.2807
  544MOL0     H75066  10.255   3.888  11.816 -0.9341 -0.4683  2.7777
  544MOL0     H75067  10.327   3.912  11.978  1.4160  0.4928  0.7046
  544MOL0     H75068  10.629   3.707  11.775  0.1170  0.4238 -0.7143
  544MOL0     H75069  10.186   3.740  11.475 -1.8074  1.4265 -0.6818
  544MOL0     H75070  10.129   3.562  11.365 -2.8600  4.0530 -0.5645
  544MOL0     H75071  10.119   3.584  11.201  1.0099  1.3562 -0.0518
  544MOL0     H75072  10.254   3.485  11.252 -0.3854 -0.2347  1.8594
  545MOL0     O75073   3.504   8.834  11.360  0.3304 -0.0165 -0.6209
  545MOL0     C75074   3.523   8.724  11.304  0.3522 -1.7746  0.2993
  545MOL0     O75075   3.469   8.609  11.346  0.0414  0.6976 -0.3385
  545MOL0     C75076   3.355   8.622  11.424 -0.0280 -0.0522  0.2616
  545MOL0     C75077   3.363   8.580  11.560  0.8837 -0.5360 -0.9888
  545MOL0     C75078   3.246   8.574  11.639  0.4490 -0.8435  0.4227
  545MOL0     C75079   3.126   8.621  11.584 -0.1853 -0.0741 -0.4220
  545MOL0     O75080   3.013   8.615  11.666 -0.4183 -0.1291  1.3351
  545MOL0     C75081   2.919   8.721  11.629 -0.4644  0.6231  0.1110
  545MOL0     C75082   2.863   8.749  11.764  0.6444  0.3007 -0.2270
  545MOL0     C75083   2.724   8.818  11.745 -1.5850 -0.5038 -0.0902
  545MOL0     C75084   2.681   8.863  11.892 -0.7788 -0.2125  0.0872
  545MOL0     C75085   2.547   8.934  11.886  0.3535 -0.4472 -0.9992
  545MOL0     C75086   2.506   8.980  12.027  0.1726  0.0342  0.3584
  545MOL0     C75087   2.365   9.054  12.029 -0.1733  0.0300  0.3545
  545MOL0     C75088   2.367   9.155  12.138  0.5955  0.2133 -0.6363
  545MOL0     N75089   2.446   9.264  12.105 -0.0341 -0.9374  0.4016
  545MOL0     C75090   2.402   9.361  12.014  0.0349 -0.5244  0.4090
  545MOL0     C75091   2.507   9.444  12.003 -0.0130 -0.5678  0.3106
  545MOL0     C75092   2.519   9.564  11.914 -1.0153 -0.9758 -0.2411
  545MOL0     C75093   2.394   9.632  11.873 -0.1499 -0.0942  0.4249
  545MOL0     C75094   2.298   9.689  11.983  0.1574 -0.7604 -0.3902
  545MOL0     C75095   2.366   9.761  12.082 -0.5888 -0.2329  0.0754
  545MOL0     O75096   2.280   9.829  12.170  0.0040  0.3917 -0.1496
  545MOL0     C75097   2.338   9.897  12.272  0.0614  0.6458 -0.0966
  545MOL0     C75098   2.272   9.877  12.393  1.0139  0.1733 -0.3943
  545MOL0     C75099   2.317   9.951  12.507 -0.0470  0.6588 -0.2673
  545MOL0     C75100   2.239   9.915  12.628 -0.2623 -0.4219  0.8843
  545MOL0     C75101   2.445  10.012  12.510  0.6316 -0.4337  0.5522
  545MOL0     C75102   2.507  10.092  12.625 -0.2662 -1.0373  1.1516
  545MOL0     O75103   2.633  10.135  12.597 -0.1648  0.3066  0.6054
  545MOL0     C75104   2.688  10.210  12.698  0.3056 -0.1805 -0.4122
  545MOL0     C75105   2.662  10.347  12.717  0.2003 -0.8404  0.0210
  545MOL0     C75106   2.719  10.417  12.824  0.3255 -0.6636 -0.8124
  545MOL0     C75107   2.803  10.340  12.914  0.6939  0.0569  1.5295
  545MOL0     O75108   2.858  10.383  13.034  0.4839 -0.2010  0.4682
  545MOL0     C75109   2.887  10.522  13.032 -0.4500 -0.2763 -0.2108
  545MOL0     C75110   2.945  10.576  13.167  0.4371  0.4512 -0.0374
  545MOL0     C75111   2.849  10.538  13.282  0.3575  0.2701  0.0587
  545MOL0     C75112   2.897  10.625  13.403 -0.3854  0.0869  0.0221
  545MOL0     C75113   2.833  10.602  13.537 -0.5975 -0.2139 -0.6416
  545MOL0     C75114   2.884  10.689  13.661 -0.0043  0.2796 -0.2810
  545MOL0     C75115   2.773  10.673  13.771  0.0198  0.1748 -0.2338
  545MOL0     C75116   2.668  10.784  13.754 -0.6930 -0.3505  1.8201
  545MOL0    Cl75117   2.534  10.774  13.876  0.2352 -0.4905 -0.5466
  545MOL0     C75118   2.837  10.202  12.883  0.5012 -0.1443 -0.5233
  545MOL0     C75119   2.765  10.137  12.783 -0.6959 -0.2435 -0.0372
  545MOL0     O75120   2.447  10.111  12.729  0.0923  0.1755 -0.0806
  545MOL0     C75121   2.512  10.012  12.384 -0.9799 -0.3022 -0.5449
  545MOL0     C75122   2.461   9.967  12.268  0.9773  0.1379 -0.4312
  545MOL0     N75123   2.597   9.419  12.100  0.0384 -0.9020 -0.0193
  545MOL0     N75124   2.566   9.305  12.153  0.3913 -0.2791 -1.1368
  545MOL0     C75125   3.126   8.663  11.455  0.2380 -0.8814  0.0801
  545MOL0     C75126   3.236   8.664  11.376  0.1598 -0.1084  0.0508
  545MOL0     C75127   3.604   8.720  11.178  0.3965 -0.3360  0.1964
  545MOL0     C75128   3.596   8.588  11.096  0.0524 -1.2726 -0.0353
  545MOL0     C75129   3.660   8.585  10.976 -0.5701 -0.9832  0.1372
  545MOL0     C75130   3.734   8.693  10.915  0.7090 -0.3328 -0.9938
  545MOL0     O75131   3.803   8.689  10.794 -0.2314  0.1284 -0.6509
  545MOL0     C75132   3.865   8.571  10.736  0.2371 -0.0823 -0.0306
  545MOL0     C75133   3.976   8.619  10.645  0.0874  0.2624 -0.4278
  545MOL0     C75134   4.034   8.489  10.579 -0.3487  0.0946 -0.4043
  545MOL0     C75135   4.149   8.517  10.494 -0.8802 -0.0533  0.3527
  545MOL0     C75136   4.276   8.573  10.547  0.9869  0.0618  0.3484
  545MOL0     C75137   4.372   8.621  10.603 -0.3811  0.3315 -0.2138
  545MOL0     C75138   3.730   8.810  10.981  0.3359  0.0418 -0.0508
  545MOL0     C75139   3.670   8.823  11.108  0.5754 -0.6155 -0.1125
  545MOL0     C75140   3.678   8.957  11.167  0.0337  0.1578  0.7826
  545MOL0     H75141   3.457   8.539  11.596 -0.6189 -0.4919  3.6533
  545MOL0     H75142   3.241   8.532  11.739 -2.3190 -0.3435  0.5842
  545MOL0     H75143   2.850   8.688  11.552  1.1719  2.1574 -2.1335
  545MOL0     H75144   2.963   8.817  11.601  0.4607 -0.1113 -1.0235
  545MOL0     H75145   2.846   8.654  11.817  1.0311 -0.2738 -1.1128
  545MOL0     H75146   2.928   8.819  11.818  4.5492 -1.4213 -2.2398
  545MOL0     H75147   2.725   8.908  11.682 -1.1556 -0.5227 -0.1153
  545MOL0     H75148   2.648   8.752  11.702 -2.3191 -0.1493  0.6478
  545MOL0     H75149   2.686   8.769  11.948  2.8297 -0.7870 -0.9173
  545MOL0     H75150   2.745   8.934  11.946 -1.8447  0.8545 -0.0097
  545MOL0     H75151   2.476   8.875  11.828  0.8988 -0.3332 -1.7983
  545MOL0     H75152   2.549   9.030  11.834  0.9196  0.6921  1.0337
  545MOL0     H75153   2.511   8.899  12.100 -1.0606  0.8360  1.3609
  545MOL0     H75154   2.582   9.052  12.059 -2.8731  3.1078  1.1782
  545MOL0     H75155   2.285   8.983  12.051 -2.4917  2.7200  1.1749
  545MOL0     H75156   2.338   9.093  11.930 -1.1942 -1.3083  0.0648
  545MOL0     H75157   2.265   9.191  12.158  1.4273  1.0979  2.6301
  545MOL0     H75158   2.407   9.106  12.227 -3.2369 -2.5609 -0.1929
  545MOL0     H75159   2.303   9.358  11.968  1.0583 -0.7151 -1.8861
  545MOL0     H75160   2.561   9.534  11.818 -1.7466  1.5235 -1.4340
  545MOL0     H75161   2.585   9.636  11.964 -2.3373  1.6169 -1.9735
  545MOL0     H75162   2.412   9.720  11.811 -1.2205  1.8635  2.7029
  545MOL0     H75163   2.330   9.561  11.820  1.4532 -1.1386 -0.1584
  545MOL0     H75164   2.211   9.744  11.947 -0.1717 -0.5381  0.6967
  545MOL0     H75165   2.250   9.610  12.041  2.7849  0.3999  3.8462
  545MOL0     H75166   2.428   9.699  12.147 -2.6663 -2.3390  0.1776
  545MOL0     H75167   2.433   9.831  12.031  0.9441 -0.9880  0.9680
  545MOL0     H75168   2.186   9.811  12.400  0.0693  1.0628 -2.6665
  545MOL0     H75169   2.155   9.849  12.603 -0.1617 -0.9903  1.9882
  545MOL0     H75170   2.198  10.001  12.682 -0.7356  0.1298 -0.3050
  545MOL0     H75171   2.299   9.868  12.706  0.3833  0.1738  0.7538
  545MOL0     H75172   2.592  10.396  12.650 -1.2464 -0.7831  1.5151
  545MOL0     H75173   2.679  10.514  12.852 -1.1212 -1.9561  2.0420
  545MOL0     H75174   2.956  10.559  12.954 -0.2514  2.1154  0.9937
  545MOL0     H75175   2.796  10.581  13.019  0.0419  0.9374  1.4677
  545MOL0     H75176   3.041  10.529  13.191  0.5697 -0.8339 -2.6611
  545MOL0     H75177   2.963  10.683  13.164 -0.2051  0.5444 -1.0970
  545MOL0     H75178   2.858  10.432  13.308 -1.1047 -0.1752 -1.1242
  545MOL0     H75179   2.745  10.554  13.251  0.7896  2.4116 -0.4549
  545MOL0     H75180   2.870  10.728  13.375 -3.4175 -0.6133  0.0216
  545MOL0     H75181   3.004  10.605  13.402 -0.4123 -0.0442 -0.1733
  545MOL0     H75182   2.729  10.634  13.522 -0.1818  2.2139  0.9998
  545MOL0     H75183   2.837  10.497  13.566 -0.3226  0.5433  2.4337
  545MOL0     H75184   2.886  10.794  13.629 -0.6647 -0.0586 -1.5107
  545MOL0     H75185   2.977  10.654  13.707 -2.6988 -1.9779  4.1424
  545MOL0     H75186   2.818  10.688  13.870  1.6490 -0.0378 -0.9188
  545MOL0     H75187   2.726  10.575  13.773  0.5252 -0.1198  2.8708
  545MOL0     H75188   2.620  10.772  13.656  0.8729 -3.1215  1.2816
  545MOL0     H75189   2.720  10.880  13.759 -0.0594 -0.5517 -0.1295
  545MOL0     H75190   2.899  10.146  12.952 -0.3893  0.7792  1.0778
  545MOL0     H75191   2.771  10.034  12.747 -0.6300 -0.2911  0.1142
  545MOL0     H75192   2.605  10.069  12.384 -2.1771  1.8216  1.3422
  545MOL0     H75193   2.511   9.980  12.172 -0.9446  0.1623 -1.4693
  545MOL0     H75194   3.033   8.702  11.416  0.4291 -0.8935 -0.3927
  545MOL0     H75195   3.236   8.692  11.271  1.5587  0.9575  0.3104
  545MOL0     H75196   3.565   8.505  11.158  0.6678  0.8758  3.5092
  545MOL0     H75197   3.676   8.496  10.916  2.9945 -1.4708  1.5221
  545MOL0     H75198   3.893   8.503  10.817  0.4316  0.0615  0.0215
  545MOL0     H75199   3.792   8.520  10.672 -1.6156  1.9575  0.3397
  545MOL0     H75200   4.048   8.666  10.713 -1.6644  0.8329  1.1297
  545MOL0     H75201   3.947   8.690  10.567 -1.1022  2.1096  1.5939
  545MOL0     H75202   4.064   8.415  10.654 -0.0217 -0.0819 -0.7070
  545MOL0     H75203   3.962   8.443  10.511  0.7097 -2.8126  0.2943
  545MOL0     H75204   4.109   8.587  10.420 -1.0952 -2.5495 -2.0646
  545MOL0     H75205   4.176   8.423  10.444  3.2066  0.9806  0.3049
  545MOL0     H75206   4.457   8.644  10.663 -1.6064 -1.0348  2.1995
  545MOL0     H75207   3.784   8.893  10.935 -2.6069 -1.2670 -7.1867
  545MOL0     H75208   3.587   9.017  11.163 -1.2056 -1.4828 -4.4050
  545MOL0     H75209   3.719   8.951  11.268  0.9632 -0.4717  0.3810
  545MOL0     H75210   3.759   9.006  11.113  1.7111 -2.7245  0.4686
  546MOL0     O75211   8.616   7.826  10.647  0.1721  0.9407  0.4254
  546MOL0     C75212   8.545   7.897  10.717  0.7153  0.3779  0.1273
  546MOL0     O75213   8.564   8.030  10.741 -0.1914  0.3280  0.3126
  546MOL0     C75214   8.624   8.106  10.649 -1.0854  0.1460 -0.2850
  546MOL0     C75215   8.612   8.081  10.509  1.1472  0.1609 -0.1569
  546MOL0     C75216   8.669   8.160  10.415 -0.0770  0.1233  1.2833
  546MOL0     C75217   8.751   8.272  10.456  0.2898 -0.0311 -0.3018
  546MOL0     O75218   8.795   8.378  10.377  0.3748  0.9501  0.6412
  546MOL0     C75219   8.808   8.339  10.247 -0.4674  0.6469 -0.5098
  546MOL0     C75220   8.915   8.419  10.167  0.3551 -1.3907 -0.1503
  546MOL0     C75221   8.868   8.563  10.166 -0.8882  0.5214  1.0047
  546MOL0     C75222   8.943   8.657  10.065 -0.7120 -0.0873  0.3335
  546MOL0     C75223   8.903   8.806  10.078 -0.2888 -0.0725 -0.2593
  546MOL0     C75224   8.958   8.867  10.206  0.0138  0.3501  0.5767
  546MOL0     C75225   8.918   9.009  10.239  0.1975 -0.5494  0.6860
  546MOL0     C75226   8.983   9.060  10.363  0.3941 -0.7396 -0.1570
  546MOL0     N75227   8.923   9.196  10.389  0.0679  0.1680 -0.3339
  546MOL0     C75228   8.940   9.295  10.296  0.1868 -0.0787  0.1209
  546MOL0     C75229   8.901   9.409  10.361 -0.1855 -0.2445 -0.1791
  546MOL0     C75230   8.899   9.553  10.316  0.6421  0.3419 -0.0610
  546MOL0     C75231   8.836   9.641  10.419 -1.1020 -0.0508  0.0031
  546MOL0     C75232   8.789   9.770  10.353  0.1615  0.4068 -0.5919
  546MOL0     C75233   8.702   9.873  10.431 -0.5917 -0.2304  0.4172
  546MOL0     O75234   8.582   9.810  10.479 -0.3761  0.1642 -0.4000
  546MOL0     C75235   8.471   9.887  10.499 -0.2108  0.8062 -0.0293
  546MOL0     C75236   8.361   9.817  10.522  0.1065 -0.3668  0.5628
  546MOL0     C75237   8.233   9.873  10.538 -0.1390  0.6590 -0.1440
  546MOL0     C75238   8.113   9.780  10.545  0.6995  0.4197  0.8197
  546MOL0     C75239   8.216  10.006  10.549 -0.6279  1.1260  1.3316
  546MOL0     C75240   8.086  10.076  10.571  0.8036 -0.0070  0.0020
  546MOL0     O75241   8.085  10.200  10.523 -0.0494  0.3881 -0.0606
  546MOL0     C75242   7.972  10.282  10.541 -0.6845 -0.1394  0.9895
  546MOL0     C75243   7.947  10.331  10.665 -0.6042  0.2048  0.0171
  546MOL0     C75244   7.848  10.423  10.688 -0.2499 -0.3611  0.1460
  546MOL0     C75245   7.785  10.477  10.576  0.3589 -0.2462  0.6800
  546MOL0     O75246   7.694  10.584  10.594 -0.3036 -0.5296  0.9083
  546MOL0     C75247   7.563  10.574  10.534  0.1253 -0.0467  0.3442
  546MOL0     C75248   7.557  10.646  10.396 -0.2593  0.2762 -1.5696
  546MOL0     C75249   7.492  10.562  10.287  0.3452 -0.1199  0.0208
  546MOL0     C75250   7.353  10.506  10.331  0.0877 -0.9701  0.3124
  546MOL0     C75251   7.293  10.447  10.209 -1.7323 -0.3283  0.2948
  546MOL0     C75252   7.181  10.352  10.244  0.1523 -0.2502  1.3139
  546MOL0     C75253   7.087  10.303  10.122  0.1104  0.7781 -0.6647
  546MOL0     C75254   6.942  10.275  10.160  0.2829  0.5858 -0.8675
  546MOL0    Cl75255   6.821  10.323  10.033  0.0015  0.2891  0.0365
  546MOL0     C75256   7.801  10.420  10.446 -0.1915  0.6310  0.1058
  546MOL0     C75257   7.901  10.328  10.429 -0.0250  0.5564  0.1677
  546MOL0     O75258   7.991  10.028  10.638 -0.3049  0.3367  0.5109
  546MOL0     C75259   8.332  10.082  10.524  0.7746 -0.1174 -0.4193
  546MOL0     C75260   8.457  10.023  10.500 -0.3086 -0.2839 -0.5424
  546MOL0     N75261   8.849   9.362  10.484 -0.0682  0.3222 -0.5838
  546MOL0     N75262   8.855   9.235  10.495 -0.5832  0.6089 -0.7351
  546MOL0     C75263   8.770   8.295  10.594  0.5471 -0.0736 -0.4548
  546MOL0     C75264   8.709   8.217  10.694  1.7719  0.6896  0.5561
  546MOL0     C75265   8.422   7.837  10.762 -0.3251 -0.5251 -0.5614
  546MOL0     C75266   8.437   7.716  10.838  0.2307  0.0402 -0.1528
  546MOL0     C75267   8.326   7.656  10.896  0.2283 -1.5971  0.0302
  546MOL0     C75268   8.213   7.742  10.908 -0.8278 -1.1330 -1.0447
  546MOL0     O75269   8.110   7.732  11.000  0.6094 -0.1506 -0.2947
  546MOL0     C75270   8.103   7.616  11.087  1.2861 -0.0334 -0.0237
  546MOL0     C75271   7.978   7.633  11.171 -0.1910  0.0409 -0.2869
  546MOL0     C75272   7.992   7.758  11.254 -0.2510 -0.8455 -0.0815
  546MOL0     C75273   7.895   7.781  11.369 -0.4209 -1.3489  0.4555
  546MOL0     C75274   7.895   7.661  11.451  0.1924 -0.9337  0.1317
  546MOL0     C75275   7.875   7.556  11.516  0.9016 -0.2053  0.1773
  546MOL0     C75276   8.200   7.859  10.818 -0.1266  0.9990 -0.5954
  546MOL0     C75277   8.304   7.906  10.737 -0.1514  0.4701  0.1588
  546MOL0     C75278   8.278   8.044  10.673  0.6162 -0.4749 -0.8272
  546MOL0     H75279   8.555   7.996  10.472 -1.5604  1.1351  1.4972
  546MOL0     H75280   8.665   8.137  10.309 -1.3329 -3.5993  1.9756
  546MOL0     H75281   8.717   8.333  10.185  0.0552 -1.3157 -1.1487
  546MOL0     H75282   8.852   8.239  10.244  0.9468  1.2672 -1.4204
  546MOL0     H75283   9.021   8.418  10.195 -0.0114 -0.0571  1.4092
  546MOL0     H75284   8.895   8.373  10.070  1.3897  1.4607 -1.8101
  546MOL0     H75285   8.765   8.557  10.130 -0.4687  1.1984 -0.3887
  546MOL0     H75286   8.882   8.593  10.270  1.5428  0.1195  0.8593
  546MOL0     H75287   9.049   8.638  10.087 -1.4890 -2.0748  2.8620
  546MOL0     H75288   8.921   8.631   9.961 -1.0202 -0.5776  0.5175
  546MOL0     H75289   8.797   8.820  10.055 -0.3409  0.2154  0.1351
  546MOL0     H75290   8.961   8.861  10.004  1.1764  0.7057  1.3912
  546MOL0     H75291   8.936   8.797  10.287 -1.7000  0.3420  0.1381
  546MOL0     H75292   9.068   8.865  10.204  0.0004  0.4259 -0.6165
  546MOL0     H75293   8.813   9.036  10.256  0.4845  0.2857  1.2130
  546MOL0     H75294   8.951   9.054  10.145  1.3979 -1.6042  0.5810
  546MOL0     H75295   8.978   8.998  10.453 -1.5725 -0.8940 -0.3394
  546MOL0     H75296   9.091   9.080  10.355  0.3781  0.0789  1.3936
  546MOL0     H75297   8.985   9.292  10.197 -0.0807 -0.5420  0.0077
  546MOL0     H75298   8.824   9.554  10.236  1.6498  2.2640 -1.0435
  546MOL0     H75299   9.000   9.579  10.282 -0.1535 -0.5155 -3.5789
  546MOL0     H75300   8.750   9.587  10.461 -0.9177 -0.2825  0.0831
  546MOL0     H75301   8.914   9.664  10.492  1.1253 -3.5621 -1.0097
  546MOL0     H75302   8.867   9.841  10.324 -1.8866  3.1557  0.1715
  546MOL0     H75303   8.743   9.739  10.259  2.4084  0.3951 -1.7429
  546MOL0     H75304   8.769   9.912  10.508 -0.1316  0.0681 -0.1254
  546MOL0     H75305   8.673   9.951  10.359 -3.0358  0.8437  2.4284
  546MOL0     H75306   8.360   9.708  10.516 -2.8928 -0.7687  4.2119
  546MOL0     H75307   8.043   9.804  10.464 -1.5469  0.0961  2.5600
  546MOL0     H75308   8.050   9.802  10.631  2.2759  3.4313  1.3499
  546MOL0     H75309   8.139   9.674  10.542  0.8472  0.4548  0.8141
  546MOL0     H75310   8.012  10.299  10.746 -1.1060 -0.4211  0.1755
  546MOL0     H75311   7.826  10.466  10.785  2.2273  1.5330 -0.0202
  546MOL0     H75312   7.542  10.467  10.528 -0.0906 -0.0887  1.5814
  546MOL0     H75313   7.490  10.619  10.602  1.2226  1.8190  0.3450
  546MOL0     H75314   7.511  10.746  10.396  0.5082  0.6426 -2.4640
  546MOL0     H75315   7.661  10.667  10.370 -0.1332 -1.7838 -2.9742
  546MOL0     H75316   7.564  10.486  10.255 -0.2497 -0.5266 -0.3620
  546MOL0     H75317   7.477  10.619  10.195 -0.9750 -0.2524  0.1451
  546MOL0     H75318   7.289  10.584  10.373 -0.7649 -0.3949 -1.9069
  546MOL0     H75319   7.360  10.425  10.404 -2.7084  0.5303  2.4311
  546MOL0     H75320   7.263  10.530  10.144  0.2194  0.9890  0.9749
  546MOL0     H75321   7.370  10.386  10.162  0.5629  1.7401  1.1335
  546MOL0     H75322   7.118  10.392  10.324 -2.2886 -1.2799  0.0356
  546MOL0     H75323   7.226  10.265  10.294 -1.2909 -2.0367 -0.3179
  546MOL0     H75324   7.129  10.207  10.089 -2.4381 -1.0652  1.0921
  546MOL0     H75325   7.097  10.365  10.032 -1.3001  0.0603 -1.3561
  546MOL0     H75326   6.909  10.313  10.257 -1.5987  1.0871 -1.6453
  546MOL0     H75327   6.940  10.167  10.177 -0.5758  0.8185  0.7904
  546MOL0     H75328   7.750  10.447  10.354  0.0436  3.5959  0.7663
  546MOL0     H75329   7.923  10.282  10.333 -1.9355  0.6597 -0.3556
  546MOL0     H75330   8.318  10.189  10.535  3.3114  0.2807 -0.5319
  546MOL0     H75331   8.546  10.083  10.484  0.8380 -1.1475  2.0263
  546MOL0     H75332   8.816   8.391  10.612 -0.5482  0.2771  0.6056
  546MOL0     H75333   8.697   8.254  10.796 -0.1290  1.3377  0.1254
  546MOL0     H75334   8.537   7.673  10.845  0.2229  0.3041  2.8985
  546MOL0     H75335   8.324   7.554  10.932 -2.8146 -1.2027  1.3069
  546MOL0     H75336   8.101   7.525  11.026 -1.0013 -0.7032  0.9676
  546MOL0     H75337   8.183   7.601  11.161  1.9945 -5.0254 -1.3890
  546MOL0     H75338   7.983   7.532  11.214  0.4164 -1.2491 -3.1676
  546MOL0     H75339   7.879   7.648  11.129 -1.3518 -0.3325  2.1219
  546MOL0     H75340   8.092   7.766  11.298  1.0044  2.6531 -3.0525
  546MOL0     H75341   7.970   7.842  11.188  0.4857 -1.0940 -0.6571
  546MOL0     H75342   7.796   7.802  11.327  1.0442  1.2577 -2.0992
  546MOL0     H75343   7.910   7.869  11.432 -1.5355 -0.1437 -0.8666
  546MOL0     H75344   7.868   7.461  11.566 -0.1694  0.8192  2.0869
  546MOL0     H75345   8.119   7.923  10.851  1.8030  3.4760 -0.2825
  546MOL0     H75346   8.358   8.111  10.704  1.5238 -2.4865  1.4477
  546MOL0     H75347   8.263   8.023  10.566 -1.1488 -0.6269 -0.5863
  546MOL0     H75348   8.189   8.095  10.709  1.3473 -0.1422  0.5639
  547MOL0     O75349  10.797   3.100   7.897  0.0146  0.3426  0.3745
  547MOL0     C75350  10.807   3.005   7.974 -0.1241 -0.4216 -0.0075
  547MOL0     O75351  10.891   2.998   8.083  0.6946  1.1514 -0.0323
  547MOL0     C75352  10.996   3.084   8.072 -0.4761 -0.2331  0.1820
  547MOL0     C75353  11.019   3.174   8.182  0.2630 -0.3135  0.7500
  547MOL0     C75354  11.133   3.246   8.190 -1.9045 -0.6400 -0.2463
  547MOL0     C75355  11.221   3.250   8.078 -0.8014 -0.0971 -0.2502
  547MOL0     O75356  11.326   3.343   8.087  0.0963  0.7913  0.5385
  547MOL0     C75357  11.464   3.299   8.074  0.0456  0.6160 -0.8593
  547MOL0     C75358  11.549   3.388   8.151 -0.1275 -0.3349 -0.4968
  547MOL0     C75359  11.504   3.417   8.296  0.0095 -0.6265  1.0684
  547MOL0     C75360  11.590   3.525   8.362 -0.6713  0.6425 -0.4736
  547MOL0     C75361  11.516   3.597   8.474 -0.9103 -0.0819  0.0856
  547MOL0     C75362  11.585   3.729   8.508  0.2375  1.2016  0.4871
  547MOL0     C75363  11.581   3.831   8.393  0.1001  0.4700 -0.0859
  547MOL0     C75364  11.654   3.966   8.419  0.0925  0.4041  0.1123
  547MOL0     N75365  11.805   3.947   8.400  0.1722 -0.5198  0.2166
  547MOL0     C75366  11.869   3.886   8.289  0.6941  0.3162 -0.3931
  547MOL0     C75367  11.989   3.848   8.331  0.3176  0.0332 -0.0906
  547MOL0     C75368  12.096   3.764   8.265 -0.3440 -0.0108 -1.1848
  547MOL0     C75369  12.032   3.638   8.226  0.9375 -0.2176  0.4828
  547MOL0     C75370  11.977   3.554   8.349  0.0391 -0.7568 -0.0115
  547MOL0     C75371  11.947   3.419   8.290 -0.7213  0.0907  0.3889
  547MOL0     O75372  12.077   3.347   8.296 -0.5540 -0.0607  0.7527
  547MOL0     C75373  12.090   3.222   8.257 -0.8889  0.5399  0.0103
  547MOL0     C75374  11.993   3.137   8.199 -0.1216 -0.0235  0.2014
  547MOL0     C75375  12.032   3.021   8.135 -0.3445 -0.2762  0.8949
  547MOL0     C75376  11.932   2.947   8.057 -0.8289  0.3586  0.5919
  547MOL0     C75377  12.159   2.961   8.154  0.3718 -0.0456  0.7002
  547MOL0     C75378  12.192   2.823   8.133  0.1257 -0.0864  0.0416
  547MOL0     O75379  12.321   2.801   8.165  0.2478 -0.2159 -0.0109
  547MOL0     C75380  12.374   2.674   8.160 -0.6243 -0.4393  0.3645
  547MOL0     C75381  12.433   2.608   8.268  0.5236  0.1310  0.1754
  547MOL0     C75382  12.491   2.485   8.235  1.0565  0.5654 -0.9506
  547MOL0     C75383  12.501   2.438   8.103 -0.0408  0.1047 -0.4254
  547MOL0     O75384  12.551   2.315   8.076 -0.4829  0.2798 -0.0029
  547MOL0     C75385  12.469   2.207   8.123 -0.8009 -0.1422  0.0488
  547MOL0     C75386  12.503   2.085   8.041 -0.2954 -1.1506  0.1308
  547MOL0     C75387  12.495   2.112   7.883  0.7250  0.0225  0.3899
  547MOL0     C75388  12.580   2.001   7.820  0.2250  0.6065  1.3262
  547MOL0     C75389  12.615   2.023   7.672 -0.4423 -1.1269 -0.5738
  547MOL0     C75390  12.727   1.919   7.636  0.4085 -0.3316  0.3862
  547MOL0     C75391  12.667   1.782   7.582 -0.3422 -0.5547  0.3317
  547MOL0     C75392  12.744   1.725   7.459 -0.5513  0.3350  0.1878
  547MOL0    Cl75393  12.875   1.601   7.511 -0.4192 -0.2293 -0.2889
  547MOL0     C75394  12.444   2.509   8.006  0.0892 -0.1520 -0.5996
  547MOL0     C75395  12.381   2.628   8.031 -0.3532  0.6774  0.3907
  547MOL0     O75396  12.111   2.734   8.122  0.0386  0.9526 -0.6426
  547MOL0     C75397  12.255   3.046   8.221 -0.0150  0.4270 -0.2503
  547MOL0     C75398  12.216   3.168   8.278  0.3602 -0.5213  1.0324
  547MOL0     N75399  12.017   3.900   8.459  1.0732 -0.1787  0.3719
  547MOL0     N75400  11.905   3.969   8.488  0.1341  0.0726  0.3492
  547MOL0     C75401  11.205   3.166   7.975  0.3042  0.0864 -0.2158
  547MOL0     C75402  11.100   3.078   7.972 -0.1893  0.1119  0.9097
  547MOL0     C75403  10.701   2.897   7.951 -0.4279  0.1253  0.8390
  547MOL0     C75404  10.704   2.797   8.038  0.4038 -0.1634 -1.1770
  547MOL0     C75405  10.620   2.683   8.032 -0.5603 -0.5810  1.3523
  547MOL0     C75406  10.518   2.685   7.935 -0.4328  0.1769 -0.1656
  547MOL0     O75407  10.430   2.571   7.933 -0.5774 -0.9826  0.0538
  547MOL0     C75408  10.312   2.577   7.859 -0.2625 -0.2256 -0.5117
  547MOL0     C75409  10.220   2.456   7.852 -0.7185  1.1775 -0.5658
  547MOL0     C75410  10.100   2.490   7.759 -1.0642  0.2373 -1.0430
  547MOL0     C75411   9.978   2.404   7.749 -0.3535  0.4494 -0.2754
  547MOL0     C75412   9.998   2.253   7.751  0.2680 -0.1993 -0.1503
  547MOL0     C75413  10.008   2.136   7.739 -0.6756 -0.5414 -0.1146
  547MOL0     C75414  10.505   2.795   7.849  0.4691  0.1148 -0.4563
  547MOL0     C75415  10.603   2.895   7.851  0.8299  0.2802  0.3342
  547MOL0     C75416  10.601   2.980   7.721 -0.2571  1.5288  0.5476
  547MOL0     H75417  10.943   3.175   8.259  1.9793  1.8523  2.5365
  547MOL0     H75418  11.151   3.315   8.272 -1.1761  0.7668 -1.5382
  547MOL0     H75419  11.498   3.298   7.970  1.7691  0.3605 -0.3214
  547MOL0     H75420  11.472   3.197   8.111  1.1778  1.4034  1.2482
  547MOL0     H75421  11.653   3.356   8.145  1.5544  4.5818 -2.5987
  547MOL0     H75422  11.558   3.487   8.105  0.3933  1.5457  3.2163
  547MOL0     H75423  11.403   3.458   8.305 -0.3416 -1.5485  1.5360
  547MOL0     H75424  11.525   3.327   8.354  1.3911  0.4404  2.3025
  547MOL0     H75425  11.675   3.468   8.400  0.0980  1.2918 -1.1873
  547MOL0     H75426  11.633   3.594   8.289 -2.8052  3.4828  0.7343
  547MOL0     H75427  11.515   3.544   8.570  2.0298 -0.6314 -0.0882
  547MOL0     H75428  11.412   3.618   8.446 -1.5094  0.4177  2.3944
  547MOL0     H75429  11.531   3.767   8.596 -0.6805  1.9160 -0.3631
  547MOL0     H75430  11.689   3.699   8.522  0.5226  0.6560 -2.2676
  547MOL0     H75431  11.473   3.849   8.385 -0.5866 -3.1772 -0.7539
  547MOL0     H75432  11.603   3.783   8.298  0.8939 -1.0940  0.8538
  547MOL0     H75433  11.619   4.045   8.351  2.6338  5.4857  4.0624
  547MOL0     H75434  11.640   4.002   8.521  0.8508 -3.4533  1.7742
  547MOL0     H75435  11.833   3.860   8.190  3.3421  1.4553 -1.7453
  547MOL0     H75436  12.173   3.738   8.339 -1.8528  2.3194  1.3834
  547MOL0     H75437  12.148   3.809   8.180  1.9201 -2.4717 -1.2233
  547MOL0     H75438  11.958   3.661   8.148  2.2561  3.1275  0.0405
  547MOL0     H75439  12.114   3.586   8.176 -1.4308 -1.4690 -2.3949
  547MOL0     H75440  12.043   3.553   8.436  0.0255 -0.8666 -0.0027
  547MOL0     H75441  11.876   3.583   8.382 -0.5305  0.0081 -2.2539
  547MOL0     H75442  11.868   3.370   8.348 -1.1456  0.2929 -0.0102
  547MOL0     H75443  11.909   3.429   8.188  1.4906 -3.1007 -0.9003
  547MOL0     H75444  11.892   3.176   8.204  0.8915  2.7581  0.5885
  547MOL0     H75445  11.882   2.870   8.115 -2.3987  0.0658 -1.0678
  547MOL0     H75446  11.992   2.899   7.979  1.1843 -2.1152  3.4350
  547MOL0     H75447  11.856   2.998   7.996 -0.0948 -0.1798 -0.8276
  547MOL0     H75448  12.427   2.653   8.366  3.8950 -1.2240  1.1373
  547MOL0     H75449  12.531   2.425   8.316  1.7578  1.4139 -0.6436
  547MOL0     H75450  12.490   2.189   8.229 -1.0452 -1.7342 -0.1452
  547MOL0     H75451  12.362   2.225   8.105 -0.4220 -0.1880 -2.5291
  547MOL0     H75452  12.605   2.053   8.062 -0.0215 -1.8585 -2.0810
  547MOL0     H75453  12.440   2.001   8.073  1.1182 -1.9183  0.9921
  547MOL0     H75454  12.554   2.201   7.860  1.3486  0.2705  2.6475
  547MOL0     H75455  12.392   2.120   7.848  1.2135  0.8404 -0.9411
  547MOL0     H75456  12.532   1.903   7.816  1.7276 -0.2856  3.4773
  547MOL0     H75457  12.672   2.003   7.879  0.8829  0.5030  0.3383
  547MOL0     H75458  12.530   2.005   7.606 -0.3215 -0.9638 -0.7780
  547MOL0     H75459  12.655   2.124   7.659 -0.2561 -1.1763 -0.3940
  547MOL0     H75460  12.788   1.901   7.724 -0.8283 -0.9755  1.1310
  547MOL0     H75461  12.776   1.966   7.550  3.0599 -3.1947  0.1688
  547MOL0     H75462  12.562   1.793   7.554  0.0835  1.8054 -0.5672
  547MOL0     H75463  12.687   1.710   7.662 -0.6621 -1.9437 -0.7874
  547MOL0     H75464  12.809   1.805   7.424 -1.9077  1.1091 -0.6172
  547MOL0     H75465  12.677   1.697   7.377 -1.2181 -0.4866  0.9856
  547MOL0     H75466  12.460   2.463   7.909  0.7056  0.0319 -0.5841
  547MOL0     H75467  12.326   2.671   7.947 -3.7296 -2.6982  0.5990
  547MOL0     H75468  12.361   3.030   8.236  0.6669  2.5736 -2.1828
  547MOL0     H75469  12.267   3.239   8.343  1.2643  0.5667 -0.7980
  547MOL0     H75470  11.276   3.175   7.893 -0.1523 -2.0987 -0.9314
  547MOL0     H75471  11.104   2.994   7.903  1.0895  0.7126  0.2296
  547MOL0     H75472  10.762   2.806   8.130  1.5463 -0.5616 -1.8372
  547MOL0     H75473  10.613   2.597   8.099 -0.7344 -3.1205 -1.6575
  547MOL0     H75474  10.261   2.672   7.877  1.4530  0.4586  1.1465
  547MOL0     H75475  10.335   2.591   7.753  2.5775  0.3451  0.0940
  547MOL0     H75476  10.189   2.430   7.954  0.9439 -0.4244 -0.4062
  547MOL0     H75477  10.266   2.364   7.814 -1.1277  0.9261 -0.4650
  547MOL0     H75478  10.065   2.586   7.799 -3.6771 -0.4205 -1.5425
  547MOL0     H75479  10.143   2.496   7.659 -4.4731  0.0003 -2.6790
  547MOL0     H75480   9.926   2.423   7.655  0.3907  0.7840 -0.6280
  547MOL0     H75481   9.910   2.429   7.831  0.4020 -1.3804  0.9857
  547MOL0     H75482  10.017   2.029   7.731  4.1837 -0.2962 -0.7043
  547MOL0     H75483  10.420   2.803   7.782  0.5291  1.2436 -0.4108
  547MOL0     H75484  10.698   2.999   7.676 -1.5109  3.3723 -1.6186
  547MOL0     H75485  10.546   2.927   7.643 -1.3934 -0.6367  2.6776
  547MOL0     H75486  10.573   3.085   7.738  1.5912  2.1359  0.0126
  548MOL0     O75487   5.217   6.603   5.976 -0.4902 -0.0633 -0.8640
  548MOL0     C75488   5.120   6.660   5.931 -0.1922 -0.6111  1.1090
  548MOL0     O75489   5.124   6.750   5.826 -0.9118 -0.2475  0.0346
  548MOL0     C75490   5.242   6.802   5.788  0.4943 -0.8038  0.5088
  548MOL0     C75491   5.274   6.814   5.651  0.7637  0.1528 -0.2558
  548MOL0     C75492   5.392   6.874   5.612 -0.4134  0.1684  0.0442
  548MOL0     C75493   5.482   6.926   5.701  0.0298  0.6306  0.3148
  548MOL0     O75494   5.594   7.002   5.651 -0.8720 -0.7775  0.4952
  548MOL0     C75495   5.731   6.966   5.700  0.3887 -0.7442  0.3255
  548MOL0     C75496   5.773   7.095   5.778  0.1518 -0.4783 -0.2218
  548MOL0     C75497   5.788   7.232   5.691 -0.9331  1.2879 -0.4531
  548MOL0     C75498   5.846   7.341   5.781  1.6457 -0.2654  0.1016
  548MOL0     C75499   5.872   7.470   5.711  0.2105 -0.1287 -0.7718
  548MOL0     C75500   6.015   7.462   5.645  0.4320  0.2252  0.1046
  548MOL0     C75501   6.088   7.603   5.642  0.4135  0.9759 -0.5915
  548MOL0     C75502   6.221   7.599   5.558  0.0299  0.8274 -0.3134
  548MOL0     N75503   6.201   7.630   5.421  0.4181 -0.4273  0.4920
  548MOL0     C75504   6.103   7.583   5.335  0.5537 -0.4177  0.3936
  548MOL0     C75505   6.147   7.604   5.209  0.3085 -0.5890 -0.5731
  548MOL0     C75506   6.061   7.584   5.092 -0.8854  0.0017 -0.6718
  548MOL0     C75507   6.061   7.443   5.030 -0.6518  0.3354  0.5283
  548MOL0     C75508   6.204   7.405   4.978 -0.3651 -0.0057  0.3845
  548MOL0     C75509   6.266   7.513   4.891 -0.4470 -0.4470  0.0138
  548MOL0     O75510   6.358   7.460   4.805 -0.2852 -0.6168  0.2608
  548MOL0     C75511   6.487   7.433   4.853 -0.1102  0.3189  0.2531
  548MOL0     C75512   6.534   7.453   4.985 -0.1794  0.2399 -0.8777
  548MOL0     C75513   6.663   7.412   5.023 -0.7370  0.0502 -0.0620
  548MOL0     C75514   6.701   7.425   5.174  0.5751  0.0511 -0.5670
  548MOL0     C75515   6.751   7.365   4.920  0.2219  0.1793  0.2841
  548MOL0     C75516   6.890   7.310   4.945 -0.1291  0.0960  0.4897
  548MOL0     O75517   6.956   7.239   4.842 -0.7755 -0.1524  0.3794
  548MOL0     C75518   7.061   7.161   4.884  0.3350 -0.1182 -0.3256
  548MOL0     C75519   7.100   7.116   5.011  0.9388  0.1300  0.0074
  548MOL0     C75520   7.226   7.052   5.034  0.2568  0.7003 -0.0091
  548MOL0     C75521   7.303   7.016   4.925  0.3488 -0.0478  0.1345
  548MOL0     O75522   7.423   6.947   4.922  0.1086 -0.1908  0.6595
  548MOL0     C75523   7.494   6.928   5.040  0.2978 -0.5587 -0.6693
  548MOL0     C75524   7.647   6.917   5.026 -0.9943 -0.1265 -0.3448
  548MOL0     C75525   7.719   6.804   4.936 -0.1712 -0.8605 -0.3554
  548MOL0     C75526   7.652   6.661   4.949  0.8945 -0.2403  0.4203
  548MOL0     C75527   7.716   6.546   4.862 -0.7247 -0.3075 -0.5624
  548MOL0     C75528   7.874   6.542   4.883 -0.3758  0.7318 -0.7985
  548MOL0     C75529   7.947   6.419   4.830 -1.2729  1.2099 -0.0015
  548MOL0     C75530   7.935   6.394   4.684 -0.2186  0.9985  0.3804
  548MOL0    Cl75531   7.946   6.532   4.570  0.0177  0.0998 -0.3279
  548MOL0     C75532   7.261   7.055   4.799 -1.0997 -0.1940  0.7678
  548MOL0     C75533   7.144   7.134   4.773 -0.4438 -0.1893 -0.1444
  548MOL0     O75534   6.941   7.333   5.052  0.0448 -0.2512  0.3265
  548MOL0     C75535   6.693   7.338   4.794  0.2571  0.0081 -0.3022
  548MOL0     C75536   6.569   7.368   4.763 -0.3311  0.7601  1.1270
  548MOL0     N75537   6.277   7.654   5.214  0.3159  0.3080 -0.1372
  548MOL0     N75538   6.298   7.671   5.342 -0.1726  0.2067  0.6390
  548MOL0     C75539   5.452   6.917   5.834 -0.1631  0.7207 -0.1248
  548MOL0     C75540   5.329   6.856   5.882 -0.0997  1.0349 -0.2774
  548MOL0     C75541   4.995   6.612   5.979 -0.9320 -0.7175 -1.2089
  548MOL0     C75542   4.888   6.706   5.962 -0.0112 -0.2482  1.6235
  548MOL0     C75543   4.761   6.685   6.014 -0.4008  0.2383  0.0069
  548MOL0     C75544   4.739   6.562   6.077  0.1142  0.7233  0.7154
  548MOL0     O75545   4.616   6.540   6.127 -0.6895 -0.4135 -0.1298
  548MOL0     C75546   4.544   6.433   6.066 -0.2798 -0.0797  0.9524
  548MOL0     C75547   4.487   6.492   5.931  0.5549 -0.0707  0.0634
  548MOL0     C75548   4.572   6.442   5.804  0.6627 -0.2343 -0.3789
  548MOL0     C75549   4.515   6.509   5.673  0.3606 -0.6312 -0.1882
  548MOL0     C75550   4.369   6.510   5.669  0.1214  0.8761  0.1822
  548MOL0     C75551   4.250   6.515   5.643  0.0269  0.3404 -0.6576
  548MOL0     C75552   4.842   6.463   6.099  0.1131 -0.0568  0.3010
  548MOL0     C75553   4.965   6.489   6.039 -0.4115 -0.0759 -0.1183
  548MOL0     C75554   5.064   6.381   6.059 -0.4234  0.5076 -0.1364
  548MOL0     H75555   5.209   6.776   5.574  0.4919  0.6617 -0.2757
  548MOL0     H75556   5.417   6.893   5.508  1.2165 -0.1950  0.3467
  548MOL0     H75557   5.803   6.947   5.620  0.2016 -3.4720  0.7097
  548MOL0     H75558   5.733   6.877   5.765  0.4437  0.6221  2.2702
  548MOL0     H75559   5.701   7.102   5.860  1.3654 -0.2801  0.8550
  548MOL0     H75560   5.862   7.068   5.835 -1.0350 -1.9215  1.0600
  548MOL0     H75561   5.866   7.213   5.618 -0.4078 -0.9839  0.5978
  548MOL0     H75562   5.697   7.271   5.645 -1.2384 -0.4772 -1.4542
  548MOL0     H75563   5.769   7.368   5.853  0.7791  4.0683 -2.1028
  548MOL0     H75564   5.931   7.309   5.841  1.1931  0.7581  1.3438
  548MOL0     H75565   5.869   7.544   5.792 -0.0893 -0.3403 -0.5878
  548MOL0     H75566   5.798   7.486   5.632 -0.0238 -0.4625 -0.6231
  548MOL0     H75567   6.078   7.404   5.714  1.5611  1.2585 -0.0180
  548MOL0     H75568   6.024   7.410   5.549  0.1183 -0.1605  0.2797
  548MOL0     H75569   6.110   7.633   5.744 -2.5921  0.2020  0.3917
  548MOL0     H75570   6.022   7.684   5.609 -0.5125  1.3067  1.8691
  548MOL0     H75571   6.289   7.671   5.605  2.5303 -3.0047  2.5364
  548MOL0     H75572   6.260   7.498   5.566 -0.6634  0.6683  1.3235
  548MOL0     H75573   6.002   7.550   5.358  0.0325  1.9011  1.7811
  548MOL0     H75574   6.073   7.670   5.025 -0.9808  1.6059  1.2863
  548MOL0     H75575   5.958   7.592   5.126 -0.5569 -1.2395  0.6989
  548MOL0     H75576   6.030   7.367   5.102  0.0348 -1.5249 -1.0425
  548MOL0     H75577   5.989   7.443   4.947  0.4622 -1.6370 -0.5306
  548MOL0     H75578   6.265   7.381   5.065  1.1183  2.1546  0.0422
  548MOL0     H75579   6.195   7.311   4.924  0.9296  1.4785 -2.6853
  548MOL0     H75580   6.197   7.563   4.823 -0.7407 -2.5441 -1.2937
  548MOL0     H75581   6.305   7.585   4.964 -0.9047 -0.1054 -0.0715
  548MOL0     H75582   6.473   7.484   5.068  1.8495  0.3381  0.6531
  548MOL0     H75583   6.613   7.430   5.239  2.2275 -0.7481  1.8281
  548MOL0     H75584   6.763   7.514   5.190 -0.9791  0.7868  1.8344
  548MOL0     H75585   6.749   7.338   5.218 -0.3521 -0.5633 -0.7337
  548MOL0     H75586   7.061   7.133   5.111  1.1060 -2.6813  0.6440
  548MOL0     H75587   7.252   7.021   5.135 -0.2689  1.2710  0.3063
  548MOL0     H75588   7.465   6.998   5.119  1.9538 -3.8301  3.1612
  548MOL0     H75589   7.455   6.834   5.081  0.3809 -1.0357 -1.6660
  548MOL0     H75590   7.685   7.017   5.003 -1.5566  0.1962  0.0950
  548MOL0     H75591   7.680   6.885   5.125 -1.0367  1.8867  0.3861
  548MOL0     H75592   7.822   6.799   4.971 -0.0057  1.3395 -0.3882
  548MOL0     H75593   7.717   6.846   4.835  3.5668  1.7100  0.4217
  548MOL0     H75594   7.548   6.664   4.916  1.2486  2.1793 -0.7286
  548MOL0     H75595   7.659   6.627   5.052  0.3347 -2.3192 -0.1663
  548MOL0     H75596   7.673   6.451   4.895 -0.4980 -0.1606  0.1805
  548MOL0     H75597   7.695   6.569   4.757  1.0696  3.5418 -0.2449
  548MOL0     H75598   7.901   6.550   4.989 -1.5515 -0.7819 -0.3299
  548MOL0     H75599   7.912   6.633   4.836  0.3580  0.1261 -1.4049
  548MOL0     H75600   7.922   6.327   4.885 -0.2536  0.8066 -0.1962
  548MOL0     H75601   8.051   6.451   4.841 -2.0703  3.3401  2.1436
  548MOL0     H75602   7.833   6.360   4.661 -0.7349  2.3214  0.6223
  548MOL0     H75603   8.007   6.317   4.655 -2.8099 -1.4200 -0.1848
  548MOL0     H75604   7.327   7.034   4.716 -0.6265 -0.9171  1.3190
  548MOL0     H75605   7.126   7.165   4.671  1.8051 -1.4318 -0.9986
  548MOL0     H75606   6.772   7.329   4.721 -0.4124 -3.2511 -0.8024
  548MOL0     H75607   6.540   7.341   4.662  1.0011 -0.9899  1.1617
  548MOL0     H75608   5.516   6.973   5.901  0.0088 -0.4814  0.7518
  548MOL0     H75609   5.311   6.843   5.988  2.6315  0.2284  0.1659
  548MOL0     H75610   4.912   6.807   5.930 -1.2415 -0.5183 -0.3617
  548MOL0     H75611   4.676   6.752   6.011  0.0961  0.8293 -2.2009
  548MOL0     H75612   4.612   6.351   6.042 -0.0823  0.3001  0.1746
  548MOL0     H75613   4.459   6.387   6.118 -1.4968  2.4194  1.3502
  548MOL0     H75614   4.475   6.600   5.920 -0.8270 -0.2797 -0.7059
  548MOL0     H75615   4.390   6.443   5.924  0.5252  0.2022 -2.1527
  548MOL0     H75616   4.679   6.461   5.821  0.7017  1.1298 -1.8934
  548MOL0     H75617   4.563   6.333   5.804 -1.1330 -0.1280 -1.7972
  548MOL0     H75618   4.559   6.459   5.587 -0.5336  0.0248 -1.0404
  548MOL0     H75619   4.556   6.610   5.677  1.2999 -0.9891 -0.4928
  548MOL0     H75620   4.146   6.517   5.621 -0.1140 -0.3427 -0.0856
  548MOL0     H75621   4.834   6.368   6.150  0.0971  0.7928  1.9306
  548MOL0     H75622   5.147   6.412   6.123  3.3558 -4.3771 -1.9982
  548MOL0     H75623   5.017   6.291   6.099 -1.2637  0.7708 -0.5105
  548MOL0     H75624   5.112   6.358   5.964  0.4486  0.8867  0.1964
  549MOL0     O75625   2.725   8.074   2.432 -1.3220 -1.0816  0.1260
  549MOL0     C75626   2.734   7.987   2.521 -0.2012 -0.4552 -1.1844
  549MOL0     O75627   2.630   7.942   2.590 -0.1135  0.2218 -0.2896
  549MOL0     C75628   2.508   7.991   2.581  0.9442 -0.0152  0.4411
  549MOL0     C75629   2.403   7.902   2.556  0.8787  0.0955 -1.1397
  549MOL0     C75630   2.270   7.948   2.563 -0.6870 -0.9994 -0.0293
  549MOL0     C75631   2.247   8.086   2.566  0.3968 -0.2189 -0.1056
  549MOL0     O75632   2.117   8.128   2.563  0.2106 -0.8899 -0.2700
  549MOL0     C75633   2.013   8.064   2.637  0.3578  0.2859  0.2024
  549MOL0     C75634   1.996   8.110   2.785 -0.1851 -1.1783  0.5798
  549MOL0     C75635   1.988   8.261   2.803  1.4046  0.0933  0.1965
  549MOL0     C75636   1.982   8.293   2.949 -0.0916 -0.6404 -0.3243
  549MOL0     C75637   1.950   8.447   2.965 -0.0415  0.9354  0.0140
  549MOL0     C75638   2.045   8.541   2.875  0.6488 -0.4521 -1.6838
  549MOL0     C75639   2.013   8.694   2.898  0.2671  0.5373 -0.5623
  549MOL0     C75640   1.861   8.724   2.858 -0.3710  0.0200  0.4922
  549MOL0     N75641   1.821   8.863   2.861  0.4103  0.8686 -0.2653
  549MOL0     C75642   1.856   8.973   2.788 -0.1661  0.0456 -0.3206
  549MOL0     C75643   1.775   9.071   2.834  0.6954 -0.1427  0.5193
  549MOL0     C75644   1.765   9.220   2.806 -0.3781  0.5699  0.3277
  549MOL0     C75645   1.897   9.285   2.839  1.1250  0.3417 -0.1761
  549MOL0     C75646   1.919   9.413   2.773 -0.3690 -0.2425  1.1811
  549MOL0     C75647   1.830   9.534   2.802 -0.5928  0.7575  0.6856
  549MOL0     O75648   1.827   9.632   2.690  0.5155  0.6747  0.1286
  549MOL0     C75649   1.733   9.737   2.693 -0.1815  0.0784 -0.6297
  549MOL0     C75650   1.745   9.838   2.598  0.3153  1.2824 -1.1929
  549MOL0     C75651   1.650   9.945   2.595 -0.5495 -0.2289  0.2345
  549MOL0     C75652   1.658  10.021   2.452  1.1068 -0.2979 -0.4902
  549MOL0     C75653   1.544   9.958   2.682  1.1662  1.2720  0.0220
  549MOL0     C75654   1.441  10.062   2.683  0.2474 -0.2996  0.3667
  549MOL0     O75655   1.332  10.046   2.770 -0.6781  0.4679  0.2556
  549MOL0     C75656   1.221  10.129   2.782 -0.1787  0.1056 -0.0203
  549MOL0     C75657   1.164  10.187   2.669  0.2644  0.5576 -0.2497
  549MOL0     C75658   1.058  10.281   2.672  0.6653 -0.1600 -0.0389
  549MOL0     C75659   1.001  10.314   2.795  0.6513 -0.0952 -0.3993
  549MOL0     O75660   0.906  10.405   2.778 -0.4051  0.2977 -0.0394
  549MOL0     C75661   0.783  10.377   2.837  0.5413 -0.3258 -0.0907
  549MOL0     C75662   0.673  10.484   2.814  0.4660 -0.2363  0.4433
  549MOL0     C75663   0.607  10.459   2.671  0.0115  0.6300 -0.6774
  549MOL0     C75664   0.497  10.560   2.650  0.1940  0.7050 -0.3121
  549MOL0     C75665   0.361  10.532   2.723  0.6113  1.1826 -0.0014
  549MOL0     C75666   0.291  10.399   2.674  0.0556 -0.4233  0.0219
  549MOL0     C75667   0.166  10.353   2.754  0.4021  1.4374 -0.1245
  549MOL0     C75668   0.184  10.292   2.888  0.4501  0.5833  0.5893
  549MOL0    Cl75669   0.286  10.145   2.874 -0.0999  0.0787  0.0303
  549MOL0     C75670   1.053  10.261   2.916 -0.3516  0.6175  0.0626
  549MOL0     C75671   1.164  10.172   2.905  0.8954  0.4735 -0.6770
  549MOL0     O75672   1.469  10.164   2.625 -0.4522 -0.9341  0.6114
  549MOL0     C75673   1.535   9.854   2.779 -0.0329 -0.4458 -0.3820
  549MOL0     C75674   1.625   9.750   2.788 -0.3527  0.7650 -0.6294
  549MOL0     N75675   1.707   9.017   2.944 -0.3007  0.4592  0.5987
  549MOL0     N75676   1.744   8.898   2.962  0.3668  0.1401 -0.2018
  549MOL0     C75677   2.351   8.176   2.585 -0.1604  0.5620 -0.1016
  549MOL0     C75678   2.479   8.131   2.590  0.0743  0.0625  0.1341
  549MOL0     C75679   2.871   7.938   2.565 -0.7840 -0.0517 -0.3562
  549MOL0     C75680   2.984   7.998   2.498  0.6022  0.9609  0.1711
  549MOL0     C75681   3.114   7.977   2.533  0.2664 -0.8234 -0.8479
  549MOL0     C75682   3.143   7.888   2.636  0.2302 -0.0618  0.0677
  549MOL0     O75683   3.273   7.865   2.662 -0.3852 -0.0040 -0.5296
  549MOL0     C75684   3.312   7.808   2.790  0.1576 -0.0384  0.3792
  549MOL0     C75685   3.375   7.673   2.754 -0.4618 -0.4084  0.2826
  549MOL0     C75686   3.281   7.564   2.692 -1.6050 -0.8667 -0.3098
  549MOL0     C75687   3.358   7.469   2.597 -0.8720  0.0161  0.5245
  549MOL0     C75688   3.453   7.392   2.678  0.9606  1.3406  0.1287
  549MOL0     C75689   3.518   7.336   2.762 -0.4789  0.1450  0.3074
  549MOL0     C75690   3.030   7.824   2.707 -0.2231 -0.0404  0.1294
  549MOL0     C75691   2.898   7.859   2.684  0.3629 -0.7039 -0.8434
  549MOL0     C75692   2.788   7.799   2.778  0.8318  0.3059  0.3690
  549MOL0     H75693   2.430   7.800   2.533 -0.0486 -0.3022 -0.4973
  549MOL0     H75694   2.200   7.868   2.543  2.2112 -3.9065  0.4193
  549MOL0     H75695   2.030   7.956   2.638 -1.6866 -0.0859 -1.0069
  549MOL0     H75696   1.915   8.070   2.589  1.6394 -3.0297 -3.4250
  549MOL0     H75697   1.911   8.062   2.833 -1.9252  1.2661  0.1565
  549MOL0     H75698   2.092   8.092   2.834  0.4949  1.1862  0.2548
  549MOL0     H75699   2.084   8.302   2.771  0.9501  1.5773  0.6073
  549MOL0     H75700   1.908   8.312   2.747  0.8442  0.1579  1.0286
  549MOL0     H75701   1.895   8.243   2.991 -0.2221 -0.4488 -0.3655
  549MOL0     H75702   2.075   8.277   3.006  1.9940  1.9338 -2.7257
  549MOL0     H75703   1.968   8.460   3.072  1.3377  0.0168 -0.0784
  549MOL0     H75704   1.844   8.457   2.943 -0.1531  0.9856  0.5630
  549MOL0     H75705   2.143   8.512   2.916 -1.7523 -0.9103  5.0460
  549MOL0     H75706   2.035   8.521   2.768 -0.9138  1.5792 -1.9713
  549MOL0     H75707   2.078   8.763   2.843  2.5719 -0.5550  0.6446
  549MOL0     H75708   2.009   8.730   3.001 -0.5909  3.4478 -1.5278
  549MOL0     H75709   1.863   8.696   2.752 -3.1072  0.9468  0.1138
  549MOL0     H75710   1.778   8.665   2.897 -1.2403  1.1857  0.4614
  549MOL0     H75711   1.929   8.986   2.709  1.7939 -0.4837  1.3349
  549MOL0     H75712   1.686   9.272   2.861  0.4852  0.9436  1.2471
  549MOL0     H75713   1.741   9.227   2.700  1.3486 -0.7998 -0.2017
  549MOL0     H75714   1.899   9.304   2.947  1.1463 -2.3039  0.3644
  549MOL0     H75715   1.984   9.223   2.816  2.0155  0.4230  2.5368
  549MOL0     H75716   2.024   9.438   2.795  0.4726 -2.1116 -0.4650
  549MOL0     H75717   1.910   9.391   2.667  1.8577 -1.0442  1.0962
  549MOL0     H75718   1.731   9.497   2.830 -0.7314 -0.0782 -0.8273
  549MOL0     H75719   1.862   9.589   2.892 -5.3996  3.4013  1.1121
  549MOL0     H75720   1.824   9.823   2.526 -0.4780 -0.6579 -1.7074
  549MOL0     H75721   1.722  10.109   2.463  1.5878 -0.6637 -0.3078
  549MOL0     H75722   1.553  10.044   2.433  1.8584  2.8567 -1.4157
  549MOL0     H75723   1.691   9.964   2.364 -0.9565 -4.1181  0.9473
  549MOL0     H75724   1.208  10.159   2.574 -0.5363 -0.5165 -0.3287
  549MOL0     H75725   1.011  10.314   2.579  2.5743  1.0875 -0.6103
  549MOL0     H75726   0.740  10.280   2.810 -0.1936  0.1651 -0.7316
  549MOL0     H75727   0.793  10.380   2.946 -0.3477  0.3480 -0.0136
  549MOL0     H75728   0.601  10.465   2.894  2.1641  1.2903  2.4640
  549MOL0     H75729   0.710  10.587   2.814 -0.4802  0.1300 -1.0508
  549MOL0     H75730   0.563  10.359   2.668 -0.4738  0.8103  0.1606
  549MOL0     H75731   0.687  10.476   2.598 -0.0895 -0.1656 -0.9875
  549MOL0     H75732   0.489  10.571   2.541 -0.1894  2.3833 -0.1435
  549MOL0     H75733   0.541  10.654   2.686  2.6864 -0.9231  1.2613
  549MOL0     H75734   0.363  10.547   2.831  1.9432 -0.2452  0.2048
  549MOL0     H75735   0.300  10.618   2.692 -0.3367  0.3239 -0.5784
  549MOL0     H75736   0.365  10.321   2.691  2.9398  1.1930 -3.7797
  549MOL0     H75737   0.253  10.415   2.573  1.3483  0.9912 -0.2730
  549MOL0     H75738   0.121  10.279   2.687  1.1834  0.1585  0.7287
  549MOL0     H75739   0.099  10.435   2.779  0.4102  3.3774 -5.2686
  549MOL0     H75740   0.095  10.257   2.941  0.9514 -4.3342 -1.2473
  549MOL0     H75741   0.237  10.370   2.943 -1.2020  3.2487 -1.3589
  549MOL0     H75742   1.001  10.293   3.006  0.0649  0.0219  0.5221
  549MOL0     H75743   1.198  10.110   2.988 -0.2652 -1.6171 -1.6664
  549MOL0     H75744   1.462   9.857   2.860  1.7134 -1.4864  1.3388
  549MOL0     H75745   1.607   9.681   2.870  0.6480 -0.7111 -1.5897
  549MOL0     H75746   2.322   8.280   2.599 -3.3066 -0.1580 -0.5572
  549MOL0     H75747   2.555   8.205   2.613  0.2544  0.3294 -1.2564
  549MOL0     H75748   2.959   8.061   2.413  0.9805 -2.0619 -2.3620
  549MOL0     H75749   3.196   8.021   2.478 -1.1693  2.2019 -0.7833
  549MOL0     H75750   3.383   7.880   2.832 -0.1505  0.7487 -0.4462
  549MOL0     H75751   3.225   7.806   2.856 -0.6518  0.7520 -0.6341
  549MOL0     H75752   3.424   7.628   2.841 -1.1094 -2.3867 -0.3232
  549MOL0     H75753   3.449   7.694   2.676  1.1640 -3.2149  0.8926
  549MOL0     H75754   3.223   7.508   2.766 -0.8346 -0.8214  0.3346
  549MOL0     H75755   3.208   7.618   2.630  1.8499  2.1535 -2.0974
  549MOL0     H75756   3.400   7.529   2.515 -1.3676  0.1526  0.3691
  549MOL0     H75757   3.289   7.393   2.559 -0.3202 -1.7621  2.8643
  549MOL0     H75758   3.575   7.294   2.843  0.5506 -3.4540 -2.0397
  549MOL0     H75759   3.058   7.755   2.786  1.4455  1.1844  0.6619
  549MOL0     H75760   2.755   7.865   2.859  1.1123 -1.9407  2.4346
  549MOL0     H75761   2.699   7.761   2.727  1.0045  1.9222 -1.2299
  549MOL0     H75762   2.818   7.710   2.834 -2.7674 -1.0397  0.3772
  550MOL0     O75763   0.780   1.399   6.470  0.4431 -0.4773  0.8290
  550MOL0     C75764   0.843   1.406   6.364  0.1309  0.4576 -0.5057
  550MOL0     O75765   0.864   1.509   6.285 -0.3200  0.3597  0.6558
  550MOL0     C75766   0.801   1.626   6.318 -0.2186 -0.8492  0.0869
  550MOL0     C75767   0.825   1.696   6.436  0.8104 -0.9954  0.0959
  550MOL0     C75768   0.791   1.831   6.440  0.4053  0.3054  0.1253
  550MOL0     C75769   0.734   1.894   6.334 -0.0162  0.9614  1.4450
  550MOL0     O75770   0.700   2.027   6.323  0.3265  0.2436  0.4830
  550MOL0     C75771   0.813   2.106   6.290  0.4920 -0.0056  0.6638
  550MOL0     C75772   0.829   2.127   6.135 -0.0777  0.1546 -0.3280
  550MOL0     C75773   0.723   2.217   6.074 -0.3772  0.1621  0.4704
  550MOL0     C75774   0.768   2.217   5.926 -0.0964  0.3369  0.7693
  550MOL0     C75775   0.689   2.333   5.851 -0.6799 -0.3400 -1.0308
  550MOL0     C75776   0.705   2.354   5.705 -0.1774  0.2803 -0.2087
  550MOL0     C75777   0.656   2.235   5.615  0.8739 -0.0394 -0.4362
  550MOL0     C75778   0.646   2.271   5.468 -0.6819  0.0788 -0.8515
  550MOL0     N75779   0.601   2.157   5.389  0.2380  0.8859  0.4157
  550MOL0     C75780   0.486   2.085   5.419  0.0018  0.8277  0.0403
  550MOL0     C75781   0.477   1.983   5.332  0.6834 -0.4026 -0.8870
  550MOL0     C75782   0.363   1.886   5.337  0.4553 -0.5303 -0.2673
  550MOL0     C75783   0.345   1.796   5.456 -0.3215 -0.7221 -0.2598
  550MOL0     C75784   0.204   1.757   5.479  0.1560 -0.1033  0.6955
  550MOL0     C75785   0.180   1.666   5.596  0.0846  0.0739  0.7037
  550MOL0     O75786   0.237   1.534   5.575  0.2486 -0.8698  0.4697
  550MOL0     C75787   0.205   1.432   5.652  0.3254  1.0937 -0.5104
  550MOL0     C75788   0.271   1.310   5.626  0.2309  0.0571 -0.4462
  550MOL0     C75789   0.257   1.197   5.704  0.3822  0.5519 -0.8237
  550MOL0     C75790   0.347   1.080   5.660  0.2743  0.4363  0.2820
  550MOL0     C75791   0.178   1.196   5.819  0.1782 -0.0731  0.3827
  550MOL0     C75792   0.172   1.080   5.923 -0.4527 -0.8457  0.2258
  550MOL0     O75793   0.062   1.090   6.010  0.6659 -0.2164  0.0545
  550MOL0     C75794   0.067   1.031   6.135 -0.1357 -0.5590  0.0312
  550MOL0     C75795  -0.001   0.907   6.146 -0.1408 -0.2466  0.0959
  550MOL0     C75796  -0.024   0.852   6.267  0.2574 -0.5713  0.0138
  550MOL0     C75797   0.005   0.923   6.383 -0.2481  0.0123  0.1412
  550MOL0     O75798  -0.030   0.859   6.504  0.3272  0.0832 -0.1013
  550MOL0     C75799   0.021   0.923   6.626  0.3135 -0.1938  0.5516
  550MOL0     C75800  -0.027   0.846   6.751 -0.2488  0.2628 -0.7763
  550MOL0     C75801   0.037   0.704   6.750  0.5254 -0.7525  0.6781
  550MOL0     C75802  -0.007   0.623   6.867  0.8533  0.6459 -1.0402
  550MOL0     C75803   0.078   0.488   6.876 -0.3365  1.2153 -0.5289
  550MOL0     C75804   0.010   0.374   6.794  0.4765  0.0324  0.3821
  550MOL0     C75805   0.076   0.237   6.807 -0.1686 -0.2579 -0.8601
  550MOL0     C75806   0.010   0.121   6.732  0.3163 -0.3001  0.2409
  550MOL0    Cl75807  -0.167   0.131   6.742 -0.5026  0.3680 -0.6230
  550MOL0     C75808   0.069   1.049   6.382 -0.4467  0.0063  1.0423
  550MOL0     C75809   0.100   1.093   6.256  0.7478  0.3225  1.1116
  550MOL0     O75810   0.272   1.010   5.942  0.4057  0.1509  0.5402
  550MOL0     C75811   0.115   1.321   5.853  0.0163 -0.3982  0.3319
  550MOL0     C75812   0.130   1.437   5.772  0.0149 -0.5264 -0.1108
  550MOL0     N75813   0.592   1.982   5.259  0.6318 -0.3239 -0.7954
  550MOL0     N75814   0.662   2.089   5.294 -0.5807  0.4503  0.3250
  550MOL0     C75815   0.695   1.813   6.222  0.0249 -0.6544 -1.1022
  550MOL0     C75816   0.732   1.681   6.218  0.2154 -0.1218  1.4030
  550MOL0     C75817   0.886   1.281   6.308  0.9598 -0.1480  0.2805
  550MOL0     C75818   0.821   1.157   6.353 -0.0607  0.6785  0.5492
  550MOL0     C75819   0.841   1.037   6.287  0.6873 -0.1021  1.3373
  550MOL0     C75820   0.928   1.024   6.181  0.7664  0.2206 -0.4274
  550MOL0     O75821   0.943   0.914   6.100 -0.0931 -0.1396 -0.6332
  550MOL0     C75822   0.893   0.785   6.153  0.0872  0.4597  0.8432
  550MOL0     C75823   1.002   0.682   6.112  0.9547 -0.3401 -0.2770
  550MOL0     C75824   1.138   0.696   6.178  0.2645 -0.0316 -0.4173
  550MOL0     C75825   1.145   0.710   6.328 -1.0098 -0.5314 -0.7760
  550MOL0     C75826   1.108   0.585   6.400 -0.2649  0.5457  0.3257
  550MOL0     C75827   1.051   0.495   6.459 -0.4114 -1.1895 -0.4183
  550MOL0     C75828   0.995   1.139   6.147 -0.2737  1.3952 -0.0950
  550MOL0     C75829   0.973   1.259   6.207 -0.9054  0.0492  0.5017
  550MOL0     C75830   1.051   1.371   6.142 -0.1567  0.7851  0.5656
  550MOL0     H75831   0.866   1.647   6.524  1.2493 -0.9702 -0.0903
  550MOL0     H75832   0.796   1.899   6.524  2.1814  1.5455 -0.9225
  550MOL0     H75833   0.903   2.048   6.310 -0.3525 -2.0394 -0.9878
  550MOL0     H75834   0.789   2.202   6.336 -4.1065 -1.1471  1.1582
  550MOL0     H75835   0.934   2.154   6.117 -0.4662  1.0413 -1.3680
  550MOL0     H75836   0.823   2.029   6.087  1.2384  0.7399 -1.7848
  550MOL0     H75837   0.624   2.172   6.071 -0.6712  0.7566  1.0238
  550MOL0     H75838   0.721   2.319   6.113  2.1001  0.1792  0.7111
  550MOL0     H75839   0.866   2.265   5.921 -0.7960  1.7947  0.5530
  550MOL0     H75840   0.763   2.120   5.876 -0.9277  2.0233 -2.7538
  550MOL0     H75841   0.717   2.424   5.905 -1.7124 -0.6512  0.0983
  550MOL0     H75842   0.581   2.324   5.870 -0.6422  0.9881  0.0198
  550MOL0     H75843   0.650   2.446   5.681 -0.1029 -0.3374 -3.2385
  550MOL0     H75844   0.807   2.368   5.667 -0.6801 -0.7747 -2.0598
  550MOL0     H75845   0.551   2.215   5.640  0.5943  0.8573 -0.8613
  550MOL0     H75846   0.727   2.152   5.625  0.7768 -0.1189 -0.3958
  550MOL0     H75847   0.574   2.352   5.460 -2.9351 -1.9767 -4.6009
  550MOL0     H75848   0.739   2.313   5.430  0.9552 -1.3190  1.3219
  550MOL0     H75849   0.417   2.089   5.503 -1.3485 -0.5171 -0.9632
  550MOL0     H75850   0.383   1.811   5.260  1.3872 -1.2170  0.6079
  550MOL0     H75851   0.267   1.931   5.309  1.2762 -0.8985 -4.3072
  550MOL0     H75852   0.411   1.710   5.443 -0.4685 -1.0647  1.0565
  550MOL0     H75853   0.364   1.862   5.542 -1.7024 -1.0163  0.2936
  550MOL0     H75854   0.149   1.851   5.488  1.1817  0.6244 -0.4030
  550MOL0     H75855   0.177   1.705   5.387  2.0652 -0.5952  0.3666
  550MOL0     H75856   0.199   1.716   5.692  2.9516  2.6751 -1.0566
  550MOL0     H75857   0.073   1.645   5.600  0.1379 -0.0793  2.5554
  550MOL0     H75858   0.331   1.305   5.535  1.7522 -4.1482  0.5564
  550MOL0     H75859   0.453   1.106   5.663  0.9436 -2.0564  0.1041
  550MOL0     H75860   0.326   1.053   5.556 -0.8883  1.5390  0.2036
  550MOL0     H75861   0.331   0.989   5.718 -3.4655 -0.4565 -1.8052
  550MOL0     H75862  -0.019   0.863   6.048  1.4487 -2.0552  0.5535
  550MOL0     H75863  -0.075   0.757   6.281 -1.7410  0.0548 -2.2755
  550MOL0     H75864   0.130   0.928   6.618  0.2072 -0.5646 -2.6199
  550MOL0     H75865  -0.019   1.025   6.631  4.1594  1.5890 -1.0468
  550MOL0     H75866  -0.014   0.893   6.848  0.7264  0.1737 -0.8591
  550MOL0     H75867  -0.133   0.827   6.730  0.0320  0.6901 -2.8692
  550MOL0     H75868   0.145   0.722   6.753  0.5213 -0.3529 -0.7693
  550MOL0     H75869   0.025   0.654   6.653 -1.9766  0.8571  0.0558
  550MOL0     H75870  -0.116   0.631   6.870  0.8445  1.8514 -2.8399
  550MOL0     H75871   0.021   0.678   6.958 -0.2845 -0.2754 -0.0988
  550MOL0     H75872   0.175   0.504   6.829 -1.1982  1.7048 -2.1908
  550MOL0     H75873   0.079   0.448   6.978 -0.6596  1.0502 -0.5892
  550MOL0     H75874   0.017   0.404   6.689  5.5285 -0.7390  0.2552
  550MOL0     H75875  -0.093   0.362   6.829  0.5933 -4.1216 -0.2112
  550MOL0     H75876   0.070   0.218   6.914 -0.8278 -1.9344 -1.1681
  550MOL0     H75877   0.178   0.243   6.767  0.0556 -3.0743 -0.9240
  550MOL0     H75878   0.059   0.024   6.745 -2.0907 -2.2335 -3.3674
  550MOL0     H75879   0.035   0.137   6.627  0.8481 -3.1459 -0.1435
  550MOL0     H75880   0.088   1.112   6.468 -2.2354  1.0902  0.7051
  550MOL0     H75881   0.141   1.193   6.249 -0.7063  0.9475  0.9897
  550MOL0     H75882   0.057   1.343   5.942  1.3087  1.5451  0.7553
  550MOL0     H75883   0.102   1.532   5.816  1.7984 -1.7835  4.3436
  550MOL0     H75884   0.643   1.862   6.140  0.4221  1.5968 -0.0965
  550MOL0     H75885   0.724   1.624   6.126  0.1858  0.8605  0.7809
  550MOL0     H75886   0.744   1.146   6.429 -2.4332 -1.9866 -2.0019
  550MOL0     H75887   0.791   0.952   6.333 -0.7901  0.4451  0.8066
  550MOL0     H75888   0.880   0.780   6.261 -2.6027 -3.0118  0.5364
  550MOL0     H75889   0.791   0.770   6.116  0.2002  1.4249  0.0941
  550MOL0     H75890   1.017   0.701   6.005  1.5871  0.1151 -0.1141
  550MOL0     H75891   0.968   0.580   6.128  0.1924 -0.5688 -2.8814
  550MOL0     H75892   1.180   0.597   6.159 -0.6181 -0.6598  0.8215
  550MOL0     H75893   1.190   0.778   6.128 -1.5266  0.3385 -1.7941
  550MOL0     H75894   1.080   0.792   6.358 -5.5833 -3.2728 -2.2842
  550MOL0     H75895   1.247   0.735   6.360 -1.6916  0.2545  0.8828
  550MOL0     H75896   0.999   0.411   6.503 -1.2549 -0.8782 -0.7944
  550MOL0     H75897   1.051   1.127   6.055 -0.0636 -0.8149  0.2669
  550MOL0     H75898   0.994   1.430   6.070  2.9784  1.8561 -1.2553
  550MOL0     H75899   1.091   1.428   6.226 -0.2603  0.3933  0.8839
  550MOL0     H75900   1.138   1.337   6.084  0.1798 -1.4340  2.2391
  551MOL0     O75901   0.863   6.864   9.142  0.6598  0.5828 -0.0391
  551MOL0     C75902   0.895   6.760   9.189  0.0063  0.3865  0.1343
  551MOL0     O75903   0.812   6.648   9.210  0.3700 -0.0882 -0.4709
  551MOL0     C75904   0.677   6.642   9.157 -0.0062  0.7836 -0.2737
  551MOL0     C75905   0.641   6.519   9.091 -0.3126 -0.5005 -0.3013
  551MOL0     C75906   0.503   6.494   9.074  0.3365 -0.0700 -0.0899
  551MOL0     C75907   0.414   6.593   9.108  0.7245 -0.4673  0.7724
  551MOL0     O75908   0.280   6.568   9.087  0.5473  0.3957  0.4500
  551MOL0     C75909   0.199   6.679   9.019  0.0863  0.5854 -0.5742
  551MOL0     C75910   0.064   6.600   8.981  0.2754  0.4194 -0.1531
  551MOL0     C75911   0.082   6.508   8.867  0.2809  1.1100  0.2526
  551MOL0     C75912  -0.060   6.460   8.806 -0.4514  0.5098  0.4492
  551MOL0     C75913  -0.046   6.402   8.664  0.0406 -0.0146 -0.6365
  551MOL0     C75914  -0.170   6.365   8.588 -0.0994  0.2185 -0.9386
  551MOL0     C75915  -0.239   6.250   8.662 -0.1314 -0.8448  1.3176
  551MOL0     C75916  -0.166   6.118   8.640 -0.0381 -0.2732  0.2158
  551MOL0     N75917  -0.242   5.998   8.666  0.5919  0.1166  0.6203
  551MOL0     C75918  -0.256   5.947   8.788  0.2204 -0.3578 -0.8053
  551MOL0     C75919  -0.321   5.831   8.773  0.3753  1.2065 -0.5956
  551MOL0     C75920  -0.350   5.716   8.877 -0.7799  0.5100 -0.0463
  551MOL0     C75921  -0.376   5.764   9.018 -1.0747  0.1530 -0.1870
  551MOL0     C75922  -0.392   5.668   9.129  0.4573  0.0154 -0.5782
  551MOL0     C75923  -0.285   5.559   9.163  0.6514 -0.4414 -0.4129
  551MOL0     O75924  -0.163   5.633   9.180 -0.3518 -0.6530 -1.0549
  551MOL0     C75925  -0.059   5.600   9.262 -0.6262 -0.0652 -0.3463
  551MOL0     C75926   0.036   5.695   9.307 -0.1280 -0.0650  0.2326
  551MOL0     C75927   0.157   5.651   9.366 -0.0885 -0.1649 -0.0612
  551MOL0     C75928   0.259   5.754   9.409 -0.3008  1.0446  0.1248
  551MOL0     C75929   0.165   5.517   9.406 -0.6496  0.1916 -0.5978
  551MOL0     C75930   0.273   5.464   9.486 -0.9651  0.0688 -0.2539
  551MOL0     O75931   0.254   5.336   9.540 -0.9038  0.0699  0.4107
  551MOL0     C75932   0.368   5.280   9.616  0.1751 -0.2099 -1.1464
  551MOL0     C75933   0.403   5.149   9.584  0.0004 -0.2518  0.6489
  551MOL0     C75934   0.501   5.080   9.657  0.1754 -0.4025  0.0213
  551MOL0     C75935   0.554   5.141   9.780 -0.5645  0.0889  0.4217
  551MOL0     O75936   0.634   5.063   9.857 -0.6890 -0.4226 -0.5800
  551MOL0     C75937   0.691   5.117   9.978 -0.4165  0.4595  0.2170
  551MOL0     C75938   0.789   5.010  10.048 -0.0473 -1.7427 -0.6252
  551MOL0     C75939   0.696   4.909  10.115  0.2343 -0.5657 -0.6917
  551MOL0     C75940   0.776   4.790  10.167  0.6019 -0.8992  0.5568
  551MOL0     C75941   0.806   4.815  10.315 -0.4932 -0.0877 -0.5575
  551MOL0     C75942   0.899   4.704  10.372 -0.0616  0.3575 -0.4942
  551MOL0     C75943   0.872   4.671  10.519 -0.5330  0.6721 -0.1297
  551MOL0     C75944   0.988   4.653  10.601 -0.7020 -0.2937  0.3159
  551MOL0    Cl75945   0.942   4.643  10.778  0.2781  0.0131  0.7108
  551MOL0     C75946   0.517   5.281   9.809 -0.7761 -0.3236  0.4951
  551MOL0     C75947   0.437   5.354   9.720 -0.5603 -0.6811  0.4355
  551MOL0     O75948   0.379   5.526   9.498 -0.4258  0.4625 -0.1323
  551MOL0     C75949   0.069   5.421   9.366  0.5459  0.0536 -0.1789
  551MOL0     C75950  -0.044   5.464   9.296  0.2034  0.2624 -0.9199
  551MOL0     N75951  -0.364   5.816   8.644 -0.2469 -0.4799 -0.5090
  551MOL0     N75952  -0.321   5.922   8.581 -0.7923  0.0639 -0.0005
  551MOL0     C75953   0.448   6.713   9.183  0.7942 -0.5898  0.6731
  551MOL0     C75954   0.591   6.726   9.213  0.0144 -0.0502 -0.4926
  551MOL0     C75955   1.032   6.729   9.207 -1.2024  0.4384  1.0476
  551MOL0     C75956   1.065   6.590   9.178  0.8161 -0.2763  0.4735
  551MOL0     C75957   1.193   6.552   9.203  0.0677 -0.1474 -0.1383
  551MOL0     C75958   1.294   6.642   9.246  0.3872 -0.2477 -0.3226
  551MOL0     O75959   1.429   6.608   9.269  0.1847 -0.3237  0.3383
  551MOL0     C75960   1.453   6.523   9.382  0.0741  0.9922 -0.4973
  551MOL0     C75961   1.428   6.601   9.509 -0.3870  0.8138 -0.0437
  551MOL0     C75962   1.528   6.713   9.519 -0.1841  0.5417 -0.6980
  551MOL0     C75963   1.467   6.840   9.583 -0.7205  0.3071 -0.0850
  551MOL0     C75964   1.576   6.940   9.619  1.2191  0.7359  0.9551
  551MOL0     C75965   1.657   7.028   9.648 -0.0576 -0.1094 -0.3033
  551MOL0     C75966   1.251   6.776   9.274  0.3306 -0.7935 -0.5533
  551MOL0     C75967   1.126   6.819   9.248 -0.6138 -0.0677 -0.1917
  551MOL0     C75968   1.095   6.964   9.283 -0.1032  1.2774  0.4552
  551MOL0     H75969   0.722   6.453   9.062 -0.0172  0.4572 -1.7525
  551MOL0     H75970   0.466   6.397   9.041 -2.8559  0.8055  0.5131
  551MOL0     H75971   0.246   6.713   8.926 -0.2607  1.9825 -0.2556
  551MOL0     H75972   0.169   6.755   9.091 -1.9621  0.4680 -1.2599
  551MOL0     H75973   0.016   6.540   9.058 -0.1516  0.7975 -0.1217
  551MOL0     H75974  -0.005   6.681   8.954 -0.9721 -0.9423 -1.2401
  551MOL0     H75975   0.141   6.553   8.787  1.2513 -1.0561 -0.3285
  551MOL0     H75976   0.127   6.413   8.900 -0.8572  1.0197  1.6300
  551MOL0     H75977  -0.098   6.382   8.872 -2.9219  2.5044  1.5494
  551MOL0     H75978  -0.130   6.544   8.813 -1.9752 -0.8159  1.7292
  551MOL0     H75979   0.029   6.323   8.650  1.7826  1.7209 -1.6606
  551MOL0     H75980  -0.006   6.484   8.603 -1.4780  0.9339 -0.3980
  551MOL0     H75981  -0.237   6.451   8.595  0.2659  0.4234  0.2130
  551MOL0     H75982  -0.135   6.349   8.486  0.1231 -0.5710 -0.7417
  551MOL0     H75983  -0.337   6.236   8.614 -0.2537 -2.5290  1.9879
  551MOL0     H75984  -0.258   6.268   8.768 -0.3580 -1.4825  1.3905
  551MOL0     H75985  -0.135   6.114   8.536  2.7517  2.8213  0.7815
  551MOL0     H75986  -0.079   6.127   8.706  0.7290 -0.2750 -0.7796
  551MOL0     H75987  -0.204   5.977   8.878 -0.3486 -2.4494  0.2933
  551MOL0     H75988  -0.264   5.648   8.882  0.3407  1.6501 -2.3854
  551MOL0     H75989  -0.441   5.659   8.853 -0.1926 -0.6097  0.3155
  551MOL0     H75990  -0.292   5.824   9.054 -1.2013 -1.3793  2.9521
  551MOL0     H75991  -0.465   5.827   9.014 -1.9228 -1.0440 -0.7392
  551MOL0     H75992  -0.403   5.726   9.221  2.1236  0.2454 -0.4932
  551MOL0     H75993  -0.487   5.622   9.102  0.3119  2.2751 -4.7801
  551MOL0     H75994  -0.303   5.492   9.247  1.8198 -2.4458 -1.6773
  551MOL0     H75995  -0.289   5.502   9.069 -2.0533  1.0616 -1.3303
  551MOL0     H75996   0.024   5.799   9.280 -2.1582 -0.1602  0.5470
  551MOL0     H75997   0.348   5.747   9.346 -1.3741 -0.9461 -1.2845
  551MOL0     H75998   0.296   5.757   9.512 -0.3101  2.3799  0.1083
  551MOL0     H75999   0.215   5.853   9.392  0.4135  1.3874  0.2186
  551MOL0     H76000   0.357   5.096   9.501  2.3991  0.6453 -1.3749
  551MOL0     H76001   0.536   4.979   9.637 -0.5408 -1.2282  2.6010
  551MOL0     H76002   0.747   5.210   9.966 -0.0934  0.0347 -1.9493
  551MOL0     H76003   0.603   5.139  10.039 -2.1487 -0.5468 -1.7641
  551MOL0     H76004   0.854   4.957   9.977  0.1433 -0.5442 -1.3909
  551MOL0     H76005   0.844   5.064  10.126  0.1815  0.6274 -2.3127
  551MOL0     H76006   0.644   4.854  10.036 -1.2282 -0.1922 -0.0179
  551MOL0     H76007   0.622   4.942  10.188  2.5397 -0.1575  1.6227
  551MOL0     H76008   0.863   4.771  10.103 -0.7793  0.7172 -1.9565
  551MOL0     H76009   0.715   4.701  10.152  1.2883 -1.2054 -0.6372
  551MOL0     H76010   0.844   4.915  10.339  1.1493 -0.5738 -0.9554
  551MOL0     H76011   0.711   4.812  10.368  1.1283  1.1482  2.6475
  551MOL0     H76012   1.003   4.725  10.347  1.0107 -3.6610 -0.1363
  551MOL0     H76013   0.871   4.616  10.314  0.7749 -0.4383  0.2825
  551MOL0     H76014   0.812   4.580  10.529 -0.4698  0.7670  1.2759
  551MOL0     H76015   0.812   4.750  10.565  0.3825  0.1146  2.1390
  551MOL0     H76016   1.070   4.720  10.574 -0.0647 -0.9216  0.6661
  551MOL0     H76017   1.034   4.557  10.577 -1.4168 -0.2975 -1.1046
  551MOL0     H76018   0.543   5.327   9.904  0.0185 -0.1749  0.2135
  551MOL0     H76019   0.399   5.455   9.728  3.2887  1.5143 -4.0279
  551MOL0     H76020   0.085   5.315   9.380 -1.0307 -0.0568  1.0269
  551MOL0     H76021  -0.120   5.389   9.279  1.1173 -1.0531  0.4711
  551MOL0     H76022   0.372   6.783   9.216 -0.1701 -0.9833 -0.6619
  551MOL0     H76023   0.626   6.816   9.261 -1.3747 -0.1179  0.7058
  551MOL0     H76024   1.005   6.510   9.136  1.3444  1.1923 -3.6105
  551MOL0     H76025   1.211   6.448   9.177  0.4429 -0.9225  2.8356
  551MOL0     H76026   1.397   6.431   9.367 -2.3346  1.9432  1.7868
  551MOL0     H76027   1.561   6.507   9.391 -0.0894  0.5639  0.9285
  551MOL0     H76028   1.440   6.525   9.588  1.1496  1.7012  0.6138
  551MOL0     H76029   1.325   6.637   9.502 -1.1131 -1.4131 -2.8355
  551MOL0     H76030   1.615   6.685   9.579 -0.2298  1.6091 -0.1107
  551MOL0     H76031   1.573   6.739   9.423  1.6557 -0.1566 -0.0791
  551MOL0     H76032   1.407   6.824   9.673 -1.0011 -2.6918 -0.6777
  551MOL0     H76033   1.399   6.883   9.509 -2.7627 -0.6926  1.0918
  551MOL0     H76034   1.727   7.106   9.671 -0.9720  0.1374  1.8174
  551MOL0     H76035   1.326   6.845   9.312 -0.7532  0.7065 -1.0441
  551MOL0     H76036   1.001   6.969   9.340  1.4726  0.6869  3.3136
  551MOL0     H76037   1.171   7.012   9.345  0.4691  2.2149 -0.9547
  551MOL0     H76038   1.089   7.020   9.190  1.7300  0.7663 -0.0102
  552MOL0     O76039   7.392   3.691   7.561  0.1886  0.0334  0.7236
  552MOL0     C76040   7.375   3.574   7.527 -0.3071 -1.7151  0.4536
  552MOL0     O76041   7.354   3.531   7.401 -0.5824 -0.5909  0.0558
  552MOL0     C76042   7.372   3.612   7.291 -0.5523 -0.4469 -0.3670
  552MOL0     C76043   7.306   3.740   7.276 -0.5958 -0.1494 -0.3144
  552MOL0     C76044   7.326   3.814   7.158  0.9536 -1.5308  0.2727
  552MOL0     C76045   7.401   3.763   7.055 -0.5150  1.1162 -0.0386
  552MOL0     O76046   7.424   3.837   6.936  0.2460 -0.9844 -0.7656
  552MOL0     C76047   7.501   3.962   6.947  0.8699 -0.1264  0.0637
  552MOL0     C76048   7.579   3.971   6.815  0.0735 -0.0771  0.2188
  552MOL0     C76049   7.484   3.979   6.693  0.3635 -0.6828 -0.4780
  552MOL0     C76050   7.558   3.988   6.557  0.0227  0.5310  0.2237
  552MOL0     C76051   7.464   4.038   6.443 -0.5799 -0.9010  0.2274
  552MOL0     C76052   7.454   4.193   6.455 -0.6510 -1.1260 -0.3548
  552MOL0     C76053   7.515   4.279   6.352  1.4216  0.2481  0.2796
  552MOL0     C76054   7.663   4.249   6.333 -0.4304  0.1373 -0.2413
  552MOL0     N76055   7.724   4.330   6.223 -0.7513 -0.5708  0.5639
  552MOL0     C76056   7.811   4.432   6.243 -0.3367  0.3627 -1.2669
  552MOL0     C76057   7.854   4.471   6.121  0.6326  0.7761  0.7482
  552MOL0     C76058   7.935   4.587   6.064  0.5711 -0.6663  0.7969
  552MOL0     C76059   8.083   4.603   6.120 -0.2526  0.0559  0.6312
  552MOL0     C76060   8.098   4.641   6.268  0.4950  0.7635  0.4972
  552MOL0     C76061   8.247   4.664   6.311 -0.0565 -0.3176 -0.0517
  552MOL0     O76062   8.265   4.671   6.450 -0.2296 -0.0332  0.6476
  552MOL0     C76063   8.274   4.558   6.526  0.1723 -0.2899  0.3300
  552MOL0     C76064   8.268   4.429   6.470 -0.6803  0.5164 -0.0568
  552MOL0     C76065   8.260   4.316   6.549 -0.9890  0.4225  0.0072
  552MOL0     C76066   8.262   4.198   6.463  0.0688 -0.5002 -0.3592
  552MOL0     C76067   8.285   4.321   6.690 -0.6103  0.5037 -0.6799
  552MOL0     C76068   8.308   4.209   6.782 -0.0668  0.9517 -0.3565
  552MOL0     O76069   8.248   4.204   6.899 -0.5520 -0.1820  0.1454
  552MOL0     C76070   8.255   4.081   6.953  0.1229  0.4679  0.5514
  552MOL0     C76071   8.362   4.048   7.041 -0.8255 -0.1253  0.1493
  552MOL0     C76072   8.373   3.920   7.101  0.7570 -0.5353 -0.0821
  552MOL0     C76073   8.258   3.834   7.078 -0.4239  0.4650  0.1904
  552MOL0     O76074   8.250   3.713   7.144  0.0542 -0.5020  0.1799
  552MOL0     C76075   8.131   3.700   7.222 -0.9185 -0.0842  0.2258
  552MOL0     C76076   8.167   3.642   7.361  1.4427  0.3575  0.3422
  552MOL0     C76077   8.054   3.561   7.431  0.4706  0.8199  0.4813
  552MOL0     C76078   7.952   3.636   7.510  1.5550  0.2054 -0.1514
  552MOL0     C76079   7.871   3.745   7.449  0.6106 -0.3953 -0.3023
  552MOL0     C76080   7.783   3.719   7.330  0.1267 -1.1123 -0.6232
  552MOL0     C76081   7.699   3.851   7.293 -0.3480  0.6074  0.3471
  552MOL0     C76082   7.781   3.968   7.258  0.5292  0.7125 -0.3979
  552MOL0    Cl76083   7.854   3.940   7.097  0.2171  0.2367 -0.2218
  552MOL0     C76084   8.149   3.869   6.994 -0.1332 -0.1607  0.4660
  552MOL0     C76085   8.147   3.995   6.936  0.2934 -0.9405 -0.4359
  552MOL0     O76086   8.380   4.122   6.729  0.3061 -0.9167  0.0766
  552MOL0     C76087   8.302   4.444   6.750  0.1183 -0.9067  0.3827
  552MOL0     C76088   8.284   4.563   6.667 -0.5168  0.3906  0.4565
  552MOL0     N76089   7.799   4.378   6.029  0.0235  0.6620  0.7947
  552MOL0     N76090   7.730   4.291   6.095  0.0811  0.1938 -0.1322
  552MOL0     C76091   7.456   3.631   7.072 -0.4029 -0.4312  0.7780
  552MOL0     C76092   7.441   3.557   7.186 -0.1278  0.6027 -0.3864
  552MOL0     C76093   7.366   3.472   7.632 -0.2966 -0.0734 -0.6386
  552MOL0     C76094   7.266   3.378   7.618 -0.4177  0.5927  0.8616
  552MOL0     C76095   7.224   3.298   7.721 -0.4756  0.5621 -0.6188
  552MOL0     C76096   7.287   3.297   7.847  0.5195  1.3793 -0.5874
  552MOL0     O76097   7.237   3.219   7.952  0.4227 -0.8603 -0.1575
  552MOL0     C76098   7.186   3.084   7.929  0.7553 -0.1378 -0.2752
  552MOL0     C76099   7.138   3.022   8.067  0.4368 -0.3015  0.1278
  552MOL0     C76100   7.088   2.882   8.051  1.4139  0.2745 -0.7122
  552MOL0     C76101   7.089   2.798   8.180  0.0841  0.3001 -0.3647
  552MOL0     C76102   7.011   2.855   8.288  0.1698 -1.3020  0.1132
  552MOL0     C76103   6.912   2.890   8.350 -0.0839 -0.2117 -0.0065
  552MOL0     C76104   7.391   3.389   7.856 -0.0140  0.4301  0.7982
  552MOL0     C76105   7.434   3.481   7.757 -0.4172  0.6288 -0.0227
  552MOL0     C76106   7.546   3.582   7.781 -0.4567  0.3588  0.6869
  552MOL0     H76107   7.236   3.769   7.353  0.8334 -0.1833  1.0417
  552MOL0     H76108   7.269   3.906   7.155  1.3028 -1.3411 -0.7322
  552MOL0     H76109   7.578   3.949   7.024 -1.0097 -0.6676  1.9316
  552MOL0     H76110   7.448   4.055   6.966  1.3171  0.0417  0.5180
  552MOL0     H76111   7.642   4.059   6.831 -1.1790  1.4740 -2.6022
  552MOL0     H76112   7.646   3.885   6.810  1.5905  1.1279 -1.3505
  552MOL0     H76113   7.421   3.890   6.692 -1.9488  0.8687  0.1656
  552MOL0     H76114   7.410   4.060   6.696 -0.5605 -1.5504  1.3070
  552MOL0     H76115   7.654   4.040   6.556  1.3382 -1.7474 -1.0643
  552MOL0     H76116   7.590   3.888   6.525  1.0661  1.5076 -1.9521
  552MOL0     H76117   7.367   3.988   6.445 -1.8046  1.3417  0.2444
  552MOL0     H76118   7.499   4.004   6.346  1.4764  4.8568 -1.4635
  552MOL0     H76119   7.349   4.219   6.469 -1.1041 -3.5396  1.5770
  552MOL0     H76120   7.507   4.237   6.540 -0.6451 -0.4866 -0.6814
  552MOL0     H76121   7.496   4.384   6.378  0.4509  0.4667 -1.1625
  552MOL0     H76122   7.467   4.261   6.255 -1.3733  0.1613  1.5812
  552MOL0     H76123   7.719   4.264   6.425 -0.7515  2.6561 -0.3713
  552MOL0     H76124   7.681   4.143   6.314  1.0272  0.4452 -0.6310
  552MOL0     H76125   7.834   4.475   6.339 -1.7029 -2.4276  0.4431
  552MOL0     H76126   7.881   4.682   6.068 -0.5643 -1.3094  1.2667
  552MOL0     H76127   7.951   4.560   5.959  0.3826 -3.6649  1.4372
  552MOL0     H76128   8.143   4.515   6.093  1.1944  0.9003  1.0064
  552MOL0     H76129   8.123   4.692   6.071 -3.4351 -0.5557 -3.8007
  552MOL0     H76130   8.041   4.733   6.283  0.8809  0.8353  1.6211
  552MOL0     H76131   8.051   4.564   6.330  2.8569 -0.1678  1.2242
  552MOL0     H76132   8.313   4.595   6.258 -0.1635  3.0672 -5.3881
  552MOL0     H76133   8.284   4.757   6.265  0.3051 -1.2006 -1.6409
  552MOL0     H76134   8.256   4.419   6.363  0.7210 -1.6191 -0.0772
  552MOL0     H76135   8.194   4.212   6.379 -1.4376  0.1400  0.9265
  552MOL0     H76136   8.222   4.116   6.523 -0.1546  0.1161  0.3407
  552MOL0     H76137   8.365   4.187   6.428  0.6655  0.1895  1.0811
  552MOL0     H76138   8.447   4.114   7.052 -1.5198  0.3538  3.8917
  552MOL0     H76139   8.466   3.895   7.153 -0.0402 -1.3817  0.9866
  552MOL0     H76140   8.064   3.786   7.218 -1.0529 -0.2209 -2.4705
  552MOL0     H76141   8.084   3.612   7.175  0.1435 -1.6972  2.0330
  552MOL0     H76142   8.258   3.584   7.346  1.9009  1.3657 -1.0468
  552MOL0     H76143   8.192   3.726   7.427  2.8106 -1.1261  1.8291
  552MOL0     H76144   8.085   3.495   7.512 -3.1172  0.9099  2.1244
  552MOL0     H76145   8.009   3.504   7.349  4.8963  2.8710 -3.9537
  552MOL0     H76146   8.004   3.681   7.595  0.3004  1.0999  0.1595
  552MOL0     H76147   7.872   3.566   7.535 -2.4505  3.2149 -3.2248
  552MOL0     H76148   7.807   3.784   7.528  1.6134 -1.0436  0.8607
  552MOL0     H76149   7.940   3.827   7.426 -0.6444  0.1784 -2.3142
  552MOL0     H76150   7.720   3.640   7.373  0.6951 -1.2473 -0.0245
  552MOL0     H76151   7.844   3.678   7.248  0.6495 -1.2949 -0.1537
  552MOL0     H76152   7.642   3.890   7.378  1.8448  0.3634  2.0207
  552MOL0     H76153   7.631   3.829   7.210  0.4852 -3.3416  0.5351
  552MOL0     H76154   7.845   3.986   7.345 -0.5895  0.9119  0.4133
  552MOL0     H76155   7.710   4.050   7.244 -0.6558  0.1549  1.7917
  552MOL0     H76156   8.075   3.792   6.974 -2.8117  1.8700  1.8390
  552MOL0     H76157   8.059   4.028   6.880 -0.6180 -1.9062  0.3796
  552MOL0     H76158   8.335   4.456   6.853 -1.8748 -0.2613  0.9924
  552MOL0     H76159   8.302   4.657   6.719  4.0905 -1.1991  2.1678
  552MOL0     H76160   7.509   3.582   6.991  0.0140  0.2567  0.6271
  552MOL0     H76161   7.464   3.451   7.192 -0.3493  0.6264  1.1124
  552MOL0     H76162   7.212   3.368   7.525 -0.1707  0.1362  0.7646
  552MOL0     H76163   7.139   3.233   7.702  0.6185 -0.7307 -1.2998
  552MOL0     H76164   7.103   3.074   7.859  0.8476  0.1494 -0.4258
  552MOL0     H76165   7.265   3.020   7.890 -0.3882 -2.0832  0.4621
  552MOL0     H76166   7.068   3.095   8.111  0.7997  0.4782 -0.5613
  552MOL0     H76167   7.225   3.033   8.133  0.8390  2.9763 -0.7820
  552MOL0     H76168   6.986   2.876   8.013  0.7224  1.6973  0.8157
  552MOL0     H76169   7.156   2.824   7.987  0.2293 -1.4395 -0.4807
  552MOL0     H76170   7.196   2.792   8.204  0.3843  4.1372 -0.1205
  552MOL0     H76171   7.037   2.703   8.162  0.7139 -0.2458  0.5776
  552MOL0     H76172   6.819   2.909   8.400 -1.7407 -3.3989 -1.5743
  552MOL0     H76173   7.433   3.393   7.956 -1.7311 -3.2425  1.8332
  552MOL0     H76174   7.506   3.683   7.787  2.8261  2.2473 -3.6749
  552MOL0     H76175   7.594   3.564   7.878  2.4310 -0.3413 -0.7679
  552MOL0     H76176   7.635   3.578   7.718 -1.0132  1.4741 -0.2002
  553MOL0     O76177  10.528   0.603   1.569  0.5003 -0.0405 -0.0846
  553MOL0     C76178  10.453   0.628   1.663 -1.0481 -0.3672  0.1180
  553MOL0     O76179  10.406   0.756   1.693  0.1468  0.5073 -0.3459
  553MOL0     C76180  10.418   0.858   1.595 -0.4369  0.7877  0.1899
  553MOL0     C76181  10.516   0.954   1.615 -0.4372 -0.5967 -0.1899
  553MOL0     C76182  10.529   1.050   1.513  0.0814 -0.4312  0.5869
  553MOL0     C76183  10.446   1.059   1.407 -0.8337  0.2289 -0.4149
  553MOL0     O76184  10.472   1.153   1.314  0.1060  0.3661 -0.1212
  553MOL0     C76185  10.365   1.208   1.239  0.4977  0.4135  0.0623
  553MOL0     C76186  10.414   1.336   1.166 -1.2320  0.6513  0.4167
  553MOL0     C76187  10.519   1.304   1.057 -0.2384 -0.3091 -0.5853
  553MOL0     C76188  10.570   1.436   0.997  0.3349 -0.2134 -0.9706
  553MOL0     C76189  10.658   1.399   0.886 -0.1618 -0.5287  0.8508
  553MOL0     C76190  10.790   1.340   0.935  0.8181 -0.5908  0.9287
  553MOL0     C76191  10.911   1.403   0.855 -0.1484 -0.2198  0.2004
  553MOL0     C76192  11.036   1.352   0.923 -0.3832  0.2039 -0.5654
  553MOL0     N76193  11.158   1.439   0.918  0.0544  0.5209  0.1977
  553MOL0     C76194  11.252   1.410   0.823  0.1828 -0.5648 -0.0747
  553MOL0     C76195  11.348   1.501   0.850 -0.2366  0.2665 -0.2104
  553MOL0     C76196  11.484   1.500   0.786 -0.3812 -0.3750  0.4808
  553MOL0     C76197  11.578   1.582   0.871  0.0230  0.0523 -0.8818
  553MOL0     C76198  11.644   1.492   0.976 -0.2072  0.1957 -0.0294
  553MOL0     C76199  11.752   1.569   1.044  0.0092 -0.2274 -0.9250
  553MOL0     O76200  11.705   1.687   1.115  0.0452  0.6060 -0.3537
  553MOL0     C76201  11.709   1.696   1.250 -0.8390 -0.8890  0.7741
  553MOL0     C76202  11.665   1.824   1.300 -0.2242  0.1991 -0.0839
  553MOL0     C76203  11.682   1.848   1.435 -0.0162  1.2048 -0.5068
  553MOL0     C76204  11.618   1.977   1.486 -0.2193  0.1126  0.6694
  553MOL0     C76205  11.734   1.755   1.525  0.2364  1.2153 -0.5478
  553MOL0     C76206  11.753   1.769   1.674  0.1491 -0.1129 -0.2037
  553MOL0     O76207  11.756   1.652   1.739  0.4598 -0.3788 -0.0806
  553MOL0     C76208  11.798   1.658   1.872 -0.2579  0.6412 -0.6953
  553MOL0     C76209  11.914   1.725   1.920  0.5579 -0.8055 -0.4886
  553MOL0     C76210  11.961   1.714   2.056 -0.7334  0.1088  0.4730
  553MOL0     C76211  11.893   1.639   2.153 -0.0642  0.3691  0.1241
  553MOL0     O76212  11.919   1.638   2.285  0.7264  0.1381 -0.3798
  553MOL0     C76213  12.055   1.660   2.329  0.0751 -0.0335  1.1766
  553MOL0     C76214  12.068   1.616   2.472 -0.3909 -0.0667 -0.4088
  553MOL0     C76215  12.199   1.671   2.519  0.1682 -0.8358 -0.4142
  553MOL0     C76216  12.202   1.824   2.530  0.1641  0.4766  0.2251
  553MOL0     C76217  12.322   1.885   2.596 -1.0989 -0.5586  1.0309
  553MOL0     C76218  12.311   2.047   2.600  0.5346  0.8028  0.1397
  553MOL0     C76219  12.441   2.098   2.644  0.5358 -0.3040 -1.3403
  553MOL0     C76220  12.438   2.137   2.795  0.1493  0.0093 -0.4946
  553MOL0    Cl76221  12.598   2.181   2.876  0.0982  0.1714 -0.2922
  553MOL0     C76222  11.784   1.556   2.096  0.4180 -0.1434 -0.4588
  553MOL0     C76223  11.747   1.564   1.956  0.6534  0.3470 -0.7828
  553MOL0     O76224  11.758   1.880   1.733 -0.0161 -0.0180  0.3223
  553MOL0     C76225  11.770   1.629   1.474  0.8672  0.3885  0.8421
  553MOL0     C76226  11.756   1.599   1.336  0.4822  0.0910 -0.6396
  553MOL0     N76227  11.307   1.577   0.959  0.5951 -0.1052 -0.3873
  553MOL0     N76228  11.200   1.526   1.015  0.1341 -0.8091  0.4924
  553MOL0     C76229  10.337   0.970   1.394 -0.0303 -0.7361 -0.1693
  553MOL0     C76230  10.330   0.863   1.485  1.1520 -1.0414  0.3680
  553MOL0     C76231  10.415   0.513   1.744 -0.3456 -0.3502  0.8063
  553MOL0     C76232  10.349   0.553   1.870  0.3184 -0.3082 -0.1767
  553MOL0     C76233  10.311   0.450   1.962 -0.4415  0.8464 -0.6478
  553MOL0     C76234  10.327   0.318   1.932  0.0492  0.5008 -0.2121
  553MOL0     O76235  10.291   0.217   2.013  0.4149  0.3520 -0.1104
  553MOL0     C76236  10.310   0.229   2.156 -0.6550 -0.3466  1.0877
  553MOL0     C76237  10.178   0.228   2.231  0.4686  0.6444 -0.3691
  553MOL0     C76238  10.196   0.218   2.388 -0.2995 -0.1042 -0.1414
  553MOL0     C76239  10.076   0.294   2.454 -0.3507 -0.4106 -0.0706
  553MOL0     C76240  10.089   0.274   2.598 -0.2069 -0.3606  0.1293
  553MOL0     C76241  10.091   0.258   2.723 -0.3276  1.3216  0.9626
  553MOL0     C76242  10.388   0.284   1.813 -0.6140  0.1652 -0.6123
  553MOL0     C76243  10.435   0.373   1.722  0.5241 -0.8507  0.6410
  553MOL0     C76244  10.504   0.321   1.601 -0.0786 -0.8893  0.3615
  553MOL0     H76245  10.578   0.958   1.704 -1.4882 -0.6053  0.5619
  553MOL0     H76246  10.598   1.130   1.537 -1.6192  0.8949  1.2266
  553MOL0     H76247  10.288   1.248   1.305 -0.7407 -1.7595  0.0372
  553MOL0     H76248  10.312   1.136   1.176  1.8006  0.4062 -1.0905
  553MOL0     H76249  10.315   1.371   1.135 -3.2824 -2.9232  2.2260
  553MOL0     H76250  10.464   1.407   1.233 -0.2561  1.8988 -1.5143
  553MOL0     H76251  10.591   1.237   1.105  1.7041  2.2231  0.3021
  553MOL0     H76252  10.457   1.244   0.990 -0.2860  0.5971 -1.3797
  553MOL0     H76253  10.487   1.489   0.950 -1.2807 -2.8173 -1.2808
  553MOL0     H76254  10.620   1.490   1.077 -2.2936 -0.5713  1.0529
  553MOL0     H76255  10.677   1.491   0.831 -0.8636 -0.9762 -0.1569
  553MOL0     H76256  10.604   1.327   0.823  1.2790  0.3883 -1.5866
  553MOL0     H76257  10.795   1.352   1.043 -0.8807  0.4616  0.9253
  553MOL0     H76258  10.802   1.232   0.922 -0.6839 -0.6358 -0.4272
  553MOL0     H76259  10.908   1.512   0.864 -1.0414 -0.0960 -1.3242
  553MOL0     H76260  10.900   1.376   0.750  0.0280 -0.1844  0.1733
  553MOL0     H76261  11.017   1.331   1.028 -0.7272  0.4441 -0.5749
  553MOL0     H76262  11.054   1.253   0.881 -0.5708  0.6458 -1.7587
  553MOL0     H76263  11.257   1.322   0.760 -0.3444 -1.1675  0.7095
  553MOL0     H76264  11.466   1.556   0.695  2.1011  2.3317  1.4979
  553MOL0     H76265  11.521   1.399   0.765  1.5779  0.6137 -1.2665
  553MOL0     H76266  11.663   1.609   0.807  3.6473 -2.0134  2.6158
  553MOL0     H76267  11.540   1.670   0.923  0.8288 -0.8207  1.3054
  553MOL0     H76268  11.557   1.480   1.040  0.2288  2.6091  1.1457
  553MOL0     H76269  11.692   1.406   0.928  0.8876 -0.1820  1.6458
  553MOL0     H76270  11.804   1.498   1.110 -3.1894 -0.7986  1.2029
  553MOL0     H76271  11.826   1.605   0.972 -0.3790 -0.6388 -1.5345
  553MOL0     H76272  11.621   1.908   1.248 -2.0479 -1.8280 -2.0943
  553MOL0     H76273  11.582   2.034   1.399  2.5032 -1.1165 -1.3898
  553MOL0     H76274  11.681   2.047   1.541  1.0033 -0.6179  0.2432
  553MOL0     H76275  11.535   1.951   1.552 -1.5429 -0.0830 -0.9927
  553MOL0     H76276  11.980   1.791   1.866  0.5842  1.0181  1.6192
  553MOL0     H76277  12.042   1.779   2.088 -0.4722 -0.0569  0.1532
  553MOL0     H76278  12.124   1.602   2.268 -0.6258  0.3115  0.0205
  553MOL0     H76279  12.082   1.764   2.310  1.7885 -0.7940 -0.9811
  553MOL0     H76280  11.981   1.636   2.534 -0.3762 -4.6040  1.3789
  553MOL0     H76281  12.084   1.508   2.469 -1.2468 -0.2408  0.7780
  553MOL0     H76282  12.282   1.628   2.462 -0.4810 -2.3793 -0.2298
  553MOL0     H76283  12.229   1.635   2.618  0.9676 -0.4111 -0.4864
  553MOL0     H76284  12.109   1.845   2.583  0.1113  0.0882  0.2884
  553MOL0     H76285  12.195   1.872   2.432 -2.7577 -2.0097 -0.9390
  553MOL0     H76286  12.344   1.850   2.698  0.4371 -1.0025  0.5851
  553MOL0     H76287  12.408   1.864   2.531 -3.1807  1.0875 -2.5211
  553MOL0     H76288  12.224   2.083   2.655 -3.3556 -1.2291 -3.9865
  553MOL0     H76289  12.298   2.084   2.498 -0.2100 -0.9453 -0.4500
  553MOL0     H76290  12.472   2.188   2.590  2.0225  0.4967  0.7372
  553MOL0     H76291  12.523   2.029   2.625  1.6881  1.5619 -3.6766
  553MOL0     H76292  12.401   2.056   2.859  2.2406  0.9457  2.0999
  553MOL0     H76293  12.369   2.221   2.808 -1.2171 -1.3317  1.6318
  553MOL0     H76294  11.730   1.489   2.162 -1.3111 -0.7871 -2.4260
  553MOL0     H76295  11.656   1.509   1.933  0.5935  0.3871 -0.6443
  553MOL0     H76296  11.798   1.549   1.541  2.5747  0.1511 -0.1041
  553MOL0     H76297  11.780   1.497   1.309 -2.0030 -0.6733 -0.2417
  553MOL0     H76298  10.268   0.971   1.311 -0.9936  0.2477  0.6063
  553MOL0     H76299  10.246   0.795   1.478  0.9923 -0.7055 -1.3676
  553MOL0     H76300  10.337   0.650   1.917  2.2506  1.4700 -3.0884
  553MOL0     H76301  10.263   0.467   2.059  2.1823 -2.6947  1.5175
  553MOL0     H76302  10.368   0.146   2.195  1.0261  0.1652 -0.2102
  553MOL0     H76303  10.363   0.319   2.186 -0.8129 -0.5101  1.8745
  553MOL0     H76304  10.129   0.135   2.199  3.4517 -0.9206 -0.7298
  553MOL0     H76305  10.100   0.301   2.207 -1.0627 -0.6611  0.4087
  553MOL0     H76306  10.194   0.111   2.411 -1.9622  0.5287  3.3025
  553MOL0     H76307  10.288   0.268   2.420 -1.1972  2.6037 -1.4893
  553MOL0     H76308   9.976   0.259   2.428 -1.9496  4.5642 -1.6042
  553MOL0     H76309  10.077   0.398   2.420 -1.7599 -0.5130 -0.4771
  553MOL0     H76310  10.119   0.260   2.826  1.4664  3.4727  0.5021
  553MOL0     H76311  10.384   0.177   1.800 -0.4271 -0.1081  1.2303
  553MOL0     H76312  10.469   0.362   1.505  2.9125  0.3003 -0.3349
  553MOL0     H76313  10.611   0.337   1.617 -0.0922 -0.2785 -0.1006
  553MOL0     H76314  10.488   0.213   1.604 -0.1162 -0.8619  1.6793
  554MOL0     O76315   3.582   8.281   3.693  0.1736 -0.1941  0.5627
  554MOL0     C76316   3.551   8.406   3.686  1.1770  0.7286 -0.5133
  554MOL0     O76317   3.637   8.517   3.708  0.8086 -0.3539  0.5096
  554MOL0     C76318   3.761   8.483   3.744  0.0053 -0.6548 -0.2850
  554MOL0     C76319   3.817   8.481   3.876 -0.3962 -0.1352  0.6477
  554MOL0     C76320   3.949   8.446   3.905  0.0906  0.2406  0.2936
  554MOL0     C76321   4.028   8.414   3.799 -0.4415  0.6146 -0.4407
  554MOL0     O76322   4.163   8.391   3.819  0.4195 -0.9425  0.0078
  554MOL0     C76323   4.267   8.439   3.722  0.2497 -0.1244 -0.4531
  554MOL0     C76324   4.402   8.385   3.764  0.3596 -0.1191  0.6660
  554MOL0     C76325   4.443   8.423   3.906 -0.1061 -0.4589  0.8887
  554MOL0     C76326   4.457   8.567   3.945  0.1901  0.7246  0.0144
  554MOL0     C76327   4.429   8.592   4.101  0.2395  0.4659  0.6600
  554MOL0     C76328   4.429   8.744   4.131  0.1749 -0.7259  0.2315
  554MOL0     C76329   4.436   8.780   4.278  0.0011 -0.3007  0.2563
  554MOL0     C76330   4.371   8.931   4.296 -0.5714 -0.0084 -0.5729
  554MOL0     N76331   4.453   9.046   4.242  0.2545 -0.4768 -0.0608
  554MOL0     C76332   4.427   9.184   4.257 -0.5702  0.4576  0.0522
  554MOL0     C76333   4.549   9.241   4.212  1.1917  0.7206  0.3243
  554MOL0     C76334   4.594   9.387   4.192 -0.4093  0.3238  0.2069
  554MOL0     C76335   4.662   9.434   4.310  0.2209  0.7569 -0.6192
  554MOL0     C76336   4.802   9.378   4.331  0.3133 -0.3086  0.5852
  554MOL0     C76337   4.892   9.466   4.422 -0.1075 -0.0866 -0.6004
  554MOL0     O76338   4.865   9.438   4.556  0.0191  0.9347 -0.1134
  554MOL0     C76339   4.955   9.352   4.615  0.2700  0.1821 -0.1009
  554MOL0     C76340   4.969   9.358   4.748 -0.9489  0.0229 -0.9186
  554MOL0     C76341   5.048   9.266   4.823  0.2861 -1.0762 -0.5642
  554MOL0     C76342   5.053   9.289   4.977  0.2008 -0.1785  0.0664
  554MOL0     C76343   5.097   9.155   4.752 -0.3547 -1.2496 -0.5819
  554MOL0     C76344   5.157   9.038   4.821 -0.5390  0.5777 -1.0934
  554MOL0     O76345   5.267   8.965   4.762 -0.4343 -0.0840 -0.5443
  554MOL0     C76346   5.315   8.851   4.816  0.1580 -0.4235 -0.2725
  554MOL0     C76347   5.306   8.743   4.728  0.5146 -0.2357 -0.7131
  554MOL0     C76348   5.342   8.614   4.773  0.3111  0.4758  0.1470
  554MOL0     C76349   5.390   8.601   4.907  0.0233  0.1275  0.7658
  554MOL0     O76350   5.431   8.478   4.949 -1.2258 -0.2861 -0.6338
  554MOL0     C76351   5.554   8.416   4.887  0.0079 -0.1396 -0.0736
  554MOL0     C76352   5.627   8.332   4.986 -0.6306  0.2344 -0.2653
  554MOL0     C76353   5.722   8.233   4.912  0.2186  0.6862 -0.5445
  554MOL0     C76354   5.811   8.171   5.014 -0.1774 -0.3386  0.4799
  554MOL0     C76355   5.907   8.058   4.959  0.0698 -1.0103 -0.6922
  554MOL0     C76356   5.847   7.919   4.955 -0.8424 -0.7245  0.3967
  554MOL0     C76357   5.906   7.839   4.837 -0.6055 -0.8745 -0.3117
  554MOL0     C76358   5.850   7.695   4.825 -0.4240  0.5151 -0.8870
  554MOL0    Cl76359   5.681   7.686   4.749  0.5655  0.0778  0.2500
  554MOL0     C76360   5.394   8.708   4.995 -0.4513  0.4510 -0.2914
  554MOL0     C76361   5.363   8.829   4.944 -0.0874  0.4011  0.0406
  554MOL0     O76362   5.110   9.008   4.930  0.4419  0.1425 -0.2048
  554MOL0     C76363   5.100   9.149   4.618  0.5430 -0.8947  0.8607
  554MOL0     C76364   5.031   9.248   4.546 -0.5834  0.1780  0.0504
  554MOL0     N76365   4.635   9.147   4.181  1.1225 -0.0374  0.3323
  554MOL0     N76366   4.585   9.031   4.209 -0.2461 -0.3281 -0.1356
  554MOL0     C76367   3.976   8.415   3.667  0.0119 -0.1741 -0.3799
  554MOL0     C76368   3.844   8.447   3.639 -0.2442  0.1985  0.7436
  554MOL0     C76369   3.404   8.452   3.674  0.9163  1.0399  0.1587
  554MOL0     C76370   3.371   8.583   3.713 -0.3444  0.4953  0.2106
  554MOL0     C76371   3.237   8.610   3.759 -0.1086  1.1302 -0.4625
  554MOL0     C76372   3.138   8.508   3.762  0.4695 -1.5645  1.2164
  554MOL0     O76373   3.012   8.547   3.810 -0.3665  0.5874  0.0837
  554MOL0     C76374   2.897   8.460   3.778 -0.3313  0.0698 -1.0348
  554MOL0     C76375   2.862   8.493   3.634 -0.5806 -0.1340 -1.2193
  554MOL0     C76376   2.751   8.407   3.575 -0.4057 -0.1319 -1.1925
  554MOL0     C76377   2.786   8.313   3.457 -0.9756 -0.5034 -0.8392
  554MOL0     C76378   2.864   8.193   3.503  0.0171 -1.2712 -0.0697
  554MOL0     C76379   2.930   8.099   3.540 -0.0283  0.5903 -0.2386
  554MOL0     C76380   3.171   8.386   3.709 -0.2083 -0.6812 -0.1351
  554MOL0     C76381   3.303   8.359   3.659 -1.2033  0.0954 -0.3978
  554MOL0     C76382   3.309   8.215   3.607 -0.0577 -0.1190 -0.9446
  554MOL0     H76383   3.750   8.512   3.956 -0.7960  2.7005 -0.6419
  554MOL0     H76384   3.990   8.445   4.006  0.9547 -1.6890 -0.0367
  554MOL0     H76385   4.262   8.549   3.719  2.7525  0.0325 -0.4666
  554MOL0     H76386   4.256   8.405   3.619 -0.9376  0.7806 -0.6549
  554MOL0     H76387   4.421   8.279   3.747 -2.1570 -0.4553 -0.5297
  554MOL0     H76388   4.465   8.433   3.689 -3.5748  0.5754 -2.5132
  554MOL0     H76389   4.361   8.373   3.959 -1.2017 -1.0373 -1.2580
  554MOL0     H76390   4.529   8.359   3.930 -0.3368 -1.8764 -1.7001
  554MOL0     H76391   4.557   8.611   3.932 -0.2004  1.6431 -0.0074
  554MOL0     H76392   4.381   8.621   3.887 -2.8843 -0.6232  2.4682
  554MOL0     H76393   4.500   8.538   4.164 -0.1944  0.2889  1.0060
  554MOL0     H76394   4.330   8.547   4.112 -0.1067  0.3165 -2.2720
  554MOL0     H76395   4.512   8.796   4.082  1.0459  0.5176  2.8335
  554MOL0     H76396   4.337   8.789   4.093  1.7213  1.8589 -0.7009
  554MOL0     H76397   4.542   8.769   4.300  0.7574 -0.4976 -3.0025
  554MOL0     H76398   4.383   8.709   4.342  0.5186 -1.1873 -0.2821
  554MOL0     H76399   4.271   8.923   4.251 -0.7642 -0.2571 -0.1121
  554MOL0     H76400   4.358   8.953   4.402  2.8634 -3.3226  0.7666
  554MOL0     H76401   4.343   9.239   4.298 -1.3498 -0.2576 -0.5427
  554MOL0     H76402   4.506   9.448   4.166 -1.5824 -1.0738  0.7572
  554MOL0     H76403   4.670   9.391   4.113 -0.1711  2.6150  0.4756
  554MOL0     H76404   4.671   9.540   4.283 -2.0152  1.0230 -0.5251
  554MOL0     H76405   4.598   9.413   4.396 -1.7575 -1.5101 -2.5085
  554MOL0     H76406   4.785   9.285   4.385 -2.9499 -1.5039 -2.1748
  554MOL0     H76407   4.838   9.356   4.230 -0.0844  0.3333  0.3000
  554MOL0     H76408   4.999   9.473   4.399  0.3946 -0.9227  1.3120
  554MOL0     H76409   4.855   9.570   4.419 -2.2376 -0.7927 -0.5092
  554MOL0     H76410   4.915   9.438   4.795 -3.1907 -0.5586 -2.3341
  554MOL0     H76411   5.152   9.270   5.020 -0.3722 -2.1902  0.5980
  554MOL0     H76412   4.976   9.232   5.030 -0.2852  1.5503  1.2964
  554MOL0     H76413   5.038   9.397   4.983 -1.3330 -0.2652 -1.2730
  554MOL0     H76414   5.276   8.755   4.625  3.3697  2.2048 -1.4073
  554MOL0     H76415   5.324   8.533   4.704 -3.0022 -0.5472  1.9862
  554MOL0     H76416   5.523   8.356   4.800 -1.5684 -2.9656  2.2327
  554MOL0     H76417   5.625   8.492   4.855 -0.2591 -0.9090 -2.7411
  554MOL0     H76418   5.688   8.395   5.051  1.3220  0.3156 -2.0552
  554MOL0     H76419   5.559   8.268   5.043 -0.8523  1.0136  0.3660
  554MOL0     H76420   5.786   8.291   4.844 -0.2780  3.4183  1.1699
  554MOL0     H76421   5.656   8.162   4.862  1.6131  1.0187 -3.0569
  554MOL0     H76422   5.755   8.138   5.102  0.2416 -1.2468  0.4074
  554MOL0     H76423   5.881   8.248   5.047  0.3525 -0.9903  0.8842
  554MOL0     H76424   5.929   8.105   4.862 -0.0649  1.5280  0.4188
  554MOL0     H76425   6.001   8.049   5.014 -1.0174 -2.8052  0.9758
  554MOL0     H76426   5.738   7.932   4.945 -0.7398  0.5429  0.6709
  554MOL0     H76427   5.860   7.867   5.050 -0.2843  2.7238  2.3902
  554MOL0     H76428   6.014   7.838   4.856  0.1440 -1.3226 -3.7980
  554MOL0     H76429   5.885   7.880   4.737  0.5966 -0.5997 -0.4725
  554MOL0     H76430   5.858   7.646   4.923  1.7973 -0.0511 -1.2941
  554MOL0     H76431   5.917   7.637   4.761 -0.9379 -0.7225 -0.3517
  554MOL0     H76432   5.432   8.698   5.096 -0.3650 -0.6080 -0.4202
  554MOL0     H76433   5.388   8.916   5.004  1.0227 -1.0868  1.8469
  554MOL0     H76434   5.137   9.065   4.560  0.0642 -0.8711  0.5146
  554MOL0     H76435   5.030   9.242   4.438 -1.1568  4.7455 -0.4031
  554MOL0     H76436   4.039   8.383   3.585  2.0048  1.8980  0.2476
  554MOL0     H76437   3.805   8.438   3.538  1.6065  0.9023 -0.0780
  554MOL0     H76438   3.446   8.659   3.696  0.2342 -0.6106 -2.6106
  554MOL0     H76439   3.211   8.712   3.786 -0.8322  0.6182  0.8691
  554MOL0     H76440   2.915   8.356   3.806  2.2590  0.6484 -0.2219
  554MOL0     H76441   2.814   8.502   3.836 -0.3314 -0.5485 -0.5751
  554MOL0     H76442   2.955   8.482   3.576 -0.6118 -0.3368 -1.2329
  554MOL0     H76443   2.838   8.599   3.622  0.9937  0.1645 -1.9731
  554MOL0     H76444   2.698   8.348   3.650 -1.2599 -0.4638 -2.0274
  554MOL0     H76445   2.683   8.487   3.544  1.5108  2.1920  0.2032
  554MOL0     H76446   2.848   8.379   3.396  1.4336 -3.5077 -1.9151
  554MOL0     H76447   2.701   8.269   3.403 -1.0151 -2.3293  0.5892
  554MOL0     H76448   2.987   8.011   3.562  0.7093  1.2234  0.4719
  554MOL0     H76449   3.101   8.304   3.698 -2.0479  0.7222  0.4886
  554MOL0     H76450   3.212   8.189   3.563 -1.6928  4.5429 -0.6864
  554MOL0     H76451   3.390   8.190   3.537  1.2139 -1.9923  1.0938
  554MOL0     H76452   3.331   8.158   3.697 -3.3328  0.7208  0.5293
  555MOL0     O76453   3.629   4.434   2.374 -0.7130  0.1931 -0.0685
  555MOL0     C76454   3.600   4.550   2.364  0.1815  0.3525  0.3399
  555MOL0     O76455   3.545   4.612   2.255 -0.9856  0.4473  0.2731
  555MOL0     C76456   3.499   4.519   2.158 -0.2282  0.4483 -2.0043
  555MOL0     C76457   3.573   4.518   2.039  0.2280 -0.3287 -0.5412
  555MOL0     C76458   3.555   4.414   1.957 -0.1726  0.1040  1.0038
  555MOL0     C76459   3.463   4.307   1.971 -0.0332 -0.0392 -0.3064
  555MOL0     O76460   3.448   4.200   1.887 -0.2928  0.5879 -0.3417
  555MOL0     C76461   3.552   4.174   1.789  0.4349  0.4234  0.1245
  555MOL0     C76462   3.533   4.257   1.670  0.0092  0.4192 -0.7971
  555MOL0     C76463   3.451   4.212   1.546 -0.8768  0.6874  0.0665
  555MOL0     C76464   3.314   4.153   1.577  0.0928  0.2121 -0.5851
  555MOL0     C76465   3.233   4.100   1.465  0.4582  0.1468  0.3445
  555MOL0     C76466   3.090   4.068   1.496 -0.1179 -0.1923 -0.5090
  555MOL0     C76467   3.011   4.157   1.586  0.9850 -0.2538 -1.0328
  555MOL0     C76468   2.861   4.136   1.557  0.4818 -0.7337  0.7701
  555MOL0     N76469   2.815   3.997   1.569  0.2270 -1.0364 -0.0825
  555MOL0     C76470   2.773   3.923   1.467 -0.5097 -0.0916  0.2981
  555MOL0     C76471   2.740   3.801   1.521 -0.1715  1.3612  0.0961
  555MOL0     C76472   2.701   3.686   1.442 -0.3686 -0.6132 -0.3727
  555MOL0     C76473   2.813   3.594   1.394 -0.7507 -0.1518  0.6538
  555MOL0     C76474   2.903   3.526   1.500 -0.1428  0.2885  0.3372
  555MOL0     C76475   3.024   3.473   1.449  0.4373 -0.4600  0.4508
  555MOL0     O76476   3.016   3.378   1.340 -0.3441 -0.2203 -0.3168
  555MOL0     C76477   3.136   3.366   1.275  0.0319 -0.2137  0.5691
  555MOL0     C76478   3.145   3.399   1.139  0.3796 -0.6468  0.0633
  555MOL0     C76479   3.274   3.421   1.080  0.3122 -1.7351 -0.1043
  555MOL0     C76480   3.276   3.470   0.932 -0.4919 -0.2907  0.7645
  555MOL0     C76481   3.396   3.392   1.155  0.3836  0.2900 -0.8609
  555MOL0     C76482   3.535   3.414   1.104  0.0786  0.2152 -0.2423
  555MOL0     O76483   3.627   3.325   1.145  0.5319  0.0070 -0.0798
  555MOL0     C76484   3.737   3.378   1.200  0.2870  0.8963 -0.5313
  555MOL0     C76485   3.733   3.442   1.330 -0.1500  1.0228  0.5516
  555MOL0     C76486   3.847   3.498   1.390 -0.3108 -0.1148  0.4174
  555MOL0     C76487   3.968   3.468   1.324 -0.2344  0.3921 -0.8726
  555MOL0     O76488   4.089   3.514   1.363 -0.3043 -0.1432 -0.7275
  555MOL0     C76489   4.100   3.632   1.447 -0.2457 -0.5576 -0.7655
  555MOL0     C76490   4.241   3.690   1.438  0.5391  0.3403 -0.2584
  555MOL0     C76491   4.232   3.823   1.504 -0.2760 -0.3468 -0.0709
  555MOL0     C76492   4.364   3.869   1.557 -0.4196 -0.1489 -0.2653
  555MOL0     C76493   4.362   4.003   1.625 -0.0060 -0.1001  0.0935
  555MOL0     C76494   4.483   4.042   1.693 -0.5688 -0.8959  0.1534
  555MOL0     C76495   4.490   4.192   1.745 -0.3914  1.8936 -1.1015
  555MOL0     C76496   4.492   4.294   1.629 -0.8309 -0.0874  0.1010
  555MOL0    Cl76497   4.644   4.293   1.535  0.1070  0.0593 -0.4960
  555MOL0     C76498   3.977   3.393   1.203  0.2908  0.2095  0.8201
  555MOL0     C76499   3.857   3.348   1.142 -0.1386  0.9529  0.0239
  555MOL0     O76500   3.551   3.522   1.053  0.3630 -0.5819 -0.0898
  555MOL0     C76501   3.378   3.336   1.285 -0.6460  0.6660  0.2695
  555MOL0     C76502   3.257   3.327   1.343 -0.2387  0.9560  0.0686
  555MOL0     N76503   2.762   3.805   1.658 -0.3000  0.1823 -0.4139
  555MOL0     N76504   2.812   3.921   1.688 -0.5415 -0.8737 -1.2977
  555MOL0     C76505   3.390   4.313   2.094  0.1220  0.5277  0.5090
  555MOL0     C76506   3.402   4.418   2.181  0.3323  0.0764 -0.1152
  555MOL0     C76507   3.626   4.638   2.485  0.2576  0.3112  1.3334
  555MOL0     C76508   3.550   4.763   2.484  0.0961  0.0842 -0.5333
  555MOL0     C76509   3.575   4.847   2.592  0.1095 -0.7701 -0.2024
  555MOL0     C76510   3.661   4.816   2.700  0.3619 -0.6478  0.3849
  555MOL0     O76511   3.683   4.894   2.811 -0.2813  0.2804 -0.3308
  555MOL0     C76512   3.655   5.033   2.819 -0.5698 -0.6534 -0.5930
  555MOL0     C76513   3.702   5.098   2.953  0.3176  0.9865  0.0988
  555MOL0     C76514   3.630   5.036   3.073  0.1187 -0.7117 -0.2063
  555MOL0     C76515   3.488   5.095   3.092 -0.1253  0.5073  0.0549
  555MOL0     C76516   3.379   4.993   3.072  0.0242  0.1201  0.1488
  555MOL0     C76517   3.302   4.904   3.046 -0.1352  0.4337  0.3943
  555MOL0     C76518   3.723   4.688   2.697 -0.9464  0.6167  0.1909
  555MOL0     C76519   3.708   4.598   2.592 -0.7425  0.7871 -0.6072
  555MOL0     C76520   3.771   4.466   2.612  0.7007 -0.0776  0.1671
  555MOL0     H76521   3.649   4.594   2.023 -1.1931  1.3978  0.4547
  555MOL0     H76522   3.615   4.411   1.867 -0.1689  2.8694  0.8249
  555MOL0     H76523   3.531   4.073   1.753  2.3860 -0.7940  2.0807
  555MOL0     H76524   3.657   4.171   1.818  1.5002  3.7857 -2.6511
  555MOL0     H76525   3.494   4.358   1.688 -1.2974  0.2882 -2.5587
  555MOL0     H76526   3.630   4.282   1.626 -1.0406  3.4722 -1.6624
  555MOL0     H76527   3.436   4.302   1.486  1.4803  0.6106 -0.7464
  555MOL0     H76528   3.507   4.127   1.506  1.8750  0.9787  2.9149
  555MOL0     H76529   3.323   4.065   1.641  1.3547  0.1390 -0.8426
  555MOL0     H76530   3.253   4.206   1.651  1.8755 -2.1524  2.8921
  555MOL0     H76531   3.280   4.006   1.435 -0.5744 -0.9344  2.0014
  555MOL0     H76532   3.227   4.182   1.393  0.2724  1.7951  2.1443
  555MOL0     H76533   3.044   4.063   1.398  1.3292 -1.0505 -1.1908
  555MOL0     H76534   3.088   3.966   1.537 -0.7346 -0.7383 -1.8578
  555MOL0     H76535   3.039   4.263   1.578 -0.1541  0.0384 -1.2906
  555MOL0     H76536   3.021   4.138   1.693  0.6860 -0.6075 -1.0663
  555MOL0     H76537   2.809   4.202   1.627  1.0102 -1.5524  1.9604
  555MOL0     H76538   2.838   4.178   1.458  1.5471 -1.5899  0.1451
  555MOL0     H76539   2.743   3.954   1.368 -0.0234  1.5377  0.6333
  555MOL0     H76540   2.639   3.720   1.359 -1.0469  1.2526  0.8509
  555MOL0     H76541   2.641   3.620   1.506 -2.9420  0.6396 -1.3625
  555MOL0     H76542   2.777   3.507   1.338 -1.1452 -0.1618  0.9194
  555MOL0     H76543   2.881   3.654   1.333 -0.5112 -0.2109  0.8640
  555MOL0     H76544   2.918   3.601   1.578  1.0465 -1.0774  1.4512
  555MOL0     H76545   2.840   3.445   1.539 -1.5758  2.0037  1.7895
  555MOL0     H76546   3.088   3.561   1.439  0.6989 -0.1069  3.8692
  555MOL0     H76547   3.070   3.419   1.532  0.5723 -0.1858  0.5566
  555MOL0     H76548   3.056   3.427   1.082  1.5466  1.0939 -0.9854
  555MOL0     H76549   3.190   3.461   0.865  0.6781  2.8731 -1.4067
  555MOL0     H76550   3.365   3.434   0.881 -0.9708  1.3842 -1.3938
  555MOL0     H76551   3.284   3.580   0.932  0.6311 -0.3480 -0.8526
  555MOL0     H76552   3.635   3.443   1.377  0.2042 -0.7288  1.4159
  555MOL0     H76553   3.836   3.559   1.478 -0.5338  2.4897 -1.3011
  555MOL0     H76554   4.020   3.706   1.438  0.9509  0.8983  0.1075
  555MOL0     H76555   4.107   3.589   1.548 -0.3159 -1.6989 -1.2293
  555MOL0     H76556   4.315   3.621   1.478  3.2166  3.8812  1.5165
  555MOL0     H76557   4.258   3.707   1.331  2.1259 -0.5956 -0.1749
  555MOL0     H76558   4.168   3.805   1.590 -3.1462  0.2289 -1.9339
  555MOL0     H76559   4.184   3.902   1.446 -1.3614  0.2696  1.6250
  555MOL0     H76560   4.437   3.861   1.476 -0.4870 -0.9178 -0.2562
  555MOL0     H76561   4.401   3.802   1.634  1.2018  0.0156 -0.8575
  555MOL0     H76562   4.339   4.077   1.548 -0.3965 -0.5789 -0.2608
  555MOL0     H76563   4.285   3.995   1.702 -0.8208 -1.8687 -0.8537
  555MOL0     H76564   4.567   4.034   1.623  0.5081  2.3091  0.8940
  555MOL0     H76565   4.504   3.974   1.776 -1.7417  0.4860  1.6392
  555MOL0     H76566   4.575   4.210   1.812 -0.4102 -2.7819  0.4896
  555MOL0     H76567   4.399   4.212   1.802 -0.2242 -1.2813  0.4727
  555MOL0     H76568   4.478   4.389   1.683  0.1402 -0.5208  1.1771
  555MOL0     H76569   4.411   4.284   1.557  0.3564  0.6585 -1.4078
  555MOL0     H76570   4.068   3.361   1.153  0.5605  4.4210 -1.8984
  555MOL0     H76571   3.862   3.271   1.066 -2.5315 -1.1668  1.8248
  555MOL0     H76572   3.462   3.322   1.353 -0.3470 -1.8677 -0.4882
  555MOL0     H76573   3.261   3.294   1.446 -1.4159 -0.8202 -0.4174
  555MOL0     H76574   3.326   4.228   2.113  2.2195 -1.0225  1.0299
  555MOL0     H76575   3.344   4.417   2.273 -1.4222  0.3383 -1.1850
  555MOL0     H76576   3.470   4.776   2.412  0.2982 -0.2082 -0.8147
  555MOL0     H76577   3.531   4.945   2.608  2.2850 -0.0921  2.3732
  555MOL0     H76578   3.722   5.078   2.746  0.2663  0.0888  0.5898
  555MOL0     H76579   3.553   5.064   2.794 -0.2668  2.3675  1.3620
  555MOL0     H76580   3.663   5.200   2.945 -0.2651  1.0791  2.9490
  555MOL0     H76581   3.810   5.099   2.966  0.0979  2.6488  2.3994
  555MOL0     H76582   3.623   4.927   3.070 -0.5065 -0.7136  0.7972
  555MOL0     H76583   3.687   5.056   3.164 -0.2788  3.6219 -0.7092
  555MOL0     H76584   3.473   5.193   3.045 -1.3191  0.4387  0.2675
  555MOL0     H76585   3.481   5.121   3.198 -2.4886  1.2746 -0.2356
  555MOL0     H76586   3.242   4.831   2.995 -0.4393  0.5479  0.5914
  555MOL0     H76587   3.790   4.660   2.778 -0.4950 -0.2589 -0.4673
  555MOL0     H76588   3.698   4.385   2.602  2.4541 -1.8734  1.2405
  555MOL0     H76589   3.861   4.448   2.552  1.8415  1.0635  1.4644
  555MOL0     H76590   3.786   4.456   2.720  0.4221 -2.0501  0.0628
  556MOL0     O76591   9.313   6.142   9.662 -0.1906 -0.3364 -0.9961
  556MOL0     C76592   9.231   6.104   9.737 -1.0010  1.1368 -0.3338
  556MOL0     O76593   9.262   6.034   9.857 -0.2315 -0.8745  0.2459
  556MOL0     C76594   9.391   6.051   9.905 -0.3442 -0.0925 -0.9949
  556MOL0     C76595   9.472   5.937   9.928 -0.3409 -0.0657  0.0887
  556MOL0     C76596   9.610   5.953   9.976  0.4409 -0.6419  0.2000
  556MOL0     C76597   9.669   6.075  10.004 -0.4981  0.6039 -1.4594
  556MOL0     O76598   9.797   6.089  10.048 -0.4296  0.6881 -0.3003
  556MOL0     C76599   9.869   6.203  10.000 -0.5597 -0.2116  1.2021
  556MOL0     C76600  10.007   6.149   9.945 -0.5085 -0.2952  0.2621
  556MOL0     C76601  10.106   6.259   9.885  0.0444 -0.8096 -0.4361
  556MOL0     C76602  10.032   6.367   9.822  1.4124 -0.1663 -0.5242
  556MOL0     C76603  10.125   6.483   9.782  0.7992  1.1100 -0.3051
  556MOL0     C76604  10.065   6.596   9.713  0.4007  0.7865 -0.4678
  556MOL0     C76605  10.177   6.694   9.696  0.0950  0.1000  0.0131
  556MOL0     C76606  10.121   6.836   9.711 -0.9335  0.1882 -0.0641
  556MOL0     N76607  10.043   6.885   9.592 -0.1516 -0.3927 -0.4384
  556MOL0     C76608   9.908   6.885   9.583 -0.3740 -0.0051 -0.0326
  556MOL0     C76609   9.883   6.935   9.458 -0.1762  0.0240  0.7858
  556MOL0     C76610   9.739   6.960   9.413  0.7552  0.1079 -0.7295
  556MOL0     C76611   9.714   6.974   9.265  0.1270  0.3525  0.8603
  556MOL0     C76612   9.602   6.877   9.215 -0.7073 -0.2103  0.0426
  556MOL0     C76613   9.636   6.722   9.237 -0.0050 -0.3756  0.4700
  556MOL0     O76614   9.603   6.631   9.139  0.2365  0.4769  0.4503
  556MOL0     C76615   9.475   6.616   9.105 -0.2222  0.5021  0.0247
  556MOL0     C76616   9.444   6.527   9.001  0.6119  0.2258  0.4848
  556MOL0     C76617   9.311   6.509   8.958 -0.1977  0.2821 -0.4301
  556MOL0     C76618   9.308   6.419   8.844 -0.3637  0.5827  0.4763
  556MOL0     C76619   9.205   6.585   9.020 -1.1658 -0.2469 -0.5834
  556MOL0     C76620   9.068   6.590   8.977 -0.2435  0.0815  0.9650
  556MOL0     O76621   9.033   6.496   8.879 -0.5882 -0.2804 -0.3101
  556MOL0     C76622   8.911   6.510   8.810  0.0413  1.3681 -0.5081
  556MOL0     C76623   8.931   6.480   8.680 -0.3820  0.4391 -0.0060
  556MOL0     C76624   8.817   6.472   8.593 -0.0453  0.3691  0.9254
  556MOL0     C76625   8.690   6.510   8.639  1.1737 -0.2733 -0.6636
  556MOL0     O76626   8.576   6.504   8.567 -0.2184  0.0930 -0.2045
  556MOL0     C76627   8.577   6.493   8.425 -0.9800  0.8714  0.1492
  556MOL0     C76628   8.452   6.561   8.379  0.1740 -0.7284 -0.0969
  556MOL0     C76629   8.330   6.473   8.401 -1.3880  0.7266  0.6762
  556MOL0     C76630   8.318   6.371   8.294 -0.1929 -0.9316  0.5688
  556MOL0     C76631   8.163   6.321   8.293  0.6462  1.4016 -0.5710
  556MOL0     C76632   8.070   6.410   8.211  0.0875  0.0212 -0.8744
  556MOL0     C76633   7.921   6.339   8.198 -0.0747 -0.0348  0.5614
  556MOL0     C76634   7.830   6.403   8.096 -0.3277  0.6238  0.0949
  556MOL0    Cl76635   7.671   6.330   8.096 -0.3577  0.4056 -0.1444
  556MOL0     C76636   8.677   6.540   8.774 -0.4538  0.2572 -0.1210
  556MOL0     C76637   8.791   6.535   8.855 -0.1746  0.4576 -0.6328
  556MOL0     O76638   9.003   6.688   9.012  0.0510 -0.0132 -0.4296
  556MOL0     C76639   9.240   6.665   9.129  0.1514 -0.1158 -0.5137
  556MOL0     C76640   9.375   6.685   9.167 -0.4862  1.8649  0.1156
  556MOL0     N76641   9.999   6.975   9.399 -0.1142 -0.2936  1.2836
  556MOL0     N76642  10.097   6.961   9.488  0.2737  0.8674  0.5485
  556MOL0     C76643   9.576   6.184   9.989 -0.0190 -0.7388  0.2139
  556MOL0     C76644   9.451   6.173   9.932  0.4244  0.2588  0.3434
  556MOL0     C76645   9.088   6.125   9.716  0.1026  1.0754 -0.2903
  556MOL0     C76646   9.038   6.110   9.589  0.1705  0.1934  1.0823
  556MOL0     C76647   8.903   6.133   9.558 -0.6665 -0.0684  0.0265
  556MOL0     C76648   8.825   6.188   9.662  0.8877 -0.8630  0.2538
  556MOL0     O76649   8.694   6.224   9.653 -0.6436  0.0706  0.1514
  556MOL0     C76650   8.619   6.201   9.540 -0.5606 -0.3899  0.5319
  556MOL0     C76651   8.476   6.246   9.543  0.3934 -0.5264 -0.2889
  556MOL0     C76652   8.401   6.185   9.670 -0.3714 -0.6147  0.5659
  556MOL0     C76653   8.430   6.266   9.798  0.6666 -0.2213 -0.3458
  556MOL0     C76654   8.319   6.260   9.899 -0.3019 -0.4532  0.7563
  556MOL0     C76655   8.218   6.259   9.978 -0.4286 -0.4470  0.2650
  556MOL0     C76656   8.876   6.210   9.787 -0.3707  0.3088 -0.0595
  556MOL0     C76657   9.008   6.188   9.818 -0.7386 -0.4466  0.2430
  556MOL0     C76658   9.055   6.233   9.951 -0.4953  0.2254 -0.5439
  556MOL0     H76659   9.429   5.838   9.915  0.5112 -0.0576 -4.2456
  556MOL0     H76660   9.667   5.864  10.000  3.8477  1.2677 -0.2235
  556MOL0     H76661   9.889   6.273  10.082 -0.2244 -1.1224  1.9212
  556MOL0     H76662   9.806   6.243   9.921 -1.4406 -0.5819  1.6910
  556MOL0     H76663  10.058   6.095  10.025  0.7861  0.0755 -0.2910
  556MOL0     H76664   9.991   6.072   9.869 -0.7760  0.2795 -0.2845
  556MOL0     H76665  10.158   6.293   9.975 -3.6465  0.0249  1.5776
  556MOL0     H76666  10.182   6.219   9.817 -1.3123  1.0896 -3.2364
  556MOL0     H76667   9.959   6.345   9.744  1.4438 -0.8381 -0.3761
  556MOL0     H76668   9.972   6.414   9.901  0.8165 -0.9148 -0.5188
  556MOL0     H76669  10.189   6.436   9.706 -1.0203 -1.8610 -0.1918
  556MOL0     H76670  10.180   6.512   9.872 -0.0732  1.8650 -0.0024
  556MOL0     H76671  10.027   6.567   9.614 -0.5036  2.9250 -0.8211
  556MOL0     H76672   9.978   6.628   9.771  0.7292  0.6519  0.1059
  556MOL0     H76673  10.211   6.684   9.593 -0.7079 -0.6321 -0.1926
  556MOL0     H76674  10.263   6.671   9.759 -1.1247 -3.0288  0.7039
  556MOL0     H76675  10.065   6.850   9.804 -1.3950  2.4206 -0.6311
  556MOL0     H76676  10.204   6.907   9.714 -3.3343  3.1822  0.6801
  556MOL0     H76677   9.844   6.860   9.667  2.7883 -1.4151  2.1268
  556MOL0     H76678   9.701   7.048   9.466 -0.4297 -0.7149 -0.1428
  556MOL0     H76679   9.674   6.883   9.456  1.8370  0.1500  1.1119
  556MOL0     H76680   9.671   7.072   9.240 -1.5151 -1.1571 -3.0971
  556MOL0     H76681   9.804   6.952   9.206 -0.6099 -1.4576  0.3425
  556MOL0     H76682   9.511   6.904   9.269 -0.9742  0.6991 -0.8373
  556MOL0     H76683   9.578   6.889   9.108 -2.1021 -0.4902  0.2990
  556MOL0     H76684   9.742   6.713   9.264  0.2933 -0.7763 -0.7433
  556MOL0     H76685   9.592   6.700   9.334 -0.2101  4.9234  1.9081
  556MOL0     H76686   9.529   6.472   8.962 -1.2017 -1.5011 -1.2288
  556MOL0     H76687   9.403   6.367   8.830 -1.2104 -0.5794 -1.2745
  556MOL0     H76688   9.287   6.465   8.746  2.6864 -0.6297 -0.8856
  556MOL0     H76689   9.223   6.353   8.861 -0.2617 -0.3915 -2.1944
  556MOL0     H76690   9.022   6.438   8.639  0.1856  1.8937 -0.2727
  556MOL0     H76691   8.850   6.440   8.494  2.8480  1.8148  1.3141
  556MOL0     H76692   8.658   6.555   8.385 -1.6422  0.2384 -2.3649
  556MOL0     H76693   8.590   6.388   8.398  2.2016  0.8641  1.3356
  556MOL0     H76694   8.451   6.651   8.442  3.4426  0.8516 -2.0064
  556MOL0     H76695   8.459   6.599   8.277  1.8592  2.9712  1.2178
  556MOL0     H76696   8.234   6.524   8.391 -4.5875 -4.6381  0.0886
  556MOL0     H76697   8.331   6.427   8.500 -0.3696 -0.5191  0.1263
  556MOL0     H76698   8.384   6.284   8.307  1.1166  0.0341  0.5692
  556MOL0     H76699   8.342   6.407   8.194 -0.4093 -0.7986  0.5629
  556MOL0     H76700   8.166   6.219   8.252 -1.7713  1.0986 -0.1190
  556MOL0     H76701   8.124   6.319   8.395 -1.2899 -2.9628 -1.1661
  556MOL0     H76702   8.124   6.407   8.116 -1.9443  2.7863 -2.2651
  556MOL0     H76703   8.067   6.506   8.263 -1.7046 -0.3052 -0.2846
  556MOL0     H76704   7.872   6.358   8.294  0.5007  2.4618  0.4347
  556MOL0     H76705   7.930   6.234   8.170  0.7265  0.6047 -1.8315
  556MOL0     H76706   7.866   6.377   7.996 -1.3253 -0.4150 -0.0123
  556MOL0     H76707   7.815   6.508   8.124  2.0237  0.6272  1.6138
  556MOL0     H76708   8.588   6.554   8.835 -0.3089 -3.0640  1.0468
  556MOL0     H76709   8.790   6.569   8.958  3.1872 -2.4852  0.5798
  556MOL0     H76710   9.160   6.702   9.193 -1.7455 -2.4889 -1.3325
  556MOL0     H76711   9.381   6.731   9.266  0.1539  1.0099  0.4832
  556MOL0     H76712   9.603   6.286  10.015 -0.2966 -0.5887 -0.0753
  556MOL0     H76713   9.401   6.263   9.900  1.1647  1.8316  3.2277
  556MOL0     H76714   9.105   6.079   9.510 -0.4683  3.8285 -1.0981
  556MOL0     H76715   8.861   6.103   9.462 -3.1705  0.9065  0.7484
  556MOL0     H76716   8.656   6.260   9.455 -0.1601 -1.3802 -0.0030
  556MOL0     H76717   8.620   6.097   9.507 -4.6530 -0.9761  1.7149
  556MOL0     H76718   8.432   6.208   9.450  0.9633 -3.6964  0.5994
  556MOL0     H76719   8.480   6.355   9.553  3.8976 -0.7280  2.8099
  556MOL0     H76720   8.292   6.177   9.663 -0.2314 -4.0838  0.3239
  556MOL0     H76721   8.432   6.081   9.682  0.8895 -0.3510 -0.2404
  556MOL0     H76722   8.436   6.373   9.775 -1.2666 -0.1005 -0.4653
  556MOL0     H76723   8.518   6.229   9.852  0.4841  4.1921  3.6251
  556MOL0     H76724   8.156   6.265  10.065  0.9734  2.5381  1.2042
  556MOL0     H76725   8.808   6.244   9.864 -1.2424 -1.3659 -0.0365
  556MOL0     H76726   9.005   6.317   9.999 -2.4815 -0.9828 -0.4011
  556MOL0     H76727   9.039   6.151  10.022  0.8878 -0.4339 -0.9474
  556MOL0     H76728   9.163   6.249   9.951 -0.0573 -2.1940 -1.4797
  557MOL0     O76729   7.212   8.566   8.682  0.3400 -0.0083  0.1832
  557MOL0     C76730   7.215   8.654   8.597  0.3807  0.5905  0.3832
  557MOL0     O76731   7.296   8.757   8.607  0.9252 -0.3437 -0.4394
  557MOL0     C76732   7.364   8.780   8.727  0.5481  0.0603  0.6525
  557MOL0     C76733   7.356   8.910   8.777 -0.3961  0.6402  0.2125
  557MOL0     C76734   7.445   8.950   8.878 -0.3601 -0.1479 -0.2224
  557MOL0     C76735   7.520   8.861   8.948 -0.6639  0.1471 -0.8798
  557MOL0     O76736   7.590   8.902   9.068  0.1240  0.4034  0.7031
  557MOL0     C76737   7.693   8.806   9.114 -0.0466 -0.6324  0.4876
  557MOL0     C76738   7.764   8.856   9.242  0.1990  1.0092  0.1530
  557MOL0     C76739   7.823   8.998   9.229 -0.3564 -1.0321 -0.6134
  557MOL0     C76740   7.922   9.025   9.346 -0.0324 -0.1265  0.0259
  557MOL0     C76741   7.981   9.161   9.322 -0.7493  0.3887  0.1227
  557MOL0     C76742   8.033   9.236   9.458  0.1205  0.0393  1.0265
  557MOL0     C76743   7.915   9.285   9.545 -0.6186  0.7166 -0.0832
  557MOL0     C76744   7.961   9.322   9.686 -0.7848 -0.7464  0.0138
  557MOL0     N76745   7.853   9.333   9.781  0.5496 -0.3694  0.3612
  557MOL0     C76746   7.734   9.278   9.789  0.6455  0.0463  0.2503
  557MOL0     C76747   7.673   9.310   9.905  0.1612  0.4443  0.2589
  557MOL0     C76748   7.542   9.255   9.949 -0.0268 -0.3501 -0.1977
  557MOL0     C76749   7.492   9.282  10.099 -0.8242 -0.4113  0.3690
  557MOL0     C76750   7.351   9.237  10.126  0.0586  0.4207  0.4446
  557MOL0     C76751   7.251   9.350  10.122  0.7104 -0.1598 -0.2061
  557MOL0     O76752   7.241   9.401   9.991 -0.9278  0.1634 -0.1272
  557MOL0     C76753   7.181   9.524   9.965 -0.9597  0.8488 -0.1880
  557MOL0     C76754   7.091   9.591  10.053  0.0009  0.7193 -0.4809
  557MOL0     C76755   7.006   9.693  10.019 -1.3919 -1.3035 -0.0588
  557MOL0     C76756   6.888   9.733  10.099  0.7488  0.1130 -0.2143
  557MOL0     C76757   7.035   9.748   9.891  0.0691 -0.0588 -0.0522
  557MOL0     C76758   6.985   9.881   9.837  0.1465  0.3893  0.5390
  557MOL0     O76759   7.045   9.935   9.722 -0.3991 -0.1766 -0.1679
  557MOL0     C76760   6.988  10.049   9.679 -0.6234 -0.5050  0.2802
  557MOL0     C76761   7.033  10.170   9.728 -0.5233  1.0349  0.0970
  557MOL0     C76762   6.970  10.293   9.695 -0.2317  1.0535 -0.4023
  557MOL0     C76763   6.868  10.283   9.602 -1.1330  0.4374  0.6486
  557MOL0     O76764   6.817  10.403   9.565 -0.8907 -1.1160  0.1812
  557MOL0     C76765   6.675  10.410   9.604 -0.6158  0.0069  0.2942
  557MOL0     C76766   6.627  10.555   9.614  0.5418 -0.9208 -0.4396
  557MOL0     C76767   6.637  10.626   9.750 -0.2578 -0.5441  0.1387
  557MOL0     C76768   6.646  10.777   9.733  0.0530 -0.2365 -0.5589
  557MOL0     C76769   6.725  10.831   9.846 -0.0510 -0.3896 -0.1890
  557MOL0     C76770   6.709  10.983   9.864 -0.6619 -0.9336 -0.2322
  557MOL0     C76771   6.737  11.054   9.721 -0.6559 -0.0392 -0.0833
  557MOL0     C76772   6.791  11.200   9.749  0.2533  0.1459  0.1815
  557MOL0    Cl76773   6.661  11.298   9.835  0.0738 -0.1112  0.1852
  557MOL0     C76774   6.820  10.164   9.550 -0.1786  0.4727  0.2547
  557MOL0     C76775   6.886  10.050   9.593  0.9966  0.3777  0.8042
  557MOL0     O76776   6.890   9.940   9.901 -0.0856  0.4593  0.4346
  557MOL0     C76777   7.130   9.686   9.803 -0.4029  0.3528 -0.5774
  557MOL0     C76778   7.195   9.572   9.835  0.1460  0.0491 -0.1740
  557MOL0     N76779   7.759   9.385   9.976 -0.3580  0.1942 -0.6797
  557MOL0     N76780   7.855   9.404   9.891 -0.2616 -0.4827 -0.0316
  557MOL0     C76781   7.522   8.731   8.904  0.3366  0.1653  0.0154
  557MOL0     C76782   7.446   8.688   8.790  0.5695 -0.4605  0.2426
  557MOL0     C76783   7.122   8.646   8.483 -0.6280 -0.0668 -1.2372
  557MOL0     C76784   7.070   8.762   8.426 -0.4167  0.0886  0.1068
  557MOL0     C76785   6.971   8.760   8.326 -0.3407 -0.3718 -0.8767
  557MOL0     C76786   6.912   8.639   8.292  0.4553  0.2311 -0.4495
  557MOL0     O76787   6.811   8.638   8.203  0.6293  0.4501 -0.5328
  557MOL0     C76788   6.703   8.543   8.190  0.2496 -0.6927 -0.3461
  557MOL0     C76789   6.586   8.595   8.089  0.1457 -0.1330 -0.2295
  557MOL0     C76790   6.642   8.655   7.955 -0.4767  0.0285  0.8481
  557MOL0     C76791   6.725   8.547   7.882 -0.3888  1.0295  0.9735
  557MOL0     C76792   6.676   8.411   7.887  0.1885  1.3796 -0.0192
  557MOL0     C76793   6.634   8.297   7.895  0.4070  0.1532 -0.2020
  557MOL0     C76794   6.961   8.527   8.349 -0.1274  0.6747 -0.7004
  557MOL0     C76795   7.070   8.522   8.433 -0.3236 -0.4930 -0.4316
  557MOL0     C76796   7.122   8.374   8.469 -0.3481 -0.8998  0.1259
  557MOL0     H76797   7.285   8.975   8.727 -0.3809  0.1044 -0.5187
  557MOL0     H76798   7.440   9.056   8.903 -0.2726  0.0774 -1.1097
  557MOL0     H76799   7.759   8.800   9.027  0.6371 -0.7964  1.0090
  557MOL0     H76800   7.654   8.705   9.130  1.2297 -0.9421  1.8006
  557MOL0     H76801   7.694   8.848   9.326 -0.4570  1.9806 -0.2681
  557MOL0     H76802   7.842   8.785   9.269 -0.6160 -0.2607 -0.7711
  557MOL0     H76803   7.880   9.012   9.137  0.4941  1.5795  0.2218
  557MOL0     H76804   7.741   9.070   9.233  1.4594  1.2577 -1.7698
  557MOL0     H76805   7.881   9.022   9.447 -1.0594 -1.4167 -0.4056
  557MOL0     H76806   7.987   8.938   9.349  3.5326  2.2275 -1.7096
  557MOL0     H76807   7.916   9.217   9.254 -1.8605 -0.5474  0.3628
  557MOL0     H76808   8.068   9.129   9.264 -1.4379 -1.3232 -0.0095
  557MOL0     H76809   8.098   9.167   9.513 -1.2687 -1.6714  0.6098
  557MOL0     H76810   8.097   9.322   9.434 -0.8076  1.5844  3.7440
  557MOL0     H76811   7.849   9.198   9.556  1.8521 -1.3668 -0.7846
  557MOL0     H76812   7.854   9.359   9.492 -3.3027  1.0432  3.1017
  557MOL0     H76813   8.036   9.252   9.722 -0.0708  0.0268  0.0606
  557MOL0     H76814   8.024   9.411   9.677 -0.4035 -1.0911 -0.9412
  557MOL0     H76815   7.693   9.213   9.712  1.8802  0.6270 -0.9481
  557MOL0     H76816   7.537   9.146   9.938  1.4369 -0.3414 -1.2077
  557MOL0     H76817   7.463   9.302   9.888  0.9529  1.6276 -0.0238
  557MOL0     H76818   7.546   9.217  10.168 -2.4687  2.3019  4.6353
  557MOL0     H76819   7.514   9.385  10.130  1.2751 -1.3568  2.3335
  557MOL0     H76820   7.320   9.155  10.061  2.8068  1.3521 -2.2577
  557MOL0     H76821   7.340   9.204  10.230 -1.0738 -1.6621 -0.2746
  557MOL0     H76822   7.158   9.309  10.164  0.9060 -1.5964 -1.1162
  557MOL0     H76823   7.279   9.428  10.194 -3.1916  1.1702  0.0868
  557MOL0     H76824   7.087   9.562  10.157  0.8258 -2.0099 -1.1275
  557MOL0     H76825   6.923   9.821  10.153  1.1614  0.2871 -0.7618
  557MOL0     H76826   6.865   9.651  10.168 -1.6782  0.0140 -1.0516
  557MOL0     H76827   6.803   9.760  10.036  1.7713  4.1548 -0.1335
  557MOL0     H76828   7.114  10.159   9.800 -0.2773 -0.3213 -0.3576
  557MOL0     H76829   6.995  10.379   9.755  0.9647 -0.4085  1.3009
  557MOL0     H76830   6.606  10.360   9.535 -0.4257  1.0313 -0.6693
  557MOL0     H76831   6.664  10.371   9.705  1.2258 -1.9221 -0.1748
  557MOL0     H76832   6.685  10.612   9.541 -0.7264  2.0780  0.7421
  557MOL0     H76833   6.523  10.566   9.584  0.4669 -0.3249  0.0256
  557MOL0     H76834   6.728  10.593   9.802  0.0072  0.8913  0.6201
  557MOL0     H76835   6.549  10.609   9.812 -0.9443  2.3204  0.0479
  557MOL0     H76836   6.544  10.818   9.736  0.6875  1.3773 -0.0243
  557MOL0     H76837   6.677  10.811   9.634  2.8019 -0.0661  0.2758
  557MOL0     H76838   6.693  10.775   9.934  0.6251 -0.8662 -0.2427
  557MOL0     H76839   6.830  10.812   9.824  0.1822  0.6925 -0.0758
  557MOL0     H76840   6.797  11.017   9.920  0.1349 -1.1693 -1.2969
  557MOL0     H76841   6.608  10.997   9.904 -1.0474 -1.1492 -1.0951
  557MOL0     H76842   6.643  11.066   9.666 -2.0681 -1.5434  1.8434
  557MOL0     H76843   6.818  11.010   9.663  0.6579  1.9228  0.1537
  557MOL0     H76844   6.806  11.255   9.656  1.1430  0.5884  0.5821
  557MOL0     H76845   6.882  11.199   9.811 -1.0992 -3.8520  2.4841
  557MOL0     H76846   6.747  10.162   9.471  0.4112 -1.8155 -0.3055
  557MOL0     H76847   6.845   9.952   9.569 -3.0000  2.3487 -1.3819
  557MOL0     H76848   7.148   9.722   9.702  1.0224  1.6990  0.1200
  557MOL0     H76849   7.265   9.521   9.770 -1.3200 -1.9197 -0.3182
  557MOL0     H76850   7.561   8.642   8.953 -1.1795 -3.2024 -4.2666
  557MOL0     H76851   7.437   8.585   8.758 -2.4493 -1.3574  3.3612
  557MOL0     H76852   7.108   8.858   8.458 -1.1462 -0.8471  4.3059
  557MOL0     H76853   6.921   8.849   8.289 -0.1175  1.3292  2.5553
  557MOL0     H76854   6.745   8.451   8.147 -0.3431 -1.8265  1.3739
  557MOL0     H76855   6.647   8.517   8.280 -2.1717 -2.2269 -2.1550
  557MOL0     H76856   6.522   8.665   8.143 -1.2215 -1.3443 -0.2205
  557MOL0     H76857   6.522   8.511   8.061  2.6183 -1.3220 -2.8156
  557MOL0     H76858   6.562   8.679   7.885  0.1472 -0.2228  0.0354
  557MOL0     H76859   6.687   8.755   7.962 -1.7042  0.5666  1.5326
  557MOL0     H76860   6.826   8.537   7.922 -0.2116 -1.7837  0.0005
  557MOL0     H76861   6.732   8.575   7.777  1.3300  0.0674  0.7942
  557MOL0     H76862   6.603   8.195   7.907  0.0087 -0.0514 -2.4399
  557MOL0     H76863   6.917   8.433   8.318 -2.5413  2.1139 -2.0097
  557MOL0     H76864   7.129   8.297   8.391 -1.1277 -0.3227 -0.5316
  557MOL0     H76865   7.217   8.386   8.522 -0.7562  1.5068  0.4351
  557MOL0     H76866   7.044   8.353   8.542 -1.6607 -0.4682 -1.0974
  558MOL0     O76867   6.062   3.010   2.186 -0.0378  0.6595 -0.3284
  558MOL0     C76868   5.936   3.026   2.176  0.1909  0.4715 -0.1119
  558MOL0     O76869   5.865   3.144   2.193 -0.3100  0.9251  0.7519
  558MOL0     C76870   5.926   3.256   2.235  0.0651 -0.0649 -1.0633
  558MOL0     C76871   5.881   3.374   2.178 -0.2730  0.8427 -0.0645
  558MOL0     C76872   5.937   3.496   2.226 -0.8633  0.1060  0.2546
  558MOL0     C76873   6.035   3.501   2.332 -0.0758  0.8435  0.4907
  558MOL0     O76874   6.092   3.613   2.395 -0.8677  0.0894  1.4173
  558MOL0     C76875   5.997   3.707   2.446 -0.0674  0.0510 -0.4289
  558MOL0     C76876   6.031   3.847   2.405 -1.2811 -0.7852 -0.6118
  558MOL0     C76877   6.173   3.870   2.355  1.0201 -1.1363 -0.7981
  558MOL0     C76878   6.194   4.020   2.351  0.3874 -0.6277  1.1491
  558MOL0     C76879   6.331   4.054   2.305 -0.6431  0.1197 -1.0216
  558MOL0     C76880   6.350   4.204   2.302  0.3273 -0.3777 -0.4743
  558MOL0     C76881   6.479   4.245   2.247  0.9781 -0.0929 -0.2248
  558MOL0     C76882   6.604   4.184   2.314 -0.6068  0.8057  0.1092
  558MOL0     N76883   6.631   4.214   2.456 -0.2466  0.0015 -0.2357
  558MOL0     C76884   6.679   4.343   2.485  0.4368 -0.1517  0.0419
  558MOL0     C76885   6.680   4.351   2.619 -0.0126  0.0405 -0.1832
  558MOL0     C76886   6.725   4.474   2.696  0.0806  0.0087  0.0695
  558MOL0     C76887   6.604   4.551   2.754  0.4162  0.5566  0.8086
  558MOL0     C76888   6.652   4.669   2.845 -0.8859  1.0107  0.4737
  558MOL0     C76889   6.541   4.742   2.927  0.2169  0.4348 -0.2696
  558MOL0     O76890   6.614   4.814   3.035  0.6015  0.1798  1.3665
  558MOL0     C76891   6.539   4.889   3.126 -1.5691 -0.3300  0.6245
  558MOL0     C76892   6.611   4.931   3.239 -0.9764 -0.8380 -0.5038
  558MOL0     C76893   6.548   4.998   3.345 -0.4049  1.3489  0.5244
  558MOL0     C76894   6.640   5.052   3.451  0.0066  0.2320  1.0186
  558MOL0     C76895   6.398   5.022   3.336  0.2475  0.3073 -0.6477
  558MOL0     C76896   6.320   5.094   3.439  0.4851  0.2265 -1.0747
  558MOL0     O76897   6.188   5.119   3.415 -0.0249 -0.4078 -0.3400
  558MOL0     C76898   6.117   5.195   3.503 -0.6752 -0.6409 -0.1428
  558MOL0     C76899   6.085   5.331   3.465 -0.8208  0.7801 -0.4622
  558MOL0     C76900   6.013   5.409   3.551  0.1016 -0.2344 -0.0108
  558MOL0     C76901   5.961   5.366   3.673 -0.9049  0.1976 -0.8338
  558MOL0     O76902   5.884   5.453   3.751 -0.4363  0.0457  1.0026
  558MOL0     C76903   5.779   5.410   3.834  0.0727  0.8643  0.5224
  558MOL0     C76904   5.671   5.508   3.855 -0.2918  0.1726 -0.4865
  558MOL0     C76905   5.584   5.465   3.973  0.8211  0.2905  1.1205
  558MOL0     C76906   5.652   5.501   4.105  0.2008 -0.3779 -0.8972
  558MOL0     C76907   5.544   5.533   4.210 -0.5793 -0.2162  0.1459
  558MOL0     C76908   5.516   5.677   4.236 -0.2594  0.3400 -0.0574
  558MOL0     C76909   5.386   5.690   4.302  0.6174 -0.0660  0.3123
  558MOL0     C76910   5.335   5.836   4.303  0.1676 -0.1890 -0.1382
  558MOL0    Cl76911   5.191   5.850   4.399  0.0862  0.0162  0.2372
  558MOL0     C76912   5.997   5.232   3.706  0.3804  0.0508  0.9591
  558MOL0     C76913   6.090   5.156   3.635 -0.2112  0.0607  0.6293
  558MOL0     O76914   6.374   5.118   3.543  0.5520  0.0487  0.7214
  558MOL0     C76915   6.334   4.981   3.220  0.5698 -1.1326  0.3639
  558MOL0     C76916   6.404   4.916   3.118 -0.1503 -0.8985  0.0160
  558MOL0     N76917   6.625   4.225   2.672 -0.2916  0.0843  0.7645
  558MOL0     N76918   6.597   4.151   2.571 -0.0843 -0.4053 -1.2883
  558MOL0     C76919   6.096   3.376   2.369  0.0301 -0.9235  0.3624
  558MOL0     C76920   6.045   3.263   2.323  0.4676  0.3659 -0.6859
  558MOL0     C76921   5.859   2.922   2.101  0.8526 -0.0876  0.3717
  558MOL0     C76922   5.738   2.877   2.157  1.1928  0.7064  0.0170
  558MOL0     C76923   5.660   2.783   2.096 -0.1146 -0.0519  0.1048
  558MOL0     C76924   5.699   2.727   1.976 -0.2795  1.1066  0.1458
  558MOL0     O76925   5.637   2.615   1.924  0.1539 -0.3217  1.4603
  558MOL0     C76926   5.688   2.531   1.809 -0.5212  0.0931  0.1175
  558MOL0     C76927   5.801   2.437   1.843  0.0002  0.2410 -0.0504
  558MOL0     C76928   5.768   2.314   1.941  0.2962 -0.1268 -0.4451
  558MOL0     C76929   5.694   2.197   1.875 -1.0243  0.5953 -0.0099
  558MOL0     C76930   5.753   2.071   1.915 -0.5098  0.3085 -0.0120
  558MOL0     C76931   5.803   1.971   1.947  0.1294 -0.0680  1.0001
  558MOL0     C76932   5.820   2.777   1.918  0.4318 -0.2626 -0.8283
  558MOL0     C76933   5.903   2.868   1.980 -0.1817  0.9620 -0.9034
  558MOL0     C76934   6.029   2.917   1.911  0.2981  0.5615 -0.8750
  558MOL0     H76935   5.812   3.367   2.095 -1.3237 -1.4918  0.9075
  558MOL0     H76936   5.898   3.586   2.178  0.4798  1.0342  0.8306
  558MOL0     H76937   5.995   3.719   2.555 -4.1787  4.8844 -0.6789
  558MOL0     H76938   5.892   3.692   2.419 -0.6855  1.1163  1.1880
  558MOL0     H76939   5.956   3.878   2.332  0.4769  3.7686 -0.8199
  558MOL0     H76940   6.031   3.906   2.497  0.1486  0.9014 -1.6215
  558MOL0     H76941   6.246   3.808   2.409  1.1528 -0.7328 -0.5042
  558MOL0     H76942   6.175   3.836   2.251 -3.5671 -1.4868 -0.9592
  558MOL0     H76943   6.126   4.069   2.281  3.8784  0.8991 -1.4554
  558MOL0     H76944   6.175   4.059   2.452  0.0899 -0.0646  0.8829
  558MOL0     H76945   6.338   4.005   2.207  2.6899 -1.6150 -0.0663
  558MOL0     H76946   6.408   4.003   2.363 -0.0979  0.4380 -1.4556
  558MOL0     H76947   6.275   4.234   2.228 -0.9740  1.5871  1.4862
  558MOL0     H76948   6.331   4.247   2.401  1.9302  0.9410 -0.7034
  558MOL0     H76949   6.487   4.354   2.243  0.6782 -0.0974 -1.4878
  558MOL0     H76950   6.482   4.194   2.150  1.4792 -0.0902 -0.2137
  558MOL0     H76951   6.605   4.076   2.299  0.9876  1.1184 -2.7292
  558MOL0     H76952   6.693   4.223   2.263  1.3483 -0.4579  2.3336
  558MOL0     H76953   6.710   4.415   2.409  2.2723  1.5965  2.2946
  558MOL0     H76954   6.800   4.539   2.652  2.6583 -0.2236  3.6966
  558MOL0     H76955   6.783   4.438   2.781 -1.8175  4.4977  3.7163
  558MOL0     H76956   6.532   4.593   2.683 -0.5317  2.1489  2.5917
  558MOL0     H76957   6.550   4.481   2.819  4.0947 -0.6761  2.8205
  558MOL0     H76958   6.697   4.603   2.920 -1.5838  0.1452  0.1464
  558MOL0     H76959   6.722   4.742   2.802  1.9792 -2.6356 -1.6019
  558MOL0     H76960   6.478   4.806   2.865  0.3756 -0.0000 -0.8836
  558MOL0     H76961   6.476   4.670   2.978  0.0071  1.8142  1.5447
  558MOL0     H76962   6.710   4.887   3.243 -0.0411  0.9907 -1.9176
  558MOL0     H76963   6.737   5.001   3.454  0.3000  0.7921  2.8036
  558MOL0     H76964   6.585   5.036   3.545 -1.9638  4.5608  0.8505
  558MOL0     H76965   6.654   5.160   3.435  0.3042 -0.1325 -1.4086
  558MOL0     H76966   6.123   5.365   3.369  0.7190 -0.0117 -0.1630
  558MOL0     H76967   5.986   5.508   3.516  1.5754 -0.4560 -1.9322
  558MOL0     H76968   5.732   5.324   3.785 -1.3069  3.1311 -2.4851
  558MOL0     H76969   5.819   5.375   3.930  2.6777 -0.5130 -0.9469
  558MOL0     H76970   5.720   5.605   3.871 -0.7196  0.3375 -0.1438
  558MOL0     H76971   5.612   5.519   3.764  1.3049  1.0076 -1.4671
  558MOL0     H76972   5.566   5.358   3.972 -1.2243  0.5975  0.2103
  558MOL0     H76973   5.494   5.528   3.975  1.2322  0.9128  0.7167
  558MOL0     H76974   5.722   5.585   4.098  2.1100 -1.6869  1.0786
  558MOL0     H76975   5.714   5.419   4.144 -0.2918 -0.7812 -0.9457
  558MOL0     H76976   5.454   5.476   4.186 -0.2270 -0.5711 -0.3635
  558MOL0     H76977   5.576   5.505   4.310  3.3488  0.8315 -0.6507
  558MOL0     H76978   5.520   5.732   4.141  3.1145  1.4211  0.5796
  558MOL0     H76979   5.590   5.723   4.301  0.4412  1.2534 -1.4419
  558MOL0     H76980   5.393   5.669   4.409 -2.8672 -0.1883  0.6419
  558MOL0     H76981   5.309   5.631   4.252  0.4762  0.3851 -0.0038
  558MOL0     H76982   5.320   5.871   4.200 -2.4047 -5.5750 -1.9764
  558MOL0     H76983   5.409   5.902   4.348  0.2079 -0.8067  0.7286
  558MOL0     H76984   5.987   5.187   3.805  0.6032  0.6080  1.2373
  558MOL0     H76985   6.125   5.058   3.666 -1.4818 -0.0289  1.9470
  558MOL0     H76986   6.230   5.010   3.217  0.9657  0.3175 -0.6526
  558MOL0     H76987   6.343   4.892   3.032 -0.3194 -0.0336 -0.1128
  558MOL0     H76988   6.180   3.363   2.435  0.9527 -0.1009 -0.6206
  558MOL0     H76989   6.087   3.172   2.364  1.5084  1.4060  0.6558
  558MOL0     H76990   5.709   2.915   2.254  1.7167 -0.7921  0.7912
  558MOL0     H76991   5.571   2.745   2.145 -0.0127 -1.0294 -0.4411
  558MOL0     H76992   5.610   2.473   1.759  0.6306 -2.1455  0.7887
  558MOL0     H76993   5.734   2.590   1.730  0.9966 -2.6667 -1.1989
  558MOL0     H76994   5.894   2.486   1.872 -0.1010  0.3223  0.1473
  558MOL0     H76995   5.840   2.396   1.750  1.2899  4.0330 -1.3453
  558MOL0     H76996   5.857   2.281   1.995 -0.1660  4.0479  3.5393
  558MOL0     H76997   5.700   2.358   2.015 -0.5553  1.5620 -2.1684
  558MOL0     H76998   5.702   2.196   1.766 -1.9798  0.1179 -0.0867
  558MOL0     H76999   5.586   2.197   1.895 -1.1701  0.0650 -0.7633
  558MOL0     H77000   5.840   1.882   1.993 -0.0260  0.3749  2.0018
  558MOL0     H77001   5.862   2.721   1.835  1.3977 -1.2002  0.2628
  558MOL0     H77002   6.039   3.023   1.935  0.3614  0.0236  1.8388
  558MOL0     H77003   6.115   2.860   1.949 -1.8624 -3.1630 -1.0288
  558MOL0     H77004   6.036   2.908   1.802  2.0767  1.5787 -0.8915
  559MOL0     O77005   1.304   3.009  10.708 -0.1482  0.2274 -0.2614
  559MOL0     C77006   1.255   3.062  10.813  0.5939 -0.1260 -0.3378
  559MOL0     O77007   1.117   3.084  10.827 -0.2557 -0.2463  0.5858
  559MOL0     C77008   1.032   3.042  10.720  0.2660 -0.4364  0.2165
  559MOL0     C77009   0.958   2.931  10.742  0.2816  0.4472  0.0942
  559MOL0     C77010   0.874   2.882  10.641  0.6023 -0.5705 -0.0931
  559MOL0     C77011   0.868   2.951  10.519  0.2851 -0.3580 -0.1986
  559MOL0     O77012   0.779   2.911  10.424 -0.1512  0.2902 -0.4091
  559MOL0     C77013   0.804   2.931  10.291 -0.4553 -0.0615 -0.8203
  559MOL0     C77014   0.673   2.864  10.226 -0.2410 -0.1905  1.0975
  559MOL0     C77015   0.605   2.969  10.149 -0.4083 -0.6567  0.8180
  559MOL0     C77016   0.470   2.937  10.090 -1.0477 -1.1907  0.0365
  559MOL0     C77017   0.482   2.843   9.974 -0.1984 -0.8212  0.2151
  559MOL0     C77018   0.344   2.774   9.951  0.4968 -0.0701  1.1697
  559MOL0     C77019   0.338   2.675   9.834  0.4704 -0.3514 -0.7564
  559MOL0     C77020   0.401   2.542   9.863 -0.3779  1.0893 -0.8774
  559MOL0     N77021   0.402   2.447   9.751  1.3266 -0.0652 -1.0121
  559MOL0     C77022   0.290   2.416   9.669 -0.2815 -0.3066 -0.3461
  559MOL0     C77023   0.319   2.295   9.615 -0.6187 -0.1996 -0.5820
  559MOL0     C77024   0.236   2.219   9.517  0.9015 -0.8151 -0.4788
  559MOL0     C77025   0.239   2.270   9.376  0.0267 -0.4945  0.1091
  559MOL0     C77026   0.186   2.183   9.261  1.1535 -0.1183 -0.0182
  559MOL0     C77027   0.037   2.151   9.274 -0.4121 -0.6764 -0.5849
  559MOL0     O77028  -0.046   2.246   9.225 -0.0078  0.4522 -0.9626
  559MOL0     C77029  -0.184   2.239   9.248  1.1958 -0.5760 -0.7205
  559MOL0     C77030  -0.261   2.137   9.303 -0.8780  0.5043 -0.0827
  559MOL0     C77031  -0.401   2.149   9.318 -0.5429 -0.4738 -0.3271
  559MOL0     C77032  -0.479   2.026   9.351 -1.4577  0.1554  0.0519
  559MOL0     C77033  -0.462   2.269   9.288  0.3529 -0.3184  0.3714
  559MOL0     C77034  -0.610   2.264   9.273  1.0717  0.5240 -0.3614
  559MOL0     O77035  -0.679   2.349   9.352 -0.4786  0.0430 -0.1595
  559MOL0     C77036  -0.818   2.368   9.348 -0.8193  0.3875  0.8796
  559MOL0     C77037  -0.870   2.433   9.459 -0.5163 -0.1892 -0.0222
  559MOL0     C77038  -1.004   2.452   9.473  1.1220 -0.7967 -0.4604
  559MOL0     C77039  -1.096   2.387   9.377  0.0234 -1.2397  0.2075
  559MOL0     O77040  -1.237   2.396   9.384 -0.8635 -0.1376  1.4096
  559MOL0     C77041  -1.310   2.448   9.498 -0.9262 -0.2197  0.2415
  559MOL0     C77042  -1.343   2.342   9.597  0.6617 -0.7758  0.2641
  559MOL0     C77043  -1.435   2.405   9.704  1.0028 -0.0814  0.1641
  559MOL0     C77044  -1.493   2.315   9.807 -0.0832  0.0177  0.4237
  559MOL0     C77045  -1.565   2.188   9.762 -0.2821  0.1636  0.4951
  559MOL0     C77046  -1.616   2.123   9.884  0.0748  0.6938  1.0397
  559MOL0     C77047  -1.722   2.015   9.860 -1.2000 -0.2252 -0.9245
  559MOL0     C77048  -1.721   1.938   9.995  0.3895  0.0585  0.0609
  559MOL0    Cl77049  -1.849   1.819  10.023 -0.1932  0.0486 -0.0705
  559MOL0     C77050  -1.038   2.331   9.268  0.4165 -0.5899 -1.3865
  559MOL0     C77051  -0.901   2.321   9.253  0.1051  0.1482  0.4368
  559MOL0     O77052  -0.663   2.188   9.185 -0.6428  1.2787  0.2312
  559MOL0     C77053  -0.396   2.378   9.242  0.4081  0.5479 -0.0248
  559MOL0     C77054  -0.259   2.360   9.220 -0.1941  0.2396 -0.8316
  559MOL0     N77055   0.435   2.244   9.669 -0.4131 -0.7899  0.2609
  559MOL0     N77056   0.486   2.338   9.750  0.2823  0.1121 -0.2077
  559MOL0     C77057   0.934   3.066  10.498 -1.2920  0.2994 -0.5676
  559MOL0     C77058   1.015   3.114  10.602  0.8925 -0.1831  0.5561
  559MOL0     C77059   1.344   3.114  10.928 -0.3345  0.5193 -0.2898
  559MOL0     C77060   1.295   3.231  11.006 -0.0018  1.3729 -0.9125
  559MOL0     C77061   1.368   3.287  11.109  0.2609  0.0585 -0.6006
  559MOL0     C77062   1.500   3.244  11.140  0.1836  0.9144  0.8462
  559MOL0     O77063   1.575   3.299  11.235  0.1186 -0.1163 -0.4010
  559MOL0     C77064   1.530   3.419  11.312 -0.2670 -0.7405  0.7017
  559MOL0     C77065   1.642   3.466  11.406  0.1933  0.2540 -0.1092
  559MOL0     C77066   1.668   3.352  11.513 -0.4307 -0.6037  0.6797
  559MOL0     C77067   1.711   3.415  11.648 -0.2443  0.2934  0.2527
  559MOL0     C77068   1.836   3.500  11.638 -0.3562 -0.4688 -0.1078
  559MOL0     C77069   1.934   3.571  11.605  0.1395  0.5083  1.0110
  559MOL0     C77070   1.547   3.121  11.074 -0.0140 -0.0872  0.5620
  559MOL0     C77071   1.472   3.060  10.970  0.0780  0.4720  0.2986
  559MOL0     C77072   1.537   2.953  10.883  0.3050  0.2315 -0.6943
  559MOL0     H77073   0.961   2.893  10.843  0.7132  2.0045  0.6974
  559MOL0     H77074   0.835   2.782  10.655 -0.9404 -0.4564 -2.7588
  559MOL0     H77075   0.888   2.871  10.255 -1.0632  0.0470 -2.5258
  559MOL0     H77076   0.806   3.038  10.266  0.8928  0.3005  0.6807
  559MOL0     H77077   0.707   2.787  10.156  1.9370  0.8137  0.9671
  559MOL0     H77078   0.603   2.812  10.292  0.2964 -0.1868  1.6776
  559MOL0     H77079   0.599   3.057  10.214  1.0495  1.6847 -1.9987
  559MOL0     H77080   0.671   3.005  10.069 -0.3852  1.2197  1.6202
  559MOL0     H77081   0.409   2.897  10.171  0.4042  2.2227  3.1274
  559MOL0     H77082   0.423   3.026  10.048 -2.1774 -0.3147  2.9035
  559MOL0     H77083   0.567   2.775   9.988  0.3614 -0.0079  0.8840
  559MOL0     H77084   0.523   2.895   9.887 -1.0974  1.6903  1.2090
  559MOL0     H77085   0.307   2.722  10.039 -4.6053  0.0299 -0.5463
  559MOL0     H77086   0.273   2.855   9.931 -0.0207 -1.0030 -1.1120
  559MOL0     H77087   0.391   2.707   9.743  1.7593 -0.4530 -0.0667
  559MOL0     H77088   0.232   2.665   9.808 -0.8177  1.6727  3.0141
  559MOL0     H77089   0.505   2.556   9.896 -0.4228 -1.8829  0.8465
  559MOL0     H77090   0.347   2.492   9.943  0.3404 -1.1738 -1.7291
  559MOL0     H77091   0.198   2.471   9.650 -0.6092  0.0723  2.0661
  559MOL0     H77092   0.131   2.221   9.549  0.6700  2.5145 -1.1049
  559MOL0     H77093   0.270   2.115   9.520  0.0858 -1.1092 -1.0107
  559MOL0     H77094   0.196   2.370   9.379  0.8710 -0.1436  2.1482
  559MOL0     H77095   0.346   2.283   9.355 -0.0828  0.0210 -0.1414
  559MOL0     H77096   0.198   2.246   9.173 -1.5133  0.4776 -0.0322
  559MOL0     H77097   0.234   2.087   9.239  0.3661 -0.3339 -0.8681
  559MOL0     H77098   0.021   2.066   9.207 -1.0261 -0.3088 -0.9104
  559MOL0     H77099   0.018   2.115   9.375  1.0511 -2.0125 -0.7430
  559MOL0     H77100  -0.206   2.048   9.333 -0.6982  1.3847  2.4225
  559MOL0     H77101  -0.571   2.045   9.407 -0.1491 -1.8506  3.1772
  559MOL0     H77102  -0.410   1.953   9.396 -2.7074 -2.8119 -2.5144
  559MOL0     H77103  -0.503   1.983   9.254  1.1977 -1.0620 -0.1483
  559MOL0     H77104  -0.799   2.496   9.512 -2.9789  0.5919  2.5691
  559MOL0     H77105  -1.034   2.518   9.554 -0.3226 -2.8401  0.7757
  559MOL0     H77106  -1.244   2.518   9.548 -0.7457  0.0931 -0.4151
  559MOL0     H77107  -1.401   2.500   9.465  0.0512  0.2087 -2.0076
  559MOL0     H77108  -1.389   2.258   9.544 -0.5205 -1.1892  1.8812
  559MOL0     H77109  -1.253   2.301   9.643  0.3911 -0.8950  0.6925
  559MOL0     H77110  -1.525   2.441   9.653  0.2072  0.1463  1.6725
  559MOL0     H77111  -1.393   2.493   9.755 -2.8573  1.1737  1.4843
  559MOL0     H77112  -1.556   2.371   9.876 -1.2227 -0.3972 -0.2509
  559MOL0     H77113  -1.407   2.282   9.866  1.1052  0.5527 -0.9456
  559MOL0     H77114  -1.651   2.214   9.701 -2.7533 -6.5522  0.3035
  559MOL0     H77115  -1.496   2.118   9.712  1.6474 -0.4383  3.6845
  559MOL0     H77116  -1.670   2.194   9.948 -0.5122  1.1307  0.0965
  559MOL0     H77117  -1.531   2.085   9.941  2.0386 -3.9134 -4.0776
  559MOL0     H77118  -1.690   1.941   9.786  2.0231  0.0822  0.0074
  559MOL0     H77119  -1.819   2.061   9.841 -3.4080 -3.2598  1.7287
  559MOL0     H77120  -1.723   2.014  10.074  2.2537 -0.1578  0.3476
  559MOL0     H77121  -1.624   1.888   9.999  0.0936 -0.7427 -1.8220
  559MOL0     H77122  -1.108   2.282   9.200 -3.3594  0.6791  1.2521
  559MOL0     H77123  -0.876   2.264   9.164  1.3329 -0.5304  1.1893
  559MOL0     H77124  -0.440   2.475   9.219  0.8142  1.0888  1.3756
  559MOL0     H77125  -0.195   2.438   9.180 -0.0372  0.0516 -0.9452
  559MOL0     H77126   0.902   3.137  10.423 -0.8654 -0.0937 -1.1289
  559MOL0     H77127   1.061   3.211  10.588  1.0006 -0.5456 -2.2437
  559MOL0     H77128   1.203   3.285  10.984 -0.7625  0.5327  0.0901
  559MOL0     H77129   1.332   3.367  11.172  0.5822 -0.3901  0.1687
  559MOL0     H77130   1.506   3.497  11.238 -3.4151 -0.9715  1.3318
  559MOL0     H77131   1.439   3.388  11.363  0.3536 -1.9555  1.0917
  559MOL0     H77132   1.616   3.562  11.452 -0.9684  0.6791 -1.5789
  559MOL0     H77133   1.735   3.494  11.356 -0.9754  2.9308 -0.9541
  559MOL0     H77134   1.585   3.284  11.533 -0.7114 -0.1961  0.8896
  559MOL0     H77135   1.748   3.288  11.473  0.6346  1.4756 -0.6777
  559MOL0     H77136   1.724   3.338  11.724 -0.6818 -0.7945 -0.7364
  559MOL0     H77137   1.629   3.482  11.675  1.2486  2.4122 -0.1933
  559MOL0     H77138   2.011   3.637  11.572  0.0178 -0.7859 -2.1549
  559MOL0     H77139   1.634   3.069  11.113 -0.9121 -2.2719 -0.2479
  559MOL0     H77140   1.535   2.993  10.781  0.5621  0.5279 -0.5851
  559MOL0     H77141   1.639   2.939  10.919 -0.8932  0.3899  3.2990
  559MOL0     H77142   1.480   2.861  10.900 -1.1064  1.1784 -0.0784
  560MOL0     O77143   0.799   7.584   6.719 -0.7268  0.3250  0.0828
  560MOL0     C77144   0.769   7.663   6.803 -0.3818 -0.9826  0.3423
  560MOL0     O77145   0.715   7.786   6.778  0.0149 -0.2618 -0.0493
  560MOL0     C77146   0.666   7.796   6.656  0.5525  0.8412 -0.3750
  560MOL0     C77147   0.697   7.907   6.583  1.0325  0.0125 -0.6090
  560MOL0     C77148   0.636   7.929   6.465 -0.5242 -0.6310  0.9162
  560MOL0     C77149   0.547   7.837   6.412 -0.3271 -0.2956  0.3286
  560MOL0     O77150   0.477   7.850   6.293  0.6488  0.0755 -0.4169
  560MOL0     C77151   0.540   7.944   6.199  0.3071  0.6185 -0.1824
  560MOL0     C77152   0.480   7.952   6.058  0.2006  1.1072 -0.4425
  560MOL0     C77153   0.355   8.033   6.070  1.1871 -0.2336  0.5314
  560MOL0     C77154   0.378   8.189   6.073  0.2271 -0.0227  0.0362
  560MOL0     C77155   0.244   8.263   6.053  0.2239  0.2578 -0.5106
  560MOL0     C77156   0.167   8.299   6.177 -0.2445  1.2048 -0.0052
  560MOL0     C77157   0.026   8.342   6.132  0.2796 -0.1967 -0.1063
  560MOL0     C77158  -0.062   8.432   6.231 -0.6145 -0.2768 -0.9741
  560MOL0     N77159  -0.208   8.397   6.219  0.0246  0.1700 -0.5922
  560MOL0     C77160  -0.280   8.354   6.106  0.0670  0.3022  0.0745
  560MOL0     C77161  -0.413   8.341   6.135  0.3618 -0.0466  0.3263
  560MOL0     C77162  -0.520   8.313   6.020 -1.3321 -0.3121 -0.8173
  560MOL0     C77163  -0.487   8.362   5.875 -0.3495 -0.4451 -0.6501
  560MOL0     C77164  -0.611   8.350   5.785  0.5088 -0.2197 -0.8529
  560MOL0     C77165  -0.591   8.422   5.648 -0.1563 -0.5525  0.1390
  560MOL0     O77166  -0.596   8.566   5.658  0.0845 -0.0613  0.3757
  560MOL0     C77167  -0.627   8.638   5.546  0.4389 -0.5768  0.0791
  560MOL0     C77168  -0.683   8.760   5.557 -0.3250  0.3705 -0.3315
  560MOL0     C77169  -0.696   8.850   5.449 -0.1635  0.2928 -0.0678
  560MOL0     C77170  -0.741   8.990   5.487 -0.1875  0.1577  0.0774
  560MOL0     C77171  -0.665   8.803   5.318  0.4067  0.0317  0.8454
  560MOL0     C77172  -0.676   8.890   5.192 -0.4525  0.9145 -0.4837
  560MOL0     O77173  -0.692   8.834   5.072 -0.6925 -0.0583  0.2258
  560MOL0     C77174  -0.679   8.914   4.962 -0.2268  0.0652 -0.9171
  560MOL0     C77175  -0.778   9.000   4.925  0.1313 -0.3203 -0.1497
  560MOL0     C77176  -0.779   9.065   4.799  0.5037  0.1880 -0.7602
  560MOL0     C77177  -0.681   9.020   4.705  0.0661  0.1798  0.8241
  560MOL0     O77178  -0.682   9.066   4.572 -1.2473 -0.2199  0.6706
  560MOL0     C77179  -0.689   9.209   4.557  0.1212  1.0139 -0.6050
  560MOL0     C77180  -0.557   9.283   4.591  0.1467 -0.0258  0.3294
  560MOL0     C77181  -0.460   9.255   4.474  0.5784 -0.1163 -0.1326
  560MOL0     C77182  -0.311   9.287   4.513  0.6162 -0.0321 -0.4512
  560MOL0     C77183  -0.283   9.432   4.474  0.2942  0.1816 -0.9761
  560MOL0     C77184  -0.142   9.471   4.504  0.0307  0.2051  0.8711
  560MOL0     C77185  -0.097   9.615   4.493  0.0450 -0.2781 -0.5628
  560MOL0     C77186  -0.192   9.722   4.535  0.5706  0.3627 -0.4385
  560MOL0    Cl77187  -0.103   9.859   4.607  0.2404  0.1596 -0.8161
  560MOL0     C77188  -0.582   8.919   4.743  0.7448 -0.2144 -0.0068
  560MOL0     C77189  -0.580   8.882   4.878 -0.7620  0.8414 -0.3465
  560MOL0     O77190  -0.674   9.007   5.211  0.2962  0.5437 -0.0699
  560MOL0     C77191  -0.618   8.673   5.305 -0.5114  1.2679  0.3351
  560MOL0     C77192  -0.605   8.592   5.422 -0.2787 -0.3648 -0.1822
  560MOL0     N77193  -0.423   8.382   6.264  0.1604  0.1577 -0.5523
  560MOL0     N77194  -0.304   8.410   6.316  0.5075  0.0448 -0.0446
  560MOL0     C77195   0.510   7.719   6.483 -0.1857 -0.1830  0.1708
  560MOL0     C77196   0.569   7.704   6.601 -0.5113  0.1984  0.6585
  560MOL0     C77197   0.815   7.631   6.945  0.0416  0.5917  0.1016
  560MOL0     C77198   0.792   7.731   7.045  1.5973 -0.4851 -0.0260
  560MOL0     C77199   0.853   7.719   7.169  0.0623 -0.5517 -0.1609
  560MOL0     C77200   0.931   7.607   7.210  0.0297  0.4488 -0.3817
  560MOL0     O77201   0.981   7.607   7.338 -0.7169  0.1753  0.3643
  560MOL0     C77202   1.063   7.507   7.399  0.9451 -0.6598 -0.3319
  560MOL0     C77203   1.048   7.498   7.548 -0.6826 -0.3637  0.5745
  560MOL0     C77204   1.150   7.400   7.607 -0.4652  0.7344 -0.2266
  560MOL0     C77205   1.102   7.321   7.744  0.1796 -1.0274  0.6603
  560MOL0     C77206   1.019   7.401   7.836 -0.3240  0.0203 -0.1239
  560MOL0     C77207   0.953   7.454   7.927 -0.1539 -0.1724 -1.1536
  560MOL0     C77208   0.948   7.502   7.119  0.4057  1.5598 -0.8542
  560MOL0     C77209   0.887   7.511   6.991  0.5507 -0.3013  0.1738
  560MOL0     C77210   0.902   7.384   6.906 -0.5658  0.9899  0.0869
  560MOL0     H77211   0.762   7.985   6.621  0.9773  0.5367 -1.5637
  560MOL0     H77212   0.663   8.017   6.408 -2.5822 -1.8426 -2.2136
  560MOL0     H77213   0.637   7.895   6.192 -1.1293 -2.9107  1.8027
  560MOL0     H77214   0.561   8.045   6.236 -1.5189  0.5356  1.2333
  560MOL0     H77215   0.547   8.006   5.990 -1.4301  1.3707 -1.9246
  560MOL0     H77216   0.466   7.848   6.026 -0.0792  1.6538 -2.2241
  560MOL0     H77217   0.303   8.021   5.975  1.5461 -0.8304  0.4071
  560MOL0     H77218   0.300   8.002   6.159  0.8960  0.1690  0.4925
  560MOL0     H77219   0.418   8.214   6.172  1.2232  3.9647 -1.1940
  560MOL0     H77220   0.446   8.217   5.993 -1.2281  2.9321 -0.2922
  560MOL0     H77221   0.185   8.200   5.986  0.0073 -0.5856  0.4537
  560MOL0     H77222   0.271   8.355   5.999  2.3157 -0.8833 -1.4941
  560MOL0     H77223   0.153   8.220   6.251 -0.0122  0.3476 -0.8546
  560MOL0     H77224   0.227   8.373   6.232  3.3818 -1.4133 -0.1173
  560MOL0     H77225  -0.030   8.249   6.131 -2.1705  1.1731 -1.8886
  560MOL0     H77226   0.036   8.391   6.034  0.5442  0.8044  0.3980
  560MOL0     H77227  -0.029   8.409   6.333 -0.6725  1.3025 -0.5726
  560MOL0     H77228  -0.044   8.539   6.217 -2.2378 -0.2469 -3.4865
  560MOL0     H77229  -0.235   8.340   6.009  2.6325  0.1840  1.2018
  560MOL0     H77230  -0.612   8.363   6.053  0.7438  4.0697 -1.0864
  560MOL0     H77231  -0.528   8.204   6.023  0.4818 -0.4854 -1.3594
  560MOL0     H77232  -0.472   8.470   5.877 -2.3795  0.0461 -4.0629
  560MOL0     H77233  -0.401   8.324   5.818  0.9431  1.3005  0.0578
  560MOL0     H77234  -0.641   8.246   5.771  1.5648 -0.7035  0.2788
  560MOL0     H77235  -0.702   8.390   5.832  0.7607  1.5124 -1.7824
  560MOL0     H77236  -0.486   8.404   5.624 -0.2959  1.0290 -1.9271
  560MOL0     H77237  -0.666   8.397   5.573 -0.2742 -0.8502  0.3504
  560MOL0     H77238  -0.711   8.794   5.656  1.3338  0.3321  0.1788
  560MOL0     H77239  -0.826   9.015   5.421 -1.4196  0.6813  1.7900
  560MOL0     H77240  -0.666   9.066   5.464 -0.1349  0.4591  1.2101
  560MOL0     H77241  -0.782   8.997   5.588 -1.6056 -2.9696 -0.1616
  560MOL0     H77242  -0.861   9.025   4.990 -0.4412 -0.8055 -0.6840
  560MOL0     H77243  -0.861   9.135   4.796  0.1400 -0.2048 -0.2478
  560MOL0     H77244  -0.725   9.217   4.454 -2.5862  0.3300  0.1898
  560MOL0     H77245  -0.770   9.259   4.611  0.5474  0.6879  0.3598
  560MOL0     H77246  -0.572   9.391   4.579  2.1823  0.1838 -0.6069
  560MOL0     H77247  -0.510   9.256   4.686  0.9832  1.4938  0.3796
  560MOL0     H77248  -0.494   9.310   4.385 -1.8317  2.3157  2.0992
  560MOL0     H77249  -0.456   9.147   4.459  1.7244 -0.0810 -0.1697
  560MOL0     H77250  -0.252   9.215   4.456 -3.8421 -3.1862 -1.6901
  560MOL0     H77251  -0.295   9.273   4.621 -3.0172 -3.0123 -0.0717
  560MOL0     H77252  -0.289   9.435   4.365  1.1243  0.2889 -1.0240
  560MOL0     H77253  -0.358   9.494   4.524  0.7763  0.0643 -0.0840
  560MOL0     H77254  -0.075   9.405   4.448 -1.3802 -0.4350 -0.1096
  560MOL0     H77255  -0.120   9.468   4.611 -0.0660  2.6746  1.0135
  560MOL0     H77256  -0.074   9.643   4.390 -0.3325  0.1828 -0.5229
  560MOL0     H77257  -0.002   9.633   4.545  0.6804 -2.0864 -1.0157
  560MOL0     H77258  -0.249   9.671   4.614 -0.7402 -1.1327 -2.2528
  560MOL0     H77259  -0.251   9.756   4.449  0.4210  1.5316  0.1075
  560MOL0     H77260  -0.516   8.879   4.666 -0.3178  1.5952 -1.9560
  560MOL0     H77261  -0.499   8.817   4.908  1.6213  3.1492 -1.3619
  560MOL0     H77262  -0.588   8.627   5.212 -1.2549  0.5226  0.4560
  560MOL0     H77263  -0.554   8.496   5.419  3.6593  1.3945  2.0540
  560MOL0     H77264   0.436   7.645   6.454 -0.8813 -0.4491  2.4517
  560MOL0     H77265   0.549   7.612   6.654  3.0397 -0.1014  1.7393
  560MOL0     H77266   0.735   7.821   7.024 -0.4212 -1.4357  1.0501
  560MOL0     H77267   0.855   7.798   7.243  0.1582 -0.7806  0.0831
  560MOL0     H77268   1.020   7.411   7.368 -0.2022 -1.2125  2.6422
  560MOL0     H77269   1.168   7.524   7.373  1.7122 -1.9697  1.6385
  560MOL0     H77270   0.950   7.465   7.584  0.6349 -1.1473  3.7878
  560MOL0     H77271   1.070   7.599   7.584  0.7703 -0.3690 -0.2338
  560MOL0     H77272   1.168   7.327   7.528  0.3546  0.3355  0.3196
  560MOL0     H77273   1.237   7.463   7.631 -1.7217  1.6546  2.3465
  560MOL0     H77274   1.191   7.295   7.803  2.1874  2.2170 -0.6361
  560MOL0     H77275   1.043   7.237   7.708  0.1049 -0.6955 -0.0129
  560MOL0     H77276   0.891   7.507   7.997 -2.9041 -1.2973 -2.5784
  560MOL0     H77277   1.002   7.413   7.149  0.3316  2.0980  1.0076
  560MOL0     H77278   0.975   7.414   6.831  1.5636  0.3492  1.8001
  560MOL0     H77279   0.935   7.304   6.973  0.5374  0.5076 -0.9832
  560MOL0     H77280   0.804   7.353   6.868  1.4196 -2.3960 -2.9804
  561MOL0     O77281   1.788   2.260  10.898  0.0223  0.4261  0.0888
  561MOL0     C77282   1.769   2.249  10.776 -0.3224  0.5485 -0.4279
  561MOL0     O77283   1.839   2.163  10.693  1.6907 -0.3225  0.1692
  561MOL0     C77284   1.944   2.085  10.727 -0.5077  0.5483  0.3670
  561MOL0     C77285   1.976   2.035  10.855 -0.1276 -0.1856 -0.3614
  561MOL0     C77286   2.088   1.948  10.873  0.3811 -0.6557  0.1153
  561MOL0     C77287   2.173   1.912  10.766  0.5356 -0.0370 -0.3699
  561MOL0     O77288   2.287   1.843  10.797 -0.1738  0.1355  0.1164
  561MOL0     C77289   2.359   1.800  10.685 -0.8834 -0.0428  0.6426
  561MOL0     C77290   2.419   1.661  10.712 -0.7953  0.7127 -0.1285
  561MOL0     C77291   2.562   1.664  10.777  0.0154 -0.2081  0.1481
  561MOL0     C77292   2.568   1.693  10.921  0.3320  0.1319  0.8305
  561MOL0     C77293   2.701   1.757  10.975 -0.4019 -0.3418  0.0980
  561MOL0     C77294   2.665   1.829  11.100  0.3628  0.1620 -0.2472
  561MOL0     C77295   2.778   1.920  11.145  0.6042 -0.0738 -0.2956
  561MOL0     C77296   2.782   2.046  11.060  0.1781 -1.4688  0.2260
  561MOL0     N77297   2.882   2.144  11.110 -0.0681 -0.7092  0.5589
  561MOL0     C77298   2.867   2.278  11.150 -0.8991  0.8292  0.2795
  561MOL0     C77299   2.975   2.310  11.214 -0.8940  0.5624 -0.1271
  561MOL0     C77300   3.018   2.440  11.268 -0.0031 -0.1089  0.3486
  561MOL0     C77301   3.077   2.427  11.413 -1.0049 -0.3222 -0.1975
  561MOL0     C77302   3.101   2.566  11.476 -1.0170 -0.8369  0.2112
  561MOL0     C77303   3.179   2.654  11.385 -0.8227  0.8160  0.5210
  561MOL0     O77304   3.218   2.783  11.430  0.3643  0.5995 -0.2416
  561MOL0     C77305   3.351   2.786  11.471  0.5253  1.1465 -0.7540
  561MOL0     C77306   3.452   2.817  11.386  0.3135  0.0270  0.1118
  561MOL0     C77307   3.582   2.789  11.418 -0.9936  0.4095 -0.2609
  561MOL0     C77308   3.683   2.811  11.312 -0.4800  0.2929  0.7532
  561MOL0     C77309   3.614   2.766  11.554  0.2462  0.4339 -0.5429
  561MOL0     C77310   3.753   2.766  11.604 -0.0403  0.1234  0.5517
  561MOL0     O77311   3.785   2.850  11.713 -0.3038 -0.3028  0.6511
  561MOL0     C77312   3.897   2.806  11.781  0.3367 -0.2973  0.1358
  561MOL0     C77313   3.878   2.699  11.873  0.0152  0.0687 -0.8734
  561MOL0     C77314   3.991   2.651  11.941 -0.8622  0.8177  0.4657
  561MOL0     C77315   4.121   2.722  11.928 -0.0348 -0.2656  0.5515
  561MOL0     O77316   4.227   2.683  12.007  0.7282 -0.0271 -0.5447
  561MOL0     C77317   4.332   2.773  12.043  0.7984 -0.1660  0.8740
  561MOL0     C77318   4.420   2.708  12.153  0.1120  0.4364  1.0166
  561MOL0     C77319   4.495   2.811  12.228 -0.3410 -0.5488 -0.4125
  561MOL0     C77320   4.617   2.742  12.275  0.5395  0.6425 -0.0998
  561MOL0     C77321   4.705   2.844  12.362  0.5141 -0.0404 -0.1735
  561MOL0     C77322   4.832   2.778  12.394 -0.2223 -0.9999 -0.1498
  561MOL0     C77323   4.942   2.828  12.298 -0.4927  0.0749 -0.0457
  561MOL0     C77324   5.066   2.741  12.317  0.0828 -0.1062  0.0054
  561MOL0    Cl77325   5.044   2.567  12.320  0.3735  0.1865  0.1636
  561MOL0     C77326   4.137   2.823  11.831  0.4120 -0.0255 -0.9212
  561MOL0     C77327   4.023   2.865  11.760 -0.1854 -0.8999  0.0019
  561MOL0     O77328   3.826   2.681  11.557  0.4905  0.1959 -0.2876
  561MOL0     C77329   3.515   2.747  11.646  0.1085 -1.0370 -0.7972
  561MOL0     C77330   3.382   2.753  11.603  0.2658 -0.4586 -0.7964
  561MOL0     N77331   3.055   2.198  11.213 -0.0425 -0.2278  0.2167
  561MOL0     N77332   2.993   2.106  11.165  0.9371 -0.0683  0.8345
  561MOL0     C77333   2.141   1.969  10.638  0.1562 -0.1114  0.0136
  561MOL0     C77334   2.034   2.059  10.618 -0.0167 -0.5935  0.2493
  561MOL0     C77335   1.673   2.342  10.714 -0.0053  0.7573  0.4104
  561MOL0     C77336   1.573   2.291  10.624 -0.4250 -0.1547  0.2443
  561MOL0     C77337   1.470   2.380  10.569 -0.3048  0.8161 -0.2355
  561MOL0     C77338   1.482   2.516  10.583  0.0946 -0.1859  0.3084
  561MOL0     O77339   1.379   2.590  10.537 -0.2844  0.1784  0.7864
  561MOL0     C77340   1.373   2.729  10.546 -0.4818  0.1976 -0.0920
  561MOL0     C77341   1.282   2.778  10.442  1.0785  0.1237 -0.7916
  561MOL0     C77342   1.322   2.732  10.297  0.1616  1.1838 -0.0401
  561MOL0     C77343   1.458   2.772  10.244 -0.4937  0.0461 -0.7775
  561MOL0     C77344   1.476   2.707  10.113 -0.9205 -0.6731 -0.1815
  561MOL0     C77345   1.495   2.667  10.003  0.3031 -0.7023  0.3582
  561MOL0     C77346   1.582   2.563  10.674  0.9939  0.6295 -0.0408
  561MOL0     C77347   1.675   2.482  10.735 -0.2536  0.4792 -0.0205
  561MOL0     C77348   1.785   2.545  10.812 -0.3340 -0.7332  0.8259
  561MOL0     H77349   1.925   2.055  10.948 -0.6600  0.5691 -0.8003
  561MOL0     H77350   2.117   1.914  10.971  1.0370  0.5050  0.3445
  561MOL0     H77351   2.430   1.878  10.657  0.1323 -0.7871  1.0646
  561MOL0     H77352   2.290   1.785  10.601 -1.5550  1.2931  0.9340
  561MOL0     H77353   2.352   1.609  10.781 -0.7681  0.1611 -0.5088
  561MOL0     H77354   2.406   1.609  10.616 -0.9181 -2.2133  1.3466
  561MOL0     H77355   2.597   1.564  10.750  2.1999 -0.1469  2.4067
  561MOL0     H77356   2.625   1.742  10.732 -0.8933  0.1131 -0.5965
  561MOL0     H77357   2.478   1.748  10.952  0.4771  1.2777 -0.6594
  561MOL0     H77358   2.553   1.600  10.977  0.7424 -0.3141  0.2076
  561MOL0     H77359   2.727   1.836  10.904  0.7251 -1.1314 -0.3954
  561MOL0     H77360   2.776   1.678  10.981  0.0880  0.1280  0.2395
  561MOL0     H77361   2.571   1.885  11.097  0.6129  0.6119  0.1716
  561MOL0     H77362   2.656   1.759  11.184 -1.1008  2.8551  2.0120
  561MOL0     H77363   2.876   1.872  11.145 -0.2134 -1.8126 -1.0411
  561MOL0     H77364   2.763   1.956  11.247 -0.3268  0.5926 -0.6524
  561MOL0     H77365   2.800   2.016  10.957 -0.1596  2.3292 -1.0878
  561MOL0     H77366   2.682   2.087  11.075  1.3922  1.8498  0.0098
  561MOL0     H77367   2.787   2.349  11.133 -1.1433  0.4017 -0.4002
  561MOL0     H77368   2.932   2.508  11.270  0.0845 -0.0017  0.4638
  561MOL0     H77369   3.091   2.476  11.196  0.5097  0.6515  1.2284
  561MOL0     H77370   3.008   2.376  11.481 -2.2819 -1.1258 -2.0148
  561MOL0     H77371   3.169   2.367  11.412 -1.0052 -0.3226 -0.2325
  561MOL0     H77372   3.006   2.616  11.495 -1.9708 -2.6179  0.3775
  561MOL0     H77373   3.173   2.547  11.556  1.1387  0.1244 -1.4008
  561MOL0     H77374   3.269   2.597  11.359 -0.0928  1.7111  1.0124
  561MOL0     H77375   3.134   2.664  11.285  0.1034  0.6907  0.0802
  561MOL0     H77376   3.421   2.835  11.284 -3.0991  2.5117  1.4018
  561MOL0     H77377   3.760   2.881  11.345  2.6315 -2.4561 -0.1007
  561MOL0     H77378   3.629   2.849  11.225  2.7468  1.2860 -0.9710
  561MOL0     H77379   3.735   2.719  11.281 -1.6889 -0.4855  0.9608
  561MOL0     H77380   3.781   2.657  11.900  1.2133 -0.9606  2.3633
  561MOL0     H77381   3.981   2.569  12.011 -0.4970  1.0929  0.8440
  561MOL0     H77382   4.386   2.794  11.950 -1.9195  1.7465 -0.4297
  561MOL0     H77383   4.286   2.864  12.083 -0.6866 -1.1996  1.6139
  561MOL0     H77384   4.360   2.658  12.231  0.5060  0.1999  1.1712
  561MOL0     H77385   4.487   2.636  12.106  0.0275  1.7669 -1.3045
  561MOL0     H77386   4.436   2.851  12.310  0.0260  2.2841 -1.4087
  561MOL0     H77387   4.508   2.906  12.175  1.3336 -0.7441 -0.4222
  561MOL0     H77388   4.665   2.698  12.187 -2.6882 -1.5738 -0.9238
  561MOL0     H77389   4.594   2.659  12.342  3.1719 -0.5647 -0.5493
  561MOL0     H77390   4.726   2.937  12.309 -2.2339  0.0185 -1.3093
  561MOL0     H77391   4.644   2.879  12.446  0.1261 -2.4759  0.6388
  561MOL0     H77392   4.811   2.670  12.396  1.8447 -1.4797 -1.6293
  561MOL0     H77393   4.857   2.794  12.500 -1.9915 -1.2602  0.3449
  561MOL0     H77394   4.954   2.936  12.316  0.8665 -0.2188  0.9576
  561MOL0     H77395   4.910   2.804  12.196 -2.4143  0.3658  0.4513
  561MOL0     H77396   5.116   2.770  12.410  1.0106  0.6185 -0.6995
  561MOL0     H77397   5.139   2.762  12.238 -0.5305  1.0717 -0.2723
  561MOL0     H77398   4.235   2.861  11.804 -0.7218  2.0388 -2.3448
  561MOL0     H77399   4.033   2.930  11.674 -2.3262 -1.2484 -0.5532
  561MOL0     H77400   3.534   2.731  11.752  0.8404  3.8658  0.0614
  561MOL0     H77401   3.304   2.731  11.676  0.2580 -0.1854 -0.7214
  561MOL0     H77402   2.208   1.952  10.554  2.1585  0.6560  1.3947
  561MOL0     H77403   2.004   2.098  10.522  1.5323 -0.1972 -0.1049
  561MOL0     H77404   1.570   2.188  10.591  1.3205 -0.1242 -0.0721
  561MOL0     H77405   1.398   2.336  10.501  1.5705 -1.8963 -0.6151
  561MOL0     H77406   1.344   2.751  10.649 -2.0065  0.2146 -0.5126
  561MOL0     H77407   1.471   2.777  10.537  1.0422 -2.1404  2.5701
  561MOL0     H77408   1.277   2.887  10.449 -0.2224  0.1597 -1.9387
  561MOL0     H77409   1.182   2.738  10.458 -0.6616  3.6724 -1.9478
  561MOL0     H77410   1.327   2.623  10.295  0.3239  1.1989 -0.5200
  561MOL0     H77411   1.251   2.756  10.218 -1.8343 -1.5793  0.7797
  561MOL0     H77412   1.538   2.725  10.302 -0.7414 -0.5354 -0.9057
  561MOL0     H77413   1.468   2.881  10.243  0.6975  0.0673  2.6003
  561MOL0     H77414   1.492   2.624   9.905 -1.1074 -1.1785  0.5893
  561MOL0     H77415   1.590   2.665  10.711 -0.4268  0.8739 -0.3468
  561MOL0     H77416   1.755   2.559  10.917  2.2887 -0.0733  1.5757
  561MOL0     H77417   1.871   2.477  10.818 -0.4016 -0.8485  0.4706
  561MOL0     H77418   1.816   2.641  10.770 -0.2933 -0.2513  1.9085
  562MOL0     O77419   2.455   4.344   0.030 -0.0464 -0.3152  0.7759
  562MOL0     C77420   2.558   4.286   0.014 -0.1764 -0.3484  0.1038
  562MOL0     O77421   2.580   4.191  -0.081  0.4189 -0.5129  0.4118
  562MOL0     C77422   2.476   4.109  -0.106 -0.8345  0.7602  1.4272
  562MOL0     C77423   2.401   4.040  -0.012 -1.2632  0.9812 -0.2191
  562MOL0     C77424   2.304   3.954  -0.048  0.4619 -0.1002  0.4222
  562MOL0     C77425   2.270   3.938  -0.183 -0.7534  0.1932  0.1434
  562MOL0     O77426   2.173   3.852  -0.194  0.5257  0.2760  0.4076
  562MOL0     C77427   2.126   3.833  -0.329 -0.0335  0.0539 -0.8464
  562MOL0     C77428   2.004   3.746  -0.342  0.2111 -0.0428 -0.5489
  562MOL0     C77429   1.978   3.701  -0.488  0.2335 -0.0985 -0.1147
  562MOL0     C77430   1.840   3.630  -0.480 -1.4162  0.2352 -0.1282
  562MOL0     C77431   1.775   3.548  -0.587 -0.3047 -0.1468 -0.7546
  562MOL0     C77432   1.870   3.437  -0.628 -0.6127 -0.9888  0.0904
  562MOL0     C77433   1.816   3.342  -0.737 -0.0963 -0.3120  0.2419
  562MOL0     C77434   1.922   3.225  -0.763  0.9790 -0.4046  0.2198
  562MOL0     N77435   1.874   3.124  -0.860 -0.8345 -0.5551  0.7858
  562MOL0     C77436   1.840   3.150  -0.986  0.4638  0.1124  0.3592
  562MOL0     C77437   1.806   3.026  -1.031 -0.6175 -0.0902 -1.0864
  562MOL0     C77438   1.767   3.010  -1.181 -0.3341  0.8416 -0.0630
  562MOL0     C77439   1.853   3.107  -1.275  0.0819 -0.0482 -0.2383
  562MOL0     C77440   1.998   3.070  -1.290 -0.2214  0.5024 -0.3742
  562MOL0     C77441   2.020   2.921  -1.329  0.2951  1.0953  0.1436
  562MOL0     O77442   1.935   2.875  -1.427 -0.1316 -0.0202 -0.6866
  562MOL0     C77443   1.944   2.889  -1.563 -1.0320 -0.3617 -0.1845
  562MOL0     C77444   2.025   2.982  -1.622 -0.6317  0.0470  0.2387
  562MOL0     C77445   2.047   2.974  -1.762  0.3118  0.5446 -0.0094
  562MOL0     C77446   2.150   3.092  -1.807  0.2028  0.9114  0.2085
  562MOL0     C77447   1.975   2.885  -1.845 -1.6167  0.3487 -0.1309
  562MOL0     C77448   1.987   2.899  -1.992 -0.1248 -0.1195  0.6447
  562MOL0     O77449   1.887   2.843  -2.062  0.1095 -0.2630  0.3560
  562MOL0     C77450   1.889   2.825  -2.197  1.1825 -0.6052 -0.6154
  562MOL0     C77451   1.977   2.883  -2.292 -0.2521  0.3541 -0.1155
  562MOL0     C77452   1.978   2.836  -2.426 -0.5209 -0.0768 -0.3335
  562MOL0     C77453   1.894   2.733  -2.466  0.5939  0.6006  0.1114
  562MOL0     O77454   1.871   2.706  -2.596  0.3961  0.8212 -0.8078
  562MOL0     C77455   1.968   2.614  -2.659  0.0110  0.6438  0.3476
  562MOL0     C77456   1.905   2.466  -2.669 -0.8385  0.7016  0.3334
  562MOL0     C77457   1.810   2.466  -2.790 -0.1678 -0.0799 -0.1659
  562MOL0     C77458   1.762   2.329  -2.834  0.9370  0.0262 -0.3967
  562MOL0     C77459   1.658   2.318  -2.945  0.2915  0.1209  0.7149
  562MOL0     C77460   1.639   2.171  -2.967  0.3024  0.0767 -1.4623
  562MOL0     C77461   1.539   2.142  -3.079 -0.0004  0.9005  0.0141
  562MOL0     C77462   1.450   2.023  -3.059 -0.2080 -0.1709  0.1448
  562MOL0    Cl77463   1.540   1.881  -3.086  0.1062 -0.0220 -0.1852
  562MOL0     C77464   1.810   2.667  -2.371 -0.0514  0.0795 -0.7050
  562MOL0     C77465   1.806   2.712  -2.238 -0.1329 -0.0894 -0.2464
  562MOL0     O77466   2.090   2.944  -2.046  0.4383  0.4489 -0.4211
  562MOL0     C77467   1.886   2.805  -1.775  0.7952  0.6564  0.6649
  562MOL0     C77468   1.874   2.799  -1.635  0.5620  0.1140 -0.0409
  562MOL0     N77469   1.816   2.931  -0.933 -0.6250  0.8204 -0.0422
  562MOL0     N77470   1.863   2.991  -0.830  0.1496 -0.6555 -0.5488
  562MOL0     C77471   2.341   4.006  -0.284 -0.8046 -0.0371  0.0057
  562MOL0     C77472   2.446   4.090  -0.239 -0.5835  0.6416  0.8772
  562MOL0     C77473   2.683   4.331   0.088 -0.4908 -0.5189  0.1553
  562MOL0     C77474   2.814   4.280   0.053 -0.3328 -0.3156  0.1135
  562MOL0     C77475   2.932   4.324   0.116 -0.4573 -0.0468  0.5496
  562MOL0     C77476   2.932   4.438   0.201 -0.3735 -0.0099 -0.9946
  562MOL0     O77477   3.035   4.518   0.237 -0.3492 -0.5545  0.5590
  562MOL0     C77478   3.165   4.451   0.263 -0.0338 -0.0985 -0.9618
  562MOL0     C77479   3.163   4.360   0.386 -0.3819 -0.1681 -0.2585
  562MOL0     C77480   3.174   4.451   0.513 -0.4986 -0.3986  0.2168
  562MOL0     C77481   3.143   4.363   0.632  0.8223  0.1849 -0.5168
  562MOL0     C77482   3.256   4.271   0.652  0.4328  0.2965  0.0857
  562MOL0     C77483   3.343   4.193   0.678  0.5886 -0.6957  0.1137
  562MOL0     C77484   2.812   4.483   0.238  0.6952  0.1142  0.8810
  562MOL0     C77485   2.683   4.436   0.183 -0.1674 -0.3456  0.0705
  562MOL0     C77486   2.560   4.518   0.206 -0.9426  0.0011 -0.4737
  562MOL0     H77487   2.432   4.049   0.092  0.8742 -2.0726 -0.4469
  562MOL0     H77488   2.250   3.906   0.032  1.2742 -2.0668 -0.1405
  562MOL0     H77489   2.204   3.790  -0.393  1.8870  0.5761  1.0312
  562MOL0     H77490   2.094   3.931  -0.364  0.1163  0.0807 -0.9054
  562MOL0     H77491   2.024   3.651  -0.292  1.8125  1.2920  1.5152
  562MOL0     H77492   1.918   3.794  -0.295  0.2085 -0.2592 -0.3327
  562MOL0     H77493   1.977   3.784  -0.559  2.1223 -2.0228 -2.5566
  562MOL0     H77494   2.049   3.630  -0.532 -1.1807 -2.4785  1.2287
  562MOL0     H77495   1.860   3.555  -0.402  0.2537  0.8839  0.1117
  562MOL0     H77496   1.772   3.704  -0.438 -0.9652  1.4175 -1.4347
  562MOL0     H77497   1.755   3.614  -0.672  0.0376  1.2112  0.1860
  562MOL0     H77498   1.680   3.500  -0.565 -0.2245 -0.8463 -1.8519
  562MOL0     H77499   1.968   3.476  -0.659 -0.3012 -0.1579  1.9123
  562MOL0     H77500   1.900   3.380  -0.539 -0.3486 -0.7888  0.1321
  562MOL0     H77501   1.802   3.395  -0.832  4.3866  2.2894  0.7227
  562MOL0     H77502   1.722   3.299  -0.702  0.9939 -2.2747  0.9107
  562MOL0     H77503   2.018   3.257  -0.803  0.8352 -1.8168 -1.3814
  562MOL0     H77504   1.939   3.172  -0.668  0.4018 -2.0196 -0.5373
  562MOL0     H77505   1.843   3.244  -1.041  4.5660  1.7755  2.8732
  562MOL0     H77506   1.661   3.035  -1.193 -0.7548  0.5267  2.4063
  562MOL0     H77507   1.772   2.906  -1.215 -2.3530  0.1595  1.4908
  562MOL0     H77508   1.818   3.093  -1.378  3.1113 -1.4195 -1.2077
  562MOL0     H77509   1.844   3.212  -1.245  0.2216 -0.4580  1.3380
  562MOL0     H77510   2.059   3.126  -1.362 -0.6498  2.0700  0.4353
  562MOL0     H77511   2.052   3.095  -1.198  1.0240 -2.6298 -0.1398
  562MOL0     H77512   2.125   2.914  -1.358  0.8232  0.2893  2.0734
  562MOL0     H77513   2.021   2.861  -1.237 -5.9233  0.5413  0.2347
  562MOL0     H77514   2.073   3.060  -1.564 -4.0181  0.8445  2.2384
  562MOL0     H77515   2.231   3.029  -1.844 -0.8616 -0.1781 -0.3485
  562MOL0     H77516   2.186   3.168  -1.737  0.6690  3.1168 -2.3083
  562MOL0     H77517   2.107   3.152  -1.888 -2.3604  1.4208  1.8152
  562MOL0     H77518   2.047   2.966  -2.286  0.6837 -0.4644  0.7093
  562MOL0     H77519   2.039   2.879  -2.504 -1.0040 -1.5736 -1.5975
  562MOL0     H77520   1.991   2.642  -2.763  0.9770 -3.1102 -0.6173
  562MOL0     H77521   2.062   2.620  -2.604  1.2699 -0.3008 -1.5727
  562MOL0     H77522   1.991   2.401  -2.690  1.1887  3.9191 -2.4334
  562MOL0     H77523   1.849   2.442  -2.579 -2.2556 -1.2172 -0.9684
  562MOL0     H77524   1.844   2.524  -2.877 -1.6659  2.6231  0.9141
  562MOL0     H77525   1.713   2.508  -2.763  0.7882  1.0964  1.6246
  562MOL0     H77526   1.727   2.284  -2.740  1.0452  1.7727  0.5208
  562MOL0     H77527   1.857   2.280  -2.857  1.9385  1.5117  0.4415
  562MOL0     H77528   1.572   2.385  -2.937  1.6270  2.3981 -1.9092
  562MOL0     H77529   1.699   2.354  -3.040 -0.0740  0.1332  0.5595
  562MOL0     H77530   1.607   2.139  -2.867  0.7804  2.5409 -0.4423
  562MOL0     H77531   1.729   2.115  -2.993 -1.4784 -3.9294  0.0520
  562MOL0     H77532   1.592   2.127  -3.173 -2.7596 -2.1108 -1.2452
  562MOL0     H77533   1.470   2.227  -3.088 -0.1504  1.2998  3.5475
  562MOL0     H77534   1.364   2.026  -3.128 -0.9450  0.1865  1.0644
  562MOL0     H77535   1.406   2.015  -2.960  2.1816 -2.3844  1.1504
  562MOL0     H77536   1.731   2.597  -2.399 -1.3091  1.5606 -0.9979
  562MOL0     H77537   1.744   2.669  -2.160  0.3929  1.3332  1.0173
  562MOL0     H77538   1.818   2.747  -1.837  2.4532  0.0004 -0.6080
  562MOL0     H77539   1.807   2.727  -1.590  0.0309 -0.3587 -1.5364
  562MOL0     H77540   2.311   3.990  -0.388  1.2934 -2.6741 -0.2823
  562MOL0     H77541   2.508   4.148  -0.307  2.2084 -2.9364 -0.0197
  562MOL0     H77542   2.823   4.205  -0.025  0.0132 -2.0598  1.7251
  562MOL0     H77543   3.029   4.281   0.091 -0.5663 -0.5931  1.0275
  562MOL0     H77544   3.194   4.381   0.184  1.1998 -0.6468 -0.0673
  562MOL0     H77545   3.236   4.534   0.278 -0.2111  0.0221 -0.7896
  562MOL0     H77546   3.255   4.301   0.394  0.6469  1.4168  0.2050
  562MOL0     H77547   3.076   4.295   0.377 -1.4705  1.3806 -1.6128
  562MOL0     H77548   3.271   4.502   0.515 -0.2505 -0.6704 -1.9274
  562MOL0     H77549   3.099   4.530   0.500  1.5038  1.2346 -2.5262
  562MOL0     H77550   3.050   4.308   0.617 -0.4788  2.4639 -1.1523
  562MOL0     H77551   3.126   4.415   0.727 -3.0444 -1.3562 -0.1828
  562MOL0     H77552   3.414   4.121   0.712  2.8743  0.2705 -2.2965
  562MOL0     H77553   2.808   4.578   0.291 -0.8221  3.1631 -4.0375
  562MOL0     H77554   2.481   4.453   0.246 -2.3361  0.8607 -1.6776
  562MOL0     H77555   2.576   4.594   0.283 -2.9876 -0.4796  0.5033
  562MOL0     H77556   2.524   4.572   0.117 -1.0515 -2.0655 -1.7611
  563MOL0     O77557   7.142   9.555   0.783  0.8710  0.1005 -0.3961
  563MOL0     C77558   7.169   9.455   0.844  1.0358  0.5659 -0.0210
  563MOL0     O77559   7.119   9.328   0.819 -0.5203  0.8405  0.4602
  563MOL0     C77560   7.010   9.311   0.737  0.1667  1.2306  0.7389
  563MOL0     C77561   6.879   9.322   0.789  0.2231 -0.1314  0.4980
  563MOL0     C77562   6.763   9.324   0.704 -0.6042 -0.1175  0.2860
  563MOL0     C77563   6.777   9.294   0.567 -0.5580 -0.7030 -0.2018
  563MOL0     O77564   6.668   9.313   0.492 -0.2807 -0.3272 -0.4680
  563MOL0     C77565   6.637   9.206   0.396 -0.6422 -1.0208  0.2496
  563MOL0     C77566   6.499   9.217   0.337 -0.7553  1.7669  0.0282
  563MOL0     C77567   6.384   9.215   0.445  0.5972 -0.4052 -0.6210
  563MOL0     C77568   6.247   9.245   0.368  0.3822 -0.4245 -1.1553
  563MOL0     C77569   6.202   9.159   0.250  0.0427  0.1260 -1.5984
  563MOL0     C77570   6.137   9.030   0.286  0.2081 -0.2249 -0.3608
  563MOL0     C77571   6.113   8.939   0.162 -0.1880 -0.1218  0.0807
  563MOL0     C77572   6.054   8.806   0.206  0.7604 -0.5084  0.3756
  563MOL0     N77573   5.910   8.813   0.220  0.6847 -1.0144 -0.0654
  563MOL0     C77574   5.822   8.745   0.138 -0.4143  0.6034 -0.3496
  563MOL0     C77575   5.706   8.736   0.202 -0.2770  0.7450 -0.0707
  563MOL0     C77576   5.587   8.661   0.163 -0.5895 -0.0519 -0.1541
  563MOL0     C77577   5.587   8.529   0.247 -0.8844 -0.4378  0.8166
  563MOL0     C77578   5.530   8.543   0.390  0.1794 -0.3093 -0.4020
  563MOL0     C77579   5.584   8.440   0.486 -0.4573 -0.0253 -0.1666
  563MOL0     O77580   5.725   8.462   0.487  0.0830 -0.3971 -0.2577
  563MOL0     C77581   5.793   8.412   0.597 -1.1250 -0.4329  0.3502
  563MOL0     C77582   5.920   8.466   0.634 -0.9258  0.0026 -0.1442
  563MOL0     C77583   5.993   8.437   0.753 -1.0031 -0.2118 -0.1747
  563MOL0     C77584   6.106   8.525   0.783 -0.9113 -1.1625  0.5143
  563MOL0     C77585   5.933   8.353   0.851  1.2498 -0.1599  0.1201
  563MOL0     C77586   5.975   8.325   0.986  0.8172  1.3596  0.5520
  563MOL0     O77587   6.076   8.399   1.047  0.1017 -0.3289 -0.4176
  563MOL0     C77588   6.055   8.458   1.167  0.2876  0.2093  0.1487
  563MOL0     C77589   6.121   8.579   1.174 -1.0503  0.4517 -0.1706
  563MOL0     C77590   6.131   8.636   1.304  0.3480 -0.7272 -0.0582
  563MOL0     C77591   6.087   8.572   1.418  0.5932 -0.6915 -0.0488
  563MOL0     O77592   6.114   8.632   1.537  0.1020 -0.5915  0.2646
  563MOL0     C77593   6.049   8.594   1.654 -0.6910  0.3165  0.4386
  563MOL0     C77594   6.100   8.686   1.751 -0.0875 -0.5898 -0.3620
  563MOL0     C77595   6.061   8.657   1.897  0.2359  0.4739 -0.9434
  563MOL0     C77596   6.124   8.754   2.000 -0.8922 -0.5826  0.1192
  563MOL0     C77597   6.072   8.713   2.138 -0.7920  0.3132  0.1064
  563MOL0     C77598   6.084   8.824   2.252 -0.2253  0.2538  0.1878
  563MOL0     C77599   6.223   8.886   2.264  0.5638  1.1932 -1.3967
  563MOL0     C77600   6.307   8.790   2.349  0.2238  0.7391 -0.0667
  563MOL0    Cl77601   6.247   8.774   2.522  0.2808 -0.1002 -0.3678
  563MOL0     C77602   6.023   8.442   1.410  0.0281 -1.3312  0.4685
  563MOL0     C77603   6.021   8.382   1.278 -0.1722 -0.3794 -0.2469
  563MOL0     O77604   5.935   8.220   1.032 -0.1241  0.2504 -0.5183
  563MOL0     C77605   5.811   8.292   0.803  0.3362 -0.3408 -1.3462
  563MOL0     C77606   5.744   8.325   0.686 -0.0097 -0.1794  0.3241
  563MOL0     N77607   5.722   8.809   0.323 -0.5763  0.4018 -0.6865
  563MOL0     N77608   5.847   8.839   0.333 -0.3722 -0.0062  1.0778
  563MOL0     C77609   6.905   9.261   0.519  0.2239  0.5084  0.6823
  563MOL0     C77610   7.021   9.273   0.601  0.1543  0.1256  0.2379
  563MOL0     C77611   7.264   9.458   0.950  0.4503  0.5297 -0.4415
  563MOL0     C77612   7.367   9.357   0.955  0.1511 -0.1711  0.2795
  563MOL0     C77613   7.454   9.365   1.064  0.5159  1.3367 -0.1668
  563MOL0     C77614   7.449   9.446   1.170 -0.3089 -0.2174  0.4317
  563MOL0     O77615   7.540   9.446   1.269  0.0406 -0.0806  0.0159
  563MOL0     C77616   7.618   9.325   1.298 -0.6015 -0.4511 -0.3527
  563MOL0     C77617   7.683   9.331   1.438  0.0118 -0.0212  0.7797
  563MOL0     C77618   7.788   9.217   1.466 -0.4462 -0.8266 -0.0921
  563MOL0     C77619   7.931   9.256   1.422  0.3362 -0.5242 -0.4628
  563MOL0     C77620   8.025   9.150   1.433 -0.8025  0.4868  0.0043
  563MOL0     C77621   8.106   9.063   1.433 -0.1869  0.6946 -0.6316
  563MOL0     C77622   7.345   9.542   1.158  0.0435  0.2799 -0.6273
  563MOL0     C77623   7.257   9.562   1.050 -0.6119 -0.2081 -0.2029
  563MOL0     C77624   7.154   9.677   1.042  0.1961  1.0006  0.3213
  563MOL0     H77625   6.866   9.347   0.894 -4.2079 -2.3450  0.7147
  563MOL0     H77626   6.672   9.349   0.756 -0.1162  1.2363  0.5304
  563MOL0     H77627   6.640   9.103   0.433 -0.9564 -1.3751 -0.6664
  563MOL0     H77628   6.707   9.209   0.312 -1.4039 -2.4895 -0.5000
  563MOL0     H77629   6.498   9.314   0.285 -0.2823  1.3674 -0.7337
  563MOL0     H77630   6.487   9.142   0.259 -1.6581  1.2108  0.6788
  563MOL0     H77631   6.368   9.125   0.504 -2.0441 -0.0717 -0.7078
  563MOL0     H77632   6.393   9.292   0.523 -4.5711  0.4475 -0.4992
  563MOL0     H77633   6.170   9.240   0.446  0.9510  1.4110 -0.4242
  563MOL0     H77634   6.255   9.346   0.328  0.1667 -1.1164 -3.0481
  563MOL0     H77635   6.286   9.149   0.180 -0.2647  1.4541 -2.1836
  563MOL0     H77636   6.125   9.209   0.191 -3.0368 -1.0823  1.1181
  563MOL0     H77637   6.186   8.976   0.368 -2.7465 -1.5225  0.6713
  563MOL0     H77638   6.037   9.049   0.325  1.3857  2.8622  1.4757
  563MOL0     H77639   6.212   8.912   0.125  0.7542 -0.2583  2.4678
  563MOL0     H77640   6.064   8.993   0.081  0.9762  1.4361  0.3652
  563MOL0     H77641   6.080   8.722   0.141 -2.7009 -3.3001  2.2435
  563MOL0     H77642   6.101   8.783   0.302  2.0517  1.7007  0.3354
  563MOL0     H77643   5.834   8.708   0.036  1.6195 -1.1863  0.4475
  563MOL0     H77644   5.592   8.631   0.058  1.2209 -0.4244  0.0022
  563MOL0     H77645   5.498   8.717   0.189 -0.5974  0.2211 -0.7455
  563MOL0     H77646   5.542   8.447   0.189  2.9623 -1.7127 -0.7124
  563MOL0     H77647   5.691   8.497   0.258 -0.1723  0.6682 -1.7678
  563MOL0     H77648   5.548   8.645   0.427 -0.5915  0.4574 -2.0044
  563MOL0     H77649   5.422   8.535   0.372 -0.2063  0.7609  1.1822
  563MOL0     H77650   5.554   8.465   0.588 -1.1601  1.5854 -0.7241
  563MOL0     H77651   5.550   8.339   0.463  0.4354 -0.1942 -0.7640
  563MOL0     H77652   5.967   8.529   0.559  0.8073 -1.8252 -0.6746
  563MOL0     H77653   6.187   8.466   0.827  1.1003  1.0593 -0.0494
  563MOL0     H77654   6.079   8.600   0.858  3.8224 -0.8005  2.1926
  563MOL0     H77655   6.131   8.585   0.696 -3.8839  0.8926  0.9069
  563MOL0     H77656   6.154   8.638   1.089 -0.0576 -0.8410 -0.7176
  563MOL0     H77657   6.170   8.737   1.308 -1.0527  0.0137 -2.6818
  563MOL0     H77658   5.941   8.609   1.644 -0.7594 -0.8490 -0.7693
  563MOL0     H77659   6.070   8.492   1.688 -1.6242 -0.4762 -1.2584
  563MOL0     H77660   6.209   8.699   1.741 -0.3101  3.5691  0.6745
  563MOL0     H77661   6.054   8.779   1.716  0.4577  0.0183  0.5003
  563MOL0     H77662   6.103   8.560   1.924  4.2338  2.1782 -0.4909
  563MOL0     H77663   5.951   8.663   1.897  0.3018  2.4256  0.4381
  563MOL0     H77664   6.074   8.849   1.980  0.3434  0.2335  0.8065
  563MOL0     H77665   6.233   8.764   1.994 -0.9202  0.3630  0.9314
  563MOL0     H77666   5.970   8.676   2.120 -1.5049  0.7991  2.6808
  563MOL0     H77667   6.134   8.631   2.176 -2.2945 -1.7580 -1.6542
  563MOL0     H77668   6.045   8.779   2.343 -0.3893 -0.8070 -0.3918
  563MOL0     H77669   6.015   8.905   2.226 -0.6203 -0.7477 -2.2129
  563MOL0     H77670   6.216   8.987   2.306 -0.6204  1.1636 -1.5108
  563MOL0     H77671   6.268   8.880   2.165 -2.1694 -1.2039 -2.6357
  563MOL0     H77672   6.412   8.820   2.339  1.1152 -1.6414  1.3981
  563MOL0     H77673   6.318   8.690   2.307  1.7221  1.6722 -2.0791
  563MOL0     H77674   5.993   8.395   1.503 -4.4835  0.2542  0.0899
  563MOL0     H77675   6.000   8.277   1.261 -1.3813  0.0597 -1.6769
  563MOL0     H77676   5.757   8.221   0.865 -1.3880  0.5534 -1.7776
  563MOL0     H77677   5.647   8.280   0.669 -0.1548  0.4701 -0.6494
  563MOL0     H77678   6.923   9.227   0.417  0.4472 -0.3518  1.0025
  563MOL0     H77679   7.117   9.242   0.563 -1.1677 -0.6959 -2.7466
  563MOL0     H77680   7.366   9.272   0.888  0.1777  0.6125 -0.7323
  563MOL0     H77681   7.523   9.281   1.073  0.2691  1.2987  1.9202
  563MOL0     H77682   7.551   9.239   1.288 -0.2068 -0.5269 -3.2272
  563MOL0     H77683   7.705   9.314   1.232  1.3428  0.2916  1.9337
  563MOL0     H77684   7.604   9.328   1.514 -1.3501  0.5429 -0.5693
  563MOL0     H77685   7.728   9.429   1.453  0.8703 -0.3773  0.5571
  563MOL0     H77686   7.786   9.178   1.568 -4.0159 -0.8966 -0.0594
  563MOL0     H77687   7.764   9.130   1.404  1.3034 -0.8026 -0.8794
  563MOL0     H77688   7.958   9.331   1.497 -1.5322  3.0493 -3.0434
  563MOL0     H77689   7.949   9.310   1.328  3.1883  2.9970  1.8338
  563MOL0     H77690   8.166   8.975   1.441 -2.2445 -0.7183 -0.1553
  563MOL0     H77691   7.343   9.614   1.240 -0.0615 -1.9495  1.4685
  563MOL0     H77692   7.179   9.757   0.972 -1.2826  0.7715 -0.4992
  563MOL0     H77693   7.054   9.637   1.022  0.2686  0.1629  1.5282
  563MOL0     H77694   7.145   9.718   1.143  2.7595  1.1859  0.5236
  564MOL0     O77695   5.147   3.762   0.476  0.5139 -0.1157  0.1328
  564MOL0     C77696   5.051   3.832   0.478 -0.9698 -0.4667  0.3559
  564MOL0     O77697   5.055   3.971   0.479 -0.3558 -0.8580  0.1051
  564MOL0     C77698   5.175   4.039   0.489  0.9260  0.1170  0.4007
  564MOL0     C77699   5.273   4.019   0.392 -0.1168 -0.3597  0.1272
  564MOL0     C77700   5.400   4.088   0.416  1.0243  0.0568  0.1431
  564MOL0     C77701   5.411   4.180   0.519 -0.0413 -0.5529 -0.2697
  564MOL0     O77702   5.539   4.232   0.531 -0.1063  0.1650  0.6203
  564MOL0     C77703   5.553   4.367   0.552  0.4244 -0.2046  0.4195
  564MOL0     C77704   5.687   4.392   0.622 -0.4609  0.2755 -0.6205
  564MOL0     C77705   5.673   4.389   0.776 -0.8187 -0.4424 -0.5332
  564MOL0     C77706   5.796   4.449   0.849 -0.0605 -0.3669  0.1772
  564MOL0     C77707   5.788   4.430   1.002  0.1500  0.3459  0.4995
  564MOL0     C77708   5.925   4.459   1.071  1.1195 -0.5347 -0.1465
  564MOL0     C77709   5.915   4.490   1.221 -0.3019 -0.3571 -0.0077
  564MOL0     C77710   5.887   4.367   1.295  0.2329  0.0935 -0.5935
  564MOL0     N77711   5.928   4.374   1.438 -0.5132 -1.2869 -0.6517
  564MOL0     C77712   6.045   4.334   1.492  0.3686 -0.2907  0.1848
  564MOL0     C77713   6.035   4.350   1.623 -0.8075  0.2024 -0.2614
  564MOL0     C77714   6.136   4.316   1.737  0.2145  0.0331  1.0782
  564MOL0     C77715   6.266   4.391   1.713  0.5483 -0.6378 -0.0156
  564MOL0     C77716   6.385   4.345   1.805  0.3103 -0.8829  0.1267
  564MOL0     C77717   6.445   4.214   1.761  0.1546  1.1518  0.1100
  564MOL0     O77718   6.546   4.232   1.661  0.1869  0.3344 -0.2560
  564MOL0     C77719   6.504   4.214   1.535  0.8797  0.1360 -0.1708
  564MOL0     C77720   6.492   4.325   1.458  0.1728  0.9493 -0.9419
  564MOL0     C77721   6.427   4.314   1.341 -1.1277 -0.0947 -0.4975
  564MOL0     C77722   6.409   4.446   1.278  1.0619  0.4262 -0.7048
  564MOL0     C77723   6.367   4.197   1.292 -0.1851 -0.3034 -1.4423
  564MOL0     C77724   6.292   4.184   1.170 -0.4285 -0.1277  0.4126
  564MOL0     O77725   6.276   4.062   1.106 -0.4838 -0.1307 -0.1555
  564MOL0     C77726   6.223   4.054   0.978 -0.0754  0.1031 -0.1539
  564MOL0     C77727   6.174   4.157   0.894  1.1315  0.4232  1.2223
  564MOL0     C77728   6.122   4.136   0.763 -0.1035  0.4658  0.2769
  564MOL0     C77729   6.111   4.003   0.720 -0.9101 -0.1854  0.8306
  564MOL0     O77730   6.042   3.962   0.614 -0.1032  0.3446  0.0696
  564MOL0     C77731   5.918   4.033   0.579  0.5185  0.4446  0.0940
  564MOL0     C77732   5.845   3.963   0.465  0.6293 -0.0444  0.3374
  564MOL0     C77733   5.929   3.963   0.345 -0.3243  0.2534 -0.5158
  564MOL0     C77734   5.845   3.887   0.237  0.0227 -0.0545 -0.4701
  564MOL0     C77735   5.918   3.889   0.099  1.3697  0.5080  0.1930
  564MOL0     C77736   5.966   4.037   0.055  0.5479 -0.1600 -0.7487
  564MOL0     C77737   5.961   4.048  -0.096  0.5579  0.5451  0.0783
  564MOL0     C77738   5.955   4.204  -0.134 -0.8085  0.8793 -0.3413
  564MOL0    Cl77739   6.098   4.281  -0.063 -0.2578  0.0889 -0.0159
  564MOL0     C77740   6.162   3.898   0.790 -0.3392 -0.0900  0.1068
  564MOL0     C77741   6.222   3.923   0.917  0.4338 -0.6101  0.1918
  564MOL0     O77742   6.224   4.287   1.156 -0.5332  0.0629 -0.4454
  564MOL0     C77743   6.396   4.077   1.364 -0.5963 -0.1072 -0.1581
  564MOL0     C77744   6.452   4.093   1.488  0.0308  0.3558  0.7690
  564MOL0     N77745   5.913   4.419   1.649 -1.1790 -0.0417 -0.1139
  564MOL0     N77746   5.847   4.424   1.537  0.2821  0.0742  0.0955
  564MOL0     C77747   5.306   4.204   0.601  0.3958  0.1156 -0.7304
  564MOL0     C77748   5.185   4.138   0.596 -0.7347  1.3604 -0.5649
  564MOL0     C77749   4.912   3.780   0.439 -0.5121  0.7620 -0.6296
  564MOL0     C77750   4.809   3.867   0.397  0.1172 -0.3084  0.7413
  564MOL0     C77751   4.680   3.818   0.357 -0.5645  0.4506 -0.1037
  564MOL0     C77752   4.653   3.681   0.362  0.9706  0.4987 -0.3567
  564MOL0     O77753   4.536   3.640   0.314  0.3399 -0.2403  0.4205
  564MOL0     C77754   4.463   3.547   0.388  0.2036  0.1353 -0.7666
  564MOL0     C77755   4.443   3.586   0.533  0.6430 -0.9313  0.1003
  564MOL0     C77756   4.317   3.524   0.597  0.1952  0.3814 -0.3167
  564MOL0     C77757   4.323   3.555   0.748  0.6104 -0.4700 -0.2628
  564MOL0     C77758   4.194   3.507   0.805 -0.7322  0.4280  0.4005
  564MOL0     C77759   4.079   3.495   0.842  0.3365  0.6311 -0.4231
  564MOL0     C77760   4.751   3.596   0.402  0.5524  0.6088  0.6959
  564MOL0     C77761   4.878   3.637   0.441  0.2694  0.3222 -0.4727
  564MOL0     C77762   4.977   3.535   0.506 -0.0060  0.3268  0.2362
  564MOL0     H77763   5.272   3.949   0.309  2.2886  2.2453 -2.3396
  564MOL0     H77764   5.482   4.049   0.356  0.7325  2.2657 -1.8352
  564MOL0     H77765   5.467   4.424   0.590 -1.0413  1.4595 -4.4645
  564MOL0     H77766   5.565   4.401   0.448  2.1968 -2.6516 -0.2450
  564MOL0     H77767   5.758   4.317   0.584  0.2632  0.5087  0.2488
  564MOL0     H77768   5.742   4.481   0.588  0.8413 -0.8639 -1.6220
  564MOL0     H77769   5.587   4.449   0.808  2.4390  2.9110  3.0550
  564MOL0     H77770   5.650   4.288   0.811  4.5467 -1.9349 -0.4825
  564MOL0     H77771   5.896   4.421   0.815  0.1974 -0.1942  0.7797
  564MOL0     H77772   5.785   4.555   0.828 -1.0634  0.2508  3.2900
  564MOL0     H77773   5.754   4.330   1.029  1.5448 -0.3939 -0.4091
  564MOL0     H77774   5.725   4.500   1.059  0.1727 -0.3421  1.4050
  564MOL0     H77775   5.992   4.373   1.065  2.7143  0.7971 -3.5608
  564MOL0     H77776   5.976   4.539   1.017 -1.7462 -0.0416 -2.3596
  564MOL0     H77777   5.845   4.569   1.249 -0.4168 -0.9892  1.5773
  564MOL0     H77778   6.013   4.522   1.259 -0.5306 -0.8346  1.0403
  564MOL0     H77779   5.778   4.357   1.300  0.0330  1.6261 -1.3111
  564MOL0     H77780   5.941   4.283   1.250  0.3307 -3.4510  5.0427
  564MOL0     H77781   6.123   4.296   1.426 -0.7375 -1.5988 -0.4127
  564MOL0     H77782   6.168   4.212   1.728  2.7499  0.8970 -1.2507
  564MOL0     H77783   6.085   4.350   1.828  0.0917 -0.4287  1.1830
  564MOL0     H77784   6.298   4.399   1.608  1.0584 -1.3762  0.0777
  564MOL0     H77785   6.244   4.492   1.748 -1.2250 -0.5087 -1.3598
  564MOL0     H77786   6.472   4.411   1.811 -0.2400 -0.1032 -0.2682
  564MOL0     H77787   6.351   4.321   1.906  1.2122 -0.6323  0.4942
  564MOL0     H77788   6.499   4.182   1.851  0.5683  0.2854 -0.4280
  564MOL0     H77789   6.368   4.145   1.725  0.6003 -0.5431  2.2139
  564MOL0     H77790   6.533   4.415   1.503  1.4951 -1.1328  2.4718
  564MOL0     H77791   6.463   4.461   1.184  0.3707  0.7445 -1.0612
  564MOL0     H77792   6.435   4.528   1.345  1.9226 -1.4612  1.3682
  564MOL0     H77793   6.307   4.472   1.246  0.3379 -0.6295  0.6373
  564MOL0     H77794   6.175   4.257   0.935  1.8839  2.0550 -2.4117
  564MOL0     H77795   6.077   4.216   0.704  0.1663 -0.1052 -0.7365
  564MOL0     H77796   5.860   4.049   0.671  1.6746  0.8329  0.7863
  564MOL0     H77797   5.939   4.131   0.535 -0.3764 -0.2141 -1.8733
  564MOL0     H77798   5.822   3.859   0.491 -0.2442  0.2277  0.6826
  564MOL0     H77799   5.751   4.014   0.445  0.3096  0.2933  2.4556
  564MOL0     H77800   6.015   3.905   0.377  0.3415  1.6401  0.2897
  564MOL0     H77801   5.963   4.064   0.319 -1.2459  1.1422  1.5009
  564MOL0     H77802   5.745   3.932   0.236  0.0495  0.1442  1.4848
  564MOL0     H77803   5.835   3.782   0.266  3.6299 -0.4040  0.0363
  564MOL0     H77804   6.005   3.828   0.123  0.0318 -0.7035  2.2938
  564MOL0     H77805   5.856   3.835   0.026  1.7699  0.4761 -0.1262
  564MOL0     H77806   6.066   4.060   0.093 -1.0370  1.7035  2.8204
  564MOL0     H77807   5.901   4.112   0.101  2.1318 -0.1887  1.7650
  564MOL0     H77808   5.860   4.016  -0.124 -0.0055  1.5633  0.8523
  564MOL0     H77809   6.042   3.995  -0.146 -1.6003 -2.6623 -0.2853
  564MOL0     H77810   5.855   4.237  -0.107 -0.8180 -0.1317  0.9361
  564MOL0     H77811   5.959   4.213  -0.243 -3.1240  0.6764 -0.4729
  564MOL0     H77812   6.151   3.797   0.751  0.0113  0.1045 -0.5131
  564MOL0     H77813   6.274   3.853   0.982 -0.8527 -1.1388  0.6684
  564MOL0     H77814   6.350   3.987   1.325  1.4976 -1.2540 -0.0984
  564MOL0     H77815   6.447   4.011   1.559  2.9287  0.5034  1.2908
  564MOL0     H77816   5.319   4.270   0.686  1.1892 -0.6329 -0.2588
  564MOL0     H77817   5.100   4.142   0.663 -3.0053  2.8459 -3.3234
  564MOL0     H77818   4.820   3.975   0.395 -0.3484 -0.2719 -0.3519
  564MOL0     H77819   4.605   3.891   0.329 -1.5682 -0.3715  0.3211
  564MOL0     H77820   4.364   3.531   0.345 -0.0390 -2.6752  0.6150
  564MOL0     H77821   4.523   3.456   0.380  2.9064  1.7908 -0.5073
  564MOL0     H77822   4.448   3.694   0.551 -2.0177 -0.8795  0.9886
  564MOL0     H77823   4.523   3.540   0.591  0.9413 -0.4377  0.0773
  564MOL0     H77824   4.227   3.573   0.558  0.8742  1.8676 -0.1141
  564MOL0     H77825   4.308   3.419   0.569 -2.2294 -0.1480  2.0363
  564MOL0     H77826   4.338   3.659   0.779 -0.1267 -0.6076  0.5959
  564MOL0     H77827   4.398   3.488   0.790  2.3932  0.7876 -1.3369
  564MOL0     H77828   3.979   3.490   0.881 -0.2873 -0.2718 -2.0107
  564MOL0     H77829   4.734   3.489   0.404  0.5157  0.6212  1.2821
  564MOL0     H77830   4.939   3.433   0.515  2.1481 -0.4520  1.1283
  564MOL0     H77831   5.069   3.528   0.446  0.2322  0.8254  0.5327
  564MOL0     H77832   5.008   3.577   0.602  1.7915  1.8220 -0.9108
  565MOL0     O77833   5.163   0.811   5.187  0.2794 -0.2130  1.0351
  565MOL0     C77834   5.243   0.779   5.273  0.5301  0.4801  0.6266
  565MOL0     O77835   5.339   0.862   5.318 -0.3962 -0.6470 -0.1047
  565MOL0     C77836   5.322   0.997   5.361 -0.0721 -0.9242  0.1748
  565MOL0     C77837   5.197   1.069   5.366  0.3560  0.3782  0.0197
  565MOL0     C77838   5.198   1.192   5.431  1.3245  0.0981  1.3269
  565MOL0     C77839   5.311   1.259   5.486  0.7160 -0.8201 -0.8585
  565MOL0     O77840   5.312   1.383   5.543  0.7278 -0.1123 -0.3246
  565MOL0     C77841   5.246   1.487   5.478  0.4003 -0.1457 -0.1157
  565MOL0     C77842   5.257   1.615   5.552 -0.2381  0.3354 -0.7538
  565MOL0     C77843   5.162   1.614   5.680  0.5045 -0.2274 -0.1614
  565MOL0     C77844   5.086   1.749   5.673  0.7220  0.3672  0.4872
  565MOL0     C77845   5.185   1.870   5.662  0.3556 -1.6124  0.6343
  565MOL0     C77846   5.129   2.000   5.717  0.4892 -0.0449 -0.9306
  565MOL0     C77847   5.207   2.130   5.677 -0.1424  0.4068  0.5461
  565MOL0     C77848   5.211   2.249   5.776 -0.7613 -0.0232  0.3383
  565MOL0     N77849   5.307   2.343   5.719 -0.3459  0.4588 -0.1106
  565MOL0     C77850   5.451   2.330   5.701 -0.3841  0.3294  1.3410
  565MOL0     C77851   5.486   2.435   5.618  0.7510 -0.3324  0.7868
  565MOL0     C77852   5.623   2.464   5.562  0.3269 -0.2080 -0.1605
  565MOL0     C77853   5.687   2.567   5.664 -0.7672  1.2419  1.0258
  565MOL0     C77854   5.831   2.591   5.628  0.3824 -0.6514 -0.0932
  565MOL0     C77855   5.873   2.733   5.684  0.7963 -0.6074  0.3482
  565MOL0     O77856   5.870   2.742   5.831  0.8011  0.4279  0.4968
  565MOL0     C77857   5.941   2.837   5.903  0.3495  0.5079  1.0076
  565MOL0     C77858   6.006   2.933   5.836  0.0366 -0.6072  0.4748
  565MOL0     C77859   6.057   3.041   5.908 -1.7595 -0.0659 -0.2443
  565MOL0     C77860   6.118   3.157   5.836 -0.1373  0.3197  0.9018
  565MOL0     C77861   6.069   3.029   6.051  0.3505  0.3172  0.2746
  565MOL0     C77862   6.133   3.133   6.138  0.2103  0.3179  0.6736
  565MOL0     O77863   6.138   3.102   6.274 -0.0013 -0.1451 -0.1288
  565MOL0     C77864   6.215   3.171   6.359  0.7514  0.7147 -0.3487
  565MOL0     C77865   6.273   3.096   6.460  0.1265 -0.1530 -0.8886
  565MOL0     C77866   6.343   3.152   6.570 -0.1407 -0.3861  0.0591
  565MOL0     C77867   6.348   3.294   6.585  0.8993  1.2646  0.4401
  565MOL0     O77868   6.419   3.357   6.686  0.5572 -0.0696  0.3063
  565MOL0     C77869   6.509   3.306   6.770 -0.8081  0.3484 -0.0204
  565MOL0     C77870   6.638   3.266   6.701 -0.7671 -0.0538  0.6189
  565MOL0     C77871   6.695   3.367   6.594 -0.2069  0.6205  0.3631
  565MOL0     C77872   6.737   3.307   6.461 -0.8008  0.3256 -0.3952
  565MOL0     C77873   6.851   3.196   6.486  0.6071 -0.8946 -0.0647
  565MOL0     C77874   6.966   3.245   6.573 -0.1126 -0.0814  0.5078
  565MOL0     C77875   7.094   3.165   6.550  0.1161  0.1929 -0.9878
  565MOL0     C77876   7.117   3.047   6.650  0.6112  0.4188 -0.0598
  565MOL0    Cl77877   6.996   2.908   6.646 -0.0045  0.2581  0.1924
  565MOL0     C77878   6.295   3.372   6.484  0.3215 -0.4971  0.0723
  565MOL0     C77879   6.231   3.315   6.369  0.1935  0.1571 -0.1211
  565MOL0     O77880   6.187   3.233   6.090  0.9001 -0.7958 -0.6348
  565MOL0     C77881   6.001   2.928   6.109  0.8714 -0.2326 -0.4480
  565MOL0     C77882   5.942   2.824   6.041  0.9920  0.9410  0.5748
  565MOL0     N77883   5.364   2.497   5.586  0.3691 -0.0270 -0.3202
  565MOL0     N77884   5.268   2.462   5.661  0.3975 -0.7690 -0.0818
  565MOL0     C77885   5.432   1.181   5.484  0.1017 -0.0564 -0.2734
  565MOL0     C77886   5.432   1.057   5.412 -1.1734 -0.5701 -0.3416
  565MOL0     C77887   5.257   0.626   5.283  0.3449  0.0747  0.5100
  565MOL0     C77888   5.199   0.538   5.182 -0.1553 -0.7189 -1.1021
  565MOL0     C77889   5.228   0.399   5.189 -0.7561 -0.0500 -0.2474
  565MOL0     C77890   5.295   0.339   5.301  0.6452  0.2557  0.1307
  565MOL0     O77891   5.312   0.205   5.298 -0.7736  0.0296 -0.3520
  565MOL0     C77892   5.426   0.150   5.370  1.0299 -0.8450  0.1827
  565MOL0     C77893   5.480   0.023   5.299 -0.2888  0.1627  0.2542
  565MOL0     C77894   5.433  -0.005   5.154  1.0212  0.7165 -0.5793
  565MOL0     C77895   5.519  -0.119   5.095  0.3758  0.6754  0.0616
  565MOL0     C77896   5.475  -0.165   4.961 -0.5799 -0.9292 -0.9845
  565MOL0     C77897   5.449  -0.214   4.849  0.8962 -0.2743 -0.2546
  565MOL0     C77898   5.330   0.425   5.407 -0.7500 -0.1725 -1.0311
  565MOL0     C77899   5.316   0.567   5.399 -0.7339  0.3801  0.2058
  565MOL0     C77900   5.356   0.639   5.517 -0.4114  0.2683 -0.6410
  565MOL0     H77901   5.104   1.027   5.327  1.5594 -0.8992 -1.6500
  565MOL0     H77902   5.100   1.239   5.434  1.7791  1.0431  3.0045
  565MOL0     H77903   5.145   1.457   5.449  1.0205 -4.0050  1.2212
  565MOL0     H77904   5.306   1.502   5.387  0.7306 -1.6326 -0.1586
  565MOL0     H77905   5.360   1.619   5.589 -0.3949  2.7705 -0.4135
  565MOL0     H77906   5.242   1.699   5.484 -1.0900  1.2432  0.5183
  565MOL0     H77907   5.091   1.531   5.682 -2.1618  1.8588 -1.2433
  565MOL0     H77908   5.220   1.609   5.772  1.1185 -2.8793 -0.6149
  565MOL0     H77909   5.012   1.751   5.593  2.1681 -1.6516 -0.9975
  565MOL0     H77910   5.026   1.766   5.763 -2.1744 -0.6587 -1.1513
  565MOL0     H77911   5.203   1.885   5.555 -3.1640  0.2450  0.1642
  565MOL0     H77912   5.286   1.854   5.701  1.8877  2.2657 -1.1776
  565MOL0     H77913   5.023   2.011   5.694  0.1214 -0.4889  0.4922
  565MOL0     H77914   5.142   1.993   5.825  2.4338 -0.4817 -1.1548
  565MOL0     H77915   5.174   2.168   5.580  1.5611  2.0284  0.5457
  565MOL0     H77916   5.303   2.085   5.651 -0.2703  1.5131 -2.1241
  565MOL0     H77917   5.111   2.292   5.784 -1.3296 -0.7937 -1.9033
  565MOL0     H77918   5.239   2.223   5.878  2.4135  0.9384 -0.1848
  565MOL0     H77919   5.514   2.250   5.737 -2.8904 -1.7578  1.3671
  565MOL0     H77920   5.616   2.506   5.461 -0.1981 -0.5585 -0.2762
  565MOL0     H77921   5.674   2.367   5.565 -3.1775 -2.2475 -1.0628
  565MOL0     H77922   5.625   2.655   5.680  0.5917  2.1384  1.5804
  565MOL0     H77923   5.684   2.510   5.757  1.3847 -0.6728  0.0417
  565MOL0     H77924   5.907   2.516   5.652  3.1575  0.6104 -3.9746
  565MOL0     H77925   5.842   2.596   5.519  0.2322  2.4575 -0.0607
  565MOL0     H77926   5.975   2.749   5.649 -0.0052  0.8922 -1.5209
  565MOL0     H77927   5.798   2.805   5.650  1.5671  0.5280  0.9892
  565MOL0     H77928   6.003   2.947   5.729  2.1548  1.0203  0.5638
  565MOL0     H77929   6.083   3.254   5.872 -0.9539 -0.0180  1.0243
  565MOL0     H77930   6.083   3.160   5.732 -0.8577 -1.0940  1.0819
  565MOL0     H77931   6.227   3.151   5.827 -0.0869  2.8997 -2.1654
  565MOL0     H77932   6.262   2.989   6.444  0.1342  0.0139 -2.0986
  565MOL0     H77933   6.378   3.086   6.649  1.3925 -0.2690 -0.5001
  565MOL0     H77934   6.529   3.390   6.837 -4.1943  0.4717  1.0413
  565MOL0     H77935   6.468   3.224   6.830 -0.0926  0.2247  0.3089
  565MOL0     H77936   6.720   3.247   6.771  2.2277 -1.8650 -3.0207
  565MOL0     H77937   6.619   3.172   6.647 -0.6136 -0.4724  1.2799
  565MOL0     H77938   6.778   3.429   6.628  1.3550  0.2211 -2.4217
  565MOL0     H77939   6.609   3.433   6.576 -1.0098 -0.6480 -0.6548
  565MOL0     H77940   6.775   3.386   6.396 -0.4864  1.7850  1.4619
  565MOL0     H77941   6.648   3.256   6.424 -1.5878  1.5826 -0.2900
  565MOL0     H77942   6.802   3.108   6.530 -1.7284  0.7365  0.8016
  565MOL0     H77943   6.887   3.155   6.391 -0.0128  2.7671 -2.0613
  565MOL0     H77944   6.938   3.249   6.678 -0.7602  0.3148  0.3247
  565MOL0     H77945   6.993   3.346   6.539  1.8624 -0.1563  1.6963
  565MOL0     H77946   7.181   3.225   6.576  1.0669 -2.5024  3.0288
  565MOL0     H77947   7.102   3.129   6.447 -2.4565 -0.9899 -0.8705
  565MOL0     H77948   7.114   3.079   6.754 -0.7576  0.4604 -0.0881
  565MOL0     H77949   7.220   3.014   6.639  0.6098  0.4953 -0.3069
  565MOL0     H77950   6.302   3.479   6.500 -0.1095 -0.5519  0.6701
  565MOL0     H77951   6.203   3.391   6.297  0.5034 -0.7434 -1.2211
  565MOL0     H77952   5.999   2.918   6.217  0.9029  1.1232 -0.3108
  565MOL0     H77953   5.902   2.733   6.085 -0.4932  1.9094  1.2975
  565MOL0     H77954   5.525   1.209   5.532 -0.9739  2.2886  0.5605
  565MOL0     H77955   5.515   0.987   5.408 -1.4089 -0.8148 -2.8465
  565MOL0     H77956   5.148   0.582   5.097 -3.1891  0.2789  1.0543
  565MOL0     H77957   5.201   0.331   5.109 -3.7799  0.1713  0.4754
  565MOL0     H77958   5.509   0.221   5.361  0.1591 -0.0644 -3.5548
  565MOL0     H77959   5.409   0.131   5.476  2.1737 -4.1995 -0.1072
  565MOL0     H77960   5.454  -0.062   5.362  1.0035  0.8012  1.7020
  565MOL0     H77961   5.589   0.030   5.300 -0.0921 -2.1809 -0.4357
  565MOL0     H77962   5.333  -0.048   5.143  2.1429 -1.7701 -2.0373
  565MOL0     H77963   5.455   0.090   5.103  0.1999  0.8439 -0.6976
  565MOL0     H77964   5.517  -0.202   5.167 -0.5471  0.0384 -0.6685
  565MOL0     H77965   5.622  -0.081   5.090 -0.2032  2.4599  0.7126
  565MOL0     H77966   5.415  -0.257   4.757  0.5317  1.3310 -0.8925
  565MOL0     H77967   5.377   0.380   5.493 -1.9553 -1.5072 -1.0210
  565MOL0     H77968   5.274   0.703   5.551 -0.2532  1.3918 -2.2138
  565MOL0     H77969   5.387   0.575   5.599 -1.6162 -0.8548 -1.0383
  565MOL0     H77970   5.452   0.688   5.494 -0.0350  0.9857  2.0833
  566MOL0     O77971   4.813   0.271   2.043  0.7440  1.0626  0.1209
  566MOL0     C77972   4.855   0.337   2.137 -0.3249  0.1326 -0.1701
  566MOL0     O77973   4.866   0.300   2.272  0.6419 -0.6023  0.0087
  566MOL0     C77974   4.809   0.181   2.305  0.2335 -0.4448 -0.8986
  566MOL0     C77975   4.871   0.092   2.390 -0.8856 -0.2361 -0.2801
  566MOL0     C77976   4.800  -0.030   2.438  0.3405 -0.7100  0.6820
  566MOL0     C77977   4.663  -0.049   2.406 -0.4126  0.3281  0.0944
  566MOL0     O77978   4.614  -0.158   2.468  0.9620  0.6037 -0.3166
  566MOL0     C77979   4.483  -0.205   2.439  0.5263  0.0127 -0.2865
  566MOL0     C77980   4.459  -0.333   2.535 -0.0193 -0.2350  0.0756
  566MOL0     C77981   4.453  -0.296   2.685  0.0397  0.3604 -0.1393
  566MOL0     C77982   4.435  -0.422   2.775 -0.3510  0.1405  0.6160
  566MOL0     C77983   4.421  -0.411   2.926  0.0108  0.5015 -0.6895
  566MOL0     C77984   4.343  -0.284   2.986 -0.0952  0.2037  0.5415
  566MOL0     C77985   4.339  -0.274   3.139 -0.7550  0.1107  0.0098
  566MOL0     C77986   4.473  -0.216   3.194 -0.1343 -0.8023 -0.6529
  566MOL0     N77987   4.483  -0.251   3.329 -0.3512 -0.6669 -0.1918
  566MOL0     C77988   4.418  -0.182   3.432 -0.1354 -0.0637 -0.0437
  566MOL0     C77989   4.452  -0.261   3.546  0.1876  0.3450  0.5724
  566MOL0     C77990   4.414  -0.210   3.685 -0.7424  0.2317  0.2781
  566MOL0     C77991   4.536  -0.203   3.780  0.4926  0.8121 -0.2967
  566MOL0     C77992   4.483  -0.238   3.924 -0.7403 -0.5560 -0.0591
  566MOL0     C77993   4.441  -0.112   3.997  0.7963 -0.1539 -0.4673
  566MOL0     O77994   4.344  -0.033   3.928  1.0900  0.4603 -0.0418
  566MOL0     C77995   4.295   0.086   3.973 -1.1948 -0.1732 -0.0874
  566MOL0     C77996   4.310   0.113   4.107  0.7628 -0.9252  0.2143
  566MOL0     C77997   4.260   0.235   4.165  0.8082 -0.3133 -0.3561
  566MOL0     C77998   4.249   0.265   4.311 -0.8924 -0.1950 -0.4607
  566MOL0     C77999   4.221   0.335   4.077  1.0534 -0.7618 -0.7688
  566MOL0     C78000   4.173   0.484   4.114  0.6206 -0.3848  0.5752
  566MOL0     O78001   4.148   0.555   3.993  0.0305 -0.6207 -0.4151
  566MOL0     C78002   4.080   0.669   4.009 -0.2609  0.3351  0.2130
  566MOL0     C78003   3.949   0.669   4.051  0.6167 -0.3366 -0.7220
  566MOL0     C78004   3.883   0.790   4.072 -0.5771 -1.6922 -0.5624
  566MOL0     C78005   3.941   0.915   4.041  0.9459  0.6878 -0.8669
  566MOL0     O78006   3.863   1.027   4.047 -0.5229 -0.3688 -0.3876
  566MOL0     C78007   3.791   1.052   4.177  0.8465  0.0429 -0.4484
  566MOL0     C78008   3.786   1.205   4.193  0.0111  0.0574  0.2777
  566MOL0     C78009   3.718   1.265   4.065  0.6243  0.3739  0.9309
  566MOL0     C78010   3.651   1.396   4.096 -0.0094 -0.2701  1.4195
  566MOL0     C78011   3.576   1.457   3.968  0.7387 -0.1249 -0.0782
  566MOL0     C78012   3.486   1.578   3.993 -0.0822 -0.1518 -0.2576
  566MOL0     C78013   3.419   1.627   3.862  0.4092 -0.1035  0.5299
  566MOL0     C78014   3.276   1.657   3.887 -0.2956  0.4376 -0.2065
  566MOL0    Cl78015   3.262   1.824   3.962 -0.2606 -0.1439  0.1143
  566MOL0     C78016   4.065   0.911   3.987 -0.6424 -0.0156 -1.1358
  566MOL0     C78017   4.137   0.787   3.970  0.3020 -0.2322 -0.1749
  566MOL0     O78018   4.142   0.518   4.227 -0.5546 -0.2293 -0.9847
  566MOL0     C78019   4.219   0.300   3.949  0.7857 -0.0087  0.1087
  566MOL0     C78020   4.233   0.177   3.896 -0.3531  0.4838 -0.3812
  566MOL0     N78021   4.508  -0.371   3.499  1.1916 -0.1013 -0.7717
  566MOL0     N78022   4.545  -0.359   3.375  0.9777  1.2661  0.2036
  566MOL0     C78023   4.599   0.048   2.320  0.7156 -1.2249 -0.8334
  566MOL0     C78024   4.668   0.157   2.279  0.6444  1.1806 -0.1002
  566MOL0     C78025   4.906   0.473   2.115 -0.6005  0.6836  0.4310
  566MOL0     C78026   4.908   0.566   2.219  0.2578 -0.1057  0.3645
  566MOL0     C78027   4.907   0.701   2.196  0.6600 -0.2795  1.4766
  566MOL0     C78028   4.927   0.752   2.061  0.1672 -0.5423  0.8364
  566MOL0     O78029   4.918   0.882   2.015  0.2995  0.0594  0.1921
  566MOL0     C78030   4.901   0.991   2.102 -0.2237 -0.2947  0.2202
  566MOL0     C78031   4.849   1.122   2.027 -0.6256 -0.1745  0.2124
  566MOL0     C78032   4.963   1.184   1.948  0.2521  0.5512  0.2633
  566MOL0     C78033   4.921   1.288   1.845 -0.3881 -0.0760  0.0335
  566MOL0     C78034   4.852   1.402   1.908 -0.3541 -0.0712  0.5942
  566MOL0     C78035   4.790   1.485   1.969  0.3669  0.0095  0.4581
  566MOL0     C78036   4.937   0.652   1.963  0.2445 -0.0331 -0.2209
  566MOL0     C78037   4.923   0.518   1.984  0.1413 -0.2727 -0.1267
  566MOL0     C78038   4.929   0.446   1.856 -0.8592 -0.3099 -1.4557
  566MOL0     H78039   4.976   0.096   2.418 -0.9571  0.0674 -0.0569
  566MOL0     H78040   4.851  -0.099   2.505 -1.5182 -2.0877  0.7791
  566MOL0     H78041   4.473  -0.219   2.331 -0.4245  0.2003 -0.2339
  566MOL0     H78042   4.412  -0.124   2.459 -1.6893 -1.7082 -0.7645
  566MOL0     H78043   4.358  -0.365   2.507 -0.0923 -2.7152  2.7827
  566MOL0     H78044   4.535  -0.404   2.502  1.9667  1.6305  0.4163
  566MOL0     H78045   4.536  -0.226   2.699  0.7472 -0.3237 -0.8781
  566MOL0     H78046   4.366  -0.232   2.705 -1.5520 -1.6340 -0.3338
  566MOL0     H78047   4.341  -0.472   2.750 -0.1172 -0.8746  1.6412
  566MOL0     H78048   4.518  -0.492   2.761 -0.1681 -0.0876  2.5454
  566MOL0     H78049   4.520  -0.402   2.970 -0.7054 -0.4413  1.2268
  566MOL0     H78050   4.380  -0.500   2.975 -2.1216  1.8847  0.1829
  566MOL0     H78051   4.406  -0.207   2.941  1.0981 -1.8046 -1.4590
  566MOL0     H78052   4.244  -0.275   2.939  0.0387  1.9410  0.5305
  566MOL0     H78053   4.322  -0.374   3.181  2.4764  0.8691  3.7069
  566MOL0     H78054   4.254  -0.212   3.170 -0.1038  1.3648 -0.6393
  566MOL0     H78055   4.555  -0.259   3.135  2.0665  2.2722 -0.0828
  566MOL0     H78056   4.486  -0.109   3.175 -2.5619  0.2693  2.8403
  566MOL0     H78057   4.376  -0.082   3.427 -0.3363 -0.1937 -1.6632
  566MOL0     H78058   4.337  -0.274   3.728 -0.8913  0.2277  0.0070
  566MOL0     H78059   4.366  -0.113   3.669 -0.2863  0.3850 -0.2053
  566MOL0     H78060   4.603  -0.284   3.751 -1.4791 -0.4259 -1.6078
  566MOL0     H78061   4.593  -0.110   3.773 -1.1570  2.0258  1.3685
  566MOL0     H78062   4.397  -0.305   3.922 -1.3646  0.1241 -4.2156
  566MOL0     H78063   4.569  -0.282   3.977  0.9653 -0.1541 -2.3231
  566MOL0     H78064   4.410  -0.139   4.098 -1.8191 -3.3645 -1.8982
  566MOL0     H78065   4.535  -0.059   4.013 -0.1754  0.8705  2.5105
  566MOL0     H78066   4.330   0.042   4.187 -2.4614  1.9608  3.9875
  566MOL0     H78067   4.148   0.304   4.325 -0.7107  0.0046  0.3723
  566MOL0     H78068   4.314   0.349   4.337 -2.2036  1.7690 -3.0591
  566MOL0     H78069   4.282   0.178   4.369 -0.6060 -1.0581 -1.8736
  566MOL0     H78070   3.891   0.586   4.090 -0.2851  0.4160 -0.4328
  566MOL0     H78071   3.783   0.796   4.114 -0.1975  2.9670  0.1386
  566MOL0     H78072   3.690   1.011   4.182 -0.3364  2.8557  2.2505
  566MOL0     H78073   3.850   1.003   4.255 -0.4938 -1.4902 -0.3347
  566MOL0     H78074   3.718   1.238   4.272 -0.0160  1.1226 -0.1763
  566MOL0     H78075   3.890   1.233   4.209 -0.3168 -0.2423  3.7166
  566MOL0     H78076   3.636   1.203   4.027  1.6855 -0.4678 -0.0843
  566MOL0     H78077   3.795   1.290   3.991  0.6686  0.7919  1.1213
  566MOL0     H78078   3.714   1.469   4.146  0.5963 -2.9699  4.9531
  566MOL0     H78079   3.576   1.372   4.171 -1.4220  1.7884  0.7520
  566MOL0     H78080   3.645   1.472   3.884  2.2761 -0.5265  1.0518
  566MOL0     H78081   3.521   1.377   3.918 -2.7565  0.9465  1.7188
  566MOL0     H78082   3.546   1.658   4.038 -2.2219 -0.2695  3.2168
  566MOL0     H78083   3.407   1.546   4.061  0.2599 -2.8473 -0.9932
  566MOL0     H78084   3.439   1.559   3.778 -1.8047  3.0893 -2.9047
  566MOL0     H78085   3.466   1.723   3.834 -3.3307  1.2660 -1.7622
  566MOL0     H78086   3.236   1.569   3.938 -2.2209  1.3183 -0.1067
  566MOL0     H78087   3.228   1.658   3.789  1.2870 -1.6210 -1.0825
  566MOL0     H78088   4.107   1.003   3.948 -2.6605  0.5500 -2.0769
  566MOL0     H78089   4.237   0.789   3.927  1.0751  1.6938  1.5253
  566MOL0     H78090   4.186   0.377   3.880 -0.2205 -0.4197  0.1018
  566MOL0     H78091   4.215   0.158   3.791  2.2310  2.8319 -1.3788
  566MOL0     H78092   4.493   0.046   2.293  1.1250 -3.1067 -2.5907
  566MOL0     H78093   4.610   0.230   2.223  2.7684  3.0711  0.0164
  566MOL0     H78094   4.883   0.521   2.315  0.9362 -0.5832  0.3234
  566MOL0     H78095   4.888   0.758   2.287  0.9318 -1.3905  2.2543
  566MOL0     H78096   4.830   0.955   2.177  0.0279  2.4747  1.9480
  566MOL0     H78097   4.989   1.009   2.166  0.9806 -0.1431 -1.4267
  566MOL0     H78098   4.828   1.192   2.109  2.4501 -1.0907  1.9391
  566MOL0     H78099   4.766   1.096   1.961 -1.0884 -2.3545  1.5706
  566MOL0     H78100   5.030   1.238   2.015 -1.1512 -2.0099  4.0247
  566MOL0     H78101   5.022   1.108   1.896  1.9515  0.7308  1.8438
  566MOL0     H78102   4.847   1.251   1.772  1.0565 -0.2811 -1.3888
  566MOL0     H78103   5.003   1.334   1.788 -0.4948  0.4043  0.2678
  566MOL0     H78104   4.733   1.562   2.017  0.2459 -0.3025  0.8223
  566MOL0     H78105   4.920   0.697   1.866 -1.7765 -0.3515 -0.0553
  566MOL0     H78106   4.976   0.348   1.862  2.1010  1.0969  1.4545
  566MOL0     H78107   4.832   0.446   1.804 -0.6811 -1.0378 -1.8025
  566MOL0     H78108   5.004   0.501   1.799 -3.0140  2.2343 -2.0828
  567MOL0     O78109   4.277   8.193   7.108  0.4034 -0.1032  0.0555
  567MOL0     C78110   4.292   8.310   7.062 -1.0913  0.6316  0.7447
  567MOL0     O78111   4.358   8.333   6.940  0.6077  0.5890 -0.8106
  567MOL0     C78112   4.473   8.265   6.920 -0.3517 -0.0053  0.6124
  567MOL0     C78113   4.485   8.120   6.919  0.7992  0.0317  0.7105
  567MOL0     C78114   4.603   8.060   6.895  1.0611 -0.3823 -0.2296
  567MOL0     C78115   4.717   8.143   6.890 -0.3539  0.5613  0.1501
  567MOL0     O78116   4.849   8.091   6.866  0.4487 -0.4817  0.0531
  567MOL0     C78117   4.875   7.953   6.891  0.7572  1.0917  0.1237
  567MOL0     C78118   4.916   7.932   7.037 -0.4313 -0.9896  0.1155
  567MOL0     C78119   5.016   8.029   7.090  0.7156  0.7948  0.1297
  567MOL0     C78120   5.156   7.971   7.068 -0.2150  1.1132  0.2342
  567MOL0     C78121   5.261   8.057   7.134  1.0927 -0.3278  0.8495
  567MOL0     C78122   5.402   7.995   7.127  0.0098  0.0433  0.8089
  567MOL0     C78123   5.472   7.997   6.981  0.3804 -0.9547  0.5627
  567MOL0     C78124   5.495   7.860   6.930  0.1132 -0.4010  0.1769
  567MOL0     N78125   5.542   7.847   6.786 -0.2430  0.6689  0.6579
  567MOL0     C78126   5.605   7.731   6.741  0.3762  0.5249 -0.5442
  567MOL0     C78127   5.571   7.728   6.609 -0.0440 -0.3358 -0.4489
  567MOL0     C78128   5.602   7.626   6.505 -0.1140 -0.9575  0.0448
  567MOL0     C78129   5.529   7.643   6.372  0.3418  0.2233 -0.3618
  567MOL0     C78130   5.599   7.726   6.266 -0.0046 -0.1857  0.2235
  567MOL0     C78131   5.565   7.876   6.273 -0.1288  0.3791  0.7162
  567MOL0     O78132   5.627   7.957   6.171 -0.7022 -0.0246  0.0643
  567MOL0     C78133   5.602   8.091   6.189  0.0849 -0.8092  0.2002
  567MOL0     C78134   5.707   8.186   6.171  0.8986 -0.2639  0.4149
  567MOL0     C78135   5.700   8.323   6.206  0.2120  0.0338  0.1345
  567MOL0     C78136   5.829   8.411   6.183  0.1784 -0.4738  0.6302
  567MOL0     C78137   5.572   8.375   6.241 -0.4694 -0.4552  0.3184
  567MOL0     C78138   5.549   8.515   6.281  0.9113 -0.0870  0.3660
  567MOL0     O78139   5.413   8.548   6.285  0.4389  0.6171  0.0134
  567MOL0     C78140   5.382   8.656   6.357  0.0437 -0.4977  0.2988
  567MOL0     C78141   5.315   8.657   6.477 -0.0274  0.2738 -0.1092
  567MOL0     C78142   5.286   8.774   6.548  0.0385 -0.4048 -0.1388
  567MOL0     C78143   5.346   8.887   6.501  0.0549  0.0744  0.0581
  567MOL0     O78144   5.338   8.998   6.582 -0.0760  0.0052  0.8967
  567MOL0     C78145   5.219   9.085   6.566 -0.4934  0.2736  0.8758
  567MOL0     C78146   5.120   9.065   6.679 -0.1142  0.9998 -0.8662
  567MOL0     C78147   5.183   9.098   6.809  0.2660 -0.3077 -0.7434
  567MOL0     C78148   5.112   9.041   6.933 -0.6337  0.1222 -0.2586
  567MOL0     C78149   5.188   9.071   7.058  0.6391 -0.1328 -0.1330
  567MOL0     C78150   5.115   9.029   7.188 -0.2694  0.8208  0.5939
  567MOL0     C78151   5.196   9.084   7.304  0.2274 -0.9220 -0.0973
  567MOL0     C78152   5.099   9.108   7.411 -0.1602 -0.9830  0.4946
  567MOL0    Cl78153   4.985   8.956   7.431 -0.7291 -0.0167 -0.1797
  567MOL0     C78154   5.414   8.891   6.382 -0.9431 -0.7616  0.1523
  567MOL0     C78155   5.437   8.774   6.303  0.3191  1.0308 -0.5075
  567MOL0     O78156   5.642   8.585   6.329  0.0100  0.8819 -0.6087
  567MOL0     C78157   5.468   8.291   6.227 -0.0537  0.5700  0.0928
  567MOL0     C78158   5.478   8.159   6.207  0.4448 -0.6860  0.2744
  567MOL0     N78159   5.505   7.846   6.576 -0.1594 -0.6051  0.1227
  567MOL0     N78160   5.481   7.911   6.683 -1.1681  0.3315 -0.0669
  567MOL0     C78161   4.710   8.281   6.898 -0.6459  0.1657  0.0888
  567MOL0     C78162   4.586   8.342   6.915 -0.0586  0.6137 -1.0314
  567MOL0     C78163   4.228   8.423   7.121 -0.0502  0.2978  0.0884
  567MOL0     C78164   4.250   8.554   7.081 -0.0845 -0.6600  0.0607
  567MOL0     C78165   4.192   8.666   7.135 -0.1180 -0.9847  0.3760
  567MOL0     C78166   4.091   8.657   7.229 -0.7087 -1.3070 -0.3500
  567MOL0     O78167   4.026   8.771   7.275 -0.0604  0.6242  0.5385
  567MOL0     C78168   3.920   8.769   7.371 -0.1878 -0.8595 -0.2018
  567MOL0     C78169   3.877   8.915   7.381 -0.1172 -0.3418  0.0075
  567MOL0     C78170   3.788   8.936   7.499  0.3367  0.3388  0.8260
  567MOL0     C78171   3.852   9.010   7.620 -0.7423  0.0774 -0.4735
  567MOL0     C78172   3.964   8.934   7.677 -0.1714 -0.4352 -0.5946
  567MOL0     C78173   4.059   8.884   7.724  0.0760  0.5823  0.4423
  567MOL0     C78174   4.071   8.530   7.282  0.4628 -0.1809  0.0748
  567MOL0     C78175   4.131   8.409   7.222  1.1050 -0.0677 -0.4575
  567MOL0     C78176   4.069   8.279   7.275 -0.7510  0.4676  0.4947
  567MOL0     H78177   4.401   8.052   6.910  1.2431 -0.2538 -1.8642
  567MOL0     H78178   4.601   7.951   6.893 -1.2229 -0.4082 -0.0859
  567MOL0     H78179   4.972   7.937   6.843  0.6783  1.0262 -0.0142
  567MOL0     H78180   4.796   7.884   6.859 -3.3516  3.4212  3.9494
  567MOL0     H78181   4.826   7.950   7.097  1.9961  0.0256  3.8121
  567MOL0     H78182   4.942   7.826   7.045 -3.5556 -1.9427 -1.1145
  567MOL0     H78183   5.006   8.129   7.047  2.5987  1.5603  1.3394
  567MOL0     H78184   4.999   8.036   7.198  0.0040  1.9376 -0.0486
  567MOL0     H78185   5.158   7.872   7.116  1.8880  1.6407  1.3718
  567MOL0     H78186   5.176   7.947   6.963 -2.9053  0.0106 -0.1109
  567MOL0     H78187   5.240   8.068   7.241  0.4966  0.5186  0.6570
  567MOL0     H78188   5.256   8.164   7.114 -0.8544 -0.8953 -2.4584
  567MOL0     H78189   5.474   8.055   7.183  3.4102 -2.7020 -0.2628
  567MOL0     H78190   5.396   7.892   7.162  0.6687 -0.3966 -0.3054
  567MOL0     H78191   5.569   8.048   6.989  0.2962 -0.7101  0.0124
  567MOL0     H78192   5.407   8.054   6.914  0.6128 -3.3212 -1.8543
  567MOL0     H78193   5.571   7.811   6.991 -0.9501 -0.0290  1.8735
  567MOL0     H78194   5.403   7.802   6.944  0.9866 -1.2464  3.2011
  567MOL0     H78195   5.663   7.657   6.794  1.8809  0.7247 -1.8351
  567MOL0     H78196   5.575   7.523   6.533 -3.1288 -0.1129  0.6406
  567MOL0     H78197   5.710   7.634   6.495  0.0921 -3.1869  0.0375
  567MOL0     H78198   5.516   7.542   6.332 -0.2272  0.3734 -0.5659
  567MOL0     H78199   5.431   7.685   6.394 -0.9423 -2.2081 -1.0463
  567MOL0     H78200   5.705   7.704   6.283  0.2225  0.6467 -0.0989
  567MOL0     H78201   5.581   7.688   6.165  3.5634  0.4350 -0.7842
  567MOL0     H78202   5.457   7.890   6.259 -0.0553 -0.6186 -1.0916
  567MOL0     H78203   5.599   7.921   6.367  0.3499  1.1902  0.1728
  567MOL0     H78204   5.801   8.143   6.139  0.4760  0.1803 -1.5709
  567MOL0     H78205   5.874   8.431   6.281  1.6307 -0.0848 -0.0863
  567MOL0     H78206   5.800   8.499   6.124  0.8176  1.5884  3.2118
  567MOL0     H78207   5.910   8.353   6.136 -1.4300 -3.9127  1.7633
  567MOL0     H78208   5.293   8.560   6.520  1.4609 -0.8107 -1.6590
  567MOL0     H78209   5.237   8.777   6.644  0.4189  0.3044  0.0385
  567MOL0     H78210   5.255   9.188   6.564  0.3478 -0.0159  1.0684
  567MOL0     H78211   5.171   9.068   6.469  1.2233 -0.3348  0.0946
  567MOL0     H78212   5.029   9.123   6.659  0.4701  1.8212 -1.1961
  567MOL0     H78213   5.099   8.958   6.685 -5.0627  1.6748 -1.8413
  567MOL0     H78214   5.187   9.207   6.818 -0.1728 -0.4156  1.1478
  567MOL0     H78215   5.285   9.058   6.808 -0.4646 -2.4697  1.4745
  567MOL0     H78216   5.095   8.933   6.927 -0.5328  0.0009  1.1959
  567MOL0     H78217   5.015   9.091   6.944 -0.4696  0.7275 -1.3543
  567MOL0     H78218   5.286   9.022   7.054  1.2278  1.0205 -0.2425
  567MOL0     H78219   5.205   9.179   7.062  2.3945 -0.3315 -1.2814
  567MOL0     H78220   5.110   8.920   7.199  1.8638  0.3670 -1.8531
  567MOL0     H78221   5.021   9.084   7.194 -0.0197  1.1151  2.0555
  567MOL0     H78222   5.251   9.173   7.271  1.3969 -1.1955  1.0260
  567MOL0     H78223   5.264   9.012   7.350 -0.6409 -1.5247  0.2781
  567MOL0     H78224   5.035   9.196   7.404  1.0397 -0.1435 -0.7751
  567MOL0     H78225   5.164   9.121   7.498 -0.4316 -0.8655  0.6782
  567MOL0     H78226   5.456   8.989   6.360  0.1002 -1.3124 -0.4289
  567MOL0     H78227   5.499   8.770   6.214  2.4437 -2.2860  0.9510
  567MOL0     H78228   5.367   8.324   6.243 -0.5416  2.0749 -4.5374
  567MOL0     H78229   5.387   8.101   6.214 -0.2042 -0.0983 -2.2905
  567MOL0     H78230   4.795   8.347   6.881 -0.8299  0.0547 -1.3997
  567MOL0     H78231   4.573   8.450   6.921 -0.9599  0.5631 -1.8591
  567MOL0     H78232   4.341   8.584   7.030  1.9894 -1.6155  2.9993
  567MOL0     H78233   4.197   8.767   7.097  0.9003 -1.0345  0.3465
  567MOL0     H78234   3.833   8.712   7.337  1.1678 -2.8270 -0.5751
  567MOL0     H78235   3.949   8.743   7.473 -1.3187  0.9270  0.6190
  567MOL0     H78236   3.817   8.922   7.289  1.9061 -0.1653 -1.3664
  567MOL0     H78237   3.963   8.982   7.392  0.0995 -0.6879  0.4288
  567MOL0     H78238   3.707   9.003   7.469  0.2408  0.1647  0.6883
  567MOL0     H78239   3.739   8.838   7.505  0.9798 -0.4579 -3.3134
  567MOL0     H78240   3.765   9.014   7.686 -1.7733  0.2654 -1.8076
  567MOL0     H78241   3.887   9.106   7.581  3.4640 -1.3149 -0.6181
  567MOL0     H78242   4.144   8.838   7.771 -0.7027 -0.9807  0.3953
  567MOL0     H78243   3.991   8.517   7.353 -0.8713  1.3757 -1.0767
  567MOL0     H78244   4.033   8.206   7.201  0.7597  0.3498 -0.1786
  567MOL0     H78245   4.146   8.223   7.329 -0.9343 -1.4378 -1.0771
  567MOL0     H78246   3.986   8.283   7.345 -0.4149  0.4957  0.8915
  568MOL0     O78247   6.208   2.262   4.062 -0.4467 -0.0803 -0.3092
  568MOL0     C78248   6.185   2.221   3.950  0.3475 -0.3225  0.2488
  568MOL0     O78249   6.072   2.156   3.910  0.2736 -0.3018 -0.2468
  568MOL0     C78250   5.953   2.186   3.969 -0.0008  0.6470 -0.3228
  568MOL0     C78251   5.922   2.304   4.025  0.1859  0.2639 -0.2681
  568MOL0     C78252   5.802   2.322   4.090 -0.2202  0.7012 -0.8162
  568MOL0     C78253   5.715   2.222   4.110  0.0823  1.2327  0.2388
  568MOL0     O78254   5.597   2.259   4.161 -0.0495 -0.5066  0.2102
  568MOL0     C78255   5.471   2.189   4.151  0.3425  0.1541 -0.2996
  568MOL0     C78256   5.446   2.105   4.279 -0.3338  0.2282  0.3426
  568MOL0     C78257   5.300   2.080   4.296  0.4111 -0.0624 -0.2123
  568MOL0     C78258   5.266   2.016   4.424 -0.2954 -1.2196 -0.6180
  568MOL0     C78259   5.119   1.999   4.455 -0.5179  0.0568 -0.1985
  568MOL0     C78260   5.037   2.125   4.448 -0.7606 -0.1577  0.7305
  568MOL0     C78261   4.892   2.102   4.483  0.8136  1.0388  0.6787
  568MOL0     C78262   4.867   2.059   4.627  0.6747  0.5466  0.8118
  568MOL0     N78263   4.732   2.066   4.670 -0.2804 -0.5527 -0.2393
  568MOL0     C78264   4.649   2.181   4.664 -0.6545 -0.3596 -0.4789
  568MOL0     C78265   4.526   2.130   4.712 -0.6432 -0.6161 -0.8085
  568MOL0     C78266   4.401   2.217   4.705 -0.8323  0.5871 -0.4047
  568MOL0     C78267   4.284   2.118   4.672  0.8955 -0.5722  0.4270
  568MOL0     C78268   4.166   2.176   4.591  0.0377 -0.4380 -0.4410
  568MOL0     C78269   4.186   2.316   4.528 -0.2031  0.0073 -0.2902
  568MOL0     O78270   4.285   2.314   4.420  0.0337  0.5370  0.0033
  568MOL0     C78271   4.271   2.250   4.299 -0.1436 -0.0085 -0.2639
  568MOL0     C78272   4.386   2.239   4.205  0.7522  0.2551 -0.0013
  568MOL0     C78273   4.383   2.184   4.074 -0.7160  0.7862 -0.3651
  568MOL0     C78274   4.502   2.209   3.984 -0.4858 -0.5081  0.7347
  568MOL0     C78275   4.261   2.120   4.031  0.3091 -0.0325  0.0408
  568MOL0     C78276   4.229   2.062   3.899 -0.8838  0.8083  0.0879
  568MOL0     O78277   4.104   2.060   3.855  0.0635 -0.3628  0.3916
  568MOL0     C78278   4.050   1.962   3.776  0.2091 -0.2464  1.4342
  568MOL0     C78279   3.939   2.002   3.694  0.6134  1.0157  0.3188
  568MOL0     C78280   3.873   1.914   3.604 -0.4362  0.4319 -0.2230
  568MOL0     C78281   3.924   1.784   3.598 -0.2957  0.8263  0.1243
  568MOL0     O78282   3.867   1.712   3.506 -0.3293 -0.1894 -0.4502
  568MOL0     C78283   3.876   1.570   3.507 -0.5506  0.0725 -0.3015
  568MOL0     C78284   3.798   1.507   3.396  0.4932 -0.3660 -0.1059
  568MOL0     C78285   3.649   1.469   3.427 -0.2198 -0.9765 -0.1813
  568MOL0     C78286   3.530   1.561   3.374 -0.5485 -0.1125  0.9200
  568MOL0     C78287   3.398   1.507   3.403  0.9463  0.1747 -0.7047
  568MOL0     C78288   3.355   1.405   3.300 -0.4628  0.1806 -0.2116
  568MOL0     C78289   3.229   1.325   3.337  0.0958 -0.3338 -0.5816
  568MOL0     C78290   3.235   1.234   3.457  0.9811 -0.2012 -0.1403
  568MOL0    Cl78291   3.389   1.165   3.484  0.3924  0.4013 -0.1235
  568MOL0     C78292   4.032   1.746   3.677  0.6207  0.9892 -0.0776
  568MOL0     C78293   4.099   1.830   3.767 -0.3030 -0.3340  0.8528
  568MOL0     O78294   4.323   2.011   3.840  0.5391  0.6833  0.2524
  568MOL0     C78295   4.150   2.125   4.124 -0.0686 -0.2845  0.3539
  568MOL0     C78296   4.152   2.193   4.251 -0.2726 -0.0463  1.1469
  568MOL0     N78297   4.549   2.001   4.771  0.4500  0.3218  0.6543
  568MOL0     N78298   4.664   1.971   4.731 -0.4780  0.5638  0.3388
  568MOL0     C78299   5.742   2.093   4.056 -0.5319  0.5040  0.5729
  568MOL0     C78300   5.863   2.078   3.982 -0.7307  0.4098 -0.6185
  568MOL0     C78301   6.297   2.226   3.851 -0.7316  0.3108 -0.1692
  568MOL0     C78302   6.418   2.290   3.892  0.6633  0.4923  0.1208
  568MOL0     C78303   6.532   2.308   3.807  0.6290 -0.1566 -0.8701
  568MOL0     C78304   6.536   2.252   3.682  0.5163 -1.1818 -0.5196
  568MOL0     O78305   6.654   2.274   3.611 -0.0175 -0.1315  1.0991
  568MOL0     C78306   6.661   2.228   3.473 -0.2226 -1.2030 -0.2612
  568MOL0     C78307   6.687   2.079   3.490 -0.3985 -0.4273 -0.0664
  568MOL0     C78308   6.806   2.052   3.572 -1.1979  0.2085 -0.1429
  568MOL0     C78309   6.842   1.900   3.574  0.3706  0.2568  0.1715
  568MOL0     C78310   6.730   1.831   3.637  0.7395 -0.8459  0.2907
  568MOL0     C78311   6.634   1.790   3.702  0.3537 -0.6970  0.1586
  568MOL0     C78312   6.420   2.170   3.652  1.0520  0.4749 -0.0590
  568MOL0     C78313   6.307   2.152   3.731 -0.9930  0.0260 -0.2042
  568MOL0     C78314   6.198   2.059   3.670 -0.7593 -0.4837 -0.1622
  568MOL0     H78315   6.003   2.376   4.026  1.9597 -1.5261  2.8202
  568MOL0     H78316   5.779   2.421   4.126 -3.3748 -1.1640  3.0041
  568MOL0     H78317   5.478   2.126   4.062  0.7813  2.6301 -2.1433
  568MOL0     H78318   5.389   2.260   4.134  0.4659  0.1748 -0.8482
  568MOL0     H78319   5.503   2.011   4.276 -1.8211 -0.7720  1.6751
  568MOL0     H78320   5.482   2.168   4.360 -0.3034 -0.0740  0.5673
  568MOL0     H78321   5.248   2.173   4.272 -1.3114 -1.2267 -1.2181
  568MOL0     H78322   5.265   2.018   4.213 -1.6509 -1.4715  1.5916
  568MOL0     H78323   5.306   1.914   4.425 -2.5424 -2.1665 -1.2718
  568MOL0     H78324   5.310   2.074   4.506 -0.8172 -3.9857  1.8006
  568MOL0     H78325   5.121   1.955   4.555  1.7604 -3.0464 -1.4397
  568MOL0     H78326   5.077   1.937   4.375  0.1116  1.3801 -1.6101
  568MOL0     H78327   5.065   2.210   4.511 -3.1094 -0.8261  2.8293
  568MOL0     H78328   5.033   2.151   4.342  0.4057  0.8207  0.8982
  568MOL0     H78329   4.842   2.026   4.421  3.0727  0.1780 -0.1986
  568MOL0     H78330   4.840   2.197   4.467  0.4972  1.5990  4.1992
  568MOL0     H78331   4.892   1.952   4.634  1.6521  0.8458  2.6203
  568MOL0     H78332   4.940   2.103   4.696  1.9737 -1.1547  0.5950
  568MOL0     H78333   4.659   2.283   4.629 -1.6761  0.9495  2.7455
  568MOL0     H78334   4.414   2.291   4.625 -0.6169 -0.9048 -1.8031
  568MOL0     H78335   4.392   2.269   4.800 -0.7197  4.8805 -2.4983
  568MOL0     H78336   4.316   2.031   4.614 -1.2713  0.2718 -2.2221
  568MOL0     H78337   4.246   2.084   4.769  0.8045 -0.5936  0.3836
  568MOL0     H78338   4.161   2.098   4.514  0.3455 -2.6222  1.6234
  568MOL0     H78339   4.076   2.175   4.653 -0.8638 -3.6288 -1.5933
  568MOL0     H78340   4.089   2.351   4.490  0.0524 -1.4287 -2.4578
  568MOL0     H78341   4.226   2.392   4.596  0.4982  0.9932 -1.7452
  568MOL0     H78342   4.485   2.272   4.234  0.6029  0.3168  0.4397
  568MOL0     H78343   4.482   2.277   3.901 -3.1299  0.5901  2.1427
  568MOL0     H78344   4.542   2.113   3.949  1.1303  1.1899 -2.4007
  568MOL0     H78345   4.581   2.263   4.037  1.1867 -0.9698 -1.1630
  568MOL0     H78346   3.918   2.109   3.694  0.9687  1.1311 -2.1581
  568MOL0     H78347   3.786   1.937   3.543 -1.2064 -3.2153 -0.7423
  568MOL0     H78348   3.980   1.545   3.483 -0.9508 -1.2230 -0.7551
  568MOL0     H78349   3.860   1.520   3.603 -1.1641 -0.7683 -0.8302
  568MOL0     H78350   3.800   1.583   3.317 -1.7230  0.0052  0.1219
  568MOL0     H78351   3.851   1.414   3.374  2.8205  0.7953  0.3413
  568MOL0     H78352   3.634   1.472   3.535 -1.2454  2.1733 -0.3227
  568MOL0     H78353   3.635   1.367   3.388 -0.3654 -1.1663  0.3550
  568MOL0     H78354   3.551   1.561   3.266  3.9162  0.9672  1.5864
  568MOL0     H78355   3.545   1.661   3.415  0.6336  2.1266 -4.1652
  568MOL0     H78356   3.396   1.465   3.504  2.6419  3.8404  1.0171
  568MOL0     H78357   3.323   1.586   3.405 -0.6547 -1.3005  0.5192
  568MOL0     H78358   3.436   1.335   3.277 -0.0658  0.6464 -0.2541
  568MOL0     H78359   3.339   1.460   3.207 -1.6746 -0.5327 -0.4458
  568MOL0     H78360   3.215   1.257   3.253  1.4311 -0.9718 -0.3075
  568MOL0     H78361   3.145   1.395   3.346 -0.6665 -1.3737  0.7641
  568MOL0     H78362   3.165   1.152   3.439  0.5917 -0.4343  2.1641
  568MOL0     H78363   3.199   1.296   3.540  0.9863 -1.0208  0.4899
  568MOL0     H78364   4.068   1.647   3.653  0.3420  0.7254  0.5699
  568MOL0     H78365   4.191   1.785   3.804  1.0996  0.5114 -1.3798
  568MOL0     H78366   4.066   2.062   4.096  1.6405 -2.4303 -0.2110
  568MOL0     H78367   4.055   2.196   4.300  1.2583  2.9918  4.5408
  568MOL0     H78368   5.659   2.024   4.061 -2.8821  3.1692  0.5623
  568MOL0     H78369   5.889   1.980   3.943 -0.7059  0.3297 -0.4061
  568MOL0     H78370   6.434   2.350   3.981 -0.5241  0.6738  0.2326
  568MOL0     H78371   6.604   2.379   3.846  1.4442  0.1695 -2.8438
  568MOL0     H78372   6.568   2.261   3.427 -0.3285 -1.1844 -0.0332
  568MOL0     H78373   6.737   2.285   3.419  0.5888  1.3003  3.1915
  568MOL0     H78374   6.700   2.054   3.384 -0.2096  3.0841 -1.0030
  568MOL0     H78375   6.597   2.027   3.524 -1.2621  1.6867  1.0365
  568MOL0     H78376   6.887   2.106   3.522 -2.2435 -0.4202 -2.6814
  568MOL0     H78377   6.786   2.089   3.673 -0.6126  2.9535 -0.9503
  568MOL0     H78378   6.940   1.880   3.617  0.8427  0.6743 -0.6774
  568MOL0     H78379   6.846   1.860   3.473 -7.2888 -2.2455  0.1682
  568MOL0     H78380   6.550   1.761   3.761 -1.4459  1.0024 -1.4097
  568MOL0     H78381   6.418   2.130   3.550  0.2682 -2.2144  0.9150
  568MOL0     H78382   6.250   1.996   3.597  0.9388  0.4086  0.2309
  568MOL0     H78383   6.157   1.989   3.744 -2.6042  0.3070 -0.3783
  568MOL0     H78384   6.112   2.111   3.627  0.2722  0.4925 -1.1133
  569MOL0     O78385   5.662   7.480   4.440  0.2665  0.4166 -0.6515
  569MOL0     C78386   5.645   7.365   4.493 -0.3559  0.0757 -0.3084
  569MOL0     O78387   5.744   7.283   4.533 -0.5295  1.1261 -0.1036
  569MOL0     C78388   5.871   7.325   4.501 -1.1236  0.4701  0.3930
  569MOL0     C78389   5.972   7.328   4.603  0.6765  0.7350 -0.3848
  569MOL0     C78390   6.103   7.339   4.575  1.0894  0.6266 -0.6538
  569MOL0     C78391   6.138   7.371   4.447 -0.5241  0.2433  0.4715
  569MOL0     O78392   6.275   7.409   4.428 -0.0709  0.0637  0.2486
  569MOL0     C78393   6.324   7.461   4.313  0.8728  0.2127  0.4032
  569MOL0     C78394   6.403   7.341   4.235 -0.3214 -0.5532 -0.7353
  569MOL0     C78395   6.517   7.403   4.139  0.1167 -0.5092  0.9897
  569MOL0     C78396   6.567   7.314   4.021 -0.0897 -0.0065 -0.0490
  569MOL0     C78397   6.716   7.318   4.002 -0.9730 -0.6223 -0.0076
  569MOL0     C78398   6.763   7.190   3.941 -1.0637  0.0706  0.2203
  569MOL0     C78399   6.909   7.201   3.923  0.2115 -0.2578  0.9890
  569MOL0     C78400   6.987   7.083   3.856 -0.3040 -0.2216  1.0004
  569MOL0     N78401   6.986   6.957   3.936 -0.3839 -0.5949  0.1768
  569MOL0     C78402   6.983   6.831   3.882  0.8005  0.9584 -1.0145
  569MOL0     C78403   7.018   6.748   3.985  0.0646  0.6861 -0.6645
  569MOL0     C78404   7.046   6.596   3.972  0.1053 -0.0751 -0.5060
  569MOL0     C78405   7.052   6.538   4.118  0.9822  0.8749  0.9279
  569MOL0     C78406   7.062   6.380   4.122  1.5757 -0.3637  0.6820
  569MOL0     C78407   7.209   6.333   4.104 -1.4822 -0.1448  0.2537
  569MOL0     O78408   7.267   6.369   3.970  0.0722  0.6896  0.5245
  569MOL0     C78409   7.257   6.285   3.860  0.4838  0.2702  0.5066
  569MOL0     C78410   7.163   6.190   3.838  0.5412  0.1739  0.6267
  569MOL0     C78411   7.143   6.116   3.717  0.0448 -0.6310  0.1337
  569MOL0     C78412   7.034   6.008   3.709 -0.1861 -0.4099 -0.5867
  569MOL0     C78413   7.233   6.136   3.613 -0.8359 -1.2616 -1.0094
  569MOL0     C78414   7.227   6.057   3.487  0.6646 -0.1538 -0.1822
  569MOL0     O78415   7.142   5.963   3.454 -0.4404 -0.5990 -0.0756
  569MOL0     C78416   7.176   5.888   3.347  0.4722  0.6485 -0.4921
  569MOL0     C78417   7.276   5.794   3.356 -0.1718  0.0233  0.0361
  569MOL0     C78418   7.308   5.707   3.240  0.1126  1.2595 -1.2799
  569MOL0     C78419   7.225   5.711   3.129 -0.4590  0.0512 -0.1529
  569MOL0     O78420   7.236   5.630   3.023  0.6189  0.2865  0.1925
  569MOL0     C78421   7.326   5.520   3.021 -0.2977 -1.1275 -0.2939
  569MOL0     C78422   7.337   5.431   2.901  1.6417 -0.0613 -0.6125
  569MOL0     C78423   7.190   5.384   2.867  0.0632  0.1494  0.1664
  569MOL0     C78424   7.187   5.288   2.750 -0.1305  0.8028 -0.9159
  569MOL0     C78425   7.058   5.193   2.740  0.7576 -0.8522 -0.0363
  569MOL0     C78426   6.943   5.288   2.706 -0.1010  0.1326  0.3217
  569MOL0     C78427   6.810   5.208   2.688 -0.1860  0.4283  0.2826
  569MOL0     C78428   6.786   5.109   2.801  0.4123 -0.4005 -0.7477
  569MOL0    Cl78429   6.620   5.060   2.799 -0.1367 -0.0338  0.1329
  569MOL0     C78430   7.116   5.796   3.131 -0.9492 -0.0145  0.6886
  569MOL0     C78431   7.094   5.889   3.225 -0.0288  0.4963 -1.4026
  569MOL0     O78432   7.326   6.088   3.420 -0.0122 -0.3056 -0.3027
  569MOL0     C78433   7.342   6.235   3.636 -0.2775 -1.3144  0.8569
  569MOL0     C78434   7.349   6.306   3.759 -0.5495  0.1469  0.1709
  569MOL0     N78435   7.041   6.826   4.095 -0.5865 -0.5647  0.8841
  569MOL0     N78436   7.027   6.950   4.069 -0.4932 -0.5981 -0.1582
  569MOL0     C78437   6.043   7.368   4.342 -0.5538 -0.2521  0.5252
  569MOL0     C78438   5.911   7.338   4.364  0.8073 -0.3099 -0.2469
  569MOL0     C78439   5.502   7.317   4.522 -0.2787 -0.9818  0.0308
  569MOL0     C78440   5.480   7.183   4.510 -0.5849  0.4060 -0.0745
  569MOL0     C78441   5.354   7.129   4.528 -0.8528  0.2042  0.7889
  569MOL0     C78442   5.249   7.204   4.574 -0.1556 -0.2502  0.0179
  569MOL0     O78443   5.124   7.147   4.600  0.5201  0.6659 -0.7119
  569MOL0     C78444   5.124   7.073   4.720 -0.5059 -0.2684 -0.4417
  569MOL0     C78445   5.000   6.990   4.735 -1.4309  0.2347 -0.6062
  569MOL0     C78446   4.883   7.078   4.767 -0.1387 -0.1229 -0.2567
  569MOL0     C78447   4.862   7.123   4.914  0.0568  0.8184 -0.0121
  569MOL0     C78448   4.759   7.225   4.918 -0.1421 -1.0728 -0.1222
  569MOL0     C78449   4.673   7.298   4.949 -0.9678  0.3558  0.7961
  569MOL0     C78450   5.265   7.341   4.571 -0.1613 -1.1668 -0.3277
  569MOL0     C78451   5.391   7.400   4.550  0.3421 -0.4848  0.5658
  569MOL0     C78452   5.399   7.549   4.565 -0.3569  0.1386  0.0748
  569MOL0     H78453   5.940   7.311   4.705 -0.7749 -0.4125 -0.9853
  569MOL0     H78454   6.171   7.327   4.658  0.9768  0.9071 -0.5197
  569MOL0     H78455   6.394   7.540   4.342  0.4787  0.3820  0.8923
  569MOL0     H78456   6.243   7.488   4.245 -0.4511  0.8290  2.1623
  569MOL0     H78457   6.459   7.279   4.306  2.3693  0.5638 -1.7178
  569MOL0     H78458   6.330   7.283   4.179 -0.6114 -0.3222 -0.5942
  569MOL0     H78459   6.482   7.495   4.093  1.5646 -0.2906  0.2706
  569MOL0     H78460   6.609   7.424   4.195  2.1308  1.0653 -2.5453
  569MOL0     H78461   6.534   7.212   4.043 -0.2696  0.6707  3.3867
  569MOL0     H78462   6.534   7.345   3.922  1.7222 -1.1152 -1.0445
  569MOL0     H78463   6.773   7.346   4.091  0.9662  1.7570 -1.8587
  569MOL0     H78464   6.734   7.405   3.939  1.5857  0.2892  1.8478
  569MOL0     H78465   6.740   7.109   4.011 -1.4972 -0.7047 -0.7882
  569MOL0     H78466   6.723   7.155   3.845  0.1455 -0.7189 -0.0323
  569MOL0     H78467   6.963   7.227   4.015  1.7613  1.0150 -0.2256
  569MOL0     H78468   6.917   7.284   3.852 -0.9378 -1.4977 -0.6701
  569MOL0     H78469   6.952   7.072   3.753  0.5249 -0.7950  0.7621
  569MOL0     H78470   7.091   7.111   3.836 -0.5216 -0.9245 -1.4523
  569MOL0     H78471   6.970   6.793   3.781  0.6814 -1.4684 -0.1573
  569MOL0     H78472   7.141   6.594   3.918  0.8387 -0.2496  0.7530
  569MOL0     H78473   6.967   6.550   3.913 -0.5956  2.6010 -1.8046
  569MOL0     H78474   7.135   6.586   4.171  0.2387  3.2210  0.1079
  569MOL0     H78475   6.957   6.564   4.165 -0.2967  2.8526 -2.3846
  569MOL0     H78476   7.005   6.355   4.211  0.6845  3.5654  1.3955
  569MOL0     H78477   7.014   6.333   4.035  2.8441 -1.1985  0.3962
  569MOL0     H78478   7.265   6.393   4.177  0.6413  1.4874 -2.5003
  569MOL0     H78479   7.218   6.225   4.117 -0.2721  0.0706  1.4964
  569MOL0     H78480   7.083   6.175   3.909 -0.6855 -1.0821 -0.9418
  569MOL0     H78481   6.955   6.026   3.635 -0.7864  0.7483  0.2952
  569MOL0     H78482   6.981   6.008   3.805  3.0539 -0.8643  1.3557
  569MOL0     H78483   7.083   5.911   3.697 -0.7263 -0.4509 -2.9130
  569MOL0     H78484   7.350   5.786   3.435  1.1165  0.1936 -1.1132
  569MOL0     H78485   7.387   5.633   3.243 -2.1543 -1.3079  1.7948
  569MOL0     H78486   7.423   5.569   3.034 -1.2165  0.5546  0.5180
  569MOL0     H78487   7.299   5.458   3.107  0.3896 -0.9473  0.0564
  569MOL0     H78488   7.360   5.503   2.822 -3.9277  0.6492 -2.0110
  569MOL0     H78489   7.407   5.347   2.910 -0.1084 -1.3972  1.6785
  569MOL0     H78490   7.133   5.471   2.833  0.1597 -0.2772 -1.1190
  569MOL0     H78491   7.139   5.343   2.955 -1.0535  1.0546 -0.0310
  569MOL0     H78492   7.265   5.213   2.764 -0.4799  0.7665  1.0661
  569MOL0     H78493   7.200   5.344   2.657 -4.5294  1.6764 -1.2266
  569MOL0     H78494   7.072   5.125   2.656 -0.0505 -0.0775 -0.8227
  569MOL0     H78495   7.060   5.139   2.835  3.5948 -2.7575 -1.0573
  569MOL0     H78496   6.964   5.347   2.617 -0.7653  0.4767  0.3876
  569MOL0     H78497   6.936   5.369   2.779 -1.1573  1.1021 -0.8205
  569MOL0     H78498   6.804   5.159   2.591 -0.1684 -1.0536  1.0059
  569MOL0     H78499   6.722   5.273   2.690 -1.3428 -1.0963  0.7859
  569MOL0     H78500   6.787   5.153   2.901 -0.0658 -1.5036 -0.2353
  569MOL0     H78501   6.858   5.027   2.795 -0.2519 -0.9778 -1.0364
  569MOL0     H78502   7.044   5.795   3.050 -1.2021  2.0401  0.8301
  569MOL0     H78503   7.006   5.952   3.224  0.7249  1.6088 -0.3825
  569MOL0     H78504   7.426   6.251   3.568  0.3676  0.7797  2.0640
  569MOL0     H78505   7.435   6.371   3.770 -1.8581  2.2380 -1.3813
  569MOL0     H78506   6.069   7.383   4.237  0.6957  0.0495  0.8562
  569MOL0     H78507   5.835   7.337   4.287 -2.3165  0.8908  2.5854
  569MOL0     H78508   5.561   7.115   4.486 -0.8130 -1.2488  3.2508
  569MOL0     H78509   5.333   7.023   4.519 -0.0319  0.0537  0.5460
  569MOL0     H78510   5.215   7.015   4.740  0.0040  1.3998  2.9309
  569MOL0     H78511   5.120   7.137   4.809 -2.9968 -2.1610  0.9295
  569MOL0     H78512   5.013   6.914   4.812  1.2727  0.0241 -1.1533
  569MOL0     H78513   4.980   6.925   4.649 -0.6432 -0.6950 -0.0988
  569MOL0     H78514   4.895   7.172   4.712  2.4042  0.1241  0.6051
  569MOL0     H78515   4.797   7.028   4.721 -0.6682  2.5028 -2.4196
  569MOL0     H78516   4.952   7.170   4.954  0.8963 -0.5043 -0.3144
  569MOL0     H78517   4.823   7.030   4.955 -0.6033 -0.0443 -2.4274
  569MOL0     H78518   4.592   7.358   4.986 -1.3612 -0.3963  1.1643
  569MOL0     H78519   5.180   7.405   4.594 -1.0615 -1.5951 -2.2682
  569MOL0     H78520   5.497   7.583   4.597 -0.7598  1.1144  0.3214
  569MOL0     H78521   5.383   7.601   4.470  1.0030  0.1712 -0.1490
  569MOL0     H78522   5.326   7.591   4.635 -0.9987  0.3768 -0.7165
  570MOL0     O78523   3.021   6.649   7.705  0.4254  0.2435  0.5077
  570MOL0     C78524   2.913   6.616   7.653 -0.9900  0.4977 -0.8740
  570MOL0     O78525   2.902   6.603   7.517 -0.0988 -0.7809  0.7022
  570MOL0     C78526   3.005   6.640   7.437 -0.5689  0.0249  0.9412
  570MOL0     C78527   3.092   6.550   7.377 -0.6814  0.3772 -0.4124
  570MOL0     C78528   3.179   6.581   7.282 -0.2892 -0.3486  0.1388
  570MOL0     C78529   3.177   6.720   7.237 -0.1540 -0.6388  1.1835
  570MOL0     O78530   3.257   6.765   7.133 -0.0233  0.4033  0.4973
  570MOL0     C78531   3.272   6.696   7.004  0.1784  0.3983  0.4269
  570MOL0     C78532   3.386   6.601   7.006 -0.5938  0.7773 -1.0382
  570MOL0     C78533   3.510   6.655   7.077 -0.6287 -0.0243  0.6124
  570MOL0     C78534   3.650   6.615   7.013  0.7631 -0.8469  0.3865
  570MOL0     C78535   3.678   6.694   6.879  0.0551  0.7460 -0.2072
  570MOL0     C78536   3.801   6.636   6.813 -0.0368  0.0591  0.7622
  570MOL0     C78537   3.831   6.696   6.678  1.2448 -0.4902  0.2581
  570MOL0     C78538   3.872   6.609   6.566  0.2652 -0.4273  0.9729
  570MOL0     N78539   3.924   6.694   6.457 -0.5564 -0.3957  0.1986
  570MOL0     C78540   3.963   6.645   6.338 -0.2603  0.3543  0.5445
  570MOL0     C78541   4.040   6.737   6.277  0.1992 -0.2452  0.0624
  570MOL0     C78542   4.104   6.703   6.149  0.0802 -0.3439  0.5689
  570MOL0     C78543   4.171   6.827   6.089 -0.0497 -0.0465 -0.1648
  570MOL0     C78544   4.261   6.807   5.973  0.5158  0.0869  0.5815
  570MOL0     C78545   4.343   6.921   5.926  0.6120  0.1176  0.2500
  570MOL0     O78546   4.452   6.863   5.853  0.2867  0.3772 -0.1122
  570MOL0     C78547   4.550   6.946   5.816 -0.2502 -0.5186  0.0398
  570MOL0     C78548   4.671   6.896   5.764 -0.2350 -0.0271 -0.1140
  570MOL0     C78549   4.776   6.976   5.721 -0.2527 -0.1181  0.2580
  570MOL0     C78550   4.894   6.897   5.684 -0.5280 -0.3629  0.1454
  570MOL0     C78551   4.766   7.120   5.726 -1.1664 -0.2023 -0.7055
  570MOL0     C78552   4.868   7.207   5.660  0.8350  1.0035 -0.3476
  570MOL0     O78553   4.827   7.270   5.549 -0.8427 -1.0784 -0.1111
  570MOL0     C78554   4.876   7.397   5.512 -0.1989  0.5639  0.6311
  570MOL0     C78555   4.946   7.487   5.590  0.2752 -0.7424  0.0672
  570MOL0     C78556   4.991   7.617   5.552 -0.3245  0.7109  0.3520
  570MOL0     C78557   4.966   7.660   5.418  0.0810  0.1124 -0.3782
  570MOL0     O78558   4.998   7.781   5.358  0.5229  0.4675 -0.3476
  570MOL0     C78559   5.078   7.880   5.436  1.4049  0.1806  0.3779
  570MOL0     C78560   5.224   7.843   5.422 -0.1889  0.1614 -0.5351
  570MOL0     C78561   5.272   7.861   5.283  0.2410 -0.1326  0.5817
  570MOL0     C78562   5.430   7.839   5.274  1.1589  0.2595 -0.5054
  570MOL0     C78563   5.491   7.849   5.134 -0.1179 -0.5821  0.3929
  570MOL0     C78564   5.449   7.955   5.040  0.0387 -0.1353  0.0358
  570MOL0     C78565   5.325   7.908   4.956  0.4989 -0.7331  0.0039
  570MOL0     C78566   5.336   7.994   4.831 -0.5848 -0.3880 -0.4208
  570MOL0    Cl78567   5.324   8.166   4.865 -0.2656 -0.5427  0.2342
  570MOL0     C78568   4.890   7.576   5.328  0.6975  0.1822 -0.7268
  570MOL0     C78569   4.847   7.451   5.382 -0.2482 -0.0301  0.4120
  570MOL0     O78570   4.978   7.217   5.713 -0.4806 -0.2169  0.2106
  570MOL0     C78571   4.645   7.172   5.772  0.8184  0.0830  0.5259
  570MOL0     C78572   4.535   7.087   5.816  0.1878 -0.1603 -0.5407
  570MOL0     N78573   4.038   6.856   6.355  0.3711  0.0881  0.0275
  570MOL0     N78574   3.982   6.816   6.467  0.9254  0.1422 -0.3905
  570MOL0     C78575   3.093   6.814   7.293  0.1997  0.3911 -0.4846
  570MOL0     C78576   3.011   6.775   7.395  0.7070  0.4038 -0.4236
  570MOL0     C78577   2.811   6.574   7.746 -0.4144  0.2927  0.0206
  570MOL0     C78578   2.716   6.485   7.685 -0.7739  0.9623 -0.2505
  570MOL0     C78579   2.611   6.418   7.759  0.0165 -0.0378  0.0758
  570MOL0     C78580   2.597   6.436   7.894 -0.2348 -0.0605 -0.0879
  570MOL0     O78581   2.505   6.366   7.972 -0.7286 -0.4427 -0.4501
  570MOL0     C78582   2.424   6.438   8.067 -0.2372 -0.2301 -0.1668
  570MOL0     C78583   2.306   6.347   8.105 -0.4760 -0.0139 -0.3465
  570MOL0     C78584   2.208   6.312   7.995 -1.0944 -0.4347  0.1578
  570MOL0     C78585   2.225   6.169   7.937 -0.2864 -0.2143 -0.2310
  570MOL0     C78586   2.192   6.066   8.042  0.0880 -1.0870 -0.8058
  570MOL0     C78587   2.156   5.999   8.148  0.6286 -0.3750  0.1658
  570MOL0     C78588   2.678   6.538   7.947  0.1393  0.0582  0.3718
  570MOL0     C78589   2.780   6.605   7.878  0.0058  0.5720 -0.0506
  570MOL0     C78590   2.843   6.712   7.958 -1.2537 -0.0473 -0.4066
  570MOL0     H78591   3.090   6.446   7.410  1.1516  1.6326  4.4740
  570MOL0     H78592   3.248   6.504   7.248  3.5065  1.9030  1.9733
  570MOL0     H78593   3.294   6.767   6.924  0.2737 -0.0006  0.1003
  570MOL0     H78594   3.184   6.644   6.965 -1.1242  2.2942  0.6734
  570MOL0     H78595   3.356   6.505   7.047  0.6837  0.3913 -0.9571
  570MOL0     H78596   3.416   6.582   6.902  1.7563 -0.9026 -0.1379
  570MOL0     H78597   3.524   6.762   7.061  1.0356 -0.5992 -2.7863
  570MOL0     H78598   3.522   6.630   7.182  1.8946  0.7392  0.5644
  570MOL0     H78599   3.733   6.634   7.082  3.2406  0.3459 -2.6847
  570MOL0     H78600   3.651   6.508   6.990 -0.3331 -1.3311  2.3853
  570MOL0     H78601   3.711   6.797   6.897 -0.8012  1.1796 -1.0324
  570MOL0     H78602   3.588   6.691   6.817 -0.2876  0.3383  0.2996
  570MOL0     H78603   3.879   6.650   6.889  1.1216  2.3775 -0.7653
  570MOL0     H78604   3.791   6.530   6.786  2.2475 -0.3590  1.2963
  570MOL0     H78605   3.901   6.779   6.694 -0.0616  0.8426 -0.5408
  570MOL0     H78606   3.752   6.762   6.640 -0.6718 -2.8616 -0.1171
  570MOL0     H78607   3.943   6.537   6.609  0.5618 -2.1211 -2.0460
  570MOL0     H78608   3.790   6.543   6.536  1.3951 -0.8001 -1.5315
  570MOL0     H78609   3.928   6.557   6.284 -0.1053  1.0825 -0.7789
  570MOL0     H78610   4.023   6.666   6.085  3.0690 -1.2412 -3.0428
  570MOL0     H78611   4.168   6.615   6.154 -0.1493 -0.5228  0.3955
  570MOL0     H78612   4.100   6.900   6.050  1.3171 -0.0955 -3.0174
  570MOL0     H78613   4.231   6.874   6.168  0.3824  0.0546 -0.5480
  570MOL0     H78614   4.322   6.721   6.000  0.3867 -0.5333 -0.9973
  570MOL0     H78615   4.203   6.769   5.889  0.9928  2.2511 -0.8092
  570MOL0     H78616   4.272   6.959   5.852 -1.2202 -0.1773  1.7673
  570MOL0     H78617   4.368   6.994   6.003 -3.6690  2.6343 -0.4363
  570MOL0     H78618   4.670   6.789   5.744 -2.2770  0.1514 -1.2130
  570MOL0     H78619   4.883   6.789   5.694 -1.7256 -0.2844 -0.1720
  570MOL0     H78620   4.975   6.941   5.743 -1.8279  1.1977  0.8478
  570MOL0     H78621   4.915   6.899   5.577  1.3005 -1.2247  0.4466
  570MOL0     H78622   4.977   7.462   5.692  0.8048  2.7652  0.9013
  570MOL0     H78623   5.048   7.670   5.627  3.8808 -1.6580 -0.8190
  570MOL0     H78624   5.059   7.978   5.392  1.8146 -0.4607 -1.3071
  570MOL0     H78625   5.061   7.882   5.544 -1.8092  2.9570 -0.0299
  570MOL0     H78626   5.275   7.902   5.499 -1.2085  0.0839  0.2299
  570MOL0     H78627   5.229   7.736   5.447  0.8293  0.8052  2.3881
  570MOL0     H78628   5.245   7.964   5.257 -1.9736 -0.6801  0.5149
  570MOL0     H78629   5.214   7.790   5.224 -1.6004 -0.4142  2.6153
  570MOL0     H78630   5.463   7.745   5.320  2.6212  0.2572 -1.5118
  570MOL0     H78631   5.480   7.916   5.333  0.5338 -0.5505  1.1458
  570MOL0     H78632   5.599   7.867   5.141  0.1164  1.0741 -4.2316
  570MOL0     H78633   5.488   7.750   5.088 -2.1617 -0.4096  0.0404
  570MOL0     H78634   5.531   7.970   4.970 -1.6691  0.4466 -1.9541
  570MOL0     H78635   5.421   8.051   5.085 -2.1643 -0.2132 -0.9946
  570MOL0     H78636   5.229   7.932   5.002  2.3947  2.3034  2.7979
  570MOL0     H78637   5.332   7.801   4.931 -1.4580 -0.6972 -0.8657
  570MOL0     H78638   5.247   7.980   4.768  0.3199  1.7487 -2.3194
  570MOL0     H78639   5.428   7.968   4.778  2.2608  2.1830  2.7904
  570MOL0     H78640   4.863   7.601   5.226 -2.4535 -0.3235 -0.1080
  570MOL0     H78641   4.790   7.391   5.312 -2.7869  1.4015  1.1478
  570MOL0     H78642   4.645   7.280   5.782  1.4145  0.7973 -4.3966
  570MOL0     H78643   4.449   7.146   5.844  1.9668  3.4034 -1.9830
  570MOL0     H78644   3.102   6.919   7.267 -1.0118  0.9854  1.3023
  570MOL0     H78645   2.940   6.840   7.444 -0.7652 -1.2679 -0.2054
  570MOL0     H78646   2.712   6.460   7.579  3.7152 -1.7598 -0.0592
  570MOL0     H78647   2.534   6.358   7.713  2.0689 -1.5078 -1.6833
  570MOL0     H78648   2.488   6.457   8.153 -0.0739  0.6468 -0.4766
  570MOL0     H78649   2.396   6.539   8.035 -2.1273 -0.5276  0.4235
  570MOL0     H78650   2.248   6.405   8.177 -1.5652 -2.5458  0.9118
  570MOL0     H78651   2.356   6.263   8.153  3.8495  1.4294 -1.8233
  570MOL0     H78652   2.105   6.318   8.031 -0.5669 -1.5326  2.0131
  570MOL0     H78653   2.228   6.381   7.913  1.5327  0.0576  1.1166
  570MOL0     H78654   2.327   6.152   7.902  1.0144  2.9345  1.6248
  570MOL0     H78655   2.163   6.153   7.848  1.8213 -0.0784 -1.8208
  570MOL0     H78656   2.127   5.962   8.245 -0.7578  1.2242  0.3971
  570MOL0     H78657   2.666   6.561   8.053  2.5323 -1.8743  1.1540
  570MOL0     H78658   2.779   6.770   8.025 -0.5121 -1.1196  1.3037
  570MOL0     H78659   2.923   6.671   8.020 -2.1027 -0.5839  0.3526
  570MOL0     H78660   2.896   6.787   7.900  0.9279 -1.4428 -0.3237
  571MOL0     O78661   0.326   0.513   5.095 -0.2102  0.1630 -0.5831
  571MOL0     C78662   0.218   0.571   5.078 -0.3976  0.1421 -0.6867
  571MOL0     O78663   0.095   0.515   5.097 -0.3014 -0.2162  1.1657
  571MOL0     C78664   0.074   0.390   5.047  0.4517 -0.2208  0.2452
  571MOL0     C78665   0.136   0.335   4.924  0.5131 -0.2098 -0.4509
  571MOL0     C78666   0.111   0.208   4.891  0.5006  0.7276 -0.1863
  571MOL0     C78667   0.025   0.126   4.975  0.1587  0.0691 -0.3037
  571MOL0     O78668   0.012  -0.008   4.948 -0.1612 -0.4804  0.0578
  571MOL0     C78669   0.067  -0.087   5.051  0.4897  0.6728  0.3101
  571MOL0     C78670   0.119  -0.226   4.999 -0.1089 -0.6491  0.5460
  571MOL0     C78671   0.246  -0.209   4.912  0.3814  0.9800 -0.2074
  571MOL0     C78672   0.284  -0.348   4.859  0.2154 -0.0825  0.9000
  571MOL0     C78673   0.427  -0.364   4.805 -0.0601 -0.8163 -0.1049
  571MOL0     C78674   0.441  -0.514   4.758  0.2794 -0.5737 -0.0972
  571MOL0     C78675   0.560  -0.513   4.660  1.0346 -0.2670  0.2420
  571MOL0     C78676   0.516  -0.476   4.520  0.7962 -1.2753 -0.2462
  571MOL0     N78677   0.477  -0.589   4.434  0.0902  0.4916  0.0626
  571MOL0     C78678   0.525  -0.617   4.308 -0.4386  0.3104  0.2363
  571MOL0     C78679   0.428  -0.679   4.236  0.1904 -0.2515  0.3021
  571MOL0     C78680   0.436  -0.725   4.088  0.7483 -0.6562 -0.1095
  571MOL0     C78681   0.361  -0.631   3.994 -0.7346  0.4357  0.9123
  571MOL0     C78682   0.417  -0.485   4.002  0.6580  0.1091 -0.1865
  571MOL0     C78683   0.370  -0.405   3.885  0.6915 -0.1621  0.6232
  571MOL0     O78684   0.415  -0.274   3.903 -0.5288 -0.0481  0.0997
  571MOL0     C78685   0.372  -0.171   3.822 -0.0631 -0.0171  0.2057
  571MOL0     C78686   0.378  -0.036   3.871 -0.8905  0.1720 -0.7250
  571MOL0     C78687   0.317   0.066   3.794  0.9376  0.8861  0.0206
  571MOL0     C78688   0.303   0.205   3.854 -0.6242  0.4029  0.4935
  571MOL0     C78689   0.274   0.046   3.658  0.0130  0.0839 -0.8461
  571MOL0     C78690   0.228   0.152   3.558  0.0994  0.3224 -0.7547
  571MOL0     O78691   0.264   0.120   3.438 -0.2484  0.5261  0.1969
  571MOL0     C78692   0.275   0.226   3.352  0.2778  0.1743 -0.9428
  571MOL0     C78693   0.374   0.323   3.374  0.5570  0.2318  0.4320
  571MOL0     C78694   0.379   0.428   3.287 -0.6560  0.8664 -0.3299
  571MOL0     C78695   0.284   0.444   3.184  0.5335  0.4220  0.3573
  571MOL0     O78696   0.295   0.552   3.113 -0.2273  0.1189  0.1228
  571MOL0     C78697   0.204   0.574   3.004 -0.1455 -0.0399  0.4276
  571MOL0     C78698   0.263   0.524   2.872 -0.1084 -0.3665 -0.4932
  571MOL0     C78699   0.164   0.540   2.757  0.5173  0.2365 -0.9319
  571MOL0     C78700   0.209   0.485   2.622 -0.2189 -0.0346 -0.3160
  571MOL0     C78701   0.120   0.552   2.521 -0.0837 -0.0022  0.4521
  571MOL0     C78702   0.156   0.518   2.373 -0.2666 -0.1684  0.3884
  571MOL0     C78703   0.058   0.596   2.289  0.1428  0.4704 -0.6990
  571MOL0     C78704   0.019   0.513   2.172  0.1883 -0.2923 -0.2768
  571MOL0    Cl78705   0.150   0.480   2.058  0.1971 -0.4050  0.2954
  571MOL0     C78706   0.188   0.340   3.161 -0.4732 -0.2170  0.3649
  571MOL0     C78707   0.194   0.227   3.247  0.4931  0.2061 -0.2821
  571MOL0     O78708   0.165   0.246   3.593  0.5780  0.0550  1.1178
  571MOL0     C78709   0.297  -0.089   3.604 -1.0144 -1.4909  0.9041
  571MOL0     C78710   0.340  -0.193   3.682  0.0831 -0.0843 -0.6121
  571MOL0     N78711   0.320  -0.704   4.317  1.0764 -0.2876  0.2556
  571MOL0     N78712   0.357  -0.656   4.438  0.3068 -0.0837  0.0948
  571MOL0     C78713  -0.044   0.182   5.086 -0.6523 -0.5921  0.7096
  571MOL0     C78714  -0.016   0.312   5.130 -0.0009  0.1862 -0.3379
  571MOL0     C78715   0.228   0.714   5.081  1.5498  0.0444  0.4667
  571MOL0     C78716   0.308   0.781   5.165  0.0215  0.7406 -0.8525
  571MOL0     C78717   0.312   0.917   5.178 -0.4604 -0.1590  0.1839
  571MOL0     C78718   0.251   0.999   5.083 -0.2505 -0.0821 -0.9052
  571MOL0     O78719   0.261   1.135   5.082  0.6167  0.6956  0.8125
  571MOL0     C78720   0.341   1.205   5.173  0.9841  0.1916  0.1276
  571MOL0     C78721   0.489   1.201   5.133 -0.0906 -0.4020 -0.1442
  571MOL0     C78722   0.519   1.276   4.995 -0.0772 -1.2075  0.0557
  571MOL0     C78723   0.476   1.427   4.988 -0.6480  1.2301 -1.0625
  571MOL0     C78724   0.504   1.483   4.851  1.1576  0.5448 -0.7977
  571MOL0     C78725   0.540   1.538   4.758  0.4870 -1.3179  0.0510
  571MOL0     C78726   0.182   0.932   4.982  0.1141 -0.0619 -0.2492
  571MOL0     C78727   0.165   0.794   4.982 -0.0936  0.4387  0.8020
  571MOL0     C78728   0.077   0.741   4.882  0.3719  0.1656 -0.0759
  571MOL0     H78729   0.215   0.395   4.881  1.5001  0.8886  2.6371
  571MOL0     H78730   0.167   0.157   4.814 -0.9312 -0.6931 -0.3425
  571MOL0     H78731  -0.014  -0.117   5.118  1.6664  0.0532  1.4914
  571MOL0     H78732   0.136  -0.027   5.111 -2.1747  4.0337  0.2882
  571MOL0     H78733   0.132  -0.285   5.090  0.7366  1.0980  1.6285
  571MOL0     H78734   0.041  -0.266   4.934 -0.3115  1.6039 -0.7097
  571MOL0     H78735   0.222  -0.143   4.829  0.3528  2.0338  0.6255
  571MOL0     H78736   0.318  -0.157   4.976 -0.8230  0.3964  1.6957
  571MOL0     H78737   0.255  -0.420   4.936  1.2545  0.0627  1.4509
  571MOL0     H78738   0.221  -0.361   4.771  1.7868  0.0293 -0.2953
  571MOL0     H78739   0.500  -0.346   4.885  1.0527  3.2824 -1.8298
  571MOL0     H78740   0.454  -0.291   4.728 -2.6027  1.6700  1.1870
  571MOL0     H78741   0.457  -0.583   4.842  0.9427  0.0722  0.3114
  571MOL0     H78742   0.356  -0.554   4.702 -0.5737  1.3771 -0.2730
  571MOL0     H78743   0.610  -0.610   4.659 -1.2536 -1.5895  2.0008
  571MOL0     H78744   0.635  -0.437   4.683 -0.4045  1.0253  0.8908
  571MOL0     H78745   0.438  -0.400   4.522  1.0906 -0.9564 -0.7200
  571MOL0     H78746   0.600  -0.418   4.482 -1.2720  1.5413 -0.8620
  571MOL0     H78747   0.615  -0.572   4.267 -1.4797  1.3993 -0.9515
  571MOL0     H78748   0.377  -0.816   4.077 -0.2758  0.0048 -0.3222
  571MOL0     H78749   0.542  -0.740   4.064 -0.0093 -0.3814 -4.3746
  571MOL0     H78750   0.383  -0.678   3.898  1.2713 -1.2813  2.1483
  571MOL0     H78751   0.252  -0.637   4.003 -0.9829 -0.1720 -1.6655
  571MOL0     H78752   0.379  -0.446   4.097  0.7503 -2.9389  1.2191
  571MOL0     H78753   0.525  -0.494   3.989  0.2339 -1.5922 -3.3834
  571MOL0     H78754   0.421  -0.453   3.801  0.3669  0.5966 -0.0312
  571MOL0     H78755   0.261  -0.413   3.881  0.7561 -1.0547  0.5912
  571MOL0     H78756   0.431  -0.021   3.965  2.2484 -2.1643 -1.9484
  571MOL0     H78757   0.199   0.234   3.837 -0.4011 -0.4036 -3.0654
  571MOL0     H78758   0.378   0.262   3.800  1.0135  0.2887  2.5528
  571MOL0     H78759   0.327   0.203   3.960  0.5633  3.6437  0.3922
  571MOL0     H78760   0.441   0.322   3.460  2.7719  2.3300 -1.1362
  571MOL0     H78761   0.453   0.507   3.298 -0.8545  0.9978  0.0741
  571MOL0     H78762   0.101   0.539   3.015  0.8225 -2.0737  5.1675
  571MOL0     H78763   0.187   0.682   3.003 -1.2461 -0.1964  0.3658
  571MOL0     H78764   0.348   0.588   2.846 -0.1300  0.1819  0.7030
  571MOL0     H78765   0.303   0.423   2.868  1.1443  0.1360 -1.1455
  571MOL0     H78766   0.151   0.649   2.762  1.4230  0.3079  1.3680
  571MOL0     H78767   0.069   0.490   2.779 -0.2742  0.9460 -2.6098
  571MOL0     H78768   0.204   0.376   2.616  2.2822 -0.3196  1.3064
  571MOL0     H78769   0.315   0.512   2.612 -0.7037  1.3167 -2.4815
  571MOL0     H78770   0.016   0.528   2.546 -0.4362  2.6998  1.9635
  571MOL0     H78771   0.148   0.654   2.548  5.7630 -1.7336  2.5230
  571MOL0     H78772   0.143   0.410   2.361  1.1945 -0.1630 -1.9026
  571MOL0     H78773   0.260   0.534   2.344 -0.5322  1.1255  0.0802
  571MOL0     H78774   0.105   0.690   2.261 -0.3759  1.0676  0.3836
  571MOL0     H78775  -0.036   0.621   2.338 -1.1942 -3.6329 -0.7858
  571MOL0     H78776  -0.077   0.553   2.137 -1.3069 -1.9817  1.6151
  571MOL0     H78777  -0.011   0.417   2.216  2.2622  0.1285  2.3074
  571MOL0     H78778   0.117   0.342   3.079 -4.6499  1.5783  3.6544
  571MOL0     H78779   0.140   0.134   3.235  0.0902  0.7122 -2.9834
  571MOL0     H78780   0.262  -0.122   3.507 -1.0240  0.4564  0.1944
  571MOL0     H78781   0.346  -0.296   3.648  1.3299 -0.9813  2.0526
  571MOL0     H78782  -0.110   0.119   5.145 -1.7110 -0.4690 -0.3001
  571MOL0     H78783  -0.066   0.361   5.213 -1.4813  1.6452 -1.9991
  571MOL0     H78784   0.362   0.711   5.227  0.4580  0.6053 -1.3857
  571MOL0     H78785   0.372   0.964   5.256  1.6233  3.2398 -3.1606
  571MOL0     H78786   0.304   1.307   5.192  0.9652  0.1617  0.2504
  571MOL0     H78787   0.329   1.155   5.269  4.8888  1.0127  1.2234
  571MOL0     H78788   0.526   1.098   5.121 -0.9799 -0.8179  0.5907
  571MOL0     H78789   0.543   1.244   5.218  0.5648  0.6252 -1.0569
  571MOL0     H78790   0.626   1.273   4.974 -0.4625  3.1276 -4.3307
  571MOL0     H78791   0.458   1.231   4.916 -0.5528  2.5661 -1.9397
  571MOL0     H78792   0.515   1.487   5.071 -1.6510 -0.9742  1.1167
  571MOL0     H78793   0.367   1.435   4.982 -0.5125  2.3472 -2.5031
  571MOL0     H78794   0.558   1.594   4.669 -1.3716 -0.6764  0.0413
  571MOL0     H78795   0.142   0.992   4.901 -1.1936 -0.6430 -0.0498
  571MOL0     H78796  -0.011   0.710   4.939  0.9964  0.4157  1.0549
  571MOL0     H78797   0.051   0.820   4.812  0.2554 -0.5636 -0.8638
  571MOL0     H78798   0.111   0.645   4.841 -1.2232 -1.8606  2.9440
  572MOL0     O78799   2.706   6.703   2.359  0.2659 -0.1525  0.1904
  572MOL0     C78800   2.731   6.791   2.437  0.6747  0.6472 -0.1864
  572MOL0     O78801   2.854   6.839   2.464  0.0516 -0.3759  0.4125
  572MOL0     C78802   2.967   6.758   2.447  0.1586 -0.7079  0.4487
  572MOL0     C78803   3.094   6.821   2.463  0.1404  0.1145  1.0010
  572MOL0     C78804   3.201   6.740   2.478  0.2434 -0.8281 -0.9563
  572MOL0     C78805   3.192   6.596   2.486  0.7217 -0.6134  1.1670
  572MOL0     O78806   3.309   6.528   2.509  0.1791  0.0472  0.4973
  572MOL0     C78807   3.310   6.384   2.535 -0.1245 -0.5415 -0.9183
  572MOL0     C78808   3.448   6.327   2.536  0.4064  0.2909  0.5769
  572MOL0     C78809   3.440   6.172   2.523 -0.1617  0.3884 -0.6658
  572MOL0     C78810   3.424   6.094   2.651 -0.0525  0.1112  0.3308
  572MOL0     C78811   3.438   5.943   2.634 -0.1410 -0.4389  0.1474
  572MOL0     C78812   3.584   5.906   2.618 -0.3191 -0.5777 -1.1857
  572MOL0     C78813   3.620   5.756   2.578 -0.2129 -0.5744 -0.2251
  572MOL0     C78814   3.648   5.657   2.691  0.1681  0.1824 -0.5421
  572MOL0     N78815   3.740   5.547   2.649  0.0451 -0.5864 -0.1169
  572MOL0     C78816   3.873   5.552   2.662 -0.1065  0.3201  0.8971
  572MOL0     C78817   3.914   5.423   2.634 -0.3068  0.2716 -0.1491
  572MOL0     C78818   4.053   5.378   2.642  0.2802  0.3502  0.4053
  572MOL0     C78819   4.163   5.486   2.658 -0.7755  0.6209 -0.4044
  572MOL0     C78820   4.190   5.530   2.800 -0.8529 -1.4559  0.3690
  572MOL0     C78821   4.331   5.599   2.810 -0.2925  0.4785 -0.7346
  572MOL0     O78822   4.415   5.491   2.865 -0.3559  0.5204 -0.4371
  572MOL0     C78823   4.536   5.529   2.912  1.1285  0.1275  0.2088
  572MOL0     C78824   4.598   5.660   2.904  1.3480  0.0236 -0.3337
  572MOL0     C78825   4.734   5.676   2.945 -0.1564  0.0915  0.7528
  572MOL0     C78826   4.768   5.827   2.948 -0.2594  0.3068  0.1480
  572MOL0     C78827   4.810   5.572   3.000 -0.2134 -0.1412 -0.4102
  572MOL0     C78828   4.936   5.595   3.059  0.3758  0.1068 -0.3660
  572MOL0     O78829   4.956   5.537   3.179 -1.4343  0.5551  0.5550
  572MOL0     C78830   5.080   5.548   3.232  0.2326  0.0846  0.3310
  572MOL0     C78831   5.136   5.672   3.262  0.5082  0.7446 -0.1223
  572MOL0     C78832   5.267   5.681   3.306 -0.1489  0.7582 -0.9088
  572MOL0     C78833   5.337   5.562   3.343  0.0891  0.1109 -0.0197
  572MOL0     O78834   5.470   5.566   3.369 -0.2227 -0.5952  0.0623
  572MOL0     C78835   5.528   5.468   3.463  0.4421  0.0885  0.9154
  572MOL0     C78836   5.683   5.475   3.460  0.5352 -0.0929 -0.4229
  572MOL0     C78837   5.743   5.414   3.335 -0.2761 -0.2982 -0.5913
  572MOL0     C78838   5.796   5.522   3.233 -1.0238  0.8250 -0.4530
  572MOL0     C78839   5.832   5.459   3.093 -0.1020  0.1910  0.5807
  572MOL0     C78840   5.891   5.574   3.002  0.1335 -1.2490 -0.1937
  572MOL0     C78841   5.940   5.541   2.857  0.0714 -0.7292 -0.1968
  572MOL0     C78842   5.857   5.429   2.799 -0.2208  0.7393  0.0356
  572MOL0    Cl78843   5.682   5.487   2.803  0.4856 -0.2745 -0.0837
  572MOL0     C78844   5.258   5.441   3.347 -0.5719 -0.0140  0.5760
  572MOL0     C78845   5.135   5.432   3.286 -0.3898 -0.8651 -0.0990
  572MOL0     O78846   5.021   5.656   2.992  1.4094 -0.2012 -0.2381
  572MOL0     C78847   4.744   5.450   3.018 -0.6483 -0.9731  1.8029
  572MOL0     C78848   4.610   5.430   2.977  0.9192 -0.6707 -0.7738
  572MOL0     N78849   3.803   5.351   2.604 -0.7312  0.6319 -0.1873
  572MOL0     N78850   3.700   5.429   2.634 -0.4601  0.9208  0.7567
  572MOL0     C78851   3.067   6.539   2.461  0.2042  0.8458 -0.5999
  572MOL0     C78852   2.960   6.619   2.454 -0.4246  0.5784  0.4486
  572MOL0     C78853   2.615   6.880   2.491 -1.0258 -0.4947 -0.1105
  572MOL0     C78854   2.652   6.968   2.596 -0.1907  0.1349  0.0519
  572MOL0     C78855   2.561   7.044   2.666 -0.5606 -0.4289 -0.0421
  572MOL0     C78856   2.427   7.046   2.631  0.0504  0.1491  0.2704
  572MOL0     O78857   2.323   7.111   2.693 -0.4465 -0.5146 -0.3311
  572MOL0     C78858   2.366   7.241   2.739  0.7412 -0.3750  0.4607
  572MOL0     C78859   2.241   7.307   2.779  0.2670 -0.3656 -0.0621
  572MOL0     C78860   2.280   7.441   2.842  0.7825  0.5684 -0.4670
  572MOL0     C78861   2.154   7.528   2.882 -0.3527 -0.0445  0.9171
  572MOL0     C78862   2.095   7.588   2.764 -0.7655  0.4074  0.4634
  572MOL0     C78863   2.056   7.633   2.662  0.7101  0.7417 -0.7947
  572MOL0     C78864   2.380   6.962   2.525 -0.7114 -0.4102 -0.8117
  572MOL0     C78865   2.477   6.889   2.458  0.4365 -0.4622 -0.5055
  572MOL0     C78866   2.417   6.849   2.323  0.9537  0.3507 -0.3536
  572MOL0     H78867   3.095   6.930   2.459  1.4071  0.0725 -0.8954
  572MOL0     H78868   3.294   6.796   2.473 -1.2704  1.8683 -0.4547
  572MOL0     H78869   3.241   6.337   2.465 -1.6263 -0.9604  0.7682
  572MOL0     H78870   3.265   6.368   2.634  2.4448 -0.2468  0.4070
  572MOL0     H78871   3.501   6.366   2.450 -0.5474  0.2551 -0.0470
  572MOL0     H78872   3.506   6.349   2.626 -1.2681  1.1935  1.5090
  572MOL0     H78873   3.357   6.137   2.462 -0.9792  1.3133 -0.1198
  572MOL0     H78874   3.524   6.133   2.465 -2.3499 -2.6430 -2.0551
  572MOL0     H78875   3.502   6.129   2.720  0.3818 -1.9752  0.9488
  572MOL0     H78876   3.336   6.119   2.711 -0.5115  1.4414 -0.8299
  572MOL0     H78877   3.382   5.906   2.547 -1.8287 -0.5982  1.2552
  572MOL0     H78878   3.404   5.890   2.723  0.5972 -1.7478 -0.3329
  572MOL0     H78879   3.634   5.972   2.547  3.4959 -0.3753  1.3301
  572MOL0     H78880   3.633   5.929   2.714  0.8147 -0.8116 -1.6928
  572MOL0     H78881   3.719   5.770   2.533  1.0935 -2.0768  1.9433
  572MOL0     H78882   3.545   5.714   2.511 -0.7632  0.0881 -0.0309
  572MOL0     H78883   3.698   5.702   2.776 -1.0437 -1.0756  0.9076
  572MOL0     H78884   3.554   5.618   2.732 -0.4216  1.5768 -0.5405
  572MOL0     H78885   3.922   5.630   2.720 -1.6269  2.0293  0.0056
  572MOL0     H78886   4.069   5.323   2.549 -0.6739 -0.9369  0.9802
  572MOL0     H78887   4.064   5.316   2.731 -1.5246  1.0572  1.1644
  572MOL0     H78888   4.242   5.420   2.621 -3.1049 -3.2440  0.9380
  572MOL0     H78889   4.145   5.570   2.590  0.2137  0.0380 -1.4180
  572MOL0     H78890   4.109   5.594   2.836 -0.2668  0.3141 -1.2892
  572MOL0     H78891   4.189   5.437   2.858  2.5299 -1.9440 -0.1361
  572MOL0     H78892   4.367   5.653   2.722  1.4613 -0.9040 -0.9069
  572MOL0     H78893   4.317   5.668   2.893 -1.2113 -0.2809 -0.2344
  572MOL0     H78894   4.544   5.752   2.882  3.0233  1.1487 -0.0237
  572MOL0     H78895   4.678   5.889   2.958 -1.0869  0.1802 -4.4280
  572MOL0     H78896   4.830   5.863   2.866  2.9051  2.4903  3.2147
  572MOL0     H78897   4.828   5.845   3.038  1.5649  0.3330 -1.0289
  572MOL0     H78898   5.086   5.762   3.229  0.3172  0.8407  0.4154
  572MOL0     H78899   5.312   5.778   3.328 -1.0329  1.2130 -1.0637
  572MOL0     H78900   5.486   5.503   3.559 -0.5295  0.7887  0.2572
  572MOL0     H78901   5.499   5.364   3.447 -0.7893 -0.4521  5.2510
  572MOL0     H78902   5.711   5.580   3.467  2.0552 -0.5764  1.6948
  572MOL0     H78903   5.728   5.426   3.547  1.6507  1.6109 -0.0027
  572MOL0     H78904   5.672   5.343   3.293 -0.4331 -0.0651 -0.7236
  572MOL0     H78905   5.817   5.337   3.358 -0.7030 -0.4833  0.1701
  572MOL0     H78906   5.874   5.588   3.271 -3.0993  2.1628  1.8010
  572MOL0     H78907   5.715   5.595   3.223 -1.5068  0.3593 -0.0356
  572MOL0     H78908   5.909   5.385   3.116  0.4140  1.0375  1.6808
  572MOL0     H78909   5.742   5.422   3.044 -0.3025 -2.0129  2.4539
  572MOL0     H78910   5.982   5.608   3.052 -0.8612 -1.0580  1.5690
  572MOL0     H78911   5.814   5.652   2.998  1.7220  0.6022  2.5146
  572MOL0     H78912   6.046   5.513   2.864  0.1149 -0.2920  0.9951
  572MOL0     H78913   5.919   5.637   2.810 -0.8286  0.6472  2.8108
  572MOL0     H78914   5.868   5.333   2.851  1.9481 -0.0257 -1.6461
  572MOL0     H78915   5.894   5.409   2.698  0.8252 -0.7180  0.6555
  572MOL0     H78916   5.302   5.353   3.392  1.9402  1.4230  1.1464
  572MOL0     H78917   5.078   5.340   3.278 -2.4682  0.5082 -2.1758
  572MOL0     H78918   4.802   5.367   3.056  2.4364 -0.0469 -0.4649
  572MOL0     H78919   4.567   5.331   2.986  1.3961 -1.2814 -4.0742
  572MOL0     H78920   3.059   6.432   2.470 -2.4859  1.1453  2.2803
  572MOL0     H78921   2.865   6.566   2.454 -1.5254  2.4183 -1.0312
  572MOL0     H78922   2.754   6.980   2.631 -1.2280  1.7662  2.8860
  572MOL0     H78923   2.591   7.112   2.745  1.7969 -1.9146  0.4450
  572MOL0     H78924   2.423   7.229   2.831 -2.6431 -0.3083  2.7653
  572MOL0     H78925   2.414   7.303   2.663 -2.5063  0.7080 -0.8983
  572MOL0     H78926   2.208   7.244   2.862  2.3468  2.5448  3.2735
  572MOL0     H78927   2.175   7.315   2.692  2.0084 -0.8234 -1.4916
  572MOL0     H78928   2.327   7.424   2.939 -0.9236  3.0419  0.9195
  572MOL0     H78929   2.333   7.501   2.767 -2.4030  0.9726 -2.6322
  572MOL0     H78930   2.186   7.606   2.952 -1.4519 -1.0185  2.5690
  572MOL0     H78931   2.080   7.471   2.937  1.6807 -1.7255  2.0557
  572MOL0     H78932   2.007   7.672   2.575 -1.4186  1.5636  0.7024
  572MOL0     H78933   2.275   6.963   2.500 -1.2720 -0.3951  1.3108
  572MOL0     H78934   2.323   6.897   2.294  0.5316 -1.3769 -2.0244
  572MOL0     H78935   2.492   6.857   2.244  0.9846  1.4897 -0.2276
  572MOL0     H78936   2.388   6.743   2.322 -1.9032  1.0180 -2.7407
  573MOL0     O78937   1.799   0.411  11.409 -0.3136 -0.9920  0.4013
  573MOL0     C78938   1.686   0.435  11.389  0.2450  0.2445  0.0704
  573MOL0     O78939   1.637   0.524  11.298  0.2700 -0.0774  0.5328
  573MOL0     C78940   1.729   0.598  11.224 -0.5233 -0.0954 -0.1802
  573MOL0     C78941   1.711   0.738  11.238  0.4083  0.5389  0.8911
  573MOL0     C78942   1.775   0.837  11.168 -0.5196 -0.6922  1.2952
  573MOL0     C78943   1.887   0.801  11.084 -0.5465  0.0924  0.2241
  573MOL0     O78944   1.960   0.905  11.033  0.3441  0.1909 -0.4330
  573MOL0     C78945   2.074   0.867  10.963 -0.2019  0.6011 -0.0880
  573MOL0     C78946   2.142   0.993  10.921 -0.3753 -0.5002  0.5870
  573MOL0     C78947   2.257   0.984  10.816  0.0078  0.4914 -0.0730
  573MOL0     C78948   2.325   1.124  10.796  0.2274 -0.0771  0.1339
  573MOL0     C78949   2.411   1.117  10.676 -1.0221 -0.0249  0.5196
  573MOL0     C78950   2.486   1.251  10.655 -1.2521  0.3344 -0.4823
  573MOL0     C78951   2.567   1.258  10.528 -0.3718 -1.2029  0.0418
  573MOL0     C78952   2.624   1.388  10.495 -0.3826 -0.4953 -0.6186
  573MOL0     N78953   2.687   1.378  10.365  0.7682 -0.7385 -0.0912
  573MOL0     C78954   2.805   1.317  10.347 -0.0411  0.7085  0.0897
  573MOL0     C78955   2.847   1.358  10.223 -0.2446  0.0999 -0.3825
  573MOL0     C78956   2.978   1.315  10.159  0.6552  0.4435  0.1586
  573MOL0     C78957   3.086   1.431  10.154  0.1699  0.4673 -0.5640
  573MOL0     C78958   3.061   1.527  10.039  0.1638 -0.4225 -0.5901
  573MOL0     C78959   3.073   1.460   9.905 -0.6224 -0.2608  1.0885
  573MOL0     O78960   3.185   1.360   9.891 -0.0977  0.3505 -0.5243
  573MOL0     C78961   3.240   1.359   9.770  0.2001  0.4876  0.3514
  573MOL0     C78962   3.163   1.366   9.657 -0.1885 -0.5661  0.5250
  573MOL0     C78963   3.222   1.368   9.532 -0.6141  0.0082 -0.4097
  573MOL0     C78964   3.136   1.358   9.417 -0.0181 -0.1276 -0.3312
  573MOL0     C78965   3.367   1.362   9.517 -0.2592  0.2204 -0.0942
  573MOL0     C78966   3.441   1.351   9.388  0.0899  0.8098 -0.0504
  573MOL0     O78967   3.580   1.347   9.411 -0.0810  0.2092  0.0356
  573MOL0     C78968   3.659   1.308   9.302 -0.0248  0.2960 -0.0253
  573MOL0     C78969   3.716   1.181   9.303  0.4008  0.3242 -0.1222
  573MOL0     C78970   3.811   1.139   9.209 -0.2215  0.9351  0.1763
  573MOL0     C78971   3.841   1.233   9.103  0.1663  0.5517  0.5537
  573MOL0     O78972   3.931   1.210   9.007  0.1192 -1.0194 -0.9154
  573MOL0     C78973   4.063   1.177   9.054  0.2989  1.6517  1.2040
  573MOL0     C78974   4.158   1.207   8.938 -0.8183 -0.0292 -0.1364
  573MOL0     C78975   4.123   1.119   8.818  0.6447  0.2642 -0.4853
  573MOL0     C78976   4.249   1.110   8.730  0.8255 -0.3413  0.7043
  573MOL0     C78977   4.230   1.026   8.605  0.2048 -0.1309  0.1262
  573MOL0     C78978   4.210   0.877   8.623  1.0065  0.2639  0.7348
  573MOL0     C78979   4.169   0.805   8.485  0.2567  0.0593  0.1998
  573MOL0     C78980   4.271   0.810   8.373 -0.9896  0.5677  0.1109
  573MOL0    Cl78981   4.391   0.672   8.392 -0.2024  0.1911  0.0906
  573MOL0     C78982   3.776   1.353   9.096  0.5155 -0.1379 -0.8819
  573MOL0     C78983   3.694   1.392   9.203  0.7733 -0.2273  0.5650
  573MOL0     O78984   3.384   1.335   9.279 -0.4092 -0.6403 -0.5686
  573MOL0     C78985   3.443   1.363   9.638 -0.6281 -0.4992  0.8402
  573MOL0     C78986   3.376   1.360   9.762 -0.9727  0.0033 -0.2906
  573MOL0     N78987   2.760   1.458  10.175  0.3774  0.8902 -0.3699
  573MOL0     N78988   2.660   1.465  10.253  0.0357  0.9644 -0.1615
  573MOL0     C78989   1.922   0.661  11.084  0.2947  0.9051  0.3464
  573MOL0     C78990   1.844   0.565  11.153 -0.3282  0.0488 -0.7582
  573MOL0     C78991   1.586   0.387  11.485 -0.6079 -0.2625  0.6922
  573MOL0     C78992   1.590   0.251  11.521  0.2856 -0.5636  0.8095
  573MOL0     C78993   1.504   0.192  11.616 -0.4355 -1.4213  0.0890
  573MOL0     C78994   1.407   0.276  11.679 -0.4513  0.1115 -0.8080
  573MOL0     O78995   1.332   0.197  11.766  0.3639 -0.0728  0.2661
  573MOL0     C78996   1.224   0.257  11.836 -0.3680  0.3004  0.8347
  573MOL0     C78997   1.258   0.272  11.982 -0.2609 -1.3106 -0.2394
  573MOL0     C78998   1.257   0.135  12.045 -0.0777  0.3963  0.3193
  573MOL0     C78999   1.284   0.139  12.202 -0.4518  0.0044 -1.3006
  573MOL0     C79000   1.230   0.026  12.269 -0.0870  0.3390  0.2148
  573MOL0     C79001   1.206  -0.060  12.350 -0.5253  0.3443  0.3570
  573MOL0     C79002   1.411   0.408  11.652  1.0031 -0.5422 -0.9624
  573MOL0     C79003   1.503   0.472  11.557 -0.0526  0.1764 -0.2909
  573MOL0     C79004   1.492   0.616  11.538 -0.0768 -0.7920  0.6152
  573MOL0     H79005   1.634   0.765  11.309 -0.6549  3.4313 -1.2133
  573MOL0     H79006   1.756   0.943  11.181 -0.3376 -0.5101  0.2128
  573MOL0     H79007   2.040   0.807  10.879  0.9989 -1.5715  0.8937
  573MOL0     H79008   2.145   0.812  11.025  2.2774  2.3507 -1.1960
  573MOL0     H79009   2.059   1.051  10.880  0.5395 -1.7030 -3.3983
  573MOL0     H79010   2.172   1.043  11.014  0.4651  1.8400 -0.8594
  573MOL0     H79011   2.341   0.919  10.843 -0.5360  0.6118  2.1092
  573MOL0     H79012   2.218   0.954  10.719 -1.8886  1.7565  0.2449
  573MOL0     H79013   2.242   1.194  10.777 -0.4041 -1.2822 -1.8341
  573MOL0     H79014   2.372   1.144  10.893 -2.0207 -0.1308  1.2969
  573MOL0     H79015   2.339   1.100  10.595 -0.3561 -0.5022  0.0245
  573MOL0     H79016   2.487   1.039  10.675  1.3521  2.1785 -0.6292
  573MOL0     H79017   2.410   1.329  10.646 -0.5524  1.1604  0.5636
  573MOL0     H79018   2.553   1.268  10.739 -0.8840 -3.1663  0.0750
  573MOL0     H79019   2.494   1.227  10.453 -3.6345 -1.0493  2.9300
  573MOL0     H79020   2.655   1.193  10.537  2.3513  2.2220  0.7416
  573MOL0     H79021   2.552   1.470  10.488 -0.2023 -0.0341  1.9997
  573MOL0     H79022   2.700   1.401  10.573  0.5499  2.9261 -1.9068
  573MOL0     H79023   2.846   1.240  10.411  0.4370  0.7103 -0.2062
  573MOL0     H79024   2.955   1.283  10.057  0.6109 -1.8662  0.8329
  573MOL0     H79025   3.009   1.232  10.223  0.2582  0.3522  0.2335
  573MOL0     H79026   3.071   1.486  10.248  0.8653 -1.4145  0.7071
  573MOL0     H79027   3.189   1.399  10.140 -0.5047 -1.2101 -2.1401
  573MOL0     H79028   2.961   1.572  10.045  1.3248  2.1357  1.7477
  573MOL0     H79029   3.140   1.603  10.037  2.9647 -3.0217  1.6169
  573MOL0     H79030   2.984   1.399   9.887  0.6164 -1.5146 -1.3165
  573MOL0     H79031   3.091   1.539   9.831 -2.7443  0.4577  1.2859
  573MOL0     H79032   3.056   1.351   9.663  0.1176 -3.0836  1.2147
  573MOL0     H79033   3.033   1.371   9.451  0.0628  1.4742 -0.6335
  573MOL0     H79034   3.141   1.256   9.376 -1.7206 -1.4674  2.4934
  573MOL0     H79035   3.147   1.440   9.345 -3.6130 -0.8683 -1.9530
  573MOL0     H79036   3.681   1.132   9.394  1.2806  3.5916  2.1602
  573MOL0     H79037   3.877   1.055   9.226 -1.3155  0.6417  3.5547
  573MOL0     H79038   4.094   1.230   9.145 -1.1929  4.0694  0.3907
  573MOL0     H79039   4.077   1.071   9.078  2.4797  1.7506  0.6063
  573MOL0     H79040   4.166   1.313   8.914 -2.0597 -0.0964 -0.9148
  573MOL0     H79041   4.258   1.180   8.973 -0.9081  1.4305  1.3733
  573MOL0     H79042   4.031   1.154   8.769  1.4827  1.0242 -1.5872
  573MOL0     H79043   4.105   1.017   8.854  2.1449  0.2097  0.1851
  573MOL0     H79044   4.338   1.069   8.779 -0.0808 -0.8192  2.0207
  573MOL0     H79045   4.269   1.214   8.702 -3.2581 -0.3897 -3.5285
  573MOL0     H79046   4.146   1.071   8.552  0.2827  0.7174  0.7042
  573MOL0     H79047   4.309   1.044   8.531 -1.5504  1.7403 -1.4090
  573MOL0     H79048   4.117   0.864   8.681 -1.4551 -1.2577 -3.1415
  573MOL0     H79049   4.303   0.834   8.661  1.3464  2.3550  2.4527
  573MOL0     H79050   4.076   0.848   8.448  1.4232  2.6261  0.0815
  573MOL0     H79051   4.140   0.701   8.507 -1.2818  0.5744  0.7103
  573MOL0     H79052   4.333   0.898   8.353  0.2092  0.5323  3.1403
  573MOL0     H79053   4.232   0.789   8.273  2.8690 -0.4766 -1.3743
  573MOL0     H79054   3.795   1.425   9.017 -4.0756  0.8713 -1.3924
  573MOL0     H79055   3.630   1.479   9.187  0.1384 -1.1920 -3.3376
  573MOL0     H79056   3.551   1.363   9.634 -0.5061 -2.4500  2.3372
  573MOL0     H79057   3.428   1.340   9.855 -1.8559  0.5232  0.3316
  573MOL0     H79058   2.014   0.631  11.034 -0.0069  1.1114 -0.3457
  573MOL0     H79059   1.895   0.470  11.143  2.9643  1.4778  0.7773
  573MOL0     H79060   1.664   0.181  11.484 -1.2165 -3.7632  3.3468
  573MOL0     H79061   1.510   0.085  11.632  1.5205 -1.1177  1.7026
  573MOL0     H79062   1.208   0.356  11.793  1.5150 -0.6292 -2.3295
  573MOL0     H79063   1.132   0.200  11.819  0.3943 -1.2517  1.6365
  573MOL0     H79064   1.177   0.330  12.029 -1.6679 -3.4286  0.0792
  573MOL0     H79065   1.352   0.324  12.001 -1.0319  0.6211 -1.4349
  573MOL0     H79066   1.169   0.078  12.015  1.4162 -2.6811  1.2907
  573MOL0     H79067   1.331   0.067  12.002  1.1007  0.9678  1.3771
  573MOL0     H79068   1.229   0.222  12.247 -1.4293 -1.2495 -0.1061
  573MOL0     H79069   1.392   0.142  12.215 -0.5511  2.2503 -0.4762
  573MOL0     H79070   1.184  -0.131  12.428 -0.2589  0.6866  0.7473
  573MOL0     H79071   1.352   0.474  11.715  1.2531 -1.6933  0.5512
  573MOL0     H79072   1.428   0.623  11.450  1.6116 -1.7964 -0.7640
  573MOL0     H79073   1.441   0.665  11.621 -3.9321  0.6990 -2.3380
  573MOL0     H79074   1.593   0.657  11.525 -0.0051  0.1304  3.3687
  574MOL0     O79075   0.090   7.556   5.548  0.5775 -0.0449  0.3072
  574MOL0     C79076   0.140   7.502   5.651 -0.3177 -0.6475  0.1530
  574MOL0     O79077   0.227   7.565   5.734  0.1869 -0.2928 -0.0295
  574MOL0     C79078   0.264   7.700   5.731 -0.0385  0.2938  0.1833
  574MOL0     C79079   0.393   7.737   5.769 -0.2744 -0.6782  0.5168
  574MOL0     C79080   0.440   7.872   5.755 -0.2476  1.0441 -0.7258
  574MOL0     C79081   0.358   7.965   5.702  0.6948  0.1716 -0.6184
  574MOL0     O79082   0.406   8.098   5.692  0.1740  0.0109 -0.3839
  574MOL0     C79083   0.346   8.174   5.585 -0.3072  0.2196 -0.3764
  574MOL0     C79084   0.427   8.305   5.577  0.3800  0.2727  0.6650
  574MOL0     C79085   0.377   8.393   5.447 -0.7734  0.5008 -0.7521
  574MOL0     C79086   0.481   8.503   5.436  0.3192 -0.3858  1.0980
  574MOL0     C79087   0.444   8.578   5.314  0.1374  0.0707  0.4799
  574MOL0     C79088   0.497   8.725   5.309 -0.6570  0.1940 -0.1201
  574MOL0     C79089   0.426   8.801   5.202  0.1831  0.0542 -0.0466
  574MOL0     C79090   0.446   8.951   5.190 -0.3190 -0.5892  0.3537
  574MOL0     N79091   0.399   9.011   5.069 -0.1462 -0.3293 -0.1002
  574MOL0     C79092   0.393   9.146   5.056 -0.5101 -0.6957 -0.1172
  574MOL0     C79093   0.300   9.168   4.955 -0.2371  0.4543 -0.0970
  574MOL0     C79094   0.259   9.309   4.912 -0.3236  0.8701 -0.3211
  574MOL0     C79095   0.101   9.330   4.897  0.4721 -0.1429 -0.5214
  574MOL0     C79096   0.035   9.308   5.029  0.6846  0.0081 -0.4963
  574MOL0     C79097  -0.113   9.315   5.008  0.9207  0.7051 -0.4717
  574MOL0     O79098  -0.170   9.451   4.995 -1.0733  0.7353  0.3231
  574MOL0     C79099  -0.298   9.469   4.951  0.4322 -0.8241 -0.1265
  574MOL0     C79100  -0.330   9.602   4.899  0.7737  0.8346  1.1181
  574MOL0     C79101  -0.465   9.628   4.862 -0.3999  0.1717 -0.5102
  574MOL0     C79102  -0.506   9.761   4.814 -0.5866 -0.1043  0.6939
  574MOL0     C79103  -0.571   9.524   4.882 -0.3529 -0.3487  0.8923
  574MOL0     C79104  -0.712   9.547   4.839 -0.1909  0.2799 -0.8990
  574MOL0     O79105  -0.761   9.672   4.825  0.3013 -0.3789 -0.1759
  574MOL0     C79106  -0.897   9.676   4.793 -1.2806  0.0904  0.0906
  574MOL0     C79107  -0.934   9.687   4.658 -0.7528  0.4653 -0.4400
  574MOL0     C79108  -1.073   9.677   4.637  0.1296  0.5787  0.4801
  574MOL0     C79109  -1.167   9.679   4.744 -1.2396 -0.4534 -0.5189
  574MOL0     O79110  -1.298   9.686   4.707 -0.1216 -0.2774 -1.0466
  574MOL0     C79111  -1.386   9.597   4.790 -0.4977 -0.3376 -0.9747
  574MOL0     C79112  -1.449   9.692   4.886  0.1353  0.0454 -0.0388
  574MOL0     C79113  -1.564   9.633   4.962  1.4712  0.8072 -1.0501
  574MOL0     C79114  -1.543   9.495   5.028 -0.2475 -0.1067 -0.2997
  574MOL0     C79115  -1.431   9.479   5.124 -0.2642 -0.4102 -0.2379
  574MOL0     C79116  -1.472   9.505   5.268 -1.3940  0.5338 -0.6535
  574MOL0     C79117  -1.342   9.493   5.356  0.3548 -0.9104 -0.3605
  574MOL0     C79118  -1.255   9.617   5.334  0.2091 -0.2811  0.2073
  574MOL0    Cl79119  -1.145   9.646   5.462 -0.0318  0.0886  0.0042
  574MOL0     C79120  -1.119   9.680   4.876  0.4721  0.2289  0.4705
  574MOL0     C79121  -0.989   9.679   4.900 -0.6934 -0.6172 -0.3588
  574MOL0     O79122  -0.769   9.442   4.804 -0.8932  0.3362 -0.6995
  574MOL0     C79123  -0.534   9.397   4.941 -0.6595  0.1862  0.3029
  574MOL0     C79124  -0.402   9.368   4.969 -0.6040 -0.4703 -0.0844
  574MOL0     N79125   0.239   9.042   4.928  0.1264 -0.1882  0.0153
  574MOL0     N79126   0.302   8.953   4.994  0.8459 -0.8271 -0.1014
  574MOL0     C79127   0.227   7.925   5.670 -0.0130  0.7083  0.5755
  574MOL0     C79128   0.176   7.797   5.682  0.4930  0.4157  0.8615
  574MOL0     C79129   0.099   7.362   5.670  0.3187  0.5491  0.0423
  574MOL0     C79130   0.112   7.280   5.553 -0.5828 -0.2187  0.7787
  574MOL0     C79131   0.078   7.150   5.563 -0.5467 -0.7700 -0.0575
  574MOL0     C79132   0.032   7.082   5.673  0.5525 -0.3776 -0.0334
  574MOL0     O79133  -0.020   6.956   5.654 -0.6415 -0.1772  0.1660
  574MOL0     C79134  -0.043   6.883   5.773  0.7218  0.6712  0.9270
  574MOL0     C79135  -0.075   6.740   5.725  0.1523 -0.4119  0.0985
  574MOL0     C79136   0.032   6.691   5.625  0.0377 -0.4339  0.2647
  574MOL0     C79137   0.031   6.532   5.621 -0.6829  0.0782  0.0849
  574MOL0     C79138   0.158   6.478   5.569 -0.5358 -0.4336  1.0225
  574MOL0     C79139   0.276   6.454   5.526 -0.0057  0.1332  0.4626
  574MOL0     C79140   0.026   7.158   5.797  0.5217 -0.6027 -0.1143
  574MOL0     C79141   0.067   7.290   5.797 -0.3334 -0.6823  0.9466
  574MOL0     C79142   0.048   7.371   5.923 -0.3148  0.1310 -0.0861
  574MOL0     H79143   0.458   7.662   5.814  3.4125  0.4545 -2.3435
  574MOL0     H79144   0.545   7.880   5.779 -0.4035  0.3819  0.2195
  574MOL0     H79145   0.242   8.201   5.609 -0.0072 -1.2868  3.2397
  574MOL0     H79146   0.343   8.128   5.486 -1.5069 -0.2529 -0.1387
  574MOL0     H79147   0.408   8.369   5.663  0.3570  0.0145  0.8501
  574MOL0     H79148   0.530   8.275   5.556 -0.3163 -2.2297  0.5202
  574MOL0     H79149   0.369   8.323   5.364  0.7869  0.4239 -0.8693
  574MOL0     H79150   0.278   8.430   5.476  0.0107  0.7009  1.9674
  574MOL0     H79151   0.482   8.563   5.527  0.0923  0.2422  0.6894
  574MOL0     H79152   0.580   8.461   5.415 -0.6210 -2.5306  0.7308
  574MOL0     H79153   0.335   8.578   5.301  0.3274 -2.0072 -1.9839
  574MOL0     H79154   0.474   8.523   5.225  0.3661  3.3959 -1.7013
  574MOL0     H79155   0.486   8.783   5.401  1.6947 -1.3242  1.2343
  574MOL0     H79156   0.598   8.725   5.267 -1.2295  0.8600 -1.5647
  574MOL0     H79157   0.318   8.791   5.216 -0.1046  2.5832  0.0260
  574MOL0     H79158   0.461   8.760   5.107 -1.4848 -0.6038 -0.3974
  574MOL0     H79159   0.396   9.003   5.273 -0.3243 -2.5375  1.6289
  574MOL0     H79160   0.551   8.981   5.202 -0.5010 -0.7622  3.0557
  574MOL0     H79161   0.453   9.213   5.116 -0.5486 -0.9169  0.1645
  574MOL0     H79162   0.311   9.337   4.820  0.2828  0.1788 -0.2050
  574MOL0     H79163   0.298   9.381   4.984  0.5199 -0.4760  0.6257
  574MOL0     H79164   0.095   9.433   4.859  0.3992  1.1505  2.7130
  574MOL0     H79165   0.060   9.262   4.821  0.2600 -0.2350 -0.3237
  574MOL0     H79166   0.059   9.207   5.062  1.3506  0.1754 -0.4635
  574MOL0     H79167   0.056   9.379   5.110  4.8724 -2.0329  0.4462
  574MOL0     H79168  -0.139   9.254   4.921 -3.1446 -0.8904  1.6082
  574MOL0     H79169  -0.161   9.276   5.098  1.2108  2.4251  0.4776
  574MOL0     H79170  -0.245   9.666   4.875  0.3389  0.9423 -0.2068
  574MOL0     H79171  -0.567   9.760   4.724 -2.4517  1.1506  1.8821
  574MOL0     H79172  -0.420   9.822   4.783 -1.8491  0.5326 -1.7854
  574MOL0     H79173  -0.570   9.804   4.892 -0.3799 -0.7700  1.2451
  574MOL0     H79174  -0.851   9.712   4.592 -0.0950 -0.3831  0.0459
  574MOL0     H79175  -1.102   9.685   4.532 -1.9711  0.9939  1.0529
  574MOL0     H79176  -1.467   9.545   4.738 -1.9438  1.0241 -0.1640
  574MOL0     H79177  -1.326   9.523   4.843  0.0919 -0.1725 -1.4004
  574MOL0     H79178  -1.378   9.734   4.957  1.2859 -0.3636 -0.9175
  574MOL0     H79179  -1.491   9.773   4.825 -1.4183  0.0544  0.9840
  574MOL0     H79180  -1.656   9.638   4.903  0.3168  1.6711  0.7407
  574MOL0     H79181  -1.577   9.693   5.053 -0.9775  1.5354 -1.8083
  574MOL0     H79182  -1.534   9.415   4.954 -1.0347 -0.9250  0.4643
  574MOL0     H79183  -1.641   9.477   5.072 -1.2356  0.1218 -2.3005
  574MOL0     H79184  -1.379   9.384   5.108  1.5222  0.4707  0.1210
  574MOL0     H79185  -1.363   9.562   5.106 -1.5630  0.7592  0.0619
  574MOL0     H79186  -1.552   9.435   5.296  0.4278 -1.6311 -0.5972
  574MOL0     H79187  -1.508   9.606   5.289  1.4388  1.7722 -1.3476
  574MOL0     H79188  -1.286   9.400   5.346  0.2068 -1.2649  1.6849
  574MOL0     H79189  -1.368   9.490   5.463  0.5974 -1.1245 -0.3053
  574MOL0     H79190  -1.326   9.699   5.320 -3.9796 -3.7341 -0.8016
  574MOL0     H79191  -1.196   9.622   5.242 -1.7953 -0.4805 -1.1477
  574MOL0     H79192  -1.177   9.701   4.965 -0.3527 -0.5257  0.1171
  574MOL0     H79193  -0.952   9.673   5.002 -2.5406  3.3435  0.7227
  574MOL0     H79194  -0.612   9.328   4.972  0.6980 -0.5954  2.1651
  574MOL0     H79195  -0.384   9.268   5.008  0.9442  0.4968  1.8748
  574MOL0     H79196   0.159   7.989   5.615  1.4140  1.0917 -0.7919
  574MOL0     H79197   0.073   7.774   5.656  0.1513 -1.2462  3.3652
  574MOL0     H79198   0.145   7.325   5.460 -0.7245 -0.4576  0.6117
  574MOL0     H79199   0.100   7.100   5.469  1.6449 -1.3655  0.7040
  574MOL0     H79200   0.047   6.876   5.835  2.4713 -1.1368 -1.5610
  574MOL0     H79201  -0.133   6.916   5.826  1.0643  0.2693  1.7789
  574MOL0     H79202  -0.171   6.734   5.673  0.1419 -2.8100  0.2981
  574MOL0     H79203  -0.088   6.677   5.813 -0.6914 -0.8854 -0.3485
  574MOL0     H79204   0.017   6.709   5.518  0.3844 -1.3605  0.0441
  574MOL0     H79205   0.127   6.742   5.643 -1.0006  2.5016 -1.8751
  574MOL0     H79206  -0.052   6.496   5.560  0.6117  1.4421 -2.6778
  574MOL0     H79207   0.017   6.502   5.725  1.3795  2.1804  1.0649
  574MOL0     H79208   0.366   6.429   5.474 -0.6454 -2.6783  0.5563
  574MOL0     H79209  -0.017   7.120   5.889 -1.3866 -0.8633 -1.0575
  574MOL0     H79210   0.144   7.381   5.974  0.9087  0.1222 -2.2422
  574MOL0     H79211   0.021   7.472   5.890 -0.9646 -0.5406 -1.7526
  574MOL0     H79212  -0.023   7.319   5.987  1.6660 -4.7114 -1.3870
  575MOL0     O79213   8.894   1.913   6.801  0.2880 -0.5394  0.3826
  575MOL0     C79214   8.928   1.844   6.705  0.0268  0.0947  0.2263
  575MOL0     O79215   8.839   1.794   6.611  0.5000 -0.5705  0.5999
  575MOL0     C79216   8.701   1.804   6.631 -0.7193  0.7092 -0.6343
  575MOL0     C79217   8.636   1.784   6.753 -0.0933 -0.0097 -0.2045
  575MOL0     C79218   8.497   1.802   6.777  0.2019  0.2147  0.4557
  575MOL0     C79219   8.415   1.846   6.671  0.2801 -0.0683 -0.0739
  575MOL0     O79220   8.279   1.883   6.685 -0.2662  0.0468 -0.0405
  575MOL0     C79221   8.221   1.864   6.817  0.3208 -0.1514 -0.1386
  575MOL0     C79222   8.079   1.933   6.829  0.6276 -0.4681 -0.0861
  575MOL0     C79223   7.971   1.877   6.746 -0.9255 -0.4930  0.6515
  575MOL0     C79224   7.831   1.941   6.782 -0.4876  0.4345  0.4123
  575MOL0     C79225   7.728   1.860   6.711 -0.1453 -0.0997 -0.7437
  575MOL0     C79226   7.588   1.927   6.708  0.1137  0.2765 -0.6715
  575MOL0     C79227   7.525   1.939   6.853  0.7298 -0.1549  0.5076
  575MOL0     C79228   7.384   2.011   6.836  0.3523  0.2626 -0.3513
  575MOL0     N79229   7.289   1.935   6.762  0.5793 -0.0284  0.7362
  575MOL0     C79230   7.206   1.835   6.792  0.0778  0.1292  0.1618
  575MOL0     C79231   7.127   1.808   6.683 -0.6499  0.5519 -0.3541
  575MOL0     C79232   7.015   1.709   6.682  0.1746  0.6474  0.3186
  575MOL0     C79233   7.057   1.563   6.704 -0.0504  0.3631 -1.1403
  575MOL0     C79234   6.940   1.463   6.698 -0.3359  0.5951 -0.0723
  575MOL0     C79235   6.980   1.318   6.732  0.2099 -0.9153 -0.9814
  575MOL0     O79236   6.982   1.315   6.876 -1.0607 -0.1269  0.4242
  575MOL0     C79237   7.004   1.190   6.927 -0.2153  0.3650 -0.0292
  575MOL0     C79238   6.928   1.147   7.040  0.7774 -0.3951 -0.5489
  575MOL0     C79239   6.920   1.013   7.093  0.3422 -0.5155  0.7053
  575MOL0     C79240   6.832   0.986   7.220  0.2886 -1.3203  0.0633
  575MOL0     C79241   6.999   0.922   7.027  0.8540  0.9363  1.5176
  575MOL0     C79242   7.013   0.778   7.053  0.0280 -0.9600 -0.1284
  575MOL0     O79243   7.055   0.752   7.184 -0.1406  0.1960  0.8373
  575MOL0     C79244   7.119   0.631   7.215  0.0633 -0.7030 -0.1988
  575MOL0     C79245   7.097   0.595   7.342  0.2726 -0.6116 -0.3175
  575MOL0     C79246   7.131   0.458   7.390 -0.3486  0.1133 -0.7957
  575MOL0     C79247   7.216   0.379   7.314  0.6997  0.2770  0.9743
  575MOL0     O79248   7.284   0.265   7.355  0.4278  0.5272  0.5367
  575MOL0     C79249   7.283   0.225   7.497  0.9989  0.0689 -0.4679
  575MOL0     C79250   7.352   0.086   7.527  0.7777  0.0154  1.0468
  575MOL0     C79251   7.298  -0.026   7.447  0.2378 -0.2363  0.3481
  575MOL0     C79252   7.169  -0.072   7.500 -0.1253 -0.3495  0.1451
  575MOL0     C79253   7.116  -0.197   7.429  0.1568 -0.4231 -0.2647
  575MOL0     C79254   7.004  -0.255   7.505  0.0799  0.3388 -0.1286
  575MOL0     C79255   6.906  -0.328   7.413  0.0526 -0.2698  0.0720
  575MOL0     C79256   6.813  -0.426   7.491 -0.7032  0.7904 -0.0855
  575MOL0    Cl79257   6.700  -0.503   7.369 -0.1308 -0.0023 -0.5540
  575MOL0     C79258   7.238   0.414   7.180 -0.4055  0.4165 -0.9373
  575MOL0     C79259   7.185   0.531   7.125  0.7429 -0.9555 -0.1711
  575MOL0     O79260   6.980   0.690   6.971  0.1786 -0.3332 -0.0799
  575MOL0     C79261   7.073   0.958   6.909  0.4914  0.1212 -0.5820
  575MOL0     C79262   7.069   1.087   6.867  0.1742  0.2702  0.7534
  575MOL0     N79263   7.175   1.880   6.577  0.8906  0.1052 -0.2171
  575MOL0     N79264   7.258   1.960   6.632 -1.1955  0.1571 -0.8422
  575MOL0     C79265   8.474   1.854   6.542  0.9126  0.1120  0.0376
  575MOL0     C79266   8.611   1.826   6.520  0.4843 -0.5871  0.0585
  575MOL0     C79267   9.066   1.783   6.689 -1.0558 -0.0325 -0.2474
  575MOL0     C79268   9.080   1.673   6.599 -0.7685 -0.2811  0.5560
  575MOL0     C79269   9.212   1.620   6.583  0.6483  0.1252  0.3278
  575MOL0     C79270   9.318   1.672   6.644  0.2486  0.3060 -0.8561
  575MOL0     O79271   9.435   1.616   6.616 -0.1573 -0.7278 -0.2552
  575MOL0     C79272   9.472   1.499   6.697 -0.1912 -0.1174 -0.2993
  575MOL0     C79273   9.623   1.506   6.738  0.3624 -0.2633 -0.1589
  575MOL0     C79274   9.713   1.437   6.630 -0.3966 -0.5344 -0.4864
  575MOL0     C79275   9.730   1.288   6.675  0.0838  0.2311 -0.6146
  575MOL0     C79276   9.601   1.209   6.658 -0.8106 -0.0676  0.2794
  575MOL0     C79277   9.505   1.148   6.613 -0.2075 -0.5149  0.3908
  575MOL0     C79278   9.309   1.788   6.720  0.2188  0.7420 -0.2207
  575MOL0     C79279   9.178   1.839   6.748 -0.7363  0.1967 -0.6280
  575MOL0     C79280   9.177   1.954   6.846  0.1005 -0.3619  0.0505
  575MOL0     H79281   8.676   1.748   6.847  1.6039  1.6100 -0.2511
  575MOL0     H79282   8.465   1.752   6.868  0.9961 -2.7118 -0.7572
  575MOL0     H79283   8.285   1.885   6.902 -1.3861 -2.4585  1.8778
  575MOL0     H79284   8.212   1.755   6.825  1.3103 -0.3802 -1.6937
  575MOL0     H79285   8.058   1.926   6.936  1.8941  3.4018  0.6118
  575MOL0     H79286   8.088   2.041   6.810 -1.3418 -0.1425  0.6096
  575MOL0     H79287   7.999   1.902   6.644 -1.0033  1.3749  1.0544
  575MOL0     H79288   7.982   1.771   6.770  2.1810 -0.8921 -2.0290
  575MOL0     H79289   7.818   1.942   6.890  0.0087  2.0786  0.4832
  575MOL0     H79290   7.838   2.046   6.751  0.7305  0.8296  1.9005
  575MOL0     H79291   7.710   1.772   6.774 -0.3894  1.2722  1.2172
  575MOL0     H79292   7.757   1.833   6.609  2.6766 -1.9128  0.3937
  575MOL0     H79293   7.597   2.022   6.656 -0.8184  1.4208  1.1523
  575MOL0     H79294   7.525   1.850   6.663 -1.4935 -1.0929  3.3706
  575MOL0     H79295   7.583   1.993   6.928 -0.1757  3.2546 -1.0710
  575MOL0     H79296   7.516   1.835   6.885 -0.0033 -0.8652 -1.7621
  575MOL0     H79297   7.338   2.023   6.934  1.6929 -0.8330  0.4561
  575MOL0     H79298   7.389   2.110   6.789 -0.0628  0.5077  0.1138
  575MOL0     H79299   7.199   1.799   6.894  4.1399  0.2686  0.6590
  575MOL0     H79300   6.970   1.713   6.582  0.4524 -0.5837  0.1297
  575MOL0     H79301   6.938   1.735   6.754  0.9250  2.6565  0.4681
  575MOL0     H79302   7.148   1.537   6.649 -1.2404 -4.0610 -1.4321
  575MOL0     H79303   7.093   1.552   6.806  1.2237  1.3532 -1.4563
  575MOL0     H79304   6.849   1.491   6.753 -1.2755 -3.7523  0.9051
  575MOL0     H79305   6.913   1.456   6.592  0.5169  0.0083 -0.2578
  575MOL0     H79306   6.910   1.240   6.701  0.1727 -0.9576 -0.7917
  575MOL0     H79307   7.070   1.287   6.680  0.0625 -2.4742 -0.3706
  575MOL0     H79308   6.872   1.217   7.101 -0.2677 -1.7724  0.1511
  575MOL0     H79309   6.728   1.015   7.200  0.0961 -2.0210  0.0372
  575MOL0     H79310   6.861   1.050   7.304 -2.0605  0.8887 -0.6612
  575MOL0     H79311   6.835   0.883   7.255 -0.0594 -0.2499  3.6596
  575MOL0     H79312   7.045   0.664   7.407  0.5908 -1.3606  0.7527
  575MOL0     H79313   7.101   0.443   7.494  1.2829  2.0148  0.0081
  575MOL0     H79314   7.331   0.302   7.559 -1.5197  1.2374  0.1558
  575MOL0     H79315   7.179   0.221   7.531  0.9603 -1.8281 -0.7041
  575MOL0     H79316   7.456   0.109   7.504  0.4374  1.0851  0.5071
  575MOL0     H79317   7.330   0.069   7.633  0.4132 -2.4048  0.6409
  575MOL0     H79318   7.369  -0.107   7.465 -0.3109 -1.0444 -0.8983
  575MOL0     H79319   7.307  -0.001   7.341  0.8524 -1.2435  0.1491
  575MOL0     H79320   7.098   0.006   7.472  1.3321  1.3234  0.8415
  575MOL0     H79321   7.162  -0.090   7.608 -2.6204 -2.3543 -0.2529
  575MOL0     H79322   7.090  -0.166   7.328 -1.7552 -0.5810  0.1498
  575MOL0     H79323   7.197  -0.271   7.422  0.1895 -0.3541 -0.6317
  575MOL0     H79324   6.945  -0.181   7.561 -1.8432  0.6765 -2.4235
  575MOL0     H79325   7.046  -0.327   7.575 -1.0992  2.2228  2.7010
  575MOL0     H79326   6.960  -0.382   7.336  0.3381  0.4847 -0.2726
  575MOL0     H79327   6.843  -0.250   7.368  1.6839  2.6629  2.4666
  575MOL0     H79328   6.773  -0.379   7.581 -0.5340 -1.3395  1.1619
  575MOL0     H79329   6.879  -0.502   7.533 -1.2415  2.2679  3.8840
  575MOL0     H79330   7.313   0.359   7.124 -1.1863 -0.5916 -1.0313
  575MOL0     H79331   7.202   0.546   7.019  1.5036  1.8303  0.2596
  575MOL0     H79332   7.132   0.887   6.852  0.5956 -0.0993 -0.1950
  575MOL0     H79333   7.116   1.098   6.770  0.4828 -2.7124  0.4847
  575MOL0     H79334   8.413   1.892   6.460 -0.4572  4.7227  2.8041
  575MOL0     H79335   8.646   1.824   6.417  0.1469 -1.9020 -0.0422
  575MOL0     H79336   9.000   1.614   6.556 -0.6680  0.0445 -0.0850
  575MOL0     H79337   9.222   1.533   6.518 -2.9463  0.0963 -0.3744
  575MOL0     H79338   9.397   1.470   6.772  1.0015 -3.1372 -0.1494
  575MOL0     H79339   9.461   1.426   6.616 -0.0773  0.9310 -1.2949
  575MOL0     H79340   9.623   1.452   6.834  0.0546 -0.3527 -0.2095
  575MOL0     H79341   9.642   1.611   6.762 -0.3915 -0.4038  1.1780
  575MOL0     H79342   9.672   1.465   6.533  2.5052 -0.6567 -1.8642
  575MOL0     H79343   9.814   1.479   6.634 -0.6339  0.3373 -2.4821
  575MOL0     H79344   9.753   1.281   6.782 -0.4008  0.6979 -0.4791
  575MOL0     H79345   9.796   1.226   6.614  1.3133 -1.4758  2.2780
  575MOL0     H79346   9.409   1.105   6.590 -2.2629  3.0777  1.4153
  575MOL0     H79347   9.404   1.830   6.751 -0.4019  3.2300 -1.3881
  575MOL0     H79348   9.139   2.044   6.797 -2.4768 -0.1941  2.1170
  575MOL0     H79349   9.112   1.954   6.934  0.3504 -0.2619  0.2358
  575MOL0     H79350   9.278   1.971   6.882 -0.0872  2.9632 -0.6691
  576MOL0     O79351   6.344  11.030   1.602  0.6852  0.1753  0.0785
  576MOL0     C79352   6.228  11.050   1.582  0.0650  1.4440  0.4328
  576MOL0     O79353   6.152  10.967   1.516  1.3441 -0.1053 -0.4409
  576MOL0     C79354   6.196  10.839   1.493  0.4433  0.3457  0.3131
  576MOL0     C79355   6.207  10.749   1.605  0.0338  0.3609 -0.1840
  576MOL0     C79356   6.261  10.623   1.580  0.1478 -0.2254  0.0863
  576MOL0     C79357   6.319  10.582   1.453  0.3038 -0.2573 -1.1063
  576MOL0     O79358   6.362  10.447   1.444 -0.1419 -0.4313  0.1165
  576MOL0     C79359   6.264  10.340   1.464  0.1670  0.2318  1.3006
  576MOL0     C79360   6.338  10.201   1.436  0.1506 -0.7487  0.1309
  576MOL0     C79361   6.408  10.167   1.573  0.6934  0.6350  0.4730
  576MOL0     C79362   6.471  10.027   1.569 -0.4040 -0.3586 -0.8246
  576MOL0     C79363   6.372   9.916   1.602  0.4577 -0.2873  0.1764
  576MOL0     C79364   6.400   9.776   1.559  0.8273 -0.0787 -1.4681
  576MOL0     C79365   6.508   9.698   1.637 -0.9376  0.1704  0.1910
  576MOL0     C79366   6.531   9.559   1.580 -0.0766 -0.2819 -1.3185
  576MOL0     N79367   6.583   9.576   1.442 -0.0717  0.4906  0.0246
  576MOL0     C79368   6.697   9.643   1.411  0.7575 -0.9412  0.1341
  576MOL0     C79369   6.712   9.636   1.277  0.7402  0.9418  0.3081
  576MOL0     C79370   6.834   9.681   1.193  1.0003 -0.6721  0.6380
  576MOL0     C79371   6.815   9.807   1.107  0.4744 -0.1297  0.4488
  576MOL0     C79372   6.733   9.785   0.988 -0.1493  0.6346  0.7587
  576MOL0     C79373   6.800   9.724   0.856 -0.0117  0.8786 -0.0240
  576MOL0     O79374   6.738   9.757   0.729  0.5752  0.0473 -0.2037
  576MOL0     C79375   6.606   9.761   0.719  0.2310  0.0561 -0.8654
  576MOL0     C79376   6.547   9.886   0.689  0.6299  1.2348 -0.4292
  576MOL0     C79377   6.408   9.879   0.661  0.6423 -0.0248 -0.4837
  576MOL0     C79378   6.345  10.018   0.642  0.2377 -0.2092  0.2116
  576MOL0     C79379   6.329   9.760   0.661  0.1417  0.8519  0.6352
  576MOL0     C79380   6.187   9.735   0.611 -0.7483 -0.1851 -0.6793
  576MOL0     O79381   6.133   9.618   0.649  0.1407 -0.3001  0.6042
  576MOL0     C79382   6.003   9.593   0.605 -0.3905  0.4665  0.1978
  576MOL0     C79383   5.916   9.544   0.702  0.1578 -0.9593  0.3400
  576MOL0     C79384   5.791   9.479   0.672 -0.0623  0.0571 -0.3253
  576MOL0     C79385   5.757   9.484   0.535  0.6436 -0.0808 -1.0884
  576MOL0     O79386   5.633   9.448   0.506  1.0638 -0.8709  0.7884
  576MOL0     C79387   5.620   9.299   0.519 -0.7130  0.5567 -0.3111
  576MOL0     C79388   5.470   9.262   0.493  0.3540  0.4352  0.9748
  576MOL0     C79389   5.381   9.289   0.619 -0.8874  0.1326 -0.9778
  576MOL0     C79390   5.236   9.278   0.587  0.1496  0.5740  0.3333
  576MOL0     C79391   5.186   9.392   0.497  0.3094 -0.9136 -0.2281
  576MOL0     C79392   5.049   9.437   0.539 -0.4385 -0.7006  0.5860
  576MOL0     C79393   4.981   9.540   0.456  0.3642 -1.2952  1.1979
  576MOL0     C79394   4.935   9.507   0.317 -0.3127  0.2088 -0.0219
  576MOL0    Cl79395   4.813   9.371   0.327 -0.9651  0.0090 -0.0568
  576MOL0     C79396   5.840   9.543   0.439 -0.3762  0.2499  0.0797
  576MOL0     C79397   5.965   9.593   0.470  1.3368  0.0492  0.7906
  576MOL0     O79398   6.131   9.830   0.552  0.1422  0.0916  0.6159
  576MOL0     C79399   6.395   9.636   0.684  0.4562  0.5231  0.7784
  576MOL0     C79400   6.525   9.643   0.719 -0.2421  0.5078  0.6707
  576MOL0     N79401   6.603   9.564   1.223  0.5553 -0.0725 -0.0621
  576MOL0     N79402   6.524   9.527   1.326 -0.2274  0.0843 -0.5235
  576MOL0     C79403   6.310  10.675   1.356  0.3626  0.1056  0.3771
  576MOL0     C79404   6.256  10.802   1.369  0.7493 -1.0507 -0.4694
  576MOL0     C79405   6.174  11.176   1.611  0.8337 -0.5916 -0.0009
  576MOL0     C79406   6.265  11.280   1.591 -0.1446  0.5598  0.1261
  576MOL0     C79407   6.234  11.410   1.618 -0.0445  0.0078  0.7059
  576MOL0     C79408   6.105  11.446   1.664 -0.1576  0.4394  0.5302
  576MOL0     O79409   6.062  11.571   1.699 -0.1429  0.0277 -0.5824
  576MOL0     C79410   6.157  11.668   1.750  0.4136 -0.4723  0.1134
  576MOL0     C79411   6.095  11.774   1.845 -0.1765  0.3581  0.1890
  576MOL0     C79412   6.199  11.881   1.873  0.1364 -0.1076 -0.4353
  576MOL0     C79413   6.181  11.960   2.011  0.1177  0.8541 -0.0367
  576MOL0     C79414   6.189  11.857   2.113  0.1928 -0.4710 -0.1986
  576MOL0     C79415   6.182  11.767   2.191 -0.5278 -0.2238  0.1125
  576MOL0     C79416   6.015  11.346   1.688  0.0851  0.7560 -0.3068
  576MOL0     C79417   6.043  11.210   1.653 -0.1098  0.1863 -0.7053
  576MOL0     C79418   5.927  11.114   1.681  0.7791  0.6716 -0.1557
  576MOL0     H79419   6.158  10.764   1.701 -1.3552 -4.4813  0.1190
  576MOL0     H79420   6.261  10.554   1.664  0.9611 -0.3138  0.0166
  576MOL0     H79421   6.177  10.350   1.400  1.4571 -3.0969 -1.3228
  576MOL0     H79422   6.209  10.340   1.559 -0.6992 -0.5515  0.8137
  576MOL0     H79423   6.268  10.119   1.419 -0.1145 -1.0629  2.4968
  576MOL0     H79424   6.413  10.201   1.355  0.8427 -2.0040  0.7355
  576MOL0     H79425   6.489  10.236   1.596 -0.3616  1.1405  3.0285
  576MOL0     H79426   6.334  10.182   1.653 -1.1521 -1.4492 -0.7063
  576MOL0     H79427   6.522  10.013   1.473 -1.6050  2.4366 -1.9739
  576MOL0     H79428   6.545  10.018   1.649  1.1548 -2.1298 -2.3776
  576MOL0     H79429   6.273   9.946   1.568  0.2049 -0.9680  0.2935
  576MOL0     H79430   6.345   9.909   1.708 -2.9356 -1.7938 -0.6537
  576MOL0     H79431   6.312   9.711   1.567  0.9719 -0.0208  3.0471
  576MOL0     H79432   6.414   9.775   1.450 -0.9230  0.9783 -1.7498
  576MOL0     H79433   6.483   9.694   1.743  2.3436  3.9154  1.3268
  576MOL0     H79434   6.601   9.754   1.624 -0.3529 -0.9455 -0.6082
  576MOL0     H79435   6.605   9.513   1.646 -0.9309  1.7479  1.1868
  576MOL0     H79436   6.442   9.497   1.594 -1.0370  1.0021 -1.5263
  576MOL0     H79437   6.759   9.704   1.475  0.8616  0.1548 -0.9676
  576MOL0     H79438   6.865   9.600   1.126  0.4786  0.8123 -1.4995
  576MOL0     H79439   6.923   9.697   1.255  3.0000 -2.4646 -1.5828
  576MOL0     H79440   6.752   9.867   1.173 -1.1725 -2.4062  1.0730
  576MOL0     H79441   6.909   9.856   1.083 -0.3228  1.5409  0.5682
  576MOL0     H79442   6.640   9.730   1.008 -0.7447  0.6724 -1.5918
  576MOL0     H79443   6.699   9.886   0.965  2.8099  1.0634 -2.5116
  576MOL0     H79444   6.903   9.758   0.847  0.0214  0.1975 -3.2513
  576MOL0     H79445   6.801   9.615   0.865 -1.4511  0.9070  0.8619
  576MOL0     H79446   6.597   9.981   0.677 -1.1422  1.9667 -2.8867
  576MOL0     H79447   6.319  10.036   0.538 -0.8606  2.2622  0.8439
  576MOL0     H79448   6.422  10.089   0.672  1.5646 -0.8814 -1.4303
  576MOL0     H79449   6.256  10.042   0.701 -0.3505  3.9689 -2.0486
  576MOL0     H79450   5.949   9.537   0.806  0.7202 -1.5460  0.1275
  576MOL0     H79451   5.730   9.438   0.752  2.0124 -1.0959  0.7362
  576MOL0     H79452   5.692   9.253   0.451  0.4329  0.6940  0.7725
  576MOL0     H79453   5.649   9.260   0.617 -2.4659 -2.0418 -0.7229
  576MOL0     H79454   5.428   9.309   0.404 -0.8622 -0.8873  0.8065
  576MOL0     H79455   5.472   9.154   0.472 -0.3923  0.1716  2.1497
  576MOL0     H79456   5.403   9.393   0.648  1.0300 -0.7057  0.8474
  576MOL0     H79457   5.397   9.225   0.706  0.8227 -2.2780 -2.9122
  576MOL0     H79458   5.183   9.265   0.682 -0.9160 -0.2400 -0.3345
  576MOL0     H79459   5.219   9.185   0.531  0.2849  1.8038 -1.8641
  576MOL0     H79460   5.261   9.471   0.497  0.8412 -1.3903  0.6982
  576MOL0     H79461   5.179   9.364   0.391 -0.9159  1.9523 -0.9966
  576MOL0     H79462   5.054   9.481   0.639  0.7686  0.0568  0.2215
  576MOL0     H79463   4.983   9.350   0.539 -0.7050 -0.5708 -2.0283
  576MOL0     H79464   5.045   9.627   0.441 -3.0451  1.1422 -0.6816
  576MOL0     H79465   4.889   9.578   0.501 -1.3687  1.2011 -3.7057
  576MOL0     H79466   5.026   9.475   0.265  1.2241  2.7812  0.8900
  576MOL0     H79467   4.895   9.595   0.265 -1.7009 -1.8202 -2.6352
  576MOL0     H79468   5.807   9.540   0.336  1.8667  2.5018 -0.7980
  576MOL0     H79469   6.034   9.639   0.401 -1.4104 -0.4211 -2.5417
  576MOL0     H79470   6.352   9.536   0.681  3.2790 -0.8119 -2.8273
  576MOL0     H79471   6.571   9.548   0.743  0.3008  0.9969  1.6235
  576MOL0     H79472   6.344  10.671   1.253  1.2312  4.6550  0.2617
  576MOL0     H79473   6.258  10.875   1.289  1.4564 -1.9924 -1.3171
  576MOL0     H79474   6.350  11.243   1.534 -2.9584 -2.5229 -2.5255
  576MOL0     H79475   6.316  11.479   1.602  1.4327 -1.7832  0.2427
  576MOL0     H79476   6.232  11.626   1.818  1.5562  1.4899  0.1451
  576MOL0     H79477   6.216  11.716   1.670  0.1598  0.9610  0.7589
  576MOL0     H79478   6.045  11.722   1.928  0.3994  0.7174  0.7653
  576MOL0     H79479   6.019  11.834   1.794  1.8606 -0.2651 -4.0304
  576MOL0     H79480   6.291  11.821   1.880 -0.6279 -1.4290 -1.2999
  576MOL0     H79481   6.212  11.945   1.786 -2.2856 -0.3475 -1.0347
  576MOL0     H79482   6.082  12.005   2.017  0.3289  1.2261  0.8017
  576MOL0     H79483   6.254  12.042   2.019 -1.1731  1.9995  0.2812
  576MOL0     H79484   6.180  11.685   2.260  0.9112  1.8328  2.7984
  576MOL0     H79485   5.918  11.371   1.729 -1.2192  0.0474 -2.8156
  576MOL0     H79486   5.968  11.020   1.720 -0.0502 -0.9936 -3.0361
  576MOL0     H79487   5.861  11.161   1.754  1.5166  2.6753 -0.7289
  576MOL0     H79488   5.884  11.087   1.585  1.5384  1.6093 -0.7749
  577MOL0     O79489   6.624   7.334  11.531 -0.5498 -0.5334  0.4818
  577MOL0     C79490   6.514   7.321  11.474 -0.2589 -0.4182  0.4655
  577MOL0     O79491   6.490   7.366  11.348  0.2081 -0.4131  0.7250
  577MOL0     C79492   6.588   7.433  11.272 -1.0518  0.1161 -0.5111
  577MOL0     C79493   6.708   7.362  11.251  0.1109  0.2923 -0.2573
  577MOL0     C79494   6.805   7.408  11.170 -0.3161  0.4004  0.2530
  577MOL0     C79495   6.791   7.520  11.097 -0.5118 -0.6754 -0.3285
  577MOL0     O79496   6.884   7.565  11.000  0.5814 -0.5757 -0.8905
  577MOL0     C79497   7.020   7.548  11.045 -1.0179 -0.0235 -0.1159
  577MOL0     C79498   7.112   7.617  10.946  0.2988 -0.1752  0.5734
  577MOL0     C79499   7.203   7.522  10.879  1.1358  0.0030  0.0658
  577MOL0     C79500   7.132   7.487  10.743 -0.0816 -0.4823  0.8481
  577MOL0     C79501   7.187   7.354  10.695 -0.2522 -0.1625 -0.3468
  577MOL0     C79502   7.128   7.302  10.567 -0.8368  0.6091  0.5177
  577MOL0     C79503   7.149   7.384  10.428 -0.1432 -0.4711  1.0785
  577MOL0     C79504   7.112   7.293  10.309  0.1476  0.5328  0.1533
  577MOL0     N79505   6.965   7.273  10.289 -0.1109  0.6762  0.4005
  577MOL0     C79506   6.899   7.145  10.296 -0.1362 -1.1111  0.3254
  577MOL0     C79507   6.761   7.168  10.283  0.7598  0.4896  0.1981
  577MOL0     C79508   6.656   7.063  10.291 -0.4040  0.3026 -0.5682
  577MOL0     C79509   6.674   6.933  10.209  0.6185  1.4066  0.0938
  577MOL0     C79510   6.572   6.932  10.091  0.7405 -0.7337  0.5240
  577MOL0     C79511   6.603   7.030   9.980 -0.1373  0.6395  0.4414
  577MOL0     O79512   6.733   6.999   9.934 -0.4494  0.1995  0.0625
  577MOL0     C79513   6.812   7.103   9.885  1.2740  0.7197 -0.3846
  577MOL0     C79514   6.880   7.059   9.774  0.3560 -0.0818  0.3976
  577MOL0     C79515   6.966   7.145   9.706  0.4149 -0.0080  0.0035
  577MOL0     C79516   7.036   7.085   9.585 -0.2421 -0.5698  0.0050
  577MOL0     C79517   6.970   7.276   9.749 -0.8960  0.5128  0.4745
  577MOL0     C79518   7.033   7.376   9.660 -0.5112  0.1099 -0.4901
  577MOL0     O79519   6.998   7.367   9.518 -0.2243  0.5564  0.4896
  577MOL0     C79520   7.064   7.423   9.409  0.9760  0.4992  0.0821
  577MOL0     C79521   7.132   7.545   9.407 -0.3848  0.6638 -0.2684
  577MOL0     C79522   7.189   7.598   9.293  0.5034  0.3243  1.0890
  577MOL0     C79523   7.179   7.539   9.164  0.8581  0.2277 -0.2353
  577MOL0     O79524   7.215   7.605   9.054  0.4086 -0.0301  0.0120
  577MOL0     C79525   7.140   7.581   8.934 -0.3010 -1.4880 -0.2160
  577MOL0     C79526   7.180   7.695   8.845 -0.2043 -0.5192  0.7344
  577MOL0     C79527   7.149   7.673   8.701 -0.2582  0.6435  1.2479
  577MOL0     C79528   7.002   7.646   8.677  0.3503  0.4291 -0.4361
  577MOL0     C79529   6.951   7.646   8.526  0.2807 -1.1775 -0.5515
  577MOL0     C79530   7.021   7.540   8.442 -0.1241  0.6875 -0.7079
  577MOL0     C79531   6.983   7.562   8.304  0.6105  0.1046  0.7184
  577MOL0     C79532   6.981   7.441   8.209 -0.9577  0.5425 -0.4180
  577MOL0    Cl79533   6.999   7.504   8.037 -0.0845  0.2556 -0.2370
  577MOL0     C79534   7.097   7.424   9.168 -0.8990 -0.1330  0.6029
  577MOL0     C79535   7.043   7.364   9.285  0.5408  0.0951  0.4653
  577MOL0     O79536   7.112   7.456   9.709  0.5334  0.2057  0.5153
  577MOL0     C79537   6.909   7.318   9.871 -0.1413 -0.2753  0.8455
  577MOL0     C79538   6.832   7.225   9.938 -0.1105 -0.1196  0.3888
  577MOL0     N79539   6.744   7.302  10.262 -0.3012  0.2534 -0.3292
  577MOL0     N79540   6.860   7.363  10.252 -0.1990  1.6020 -0.6749
  577MOL0     C79541   6.677   7.597  11.118 -0.1882 -0.5070 -0.6464
  577MOL0     C79542   6.575   7.545  11.202 -1.3199 -0.0174  1.4440
  577MOL0     C79543   6.389   7.271  11.544 -0.8150  1.2312 -0.5839
  577MOL0     C79544   6.262   7.287  11.490  0.1581 -0.2620  0.7534
  577MOL0     C79545   6.143   7.235  11.540 -0.0205 -0.4568  0.2929
  577MOL0     C79546   6.139   7.184  11.664 -0.7268 -0.2508 -0.1253
  577MOL0     O79547   6.021   7.143  11.732 -0.6065 -0.2638 -0.1951
  577MOL0     C79548   5.903   7.085  11.664  0.5865 -0.1923  0.2498
  577MOL0     C79549   5.791   7.188  11.624 -0.8230  0.2341 -0.2507
  577MOL0     C79550   5.738   7.255  11.740 -0.4585 -1.4944  1.0203
  577MOL0     C79551   5.634   7.181  11.811  0.7926 -0.6525  0.0779
  577MOL0     C79552   5.524   7.264  11.855  0.6971 -0.6354  0.9995
  577MOL0     C79553   5.419   7.327  11.877 -0.9034  0.3067 -0.1482
  577MOL0     C79554   6.262   7.184  11.730  0.5233  0.4648 -0.3263
  577MOL0     C79555   6.388   7.219  11.675  0.3785  0.4004 -0.0474
  577MOL0     C79556   6.508   7.215  11.767  1.4078  1.4068  0.4124
  577MOL0     H79557   6.717   7.264  11.296 -1.8972  0.2828  0.2420
  577MOL0     H79558   6.898   7.352  11.171 -0.1515  0.6748  0.5092
  577MOL0     H79559   7.044   7.442  11.059 -1.3500 -0.0384  0.3712
  577MOL0     H79560   7.029   7.588  11.146 -2.3490 -2.1523  0.9254
  577MOL0     H79561   7.049   7.678  10.880  1.2467  2.0376  1.6247
  577MOL0     H79562   7.184   7.681  10.998  0.9319 -2.9670  3.4690
  577MOL0     H79563   7.295   7.575  10.855 -1.0020  4.6261  0.7825
  577MOL0     H79564   7.228   7.438  10.944  0.8606 -1.0856 -1.1923
  577MOL0     H79565   7.025   7.482  10.765 -0.5223 -1.2590 -1.2556
  577MOL0     H79566   7.155   7.556  10.662 -1.2058  1.5710  2.2043
  577MOL0     H79567   7.180   7.280  10.775  1.0420 -0.4194 -0.4578
  577MOL0     H79568   7.292   7.367  10.670 -0.3209  0.0798 -0.5097
  577MOL0     H79569   7.171   7.202  10.554 -0.1269  0.9014  0.6071
  577MOL0     H79570   7.022   7.301  10.593 -0.4568 -1.3315  2.3010
  577MOL0     H79571   7.252   7.420  10.414 -1.2914  1.7177 -4.0139
  577MOL0     H79572   7.091   7.476  10.420 -0.5616 -0.8954 -2.2189
  577MOL0     H79573   7.147   7.331  10.212  0.7256 -0.8260 -0.2053
  577MOL0     H79574   7.164   7.197  10.318 -4.1967 -1.9595  1.0197
  577MOL0     H79575   6.932   7.047  10.329 -2.0420 -0.7725  3.7129
  577MOL0     H79576   6.557   7.096  10.260 -1.3557 -2.7879 -1.1405
  577MOL0     H79577   6.656   7.031  10.396 -0.6332  2.0016 -0.0304
  577MOL0     H79578   6.775   6.920  10.170  0.4510 -0.1822  0.1233
  577MOL0     H79579   6.640   6.848  10.270 -0.1167  0.3832 -1.6765
  577MOL0     H79580   6.563   6.830  10.052  1.7762 -0.5743 -0.1539
  577MOL0     H79581   6.470   6.956  10.122  0.3019  1.1003 -2.0016
  577MOL0     H79582   6.522   7.015   9.908 -0.1755 -0.4523  0.7018
  577MOL0     H79583   6.594   7.129  10.025  1.6917  1.3484 -0.6281
  577MOL0     H79584   6.872   6.960   9.730  0.5471 -0.9024  2.1138
  577MOL0     H79585   6.972   7.097   9.497  1.6824 -2.3257 -1.7608
  577MOL0     H79586   7.045   6.977   9.598 -1.9399 -0.8109 -0.6096
  577MOL0     H79587   7.137   7.123   9.567 -1.1002  1.0444 -1.7948
  577MOL0     H79588   7.143   7.598   9.502 -0.7851 -2.1065  1.4361
  577MOL0     H79589   7.243   7.692   9.285  1.0064 -0.0073  0.4690
  577MOL0     H79590   7.166   7.487   8.885  1.1799 -2.8644  2.9220
  577MOL0     H79591   7.032   7.594   8.948 -0.0340  1.0371  0.0439
  577MOL0     H79592   7.121   7.782   8.876  1.1226  0.4363  0.6769
  577MOL0     H79593   7.288   7.706   8.859  0.3417 -1.7828 -1.9846
  577MOL0     H79594   7.210   7.587   8.673  1.2188  0.9474  3.2900
  577MOL0     H79595   7.174   7.766   8.648 -1.1700  0.3492  0.2771
  577MOL0     H79596   6.940   7.725   8.720 -1.8143 -1.4211  0.0306
  577MOL0     H79597   6.976   7.551   8.725  1.8167  0.0031 -0.4200
  577MOL0     H79598   6.842   7.643   8.528  0.1757  0.8698 -1.0284
  577MOL0     H79599   6.973   7.742   8.477 -2.6913  0.0682  0.3119
  577MOL0     H79600   6.999   7.437   8.474  1.3069 -0.3608 -2.8678
  577MOL0     H79601   7.130   7.543   8.435 -0.0950  2.3276 -0.0589
  577MOL0     H79602   7.054   7.634   8.264  1.9576 -0.9996  1.0361
  577MOL0     H79603   6.883   7.604   8.291  1.6107  1.5686 -3.8534
  577MOL0     H79604   6.890   7.381   8.225 -1.4435  0.5655 -2.8203
  577MOL0     H79605   7.067   7.377   8.231 -0.5939 -0.2128 -3.6047
  577MOL0     H79606   7.065   7.386   9.071 -1.4240  0.8878  0.3585
  577MOL0     H79607   6.981   7.275   9.278  0.9870 -0.2001  0.1899
  577MOL0     H79608   6.925   7.422   9.900 -1.8954  1.3499 -3.1796
  577MOL0     H79609   6.794   7.262  10.033  2.6876  1.4748  0.9936
  577MOL0     H79610   6.665   7.687  11.059  0.3774 -0.3707 -0.5590
  577MOL0     H79611   6.487   7.606  11.213 -1.8020 -0.0342 -1.5097
  577MOL0     H79612   6.259   7.338  11.394  1.5000 -0.6029  0.5173
  577MOL0     H79613   6.049   7.252  11.490  0.2610  2.5294  0.5899
  577MOL0     H79614   5.926   7.037  11.568 -0.4476 -0.7700  0.2848
  577MOL0     H79615   5.862   7.001  11.721 -1.6926  0.0216 -0.9795
  577MOL0     H79616   5.705   7.142  11.575 -1.7292 -2.8586  3.7786
  577MOL0     H79617   5.831   7.257  11.548 -0.1065 -1.4837 -1.5025
  577MOL0     H79618   5.819   7.267  11.814  1.8128  2.3115 -1.7154
  577MOL0     H79619   5.714   7.358  11.715  3.2885 -0.3382  1.5137
  577MOL0     H79620   5.673   7.127  11.897 -1.6922 -1.9781  0.4415
  577MOL0     H79621   5.582   7.115  11.741 -0.2223  0.5120 -0.3101
  577MOL0     H79622   5.342   7.396  11.907 -0.9694  1.1623 -2.1431
  577MOL0     H79623   6.254   7.150  11.832  2.9702  1.2054  0.1870
  577MOL0     H79624   6.543   7.317  11.789  1.1872  1.4343  0.6478
  577MOL0     H79625   6.495   7.165  11.864  0.1797  1.0483  0.0784
  577MOL0     H79626   6.586   7.163  11.711 -1.5299 -2.6359 -0.3041
  578MOL0     O79627   7.892   3.386   4.643 -0.1319  0.4097  0.2690
  578MOL0     C79628   7.940   3.319   4.553 -0.3493 -0.0071  1.3615
  578MOL0     O79629   7.900   3.191   4.526 -0.3647 -0.4739 -0.0689
  578MOL0     C79630   7.811   3.127   4.603 -0.4502  0.5069  0.2939
  578MOL0     C79631   7.675   3.169   4.623  1.0496 -0.9629  0.5768
  578MOL0     C79632   7.584   3.085   4.692  1.2450  0.2539 -0.4927
  578MOL0     C79633   7.631   2.965   4.750  0.2928  0.3054 -0.6576
  578MOL0     O79634   7.528   2.886   4.810 -1.0563 -0.1772 -0.1370
  578MOL0     C79635   7.562   2.765   4.881 -0.0776 -0.2631  0.0562
  578MOL0     C79636   7.555   2.643   4.785  0.0685 -0.0400 -0.4858
  578MOL0     C79637   7.651   2.532   4.826 -0.5896 -0.2582 -0.1081
  578MOL0     C79638   7.599   2.451   4.939 -0.4279  0.0929  0.0700
  578MOL0     C79639   7.689   2.338   4.986  0.5491 -0.1142  0.4119
  578MOL0     C79640   7.627   2.251   5.106  0.2199  0.4521  0.6580
  578MOL0     C79641   7.622   2.341   5.236 -1.0956 -0.1495  0.3893
  578MOL0     C79642   7.514   2.294   5.335  0.2895 -0.5777 -0.0264
  578MOL0     N79643   7.513   2.156   5.373 -0.2072  0.1134 -0.5107
  578MOL0     C79644   7.447   2.063   5.304 -0.0596  0.4584  0.3899
  578MOL0     C79645   7.461   1.950   5.372 -0.3589  0.2452  0.0951
  578MOL0     C79646   7.406   1.813   5.343  0.5242 -0.3563 -0.3442
  578MOL0     C79647   7.310   1.760   5.463 -0.5813 -0.3403 -0.1353
  578MOL0     C79648   7.303   1.600   5.469  0.8653 -0.1644  0.7846
  578MOL0     C79649   7.200   1.556   5.585 -0.9566  0.1927 -0.1498
  578MOL0     O79650   7.088   1.505   5.517  0.2520  0.3113 -0.2327
  578MOL0     C79651   6.969   1.492   5.586 -1.1513 -0.4191 -0.0592
  578MOL0     C79652   6.871   1.421   5.521  0.9859  1.1467  0.2832
  578MOL0     C79653   6.734   1.422   5.555 -0.9895  0.0827  0.5499
  578MOL0     C79654   6.639   1.352   5.461  0.3851 -0.3955  0.9116
  578MOL0     C79655   6.693   1.496   5.670  0.3714 -0.2204  0.2187
  578MOL0     C79656   6.559   1.488   5.725  0.2276 -0.2859 -0.1790
  578MOL0     O79657   6.547   1.393   5.822  0.6616  0.4370 -0.0328
  578MOL0     C79658   6.430   1.393   5.898  0.2997 -0.1210  0.2665
  578MOL0     C79659   6.310   1.342   5.846  0.4393  0.5442 -0.3032
  578MOL0     C79660   6.197   1.322   5.929 -1.3073  0.6200 -0.5079
  578MOL0     C79661   6.212   1.344   6.064  0.2792 -0.3659  0.0238
  578MOL0     O79662   6.118   1.293   6.146  0.7523 -0.4408  0.1041
  578MOL0     C79663   6.117   1.307   6.284 -0.0534 -0.0606 -0.2497
  578MOL0     C79664   6.014   1.224   6.355 -0.4437 -0.2398  1.0742
  578MOL0     C79665   6.006   1.253   6.505 -0.7261 -0.0661  1.3101
  578MOL0     C79666   5.868   1.196   6.553  0.2907  0.2371  0.5522
  578MOL0     C79667   5.860   1.236   6.703 -0.2547 -0.0567 -0.1707
  578MOL0     C79668   5.773   1.137   6.777  0.2267  0.1465 -0.6425
  578MOL0     C79669   5.782   1.163   6.932 -0.1268 -0.4127  0.3651
  578MOL0     C79670   5.731   1.039   6.993  0.2753  0.8479  0.3754
  578MOL0    Cl79671   5.774   1.044   7.161  0.4484  0.2594 -0.2725
  578MOL0     C79672   6.318   1.419   6.114 -0.6488 -0.6089  0.1726
  578MOL0     C79673   6.424   1.443   6.028 -0.1499 -0.8113  0.6763
  578MOL0     O79674   6.469   1.567   5.687  0.0175  0.2637 -0.0588
  578MOL0     C79675   6.795   1.556   5.750  0.6157 -0.6107  0.0247
  578MOL0     C79676   6.932   1.552   5.706  0.1467 -0.0340  0.4655
  578MOL0     N79677   7.538   1.981   5.486 -0.2001  0.2190 -0.4021
  578MOL0     N79678   7.553   2.107   5.491 -0.1622 -0.5028 -0.8149
  578MOL0     C79679   7.768   2.932   4.735  0.5216  1.0443  0.3953
  578MOL0     C79680   7.853   3.004   4.651  0.0085  0.4953 -1.0181
  578MOL0     C79681   8.024   3.384   4.450 -0.3275  0.0521  0.2301
  578MOL0     C79682   8.019   3.520   4.458  0.0405  0.7868  0.0065
  578MOL0     C79683   8.072   3.599   4.351 -0.1546 -0.4582 -0.7761
  578MOL0     C79684   8.133   3.535   4.243 -0.5949 -0.5353  0.0485
  578MOL0     O79685   8.210   3.601   4.143  0.3513 -0.6270  0.8220
  578MOL0     C79686   8.189   3.743   4.128 -0.2979  0.2849  0.5450
  578MOL0     C79687   8.290   3.828   4.195  0.0655  0.2293 -0.2669
  578MOL0     C79688   8.278   3.969   4.162  0.0039 -0.3619 -0.6780
  578MOL0     C79689   8.144   4.040   4.209  0.6668  0.0250 -0.3860
  578MOL0     C79690   8.171   4.186   4.232  0.1337  0.4689 -0.5362
  578MOL0     C79691   8.198   4.305   4.245 -0.3751  1.7866 -0.5084
  578MOL0     C79692   8.144   3.394   4.243  0.9190 -0.1125  0.0658
  578MOL0     C79693   8.103   3.325   4.354  0.0163  0.7906  0.2410
  578MOL0     C79694   8.135   3.176   4.360  0.2040 -0.7689 -0.0548
  578MOL0     H79695   7.630   3.263   4.592 -0.3139 -0.9340  2.4796
  578MOL0     H79696   7.478   3.109   4.692  0.7634 -1.6365 -2.5724
  578MOL0     H79697   7.501   2.750   4.971  2.1436  1.1371  1.9039
  578MOL0     H79698   7.657   2.788   4.929 -0.1644  1.0386 -0.3617
  578MOL0     H79699   7.448   2.619   4.782  0.1908 -0.5612 -0.9882
  578MOL0     H79700   7.581   2.670   4.683 -1.0230  0.9903 -0.5023
  578MOL0     H79701   7.655   2.466   4.739 -2.2414  2.7837 -2.6463
  578MOL0     H79702   7.751   2.563   4.859 -0.9020 -1.6530  2.4186
  578MOL0     H79703   7.584   2.524   5.019 -3.1574 -1.6507  1.2845
  578MOL0     H79704   7.498   2.411   4.927 -1.0046  0.1917  3.5918
  578MOL0     H79705   7.779   2.383   5.030  0.3381  0.1642  0.5619
  578MOL0     H79706   7.706   2.273   4.899 -2.3077 -1.7145  0.9394
  578MOL0     H79707   7.529   2.211   5.081  1.0091 -0.4714 -1.1497
  578MOL0     H79708   7.695   2.169   5.133  0.5381  0.5331  0.1220
  578MOL0     H79709   7.614   2.445   5.205  2.0618  0.2437  0.5757
  578MOL0     H79710   7.713   2.333   5.297 -0.9597  0.2500  0.2436
  578MOL0     H79711   7.542   2.361   5.418 -0.6627  1.5975 -1.3592
  578MOL0     H79712   7.419   2.342   5.307  1.1318  1.6845  0.7384
  578MOL0     H79713   7.399   2.064   5.207  0.9400  1.3405 -0.1207
  578MOL0     H79714   7.493   1.748   5.327  0.6006 -0.8473  1.7358
  578MOL0     H79715   7.352   1.825   5.248  1.9189  3.4958 -0.8100
  578MOL0     H79716   7.362   1.789   5.554  2.5326  1.5828 -2.3256
  578MOL0     H79717   7.218   1.818   5.462  0.8139  2.0214  1.0439
  578MOL0     H79718   7.267   1.562   5.373  0.1849 -1.2132  1.4404
  578MOL0     H79719   7.399   1.551   5.488  1.8449  1.7724  1.1116
  578MOL0     H79720   7.245   1.478   5.648 -4.6697  0.2271  2.8514
  578MOL0     H79721   7.180   1.635   5.657 -1.3501  0.3253 -0.4058
  578MOL0     H79722   6.904   1.367   5.432 -0.0341  1.2809 -0.1863
  578MOL0     H79723   6.638   1.400   5.363  0.2354 -1.6319  0.2858
  578MOL0     H79724   6.537   1.364   5.497 -0.3741  0.4799 -1.3570
  578MOL0     H79725   6.678   1.254   5.433  0.2817  0.2069 -1.6280
  578MOL0     H79726   6.303   1.318   5.740 -0.4590 -1.6379  0.2135
  578MOL0     H79727   6.105   1.279   5.890 -1.1359 -0.0070 -0.2494
  578MOL0     H79728   6.216   1.274   6.315 -0.1344  0.2219  0.3199
  578MOL0     H79729   6.113   1.410   6.321  2.7773  1.1838 -2.9992
  578MOL0     H79730   5.922   1.258   6.307  0.5435  2.2444  0.7797
  578MOL0     H79731   6.024   1.117   6.336 -1.3529  0.2797 -3.7058
  578MOL0     H79732   6.021   1.358   6.532  0.5802 -0.4929  2.3641
  578MOL0     H79733   6.090   1.196   6.546  0.2204  0.0810 -0.3120
  578MOL0     H79734   5.866   1.087   6.544  0.3205 -0.1489  3.8417
  578MOL0     H79735   5.786   1.246   6.502 -0.5511 -0.0765  1.5639
  578MOL0     H79736   5.961   1.214   6.739 -0.1325  0.6243 -0.0860
  578MOL0     H79737   5.839   1.341   6.728 -1.0945 -0.2483 -0.0357
  578MOL0     H79738   5.793   1.033   6.752  0.1678 -0.5634  2.0077
  578MOL0     H79739   5.670   1.159   6.747  1.0377  0.6740 -3.2912
  578MOL0     H79740   5.723   1.249   6.965  1.6365  0.3636  1.6389
  578MOL0     H79741   5.882   1.187   6.968 -0.2592  0.0557  0.4320
  578MOL0     H79742   5.782   0.952   6.950  0.8754  1.0928  0.5777
  578MOL0     H79743   5.624   1.026   6.973  0.3693 -0.9559  0.8156
  578MOL0     H79744   6.315   1.459   6.215 -0.0643 -0.9065  0.3100
  578MOL0     H79745   6.514   1.493   6.062  0.4594 -1.4116 -0.0146
  578MOL0     H79746   6.781   1.619   5.838 -1.8182 -0.6839 -0.2450
  578MOL0     H79747   7.004   1.603   5.769 -1.1556 -0.5804  2.4984
  578MOL0     H79748   7.806   2.839   4.777 -0.5544  0.5950  0.3938
  578MOL0     H79749   7.952   2.967   4.623 -0.2125 -0.4418 -0.6238
  578MOL0     H79750   7.975   3.584   4.534 -0.2144 -1.3294  1.7359
  578MOL0     H79751   8.041   3.703   4.358  1.4423 -0.0530  2.4978
  578MOL0     H79752   8.201   3.757   4.020  0.7707 -0.9422  0.4916
  578MOL0     H79753   8.087   3.776   4.152 -0.1265  0.7728  0.6282
  578MOL0     H79754   8.392   3.794   4.175  0.3674 -0.7087  2.4002
  578MOL0     H79755   8.287   3.813   4.304  2.8920 -0.5455 -0.2253
  578MOL0     H79756   8.358   4.017   4.220  1.0908 -0.9412 -1.6537
  578MOL0     H79757   8.292   3.997   4.057 -5.6840  2.1974 -1.0982
  578MOL0     H79758   8.090   3.996   4.293 -1.3481  2.2276 -0.4239
  578MOL0     H79759   8.067   4.035   4.130 -2.0408  1.4902  1.9801
  578MOL0     H79760   8.229   4.408   4.252  0.4843  1.4665  0.9156
  578MOL0     H79761   8.203   3.338   4.172  0.4302 -0.4220 -0.1021
  578MOL0     H79762   8.037   3.128   4.355  1.2230 -3.2422  1.5276
  578MOL0     H79763   8.197   3.147   4.275 -2.2553 -0.7616 -1.9601
  578MOL0     H79764   8.174   3.144   4.457 -3.6171 -1.8814  1.2805
  579MOL0     O79765   9.967   6.898   6.298  0.4859 -0.4855 -0.2624
  579MOL0     C79766  10.049   6.989   6.294  0.2458 -0.5013  0.1685
  579MOL0     O79767  10.081   7.074   6.398 -0.7758 -0.1002 -0.4791
  579MOL0     C79768  10.011   7.066   6.516  0.4638 -0.1568  0.5135
  579MOL0     C79769   9.881   7.116   6.514  0.3317  0.4507 -0.2889
  579MOL0     C79770   9.792   7.105   6.618  0.5133  0.4875 -0.0483
  579MOL0     C79771   9.834   7.043   6.738  0.6347 -1.0431 -0.5816
  579MOL0     O79772   9.748   7.014   6.850 -0.1121 -0.7715 -0.0460
  579MOL0     C79773   9.728   7.132   6.927  0.2730  0.0123 -0.6508
  579MOL0     C79774   9.635   7.091   7.044 -0.8626 -0.8930  0.6087
  579MOL0     C79775   9.494   7.055   6.990  0.5554 -0.9572 -0.1452
  579MOL0     C79776   9.402   7.027   7.120 -0.6669  0.8586  0.3518
  579MOL0     C79777   9.252   7.005   7.077  0.3815  0.5401  0.0239
  579MOL0     C79778   9.208   6.870   7.016 -0.3171 -0.2136  1.5253
  579MOL0     C79779   9.058   6.844   7.029 -1.0227  0.6368 -0.1041
  579MOL0     C79780   9.027   6.696   6.998  0.5087  0.2240  0.0100
  579MOL0     N79781   8.886   6.661   7.035 -0.4747 -0.0501  0.3446
  579MOL0     C79782   8.773   6.737   7.011 -0.0327 -0.1143  1.1555
  579MOL0     C79783   8.667   6.655   7.036 -0.6212  0.2853  0.8756
  579MOL0     C79784   8.524   6.677   6.992  0.6178  0.0803  0.1805
  579MOL0     C79785   8.492   6.816   6.952 -0.0644  0.0061  0.0105
  579MOL0     C79786   8.360   6.809   6.873  0.3036  0.4215  0.9879
  579MOL0     C79787   8.321   6.951   6.825 -0.4319  0.2420 -0.6135
  579MOL0     O79788   8.185   6.948   6.766 -0.3757  0.7797 -0.8105
  579MOL0     C79789   8.159   6.846   6.670 -1.2855  0.6652 -0.5255
  579MOL0     C79790   8.251   6.836   6.565  0.4287 -0.7296 -0.3929
  579MOL0     C79791   8.258   6.726   6.478  0.3186 -0.6440 -0.2220
  579MOL0     C79792   8.361   6.738   6.365 -0.1858  0.1989  0.4878
  579MOL0     C79793   8.176   6.612   6.494  0.2884 -0.0576  0.1381
  579MOL0     C79794   8.166   6.505   6.391  0.7453  0.5137  0.2234
  579MOL0     O79795   8.106   6.397   6.440 -0.1473 -0.2571  0.4518
  579MOL0     C79796   8.060   6.311   6.345  0.3233 -1.2128 -0.1839
  579MOL0     C79797   8.124   6.188   6.356  0.4702 -0.5759  1.0401
  579MOL0     C79798   8.083   6.091   6.265  0.5901 -0.0643 -0.0771
  579MOL0     C79799   7.981   6.114   6.175  0.1538  0.6134  0.5757
  579MOL0     O79800   7.948   6.015   6.089  0.5557 -0.9965  0.2146
  579MOL0     C79801   7.882   6.047   5.965  0.1821  0.7339  0.0265
  579MOL0     C79802   7.855   5.910   5.904 -0.2289  0.4954  0.1414
  579MOL0     C79803   7.845   5.922   5.757 -0.1158 -0.1809  0.2884
  579MOL0     C79804   7.821   5.776   5.695 -0.4700 -0.5320  0.0993
  579MOL0     C79805   7.783   5.777   5.544 -0.4678 -0.2019 -0.5167
  579MOL0     C79806   7.795   5.641   5.481  0.0634 -0.1092 -0.4768
  579MOL0     C79807   7.784   5.647   5.330  0.7133  0.2554  0.3673
  579MOL0     C79808   7.910   5.685   5.264 -0.6254 -0.3415 -1.0735
  579MOL0    Cl79809   7.920   5.649   5.091  0.4175 -0.0388  0.3743
  579MOL0     C79810   7.914   6.238   6.170  1.3653  0.7612 -1.0224
  579MOL0     C79811   7.955   6.339   6.255 -0.3203 -0.3913  0.0822
  579MOL0     O79812   8.216   6.506   6.277  0.9132 -0.6138  0.3574
  579MOL0     C79813   8.090   6.613   6.610 -0.1978 -0.2968 -0.2338
  579MOL0     C79814   8.078   6.732   6.685  0.4342  0.2254 -0.8559
  579MOL0     N79815   8.730   6.544   7.093  0.2204 -0.0178 -0.0113
  579MOL0     N79816   8.857   6.543   7.103  0.1106 -0.7863  0.2166
  579MOL0     C79817   9.967   7.002   6.742  0.3771  1.1898  0.3066
  579MOL0     C79818  10.055   7.012   6.636 -0.4582 -0.4607  0.2030
  579MOL0     C79819  10.108   7.008   6.155 -0.1407  0.0878  0.1706
  579MOL0     C79820  10.238   7.070   6.152 -0.5739  0.2648  0.9445
  579MOL0     C79821  10.299   7.093   6.028 -1.2425 -0.4818 -0.0831
  579MOL0     C79822  10.245   7.068   5.902 -0.7499  0.2092 -1.0386
  579MOL0     O79823  10.323   7.092   5.790  0.8750  0.1871 -0.7092
  579MOL0     C79824  10.425   7.189   5.790 -0.1502  0.7409  0.3335
  579MOL0     C79825  10.436   7.230   5.643  0.1504 -0.3821 -0.5070
  579MOL0     C79826  10.305   7.304   5.598  0.2440 -0.7585 -0.4431
  579MOL0     C79827  10.236   7.260   5.469 -0.8876 -0.6412 -0.3774
  579MOL0     C79828  10.200   7.121   5.471  0.3453 -0.6571  0.4213
  579MOL0     C79829  10.149   7.013   5.443  1.1911  1.4161  0.8604
  579MOL0     C79830  10.119   7.009   5.908 -0.4507  0.2567  0.1414
  579MOL0     C79831  10.047   6.977   6.027 -0.1145 -0.8324  0.8953
  579MOL0     C79832   9.922   6.905   6.012 -0.3662  0.0227  0.0101
  579MOL0     H79833   9.835   7.158   6.425  0.4265  1.1840  0.0002
  579MOL0     H79834   9.689   7.137   6.604 -0.0038  1.0066  3.7976
  579MOL0     H79835   9.669   7.207   6.873  0.7669  0.3087 -0.7883
  579MOL0     H79836   9.818   7.165   6.980 -0.5940  1.0771  0.2176
  579MOL0     H79837   9.679   7.012   7.105 -0.7075 -0.6523  0.8139
  579MOL0     H79838   9.634   7.180   7.108 -1.2251 -1.0166  0.7744
  579MOL0     H79839   9.457   7.146   6.942  1.3330  0.4442  1.7874
  579MOL0     H79840   9.497   6.969   6.922  3.0648 -0.9130 -0.1747
  579MOL0     H79841   9.436   6.929   7.156  1.1773  0.8841 -1.1808
  579MOL0     H79842   9.399   7.106   7.195 -3.3119  0.3249  0.9187
  579MOL0     H79843   9.233   7.083   7.003 -0.5563  0.4637  0.1780
  579MOL0     H79844   9.187   7.020   7.164  0.7247  1.7545  0.0936
  579MOL0     H79845   9.233   6.882   6.910 -0.2423  2.4090  1.7875
  579MOL0     H79846   9.271   6.785   7.047  1.4629  1.4207  2.5796
  579MOL0     H79847   9.008   6.906   6.954 -0.1276 -0.1577 -1.3902
  579MOL0     H79848   9.025   6.883   7.126 -0.9847  2.1558 -0.6752
  579MOL0     H79849   9.038   6.677   6.891 -2.0103  0.6899 -0.3808
  579MOL0     H79850   9.095   6.625   7.046 -2.1618 -2.8796 -0.4681
  579MOL0     H79851   8.769   6.835   6.964 -0.9835  0.6867  2.8402
  579MOL0     H79852   8.462   6.658   7.079  1.5572  0.3606  0.9266
  579MOL0     H79853   8.501   6.603   6.915  0.6147  1.3069 -1.0614
  579MOL0     H79854   8.477   6.874   7.044 -3.7227 -0.7022  0.0159
  579MOL0     H79855   8.568   6.861   6.887  1.9458 -0.0494  2.1618
  579MOL0     H79856   8.376   6.744   6.786  0.6470  2.2503 -0.3740
  579MOL0     H79857   8.280   6.764   6.932 -2.3063 -2.2876 -3.9658
  579MOL0     H79858   8.332   7.022   6.907  1.3791 -0.5268 -0.1316
  579MOL0     H79859   8.394   6.986   6.751 -2.6516  0.8101 -2.6632
  579MOL0     H79860   8.317   6.919   6.541  1.0264 -0.1655  2.8569
  579MOL0     H79861   8.418   6.644   6.358  0.5714  0.6171  0.9457
  579MOL0     H79862   8.435   6.816   6.382  1.5308 -1.3728  0.5542
  579MOL0     H79863   8.299   6.753   6.277  0.9058 -0.0583 -0.3426
  579MOL0     H79864   8.205   6.164   6.424  0.5530 -0.5656  0.9456
  579MOL0     H79865   8.140   6.000   6.248  0.4530 -0.5372  1.8396
  579MOL0     H79866   7.786   6.097   5.980 -0.0803  0.3889 -0.4734
  579MOL0     H79867   7.952   6.103   5.903  0.4214 -0.9772 -1.3452
  579MOL0     H79868   7.948   5.855   5.920 -0.9398 -0.5111  0.9612
  579MOL0     H79869   7.765   5.867   5.950  1.6923 -0.6982  3.1603
  579MOL0     H79870   7.938   5.970   5.726 -0.7877  0.3275 -1.0591
  579MOL0     H79871   7.757   5.981   5.733 -0.4427  0.3503  2.5824
  579MOL0     H79872   7.741   5.724   5.749 -1.4787  1.6929  0.8546
  579MOL0     H79873   7.913   5.719   5.707 -1.5341 -2.6647 -1.1722
  579MOL0     H79874   7.675   5.793   5.543 -0.7270 -0.8210  3.2730
  579MOL0     H79875   7.839   5.850   5.485  1.5943 -1.6250 -0.4458
  579MOL0     H79876   7.702   5.587   5.504 -2.0455  3.5126  0.3838
  579MOL0     H79877   7.883   5.587   5.517 -0.5893 -1.4472 -0.8112
  579MOL0     H79878   7.693   5.695   5.293 -0.2537 -2.2311 -0.7048
  579MOL0     H79879   7.776   5.543   5.296  0.8917  0.9396 -1.9553
  579MOL0     H79880   7.997   5.627   5.297  0.7304  2.1463  0.0049
  579MOL0     H79881   7.930   5.785   5.302 -0.0361 -1.4568  1.8672
  579MOL0     H79882   7.831   6.271   6.108 -0.8009  0.1692  1.3485
  579MOL0     H79883   7.908   6.436   6.252 -1.4557 -0.7718  3.0418
  579MOL0     H79884   8.020   6.534   6.633 -0.5859  0.9530  3.5144
  579MOL0     H79885   7.988   6.739   6.747  0.7070  2.8545 -0.6353
  579MOL0     H79886  10.005   6.959   6.834  0.6567  1.7271  0.4468
  579MOL0     H79887  10.159   6.981   6.630 -1.1105 -2.7480 -0.1474
  579MOL0     H79888  10.281   7.109   6.244 -0.5960  0.0685  1.0359
  579MOL0     H79889  10.394   7.145   6.030 -2.4032  1.8493  2.7027
  579MOL0     H79890  10.423   7.273   5.860  2.1552  0.0399  1.3259
  579MOL0     H79891  10.515   7.131   5.814 -0.7940  0.9309  3.7929
  579MOL0     H79892  10.462   7.146   5.579  0.1619  0.0942 -1.1285
  579MOL0     H79893  10.527   7.290   5.629 -2.0844  2.6551 -3.8120
  579MOL0     H79894  10.236   7.306   5.683  2.5958 -0.1990  1.5596
  579MOL0     H79895  10.334   7.406   5.572 -0.4566 -0.2242  0.8059
  579MOL0     H79896  10.294   7.281   5.378  4.0393  0.2830  2.5929
  579MOL0     H79897  10.140   7.313   5.470 -0.7026 -0.2583  1.9445
  579MOL0     H79898  10.102   6.917   5.434  1.4229  1.3583  0.1511
  579MOL0     H79899  10.088   6.972   5.811  2.1013 -0.0681 -0.6218
  579MOL0     H79900   9.882   6.892   5.911 -0.8510 -0.5377  0.2730
  579MOL0     H79901   9.943   6.807   6.056  3.2681  1.9884  3.3312
  579MOL0     H79902   9.851   6.964   6.070 -1.0377 -1.3001  0.5550
  580MOL0     O79903  10.160   5.042   9.024 -0.1134  0.1228  0.3035
  580MOL0     C79904  10.149   4.992   8.913 -0.1855 -0.4971  0.5664
  580MOL0     O79905  10.080   5.044   8.813 -0.2597 -0.6587  0.3389
  580MOL0     C79906   9.987   5.127   8.850 -0.4554 -0.2540 -0.1685
  580MOL0     C79907   9.851   5.095   8.848 -0.1094 -0.5819  0.7113
  580MOL0     C79908   9.757   5.192   8.868  0.1795 -0.4193  1.0154
  580MOL0     C79909   9.797   5.325   8.887 -0.2747 -0.2822  0.4013
  580MOL0     O79910   9.716   5.432   8.898  0.5114  0.5288 -0.4469
  580MOL0     C79911   9.575   5.404   8.880  0.6134  0.4489  0.6207
  580MOL0     C79912   9.495   5.532   8.904  0.1577  0.1188  0.1291
  580MOL0     C79913   9.338   5.510   8.891 -0.1241  0.6608 -0.7740
  580MOL0     C79914   9.288   5.482   8.751 -0.8619  0.4840 -0.4133
  580MOL0     C79915   9.138   5.449   8.749  1.7979 -0.4225  0.6989
  580MOL0     C79916   9.097   5.345   8.636 -0.5231 -0.8141 -0.0877
  580MOL0     C79917   8.959   5.307   8.662 -0.1097  0.2713  0.1033
  580MOL0     C79918   8.914   5.189   8.562 -0.4365 -0.0319 -0.7595
  580MOL0     N79919   8.858   5.243   8.444  0.1642  0.3183  0.4779
  580MOL0     C79920   8.914   5.332   8.363 -0.3571  0.0410 -0.7363
  580MOL0     C79921   8.830   5.341   8.261  0.4137 -0.1326  0.2533
  580MOL0     C79922   8.854   5.433   8.146  0.4971 -0.7302  0.5051
  580MOL0     C79923   8.971   5.392   8.057  0.1836 -0.3085 -0.2313
  580MOL0     C79924   8.928   5.294   7.939  0.3979 -0.4817 -0.1765
  580MOL0     C79925   9.036   5.243   7.846 -1.3397  0.0271 -0.3646
  580MOL0     O79926   9.166   5.234   7.919  0.1655 -0.0079  0.2893
  580MOL0     C79927   9.265   5.167   7.853 -1.2074 -0.2843  0.8763
  580MOL0     C79928   9.391   5.166   7.907  0.9184 -0.6001 -0.8622
  580MOL0     C79929   9.497   5.085   7.856  0.7408 -0.3047  0.2311
  580MOL0     C79930   9.623   5.065   7.933  0.1284  1.0487  0.0217
  580MOL0     C79931   9.492   5.034   7.723 -0.1056 -0.4566 -0.3265
  580MOL0     C79932   9.614   4.989   7.655  0.7689  0.1719 -0.4559
  580MOL0     O79933   9.598   4.863   7.588 -0.1263 -0.1448  0.1749
  580MOL0     C79934   9.709   4.818   7.523 -0.5948 -0.9328 -0.2787
  580MOL0     C79935   9.755   4.893   7.408  0.8138  0.6171 -0.3045
  580MOL0     C79936   9.865   4.850   7.338  0.3786 -1.1522 -0.2383
  580MOL0     C79937   9.939   4.732   7.362  0.0112 -0.3174  0.2852
  580MOL0     O79938  10.052   4.712   7.286  0.6879 -0.1586  0.3762
  580MOL0     C79939  10.167   4.667   7.358 -0.0134 -0.0969  0.2692
  580MOL0     C79940  10.279   4.656   7.257 -0.4727 -0.2247  0.2741
  580MOL0     C79941  10.254   4.565   7.134  0.3480 -0.9687 -0.0373
  580MOL0     C79942  10.279   4.419   7.167  0.9639  0.0260 -0.7449
  580MOL0     C79943  10.240   4.325   7.051  0.7554 -0.4312  0.1812
  580MOL0     C79944  10.334   4.311   6.933  0.6728  0.0754  0.8233
  580MOL0     C79945  10.473   4.259   6.972  0.2205  0.6631  0.0999
  580MOL0     C79946  10.574   4.265   6.861  0.3198 -0.5402  0.1902
  580MOL0    Cl79947  10.607   4.416   6.798  0.1113  0.0121  0.4311
  580MOL0     C79948   9.889   4.659   7.480  0.6701  0.3238  0.8456
  580MOL0     C79949   9.778   4.700   7.562 -0.7692 -0.2049 -0.2217
  580MOL0     O79950   9.703   5.070   7.634 -0.4048  0.3128  0.4877
  580MOL0     C79951   9.368   5.048   7.663 -0.2718 -0.4507  0.4821
  580MOL0     C79952   9.257   5.100   7.731 -0.2506 -0.1418  1.1114
  580MOL0     N79953   8.717   5.258   8.273 -0.3828 -0.2751 -0.0495
  580MOL0     N79954   8.739   5.200   8.385 -0.9181  0.8861 -1.0922
  580MOL0     C79955   9.935   5.357   8.890  0.5016  1.0540 -0.7769
  580MOL0     C79956  10.032   5.261   8.863  0.0062  0.8161 -0.6790
  580MOL0     C79957  10.238   4.879   8.874 -0.7012  1.1663 -1.3514
  580MOL0     C79958  10.378   4.877   8.908  0.6200  0.3107 -0.1857
  580MOL0     C79959  10.472   4.775   8.875  0.4435 -0.0750  0.3394
  580MOL0     C79960  10.432   4.678   8.783 -0.4967 -0.4039  0.4887
  580MOL0     O79961  10.524   4.588   8.736 -0.8270  0.3203  0.1542
  580MOL0     C79962  10.526   4.453   8.792  0.0717 -0.0699  0.4843
  580MOL0     C79963  10.636   4.424   8.892  0.4679  0.3313  0.5214
  580MOL0     C79964  10.586   4.409   9.034  0.3626  0.1419 -0.4582
  580MOL0     C79965  10.508   4.278   9.059  0.4654 -0.6348  1.2662
  580MOL0     C79966  10.574   4.153   9.049  0.2013 -0.3734  1.3459
  580MOL0     C79967  10.631   4.046   9.035 -0.0821 -1.1549 -0.3654
  580MOL0     C79968  10.291   4.675   8.754 -1.0561  1.0929  0.1886
  580MOL0     C79969  10.198   4.779   8.783 -0.9922 -0.3948 -0.9383
  580MOL0     C79970  10.066   4.747   8.745  0.5878  0.3214  0.5082
  580MOL0     H79971   9.833   4.991   8.822  2.8519 -0.7284 -1.4005
  580MOL0     H79972   9.652   5.165   8.868 -0.2990  1.2251 -0.7975
  580MOL0     H79973   9.542   5.333   8.957  2.2005 -0.4476  0.5178
  580MOL0     H79974   9.551   5.362   8.782  1.8723  2.4104 -0.6049
  580MOL0     H79975   9.513   5.572   9.004  2.8573  3.3394 -1.4554
  580MOL0     H79976   9.542   5.615   8.852  1.9810 -0.5913  0.5685
  580MOL0     H79977   9.315   5.425   8.956  2.2943  0.4529 -0.0820
  580MOL0     H79978   9.277   5.591   8.933 -0.5397  0.1790 -0.4363
  580MOL0     H79979   9.301   5.571   8.688 -2.8909  0.0118 -1.5716
  580MOL0     H79980   9.342   5.399   8.705 -2.1756 -0.9470  0.5568
  580MOL0     H79981   9.070   5.535   8.746  0.4701 -1.4645 -0.6071
  580MOL0     H79982   9.113   5.406   8.847  3.2437  0.9833  1.7425
  580MOL0     H79983   9.092   5.406   8.546 -1.3213 -0.8137 -0.0439
  580MOL0     H79984   9.170   5.267   8.615  0.8253  0.5793 -0.8133
  580MOL0     H79985   8.887   5.388   8.651  1.6437  2.2471  2.1906
  580MOL0     H79986   8.949   5.262   8.761  4.3046 -0.4335  0.4436
  580MOL0     H79987   9.003   5.129   8.544  0.3220 -0.3794  3.1937
  580MOL0     H79988   8.840   5.127   8.613 -1.1941  0.2302 -1.5189
  580MOL0     H79989   9.010   5.378   8.382  0.3812 -1.0292 -1.7160
  580MOL0     H79990   8.882   5.533   8.179 -1.2694  0.4200 -1.2480
  580MOL0     H79991   8.756   5.446   8.099 -1.4660 -2.6213  3.6655
  580MOL0     H79992   9.012   5.483   8.013 -0.8584  0.7060  0.8107
  580MOL0     H79993   9.044   5.351   8.127 -1.4395 -1.4038  0.9095
  580MOL0     H79994   8.880   5.206   7.982 -3.2484  1.2255 -0.4022
  580MOL0     H79995   8.850   5.338   7.876 -0.5604 -1.3002  0.4090
  580MOL0     H79996   9.001   5.151   7.799 -1.5836 -0.7788  1.3089
  580MOL0     H79997   9.061   5.310   7.763  1.4590 -0.3351  0.0816
  580MOL0     H79998   9.408   5.211   8.005  1.0761  0.2696 -1.2809
  580MOL0     H79999   9.665   4.965   7.926  1.9035  1.8080 -1.0237
  580MOL0     H80000   9.611   5.080   8.041  2.7567 -2.9926  1.0617
  580MOL0     H80001   9.696   5.142   7.904  1.3469  0.1688  0.6574
  580MOL0     H80002   9.698   4.983   7.386 -2.2571 -0.6796  1.6037
  580MOL0     H80003   9.888   4.921   7.258  0.2335  0.0632  0.7648
  580MOL0     H80004  10.195   4.743   7.432  2.4160  0.2061 -0.8522
  580MOL0     H80005  10.160   4.579   7.423 -0.4734 -0.0692  0.2595
  580MOL0     H80006  10.319   4.751   7.219 -0.9109  0.2158  0.9061
  580MOL0     H80007  10.359   4.609   7.314  2.5127  2.6651 -1.1288
  580MOL0     H80008  10.302   4.604   7.044 -1.0682  2.3371  0.5119
  580MOL0     H80009  10.148   4.567   7.108  0.4942 -0.6843 -0.6277
  580MOL0     H80010  10.214   4.393   7.251  0.6307  3.6852  0.2807
  580MOL0     H80011  10.378   4.396   7.205  0.2260 -1.6893  0.2697
  580MOL0     H80012  10.222   4.219   7.071 -0.3312 -0.7625 -2.1375
  580MOL0     H80013  10.147   4.365   7.009  2.0326  1.1410 -1.3007
  580MOL0     H80014  10.354   4.412   6.895  2.1306 -1.2909 -2.4826
  580MOL0     H80015  10.287   4.249   6.856  0.6190 -0.0159  0.9317
  580MOL0     H80016  10.454   4.151   6.966 -2.5822  1.1493 -1.4288
  580MOL0     H80017  10.509   4.291   7.070  2.0886 -4.0885  1.2726
  580MOL0     H80018  10.534   4.200   6.783 -0.8009  0.7147 -0.3274
  580MOL0     H80019  10.672   4.231   6.895  2.4225  3.1168 -1.5742
  580MOL0     H80020   9.938   4.569   7.516 -2.5640 -3.5279 -3.2110
  580MOL0     H80021   9.752   4.638   7.647 -0.3405 -3.4596 -2.2902
  580MOL0     H80022   9.367   5.010   7.562 -0.0727 -2.8830  1.3451
  580MOL0     H80023   9.165   5.096   7.674 -0.9827 -2.4221  2.3105
  580MOL0     H80024   9.976   5.453   8.920  2.5547  0.2602 -0.8669
  580MOL0     H80025  10.137   5.280   8.882 -1.0612  3.7775  3.8981
  580MOL0     H80026  10.409   4.945   8.986 -1.6355 -0.0514  1.0967
  580MOL0     H80027  10.575   4.773   8.908  1.4356 -3.3702 -2.3982
  580MOL0     H80028  10.431   4.434   8.842  0.3789  1.8198  1.8837
  580MOL0     H80029  10.540   4.375   8.716 -2.9911  0.2172 -0.4855
  580MOL0     H80030  10.712   4.503   8.895 -0.0038  0.8608 -0.7789
  580MOL0     H80031  10.693   4.338   8.857  1.2279  0.7994  0.5928
  580MOL0     H80032  10.671   4.428   9.099  0.9110  4.4068 -2.0915
  580MOL0     H80033  10.506   4.480   9.057 -1.4268 -2.1899  1.0384
  580MOL0     H80034  10.420   4.277   8.994  0.8079 -2.6868  0.7669
  580MOL0     H80035  10.473   4.282   9.162  0.1997  0.7501  1.1335
  580MOL0     H80036  10.677   3.950   9.022  2.2845 -0.2174  0.7256
  580MOL0     H80037  10.245   4.584   8.719 -0.4185  0.4764  0.9228
  580MOL0     H80038  10.005   4.783   8.829  1.0842  0.4639  0.8176
  580MOL0     H80039  10.044   4.796   8.650  0.3683 -0.0584  0.3601
  580MOL0     H80040  10.033   4.644   8.729  0.0483  0.5644  0.0274
  581MOL0     O80041   8.649   0.643   2.192 -0.4162  0.4206  0.2408
  581MOL0     C80042   8.766   0.607   2.183  0.4411  1.0094 -0.4113
  581MOL0     O80043   8.851   0.608   2.287 -0.3804  0.1650  1.0743
  581MOL0     C80044   8.861   0.704   2.376  0.4426  0.0282  0.2535
  581MOL0     C80045   8.806   0.825   2.352  0.0849 -0.0602  0.1227
  581MOL0     C80046   8.795   0.922   2.445 -0.6462  0.4919 -0.0903
  581MOL0     C80047   8.878   0.905   2.558 -0.3458 -0.6009  0.0437
  581MOL0     O80048   8.892   1.006   2.654 -0.7538 -0.4477 -0.5469
  581MOL0     C80049   8.922   1.142   2.612  0.2729 -0.8211  0.6764
  581MOL0     C80050   9.039   1.191   2.699 -0.5134 -0.1391 -0.1280
  581MOL0     C80051   9.094   1.337   2.662 -0.0864  0.3580  0.9263
  581MOL0     C80052   9.229   1.347   2.731 -0.8594 -1.1992 -0.1492
  581MOL0     C80053   9.290   1.490   2.719  0.2949  0.6322 -0.2614
  581MOL0     C80054   9.427   1.491   2.785  0.3674  1.1168 -0.5919
  581MOL0     C80055   9.467   1.633   2.822 -0.0845 -1.0904 -0.2920
  581MOL0     C80056   9.611   1.626   2.863 -0.8927  0.0285 -0.0703
  581MOL0     N80057   9.707   1.585   2.756  0.3041 -0.2836  0.3590
  581MOL0     C80058   9.787   1.479   2.746 -0.8048  0.7892 -0.5307
  581MOL0     C80059   9.814   1.470   2.613 -0.7096 -0.6287 -0.2302
  581MOL0     C80060   9.887   1.356   2.541 -0.8459 -0.6053 -0.1315
  581MOL0     C80061   9.930   1.237   2.627  0.6124  0.6081 -0.0343
  581MOL0     C80062  10.026   1.132   2.556 -0.1758  0.6383 -0.1112
  581MOL0     C80063   9.958   1.060   2.439 -0.1840 -0.2378  0.5801
  581MOL0     O80064  10.038   0.940   2.397  0.1595 -0.3142  0.5303
  581MOL0     C80065   9.970   0.838   2.326  0.3529  0.8900  0.8308
  581MOL0     C80066   9.849   0.859   2.253  0.3386  1.3780  0.1228
  581MOL0     C80067   9.791   0.758   2.165  0.6242  0.9226 -0.2379
  581MOL0     C80068   9.665   0.800   2.084 -1.3326 -0.4489  0.0769
  581MOL0     C80069   9.854   0.631   2.156  0.5558 -0.0800  0.3393
  581MOL0     C80070   9.810   0.523   2.059  0.1226  0.2287 -0.4966
  581MOL0     O80071   9.852   0.400   2.080  0.1483 -0.1690 -0.0259
  581MOL0     C80072   9.842   0.314   1.971 -0.4818  0.3068 -0.9323
  581MOL0     C80073   9.718   0.249   1.944 -0.1604 -0.4265  0.5022
  581MOL0     C80074   9.711   0.165   1.828 -0.5952 -0.1705  0.4456
  581MOL0     C80075   9.829   0.133   1.758 -0.2613 -0.1395  0.6048
  581MOL0     O80076   9.836   0.069   1.638  0.0001 -0.5526  0.0520
  581MOL0     C80077   9.721   0.033   1.563 -0.0977 -0.0746  0.2340
  581MOL0     C80078   9.776  -0.009   1.426  0.0144  0.3690 -0.0910
  581MOL0     C80079   9.668  -0.034   1.313 -0.0776 -1.1899 -0.1506
  581MOL0     C80080   9.750  -0.035   1.177  1.5756 -0.2585  0.4639
  581MOL0     C80081   9.692  -0.140   1.076 -0.0730 -0.0424 -0.0973
  581MOL0     C80082   9.560  -0.098   1.020 -0.8481  0.1112  0.0671
  581MOL0     C80083   9.514  -0.175   0.899  0.2608  0.8507 -0.0528
  581MOL0     C80084   9.458  -0.312   0.934 -0.0917 -0.8618  0.2807
  581MOL0    Cl80085   9.458  -0.421   0.803  0.1293  0.4840 -0.3245
  581MOL0     C80086   9.951   0.196   1.795  0.1670 -0.0080 -0.3371
  581MOL0     C80087   9.964   0.283   1.904 -0.2221  0.6472  0.0151
  581MOL0     O80088   9.745   0.557   1.953  0.5009 -0.0195  0.4056
  581MOL0     C80089   9.966   0.615   2.231  0.5488 -0.1913  0.0024
  581MOL0     C80090  10.027   0.713   2.305 -0.7197 -0.8499 -0.4405
  581MOL0     N80091   9.760   1.587   2.553  0.2235  0.0667  0.8126
  581MOL0     N80092   9.707   1.658   2.638 -0.0661 -0.0047 -0.5083
  581MOL0     C80093   8.943   0.789   2.579 -0.1452 -0.5043  0.1831
  581MOL0     C80094   8.924   0.679   2.502 -0.6747 -0.3137  0.7567
  581MOL0     C80095   8.772   0.520   2.064 -0.6661  0.2617 -0.0619
  581MOL0     C80096   8.862   0.411   2.084  1.1581 -0.9428 -0.0490
  581MOL0     C80097   8.895   0.331   1.976  0.3066 -0.3795  0.0763
  581MOL0     C80098   8.857   0.356   1.849  0.1348 -0.6905 -0.0088
  581MOL0     O80099   8.900   0.294   1.740 -0.2876 -1.0340 -0.3214
  581MOL0     C80100   8.889   0.151   1.734 -0.0393  0.0189  0.0328
  581MOL0     C80101   8.923   0.107   1.598 -0.0045  0.1221  0.1527
  581MOL0     C80102   9.054   0.179   1.559 -0.4041  0.3184  1.0408
  581MOL0     C80103   9.113   0.150   1.419 -0.0876 -0.0498  0.0736
  581MOL0     C80104   9.179   0.014   1.403  0.3054  0.5711  0.8869
  581MOL0     C80105   9.248  -0.082   1.389  0.1837 -0.6740  0.0856
  581MOL0     C80106   8.782   0.474   1.824  0.2426  0.4172  0.0474
  581MOL0     C80107   8.731   0.554   1.931 -0.3755  0.0885  0.0047
  581MOL0     C80108   8.644   0.664   1.886  0.1566 -0.5314  0.0963
  581MOL0     H80109   8.742   0.833   2.264  0.2138 -4.1776 -0.5192
  581MOL0     H80110   8.725   1.005   2.437  1.6722  2.4906 -1.1076
  581MOL0     H80111   8.839   1.212   2.625  2.3535  1.8531  0.5758
  581MOL0     H80112   8.969   1.136   2.513  1.6719 -1.6357  1.3635
  581MOL0     H80113   9.030   1.203   2.807  0.6565 -0.3260  0.0129
  581MOL0     H80114   9.112   1.111   2.681 -1.2734 -0.7951 -0.3528
  581MOL0     H80115   9.111   1.363   2.557 -0.3427  3.2644  1.4930
  581MOL0     H80116   9.016   1.409   2.692 -1.4783 -0.8876  0.4067
  581MOL0     H80117   9.220   1.314   2.835  1.0737 -1.0624  0.0931
  581MOL0     H80118   9.296   1.274   2.685 -0.8002  1.0343 -3.9585
  581MOL0     H80119   9.221   1.567   2.754  0.8108  1.5366 -1.1704
  581MOL0     H80120   9.305   1.518   2.615  1.2565  0.2427 -0.2344
  581MOL0     H80121   9.421   1.425   2.872 -0.3084 -0.7501 -1.9914
  581MOL0     H80122   9.494   1.433   2.721 -1.1922 -0.1917 -1.1150
  581MOL0     H80123   9.409   1.657   2.910 -0.7325 -0.8809 -0.7729
  581MOL0     H80124   9.475   1.710   2.744  3.6020 -4.1015 -3.3764
  581MOL0     H80125   9.631   1.731   2.886 -1.3510  0.1991 -0.4352
  581MOL0     H80126   9.631   1.563   2.950  1.6531 -2.7772 -2.4203
  581MOL0     H80127   9.792   1.390   2.807 -2.1727  2.1811  1.7204
  581MOL0     H80128   9.987   1.393   2.517  0.3800 -0.7139  4.0701
  581MOL0     H80129   9.826   1.324   2.456  0.0541  2.2611 -2.0103
  581MOL0     H80130   9.979   1.265   2.721  0.8161 -3.2441  1.1906
  581MOL0     H80131   9.845   1.171   2.645  0.4311  1.5581  3.2927
  581MOL0     H80132  10.118   1.187   2.531 -2.4784  5.3943  0.7871
  581MOL0     H80133  10.060   1.054   2.625 -0.2180  0.8642  0.1667
  581MOL0     H80134   9.857   1.036   2.475 -1.3116  0.1844 -2.0859
  581MOL0     H80135   9.945   1.126   2.353  2.6508  0.6400  0.7163
  581MOL0     H80136   9.807   0.959   2.252 -0.9543  0.8666 -1.0448
  581MOL0     H80137   9.586   0.725   2.082 -2.0574  0.2770  0.9259
  581MOL0     H80138   9.694   0.830   1.982 -0.5798 -1.6363 -0.0773
  581MOL0     H80139   9.609   0.882   2.128 -2.5718 -1.6923  0.9074
  581MOL0     H80140   9.619   0.274   1.982 -0.4899 -0.1943 -0.4881
  581MOL0     H80141   9.622   0.111   1.798 -0.6986  0.6882 -0.8709
  581MOL0     H80142   9.659  -0.038   1.618  3.8478 -2.4667  2.0623
  581MOL0     H80143   9.659   0.122   1.546 -2.2384 -1.5384 -0.0298
  581MOL0     H80144   9.842   0.076   1.407 -0.1958  0.6737  0.5094
  581MOL0     H80145   9.832  -0.102   1.442  0.4036 -0.1024 -3.3973
  581MOL0     H80146   9.598   0.051   1.313  1.2338 -0.0644 -1.2422
  581MOL0     H80147   9.602  -0.119   1.330 -0.9481 -0.5574 -0.2762
  581MOL0     H80148   9.846  -0.081   1.200  0.7633 -2.4397 -0.2151
  581MOL0     H80149   9.751   0.064   1.129 -4.0605 -1.0606 -2.1977
  581MOL0     H80150   9.757  -0.168   0.992  0.1592  0.7785 -0.1913
  581MOL0     H80151   9.673  -0.229   1.138 -1.6876 -0.6796 -1.4190
  581MOL0     H80152   9.577   0.003   0.982 -1.0027  1.2434  2.7775
  581MOL0     H80153   9.485  -0.094   1.099 -1.4553 -2.3218 -0.3143
  581MOL0     H80154   9.601  -0.173   0.832  0.4855  2.5849  0.2511
  581MOL0     H80155   9.437  -0.113   0.851 -1.4897 -1.7086 -0.7527
  581MOL0     H80156   9.353  -0.298   0.963 -0.2883 -0.9398 -0.3838
  581MOL0     H80157   9.516  -0.358   1.014 -0.0875  1.1721  1.5167
  581MOL0     H80158  10.037   0.163   1.738 -0.8483  0.3739 -2.2025
  581MOL0     H80159  10.064   0.297   1.942 -0.7163 -0.6543  1.9440
  581MOL0     H80160  10.027   0.526   2.222  0.5292 -0.2742  0.6969
  581MOL0     H80161  10.124   0.702   2.353 -0.6828 -4.2300 -1.1002
  581MOL0     H80162   9.004   0.781   2.669 -0.0431 -0.9175  0.0777
  581MOL0     H80163   8.965   0.579   2.517 -2.0970 -1.0860 -0.2568
  581MOL0     H80164   8.899   0.381   2.181  3.0192  1.0458 -0.0713
  581MOL0     H80165   8.962   0.247   1.993 -1.4903 -1.8431  0.2229
  581MOL0     H80166   8.942   0.097   1.813  3.5049 -0.3003 -2.3691
  581MOL0     H80167   8.783   0.125   1.740 -0.2991  1.1066  0.4457
  581MOL0     H80168   8.839   0.138   1.536 -0.8365 -2.8546 -0.3215
  581MOL0     H80169   8.936  -0.001   1.598 -0.5626  0.0335  1.4250
  581MOL0     H80170   9.028   0.285   1.553 -1.7060  0.1310  2.5732
  581MOL0     H80171   9.122   0.146   1.639 -2.8557 -4.0389  1.6490
  581MOL0     H80172   9.182   0.231   1.389 -1.2993 -0.0757 -3.2250
  581MOL0     H80173   9.030   0.155   1.348 -1.7936  2.0830  2.0526
  581MOL0     H80174   9.312  -0.168   1.390  1.2280  0.0222 -1.5595
  581MOL0     H80175   8.733   0.485   1.728 -0.1658 -0.2457  0.1741
  581MOL0     H80176   8.541   0.634   1.908  0.1970 -2.4075 -1.9694
  581MOL0     H80177   8.666   0.756   1.941  4.6623  0.3724 -2.7034
  581MOL0     H80178   8.656   0.684   1.779 -1.6189  1.1108  0.1413
  582MOL0     O80179   9.435   7.323   9.917 -0.9887 -0.3979 -0.4830
  582MOL0     C80180   9.405   7.230   9.850  1.1905  0.3724 -0.4264
  582MOL0     O80181   9.473   7.191   9.736  0.4211  0.1639  0.1755
  582MOL0     C80182   9.603   7.228   9.725  0.4646  0.1008 -0.8395
  582MOL0     C80183   9.632   7.280   9.597 -0.2664  0.7968 -0.5790
  582MOL0     C80184   9.761   7.306   9.560  0.0274 -0.3365 -0.2328
  582MOL0     C80185   9.865   7.279   9.656 -0.5897  1.4134 -0.1348
  582MOL0     O80186   9.989   7.320   9.627 -0.2565 -0.1530  0.2596
  582MOL0     C80187  10.092   7.284   9.717  0.0361 -0.2949 -0.5313
  582MOL0     C80188  10.227   7.356   9.701  0.7044  0.0363  0.1039
  582MOL0     C80189  10.300   7.322   9.576  0.3156 -0.8018  0.5145
  582MOL0     C80190  10.428   7.399   9.562 -0.0741  0.3528 -0.3387
  582MOL0     C80191  10.399   7.558   9.561 -0.3890  0.1416  0.3437
  582MOL0     C80192  10.499   7.636   9.478 -0.7930  0.2871 -0.5574
  582MOL0     C80193  10.646   7.581   9.497 -0.2307 -0.3822  1.0107
  582MOL0     C80194  10.692   7.598   9.633  0.3254  0.8817  0.5410
  582MOL0     N80195  10.828   7.546   9.626 -0.0200 -0.3555 -0.7827
  582MOL0     C80196  10.885   7.474   9.730  0.8516  1.5300  0.8355
  582MOL0     C80197  11.020   7.476   9.710  0.6669 -0.3720 -0.4816
  582MOL0     C80198  11.134   7.404   9.777  0.1076 -0.9226 -1.2994
  582MOL0     C80199  11.191   7.479   9.892  1.1045 -0.2988  0.3070
  582MOL0     C80200  11.277   7.396   9.974 -0.0952 -0.3466  0.4682
  582MOL0     C80201  11.357   7.473  10.081 -0.2774 -0.7025  0.3206
  582MOL0     O80202  11.259   7.522  10.164  0.2454  0.7622 -0.4854
  582MOL0     C80203  11.268   7.527  10.303 -0.3931 -0.0345 -0.1441
  582MOL0     C80204  11.383   7.489  10.383  0.6942  0.4784 -0.6276
  582MOL0     C80205  11.388   7.501  10.525  0.3006  0.0271  0.0194
  582MOL0     C80206  11.522   7.479  10.595  0.2906 -0.6474 -0.2053
  582MOL0     C80207  11.264   7.538  10.590  0.3962  0.8810 -0.0054
  582MOL0     C80208  11.241   7.536  10.737  0.3680  0.1162 -0.2431
  582MOL0     O80209  11.117   7.547  10.789 -0.2096 -0.4156 -0.3060
  582MOL0     C80210  11.095   7.550  10.922  0.4146  0.2704  0.2257
  582MOL0     C80211  11.184   7.589  11.025 -0.5173  0.4897  0.0921
  582MOL0     C80212  11.133   7.589  11.158  0.9542 -0.0996  0.3561
  582MOL0     C80213  10.994   7.579  11.192 -0.9675 -0.1921 -0.0609
  582MOL0     O80214  10.938   7.580  11.322  0.6382  0.9005 -0.2109
  582MOL0     C80215  11.018   7.635  11.433 -0.0975  0.0344  0.8295
  582MOL0     C80216  10.924   7.683  11.531  0.8605 -0.6012 -0.5271
  582MOL0     C80217  10.983   7.761  11.645  0.4627  0.2916 -0.7728
  582MOL0     C80218  10.889   7.805  11.762  0.1518 -0.5209 -0.2569
  582MOL0     C80219  10.827   7.938  11.734 -0.1861 -0.5304  0.2906
  582MOL0     C80220  10.754   8.002  11.854 -0.3263 -0.6345 -0.0813
  582MOL0     C80221  10.863   8.054  11.954 -0.8901  0.2719  0.5557
  582MOL0     C80222  10.839   8.014  12.106  0.0462 -0.4248  0.1722
  582MOL0    Cl80223  10.841   7.842  12.127  0.5225  0.2140 -0.0438
  582MOL0     C80224  10.912   7.553  11.085 -0.2714 -0.6831  0.1335
  582MOL0     C80225  10.956   7.548  10.952 -0.4044 -0.6820  0.4146
  582MOL0     O80226  11.341   7.515  10.802 -0.2603  0.1939 -0.3514
  582MOL0     C80227  11.149   7.567  10.510 -0.8630  0.3602  0.0653
  582MOL0     C80228  11.159   7.571  10.373 -0.0121 -0.3127  0.0444
  582MOL0     N80229  11.048   7.542   9.600  0.0198  0.5390  0.5880
  582MOL0     N80230  10.932   7.587   9.549 -1.0610  0.4495  0.1626
  582MOL0     C80231   9.827   7.230   9.787 -0.7718 -0.1999  0.2110
  582MOL0     C80232   9.701   7.207   9.823 -0.3829  0.1703 -0.1496
  582MOL0     C80233   9.292   7.141   9.906 -0.4825  0.2657 -0.3995
  582MOL0     C80234   9.297   7.014   9.868 -0.3705  0.4410  0.5965
  582MOL0     C80235   9.209   6.918   9.914  0.5413 -0.1349 -0.1023
  582MOL0     C80236   9.111   6.945  10.008  1.1637  0.9799  0.7831
  582MOL0     O80237   9.037   6.833  10.031  0.1020 -0.0140 -0.7873
  582MOL0     C80238   8.959   6.845  10.148  0.5387  0.5481 -0.6576
  582MOL0     C80239   8.849   6.734  10.162 -0.0093  0.3464  1.1790
  582MOL0     C80240   8.923   6.603  10.191  0.4907 -0.0024 -0.5448
  582MOL0     C80241   8.813   6.500  10.204  0.0874  1.6232 -0.3382
  582MOL0     C80242   8.870   6.374  10.242 -0.0657  0.2044  0.1702
  582MOL0     C80243   8.903   6.264  10.269 -0.5442  0.0609 -0.1090
  582MOL0     C80244   9.108   7.070  10.068 -0.7663 -0.1761  0.1748
  582MOL0     C80245   9.191   7.174  10.007 -0.1586  0.6450 -0.2519
  582MOL0     C80246   9.163   7.306  10.069 -0.0085 -0.5806  0.5380
  582MOL0     H80247   9.556   7.296   9.521 -1.5179 -0.5186  0.3327
  582MOL0     H80248   9.801   7.356   9.473  0.8875  0.1767  0.4402
  582MOL0     H80249  10.106   7.176   9.706  1.6582 -0.1014 -0.6084
  582MOL0     H80250  10.057   7.295   9.820 -2.2311 -0.7385 -1.1967
  582MOL0     H80251  10.209   7.464   9.700  1.6503  0.2098  0.7154
  582MOL0     H80252  10.283   7.318   9.787 -2.0773 -1.7555  1.2396
  582MOL0     H80253  10.307   7.215   9.557 -0.8114 -0.3459 -3.1783
  582MOL0     H80254  10.242   7.365   9.495  0.1364  0.5999  1.3514
  582MOL0     H80255  10.493   7.375   9.647 -1.6557  0.4252  0.9334
  582MOL0     H80256  10.483   7.363   9.474  3.6596  2.4003  0.9182
  582MOL0     H80257  10.392   7.607   9.659  0.1167 -1.5508  1.2779
  582MOL0     H80258  10.295   7.566   9.529 -0.7444 -0.6323  1.2377
  582MOL0     H80259  10.473   7.642   9.372 -1.4279  1.6779 -0.3432
  582MOL0     H80260  10.491   7.740   9.512  2.6927  0.4053  0.2815
  582MOL0     H80261  10.713   7.653   9.449  0.5643 -1.7475 -0.0025
  582MOL0     H80262  10.649   7.484   9.447 -1.2415  0.2401 -0.3373
  582MOL0     H80263  10.698   7.703   9.663 -1.4240  2.5555 -4.1118
  582MOL0     H80264  10.625   7.549   9.705  0.6889  1.1834  1.0962
  582MOL0     H80265  10.832   7.437   9.817 -0.7320  0.9013 -0.3392
  582MOL0     H80266  11.214   7.377   9.707 -0.6680  0.5982 -2.8592
  582MOL0     H80267  11.094   7.311   9.818 -2.4692 -0.4665 -2.6157
  582MOL0     H80268  11.247   7.566   9.857  0.7934 -0.6322 -1.0966
  582MOL0     H80269  11.110   7.520   9.953 -1.2533 -2.8393 -0.8803
  582MOL0     H80270  11.225   7.317  10.029 -0.8592  0.4670  0.9437
  582MOL0     H80271  11.362   7.357   9.917  2.5944  2.3432  2.3364
  582MOL0     H80272  11.435   7.410  10.125  1.1568  1.7785  1.5499
  582MOL0     H80273  11.409   7.554  10.030  0.2887 -1.4649 -0.3354
  582MOL0     H80274  11.475   7.459  10.333  0.4838 -1.6043  0.1319
  582MOL0     H80275  11.512   7.392  10.661 -4.0687  0.7096  1.2410
  582MOL0     H80276  11.549   7.568  10.654  0.3771  1.0271 -2.6327
  582MOL0     H80277  11.609   7.463  10.531 -2.0670 -2.7370 -3.1261
  582MOL0     H80278  11.292   7.596  11.022 -0.3340 -1.4230  0.7807
  582MOL0     H80279  11.207   7.614  11.233  1.1767  2.8280 -0.6957
  582MOL0     H80280  11.071   7.550  11.477 -1.4675 -0.6250  1.2819
  582MOL0     H80281  11.083   7.715  11.396  1.1222 -1.0414  0.5660
  582MOL0     H80282  10.848   7.745  11.482  2.9569  1.2127 -1.6860
  582MOL0     H80283  10.866   7.601  11.573 -0.9750  0.4637 -0.8568
  582MOL0     H80284  11.032   7.854  11.613  1.4896  0.8567  2.1244
  582MOL0     H80285  11.056   7.694  11.690 -2.2662 -1.1873  1.8058
  582MOL0     H80286  10.954   7.820  11.849 -0.2058  0.3669 -0.1261
  582MOL0     H80287  10.814   7.730  11.787 -2.3708  2.1004  0.6014
  582MOL0     H80288  10.898   8.008  11.689 -0.9562  0.5587  0.7100
  582MOL0     H80289  10.747   7.926  11.661  2.2720  1.4876 -2.9958
  582MOL0     H80290  10.691   7.927  11.903  0.5979 -0.4646  1.4213
  582MOL0     H80291  10.702   8.093  11.821  0.3871  0.4560  1.6399
  582MOL0     H80292  10.864   8.162  11.938  1.2661  0.0621 -1.3230
  582MOL0     H80293  10.961   8.018  11.921  0.2726  5.3353 -2.5669
  582MOL0     H80294  10.740   8.053  12.133  0.8758  0.4223  2.1413
  582MOL0     H80295  10.922   8.060  12.161  2.6222 -2.3852 -1.8220
  582MOL0     H80296  10.810   7.537  11.120  0.5123  0.2207  3.1869
  582MOL0     H80297  10.884   7.547  10.870  1.0977 -2.7774 -0.9642
  582MOL0     H80298  11.054   7.594  10.555 -0.4795  0.6734  0.7117
  582MOL0     H80299  11.083   7.611  10.308 -0.7387  0.9937  1.6093
  582MOL0     H80300   9.892   7.200   9.868 -0.6995  0.6857  0.4874
  582MOL0     H80301   9.663   7.180   9.921  0.0985  0.0061 -0.0069
  582MOL0     H80302   9.374   6.982   9.799 -0.1643 -0.7502  1.3613
  582MOL0     H80303   9.204   6.820   9.867 -1.0575  0.2996 -0.9384
  582MOL0     H80304   9.028   6.841  10.233  0.5059  1.7038 -0.5701
  582MOL0     H80305   8.906   6.940  10.151  0.2018  0.3461  1.1735
  582MOL0     H80306   8.804   6.727  10.062  1.9143 -3.4396  0.4126
  582MOL0     H80307   8.771   6.756  10.235  1.2198  1.3457  2.2217
  582MOL0     H80308   8.986   6.585  10.103  0.1458 -0.4663 -0.7017
  582MOL0     H80309   8.983   6.612  10.281 -0.3817 -0.1714  0.0678
  582MOL0     H80310   8.752   6.483  10.114  0.0368  1.0082 -0.1918
  582MOL0     H80311   8.745   6.531  10.284  1.5766 -0.0451  1.6902
  582MOL0     H80312   8.925   6.162  10.294  1.3308  0.7581  1.2930
  582MOL0     H80313   9.046   7.101  10.152  0.9491 -1.8205  2.1828
  582MOL0     H80314   9.056   7.323  10.084  0.3832  1.4393  1.4117
  582MOL0     H80315   9.208   7.313  10.169 -0.6616  1.7119  0.7309
  582MOL0     H80316   9.194   7.386  10.001 -2.3394 -0.7373 -0.7814
  583MOL0     O80317   3.707   6.366   7.759 -0.0714  0.6107  0.8038
  583MOL0     C80318   3.785   6.438   7.692  0.4659  1.2780 -1.2809
  583MOL0     O80319   3.847   6.548   7.737  0.8973  0.3046 -0.4014
  583MOL0     C80320   3.801   6.622   7.849 -0.5525 -0.4425 -0.4184
  583MOL0     C80321   3.834   6.755   7.838  0.4207 -0.2832 -0.7325
  583MOL0     C80322   3.790   6.842   7.933 -0.8674  0.4879 -0.5204
  583MOL0     C80323   3.735   6.796   8.053  0.7040 -0.6148 -0.2970
  583MOL0     O80324   3.697   6.884   8.146  0.2444  0.7211  0.5337
  583MOL0     C80325   3.809   6.951   8.208  0.2845  0.8394 -0.1611
  583MOL0     C80326   3.774   7.081   8.285 -0.3853  0.3460 -0.1627
  583MOL0     C80327   3.763   7.191   8.183 -0.3253 -0.4175  0.5022
  583MOL0     C80328   3.706   7.314   8.258 -0.1815 -0.4288 -0.2571
  583MOL0     C80329   3.825   7.410   8.276 -0.1442 -0.7872  0.8281
  583MOL0     C80330   3.773   7.552   8.330  0.1836 -0.1505  0.2586
  583MOL0     C80331   3.875   7.665   8.322 -0.1412  0.2951  0.2967
  583MOL0     C80332   3.829   7.784   8.409 -0.8405  0.0614 -0.3315
  583MOL0     N80333   3.692   7.841   8.385 -0.3212 -1.0896 -0.2438
  583MOL0     C80334   3.625   7.855   8.272  0.5868  0.1095  0.2866
  583MOL0     C80335   3.505   7.902   8.310  0.3354  0.2256  0.3668
  583MOL0     C80336   3.395   7.912   8.214 -0.0188  0.1008  0.5133
  583MOL0     C80337   3.281   7.830   8.258 -0.2055 -0.0728 -0.4295
  583MOL0     C80338   3.182   7.812   8.151  1.5386  0.4792  0.6535
  583MOL0     C80339   3.098   7.934   8.124 -0.2338 -0.3909  0.6407
  583MOL0     O80340   3.056   8.013   8.230 -0.0272  0.3305 -0.5598
  583MOL0     C80341   2.987   8.128   8.213 -0.8534  0.2398 -0.1705
  583MOL0     C80342   2.912   8.172   8.096  0.1740  0.2873 -0.6792
  583MOL0     C80343   2.828   8.282   8.090  0.7538  0.1684 -1.6119
  583MOL0     C80344   2.747   8.312   7.964  0.5708 -0.7704  0.8369
  583MOL0     C80345   2.816   8.370   8.208 -0.4582  0.7290 -0.4984
  583MOL0     C80346   2.720   8.487   8.227  0.2435  0.2062 -0.2798
  583MOL0     O80347   2.734   8.541   8.347  0.5521 -0.2452  0.2356
  583MOL0     C80348   2.635   8.613   8.414 -0.0557  1.7059  0.4137
  583MOL0     C80349   2.493   8.587   8.412  1.0705 -0.4745 -0.4342
  583MOL0     C80350   2.404   8.673   8.490 -0.1592  0.1601 -0.1705
  583MOL0     C80351   2.458   8.769   8.578 -0.5734  0.8742 -0.2255
  583MOL0     O80352   2.369   8.833   8.653 -0.1103  0.2323  0.4078
  583MOL0     C80353   2.417   8.891   8.778 -0.0403  0.5209 -0.2754
  583MOL0     C80354   2.305   8.955   8.861 -0.6897  0.5640  0.1315
  583MOL0     C80355   2.254   8.856   8.969  0.9002 -0.7134  0.4441
  583MOL0     C80356   2.118   8.901   9.021 -0.2375 -0.0539  0.0252
  583MOL0     C80357   2.094   9.052   9.048 -0.1346 -0.0179  0.6177
  583MOL0     C80358   1.952   9.096   9.090 -0.3748  0.1492  1.7497
  583MOL0     C80359   1.877   9.007   9.182 -0.2883  0.8596  0.0119
  583MOL0     C80360   1.760   9.075   9.235  0.7881  0.0657  0.4175
  583MOL0    Cl80361   1.719   8.971   9.370 -0.0923 -0.0878 -0.1368
  583MOL0     C80362   2.596   8.790   8.583  1.1469  0.0076  0.5894
  583MOL0     C80363   2.681   8.712   8.505  0.4797 -0.2551  0.2916
  583MOL0     O80364   2.638   8.519   8.143 -0.7029  0.7593 -0.0441
  583MOL0     C80365   2.898   8.329   8.320 -0.4716  0.2397  0.4102
  583MOL0     C80366   2.986   8.222   8.320  0.1782 -0.1184  0.4164
  583MOL0     N80367   3.509   7.925   8.452 -0.3857 -0.6814  1.0558
  583MOL0     N80368   3.626   7.890   8.495  0.0099  0.2049  0.3345
  583MOL0     C80369   3.703   6.663   8.063  0.1835  0.7355 -0.0547
  583MOL0     C80370   3.741   6.575   7.967 -0.0959 -0.2687  0.8498
  583MOL0     C80371   3.810   6.392   7.560  0.5943  0.0274 -0.1420
  583MOL0     C80372   3.825   6.492   7.459 -0.8601 -0.4933  1.1880
  583MOL0     C80373   3.811   6.468   7.325  0.4005  0.1256 -0.7625
  583MOL0     C80374   3.796   6.338   7.273  0.1875 -1.4221  0.0353
  583MOL0     O80375   3.787   6.299   7.147  0.0780  0.0756  0.6163
  583MOL0     C80376   3.913   6.266   7.082  0.2005 -0.0596 -0.6457
  583MOL0     C80377   3.881   6.135   7.009  0.4024  0.1750 -0.0931
  583MOL0     C80378   3.778   6.147   6.892 -0.2243  0.0463 -0.1763
  583MOL0     C80379   3.758   6.012   6.820  0.2366 -0.2600  0.2042
  583MOL0     C80380   3.657   6.050   6.715 -0.0853  0.4990 -0.6110
  583MOL0     C80381   3.569   6.064   6.636  0.2790 -0.0356  0.3494
  583MOL0     C80382   3.781   6.238   7.371 -0.1230 -0.0793 -0.1621
  583MOL0     C80383   3.772   6.261   7.508  0.2536  0.0658  1.4491
  583MOL0     C80384   3.747   6.146   7.596 -0.2900  0.3031  0.4356
  583MOL0     H80385   3.889   6.800   7.755 -0.4908  0.8846 -0.7379
  583MOL0     H80386   3.811   6.947   7.913  0.4250 -0.2021 -3.2470
  583MOL0     H80387   3.894   6.966   8.140 -0.5782 -2.3888 -2.1541
  583MOL0     H80388   3.839   6.881   8.287 -0.2163 -0.6313 -1.2310
  583MOL0     H80389   3.673   7.064   8.325 -0.7435 -1.8000 -1.8001
  583MOL0     H80390   3.854   7.089   8.360  1.7456  0.5091 -2.3466
  583MOL0     H80391   3.858   7.215   8.136 -0.0852 -1.7725  0.2518
  583MOL0     H80392   3.694   7.148   8.110  1.5601  0.3008 -1.8103
  583MOL0     H80393   3.627   7.371   8.207  0.7554  0.0694 -1.1853
  583MOL0     H80394   3.657   7.299   8.355 -0.3191  0.3567 -0.1957
  583MOL0     H80395   3.864   7.427   8.175 -2.7320  2.2219  0.1831
  583MOL0     H80396   3.899   7.369   8.345  0.4833  0.9838  1.2564
  583MOL0     H80397   3.685   7.576   8.271 -0.3104  1.8357  1.7105
  583MOL0     H80398   3.738   7.541   8.433 -0.6374  1.6281  0.1919
  583MOL0     H80399   3.869   7.690   8.215  0.7016 -0.2652  0.1049
  583MOL0     H80400   3.971   7.621   8.350 -1.7760 -2.4987  2.0638
  583MOL0     H80401   3.831   7.746   8.512 -4.2992  0.7413  0.1203
  583MOL0     H80402   3.892   7.872   8.394  1.6995 -1.7319 -0.6493
  583MOL0     H80403   3.661   7.839   8.171  0.4916 -1.3528  0.4658
  583MOL0     H80404   3.427   7.881   8.114 -0.6569 -0.8252  0.5818
  583MOL0     H80405   3.366   8.018   8.213  1.2494  0.4752  1.1776
  583MOL0     H80406   3.324   7.738   8.297  1.7696  0.7035 -0.6221
  583MOL0     H80407   3.224   7.880   8.336 -1.5632 -0.7812 -0.9337
  583MOL0     H80408   3.232   7.786   8.057  1.3819 -1.0553  0.9596
  583MOL0     H80409   3.114   7.728   8.170  0.5822  0.9670 -0.4725
  583MOL0     H80410   3.147   8.005   8.056 -1.5297  0.1850  0.2647
  583MOL0     H80411   3.015   7.899   8.062  3.7414 -1.2399 -4.9447
  583MOL0     H80412   2.908   8.113   8.006  0.3355  1.2695 -1.3409
  583MOL0     H80413   2.641   8.335   7.978  1.0908  0.6157  2.8578
  583MOL0     H80414   2.743   8.221   7.902 -0.4294 -1.8289  2.3877
  583MOL0     H80415   2.800   8.390   7.909 -2.0335  0.0240 -0.7661
  583MOL0     H80416   2.462   8.516   8.335 -0.0552  0.6207 -1.0198
  583MOL0     H80417   2.296   8.662   8.493 -0.3696  2.1468  1.6951
  583MOL0     H80418   2.469   8.811   8.832 -0.2961  0.4713 -0.1036
  583MOL0     H80419   2.484   8.974   8.751 -1.3469  0.8050 -2.9236
  583MOL0     H80420   2.346   9.042   8.914  0.2625 -0.1216  0.5320
  583MOL0     H80421   2.232   8.991   8.788  0.9416 -0.4302 -2.0780
  583MOL0     H80422   2.326   8.859   9.051  3.0870 -1.6766 -1.3434
  583MOL0     H80423   2.242   8.760   8.918 -3.9009 -0.9317  1.4736
  583MOL0     H80424   2.107   8.841   9.112  0.0946  0.5493  0.4692
  583MOL0     H80425   2.040   8.885   8.947  0.0890 -0.5534 -0.2195
  583MOL0     H80426   2.168   9.091   9.118  0.9554 -0.7108 -0.1069
  583MOL0     H80427   2.112   9.108   8.955 -3.9643  1.2527  0.4786
  583MOL0     H80428   1.901   9.114   8.996  1.2617  0.3716  0.8657
  583MOL0     H80429   1.965   9.198   9.128 -0.1678 -0.1063  2.3850
  583MOL0     H80430   1.945   8.978   9.263  0.2206 -3.3075 -1.7004
  583MOL0     H80431   1.852   8.908   9.144  3.6999 -0.8434  1.2761
  583MOL0     H80432   1.677   9.079   9.164 -1.1184  1.2203  2.5575
  583MOL0     H80433   1.780   9.175   9.275 -1.4313  0.9115 -0.4080
  583MOL0     H80434   2.633   8.873   8.643  0.5708 -1.1457  2.6424
  583MOL0     H80435   2.784   8.745   8.517  0.4859 -0.1579 -0.0325
  583MOL0     H80436   2.899   8.377   8.417 -1.0351 -1.3917  1.2687
  583MOL0     H80437   3.048   8.211   8.408 -0.9231  0.5077  1.2988
  583MOL0     H80438   3.644   6.633   8.149  2.8136 -0.0611  1.5980
  583MOL0     H80439   3.718   6.469   7.971  0.3602 -0.5427 -1.9465
  583MOL0     H80440   3.848   6.594   7.486  0.7936 -0.9841  1.7909
  583MOL0     H80441   3.821   6.551   7.255 -0.2192  1.5957  0.8126
  583MOL0     H80442   3.936   6.337   7.002 -3.2396  2.1873  0.1331
  583MOL0     H80443   3.990   6.255   7.159  0.3890  2.3084 -0.3976
  583MOL0     H80444   3.835   6.066   7.079 -1.9746  2.9251  1.2315
  583MOL0     H80445   3.975   6.102   6.963 -0.7295 -0.4657 -2.0870
  583MOL0     H80446   3.682   6.171   6.939 -0.3180 -0.0489 -0.3191
  583MOL0     H80447   3.797   6.231   6.825  2.2017  1.0951  1.6744
  583MOL0     H80448   3.728   5.931   6.887 -3.2292 -1.2760 -2.2421
  583MOL0     H80449   3.847   5.984   6.762 -0.9805  0.4497 -2.1270
  583MOL0     H80450   3.486   6.077   6.569  0.2582 -1.6275  0.0344
  583MOL0     H80451   3.759   6.138   7.337  0.6278 -2.1101  4.5769
  583MOL0     H80452   3.640   6.122   7.589 -0.0655 -0.1405 -2.5362
  583MOL0     H80453   3.797   6.061   7.550 -0.2591  1.5060 -1.8823
  583MOL0     H80454   3.782   6.152   7.700  3.9103 -0.3211 -0.7761
  584MOL0     O80455  10.197   5.455   1.455  0.2533  0.2532 -0.1848
  584MOL0     C80456  10.173   5.570   1.496  0.3269 -0.5748 -0.2195
  584MOL0     O80457  10.210   5.685   1.434 -0.5691 -0.7877 -0.3771
  584MOL0     C80458  10.265   5.682   1.317  0.2956  1.1458  0.5735
  584MOL0     C80459  10.397   5.642   1.295  0.0102  0.4272 -0.2313
  584MOL0     C80460  10.446   5.624   1.163 -0.6069  0.0966 -0.0367
  584MOL0     C80461  10.367   5.644   1.054 -0.6268  0.1557  0.3509
  584MOL0     O80462  10.425   5.621   0.928 -0.2465  0.3588  0.6379
  584MOL0     C80463  10.405   5.732   0.838  0.3686 -0.0474  0.1458
  584MOL0     C80464  10.489   5.741   0.719 -0.4971 -0.0705 -0.7701
  584MOL0     C80465  10.489   5.620   0.626 -0.4891  0.4339  0.1303
  584MOL0     C80466  10.359   5.576   0.549  0.0632 -0.4835  0.3799
  584MOL0     C80467  10.346   5.418   0.527  0.1852  0.4714 -1.2032
  584MOL0     C80468  10.312   5.334   0.654 -0.2961  0.5218 -0.8107
  584MOL0     C80469  10.190   5.378   0.734  0.4573 -0.7459  0.0081
  584MOL0     C80470  10.187   5.305   0.870 -0.0948 -0.0322 -0.4054
  584MOL0     N80471  10.047   5.319   0.919  0.2594  0.5522 -0.6698
  584MOL0     C80472  10.019   5.357   1.051 -0.4400  1.2541 -0.3372
  584MOL0     C80473   9.883   5.331   1.066  0.2236  0.2297  0.4187
  584MOL0     C80474   9.815   5.360   1.197  0.1948  0.1756  0.1470
  584MOL0     C80475   9.724   5.479   1.205  0.5197 -0.0328  1.0743
  584MOL0     C80476   9.788   5.608   1.170  0.7778 -1.0046  0.4077
  584MOL0     C80477   9.689   5.719   1.134 -0.0534  0.4029  0.7802
  584MOL0     O80478   9.759   5.843   1.131  0.1894 -0.6565  0.6185
  584MOL0     C80479   9.836   5.888   1.029  0.1222  0.2963 -0.6146
  584MOL0     C80480   9.855   5.820   0.905 -0.2666 -0.4728  0.2824
  584MOL0     C80481   9.925   5.880   0.803  0.8796  0.1381  0.0390
  584MOL0     C80482   9.959   5.807   0.682  0.2569 -0.2289  0.3604
  584MOL0     C80483   9.975   6.006   0.818 -0.5819  0.7370 -0.5924
  584MOL0     C80484  10.064   6.063   0.721 -0.0331  0.4960 -0.7406
  584MOL0     O80485  10.193   6.011   0.698 -0.0986  0.5472 -0.8136
  584MOL0     C80486  10.246   6.034   0.581 -0.1833  0.6382 -0.4894
  584MOL0     C80487  10.200   5.996   0.455  0.2071  0.3019 -0.0895
  584MOL0     C80488  10.258   6.039   0.330 -0.0627 -0.3717 -0.1243
  584MOL0     C80489  10.390   6.100   0.341  0.9552 -0.1007 -0.4550
  584MOL0     O80490  10.462   6.144   0.240  0.8546 -0.0336 -0.1712
  584MOL0     C80491  10.401   6.154   0.114  0.0670  0.2323 -0.1939
  584MOL0     C80492  10.375   6.031   0.026  0.3958  0.3559  0.6717
  584MOL0     C80493  10.326   6.100  -0.120 -0.0673 -0.3233 -0.2660
  584MOL0     C80494  10.230   6.020  -0.201 -1.4526 -0.8175 -0.2935
  584MOL0     C80495  10.085   5.995  -0.143 -0.0388  0.4236  0.1998
  584MOL0     C80496  10.020   5.863  -0.190 -0.4840  0.0606 -0.2021
  584MOL0     C80497  10.032   5.847  -0.350  0.6075 -0.3863  0.5608
  584MOL0     C80498   9.999   5.712  -0.386 -0.4311  1.0923 -0.0022
  584MOL0    Cl80499  10.143   5.611  -0.355  0.1829 -0.1498  0.5519
  584MOL0     C80500  10.444   6.121   0.471 -0.6045  0.4332  0.3851
  584MOL0     C80501  10.370   6.101   0.588  0.3639 -0.1033  0.1060
  584MOL0     O80502  10.002   6.140   0.650  0.3765 -0.0818  0.5228
  584MOL0     C80503   9.961   6.077   0.938  0.4965 -0.0960 -0.7916
  584MOL0     C80504   9.892   6.017   1.048 -0.5411 -0.0761  0.4343
  584MOL0     N80505   9.834   5.269   0.948  0.9244  0.4996 -0.7757
  584MOL0     N80506   9.937   5.262   0.867 -0.3931 -0.3158 -0.3488
  584MOL0     C80507  10.238   5.685   1.071 -0.1066 -0.8550  0.1977
  584MOL0     C80508  10.182   5.702   1.203 -0.6786 -0.3005 -0.7522
  584MOL0     C80509  10.086   5.602   1.619 -0.7713  0.3003 -0.5085
  584MOL0     C80510  10.085   5.734   1.671  0.3971  0.2964 -0.5913
  584MOL0     C80511  10.008   5.767   1.780 -0.6209 -0.3827  0.0238
  584MOL0     C80512   9.931   5.672   1.851  0.6873  0.6194  0.6483
  584MOL0     O80513   9.862   5.710   1.961 -0.1212  0.1261  0.5032
  584MOL0     C80514   9.777   5.625   2.045 -0.0030  0.0521 -0.1326
  584MOL0     C80515   9.864   5.561   2.158  0.4475  0.0334  1.0223
  584MOL0     C80516   9.776   5.542   2.276  0.6163  0.3084  0.5381
  584MOL0     C80517   9.885   5.520   2.391  0.0538 -0.1596  0.4152
  584MOL0     C80518   9.832   5.453   2.508  0.3875 -0.5118 -0.2827
  584MOL0     C80519   9.784   5.399   2.607 -0.0514  0.6633 -0.2530
  584MOL0     C80520   9.936   5.539   1.806  0.7567 -0.1825  0.3368
  584MOL0     C80521  10.004   5.506   1.687  0.2710  0.7072  0.6460
  584MOL0     C80522   9.980   5.374   1.629  0.1517 -0.1658 -0.7622
  584MOL0     H80523  10.461   5.628   1.381  2.7434 -0.5365 -2.2718
  584MOL0     H80524  10.542   5.576   1.149 -0.1944  1.2129 -1.2501
  584MOL0     H80525  10.423   5.825   0.894 -2.3697  0.5529  0.1509
  584MOL0     H80526  10.297   5.738   0.820 -0.0799 -2.5532  1.5689
  584MOL0     H80527  10.455   5.828   0.662 -3.4667 -0.9836 -0.6090
  584MOL0     H80528  10.584   5.767   0.764 -1.4540  1.1280  0.6520
  584MOL0     H80529  10.562   5.646   0.549  0.0341 -0.9004  0.1496
  584MOL0     H80530  10.527   5.535   0.683  0.6252  4.6482  6.9067
  584MOL0     H80531  10.264   5.617   0.585  1.2936  2.1424  0.7972
  584MOL0     H80532  10.364   5.612   0.446  1.1140 -1.2281  0.1533
  584MOL0     H80533  10.442   5.373   0.501  0.5928 -0.4195  1.5659
  584MOL0     H80534  10.269   5.399   0.451 -1.2208  4.3387 -0.9842
  584MOL0     H80535  10.289   5.232   0.622 -0.5350  0.8093 -1.5989
  584MOL0     H80536  10.401   5.325   0.717  1.0163  0.3135 -2.6170
  584MOL0     H80537  10.109   5.373   0.662  1.0116 -0.8879 -0.6170
  584MOL0     H80538  10.204   5.485   0.755  0.8328 -0.1440 -2.9049
  584MOL0     H80539  10.210   5.198   0.869 -1.5201 -0.3651 -1.4520
  584MOL0     H80540  10.261   5.343   0.941 -2.4789 -1.0248  2.7854
  584MOL0     H80541  10.088   5.406   1.119  3.2012 -0.7872 -2.2471
  584MOL0     H80542   9.893   5.387   1.269 -0.3176 -0.3204  0.8961
  584MOL0     H80543   9.756   5.271   1.220 -2.6491  0.8409 -3.4987
  584MOL0     H80544   9.638   5.455   1.142  1.4431 -0.4437 -0.0579
  584MOL0     H80545   9.686   5.502   1.305 -0.7611 -1.5175  0.9640
  584MOL0     H80546   9.854   5.636   1.252  0.3467  1.0482  0.1074
  584MOL0     H80547   9.861   5.601   1.090  3.7531  2.4110  2.5179
  584MOL0     H80548   9.641   5.695   1.039 -0.9936 -3.2025  2.0006
  584MOL0     H80549   9.615   5.726   1.214  1.4759  0.4354  2.2412
  584MOL0     H80550   9.825   5.717   0.885 -2.1448  0.4599 -2.1083
  584MOL0     H80551   9.925   5.852   0.589  0.3543 -0.0158  0.4286
  584MOL0     H80552   9.904   5.712   0.675  0.7005 -0.6572  2.1161
  584MOL0     H80553  10.067   5.788   0.683  0.9523  3.0903 -0.6456
  584MOL0     H80554  10.100   5.956   0.448  0.0488  0.3271  1.6492
  584MOL0     H80555  10.199   6.023   0.240  0.4097 -1.8727 -0.2000
  584MOL0     H80556  10.307   6.211   0.117  0.0580  0.1670  1.3453
  584MOL0     H80557  10.473   6.208   0.051  0.5165 -0.9775 -0.7638
  584MOL0     H80558  10.471   5.987  -0.003  1.1811  0.4045  3.0309
  584MOL0     H80559  10.300   5.962   0.066 -1.5671  2.9325  1.7156
  584MOL0     H80560  10.415   6.099  -0.184 -0.3571 -0.7386 -0.6670
  584MOL0     H80561  10.292   6.202  -0.102 -1.8563 -0.9563  0.0979
  584MOL0     H80562  10.281   5.926  -0.223  1.8811  1.2639 -2.2974
  584MOL0     H80563  10.225   6.080  -0.292  1.5588  1.3678  0.7997
  584MOL0     H80564  10.103   5.987  -0.036  2.3663  0.3917 -0.1631
  584MOL0     H80565  10.023   6.083  -0.163 -0.1879 -0.1207 -1.9345
  584MOL0     H80566   9.921   5.861  -0.144 -1.9110  0.2834 -3.0737
  584MOL0     H80567  10.084   5.782  -0.154 -1.4995 -1.3447 -1.4281
  584MOL0     H80568  10.131   5.868  -0.391  1.3855 -0.5986  2.2567
  584MOL0     H80569   9.953   5.907  -0.397  2.4995  1.1645 -0.8098
  584MOL0     H80570   9.974   5.706  -0.493  0.8317  2.8719 -0.4534
  584MOL0     H80571   9.920   5.661  -0.331  0.9286 -2.7106 -1.2339
  584MOL0     H80572  10.543   6.164   0.480 -1.4689  1.9533  4.3424
  584MOL0     H80573  10.389   6.154   0.681  5.6115  0.5542 -1.0369
  584MOL0     H80574   9.991   6.181   0.944 -1.3335  0.3787  0.8623
  584MOL0     H80575   9.870   6.088   1.128 -1.0396  1.1970 -0.7964
  584MOL0     H80576  10.184   5.709   0.979 -1.6992 -0.2364  1.2492
  584MOL0     H80577  10.076   5.720   1.217 -1.0212 -3.8721  3.6854
  584MOL0     H80578  10.150   5.814   1.637  2.5164 -0.0849  2.2379
  584MOL0     H80579  10.009   5.872   1.809  1.4163 -0.2643 -0.3814
  584MOL0     H80580   9.700   5.691   2.084 -0.4346 -0.7193  0.3627
  584MOL0     H80581   9.721   5.554   1.984  0.7566  0.6428 -1.5565
  584MOL0     H80582   9.935   5.638   2.190  1.1078  0.7380 -1.8085
  584MOL0     H80583   9.917   5.474   2.117 -1.7989 -0.6982 -0.5276
  584MOL0     H80584   9.715   5.631   2.293  0.7777  0.3024  1.1707
  584MOL0     H80585   9.711   5.454   2.272  1.5642 -0.3556 -1.0927
  584MOL0     H80586   9.935   5.612   2.421  1.2469 -0.0161 -1.7587
  584MOL0     H80587   9.952   5.449   2.341 -1.8557 -2.1187  0.4742
  584MOL0     H80588   9.752   5.350   2.697 -0.7107  0.7543 -0.4327
  584MOL0     H80589   9.884   5.456   1.851  2.1992 -0.5076  1.4817
  584MOL0     H80590  10.071   5.321   1.660  1.5484  1.3410 -2.0949
  584MOL0     H80591   9.888   5.336   1.675  1.2084 -1.0505  0.7005
  584MOL0     H80592   9.969   5.366   1.521  1.5771  0.8078 -1.0051
  585MOL0     O80593   1.831   5.206   0.026 -1.3206  0.4574 -0.7364
  585MOL0     C80594   1.755   5.215   0.123 -0.5948 -0.9963  0.4876
  585MOL0     O80595   1.666   5.125   0.168 -0.5429 -0.2773  0.0459
  585MOL0     C80596   1.655   4.993   0.137 -0.3733 -0.5005 -0.3416
  585MOL0     C80597   1.749   4.927   0.068  0.0232  0.5199  0.2795
  585MOL0     C80598   1.737   4.793   0.051 -0.4911  0.3106  0.4429
  585MOL0     C80599   1.637   4.718   0.106  0.6835  0.0611  0.3114
  585MOL0     O80600   1.622   4.583   0.097  0.1062 -0.2502  0.3410
  585MOL0     C80601   1.671   4.515   0.207 -0.5988  0.5435 -0.3502
  585MOL0     C80602   1.677   4.364   0.184 -0.3378 -0.3030 -0.6391
  585MOL0     C80603   1.548   4.306   0.119  0.5432 -0.3385  0.5904
  585MOL0     C80604   1.409   4.368   0.153  0.0525  0.0671 -1.0341
  585MOL0     C80605   1.345   4.289   0.272  0.0528 -0.1140  0.4096
  585MOL0     C80606   1.199   4.272   0.257 -0.0134 -0.3071 -0.1068
  585MOL0     C80607   1.130   4.185   0.359  0.4096  1.0971 -0.1111
  585MOL0     C80608   0.984   4.144   0.313 -0.5117 -0.5513  0.3597
  585MOL0     N80609   0.883   4.248   0.308 -0.0719 -0.6059  1.2312
  585MOL0     C80610   0.808   4.296   0.417  0.9958  0.8121  0.1864
  585MOL0     C80611   0.734   4.401   0.363 -1.2773 -0.3959 -0.5268
  585MOL0     C80612   0.662   4.507   0.438  0.3235  0.2919  0.1445
  585MOL0     C80613   0.746   4.564   0.550  0.2649 -0.1495  0.0526
  585MOL0     C80614   0.693   4.699   0.600  0.1279  0.5677  0.3140
  585MOL0     C80615   0.803   4.761   0.694 -0.0313  0.4636  0.0325
  585MOL0     O80616   0.820   4.903   0.663 -0.1120  0.5738  0.1861
  585MOL0     C80617   0.704   4.977   0.645  0.8499 -0.2902  0.0492
  585MOL0     C80618   0.601   4.990   0.741  0.6113  1.0145  0.7359
  585MOL0     C80619   0.485   5.057   0.710  1.3730  0.6626 -0.1490
  585MOL0     C80620   0.383   5.063   0.820 -0.8884 -1.0496  0.7251
  585MOL0     C80621   0.468   5.115   0.581 -0.3459  0.3334  0.3167
  585MOL0     C80622   0.364   5.201   0.546  1.4075  0.5152 -0.6189
  585MOL0     O80623   0.335   5.219   0.413 -0.1750 -0.6130  0.2980
  585MOL0     C80624   0.253   5.322   0.388 -0.2971  0.9600  0.5952
  585MOL0     C80625   0.310   5.420   0.324 -0.5790 -0.8589 -0.3494
  585MOL0     C80626   0.231   5.535   0.282  1.0947 -0.4025 -0.4278
  585MOL0     C80627   0.090   5.533   0.300 -0.1529  0.7610 -0.0670
  585MOL0     O80628  -0.001   5.624   0.252 -0.2362 -0.2655  0.8404
  585MOL0     C80629   0.042   5.765   0.237 -0.2361  0.5013  0.3820
  585MOL0     C80630  -0.077   5.849   0.235  0.6080 -0.4945  0.5171
  585MOL0     C80631  -0.172   5.822   0.349  0.1999 -0.6214 -0.5831
  585MOL0     C80632  -0.292   5.925   0.360 -0.2863 -0.2156 -0.2428
  585MOL0     C80633  -0.383   5.899   0.483  0.5970  0.3238  0.2454
  585MOL0     C80634  -0.491   5.998   0.502 -0.3557  0.5697  0.2782
  585MOL0     C80635  -0.575   5.989   0.625  0.6375  0.2022 -0.7494
  585MOL0     C80636  -0.718   6.037   0.595 -0.1705  0.2152  0.4001
  585MOL0    Cl80637  -0.819   5.921   0.510 -0.2407  0.0185  0.3663
  585MOL0     C80638   0.033   5.428   0.371 -0.0620  0.0244 -0.2022
  585MOL0     C80639   0.117   5.317   0.404  0.1044  1.0716 -0.0117
  585MOL0     O80640   0.307   5.261   0.637 -1.3542  0.5462 -0.3432
  585MOL0     C80641   0.581   5.105   0.492  0.2021 -0.3180  0.5814
  585MOL0     C80642   0.696   5.037   0.524 -0.7096 -0.6051  0.5003
  585MOL0     N80643   0.754   4.403   0.230  0.2091  0.0053  0.6930
  585MOL0     N80644   0.839   4.314   0.196 -0.0515  0.0945 -0.2999
  585MOL0     C80645   1.540   4.790   0.186  0.2312  0.2992  1.0310
  585MOL0     C80646   1.539   4.930   0.193 -0.2401  0.7526  0.0633
  585MOL0     C80647   1.773   5.338   0.211 -0.7715 -0.4632  0.3622
  585MOL0     C80648   1.861   5.440   0.175  0.0760  0.0095 -0.2327
  585MOL0     C80649   1.884   5.559   0.251  0.0585  0.7134 -0.3031
  585MOL0     C80650   1.805   5.589   0.364  0.2705 -0.9380  0.7089
  585MOL0     O80651   1.827   5.698   0.441  0.3157 -0.5547 -0.1778
  585MOL0     C80652   1.958   5.769   0.421  0.4258  0.9458 -1.0494
  585MOL0     C80653   1.938   5.889   0.516 -0.4889  0.3042 -0.5545
  585MOL0     C80654   2.051   5.984   0.497 -0.0659  0.3868 -0.2955
  585MOL0     C80655   2.032   6.136   0.480 -0.0176  1.0605 -0.1169
  585MOL0     C80656   2.045   6.200   0.612  0.4940 -0.0396  0.1624
  585MOL0     C80657   2.064   6.257   0.720  0.2793  0.3450 -0.1211
  585MOL0     C80658   1.705   5.492   0.405 -0.8790 -0.1926 -0.6235
  585MOL0     C80659   1.701   5.365   0.335  0.3078 -0.7845  0.3467
  585MOL0     C80660   1.603   5.267   0.393 -0.3688 -0.0109 -0.8360
  585MOL0     H80661   1.836   4.977   0.027  0.3528  0.5920  1.0538
  585MOL0     H80662   1.813   4.749  -0.013 -1.7086  1.4059 -1.8577
  585MOL0     H80663   1.624   4.539   0.303  0.5539 -1.0332  0.6622
  585MOL0     H80664   1.776   4.542   0.201 -0.7713  1.5546  0.7820
  585MOL0     H80665   1.761   4.344   0.117  1.1760 -4.3199  2.1037
  585MOL0     H80666   1.692   4.299   0.271 -4.4710 -0.7928 -0.1092
  585MOL0     H80667   1.567   4.297   0.012 -0.3769  1.3560  0.2603
  585MOL0     H80668   1.560   4.200   0.146  0.9591 -0.7319 -1.0520
  585MOL0     H80669   1.410   4.477   0.166  0.0163  0.3044 -2.7498
  585MOL0     H80670   1.348   4.356   0.063 -0.8662 -3.8974 -0.0697
  585MOL0     H80671   1.374   4.344   0.363  0.4269  0.3961 -0.0122
  585MOL0     H80672   1.391   4.190   0.280 -1.2469 -0.7848 -0.3212
  585MOL0     H80673   1.149   4.369   0.263  0.5435 -0.0608  0.8766
  585MOL0     H80674   1.182   4.232   0.157  0.3841  0.0319 -0.3111
  585MOL0     H80675   1.128   4.228   0.460  1.9840  0.2604  0.3149
  585MOL0     H80676   1.185   4.091   0.375 -2.4974 -0.2033  3.6777
  585MOL0     H80677   0.991   4.099   0.213 -1.1660  1.8030 -0.8117
  585MOL0     H80678   0.951   4.069   0.385  2.4124 -0.4983  1.8965
  585MOL0     H80679   0.817   4.277   0.523 -0.3874  2.2417  0.5794
  585MOL0     H80680   0.577   4.456   0.485 -0.4821  1.6821  0.2699
  585MOL0     H80681   0.640   4.593   0.374 -0.6976  1.4262  1.9114
  585MOL0     H80682   0.737   4.490   0.631  0.7558  0.1734  0.4012
  585MOL0     H80683   0.853   4.570   0.530  0.2580  2.9648  0.4781
  585MOL0     H80684   0.672   4.766   0.517 -0.8969 -1.4518 -1.1285
  585MOL0     H80685   0.607   4.676   0.664  0.3442 -1.9815 -0.2075
  585MOL0     H80686   0.786   4.759   0.802 -0.0352  3.1706  0.1616
  585MOL0     H80687   0.897   4.709   0.677  0.3825  0.5283  1.9149
  585MOL0     H80688   0.613   4.938   0.836  1.1874  0.8618  0.5832
  585MOL0     H80689   0.405   4.981   0.889  3.2239 -1.0874 -0.4030
  585MOL0     H80690   0.277   5.055   0.793 -0.2113 -2.4170 -1.8135
  585MOL0     H80691   0.396   5.149   0.886  3.2801 -0.9231 -0.0204
  585MOL0     H80692   0.414   5.436   0.297  0.3039 -1.7415  2.2176
  585MOL0     H80693   0.269   5.622   0.229 -3.5061  1.7114 -0.7930
  585MOL0     H80694   0.105   5.800   0.319  0.7382 -0.6645  0.1635
  585MOL0     H80695   0.088   5.769   0.138 -2.3209  0.4080 -0.6639
  585MOL0     H80696  -0.042   5.953   0.232 -0.6389 -0.0541  0.5733
  585MOL0     H80697  -0.140   5.831   0.147  1.4981  1.1899 -0.5028
  585MOL0     H80698  -0.119   5.822   0.445 -1.0287 -1.1258  0.1196
  585MOL0     H80699  -0.216   5.723   0.333  0.4072 -0.3475 -3.1859
  585MOL0     H80700  -0.346   5.911   0.266  0.2082 -0.0063 -0.5650
  585MOL0     H80701  -0.241   6.022   0.365  2.2825 -1.5440  1.1634
  585MOL0     H80702  -0.429   5.800   0.473 -1.5651  1.3128 -0.0260
  585MOL0     H80703  -0.324   5.905   0.575  1.8913 -1.0929 -0.4342
  585MOL0     H80704  -0.553   6.000   0.412 -0.4754  1.7380  0.3713
  585MOL0     H80705  -0.440   6.094   0.512 -2.7875  1.8293  1.6207
  585MOL0     H80706  -0.538   6.057   0.702 -0.3008  0.6210 -0.6473
  585MOL0     H80707  -0.577   5.885   0.659 -2.7759  0.3874 -0.0015
  585MOL0     H80708  -0.713   6.139   0.557  2.9065 -0.2732 -0.7217
  585MOL0     H80709  -0.768   6.036   0.692  0.0318  0.3981  0.5062
  585MOL0     H80710  -0.072   5.418   0.398 -1.3674  1.5131 -4.0346
  585MOL0     H80711   0.079   5.231   0.458  0.9877  0.4279 -0.3887
  585MOL0     H80712   0.570   5.155   0.396  0.7770  0.1324  0.7463
  585MOL0     H80713   0.774   5.010   0.454 -1.2461 -3.6272  0.9323
  585MOL0     H80714   1.450   4.730   0.200 -0.9129  1.0808 -2.2487
  585MOL0     H80715   1.469   4.997   0.243  1.9007  0.6868  3.5434
  585MOL0     H80716   1.920   5.421   0.087 -1.0102  1.8142 -1.4186
  585MOL0     H80717   1.952   5.629   0.204 -0.0634  0.6532 -0.5726
  585MOL0     H80718   2.047   5.711   0.447  0.2588  0.6457 -1.1550
  585MOL0     H80719   1.978   5.817   0.325  2.4876 -1.1859 -1.7668
  585MOL0     H80720   1.935   5.852   0.619  0.0545 -3.1209 -1.6312
  585MOL0     H80721   1.847   5.941   0.484 -2.5777 -2.8031 -0.1059
  585MOL0     H80722   2.119   5.970   0.581  1.5462  2.3711 -1.1765
  585MOL0     H80723   2.114   5.953   0.414  1.1311  1.9212 -0.0121
  585MOL0     H80724   1.936   6.166   0.439  0.0760  0.7739 -0.5561
  585MOL0     H80725   2.113   6.175   0.417  0.4963  1.2047  0.6249
  585MOL0     H80726   2.084   6.305   0.814 -0.2845 -0.5060  0.4495
  585MOL0     H80727   1.640   5.525   0.485 -0.1999 -0.1231 -0.0939
  585MOL0     H80728   1.589   5.291   0.499 -1.6738 -0.6820 -0.8384
  585MOL0     H80729   1.511   5.284   0.336 -0.7887 -0.1409 -0.2055
  585MOL0     H80730   1.627   5.160   0.394 -2.4175 -0.5068  0.5059
  586MOL0     O80731   8.540   2.463   8.807  0.1200  0.4675 -0.3270
  586MOL0     C80732   8.417   2.488   8.793  0.0000  0.2745  0.0731
  586MOL0     O80733   8.366   2.525   8.678  0.0607  0.1703 -0.2564
  586MOL0     C80734   8.442   2.571   8.570  1.4139  1.0079 -1.0930
  586MOL0     C80735   8.546   2.662   8.592  0.8059 -1.1406  0.2375
  586MOL0     C80736   8.620   2.709   8.485  0.3091 -0.3660 -0.7890
  586MOL0     C80737   8.575   2.671   8.349  0.6817 -0.2186  0.6875
  586MOL0     O80738   8.625   2.742   8.243  0.7933  0.1799 -0.1755
  586MOL0     C80739   8.536   2.862   8.223  0.5012  0.0096 -0.7919
  586MOL0     C80740   8.498   2.866   8.079  0.4771 -0.1399 -0.1464
  586MOL0     C80741   8.378   2.794   8.030  0.7179  0.7790  1.3049
  586MOL0     C80742   8.251   2.866   8.080 -0.0860 -0.2267 -0.0099
  586MOL0     C80743   8.112   2.805   8.049  1.0168  0.4932 -0.4219
  586MOL0     C80744   8.051   2.716   8.158 -1.4889 -0.5640  0.1690
  586MOL0     C80745   7.911   2.667   8.118 -0.1260  0.7093  1.4189
  586MOL0     C80746   7.808   2.774   8.074  0.5511  0.0694 -0.3467
  586MOL0     N80747   7.673   2.721   8.036 -0.2116 -0.5311  0.6489
  586MOL0     C80748   7.664   2.627   7.936  0.2240 -0.3872  0.2458
  586MOL0     C80749   7.546   2.570   7.958  0.5567  0.1936  0.7304
  586MOL0     C80750   7.477   2.474   7.878  0.0114  0.2925  0.3572
  586MOL0     C80751   7.373   2.524   7.776  0.3526 -0.3955 -0.3866
  586MOL0     C80752   7.429   2.589   7.656 -0.4383 -0.1471  0.3715
  586MOL0     C80753   7.321   2.673   7.584  0.1142 -0.0259  0.3531
  586MOL0     O80754   7.309   2.801   7.649  0.3612  0.5868  0.7192
  586MOL0     C80755   7.228   2.888   7.587 -0.0193  0.4495 -0.3764
  586MOL0     C80756   7.087   2.871   7.578  0.3313  0.3630  0.8980
  586MOL0     C80757   7.018   2.970   7.503 -0.0653  0.0954  0.3378
  586MOL0     C80758   6.867   2.950   7.492 -0.0424 -0.2612 -0.3923
  586MOL0     C80759   7.081   3.078   7.441  0.1655  0.1506 -0.4096
  586MOL0     C80760   7.005   3.174   7.367 -0.0934  0.1204 -1.0825
  586MOL0     O80761   6.992   3.181   7.234 -0.6035 -0.0331 -0.0153
  586MOL0     C80762   7.006   3.301   7.162 -0.7791  0.5806  0.9846
  586MOL0     C80763   6.977   3.294   7.026  0.5310 -0.7245 -0.0089
  586MOL0     C80764   6.963   3.411   6.951 -0.2372  1.6651  0.5383
  586MOL0     C80765   6.997   3.533   7.001 -0.2965 -0.0327 -0.8310
  586MOL0     O80766   6.979   3.644   6.918 -0.3231  0.4818  0.3139
  586MOL0     C80767   7.028   3.771   6.961 -0.1155 -0.2510  0.7844
  586MOL0     C80768   7.018   3.880   6.856 -1.2873 -0.0123 -0.4079
  586MOL0     C80769   7.040   4.029   6.906 -0.6869  0.3014  0.3118
  586MOL0     C80770   6.995   4.136   6.811 -0.5519  0.0161  0.3124
  586MOL0     C80771   6.852   4.153   6.829  0.2733 -1.1648  0.3289
  586MOL0     C80772   6.784   4.221   6.712  0.1130 -0.1488 -0.1035
  586MOL0     C80773   6.652   4.297   6.744  0.1698  0.3618 -0.1465
  586MOL0     C80774   6.676   4.421   6.836 -0.2722  0.0968  0.4781
  586MOL0    Cl80775   6.808   4.522   6.781  0.3240  0.0025 -0.0239
  586MOL0     C80776   7.040   3.540   7.133  0.2739 -0.2424 -0.2446
  586MOL0     C80777   7.052   3.426   7.212  0.2073 -0.4144  0.8381
  586MOL0     O80778   6.952   3.253   7.444  0.5087  0.3912 -0.1780
  586MOL0     C80779   7.218   3.092   7.454 -0.1100  0.9572 -0.0743
  586MOL0     C80780   7.288   2.992   7.523 -0.9261  0.1303  0.2993
  586MOL0     N80781   7.486   2.634   8.066  0.5007  0.4153  0.1484
  586MOL0     N80782   7.562   2.722   8.108  0.5370 -0.8413 -0.7787
  586MOL0     C80783   8.458   2.596   8.323  1.0272  0.1790 -0.3949
  586MOL0     C80784   8.405   2.536   8.441  0.6158 -0.6164 -0.0673
  586MOL0     C80785   8.330   2.474   8.911  0.3527  0.0731  0.6764
  586MOL0     C80786   8.386   2.409   9.021 -0.1502  0.9939  0.8266
  586MOL0     C80787   8.309   2.374   9.129 -0.5975  0.3432  0.1224
  586MOL0     C80788   8.172   2.407   9.140  0.1648 -0.1735  0.0316
  586MOL0     O80789   8.094   2.380   9.252 -0.4869  0.2375 -0.8048
  586MOL0     C80790   7.971   2.321   9.238 -0.6579 -0.6098  0.4441
  586MOL0     C80791   8.010   2.175   9.221 -0.6617  0.0469  0.7821
  586MOL0     C80792   7.891   2.086   9.207  0.5182 -0.6404 -1.0854
  586MOL0     C80793   7.797   2.129   9.094 -0.4728  0.3855  0.9294
  586MOL0     C80794   7.715   2.018   9.047 -0.3398 -0.7018  0.6089
  586MOL0     C80795   7.636   1.939   9.000  1.3722  1.0725 -0.6366
  586MOL0     C80796   8.112   2.463   9.022 -0.1424 -0.6166 -0.3147
  586MOL0     C80797   8.185   2.497   8.911 -1.0420  0.6247  0.3502
  586MOL0     C80798   8.107   2.540   8.787  0.0961 -1.3698 -0.9433
  586MOL0     H80799   8.592   2.703   8.682  1.4682 -2.1838  0.3964
  586MOL0     H80800   8.693   2.784   8.511 -3.8305  2.6868  3.9492
  586MOL0     H80801   8.583   2.953   8.261  0.8265 -1.2582  2.1198
  586MOL0     H80802   8.440   2.865   8.276  1.8506  2.5221  1.7854
  586MOL0     H80803   8.481   2.972   8.057  1.5887  0.0618 -0.0799
  586MOL0     H80804   8.585   2.852   8.013  0.6177 -0.8660  0.1818
  586MOL0     H80805   8.382   2.780   7.921  1.6649 -1.9746  1.6029
  586MOL0     H80806   8.362   2.691   8.062 -5.3043  2.0913  3.8805
  586MOL0     H80807   8.252   2.877   8.189  1.2297  2.0773 -0.1784
  586MOL0     H80808   8.260   2.968   8.041 -0.3939  1.2772  3.4915
  586MOL0     H80809   8.102   2.746   7.956  0.2146  1.6069 -1.0592
  586MOL0     H80810   8.038   2.885   8.046 -0.3139 -0.5464  1.9423
  586MOL0     H80811   8.108   2.623   8.167 -1.4410 -0.9942 -3.4486
  586MOL0     H80812   8.047   2.763   8.257 -0.2390 -0.9261  0.3969
  586MOL0     H80813   7.868   2.607   8.198  1.2105 -0.4112  1.3303
  586MOL0     H80814   7.928   2.602   8.032  1.2262 -0.0386  2.2073
  586MOL0     H80815   7.802   2.847   8.154 -4.8195 -1.9445  1.5915
  586MOL0     H80816   7.837   2.824   7.981  0.4402  1.2318  0.2332
  586MOL0     H80817   7.740   2.612   7.860 -0.7439 -1.0587 -0.6146
  586MOL0     H80818   7.425   2.398   7.938  1.3932 -1.6274 -0.7604
  586MOL0     H80819   7.556   2.414   7.831  0.0465 -0.6548  1.5659
  586MOL0     H80820   7.310   2.437   7.753 -1.8712 -0.1504  3.7803
  586MOL0     H80821   7.300   2.592   7.819  0.8487 -1.1279  1.7480
  586MOL0     H80822   7.514   2.652   7.682 -2.3436  1.6704  2.7165
  586MOL0     H80823   7.462   2.509   7.589 -0.6772  1.5852 -1.9011
  586MOL0     H80824   7.368   2.680   7.485  4.0931 -1.0930  1.9833
  586MOL0     H80825   7.221   2.630   7.569  0.2636 -0.0363 -0.7051
  586MOL0     H80826   7.032   2.797   7.637  1.0050 -1.1079 -0.2589
  586MOL0     H80827   6.822   2.876   7.559 -0.3376 -0.4628 -0.8077
  586MOL0     H80828   6.826   2.926   7.393 -1.8963 -3.0087  0.9029
  586MOL0     H80829   6.807   3.033   7.530 -3.8290 -2.7736 -0.3405
  586MOL0     H80830   6.962   3.195   6.982 -2.3813 -0.9698  1.3158
  586MOL0     H80831   6.947   3.413   6.844  1.7787 -0.9663  0.0759
  586MOL0     H80832   6.974   3.810   7.047 -1.2801  3.6977 -1.4617
  586MOL0     H80833   7.134   3.759   6.985  0.0020 -0.8873  0.0039
  586MOL0     H80834   7.097   3.860   6.783 -0.6418 -0.0739  0.2905
  586MOL0     H80835   6.914   3.877   6.824 -1.1459 -2.0134 -0.7925
  586MOL0     H80836   7.147   4.046   6.924 -0.8630  1.5872  0.2504
  586MOL0     H80837   7.002   4.039   7.008 -1.8865 -0.8714 -0.0080
  586MOL0     H80838   7.022   4.107   6.709  4.2850  1.0200  1.0636
  586MOL0     H80839   7.044   4.232   6.830  0.7224 -0.9412  2.1146
  586MOL0     H80840   6.803   4.056   6.837 -2.0618 -0.1267 -0.4827
  586MOL0     H80841   6.844   4.207   6.925  3.7093  0.1068  0.0461
  586MOL0     H80842   6.784   4.142   6.637  0.5473 -1.2468  1.0222
  586MOL0     H80843   6.841   4.297   6.657  1.0730 -1.3936 -0.8825
  586MOL0     H80844   6.577   4.234   6.794  0.4192 -1.7691 -2.2590
  586MOL0     H80845   6.589   4.326   6.659 -5.3494 -3.8158  1.8853
  586MOL0     H80846   6.694   4.380   6.936  0.7171  0.4897  0.4779
  586MOL0     H80847   6.592   4.489   6.824  1.2265  1.9187 -0.1730
  586MOL0     H80848   7.080   3.633   7.172  1.1101 -0.7410  0.1073
  586MOL0     H80849   7.100   3.435   7.310  5.2948 -1.0131 -1.2656
  586MOL0     H80850   7.269   3.179   7.413  0.4273 -0.9035 -3.8271
  586MOL0     H80851   7.394   3.014   7.517 -1.1606  0.8957 -2.6116
  586MOL0     H80852   8.413   2.565   8.229  0.0713 -0.3886  0.2325
  586MOL0     H80853   8.321   2.467   8.436  1.8280 -2.6943  3.7627
  586MOL0     H80854   8.493   2.392   9.027  0.3822  3.6225  0.1994
  586MOL0     H80855   8.348   2.315   9.211  1.6019  1.5626  0.0300
  586MOL0     H80856   7.910   2.328   9.329  0.7830 -1.3125  1.5008
  586MOL0     H80857   7.897   2.364   9.170 -0.6037 -0.8152  0.2542
  586MOL0     H80858   8.065   2.141   9.309 -0.2486  1.0789  0.9367
  586MOL0     H80859   8.068   2.168   9.129  2.6327  0.7638  2.6230
  586MOL0     H80860   7.938   1.991   9.179  3.7846  0.0758  1.4083
  586MOL0     H80861   7.837   2.071   9.301  1.5595 -3.1953 -0.8168
  586MOL0     H80862   7.856   2.171   9.012  1.0110  0.2355  1.8844
  586MOL0     H80863   7.741   2.218   9.126 -1.3455  0.1563  0.0613
  586MOL0     H80864   7.562   1.876   8.954 -0.2315  0.6603  2.2717
  586MOL0     H80865   8.008   2.491   9.017 -1.0358 -3.5282  0.0140
  586MOL0     H80866   8.147   2.620   8.724 -0.4240  1.1562  1.7311
  586MOL0     H80867   8.090   2.450   8.726 -1.3416 -2.3724  0.8388
  586MOL0     H80868   8.008   2.575   8.819  1.4948  1.6314  0.4867
  587MOL0     O80869   1.035   9.270   5.413  0.7071 -0.3541 -0.3903
  587MOL0     C80870   1.112   9.353   5.461 -0.1446  0.5420 -0.3438
  587MOL0     O80871   1.154   9.476   5.405 -1.3848  1.2595  0.1439
  587MOL0     C80872   1.125   9.501   5.277 -0.5299  0.0330  0.2560
  587MOL0     C80873   1.201   9.446   5.172  1.1913  0.0356 -0.9013
  587MOL0     C80874   1.190   9.487   5.043  0.0067 -0.3343 -0.8946
  587MOL0     C80875   1.117   9.605   5.017 -0.4056 -0.0187 -0.6869
  587MOL0     O80876   1.125   9.657   4.891  0.0252  0.1353 -0.2200
  587MOL0     C80877   1.216   9.764   4.881  0.4858 -0.0372  0.4020
  587MOL0     C80878   1.159   9.892   4.950 -1.0172  0.4242 -1.0557
  587MOL0     C80879   1.241  10.021   4.933  0.4175 -0.2479 -0.4632
  587MOL0     C80880   1.378  10.001   4.992  0.1240  0.4606  0.8232
  587MOL0     C80881   1.466  10.124   4.992  0.5275 -0.1583 -0.0197
  587MOL0     C80882   1.472  10.203   4.860  0.1568 -0.1367 -0.8244
  587MOL0     C80883   1.564  10.325   4.878  0.3345  0.0732 -1.3249
  587MOL0     C80884   1.499  10.449   4.952  0.1401  0.1800  0.2575
  587MOL0     N80885   1.579  10.511   5.059 -1.1122  0.2315  1.2421
  587MOL0     C80886   1.693  10.595   5.039 -0.5218  0.5698  0.7463
  587MOL0     C80887   1.731  10.622   5.165 -0.2758 -0.7854  0.2458
  587MOL0     C80888   1.844  10.712   5.195 -0.4503 -1.3320 -0.4501
  587MOL0     C80889   1.806  10.851   5.146 -0.6364  0.7972 -0.0001
  587MOL0     C80890   1.712  10.921   5.232 -0.0718 -0.3794  0.4792
  587MOL0     C80891   1.570  10.914   5.184 -0.0645  0.1807 -0.2596
  587MOL0     O80892   1.472  10.965   5.285 -0.3172  0.3339  0.2560
  587MOL0     C80893   1.336  10.960   5.260 -0.1659  0.2509  0.0567
  587MOL0     C80894   1.293  10.885   5.153 -0.3029  0.3844  0.3748
  587MOL0     C80895   1.157  10.875   5.110 -0.3537  1.2732 -1.0357
  587MOL0     C80896   1.130  10.819   4.973  0.4336  0.0519 -0.3839
  587MOL0     C80897   1.062  10.923   5.204 -0.9862 -0.7589 -0.7598
  587MOL0     C80898   0.917  10.929   5.183  1.1902  0.0693  0.4388
  587MOL0     O80899   0.834  10.942   5.293  0.0164 -0.5217  0.3955
  587MOL0     C80900   0.696  10.915   5.278 -0.3761  0.3399  0.2255
  587MOL0     C80901   0.659  10.785   5.299  0.4347  0.0837  0.5623
  587MOL0     C80902   0.522  10.750   5.278  0.1880  0.6257  0.8150
  587MOL0     C80903   0.431  10.849   5.221 -0.6432  0.5392 -0.2043
  587MOL0     O80904   0.296  10.825   5.195 -0.0663  0.4345 -1.0146
  587MOL0     C80905   0.230  10.723   5.270  1.0033  0.0901 -0.3886
  587MOL0     C80906   0.076  10.735   5.235 -0.3740  1.1694  0.0684
  587MOL0     C80907  -0.003  10.632   5.308  0.5448 -0.1538  0.8849
  587MOL0     C80908  -0.011  10.665   5.463 -0.6896  0.4577 -0.7353
  587MOL0     C80909  -0.140  10.608   5.538 -0.1560 -0.8407 -0.2000
  587MOL0     C80910  -0.272  10.639   5.469  0.7563 -1.4014 -0.3664
  587MOL0     C80911  -0.368  10.575   5.563 -1.1772  0.1572 -0.2095
  587MOL0     C80912  -0.506  10.602   5.523 -0.2646  0.6911 -0.2124
  587MOL0    Cl80913  -0.557  10.510   5.376  0.5997 -0.2119  0.0068
  587MOL0     C80914   0.474  10.978   5.194  0.1007  0.0138  0.2013
  587MOL0     C80915   0.607  11.014   5.231 -0.3105  0.7574  0.2157
  587MOL0     O80916   0.877  10.922   5.070  0.1612 -0.8646  0.0472
  587MOL0     C80917   1.106  10.972   5.329 -0.8949  0.7293 -0.1889
  587MOL0     C80918   1.240  10.996   5.350 -0.1301 -0.0885 -0.3632
  587MOL0     N80919   1.672  10.537   5.250  0.0521 -0.3164 -0.1062
  587MOL0     N80920   1.576  10.480   5.187  0.8132 -0.1253 -1.4878
  587MOL0     C80921   1.030   9.656   5.116  0.1666 -0.1075 -0.7782
  587MOL0     C80922   1.040   9.608   5.248  0.3903 -0.2258 -0.1016
  587MOL0     C80923   1.187   9.322   5.583 -0.6805 -0.0007 -0.1381
  587MOL0     C80924   1.199   9.183   5.618  0.6117 -0.1271  0.1712
  587MOL0     C80925   1.246   9.145   5.744  0.0831 -0.3241 -0.7903
  587MOL0     C80926   1.285   9.246   5.835  0.1006  0.6279 -0.4841
  587MOL0     O80927   1.328   9.235   5.954  0.4088  0.7582 -0.7124
  587MOL0     C80928   1.235   9.279   6.069 -0.6834 -0.0564  0.2522
  587MOL0     C80929   1.266   9.202   6.192  1.4654 -1.5572 -0.5961
  587MOL0     C80930   1.187   9.255   6.318 -0.0962  1.3308  0.7217
  587MOL0     C80931   1.214   9.153   6.442 -0.4806 -0.2753  0.4248
  587MOL0     C80932   1.354   9.175   6.503  0.0429  0.5149 -0.5856
  587MOL0     C80933   1.461   9.209   6.561 -0.3315 -0.0690  0.0647
  587MOL0     C80934   1.290   9.375   5.794 -0.3233 -0.5531 -0.4390
  587MOL0     C80935   1.242   9.419   5.671  0.8787 -0.2103 -0.6379
  587MOL0     C80936   1.256   9.572   5.660 -0.3001  0.2658  0.2834
  587MOL0     H80937   1.280   9.372   5.177  3.2341  1.9902 -2.5216
  587MOL0     H80938   1.258   9.442   4.971 -0.0803  0.3427 -1.4165
  587MOL0     H80939   1.233   9.771   4.773 -0.4702  0.6426  0.2760
  587MOL0     H80940   1.311   9.730   4.922 -0.9251 -2.8090  1.5738
  587MOL0     H80941   1.058   9.894   4.908 -2.1649 -0.4829  1.4419
  587MOL0     H80942   1.148   9.882   5.059  1.9142 -0.1987 -0.7367
  587MOL0     H80943   1.238  10.042   4.826  1.3390 -1.4298 -0.7414
  587MOL0     H80944   1.190  10.106   4.979  0.0755 -1.0469  0.6923
  587MOL0     H80945   1.359   9.954   5.090 -3.1075 -6.2913 -2.3528
  587MOL0     H80946   1.432   9.924   4.936 -1.0759 -0.4792  0.9116
  587MOL0     H80947   1.572  10.110   5.015  1.1816  0.9847 -2.0909
  587MOL0     H80948   1.418  10.190   5.065  0.2810  1.0924 -1.2827
  587MOL0     H80949   1.528  10.150   4.782  1.0703  0.7636 -0.8143
  587MOL0     H80950   1.373  10.234   4.827  1.0335  3.5622 -0.4440
  587MOL0     H80951   1.597  10.349   4.777 -0.4017 -0.1220 -1.6133
  587MOL0     H80952   1.652  10.303   4.939  1.5395  3.5082 -1.5865
  587MOL0     H80953   1.489  10.518   4.868  1.2759  0.9092  0.6944
  587MOL0     H80954   1.395  10.434   4.981 -0.1344  1.3086 -0.0896
  587MOL0     H80955   1.734  10.643   4.951 -0.7976  1.2930  1.0014
  587MOL0     H80956   1.934  10.684   5.140 -1.3566  0.1959 -2.8707
  587MOL0     H80957   1.871  10.711   5.301  2.8852 -0.5979 -1.1769
  587MOL0     H80958   1.902  10.902   5.141 -0.5573  0.5320 -2.2906
  587MOL0     H80959   1.765  10.832   5.046 -2.9416 -2.7018  1.3832
  587MOL0     H80960   1.729  10.896   5.337  0.0034  1.2009  0.8647
  587MOL0     H80961   1.745  11.025   5.235 -0.0380 -0.4088  1.5415
  587MOL0     H80962   1.575  10.972   5.091  3.0221 -1.2707 -1.1121
  587MOL0     H80963   1.546  10.810   5.159  1.8829 -0.5106  0.5919
  587MOL0     H80964   1.351  10.833   5.077  0.2980 -0.6378  1.5035
  587MOL0     H80965   1.192  10.733   4.946 -0.3822 -1.1801  1.4274
  587MOL0     H80966   1.126  10.904   4.904  1.2134 -0.9617 -1.7279
  587MOL0     H80967   1.030  10.778   4.958 -0.0293  1.3810 -1.0650
  587MOL0     H80968   0.727  10.710   5.337  1.0855 -0.6073 -1.7604
  587MOL0     H80969   0.483  10.651   5.300 -0.5826  0.9470  0.9296
  587MOL0     H80970   0.264  10.628   5.227 -0.8324  0.2560 -2.3939
  587MOL0     H80971   0.225  10.739   5.378 -4.3153  0.2741 -0.4101
  587MOL0     H80972   0.035  10.836   5.243 -2.7351  0.7107 -3.8295
  587MOL0     H80973   0.077  10.715   5.127  0.4136 -0.1543  0.2980
  587MOL0     H80974   0.037  10.532   5.292 -1.0705 -0.5760 -0.7769
  587MOL0     H80975  -0.102  10.630   5.260 -0.5166  1.1533  2.8873
  587MOL0     H80976  -0.013  10.774   5.471 -0.2694  0.4890 -1.0737
  587MOL0     H80977   0.078  10.629   5.515 -2.9126 -1.9507  1.7497
  587MOL0     H80978  -0.133  10.500   5.550 -0.5887 -0.8513 -0.0221
  587MOL0     H80979  -0.128  10.638   5.643  2.8385 -2.4303  0.0099
  587MOL0     H80980  -0.269  10.585   5.373  2.0776 -1.2058 -0.4604
  587MOL0     H80981  -0.295  10.746   5.461  2.0360 -0.9866  1.1250
  587MOL0     H80982  -0.359  10.625   5.660 -0.1616  0.9477 -0.6931
  587MOL0     H80983  -0.347  10.468   5.573  2.1004  0.6577 -0.5334
  587MOL0     H80984  -0.509  10.711   5.508  0.9382  1.0935  2.0352
  587MOL0     H80985  -0.571  10.573   5.606  1.0316  1.5937  1.1783
  587MOL0     H80986   0.409  11.055   5.151 -1.4198 -0.7185  1.1035
  587MOL0     H80987   0.648  11.114   5.217  0.3108  0.3576 -0.9756
  587MOL0     H80988   1.036  11.013   5.401 -0.6962  0.6072  0.0760
  587MOL0     H80989   1.276  11.032   5.447 -2.8012 -5.2329  2.9929
  587MOL0     H80990   0.957   9.732   5.093 -1.1826 -0.4500  2.0431
  587MOL0     H80991   0.984   9.652   5.331  0.4901 -1.5156  0.6780
  587MOL0     H80992   1.144   9.109   5.560 -1.9053  2.7931 -1.4659
  587MOL0     H80993   1.230   9.041   5.771 -3.2134  0.1699 -0.4470
  587MOL0     H80994   1.260   9.382   6.094 -0.8773 -0.6219  3.1781
  587MOL0     H80995   1.131   9.267   6.037 -0.4194 -1.5854 -0.1139
  587MOL0     H80996   1.373   9.208   6.211  0.9012  3.4590  2.8134
  587MOL0     H80997   1.211   9.109   6.170 -1.5925 -0.5152  1.9396
  587MOL0     H80998   1.228   9.355   6.335  1.5192  0.3682  3.0145
  587MOL0     H80999   1.080   9.275   6.314 -0.5674 -0.9487 -0.1671
  587MOL0     H81000   1.187   9.052   6.410  0.0711 -0.1810 -0.3882
  587MOL0     H81001   1.143   9.168   6.523  1.3294 -0.5754  2.1540
  587MOL0     H81002   1.546   9.257   6.603 -0.1214  0.4129 -0.8828
  587MOL0     H81003   1.341   9.436   5.867  0.9113 -0.6340 -1.2141
  587MOL0     H81004   1.331   9.614   5.727 -1.9131 -0.1896  2.5206
  587MOL0     H81005   1.286   9.609   5.562 -2.7112  1.7116  0.0007
  587MOL0     H81006   1.161   9.620   5.687  1.0189  1.5799  2.9562
  588MOL0     O81007   0.329   8.396   8.511 -0.2829 -0.4403  0.2973
  588MOL0     C81008   0.318   8.369   8.391  0.7434  0.1423 -1.3399
  588MOL0     O81009   0.231   8.432   8.305  0.5131 -0.4277 -0.5333
  588MOL0     C81010   0.193   8.562   8.337  0.0835  0.5071  0.3004
  588MOL0     C81011   0.272   8.654   8.271 -0.3217  0.5888 -1.0301
  588MOL0     C81012   0.224   8.789   8.262 -1.3655  0.8976  0.0996
  588MOL0     C81013   0.093   8.822   8.303 -0.6582 -0.0211  0.1168
  588MOL0     O81014   0.028   8.941   8.282  0.7075 -0.4953  0.3092
  588MOL0     C81015   0.113   9.044   8.336 -0.3165 -1.5177  0.1878
  588MOL0     C81016   0.016   9.148   8.396 -0.6051 -0.6965  0.1350
  588MOL0     C81017  -0.012   9.258   8.293  0.8315  0.4192  0.9376
  588MOL0     C81018  -0.127   9.361   8.314 -0.6056 -1.1996 -0.2093
  588MOL0     C81019  -0.263   9.289   8.303  0.2432  0.1598  0.1017
  588MOL0     C81020  -0.361   9.404   8.344  0.3440 -0.6419  0.5823
  588MOL0     C81021  -0.506   9.361   8.366  0.1141 -0.0814 -1.1050
  588MOL0     C81022  -0.586   9.355   8.242 -0.2201  0.0009  0.1554
  588MOL0     N81023  -0.605   9.472   8.159  0.2643 -0.0313 -0.3584
  588MOL0     C81024  -0.534   9.508   8.053 -1.0609  0.0886 -0.5395
  588MOL0     C81025  -0.607   9.613   7.999 -0.0117 -0.0294 -0.0373
  588MOL0     C81026  -0.586   9.677   7.857  1.1836  0.2823 -0.5259
  588MOL0     C81027  -0.642   9.817   7.843 -0.4000 -0.0450  0.4005
  588MOL0     C81028  -0.799   9.819   7.818  0.1379 -0.9479  1.3713
  588MOL0     C81029  -0.857   9.959   7.825 -0.6616 -0.4784  0.4277
  588MOL0     O81030  -0.989   9.959   7.767 -0.5127 -0.5279 -0.1632
  588MOL0     C81031  -1.069  10.070   7.780 -0.0695  0.0874 -0.3479
  588MOL0     C81032  -1.159  10.097   7.679  0.0958  0.0970 -0.8335
  588MOL0     C81033  -1.250  10.203   7.684 -0.1616  0.2577 -0.0008
  588MOL0     C81034  -1.346  10.206   7.558  0.9629  0.3554  0.0386
  588MOL0     C81035  -1.246  10.290   7.795  0.2223  0.2625 -0.3746
  588MOL0     C81036  -1.329  10.413   7.803  0.1182 -0.5838 -0.0148
  588MOL0     O81037  -1.433  10.428   7.719  0.0529  0.1472  0.9192
  588MOL0     C81038  -1.525  10.522   7.732 -0.2881  1.0404 -0.1796
  588MOL0     C81039  -1.596  10.541   7.847  0.7808 -0.3680 -0.3274
  588MOL0     C81040  -1.691  10.641   7.867 -0.9206 -0.0350  0.1469
  588MOL0     C81041  -1.740  10.722   7.756 -0.0883  1.3332  0.3122
  588MOL0     O81042  -1.827  10.817   7.783  1.1327  0.1761 -0.2625
  588MOL0     C81043  -1.943  10.799   7.866  0.6172  0.1064 -0.5417
  588MOL0     C81044  -2.004  10.935   7.883  0.3813 -0.0874  0.4434
  588MOL0     C81045  -1.943  11.037   7.992  0.2036  0.9207 -0.4071
  588MOL0     C81046  -2.039  11.149   8.023  0.1240  0.0129 -0.7648
  588MOL0     C81047  -1.964  11.276   8.027  0.2692 -1.1880 -0.2958
  588MOL0     C81048  -2.045  11.406   8.074  0.0992  0.4931  0.0050
  588MOL0     C81049  -2.049  11.403   8.231 -0.3364  0.4921  0.7427
  588MOL0     C81050  -2.131  11.521   8.284  1.0637 -0.6837  0.3505
  588MOL0    Cl81051  -2.274  11.444   8.365 -0.2226 -0.1219  0.1742
  588MOL0     C81052  -1.663  10.707   7.640 -0.7332 -0.2389 -0.2219
  588MOL0     C81053  -1.561  10.606   7.629  0.0256  0.4896 -0.0945
  588MOL0     O81054  -1.298  10.499   7.894 -0.2793  0.6769  0.1127
  588MOL0     C81055  -1.151  10.269   7.896 -0.6263 -0.0058 -0.3786
  588MOL0     C81056  -1.060  10.164   7.884  0.5269  0.5126 -0.4390
  588MOL0     N81057  -0.714   9.644   8.078 -1.4774  0.5628  0.6263
  588MOL0     N81058  -0.717   9.556   8.174 -0.1645 -0.3440  0.1486
  588MOL0     C81059   0.021   8.730   8.379  0.6986  0.7781  0.2903
  588MOL0     C81060   0.078   8.601   8.392 -0.2639 -0.3629  0.7406
  588MOL0     C81061   0.399   8.259   8.320 -0.1022 -0.4424  0.2482
  588MOL0     C81062   0.423   8.269   8.181 -0.4995  0.3100 -0.3279
  588MOL0     C81063   0.479   8.159   8.111  0.3367 -0.2869 -0.0474
  588MOL0     C81064   0.535   8.052   8.178 -0.2050  0.9714  0.7243
  588MOL0     O81065   0.600   7.968   8.090 -0.7181  0.9323  0.4193
  588MOL0     C81066   0.632   7.844   8.144  0.1549  0.3241 -0.2692
  588MOL0     C81067   0.675   7.757   8.025 -1.0466 -0.0178  0.2765
  588MOL0     C81068   0.582   7.754   7.901  0.4954  0.4084 -0.2654
  588MOL0     C81069   0.626   7.661   7.790  0.2026 -0.1271 -0.1445
  588MOL0     C81070   0.743   7.705   7.711  0.8587  0.0423  0.4169
  588MOL0     C81071   0.823   7.756   7.642 -0.1483  0.7648 -0.3382
  588MOL0     C81072   0.512   8.051   8.316  1.0175 -0.2421  0.6400
  588MOL0     C81073   0.432   8.142   8.387 -0.7744 -0.1598  0.7226
  588MOL0     C81074   0.404   8.121   8.533 -0.9357  0.3051 -0.1640
  588MOL0     H81075   0.373   8.642   8.233  0.4765  2.1649  0.4627
  588MOL0     H81076   0.278   8.867   8.209 -2.4021  1.3608 -0.3106
  588MOL0     H81077   0.175   9.091   8.260 -2.8955  3.3235  0.7253
  588MOL0     H81078   0.173   9.004   8.418  1.3240  0.4597  0.0367
  588MOL0     H81079  -0.075   9.101   8.435  0.1536 -2.2851  0.0454
  588MOL0     H81080   0.065   9.202   8.478 -0.7467 -3.0943  1.9255
  588MOL0     H81081   0.081   9.312   8.280  0.0455  1.0841 -2.8234
  588MOL0     H81082  -0.028   9.196   8.204  0.2472  2.2116 -0.2568
  588MOL0     H81083  -0.115   9.413   8.409 -3.6734  0.4065 -0.5749
  588MOL0     H81084  -0.123   9.445   8.245 -1.6195  0.1897  1.3474
  588MOL0     H81085  -0.266   9.222   8.388  0.8640  3.3237  2.8321
  588MOL0     H81086  -0.276   9.244   8.204  0.0561 -1.8467  1.0037
  588MOL0     H81087  -0.335   9.466   8.430 -1.6072 -1.8106  2.0919
  588MOL0     H81088  -0.367   9.474   8.260 -2.9511  0.1697  1.3608
  588MOL0     H81089  -0.544   9.431   8.440 -2.1279 -4.4212  2.2839
  588MOL0     H81090  -0.512   9.260   8.407 -0.5891  0.5162  0.2866
  588MOL0     H81091  -0.540   9.277   8.181  2.2693 -0.5117  2.4964
  588MOL0     H81092  -0.686   9.319   8.267 -0.9860 -0.6232 -3.2631
  588MOL0     H81093  -0.445   9.456   8.019 -2.0487 -1.3346 -1.0799
  588MOL0     H81094  -0.640   9.625   7.777  0.2315  1.4268 -0.6571
  588MOL0     H81095  -0.478   9.691   7.844  1.6161 -1.2669  1.0382
  588MOL0     H81096  -0.621   9.868   7.938 -4.1219  2.7609 -0.0790
  588MOL0     H81097  -0.582   9.862   7.764  0.6891  2.0327  2.3151
  588MOL0     H81098  -0.819   9.770   7.722 -4.7641  0.0007  1.6518
  588MOL0     H81099  -0.849   9.753   7.889  0.2711 -1.5134  0.9529
  588MOL0     H81100  -0.856   9.979   7.932  0.2182  0.1118  0.3235
  588MOL0     H81101  -0.802  10.033   7.765 -3.4927 -0.8005 -2.8736
  588MOL0     H81102  -1.180  10.019   7.607 -3.0839 -1.0996  1.1668
  588MOL0     H81103  -1.340  10.304   7.509 -0.8496  0.4550 -0.0825
  588MOL0     H81104  -1.450  10.183   7.586  0.0674  2.7735 -0.9940
  588MOL0     H81105  -1.327  10.131   7.481 -0.4010  1.5532 -1.5638
  588MOL0     H81106  -1.561  10.477   7.928  1.3464  0.8739  0.4496
  588MOL0     H81107  -1.720  10.651   7.971  2.2990  0.4572  1.1287
  588MOL0     H81108  -2.023  10.737   7.824 -0.4115 -0.8227  2.4905
  588MOL0     H81109  -1.916  10.757   7.964 -0.3837 -1.1283 -0.7555
  588MOL0     H81110  -2.003  10.997   7.793  1.2332 -1.4042 -0.5057
  588MOL0     H81111  -2.108  10.914   7.909  0.6416 -2.9392 -0.5005
  588MOL0     H81112  -1.847  11.075   7.955 -1.2040  3.9803 -1.1665
  588MOL0     H81113  -1.918  10.982   8.084  3.6463  2.7696 -0.0698
  588MOL0     H81114  -2.084  11.137   8.122 -2.1559 -0.7390 -1.8086
  588MOL0     H81115  -2.116  11.156   7.945 -3.3017 -1.4906  2.2036
  588MOL0     H81116  -1.873  11.258   8.084  0.3732  1.5538  0.5709
  588MOL0     H81117  -1.933  11.298   7.924 -0.8604  2.9022  0.0636
  588MOL0     H81118  -2.146  11.405   8.035 -0.0849 -0.1023  0.4887
  588MOL0     H81119  -1.997  11.502   8.049  3.6039 -1.6229 -2.1802
  588MOL0     H81120  -1.943  11.420   8.254 -0.2856  3.7493 -1.2333
  588MOL0     H81121  -2.089  11.307   8.264 -2.5127  0.6987 -1.0730
  588MOL0     H81122  -2.167  11.576   8.197 -1.8385 -1.3730  0.9943
  588MOL0     H81123  -2.083  11.592   8.351 -0.3513  1.2340 -0.5820
  588MOL0     H81124  -1.691  10.776   7.561 -0.4051  1.8605  1.4402
  588MOL0     H81125  -1.506  10.605   7.536 -3.3524 -2.4483 -2.2949
  588MOL0     H81126  -1.145  10.336   7.981 -0.9000 -1.9681  1.2566
  588MOL0     H81127  -0.986  10.141   7.959  0.1635 -0.6013 -0.4101
  588MOL0     H81128  -0.073   8.760   8.422  0.7384 -1.4763  2.1239
  588MOL0     H81129   0.016   8.529   8.445  1.2934 -0.0485  3.1787
  588MOL0     H81130   0.391   8.359   8.131 -2.2943  0.4110  0.9201
  588MOL0     H81131   0.481   8.170   8.003  0.4159 -3.9256 -0.5404
  588MOL0     H81132   0.716   7.846   8.214  0.1704 -1.0485 -0.2257
  588MOL0     H81133   0.545   7.800   8.193 -1.4147  2.3478 -1.1034
  588MOL0     H81134   0.687   7.655   8.062  0.5801  0.4916  1.2619
  588MOL0     H81135   0.772   7.794   7.991 -1.0731 -2.8104 -3.3781
  588MOL0     H81136   0.485   7.710   7.926  1.8652 -1.4713  2.2127
  588MOL0     H81137   0.558   7.857   7.873  0.0849  0.6861  1.0146
  588MOL0     H81138   0.547   7.668   7.715 -1.4598  1.5543  1.6480
  588MOL0     H81139   0.650   7.559   7.825  0.2138 -0.0145  0.1804
  588MOL0     H81140   0.888   7.815   7.581  1.8926  1.0675  1.9376
  588MOL0     H81141   0.554   7.961   8.361  0.0368 -1.6016 -1.0345
  588MOL0     H81142   0.300   8.149   8.553 -0.3729  0.8976  2.2911
  588MOL0     H81143   0.445   8.022   8.556 -0.1123  0.9742  1.3827
  588MOL0     H81144   0.475   8.189   8.581 -0.9690 -0.5826  1.1970
  589MOL0     O81145   2.352   2.369   8.790 -0.4388 -0.3908 -0.5156
  589MOL0     C81146   2.472   2.368   8.785  0.6535  0.0867  0.1139
  589MOL0     O81147   2.548   2.387   8.889  0.0028 -0.0108  0.9208
  589MOL0     C81148   2.473   2.405   9.003  0.1642 -0.4287  0.1277
  589MOL0     C81149   2.492   2.318   9.115 -0.2089 -0.7662  0.0720
  589MOL0     C81150   2.430   2.342   9.235 -0.0508  0.1080 -0.1376
  589MOL0     C81151   2.322   2.438   9.249 -0.5430  0.3635 -0.5890
  589MOL0     O81152   2.248   2.458   9.361 -0.4636  0.0097  0.5149
  589MOL0     C81153   2.316   2.457   9.478  0.4231  0.2673 -0.2375
  589MOL0     C81154   2.233   2.528   9.580  0.1047  0.8232  0.0685
  589MOL0     C81155   2.304   2.533   9.718 -0.7608 -0.5690  0.4895
  589MOL0     C81156   2.197   2.567   9.819  0.0003  0.5220 -0.0062
  589MOL0     C81157   2.243   2.591   9.971  0.6003  0.1239 -0.7908
  589MOL0     C81158   2.360   2.676   9.984  0.0760  0.5065  0.6266
  589MOL0     C81159   2.378   2.741  10.128 -0.9301  1.4607 -0.2452
  589MOL0     C81160   2.415   2.638  10.239  0.0275 -0.4900  0.0820
  589MOL0     N81161   2.417   2.723  10.361 -0.6218 -0.7706 -0.0960
  589MOL0     C81162   2.304   2.771  10.427 -1.3373  0.5340 -0.8912
  589MOL0     C81163   2.359   2.863  10.521 -0.5590  0.2852  0.1613
  589MOL0     C81164   2.275   2.944  10.626  2.0316 -0.2829 -0.0956
  589MOL0     C81165   2.306   3.092  10.617  0.3360 -0.1369 -0.3063
  589MOL0     C81166   2.368   3.159  10.753 -0.0481  0.5035 -0.4830
  589MOL0     C81167   2.508   3.110  10.779  0.5478 -0.5315 -1.4817
  589MOL0     O81168   2.581   3.179  10.886  0.2413  0.0179 -0.3861
  589MOL0     C81169   2.558   3.151  11.020 -0.7323 -0.7636 -0.5167
  589MOL0     C81170   2.620   3.244  11.113  0.4560 -0.2841  0.6562
  589MOL0     C81171   2.599   3.237  11.250  0.0133  0.0057 -0.8403
  589MOL0     C81172   2.660   3.350  11.336 -0.7824 -0.4551  0.4960
  589MOL0     C81173   2.503   3.145  11.295 -0.5508 -0.5871 -0.2901
  589MOL0     C81174   2.445   3.134  11.434 -0.5049 -0.0829 -0.2465
  589MOL0     O81175   2.396   3.015  11.475 -0.1033 -0.0490  0.5184
  589MOL0     C81176   2.318   2.998  11.586 -0.2532  0.4587 -1.0076
  589MOL0     C81177   2.197   3.071  11.606  0.3466  0.0403  0.5231
  589MOL0     C81178   2.115   3.034  11.708  0.2592 -0.2388  0.2185
  589MOL0     C81179   2.140   2.936  11.792  0.0424  0.6230  0.2021
  589MOL0     O81180   2.050   2.913  11.896  0.5100 -0.5494  0.3334
  589MOL0     C81181   2.075   2.805  11.984  0.4904 -0.2122 -0.9911
  589MOL0     C81182   1.971   2.791  12.086  0.3819  0.4124 -0.3237
  589MOL0     C81183   2.019   2.868  12.208  0.6496  0.0580  0.9939
  589MOL0     C81184   1.919   2.902  12.308  0.6391  0.0306 -0.0150
  589MOL0     C81185   1.891   2.789  12.408 -0.6895 -0.1342 -0.0723
  589MOL0     C81186   1.766   2.832  12.486  1.2348  0.4330 -0.9239
  589MOL0     C81187   1.722   2.751  12.610  1.2254 -0.1657  0.2037
  589MOL0     C81188   1.587   2.819  12.649  0.1447  0.1326 -0.0399
  589MOL0    Cl81189   1.503   2.728  12.774  0.6143 -0.1873  0.7770
  589MOL0     C81190   2.266   2.867  11.777  0.2957  0.4827 -0.0517
  589MOL0     C81191   2.355   2.898  11.677 -0.4651 -0.1719 -0.6824
  589MOL0     O81192   2.443   3.233  11.502  0.2243  0.2459  0.2355
  589MOL0     C81193   2.443   3.054  11.202  0.1383 -0.0376 -0.2494
  589MOL0     C81194   2.474   3.056  11.069  0.4354 -0.2626  0.0624
  589MOL0     N81195   2.502   2.858  10.507  0.4926  1.0291  0.3901
  589MOL0     N81196   2.530   2.777  10.408  0.4240 -0.5747  0.0408
  589MOL0     C81197   2.300   2.532   9.146 -0.0084  0.0388  0.9735
  589MOL0     C81198   2.375   2.517   9.026 -1.1616  0.1311  0.8854
  589MOL0     C81199   2.537   2.334   8.649 -0.1102 -0.0404 -0.1274
  589MOL0     C81200   2.628   2.223   8.649 -0.2836 -0.6510  0.1694
  589MOL0     C81201   2.675   2.183   8.527 -0.1096  0.5629 -0.0193
  589MOL0     C81202   2.643   2.229   8.402  1.2276 -0.8503  0.6338
  589MOL0     O81203   2.683   2.186   8.281 -0.3974  0.4232 -0.2982
  589MOL0     C81204   2.710   2.046   8.269  0.3627 -0.4995  0.0703
  589MOL0     C81205   2.696   2.010   8.114 -0.1588 -1.2490  0.3172
  589MOL0     C81206   2.817   2.064   8.027  0.4247 -0.7852 -0.1379
  589MOL0     C81207   2.765   2.187   7.949 -0.1753  0.4270  0.7373
  589MOL0     C81208   2.683   2.159   7.825 -0.5402  0.3864  0.0481
  589MOL0     C81209   2.631   2.139   7.715  0.5172 -0.1784  0.5830
  589MOL0     C81210   2.539   2.327   8.410  0.5913  0.7178  0.1290
  589MOL0     C81211   2.475   2.365   8.525 -0.5058  0.1045  0.6466
  589MOL0     C81212   2.353   2.444   8.518  0.1777  0.2862 -0.2902
  589MOL0     H81213   2.558   2.232   9.113 -3.0435 -3.1324  1.0466
  589MOL0     H81214   2.439   2.275   9.320  1.3038  1.8848  1.2008
  589MOL0     H81215   2.390   2.534   9.455  0.2669  0.4679 -0.0651
  589MOL0     H81216   2.344   2.356   9.508 -3.2225 -0.4954  1.0695
  589MOL0     H81217   2.211   2.631   9.548  0.8894  0.3949 -2.0342
  589MOL0     H81218   2.144   2.465   9.582  0.0057  0.9847  0.9392
  589MOL0     H81219   2.338   2.434   9.750  1.9877  0.0734 -0.2194
  589MOL0     H81220   2.393   2.597   9.719  0.7685 -2.5899 -0.2021
  589MOL0     H81221   2.145   2.657   9.783 -1.6730 -0.1597  0.5766
  589MOL0     H81222   2.121   2.488   9.818  1.5883 -1.0781  0.5785
  589MOL0     H81223   2.271   2.499  10.022 -0.2721  1.1023  1.6162
  589MOL0     H81224   2.160   2.631  10.030  1.6590 -2.8615  3.2100
  589MOL0     H81225   2.445   2.625   9.936 -1.7732  0.6125 -3.1437
  589MOL0     H81226   2.353   2.768   9.924 -2.0383  1.1891  1.8184
  589MOL0     H81227   2.281   2.789  10.146 -1.3077  0.2352  1.1423
  589MOL0     H81228   2.457   2.816  10.119  1.2689 -0.8844 -1.7518
  589MOL0     H81229   2.337   2.562  10.244  0.3691 -0.8116  0.6692
  589MOL0     H81230   2.515   2.598  10.221  0.1400 -0.5937  0.8633
  589MOL0     H81231   2.200   2.749  10.404 -1.0263 -1.9022 -0.2676
  589MOL0     H81232   2.298   2.910  10.728  1.4604  1.0037  0.4821
  589MOL0     H81233   2.170   2.934  10.600  1.8186 -1.2379  1.0398
  589MOL0     H81234   2.368   3.119  10.532 -2.1412  0.1726 -2.1370
  589MOL0     H81235   2.209   3.140  10.597 -0.5866 -1.7517  0.1212
  589MOL0     H81236   2.358   3.268  10.746 -2.5327  0.4175  0.6766
  589MOL0     H81237   2.301   3.129  10.834 -2.5501  3.1144 -1.3946
  589MOL0     H81238   2.504   3.003  10.802 -1.0744 -0.2374 -0.2139
  589MOL0     H81239   2.562   3.113  10.684  0.5860  3.7860 -1.5242
  589MOL0     H81240   2.672   3.331  11.076 -1.4322  0.5860 -0.0817
  589MOL0     H81241   2.705   3.316  11.430 -1.2551 -2.5074  0.0374
  589MOL0     H81242   2.589   3.425  11.370 -1.6184 -1.5230  1.1677
  589MOL0     H81243   2.729   3.413  11.279 -1.0722  0.8438  1.5444
  589MOL0     H81244   2.159   3.136  11.527  2.9765 -1.7922 -2.4759
  589MOL0     H81245   2.027   3.096  11.716  0.6588  0.2699  0.8044
  589MOL0     H81246   2.059   2.715  11.925  2.7696 -0.5119 -1.2381
  589MOL0     H81247   2.170   2.819  12.037  0.6531 -0.8925 -1.0929
  589MOL0     H81248   1.870   2.814  12.053 -0.9439 -0.6738  2.7097
  589MOL0     H81249   1.963   2.685  12.112  1.3385  1.0617  2.9961
  589MOL0     H81250   2.055   2.964  12.169 -1.0425  0.2616 -0.1680
  589MOL0     H81251   2.096   2.815  12.265 -1.6830 -1.3072  3.0539
  589MOL0     H81252   1.833   2.936  12.249  1.7130 -0.5640 -1.9791
  589MOL0     H81253   1.961   2.986  12.364  1.5242 -2.0470  2.6349
  589MOL0     H81254   1.869   2.696  12.355 -0.6542 -1.2342  1.7612
  589MOL0     H81255   1.972   2.761  12.476 -0.5909 -3.1367 -1.2667
  589MOL0     H81256   1.679   2.834  12.419  1.8319  1.3617 -1.7063
  589MOL0     H81257   1.776   2.935  12.522  2.1040 -0.1642  0.6397
  589MOL0     H81258   1.797   2.770  12.687  0.3901 -0.4701  1.1116
  589MOL0     H81259   1.713   2.647  12.577 -4.5425  0.7615 -2.3165
  589MOL0     H81260   1.523   2.827  12.560 -0.4320  0.9323  0.4410
  589MOL0     H81261   1.606   2.919  12.687 -1.4228  0.9914 -1.3902
  589MOL0     H81262   2.292   2.783  11.840  0.4777  2.2461  2.3450
  589MOL0     H81263   2.445   2.838  11.676 -0.2230 -0.0661  2.8247
  589MOL0     H81264   2.360   2.997  11.242  0.4884  0.9777  2.0833
  589MOL0     H81265   2.415   2.996  11.000 -0.0941  0.4596 -0.1252
  589MOL0     H81266   2.234   2.618   9.152  0.2663  0.2623  0.8455
  589MOL0     H81267   2.355   2.576   8.938 -0.9020 -1.9814 -0.6830
  589MOL0     H81268   2.644   2.168   8.741 -1.0495 -2.4480 -0.7258
  589MOL0     H81269   2.745   2.101   8.539  0.6877  1.3385  0.8012
  589MOL0     H81270   2.813   2.020   8.294 -0.2791 -3.4297 -0.0412
  589MOL0     H81271   2.630   1.985   8.313  0.6739 -2.3178 -1.7332
  589MOL0     H81272   2.610   2.054   8.062  1.2773  2.8140  0.9890
  589MOL0     H81273   2.701   1.901   8.116 -1.2621 -1.3074  0.5793
  589MOL0     H81274   2.900   2.090   8.093  0.9538 -0.0715 -1.0721
  589MOL0     H81275   2.853   1.986   7.960  1.9067  0.6663 -1.0983
  589MOL0     H81276   2.861   2.232   7.921  1.7960 -2.5724  2.0934
  589MOL0     H81277   2.714   2.249   8.023  0.5199  1.3637  0.4624
  589MOL0     H81278   2.590   2.130   7.617  0.4540  4.4882 -0.0277
  589MOL0     H81279   2.512   2.352   8.309 -1.8224 -1.2501  0.1960
  589MOL0     H81280   2.351   2.507   8.607  2.1063  3.0628 -2.0285
  589MOL0     H81281   2.346   2.507   8.429  0.9805 -0.0424 -0.6015
  589MOL0     H81282   2.259   2.391   8.528 -2.1640  4.3041  1.2625
  590MOL0     O81283   3.803   4.926   0.816 -0.1895  0.4712 -0.2836
  590MOL0     C81284   3.771   4.817   0.764  0.2051  0.6410  1.2672
  590MOL0     O81285   3.845   4.741   0.670 -0.7571 -0.7581 -0.7031
  590MOL0     C81286   3.955   4.804   0.622 -0.6153  0.4361  0.6587
  590MOL0     C81287   4.089   4.766   0.651  0.4691 -0.1250  0.2917
  590MOL0     C81288   4.195   4.822   0.591 -0.4862 -0.1033 -0.3705
  590MOL0     C81289   4.177   4.928   0.499 -0.7817  0.4650 -0.1194
  590MOL0     O81290   4.297   4.985   0.454  1.4786 -0.1279 -0.6512
  590MOL0     C81291   4.331   4.977   0.323  0.6894 -0.0694  0.7769
  590MOL0     C81292   4.380   5.112   0.264  0.1727 -0.4124  0.2379
  590MOL0     C81293   4.504   5.168   0.339  0.1462  0.0452  0.4308
  590MOL0     C81294   4.618   5.065   0.356  0.5270  0.0507  0.2624
  590MOL0     C81295   4.742   5.127   0.422  0.5035  0.8136  0.0967
  590MOL0     C81296   4.839   5.007   0.452  0.0204 -0.0341 -0.4696
  590MOL0     C81297   4.966   5.069   0.526 -0.4841 -0.2073  0.7493
  590MOL0     C81298   5.075   4.967   0.554  0.4448 -0.1454  0.4217
  590MOL0     N81299   5.137   4.974   0.688 -0.3713 -0.3610 -0.3257
  590MOL0     C81300   5.075   4.916   0.794 -0.7160  0.1172  0.2748
  590MOL0     C81301   5.146   4.956   0.905 -0.1183 -0.4046  0.0926
  590MOL0     C81302   5.105   4.940   1.049 -0.6223  0.0291 -0.7518
  590MOL0     C81303   5.022   5.060   1.112 -0.1444  0.1867 -0.3131
  590MOL0     C81304   5.108   5.184   1.123  0.3205  0.3570  0.4206
  590MOL0     C81305   5.020   5.305   1.165 -0.4788 -0.4261  0.2606
  590MOL0     O81306   4.919   5.333   1.068 -0.7116 -0.7319  0.1464
  590MOL0     C81307   4.817   5.409   1.119 -0.1895  0.1732  0.0895
  590MOL0     C81308   4.843   5.516   1.203  0.9151 -0.1043  0.1154
  590MOL0     C81309   4.726   5.590   1.240  0.5760 -0.7501  0.5280
  590MOL0     C81310   4.755   5.724   1.309  0.0460  0.3671  0.2864
  590MOL0     C81311   4.593   5.550   1.209  0.1537  0.2460  0.4108
  590MOL0     C81312   4.474   5.626   1.250  0.5087 -1.1129 -0.7425
  590MOL0     O81313   4.384   5.626   1.152  0.4406 -0.2688  1.1024
  590MOL0     C81314   4.254   5.671   1.174  0.3266  0.7544 -0.6547
  590MOL0     C81315   4.223   5.787   1.257  0.2845 -0.3812 -0.0205
  590MOL0     C81316   4.091   5.837   1.253 -0.3526 -1.2159 -0.6136
  590MOL0     C81317   3.992   5.773   1.182 -0.0371  0.0039 -0.9772
  590MOL0     O81318   3.866   5.828   1.200 -0.0023 -0.5693  0.1043
  590MOL0     C81319   3.752   5.776   1.135  0.2014  0.7819  0.1443
  590MOL0     C81320   3.621   5.789   1.215 -0.0007 -0.2312 -0.4800
  590MOL0     C81321   3.570   5.655   1.280  0.4203 -1.3054  0.3800
  590MOL0     C81322   3.455   5.662   1.388 -0.2513  0.1909  0.1182
  590MOL0     C81323   3.420   5.507   1.425  0.0148 -1.3202  0.6083
  590MOL0     C81324   3.492   5.444   1.546  1.4209 -0.1825  0.4411
  590MOL0     C81325   3.478   5.293   1.529 -0.2853  0.3448 -1.0860
  590MOL0     C81326   3.535   5.211   1.651 -0.0523 -1.0497 -0.4619
  590MOL0    Cl81327   3.504   5.037   1.626  0.1645  0.0542  0.0285
  590MOL0     C81328   4.014   5.652   1.117  0.2390 -0.3759  0.3333
  590MOL0     C81329   4.142   5.601   1.122 -1.3370  0.1911  0.6811
  590MOL0     O81330   4.462   5.671   1.362 -0.0820 -0.2310 -0.1906
  590MOL0     C81331   4.579   5.442   1.125  0.4204  0.3564 -0.5466
  590MOL0     C81332   4.693   5.368   1.071 -0.3562 -0.1353 -0.2762
  590MOL0     N81333   5.266   5.016   0.855 -0.1270  1.3344  0.5135
  590MOL0     N81334   5.256   5.033   0.729  0.0712  0.3953  0.1053
  590MOL0     C81335   4.047   4.961   0.449 -0.2720  0.6321 -0.7173
  590MOL0     C81336   3.939   4.887   0.508  0.3817 -1.0796  0.2844
  590MOL0     C81337   3.651   4.740   0.805 -0.6220 -0.1445  0.5545
  590MOL0     C81338   3.618   4.735   0.942 -0.2587 -0.0155  0.9085
  590MOL0     C81339   3.494   4.688   0.974  0.0725 -0.4291  0.2656
  590MOL0     C81340   3.403   4.646   0.883 -0.0340  0.1522 -0.5740
  590MOL0     O81341   3.284   4.594   0.914 -0.3198  0.1897 -0.1208
  590MOL0     C81342   3.248   4.572   1.055 -0.5895 -0.4070  0.6023
  590MOL0     C81343   3.110   4.515   1.065  1.3795  0.5033 -0.4002
  590MOL0     C81344   3.003   4.615   1.057  0.1915  0.2492  0.0846
  590MOL0     C81345   3.008   4.726   1.171  0.4785  0.9234 -0.3809
  590MOL0     C81346   3.086   4.840   1.114 -0.3618 -1.0348 -0.0101
  590MOL0     C81347   3.165   4.919   1.069 -1.7815 -1.0858  0.0107
  590MOL0     C81348   3.432   4.645   0.746  0.2632 -0.4339 -0.5778
  590MOL0     C81349   3.556   4.695   0.708  0.7646  0.1783 -0.0223
  590MOL0     C81350   3.565   4.709   0.561 -0.7572 -0.2069  0.5354
  590MOL0     H81351   4.080   4.686   0.724 -2.2285 -1.9394 -1.8346
  590MOL0     H81352   4.298   4.789   0.596  1.3246  4.8482  0.6539
  590MOL0     H81353   4.241   4.954   0.265  1.3221  0.6003 -0.5239
  590MOL0     H81354   4.402   4.896   0.299  0.1298  0.6567 -4.6012
  590MOL0     H81355   4.413   5.090   0.162 -2.2591 -4.3429  0.1180
  590MOL0     H81356   4.302   5.188   0.275 -0.3042 -1.0416  1.3021
  590MOL0     H81357   4.546   5.247   0.277 -0.7812 -0.7410 -1.2429
  590MOL0     H81358   4.486   5.212   0.438  3.3379 -2.9463  2.5880
  590MOL0     H81359   4.592   4.975   0.413  0.2070 -0.1678 -0.2193
  590MOL0     H81360   4.650   5.032   0.256 -0.0209 -0.9953  0.4170
  590MOL0     H81361   4.713   5.184   0.510 -2.9369  1.2265 -1.1419
  590MOL0     H81362   4.790   5.195   0.351 -0.3477  2.6920  1.2435
  590MOL0     H81363   4.787   4.927   0.505 -1.4751  1.1912 -0.0160
  590MOL0     H81364   4.879   4.970   0.357 -0.7208 -0.0420 -0.7851
  590MOL0     H81365   4.943   5.105   0.626 -0.7401 -2.3464  1.5040
  590MOL0     H81366   5.002   5.158   0.473 -0.6722 -0.7810 -0.3695
  590MOL0     H81367   5.029   4.868   0.540 -3.1143  0.9038  3.0293
  590MOL0     H81368   5.153   4.975   0.478  0.5779 -0.7408  0.4845
  590MOL0     H81369   4.992   4.847   0.795  2.3154 -3.9120  1.5309
  590MOL0     H81370   5.201   4.935   1.100 -0.6503  5.4554  0.3758
  590MOL0     H81371   5.041   4.851   1.054  0.4930 -0.7767 -0.5099
  590MOL0     H81372   4.935   5.073   1.046 -1.0520  0.8931  0.9752
  590MOL0     H81373   4.994   5.034   1.215  5.2266  1.7292  1.8757
  590MOL0     H81374   5.190   5.170   1.193  2.5594  6.2152 -0.4797
  590MOL0     H81375   5.157   5.196   1.026 -1.2468  0.9388 -0.3418
  590MOL0     H81376   4.975   5.276   1.261  3.6101 -2.4431  1.8156
  590MOL0     H81377   5.091   5.387   1.176 -1.0908  0.4494 -1.9143
  590MOL0     H81378   4.944   5.555   1.212  0.0101  2.3419  0.4845
  590MOL0     H81379   4.747   5.799   1.230 -0.7872  0.7320  0.7098
  590MOL0     H81380   4.858   5.722   1.347 -0.2378  1.2367  1.1503
  590MOL0     H81381   4.685   5.750   1.389 -0.5978  1.0440 -0.4807
  590MOL0     H81382   4.298   5.849   1.305 -0.7634  0.7477  0.1871
  590MOL0     H81383   4.068   5.925   1.312 -1.9033 -2.0987  0.1803
  590MOL0     H81384   3.726   5.824   1.040  2.1011 -0.8091 -1.2534
  590MOL0     H81385   3.762   5.668   1.121 -1.1608  0.6929 -0.3051
  590MOL0     H81386   3.628   5.863   1.296  0.2165 -1.8314  1.0269
  590MOL0     H81387   3.542   5.828   1.150 -2.3708 -1.5313  1.4331
  590MOL0     H81388   3.658   5.601   1.315  0.5744 -4.0816 -3.6222
  590MOL0     H81389   3.527   5.590   1.203  2.1887 -1.8891 -0.1477
  590MOL0     H81390   3.362   5.707   1.353 -0.2709 -0.3928 -0.5966
  590MOL0     H81391   3.488   5.722   1.473  2.0395  0.0192 -0.5731
  590MOL0     H81392   3.316   5.510   1.460 -1.1266 -0.2639 -2.4997
  590MOL0     H81393   3.423   5.444   1.335  0.9957 -1.1658  0.5273
  590MOL0     H81394   3.450   5.470   1.644 -1.0287 -2.1665  0.0009
  590MOL0     H81395   3.600   5.464   1.543  1.7976 -2.1319 -1.7423
  590MOL0     H81396   3.531   5.260   1.439  0.9902 -0.2525 -0.1434
  590MOL0     H81397   3.372   5.266   1.526 -0.1309 -0.3519 -0.4638
  590MOL0     H81398   3.470   5.235   1.736 -0.6539  1.6383 -1.5915
  590MOL0     H81399   3.641   5.238   1.663 -0.4927 -0.1100  1.9830
  590MOL0     H81400   3.941   5.594   1.061 -2.4877  1.8704  1.3366
  590MOL0     H81401   4.173   5.511   1.069  1.3611  1.1967  0.4018
  590MOL0     H81402   4.476   5.416   1.104 -0.1920  2.4314 -0.3646
  590MOL0     H81403   4.678   5.281   1.009 -0.8898 -1.8941  2.1684
  590MOL0     H81404   4.034   5.032   0.368 -0.1370  1.7106  0.1796
  590MOL0     H81405   3.839   4.901   0.468  0.9316  1.3390 -0.3736
  590MOL0     H81406   3.680   4.760   1.027 -1.5136 -1.7138  2.3991
  590MOL0     H81407   3.480   4.687   1.081 -3.3070 -0.0093 -0.0399
  590MOL0     H81408   3.323   4.499   1.087 -0.4759 -0.5285  0.0694
  590MOL0     H81409   3.265   4.662   1.114  0.5898  1.0329 -1.7960
  590MOL0     H81410   3.105   4.460   1.160 -0.7215  1.3439  0.0178
  590MOL0     H81411   3.091   4.443   0.985  0.0660 -0.2905  0.5697
  590MOL0     H81412   3.018   4.657   0.957 -0.3913  3.4526  1.2153
  590MOL0     H81413   2.905   4.570   1.072  0.5065 -0.7992 -0.8893
  590MOL0     H81414   3.046   4.678   1.261 -1.7192  0.3690  0.3182
  590MOL0     H81415   2.905   4.755   1.193 -0.1382 -2.9959  2.9953
  590MOL0     H81416   3.252   4.981   1.059 -1.1269 -1.3819  2.8027
  590MOL0     H81417   3.353   4.616   0.677 -1.4079  0.0937  1.0495
  590MOL0     H81418   3.619   4.631   0.507  0.4945  3.2244 -3.8043
  590MOL0     H81419   3.464   4.717   0.519 -0.8740 -0.6544  0.7303
  590MOL0     H81420   3.620   4.798   0.528  0.4339 -0.8613  0.6974
  591MOL0     O81421   4.591   6.843   7.877  0.0291 -1.1019  0.4535
  591MOL0     C81422   4.493   6.838   7.799 -0.2601 -1.1284  0.8553
  591MOL0     O81423   4.496   6.764   7.682 -0.0956  0.1951 -0.1717
  591MOL0     C81424   4.591   6.665   7.682  0.4288  0.5884 -0.3765
  591MOL0     C81425   4.555   6.531   7.680  0.0811  0.2929  0.1065
  591MOL0     C81426   4.649   6.425   7.649 -0.3998 -0.4122 -0.8420
  591MOL0     C81427   4.789   6.455   7.622  0.8486 -1.4301  0.3858
  591MOL0     O81428   4.861   6.350   7.577  0.2867 -0.6872 -0.8507
  591MOL0     C81429   4.982   6.391   7.508  0.3689  0.5805  0.7308
  591MOL0     C81430   5.011   6.255   7.434  0.2310 -1.0157 -0.0450
  591MOL0     C81431   4.909   6.219   7.327  0.1861  0.4429  0.4159
  591MOL0     C81432   4.934   6.300   7.201  0.1502  0.3694 -0.5061
  591MOL0     C81433   4.834   6.273   7.089 -1.3839 -0.7242 -0.4050
  591MOL0     C81434   4.865   6.356   6.965 -0.5963 -0.2910  0.9258
  591MOL0     C81435   4.856   6.275   6.825  0.4416  0.2387  0.2002
  591MOL0     C81436   4.718   6.247   6.772  0.7774 -0.9451  0.0213
  591MOL0     N81437   4.724   6.193   6.637  0.0833  0.4096  0.5066
  591MOL0     C81438   4.614   6.175   6.549  0.3187 -0.4671  0.2368
  591MOL0     C81439   4.660   6.110   6.443 -1.0193  0.5390  0.6024
  591MOL0     C81440   4.577   6.072   6.316 -0.4572 -0.8789 -1.0151
  591MOL0     C81441   4.541   5.930   6.322  0.4730 -0.7785 -0.3516
  591MOL0     C81442   4.497   5.877   6.183 -0.3633  0.2445  0.0567
  591MOL0     C81443   4.596   5.875   6.067 -0.8193 -0.3765  1.2366
  591MOL0     O81444   4.530   5.861   5.943 -0.4264 -1.0076 -0.3435
  591MOL0     C81445   4.576   5.924   5.833  0.4275 -0.3637  0.1064
  591MOL0     C81446   4.679   6.021   5.821  0.4906 -0.0336 -0.1720
  591MOL0     C81447   4.710   6.101   5.713 -0.5521 -0.5411 -0.7861
  591MOL0     C81448   4.824   6.205   5.743  0.4449 -0.2266  0.6151
  591MOL0     C81449   4.631   6.089   5.598  0.1664 -0.0536  0.5861
  591MOL0     C81450   4.664   6.161   5.470  0.2394 -0.0230 -0.4919
  591MOL0     O81451   4.577   6.142   5.369 -0.5812  0.2077 -0.2811
  591MOL0     C81452   4.600   6.218   5.256  1.7082  0.5529 -0.6409
  591MOL0     C81453   4.560   6.351   5.249  0.9292 -0.1688  0.0519
  591MOL0     C81454   4.606   6.425   5.135  0.4456 -0.3833  0.1726
  591MOL0     C81455   4.692   6.369   5.040 -0.5362  0.9956 -0.1285
  591MOL0     O81456   4.734   6.453   4.936  0.2053  1.0753  0.3090
  591MOL0     C81457   4.666   6.425   4.815 -0.1226  0.9235 -0.5327
  591MOL0     C81458   4.730   6.497   4.696  0.4901 -0.5198 -0.8797
  591MOL0     C81459   4.828   6.406   4.624  0.2298  0.1927 -0.4401
  591MOL0     C81460   4.856   6.475   4.485  0.1423  0.8225  0.0045
  591MOL0     C81461   4.924   6.613   4.475  0.4347  1.1638 -0.1942
  591MOL0     C81462   4.923   6.664   4.328 -0.9374 -0.5570  0.0887
  591MOL0     C81463   4.997   6.794   4.313 -0.1911 -0.5233 -0.1225
  591MOL0     C81464   5.148   6.773   4.343 -0.0978  0.1692 -0.1754
  591MOL0    Cl81465   5.239   6.907   4.286 -0.3383  0.1185  0.0750
  591MOL0     C81466   4.718   6.235   5.041 -0.8399  0.7681 -0.2121
  591MOL0     C81467   4.675   6.158   5.155 -0.4187 -0.0533  0.5440
  591MOL0     O81468   4.764   6.231   5.462 -0.0500  1.0336  0.7634
  591MOL0     C81469   4.519   6.006   5.607  1.2949  0.1936 -0.6195
  591MOL0     C81470   4.494   5.919   5.719 -1.1631 -0.3364  0.3630
  591MOL0     N81471   4.800   6.084   6.467  0.0865 -0.1849  1.2237
  591MOL0     N81472   4.835   6.138   6.578 -0.1354 -0.1125  0.6492
  591MOL0     C81473   4.821   6.591   7.638 -0.0494 -0.1728  0.1884
  591MOL0     C81474   4.730   6.693   7.676  0.9889 -0.1989 -0.3726
  591MOL0     C81475   4.371   6.928   7.816 -0.3349 -0.4412 -0.6291
  591MOL0     C81476   4.276   6.943   7.714  1.1342 -0.7596 -0.6915
  591MOL0     C81477   4.171   7.036   7.714  0.3205  1.1516 -0.4336
  591MOL0     C81478   4.159   7.129   7.817  0.6237 -0.3419 -0.0951
  591MOL0     O81479   4.060   7.223   7.811  0.5001 -0.9914  0.6347
  591MOL0     C81480   4.102   7.351   7.863  0.0183 -1.4391 -0.5480
  591MOL0     C81481   3.983   7.446   7.848 -0.6979 -0.1129  0.3806
  591MOL0     C81482   4.004   7.591   7.897 -0.1907  0.5945  0.3756
  591MOL0     C81483   3.872   7.668   7.923 -0.0076  0.1308  0.0629
  591MOL0     C81484   3.887   7.804   7.982 -0.7453  0.6036  1.0438
  591MOL0     C81485   3.911   7.915   8.023  0.0653  0.1414  0.0326
  591MOL0     C81486   4.247   7.105   7.929 -0.6814 -0.4066 -0.1486
  591MOL0     C81487   4.358   7.017   7.926  0.0228  0.1492 -0.1921
  591MOL0     C81488   4.431   6.997   8.058 -0.5411 -0.0542 -1.0432
  591MOL0     H81489   4.450   6.507   7.697 -0.6754  0.8819 -3.0848
  591MOL0     H81490   4.610   6.330   7.613 -2.3250  0.1310 -0.3434
  591MOL0     H81491   5.066   6.416   7.573  0.2336  2.2952  0.2908
  591MOL0     H81492   4.975   6.468   7.431  4.1898  0.4119  0.0266
  591MOL0     H81493   5.116   6.262   7.403  0.2098  1.9096  0.3009
  591MOL0     H81494   5.013   6.176   7.510 -0.7073 -0.4539  0.5791
  591MOL0     H81495   4.909   6.113   7.299  3.8797  0.7071 -1.1077
  591MOL0     H81496   4.809   6.246   7.364 -0.2363 -2.0528  1.2618
  591MOL0     H81497   4.923   6.407   7.217 -2.7668  0.1241 -0.4259
  591MOL0     H81498   5.034   6.278   7.162  0.5588 -0.1194  0.7579
  591MOL0     H81499   4.726   6.263   7.105 -0.9654 -6.1233  1.0686
  591MOL0     H81500   4.866   6.174   7.054  3.4628  0.1716  0.7308
  591MOL0     H81501   4.806   6.448   6.966 -1.7864 -0.9624 -0.9985
  591MOL0     H81502   4.968   6.389   6.978 -0.4658 -0.9960  1.8205
  591MOL0     H81503   4.919   6.185   6.823 -0.6210 -0.7004  3.3783
  591MOL0     H81504   4.899   6.339   6.747 -0.8748  1.5102  0.4912
  591MOL0     H81505   4.664   6.180   6.840  1.0634 -2.3868 -1.1119
  591MOL0     H81506   4.665   6.342   6.760  3.9290  1.4725  3.2234
  591MOL0     H81507   4.512   6.212   6.563  0.8052  1.3902 -0.7771
  591MOL0     H81508   4.634   6.088   6.224 -0.2594 -1.5464 -1.0159
  591MOL0     H81509   4.484   6.126   6.303 -0.4341 -0.8970 -1.2492
  591MOL0     H81510   4.627   5.877   6.364  1.4579  1.3888  0.4698
  591MOL0     H81511   4.456   5.914   6.389  0.1652 -0.6914 -0.7159
  591MOL0     H81512   4.448   5.781   6.196  1.2400 -0.8654 -1.6178
  591MOL0     H81513   4.416   5.944   6.151 -1.5014 -1.3021 -0.3826
  591MOL0     H81514   4.664   5.960   6.066  1.2457 -1.9645  1.2850
  591MOL0     H81515   4.664   5.792   6.086  1.2332  0.3602 -2.2399
  591MOL0     H81516   4.744   6.042   5.906  0.0220 -0.8047  0.3909
  591MOL0     H81517   4.849   6.205   5.850 -0.0339  0.8794  0.7294
  591MOL0     H81518   4.795   6.308   5.723  1.8317 -0.0305 -0.5278
  591MOL0     H81519   4.914   6.185   5.684  0.8869 -4.1080  2.2435
  591MOL0     H81520   4.509   6.411   5.323  0.3056  2.2016 -2.1403
  591MOL0     H81521   4.600   6.534   5.133 -0.5786 -0.4329 -1.7521
  591MOL0     H81522   4.653   6.317   4.807  3.4648  0.2777  0.6742
  591MOL0     H81523   4.571   6.472   4.846  0.7682  3.2561 -1.1245
  591MOL0     H81524   4.651   6.527   4.626 -1.2546 -0.6156  0.9648
  591MOL0     H81525   4.776   6.591   4.727  1.6673 -1.2298 -0.4010
  591MOL0     H81526   4.802   6.301   4.609  0.4422  0.1037 -0.1919
  591MOL0     H81527   4.923   6.407   4.678 -0.3964  1.3302  0.6867
  591MOL0     H81528   4.763   6.487   4.428  0.1728  3.4327  0.3598
  591MOL0     H81529   4.922   6.403   4.436 -3.4477 -3.4797  0.8117
  591MOL0     H81530   4.866   6.688   4.529  0.0460  1.1639 -0.6099
  591MOL0     H81531   5.026   6.603   4.513  0.7551 -2.9404 -1.6716
  591MOL0     H81532   4.818   6.675   4.299 -0.3795 -0.9241 -2.2510
  591MOL0     H81533   4.959   6.592   4.254  1.6773  0.5361  0.2001
  591MOL0     H81534   4.955   6.873   4.377  1.2274 -0.1760  0.4024
  591MOL0     H81535   4.990   6.826   4.208  0.8681  0.4490  0.0812
  591MOL0     H81536   5.189   6.686   4.291  1.5185  1.2489 -0.7791
  591MOL0     H81537   5.173   6.757   4.449 -0.3896 -0.6552 -0.2241
  591MOL0     H81538   4.767   6.185   4.958  0.9763 -0.7577  1.6466
  591MOL0     H81539   4.717   6.058   5.160  1.1233  0.5955  1.3539
  591MOL0     H81540   4.449   6.001   5.525  0.2186 -1.1619  0.3480
  591MOL0     H81541   4.399   5.868   5.732  0.0676 -1.9448  4.7203
  591MOL0     H81542   4.925   6.618   7.622  0.3090 -1.7148 -0.2792
  591MOL0     H81543   4.750   6.799   7.691 -2.7183  1.1569 -3.3973
  591MOL0     H81544   4.276   6.888   7.620 -2.2742 -0.9916 -0.6965
  591MOL0     H81545   4.103   7.044   7.631 -2.6645  0.0096  1.7301
  591MOL0     H81546   4.131   7.342   7.969  0.4865 -0.4605 -0.5786
  591MOL0     H81547   4.197   7.384   7.820 -0.1735 -0.5250 -0.2899
  591MOL0     H81548   3.896   7.394   7.889 -2.6291  0.2068 -2.9022
  591MOL0     H81549   3.958   7.454   7.742 -4.0234  1.0841  1.1429
  591MOL0     H81550   4.042   7.571   7.997 -0.4030  0.3034  0.3991
  591MOL0     H81551   4.079   7.652   7.846  2.0414 -0.7380  1.8876
  591MOL0     H81552   3.814   7.602   7.989 -1.2609  0.4792 -0.6520
  591MOL0     H81553   3.821   7.666   7.827  4.5558 -1.7293 -2.6730
  591MOL0     H81554   3.925   8.014   8.061 -0.8108  1.1478 -2.0798
  591MOL0     H81555   4.245   7.171   8.016  1.2833 -1.1184  0.4952
  591MOL0     H81556   4.530   7.044   8.056 -1.4191  2.0495  0.7053
  591MOL0     H81557   4.375   7.044   8.140  1.4413  1.8136 -0.6845
  591MOL0     H81558   4.449   6.892   8.084  1.4250  0.1431 -1.4437
  592MOL0     O81559   8.802   6.615  11.434 -0.2275  0.1423  0.0375
  592MOL0     C81560   8.760   6.587  11.318 -0.2072 -0.9362 -1.2176
  592MOL0     O81561   8.625   6.577  11.284 -0.1177 -0.0829  0.4435
  592MOL0     C81562   8.519   6.589  11.370  0.2410 -0.3457 -0.2487
  592MOL0     C81563   8.480   6.488  11.451  0.2121  0.1383  0.6442
  592MOL0     C81564   8.381   6.509  11.547 -0.3425 -0.1099  0.1263
  592MOL0     C81565   8.325   6.639  11.569  0.2208  0.4104 -0.7901
  592MOL0     O81566   8.241   6.657  11.670 -0.2325 -0.1942  0.0036
  592MOL0     C81567   8.241   6.781  11.746  0.7408  0.2425 -0.2515
  592MOL0     C81568   8.110   6.857  11.719 -0.4218  0.4667  0.6716
  592MOL0     C81569   8.102   6.993  11.798  0.1112  0.2955 -0.1908
  592MOL0     C81570   8.186   7.098  11.742 -0.4531 -0.7200 -0.5697
  592MOL0     C81571   8.184   7.214  11.840 -0.1373  0.0652 -0.7067
  592MOL0     C81572   8.248   7.345  11.808 -0.4006 -0.4255 -0.3428
  592MOL0     C81573   8.226   7.474  11.890 -0.1388 -0.2513 -0.4395
  592MOL0     C81574   8.233   7.455  12.039  0.3894 -0.3281 -0.3538
  592MOL0     N81575   8.366   7.409  12.082  0.0300  0.0990  0.5382
  592MOL0     C81576   8.413   7.283  12.125  0.0035 -0.9091  0.4595
  592MOL0     C81577   8.550   7.310  12.156  0.2764 -0.5580 -0.5845
  592MOL0     C81578   8.652   7.232  12.235  0.8223 -0.6536 -0.4925
  592MOL0     C81579   8.793   7.299  12.242 -0.9318 -0.3502 -0.9126
  592MOL0     C81580   8.892   7.210  12.326 -0.0447 -0.3411  0.5522
  592MOL0     C81581   9.005   7.286  12.399  0.1144 -1.3929  0.2297
  592MOL0     O81582   8.950   7.358  12.508 -0.3341 -0.5279  0.8564
  592MOL0     C81583   9.022   7.427  12.598  0.6612 -0.9973  0.3178
  592MOL0     C81584   8.957   7.485  12.707 -0.2226  0.8540  0.1330
  592MOL0     C81585   9.024   7.558  12.806  0.9103  0.5997 -0.0856
  592MOL0     C81586   8.940   7.599  12.936  0.4837  0.5582  0.4013
  592MOL0     C81587   9.159   7.584  12.790  0.8497 -0.0436  0.6632
  592MOL0     C81588   9.236   7.669  12.873 -0.0051  0.0529 -0.1475
  592MOL0     O81589   9.176   7.778  12.927  0.2197  0.5668 -0.0430
  592MOL0     C81590   9.236   7.850  13.029 -0.1888  1.1677  0.4897
  592MOL0     C81591   9.210   7.805  13.156 -0.2283 -0.8968 -0.0744
  592MOL0     C81592   9.242   7.886  13.269  0.2697  0.2302  1.1667
  592MOL0     C81593   9.304   8.002  13.251 -0.1001 -0.4125  0.7621
  592MOL0     O81594   9.331   8.088  13.356 -0.2908 -0.2397 -0.0319
  592MOL0     C81595   9.370   8.034  13.483 -0.3085  0.0288  0.2284
  592MOL0     C81596   9.415   8.148  13.579 -0.6188 -0.5815 -0.6574
  592MOL0     C81597   9.493   8.110  13.705  0.1455 -0.1641  0.2126
  592MOL0     C81598   9.413   8.002  13.784 -0.8533  0.3655  0.4671
  592MOL0     C81599   9.486   7.958  13.915  0.3989 -0.4554 -0.1782
  592MOL0     C81600   9.457   8.072  14.018 -0.9678 -0.5121 -0.5719
  592MOL0     C81601   9.511   8.035  14.164 -0.3124 -0.6438  0.2476
  592MOL0     C81602   9.485   8.143  14.265 -0.1676 -0.1680  0.6445
  592MOL0    Cl81603   9.572   8.114  14.424  0.6613 -0.2120 -0.0763
  592MOL0     C81604   9.328   8.045  13.117 -0.0400 -0.4461 -0.4383
  592MOL0     C81605   9.303   7.965  13.011 -0.0724  0.2786  1.1290
  592MOL0     O81606   9.344   7.623  12.908 -0.1365  0.0515  0.1499
  592MOL0     C81607   9.234   7.530  12.682  0.5079  1.4018  0.3305
  592MOL0     C81608   9.164   7.450  12.591 -1.0398  0.4744 -0.2532
  592MOL0     N81609   8.578   7.433  12.100  0.6327 -0.5425 -0.4337
  592MOL0     N81610   8.471   7.497  12.056 -0.1173  0.7727  0.5180
  592MOL0     C81611   8.357   6.738  11.476  0.2750  0.1105 -0.6948
  592MOL0     C81612   8.451   6.714  11.376 -1.1188  0.0239 -0.2839
  592MOL0     C81613   8.870   6.558  11.224  0.3032 -0.1137  0.2397
  592MOL0     C81614   8.948   6.668  11.170  0.3851 -0.7734  0.0761
  592MOL0     C81615   9.049   6.637  11.077 -0.1435 -0.1489 -0.0824
  592MOL0     C81616   9.081   6.508  11.036  0.4893  0.2525 -0.2087
  592MOL0     O81617   9.183   6.468  10.945 -0.2235 -0.0650 -0.0951
  592MOL0     C81618   9.280   6.567  10.907  0.1946 -0.2352  0.4691
  592MOL0     C81619   9.267   6.592  10.753 -0.4165  0.0378  0.3212
  592MOL0     C81620   9.142   6.674  10.714 -0.9008 -0.2582  0.5671
  592MOL0     C81621   9.113   6.674  10.564  0.9474 -0.0171 -0.2024
  592MOL0     C81622   8.976   6.716  10.539 -0.4357 -0.3200  0.5949
  592MOL0     C81623   8.861   6.752  10.538 -0.0592  0.2213 -0.2124
  592MOL0     C81624   9.003   6.410  11.086 -0.3804 -0.3317 -0.7016
  592MOL0     C81625   8.902   6.431  11.177 -0.5009  0.3751  0.6718
  592MOL0     C81626   8.830   6.304  11.217 -0.0475 -0.2699 -0.0582
  592MOL0     H81627   8.517   6.386  11.441 -1.6157 -0.4027 -1.3988
  592MOL0     H81628   8.356   6.422  11.607  1.9080 -0.2614  0.8998
  592MOL0     H81629   8.329   6.840  11.716  1.9237 -0.4877  1.5612
  592MOL0     H81630   8.253   6.752  11.851 -1.5797 -1.9833 -0.5151
  592MOL0     H81631   8.108   6.872  11.610 -0.6577  1.5494  0.8106
  592MOL0     H81632   8.028   6.787  11.738 -1.2444  0.9694 -0.8278
  592MOL0     H81633   7.995   7.017  11.792 -0.0600  0.8125  3.3010
  592MOL0     H81634   8.128   6.976  11.903  0.1775 -1.1583 -0.4279
  592MOL0     H81635   8.292   7.070  11.734 -1.2091 -3.6275 -1.4539
  592MOL0     H81636   8.140   7.130  11.649 -4.3556 -2.1177  0.7030
  592MOL0     H81637   8.238   7.171  11.925 -0.8702 -1.8427 -1.1434
  592MOL0     H81638   8.077   7.223  11.862  0.4670  0.4822  2.4257
  592MOL0     H81639   8.356   7.330  11.793 -0.3523  0.7335 -1.3037
  592MOL0     H81640   8.205   7.378  11.713  1.6757  0.4869 -1.0223
  592MOL0     H81641   8.121   7.501  11.878  0.5408  2.8909 -0.2192
  592MOL0     H81642   8.286   7.558  11.854  0.8788 -0.2048  1.2709
  592MOL0     H81643   8.211   7.549  12.090 -0.0883 -0.8962  0.4994
  592MOL0     H81644   8.158   7.382  12.071 -0.1898  0.6713  0.6634
  592MOL0     H81645   8.358   7.193  12.147 -2.1974  0.7062  1.9287
  592MOL0     H81646   8.643   7.129  12.199  1.3486  0.3288 -3.7587
  592MOL0     H81647   8.615   7.238  12.338  0.1485  0.5206 -0.7814
  592MOL0     H81648   8.830   7.309  12.140  0.9824  1.6635 -0.0920
  592MOL0     H81649   8.803   7.398  12.287  2.7069 -1.1791  0.4331
  592MOL0     H81650   8.827   7.146  12.387 -1.9973  2.6055  1.8161
  592MOL0     H81651   8.942   7.147  12.252  0.8504 -1.1661  1.8207
  592MOL0     H81652   9.085   7.218  12.430  1.5081  1.2829  2.9574
  592MOL0     H81653   9.055   7.362  12.338 -0.6638 -0.7871  0.3356
  592MOL0     H81654   8.852   7.469  12.726  0.5639 -2.3351  2.7097
  592MOL0     H81655   8.891   7.512  12.982 -1.0014 -0.4560 -2.8529
  592MOL0     H81656   8.858   7.652  12.888 -0.3623 -1.5687 -0.6309
  592MOL0     H81657   8.991   7.667  13.005 -2.1026  1.9626  1.0567
  592MOL0     H81658   9.154   7.715  13.180 -4.0132  0.9656 -1.1704
  592MOL0     H81659   9.215   7.854  13.369 -0.2856 -0.3081  0.8491
  592MOL0     H81660   9.287   7.980  13.529 -0.6231 -0.7352 -1.1909
  592MOL0     H81661   9.456   7.970  13.462  1.0159  1.6285  0.5630
  592MOL0     H81662   9.447   8.233  13.518 -2.0098 -0.2846 -1.0268
  592MOL0     H81663   9.320   8.176  13.625  0.6367 -0.6736  2.1609
  592MOL0     H81664   9.495   8.205  13.760 -1.5186 -1.4343  2.6420
  592MOL0     H81665   9.591   8.067  13.681 -0.8957 -1.6960 -1.5622
  592MOL0     H81666   9.395   7.906  13.734 -0.7081  0.8610 -0.5654
  592MOL0     H81667   9.316   8.047  13.806 -1.9719 -2.9165  2.9978
  592MOL0     H81668   9.461   7.857  13.948 -1.0510 -0.3111 -0.7427
  592MOL0     H81669   9.595   7.962  13.904  0.3973  0.1142 -0.0518
  592MOL0     H81670   9.348   8.082  14.019 -1.0856 -1.3990 -1.9550
  592MOL0     H81671   9.512   8.156  13.976 -3.3524  1.1826 -0.5004
  592MOL0     H81672   9.618   8.012  14.160 -0.0865  0.4181 -0.3446
  592MOL0     H81673   9.460   7.946  14.201  0.5361 -2.0050 -1.6575
  592MOL0     H81674   9.380   8.162  14.288 -0.6222 -1.7300 -0.0443
  592MOL0     H81675   9.527   8.234  14.220 -0.4283  0.1809  1.1030
  592MOL0     H81676   9.377   8.142  13.108  2.9360 -1.2741  3.6152
  592MOL0     H81677   9.328   7.995  12.910  0.1375 -1.1768  0.7284
  592MOL0     H81678   9.334   7.561  12.653 -0.9860  2.7133 -4.2472
  592MOL0     H81679   9.207   7.394  12.508  0.3939 -1.9228  1.9737
  592MOL0     H81680   8.312   6.837  11.483 -0.4726 -0.2847  0.3217
  592MOL0     H81681   8.492   6.797  11.320  0.3598  1.2704  2.5026
  592MOL0     H81682   8.942   6.771  11.203  0.5407 -0.6608 -0.2430
  592MOL0     H81683   9.084   6.729  11.033 -1.0855 -0.5586 -1.7756
  592MOL0     H81684   9.274   6.667  10.950 -3.7535  0.8434 -2.0215
  592MOL0     H81685   9.384   6.541  10.926  0.5208  0.5475 -0.2110
  592MOL0     H81686   9.267   6.495  10.703  3.0333 -0.6039  1.2938
  592MOL0     H81687   9.360   6.643  10.728 -1.0529  0.5497 -1.0785
  592MOL0     H81688   9.055   6.643  10.773 -0.5045 -3.6150 -0.4192
  592MOL0     H81689   9.149   6.778  10.747 -0.1306  0.2335 -1.0327
  592MOL0     H81690   9.112   6.575  10.516 -0.5151 -0.7969  1.3417
  592MOL0     H81691   9.187   6.737  10.514 -0.4790  1.3218 -0.7135
  592MOL0     H81692   8.761   6.788  10.555  0.9609  2.1747  2.3760
  592MOL0     H81693   9.028   6.309  11.056  1.5255  0.0382 -0.4886
  592MOL0     H81694   8.745   6.324  11.283 -0.3716 -1.8393  0.0440
  592MOL0     H81695   8.781   6.248  11.136 -2.1836  0.0409  0.9347
  592MOL0     H81696   8.899   6.240  11.273  2.1845  0.8654 -1.3660
  593MOL0     O81697   7.515   7.206   3.584  0.8902  0.1699 -0.7784
  593MOL0     C81698   7.442   7.115   3.615 -0.1060  0.7201  0.6591
  593MOL0     O81699   7.381   7.091   3.737 -0.4555 -1.1128 -0.3324
  593MOL0     C81700   7.445   7.147   3.849 -0.5736 -0.1187  1.2866
  593MOL0     C81701   7.464   7.059   3.954 -0.3103  1.4262  0.2367
  593MOL0     C81702   7.534   7.100   4.065  0.2143 -0.5840 -0.0550
  593MOL0     C81703   7.587   7.232   4.074  0.2662  0.5004  0.1509
  593MOL0     O81704   7.657   7.265   4.190 -0.8631  0.3114  0.0963
  593MOL0     C81705   7.688   7.397   4.233  0.4687 -0.4000  0.0957
  593MOL0     C81706   7.565   7.455   4.305  0.4196 -0.5282 -0.2505
  593MOL0     C81707   7.606   7.576   4.382 -0.5889 -0.0125 -0.9189
  593MOL0     C81708   7.496   7.634   4.483 -0.4861  0.5183  0.8956
  593MOL0     C81709   7.527   7.776   4.521  0.1103  0.0572  0.5166
  593MOL0     C81710   7.615   7.791   4.647  0.6622 -0.0179 -0.4825
  593MOL0     C81711   7.664   7.936   4.661  0.8340 -0.8734  0.2716
  593MOL0     C81712   7.758   7.949   4.785  0.1405  0.3700 -0.2572
  593MOL0     N81713   7.885   7.880   4.764 -0.0483  0.1405 -0.8743
  593MOL0     C81714   7.918   7.759   4.818  0.3364  0.4812 -0.2868
  593MOL0     C81715   8.048   7.738   4.785  0.1620 -0.4637 -0.4402
  593MOL0     C81716   8.115   7.611   4.825  0.9985 -0.1546 -0.3013
  593MOL0     C81717   8.077   7.494   4.725  0.7612 -0.1090 -0.6000
  593MOL0     C81718   8.101   7.514   4.574  0.0850  0.1037  0.3191
  593MOL0     C81719   7.972   7.476   4.494 -0.1784 -0.3878  0.7261
  593MOL0     O81720   8.003   7.469   4.349  0.3949  1.0410 -0.7161
  593MOL0     C81721   8.000   7.576   4.262  0.0082 -0.3279 -0.5458
  593MOL0     C81722   8.006   7.543   4.127 -0.0533 -0.7401  0.7677
  593MOL0     C81723   7.983   7.640   4.027  0.0972  0.6372  0.1106
  593MOL0     C81724   7.971   7.584   3.882  0.2964  0.5377 -0.7817
  593MOL0     C81725   7.978   7.777   4.057  0.8884  0.0375  0.4952
  593MOL0     C81726   7.954   7.887   3.963 -0.1106  0.2036  1.4622
  593MOL0     O81727   7.894   8.000   4.012  0.0017  0.1138  0.4959
  593MOL0     C81728   7.940   8.125   3.972 -0.5602  0.2025 -0.8897
  593MOL0     C81729   8.076   8.162   3.968  0.0874  0.6985 -0.1819
  593MOL0     C81730   8.106   8.299   3.945  0.5923  0.7043  0.1186
  593MOL0     C81731   8.002   8.397   3.928  0.4793 -0.2510  0.3997
  593MOL0     O81732   8.026   8.537   3.912  0.3958 -0.6844  0.6402
  593MOL0     C81733   8.164   8.573   3.912 -0.3735 -0.8614 -0.4107
  593MOL0     C81734   8.169   8.725   3.892 -0.5185 -0.5780  0.2668
  593MOL0     C81735   8.084   8.821   3.974 -0.4858 -0.5895  1.0734
  593MOL0     C81736   8.071   8.790   4.125  0.6767  0.4731 -0.0655
  593MOL0     C81737   7.977   8.888   4.194 -0.6171  0.0740  0.1858
  593MOL0     C81738   7.831   8.901   4.143 -0.0196  0.1429 -0.5000
  593MOL0     C81739   7.753   8.771   4.128 -0.1364 -0.4671  0.7971
  593MOL0     C81740   7.603   8.785   4.135  0.1807  0.0534  0.5343
  593MOL0    Cl81741   7.525   8.888   4.021  0.0764  0.4214  0.1480
  593MOL0     C81742   7.863   8.356   3.939 -0.3683 -0.1330  0.3050
  593MOL0     C81743   7.834   8.227   3.965  0.0083 -0.4874 -0.1028
  593MOL0     O81744   7.986   7.872   3.845  0.6423 -0.5145 -0.6422
  593MOL0     C81745   7.996   7.805   4.194  0.5343 -0.5361 -0.3308
  593MOL0     C81746   8.003   7.716   4.297  0.8890 -0.2078  0.2561
  593MOL0     N81747   8.097   7.851   4.722  0.1507  0.5205  0.3721
  593MOL0     N81748   7.994   7.933   4.711 -0.2305 -0.7114 -0.0974
  593MOL0     C81749   7.561   7.326   3.966  0.4948 -0.1604 -0.5350
  593MOL0     C81750   7.475   7.284   3.860 -0.6396  0.0260  0.2071
  593MOL0     C81751   7.392   7.018   3.511  0.6999  0.1287  0.1701
  593MOL0     C81752   7.259   6.972   3.520 -0.2518 -0.4393 -0.8377
  593MOL0     C81753   7.201   6.891   3.419  0.3260 -0.0427  0.5980
  593MOL0     C81754   7.274   6.846   3.308  0.2238 -0.7185 -0.1320
  593MOL0     O81755   7.210   6.774   3.214  0.1755  0.1557  0.9302
  593MOL0     C81756   7.276   6.726   3.099 -0.2516  0.8409  0.3120
  593MOL0     C81757   7.179   6.677   2.995  0.4285  0.5020  1.2742
  593MOL0     C81758   7.086   6.561   3.035  0.3324 -0.2174 -0.6759
  593MOL0     C81759   6.999   6.509   2.923 -0.0782  0.4686  0.0206
  593MOL0     C81760   6.892   6.415   2.982 -0.3346  0.3423  1.0224
  593MOL0     C81761   6.796   6.341   3.006  0.8109  0.0774 -0.1265
  593MOL0     C81762   7.408   6.878   3.309  1.4917 -0.2895  1.3056
  593MOL0     C81763   7.468   6.968   3.401 -0.2876  0.0885  0.3842
  593MOL0     C81764   7.615   6.994   3.375  0.6657  0.3400  0.2095
  593MOL0     H81765   7.434   6.958   3.931  0.8768  1.2906 -0.8685
  593MOL0     H81766   7.548   7.035   4.151 -1.6284 -0.2486  0.5391
  593MOL0     H81767   7.717   7.468   4.155 -0.2277  2.1258  1.9846
  593MOL0     H81768   7.768   7.391   4.308  0.7926  4.0771  0.3527
  593MOL0     H81769   7.486   7.469   4.231  0.7219  0.5283 -0.4013
  593MOL0     H81770   7.527   7.381   4.375 -0.6607 -0.4640 -0.7433
  593MOL0     H81771   7.694   7.539   4.435 -1.0649  0.3592  0.1563
  593MOL0     H81772   7.626   7.653   4.307 -2.3071  1.5085  0.1184
  593MOL0     H81773   7.400   7.637   4.433 -1.2299  0.7233  2.2777
  593MOL0     H81774   7.481   7.566   4.567 -4.2656 -0.6417 -0.5262
  593MOL0     H81775   7.433   7.830   4.536 -0.4766 -0.7589 -0.1524
  593MOL0     H81776   7.585   7.823   4.441  0.0795 -0.2270  0.3244
  593MOL0     H81777   7.563   7.781   4.742  1.0031  0.0397 -0.2901
  593MOL0     H81778   7.691   7.713   4.642 -1.2484 -2.0078  0.1902
  593MOL0     H81779   7.586   8.007   4.690  0.5538 -0.7477 -0.7262
  593MOL0     H81780   7.718   7.970   4.572 -4.2505  1.8846 -2.2092
  593MOL0     H81781   7.790   8.050   4.811  2.1914 -0.2933 -0.0659
  593MOL0     H81782   7.704   7.921   4.876  1.2947  3.1514  1.3803
  593MOL0     H81783   7.856   7.678   4.854  1.7108  0.5697  2.4869
  593MOL0     H81784   8.081   7.588   4.926  1.1079 -1.7516 -0.6057
  593MOL0     H81785   8.223   7.626   4.822  0.7646  2.4453  1.0835
  593MOL0     H81786   8.124   7.405   4.767 -1.9172 -1.5111 -0.3910
  593MOL0     H81787   7.972   7.476   4.748 -0.2760  1.7440 -3.3880
  593MOL0     H81788   8.134   7.617   4.555  0.5841 -0.2555 -0.8961
  593MOL0     H81789   8.178   7.453   4.526  0.6250 -0.2382  1.5767
  593MOL0     H81790   7.932   7.377   4.518  4.1287 -3.0607 -1.8062
  593MOL0     H81791   7.905   7.562   4.490 -0.5528 -0.7138 -1.0152
  593MOL0     H81792   8.012   7.441   4.091 -0.4602  0.1603 -2.1246
  593MOL0     H81793   7.895   7.647   3.833 -0.5659  0.9493  1.0242
  593MOL0     H81794   7.945   7.478   3.877 -0.2711  0.6544 -0.4707
  593MOL0     H81795   8.063   7.598   3.825  0.0538  0.8188 -1.1149
  593MOL0     H81796   8.158   8.091   3.969  0.0429  0.6067  2.1546
  593MOL0     H81797   8.211   8.324   3.945  1.4455 -2.1691 -2.9406
  593MOL0     H81798   8.208   8.556   4.010 -5.0962 -1.8451  1.8410
  593MOL0     H81799   8.219   8.524   3.830  0.8076  0.3813 -0.3917
  593MOL0     H81800   8.276   8.742   3.901  0.0273 -4.1510  3.3864
  593MOL0     H81801   8.146   8.739   3.786  2.1631 -0.3503 -0.3524
  593MOL0     H81802   7.984   8.820   3.929 -1.0946 -1.4471  2.3797
  593MOL0     H81803   8.137   8.915   3.963  2.8561 -2.2067  2.0718
  593MOL0     H81804   8.168   8.800   4.174  0.0159  2.4599  0.9177
  593MOL0     H81805   8.031   8.691   4.148  3.6605 -0.1084  3.6462
  593MOL0     H81806   7.982   8.861   4.300 -0.2181  2.0840  0.7325
  593MOL0     H81807   8.010   8.992   4.186 -4.7143  1.4858 -0.9165
  593MOL0     H81808   7.821   8.967   4.056  0.4495  2.0636  0.8606
  593MOL0     H81809   7.776   8.952   4.222  0.0632 -3.8764  2.4533
  593MOL0     H81810   7.780   8.705   4.211  0.3944  1.3252  2.1152
  593MOL0     H81811   7.774   8.722   4.032  1.3051 -1.8161  1.7507
  593MOL0     H81812   7.583   8.822   4.236  0.0001  1.5850 -0.0329
  593MOL0     H81813   7.551   8.689   4.126 -0.8229  0.5696  0.6722
  593MOL0     H81814   7.775   8.419   3.935  0.9015  1.6467 -2.5277
  593MOL0     H81815   7.735   8.186   3.982 -0.4625  0.9301  0.8131
  593MOL0     H81816   7.997   7.907   4.231 -0.5030 -0.0746 -1.5063
  593MOL0     H81817   8.009   7.751   4.399 -1.2177  0.2003  0.2925
  593MOL0     H81818   7.619   7.418   3.963  0.2509 -0.0354 -2.3347
  593MOL0     H81819   7.466   7.355   3.779 -0.2350  1.5786  1.4829
  593MOL0     H81820   7.190   7.004   3.598 -0.6286 -1.9500 -0.5123
  593MOL0     H81821   7.099   6.859   3.433  0.3417  0.4317  1.9990
  593MOL0     H81822   7.348   6.793   3.052 -0.0130 -1.2576 -2.5559
  593MOL0     H81823   7.339   6.640   3.123  3.3927  2.8010 -1.4784
  593MOL0     H81824   7.232   6.649   2.904  1.7280 -0.4491  2.2812
  593MOL0     H81825   7.110   6.758   2.970 -2.0597 -1.8716 -0.1040
  593MOL0     H81826   7.138   6.484   3.093  1.6772  1.1029 -0.0380
  593MOL0     H81827   7.025   6.617   3.107  0.7477  1.2000 -1.3937
  593MOL0     H81828   7.063   6.458   2.851  0.2986  1.3958 -0.3190
  593MOL0     H81829   6.948   6.594   2.878 -0.3555  0.8648  1.0408
  593MOL0     H81830   6.717   6.270   3.017  0.0366  0.2176 -3.7076
  593MOL0     H81831   7.466   6.843   3.224  2.2139  3.4363  0.0730
  593MOL0     H81832   7.623   7.074   3.301 -0.7317 -0.1870 -0.5464
  593MOL0     H81833   7.656   7.040   3.466 -0.9086  2.5181 -0.0883
  593MOL0     H81834   7.676   6.907   3.350 -0.7913 -0.3360 -1.0769
  594MOL0     O81835   4.925   0.119   4.574  0.3071  0.6041 -0.0323
  594MOL0     C81836   4.862   0.026   4.522 -0.3557 -0.3868  0.5417
  594MOL0     O81837   4.737   0.039   4.466  0.1454  0.0571 -0.8864
  594MOL0     C81838   4.692   0.155   4.428 -0.2169  0.0832 -0.3738
  594MOL0     C81839   4.682   0.262   4.514 -0.5783  0.3012 -0.5636
  594MOL0     C81840   4.624   0.384   4.488  0.7944  0.4622 -0.0814
  594MOL0     C81841   4.578   0.406   4.361 -0.6108 -0.1703 -0.1727
  594MOL0     O81842   4.532   0.529   4.339 -0.7391 -0.3766 -0.2181
  594MOL0     C81843   4.542   0.591   4.207  0.1328 -0.1681 -0.0788
  594MOL0     C81844   4.526   0.741   4.215  0.3991  1.2747 -0.1594
  594MOL0     C81845   4.378   0.785   4.238 -0.1713  0.0931 -0.3532
  594MOL0     C81846   4.366   0.932   4.251 -0.3891  0.1255 -0.8284
  594MOL0     C81847   4.224   0.976   4.285  0.0863 -1.1217  0.4579
  594MOL0     C81848   4.199   0.985   4.432  0.0004  0.2001 -0.9633
  594MOL0     C81849   4.053   0.981   4.478  0.0133  0.8913  0.5915
  594MOL0     C81850   3.974   0.855   4.469  0.0906  0.0713 -0.2679
  594MOL0     N81851   4.035   0.758   4.571  0.7629  0.2689  0.1012
  594MOL0     C81852   4.126   0.658   4.535  0.2632  0.4136  0.0214
  594MOL0     C81853   4.140   0.586   4.649  0.2826  0.1348 -0.1611
  594MOL0     C81854   4.214   0.456   4.658  0.1899  0.6163  0.0956
  594MOL0     C81855   4.123   0.337   4.660  0.8474 -0.2332 -0.0499
  594MOL0     C81856   4.190   0.228   4.751  0.1380 -0.5135 -0.2982
  594MOL0     C81857   4.300   0.148   4.678 -0.3803  0.3149 -1.0494
  594MOL0     O81858   4.244   0.070   4.569  0.0424  0.0665 -0.2944
  594MOL0     C81859   4.305  -0.051   4.535  1.2564  0.6227 -0.2512
  594MOL0     C81860   4.235  -0.152   4.461 -0.1391 -0.0744  0.1202
  594MOL0     C81861   4.299  -0.269   4.417  0.6807  0.2980  1.0504
  594MOL0     C81862   4.223  -0.359   4.322  0.3885 -0.1908 -0.0509
  594MOL0     C81863   4.440  -0.292   4.448  0.2706 -0.5942 -0.1906
  594MOL0     C81864   4.516  -0.416   4.405  0.4947  0.1416  0.1684
  594MOL0     O81865   4.496  -0.475   4.283 -0.4329  0.7112 -0.4602
  594MOL0     C81866   4.533  -0.607   4.248 -0.0369 -0.9966 -0.5081
  594MOL0     C81867   4.515  -0.718   4.345  0.8279 -0.2211  0.5251
  594MOL0     C81868   4.558  -0.843   4.304 -0.2199  0.2456  0.4844
  594MOL0     C81869   4.616  -0.866   4.181 -0.3716  0.9274  0.4038
  594MOL0     O81870   4.664  -0.984   4.139 -0.0704 -0.5630  0.2119
  594MOL0     C81871   4.571  -1.068   4.061  0.5563  0.0118 -0.3026
  594MOL0     C81872   4.625  -1.203   4.032  0.2205 -0.3756  1.0765
  594MOL0     C81873   4.675  -1.278   4.151  0.6105 -0.8656 -0.1442
  594MOL0     C81874   4.734  -1.414   4.098 -0.6415  0.5668 -0.2744
  594MOL0     C81875   4.806  -1.493   4.210  0.3905 -0.1751 -0.2272
  594MOL0     C81876   4.855  -1.622   4.155  0.2186  0.0193  0.0153
  594MOL0     C81877   4.898  -1.728   4.255 -0.3608  0.5500 -0.6605
  594MOL0     C81878   5.038  -1.689   4.324  0.1809  0.2416 -0.0074
  594MOL0    Cl81879   5.080  -1.821   4.436 -0.2569  0.0247 -0.0729
  594MOL0     C81880   4.628  -0.766   4.089 -0.1106 -1.0908  0.0600
  594MOL0     C81881   4.584  -0.634   4.116 -0.1518  0.7742  0.8238
  594MOL0     O81882   4.586  -0.455   4.499 -0.1858 -0.3570  1.0564
  594MOL0     C81883   4.495  -0.196   4.541 -0.2025  1.1849  0.0367
  594MOL0     C81884   4.440  -0.070   4.566  0.6041  0.2864 -0.0543
  594MOL0     N81885   4.069   0.636   4.753  0.7115  0.1026  0.1544
  594MOL0     N81886   3.992   0.737   4.697  0.1332 -0.2312 -0.2210
  594MOL0     C81887   4.574   0.297   4.272  0.5489  0.4331 -0.6338
  594MOL0     C81888   4.626   0.170   4.306 -0.4106  0.3526  0.3156
  594MOL0     C81889   4.923  -0.101   4.503 -0.6095  0.1073 -0.3178
  594MOL0     C81890   4.908  -0.160   4.376  0.0943 -0.8558 -0.1921
  594MOL0     C81891   4.963  -0.283   4.346  1.5577  0.1206  0.2053
  594MOL0     C81892   5.027  -0.363   4.442  0.9135 -0.1524  0.8522
  594MOL0     O81893   5.074  -0.491   4.412  0.7020  0.0289 -0.1523
  594MOL0     C81894   4.978  -0.572   4.356 -0.8691  0.0049  0.8311
  594MOL0     C81895   4.907  -0.638   4.472  0.3380  0.1617 -0.4426
  594MOL0     C81896   4.997  -0.712   4.575 -0.9462  0.0159 -0.2164
  594MOL0     C81897   5.063  -0.845   4.519 -0.4073 -0.1596 -0.1465
  594MOL0     C81898   4.956  -0.937   4.482  0.5338 -0.5097  0.2740
  594MOL0     C81899   4.867  -1.006   4.435 -0.4656 -0.6533 -0.3892
  594MOL0     C81900   5.044  -0.308   4.568 -1.0546  0.1337  0.3979
  594MOL0     C81901   4.996  -0.180   4.594  0.2316 -0.1808 -0.9619
  594MOL0     C81902   5.020  -0.129   4.732  0.0477  0.2238 -0.2059
  594MOL0     H81903   4.710   0.238   4.616  1.8369 -0.1427 -1.2578
  594MOL0     H81904   4.620   0.463   4.562  0.9133  1.2655 -0.9198
  594MOL0     H81905   4.468   0.556   4.134  0.6879  1.8750 -1.7151
  594MOL0     H81906   4.638   0.566   4.161  1.3479  0.3784  2.0344
  594MOL0     H81907   4.603   0.776   4.284 -0.4078  2.8188  0.0000
  594MOL0     H81908   4.554   0.770   4.113 -2.3794  2.3890 -0.6800
  594MOL0     H81909   4.321   0.754   4.150 -0.0977 -4.0928  0.8602
  594MOL0     H81910   4.332   0.740   4.326 -0.5382  0.4149 -0.3791
  594MOL0     H81911   4.431   0.966   4.332 -4.8013  2.5645  2.1110
  594MOL0     H81912   4.406   0.975   4.158  3.4010 -0.6198  0.2782
  594MOL0     H81913   4.154   0.908   4.236 -0.0658  0.4165 -1.5835
  594MOL0     H81914   4.211   1.076   4.242 -3.3526 -1.1030  1.3005
  594MOL0     H81915   4.241   0.907   4.496  0.4681  2.2115  1.3069
  594MOL0     H81916   4.228   1.083   4.470 -5.0465  1.2666  0.8748
  594MOL0     H81917   4.006   1.059   4.418 -0.0760  1.4439  1.3675
  594MOL0     H81918   4.038   1.012   4.581 -1.7829  3.2652 -0.2883
  594MOL0     H81919   3.877   0.880   4.514 -0.0455  0.4323 -0.7593
  594MOL0     H81920   3.961   0.820   4.366  3.6735  1.3487 -1.3088
  594MOL0     H81921   4.171   0.632   4.440  2.4434  0.5423  0.9553
  594MOL0     H81922   4.271   0.468   4.751  2.4777  0.6734 -1.2541
  594MOL0     H81923   4.282   0.447   4.573 -0.2975 -0.2832 -0.2132
  594MOL0     H81924   4.023   0.361   4.697 -0.6140  1.8155 -4.5595
  594MOL0     H81925   4.114   0.313   4.554  2.2499  2.3692 -0.8493
  594MOL0     H81926   4.232   0.271   4.843  0.1800 -2.2193  0.5323
  594MOL0     H81927   4.115   0.156   4.785  0.2437 -0.9421 -0.9526
  594MOL0     H81928   4.378   0.220   4.650  1.7052 -0.3122  2.4413
  594MOL0     H81929   4.353   0.083   4.749 -4.1991 -0.6163  1.2493
  594MOL0     H81930   4.128  -0.142   4.443 -0.5388 -1.2596  1.6193
  594MOL0     H81931   4.270  -0.366   4.224 -1.8753 -3.5438 -1.0585
  594MOL0     H81932   4.116  -0.348   4.301  0.1090  1.9210  2.0079
  594MOL0     H81933   4.240  -0.462   4.356 -1.1322  0.7769  4.3859
  594MOL0     H81934   4.472  -0.696   4.442 -1.5885 -3.6194  0.4214
  594MOL0     H81935   4.544  -0.937   4.357  1.4702 -0.8861 -0.9818
  594MOL0     H81936   4.482  -1.076   4.124  1.4497 -2.0795  0.7970
  594MOL0     H81937   4.549  -1.024   3.964  0.4283 -1.8593 -1.1762
  594MOL0     H81938   4.559  -1.265   3.971  2.7809 -0.7261 -1.5465
  594MOL0     H81939   4.706  -1.163   3.971 -0.1424  0.5793  1.1884
  594MOL0     H81940   4.589  -1.292   4.216 -0.4298  0.3681 -1.1863
  594MOL0     H81941   4.751  -1.215   4.199 -0.3879 -0.4086  0.8674
  594MOL0     H81942   4.797  -1.390   4.012  3.2891  1.3720  2.5312
  594MOL0     H81943   4.653  -1.471   4.051 -1.7541  2.0150 -0.1923
  594MOL0     H81944   4.896  -1.446   4.251  2.5439 -1.9813 -2.5716
  594MOL0     H81945   4.736  -1.511   4.292 -1.9112  1.7902 -1.6085
  594MOL0     H81946   4.944  -1.600   4.095  0.2722  1.0564  0.4672
  594MOL0     H81947   4.782  -1.652   4.079  0.2330 -1.4845  0.5577
  594MOL0     H81948   4.909  -1.825   4.206 -2.1290 -2.0617  3.5177
  594MOL0     H81949   4.820  -1.736   4.331 -0.5703  0.0073 -0.9279
  594MOL0     H81950   5.022  -1.599   4.385  0.0360  1.9918 -2.4525
  594MOL0     H81951   5.126  -1.673   4.262  1.8665 -2.9815  1.3232
  594MOL0     H81952   4.690  -0.798   4.005 -1.8354  0.9817 -2.1706
  594MOL0     H81953   4.583  -0.550   4.046  0.4409 -0.7744 -1.1291
  594MOL0     H81954   4.592  -0.219   4.586 -0.6711 -2.4642 -0.5235
  594MOL0     H81955   4.499   0.005   4.616 -1.2395 -0.3155  3.2737
  594MOL0     H81956   4.534   0.304   4.172 -0.0456  2.2018 -0.3182
  594MOL0     H81957   4.634   0.089   4.235  0.1809  2.0499 -1.6429
  594MOL0     H81958   4.854  -0.111   4.295 -2.2789 -0.5279  1.4886
  594MOL0     H81959   4.966  -0.319   4.244  0.0368 -0.2146  0.2483
  594MOL0     H81960   4.901  -0.521   4.298 -0.0250 -0.1865 -0.5014
  594MOL0     H81961   5.027  -0.647   4.292 -2.5984 -0.7899  0.3715
  594MOL0     H81962   4.830  -0.710   4.445  0.0701  0.7268 -1.2363
  594MOL0     H81963   4.859  -0.562   4.534  1.8954  0.3974  0.5423
  594MOL0     H81964   5.066  -0.653   4.637 -0.6098  0.5719 -1.1055
  594MOL0     H81965   4.924  -0.739   4.652  0.9387  2.5023  2.6957
  594MOL0     H81966   5.123  -0.897   4.594  0.0196  0.4420 -0.0688
  594MOL0     H81967   5.119  -0.821   4.428  1.6347  5.1878  2.1199
  594MOL0     H81968   4.780  -1.053   4.393  1.6685 -3.0354 -2.4968
  594MOL0     H81969   5.089  -0.367   4.646 -0.4346 -0.1632 -0.1745
  594MOL0     H81970   4.925  -0.128   4.787 -0.5002 -0.5957 -1.1046
  594MOL0     H81971   5.086  -0.205   4.775  0.7326 -3.2317 -6.3326
  594MOL0     H81972   5.070  -0.032   4.736 -1.2347  0.9891 -1.7004
  595MOL0     O81973   5.621   7.165   1.935 -0.2206  0.1321 -0.1663
  595MOL0     C81974   5.524   7.126   2.002 -1.0450 -0.3234 -0.0814
  595MOL0     O81975   5.435   7.033   1.953 -0.3761 -0.9195 -0.0431
  595MOL0     C81976   5.425   6.983   1.830  0.2825 -0.6229 -0.8166
  595MOL0     C81977   5.537   6.968   1.747  0.0913  0.5486  0.5833
  595MOL0     C81978   5.525   6.894   1.626  0.1166  0.2852  0.5737
  595MOL0     C81979   5.404   6.845   1.578  0.5968  0.5345 -0.1113
  595MOL0     O81980   5.391   6.771   1.457  0.2828 -0.3170  0.5290
  595MOL0     C81981   5.258   6.731   1.416  0.2725  0.4016 -0.0452
  595MOL0     C81982   5.227   6.664   1.282  0.4000  0.1165 -0.2700
  595MOL0     C81983   5.281   6.745   1.161  0.7567 -0.5759 -0.2304
  595MOL0     C81984   5.402   6.679   1.090  0.2849  0.5676 -1.0198
  595MOL0     C81985   5.464   6.770   0.978 -0.0570  0.6703 -0.0473
  595MOL0     C81986   5.558   6.889   1.025  0.7003 -0.1788  0.2306
  595MOL0     C81987   5.663   6.944   0.927  0.3193  0.4648  0.0363
  595MOL0     C81988   5.760   7.043   1.003 -0.4222 -0.9660  0.0401
  595MOL0     N81989   5.864   7.064   0.906 -0.1758 -0.3216  0.1201
  595MOL0     C81990   5.907   7.176   0.836 -0.0313  0.8032  1.0371
  595MOL0     C81991   6.025   7.148   0.765  0.0909 -0.6820 -0.2870
  595MOL0     C81992   6.097   7.232   0.664  0.3617 -1.1817  0.4503
  595MOL0     C81993   6.130   7.379   0.716 -0.3619  0.0172  0.8635
  595MOL0     C81994   6.034   7.501   0.678  0.5548 -0.9257  1.1742
  595MOL0     C81995   6.022   7.510   0.525 -0.1591 -0.3810 -0.0330
  595MOL0     O81996   5.885   7.495   0.476 -0.3003 -0.0189 -0.4689
  595MOL0     C81997   5.809   7.612   0.449 -0.7309  0.0333 -0.0446
  595MOL0     C81998   5.832   7.733   0.521 -0.1977 -0.5824 -0.6990
  595MOL0     C81999   5.754   7.853   0.504  0.3306  0.7163 -0.4176
  595MOL0     C82000   5.792   7.988   0.570 -0.1162  0.3608 -0.0131
  595MOL0     C82001   5.633   7.842   0.431  0.7937 -0.1556  1.2239
  595MOL0     C82002   5.528   7.949   0.418 -0.0157 -1.4454 -0.8441
  595MOL0     O82003   5.456   7.941   0.292 -0.9464  0.2202 -0.6820
  595MOL0     C82004   5.356   8.026   0.284  1.4999  0.2651  0.8365
  595MOL0     C82005   5.233   7.990   0.335 -0.1930  1.1299 -0.7296
  595MOL0     C82006   5.131   8.088   0.316  0.2849  0.2316  0.7283
  595MOL0     C82007   5.143   8.209   0.240 -0.4405  0.6803 -0.0909
  595MOL0     O82008   5.036   8.297   0.235  0.0531  0.4788 -0.7902
  595MOL0     C82009   5.026   8.410   0.146  0.3269 -0.2492 -0.7621
  595MOL0     C82010   4.999   8.357   0.004  0.1840  0.5057  0.1257
  595MOL0     C82011   5.049   8.444  -0.112  0.6426  0.0519  0.3771
  595MOL0     C82012   4.992   8.586  -0.123  0.5638 -0.4925 -0.5131
  595MOL0     C82013   5.027   8.671  -0.240 -0.5795 -0.6811 -0.1475
  595MOL0     C82014   5.181   8.665  -0.274  0.0436 -0.1995 -0.4323
  595MOL0     C82015   5.234   8.770  -0.376 -0.1483  0.5670  0.3996
  595MOL0     C82016   5.362   8.724  -0.451  0.0773  0.3076 -0.2414
  595MOL0    Cl82017   5.499   8.671  -0.342  0.3013 -0.2094  0.2256
  595MOL0     C82018   5.272   8.235   0.195  0.6889 -0.1979  1.0281
  595MOL0     C82019   5.382   8.149   0.220  0.0843 -0.5136  0.5303
  595MOL0     O82020   5.510   8.040   0.500  0.1262  0.5209 -0.4501
  595MOL0     C82021   5.609   7.723   0.359  0.1690 -0.7970 -0.3193
  595MOL0     C82022   5.688   7.601   0.379  0.3258  0.2231 -0.2077
  595MOL0     N82023   6.073   7.033   0.823 -0.3270  0.1338  0.0595
  595MOL0     N82024   5.982   6.988   0.906  0.5470 -1.1019 -0.4841
  595MOL0     C82025   5.294   6.861   1.670 -0.9917  0.2219  0.5205
  595MOL0     C82026   5.308   6.924   1.787 -0.2216  0.2165 -1.2224
  595MOL0     C82027   5.520   7.172   2.142 -0.0205 -0.0826  0.4481
  595MOL0     C82028   5.431   7.110   2.226 -0.1225 -1.1489  0.2976
  595MOL0     C82029   5.432   7.147   2.363 -0.0817  0.2650 -0.1804
  595MOL0     C82030   5.518   7.245   2.418  0.1221  0.3827  0.0036
  595MOL0     O82031   5.521   7.256   2.556  0.0331 -0.3356 -0.3065
  595MOL0     C82032   5.471   7.382   2.617 -0.3579  0.7229 -0.6864
  595MOL0     C82033   5.586   7.475   2.651 -1.0493 -0.3540  0.0049
  595MOL0     C82034   5.662   7.416   2.769 -0.2415  0.0340 -0.1546
  595MOL0     C82035   5.797   7.494   2.774 -0.4413  0.2208 -0.5168
  595MOL0     C82036   5.780   7.642   2.808 -0.6027 -0.3229  0.2478
  595MOL0     C82037   5.757   7.761   2.846  0.2503 -0.4209 -0.3805
  595MOL0     C82038   5.592   7.324   2.325  0.4177 -0.4421  0.1005
  595MOL0     C82039   5.593   7.288   2.187  0.2722  0.6384 -0.3186
  595MOL0     C82040   5.680   7.387   2.110  0.7271  0.8734 -0.7459
  595MOL0     H82041   5.641   6.992   1.768  1.0496 -0.0040 -2.8389
  595MOL0     H82042   5.608   6.889   1.555 -0.8170 -0.2216 -0.5175
  595MOL0     H82043   5.184   6.812   1.423 -0.7118 -0.3423 -1.3262
  595MOL0     H82044   5.236   6.652   1.488  1.3607 -1.4820 -1.6970
  595MOL0     H82045   5.272   6.565   1.266 -2.9838 -1.2704 -2.2567
  595MOL0     H82046   5.120   6.647   1.264  0.6079 -2.7190  0.6548
  595MOL0     H82047   5.205   6.758   1.084  0.0002 -0.6731  0.4887
  595MOL0     H82048   5.304   6.846   1.197  0.0481 -0.0139 -1.3245
  595MOL0     H82049   5.480   6.659   1.164  2.8042  2.1693 -3.0620
  595MOL0     H82050   5.375   6.585   1.042  0.2976  1.0717 -2.0505
  595MOL0     H82051   5.374   6.809   0.929 -0.3719  1.7135  1.2848
  595MOL0     H82052   5.529   6.702   0.922 -0.0564  0.6077  0.0297
  595MOL0     H82053   5.495   6.973   1.055  1.6055  1.5279 -2.2825
  595MOL0     H82054   5.605   6.853   1.117  2.3133 -0.2204 -0.5753
  595MOL0     H82055   5.622   7.010   0.851  0.9134  2.0406  1.0220
  595MOL0     H82056   5.716   6.863   0.876  2.2959  0.2177  2.3211
  595MOL0     H82057   5.713   7.137   1.032 -1.5453 -0.9874 -1.5389
  595MOL0     H82058   5.802   6.992   1.091 -0.1603 -3.1383 -1.2628
  595MOL0     H82059   5.846   7.264   0.817 -0.1271  0.4627 -0.3737
  595MOL0     H82060   6.031   7.251   0.578  1.7929  0.8978 -0.2569
  595MOL0     H82061   6.173   7.165   0.621 -2.5541 -3.5499 -1.4652
  595MOL0     H82062   6.141   7.366   0.824 -1.6084 -2.1269  0.8017
  595MOL0     H82063   6.227   7.407   0.674  2.2886 -4.8473  2.7974
  595MOL0     H82064   5.942   7.502   0.737  1.0864 -0.5150  2.0191
  595MOL0     H82065   6.072   7.592   0.724  3.1806 -0.7446 -1.0417
  595MOL0     H82066   6.059   7.610   0.503  1.0600 -0.8741 -0.3104
  595MOL0     H82067   6.081   7.434   0.473  1.8452  0.7497  0.4862
  595MOL0     H82068   5.918   7.746   0.587 -0.2848 -1.9262 -0.3027
  595MOL0     H82069   5.797   8.070   0.497  1.0595  0.9344  0.6909
  595MOL0     H82070   5.890   7.971   0.613 -0.3286 -0.5317  0.1446
  595MOL0     H82071   5.723   8.024   0.647  0.6762  1.7963  0.0548
  595MOL0     H82072   5.219   7.894   0.383 -1.0140  1.1016 -1.0144
  595MOL0     H82073   5.028   8.067   0.342 -0.0998  0.2019 -0.7370
  595MOL0     H82074   4.955   8.488   0.176  0.7544 -0.2280  0.2356
  595MOL0     H82075   5.123   8.461   0.150  0.0874  0.2325 -0.9349
  595MOL0     H82076   5.037   8.255  -0.009  2.4957  1.3753 -0.3787
  595MOL0     H82077   4.890   8.357  -0.006  0.1750  1.0550  0.1794
  595MOL0     H82078   5.032   8.385  -0.203  1.5124  1.0534 -0.4532
  595MOL0     H82079   5.157   8.459  -0.105  0.6448 -0.4078  1.8009
  595MOL0     H82080   5.014   8.642  -0.032 -0.8793  1.5158 -1.3285
  595MOL0     H82081   4.883   8.575  -0.131  0.5197 -0.6358  0.1558
  595MOL0     H82082   4.970   8.644  -0.329  1.6254 -0.4756 -1.7143
  595MOL0     H82083   5.002   8.776  -0.222  0.7460 -0.5354  1.0418
  595MOL0     H82084   5.199   8.563  -0.307  1.3769  0.2385 -1.1320
  595MOL0     H82085   5.242   8.670  -0.184  2.9977  0.5176 -2.3055
  595MOL0     H82086   5.244   8.863  -0.319  2.1644  0.3162  0.5080
  595MOL0     H82087   5.161   8.792  -0.454  1.4796 -0.6015 -1.5680
  595MOL0     H82088   5.400   8.814  -0.499  2.6425 -0.9439 -0.7346
  595MOL0     H82089   5.344   8.644  -0.523  3.1566  0.6602 -1.5371
  595MOL0     H82090   5.279   8.330   0.143 -2.8520  0.7253  1.9336
  595MOL0     H82091   5.479   8.171   0.176 -2.2821  1.6542 -4.3140
  595MOL0     H82092   5.523   7.722   0.292  0.1041  0.8173 -0.2880
  595MOL0     H82093   5.664   7.510   0.324 -1.5431  0.3500  0.3212
  595MOL0     H82094   5.195   6.832   1.636  0.1887 -1.9697 -1.3052
  595MOL0     H82095   5.225   6.937   1.856  0.0967  1.5444 -1.0722
  595MOL0     H82096   5.352   7.040   2.201 -2.0661  1.1750 -0.4488
  595MOL0     H82097   5.372   7.089   2.433 -3.2638  0.1124 -2.7930
  595MOL0     H82098   5.387   7.433   2.569 -0.6624  3.6114  2.5411
  595MOL0     H82099   5.424   7.352   2.711 -3.4999  3.7279 -1.0912
  595MOL0     H82100   5.534   7.568   2.676 -4.2809 -1.9127 -0.4700
  595MOL0     H82101   5.662   7.487   2.573 -1.8873 -0.8661 -0.8939
  595MOL0     H82102   5.610   7.447   2.860  0.9443 -0.4088  0.6857
  595MOL0     H82103   5.677   7.309   2.758  2.0615  0.4300 -1.5360
  595MOL0     H82104   5.848   7.474   2.679 -4.0817  2.1305 -3.1574
  595MOL0     H82105   5.849   7.441   2.854 -4.7555 -3.7843  0.0853
  595MOL0     H82106   5.754   7.866   2.866  0.5065 -0.5460  0.3366
  595MOL0     H82107   5.652   7.408   2.360 -0.2504 -0.4687  1.3848
  595MOL0     H82108   5.689   7.476   2.172  1.1775 -1.3151  2.6230
  595MOL0     H82109   5.782   7.355   2.089  0.8953  0.9622 -0.0882
  595MOL0     H82110   5.628   7.425   2.021  0.0014 -1.1017 -1.2310
  596MOL0     O82111   9.719  10.791   9.390 -0.3614  0.3298 -0.2139
  596MOL0     C82112   9.810  10.770   9.312 -0.9236  0.4076 -0.0484
  596MOL0     O82113   9.842  10.828   9.202 -0.3020 -0.5995  0.7967
  596MOL0     C82114   9.776  10.946   9.156 -0.2371  0.3009 -0.5040
  596MOL0     C82115   9.643  10.938   9.110  0.2870 -0.5454 -0.4610
  596MOL0     C82116   9.575  11.052   9.072  1.1024  0.1299  0.0061
  596MOL0     C82117   9.645  11.174   9.045 -0.0065  0.0374  0.3557
  596MOL0     O82118   9.578  11.285   8.995 -0.4733 -0.1638  0.3543
  596MOL0     C82119   9.435  11.267   8.962 -0.2972 -0.1661  0.5477
  596MOL0     C82120   9.370  11.407   8.933 -0.2612 -0.0439 -0.1510
  596MOL0     C82121   9.407  11.510   9.046 -0.2838 -0.1291  0.8245
  596MOL0     C82122   9.409  11.477   9.195  0.8515 -0.3483 -0.0827
  596MOL0     C82123   9.377  11.597   9.288 -0.0612  0.3900  1.2696
  596MOL0     C82124   9.474  11.712   9.258  0.0234 -0.9913 -0.1327
  596MOL0     C82125   9.473  11.800   9.387  0.2786 -0.6784 -0.0872
  596MOL0     C82126   9.580  11.907   9.375 -0.3093 -0.0331 -0.0072
  596MOL0     N82127   9.653  11.937   9.499  0.2605  0.1197  0.2739
  596MOL0     C82128   9.589  11.983   9.605 -0.1797  0.0594 -1.4587
  596MOL0     C82129   9.680  12.020   9.698 -0.2522  1.1666  0.0948
  596MOL0     C82130   9.666  12.081   9.832  0.8254  0.2647 -0.6077
  596MOL0     C82131   9.770  12.034   9.932 -0.9394 -0.1209 -0.3651
  596MOL0     C82132   9.756  12.110  10.059  0.3037  0.6248 -0.0810
  596MOL0     C82133   9.867  12.080  10.168 -0.3740 -0.2855  0.0097
  596MOL0     O82134   9.999  12.090  10.111 -0.5220  1.1750  0.1410
  596MOL0     C82135  10.091  12.167  10.178 -0.6626 -0.5456  0.3829
  596MOL0     C82136  10.092  12.297  10.149  1.1109  0.5496  0.1323
  596MOL0     C82137  10.186  12.372  10.214 -0.5024  0.8326 -0.4452
  596MOL0     C82138  10.159  12.515  10.193 -0.4914 -0.2009 -0.1565
  596MOL0     C82139  10.285  12.314  10.303  0.1144  0.8595 -0.2695
  596MOL0     C82140  10.387  12.387  10.379 -0.2584 -0.9945  0.5018
  596MOL0     O82141  10.444  12.305  10.472  0.3861 -0.5276 -0.0343
  596MOL0     C82142  10.549  12.355  10.524  0.6806  0.0890  0.0731
  596MOL0     C82143  10.673  12.286  10.498  0.4151 -0.1611  0.4545
  596MOL0     C82144  10.786  12.320  10.559 -0.5625 -0.0429  0.0444
  596MOL0     C82145  10.783  12.425  10.648  0.1477  0.4556 -0.0774
  596MOL0     O82146  10.903  12.464  10.698  0.4786 -0.9857  0.6412
  596MOL0     C82147  10.967  12.569  10.616 -0.4371  0.2273  0.2962
  596MOL0     C82148  11.090  12.635  10.691 -0.2223 -0.1972 -0.1135
  596MOL0     C82149  11.064  12.708  10.825 -0.2582 -0.3457 -0.2269
  596MOL0     C82150  11.174  12.771  10.909  0.2766 -0.0588  0.5705
  596MOL0     C82151  11.101  12.825  11.025 -0.5576 -0.6831 -0.5256
  596MOL0     C82152  11.189  12.913  11.114 -0.4683  0.1578  0.1716
  596MOL0     C82153  11.180  13.050  11.055 -0.6254 -0.1741 -0.8877
  596MOL0     C82154  11.271  13.145  11.151  0.2946  0.1969  0.4418
  596MOL0    Cl82155  11.239  13.321  11.121  0.0451  0.2455  0.1493
  596MOL0     C82156  10.668  12.490  10.681 -0.3489 -0.3487  0.3686
  596MOL0     C82157  10.552  12.468  10.614  0.3286 -1.8276 -0.0196
  596MOL0     O82158  10.419  12.506  10.354 -1.0778 -0.6806 -0.8504
  596MOL0     C82159  10.279  12.175  10.320 -0.0367  0.0047 -0.0285
  596MOL0     C82160  10.180  12.097  10.266 -0.6017 -0.0576 -0.5166
  596MOL0     N82161   9.803  11.977   9.645 -0.1347  0.0167  0.7734
  596MOL0     N82162   9.782  11.937   9.527 -0.7524 -0.0259  0.3675
  596MOL0     C82163   9.775  11.179   9.093 -0.7822 -0.2379  0.0015
  596MOL0     C82164   9.834  11.074   9.158 -0.1844  0.4863  0.5582
  596MOL0     C82165   9.906  10.659   9.335  0.4227  0.1416 -0.6358
  596MOL0     C82166  10.031  10.652   9.260  1.0101 -0.2379  0.5179
  596MOL0     C82167  10.114  10.546   9.276 -0.5972 -0.1544  0.2049
  596MOL0     C82168  10.091  10.449   9.370 -0.0878  0.3167  0.9622
  596MOL0     O82169  10.185  10.350   9.389 -0.6195 -0.4191 -0.7066
  596MOL0     C82170  10.289  10.372   9.488  0.0838 -0.6230 -0.8720
  596MOL0     C82171  10.285  10.228   9.552 -0.2657 -0.0789  0.0687
  596MOL0     C82172  10.400  10.200   9.651 -0.8456  0.2888 -0.5204
  596MOL0     C82173  10.422  10.059   9.690  0.3160 -0.2634  0.4404
  596MOL0     C82174  10.515  10.034   9.798 -0.0602  0.3975 -0.2537
  596MOL0     C82175  10.613  10.016   9.872 -1.3022  0.8892  0.4836
  596MOL0     C82176   9.975  10.451   9.442  0.2092 -0.2350  0.9184
  596MOL0     C82177   9.881  10.558   9.428 -0.5895  0.7060  0.3993
  596MOL0     C82178   9.773  10.549   9.533 -0.6091  0.5520 -0.2772
  596MOL0     H82179   9.586  10.846   9.115  0.9183 -0.9081  0.5383
  596MOL0     H82180   9.472  11.033   9.042  1.3610  1.8101 -2.2784
  596MOL0     H82181   9.394  11.218   9.051 -0.4234 -1.0363  0.0186
  596MOL0     H82182   9.410  11.208   8.874 -1.1727  1.5629 -0.4250
  596MOL0     H82183   9.412  11.446   8.839  0.5886  2.3364  1.1130
  596MOL0     H82184   9.262  11.392   8.925 -0.5702  1.5521  0.6701
  596MOL0     H82185   9.506  11.556   9.033 -0.0929 -0.7082  0.1701
  596MOL0     H82186   9.345  11.597   9.023 -0.6776  0.2264  3.0074
  596MOL0     H82187   9.334  11.400   9.212 -0.6972  1.5092  2.1299
  596MOL0     H82188   9.513  11.447   9.211  0.9233 -0.4768 -0.7731
  596MOL0     H82189   9.378  11.565   9.393  1.0428 -0.0013  1.1624
  596MOL0     H82190   9.275  11.623   9.262 -0.3313 -1.8318 -0.1813
  596MOL0     H82191   9.574  11.679   9.228 -0.3005  0.3013 -2.9461
  596MOL0     H82192   9.450  11.771   9.169 -3.0306 -1.9345 -0.0227
  596MOL0     H82193   9.493  11.746   9.480  1.7516  3.0696  2.0089
  596MOL0     H82194   9.374  11.845   9.399 -0.5666 -2.5272  0.1416
  596MOL0     H82195   9.651  11.868   9.302 -0.7276  0.8187 -0.8925
  596MOL0     H82196   9.538  12.000   9.336  2.5903  0.4707 -2.2977
  596MOL0     H82197   9.482  11.998   9.611 -0.1567 -0.2623  0.2072
  596MOL0     H82198   9.568  12.059   9.876  2.4934 -2.1792  2.2065
  596MOL0     H82199   9.675  12.190   9.827  1.3389  0.2074 -0.9514
  596MOL0     H82200   9.749  11.928   9.949  1.1950 -1.2646 -3.7987
  596MOL0     H82201   9.876  12.045   9.907 -0.6108 -2.7291 -0.3825
  596MOL0     H82202   9.754  12.219  10.049 -0.0074  0.5464 -0.9599
  596MOL0     H82203   9.667  12.080  10.115  0.1489  0.6685 -0.3038
  596MOL0     H82204   9.853  12.160  10.241 -1.7300  0.0359 -0.5625
  596MOL0     H82205   9.856  11.983  10.217  0.5533 -0.0875  0.6115
  596MOL0     H82206  10.015  12.324  10.078  0.9003 -0.3165  0.0122
  596MOL0     H82207  10.228  12.585  10.241 -0.2231 -1.4657  1.3996
  596MOL0     H82208  10.056  12.549  10.204 -1.1297 -1.5297 -1.6301
  596MOL0     H82209  10.175  12.528  10.086 -1.2611 -2.5915 -0.6315
  596MOL0     H82210  10.674  12.201  10.430 -1.1985 -0.8897  1.2867
  596MOL0     H82211  10.881  12.268  10.548 -1.7373 -2.2025 -0.4140
  596MOL0     H82212  11.011  12.534  10.523  2.0326 -6.4779  3.3326
  596MOL0     H82213  10.891  12.644  10.590 -0.9584 -0.6760 -0.8578
  596MOL0     H82214  11.157  12.555  10.722 -0.3453 -1.7232 -3.3645
  596MOL0     H82215  11.138  12.698  10.615 -1.3588  0.0567 -0.6397
  596MOL0     H82216  11.003  12.648  10.893  2.3431  0.2672  2.9545
  596MOL0     H82217  11.005  12.795  10.796 -0.4778 -0.5605 -0.4238
  596MOL0     H82218  11.222  12.845  10.845 -0.0759 -0.6704 -0.4162
  596MOL0     H82219  11.251  12.695  10.927  2.6971  1.2188 -3.2683
  596MOL0     H82220  11.020  12.891  10.994 -1.0781 -0.9654  0.2232
  596MOL0     H82221  11.065  12.748  11.093 -1.2652  2.9504  3.6360
  596MOL0     H82222  11.292  12.876  11.112  0.4692  2.2932  2.9085
  596MOL0     H82223  11.147  12.911  11.215 -4.0324 -1.4998 -1.1393
  596MOL0     H82224  11.081  13.096  11.066  0.3251  2.5513 -2.6820
  596MOL0     H82225  11.212  13.043  10.951 -1.4180 -3.2614 -1.0125
  596MOL0     H82226  11.378  13.120  11.150  0.8593  2.1028  2.6961
  596MOL0     H82227  11.243  13.130  11.256  0.8092  0.7055  0.6589
  596MOL0     H82228  10.654  12.556  10.766  0.1887  1.1178 -0.6452
  596MOL0     H82229  10.465  12.534  10.620  3.1548  2.4525 -1.4749
  596MOL0     H82230  10.352  12.120  10.378  0.4946  0.8581  0.1302
  596MOL0     H82231  10.168  11.991  10.289  0.1576  0.4544  2.7699
  596MOL0     H82232   9.834  11.269   9.080 -0.0608 -0.7544 -0.4465
  596MOL0     H82233   9.936  11.073   9.195 -0.9442 -2.4405  2.9731
  596MOL0     H82234  10.061  10.725   9.186  2.2341 -3.1520 -2.1001
  596MOL0     H82235  10.200  10.542   9.210  0.9651 -0.5680  2.1715
  596MOL0     H82236  10.380  10.396   9.432 -0.6113 -4.9519 -4.4742
  596MOL0     H82237  10.273  10.439   9.572 -1.0734 -1.1620 -0.6412
  596MOL0     H82238  10.302  10.164   9.466  2.5113  1.4143 -0.6041
  596MOL0     H82239  10.190  10.217   9.606 -0.1996 -2.4949 -0.2148
  596MOL0     H82240  10.490  10.224   9.593 -0.3593 -0.1270  0.0474
  596MOL0     H82241  10.398  10.271   9.734  1.0091 -0.0300 -0.1531
  596MOL0     H82242  10.466   9.997   9.612  2.8165  0.4481  1.1980
  596MOL0     H82243  10.331  10.018   9.736  1.2836  1.0339  3.8550
  596MOL0     H82244  10.692  10.006   9.943  0.0795  1.9345 -0.8483
  596MOL0     H82245   9.961  10.383   9.525  2.5350  2.8516  4.1073
  596MOL0     H82246   9.680  10.601   9.508  0.6272  2.8470 -0.3275
  596MOL0     H82247   9.748  10.447   9.565  1.3083  0.4572  1.0852
  596MOL0     H82248   9.804  10.588   9.630 -3.9743 -1.3609  1.7564
  597MOL0     O82249   0.441   9.609   3.046  0.2104  0.1658  0.1521
  597MOL0     C82250   0.358   9.595   2.954 -0.3509  0.1984 -0.0348
  597MOL0     O82251   0.227   9.586   2.970 -0.1167 -0.1528 -0.0487
  597MOL0     C82252   0.156   9.585   3.096  0.4483 -0.5114  1.0096
  597MOL0     C82253   0.018   9.573   3.067 -0.3008 -0.0946 -0.7736
  597MOL0     C82254  -0.069   9.560   3.179  0.0157  0.3808  0.9573
  597MOL0     C82255  -0.015   9.550   3.304  0.2756  0.1502 -0.0398
  597MOL0     O82256  -0.114   9.521   3.394  0.2465 -0.1163 -0.6030
  597MOL0     C82257  -0.087   9.435   3.503 -0.1541 -0.2501  0.4917
  597MOL0     C82258  -0.215   9.381   3.571  0.1661 -0.9297  0.5230
  597MOL0     C82259  -0.276   9.279   3.486 -0.2489  0.2821 -0.4560
  597MOL0     C82260  -0.420   9.226   3.520 -0.3201  0.1820  0.5908
  597MOL0     C82261  -0.488   9.129   3.426  0.6335  0.7632 -0.3360
  597MOL0     C82262  -0.572   9.015   3.491  0.5047 -0.4305  0.4833
  597MOL0     C82263  -0.599   8.912   3.373 -0.2114 -0.5388  0.2093
  597MOL0     C82264  -0.675   8.784   3.412 -0.7034  0.6628 -0.2178
  597MOL0     N82265  -0.806   8.821   3.473  0.1584 -0.2430 -0.0314
  597MOL0     C82266  -0.929   8.783   3.421 -0.3161  0.7116 -0.1552
  597MOL0     C82267  -1.020   8.825   3.521 -0.0226 -0.1795  0.5934
  597MOL0     C82268  -1.170   8.827   3.492 -0.3783  1.0537  0.2224
  597MOL0     C82269  -1.242   8.712   3.566  0.3151 -1.1212 -0.2406
  597MOL0     C82270  -1.197   8.573   3.511 -0.5539 -0.0782 -0.5302
  597MOL0     C82271  -1.247   8.454   3.579 -0.3858  0.4484 -1.6897
  597MOL0     O82272  -1.186   8.337   3.525  0.2077 -0.6534  0.0132
  597MOL0     C82273  -1.238   8.213   3.547 -0.0559 -0.3880 -0.1010
  597MOL0     C82274  -1.220   8.116   3.439 -0.0098  0.9578 -0.2872
  597MOL0     C82275  -1.275   7.984   3.459 -0.7143  0.6311  0.4770
  597MOL0     C82276  -1.265   7.883   3.344 -0.2191  0.0869  0.4488
  597MOL0     C82277  -1.324   7.950   3.583  0.3851  0.3096  0.3661
  597MOL0     C82278  -1.383   7.813   3.627  0.3989 -0.8561  0.3800
  597MOL0     O82279  -1.470   7.738   3.539  0.3099  0.6548 -0.5622
  597MOL0     C82280  -1.463   7.595   3.550 -0.1323  0.5495 -0.3370
  597MOL0     C82281  -1.335   7.541   3.534 -0.1339  0.6374  1.0246
  597MOL0     C82282  -1.323   7.402   3.534 -0.1514 -0.3614 -0.5169
  597MOL0     C82283  -1.430   7.318   3.567  0.0481  0.1575 -0.7996
  597MOL0     O82284  -1.395   7.183   3.565 -0.4415 -0.6616 -0.2577
  597MOL0     C82285  -1.487   7.081   3.602  0.9973  0.1409  0.4840
  597MOL0     C82286  -1.441   6.960   3.520  0.6291  0.3078  0.5413
  597MOL0     C82287  -1.466   6.972   3.370 -0.2963 -0.1124  0.0409
  597MOL0     C82288  -1.418   6.853   3.292 -0.7166  0.0077  0.6450
  597MOL0     C82289  -1.488   6.723   3.326  0.2162 -0.7403 -0.3297
  597MOL0     C82290  -1.434   6.605   3.239  0.3388  0.1601 -0.5081
  597MOL0     C82291  -1.285   6.575   3.261  0.2788  0.3266  0.2494
  597MOL0     C82292  -1.199   6.641   3.165 -0.1904  0.3719  0.4873
  597MOL0    Cl82293  -1.056   6.538   3.152  0.1397 -0.4783 -0.5129
  597MOL0     C82294  -1.551   7.377   3.609  0.0204  0.2334  0.0466
  597MOL0     C82295  -1.565   7.516   3.607  0.0121  0.1836 -0.0624
  597MOL0     O82296  -1.356   7.779   3.741  0.0793  0.5535 -0.5622
  597MOL0     C82297  -1.350   8.048   3.680  0.5156 -0.8067 -0.2411
  597MOL0     C82298  -1.309   8.180   3.669 -0.2436 -0.4187  2.1872
  597MOL0     N82299  -0.953   8.863   3.634 -0.2900 -0.5089  0.4121
  597MOL0     N82300  -0.827   8.877   3.603 -0.4461 -0.1921  0.1108
  597MOL0     C82301   0.128   9.560   3.335 -0.1832  0.1105  0.9921
  597MOL0     C82302   0.216   9.573   3.224 -0.4558 -0.5440 -0.5982
  597MOL0     C82303   0.425   9.605   2.819  0.2637 -0.1096 -0.8632
  597MOL0     C82304   0.516   9.505   2.787 -0.6007  0.6048 -0.2753
  597MOL0     C82305   0.582   9.510   2.665  0.4904  0.8413  0.8703
  597MOL0     C82306   0.564   9.625   2.579 -0.2962 -0.3794 -0.2206
  597MOL0     O82307   0.612   9.628   2.446  0.4617  0.1803 -0.2367
  597MOL0     C82308   0.531   9.569   2.353 -0.4176  1.1788 -1.1096
  597MOL0     C82309   0.518   9.659   2.231 -0.1266 -1.2325 -0.4070
  597MOL0     C82310   0.440   9.785   2.274  0.1312 -0.4944  1.0707
  597MOL0     C82311   0.389   9.864   2.145 -0.5988 -0.4413 -0.3760
  597MOL0     C82312   0.310   9.984   2.172 -0.3164 -0.2228  0.1387
  597MOL0     C82313   0.244  10.087   2.176  0.5812  0.2714  1.2431
  597MOL0     C82314   0.474   9.726   2.613 -0.4789 -0.5382 -1.2969
  597MOL0     C82315   0.406   9.723   2.741 -0.2234 -0.3663 -0.2033
  597MOL0     C82316   0.314   9.838   2.783 -0.1312  0.8776 -0.0536
  597MOL0     H82317  -0.019   9.597   2.967 -1.3662  1.6121 -0.0028
  597MOL0     H82318  -0.176   9.554   3.167  0.0742  0.9606  0.0320
  597MOL0     H82319  -0.013   9.478   3.571  1.5546 -2.4117  0.0773
  597MOL0     H82320  -0.040   9.345   3.464 -6.3144 -2.4888 -3.0662
  597MOL0     H82321  -0.197   9.329   3.665 -3.6561  0.0170  1.9537
  597MOL0     H82322  -0.295   9.454   3.591  3.2133  2.9501 -0.1089
  597MOL0     H82323  -0.285   9.303   3.379  0.9684  0.7207 -0.4774
  597MOL0     H82324  -0.204   9.199   3.502  0.4941  0.5152 -2.3043
  597MOL0     H82325  -0.401   9.175   3.615 -0.2485 -1.7177 -0.3981
  597MOL0     H82326  -0.494   9.302   3.547 -2.1656 -1.5365  0.6190
  597MOL0     H82327  -0.410   9.080   3.366 -1.1908 -1.9662 -0.6226
  597MOL0     H82328  -0.541   9.185   3.349  1.3466  1.2799 -0.4583
  597MOL0     H82329  -0.522   8.965   3.574  1.0235  0.0927  0.4920
  597MOL0     H82330  -0.658   9.069   3.534  0.7073  0.6326 -0.4098
  597MOL0     H82331  -0.497   8.880   3.348  1.6486  1.1297  4.5783
  597MOL0     H82332  -0.648   8.965   3.292  2.1683 -0.6764 -1.4438
  597MOL0     H82333  -0.694   8.713   3.331  0.0541 -0.2606  0.4085
  597MOL0     H82334  -0.625   8.730   3.492  1.9668  2.6916 -0.3718
  597MOL0     H82335  -0.957   8.741   3.325  2.7324 -2.5870  0.1664
  597MOL0     H82336  -1.192   8.816   3.386 -3.7372 -3.8735  1.1074
  597MOL0     H82337  -1.211   8.924   3.523  3.0516  2.8513 -0.2681
  597MOL0     H82338  -1.235   8.709   3.676  0.4394  0.1280 -0.2007
  597MOL0     H82339  -1.349   8.721   3.544  0.3481 -0.6210 -0.1970
  597MOL0     H82340  -1.221   8.570   3.405  3.7832 -0.2826 -1.7114
  597MOL0     H82341  -1.088   8.568   3.503 -0.5344  1.8242 -2.4690
  597MOL0     H82342  -1.231   8.462   3.687 -0.1284 -2.3558 -1.4533
  597MOL0     H82343  -1.353   8.446   3.558 -0.4799  3.8423 -3.2641
  597MOL0     H82344  -1.163   8.149   3.353  1.7310 -2.1357 -0.4465
  597MOL0     H82345  -1.219   7.796   3.392  1.2934  1.0110  0.7554
  597MOL0     H82346  -1.203   7.903   3.256  1.2633  0.1861  1.4794
  597MOL0     H82347  -1.364   7.857   3.307 -0.8988 -0.4767  2.5207
  597MOL0     H82348  -1.247   7.590   3.492 -0.1101 -0.5824 -0.4419
  597MOL0     H82349  -1.231   7.347   3.517 -1.9125 -4.6795  2.2477
  597MOL0     H82350  -1.480   7.054   3.707 -0.1799 -0.8405  0.3349
  597MOL0     H82351  -1.590   7.109   3.581  0.3179 -0.0408  3.3006
  597MOL0     H82352  -1.334   6.947   3.536  0.3828  0.0873  2.2046
  597MOL0     H82353  -1.494   6.875   3.564  0.5082 -2.3527 -4.1455
  597MOL0     H82354  -1.405   7.057   3.336  0.8559 -0.1017  2.0006
  597MOL0     H82355  -1.566   7.003   3.340  0.2742  0.4773 -1.3519
  597MOL0     H82356  -1.314   6.844   3.324 -0.5022  0.2052  0.0229
  597MOL0     H82357  -1.406   6.873   3.185 -1.2143  1.9659  0.8999
  597MOL0     H82358  -1.481   6.713   3.435  5.6902 -0.3274 -0.3573
  597MOL0     H82359  -1.596   6.718   3.307  0.1566 -3.2207  0.3289
  597MOL0     H82360  -1.456   6.640   3.137 -2.6467  0.1114  0.0271
  597MOL0     H82361  -1.491   6.516   3.266 -0.1092  0.9897  1.4467
  597MOL0     H82362  -1.265   6.468   3.245  3.6165  0.0660  4.4724
  597MOL0     H82363  -1.255   6.591   3.365 -0.1494 -1.4763  0.6802
  597MOL0     H82364  -1.168   6.743   3.191 -0.1723  0.4427  0.1951
  597MOL0     H82365  -1.249   6.653   3.068  0.3194  1.3995  0.3354
  597MOL0     H82366  -1.616   7.302   3.653 -0.9319  1.2389  0.3874
  597MOL0     H82367  -1.652   7.571   3.640 -0.8343 -1.0454 -0.1486
  597MOL0     H82368  -1.403   8.018   3.770  1.3471  2.0033  1.3080
  597MOL0     H82369  -1.332   8.251   3.748 -2.3189  0.5550  0.8142
  597MOL0     H82370   0.160   9.552   3.438  1.6702  0.7657  0.5181
  597MOL0     H82371   0.323   9.560   3.236 -0.0931  1.0980 -1.6688
  597MOL0     H82372   0.524   9.409   2.836  1.9346 -1.2532 -3.8458
  597MOL0     H82373   0.634   9.422   2.628 -1.4480  0.5155 -1.3441
  597MOL0     H82374   0.591   9.489   2.308  0.8157  1.5651 -0.2070
  597MOL0     H82375   0.436   9.529   2.390 -0.0138 -0.2519 -1.5349
  597MOL0     H82376   0.474   9.607   2.145  3.1668 -2.4600 -1.4905
  597MOL0     H82377   0.620   9.687   2.204  0.3360  1.4001  3.4099
  597MOL0     H82378   0.352   9.747   2.327 -0.8593 -0.1144 -0.2456
  597MOL0     H82379   0.497   9.844   2.346  0.5989 -1.7448  1.7642
  597MOL0     H82380   0.337   9.798   2.075  1.6368  0.0684 -2.6733
  597MOL0     H82381   0.482   9.894   2.095  0.4048 -3.6955 -0.7261
  597MOL0     H82382   0.181  10.174   2.164  1.9985  1.2401  0.5190
  597MOL0     H82383   0.457   9.813   2.550 -4.1160  0.1719  0.3891
  597MOL0     H82384   0.232   9.787   2.834  0.9916 -0.5314  0.4210
  597MOL0     H82385   0.359   9.912   2.849 -0.8569  0.5192  0.8611
  597MOL0     H82386   0.276   9.881   2.690  1.0592 -0.3623 -1.1575
  598MOL0     O82387   5.157   5.137   8.850 -0.5227  0.3971 -0.2697
  598MOL0     C82388   5.169   5.223   8.938  0.1496 -0.1773  0.2455
  598MOL0     O82389   5.081   5.248   9.038 -0.0451 -0.3759  0.7449
  598MOL0     C82390   4.968   5.178   9.069  0.3539 -0.3104 -0.2860
  598MOL0     C82391   4.941   5.044   9.030  0.0356  0.7380  0.2607
  598MOL0     C82392   4.826   4.979   9.077  0.6792  0.8218 -0.3663
  598MOL0     C82393   4.735   5.041   9.160 -1.5040  0.1753  0.0203
  598MOL0     O82394   4.628   4.979   9.212  0.0425  0.4257 -0.2603
  598MOL0     C82395   4.531   4.922   9.117 -0.6676  0.3410 -0.2973
  598MOL0     C82396   4.519   4.780   9.159  1.1323  0.6983  0.7513
  598MOL0     C82397   4.451   4.701   9.040 -0.3607  0.3433 -0.9496
  598MOL0     C82398   4.298   4.729   9.039  0.0026 -0.2391 -0.6388
  598MOL0     C82399   4.229   4.674   8.915 -1.2143 -0.0874 -0.6282
  598MOL0     C82400   4.079   4.687   8.923 -0.5673 -0.8403  0.3039
  598MOL0     C82401   4.020   4.832   8.922 -0.0085 -0.9727 -0.9048
  598MOL0     C82402   3.871   4.832   8.914  0.2440  0.0111 -0.8902
  598MOL0     N82403   3.819   4.782   8.793 -0.0265  1.0017  0.1061
  598MOL0     C82404   3.739   4.852   8.703 -1.6422 -0.7588 -0.0473
  598MOL0     C82405   3.665   4.763   8.641 -0.4719 -0.5190  0.1610
  598MOL0     C82406   3.549   4.799   8.560  1.1491  0.6161  0.6409
  598MOL0     C82407   3.546   4.740   8.411  0.2109 -0.1840  0.8819
  598MOL0     C82408   3.686   4.722   8.346  0.4400  0.5879 -0.4677
  598MOL0     C82409   3.704   4.610   8.243 -0.4113  0.1970  0.0732
  598MOL0     O82410   3.715   4.667   8.116 -0.0278 -0.4641 -0.5810
  598MOL0     C82411   3.751   4.571   8.025 -0.4818 -0.7300  0.4834
  598MOL0     C82412   3.780   4.435   8.050  0.4004 -0.8920  0.8650
  598MOL0     C82413   3.818   4.352   7.942 -0.0124  0.9788  0.2305
  598MOL0     C82414   3.849   4.213   7.981  0.1684  0.7199 -0.2855
  598MOL0     C82415   3.846   4.400   7.806  0.3674 -0.9723 -0.4843
  598MOL0     C82416   3.900   4.325   7.695 -1.0809 -0.0897  0.5415
  598MOL0     O82417   3.863   4.369   7.579 -0.2898 -0.4949 -0.2126
  598MOL0     C82418   3.888   4.299   7.458  0.4826 -0.0011 -0.0246
  598MOL0     C82419   3.819   4.343   7.349 -0.1327 -0.2522  0.5249
  598MOL0     C82420   3.825   4.274   7.225 -0.0111  0.0346 -0.1605
  598MOL0     C82421   3.916   4.161   7.209  0.2165  0.1489  0.2212
  598MOL0     O82422   3.904   4.101   7.084 -0.3250 -0.9384  0.6208
  598MOL0     C82423   4.015   4.031   7.034 -1.3652  0.1136 -1.5597
  598MOL0     C82424   3.965   3.884   7.004  0.5416  0.2191  0.7541
  598MOL0     C82425   3.874   3.858   6.866  0.4834 -0.9375 -0.8293
  598MOL0     C82426   3.859   3.711   6.840  0.6058 -0.5059  0.3769
  598MOL0     C82427   3.854   3.697   6.688 -1.0787  0.5490  0.1182
  598MOL0     C82428   3.712   3.732   6.629 -0.0377  0.4315 -0.8024
  598MOL0     C82429   3.715   3.708   6.467 -0.1182 -0.1355  0.1679
  598MOL0     C82430   3.566   3.685   6.422 -0.2311 -0.3965  0.6014
  598MOL0    Cl82431   3.537   3.703   6.248  0.2391 -0.5747 -0.1263
  598MOL0     C82432   3.982   4.119   7.318  0.4649  0.2671 -0.7982
  598MOL0     C82433   3.968   4.181   7.442 -0.0647  0.4982 -0.8097
  598MOL0     O82434   4.000   4.254   7.716 -0.1120  0.0861 -0.7236
  598MOL0     C82435   3.807   4.532   7.788  0.0602  0.1295  0.8205
  598MOL0     C82436   3.750   4.613   7.886 -0.4434  0.3380  0.4187
  598MOL0     N82437   3.702   4.637   8.671 -0.0940  0.9333 -0.5470
  598MOL0     N82438   3.783   4.646   8.775  0.0542 -0.6712 -0.6140
  598MOL0     C82439   4.768   5.167   9.212  0.3182 -0.1170 -0.4288
  598MOL0     C82440   4.878   5.232   9.170  0.3048 -0.2416  0.0383
  598MOL0     C82441   5.276   5.322   8.924 -0.2329  0.0637  0.3134
  598MOL0     C82442   5.248   5.451   8.966  0.2182 -0.0828 -0.7221
  598MOL0     C82443   5.352   5.538   8.973 -0.4049 -0.3761 -0.0463
  598MOL0     C82444   5.480   5.511   8.932 -0.1315  0.7194 -0.2929
  598MOL0     O82445   5.567   5.621   8.936  0.1568 -0.3989  0.2715
  598MOL0     C82446   5.700   5.589   8.894 -0.4782 -0.7775  0.2027
  598MOL0     C82447   5.779   5.715   8.860  1.3462  0.1770 -1.0360
  598MOL0     C82448   5.922   5.683   8.823  0.8028  0.1968  0.5859
  598MOL0     C82449   5.986   5.593   8.919 -0.1233  0.2635  0.6692
  598MOL0     C82450   6.133   5.606   8.924  0.0972 -0.2649  0.4985
  598MOL0     C82451   6.250   5.590   8.932 -0.6237 -0.4330 -0.2226
  598MOL0     C82452   5.509   5.381   8.891  0.0648  1.6325  0.2082
  598MOL0     C82453   5.407   5.281   8.876 -0.6551  0.2815 -0.2271
  598MOL0     C82454   5.451   5.150   8.815  0.2520 -0.3222  0.5633
  598MOL0     H82455   5.011   4.978   8.981 -0.3865 -0.2487  0.9469
  598MOL0     H82456   4.815   4.871   9.069 -2.9200  0.9672  0.7766
  598MOL0     H82457   4.552   4.939   9.011 -2.6242 -0.1172 -0.7956
  598MOL0     H82458   4.440   4.982   9.126 -1.0569  0.6361 -4.4430
  598MOL0     H82459   4.619   4.740   9.178  0.9490 -0.3200 -0.2740
  598MOL0     H82460   4.462   4.770   9.252  3.1132 -3.9737  1.7344
  598MOL0     H82461   4.501   4.731   8.947  0.0170  0.0237 -0.8532
  598MOL0     H82462   4.482   4.598   9.061  0.4015  0.2277 -2.4779
  598MOL0     H82463   4.243   4.691   9.126  0.7963  0.7196  0.3160
  598MOL0     H82464   4.290   4.837   9.055  0.5348 -0.3565  0.5276
  598MOL0     H82465   4.256   4.569   8.903 -1.5004  0.0112 -2.5100
  598MOL0     H82466   4.274   4.736   8.837  1.4284  0.3705  1.1480
  598MOL0     H82467   4.044   4.627   8.839  0.8519  0.2437 -1.1172
  598MOL0     H82468   4.040   4.630   9.008  1.0345 -2.5392 -0.0367
  598MOL0     H82469   4.065   4.896   8.846 -1.0183  1.5511  0.5105
  598MOL0     H82470   4.056   4.883   9.011 -1.1804 -0.6741 -0.5849
  598MOL0     H82471   3.834   4.779   9.002 -0.6684 -0.8032 -1.7520
  598MOL0     H82472   3.849   4.939   8.927  2.1711  0.7327 -2.8764
  598MOL0     H82473   3.735   4.960   8.697 -0.6702 -0.6380  1.0152
  598MOL0     H82474   3.531   4.907   8.557 -0.5462  0.3653  0.8794
  598MOL0     H82475   3.461   4.761   8.612  1.1494 -0.7556 -0.3198
  598MOL0     H82476   3.497   4.643   8.403 -0.8275  0.3934  0.0807
  598MOL0     H82477   3.484   4.802   8.346  0.9486  1.9352  2.0530
  598MOL0     H82478   3.723   4.813   8.298  1.7663  0.4192  0.1745
  598MOL0     H82479   3.770   4.707   8.414  2.8202 -0.8030 -3.4547
  598MOL0     H82480   3.799   4.561   8.265 -0.6535  0.7930  2.8194
  598MOL0     H82481   3.619   4.540   8.241 -1.2420  1.1736 -2.1610
  598MOL0     H82482   3.779   4.400   8.153 -1.3835  3.4392  2.5751
  598MOL0     H82483   3.779   4.162   8.047  1.4144 -1.6253 -0.6447
  598MOL0     H82484   3.943   4.208   8.036  1.8996 -0.0463 -3.0886
  598MOL0     H82485   3.871   4.148   7.895 -0.9333  1.4031 -1.1117
  598MOL0     H82486   3.766   4.437   7.359  1.5402  0.6739  1.0816
  598MOL0     H82487   3.775   4.309   7.135  1.4778  0.1151 -1.0117
  598MOL0     H82488   4.069   4.091   6.960  1.7756  1.0597  1.2614
  598MOL0     H82489   4.102   4.017   7.099  0.1272  1.6840 -3.1138
  598MOL0     H82490   4.057   3.825   6.996 -0.2699 -0.8914 -1.2322
  598MOL0     H82491   3.921   3.840   7.095 -3.3379  1.1773 -0.4468
  598MOL0     H82492   3.925   3.914   6.788  2.5360  0.6588  1.5044
  598MOL0     H82493   3.774   3.902   6.875 -0.2983 -2.3958 -1.8986
  598MOL0     H82494   3.768   3.680   6.893 -0.9919  3.4193  0.2658
  598MOL0     H82495   3.938   3.648   6.881  2.3944  1.0416 -0.5568
  598MOL0     H82496   3.941   3.753   6.656  2.6242 -2.9815  2.9705
  598MOL0     H82497   3.871   3.591   6.665 -3.2159 -0.2788  1.9666
  598MOL0     H82498   3.698   3.837   6.657  1.2133  0.6054 -0.7555
  598MOL0     H82499   3.630   3.673   6.670 -0.7349  1.8965 -0.0013
  598MOL0     H82500   3.772   3.618   6.440 -2.1996 -1.2359 -0.7598
  598MOL0     H82501   3.758   3.791   6.410 -0.2078  1.2622  2.0408
  598MOL0     H82502   3.518   3.773   6.466  2.0858  0.9281  0.6202
  598MOL0     H82503   3.527   3.590   6.460  1.2875 -1.4596 -0.3689
  598MOL0     H82504   4.046   4.032   7.314  0.4785  0.1636  0.9806
  598MOL0     H82505   4.018   4.140   7.530  0.1641  1.0773 -0.6662
  598MOL0     H82506   3.805   4.575   7.689  1.8349 -3.1624 -0.7756
  598MOL0     H82507   3.722   4.715   7.862  1.7265  1.1547  1.1150
  598MOL0     H82508   4.694   5.211   9.278  0.7128 -0.4943  0.2675
  598MOL0     H82509   4.903   5.336   9.189 -2.9042  0.5663  0.3488
  598MOL0     H82510   5.151   5.479   9.005  0.6754  0.6389 -0.0611
  598MOL0     H82511   5.338   5.639   9.009  0.2091 -1.0104  2.1077
  598MOL0     H82512   5.753   5.522   8.962  0.3612 -1.8788 -1.4545
  598MOL0     H82513   5.689   5.529   8.803  0.4045 -2.1675  0.9715
  598MOL0     H82514   5.786   5.780   8.947 -2.8682  0.1530 -0.4534
  598MOL0     H82515   5.730   5.768   8.777  0.0590 -1.8480 -1.6569
  598MOL0     H82516   5.917   5.630   8.728  4.2583 -1.2456  1.0694
  598MOL0     H82517   5.975   5.777   8.802 -0.4897  1.1141  1.2449
  598MOL0     H82518   5.968   5.486   8.900 -0.9307  0.5477 -0.2516
  598MOL0     H82519   5.956   5.624   9.020  1.3461  1.0052  0.8962
  598MOL0     H82520   6.357   5.596   8.935 -0.6116 -0.9074  0.8290
  598MOL0     H82521   5.605   5.348   8.855 -0.1065  2.0605 -0.6628
  598MOL0     H82522   5.546   5.168   8.765  0.2533  0.3784  0.8001
  598MOL0     H82523   5.429   5.072   8.888  0.3507 -0.4968  0.4034
  598MOL0     H82524   5.390   5.128   8.727  0.7025  1.0302 -0.1190
  599MOL0     O82525   8.776   3.897   4.100  0.4319  1.7207 -0.0247
  599MOL0     C82526   8.778   3.886   3.979  0.5349  0.2306 -0.4030
  599MOL0     O82527   8.804   3.772   3.909 -0.8055  0.0780 -0.5987
  599MOL0     C82528   8.741   3.655   3.935  0.3084 -0.6834 -0.1894
  599MOL0     C82529   8.765   3.536   3.857  0.1797 -0.7424  0.1240
  599MOL0     C82530   8.691   3.425   3.868  0.0027 -0.0060  0.4322
  599MOL0     C82531   8.580   3.425   3.952 -0.1905 -0.0540  0.9077
  599MOL0     O82532   8.503   3.312   3.971  0.4732  0.0138  0.3783
  599MOL0     C82533   8.517   3.193   3.892 -0.0457 -1.0985 -0.1341
  599MOL0     C82534   8.411   3.097   3.933 -0.2838  0.2044  0.1521
  599MOL0     C82535   8.412   2.958   3.879 -0.7275 -0.0028  0.4335
  599MOL0     C82536   8.538   2.870   3.889  0.0576 -0.1716  0.0564
  599MOL0     C82537   8.536   2.744   3.808 -0.3434  0.8584  0.4281
  599MOL0     C82538   8.681   2.703   3.755 -0.1022 -0.2516  1.1255
  599MOL0     C82539   8.763   2.653   3.869 -0.2876  1.1621 -0.7706
  599MOL0     C82540   8.890   2.589   3.824  0.0643 -0.9524  0.6473
  599MOL0     N82541   8.981   2.678   3.747  0.5758  0.0438 -0.7300
  599MOL0     C82542   9.107   2.714   3.790  0.6861  0.2583 -0.3124
  599MOL0     C82543   9.184   2.752   3.686 -0.4355  0.1533 -0.3668
  599MOL0     C82544   9.326   2.798   3.688  0.2856 -0.0849 -0.8109
  599MOL0     C82545   9.419   2.718   3.789  0.4647  0.7114  0.4387
  599MOL0     C82546   9.570   2.767   3.775 -0.0066 -0.1788 -0.0298
  599MOL0     C82547   9.664   2.690   3.865 -0.1505  0.2316  0.0804
  599MOL0     O82548   9.795   2.727   3.825 -0.1046  0.0545 -0.1036
  599MOL0     C82549   9.894   2.720   3.913 -0.1821  0.0904 -0.7390
  599MOL0     C82550   9.903   2.675   4.046  0.7018  0.5089 -0.7514
  599MOL0     C82551  10.019   2.678   4.117 -0.1420  0.0419  0.1672
  599MOL0     C82552  10.001   2.634   4.264  0.0217 -0.6053  0.4259
  599MOL0     C82553  10.140   2.722   4.054  0.1805  0.0244 -0.0600
  599MOL0     C82554  10.277   2.704   4.108  0.9269 -0.1066  0.2628
  599MOL0     O82555  10.377   2.782   4.069 -0.0379 -0.4124  0.1428
  599MOL0     C82556  10.497   2.730   4.070 -1.1148 -0.9283 -0.3756
  599MOL0     C82557  10.550   2.663   3.961 -0.0211  1.0320 -0.5214
  599MOL0     C82558  10.681   2.604   3.962 -0.2212  0.5767  0.0821
  599MOL0     C82559  10.765   2.603   4.081  0.3546 -0.2824  1.1138
  599MOL0     O82560  10.891   2.549   4.075 -0.7067 -0.1926  0.0524
  599MOL0     C82561  10.927   2.453   3.972 -0.4659 -0.2238  0.7831
  599MOL0     C82562  11.073   2.425   3.987 -0.4154  0.2164  0.2129
  599MOL0     C82563  11.183   2.539   3.991  0.1272  0.2602  0.0441
  599MOL0     C82564  11.326   2.472   3.999  0.4773 -0.5726  0.3439
  599MOL0     C82565  11.358   2.408   4.143  0.0753 -0.3639  0.3255
  599MOL0     C82566  11.360   2.508   4.270 -0.3683 -0.4540  0.5620
  599MOL0     C82567  11.400   2.445   4.404 -0.5713 -1.1369  0.3303
  599MOL0     C82568  11.544   2.391   4.406  0.0945 -0.1647  1.2131
  599MOL0    Cl82569  11.609   2.323   4.561 -0.3405 -0.0267 -0.1995
  599MOL0     C82570  10.722   2.687   4.188 -0.0664  0.1852 -0.2524
  599MOL0     C82571  10.593   2.748   4.178  0.9676  0.1693 -0.8445
  599MOL0     O82572  10.286   2.601   4.181 -0.4949 -0.0636  0.0026
  599MOL0     C82573  10.133   2.766   3.923 -0.3003  0.7044 -0.0510
  599MOL0     C82574  10.014   2.759   3.853 -0.3170  0.6279 -0.8612
  599MOL0     N82575   9.104   2.742   3.578 -0.4081 -0.2648  0.0703
  599MOL0     N82576   8.992   2.689   3.612 -0.3023 -0.2630 -0.6805
  599MOL0     C82577   8.552   3.533   4.031 -0.1000 -0.2179  0.5432
  599MOL0     C82578   8.630   3.644   4.023  0.4894  0.3322  0.8874
  599MOL0     C82579   8.751   4.009   3.904  0.6385  0.6194 -0.1448
  599MOL0     C82580   8.659   4.093   3.963  0.1760  0.8124  0.4003
  599MOL0     C82581   8.636   4.221   3.920  0.2801 -0.1357 -0.7520
  599MOL0     C82582   8.698   4.272   3.799 -0.3307  0.2537  0.0533
  599MOL0     O82583   8.684   4.387   3.727 -0.0571 -0.2791  0.6498
  599MOL0     C82584   8.546   4.424   3.719  0.5792 -0.3915  0.3086
  599MOL0     C82585   8.506   4.539   3.819 -0.3680  0.4116  0.8590
  599MOL0     C82586   8.350   4.548   3.846  0.0367 -0.7580  0.7133
  599MOL0     C82587   8.264   4.554   3.711 -0.0097  0.1867  0.3536
  599MOL0     C82588   8.122   4.523   3.752 -0.1211 -0.9006  1.0125
  599MOL0     C82589   8.019   4.477   3.797 -0.1256 -0.7053  0.1590
  599MOL0     C82590   8.801   4.187   3.739  0.0424 -0.5029 -0.3898
  599MOL0     C82591   8.824   4.054   3.787 -0.0960 -0.1571 -0.0338
  599MOL0     C82592   8.930   3.962   3.730  0.6449  0.6798  0.0470
  599MOL0     H82593   8.839   3.534   3.778 -1.7606 -4.9032 -1.8697
  599MOL0     H82594   8.718   3.350   3.795 -0.5488  0.9544 -0.7846
  599MOL0     H82595   8.618   3.151   3.900 -1.0048 -3.1781  2.8305
  599MOL0     H82596   8.505   3.207   3.784 -3.0725 -0.8206  0.1512
  599MOL0     H82597   8.426   3.099   4.041  2.0658 -1.5625 -0.0359
  599MOL0     H82598   8.324   3.154   3.901  0.6034  1.8431  0.5657
  599MOL0     H82599   8.331   2.902   3.928 -1.5471  0.0583 -0.7939
  599MOL0     H82600   8.378   2.974   3.776  0.2252  2.8788  0.4812
  599MOL0     H82601   8.622   2.930   3.852 -0.2310 -0.4942 -1.1576
  599MOL0     H82602   8.560   2.845   3.994  2.5312  3.4651  0.5847
  599MOL0     H82603   8.470   2.763   3.723  0.7877  0.1416 -0.6318
  599MOL0     H82604   8.485   2.661   3.858  0.9966 -0.1275  0.2276
  599MOL0     H82605   8.666   2.632   3.673  1.5442  1.6574 -0.9835
  599MOL0     H82606   8.725   2.787   3.699 -6.1715  1.3576 -2.2263
  599MOL0     H82607   8.704   2.580   3.925  1.0545 -0.5446 -1.4705
  599MOL0     H82608   8.786   2.727   3.946  0.7257 -1.4532  1.6376
  599MOL0     H82609   8.955   2.538   3.896  2.0747 -4.4123 -3.1710
  599MOL0     H82610   8.852   2.509   3.758 -0.8566 -1.3398  1.6096
  599MOL0     H82611   9.141   2.709   3.893 -1.3390 -0.3748  0.3712
  599MOL0     H82612   9.337   2.896   3.735  0.7045 -2.0388  3.6788
  599MOL0     H82613   9.371   2.803   3.589  1.1970  2.2804 -0.3369
  599MOL0     H82614   9.396   2.728   3.895 -0.6298 -1.9300  0.5181
  599MOL0     H82615   9.413   2.613   3.759  0.8181  1.2704 -1.7874
  599MOL0     H82616   9.597   2.752   3.670 -0.9416 -0.5446 -0.2283
  599MOL0     H82617   9.563   2.874   3.797 -0.7335  0.3642 -2.5009
  599MOL0     H82618   9.643   2.707   3.971 -0.4415 -2.0642  0.4280
  599MOL0     H82619   9.655   2.585   3.838 -2.5810  1.0843 -2.9686
  599MOL0     H82620   9.808   2.659   4.096  0.7800  2.1647  0.0091
  599MOL0     H82621  10.077   2.686   4.323  0.8201 -2.1872  0.8459
  599MOL0     H82622  10.021   2.527   4.276  2.5951 -0.0058  2.4169
  599MOL0     H82623   9.901   2.659   4.302 -0.6927  0.1365 -1.7599
  599MOL0     H82624  10.493   2.652   3.869 -0.4269 -0.0422 -0.1484
  599MOL0     H82625  10.706   2.531   3.886  1.5815 -1.9342  2.8540
  599MOL0     H82626  10.876   2.357   3.978 -0.2710 -0.3081  1.0917
  599MOL0     H82627  10.912   2.492   3.871  3.2423 -3.0308 -1.0642
  599MOL0     H82628  11.093   2.353   4.066  1.9226  1.2861  0.6939
  599MOL0     H82629  11.098   2.363   3.901 -1.9392  0.1060 -0.1818
  599MOL0     H82630  11.172   2.599   4.081  3.6061  2.9504 -1.0945
  599MOL0     H82631  11.172   2.595   3.898  0.3903  0.8651  0.3760
  599MOL0     H82632  11.401   2.543   3.964 -2.0364  0.8631 -2.6245
  599MOL0     H82633  11.328   2.384   3.933  0.7063 -1.6537  1.7424
  599MOL0     H82634  11.278   2.337   4.168 -1.7989  1.4172 -0.3012
  599MOL0     H82635  11.458   2.365   4.134  0.6583  1.1126 -0.5710
  599MOL0     H82636  11.257   2.543   4.283  0.6045  2.9087  0.1473
  599MOL0     H82637  11.407   2.605   4.248 -2.5486  0.6080  0.3539
  599MOL0     H82638  11.340   2.356   4.424 -1.2266 -0.0668  3.7067
  599MOL0     H82639  11.389   2.524   4.479  0.6101  0.8667 -1.4883
  599MOL0     H82640  11.617   2.466   4.376  0.9128 -0.8437  1.4508
  599MOL0     H82641  11.555   2.307   4.336  0.8310  0.0619  1.0476
  599MOL0     H82642  10.784   2.712   4.274  0.3756 -0.3156 -0.4220
  599MOL0     H82643  10.546   2.811   4.253  0.1804 -2.1056  0.6905
  599MOL0     H82644  10.225   2.795   3.872 -0.0877  2.3481  1.1705
  599MOL0     H82645  10.022   2.748   3.745  1.7796 -1.9062 -0.5570
  599MOL0     H82646   8.471   3.518   4.101 -1.2025 -1.9635 -1.0008
  599MOL0     H82647   8.601   3.725   4.089 -1.6878 -1.5607  2.4376
  599MOL0     H82648   8.607   4.075   4.057 -0.8790  5.5083  0.9547
  599MOL0     H82649   8.554   4.282   3.956  0.0735 -1.9948  2.2179
  599MOL0     H82650   8.525   4.449   3.615  0.3628  0.6298  0.5833
  599MOL0     H82651   8.480   4.343   3.750  0.1453  0.1631  0.8734
  599MOL0     H82652   8.558   4.629   3.784  1.8795 -1.1608 -0.0600
  599MOL0     H82653   8.542   4.516   3.920  2.1310  4.4602  1.0980
  599MOL0     H82654   8.306   4.466   3.904 -0.1967 -1.9520 -1.0955
  599MOL0     H82655   8.315   4.636   3.902 -0.8875  0.2505 -1.3468
  599MOL0     H82656   8.312   4.492   3.635  1.6915  1.1175  0.6004
  599MOL0     H82657   8.265   4.659   3.679 -1.6940  0.0138 -0.3134
  599MOL0     H82658   7.927   4.432   3.829 -0.6091  0.2476  0.1386
  599MOL0     H82659   8.857   4.235   3.659 -0.4958  0.7364 -0.0607
  599MOL0     H82660   9.012   4.029   3.701 -1.1025  1.7580 -2.8012
  599MOL0     H82661   8.974   3.888   3.797  3.2247  1.0847 -1.0517
  599MOL0     H82662   8.904   3.915   3.635 -0.2566 -1.6738  1.3790
  600MOL0     O82663   2.887   5.044   1.640 -0.0610  0.5831 -0.5979
  600MOL0     C82664   2.967   5.135   1.661  0.4633 -0.6951 -0.3015
  600MOL0     O82665   3.010   5.173   1.784  0.1266 -0.0827  0.1281
  600MOL0     C82666   3.005   5.074   1.880  0.0447  0.4892  0.1873
  600MOL0     C82667   3.125   5.013   1.932 -0.9593 -0.7844 -0.3625
  600MOL0     C82668   3.127   4.928   2.044 -0.3097  1.1612 -0.0899
  600MOL0     C82669   3.010   4.901   2.117 -0.4420 -1.0279 -0.6981
  600MOL0     O82670   3.003   4.841   2.249 -0.0228 -0.1363  0.2846
  600MOL0     C82671   3.118   4.771   2.297 -0.7556  0.3619  0.5604
  600MOL0     C82672   3.080   4.676   2.410 -0.0160 -0.3279 -0.0033
  600MOL0     C82673   3.204   4.625   2.475  0.3138 -0.6155 -0.5701
  600MOL0     C82674   3.179   4.483   2.526  0.2179  0.0377 -0.3865
  600MOL0     C82675   3.309   4.413   2.590  0.5898 -0.5234  0.5292
  600MOL0     C82676   3.361   4.475   2.718 -0.3705  0.3572 -0.6761
  600MOL0     C82677   3.431   4.376   2.814  0.3916 -0.0119  0.9324
  600MOL0     C82678   3.460   4.456   2.941 -0.5939  0.6744  0.0363
  600MOL0     N82679   3.377   4.398   3.047  0.6342  0.2969  0.0341
  600MOL0     C82680   3.253   4.430   3.075  0.1705 -0.3780  1.0394
  600MOL0     C82681   3.209   4.335   3.159 -0.1589  0.6900 -0.7194
  600MOL0     C82682   3.080   4.315   3.221 -0.4290  0.1933  1.0872
  600MOL0     C82683   3.062   4.387   3.352 -0.0317  0.5000  0.1289
  600MOL0     C82684   3.167   4.337   3.460 -0.0943 -0.9226 -0.4932
  600MOL0     C82685   3.159   4.194   3.503  0.2449 -0.7805  0.0021
  600MOL0     O82686   3.233   4.178   3.623 -0.0677  0.5473 -0.0326
  600MOL0     C82687   3.370   4.167   3.621 -0.3484  0.2752 -0.3720
  600MOL0     C82688   3.454   4.184   3.515  0.7107 -0.2541 -0.5346
  600MOL0     C82689   3.589   4.197   3.520 -0.0512  0.6053 -0.4702
  600MOL0     C82690   3.657   4.251   3.398 -0.4233  0.0378  0.1351
  600MOL0     C82691   3.656   4.163   3.642  0.1602 -0.1044 -0.7690
  600MOL0     C82692   3.807   4.159   3.655  0.1291  0.6359 -0.2289
  600MOL0     O82693   3.852   4.148   3.786  0.4541  0.3149  0.8551
  600MOL0     C82694   3.983   4.165   3.810  0.4998 -0.1328 -0.1929
  600MOL0     C82695   4.012   4.261   3.906 -0.1038  0.0187  0.0868
  600MOL0     C82696   4.148   4.290   3.933 -1.7075  0.2883  0.7238
  600MOL0     C82697   4.250   4.214   3.878 -0.2356  0.4335 -0.6241
  600MOL0     O82698   4.387   4.230   3.919  0.4588 -0.5954  0.5939
  600MOL0     C82699   4.412   4.292   4.052 -0.0221  0.3839  0.8016
  600MOL0     C82700   4.554   4.291   4.102 -0.4149 -0.0302  0.6500
  600MOL0     C82701   4.630   4.162   4.078 -0.1391 -0.1423 -0.5106
  600MOL0     C82702   4.778   4.188   4.039  0.3191  0.0763  0.2162
  600MOL0     C82703   4.880   4.195   4.153  0.6355 -0.4074 -0.3435
  600MOL0     C82704   5.025   4.150   4.108  0.4332  0.1599  0.1242
  600MOL0     C82705   5.080   4.249   4.010 -0.5535  1.5911  0.0226
  600MOL0     C82706   5.231   4.248   4.037 -1.1039  1.1591 -0.6546
  600MOL0    Cl82707   5.322   4.097   4.004  0.4423  0.2298  0.0139
  600MOL0     C82708   4.216   4.102   3.799  0.2031 -0.8526 -0.3187
  600MOL0     C82709   4.087   4.081   3.761 -0.6315  0.0350  0.4854
  600MOL0     O82710   3.883   4.169   3.557  0.2217 -0.3776  0.2538
  600MOL0     C82711   3.574   4.133   3.755 -0.9716 -0.5995  0.3227
  600MOL0     C82712   3.433   4.137   3.742 -0.2697 -0.3495 -1.4747
  600MOL0     N82713   3.313   4.239   3.167  0.4547 -0.2423  0.4043
  600MOL0     N82714   3.418   4.278   3.104  0.0268  0.5125  0.3096
  600MOL0     C82715   2.891   4.952   2.069 -1.0636  0.1983  0.6890
  600MOL0     C82716   2.891   5.039   1.949  0.6852  0.9996 -1.0084
  600MOL0     C82717   2.986   5.235   1.560  0.0475  0.4170 -0.3154
  600MOL0     C82718   2.962   5.371   1.596  0.0946  0.9430 -0.6522
  600MOL0     C82719   2.987   5.481   1.507  0.2434  0.6881 -0.7426
  600MOL0     C82720   3.041   5.447   1.379 -0.5285 -0.6224  0.9025
  600MOL0     O82721   3.052   5.550   1.280 -0.3814  0.2970  0.3434
  600MOL0     C82722   2.988   5.674   1.302  0.5735  0.5322 -1.0175
  600MOL0     C82723   2.996   5.756   1.175  0.5533  0.1779 -0.9438
  600MOL0     C82724   3.133   5.788   1.128  0.0102  0.4074  0.2615
  600MOL0     C82725   3.119   5.886   1.012 -0.3366  0.2193  0.5937
  600MOL0     C82726   3.156   6.020   1.061  0.6467  0.3014  0.8752
  600MOL0     C82727   3.182   6.136   1.079  0.0937 -0.5867 -0.8964
  600MOL0     C82728   3.056   5.309   1.347 -0.0448  0.6194 -0.6002
  600MOL0     C82729   3.029   5.208   1.435 -0.2524 -0.5609 -0.5800
  600MOL0     C82730   3.055   5.072   1.385  0.2243  0.6971 -0.0109
  600MOL0     H82731   3.215   5.029   1.875  0.1209  1.0139  1.6993
  600MOL0     H82732   3.223   4.880   2.060 -0.3038  1.4876  0.8731
  600MOL0     H82733   3.189   4.849   2.326 -1.5045  1.7251 -1.0984
  600MOL0     H82734   3.165   4.714   2.217  2.6815  2.5199  0.8466
  600MOL0     H82735   3.015   4.722   2.485  1.5647 -0.4980  1.5605
  600MOL0     H82736   3.016   4.594   2.379 -1.7492  0.9717 -0.0245
  600MOL0     H82737   3.284   4.620   2.400  2.6179  1.5889  1.5273
  600MOL0     H82738   3.251   4.687   2.552  2.6633 -2.6018 -0.2740
  600MOL0     H82739   3.095   4.492   2.595  0.9936 -0.0469  0.5952
  600MOL0     H82740   3.141   4.414   2.450 -2.1532 -2.8384  3.0281
  600MOL0     H82741   3.392   4.413   2.519  0.7021  0.0215  0.6560
  600MOL0     H82742   3.273   4.311   2.604  0.4597 -0.3281  1.7196
  600MOL0     H82743   3.404   4.572   2.693 -2.3053  0.8918 -2.1370
  600MOL0     H82744   3.274   4.511   2.774 -0.7764 -0.0458 -1.0464
  600MOL0     H82745   3.526   4.352   2.764 -0.4418  2.4563 -2.1433
  600MOL0     H82746   3.374   4.287   2.844 -0.6741  0.3327 -0.0063
  600MOL0     H82747   3.563   4.453   2.979 -0.9462 -2.0188  1.0456
  600MOL0     H82748   3.429   4.561   2.941  0.5536  1.0893  2.2673
  600MOL0     H82749   3.186   4.505   3.035 -2.6329 -1.5827  3.1003
  600MOL0     H82750   3.054   4.209   3.215  1.9518 -0.3874 -1.2346
  600MOL0     H82751   3.015   4.362   3.146  1.5954  0.0087 -0.9184
  600MOL0     H82752   3.071   4.494   3.332  0.5303  0.4486  0.0779
  600MOL0     H82753   2.966   4.367   3.400 -1.1223  0.0304 -2.1389
  600MOL0     H82754   3.267   4.364   3.426  0.2402 -0.2267  0.9856
  600MOL0     H82755   3.136   4.388   3.552  2.2051 -0.8219  0.2936
  600MOL0     H82756   3.051   4.182   3.521  0.2103 -0.9492 -0.3118
  600MOL0     H82757   3.189   4.127   3.422 -0.6122 -1.0323 -0.1245
  600MOL0     H82758   3.414   4.192   3.414  0.1568 -1.9228 -0.4810
  600MOL0     H82759   3.746   4.196   3.364 -1.0546 -0.1314 -1.3133
  600MOL0     H82760   3.691   4.353   3.420  0.7203 -0.5439  1.2063
  600MOL0     H82761   3.602   4.259   3.303  0.9352  0.6996 -0.6306
  600MOL0     H82762   3.928   4.307   3.957 -3.6543 -1.2625 -3.9904
  600MOL0     H82763   4.165   4.353   4.020  1.0284 -1.9808  1.9812
  600MOL0     H82764   4.370   4.393   4.060 -0.9553  0.0076  0.8059
  600MOL0     H82765   4.358   4.246   4.136  0.2735  1.1352  1.4268
  600MOL0     H82766   4.610   4.363   4.041  2.7392 -2.4897  0.4002
  600MOL0     H82767   4.560   4.326   4.205  1.7438 -1.4542  1.0727
  600MOL0     H82768   4.582   4.084   4.018 -5.0800  0.6135  1.8883
  600MOL0     H82769   4.643   4.114   4.176  3.9099 -1.9563 -1.7121
  600MOL0     H82770   4.790   4.277   3.978 -2.9773 -0.7997 -1.9472
  600MOL0     H82771   4.803   4.105   3.972  2.0708  1.1779 -0.5673
  600MOL0     H82772   4.883   4.296   4.194 -0.2759  0.0228 -1.2600
  600MOL0     H82773   4.857   4.124   4.233 -1.3744 -0.0149 -0.5300
  600MOL0     H82774   5.020   4.052   4.060 -1.6041 -0.7006  1.9396
  600MOL0     H82775   5.089   4.133   4.194  1.0610 -1.9981 -0.6995
  600MOL0     H82776   5.031   4.347   4.018  0.2937  2.0169  0.0718
  600MOL0     H82777   5.057   4.220   3.907  0.4745 -0.1429  0.2588
  600MOL0     H82778   5.271   4.258   4.138  0.4894 -2.3345 -0.7974
  600MOL0     H82779   5.283   4.330   3.986  0.4014 -0.6306 -2.1809
  600MOL0     H82780   4.295   4.028   3.785 -1.1153 -2.5077  0.5061
  600MOL0     H82781   4.070   3.993   3.700 -2.4953  0.9019 -0.3343
  600MOL0     H82782   3.612   4.107   3.853 -0.5866  1.1150  0.6559
  600MOL0     H82783   3.373   4.121   3.831 -0.2227  0.0529 -1.3672
  600MOL0     H82784   2.799   4.935   2.125 -0.3819 -0.4510  1.6401
  600MOL0     H82785   2.788   5.058   1.921 -0.6377  1.9715  3.6672
  600MOL0     H82786   2.942   5.391   1.700  2.7367 -0.0274  0.1179
  600MOL0     H82787   2.945   5.578   1.531  1.5343  0.6400  2.0360
  600MOL0     H82788   2.888   5.655   1.343  0.9454  2.4457  0.8984
  600MOL0     H82789   3.028   5.741   1.378  0.9999  3.0757 -3.3104
  600MOL0     H82790   2.941   5.849   1.192 -0.7498 -0.3863 -1.8753
  600MOL0     H82791   2.946   5.695   1.100  0.2415  0.5745 -1.0571
  600MOL0     H82792   3.184   5.834   1.214 -0.8161 -3.3230  2.9972
  600MOL0     H82793   3.187   5.698   1.100 -2.3844 -1.4035  1.0900
  600MOL0     H82794   3.019   5.896   0.968 -1.5766 -0.7431  3.0439
  600MOL0     H82795   3.196   5.849   0.943  0.1684 -3.0171  2.7132
  600MOL0     H82796   3.207   6.236   1.111  0.2777 -1.7831  3.2889
  600MOL0     H82797   3.093   5.291   1.246 -0.5779  0.8841 -0.8451
  600MOL0     H82798   3.085   5.014   1.473  1.6142 -1.3129 -1.6965
  600MOL0     H82799   2.968   5.017   1.347  1.7011 -3.8443  2.4344
  600MOL0     H82800   3.135   5.062   1.311  0.7040 -6.2403  0.7318
  601MOL0     O82801   8.767   4.994   9.405 -0.6344  0.2305  0.2513
  601MOL0     C82802   8.750   5.098   9.343  0.6941  0.6474  0.3986
  601MOL0     O82803   8.755   5.222   9.397 -0.1181 -0.3207 -0.3637
  601MOL0     C82804   8.791   5.243   9.527  0.6012  1.0590  0.4887
  601MOL0     C82805   8.920   5.198   9.572  0.3414  0.1155 -0.4105
  601MOL0     C82806   8.955   5.262   9.699 -0.1999 -0.2834  0.5339
  601MOL0     C82807   8.871   5.337   9.784  0.5184  0.5991  0.4441
  601MOL0     O82808   8.912   5.395   9.904 -0.6670 -0.7603  0.1781
  601MOL0     C82809   8.826   5.393  10.008  0.4180 -0.7245 -0.3092
  601MOL0     C82810   8.887   5.440  10.133 -0.4292  0.5115 -0.5876
  601MOL0     C82811   8.781   5.510  10.220  0.5678 -0.3210 -0.3533
  601MOL0     C82812   8.822   5.521  10.374 -0.5743  0.2119  0.3437
  601MOL0     C82813   8.838   5.391  10.445 -0.6505 -0.8051 -0.0906
  601MOL0     C82814   8.857   5.383  10.593  0.3405  0.0919  0.5259
  601MOL0     C82815   8.944   5.268  10.634 -1.0506  0.3189 -0.0313
  601MOL0     C82816   8.947   5.262  10.781 -0.1782  0.4253  0.6015
  601MOL0     N82817   9.058   5.185  10.842 -0.8977 -0.2050 -0.2063
  601MOL0     C82818   9.052   5.082  10.930 -0.1420 -0.1075 -0.7543
  601MOL0     C82819   9.182   5.052  10.953 -0.1787  0.3162  0.7854
  601MOL0     C82820   9.234   4.940  11.032  0.5490  0.3583 -1.2346
  601MOL0     C82821   9.329   4.989  11.144  1.0544 -0.6250  0.4174
  601MOL0     C82822   9.332   4.901  11.262 -0.1506 -0.1534 -0.0197
  601MOL0     C82823   9.382   4.757  11.220 -0.5900 -0.0765  0.3345
  601MOL0     O82824   9.277   4.680  11.160  0.0070  0.4301 -0.9719
  601MOL0     C82825   9.304   4.570  11.079 -0.2337 -0.3266  0.1650
  601MOL0     C82826   9.200   4.511  11.012  0.2888 -0.4428  0.5459
  601MOL0     C82827   9.213   4.402  10.936  0.1716  0.2044  0.3634
  601MOL0     C82828   9.089   4.361  10.861 -0.4175 -0.0133  0.7242
  601MOL0     C82829   9.332   4.332  10.947 -0.4108 -0.0297  0.1514
  601MOL0     C82830   9.353   4.201  10.880 -0.8891  0.0322 -0.7349
  601MOL0     O82831   9.334   4.081  10.948  0.3388 -0.0818  0.7462
  601MOL0     C82832   9.314   4.087  11.081 -0.6634  0.7944 -0.5865
  601MOL0     C82833   9.200   4.132  11.146  0.4210  0.1547 -0.1187
  601MOL0     C82834   9.209   4.173  11.280  0.6673 -0.1185  0.5157
  601MOL0     C82835   9.332   4.163  11.352 -0.3793  0.1178  0.3954
  601MOL0     O82836   9.323   4.200  11.481  0.5300  0.4831 -0.2948
  601MOL0     C82837   9.411   4.134  11.580 -0.3825  0.7610 -0.0155
  601MOL0     C82838   9.388   4.177  11.728 -0.5273 -0.1151  0.4240
  601MOL0     C82839   9.405   4.073  11.835 -1.2081  0.9786  0.6644
  601MOL0     C82840   9.304   3.957  11.834 -0.7256  0.4698 -0.2512
  601MOL0     C82841   9.308   3.874  11.966 -0.0566 -1.0695 -1.0909
  601MOL0     C82842   9.447   3.812  12.003 -1.0775  0.5509  0.0682
  601MOL0     C82843   9.506   3.712  11.898  0.0061  0.0242 -0.2218
  601MOL0     C82844   9.523   3.573  11.955 -0.1461  0.7663 -0.5438
  601MOL0    Cl82845   9.638   3.578  12.079  0.0302  0.1131 -0.2532
  601MOL0     C82846   9.440   4.110  11.292 -0.8313  0.6479  0.4671
  601MOL0     C82847   9.429   4.069  11.158  0.5146  0.8542  0.5307
  601MOL0     O82848   9.389   4.205  10.766 -0.2411  0.3160  0.4658
  601MOL0     C82849   9.433   4.382  11.012 -0.9299 -0.3266  0.3793
  601MOL0     C82850   9.424   4.504  11.074  0.1027 -0.1032  0.5398
  601MOL0     N82851   9.266   5.144  10.880 -1.1646  0.0297 -0.8683
  601MOL0     N82852   9.188   5.227  10.821 -0.5583  0.4103  0.5259
  601MOL0     C82853   8.745   5.376   9.725  0.1355 -0.4626 -0.5988
  601MOL0     C82854   8.706   5.329   9.599 -0.2326 -0.5334 -0.2984
  601MOL0     C82855   8.735   5.072   9.201 -0.5563 -0.3862  0.9506
  601MOL0     C82856   8.694   4.946   9.158 -0.5069  0.3737  0.2055
  601MOL0     C82857   8.667   4.925   9.022  0.9748  0.0566 -0.1054
  601MOL0     C82858   8.674   5.025   8.931  0.2903  0.1462  0.0764
  601MOL0     O82859   8.633   4.992   8.808 -0.7202  0.1718  0.2164
  601MOL0     C82860   8.552   5.088   8.731 -0.3440  0.5404 -1.1190
  601MOL0     C82861   8.464   5.019   8.630 -1.0123  0.1354  0.1862
  601MOL0     C82862   8.418   5.124   8.526  2.0459  0.1805 -0.1299
  601MOL0     C82863   8.369   5.042   8.403  0.5826  0.1689  0.3117
  601MOL0     C82864   8.247   4.971   8.461 -0.2614 -0.7388  0.3401
  601MOL0     C82865   8.142   4.931   8.502 -0.2938 -0.0096  0.4189
  601MOL0     C82866   8.704   5.152   8.967 -0.0694  0.5931  0.4005
  601MOL0     C82867   8.742   5.173   9.102  0.3793  0.0401  0.6954
  601MOL0     C82868   8.799   5.315   9.137 -0.5226 -0.2947 -0.6201
  601MOL0     H82869   8.993   5.135   9.521  2.8033  1.3579  1.3359
  601MOL0     H82870   9.057   5.244   9.733  0.2653  0.1063 -0.5852
  601MOL0     H82871   8.784   5.292  10.014 -2.4117  0.2462 -1.5635
  601MOL0     H82872   8.734   5.449   9.989 -0.4937 -1.7180  0.9904
  601MOL0     H82873   8.937   5.361  10.189 -0.2692  0.8782 -0.2091
  601MOL0     H82874   8.970   5.503  10.099  0.2154 -1.9685 -4.1308
  601MOL0     H82875   8.774   5.613  10.184  2.2011  0.8181  2.2530
  601MOL0     H82876   8.688   5.453  10.220  1.6966 -2.2741 -1.7915
  601MOL0     H82877   8.912   5.581  10.381  0.3751 -0.8403 -1.7588
  601MOL0     H82878   8.740   5.565  10.432 -1.4214  1.7388 -1.8377
  601MOL0     H82879   8.929   5.354  10.395  1.0980  0.0675  2.2562
  601MOL0     H82880   8.767   5.316  10.409  1.1525 -0.8287 -4.3036
  601MOL0     H82881   8.893   5.482  10.621  4.3322 -1.0031 -0.0388
  601MOL0     H82882   8.762   5.378  10.647 -0.6473  4.3082 -0.4899
  601MOL0     H82883   9.042   5.292  10.590 -1.0002 -3.2883 -2.2911
  601MOL0     H82884   8.909   5.176  10.587 -0.5450 -0.8677  1.8234
  601MOL0     H82885   8.966   5.365  10.811  0.8882  0.5083 -0.3007
  601MOL0     H82886   8.863   5.207  10.826  1.1986 -0.2187  2.5492
  601MOL0     H82887   8.966   5.038  10.979  1.6081 -0.9453  1.7499
  601MOL0     H82888   9.289   4.876  10.962  2.2760  0.6739 -0.2143
  601MOL0     H82889   9.142   4.891  11.066  0.3558  0.8537 -1.0300
  601MOL0     H82890   9.431   4.999  11.106  0.4610 -0.6956 -1.3052
  601MOL0     H82891   9.297   5.086  11.181 -2.6059 -1.5624  0.0587
  601MOL0     H82892   9.396   4.945  11.340 -1.0110 -0.1684  0.7173
  601MOL0     H82893   9.231   4.891  11.302 -0.3257 -0.4948 -0.5409
  601MOL0     H82894   9.461   4.777  11.147  0.3543  1.5192  1.7183
  601MOL0     H82895   9.414   4.697  11.304  1.8516 -1.8187 -1.7018
  601MOL0     H82896   9.106   4.564  11.019 -0.0486 -0.9602 -0.0137
  601MOL0     H82897   9.012   4.438  10.859  2.9357  3.6979 -0.8913
  601MOL0     H82898   9.050   4.269  10.905 -2.1602 -0.6959 -2.0243
  601MOL0     H82899   9.116   4.339  10.757  2.2022  3.9922  0.3477
  601MOL0     H82900   9.109   4.152  11.090 -0.2930  3.3900  1.9211
  601MOL0     H82901   9.126   4.214  11.336  3.2038  2.2740  2.8558
  601MOL0     H82902   9.399   4.025  11.580  0.6412  0.6332  0.9768
  601MOL0     H82903   9.517   4.155  11.563 -0.4968  0.6920 -0.8987
  601MOL0     H82904   9.455   4.261  11.748  3.9820 -2.3630 -3.2816
  601MOL0     H82905   9.285   4.211  11.725 -0.9688 -1.3516  0.9028
  601MOL0     H82906   9.401   4.118  11.935  1.2238  2.0516  0.3476
  601MOL0     H82907   9.506   4.031  11.827 -1.7139  0.0916 -2.3192
  601MOL0     H82908   9.320   3.890  11.749 -0.6137  2.1969 -1.6587
  601MOL0     H82909   9.202   3.996  11.826 -1.5050 -1.4777 -0.2550
  601MOL0     H82910   9.273   3.934  12.050  1.9857  1.1994 -1.7234
  601MOL0     H82911   9.247   3.784  11.955 -0.3283 -0.9844 -0.3306
  601MOL0     H82912   9.447   3.760  12.100  0.4908 -1.7858 -1.1002
  601MOL0     H82913   9.521   3.891  11.997 -0.5024 -0.1095 -2.3568
  601MOL0     H82914   9.601   3.746  11.856  1.3155 -4.4469 -1.3560
  601MOL0     H82915   9.442   3.688  11.813 -0.2156  2.6914 -0.8937
  601MOL0     H82916   9.565   3.515  11.873  0.1602 -2.3944  1.6593
  601MOL0     H82917   9.430   3.542  12.004 -0.4697  0.5686 -1.2782
  601MOL0     H82918   9.535   4.107  11.344 -1.1166  0.2534  0.9740
  601MOL0     H82919   9.524   4.049  11.110 -0.1535  2.3572 -1.5347
  601MOL0     H82920   9.527   4.328  11.000 -0.4993  0.1928  1.2785
  601MOL0     H82921   9.513   4.554  11.111  0.0163 -1.3023  2.4537
  601MOL0     H82922   8.703   5.465   9.771  0.2323 -1.6457  1.9726
  601MOL0     H82923   8.629   5.389   9.553  0.1232  0.6951  0.6706
  601MOL0     H82924   8.685   4.866   9.230  0.8883 -0.0182 -0.0275
  601MOL0     H82925   8.659   4.824   8.984  1.1144 -1.0758  2.6450
  601MOL0     H82926   8.484   5.129   8.806 -0.6053 -1.9682  0.1340
  601MOL0     H82927   8.623   5.160   8.690 -0.2172 -0.0946 -2.0539
  601MOL0     H82928   8.384   4.987   8.697 -0.1238 -1.4901  0.5209
  601MOL0     H82929   8.510   4.934   8.578 -0.4723  0.8074 -0.4629
  601MOL0     H82930   8.329   5.169   8.571  0.7316 -1.9782 -0.3870
  601MOL0     H82931   8.499   5.191   8.497  0.1992  1.2381 -3.4010
  601MOL0     H82932   8.450   4.978   8.366  2.6972  1.1504  2.9327
  601MOL0     H82933   8.344   5.109   8.320 -2.3860  0.0726  1.0175
  601MOL0     H82934   8.058   4.887   8.552 -1.7537 -0.4163 -2.1928
  601MOL0     H82935   8.690   5.235   8.899 -3.4676  2.6568  3.2625
  601MOL0     H82936   8.736   5.374   9.204  2.8481  0.7354  1.9410
  601MOL0     H82937   8.893   5.303   9.190 -1.3088 -0.0965  0.8694
  601MOL0     H82938   8.824   5.358   9.040 -3.4052 -0.6304 -1.6132
  602MOL0     O82939   6.045   8.103   3.111  0.2784 -0.5123  0.2855
  602MOL0     C82940   5.929   8.136   3.109  0.0718 -0.3477 -1.0096
  602MOL0     O82941   5.861   8.221   3.019  0.5342  0.4679 -1.0911
  602MOL0     C82942   5.921   8.249   2.898  0.2696  0.3159  0.6914
  602MOL0     C82943   5.925   8.151   2.790  0.2336  0.5895 -0.1865
  602MOL0     C82944   5.992   8.173   2.675 -0.7465  0.8978 -0.0255
  602MOL0     C82945   6.055   8.299   2.652  0.1912 -1.0698  0.1140
  602MOL0     O82946   6.122   8.326   2.536 -0.3215 -0.0065 -0.9580
  602MOL0     C82947   6.238   8.407   2.553 -0.3225  0.6570  0.5052
  602MOL0     C82948   6.309   8.411   2.412  0.1355  0.8591  0.7793
  602MOL0     C82949   6.401   8.288   2.394 -0.8061 -0.0007  0.3442
  602MOL0     C82950   6.528   8.283   2.483 -0.5716  0.5865  0.2117
  602MOL0     C82951   6.605   8.418   2.475  0.0500 -0.5747  0.2971
  602MOL0     C82952   6.742   8.403   2.539 -0.9884  0.0489 -0.0005
  602MOL0     C82953   6.833   8.524   2.562 -0.3404 -0.0537  0.9933
  602MOL0     C82954   6.968   8.487   2.625 -0.5695  0.4879  0.2621
  602MOL0     N82955   6.978   8.520   2.759  1.0826 -0.4258  0.3608
  602MOL0     C82956   6.906   8.465   2.856  0.7622 -0.1668 -0.3638
  602MOL0     C82957   6.945   8.532   2.964 -0.2638 -0.5315  1.2610
  602MOL0     C82958   6.899   8.510   3.097  0.5390 -1.0208  0.0091
  602MOL0     C82959   6.760   8.554   3.120 -0.0325  0.2576  0.4141
  602MOL0     C82960   6.740   8.706   3.099  0.4925  0.3005  0.3087
  602MOL0     C82961   6.604   8.749   3.164  1.2728  0.0009 -0.3972
  602MOL0     O82962   6.618   8.791   3.297  0.0924  0.1681  0.0593
  602MOL0     C82963   6.501   8.833   3.354  0.0037 -0.3151 -0.1135
  602MOL0     C82964   6.489   8.966   3.393  0.4970 -0.6543  0.0178
  602MOL0     C82965   6.373   9.011   3.453 -0.3806  0.3214 -0.8478
  602MOL0     C82966   6.376   9.153   3.488 -0.1891 -0.1165 -0.7849
  602MOL0     C82967   6.272   8.917   3.480 -0.0467 -0.9955 -0.4569
  602MOL0     C82968   6.153   8.955   3.563  0.1502  0.2918 -0.5813
  602MOL0     O82969   6.047   8.874   3.543 -0.0876 -0.1747 -0.3046
  602MOL0     C82970   5.933   8.884   3.629 -0.4380  0.9034 -0.5801
  602MOL0     C82971   5.942   8.892   3.769  0.0736  0.1898 -0.2028
  602MOL0     C82972   5.827   8.921   3.844 -0.5170 -0.3491 -0.4583
  602MOL0     C82973   5.708   8.921   3.779  0.0859 -0.8646 -0.2177
  602MOL0     O82974   5.610   8.910   3.874 -0.4898  0.1322  0.0446
  602MOL0     C82975   5.475   8.928   3.835  0.1378  0.3860  0.0884
  602MOL0     C82976   5.417   8.805   3.770 -0.0587 -0.2977 -0.3834
  602MOL0     C82977   5.301   8.856   3.692  0.9382  0.2283 -0.0739
  602MOL0     C82978   5.237   8.739   3.610 -0.7586  0.4737  0.4163
  602MOL0     C82979   5.139   8.793   3.507 -0.7906 -0.1841 -0.4216
  602MOL0     C82980   5.047   8.894   3.556  0.5370 -0.8511 -0.1219
  602MOL0     C82981   4.951   8.937   3.445 -1.0049 -0.9606  0.8258
  602MOL0     C82982   4.863   9.049   3.489  0.2807  0.4712 -0.4064
  602MOL0    Cl82983   4.757   9.093   3.353  0.1001 -0.2873 -0.2447
  602MOL0     C82984   5.699   8.914   3.638 -0.0298 -0.9394 -0.3414
  602MOL0     C82985   5.810   8.897   3.564 -0.4247 -0.2385 -0.6430
  602MOL0     O82986   6.151   9.048   3.653 -0.2530 -0.6172 -0.6802
  602MOL0     C82987   6.277   8.788   3.425 -0.4487 -0.3588  0.4551
  602MOL0     C82988   6.393   8.744   3.368  0.2390 -0.5775 -0.5241
  602MOL0     N82989   7.044   8.623   2.930  0.1867  0.1768 -0.8176
  602MOL0     N82990   7.062   8.613   2.806  0.4934  0.1362  0.1367
  602MOL0     C82991   6.043   8.400   2.751 -0.8640 -0.2149 -1.1537
  602MOL0     C82992   5.993   8.369   2.881  0.1014  0.4801 -0.0227
  602MOL0     C82993   5.856   8.115   3.239  0.7328 -0.3588  1.0863
  602MOL0     C82994   5.927   8.079   3.354 -0.1654 -0.3237  0.1304
  602MOL0     C82995   5.872   8.065   3.483 -0.9430 -0.2747  0.5247
  602MOL0     C82996   5.743   8.065   3.490 -0.4490  0.0125 -0.2330
  602MOL0     O82997   5.685   8.017   3.605  0.7707 -0.3795 -0.7173
  602MOL0     C82998   5.670   7.882   3.610 -0.2588  0.6487  0.6941
  602MOL0     C82999   5.557   7.843   3.701  0.1181 -0.0137  0.0978
  602MOL0     C83000   5.522   7.698   3.676  0.2017  0.4963 -0.4265
  602MOL0     C83001   5.386   7.668   3.742 -0.3565 -0.6133 -0.0880
  602MOL0     C83002   5.284   7.700   3.643  0.1818  0.5494  0.3182
  602MOL0     C83003   5.219   7.740   3.538 -0.1127  0.2915 -0.2111
  602MOL0     C83004   5.660   8.097   3.379  0.6344  0.5740  1.3152
  602MOL0     C83005   5.714   8.129   3.252  0.3257 -1.1084 -0.4197
  602MOL0     C83006   5.622   8.174   3.147  0.3802  0.4255 -1.2635
  602MOL0     H83007   5.879   8.055   2.811  3.8331 -1.6343 -1.5538
  602MOL0     H83008   5.992   8.090   2.605 -3.2679  1.0599 -0.2908
  602MOL0     H83009   6.311   8.357   2.618 -1.4732  0.0816  1.3785
  602MOL0     H83010   6.221   8.510   2.585 -0.0714 -0.6545  5.7106
  602MOL0     H83011   6.230   8.424   2.337  3.5740  3.2027 -2.8668
  602MOL0     H83012   6.369   8.503   2.414  4.8794 -1.6946 -3.2162
  602MOL0     H83013   6.340   8.198   2.400 -1.8722  0.5125 -1.7936
  602MOL0     H83014   6.434   8.290   2.289  1.2411  1.2067  0.9499
  602MOL0     H83015   6.496   8.256   2.584 -0.7347  0.3721  0.1033
  602MOL0     H83016   6.599   8.205   2.456 -1.3941  0.1454 -0.7353
  602MOL0     H83017   6.549   8.506   2.508  0.4540 -0.4451  0.6447
  602MOL0     H83018   6.622   8.436   2.369  2.4124 -0.6231  0.6281
  602MOL0     H83019   6.719   8.384   2.644  1.7214  0.9422  0.8233
  602MOL0     H83020   6.807   8.335   2.483  0.3143  2.0738 -1.0564
  602MOL0     H83021   6.787   8.602   2.623 -1.9543  0.1743 -0.4283
  602MOL0     H83022   6.851   8.565   2.462 -0.6223 -2.6454 -0.1971
  602MOL0     H83023   6.985   8.380   2.606 -0.5192  0.4717  0.3980
  602MOL0     H83024   7.041   8.546   2.568 -0.6599  1.3468  1.0181
  602MOL0     H83025   6.830   8.388   2.859  0.4422  0.1757  0.6596
  602MOL0     H83026   6.958   8.567   3.170 -2.3791  1.3983  0.6634
  602MOL0     H83027   6.907   8.402   3.112 -0.1344 -1.5065 -2.5940
  602MOL0     H83028   6.699   8.502   3.046  0.7968  2.4490 -1.9757
  602MOL0     H83029   6.710   8.526   3.213 -2.7609  4.9820  0.7167
  602MOL0     H83030   6.809   8.773   3.152 -1.4703  1.6612  1.2676
  602MOL0     H83031   6.742   8.732   2.993  0.0339  2.9748  0.8725
  602MOL0     H83032   6.557   8.834   3.113 -0.4038 -1.2823 -1.0914
  602MOL0     H83033   6.531   8.668   3.158  2.8692 -1.6242  1.0071
  602MOL0     H83034   6.578   9.028   3.387 -0.4528  0.9199  1.3505
  602MOL0     H83035   6.451   9.207   3.430  0.0348  0.0682 -0.3289
  602MOL0     H83036   6.388   9.162   3.596  3.2287 -2.5091 -0.8297
  602MOL0     H83037   6.274   9.186   3.464  0.0426 -0.4366 -2.3122
  602MOL0     H83038   6.031   8.882   3.829 -0.9788  2.1913  1.8369
  602MOL0     H83039   5.834   8.955   3.947 -0.1059 -0.8588 -0.3144
  602MOL0     H83040   5.424   8.936   3.931  0.5292  0.1960  0.3169
  602MOL0     H83041   5.460   9.021   3.778 -0.7567 -0.1355 -0.5494
  602MOL0     H83042   5.495   8.765   3.705  1.0679 -0.1545  0.8401
  602MOL0     H83043   5.388   8.734   3.848 -0.2461 -0.5678 -0.6957
  602MOL0     H83044   5.329   8.936   3.622 -0.5899 -0.0415 -1.0325
  602MOL0     H83045   5.225   8.897   3.759 -1.3627  0.0785 -2.4336
  602MOL0     H83046   5.196   8.659   3.673  0.7600  0.8270  1.9135
  602MOL0     H83047   5.311   8.694   3.544 -0.4312 -2.0553  2.3274
  602MOL0     H83048   5.207   8.849   3.442 -0.0698  0.2559  0.6931
  602MOL0     H83049   5.088   8.713   3.453  0.1876 -1.0655 -0.0774
  602MOL0     H83050   5.098   8.981   3.600  0.2378 -1.6454  1.8842
  602MOL0     H83051   4.992   8.851   3.640  0.7630 -0.2580  0.3379
  602MOL0     H83052   4.888   8.854   3.412 -0.6454 -0.7673 -0.4082
  602MOL0     H83053   5.002   8.959   3.350 -0.6737 -0.7377  1.0511
  602MOL0     H83054   4.924   9.138   3.509 -0.2404  1.2446 -1.9779
  602MOL0     H83055   4.808   9.030   3.581  1.5477 -1.2616  0.0469
  602MOL0     H83056   5.606   8.915   3.582 -0.0746  4.3936 -0.6611
  602MOL0     H83057   5.797   8.883   3.457  0.9372 -2.0352 -0.6156
  602MOL0     H83058   6.192   8.723   3.441  1.2607 -2.3880  1.8362
  602MOL0     H83059   6.394   8.637   3.350 -0.8425 -0.4851 -1.1643
  602MOL0     H83060   6.070   8.501   2.721 -0.8828 -0.0107 -0.5060
  602MOL0     H83061   5.986   8.436   2.966 -0.0430  0.0291  0.3252
  602MOL0     H83062   6.035   8.080   3.345 -0.2851  2.0765 -2.7247
  602MOL0     H83063   5.923   8.024   3.570 -1.8909 -0.5584  0.9520
  602MOL0     H83064   5.649   7.848   3.508  2.8643  0.2329  0.0781
  602MOL0     H83065   5.749   7.825   3.660  0.2817 -0.1479 -0.9754
  602MOL0     H83066   5.466   7.900   3.680 -0.9061 -2.3902 -2.4482
  602MOL0     H83067   5.585   7.861   3.806 -0.6655  0.6077  0.2108
  602MOL0     H83068   5.517   7.673   3.569  0.4425 -0.3422 -0.2466
  602MOL0     H83069   5.598   7.633   3.720 -2.9019 -1.3501  2.6289
  602MOL0     H83070   5.380   7.720   3.838  1.2232 -4.6027  2.4631
  602MOL0     H83071   5.379   7.560   3.762 -0.9639 -0.2716  1.7172
  602MOL0     H83072   5.161   7.774   3.454 -0.9062  1.1930  0.6742
  602MOL0     H83073   5.552   8.087   3.372  0.8180 -0.9858  0.0780
  602MOL0     H83074   5.621   8.104   3.063 -2.7467  0.3306 -1.2826
  602MOL0     H83075   5.521   8.174   3.188  0.8325  1.1591 -0.1187
  602MOL0     H83076   5.653   8.275   3.121  1.6367  0.5908  0.7094
  603MOL0     O83077   2.299   5.707  10.513  0.4493 -0.1346  0.4059
  603MOL0     C83078   2.200   5.631  10.527 -0.5775  0.0508 -0.1279
  603MOL0     O83079   2.210   5.499  10.572 -0.6977 -0.3437 -0.3625
  603MOL0     C83080   2.338   5.447  10.553 -0.2440  0.0134 -0.0397
  603MOL0     C83081   2.380   5.391  10.424  0.5305  0.3235 -0.0787
  603MOL0     C83082   2.503   5.329  10.403  0.3293  0.0163  0.7793
  603MOL0     C83083   2.604   5.347  10.502 -0.6508  0.1562  0.4292
  603MOL0     O83084   2.729   5.291  10.464 -0.3920  0.3420  0.4520
  603MOL0     C83085   2.850   5.362  10.487 -0.3621 -0.1854  0.6786
  603MOL0     C83086   2.980   5.291  10.448 -0.3567 -0.9692  0.3539
  603MOL0     C83087   3.043   5.233  10.581  0.0841 -0.0666  0.6755
  603MOL0     C83088   3.191   5.207  10.551  0.2876 -0.3573 -1.0721
  603MOL0     C83089   3.259   5.132  10.665 -0.3780 -0.0429  0.9556
  603MOL0     C83090   3.406   5.093  10.648  0.2851  0.5141  0.6255
  603MOL0     C83091   3.498   5.206  10.612  0.5193 -0.4645 -0.9011
  603MOL0     C83092   3.650   5.174  10.604  0.1291 -0.0779 -0.0598
  603MOL0     N83093   3.693   5.071  10.512 -0.5680 -0.2398 -0.3696
  603MOL0     C83094   3.723   4.942  10.556 -1.1949 -0.5714  0.4264
  603MOL0     C83095   3.711   4.859  10.451  0.3894 -0.6355  0.5496
  603MOL0     C83096   3.718   4.716  10.474  0.1714 -0.3511  0.5759
  603MOL0     C83097   3.713   4.636  10.349 -0.4036 -0.0751 -0.7744
  603MOL0     C83098   3.577   4.645  10.273 -0.7519  1.5218 -0.2680
  603MOL0     C83099   3.573   4.545  10.144 -0.3592 -0.3036  0.1354
  603MOL0     O83100   3.556   4.408  10.188  0.0013 -0.1066  0.4047
  603MOL0     C83101   3.444   4.364  10.264  0.8306  0.8539  0.5072
  603MOL0     C83102   3.323   4.433  10.291 -0.7664 -0.6744 -0.1541
  603MOL0     C83103   3.208   4.376  10.353 -0.0722 -0.2837 -0.1443
  603MOL0     C83104   3.092   4.462  10.377  0.0226 -0.0968 -0.5950
  603MOL0     C83105   3.205   4.238  10.389 -0.1395 -0.2869 -0.0512
  603MOL0     C83106   3.105   4.178  10.486  0.0969  0.5280  0.4476
  603MOL0     O83107   3.068   4.051  10.455 -0.4740 -0.6950 -0.2462
  603MOL0     C83108   3.007   3.990  10.560  0.1955  0.3601  0.6070
  603MOL0     C83109   3.083   3.947  10.673 -0.9525  0.3906  0.1351
  603MOL0     C83110   3.026   3.857  10.764  0.5444  0.2348  0.6391
  603MOL0     C83111   2.892   3.805  10.746  0.0705  0.0341 -0.0926
  603MOL0     O83112   2.822   3.721  10.834 -0.4242 -0.8496  0.6182
  603MOL0     C83113   2.878   3.662  10.958  0.9364 -1.5842 -0.3007
  603MOL0     C83114   2.996   3.563  10.958 -0.0644  0.3816 -0.3912
  603MOL0     C83115   2.951   3.427  10.903 -0.0841  0.1723 -0.8735
  603MOL0     C83116   3.074   3.320  10.884  0.0535  0.5695 -0.5413
  603MOL0     C83117   3.043   3.173  10.930 -0.5055 -0.4132  0.1099
  603MOL0     C83118   3.146   3.070  10.863  0.3241  0.4759  0.5386
  603MOL0     C83119   3.076   2.928  10.844  0.4895 -0.6000 -0.0419
  603MOL0     C83120   3.128   2.848  10.964 -0.7025  0.1046 -0.4968
  603MOL0    Cl83121   3.299   2.857  11.008  0.1685 -0.3985  0.0735
  603MOL0     C83122   2.820   3.842  10.631 -0.2059  0.0835 -0.0574
  603MOL0     C83123   2.877   3.943  10.541 -0.4714  0.1445 -0.7635
  603MOL0     O83124   3.059   4.244  10.583 -0.2386  0.0245  0.0246
  603MOL0     C83125   3.324   4.167  10.355  0.4084 -0.1743  0.6539
  603MOL0     C83126   3.438   4.230  10.290  0.8491  1.1096 -0.4002
  603MOL0     N83127   3.683   4.939  10.337  0.4600  0.7503 -0.0740
  603MOL0     N83128   3.661   5.057  10.378 -0.2578 -0.6333 -0.3841
  603MOL0     C83129   2.575   5.418  10.620 -0.7950 -0.1076 -0.3944
  603MOL0     C83130   2.442   5.453  10.645  0.6559 -0.4214  0.2939
  603MOL0     C83131   2.064   5.692  10.541 -0.4361  0.5787  1.0746
  603MOL0     C83132   1.980   5.611  10.623  1.2074  0.8170  0.2038
  603MOL0     C83133   1.848   5.641  10.634  0.4933  0.1469 -0.4655
  603MOL0     C83134   1.793   5.746  10.563 -0.5781 -0.4808  0.3265
  603MOL0     O83135   1.662   5.767  10.594  0.4408  0.3997  0.4924
  603MOL0     C83136   1.573   5.837  10.496  0.3832  0.2930 -0.2584
  603MOL0     C83137   1.425   5.817  10.521  0.2404  0.4065  0.5326
  603MOL0     C83138   1.358   5.684  10.477  0.0252  0.7994 -0.5318
  603MOL0     C83139   1.392   5.568  10.569 -0.4465 -0.0676 -0.1374
  603MOL0     C83140   1.319   5.572  10.692 -0.1525 -0.4130 -0.2620
  603MOL0     C83141   1.264   5.556  10.796  0.4531  0.3533 -0.6004
  603MOL0     C83142   1.872   5.817  10.470 -0.1532 -1.5009 -0.5736
  603MOL0     C83143   2.012   5.794  10.460 -0.3256 -0.1778  0.3145
  603MOL0     C83144   2.089   5.858  10.351 -0.7450 -0.8297 -0.2083
  603MOL0     H83145   2.308   5.384  10.342  1.1530  0.8591 -0.6885
  603MOL0     H83146   2.536   5.284  10.310 -2.0335  0.5358 -0.3863
  603MOL0     H83147   2.853   5.401  10.590  0.0087 -0.1278  0.6498
  603MOL0     H83148   2.851   5.458  10.434  0.6578  0.5204  1.8975
  603MOL0     H83149   2.972   5.229  10.358  0.2514  1.1934 -1.2805
  603MOL0     H83150   3.053   5.370  10.425  1.4060 -2.2432  1.3277
  603MOL0     H83151   3.039   5.303  10.664 -0.1400  3.1936 -1.8569
  603MOL0     H83152   2.998   5.135  10.600  1.1917 -1.3921 -2.7044
  603MOL0     H83153   3.200   5.131  10.473  0.1135 -1.2543 -0.2484
  603MOL0     H83154   3.256   5.294  10.541 -1.0241  1.2763  2.6463
  603MOL0     H83155   3.204   5.040  10.686  0.2539 -1.0553 -1.5081
  603MOL0     H83156   3.251   5.198  10.752  0.2231 -0.6335  1.4681
  603MOL0     H83157   3.445   5.055  10.743  0.4356 -1.5103 -0.2148
  603MOL0     H83158   3.407   5.022  10.566 -0.6326  0.5621  0.5670
  603MOL0     H83159   3.466   5.284  10.681 -0.0697  0.8613 -2.6072
  603MOL0     H83160   3.471   5.246  10.514  2.3853 -0.1642 -1.3324
  603MOL0     H83161   3.698   5.269  10.576 -2.5672  1.7892  1.2034
  603MOL0     H83162   3.684   5.151  10.706 -1.2709  2.9897  1.2526
  603MOL0     H83163   3.750   4.912  10.657 -3.9630 -4.3841  0.2580
  603MOL0     H83164   3.650   4.674  10.548  0.9509 -1.1595  0.8459
  603MOL0     H83165   3.812   4.685  10.521  0.1671  0.6341  1.2679
  603MOL0     H83166   3.798   4.671  10.290  0.3006  0.7918  0.6835
  603MOL0     H83167   3.743   4.537  10.384  1.4317  0.6244 -0.2681
  603MOL0     H83168   3.502   4.631  10.351 -0.0630 -0.5066  0.1000
  603MOL0     H83169   3.566   4.736  10.214  0.1700  0.4699 -2.1664
  603MOL0     H83170   3.486   4.568  10.082 -0.9362 -0.2314  0.9610
  603MOL0     H83171   3.669   4.562  10.095  0.9809  0.8553  2.9687
  603MOL0     H83172   3.322   4.538  10.263 -0.7687 -0.3083  1.1471
  603MOL0     H83173   3.090   4.484  10.485 -0.0160 -2.7443  0.0097
  603MOL0     H83174   3.000   4.410  10.348 -0.7237  0.3838  0.7912
  603MOL0     H83175   3.107   4.555  10.321 -0.2595  0.4224  0.1695
  603MOL0     H83176   3.188   3.972  10.687 -1.3610  1.4482  1.6329
  603MOL0     H83177   3.080   3.837  10.857  1.7513 -0.6814 -0.2159
  603MOL0     H83178   2.913   3.746  11.019 -2.2456 -2.7002  3.4696
  603MOL0     H83179   2.811   3.611  11.028  0.7207  1.5840  2.0128
  603MOL0     H83180   3.081   3.590  10.895 -0.9165  1.5304 -1.0938
  603MOL0     H83181   3.026   3.550  11.063 -1.1410 -3.5772 -0.4196
  603MOL0     H83182   2.902   3.443  10.806 -2.3488  0.2353  0.2042
  603MOL0     H83183   2.874   3.394  10.975 -0.9810  2.0016 -0.9449
  603MOL0     H83184   3.173   3.334  10.928  0.1362 -0.8302 -0.2181
  603MOL0     H83185   3.093   3.314  10.777  2.3203  0.1407 -0.1681
  603MOL0     H83186   3.051   3.163  11.038  1.3597 -0.1405  0.0279
  603MOL0     H83187   2.943   3.146  10.892  0.0088 -0.9091 -0.9585
  603MOL0     H83188   3.241   3.076  10.916  0.9126 -1.6571 -0.1708
  603MOL0     H83189   3.171   3.105  10.762 -2.0477 -1.8084 -0.9721
  603MOL0     H83190   3.116   2.878  10.755  0.0016 -0.2108 -0.4830
  603MOL0     H83191   2.968   2.938  10.841  0.5871  0.8549  0.5123
  603MOL0     H83192   3.093   2.746  10.946 -0.5752 -0.0762  0.2676
  603MOL0     H83193   3.070   2.872  11.053  0.5507 -0.1082  0.3907
  603MOL0     H83194   2.718   3.806  10.623 -1.5753  3.4996  0.0335
  603MOL0     H83195   2.823   3.987  10.459 -1.7873  2.8567  1.3934
  603MOL0     H83196   3.334   4.067  10.395 -0.9522 -1.2083 -1.4178
  603MOL0     H83197   3.524   4.169  10.264 -1.7867 -3.8836  1.3739
  603MOL0     H83198   2.660   5.446  10.681 -1.9571 -2.2837  2.4526
  603MOL0     H83199   2.421   5.502  10.740  2.0929 -3.1987  2.2232
  603MOL0     H83200   2.017   5.524  10.676  0.5219 -0.1097 -0.7978
  603MOL0     H83201   1.774   5.584  10.690  0.4012 -1.7117 -2.3508
  603MOL0     H83202   1.588   5.943  10.517  4.0145  0.0002 -0.6291
  603MOL0     H83203   1.604   5.810  10.394 -1.0392  1.7976 -1.1332
  603MOL0     H83204   1.385   5.902  10.465  2.0242 -0.6770 -2.6412
  603MOL0     H83205   1.396   5.827  10.626 -0.8516 -0.0978  0.2891
  603MOL0     H83206   1.255   5.722  10.481  0.1795  1.2238 -0.5770
  603MOL0     H83207   1.379   5.659  10.373 -2.6489 -2.4751 -0.4650
  603MOL0     H83208   1.499   5.570  10.592 -0.8324 -1.6099  2.1195
  603MOL0     H83209   1.376   5.473  10.518 -1.9961 -1.9978  3.5877
  603MOL0     H83210   1.242   5.541  10.900  2.0114  2.1688  0.0536
  603MOL0     H83211   1.840   5.911  10.427 -1.1829 -1.3233  0.5366
  603MOL0     H83212   2.166   5.788  10.319  2.2913  2.3350 -0.4730
  603MOL0     H83213   2.029   5.886  10.264  1.3262 -0.0045 -1.4252
  603MOL0     H83214   2.142   5.947  10.386 -1.4153 -0.4414 -0.1579
  604MOL0     O83215  11.293   7.467   4.361  0.2031  0.3120 -0.3985
  604MOL0     C83216  11.345   7.552   4.287  1.2663  0.6604  0.4145
  604MOL0     O83217  11.374   7.688   4.311 -0.2102 -0.7620  0.6092
  604MOL0     C83218  11.378   7.729   4.439  0.9896  0.5034 -0.9658
  604MOL0     C83219  11.272   7.707   4.530  0.4981 -0.9244 -0.3027
  604MOL0     C83220  11.280   7.749   4.659 -0.3568 -0.9414 -0.3398
  604MOL0     C83221  11.393   7.817   4.710  0.1011  0.5531 -0.1839
  604MOL0     O83222  11.411   7.854   4.843  0.3447 -0.2136  0.2453
  604MOL0     C83223  11.295   7.903   4.917 -0.6328 -0.0345 -0.2467
  604MOL0     C83224  11.342   7.938   5.060 -0.3812  0.7988  0.2852
  604MOL0     C83225  11.331   7.816   5.153  0.2449 -0.7773 -0.1644
  604MOL0     C83226  11.184   7.801   5.204 -1.1993  0.4411  0.1716
  604MOL0     C83227  11.132   7.652   5.198  0.1578  1.0251  0.5689
  604MOL0     C83228  11.194   7.572   5.319 -0.2701  0.7251  0.1008
  604MOL0     C83229  11.340   7.553   5.341 -0.7780 -0.3403 -0.1016
  604MOL0     C83230  11.374   7.447   5.448 -0.1360  0.3521 -0.1755
  604MOL0     N83231  11.335   7.484   5.580 -0.5846 -0.9689 -0.7329
  604MOL0     C83232  11.344   7.607   5.653 -0.4582  0.5137  0.3171
  604MOL0     C83233  11.295   7.583   5.780  0.1352  0.1941  0.1695
  604MOL0     C83234  11.302   7.681   5.896  0.6392 -0.5058 -0.0590
  604MOL0     C83235  11.256   7.626   6.036  0.4189  0.0265  0.4807
  604MOL0     C83236  11.102   7.588   6.041 -0.7416 -0.2719  1.0338
  604MOL0     C83237  11.015   7.721   6.038 -0.2469  0.5176  0.5785
  604MOL0     O83238  11.034   7.792   6.157 -0.2096  0.2144  0.4427
  604MOL0     C83239  10.945   7.892   6.186 -0.2645 -0.7016  0.1584
  604MOL0     C83240  10.933   7.927   6.324  0.2191 -0.2400  0.2351
  604MOL0     C83241  10.829   8.012   6.362 -0.8619  0.0370 -0.8955
  604MOL0     C83242  10.832   8.029   6.514 -0.7204 -0.2251 -0.2513
  604MOL0     C83243  10.746   8.092   6.267 -0.2412 -0.5631  0.1858
  604MOL0     C83244  10.643   8.189   6.301  0.0333  0.2610  1.0419
  604MOL0     O83245  10.639   8.232   6.431 -0.3786  0.1361 -0.4518
  604MOL0     C83246  10.525   8.271   6.497  0.2141 -1.0957 -0.1525
  604MOL0     C83247  10.400   8.235   6.461  0.7912 -0.1902 -1.1096
  604MOL0     C83248  10.284   8.267   6.537 -0.0832 -0.4751 -0.4409
  604MOL0     C83249  10.303   8.328   6.653  0.8950 -0.6264 -0.6619
  604MOL0     O83250  10.196   8.342   6.742  0.1665 -0.3505 -0.3894
  604MOL0     C83251  10.202   8.253   6.865  0.5753  0.4204  1.4622
  604MOL0     C83252  10.135   8.335   6.977  0.3358  0.5245  0.2233
  604MOL0     C83253   9.984   8.310   7.003  1.3564 -0.2145  0.6222
  604MOL0     C83254   9.901   8.302   6.874  0.8413  0.6430 -0.4154
  604MOL0     C83255   9.754   8.275   6.915  0.2137  0.6383 -0.2432
  604MOL0     C83256   9.697   8.397   6.988  0.1357 -0.6151  0.4880
  604MOL0     C83257   9.539   8.412   7.006  0.2523 -0.3229  0.7594
  604MOL0     C83258   9.515   8.541   7.092  0.2038 -0.2089 -0.6300
  604MOL0    Cl83259   9.592   8.538   7.248 -0.1056 -0.5179 -0.0956
  604MOL0     C83260  10.425   8.378   6.690 -0.9073 -0.1856 -0.0289
  604MOL0     C83261  10.536   8.354   6.608  0.0524 -0.0016 -0.4733
  604MOL0     O83262  10.569   8.231   6.209 -0.2913  0.1976 -0.3063
  604MOL0     C83263  10.774   8.067   6.134  1.0970  0.2180  0.9495
  604MOL0     C83264  10.865   7.967   6.091 -0.2778  0.9542  0.1590
  604MOL0     N83265  11.277   7.444   5.794  0.4854  0.4997  0.1300
  604MOL0     N83266  11.292   7.395   5.670 -0.5366 -0.2310 -0.8769
  604MOL0     C83267  11.488   7.860   4.610 -0.3979 -0.5787 -0.0320
  604MOL0     C83268  11.475   7.820   4.475 -0.2668 -0.4044 -0.5501
  604MOL0     C83269  11.354   7.511   4.150 -0.0849 -0.1568 -0.4458
  604MOL0     C83270  11.239   7.477   4.067 -0.5885 -0.3253 -0.1312
  604MOL0     C83271  11.251   7.461   3.930 -0.6666  0.7162 -0.7067
  604MOL0     C83272  11.377   7.455   3.869 -0.3737 -0.3259  0.8860
  604MOL0     O83273  11.374   7.439   3.737  0.1651 -0.2435 -0.0931
  604MOL0     C83274  11.495   7.461   3.657 -0.1027 -0.4706 -0.6069
  604MOL0     C83275  11.455   7.408   3.513  0.4330 -0.6198 -0.2152
  604MOL0     C83276  11.517   7.469   3.388 -0.1837 -0.5109  0.1477
  604MOL0     C83277  11.479   7.617   3.370  0.6494  0.0247  0.6605
  604MOL0     C83278  11.542   7.663   3.239 -0.5879  0.0434 -0.6422
  604MOL0     C83279  11.591   7.695   3.137 -0.5940  0.5115 -0.0530
  604MOL0     C83280  11.487   7.472   3.954  0.0393 -0.8088  0.2975
  604MOL0     C83281  11.480   7.501   4.088 -0.4868  0.7699 -0.3195
  604MOL0     C83282  11.606   7.519   4.158 -1.0861  0.9003  0.4197
  604MOL0     H83283  11.181   7.658   4.495 -0.6862  1.0545 -0.1374
  604MOL0     H83284  11.196   7.725   4.723  0.7749 -0.2298  1.4753
  604MOL0     H83285  11.218   7.826   4.902  0.2040 -0.8954 -0.1639
  604MOL0     H83286  11.264   7.996   4.869 -3.8628 -1.1356 -0.5504
  604MOL0     H83287  11.450   7.958   5.057  0.9563 -4.2297  3.1626
  604MOL0     H83288  11.284   8.028   5.080 -0.6006  0.6371  0.3806
  604MOL0     H83289  11.365   7.725   5.103  0.1128 -0.7265 -0.3481
  604MOL0     H83290  11.401   7.844   5.231  1.0669 -0.0654 -1.1332
  604MOL0     H83291  11.166   7.844   5.303  0.9096 -2.4180  1.9527
  604MOL0     H83292  11.120   7.847   5.128  2.2297  0.6368 -2.8676
  604MOL0     H83293  11.169   7.616   5.102 -0.7589  2.0380 -0.1874
  604MOL0     H83294  11.023   7.646   5.209  0.0717 -2.4072 -1.0813
  604MOL0     H83295  11.145   7.612   5.408 -2.3657 -0.1068 -0.5991
  604MOL0     H83296  11.151   7.472   5.305 -1.6765  1.3544 -0.2854
  604MOL0     H83297  11.371   7.654   5.365  0.2252  0.0481 -2.6727
  604MOL0     H83298  11.399   7.522   5.254 -0.8015  0.6810 -0.4917
  604MOL0     H83299  11.332   7.348   5.429 -0.0123  0.3705 -0.5573
  604MOL0     H83300  11.482   7.433   5.433 -0.4979  1.0846 -5.4303
  604MOL0     H83301  11.380   7.699   5.607 -0.5083  1.4087  1.9846
  604MOL0     H83302  11.248   7.774   5.876  2.9158  0.5076 -2.0196
  604MOL0     H83303  11.402   7.722   5.911 -0.7879  2.3202  2.8858
  604MOL0     H83304  11.319   7.537   6.041  0.4501 -0.0172 -0.5618
  604MOL0     H83305  11.281   7.690   6.121  3.9138 -0.4867 -0.0242
  604MOL0     H83306  11.074   7.535   5.949 -1.7707  0.1126  1.1157
  604MOL0     H83307  11.075   7.528   6.129 -1.5571 -0.4200  0.6974
  604MOL0     H83308  11.041   7.784   5.952 -2.7377  1.2821  0.3277
  604MOL0     H83309  10.912   7.688   6.023  0.1059 -2.0945  2.9840
  604MOL0     H83310  10.994   7.886   6.404 -2.8588 -2.0339  1.8368
  604MOL0     H83311  10.898   8.109   6.549 -1.6238  0.4443 -0.0374
  604MOL0     H83312  10.870   7.934   6.553  0.5435 -0.1331 -1.2047
  604MOL0     H83313  10.732   8.046   6.556 -1.2701 -0.3509 -1.4697
  604MOL0     H83314  10.377   8.184   6.368  1.1787  1.7592 -2.3507
  604MOL0     H83315  10.183   8.247   6.502  0.7859 -2.1032 -2.2764
  604MOL0     H83316  10.150   8.160   6.838 -1.1641  2.0808 -1.4538
  604MOL0     H83317  10.308   8.240   6.886  0.8754 -2.4813 -1.0507
  604MOL0     H83318  10.202   8.311   7.060  3.0149  0.7226 -1.7299
  604MOL0     H83319  10.150   8.444   6.970  3.6432  0.0706 -1.6209
  604MOL0     H83320   9.944   8.379   7.077  2.6334  1.5507 -0.2560
  604MOL0     H83321   9.967   8.225   7.069 -2.5554  1.8280  2.5695
  604MOL0     H83322   9.931   8.211   6.822 -2.8331 -0.8412 -0.2253
  604MOL0     H83323   9.908   8.389   6.808 -0.6077 -1.8859 -4.2633
  604MOL0     H83324   9.695   8.255   6.825 -2.2250  1.4221  1.1189
  604MOL0     H83325   9.728   8.187   6.974 -3.4956  2.4126  1.0722
  604MOL0     H83326   9.735   8.492   6.951 -2.2933  0.6435  0.9987
  604MOL0     H83327   9.742   8.400   7.087  1.6549  0.6787 -0.2086
  604MOL0     H83328   9.486   8.329   7.054  3.6807 -3.5122 -0.4624
  604MOL0     H83329   9.490   8.424   6.909 -0.8277  0.2664  1.3528
  604MOL0     H83330   9.410   8.552   7.119  1.1959  0.2343  4.0315
  604MOL0     H83331   9.559   8.623   7.035  1.9152 -0.4772  0.2251
  604MOL0     H83332  10.438   8.436   6.780  0.8474 -1.6806  0.7590
  604MOL0     H83333  10.632   8.387   6.647 -0.9899  0.9754  1.3809
  604MOL0     H83334  10.725   8.131   6.061  0.4426  2.3913  3.1328
  604MOL0     H83335  10.885   7.935   5.989 -0.0575 -1.2193  0.8308
  604MOL0     H83336  11.562   7.925   4.655  0.5410 -1.0455 -0.8683
  604MOL0     H83337  11.537   7.860   4.395 -0.5302  1.2092  0.0141
  604MOL0     H83338  11.144   7.484   4.118 -0.2021  2.2729  0.3594
  604MOL0     H83339  11.159   7.431   3.879 -2.1171 -1.1676  2.6816
  604MOL0     H83340  11.514   7.568   3.659  0.7176 -0.6112 -0.0664
  604MOL0     H83341  11.580   7.396   3.683 -0.2037 -0.4749 -0.2781
  604MOL0     H83342  11.347   7.424   3.508  0.4223  1.1451  3.2009
  604MOL0     H83343  11.480   7.302   3.514 -2.2803 -1.3413  1.4880
  604MOL0     H83344  11.626   7.462   3.387 -0.0472  0.9806  1.1442
  604MOL0     H83345  11.465   7.413   3.310 -3.2079 -0.9060  2.2518
  604MOL0     H83346  11.519   7.680   3.450  1.0381  0.5887  0.0269
  604MOL0     H83347  11.371   7.631   3.361  0.6068  1.3836  2.7299
  604MOL0     H83348  11.627   7.720   3.040 -1.0548 -1.1196 -0.6627
  604MOL0     H83349  11.576   7.455   3.895 -0.6077  0.1986 -1.0211
  604MOL0     H83350  11.661   7.425   4.149 -2.9036 -0.3821  1.8347
  604MOL0     H83351  11.660   7.600   4.108 -1.2730 -0.6538 -2.4929
  604MOL0     H83352  11.592   7.553   4.261  1.9089  2.8767  0.2920
  605MOL0     O83353   3.500   8.348   6.310  0.3378 -0.4071 -0.5639
  605MOL0     C83354   3.482   8.257   6.229  0.4493 -0.2342 -0.7858
  605MOL0     O83355   3.573   8.193   6.168  0.1933  0.0636 -0.3914
  605MOL0     C83356   3.697   8.242   6.158 -1.5078 -0.1720  0.8499
  605MOL0     C83357   3.722   8.377   6.120  0.7883 -0.2745  0.3427
  605MOL0     C83358   3.848   8.430   6.091  0.5776  0.0075 -0.5153
  605MOL0     C83359   3.967   8.347   6.096  0.5922  0.8362  0.0431
  605MOL0     O83360   4.095   8.377   6.058  0.0293  0.7929  0.0877
  605MOL0     C83361   4.127   8.507   6.067  0.8870 -0.3121 -0.2581
  605MOL0     C83362   4.103   8.578   5.932  0.2363 -0.2013  0.1870
  605MOL0     C83363   4.127   8.510   5.798 -0.2788 -0.6599 -1.3090
  605MOL0     C83364   4.277   8.472   5.802 -0.2332 -0.1349 -0.0243
  605MOL0     C83365   4.321   8.472   5.651  0.7194  0.2420 -0.4210
  605MOL0     C83366   4.460   8.410   5.625  0.3122  1.1647  0.4134
  605MOL0     C83367   4.500   8.456   5.485  0.5118  0.1446 -0.9122
  605MOL0     C83368   4.636   8.386   5.443 -0.3451  1.0065  0.2722
  605MOL0     N83369   4.621   8.241   5.450 -0.2631  0.1969 -0.1480
  605MOL0     C83370   4.700   8.166   5.543 -0.3301  0.4068 -0.1188
  605MOL0     C83371   4.671   8.040   5.509 -0.6496 -0.3956  0.0956
  605MOL0     C83372   4.713   7.913   5.564 -0.1999  0.0308 -0.2116
  605MOL0     C83373   4.587   7.852   5.635 -0.0095  0.0666  0.5355
  605MOL0     C83374   4.630   7.726   5.702  1.9877 -0.8220  0.3715
  605MOL0     C83375   4.526   7.635   5.769  1.3669 -0.3358  0.3645
  605MOL0     O83376   4.420   7.707   5.844 -0.6078  1.2757  0.0491
  605MOL0     C83377   4.370   7.638   5.947 -0.3603 -0.6134 -0.3652
  605MOL0     C83378   4.308   7.514   5.916  0.3118  0.4097 -0.7769
  605MOL0     C83379   4.264   7.431   6.029  0.2694 -0.0651  0.5968
  605MOL0     C83380   4.176   7.305   5.986 -0.7318 -0.7890 -0.9325
  605MOL0     C83381   4.293   7.469   6.163  0.1467  0.1037 -0.2783
  605MOL0     C83382   4.260   7.393   6.281 -0.3439  0.5332 -0.5027
  605MOL0     O83383   4.289   7.454   6.403 -0.3983 -0.4380 -1.3705
  605MOL0     C83384   4.318   7.383   6.520 -0.5966  0.2965 -0.1059
  605MOL0     C83385   4.341   7.244   6.535  0.5383  0.1252 -0.6620
  605MOL0     C83386   4.371   7.195   6.667  0.9993  0.2489 -0.0410
  605MOL0     C83387   4.388   7.278   6.771 -0.5193 -0.2592 -0.4615
  605MOL0     O83388   4.437   7.206   6.876  0.5695  0.2099  0.1966
  605MOL0     C83389   4.471   7.278   6.986 -0.0523 -0.2921 -0.1645
  605MOL0     C83390   4.541   7.209   7.108  0.9816 -0.1318  0.3158
  605MOL0     C83391   4.447   7.090   7.161 -0.7162  0.6948 -0.5530
  605MOL0     C83392   4.483   7.061   7.304  0.0955  0.2721  0.0794
  605MOL0     C83393   4.405   6.939   7.348  0.4799 -0.6178  0.0742
  605MOL0     C83394   4.425   6.812   7.271  0.2973  0.4178 -0.2189
  605MOL0     C83395   4.387   6.678   7.346 -0.6126 -0.0963  0.2746
  605MOL0     C83396   4.253   6.618   7.316  0.2774  0.9474 -0.0104
  605MOL0    Cl83397   4.123   6.720   7.365 -0.2166 -0.0188  0.6307
  605MOL0     C83398   4.361   7.415   6.763 -0.6071  0.2243 -0.4801
  605MOL0     C83399   4.327   7.459   6.632 -0.3250 -0.1278 -0.6012
  605MOL0     O83400   4.231   7.273   6.264  0.1073  0.0344  0.7354
  605MOL0     C83401   4.356   7.593   6.182  0.5864  0.5486 -0.1036
  605MOL0     C83402   4.388   7.677   6.079 -0.1924  0.4771 -0.2770
  605MOL0     N83403   4.578   8.039   5.407  0.0531  0.0584  0.1191
  605MOL0     N83404   4.555   8.161   5.366 -0.5514 -0.3997  0.5155
  605MOL0     C83405   3.942   8.208   6.126  1.0354  1.1830  0.2535
  605MOL0     C83406   3.809   8.161   6.147  0.7759  0.0666  0.5924
  605MOL0     C83407   3.346   8.212   6.192  0.0724 -0.8760  0.2051
  605MOL0     C83408   3.338   8.151   6.073  0.4467  0.0321  0.4012
  605MOL0     C83409   3.220   8.109   6.016  0.5274 -0.0419 -0.2102
  605MOL0     C83410   3.096   8.146   6.082  0.0778 -0.0221 -0.3497
  605MOL0     O83411   2.984   8.091   6.024  0.4620  0.0242 -0.0128
  605MOL0     C83412   2.889   8.176   5.960  0.0389  0.9133 -0.5885
  605MOL0     C83413   2.754   8.111   5.968  1.1664 -0.8581 -1.0220
  605MOL0     C83414   2.688   8.080   6.102 -0.1260 -0.2367  0.5205
  605MOL0     C83415   2.669   8.198   6.191  0.3187  0.5143  0.3409
  605MOL0     C83416   2.566   8.290   6.143  0.2086 -0.1148  0.5229
  605MOL0     C83417   2.455   8.336   6.115 -0.1043 -0.9618  0.3279
  605MOL0     C83418   3.101   8.205   6.208 -1.1013 -0.4052 -0.5209
  605MOL0     C83419   3.226   8.239   6.264  0.5240 -0.3769 -0.2925
  605MOL0     C83420   3.229   8.295   6.410  0.3655  0.4704 -0.5578
  605MOL0     H83421   3.637   8.443   6.105  2.7727  2.6876  1.2408
  605MOL0     H83422   3.842   8.537   6.072 -1.9517  0.4130  1.8865
  605MOL0     H83423   4.236   8.503   6.077  0.6737 -2.4086  2.0562
  605MOL0     H83424   4.087   8.563   6.152 -0.8453  0.4146 -1.4861
  605MOL0     H83425   3.995   8.597   5.931 -0.2512 -2.6734 -0.5146
  605MOL0     H83426   4.164   8.669   5.933  1.5906 -1.0484  2.7946
  605MOL0     H83427   4.066   8.420   5.792  2.2672 -2.5297 -1.0676
  605MOL0     H83428   4.105   8.575   5.713 -2.4575  1.7338  0.9086
  605MOL0     H83429   4.341   8.536   5.863  0.3861 -1.2556  0.5166
  605MOL0     H83430   4.291   8.372   5.844 -2.1180 -0.7594 -0.7817
  605MOL0     H83431   4.311   8.574   5.613 -1.4382  0.7692  1.3055
  605MOL0     H83432   4.248   8.414   5.595  0.5295  0.8974 -0.8666
  605MOL0     H83433   4.531   8.449   5.699  0.9948 -0.0354  0.4005
  605MOL0     H83434   4.449   8.302   5.632 -2.9029  1.4287  0.8283
  605MOL0     H83435   4.522   8.563   5.496 -0.8685  0.3193  0.5398
  605MOL0     H83436   4.423   8.439   5.408 -4.1788  1.3027  3.0095
  605MOL0     H83437   4.664   8.407   5.339  1.6271 -2.6884 -0.1040
  605MOL0     H83438   4.711   8.423   5.513  0.0549  3.7584 -1.4471
  605MOL0     H83439   4.771   8.205   5.614 -0.1637 -0.3947  0.1588
  605MOL0     H83440   4.791   7.931   5.639  0.9364  1.0703 -1.5869
  605MOL0     H83441   4.759   7.845   5.491 -0.4428 -2.1366  1.5361
  605MOL0     H83442   4.547   7.920   5.710 -1.0755 -0.4494  0.4542
  605MOL0     H83443   4.506   7.826   5.566  0.1076 -2.3947  1.2318
  605MOL0     H83444   4.678   7.665   5.626 -0.9044 -0.2085 -2.1253
  605MOL0     H83445   4.700   7.748   5.784  0.2710  1.9530  1.2487
  605MOL0     H83446   4.475   7.567   5.701  0.1933 -0.6762  1.5380
  605MOL0     H83447   4.578   7.570   5.840 -0.7913 -0.7672  1.6420
  605MOL0     H83448   4.287   7.493   5.812 -0.2417 -1.8518 -0.2732
  605MOL0     H83449   4.220   7.205   5.986  0.4085 -0.4154 -4.0952
  605MOL0     H83450   4.177   7.331   5.880  2.8798  3.0580 -0.2230
  605MOL0     H83451   4.080   7.292   6.037  0.7511 -0.6790  2.0981
  605MOL0     H83452   4.325   7.167   6.460  1.7736 -3.1058  2.1139
  605MOL0     H83453   4.406   7.093   6.680  2.6142  0.7977  0.1816
  605MOL0     H83454   4.547   7.352   6.958  1.6381 -1.2874  1.5691
  605MOL0     H83455   4.388   7.344   7.014  0.0591  0.9409 -2.4686
  605MOL0     H83456   4.641   7.172   7.085  0.7404 -2.2956  2.3640
  605MOL0     H83457   4.551   7.286   7.185 -0.2332 -1.3352  1.7302
  605MOL0     H83458   4.437   7.008   7.089  2.7141  1.4979 -2.1569
  605MOL0     H83459   4.347   7.134   7.164  0.5451  4.1120  4.5644
  605MOL0     H83460   4.477   7.151   7.366 -0.1709  0.8376 -0.7655
  605MOL0     H83461   4.589   7.032   7.308  0.0700 -0.6563 -3.3025
  605MOL0     H83462   4.443   6.909   7.446  0.8560 -0.8065 -0.1267
  605MOL0     H83463   4.299   6.966   7.349  0.3853 -0.9037 -0.9285
  605MOL0     H83464   4.531   6.797   7.248  0.2277 -1.5261  0.5895
  605MOL0     H83465   4.360   6.809   7.183  1.4310 -1.1621 -1.0519
  605MOL0     H83466   4.395   6.695   7.454 -1.5309  2.9898 -0.0427
  605MOL0     H83467   4.462   6.601   7.330  0.0235 -0.0796  2.7781
  605MOL0     H83468   4.255   6.517   7.360 -0.6158 -0.8888 -3.7493
  605MOL0     H83469   4.246   6.592   7.210  0.1298  1.2132 -0.0648
  605MOL0     H83470   4.371   7.490   6.840 -3.9574 -1.7031  2.1153
  605MOL0     H83471   4.323   7.566   6.614  1.8398  0.0251 -0.3761
  605MOL0     H83472   4.369   7.627   6.284 -1.8723 -2.7120  1.4838
  605MOL0     H83473   4.444   7.767   6.104  0.1775  0.4165 -0.8612
  605MOL0     H83474   4.032   8.147   6.116  0.4523  0.5373 -1.4695
  605MOL0     H83475   3.806   8.053   6.163 -0.8440 -0.2741 -1.5542
  605MOL0     H83476   3.428   8.137   6.014  0.0566  0.6357 -0.3680
  605MOL0     H83477   3.217   8.058   5.920 -1.2755  2.6997 -1.7515
  605MOL0     H83478   2.883   8.280   5.994  2.6791  0.8720  0.2694
  605MOL0     H83479   2.908   8.176   5.852 -1.3284 -2.2247 -0.9446
  605MOL0     H83480   2.756   8.016   5.914  1.5322 -1.2695 -0.2959
  605MOL0     H83481   2.686   8.167   5.904 -1.2727 -1.6537  0.7275
  605MOL0     H83482   2.584   8.046   6.093 -0.9942  2.2729  0.1961
  605MOL0     H83483   2.731   7.993   6.151  1.0816 -0.0635 -0.1900
  605MOL0     H83484   2.765   8.250   6.197  1.8543 -1.5048 -3.3813
  605MOL0     H83485   2.635   8.155   6.286 -3.6057  0.5550 -0.8638
  605MOL0     H83486   2.358   8.380   6.109 -0.2175 -1.4090 -2.0351
  605MOL0     H83487   3.014   8.224   6.270  0.8314  0.5267  2.0870
  605MOL0     H83488   3.129   8.326   6.443  1.2973  2.6127  0.4252
  605MOL0     H83489   3.250   8.216   6.482  0.7102  2.5268  1.7090
  605MOL0     H83490   3.299   8.379   6.412  1.5833 -0.5416  0.9343
  606MOL0     O83491   6.057  10.685   4.253  0.8860  0.2836  0.4141
  606MOL0     C83492   6.087  10.567   4.244 -0.3219  0.6027  1.1154
  606MOL0     O83493   6.012  10.480   4.180 -0.3555  0.4095  0.5465
  606MOL0     C83494   5.915  10.507   4.086 -0.3659  0.4344  0.0947
  606MOL0     C83495   5.886  10.394   4.013  0.5775  1.0595 -0.0134
  606MOL0     C83496   5.806  10.405   3.899 -0.1734 -0.3131  0.8244
  606MOL0     C83497   5.730  10.520   3.878 -0.0242 -0.0642  0.1672
  606MOL0     O83498   5.635  10.509   3.781 -0.1054  0.4430  0.1734
  606MOL0     C83499   5.527  10.599   3.776 -0.6794 -0.6561  0.0440
  606MOL0     C83500   5.411  10.541   3.680  0.2116 -1.1457 -0.3379
  606MOL0     C83501   5.466  10.438   3.571  0.1138 -0.4936  0.5701
  606MOL0     C83502   5.363  10.408   3.455 -0.2674 -1.3191 -0.2171
  606MOL0     C83503   5.304  10.262   3.488  0.2343 -0.7285  0.4426
  606MOL0     C83504   5.226  10.206   3.368  0.7672  0.4993 -0.3765
  606MOL0     C83505   5.166  10.075   3.406  0.4534  0.0724 -0.2599
  606MOL0     C83506   5.115   9.978   3.292 -0.1092 -0.6623  0.8677
  606MOL0     N83507   5.014  10.037   3.204 -0.2059  0.6581 -0.0101
  606MOL0     C83508   5.042  10.100   3.081  0.4064 -0.2080 -0.1475
  606MOL0     C83509   4.919  10.090   3.019 -0.5973 -0.6861 -0.2350
  606MOL0     C83510   4.878  10.164   2.887 -0.8558  0.3842  0.4004
  606MOL0     C83511   4.989  10.153   2.781 -0.2352  0.0837  1.2387
  606MOL0     C83512   4.965  10.245   2.661  0.0236 -0.3272  0.5641
  606MOL0     C83513   4.861  10.189   2.562  1.3140  0.2805 -1.0736
  606MOL0     O83514   4.886  10.056   2.519 -0.0834  0.1688  0.2630
  606MOL0     C83515   4.936  10.055   2.391  0.1876  0.0966  0.2085
  606MOL0     C83516   4.845  10.054   2.284 -0.3156 -0.8214 -0.2483
  606MOL0     C83517   4.896  10.045   2.158 -0.2247 -0.1239 -0.0426
  606MOL0     C83518   4.799  10.034   2.043  0.9266 -0.1371 -0.1409
  606MOL0     C83519   5.029  10.058   2.130 -0.0442  1.5293 -0.9495
  606MOL0     C83520   5.085  10.073   1.999 -0.2883  0.8298 -0.1925
  606MOL0     O83521   5.177   9.988   1.950 -0.4849  0.5785  0.2183
  606MOL0     C83522   5.217   9.991   1.819  0.0804  0.3060 -0.6113
  606MOL0     C83523   5.357   9.966   1.794  0.3549  0.9920 -0.5548
  606MOL0     C83524   5.401   9.974   1.665  0.6929 -0.4054  0.2942
  606MOL0     C83525   5.314   9.981   1.556 -0.1638  0.3196  0.0012
  606MOL0     O83526   5.363   9.995   1.424 -0.7047 -0.3133  0.2229
  606MOL0     C83527   5.392  10.129   1.378  0.2123 -0.1714 -0.1018
  606MOL0     C83528   5.541  10.166   1.403 -0.4160  0.3516 -0.0605
  606MOL0     C83529   5.638  10.089   1.321  0.0729  0.0108 -0.2297
  606MOL0     C83530   5.761  10.049   1.404  0.0640  0.3600 -0.3432
  606MOL0     C83531   5.802   9.904   1.378  0.5674 -0.3153 -0.0567
  606MOL0     C83532   5.913   9.884   1.482 -0.0046 -0.0423  0.3551
  606MOL0     C83533   5.958   9.740   1.502  0.6838  0.4849 -0.8561
  606MOL0     C83534   6.020   9.728   1.639 -0.4611  0.3102  0.4380
  606MOL0    Cl83535   6.079   9.565   1.665 -0.1070  0.1591 -0.2447
  606MOL0     C83536   5.178   9.997   1.577  0.5135  0.2981 -0.3264
  606MOL0     C83537   5.128  10.006   1.711 -0.4180 -0.3451  0.2646
  606MOL0     O83538   5.042  10.176   1.945  0.3436  0.2803 -0.3147
  606MOL0     C83539   5.120  10.060   2.234 -0.4963 -1.0217 -0.9682
  606MOL0     C83540   5.071  10.060   2.372  0.9289  0.9311  0.0304
  606MOL0     N83541   4.833  10.026   3.105 -0.4453 -0.1756 -0.4999
  606MOL0     N83542   4.884   9.990   3.211 -0.5291  0.0993  0.0598
  606MOL0     C83543   5.758  10.635   3.953 -0.1604 -0.4444  0.1276
  606MOL0     C83544   5.856  10.631   4.056  0.5342 -0.5487 -0.3905
  606MOL0     C83545   6.211  10.517   4.308  0.2388 -0.1428  0.3159
  606MOL0     C83546   6.270  10.598   4.408  0.8315  0.0320 -0.5801
  606MOL0     C83547   6.377  10.558   4.486 -0.7171  0.1847  1.0049
  606MOL0     C83548   6.437  10.439   4.454 -0.5054  0.1439 -0.4063
  606MOL0     O83549   6.552  10.423   4.525  0.1819 -0.5061  0.4684
  606MOL0     C83550   6.637  10.318   4.493 -1.1027  0.3105  0.2852
  606MOL0     C83551   6.721  10.336   4.360 -0.2717  0.0890  0.0740
  606MOL0     C83552   6.810  10.464   4.363  0.5547 -0.3463  0.2836
  606MOL0     C83553   6.930  10.441   4.467 -0.2211 -0.5422  0.2564
  606MOL0     C83554   7.019  10.330   4.431 -0.4662 -0.9731 -0.1968
  606MOL0     C83555   7.089  10.243   4.390  0.6588 -0.8838  0.4176
  606MOL0     C83556   6.385  10.350   4.360  1.3336  0.3909  0.6377
  606MOL0     C83557   6.272  10.387   4.281  0.0927 -1.8139  0.4228
  606MOL0     C83558   6.224  10.290   4.166  0.0253 -0.0379 -0.1577
  606MOL0     H83559   5.927  10.297   4.041  2.0259  2.4768  3.4595
  606MOL0     H83560   5.775  10.317   3.843  0.1292  2.0555 -3.5787
  606MOL0     H83561   5.560  10.692   3.728  0.0527 -1.2790 -0.7061
  606MOL0     H83562   5.487  10.639   3.869 -1.9785  1.9960 -1.5392
  606MOL0     H83563   5.338  10.484   3.738 -0.3893  0.0070  0.0822
  606MOL0     H83564   5.351  10.616   3.627  0.3617 -0.4744  0.4156
  606MOL0     H83565   5.550  10.485   3.518 -1.3939  1.1397 -0.5081
  606MOL0     H83566   5.497  10.344   3.616  1.5341 -0.5462 -0.4374
  606MOL0     H83567   5.282  10.481   3.459  0.5558 -0.3792 -0.1960
  606MOL0     H83568   5.415  10.407   3.358 -1.2585 -2.4425 -0.7635
  606MOL0     H83569   5.235  10.257   3.573 -0.8814 -1.2513 -0.4598
  606MOL0     H83570   5.382  10.186   3.497  1.3199  0.3186  0.0917
  606MOL0     H83571   5.151  10.276   3.329  2.0636  1.4419 -1.2828
  606MOL0     H83572   5.292  10.198   3.281  0.1613 -2.7587 -0.6654
  606MOL0     H83573   5.078  10.109   3.463  0.8048  2.4640 -1.0547
  606MOL0     H83574   5.239  10.023   3.469  1.7904 -1.5204 -2.9536
  606MOL0     H83575   5.193   9.945   3.223 -0.0961  1.9662 -0.4767
  606MOL0     H83576   5.084   9.887   3.345  0.9342 -0.7871  1.2926
  606MOL0     H83577   5.131  10.154   3.050  1.1084 -2.0480 -1.5827
  606MOL0     H83578   4.844  10.266   2.908 -0.3874  0.4151  1.0032
  606MOL0     H83579   4.796  10.106   2.843  1.0716 -1.7208 -0.6033
  606MOL0     H83580   5.086  10.180   2.823  1.7870 -0.7880 -2.3848
  606MOL0     H83581   4.995  10.049   2.747 -0.1412  0.8521 -1.2961
  606MOL0     H83582   4.940  10.348   2.687 -0.6338 -0.6076  1.0634
  606MOL0     H83583   5.063  10.259   2.615  0.5678 -1.8247  1.1839
  606MOL0     H83584   4.762  10.181   2.607  0.1690 -2.3964 -3.6883
  606MOL0     H83585   4.846  10.263   2.483  0.3564  1.0951 -0.1651
  606MOL0     H83586   4.738  10.046   2.299 -0.3032 -0.6628 -0.0710
  606MOL0     H83587   4.835   9.990   1.950 -0.6668  1.2793 -1.5000
  606MOL0     H83588   4.760  10.133   2.019 -1.3096 -0.4489  1.7634
  606MOL0     H83589   4.719   9.972   2.086  1.1083 -0.5859 -0.4468
  606MOL0     H83590   5.425   9.962   1.878  1.1490  2.2803 -1.0941
  606MOL0     H83591   5.501   9.959   1.625  0.0041  0.5472 -1.8965
  606MOL0     H83592   5.359  10.124   1.274 -0.2426  2.7631 -0.1898
  606MOL0     H83593   5.324  10.202   1.424 -0.1879 -1.1978  0.9845
  606MOL0     H83594   5.569  10.272   1.397  2.5438 -0.2901  0.7807
  606MOL0     H83595   5.551  10.135   1.507 -1.6158 -0.9018 -0.2977
  606MOL0     H83596   5.684  10.133   1.232 -1.0644 -0.2938 -0.9845
  606MOL0     H83597   5.586  10.000   1.285 -1.5379  0.4297  0.9576
  606MOL0     H83598   5.742  10.063   1.511  3.8622 -1.7187  0.7994
  606MOL0     H83599   5.843  10.111   1.366 -1.9256  1.5599 -2.9014
  606MOL0     H83600   5.726   9.828   1.402  1.0022 -0.3495  1.3244
  606MOL0     H83601   5.838   9.889   1.276  0.9380 -3.3555  0.4223
  606MOL0     H83602   5.885   9.916   1.583  1.2041  0.7272  0.4631
  606MOL0     H83603   5.999   9.948   1.460  0.2300  0.0573  1.5088
  606MOL0     H83604   6.028   9.716   1.421  0.5740  0.4151 -0.9305
  606MOL0     H83605   5.874   9.671   1.489  1.1969 -0.0878 -1.1778
  606MOL0     H83606   5.942   9.735   1.715 -2.5774 -0.6686 -1.5122
  606MOL0     H83607   6.101   9.800   1.656 -0.2737  0.0347  0.7309
  606MOL0     H83608   5.113   9.993   1.491  0.1565  2.0196 -0.1666
  606MOL0     H83609   5.021  10.017   1.727 -0.2111  2.2740  0.2817
  606MOL0     H83610   5.223  10.081   2.210 -0.1606 -1.0947  0.3625
  606MOL0     H83611   5.129  10.052   2.464 -0.8007  1.1903  1.1981
  606MOL0     H83612   5.700  10.724   3.933  1.4201  0.4106 -0.7815
  606MOL0     H83613   5.872  10.715   4.123  0.3015 -1.1912  0.4959
  606MOL0     H83614   6.221  10.691   4.435  1.0820 -0.0673  0.2369
  606MOL0     H83615   6.413  10.620   4.567 -0.9871 -0.7010  1.8184
  606MOL0     H83616   6.701  10.289   4.578  0.1785 -3.6582 -1.7689
  606MOL0     H83617   6.584  10.224   4.473 -1.6173  0.5996  0.2844
  606MOL0     H83618   6.656  10.338   4.272  0.4722  3.1206 -0.5129
  606MOL0     H83619   6.780  10.244   4.360 -1.3320 -0.6378 -1.2918
  606MOL0     H83620   6.847  10.509   4.270 -0.2354  2.0521  1.0734
  606MOL0     H83621   6.748  10.543   4.406  3.2492  1.3127  1.3652
  606MOL0     H83622   6.895  10.429   4.570  2.1083  0.5110  1.2479
  606MOL0     H83623   6.997  10.527   4.472  1.4227 -1.7916  0.8042
  606MOL0     H83624   7.159  10.173   4.347  0.4912 -0.4387 -0.6011
  606MOL0     H83625   6.436  10.256   4.343 -1.5081 -1.2686  0.5549
  606MOL0     H83626   6.233  10.343   4.071  2.3159  1.8324  0.9900
  606MOL0     H83627   6.290  10.203   4.166  1.3112  0.8492  1.7991
  606MOL0     H83628   6.124  10.269   4.204 -0.0672  2.7885  1.4927
  607MOL0     O83629   1.940   1.856  11.345  0.7105  0.9181  0.0719
  607MOL0     C83630   1.916   1.973  11.375  1.0004  0.0079 -0.5450
  607MOL0     O83631   2.001   2.069  11.433  0.1755 -0.4702 -0.5165
  607MOL0     C83632   2.138   2.029  11.434 -0.1155 -0.9102 -0.0919
  607MOL0     C83633   2.212   2.007  11.308 -0.2334  0.1583  0.5108
  607MOL0     C83634   2.350   1.977  11.321 -0.5679 -0.2763  0.1358
  607MOL0     C83635   2.415   1.954  11.439 -0.4685 -0.0061 -0.2181
  607MOL0     O83636   2.541   1.904  11.435 -0.3249 -1.0542  0.5384
  607MOL0     C83637   2.632   1.972  11.526  0.4256  0.4927 -0.0618
  607MOL0     C83638   2.668   2.108  11.482 -0.4851  0.3336  0.2341
  607MOL0     C83639   2.786   2.170  11.566  0.5179 -0.0610 -0.9243
  607MOL0     C83640   2.754   2.189  11.718 -0.3351  0.4293  0.5372
  607MOL0     C83641   2.887   2.223  11.794 -1.1210 -0.0097  0.4557
  607MOL0     C83642   2.882   2.244  11.943  0.1807  0.2718 -0.0063
  607MOL0     C83643   2.809   2.132  12.028  0.8973 -0.3475 -0.1468
  607MOL0     C83644   2.805   2.174  12.172 -0.4979 -0.2782 -0.1906
  607MOL0     N83645   2.744   2.083  12.269 -0.9080  0.9548  0.3297
  607MOL0     C83646   2.615   2.073  12.313 -0.1640 -1.2675  0.7074
  607MOL0     C83647   2.605   1.967  12.394 -0.4726 -0.1274 -0.6328
  607MOL0     C83648   2.490   1.927  12.476  0.2576  0.1769  0.3432
  607MOL0     C83649   2.462   2.027  12.583  0.5418  0.6313  0.1449
  607MOL0     C83650   2.480   1.960  12.732 -0.1389  0.3612 -0.2247
  607MOL0     C83651   2.632   1.937  12.772  0.9316  0.2236  0.2197
  607MOL0     O83652   2.634   1.852  12.890  1.0461 -0.8296 -0.3834
  607MOL0     C83653   2.750   1.805  12.942  0.4378 -0.4591  0.1878
  607MOL0     C83654   2.734   1.710  13.040 -0.2293  0.0078  0.2752
  607MOL0     C83655   2.839   1.674  13.123 -0.9802 -0.2586  0.8685
  607MOL0     C83656   2.812   1.579  13.237  0.0452  0.2404  0.2029
  607MOL0     C83657   2.971   1.713  13.085 -0.1713  0.1864 -0.2361
  607MOL0     C83658   3.091   1.668  13.150  0.1832 -0.3254  0.7517
  607MOL0     O83659   3.096   1.550  13.207  1.3309 -0.0690  0.0172
  607MOL0     C83660   3.210   1.511  13.275 -0.8590 -0.7276 -0.0744
  607MOL0     C83661   3.215   1.539  13.411  0.4856 -0.2140  0.2827
  607MOL0     C83662   3.321   1.487  13.491  1.0320  0.7225 -0.3989
  607MOL0     C83663   3.415   1.402  13.427  0.0018  0.4944 -0.1655
  607MOL0     O83664   3.508   1.349  13.515  0.2508 -0.1733  0.1617
  607MOL0     C83665   3.611   1.268  13.458  0.4691  0.5816  0.3732
  607MOL0     C83666   3.574   1.119  13.453  0.1103  0.3230  0.0201
  607MOL0     C83667   3.524   1.060  13.578  0.2862  0.4383 -0.6550
  607MOL0     C83668   3.539   0.915  13.616 -0.5082 -0.2006 -0.4009
  607MOL0     C83669   3.524   0.889  13.766 -0.1374 -0.1223 -0.6356
  607MOL0     C83670   3.653   0.912  13.847  0.0847  0.0724  0.2148
  607MOL0     C83671   3.614   0.939  13.985 -0.7699  0.9652  0.0360
  607MOL0     C83672   3.733   0.936  14.089  0.2805  0.0716 -0.1075
  607MOL0    Cl83673   3.692   1.036  14.241 -0.3810 -0.8030  0.2461
  607MOL0     C83674   3.396   1.360  13.289  0.1940  0.2321 -0.3535
  607MOL0     C83675   3.297   1.421  13.212 -0.4777 -0.2948  0.8426
  607MOL0     O83676   3.183   1.747  13.159 -0.7530  0.2857  0.4835
  607MOL0     C83677   2.995   1.790  12.963 -1.1665 -0.5106 -0.2660
  607MOL0     C83678   2.878   1.840  12.897  0.0840  0.1803  0.0211
  607MOL0     N83679   2.734   1.922  12.417  0.4210  0.1682  0.9859
  607MOL0     N83680   2.811   1.984  12.347 -0.3450  0.8616  0.1461
  607MOL0     C83681   2.335   1.977  11.557 -0.5172 -0.2468 -0.6419
  607MOL0     C83682   2.201   2.013  11.557  0.6538  0.0491  0.4764
  607MOL0     C83683   1.806   2.027  11.300 -0.3400  0.0541 -0.1037
  607MOL0     C83684   1.805   2.169  11.275  0.7811 -0.0302  0.6892
  607MOL0     C83685   1.688   2.223  11.206 -0.0633  0.3028  0.2296
  607MOL0     C83686   1.581   2.138  11.176 -0.5077 -0.6581  0.1448
  607MOL0     O83687   1.463   2.193  11.135 -0.5175 -0.4631 -0.7078
  607MOL0     C83688   1.399   2.143  11.015 -0.0458  0.1111  0.4733
  607MOL0     C83689   1.267   2.207  10.966  0.0021  0.9255 -0.4492
  607MOL0     C83690   1.242   2.353  10.988 -0.3692 -1.4889  1.2780
  607MOL0     C83691   1.306   2.443  10.877  0.3037  0.3499 -0.7331
  607MOL0     C83692   1.278   2.581  10.897  0.6496 -0.3295  0.3423
  607MOL0     C83693   1.243   2.699  10.910  0.0172 -0.4423  0.3461
  607MOL0     C83694   1.590   2.005  11.212  0.9760 -0.1480  0.4386
  607MOL0     C83695   1.690   1.942  11.280 -0.4276  0.2072 -0.0916
  607MOL0     C83696   1.659   1.798  11.313 -0.2996  0.2241  0.1477
  607MOL0     H83697   2.159   1.993  11.215 -1.1252  0.0848  1.0175
  607MOL0     H83698   2.402   1.954  11.228  1.8006  2.4011  0.6588
  607MOL0     H83699   2.718   1.905  11.526 -1.8798 -2.7091  0.7296
  607MOL0     H83700   2.586   1.987  11.624  1.2783 -0.8312  0.5611
  607MOL0     H83701   2.700   2.109  11.378 -1.0064  0.3459  0.0753
  607MOL0     H83702   2.579   2.168  11.503 -0.3925 -0.0523  1.9611
  607MOL0     H83703   2.874   2.109  11.542 -0.3802 -2.6146  1.7131
  607MOL0     H83704   2.806   2.270  11.527  2.7642  0.1260  0.5069
  607MOL0     H83705   2.679   2.268  11.725  1.3172  1.9465  2.0191
  607MOL0     H83706   2.709   2.093  11.747 -2.8856  0.2509 -3.2143
  607MOL0     H83707   2.940   2.301  11.740 -0.2090 -1.3532 -0.6701
  607MOL0     H83708   2.950   2.134  11.781  2.4380  2.5080 -0.8333
  607MOL0     H83709   2.982   2.270  11.980  0.6893  1.2759 -1.9489
  607MOL0     H83710   2.847   2.346  11.957  0.3509  0.1066  1.8801
  607MOL0     H83711   2.868   2.041  12.010  2.6524  0.8855 -1.0086
  607MOL0     H83712   2.707   2.122  11.989  1.5075 -1.6550 -1.5392
  607MOL0     H83713   2.908   2.193  12.203 -1.3156  3.4157  0.7421
  607MOL0     H83714   2.758   2.273  12.176 -1.2942 -0.5415 -2.0427
  607MOL0     H83715   2.533   2.133  12.274 -1.3613 -3.1029  0.2816
  607MOL0     H83716   2.511   1.829  12.521 -0.5164 -0.9702 -1.6959
  607MOL0     H83717   2.397   1.917  12.420 -0.4050 -0.2098  1.4609
  607MOL0     H83718   2.525   2.117  12.578  1.4403 -0.0605 -2.9965
  607MOL0     H83719   2.361   2.070  12.574  0.4227  1.2989  3.3251
  607MOL0     H83720   2.439   2.032  12.804  0.8698  1.5477 -0.7997
  607MOL0     H83721   2.426   1.865  12.738  1.9510 -0.8089  1.9727
  607MOL0     H83722   2.689   1.896  12.688 -0.9418  0.2048 -1.0968
  607MOL0     H83723   2.673   2.037  12.785 -0.8239  0.8676  1.0700
  607MOL0     H83724   2.633   1.687  13.072 -0.9366  1.0895 -1.0426
  607MOL0     H83725   2.834   1.479  13.199  2.1774  1.0569 -0.8381
  607MOL0     H83726   2.704   1.581  13.257 -0.4025  3.6575 -1.7967
  607MOL0     H83727   2.866   1.624  13.320 -0.6845  3.0512 -0.7338
  607MOL0     H83728   3.147   1.595  13.474  0.7394 -1.2817  1.5513
  607MOL0     H83729   3.324   1.498  13.599  0.1867  3.1611 -0.5664
  607MOL0     H83730   3.644   1.294  13.357  2.8014  2.3782  1.5041
  607MOL0     H83731   3.696   1.271  13.526  2.3617 -1.3686 -1.7657
  607MOL0     H83732   3.513   1.102  13.364 -1.8486 -0.0618  1.3655
  607MOL0     H83733   3.664   1.062  13.429  0.0148  0.5182 -0.8585
  607MOL0     H83734   3.418   1.083  13.586  0.7171  2.2818  0.3300
  607MOL0     H83735   3.575   1.115  13.657  0.6441 -1.0065  0.1706
  607MOL0     H83736   3.637   0.871  13.597 -0.2455 -2.0104  4.0132
  607MOL0     H83737   3.467   0.864  13.551 -0.3224  0.1995 -0.9278
  607MOL0     H83738   3.442   0.948  13.807 -0.5146 -1.2387  0.2685
  607MOL0     H83739   3.508   0.781  13.780 -1.0990  0.2513  1.5098
  607MOL0     H83740   3.714   0.994  13.810  0.4772 -0.4423 -0.2851
  607MOL0     H83741   3.724   0.829  13.854  0.8275  0.6946  0.1206
  607MOL0     H83742   3.533   0.867  14.002  0.2306 -1.0772 -3.0022
  607MOL0     H83743   3.577   1.041  13.992  0.1122  1.2815  0.1998
  607MOL0     H83744   3.823   0.977  14.042 -0.3835  2.8370  0.8623
  607MOL0     H83745   3.753   0.834  14.122  0.6628  0.2461  0.1989
  607MOL0     H83746   3.467   1.288  13.250 -1.3696 -0.3858 -2.2144
  607MOL0     H83747   3.296   1.395  13.107  5.4598  0.8648  0.1078
  607MOL0     H83748   3.095   1.822  12.933 -0.7617 -1.6877 -0.2276
  607MOL0     H83749   2.887   1.904  12.810  2.3675  0.5303  0.4662
  607MOL0     H83750   2.385   1.967  11.652 -1.1440  0.3931 -0.2310
  607MOL0     H83751   2.139   2.031  11.644 -1.9362 -3.6173 -0.3977
  607MOL0     H83752   1.884   2.241  11.291 -0.3834  2.1913 -2.5257
  607MOL0     H83753   1.690   2.329  11.181 -2.1860 -0.1507 -2.4921
  607MOL0     H83754   1.458   2.159  10.924 -1.2570  2.3617 -0.0054
  607MOL0     H83755   1.381   2.036  11.018  2.3859 -0.3701 -0.1546
  607MOL0     H83756   1.188   2.176  11.035 -0.4302  2.5833 -0.1434
  607MOL0     H83757   1.252   2.170  10.864  0.1206  0.1703 -0.1938
  607MOL0     H83758   1.137   2.377  10.967 -0.7446 -0.0844  4.1964
  607MOL0     H83759   1.267   2.394  11.086  0.0821  1.8883 -0.1204
  607MOL0     H83760   1.272   2.400  10.782 -2.0203 -1.2271  0.7321
  607MOL0     H83761   1.414   2.432  10.894  0.2352  1.4626  0.5605
  607MOL0     H83762   1.211   2.801  10.910  2.9607  0.7056 -3.2256
  607MOL0     H83763   1.500   1.951  11.184  1.2529 -1.8960  2.6420
  607MOL0     H83764   1.737   1.734  11.273 -0.0186  0.7288 -0.1192
  607MOL0     H83765   1.639   1.802  11.421 -3.3223  0.5471 -0.3302
  607MOL0     H83766   1.569   1.756  11.268  0.3649 -2.2590  0.9926
  608MOL0     O83767   4.696   3.049   1.973  0.3431 -0.4700 -0.3973
  608MOL0     C83768   4.668   3.120   1.876 -0.7108  0.3605  0.0805
  608MOL0     O83769   4.636   3.256   1.890 -0.3801  0.6516 -0.4063
  608MOL0     C83770   4.670   3.317   2.004  0.8109 -0.8510 -0.9348
  608MOL0     C83771   4.794   3.297   2.061 -0.0801  0.6534  0.1436
  608MOL0     C83772   4.826   3.365   2.179  0.9383  0.7224 -0.5466
  608MOL0     C83773   4.739   3.459   2.239  0.1503 -0.2116  0.5043
  608MOL0     O83774   4.741   3.518   2.364 -0.2260  0.2094 -0.0955
  608MOL0     C83775   4.848   3.482   2.452  0.8178 -0.8519  0.6523
  608MOL0     C83776   4.817   3.568   2.579  0.9497  0.7875 -0.4226
  608MOL0     C83777   4.930   3.533   2.677  0.0199 -0.0321  0.3100
  608MOL0     C83778   4.917   3.393   2.744  0.5780  0.4530  0.1858
  608MOL0     C83779   4.994   3.386   2.874  0.1113 -0.1813 -0.1183
  608MOL0     C83780   4.922   3.299   2.975  0.5914  0.2516  0.1949
  608MOL0     C83781   5.009   3.246   3.084 -0.7867 -0.3765 -0.6668
  608MOL0     C83782   4.942   3.159   3.187 -0.1140  0.9616 -0.8338
  608MOL0     N83783   5.033   3.106   3.294  0.1443 -0.2086  0.7933
  608MOL0     C83784   5.056   2.979   3.325 -1.1588 -0.4385 -0.0773
  608MOL0     C83785   5.131   2.982   3.441 -0.1796  0.0630  0.4653
  608MOL0     C83786   5.183   2.854   3.507  0.0651  0.2147  0.6258
  608MOL0     C83787   5.195   2.871   3.658  0.1052  0.6624 -1.1517
  608MOL0     C83788   5.064   2.899   3.727  0.5813  1.2127 -0.0127
  608MOL0     C83789   5.076   2.892   3.881  0.4629 -0.4418  0.6905
  608MOL0     O83790   4.941   2.884   3.923 -0.4586 -0.1685  0.7059
  608MOL0     C83791   4.887   2.932   4.036  0.0699 -0.1470  1.1863
  608MOL0     C83792   4.966   2.960   4.150  0.2138  0.6656 -0.4875
  608MOL0     C83793   4.922   3.024   4.266  0.4856  0.1423 -0.0190
  608MOL0     C83794   5.022   3.030   4.375 -0.0211 -0.7207  0.7896
  608MOL0     C83795   4.786   3.073   4.257  0.0991  1.3839 -0.0680
  608MOL0     C83796   4.719   3.119   4.385 -1.0346  0.4408 -0.4842
  608MOL0     O83797   4.606   3.195   4.375 -0.9682 -0.0931  0.4595
  608MOL0     C83798   4.516   3.222   4.480 -0.2818 -0.1183  0.8254
  608MOL0     C83799   4.538   3.201   4.614 -0.0388  0.0331 -1.7186
  608MOL0     C83800   4.451   3.241   4.708  0.0241 -0.6621  0.6196
  608MOL0     C83801   4.324   3.296   4.663 -0.4468 -0.5336  0.2135
  608MOL0     O83802   4.237   3.350   4.753 -0.1611 -0.1210 -0.6278
  608MOL0     C83803   4.218   3.261   4.866 -0.1410  0.1704 -0.0916
  608MOL0     C83804   4.083   3.288   4.944 -0.4014  0.4085  0.9365
  608MOL0     C83805   3.972   3.256   4.857 -0.7960 -0.4812  0.7367
  608MOL0     C83806   3.841   3.279   4.931 -0.4272  0.1263  0.6059
  608MOL0     C83807   3.736   3.302   4.827 -0.0490 -0.5016 -0.5197
  608MOL0     C83808   3.592   3.297   4.883 -0.2896 -0.0303 -1.1311
  608MOL0     C83809   3.488   3.331   4.776  0.2910 -0.3287 -0.7355
  608MOL0     C83810   3.350   3.370   4.826  0.4072 -0.1044 -0.3962
  608MOL0    Cl83811   3.256   3.458   4.702 -0.0098 -0.2665 -0.0003
  608MOL0     C83812   4.305   3.320   4.531  0.0956 -0.1827  0.8974
  608MOL0     C83813   4.397   3.281   4.435  0.1214  0.4204 -0.1914
  608MOL0     O83814   4.773   3.087   4.496  0.7205 -0.6093 -0.4653
  608MOL0     C83815   4.713   3.054   4.141 -0.4260 -0.0788 -0.1185
  608MOL0     C83816   4.772   2.993   4.029  1.1511 -0.9501  0.5603
  608MOL0     N83817   5.157   3.118   3.476  0.5208  0.2170 -0.0680
  608MOL0     N83818   5.095   3.190   3.386 -0.1550  0.6751 -0.2809
  608MOL0     C83819   4.613   3.477   2.176 -0.3426  0.0845 -0.0875
  608MOL0     C83820   4.580   3.412   2.056  0.7916  1.2991  0.2200
  608MOL0     C83821   4.708   3.067   1.738  0.4512 -0.2681 -0.4303
  608MOL0     C83822   4.705   3.157   1.629  0.0261  1.0500 -0.4323
  608MOL0     C83823   4.711   3.108   1.501 -0.5623  0.6828  0.2091
  608MOL0     C83824   4.726   2.965   1.473 -0.0941 -0.9392  0.7067
  608MOL0     O83825   4.741   2.928   1.342  0.3773 -0.4447  0.3556
  608MOL0     C83826   4.768   2.792   1.312  0.7404 -0.3930  0.8013
  608MOL0     C83827   4.652   2.708   1.298  0.2701  0.1987  0.5977
  608MOL0     C83828   4.544   2.783   1.217  0.5148  0.1890 -1.2045
  608MOL0     C83829   4.428   2.686   1.185 -0.7146  0.5188 -0.2742
  608MOL0     C83830   4.400   2.658   1.036  0.2802 -0.0285 -0.6491
  608MOL0     C83831   4.376   2.615   0.924  1.0072  0.5207 -0.1959
  608MOL0     C83832   4.720   2.879   1.580 -0.4801 -0.1804  0.0954
  608MOL0     C83833   4.716   2.924   1.712  0.3901  0.3154 -0.1511
  608MOL0     C83834   4.688   2.822   1.817  0.2716 -1.0348  0.2490
  608MOL0     H83835   4.871   3.235   2.016  0.4463 -0.1679  2.0643
  608MOL0     H83836   4.924   3.337   2.218  0.6881 -2.7045 -2.0294
  608MOL0     H83837   4.944   3.513   2.410  0.0814  2.6017  1.1720
  608MOL0     H83838   4.840   3.374   2.466  1.3159 -1.2826 -2.0061
  608MOL0     H83839   4.800   3.669   2.539 -3.9429 -0.0963 -1.2236
  608MOL0     H83840   4.718   3.537   2.613  1.1260 -0.5936 -1.1201
  608MOL0     H83841   5.025   3.550   2.625 -0.1817 -0.0956 -0.0888
  608MOL0     H83842   4.930   3.609   2.755  3.5799  2.0686 -1.4735
  608MOL0     H83843   4.810   3.372   2.755  0.1282  2.1430 -0.6219
  608MOL0     H83844   4.957   3.315   2.679  1.4141 -0.1771  1.4133
  608MOL0     H83845   5.015   3.488   2.909  1.9345 -0.8871  1.0161
  608MOL0     H83846   5.092   3.342   2.854  0.6440  1.1197 -0.5105
  608MOL0     H83847   4.843   3.359   3.023  2.3512  1.6925  1.4208
  608MOL0     H83848   4.864   3.223   2.922 -1.9022  1.7709  0.5637
  608MOL0     H83849   5.060   3.327   3.136 -1.1155 -0.8753  0.4730
  608MOL0     H83850   5.083   3.189   3.027 -0.5286  0.8063 -1.5455
  608MOL0     H83851   4.861   3.212   3.238 -0.7653 -0.7677  0.0005
  608MOL0     H83852   4.894   3.076   3.133 -0.0523  2.3099 -3.1151
  608MOL0     H83853   5.022   2.891   3.271  2.1457 -1.6516 -0.3602
  608MOL0     H83854   5.278   2.825   3.461 -0.1861  2.0528 -1.2095
  608MOL0     H83855   5.109   2.777   3.482  0.3203 -0.6089  2.3288
  608MOL0     H83856   5.228   2.779   3.706 -2.8126  0.0820 -0.0462
  608MOL0     H83857   5.275   2.945   3.671 -0.3390  1.1386 -1.0698
  608MOL0     H83858   5.021   2.998   3.708 -3.1252  0.3077  2.6665
  608MOL0     H83859   4.996   2.820   3.695  3.2063 -1.3335  0.2745
  608MOL0     H83860   5.124   2.796   3.902  2.4829  0.4987  0.6898
  608MOL0     H83861   5.138   2.979   3.906  1.6434 -0.9891 -0.1920
  608MOL0     H83862   5.060   2.906   4.148 -0.2846 -0.2029 -0.9748
  608MOL0     H83863   5.021   2.933   4.423 -0.2274  0.0006  2.2950
  608MOL0     H83864   5.004   3.107   4.450  1.5812 -1.3392  1.8487
  608MOL0     H83865   5.117   3.054   4.327 -1.5403 -1.2962 -2.8304
  608MOL0     H83866   4.628   3.174   4.668 -0.1390  2.7775  0.0082
  608MOL0     H83867   4.477   3.228   4.813 -0.7805 -1.3257  0.7427
  608MOL0     H83868   4.233   3.157   4.833 -0.0116 -0.3914  1.6701
  608MOL0     H83869   4.300   3.276   4.936  0.7214  1.9699 -1.4005
  608MOL0     H83870   4.066   3.225   5.031 -0.5861  1.4363  1.6540
  608MOL0     H83871   4.070   3.388   4.985 -0.2992  0.6768  0.3334
  608MOL0     H83872   3.965   3.150   4.829 -1.7728 -0.0566 -0.7945
  608MOL0     H83873   3.979   3.324   4.771 -0.2177  1.0406  1.9377
  608MOL0     H83874   3.838   3.364   5.000  0.0190  0.4840  0.1945
  608MOL0     H83875   3.813   3.189   4.986 -2.8859 -0.6141 -1.6302
  608MOL0     H83876   3.749   3.401   4.782 -1.6792 -0.0314 -0.0421
  608MOL0     H83877   3.750   3.225   4.751  2.0665  0.4429 -1.1534
  608MOL0     H83878   3.580   3.352   4.977 -0.2830  1.2066 -1.8441
  608MOL0     H83879   3.576   3.195   4.920  1.2256 -1.8349 -4.9334
  608MOL0     H83880   3.482   3.239   4.717  1.8399 -1.5177  0.8327
  608MOL0     H83881   3.524   3.415   4.717 -0.1832  0.1188 -0.3894
  608MOL0     H83882   3.358   3.439   4.910 -2.0587  1.3272 -1.2354
  608MOL0     H83883   3.289   3.290   4.868  0.7465  0.6209  1.5612
  608MOL0     H83884   4.214   3.374   4.509 -2.4480 -3.9419  1.3239
  608MOL0     H83885   4.393   3.294   4.327 -0.5133 -0.5582 -0.3045
  608MOL0     H83886   4.617   3.103   4.130 -1.2159 -1.3562  0.7560
  608MOL0     H83887   4.701   2.991   3.946 -0.8966  3.6112  1.8607
  608MOL0     H83888   4.541   3.546   2.220  1.5058  0.6324  2.2842
  608MOL0     H83889   4.488   3.427   1.999  0.3720 -0.8753  0.2587
  608MOL0     H83890   4.685   3.261   1.650 -2.8342  0.6512 -0.7803
  608MOL0     H83891   4.716   3.177   1.418 -0.5953  0.7649  0.2760
  608MOL0     H83892   4.825   2.792   1.219 -0.8941 -2.5939 -0.2686
  608MOL0     H83893   4.839   2.762   1.390  2.4283  3.3241  0.9349
  608MOL0     H83894   4.608   2.694   1.397  0.4292  1.5635  0.8773
  608MOL0     H83895   4.684   2.609   1.263 -1.2618  0.3523 -1.4583
  608MOL0     H83896   4.506   2.854   1.292 -0.1891  0.4357 -1.7767
  608MOL0     H83897   4.567   2.849   1.133 -0.8734  0.4554 -1.4094
  608MOL0     H83898   4.340   2.732   1.231 -0.9269 -0.9101  0.8532
  608MOL0     H83899   4.442   2.589   1.234 -3.0122  0.9606  1.4969
  608MOL0     H83900   4.360   2.579   0.824  0.8844  3.0704 -1.1694
  608MOL0     H83901   4.720   2.770   1.573 -2.1519 -0.2072  0.2702
  608MOL0     H83902   4.768   2.825   1.892  1.9919  2.0740 -1.5050
  608MOL0     H83903   4.595   2.833   1.872 -0.7963 -2.7553 -1.1108
  608MOL0     H83904   4.678   2.727   1.764  0.5398 -2.2208  2.2149
  609MOL0     O83905   7.803  11.129   0.429 -0.7475  0.8914  0.2053
  609MOL0     C83906   7.706  11.191   0.481 -0.2027 -0.8560 -0.7246
  609MOL0     O83907   7.659  11.316   0.435  0.2673  0.2576  0.6720
  609MOL0     C83908   7.676  11.330   0.299  0.4349 -0.3613 -0.2555
  609MOL0     C83909   7.776  11.421   0.259  0.1198 -1.4367  0.0751
  609MOL0     C83910   7.818  11.420   0.127 -0.1289 -0.4016  0.8517
  609MOL0     C83911   7.745  11.354   0.028  0.1943  0.1396  0.6144
  609MOL0     O83912   7.786  11.383  -0.099 -0.6355 -0.7056 -0.4134
  609MOL0     C83913   7.688  11.443  -0.185  0.3314 -0.1107 -0.8338
  609MOL0     C83914   7.737  11.433  -0.328  0.1480  0.0662 -1.7409
  609MOL0     C83915   7.632  11.500  -0.416 -0.4934 -0.7568 -0.1281
  609MOL0     C83916   7.686  11.473  -0.558  0.1489 -0.0597 -0.3316
  609MOL0     C83917   7.583  11.535  -0.658 -0.5904 -0.6581  0.2846
  609MOL0     C83918   7.658  11.541  -0.792 -0.3494 -0.3904 -0.1366
  609MOL0     C83919   7.566  11.611  -0.897 -0.5218  0.1463  0.2029
  609MOL0     C83920   7.448  11.520  -0.945  0.3325  0.4506  0.0241
  609MOL0     N83921   7.494  11.408  -1.026  0.3516 -0.6528 -0.3452
  609MOL0     C83922   7.497  11.273  -1.007 -0.2968  0.0858  0.1136
  609MOL0     C83923   7.552  11.222  -1.116  0.3409 -0.4377  0.3584
  609MOL0     C83924   7.573  11.073  -1.144  0.8696  0.0621  0.6127
  609MOL0     C83925   7.671  10.999  -1.047  0.1577 -0.5869 -0.1290
  609MOL0     C83926   7.804  11.072  -1.025  0.5688 -0.7344  0.2724
  609MOL0     C83927   7.901  11.002  -0.925 -0.2356  0.4853 -0.1205
  609MOL0     O83928   7.846  11.021  -0.798  0.1998  0.4639 -0.5988
  609MOL0     C83929   7.918  11.018  -0.678 -0.6288 -0.0626 -0.3525
  609MOL0     C83930   7.847  11.031  -0.561  0.1091  0.2118  0.3764
  609MOL0     C83931   7.901  11.014  -0.434 -0.1277 -0.3008  0.2861
  609MOL0     C83932   7.804  11.002  -0.317 -0.0114  0.0060 -0.1134
  609MOL0     C83933   8.044  10.991  -0.425  0.1524  0.7162  0.4716
  609MOL0     C83934   8.122  10.976  -0.300  1.6327  0.1922 -0.7692
  609MOL0     O83935   8.240  10.908  -0.316  0.1224 -0.5095 -0.2487
  609MOL0     C83936   8.315  10.862  -0.207 -0.8386  0.3136 -0.6147
  609MOL0     C83937   8.256  10.784  -0.104  0.0705 -0.9456  0.2027
  609MOL0     C83938   8.325  10.731   0.007  0.1090  0.7920 -0.5335
  609MOL0     C83939   8.464  10.761   0.023  0.7361  1.1859  0.0575
  609MOL0     O83940   8.539  10.726   0.137 -0.8423 -0.7946 -0.0815
  609MOL0     C83941   8.637  10.832   0.176  0.3172 -0.0322  0.8046
  609MOL0     C83942   8.574  10.976   0.216  0.9633  0.3415  0.5962
  609MOL0     C83943   8.672  11.081   0.271 -0.0402  0.5906 -0.0118
  609MOL0     C83944   8.778  11.142   0.165  0.5535 -0.2348  0.2807
  609MOL0     C83945   8.710  11.232   0.054  0.5215  0.3142  0.9744
  609MOL0     C83946   8.617  11.339   0.101 -0.2045  0.5965 -0.1375
  609MOL0     C83947   8.559  11.401  -0.023 -0.9483 -0.5698  0.0964
  609MOL0     C83948   8.442  11.498   0.016  0.5886 -0.4248  0.3707
  609MOL0    Cl83949   8.423  11.615  -0.121  0.0370 -0.0465 -0.0665
  609MOL0     C83950   8.522  10.835  -0.080  0.4491 -0.1261 -1.2080
  609MOL0     C83951   8.462  10.881  -0.197  0.9694 -0.2241  0.3774
  609MOL0     O83952   8.071  10.994  -0.190 -0.5778 -0.1780  0.4277
  609MOL0     C83953   8.113  10.976  -0.547 -0.9524  1.6312 -0.3901
  609MOL0     C83954   8.062  11.000  -0.677  0.1859  0.2085 -0.7887
  609MOL0     N83955   7.573  11.327  -1.204 -0.4027  0.0529  0.1347
  609MOL0     N83956   7.533  11.436  -1.156  0.4029 -0.1953 -0.0449
  609MOL0     C83957   7.631  11.283   0.070  0.5559 -0.1128 -0.1308
  609MOL0     C83958   7.605  11.256   0.208 -0.2939  0.2438  0.6628
  609MOL0     C83959   7.636  11.141   0.603 -0.6544 -0.0207 -0.7470
  609MOL0     C83960   7.571  11.230   0.695  0.1265  0.1792  0.1041
  609MOL0     C83961   7.520  11.192   0.818 -0.2244 -0.1843 -0.0819
  609MOL0     C83962   7.520  11.058   0.863  0.3198 -0.7912 -0.4680
  609MOL0     O83963   7.459  11.021   0.982 -0.0541 -0.1899 -0.2080
  609MOL0     C83964   7.528  10.943   1.080 -0.4848 -0.3759  0.4867
  609MOL0     C83965   7.686  10.930   1.072 -0.0244 -0.5896  0.1776
  609MOL0     C83966   7.729  10.804   1.161  0.0490 -1.0307  0.2897
  609MOL0     C83967   7.791  10.849   1.281  0.4895 -0.7939  0.4802
  609MOL0     C83968   7.864  10.750   1.362 -0.4072 -0.7391 -0.2918
  609MOL0     C83969   7.937  10.676   1.424 -0.2238 -0.2058  1.0072
  609MOL0     C83970   7.580  10.970   0.773  0.4387  0.5263 -0.3256
  609MOL0     C83971   7.639  11.010   0.646  0.1386  0.2765 -0.0037
  609MOL0     C83972   7.710  10.895   0.568  1.0387 -0.2800 -0.3671
  609MOL0     H83973   7.827  11.474   0.338 -1.6782 -0.7631  0.8250
  609MOL0     H83974   7.909  11.475   0.106 -1.3632  1.3113 -0.1731
  609MOL0     H83975   7.677  11.542  -0.139 -2.5915 -0.7967  0.1771
  609MOL0     H83976   7.600  11.380  -0.173  0.9302 -1.3709 -2.6359
  609MOL0     H83977   7.840  11.468  -0.336  1.2467 -2.1272  0.9578
  609MOL0     H83978   7.738  11.325  -0.347  1.5472 -1.1265  3.4780
  609MOL0     H83979   7.529  11.463  -0.406 -0.2702 -1.2353  0.4504
  609MOL0     H83980   7.627  11.609  -0.408 -1.9441 -0.7939 -0.1997
  609MOL0     H83981   7.782  11.519  -0.584  0.0114  0.3810 -0.0707
  609MOL0     H83982   7.686  11.367  -0.583 -1.4124  0.3011 -2.0911
  609MOL0     H83983   7.573  11.640  -0.629 -0.4282 -0.0027 -1.8666
  609MOL0     H83984   7.487  11.484  -0.644 -1.5820  1.5649  2.2334
  609MOL0     H83985   7.747  11.603  -0.776 -0.4592  0.4581 -2.4714
  609MOL0     H83986   7.693  11.444  -0.827  0.1086 -0.0735 -0.5587
  609MOL0     H83987   7.615  11.631  -0.993  0.7672  1.4354  1.0912
  609MOL0     H83988   7.533  11.708  -0.858 -1.3178  0.0540 -0.2241
  609MOL0     H83989   7.398  11.478  -0.857  0.0200 -1.7748 -1.1407
  609MOL0     H83990   7.370  11.580  -0.994  1.0385 -0.6539 -2.6214
  609MOL0     H83991   7.465  11.221  -0.918  0.0689  1.1183  0.8717
  609MOL0     H83992   7.622  11.075  -1.242 -1.9495 -0.5178 -0.9013
  609MOL0     H83993   7.477  11.025  -1.165  0.2734  1.1748  0.7036
  609MOL0     H83994   7.624  10.990  -0.949  4.4698 -1.5350  2.1124
  609MOL0     H83995   7.701  10.905  -1.095  2.6837  0.6982 -1.2646
  609MOL0     H83996   7.860  11.089  -1.117  0.5117  3.1748  0.8080
  609MOL0     H83997   7.781  11.174  -0.991 -1.4155 -1.4722  1.3475
  609MOL0     H83998   7.922  10.903  -0.966  2.7928 -0.0156  2.2752
  609MOL0     H83999   7.995  11.055  -0.941  0.3045 -0.0219  1.3086
  609MOL0     H84000   7.743  11.062  -0.571  0.5779  1.6915 -0.2355
  609MOL0     H84001   7.832  10.928  -0.241 -1.1591 -1.8052 -1.3608
  609MOL0     H84002   7.701  10.976  -0.343 -0.0513  0.8501 -0.8268
  609MOL0     H84003   7.794  11.098  -0.265  0.9314  0.6249 -1.0391
  609MOL0     H84004   8.149  10.767  -0.113 -0.3615  1.6111 -0.3354
  609MOL0     H84005   8.265  10.696   0.090 -2.1911  1.3119 -1.8639
  609MOL0     H84006   8.683  10.793   0.268  0.4033 -1.2860  0.2581
  609MOL0     H84007   8.717  10.822   0.102 -0.4522 -3.3464  0.2468
  609MOL0     H84008   8.526  11.013   0.125 -0.7535 -0.3777  1.1676
  609MOL0     H84009   8.487  10.959   0.281  0.0197 -2.5080 -1.1915
  609MOL0     H84010   8.734  11.032   0.346 -1.4950  0.9114  1.4554
  609MOL0     H84011   8.628  11.169   0.318 -0.5905  1.0328 -1.3104
  609MOL0     H84012   8.828  11.055   0.121  2.5149  1.6041 -1.3904
  609MOL0     H84013   8.848  11.204   0.223 -2.6749  1.5972  2.5773
  609MOL0     H84014   8.779  11.266  -0.024  1.8637 -2.5701  0.7634
  609MOL0     H84015   8.652  11.158  -0.002  0.3610  1.5669 -0.5819
  609MOL0     H84016   8.668  11.415   0.162 -1.3396  1.1934  0.0878
  609MOL0     H84017   8.540  11.286   0.158 -0.7927 -0.7571 -2.0886
  609MOL0     H84018   8.516  11.326  -0.090 -1.4837  0.6556 -0.9779
  609MOL0     H84019   8.635  11.458  -0.078 -0.5308 -0.2005  1.0417
  609MOL0     H84020   8.469  11.552   0.107  1.8263  0.1938 -0.3433
  609MOL0     H84021   8.346  11.448   0.033  1.2274 -3.2011 -2.9708
  609MOL0     H84022   8.629  10.853  -0.083  0.5696 -0.9392 -2.4369
  609MOL0     H84023   8.512  10.933  -0.277 -2.5425  0.8599 -1.3244
  609MOL0     H84024   8.220  10.958  -0.538 -1.1112  1.6828  3.3054
  609MOL0     H84025   8.122  10.986  -0.766 -1.5399  1.4126 -2.2052
  609MOL0     H84026   7.573  11.240  -0.011 -1.4319 -0.5039  1.4061
  609MOL0     H84027   7.544  11.179   0.254  0.5506 -2.1251 -1.8925
  609MOL0     H84028   7.568  11.335   0.668 -3.1470  0.0089 -0.5531
  609MOL0     H84029   7.457  11.252   0.883 -1.7332 -2.3347  0.5489
  609MOL0     H84030   7.491  10.987   1.173 -0.1146  1.4214 -0.1617
  609MOL0     H84031   7.499  10.839   1.061 -0.4946 -0.3707  0.4738
  609MOL0     H84032   7.731  11.023   1.107  0.9562 -0.6441 -0.8939
  609MOL0     H84033   7.718  10.899   0.972 -0.6871  0.0833 -0.2646
  609MOL0     H84034   7.644  10.737   1.176 -0.0073 -0.9302  0.4198
  609MOL0     H84035   7.811  10.758   1.105  2.4101  1.9052  1.0548
  609MOL0     H84036   7.720  10.900   1.347 -1.6166 -2.5005 -0.3668
  609MOL0     H84037   7.863  10.927   1.252 -0.8608  0.4397  0.3438
  609MOL0     H84038   8.000  10.618   1.488 -0.5093  1.0099  2.4574
  609MOL0     H84039   7.580  10.865   0.801  1.8507  1.2134  2.5897
  609MOL0     H84040   7.660  10.800   0.584 -2.9314  1.0224 -3.4807
  609MOL0     H84041   7.695  10.910   0.461  0.9984  3.8628  0.0604
  609MOL0     H84042   7.816  10.902   0.596  0.5538 -1.7762  2.1614
  610MOL0     O84043   0.074   2.506  10.020 -0.5578 -0.1379  0.4287
  610MOL0     C84044   0.019   2.456  10.118  0.0221 -0.1549  0.9096
  610MOL0     O84045   0.067   2.352  10.191 -0.2256  0.2678 -0.0150
  610MOL0     C84046   0.140   2.253  10.120 -0.7319 -0.5280  0.2662
  610MOL0     C84047   0.218   2.182  10.204 -0.8353  0.2401  0.1917
  610MOL0     C84048   0.299   2.071  10.156  0.3992  0.6579 -0.1440
  610MOL0     C84049   0.295   2.044  10.006 -0.4333  0.3968 -0.3887
  610MOL0     O84050   0.365   1.944   9.957 -0.4471 -0.2192 -0.4842
  610MOL0     C84051   0.445   1.849  10.030  0.5521 -1.6797 -0.3845
  610MOL0     C84052   0.522   1.769   9.928 -0.7644  0.2551 -0.2988
  610MOL0     C84053   0.497   1.619   9.948  0.1659 -0.5541  0.5695
  610MOL0     C84054   0.605   1.531   9.891  0.2251  0.9442  0.3654
  610MOL0     C84055   0.590   1.514   9.742  0.1248  0.4168 -0.4504
  610MOL0     C84056   0.701   1.420   9.709 -0.2095  0.1827 -0.4856
  610MOL0     C84057   0.683   1.369   9.566 -0.0331 -0.5212 -0.3462
  610MOL0     C84058   0.591   1.242   9.568 -0.4823  0.1206 -1.0214
  610MOL0     N84059   0.570   1.210   9.422  0.0392  0.1771 -0.6794
  610MOL0     C84060   0.503   1.296   9.334 -0.4808 -0.0045  0.5246
  610MOL0     C84061   0.515   1.230   9.212 -0.9029 -0.5726  0.4850
  610MOL0     C84062   0.489   1.271   9.071  0.5074  0.1505 -0.1654
  610MOL0     C84063   0.522   1.416   9.047 -1.3760  0.1554  0.8332
  610MOL0     C84064   0.667   1.460   9.073 -1.2723 -0.7423  0.3344
  610MOL0     C84065   0.720   1.552   8.958  0.3099 -0.0440 -0.9338
  610MOL0     O84066   0.631   1.661   8.918 -0.1354 -0.3353  0.4665
  610MOL0     C84067   0.657   1.778   8.977  0.2606 -0.4856 -0.3278
  610MOL0     C84068   0.737   1.866   8.906 -0.5718 -0.7851  0.2359
  610MOL0     C84069   0.760   1.998   8.956  0.7217 -0.1468 -0.0943
  610MOL0     C84070   0.841   2.089   8.866  0.3949  0.2339  1.3639
  610MOL0     C84071   0.723   2.027   9.097 -0.1245  0.2139  0.0926
  610MOL0     C84072   0.762   2.147   9.175  0.7650  0.7269 -0.8478
  610MOL0     O84073   0.712   2.159   9.307 -0.3856  0.0591  0.1226
  610MOL0     C84074   0.757   2.251   9.402 -0.6916  0.5935  0.8251
  610MOL0     C84075   0.826   2.368   9.363  0.2456 -0.1175  0.3137
  610MOL0     C84076   0.887   2.448   9.462  1.0376 -0.3813  0.4583
  610MOL0     C84077   0.889   2.402   9.592 -0.3866 -0.5458  0.1726
  610MOL0     O84078   0.948   2.478   9.689 -0.0790 -0.1796 -0.8424
  610MOL0     C84079   0.874   2.477   9.808 -0.3185 -0.0735 -0.2148
  610MOL0     C84080   0.969   2.419   9.918 -1.7922 -0.6087  0.5226
  610MOL0     C84081   0.893   2.392  10.045  0.1641  0.0868 -0.1699
  610MOL0     C84082   0.935   2.484  10.159 -0.1098 -1.0737  0.6487
  610MOL0     C84083   0.837   2.498  10.272  0.8626  0.2989  0.8755
  610MOL0     C84084   0.899   2.536  10.400 -0.1847  0.5464 -0.1665
  610MOL0     C84085   1.008   2.437  10.436 -0.0085  0.7921  0.1549
  610MOL0     C84086   1.049   2.450  10.582 -0.4731  0.4468 -0.0710
  610MOL0    Cl84087   0.916   2.388  10.688 -0.2721 -0.0740 -0.1060
  610MOL0     C84088   0.817   2.285   9.620  0.1939  1.0109 -0.4277
  610MOL0     C84089   0.745   2.216   9.529  0.8997 -0.9226 -0.3527
  610MOL0     O84090   0.864   2.200   9.130  0.2214 -0.4640 -0.2470
  610MOL0     C84091   0.647   1.925   9.161 -0.5764 -0.2445 -0.2924
  610MOL0     C84092   0.610   1.807   9.100  0.3476 -0.3640  0.5249
  610MOL0     N84093   0.593   1.122   9.238  0.0725 -0.3780  0.0928
  610MOL0     N84094   0.624   1.101   9.360  0.2021 -0.8155 -1.1997
  610MOL0     C84095   0.230   2.130   9.924 -0.0797  0.0290 -0.0311
  610MOL0     C84096   0.150   2.235   9.979 -0.3263 -0.1799 -0.2818
  610MOL0     C84097  -0.097   2.535  10.168  1.5585 -0.2298  0.0784
  610MOL0     C84098  -0.078   2.612  10.290  0.4961  0.0966  0.9506
  610MOL0     C84099  -0.190   2.692  10.325  0.2923  1.1083  0.0117
  610MOL0     C84100  -0.311   2.697  10.249  0.4218 -0.6710  0.0143
  610MOL0     O84101  -0.398   2.792  10.287 -0.8564 -0.0396 -0.2471
  610MOL0     C84102  -0.507   2.831  10.206  0.5846  0.7251  0.4081
  610MOL0     C84103  -0.465   2.933  10.105  0.4192 -0.4550  0.8908
  610MOL0     C84104  -0.574   2.974  10.000 -0.0685  0.8178 -0.4497
  610MOL0     C84105  -0.542   3.087   9.911 -1.1362  0.2413 -0.1985
  610MOL0     C84106  -0.620   3.091   9.789  0.4592 -0.4496  0.8695
  610MOL0     C84107  -0.687   3.090   9.688 -0.9900 -0.0370  0.1685
  610MOL0     C84108  -0.317   2.636  10.125 -0.4398  0.5989 -0.5999
  610MOL0     C84109  -0.215   2.533  10.092  0.0151 -0.6218 -0.4435
  610MOL0     C84110  -0.239   2.453   9.968 -0.4614  0.7111  0.4748
  610MOL0     H84111   0.215   2.208  10.309 -0.0858 -1.3498  0.6425
  610MOL0     H84112   0.366   2.027  10.229 -3.0694 -3.2347  1.1263
  610MOL0     H84113   0.385   1.785  10.095  1.4747 -1.0287  1.1796
  610MOL0     H84114   0.515   1.905  10.094 -0.5073 -2.7147  1.7914
  610MOL0     H84115   0.492   1.789   9.824  1.1701 -2.0074 -1.3916
  610MOL0     H84116   0.628   1.796   9.934 -0.0801 -1.7021 -2.2339
  610MOL0     H84117   0.496   1.597  10.055 -2.2365 -0.7126  0.5763
  610MOL0     H84118   0.406   1.580   9.902  0.7520 -2.1303  0.6916
  610MOL0     H84119   0.705   1.565   9.920  0.7460  0.9592 -1.3405
  610MOL0     H84120   0.583   1.435   9.938 -1.1953  0.4461 -1.2066
  610MOL0     H84121   0.598   1.610   9.692 -1.6655  0.1681 -1.2887
  610MOL0     H84122   0.495   1.477   9.701  1.4403 -2.3084 -1.2997
  610MOL0     H84123   0.804   1.455   9.717 -0.4274  0.4827  1.3541
  610MOL0     H84124   0.701   1.334   9.777  1.6185 -0.8049 -1.6346
  610MOL0     H84125   0.779   1.329   9.531 -0.2991  0.8884 -2.9204
  610MOL0     H84126   0.650   1.451   9.502 -0.3491  0.4819  1.0516
  610MOL0     H84127   0.643   1.164   9.625 -1.2339 -1.3596 -2.2655
  610MOL0     H84128   0.492   1.263   9.609 -0.2159 -0.9674  0.2516
  610MOL0     H84129   0.459   1.393   9.354 -0.5182  0.7899 -2.8371
  610MOL0     H84130   0.381   1.254   9.058  0.7042 -1.3266 -0.0502
  610MOL0     H84131   0.532   1.202   8.998 -4.7341  0.2664 -4.0031
  610MOL0     H84132   0.497   1.434   8.942 -1.6649  1.8619  1.1732
  610MOL0     H84133   0.453   1.476   9.106 -4.4667 -1.3374 -1.0199
  610MOL0     H84134   0.687   1.509   9.169  0.7818  1.5967 -1.1529
  610MOL0     H84135   0.743   1.384   9.090 -2.6089 -2.1191  0.3367
  610MOL0     H84136   0.811   1.601   8.992 -0.0876  1.6100 -2.1054
  610MOL0     H84137   0.740   1.493   8.868 -1.6166 -0.9493 -0.8368
  610MOL0     H84138   0.765   1.837   8.805 -2.5464  0.3839 -0.7047
  610MOL0     H84139   0.836   2.197   8.881 -0.1284  0.7403 -1.7759
  610MOL0     H84140   0.811   2.078   8.761 -0.2736 -1.0940  1.6742
  610MOL0     H84141   0.945   2.058   8.877 -0.2123 -3.0516 -0.7937
  610MOL0     H84142   0.839   2.393   9.259  0.1108  2.4377  0.8272
  610MOL0     H84143   0.941   2.540   9.441 -0.2571  0.4062  0.4654
  610MOL0     H84144   0.851   2.582   9.830 -1.6721  0.0032 -1.8144
  610MOL0     H84145   0.779   2.423   9.808 -0.4130  0.0932 -0.3274
  610MOL0     H84146   1.007   2.322   9.884  0.5126  1.1606 -2.3485
  610MOL0     H84147   1.046   2.495   9.935 -1.1935 -0.7634 -1.3430
  610MOL0     H84148   0.923   2.288  10.062 -0.7691 -0.4799 -1.8020
  610MOL0     H84149   0.786   2.381  10.031 -0.6620 -1.5420  5.2137
  610MOL0     H84150   0.941   2.589  10.128 -2.9914 -1.4741 -1.7276
  610MOL0     H84151   1.038   2.449  10.169  0.5861  0.3562 -0.9512
  610MOL0     H84152   0.762   2.577  10.260 -0.8340 -1.2265  1.0737
  610MOL0     H84153   0.792   2.399  10.275  1.7861 -0.3751 -2.7200
  610MOL0     H84154   0.826   2.537  10.482 -1.3795  0.6470 -1.1900
  610MOL0     H84155   0.947   2.634  10.387  1.1091 -0.2031 -1.3048
  610MOL0     H84156   1.100   2.466  10.385  0.4844 -1.7035 -0.5037
  610MOL0     H84157   0.983   2.333  10.415 -1.4270  1.6891 -3.1147
  610MOL0     H84158   1.075   2.553  10.607 -2.2275  0.2126  3.4644
  610MOL0     H84159   1.131   2.383  10.609 -0.7232 -0.0774 -0.5922
  610MOL0     H84160   0.811   2.254   9.723  1.7204  0.5061 -0.4701
  610MOL0     H84161   0.686   2.129   9.555 -1.7611  0.0458 -2.6486
  610MOL0     H84162   0.628   1.925   9.268 -1.5183 -1.6468 -0.4264
  610MOL0     H84163   0.552   1.749   9.170 -4.1356  1.3038 -1.4211
  610MOL0     H84164   0.227   2.112   9.817 -4.7494 -0.6543  0.0318
  610MOL0     H84165   0.089   2.295   9.913 -0.2372  1.5827  1.1653
  610MOL0     H84166   0.009   2.623  10.353  0.9238  0.2729  0.3383
  610MOL0     H84167  -0.164   2.746  10.416  2.1091 -0.7056  0.6690
  610MOL0     H84168  -0.566   2.750  10.161  2.0588  0.6400 -1.4698
  610MOL0     H84169  -0.574   2.880  10.277  0.6256 -0.0642  1.0037
  610MOL0     H84170  -0.375   2.891  10.058 -0.3561  1.5231 -2.7393
  610MOL0     H84171  -0.430   3.026  10.150 -3.3336  2.0948 -0.9364
  610MOL0     H84172  -0.587   2.876   9.955 -0.9309 -0.8802  3.0914
  610MOL0     H84173  -0.671   2.987  10.051  0.1966 -2.2010  1.0293
  610MOL0     H84174  -0.441   3.082   9.869 -0.9171  0.7192  0.2559
  610MOL0     H84175  -0.553   3.177   9.973 -0.2792 -0.2278  0.6595
  610MOL0     H84176  -0.730   3.050   9.598 -1.9650  0.0251  0.5843
  610MOL0     H84177  -0.404   2.648  10.061  0.5436  0.6086 -1.9925
  610MOL0     H84178  -0.228   2.520   9.883  1.2708 -0.9510 -0.6854
  610MOL0     H84179  -0.182   2.360   9.967  0.2918  1.1281  1.7832
  610MOL0     H84180  -0.346   2.435   9.978 -0.3441  1.1020  2.9897
  611MOL0     O84181  11.223  10.983   3.121 -0.1760 -0.3651 -0.0690
  611MOL0     C84182  11.155  10.923   3.040  0.2753 -0.3285 -0.0957
  611MOL0     O84183  11.198  10.829   2.960 -0.2280  0.1643  0.4034
  611MOL0     C84184  11.338  10.811   2.967  1.0388  0.3166  0.5094
  611MOL0     C84185  11.400  10.735   3.069  0.1829 -0.3519 -0.2493
  611MOL0     C84186  11.540  10.720   3.061 -0.3386 -0.3360 -0.3402
  611MOL0     C84187  11.616  10.778   2.965 -0.8132 -0.0439 -0.3733
  611MOL0     O84188  11.745  10.758   2.972 -0.4029  0.0128 -0.1497
  611MOL0     C84189  11.833  10.852   2.910  0.4020  0.1538 -1.0658
  611MOL0     C84190  11.980  10.821   2.967  0.4573 -0.3460  0.4525
  611MOL0     C84191  11.973  10.814   3.117 -0.6559  0.5116 -0.1224
  611MOL0     C84192  12.117  10.778   3.174 -0.4013  0.1310  0.0699
  611MOL0     C84193  12.114  10.815   3.317 -0.2783  0.0805  0.2554
  611MOL0     C84194  12.230  10.746   3.382 -0.4242 -0.0071 -0.5335
  611MOL0     C84195  12.193  10.713   3.530 -0.2597 -0.3353  0.3940
  611MOL0     C84196  12.310  10.655   3.621  0.4749  0.5914  0.1593
  611MOL0     N84197  12.271  10.632   3.763  0.2768 -0.0453  0.3124
  611MOL0     C84198  12.354  10.603   3.872  0.0180 -0.4431  0.3576
  611MOL0     C84199  12.262  10.588   3.973 -0.0075  0.6793 -0.6551
  611MOL0     C84200  12.317  10.553   4.110  0.1946  0.9197 -0.3114
  611MOL0     C84201  12.318  10.676   4.201 -0.3286 -1.0341 -0.6718
  611MOL0     C84202  12.364  10.635   4.343  0.0519  0.9666  0.0236
  611MOL0     C84203  12.368  10.721   4.456 -0.1545  0.2577  0.1497
  611MOL0     O84204  12.489  10.795   4.441 -1.2478  0.0578  0.3773
  611MOL0     C84205  12.484  10.905   4.513  0.3825  0.0181 -0.6819
  611MOL0     C84206  12.483  11.041   4.453 -0.9347  0.0483 -0.4726
  611MOL0     C84207  12.467  11.147   4.538  0.3743 -1.3325 -0.1750
  611MOL0     C84208  12.439  11.278   4.474  0.7482 -1.1550 -0.1685
  611MOL0     C84209  12.488  11.136   4.676 -0.1648  0.8249 -0.5744
  611MOL0     C84210  12.491  11.248   4.781 -0.4431 -0.3607 -0.4911
  611MOL0     O84211  12.591  11.226   4.869 -0.0953 -0.1499  0.6467
  611MOL0     C84212  12.593  11.297   4.991 -0.1645 -0.0322 -0.5946
  611MOL0     C84213  12.696  11.260   5.064 -0.3477  0.3272  0.6371
  611MOL0     C84214  12.711  11.315   5.188 -1.0148 -1.6328  0.7074
  611MOL0     C84215  12.621  11.401   5.245 -1.0734  0.1473 -0.7968
  611MOL0     O84216  12.661  11.439   5.373 -0.2275 -0.4726  0.5457
  611MOL0     C84217  12.569  11.519   5.449  0.0443 -0.8172  0.3487
  611MOL0     C84218  12.646  11.565   5.577 -0.0421  0.2283 -0.4303
  611MOL0     C84219  12.642  11.463   5.692  0.2042  0.9642  0.1721
  611MOL0     C84220  12.521  11.479   5.779 -0.3383  0.6992  0.4329
  611MOL0     C84221  12.510  11.372   5.888  1.0851 -1.0804 -0.3610
  611MOL0     C84222  12.383  11.390   5.970 -0.2979 -0.4752 -0.6418
  611MOL0     C84223  12.381  11.318   6.113 -0.2483 -0.3029  0.1400
  611MOL0     C84224  12.387  11.173   6.097  0.2026 -0.7805  0.5455
  611MOL0    Cl84225  12.355  11.096   6.255  0.4527 -0.1536 -0.2855
  611MOL0     C84226  12.511  11.438   5.172 -0.9970 -0.3850  0.2493
  611MOL0     C84227  12.500  11.389   5.043 -0.5032 -0.3649 -0.1518
  611MOL0     O84228  12.442  11.357   4.754 -0.3036 -0.1848 -0.6468
  611MOL0     C84229  12.510  11.004   4.730  0.1146  0.5281 -0.0050
  611MOL0     C84230  12.514  10.893   4.646 -0.2823  0.0732 -0.5861
  611MOL0     N84231  12.130  10.595   3.923 -0.3869  0.6987 -0.5759
  611MOL0     N84232  12.143  10.618   3.801  0.9655  0.3782  0.2296
  611MOL0     C84233  11.548  10.837   2.861  0.3313  0.2041  0.3042
  611MOL0     C84234  11.413  10.858   2.863  0.8057 -0.5754  0.0822
  611MOL0     C84235  11.015  10.948   3.054 -0.0153  0.4881 -0.4291
  611MOL0     C84236  10.965  10.938   3.183  0.2444 -0.2746 -0.7896
  611MOL0     C84237  10.830  10.954   3.207  0.7533  0.3872 -0.0429
  611MOL0     C84238  10.743  11.000   3.103  0.6233  1.1556 -0.2235
  611MOL0     O84239  10.617  11.009   3.127  0.4802 -0.7572  0.7914
  611MOL0     C84240  10.514  11.038   3.021  0.3458 -0.3765  0.6520
  611MOL0     C84241  10.530  11.192   2.979 -0.8936 -0.1930 -0.0780
  611MOL0     C84242  10.454  11.284   3.083 -0.5308 -0.1677 -0.3831
  611MOL0     C84243  10.464  11.428   3.033 -0.3108  0.2611 -0.1677
  611MOL0     C84244  10.414  11.534   3.119 -0.5525 -1.7232  0.0166
  611MOL0     C84245  10.372  11.618   3.191 -0.5145 -0.4557  0.2814
  611MOL0     C84246  10.792  11.002   2.973  0.8074 -1.0603 -0.0486
  611MOL0     C84247  10.926  10.986   2.944 -0.5255 -0.3245  0.3506
  611MOL0     C84248  10.978  11.005   2.805  0.0622 -0.2585  0.9117
  611MOL0     H84249  11.336  10.673   3.131 -0.0695  0.1685  0.0147
  611MOL0     H84250  11.589  10.672   3.146 -0.3958  1.3675  0.6983
  611MOL0     H84251  11.806  10.948   2.954  2.1067 -0.5444  1.7630
  611MOL0     H84252  11.823  10.849   2.801  0.1690 -0.0302 -1.0386
  611MOL0     H84253  12.012  10.726   2.923 -1.3418  0.5915 -3.2592
  611MOL0     H84254  12.051  10.901   2.944  1.1835 -0.8583  0.8537
  611MOL0     H84255  11.954  10.907   3.172  2.5239  0.9253  0.4902
  611MOL0     H84256  11.897  10.741   3.144 -2.8817  2.2735 -1.2644
  611MOL0     H84257  12.134  10.671   3.156 -2.2725 -0.1851 -0.0759
  611MOL0     H84258  12.196  10.830   3.119  0.0600 -1.3245 -0.7142
  611MOL0     H84259  12.017  10.785   3.359  0.0243 -0.6038  0.4764
  611MOL0     H84260  12.127  10.920   3.344  0.0386 -0.8281  4.2649
  611MOL0     H84261  12.256  10.650   3.337  3.8809 -0.7658  2.8560
  611MOL0     H84262  12.317  10.812   3.380 -1.6282  1.6618  0.2470
  611MOL0     H84263  12.115  10.638   3.516 -0.2738 -0.2181 -0.1827
  611MOL0     H84264  12.143  10.805   3.562 -1.7828 -0.4075 -1.5871
  611MOL0     H84265  12.342  10.560   3.576 -1.7769  0.5977 -1.6581
  611MOL0     H84266  12.391  10.728   3.619  0.2634  0.8355  0.4863
  611MOL0     H84267  12.463  10.599   3.871 -0.0145 -1.6042 -0.8952
  611MOL0     H84268  12.414  10.504   4.113 -0.4077 -0.6228 -2.6859
  611MOL0     H84269  12.261  10.462   4.134  0.6807 -0.2105 -3.0335
  611MOL0     H84270  12.384  10.755   4.164  3.3187 -2.0431  3.0256
  611MOL0     H84271  12.218  10.721   4.202  0.3064  0.7063  3.3406
  611MOL0     H84272  12.294  10.560   4.381 -2.1123  4.0022  2.5904
  611MOL0     H84273  12.462  10.587   4.329  1.3724  3.1045  1.4566
  611MOL0     H84274  12.281  10.784   4.441 -1.3563 -1.8114 -2.2737
  611MOL0     H84275  12.355  10.667   4.551  2.9478 -1.8435 -0.4510
  611MOL0     H84276  12.488  11.026   4.346  2.3560 -2.1939 -0.1571
  611MOL0     H84277  12.349  11.323   4.517 -1.4082 -3.1501 -2.2477
  611MOL0     H84278  12.419  11.271   4.367 -1.3473 -2.4938  0.2361
  611MOL0     H84279  12.526  11.343   4.488  0.2571 -0.3390 -0.8352
  611MOL0     H84280  12.763  11.197   5.006  1.9420  3.5382 -0.4598
  611MOL0     H84281  12.792  11.290   5.256  0.4847  0.3237 -0.2679
  611MOL0     H84282  12.540  11.608   5.392 -0.9729 -0.9380  0.6573
  611MOL0     H84283  12.473  11.474   5.476 -0.6541  1.1805  1.4341
  611MOL0     H84284  12.750  11.592   5.554  0.4990 -0.0555  1.4727
  611MOL0     H84285  12.609  11.663   5.609  0.4817 -0.3989  2.2861
  611MOL0     H84286  12.738  11.468   5.744  2.4278  0.5690 -3.5510
  611MOL0     H84287  12.655  11.363   5.649  0.6409  0.8796  0.4891
  611MOL0     H84288  12.437  11.478   5.710  0.6079 -0.2214 -0.7323
  611MOL0     H84289  12.533  11.583   5.812 -1.3498  0.8194  0.4593
  611MOL0     H84290  12.521  11.270   5.851  1.8242 -0.9214 -0.5906
  611MOL0     H84291  12.598  11.391   5.950  1.4774 -0.0883 -1.1834
  611MOL0     H84292  12.302  11.348   5.911 -1.6104 -0.8222  1.3120
  611MOL0     H84293  12.366  11.497   5.984 -2.4804 -1.0034  1.4602
  611MOL0     H84294  12.291  11.348   6.167  1.1097  5.6277 -0.1261
  611MOL0     H84295  12.466  11.351   6.174 -0.8904 -1.5003  1.7489
  611MOL0     H84296  12.474  11.138   6.040 -0.5189  1.9019 -2.5016
  611MOL0     H84297  12.307  11.152   6.025  0.8700 -1.1219 -0.1235
  611MOL0     H84298  12.429  11.503   5.200 -0.9716  0.2442 -1.0816
  611MOL0     H84299  12.415  11.422   4.984 -2.3208  0.1010  2.5364
  611MOL0     H84300  12.522  10.984   4.835  0.3675  3.7803  0.6895
  611MOL0     H84301  12.523  10.791   4.680 -1.8414  0.2739  0.5583
  611MOL0     H84302  11.611  10.853   2.774 -1.7481 -0.4419 -1.4163
  611MOL0     H84303  11.357  10.904   2.783  1.1107 -1.5585 -0.7127
  611MOL0     H84304  11.028  10.904   3.265 -0.3153 -0.1326 -0.2968
  611MOL0     H84305  10.787  10.937   3.306 -1.6727 -1.4284 -1.2968
  611MOL0     H84306  10.522  10.973   2.934 -3.1145  0.8466 -0.7361
  611MOL0     H84307  10.412  11.020   3.057  0.1499  1.0525  0.8731
  611MOL0     H84308  10.481  11.188   2.881  1.6607 -1.8659 -1.3915
  611MOL0     H84309  10.632  11.228   2.961  0.2302 -2.6629  0.8944
  611MOL0     H84310  10.346  11.266   3.087 -1.2600  2.5845 -3.5019
  611MOL0     H84311  10.494  11.279   3.185 -2.1433  3.3849  0.5924
  611MOL0     H84312  10.413  11.448   2.938  1.4453  3.6657 -0.5572
  611MOL0     H84313  10.568  11.455   3.011 -0.8022  1.8569 -0.6855
  611MOL0     H84314  10.342  11.694   3.261  0.8743 -2.0714  2.7479
  611MOL0     H84315  10.728  11.034   2.892  2.5583  1.7810 -0.4558
  611MOL0     H84316  10.950  10.915   2.750  0.5120 -0.3477  0.8267
  611MOL0     H84317  10.918  11.089   2.768 -0.6439 -1.7922 -1.7188
  611MOL0     H84318  11.085  11.008   2.783 -0.0184 -2.7496 -0.1459
  612MOL0     O84319   5.825   1.490  10.082 -0.1436 -0.3085 -0.5341
  612MOL0     C84320   5.938   1.507  10.132 -0.3697 -0.5920 -0.0535
  612MOL0     O84321   5.960   1.519  10.267 -0.0520 -0.1077  0.4205
  612MOL0     C84322   5.867   1.445  10.343  0.2127 -0.7662  0.5167
  612MOL0     C84323   5.854   1.305  10.339 -1.2464  0.3974 -0.6473
  612MOL0     C84324   5.780   1.234  10.439  0.4474 -0.6936 -0.0853
  612MOL0     C84325   5.689   1.311  10.517  0.0183  0.3537 -0.4448
  612MOL0     O84326   5.610   1.253  10.621 -0.8095 -0.0221  0.1458
  612MOL0     C84327   5.625   1.114  10.651  0.1379 -0.4175 -0.6231
  612MOL0     C84328   5.539   1.077  10.773  0.3004 -0.1854  0.7709
  612MOL0     C84329   5.568   1.149  10.908  0.4516 -0.0837  0.6509
  612MOL0     C84330   5.712   1.119  10.962  0.3015  1.3355  0.9106
  612MOL0     C84331   5.718   1.177  11.106  0.0892  0.4781  0.0824
  612MOL0     C84332   5.864   1.181  11.143 -0.5492 -0.3779  0.6353
  612MOL0     C84333   5.900   1.190  11.295  0.6118  0.2357  0.3254
  612MOL0     C84334   5.835   1.312  11.371  0.6469  1.3696  0.2739
  612MOL0     N84335   5.901   1.445  11.354  0.4396 -0.2703 -0.1361
  612MOL0     C84336   6.028   1.459  11.315  0.9739 -0.3576 -0.0615
  612MOL0     C84337   6.038   1.591  11.287  0.2318  0.0549  0.5171
  612MOL0     C84338   6.153   1.678  11.248  0.4465 -0.5257  0.7099
  612MOL0     C84339   6.198   1.672  11.109 -0.6388  0.3206 -0.7020
  612MOL0     C84340   6.317   1.777  11.104  0.7425  0.9380 -0.6196
  612MOL0     C84341   6.383   1.778  10.970  0.1995  0.4768  0.5557
  612MOL0     O84342   6.510   1.840  10.993 -0.5878 -0.8459 -0.3811
  612MOL0     C84343   6.598   1.847  10.893  0.3692 -0.7086  0.1792
  612MOL0     C84344   6.547   1.836  10.762  0.6736 -1.2810 -0.2440
  612MOL0     C84345   6.629   1.876  10.651  0.6354 -0.3830 -1.2763
  612MOL0     C84346   6.584   1.864  10.515  0.5941 -0.2976 -1.2522
  612MOL0     C84347   6.761   1.912  10.672 -0.7824 -0.4552  0.8754
  612MOL0     C84348   6.847   1.968  10.565  0.2799  0.0816  0.0331
  612MOL0     O84349   6.915   2.075  10.601  0.6777  0.4145  0.1929
  612MOL0     C84350   6.988   2.150  10.521  0.1927 -0.7656  1.3263
  612MOL0     C84351   6.971   2.167  10.376  0.2249  0.2829 -0.4132
  612MOL0     C84352   7.058   2.245  10.307  0.1554  0.0570 -0.4236
  612MOL0     C84353   7.158   2.308  10.372 -0.2539  0.0662 -0.8253
  612MOL0     O84354   7.240   2.398  10.302  0.4565  1.2227  0.3136
  612MOL0     C84355   7.278   2.521  10.358 -0.0843 -1.6939 -0.1057
  612MOL0     C84356   7.331   2.618  10.256 -0.7068 -0.2117 -0.0575
  612MOL0     C84357   7.491   2.606  10.224  0.4925 -0.1581  0.6695
  612MOL0     C84358   7.534   2.688  10.092  0.0387  0.0309  0.2026
  612MOL0     C84359   7.688   2.666  10.070  0.0275 -0.1075  0.7080
  612MOL0     C84360   7.716   2.727   9.936 -0.0596  0.3331  0.7366
  612MOL0     C84361   7.871   2.723   9.888  0.3320  0.5495  0.7213
  612MOL0     C84362   7.892   2.748   9.737  0.2681  0.4663 -0.1860
  612MOL0    Cl84363   7.849   2.613   9.630 -0.4219  0.2042 -0.4189
  612MOL0     C84364   7.160   2.313  10.513  0.1757  0.0138 -0.2135
  612MOL0     C84365   7.076   2.230  10.587  0.5546 -0.1023 -0.0660
  612MOL0     O84366   6.868   1.902  10.469  0.5151  0.0667  0.0136
  612MOL0     C84367   6.807   1.927  10.810  0.6040 -0.4227 -0.5636
  612MOL0     C84368   6.730   1.893  10.918 -0.1565 -0.4232  0.2408
  612MOL0     N84369   5.916   1.649  11.332 -0.1146  0.6472 -0.4388
  612MOL0     N84370   5.826   1.557  11.369 -0.5033 -0.1875 -0.7455
  612MOL0     C84371   5.696   1.452  10.506 -0.0768  0.0328 -0.5494
  612MOL0     C84372   5.786   1.525  10.428  0.9043 -0.3364 -0.6484
  612MOL0     C84373   6.042   1.532  10.024 -0.3374 -0.7916 -0.2388
  612MOL0     C84374   6.001   1.623   9.928 -0.4402 -0.7614  0.0722
  612MOL0     C84375   6.085   1.698   9.849 -0.4123  0.8401  1.1496
  612MOL0     C84376   6.220   1.659   9.860 -0.6463  0.8564 -0.1369
  612MOL0     O84377   6.316   1.731   9.791  0.6825 -0.5525  0.2458
  612MOL0     C84378   6.389   1.650   9.694 -0.6043  0.0931 -0.7483
  612MOL0     C84379   6.305   1.629   9.572  0.0842 -0.0608 -0.2676
  612MOL0     C84380   6.365   1.557   9.453  0.4610  0.0501  0.2296
  612MOL0     C84381   6.481   1.619   9.376 -0.8577 -0.4472  0.5799
  612MOL0     C84382   6.430   1.748   9.332 -0.5130 -0.2002  0.4339
  612MOL0     C84383   6.390   1.858   9.298  0.9786  0.1158 -0.3499
  612MOL0     C84384   6.261   1.554   9.950 -0.2603 -0.8317 -0.3292
  612MOL0     C84385   6.180   1.497  10.044  0.3977 -0.5313 -0.4329
  612MOL0     C84386   6.235   1.404  10.154 -0.5810 -0.5899 -0.3609
  612MOL0     H84387   5.913   1.241  10.274 -0.9558 -1.9674  1.7254
  612MOL0     H84388   5.780   1.126  10.435  0.8804 -0.6980  0.0270
  612MOL0     H84389   5.729   1.092  10.676  0.5067  1.7624 -0.0308
  612MOL0     H84390   5.600   1.044  10.571 -0.5689  0.6280 -1.3547
  612MOL0     H84391   5.437   1.104  10.746  1.9295  2.7716 -3.4774
  612MOL0     H84392   5.544   0.971  10.799  1.3357 -0.1769  0.6703
  612MOL0     H84393   5.556   1.258  10.900  1.7909  0.0600  0.3666
  612MOL0     H84394   5.492   1.105  10.973 -0.2957  2.0235  1.2809
  612MOL0     H84395   5.713   1.010  10.964 -0.6403  1.2166 -1.3945
  612MOL0     H84396   5.785   1.161  10.892 -1.4561  4.1769  0.5853
  612MOL0     H84397   5.657   1.106  11.162 -0.5993  1.2402  0.3084
  612MOL0     H84398   5.667   1.273  11.109 -0.0798  0.5125 -2.0222
  612MOL0     H84399   5.907   1.084  11.116  1.6507  1.6527 -4.2837
  612MOL0     H84400   5.923   1.256  11.090  2.3581 -3.7442 -1.3831
  612MOL0     H84401   6.008   1.178  11.312  0.8080  1.0374 -0.2675
  612MOL0     H84402   5.859   1.101  11.343  1.4638 -0.8889 -0.9759
  612MOL0     H84403   5.731   1.320  11.336  1.1340  3.7926 -0.8322
  612MOL0     H84404   5.836   1.292  11.478 -1.0033 -2.9550 -0.3022
  612MOL0     H84405   6.105   1.382  11.304  0.0279 -2.0938  3.6263
  612MOL0     H84406   6.243   1.658  11.306  2.4326  2.5937 -1.0215
  612MOL0     H84407   6.126   1.778  11.284  1.4117 -0.3767  1.0509
  612MOL0     H84408   6.236   1.570  11.096 -0.4229  0.0586  1.6508
  612MOL0     H84409   6.112   1.696  11.045 -1.0486 -2.0554 -1.1583
  612MOL0     H84410   6.287   1.881  11.122  0.5943  0.8644 -0.4350
  612MOL0     H84411   6.381   1.753  11.188 -1.0435  0.9901  0.8246
  612MOL0     H84412   6.398   1.674  10.938  1.8091 -0.2582  3.4118
  612MOL0     H84413   6.326   1.832  10.893  1.6590 -2.2883 -2.7680
  612MOL0     H84414   6.444   1.815  10.735 -0.9080  3.5846  0.9845
  612MOL0     H84415   6.480   1.829  10.512 -0.0151  1.4285 -1.2105
  612MOL0     H84416   6.644   1.791  10.460 -1.1992 -2.8304 -0.0558
  612MOL0     H84417   6.591   1.959  10.462  3.0442 -1.9034 -4.1109
  612MOL0     H84418   6.885   2.121  10.328 -0.4753 -0.0294  1.0922
  612MOL0     H84419   7.047   2.244  10.199 -1.9949 -3.1806 -0.3200
  612MOL0     H84420   7.198   2.567  10.415  1.3757  0.1871  0.5308
  612MOL0     H84421   7.365   2.503  10.422  0.8615  3.5065  0.5195
  612MOL0     H84422   7.269   2.621  10.166  1.6326 -1.5428 -1.8190
  612MOL0     H84423   7.320   2.720  10.294 -1.6318 -0.8304  1.4649
  612MOL0     H84424   7.518   2.502  10.207  4.2385  1.0932 -2.6987
  612MOL0     H84425   7.547   2.644  10.309 -2.4545  2.9904  1.4391
  612MOL0     H84426   7.513   2.793  10.113  0.6479  0.3733 -0.8327
  612MOL0     H84427   7.480   2.652  10.005 -0.3645  0.0352  0.4457
  612MOL0     H84428   7.752   2.716  10.143  3.9238 -0.4277 -2.1717
  612MOL0     H84429   7.716   2.560  10.059  0.9827  0.2071 -0.0609
  612MOL0     H84430   7.692   2.834   9.940  0.4471  0.6904 -2.8520
  612MOL0     H84431   7.655   2.673   9.863  1.3605 -0.6631  0.2426
  612MOL0     H84432   7.905   2.625   9.923 -0.9533 -0.5138 -0.8864
  612MOL0     H84433   7.921   2.800   9.948  2.5652 -0.1083 -0.1862
  612MOL0     H84434   7.995   2.776   9.713  0.6824 -0.8450 -0.0112
  612MOL0     H84435   7.836   2.833   9.695  0.2778 -0.2695 -1.7878
  612MOL0     H84436   7.229   2.385  10.556 -0.8724  1.0133 -0.1508
  612MOL0     H84437   7.095   2.208  10.692 -0.2525  1.7786  0.5062
  612MOL0     H84438   6.902   1.964  10.847 -1.0928  4.5800 -0.4076
  612MOL0     H84439   6.769   1.914  11.018  2.2216 -0.0719 -0.6859
  612MOL0     H84440   5.629   1.510  10.568 -0.8306 -2.3781  1.0019
  612MOL0     H84441   5.798   1.633  10.431  0.6385 -0.2680  3.0770
  612MOL0     H84442   5.895   1.645   9.919 -0.1863  0.1201 -0.9385
  612MOL0     H84443   6.045   1.772   9.781 -2.8585  0.4931  2.1245
  612MOL0     H84444   6.485   1.697   9.671 -0.3675 -0.8643 -1.7642
  612MOL0     H84445   6.409   1.551   9.736  2.0085 -0.3445 -2.7698
  612MOL0     H84446   6.257   1.725   9.553  0.5898  0.3511  0.5204
  612MOL0     H84447   6.231   1.555   9.604 -2.6305  1.0804 -3.3334
  612MOL0     H84448   6.386   1.452   9.476 -0.3895  0.0793  1.2257
  612MOL0     H84449   6.286   1.540   9.380 -2.5797 -0.6732  3.3813
  612MOL0     H84450   6.507   1.559   9.289  0.3907 -1.3820  1.5411
  612MOL0     H84451   6.569   1.620   9.442 -1.3780  3.7715  1.4866
  612MOL0     H84452   6.358   1.957   9.272  1.0688  0.6497  1.4408
  612MOL0     H84453   6.369   1.541   9.940  0.1096  0.9047  0.8557
  612MOL0     H84454   6.258   1.458  10.246 -3.2813  0.5577 -0.2544
  612MOL0     H84455   6.157   1.329  10.173 -2.7940  1.3545 -1.3445
  612MOL0     H84456   6.334   1.372  10.121  1.6064  2.6165  2.4737
  613MOL0     O84457   5.691   9.561   2.110  0.6224 -0.6115  0.0352
  613MOL0     C84458   5.777   9.630   2.158 -0.4620  0.2799 -0.0870
  613MOL0     O84459   5.856   9.597   2.271  0.3126  0.4937  0.1169
  613MOL0     C84460   5.880   9.477   2.323 -0.3053 -0.2610  0.5777
  613MOL0     C84461   5.789   9.375   2.308  0.3616  0.0944  0.2159
  613MOL0     C84462   5.818   9.247   2.362 -0.2994  0.6571 -0.4158
  613MOL0     C84463   5.934   9.224   2.424  0.3501 -0.3835 -0.5532
  613MOL0     O84464   5.949   9.101   2.474 -0.1114 -0.0513  0.2301
  613MOL0     C84465   6.006   9.087   2.608  0.4868 -0.7099  0.6288
  613MOL0     C84466   5.891   9.077   2.697  0.1166  0.6200 -0.7056
  613MOL0     C84467   5.821   8.943   2.693 -0.6739  0.2016 -0.7612
  613MOL0     C84468   5.694   8.958   2.789 -0.0262 -0.5285 -0.3888
  613MOL0     C84469   5.718   8.881   2.920  0.7890  0.1161 -0.4798
  613MOL0     C84470   5.618   8.916   3.027 -0.6963 -0.3229  0.3987
  613MOL0     C84471   5.484   8.835   3.008  0.4280  0.1313  0.9577
  613MOL0     C84472   5.402   8.852   3.136  0.0138 -0.7287 -0.0876
  613MOL0     N84473   5.329   8.978   3.133  0.3411 -0.0772  0.1732
  613MOL0     C84474   5.198   8.992   3.079 -0.2495  0.0627  0.2743
  613MOL0     C84475   5.172   9.123   3.098 -0.4531  0.0466  0.2449
  613MOL0     C84476   5.060   9.195   3.023  0.2282  0.0186  0.6658
  613MOL0     C84477   5.091   9.195   2.865 -0.5972  0.7472 -0.1211
  613MOL0     C84478   5.201   9.290   2.846  0.1068 -0.0034 -0.6107
  613MOL0     C84479   5.232   9.313   2.695  0.5566 -1.0567 -1.1527
  613MOL0     O84480   5.301   9.200   2.648  1.0106  0.1481  0.5075
  613MOL0     C84481   5.321   9.198   2.508  0.6940  1.2498 -0.6661
  613MOL0     C84482   5.356   9.069   2.461 -0.5630  0.4481  1.1377
  613MOL0     C84483   5.396   9.046   2.327 -0.6106 -1.1341  0.1877
  613MOL0     C84484   5.417   8.905   2.280  0.1068 -0.2394  0.0689
  613MOL0     C84485   5.398   9.155   2.245  0.6767  0.5920  0.9824
  613MOL0     C84486   5.422   9.132   2.102  0.1575  0.3195  0.7894
  613MOL0     O84487   5.357   9.222   2.021 -0.5784 -0.1626 -0.8990
  613MOL0     C84488   5.417   9.273   1.909 -0.1040  0.2014 -0.0838
  613MOL0     C84489   5.328   9.323   1.809  0.5566  0.5483  0.1253
  613MOL0     C84490   5.379   9.405   1.707 -0.7526 -0.0902 -0.8182
  613MOL0     C84491   5.517   9.439   1.695  0.7872  1.1627 -0.4031
  613MOL0     O84492   5.562   9.532   1.603  0.0037 -0.5744 -0.4715
  613MOL0     C84493   5.490   9.647   1.577 -0.3893  0.3915  0.8751
  613MOL0     C84494   5.459   9.664   1.428  0.2935  0.3317 -0.2042
  613MOL0     C84495   5.382   9.545   1.352  0.2678  0.1754  0.2457
  613MOL0     C84496   5.355   9.574   1.200  0.8291 -0.3729 -0.8196
  613MOL0     C84497   5.277   9.461   1.128  0.1098  0.1483  1.1107
  613MOL0     C84498   5.370   9.338   1.106  0.0257 -0.2189 -0.7019
  613MOL0     C84499   5.497   9.360   1.019 -0.0815  0.6686  0.0817
  613MOL0     C84500   5.541   9.225   0.978  0.3620  0.2194 -0.7373
  613MOL0    Cl84501   5.710   9.239   0.952 -0.5914 -0.0766  0.1380
  613MOL0     C84502   5.607   9.376   1.790 -0.4992 -0.2403 -0.3367
  613MOL0     C84503   5.553   9.308   1.900 -0.8750 -0.3823  0.5114
  613MOL0     O84504   5.510   9.056   2.068 -0.0621  0.3523  0.0298
  613MOL0     C84505   5.360   9.280   2.287 -0.5196 -0.3813  1.1123
  613MOL0     C84506   5.326   9.308   2.417  0.6576  0.2825  0.4598
  613MOL0     N84507   5.274   9.182   3.171 -0.9258  0.8436 -0.5846
  613MOL0     N84508   5.369   9.094   3.184 -0.2282  0.8673  0.0254
  613MOL0     C84509   6.033   9.329   2.420 -0.6574  0.9089  0.1973
  613MOL0     C84510   5.997   9.458   2.381 -0.4825  0.1029  0.2296
  613MOL0     C84511   5.800   9.760   2.086 -0.4218  0.0582  1.1322
  613MOL0     C84512   5.713   9.778   1.969 -0.2337  0.1975 -0.5434
  613MOL0     C84513   5.732   9.886   1.887 -0.0013  0.7389  0.9778
  613MOL0     C84514   5.848   9.960   1.896 -0.3713  0.0963 -0.6058
  613MOL0     O84515   5.862  10.048   1.793 -0.5691  0.0871  0.0065
  613MOL0     C84516   5.960  10.143   1.795 -0.4169  0.0901 -0.8886
  613MOL0     C84517   5.908  10.275   1.864 -0.6388  0.6903 -1.2070
  613MOL0     C84518   5.985  10.401   1.827 -0.5511  0.0095  0.2647
  613MOL0     C84519   5.949  10.439   1.683 -0.2679  1.3536 -0.0433
  613MOL0     C84520   5.832  10.523   1.667  0.0847  0.2753  0.0286
  613MOL0     C84521   5.739  10.604   1.661 -0.5161 -0.5476  0.1812
  613MOL0     C84522   5.936   9.945   2.005  0.5391  0.8258  0.3229
  613MOL0     C84523   5.909   9.847   2.103 -0.2001 -0.1335  0.1744
  613MOL0     C84524   6.000   9.837   2.226  0.2807 -0.7110  0.4022
  613MOL0     H84525   5.687   9.389   2.274 -0.2787 -3.6575  0.1936
  613MOL0     H84526   5.741   9.171   2.364  0.2132  0.0923 -1.6402
  613MOL0     H84527   6.062   9.177   2.633 -1.1343 -0.4485  3.7433
  613MOL0     H84528   6.077   9.003   2.610  1.2656 -0.2783 -2.7743
  613MOL0     H84529   5.922   9.086   2.802  1.4060 -1.5159 -0.8265
  613MOL0     H84530   5.814   9.152   2.676  0.5866  1.3617  0.1354
  613MOL0     H84531   5.796   8.911   2.591  1.6411  0.9787 -1.6488
  613MOL0     H84532   5.885   8.861   2.729 -2.1646  0.1933  2.1851
  613MOL0     H84533   5.667   9.061   2.813 -0.5385 -1.1635  1.9348
  613MOL0     H84534   5.613   8.907   2.736 -0.3709 -2.3665  1.7779
  613MOL0     H84535   5.814   8.913   2.962 -0.4331  0.4628  2.2664
  613MOL0     H84536   5.709   8.774   2.897 -2.3744  0.5016 -1.5848
  613MOL0     H84537   5.655   8.895   3.128 -1.3701  3.2784  1.5578
  613MOL0     H84538   5.591   9.022   3.027  0.0689 -0.0982  1.9522
  613MOL0     H84539   5.507   8.728   3.014 -3.4531 -0.8120  2.5762
  613MOL0     H84540   5.423   8.865   2.922  2.5827 -0.0334 -0.7004
  613MOL0     H84541   5.332   8.772   3.162 -0.0961  0.3059  3.4048
  613MOL0     H84542   5.459   8.853   3.230 -1.4074  0.5709  0.8123
  613MOL0     H84543   5.154   8.920   3.011  1.7965  0.1536 -1.2343
  613MOL0     H84544   5.046   9.297   3.060  0.0504 -0.3908  1.7602
  613MOL0     H84545   4.972   9.136   3.049  2.5032 -2.3777  3.7571
  613MOL0     H84546   5.123   9.098   2.826 -0.0637 -0.3235  2.7151
  613MOL0     H84547   5.002   9.232   2.813  0.4304 -0.1095 -2.6281
  613MOL0     H84548   5.160   9.380   2.893  0.2524 -1.7310  3.1439
  613MOL0     H84549   5.282   9.266   2.915  0.1957  1.6243 -0.1034
  613MOL0     H84550   5.132   9.319   2.650 -0.1159  1.2015  0.4466
  613MOL0     H84551   5.288   9.406   2.682 -0.5178 -0.4752 -1.8465
  613MOL0     H84552   5.366   8.988   2.533  0.8595  1.2824  1.9346
  613MOL0     H84553   5.378   8.897   2.178 -0.8559  0.5119  0.3625
  613MOL0     H84554   5.369   8.834   2.347 -0.0114 -2.0485 -1.8516
  613MOL0     H84555   5.524   8.881   2.276 -0.2384 -1.6893 -1.9057
  613MOL0     H84556   5.224   9.296   1.815  1.3335 -2.6098  1.2868
  613MOL0     H84557   5.303   9.458   1.650 -0.1035  2.4029  0.5112
  613MOL0     H84558   5.396   9.637   1.632 -0.3249  3.0043  1.6174
  613MOL0     H84559   5.544   9.735   1.614  3.7889 -1.2814 -0.5765
  613MOL0     H84560   5.402   9.756   1.417  0.3135  0.9311  3.4588
  613MOL0     H84561   5.551   9.671   1.369  0.6295 -0.8705  0.1438
  613MOL0     H84562   5.284   9.530   1.397 -0.4743 -0.1598 -1.4078
  613MOL0     H84563   5.436   9.451   1.366  4.4727  2.0225 -1.8326
  613MOL0     H84564   5.445   9.606   1.147  2.1317 -2.0102  0.2821
  613MOL0     H84565   5.294   9.664   1.208  3.8938  1.6966  4.0631
  613MOL0     H84566   5.187   9.434   1.184 -0.8752 -0.4557 -0.6848
  613MOL0     H84567   5.249   9.496   1.028  0.7352  0.4834  1.0411
  613MOL0     H84568   5.302   9.263   1.063 -1.9924  0.0126  1.8940
  613MOL0     H84569   5.417   9.307   1.200  0.4499 -0.6122 -1.0353
  613MOL0     H84570   5.581   9.403   1.073  2.2579 -0.3674 -2.5290
  613MOL0     H84571   5.471   9.422   0.933 -1.5010 -2.1764 -1.7060
  613MOL0     H84572   5.480   9.182   0.898  1.4068 -0.5409 -1.1391
  613MOL0     H84573   5.530   9.149   1.056 -3.2592  0.0036 -1.2936
  613MOL0     H84574   5.712   9.399   1.774 -0.6591  0.1059 -0.9234
  613MOL0     H84575   5.610   9.278   1.987 -1.3946 -1.9054  0.3530
  613MOL0     H84576   5.353   9.355   2.209  0.2882  1.2724  2.5680
  613MOL0     H84577   5.296   9.410   2.441 -0.5337  0.4905 -1.6521
  613MOL0     H84578   6.129   9.305   2.466 -1.1002 -0.0663  0.6379
  613MOL0     H84579   6.056   9.549   2.385 -2.6645  1.6712 -1.3915
  613MOL0     H84580   5.626   9.715   1.956 -0.1778 -0.1666  0.7093
  613MOL0     H84581   5.650   9.914   1.822 -0.7774 -0.6361  1.3163
  613MOL0     H84582   6.054  10.112   1.840 -1.1557 -0.7583  0.1284
  613MOL0     H84583   5.972  10.167   1.689 -2.2619 -0.1542 -1.1832
  613MOL0     H84584   5.921  10.250   1.970  1.3339 -0.9415 -1.7753
  613MOL0     H84585   5.801  10.292   1.848 -1.2699 -1.9420 -0.2407
  613MOL0     H84586   5.960  10.488   1.888 -2.1266  0.6758 -1.2377
  613MOL0     H84587   6.092  10.378   1.827 -0.7589 -2.8127 -5.6721
  613MOL0     H84588   5.951  10.353   1.615 -0.3369  1.7125 -0.5096
  613MOL0     H84589   6.032  10.501   1.648  2.0093 -1.0938  0.7144
  613MOL0     H84590   5.659  10.675   1.658 -0.7673 -0.7468  1.4366
  613MOL0     H84591   6.027  10.005   2.005  1.4512 -0.4422 -1.9393
  613MOL0     H84592   6.064   9.751   2.205  1.0958 -0.0733  0.2383
  613MOL0     H84593   6.068   9.923   2.221  1.6328 -1.7908 -0.6874
  613MOL0     H84594   5.942   9.847   2.318 -1.1849  1.8536 -0.6898
  614MOL0     O84595   1.161   0.531  11.186  0.5548 -0.3541  0.1883
  614MOL0     C84596   1.071   0.468  11.127  0.4474 -0.8808  0.4705
  614MOL0     O84597   0.964   0.527  11.067  0.1980  0.1892 -0.2803
  614MOL0     C84598   0.951   0.657  11.092  0.2636  0.0610 -0.1290
  614MOL0     C84599   0.898   0.707  11.209  0.6975 -0.7320 -0.6178
  614MOL0     C84600   0.886   0.843  11.224  0.0779 -0.1008  0.4815
  614MOL0     C84601   0.929   0.934  11.123  0.5734 -0.8540  0.0323
  614MOL0     O84602   0.907   1.073  11.146 -0.4519  0.6683  0.2039
  614MOL0     C84603   0.966   1.171  11.053 -0.6250 -0.1068 -0.7308
  614MOL0     C84604   0.916   1.320  11.063 -0.5022  0.2243  0.3261
  614MOL0     C84605   0.874   1.350  11.211 -0.5567 -0.5065 -0.1916
  614MOL0     C84606   0.987   1.335  11.314  0.3163 -0.7401  0.1341
  614MOL0     C84607   0.917   1.377  11.445  0.6297 -0.4923  0.4641
  614MOL0     C84608   0.994   1.319  11.561  0.2826 -0.0745 -0.0315
  614MOL0     C84609   1.127   1.386  11.564 -0.1038 -2.1406  0.4305
  614MOL0     C84610   1.116   1.529  11.625  0.1190 -0.0001  0.0380
  614MOL0     N84611   1.244   1.579  11.689  1.0359  0.4850  0.8350
  614MOL0     C84612   1.350   1.614  11.605 -0.8030  0.9281 -0.7557
  614MOL0     C84613   1.450   1.649  11.693  0.9451  0.0313 -0.6171
  614MOL0     C84614   1.572   1.717  11.651  0.4684  0.0963  0.8677
  614MOL0     C84615   1.656   1.768  11.773 -0.2077  0.0686 -0.9976
  614MOL0     C84616   1.751   1.891  11.745  0.2898  0.0319  1.0816
  614MOL0     C84617   1.837   1.938  11.857  1.1444 -0.2614  0.2425
  614MOL0     O84618   1.930   1.835  11.897  0.0066 -0.3447 -0.2823
  614MOL0     C84619   2.061   1.880  11.911  0.3914 -0.9902 -0.1310
  614MOL0     C84620   2.098   1.984  11.995  0.9272  0.0003  0.3211
  614MOL0     C84621   2.236   2.013  12.026 -0.4821 -0.0483 -0.6552
  614MOL0     C84622   2.265   2.135  12.119 -1.0063 -0.3004  0.2562
  614MOL0     C84623   2.331   1.927  11.974  0.5326 -0.7556  0.1952
  614MOL0     C84624   2.473   1.949  11.979 -0.2982 -0.0761  0.4953
  614MOL0     O84625   2.548   1.859  12.043  0.1875 -0.6079  0.1566
  614MOL0     C84626   2.671   1.810  11.992 -0.1834  0.0539  0.9533
  614MOL0     C84627   2.768   1.774  12.088 -0.4929  0.1696 -0.8733
  614MOL0     C84628   2.897   1.737  12.050  0.0257  0.4499  0.5721
  614MOL0     C84629   2.935   1.747  11.919  0.8837  0.4666 -0.0175
  614MOL0     O84630   3.062   1.732  11.880 -0.2941 -0.6253 -0.5484
  614MOL0     C84631   3.139   1.856  11.892  0.4088 -0.0638 -0.7577
  614MOL0     C84632   3.246   1.840  11.993  0.2743 -0.8437 -0.2358
  614MOL0     C84633   3.318   1.971  12.020 -0.1957  0.7770 -0.8424
  614MOL0     C84634   3.249   2.058  12.122 -0.2012 -1.1264 -0.5297
  614MOL0     C84635   3.311   2.206  12.133  0.2273  0.0962  0.0772
  614MOL0     C84636   3.258   2.274  12.252  0.7812 -0.6838  0.3462
  614MOL0     C84637   3.325   2.409  12.275 -0.1358 -0.1503 -0.7610
  614MOL0     C84638   3.307   2.466  12.420 -0.4494 -0.2718 -0.2865
  614MOL0    Cl84639   3.397   2.382  12.551  0.4669  0.3075 -0.2163
  614MOL0     C84640   2.845   1.780  11.818  0.3801  0.3348 -0.1371
  614MOL0     C84641   2.717   1.814  11.858 -0.9170 -0.4167  0.8913
  614MOL0     O84642   2.507   2.032  11.898 -0.5940  0.4015 -0.3019
  614MOL0     C84643   2.287   1.817  11.907  0.5289  0.3729  0.5199
  614MOL0     C84644   2.156   1.790  11.867 -0.1672  0.9016  0.2010
  614MOL0     N84645   1.407   1.619  11.823 -0.3319  0.5456 -0.1525
  614MOL0     N84646   1.284   1.570  11.815 -0.5580  0.0618 -0.4327
  614MOL0     C84647   0.985   0.880  11.008  0.4743  0.4535  0.0574
  614MOL0     C84648   0.996   0.743  10.992  0.4794 -0.2382  0.1390
  614MOL0     C84649   1.088   0.322  11.123  0.5801 -0.0417 -0.6782
  614MOL0     C84650   0.994   0.241  11.054 -0.7878  0.6876 -0.4128
  614MOL0     C84651   1.005   0.105  11.043 -0.1324  1.1314 -0.2594
  614MOL0     C84652   1.107   0.040  11.114  0.4726  0.7017  0.1045
  614MOL0     O84653   1.103  -0.098  11.101 -0.3066 -0.2753 -0.0780
  614MOL0     C84654   1.177  -0.190  11.186 -1.1097  0.6325 -0.0372
  614MOL0     C84655   1.075  -0.275  11.257 -0.7107  0.5027  0.4674
  614MOL0     C84656   1.121  -0.350  11.380  1.1590  0.2972 -0.1391
  614MOL0     C84657   0.999  -0.397  11.462 -0.6758 -0.2689 -0.3816
  614MOL0     C84658   0.955  -0.532  11.419  0.7539  0.7473 -0.0282
  614MOL0     C84659   0.916  -0.641  11.397 -0.9478  0.3555 -0.2871
  614MOL0     C84660   1.206   0.113  11.184  0.3589  0.2535  0.2515
  614MOL0     C84661   1.202   0.257  11.188  0.9953  0.1135  0.3717
  614MOL0     C84662   1.294   0.332  11.291  0.5212 -0.3088 -0.4193
  614MOL0     H84663   0.876   0.635  11.287  1.6898 -1.6462 -1.1528
  614MOL0     H84664   0.832   0.885  11.307 -3.7368 -0.2562 -1.6809
  614MOL0     H84665   0.945   1.147  10.948  0.2552 -0.6858 -0.7867
  614MOL0     H84666   1.074   1.180  11.069 -1.0582  3.4069  1.1560
  614MOL0     H84667   1.002   1.381  11.031  1.1293 -0.6729  2.7700
  614MOL0     H84668   0.830   1.335  10.997 -1.0269 -2.3066  0.3576
  614MOL0     H84669   0.832   1.451  11.208  2.1504  0.7577  1.1354
  614MOL0     H84670   0.802   1.273  11.240 -0.3542  0.2659  2.5743
  614MOL0     H84671   1.043   1.242  11.322  2.9729  0.8603  1.8213
  614MOL0     H84672   1.069   1.402  11.285  0.6063 -0.7455  0.9116
  614MOL0     H84673   0.812   1.346  11.440  1.1667 -2.2123 -2.0214
  614MOL0     H84674   0.909   1.486  11.447 -1.2697 -0.6014  1.6261
  614MOL0     H84675   0.926   1.342  11.642 -1.7147  2.8976 -2.3450
  614MOL0     H84676   1.015   1.212  11.546  0.9708  0.2582 -1.6893
  614MOL0     H84677   1.171   1.400  11.464 -2.4832 -3.8843 -0.9539
  614MOL0     H84678   1.194   1.321  11.621  3.1523  1.6592  1.3779
  614MOL0     H84679   1.104   1.596  11.540  3.6864  0.1296 -0.5265
  614MOL0     H84680   1.031   1.535  11.694 -1.2897 -1.1667 -1.5044
  614MOL0     H84681   1.360   1.622  11.497  2.6070 -1.2616 -0.7731
  614MOL0     H84682   1.541   1.805  11.593  4.9837  0.6242 -1.1478
  614MOL0     H84683   1.624   1.654  11.579 -0.9733  0.8134 -0.8796
  614MOL0     H84684   1.585   1.802  11.849  0.6709  1.3558 -0.7158
  614MOL0     H84685   1.715   1.690  11.823  0.0129  0.5339 -0.5238
  614MOL0     H84686   1.824   1.853  11.673  0.2032 -0.7176  1.3812
  614MOL0     H84687   1.685   1.970  11.709 -0.6912 -0.8228  0.9495
  614MOL0     H84688   1.897   2.027  11.836  1.5823 -1.3347 -4.1703
  614MOL0     H84689   1.774   1.959  11.944  1.7844  0.0374  0.6328
  614MOL0     H84690   2.026   2.061  12.023  0.6359 -0.1636  0.0365
  614MOL0     H84691   2.247   2.234  12.075  0.0742 -0.7915 -1.3851
  614MOL0     H84692   2.366   2.119  12.157  0.2411 -2.8350 -3.4934
  614MOL0     H84693   2.198   2.129  12.205 -1.0829 -2.0494  0.1173
  614MOL0     H84694   2.730   1.760  12.189 -1.5695 -3.7925 -1.6251
  614MOL0     H84695   2.967   1.708  12.127  0.9476  1.1233  0.0077
  614MOL0     H84696   3.179   1.886  11.795  0.2772 -0.1281 -0.8312
  614MOL0     H84697   3.065   1.933  11.917 -1.2803 -0.8150 -3.1386
  614MOL0     H84698   3.190   1.806  12.081  0.8700 -4.2616 -1.0163
  614MOL0     H84699   3.310   1.758  11.958  0.3543 -0.8727 -0.0248
  614MOL0     H84700   3.340   2.023  11.927 -4.0062  4.1773 -0.1448
  614MOL0     H84701   3.413   1.936  12.061 -1.4406  0.5738  2.1750
  614MOL0     H84702   3.243   2.009  12.219  1.0409  2.3964  1.4870
  614MOL0     H84703   3.146   2.065  12.086  0.6873  0.4646 -3.0166
  614MOL0     H84704   3.420   2.203  12.145  0.2770  1.4237  0.0873
  614MOL0     H84705   3.291   2.265  12.043  2.6506 -1.0397 -1.2953
  614MOL0     H84706   3.264   2.211  12.341 -3.1621 -0.4753  0.9469
  614MOL0     H84707   3.153   2.304  12.247  0.6381 -1.1669  0.4092
  614MOL0     H84708   3.281   2.476  12.200  1.0531  1.8740  0.2588
  614MOL0     H84709   3.432   2.411  12.254 -0.4329 -0.9585 -2.5733
  614MOL0     H84710   3.198   2.464  12.429 -0.6031 -2.5353 -1.8259
  614MOL0     H84711   3.348   2.566  12.406 -0.5403  0.1574  2.1062
  614MOL0     H84712   2.858   1.785  11.711 -1.0283 -0.1658 -0.3602
  614MOL0     H84713   2.659   1.845  11.772  0.8631 -0.3520 -0.3402
  614MOL0     H84714   2.349   1.740  11.864 -0.1212 -0.1721  0.5461
  614MOL0     H84715   2.116   1.701  11.818 -1.2906  2.0617 -1.0765
  614MOL0     H84716   1.030   0.951  10.939  4.6071  1.7991  3.6999
  614MOL0     H84717   1.032   0.706  10.897  0.4779 -1.8234  0.7285
  614MOL0     H84718   0.915   0.282  10.992 -2.2930  0.5874  1.3567
  614MOL0     H84719   0.935   0.047  10.984  2.7941 -0.7006 -2.2300
  614MOL0     H84720   1.230  -0.260  11.120 -2.2978 -0.2718 -0.0564
  614MOL0     H84721   1.260  -0.143  11.241 -1.8588 -0.0361  1.7355
  614MOL0     H84722   1.029  -0.355  11.198  2.1265 -1.7230  1.0491
  614MOL0     H84723   0.998  -0.201  11.279  1.3195  2.4747  1.3683
  614MOL0     H84724   1.174  -0.445  11.366 -1.7992 -2.4939  4.6722
  614MOL0     H84725   1.187  -0.285  11.438  1.7304  1.3288 -1.8814
  614MOL0     H84726   0.919  -0.323  11.466 -1.8843 -1.4218 -1.7244
  614MOL0     H84727   1.041  -0.393  11.563 -2.4360  2.3195  0.3555
  614MOL0     H84728   0.891  -0.741  11.371  0.9612 -0.4510  0.7905
  614MOL0     H84729   1.290   0.068  11.236  1.8363  3.9490  1.3817
  614MOL0     H84730   1.366   0.384  11.226 -0.3355  1.5417  0.0362
  614MOL0     H84731   1.243   0.405  11.355 -2.9878 -2.4171 -0.5770
  614MOL0     H84732   1.344   0.262  11.359 -3.1236 -0.1124  2.7872
  615MOL0     O84733   5.163   1.295   2.455 -0.2117 -0.2934  0.7037
  615MOL0     C84734   5.044   1.303   2.487 -0.8639  1.0196  0.5443
  615MOL0     O84735   4.951   1.396   2.440 -0.3728  0.9798 -0.3239
  615MOL0     C84736   4.979   1.469   2.332 -0.3367  0.0710  0.6008
  615MOL0     C84737   5.045   1.415   2.215 -0.6980 -0.0554 -0.4366
  615MOL0     C84738   5.092   1.498   2.110 -0.0982 -0.1453 -0.5477
  615MOL0     C84739   5.059   1.630   2.119 -0.1109 -0.1885  0.0681
  615MOL0     O84740   5.114   1.720   2.025  0.5876  0.2413  0.6240
  615MOL0     C84741   5.188   1.682   1.901 -1.0349  0.9786  1.1092
  615MOL0     C84742   5.282   1.794   1.864 -0.8279  0.0015  0.3370
  615MOL0     C84743   5.209   1.922   1.820  0.4186 -0.0702 -0.2817
  615MOL0     C84744   5.304   2.040   1.789  1.4919  0.5988 -0.2148
  615MOL0     C84745   5.213   2.147   1.748 -0.4462 -0.2341  0.5623
  615MOL0     C84746   5.179   2.150   1.598 -0.3770 -0.3229  0.0096
  615MOL0     C84747   5.086   2.273   1.592 -0.2361  0.2984  0.1646
  615MOL0     C84748   5.016   2.284   1.454 -0.4340 -0.1582 -0.2693
  615MOL0     N84749   4.895   2.363   1.483 -0.6816 -1.2823  0.1407
  615MOL0     C84750   4.772   2.308   1.492 -0.1198 -0.3689  0.9552
  615MOL0     C84751   4.695   2.412   1.522  0.0871  0.7858 -0.3434
  615MOL0     C84752   4.549   2.387   1.541  0.0236 -0.0553  0.0416
  615MOL0     C84753   4.514   2.313   1.677 -0.6354 -0.0398  0.0762
  615MOL0     C84754   4.508   2.396   1.797  0.4896  0.0530  0.5589
  615MOL0     C84755   4.421   2.349   1.909  0.6388 -0.4914  0.7637
  615MOL0     O84756   4.452   2.217   1.952  0.3013 -0.4030  0.3651
  615MOL0     C84757   4.396   2.168   2.067 -0.7161  0.2386  0.4721
  615MOL0     C84758   4.316   2.242   2.160 -0.5148  0.1423  0.5373
  615MOL0     C84759   4.263   2.181   2.273  0.6470  0.5723 -0.7199
  615MOL0     C84760   4.188   2.270   2.377  0.5845 -0.1826 -0.7732
  615MOL0     C84761   4.274   2.040   2.280 -0.1414  0.0467 -0.0729
  615MOL0     C84762   4.198   1.959   2.379  0.2624  0.7990 -1.0065
  615MOL0     O84763   4.082   2.020   2.428 -0.7721 -0.2415 -0.1070
  615MOL0     C84764   4.034   1.973   2.548  0.3395  0.9636  0.6122
  615MOL0     C84765   4.101   1.960   2.677 -0.4579  0.3189 -0.2529
  615MOL0     C84766   4.035   1.914   2.792 -0.1799  0.8394 -1.5137
  615MOL0     C84767   3.899   1.886   2.790  1.0748 -1.0429 -0.0756
  615MOL0     O84768   3.833   1.859   2.909  0.5463  0.6366 -0.2371
  615MOL0     C84769   3.701   1.808   2.917  0.3331  0.3300 -0.3277
  615MOL0     C84770   3.704   1.658   2.911  0.3165 -0.1158 -0.4892
  615MOL0     C84771   3.563   1.599   2.904  0.4822  0.6280 -0.2490
  615MOL0     C84772   3.556   1.478   2.809 -0.0704 -0.6582  0.9905
  615MOL0     C84773   3.423   1.410   2.802 -0.7220 -0.1835 -0.9627
  615MOL0     C84774   3.432   1.305   2.688 -0.3927 -0.3934  0.1662
  615MOL0     C84775   3.298   1.227   2.679  0.8655  0.3143 -0.0477
  615MOL0     C84776   3.307   1.115   2.563 -0.9069 -0.1318  0.6035
  615MOL0    Cl84777   3.315   1.201   2.396  0.4086 -0.0432 -0.0748
  615MOL0     C84778   3.834   1.889   2.659 -0.6693 -1.0428 -0.2842
  615MOL0     C84779   3.899   1.943   2.541  0.2390 -0.0285 -0.8309
  615MOL0     O84780   4.263   1.861   2.427  0.3545  1.0651  0.4230
  615MOL0     C84781   4.355   1.965   2.187  0.4412  0.3536  0.0091
  615MOL0     C84782   4.421   2.030   2.086  0.2873 -0.4414  0.8682
  615MOL0     N84783   4.770   2.533   1.539  0.1183 -0.5971 -0.9073
  615MOL0     N84784   4.889   2.492   1.512  0.2375  0.1106  0.2815
  615MOL0     C84785   4.981   1.684   2.226 -0.0005  1.0620  0.5589
  615MOL0     C84786   4.945   1.599   2.329  0.3255  0.1066  0.7861
  615MOL0     C84787   4.995   1.227   2.604  0.2702 -0.0394 -0.4731
  615MOL0     C84788   4.910   1.296   2.696 -0.4389 -0.1190  0.9892
  615MOL0     C84789   4.875   1.243   2.819 -0.4904  0.3762 -0.7500
  615MOL0     C84790   4.928   1.116   2.859  0.9044 -0.2873 -0.6662
  615MOL0     O84791   4.899   1.064   2.989  0.1974 -0.5716  0.0712
  615MOL0     C84792   4.929   0.936   3.029 -0.0858  0.3049 -0.1145
  615MOL0     C84793   5.077   0.920   3.058 -0.0403 -1.4098  0.2196
  615MOL0     C84794   5.133   0.775   3.068 -0.1241  1.0547 -0.7543
  615MOL0     C84795   5.133   0.707   2.935 -0.9048  0.2946 -0.5945
  615MOL0     C84796   5.195   0.579   2.922  0.2568  0.1870  0.1094
  615MOL0     C84797   5.277   0.492   2.912 -1.0961  0.1990 -0.3151
  615MOL0     C84798   5.009   1.049   2.763  0.0975 -0.3513 -0.9423
  615MOL0     C84799   5.036   1.096   2.639  0.0747  0.0782  0.3552
  615MOL0     C84800   5.114   1.007   2.544 -0.5882  0.4499  0.4921
  615MOL0     H84801   5.090   1.316   2.208 -2.7034 -0.9996 -0.6763
  615MOL0     H84802   5.149   1.451   2.031  1.3150 -0.5440  0.6752
  615MOL0     H84803   5.119   1.672   1.817 -0.0001 -0.1885  0.3593
  615MOL0     H84804   5.239   1.585   1.910  0.0968  1.2485 -1.5833
  615MOL0     H84805   5.338   1.823   1.953  1.8333 -1.2645 -0.8300
  615MOL0     H84806   5.366   1.764   1.802 -2.4532 -1.5320 -1.2365
  615MOL0     H84807   5.158   1.875   1.735 -1.0135 -1.1021  1.0922
  615MOL0     H84808   5.138   1.947   1.898 -1.5644  0.7955 -2.2450
  615MOL0     H84809   5.357   2.076   1.878  1.3281  1.5338 -0.4938
  615MOL0     H84810   5.375   2.018   1.709  0.2137  1.8526 -1.7604
  615MOL0     H84811   5.282   2.232   1.751  0.3178 -0.7032 -1.8870
  615MOL0     H84812   5.125   2.153   1.813 -0.7758 -0.3130  0.1261
  615MOL0     H84813   5.267   2.180   1.540  1.1346 -2.7919  0.8761
  615MOL0     H84814   5.136   2.061   1.552 -0.8400  0.6113 -1.4412
  615MOL0     H84815   5.145   2.363   1.611  1.4431 -0.0573 -2.7899
  615MOL0     H84816   4.999   2.250   1.655 -0.6966  1.2091 -0.1157
  615MOL0     H84817   5.091   2.334   1.392 -0.0116  2.1428  1.9388
  615MOL0     H84818   5.004   2.179   1.423  3.6911 -1.0044  0.4028
  615MOL0     H84819   4.725   2.212   1.472 -1.1670  0.1297  0.9291
  615MOL0     H84820   4.512   2.339   1.450 -0.9406  3.0155 -1.3273
  615MOL0     H84821   4.510   2.489   1.551 -3.0234 -0.9713 -1.2270
  615MOL0     H84822   4.411   2.277   1.673 -0.3917 -0.7745  0.1090
  615MOL0     H84823   4.573   2.224   1.703 -0.3429  0.3351  0.7294
  615MOL0     H84824   4.609   2.422   1.831  1.1675 -0.8098 -0.7180
  615MOL0     H84825   4.452   2.486   1.769  0.3516 -0.3068 -0.3472
  615MOL0     H84826   4.427   2.426   1.986 -1.6577  1.7207 -1.1160
  615MOL0     H84827   4.318   2.348   1.873  1.0926  0.1664 -0.6447
  615MOL0     H84828   4.296   2.347   2.143 -0.9453  0.0068  0.2000
  615MOL0     H84829   4.203   2.377   2.359  1.4132  0.0180  0.9772
  615MOL0     H84830   4.207   2.251   2.483  4.1935  2.6549 -0.7198
  615MOL0     H84831   4.080   2.262   2.362  0.4314 -1.8810  0.9090
  615MOL0     H84832   4.205   1.989   2.690  0.0634 -1.6689  0.4643
  615MOL0     H84833   4.082   1.897   2.889 -2.4874 -1.6237 -0.6974
  615MOL0     H84834   3.653   1.847   3.007 -3.1972  1.4926 -2.5121
  615MOL0     H84835   3.639   1.855   2.840 -2.3155 -1.7410  0.3701
  615MOL0     H84836   3.773   1.612   2.839 -2.5668 -0.5450 -3.2121
  615MOL0     H84837   3.737   1.633   3.013 -4.3078  0.2286  1.3207
  615MOL0     H84838   3.494   1.673   2.864 -0.5564  0.0432  0.4273
  615MOL0     H84839   3.523   1.567   3.001  0.5079 -2.4859 -1.1770
  615MOL0     H84840   3.630   1.411   2.853  2.1796  1.1575  0.2149
  615MOL0     H84841   3.604   1.507   2.715  0.3542 -2.7015  0.5284
  615MOL0     H84842   3.392   1.372   2.900 -0.9969  0.8295 -0.6498
  615MOL0     H84843   3.340   1.481   2.794 -0.4506  0.3789  0.7116
  615MOL0     H84844   3.515   1.235   2.703 -0.1724  0.1561  1.6725
  615MOL0     H84845   3.462   1.361   2.599  0.6002 -0.8667  0.1899
  615MOL0     H84846   3.216   1.297   2.663  0.3724  0.9117  3.9096
  615MOL0     H84847   3.272   1.183   2.776  0.9326 -1.8805 -0.9635
  615MOL0     H84848   3.216   1.055   2.574 -2.4284  2.3454  2.8518
  615MOL0     H84849   3.399   1.056   2.569 -0.5187  0.1593 -1.7019
  615MOL0     H84850   3.727   1.872   2.656 -0.9435  0.6123 -1.6567
  615MOL0     H84851   3.836   1.974   2.458 -1.7546 -1.1471  0.1768
  615MOL0     H84852   4.364   1.857   2.186 -1.8701  0.1047 -1.0945
  615MOL0     H84853   4.490   1.984   2.016  0.1508  2.7210 -1.5689
  615MOL0     H84854   4.953   1.787   2.205  1.3905  1.5023  0.8047
  615MOL0     H84855   4.882   1.630   2.411  0.1781 -1.5972  1.3446
  615MOL0     H84856   4.875   1.395   2.666  0.1898 -0.2400 -0.2012
  615MOL0     H84857   4.809   1.308   2.875  0.7194 -0.4593  1.7843
  615MOL0     H84858   4.869   0.918   3.118 -1.8556  1.8005 -0.9167
  615MOL0     H84859   4.907   0.859   2.954  2.3547 -2.2208  1.5958
  615MOL0     H84860   5.094   0.952   3.161 -1.3022 -4.6629  1.5665
  615MOL0     H84861   5.141   0.975   2.989  1.0690 -1.1574  1.4129
  615MOL0     H84862   5.233   0.778   3.112 -0.3873 -3.2825  0.6239
  615MOL0     H84863   5.077   0.712   3.138 -0.7132  1.6572 -0.6653
  615MOL0     H84864   5.176   0.776   2.862 -1.5605 -0.2350 -1.5093
  615MOL0     H84865   5.026   0.691   2.917 -0.7023 -1.1566 -0.6021
  615MOL0     H84866   5.349   0.412   2.915 -1.0859  0.2476  1.4699
  615MOL0     H84867   5.045   0.949   2.784  0.2706 -0.2720 -0.8601
  615MOL0     H84868   5.057   0.993   2.451 -1.7475  1.6633  0.9852
  615MOL0     H84869   5.212   1.055   2.535 -0.7814  1.2533  2.2847
  615MOL0     H84870   5.135   0.908   2.585  1.3463  0.6275  0.0163
  616MOL0     O84871   9.423  10.807   8.283 -0.8597 -0.3605  0.3411
  616MOL0     C84872   9.353  10.815   8.389  0.2085 -0.3892  0.0430
  616MOL0     O84873   9.215  10.841   8.399  0.1579  0.1058  0.4048
  616MOL0     C84874   9.142  10.880   8.288  0.0523  0.1978 -0.6073
  616MOL0     C84875   9.172  10.969   8.180 -0.8251 -0.0857 -0.1804
  616MOL0     C84876   9.068  11.009   8.088 -0.6779 -0.1215  0.1150
  616MOL0     C84877   8.937  10.984   8.115  0.0016  0.0736 -0.2331
  616MOL0     O84878   8.823  11.042   8.052 -0.0425  0.7077  0.4131
  616MOL0     C84879   8.795  11.000   7.928 -0.3110 -0.3611  0.2672
  616MOL0     C84880   8.653  11.011   7.904  1.6929 -0.7825 -0.2516
  616MOL0     C84881   8.570  10.901   7.968 -0.4754  0.0587  0.1329
  616MOL0     C84882   8.435  10.962   7.992 -0.6133  1.0896  1.1591
  616MOL0     C84883   8.429  11.016   8.134 -0.0508  0.0763 -0.1194
  616MOL0     C84884   8.442  10.909   8.242 -0.3788  0.6075 -0.8358
  616MOL0     C84885   8.417  10.981   8.374  0.6595 -0.1448 -0.6572
  616MOL0     C84886   8.435  10.896   8.484  0.1130  0.4286  0.0844
  616MOL0     N84887   8.330  10.910   8.584 -0.3387 -0.1792  0.0457
  616MOL0     C84888   8.195  10.896   8.548  1.0507 -0.3031  0.0985
  616MOL0     C84889   8.127  10.896   8.661 -0.3588 -0.4786  0.1533
  616MOL0     C84890   7.971  10.886   8.670 -0.3789  0.7154 -0.1921
  616MOL0     C84891   7.942  10.883   8.823 -0.7291  0.5075  0.7007
  616MOL0     C84892   7.791  10.914   8.837  0.0810  0.2750 -0.3236
  616MOL0     C84893   7.775  10.968   8.979 -0.4635  0.8897  0.2466
  616MOL0     O84894   7.635  10.962   8.999  0.4006  0.1036 -0.0531
  616MOL0     C84895   7.581  11.024   9.104  0.1108 -0.7407 -0.2930
  616MOL0     C84896   7.643  11.096   9.203  0.2377 -1.0129 -0.4084
  616MOL0     C84897   7.565  11.174   9.297  0.3961  1.0792  0.3861
  616MOL0     C84898   7.652  11.237   9.403  0.8172 -0.2173  0.6323
  616MOL0     C84899   7.418  11.156   9.293 -0.5661 -0.7419 -0.2417
  616MOL0     C84900   7.332  11.206   9.405 -0.4699 -0.0873  0.6217
  616MOL0     O84901   7.394  11.236   9.519 -0.4538 -0.2314  0.1562
  616MOL0     C84902   7.329  11.302   9.620 -0.5315 -0.5142 -0.1160
  616MOL0     C84903   7.259  11.237   9.721  0.4270  1.0413 -0.2116
  616MOL0     C84904   7.186  11.307   9.817  0.1559 -0.1873 -0.2475
  616MOL0     C84905   7.181  11.446   9.815  0.4110  0.2950  2.2299
  616MOL0     O84906   7.107  11.513   9.905 -0.5562  0.4297 -0.4865
  616MOL0     C84907   6.995  11.574   9.842 -0.5785  0.6796  0.5918
  616MOL0     C84908   6.870  11.557   9.931 -0.7736 -0.3514  0.0252
  616MOL0     C84909   6.755  11.628   9.872 -0.2390  1.1726 -0.6128
  616MOL0     C84910   6.753  11.783   9.896  0.7929 -0.8398 -0.0335
  616MOL0     C84911   6.652  11.860   9.816 -0.2319 -0.2553 -0.2739
  616MOL0     C84912   6.703  11.993   9.756  0.6715  0.5763  0.4382
  616MOL0     C84913   6.602  12.079   9.676  0.0013 -0.2637  0.3991
  616MOL0     C84914   6.659  12.193   9.586  0.3324 -0.1049 -0.1922
  616MOL0    Cl84915   6.737  12.119   9.432 -0.8561 -0.0113  0.2861
  616MOL0     C84916   7.257  11.506   9.719  0.1618  0.2322  0.0050
  616MOL0     C84917   7.323  11.438   9.620 -0.2975 -1.1060  0.3652
  616MOL0     O84918   7.212  11.228   9.380 -0.7318  0.2935  0.3705
  616MOL0     C84919   7.360  11.089   9.185  0.4332 -0.1921 -0.5185
  616MOL0     C84920   7.446  11.036   9.092  0.0514 -0.3047  0.7251
  616MOL0     N84921   8.221  10.911   8.760  0.2261 -0.3334 -0.2517
  616MOL0     N84922   8.341  10.923   8.714 -0.1971  0.8316  0.0377
  616MOL0     C84923   8.913  10.889   8.214 -0.4347  1.3181 -0.1691
  616MOL0     C84924   9.015  10.832   8.297 -0.2471  0.5283  0.3809
  616MOL0     C84925   9.411  10.780   8.513  0.8116  0.2065  0.1004
  616MOL0     C84926   9.394  10.650   8.546 -0.0521  0.8666 -0.3398
  616MOL0     C84927   9.433  10.598   8.666  0.6395 -0.0185  0.3245
  616MOL0     C84928   9.503  10.685   8.753  0.3596 -0.3995 -0.0246
  616MOL0     O84929   9.556  10.642   8.874  0.1217  0.0530  0.2470
  616MOL0     C84930   9.548  10.501   8.905  0.4194  0.0287 -0.8526
  616MOL0     C84931   9.633  10.469   9.035 -0.0494  0.2004  1.3225
  616MOL0     C84932   9.776  10.434   8.994 -0.0368 -0.0694 -0.0374
  616MOL0     C84933   9.848  10.557   8.955 -0.4038  0.1158 -0.4893
  616MOL0     C84934   9.982  10.525   8.900  0.4958  0.2771  0.1473
  616MOL0     C84935  10.084  10.470   8.857 -0.6911  0.2110 -0.2583
  616MOL0     C84936   9.524  10.819   8.716 -0.0809  1.0289 -0.1876
  616MOL0     C84937   9.480  10.867   8.589  0.4842  0.0165  0.1975
  616MOL0     C84938   9.508  11.017   8.559  0.6576 -0.1736 -1.5093
  616MOL0     H84939   9.272  11.009   8.173 -1.0413  0.4443 -0.2687
  616MOL0     H84940   9.085  11.077   8.005 -0.8816  2.3739  2.0303
  616MOL0     H84941   8.836  10.900   7.914  4.3435  1.3389 -0.0190
  616MOL0     H84942   8.856  11.064   7.863  1.7021  1.1927  3.3980
  616MOL0     H84943   8.633  11.110   7.947  0.6834  0.7391 -3.8250
  616MOL0     H84944   8.635  11.015   7.796 -2.6556  0.2779  0.3031
  616MOL0     H84945   8.565  10.824   7.891  0.0712 -0.6134  0.7552
  616MOL0     H84946   8.630  10.864   8.051  0.4488 -2.5232 -1.5494
  616MOL0     H84947   8.403  11.037   7.920 -1.5972 -0.4731 -0.0808
  616MOL0     H84948   8.361  10.882   7.989 -0.6203  1.1271 -0.3148
  616MOL0     H84949   8.340  11.079   8.147 -1.2724 -1.0967 -2.3377
  616MOL0     H84950   8.509  11.090   8.149  2.6300 -2.5554 -0.5158
  616MOL0     H84951   8.379  10.820   8.225  0.6746  0.1302 -2.5005
  616MOL0     H84952   8.542  10.868   8.255 -1.1664 -0.5199  2.9514
  616MOL0     H84953   8.315  11.020   8.380  0.5211 -0.4159 -1.1920
  616MOL0     H84954   8.488  11.062   8.392 -1.5625  1.4175  1.9520
  616MOL0     H84955   8.441  10.791   8.452  0.7642  0.3087  0.5761
  616MOL0     H84956   8.524  10.927   8.539  0.0755 -2.2460  1.8381
  616MOL0     H84957   8.154  10.886   8.448  5.0884 -1.1291 -1.6347
  616MOL0     H84958   7.941  10.793   8.621  0.4946  0.5147 -0.3668
  616MOL0     H84959   7.931  10.975   8.620 -1.1560 -1.8804 -4.7878
  616MOL0     H84960   7.982  10.788   8.858  0.3469  0.2961 -0.9713
  616MOL0     H84961   7.994  10.963   8.877 -1.1771  1.3797 -0.1298
  616MOL0     H84962   7.740  10.986   8.772  0.1796 -0.5032 -1.2920
  616MOL0     H84963   7.744  10.815   8.839  2.8415 -1.1501  1.9058
  616MOL0     H84964   7.826  10.914   9.060 -2.5804 -0.8968  0.4972
  616MOL0     H84965   7.798  11.075   8.978 -1.6093  1.1700  1.2486
  616MOL0     H84966   7.750  11.111   9.212  0.3133  1.2831 -3.4716
  616MOL0     H84967   7.757  11.245   9.372 -0.2039 -1.7428 -3.8201
  616MOL0     H84968   7.656  11.170   9.490  2.3320 -3.6217 -1.8223
  616MOL0     H84969   7.621  11.339   9.427 -0.1409  0.3170 -2.4922
  616MOL0     H84970   7.269  11.130   9.713  1.9288  1.1132  0.2024
  616MOL0     H84971   7.126  11.259   9.894  1.4029  2.4055  2.5226
  616MOL0     H84972   7.008  11.679   9.814 -0.3199  0.4708 -0.0871
  616MOL0     H84973   6.974  11.526   9.746 -0.6005 -0.6884  1.2652
  616MOL0     H84974   6.857  11.449   9.946  2.4478 -0.7256  0.8985
  616MOL0     H84975   6.887  11.601  10.030 -0.5275  3.4847 -1.5511
  616MOL0     H84976   6.668  11.576   9.912  0.6587 -0.6256 -0.8750
  616MOL0     H84977   6.755  11.602   9.765  0.1353 -1.1490 -0.1078
  616MOL0     H84978   6.851  11.813   9.859 -0.7149  2.4044 -1.8213
  616MOL0     H84979   6.732  11.793  10.003 -2.2452 -0.2282 -0.6058
  616MOL0     H84980   6.618  11.804   9.729 -1.7372  3.0399 -2.0100
  616MOL0     H84981   6.561  11.879   9.873  0.5124  1.1026  0.5445
  616MOL0     H84982   6.800  11.968   9.713  1.4991  2.0285  1.3679
  616MOL0     H84983   6.739  12.051   9.841  0.8070  0.4713  0.4523
  616MOL0     H84984   6.540  12.131   9.750  0.0942  2.7849 -1.5077
  616MOL0     H84985   6.549  12.014   9.606  0.5190 -0.2092 -0.0458
  616MOL0     H84986   6.731  12.244   9.651  1.0593 -1.7354  0.3372
  616MOL0     H84987   6.571  12.255   9.565  0.3156  0.9325  2.4812
  616MOL0     H84988   7.254  11.613   9.703  1.5168 -0.2201 -4.6345
  616MOL0     H84989   7.375  11.490   9.540 -1.0794  0.1931  0.6679
  616MOL0     H84990   7.256  11.097   9.153  0.5322 -0.5118 -0.9189
  616MOL0     H84991   7.405  11.005   8.996  2.3153  3.6504 -1.8247
  616MOL0     H84992   8.815  10.851   8.237 -0.1027 -0.5237 -1.5738
  616MOL0     H84993   8.981  10.773   8.382 -3.7529  2.3411  0.4429
  616MOL0     H84994   9.347  10.583   8.475 -1.3423  0.0069  1.2632
  616MOL0     H84995   9.401  10.500   8.702 -1.2379 -0.0533 -1.2655
  616MOL0     H84996   9.445  10.480   8.936 -0.0390  2.0183 -0.9005
  616MOL0     H84997   9.578  10.443   8.817 -1.6401  1.8303 -2.8637
  616MOL0     H84998   9.595  10.377   9.080 -0.0247 -0.5241 -0.1118
  616MOL0     H84999   9.617  10.541   9.116 -0.0018  0.3918  1.1608
  616MOL0     H85000   9.827  10.394   9.082  1.0304 -1.5228 -1.2664
  616MOL0     H85001   9.780  10.366   8.908  1.2890  2.8318 -2.4850
  616MOL0     H85002   9.862  10.631   9.034  1.2618  1.8993 -2.3086
  616MOL0     H85003   9.796  10.608   8.873 -0.7330 -2.0991 -1.7438
  616MOL0     H85004  10.184  10.434   8.839 -0.1500 -0.0653  2.8172
  616MOL0     H85005   9.592  10.887   8.767  0.8864 -0.4854  0.6506
  616MOL0     H85006   9.541  11.069   8.649 -1.2377 -0.9649 -0.2847
  616MOL0     H85007   9.583  11.031   8.481  2.1220  0.0524 -0.1132
  616MOL0     H85008   9.412  11.057   8.528  0.9925  1.4707 -0.5404
  617MOL0     O85009   0.187   6.296   8.386  0.3161 -0.6592 -0.0480
  617MOL0     C85010   0.225   6.180   8.395 -0.8531  0.7987  0.9939
  617MOL0     O85011   0.200   6.083   8.312  0.4720 -0.3666 -0.1715
  617MOL0     C85012   0.201   6.099   8.177  0.4265 -0.2510  0.7407
  617MOL0     C85013   0.247   6.213   8.109  0.5488 -0.2014  0.1342
  617MOL0     C85014   0.244   6.233   7.969 -0.8333 -0.9768 -0.0044
  617MOL0     C85015   0.187   6.128   7.892  0.0588 -0.5065 -0.2815
  617MOL0     O85016   0.180   6.128   7.754  0.4511 -0.0543 -0.6786
  617MOL0     C85017   0.157   6.245   7.682 -1.0271 -0.0323 -0.0549
  617MOL0     C85018   0.132   6.202   7.534  0.3970  0.3647 -0.6319
  617MOL0     C85019   0.024   6.095   7.523  0.1777  1.1404 -0.2256
  617MOL0     C85020  -0.115   6.130   7.582 -0.2081  0.8515  0.0999
  617MOL0     C85021  -0.204   6.234   7.504  0.2634  0.4937  0.4231
  617MOL0     C85022  -0.329   6.272   7.575  0.2325  0.1707 -0.0149
  617MOL0     C85023  -0.312   6.339   7.715 -0.3624  0.1731 -0.7784
  617MOL0     C85024  -0.315   6.484   7.719  0.4551 -0.1185 -0.1457
  617MOL0     N85025  -0.242   6.524   7.848  0.3259 -0.4861  0.1744
  617MOL0     C85026  -0.284   6.503   7.980  1.1203 -0.8766 -0.2107
  617MOL0     C85027  -0.172   6.527   8.048 -0.4179 -0.1037  0.2487
  617MOL0     C85028  -0.154   6.493   8.195 -0.5050  0.0049 -0.4852
  617MOL0     C85029  -0.101   6.356   8.200 -0.5083 -0.0777 -0.7232
  617MOL0     C85030  -0.213   6.251   8.205  0.0530  0.9045  0.3103
  617MOL0     C85031  -0.154   6.115   8.190 -1.3735  0.6339 -0.4240
  617MOL0     O85032  -0.264   6.019   8.206 -0.5931  0.4479  0.4128
  617MOL0     C85033  -0.337   5.992   8.093  0.5492 -0.0364  0.2418
  617MOL0     C85034  -0.472   5.965   8.127 -0.0386  0.4130  0.2946
  617MOL0     C85035  -0.570   5.934   8.024 -0.0985  0.0199  0.1921
  617MOL0     C85036  -0.708   5.901   8.066 -0.1492  0.0076  1.6936
  617MOL0     C85037  -0.524   5.923   7.886 -0.7924 -0.5039  0.0015
  617MOL0     C85038  -0.602   5.878   7.770  0.2631  0.3426  0.1968
  617MOL0     O85039  -0.736   5.830   7.790 -0.1518  0.4952 -0.5940
  617MOL0     C85040  -0.827   5.812   7.698  0.7719  0.5872  0.0536
  617MOL0     C85041  -0.951   5.873   7.708 -0.2492 -0.0667  0.4680
  617MOL0     C85042  -1.049   5.842   7.607 -0.2807 -0.0658  0.2413
  617MOL0     C85043  -1.028   5.735   7.521 -0.0612  0.4610  0.1226
  617MOL0     O85044  -1.108   5.692   7.422 -0.3254 -0.0105 -0.0585
  617MOL0     C85045  -1.239   5.732   7.430  0.9780 -0.4306  0.8242
  617MOL0     C85046  -1.316   5.636   7.341 -0.1174  0.2372  0.1029
  617MOL0     C85047  -1.470   5.639   7.339 -0.1944  0.6624  0.1868
  617MOL0     C85048  -1.517   5.528   7.243  0.4568  0.4747  0.5948
  617MOL0     C85049  -1.667   5.529   7.202  0.8708 -1.2325 -0.0152
  617MOL0     C85050  -1.675   5.417   7.090  0.2644  0.9313 -0.2781
  617MOL0     C85051  -1.823   5.376   7.083  0.2464  0.0375  0.3088
  617MOL0     C85052  -1.863   5.274   6.979  0.1684 -0.4805  0.2292
  617MOL0    Cl85053  -1.794   5.125   7.018  0.0247 -0.4735 -0.5366
  617MOL0     C85054  -0.907   5.682   7.518 -0.7481 -0.6048  0.5987
  617MOL0     C85055  -0.804   5.714   7.606 -0.7783 -0.3887 -0.4040
  617MOL0     O85056  -0.551   5.893   7.658 -0.1983 -0.4310 -0.3736
  617MOL0     C85057  -0.392   5.965   7.856 -0.1154 -1.2210 -0.6861
  617MOL0     C85058  -0.301   6.006   7.957 -0.3794 -0.4772  0.1395
  617MOL0     N85059  -0.062   6.562   7.959  0.8386  0.7823 -0.3951
  617MOL0     N85060  -0.114   6.565   7.841  0.4329 -0.3876  0.1441
  617MOL0     C85061   0.143   6.012   7.956  0.1433  0.1391  0.3292
  617MOL0     C85062   0.155   5.994   8.096 -0.2884  0.9587  0.9216
  617MOL0     C85063   0.301   6.132   8.513 -0.4109 -0.6332 -0.1145
  617MOL0     C85064   0.363   6.236   8.589 -0.5909  0.0372  0.2471
  617MOL0     C85065   0.448   6.193   8.697  0.5581 -0.2083  0.6848
  617MOL0     C85066   0.458   6.059   8.737 -1.0250 -1.1016 -0.0516
  617MOL0     O85067   0.513   6.025   8.862  0.3095  0.1781  0.0582
  617MOL0     C85068   0.546   6.126   8.954  0.0010 -0.3822 -0.0842
  617MOL0     C85069   0.637   6.050   9.053 -0.9741 -0.6758  0.1662
  617MOL0     C85070   0.774   6.101   9.083  0.0732  0.0914 -0.0421
  617MOL0     C85071   0.853   6.001   9.164  0.0859 -0.1806  0.4479
  617MOL0     C85072   0.993   6.012   9.151 -0.7985  0.1245 -0.1047
  617MOL0     C85073   1.115   6.035   9.139 -0.2217  0.3396  1.0423
  617MOL0     C85074   0.397   5.955   8.669  0.7528  0.1324  0.8272
  617MOL0     C85075   0.318   5.996   8.555  0.1762  0.7868  0.8869
  617MOL0     C85076   0.220   5.885   8.504  0.7832 -0.3395  0.1570
  617MOL0     H85077   0.286   6.292   8.172 -3.6438  0.7762  1.8105
  617MOL0     H85078   0.282   6.329   7.936 -1.0020 -1.2730 -1.0997
  617MOL0     H85079   0.249   6.301   7.666 -2.0466  1.2173 -2.0033
  617MOL0     H85080   0.075   6.303   7.726  0.8193  2.2358  0.5499
  617MOL0     H85081   0.098   6.290   7.479  1.8532  2.6367  1.8421
  617MOL0     H85082   0.224   6.159   7.495  0.2572  0.9873 -1.6831
  617MOL0     H85083   0.006   6.076   7.417 -1.2306  0.2923  0.1397
  617MOL0     H85084   0.059   6.008   7.580 -0.4120  1.4039  0.5595
  617MOL0     H85085  -0.177   6.040   7.589  1.7341 -0.4917  0.8437
  617MOL0     H85086  -0.105   6.147   7.689  3.3545 -1.5093  0.3082
  617MOL0     H85087  -0.226   6.189   7.407  0.3543  3.3229 -0.9814
  617MOL0     H85088  -0.152   6.323   7.470 -2.8012  4.1677  4.2354
  617MOL0     H85089  -0.385   6.345   7.516 -1.3216 -0.5985  0.4831
  617MOL0     H85090  -0.393   6.184   7.579  0.2311  0.2141  2.3092
  617MOL0     H85091  -0.225   6.311   7.777 -0.4977  2.2932  0.4714
  617MOL0     H85092  -0.402   6.303   7.765  0.2960 -1.7613 -0.8955
  617MOL0     H85093  -0.269   6.520   7.626  1.4427  0.5115  0.5660
  617MOL0     H85094  -0.419   6.518   7.712  0.0587 -1.5172 -1.8459
  617MOL0     H85095  -0.378   6.473   8.025 -0.8441  2.1602 -1.9237
  617MOL0     H85096  -0.253   6.499   8.241 -1.4315  1.9472 -2.5428
  617MOL0     H85097  -0.094   6.568   8.247  0.1691 -2.3667  2.4636
  617MOL0     H85098  -0.043   6.327   8.113  0.0012  1.2857 -0.8697
  617MOL0     H85099  -0.041   6.349   8.292  0.2553  1.0719 -1.1090
  617MOL0     H85100  -0.274   6.249   8.296  0.3174 -0.5715  0.4860
  617MOL0     H85101  -0.286   6.270   8.125 -0.1115  0.1031  0.2534
  617MOL0     H85102  -0.106   6.097   8.093 -0.9532  0.1715 -0.1311
  617MOL0     H85103  -0.081   6.104   8.271 -0.3806  3.2654 -0.8410
  617MOL0     H85104  -0.502   5.954   8.231 -1.0821  0.0599 -0.0282
  617MOL0     H85105  -0.732   5.795   8.054 -1.3257  0.6132 -4.7138
  617MOL0     H85106  -0.785   5.941   8.000  2.5190  1.2701 -0.8240
  617MOL0     H85107  -0.730   5.931   8.169  0.5929 -0.2863  1.9498
  617MOL0     H85108  -0.963   5.945   7.789  1.2887 -0.5604  1.1716
  617MOL0     H85109  -1.147   5.888   7.613  0.1741  0.7126  2.3010
  617MOL0     H85110  -1.276   5.727   7.532  0.7942  0.4380  0.8054
  617MOL0     H85111  -1.255   5.832   7.389 -3.4671 -1.8491 -1.4990
  617MOL0     H85112  -1.291   5.656   7.236  0.7199 -1.5605 -0.0938
  617MOL0     H85113  -1.289   5.535   7.373  0.7640  0.0849 -1.0274
  617MOL0     H85114  -1.503   5.729   7.286  2.0980  1.2444 -0.3846
  617MOL0     H85115  -1.519   5.635   7.437  2.1795  3.6056  1.6894
  617MOL0     H85116  -1.484   5.430   7.278 -0.9767 -1.1183 -2.2283
  617MOL0     H85117  -1.468   5.525   7.145 -1.5280 -1.3764 -0.4342
  617MOL0     H85118  -1.729   5.508   7.290  1.5451  0.7406  0.9894
  617MOL0     H85119  -1.696   5.624   7.155 -1.3501 -2.0719 -0.5021
  617MOL0     H85120  -1.618   5.329   7.121 -2.7462 -1.7778 -1.8913
  617MOL0     H85121  -1.629   5.454   6.998  0.2381  5.6792  1.3279
  617MOL0     H85122  -1.888   5.460   7.057 -2.3007 -1.6748  0.7674
  617MOL0     H85123  -1.851   5.346   7.185 -0.7397 -1.4953 -0.3780
  617MOL0     H85124  -1.823   5.319   6.888  2.9910 -0.4811  1.3684
  617MOL0     H85125  -1.971   5.274   6.965  0.5726 -0.2664 -3.9592
  617MOL0     H85126  -0.878   5.611   7.441 -0.9901  0.4150 -0.4558
  617MOL0     H85127  -0.708   5.666   7.616 -1.0692 -0.9178 -0.0685
  617MOL0     H85128  -0.350   5.959   7.756 -2.4860 -0.8248 -1.7847
  617MOL0     H85129  -0.197   6.021   7.929  0.2830 -3.1927  0.8475
  617MOL0     H85130   0.085   5.941   7.897 -1.5063  0.4313  1.5291
  617MOL0     H85131   0.127   5.901   8.146 -0.8108  0.9833  0.6802
  617MOL0     H85132   0.360   6.334   8.543 -1.0875  0.0508  0.3002
  617MOL0     H85133   0.506   6.277   8.736  1.5652 -0.6125  0.0864
  617MOL0     H85134   0.600   6.216   8.923 -1.2930  0.5262  0.2355
  617MOL0     H85135   0.461   6.164   9.011 -0.8003 -2.1648 -0.0009
  617MOL0     H85136   0.646   5.950   9.009 -2.3596 -0.8449  0.2254
  617MOL0     H85137   0.589   6.032   9.150 -2.8885 -2.3734 -1.0134
  617MOL0     H85138   0.824   6.125   8.989  0.7780  2.5373  0.8708
  617MOL0     H85139   0.762   6.194   9.139 -0.4159  0.3760 -0.6115
  617MOL0     H85140   0.825   5.902   9.128 -2.6674  0.8867 -0.5967
  617MOL0     H85141   0.825   5.996   9.270  0.2170  1.1414  0.5592
  617MOL0     H85142   1.216   6.064   9.118 -0.2133  1.0358  1.9922
  617MOL0     H85143   0.402   5.855   8.713  0.8792 -0.1077  0.2662
  617MOL0     H85144   0.119   5.923   8.518  0.4645 -1.9433  3.2904
  617MOL0     H85145   0.233   5.855   8.399 -0.2016 -0.9327  0.1957
  617MOL0     H85146   0.201   5.795   8.564 -4.3257  0.0431 -0.4623
  618MOL0     O85147   8.055   6.760   5.163 -0.1814 -0.0126  0.3851
  618MOL0     C85148   8.113   6.794   5.066 -0.1977 -0.0115 -0.0049
  618MOL0     O85149   8.112   6.922   5.010  0.0944  0.3658  0.1168
  618MOL0     C85150   8.052   7.030   5.069  0.9623 -0.5079  0.4935
  618MOL0     C85151   7.998   7.046   5.197  0.2539  0.2511 -0.0801
  618MOL0     C85152   7.923   7.161   5.231 -0.2679  0.1020  0.5142
  618MOL0     C85153   7.918   7.270   5.146 -0.8065 -0.5713 -0.8013
  618MOL0     O85154   7.858   7.400   5.167  0.9180  0.5270 -0.1634
  618MOL0     C85155   7.763   7.404   5.272  0.3133  0.5777 -0.7676
  618MOL0     C85156   7.715   7.551   5.272 -0.6312  0.1540 -0.2616
  618MOL0     C85157   7.771   7.610   5.395  0.8405  0.7715  0.3722
  618MOL0     C85158   7.743   7.763   5.412 -1.2085 -0.7784 -0.5906
  618MOL0     C85159   7.824   7.836   5.528  0.1123  0.5888 -0.3189
  618MOL0     C85160   7.749   7.975   5.574  0.4645  0.5828  0.4464
  618MOL0     C85161   7.804   8.006   5.709 -0.6155  0.1740  0.1553
  618MOL0     C85162   7.755   8.142   5.761 -0.3702 -1.1958  0.0551
  618MOL0     N85163   7.812   8.260   5.697  0.5748  0.2998  0.3523
  618MOL0     C85164   7.942   8.301   5.720  0.4615 -0.6383 -0.5120
  618MOL0     C85165   7.970   8.388   5.617 -0.2221  0.1333 -0.1295
  618MOL0     C85166   8.096   8.486   5.623 -0.6356  0.6713 -0.1062
  618MOL0     C85167   8.105   8.602   5.528 -0.3261  0.2432 -0.1300
  618MOL0     C85168   8.237   8.666   5.493 -0.8158 -0.0606 -0.4951
  618MOL0     C85169   8.308   8.714   5.627  0.1172 -0.3882  0.9373
  618MOL0     O85170   8.408   8.619   5.677 -0.1461  0.0750 -0.6542
  618MOL0     C85171   8.497   8.557   5.587  0.8957  0.4577 -0.7263
  618MOL0     C85172   8.554   8.630   5.478  0.1813 -0.4443 -0.7312
  618MOL0     C85173   8.634   8.570   5.386 -0.6813 -0.7173  0.0530
  618MOL0     C85174   8.693   8.660   5.277 -0.1109  0.1827 -0.4989
  618MOL0     C85175   8.651   8.428   5.391  0.5326 -0.0198  0.5101
  618MOL0     C85176   8.748   8.361   5.293  1.1575 -0.2290 -0.4943
  618MOL0     O85177   8.817   8.430   5.211 -0.4702 -0.0007 -0.3506
  618MOL0     C85178   8.892   8.362   5.108  0.8808  0.9896 -0.5678
  618MOL0     C85179   9.019   8.408   5.073 -0.6784  0.1773 -0.5621
  618MOL0     C85180   9.086   8.352   4.962 -0.4104  0.0303  0.4679
  618MOL0     C85181   9.030   8.244   4.884  0.2062  0.2349  0.1982
  618MOL0     O85182   9.099   8.197   4.778  0.0284 -0.1305  0.4249
  618MOL0     C85183   9.242   8.176   4.789 -0.4634  0.4236  0.2742
  618MOL0     C85184   9.286   8.097   4.657  0.5920  0.1807  0.3263
  618MOL0     C85185   9.296   8.173   4.523 -0.1697  1.0187 -0.5470
  618MOL0     C85186   9.281   8.077   4.407 -0.4913 -1.2978  0.3336
  618MOL0     C85187   9.323   8.145   4.271  0.8941 -0.0683 -0.7704
  618MOL0     C85188   9.293   8.058   4.144 -0.0022 -0.5795  0.5520
  618MOL0     C85189   9.346   8.108   4.009  0.6778  0.7209  0.0725
  618MOL0     C85190   9.310   8.027   3.880 -0.6085 -0.1564 -0.3839
  618MOL0    Cl85191   9.135   8.011   3.865 -0.0858 -0.1291  0.3717
  618MOL0     C85192   8.900   8.193   4.917 -0.2231  0.1792 -0.4727
  618MOL0     C85193   8.840   8.253   5.035  0.8380  0.0627  0.8895
  618MOL0     O85194   8.760   8.249   5.328 -0.6570  0.7444 -0.1054
  618MOL0     C85195   8.579   8.354   5.491 -1.2729  0.0875 -0.0709
  618MOL0     C85196   8.504   8.420   5.590 -1.4727  1.2297 -0.5348
  618MOL0     N85197   7.865   8.383   5.532  0.3825  0.6210  0.0419
  618MOL0     N85198   7.774   8.310   5.573 -0.3343  0.2929 -0.8211
  618MOL0     C85199   7.995   7.262   5.038 -0.3060  0.2699  0.6204
  618MOL0     C85200   8.057   7.147   4.991 -0.5136  0.4040  0.4918
  618MOL0     C85201   8.191   6.686   5.003  0.0838  0.9091  1.0436
  618MOL0     C85202   8.204   6.562   5.072 -0.1160  0.2430 -0.0953
  618MOL0     C85203   8.259   6.454   5.020  0.8878 -0.6844  1.1481
  618MOL0     C85204   8.318   6.462   4.894 -0.8037 -0.4345  0.5681
  618MOL0     O85205   8.388   6.356   4.840  0.4844  0.1446 -0.4345
  618MOL0     C85206   8.405   6.236   4.922  0.2130  0.8268 -0.2048
  618MOL0     C85207   8.506   6.249   5.034  0.3453 -0.8559  0.7440
  618MOL0     C85208   8.633   6.311   4.976 -0.6480 -0.1236  0.4306
  618MOL0     C85209   8.649   6.466   4.980  0.4736  0.2266 -0.4260
  618MOL0     C85210   8.787   6.503   4.996 -0.9261 -0.0585  0.5754
  618MOL0     C85211   8.898   6.546   4.975 -0.3658  0.1736 -0.4202
  618MOL0     C85212   8.306   6.580   4.815 -0.2325  0.1662 -0.5966
  618MOL0     C85213   8.236   6.691   4.864 -0.6384 -0.2111  0.3608
  618MOL0     C85214   8.195   6.800   4.764  0.8635 -0.8776 -0.7708
  618MOL0     H85215   7.984   6.961   5.263 -0.9671 -0.2589 -0.9523
  618MOL0     H85216   7.866   7.154   5.323 -0.2737 -0.2859  0.4809
  618MOL0     H85217   7.801   7.377   5.371 -0.0165  0.5541 -0.6485
  618MOL0     H85218   7.695   7.326   5.238 -1.1941  0.8237  1.4708
  618MOL0     H85219   7.745   7.606   5.182 -0.0181 -0.4924 -0.4634
  618MOL0     H85220   7.607   7.540   5.285 -0.6940  0.1372 -0.7669
  618MOL0     H85221   7.719   7.562   5.478  1.9336  3.6226  2.8967
  618MOL0     H85222   7.879   7.598   5.403  0.4886 -1.7185  2.7319
  618MOL0     H85223   7.762   7.812   5.316  0.9659 -1.2617 -0.4567
  618MOL0     H85224   7.641   7.775   5.450 -0.3388  1.3713  1.2549
  618MOL0     H85225   7.932   7.842   5.514  0.2426 -1.6652 -0.6739
  618MOL0     H85226   7.817   7.777   5.620 -1.5331  0.2035 -0.6549
  618MOL0     H85227   7.767   8.058   5.505  4.9537  1.2455  2.1211
  618MOL0     H85228   7.642   7.957   5.585  0.4790 -1.7272 -1.9733
  618MOL0     H85229   7.913   8.007   5.705 -0.6522  0.1368 -1.3622
  618MOL0     H85230   7.777   7.932   5.785 -1.0641 -1.8024 -1.8402
  618MOL0     H85231   7.646   8.145   5.760 -0.3623  2.4400 -1.1892
  618MOL0     H85232   7.791   8.147   5.864 -1.2257 -2.0430  0.4086
  618MOL0     H85233   7.996   8.280   5.812 -0.4382 -4.9878 -0.7525
  618MOL0     H85234   8.186   8.426   5.603 -0.6750  0.7910 -0.6833
  618MOL0     H85235   8.096   8.522   5.726 -1.1684 -2.2963  1.0400
  618MOL0     H85236   8.075   8.545   5.439  2.0002  1.5724 -1.8664
  618MOL0     H85237   8.034   8.682   5.552  1.0609  0.5018  3.8933
  618MOL0     H85238   8.298   8.592   5.441  0.7565  1.2760 -0.6383
  618MOL0     H85239   8.219   8.753   5.428  1.4243  2.4320  1.9640
  618MOL0     H85240   8.368   8.803   5.608 -0.6994 -0.0839 -0.3968
  618MOL0     H85241   8.238   8.741   5.707  1.5152 -0.5157  2.2388
  618MOL0     H85242   8.538   8.737   5.473 -1.5154 -0.4988  1.7467
  618MOL0     H85243   8.676   8.617   5.178 -0.0618  2.3851 -1.5337
  618MOL0     H85244   8.792   8.692   5.310 -0.8679  2.2693 -0.0772
  618MOL0     H85245   8.635   8.753   5.272 -0.3779  0.0849  0.5495
  618MOL0     H85246   9.066   8.487   5.132  1.3139  0.2418 -2.1197
  618MOL0     H85247   9.179   8.389   4.919 -1.1909 -1.1067 -2.4993
  618MOL0     H85248   9.296   8.270   4.805 -0.6920  0.4661  0.8040
  618MOL0     H85249   9.259   8.106   4.872 -2.5223 -0.2723  0.1590
  618MOL0     H85250   9.382   8.049   4.678  1.0614  1.8816  2.4047
  618MOL0     H85251   9.209   8.020   4.644 -0.3564  0.9973  1.0245
  618MOL0     H85252   9.394   8.222   4.530 -0.6248  1.7883  0.7137
  618MOL0     H85253   9.218   8.249   4.517 -2.4109 -0.8729  2.2706
  618MOL0     H85254   9.180   8.034   4.403 -2.3757  2.4616  1.9454
  618MOL0     H85255   9.352   7.995   4.418  0.5557 -0.4843 -0.1656
  618MOL0     H85256   9.261   8.235   4.272  1.9113  0.6589  0.7226
  618MOL0     H85257   9.429   8.170   4.283  0.8480 -0.4204  0.5891
  618MOL0     H85258   9.189   8.025   4.147 -1.2000  2.2364 -3.0371
  618MOL0     H85259   9.351   7.967   4.165 -0.3079 -0.8959  0.0603
  618MOL0     H85260   9.454   8.092   4.022  0.4814 -2.7106 -1.3877
  618MOL0     H85261   9.301   8.206   3.993 -5.8088 -1.3428  2.4233
  618MOL0     H85262   9.351   7.927   3.892  0.1973  0.1736 -0.3150
  618MOL0     H85263   9.353   8.077   3.792 -1.6895  0.2995 -0.6796
  618MOL0     H85264   8.866   8.109   4.858  1.1648 -0.0489 -0.9850
  618MOL0     H85265   8.746   8.207   5.065  1.2117 -2.4832 -1.4180
  618MOL0     H85266   8.595   8.247   5.490 -0.4280  0.1882  0.8275
  618MOL0     H85267   8.450   8.365   5.667  2.4769 -1.5974  0.5612
  618MOL0     H85268   8.005   7.349   4.975 -0.9753 -1.1116 -1.4847
  618MOL0     H85269   8.098   7.151   4.890 -1.4479  2.4234  0.1282
  618MOL0     H85270   8.152   6.537   5.164  1.3020 -1.9913  0.1742
  618MOL0     H85271   8.257   6.363   5.080 -1.6759  1.0507  3.9806
  618MOL0     H85272   8.311   6.194   4.959 -1.5365  0.4805 -4.4896
  618MOL0     H85273   8.437   6.164   4.846 -1.6202 -1.3811  0.9879
  618MOL0     H85274   8.527   6.148   5.068 -0.4197 -0.9505  0.9388
  618MOL0     H85275   8.459   6.308   5.113 -0.8464 -0.8835  0.0765
  618MOL0     H85276   8.718   6.273   5.034  0.6260  3.3090  1.1038
  618MOL0     H85277   8.652   6.293   4.870  1.2226 -0.7633  0.8258
  618MOL0     H85278   8.600   6.504   5.070 -0.6998  1.3748 -1.4925
  618MOL0     H85279   8.610   6.510   4.887  1.6301 -1.2251 -1.6353
  618MOL0     H85280   8.988   6.598   4.946  2.1357 -2.2931  2.3149
  618MOL0     H85281   8.337   6.593   4.712  1.4517  2.0578  0.0799
  618MOL0     H85282   8.244   6.895   4.788  0.1376 -0.7584  0.3278
  618MOL0     H85283   8.212   6.763   4.662  1.5732  1.5936 -1.6310
  618MOL0     H85284   8.089   6.825   4.780  1.0528 -0.1857 -0.5797
  619MOL0     O85285   9.849   6.952  11.028  0.1282 -0.1812 -0.1034
  619MOL0     C85286   9.749   6.992  11.082 -0.7460  1.9063  0.8842
  619MOL0     O85287   9.730   7.011  11.219  0.2691 -0.0218 -0.3471
  619MOL0     C85288   9.834   7.049  11.293 -0.2150 -0.2922  0.4989
  619MOL0     C85289   9.939   7.124  11.243 -0.6984  0.8522  1.0175
  619MOL0     C85290  10.031   7.183  11.332 -1.0931  0.2552  1.1138
  619MOL0     C85291  10.026   7.173  11.475  1.3962  0.3011  0.0653
  619MOL0     O85292  10.118   7.247  11.554  0.3136  0.1154  0.3460
  619MOL0     C85293  10.092   7.253  11.696  0.1345  0.0687 -1.0279
  619MOL0     C85294  10.227   7.277  11.759  0.7947  0.1803 -0.2673
  619MOL0     C85295  10.321   7.153  11.775  0.5050  0.9245 -0.4873
  619MOL0     C85296  10.390   7.119  11.645 -0.2236 -0.1715  0.8271
  619MOL0     C85297  10.489   7.007  11.661  0.1571 -0.5755 -0.0158
  619MOL0     C85298  10.425   6.875  11.710  0.3864 -0.8331  1.0009
  619MOL0     C85299  10.534   6.762  11.710  1.3439 -0.4137  0.3201
  619MOL0     C85300  10.466   6.627  11.724 -0.0302  0.2952  0.4990
  619MOL0     N85301  10.417   6.615  11.866 -1.1449 -0.0476  0.0491
  619MOL0     C85302  10.294   6.624  11.923  0.0916 -0.1987 -0.4412
  619MOL0     C85303  10.297   6.549  12.036  0.8092  0.1505 -0.6593
  619MOL0     C85304  10.182   6.524  12.121  0.0128 -0.2604  0.1690
  619MOL0     C85305  10.213   6.421  12.231 -0.0356  0.4845 -0.3548
  619MOL0     C85306  10.274   6.488  12.357  0.2974  0.0700 -0.0904
  619MOL0     C85307  10.395   6.415  12.436  0.1319  0.4580  0.1343
  619MOL0     O85308  10.360   6.282  12.475 -0.1450  0.0057  0.4071
  619MOL0     C85309  10.284   6.274  12.587  0.0799 -0.5137 -0.0256
  619MOL0     C85310  10.249   6.388  12.665 -0.0527  1.0130  0.7626
  619MOL0     C85311  10.183   6.375  12.790 -0.7263  0.2255 -0.3153
  619MOL0     C85312  10.183   6.501  12.864 -0.1295  0.4311 -0.7198
  619MOL0     C85313  10.132   6.250  12.829  1.4943  0.7528  0.1314
  619MOL0     C85314  10.060   6.222  12.955 -0.0364  0.6620 -0.3604
  619MOL0     O85315   9.934   6.161  12.936 -0.2343 -0.1288  0.5046
  619MOL0     C85316   9.861   6.111  13.045  0.3963  1.2659  0.4980
  619MOL0     C85317   9.856   6.168  13.173 -1.0049  0.1064 -0.7018
  619MOL0     C85318   9.787   6.115  13.278  0.1155  0.5905 -0.5370
  619MOL0     C85319   9.719   5.990  13.262  0.0771 -0.3021  0.2682
  619MOL0     O85320   9.650   5.932  13.361  0.8256  0.8159 -0.0638
  619MOL0     C85321   9.515   5.974  13.387  0.2156  0.1762  0.1174
  619MOL0     C85322   9.426   5.847  13.426  0.0757 -0.4830 -0.6557
  619MOL0     C85323   9.436   5.753  13.315 -0.2612  0.9488 -0.6999
  619MOL0     C85324   9.545   5.647  13.317  0.5200 -0.0399  0.0451
  619MOL0     C85325   9.528   5.555  13.195 -0.7524  0.6938  0.4693
  619MOL0     C85326   9.626   5.439  13.194  0.0114 -0.4420 -0.0927
  619MOL0     C85327   9.581   5.326  13.095 -0.4708 -0.7561 -0.6792
  619MOL0     C85328   9.446   5.261  13.143  0.4629  0.7933  0.1499
  619MOL0    Cl85329   9.447   5.184  13.299 -0.3863 -0.4391  0.1437
  619MOL0     C85330   9.718   5.933  13.134 -0.5685 -0.3990  0.1750
  619MOL0     C85331   9.787   5.994  13.030  0.5210 -0.2304 -0.3296
  619MOL0     O85332  10.113   6.250  13.059  0.2701 -0.6136 -0.0494
  619MOL0     C85333  10.161   6.143  12.752  0.2223  0.6897  0.2435
  619MOL0     C85334  10.240   6.148  12.639 -0.7657  0.0533 -0.0413
  619MOL0     N85335  10.419   6.498  12.047 -0.5632  0.5625  0.7595
  619MOL0     N85336  10.490   6.530  11.945 -0.0603  0.2060 -0.7039
  619MOL0     C85337   9.917   7.095  11.524 -0.6351 -0.6492  0.3688
  619MOL0     C85338   9.825   7.030  11.434  0.9588 -0.4709 -0.6476
  619MOL0     C85339   9.630   6.991  11.004  0.1009 -0.4654  0.0342
  619MOL0     C85340   9.567   7.118  10.970  0.1225 -0.2238 -0.8253
  619MOL0     C85341   9.463   7.130  10.882 -0.3208  0.2257 -0.3751
  619MOL0     C85342   9.414   7.011  10.815  0.0023  0.5900 -0.5913
  619MOL0     O85343   9.307   7.003  10.728 -1.0678  0.5088  0.6884
  619MOL0     C85344   9.262   7.124  10.670 -0.6275  0.1867  0.0705
  619MOL0     C85345   9.357   7.179  10.575  0.3538  0.3803 -1.0347
  619MOL0     C85346   9.406   7.073  10.469  0.4547  0.2719  0.1620
  619MOL0     C85347   9.488   7.149  10.359 -0.0888 -0.2708  1.6787
  619MOL0     C85348   9.568   7.057  10.265  0.2812  0.4631  0.4913
  619MOL0     C85349   9.612   6.973  10.191  0.8043  0.5157  0.0224
  619MOL0     C85350   9.473   6.893  10.865 -0.3022 -0.1839 -0.2511
  619MOL0     C85351   9.573   6.874  10.956 -0.3108 -0.0902 -1.4144
  619MOL0     C85352   9.621   6.728  11.003 -0.1568 -0.4605  0.6091
  619MOL0     H85353   9.947   7.155  11.139 -0.7013 -0.2017  0.6971
  619MOL0     H85354  10.103   7.255  11.294 -1.2614  0.6827  1.5940
  619MOL0     H85355  10.041   7.160  11.725 -3.7547  3.0121  2.7236
  619MOL0     H85356  10.035   7.341  11.723  3.6404  1.6614  2.1413
  619MOL0     H85357  10.281   7.353  11.702 -2.2326  1.9369 -1.0003
  619MOL0     H85358  10.208   7.324  11.856 -0.4131  0.1867 -0.5002
  619MOL0     H85359  10.395   7.168  11.855  1.0316  0.3851 -0.8709
  619MOL0     H85360  10.260   7.071  11.812  2.9780  0.1738  2.3820
  619MOL0     H85361  10.318   7.086  11.570  2.4060 -0.6272 -1.6394
  619MOL0     H85362  10.444   7.208  11.613 -1.2430  0.8603  1.8529
  619MOL0     H85363  10.568   7.051  11.723  0.3340 -0.5476 -0.2579
  619MOL0     H85364  10.542   7.002  11.565  0.2839  1.6703 -0.1295
  619MOL0     H85365  10.379   6.886  11.809  1.5726  2.0079  1.3507
  619MOL0     H85366  10.349   6.856  11.634  1.4333  0.4894 -0.4392
  619MOL0     H85367  10.605   6.775  11.793  3.3185 -3.8509 -0.6331
  619MOL0     H85368  10.580   6.755  11.611  0.1124  0.8509 -0.3777
  619MOL0     H85369  10.387   6.627  11.649 -0.3425 -0.2517  0.8203
  619MOL0     H85370  10.541   6.554  11.692  2.3096  2.0911  1.5174
  619MOL0     H85371  10.201   6.664  11.885  0.5729  1.5907  0.1512
  619MOL0     H85372  10.097   6.494  12.059 -0.3318 -0.4388  0.7206
  619MOL0     H85373  10.157   6.623  12.161 -1.6424 -0.9029  0.8191
  619MOL0     H85374  10.123   6.372  12.271 -0.7969  2.7850  0.9435
  619MOL0     H85375  10.288   6.347  12.200  0.7273  0.1234  2.0783
  619MOL0     H85376  10.323   6.579  12.321  1.0177 -0.3148 -0.0821
  619MOL0     H85377  10.199   6.526  12.428 -0.3863  2.2256 -1.8581
  619MOL0     H85378  10.473   6.392  12.362  1.3108 -0.1297  1.5076
  619MOL0     H85379  10.444   6.478  12.512  0.5293  0.8286 -0.4229
  619MOL0     H85380  10.262   6.492  12.637 -0.4399  0.6986 -0.6844
  619MOL0     H85381  10.161   6.590  12.805 -0.3478  1.4973  0.9095
  619MOL0     H85382  10.277   6.508  12.920 -1.0931 -1.1729  1.2376
  619MOL0     H85383  10.101   6.494  12.935 -0.1907  0.3679 -0.7974
  619MOL0     H85384   9.917   6.257  13.188  0.8573 -0.9938 -1.3819
  619MOL0     H85385   9.793   6.156  13.378  3.1021  0.1822 -0.4765
  619MOL0     H85386   9.515   6.044  13.471 -1.5775 -0.7278  0.9243
  619MOL0     H85387   9.476   6.029  13.301 -1.0539 -0.7220  0.0956
  619MOL0     H85388   9.473   5.806  13.516  1.1737  2.9213  0.4628
  619MOL0     H85389   9.322   5.881  13.438  0.6369  0.9266  0.4695
  619MOL0     H85390   9.436   5.812  13.223 -1.6985  3.5248  0.8588
  619MOL0     H85391   9.343   5.696  13.325  0.9618 -2.0133 -3.8343
  619MOL0     H85392   9.546   5.598  13.415  0.7782 -1.3063 -0.5593
  619MOL0     H85393   9.646   5.689  13.305  0.6520  1.0995  3.8697
  619MOL0     H85394   9.426   5.515  13.199 -0.3827 -0.1980  1.1538
  619MOL0     H85395   9.538   5.609  13.100  1.6887 -1.3743 -0.5755
  619MOL0     H85396   9.615   5.396  13.294 -2.5755  0.4901  0.0987
  619MOL0     H85397   9.728   5.476  13.179 -0.1965  0.8808  1.4635
  619MOL0     H85398   9.652   5.244  13.106  0.3971  0.2472  2.3231
  619MOL0     H85399   9.595   5.356  12.991  1.5625 -2.7534 -1.0380
  619MOL0     H85400   9.439   5.175  13.076 -0.7658  0.1437  1.0700
  619MOL0     H85401   9.363   5.331  13.132 -0.5061 -0.5370 -1.7087
  619MOL0     H85402   9.676   5.835  13.110  1.6817 -1.3030 -0.4031
  619MOL0     H85403   9.795   5.941  12.936 -1.9233  1.7821 -1.7728
  619MOL0     H85404  10.147   6.038  12.776  4.8906  0.1489  1.6180
  619MOL0     H85405  10.248   6.055  12.584  2.2419  0.0808  0.2170
  619MOL0     H85406   9.899   7.087  11.631  0.4013  2.7475  0.9209
  619MOL0     H85407   9.738   6.980  11.475  2.2260 -1.7171  0.6159
  619MOL0     H85408   9.621   7.201  11.014  2.3771 -1.9326 -0.1789
  619MOL0     H85409   9.437   7.234  10.859  2.6530  1.0470 -0.3913
  619MOL0     H85410   9.179   7.095  10.605 -0.6353  2.0423 -0.7824
  619MOL0     H85411   9.221   7.199  10.738 -0.4587  2.0671 -1.8353
  619MOL0     H85412   9.443   7.227  10.623  0.0605  0.0429 -0.1447
  619MOL0     H85413   9.301   7.256  10.522 -0.5993 -0.9350 -2.0159
  619MOL0     H85414   9.470   6.998  10.517  1.4962 -0.8626 -2.7931
  619MOL0     H85415   9.324   7.017  10.425  1.3844 -0.4391 -0.7242
  619MOL0     H85416   9.565   7.210  10.408  0.7532  0.5304 -0.5223
  619MOL0     H85417   9.419   7.215  10.306  2.7230  1.1855 -0.4400
  619MOL0     H85418   9.659   6.895  10.135 -0.3908 -0.8554  0.8777
  619MOL0     H85419   9.427   6.801  10.828  0.1188 -0.8210  0.7721
  619MOL0     H85420   9.669   6.726  11.101 -1.7093 -3.9182  1.4481
  619MOL0     H85421   9.545   6.651  11.016  0.9404 -1.3750  1.8545
  619MOL0     H85422   9.687   6.693  10.922  1.0398  1.2723  0.7833
  620MOL0     O85423   4.345   8.503   2.828 -0.1218  0.7351  0.3537
  620MOL0     C85424   4.234   8.515   2.875  0.6310 -0.0422 -0.3525
  620MOL0     O85425   4.190   8.467   3.001 -0.6906 -0.2958 -0.0225
  620MOL0     C85426   4.294   8.438   3.089 -0.0655 -0.8987  0.8394
  620MOL0     C85427   4.293   8.321   3.147 -0.3293  0.7468 -0.4665
  620MOL0     C85428   4.397   8.277   3.237  0.4970 -0.1705 -0.4590
  620MOL0     C85429   4.492   8.366   3.281 -0.3394 -0.3341 -0.2798
  620MOL0     O85430   4.561   8.332   3.396  0.1916  0.7603  0.2169
  620MOL0     C85431   4.687   8.399   3.424  0.0925 -0.4854 -1.1459
  620MOL0     C85432   4.776   8.275   3.428 -0.0980 -0.1195 -0.0211
  620MOL0     C85433   4.921   8.304   3.466 -0.1798  0.0424 -0.7872
  620MOL0     C85434   5.002   8.194   3.413 -1.3600 -0.5226  0.1989
  620MOL0     C85435   5.150   8.201   3.427  0.0606 -0.3517 -0.5240
  620MOL0     C85436   5.197   8.193   3.571  0.7043  0.3751  0.0490
  620MOL0     C85437   5.344   8.227   3.595 -0.8141 -0.8159 -0.2295
  620MOL0     C85438   5.361   8.379   3.583 -0.5827 -0.5639  0.2468
  620MOL0     N85439   5.468   8.429   3.503  0.4717 -0.1361 -0.0023
  620MOL0     C85440   5.602   8.428   3.539 -0.2395  0.0159 -0.9402
  620MOL0     C85441   5.662   8.491   3.431  0.2889 -0.3325  0.0547
  620MOL0     C85442   5.811   8.504   3.423 -0.5918 -0.1284 -0.7474
  620MOL0     C85443   5.869   8.549   3.290  0.7594  0.2367 -0.7078
  620MOL0     C85444   6.016   8.562   3.299 -0.2716 -0.0843 -0.3251
  620MOL0     C85445   6.053   8.663   3.198 -0.4424  0.6686  0.2865
  620MOL0     O85446   6.194   8.634   3.156  0.6353  0.6026 -0.1731
  620MOL0     C85447   6.241   8.711   3.058 -0.3418 -1.0401  0.6792
  620MOL0     C85448   6.328   8.650   2.969  0.5956 -0.3357  0.3998
  620MOL0     C85449   6.393   8.721   2.866 -0.1662 -0.2865  0.1304
  620MOL0     C85450   6.481   8.635   2.778  0.6877  0.1452 -0.1541
  620MOL0     C85451   6.364   8.865   2.844  0.4874 -0.1271 -1.8354
  620MOL0     C85452   6.427   8.949   2.742 -0.0895 -0.5039 -1.0894
  620MOL0     O85453   6.423   9.087   2.756 -0.2323  0.6755  0.1800
  620MOL0     C85454   6.479   9.160   2.650  0.9004 -0.8397 -0.3565
  620MOL0     C85455   6.605   9.214   2.659 -0.4418  0.4804  0.6835
  620MOL0     C85456   6.643   9.316   2.566  0.2580  0.3316  0.0746
  620MOL0     C85457   6.558   9.369   2.475 -0.3796 -0.1471  1.0085
  620MOL0     O85458   6.620   9.465   2.392 -0.2590  0.1036 -0.2340
  620MOL0     C85459   6.548   9.519   2.284 -0.7002 -0.6156 -0.3521
  620MOL0     C85460   6.609   9.649   2.239  0.2661 -0.1641  0.8508
  620MOL0     C85461   6.514   9.723   2.141  0.1080  0.3080 -0.4951
  620MOL0     C85462   6.589   9.828   2.069  0.5195 -0.2648 -0.8560
  620MOL0     C85463   6.495   9.922   1.976  0.1731  0.7164 -0.7455
  620MOL0     C85464   6.401  10.020   2.051 -0.1695  0.2412  0.7190
  620MOL0     C85465   6.473  10.107   2.168 -0.9130  0.4216  0.5319
  620MOL0     C85466   6.376  10.146   2.285  0.5334  0.5326 -0.7021
  620MOL0    Cl85467   6.237  10.233   2.208 -0.1257  0.2916 -0.0488
  620MOL0     C85468   6.442   9.300   2.455  0.1113 -0.4057 -0.1831
  620MOL0     C85469   6.389   9.203   2.548  0.2555  0.1391 -0.6527
  620MOL0     O85470   6.503   8.894   2.660  0.4017 -0.5685 -0.3875
  620MOL0     C85471   6.275   8.918   2.936 -0.2330  0.0368 -0.3141
  620MOL0     C85472   6.219   8.845   3.045 -0.0268  0.1360  0.2034
  620MOL0     N85473   5.565   8.523   3.336  0.0419  0.1864 -0.7348
  620MOL0     N85474   5.447   8.478   3.378 -0.9263 -0.0612  0.7667
  620MOL0     C85475   4.506   8.486   3.210 -0.1621 -0.3191  0.1538
  620MOL0     C85476   4.407   8.520   3.117  0.5909  0.0102  0.2139
  620MOL0     C85477   4.137   8.604   2.810 -0.2146 -0.3198  0.5208
  620MOL0     C85478   3.996   8.572   2.803 -0.4425 -1.5749 -0.4014
  620MOL0     C85479   3.905   8.669   2.750  0.0235  0.2911 -0.4893
  620MOL0     C85480   3.953   8.790   2.691  0.7412 -0.3060 -0.9190
  620MOL0     O85481   3.851   8.863   2.636 -0.3899  0.4300 -0.1167
  620MOL0     C85482   3.899   8.983   2.563 -0.1347 -0.0536  1.4775
  620MOL0     C85483   3.778   9.073   2.528  0.3093 -0.1044 -0.5313
  620MOL0     C85484   3.669   9.002   2.433 -0.3323 -0.9115  0.1393
  620MOL0     C85485   3.572   9.098   2.362 -0.6505 -0.7410  0.1863
  620MOL0     C85486   3.510   9.173   2.472 -1.0864  0.3991 -0.7257
  620MOL0     C85487   3.458   9.235   2.567 -0.1824  0.1816  0.1404
  620MOL0     C85488   4.092   8.817   2.691  0.5947 -0.3715  0.0748
  620MOL0     C85489   4.178   8.735   2.766 -0.1512  0.3836 -0.4183
  620MOL0     C85490   4.311   8.789   2.806  0.4471  0.0647 -0.3432
  620MOL0     H85491   4.210   8.252   3.140  2.0308 -2.3637  0.0977
  620MOL0     H85492   4.360   8.192   3.294 -1.8506 -0.4900 -2.2674
  620MOL0     H85493   4.681   8.435   3.527  1.2574 -0.6058 -1.0226
  620MOL0     H85494   4.725   8.481   3.363  0.5380 -1.2804 -1.9620
  620MOL0     H85495   4.726   8.200   3.491  1.9292 -0.2262  1.5896
  620MOL0     H85496   4.779   8.243   3.323 -1.2201  3.3009 -1.1991
  620MOL0     H85497   4.963   8.394   3.421  1.2708 -0.3402 -0.2638
  620MOL0     H85498   4.929   8.307   3.575 -2.1606  0.0058 -0.6037
  620MOL0     H85499   4.965   8.097   3.447  0.2256 -0.9598  0.7586
  620MOL0     H85500   4.993   8.204   3.304 -0.3603 -2.8912 -0.1684
  620MOL0     H85501   5.205   8.281   3.376 -1.6016  1.5023  0.4655
  620MOL0     H85502   5.190   8.109   3.384 -2.1457 -1.8592  0.5188
  620MOL0     H85503   5.139   8.275   3.614  2.3030  0.7921  1.5301
  620MOL0     H85504   5.170   8.098   3.620  0.2764  0.3073 -0.3120
  620MOL0     H85505   5.403   8.178   3.517 -0.4167  1.6407 -1.5727
  620MOL0     H85506   5.380   8.192   3.693  0.4050  2.1172  0.4749
  620MOL0     H85507   5.278   8.434   3.536  0.8286  1.4599 -0.0131
  620MOL0     H85508   5.367   8.405   3.689  2.3037 -1.9279  0.4951
  620MOL0     H85509   5.643   8.370   3.621 -0.8538  1.3773  0.3766
  620MOL0     H85510   5.858   8.409   3.452  0.2590  0.8686  1.4197
  620MOL0     H85511   5.836   8.580   3.498 -1.2215 -0.3241 -0.3322
  620MOL0     H85512   5.836   8.472   3.221 -3.7524 -2.3380  3.5940
  620MOL0     H85513   5.826   8.648   3.269  1.0791  0.6223  0.3815
  620MOL0     H85514   6.041   8.592   3.401 -0.6257  1.7580 -0.7551
  620MOL0     H85515   6.072   8.470   3.278  2.4807  1.3230  0.3433
  620MOL0     H85516   5.981   8.663   3.117 -0.5539  0.0558  0.3835
  620MOL0     H85517   6.052   8.761   3.248  0.6222  0.0422  1.6300
  620MOL0     H85518   6.356   8.546   2.971  0.6644 -0.3008  1.3484
  620MOL0     H85519   6.476   8.639   2.668 -1.1573  1.9457 -0.0534
  620MOL0     H85520   6.456   8.530   2.796 -0.7597  0.7442  1.5759
  620MOL0     H85521   6.584   8.665   2.800  0.8296  1.5599 -2.3530
  620MOL0     H85522   6.676   9.174   2.730  1.1887 -1.5109 -1.9184
  620MOL0     H85523   6.742   9.356   2.580  0.0540  0.4448  1.3174
  620MOL0     H85524   6.553   9.448   2.201  1.4412 -0.4084 -0.4426
  620MOL0     H85525   6.443   9.541   2.307 -0.3433  1.5129 -0.5936
  620MOL0     H85526   6.623   9.716   2.325  1.6339 -3.2918  3.2842
  620MOL0     H85527   6.703   9.623   2.190 -0.1669  0.1636 -0.1642
  620MOL0     H85528   6.426   9.763   2.194 -0.8537  0.0945 -1.8751
  620MOL0     H85529   6.467   9.655   2.070 -2.0840 -1.3502  2.3261
  620MOL0     H85530   6.674   9.795   2.009  0.8711  0.0535 -0.5311
  620MOL0     H85531   6.638   9.892   2.143 -1.4194 -0.1306  0.3846
  620MOL0     H85532   6.557   9.990   1.918 -1.4110  0.3873 -2.9466
  620MOL0     H85533   6.435   9.846   1.925  1.7194 -1.8365  0.9804
  620MOL0     H85534   6.309   9.966   2.077  0.2056 -0.2826  0.9643
  620MOL0     H85535   6.376  10.091   1.971 -2.1972  1.2563  2.1637
  620MOL0     H85536   6.515  10.199   2.128 -0.6539 -0.0358 -0.2672
  620MOL0     H85537   6.545  10.044   2.220 -2.2853 -1.5870  0.1200
  620MOL0     H85538   6.419  10.213   2.359  0.8807  0.2678 -0.6624
  620MOL0     H85539   6.350  10.055   2.340  0.2302  1.3102  0.4700
  620MOL0     H85540   6.378   9.331   2.373  0.0236 -1.3970 -0.4944
  620MOL0     H85541   6.300   9.142   2.530 -0.1053  0.3716  0.2944
  620MOL0     H85542   6.243   9.019   2.913 -1.9802 -0.7553 -1.5505
  620MOL0     H85543   6.152   8.905   3.106 -0.4842  2.6767 -2.5722
  620MOL0     H85544   4.592   8.550   3.227  0.7858 -1.6081  0.4608
  620MOL0     H85545   4.413   8.617   3.068 -0.8406  2.0510  3.6832
  620MOL0     H85546   3.970   8.472   2.837  2.3386 -1.7094  1.7823
  620MOL0     H85547   3.798   8.654   2.750 -0.1632  1.4989 -0.5364
  620MOL0     H85548   3.974   9.047   2.612 -0.3975  0.9180  0.6497
  620MOL0     H85549   3.945   8.955   2.467 -0.1524 -0.8897  1.7064
  620MOL0     H85550   3.816   9.162   2.476 -0.9450  2.1804  2.1407
  620MOL0     H85551   3.736   9.102   2.625 -2.0481 -3.3699 -0.4269
  620MOL0     H85552   3.717   8.933   2.363 -1.9089 -0.1335 -1.7875
  620MOL0     H85553   3.612   8.929   2.490 -0.5447 -3.4074 -3.0068
  620MOL0     H85554   3.493   9.036   2.320 -1.8168  0.7451  0.0811
  620MOL0     H85555   3.615   9.161   2.283  3.4860 -3.3556  0.0651
  620MOL0     H85556   3.425   9.307   2.639 -0.3164 -0.3373  0.6045
  620MOL0     H85557   4.131   8.916   2.669 -1.5979  0.7993  1.0915
  620MOL0     H85558   4.321   8.780   2.915 -2.8216  1.4582  0.1698
  620MOL0     H85559   4.403   8.748   2.762  0.5795  0.5072 -0.4832
  620MOL0     H85560   4.318   8.898   2.795  1.8639 -0.0018 -0.2687
  621MOL0     O85561   0.293   3.651   4.235 -0.6399  0.0343  0.9617
  621MOL0     C85562   0.294   3.677   4.110 -0.0309 -0.3782  0.0005
  621MOL0     O85563   0.201   3.757   4.058 -1.3453 -0.1444  0.1038
  621MOL0     C85564   0.093   3.802   4.125 -0.2834 -0.1406  0.2558
  621MOL0     C85565   0.057   3.935   4.123 -0.4796  0.4359 -0.1224
  621MOL0     C85566  -0.039   3.978   4.211 -0.2782  0.2921 -0.1037
  621MOL0     C85567  -0.112   3.888   4.286  1.1352 -0.3001  0.5696
  621MOL0     O85568  -0.228   3.924   4.362  0.0217  0.2441 -0.1685
  621MOL0     C85569  -0.288   4.051   4.338  0.0359  0.6036  0.3782
  621MOL0     C85570  -0.418   4.074   4.416 -0.5233 -0.6566 -0.0691
  621MOL0     C85571  -0.409   4.108   4.569  0.3318 -0.1052  0.4695
  621MOL0     C85572  -0.446   3.996   4.657 -0.9362  0.0546 -0.2034
  621MOL0     C85573  -0.444   4.029   4.810  0.5826  0.0739  0.5600
  621MOL0     C85574  -0.520   3.918   4.890 -0.9478 -0.2570  0.9740
  621MOL0     C85575  -0.676   3.946   4.887  0.2530  0.2359  0.0483
  621MOL0     C85576  -0.767   3.847   4.953 -0.5403 -0.0934 -0.1932
  621MOL0     N85577  -0.729   3.827   5.092 -0.2183 -0.1445 -0.0715
  621MOL0     C85578  -0.738   3.918   5.198 -0.1935 -0.8008 -0.2439
  621MOL0     C85579  -0.675   3.863   5.294  0.4626  0.5068  0.4359
  621MOL0     C85580  -0.654   3.920   5.435  0.0508 -0.0200 -0.6110
  621MOL0     C85581  -0.604   4.068   5.431  0.4539 -0.2192  0.9245
  621MOL0     C85582  -0.573   4.125   5.567  0.4009 -0.0253 -0.0575
  621MOL0     C85583  -0.696   4.181   5.640 -0.0016 -0.1932 -0.8565
  621MOL0     O85584  -0.787   4.079   5.673 -0.6200 -0.9103  0.2241
  621MOL0     C85585  -0.904   4.121   5.744  0.1171 -0.5323  0.2240
  621MOL0     C85586  -0.923   4.088   5.874 -0.3422  0.2262  0.3538
  621MOL0     C85587  -1.033   4.129   5.945  0.5747 -0.1810  0.2441
  621MOL0     C85588  -1.033   4.087   6.094  0.4522 -1.0435  0.6007
  621MOL0     C85589  -1.134   4.212   5.886 -0.2711 -0.1633  0.6545
  621MOL0     C85590  -1.244   4.276   5.959 -0.0530  0.4442 -0.1454
  621MOL0     O85591  -1.282   4.412   5.919  0.0194  0.9388 -0.1964
  621MOL0     C85592  -1.364   4.478   6.014 -0.2483  0.0834 -0.0252
  621MOL0     C85593  -1.305   4.567   6.111 -0.7245  0.3406 -0.3361
  621MOL0     C85594  -1.375   4.634   6.209  0.5420  0.7421  0.7241
  621MOL0     C85595  -1.512   4.616   6.206  0.6825  0.9011 -1.3974
  621MOL0     O85596  -1.594   4.692   6.291  0.3026  0.1637 -0.2028
  621MOL0     C85597  -1.558   4.735   6.417 -0.0645  0.2254 -0.4364
  621MOL0     C85598  -1.660   4.831   6.470 -0.1566 -0.4954 -0.6783
  621MOL0     C85599  -1.808   4.784   6.483 -0.8252  0.6560 -0.7559
  621MOL0     C85600  -1.835   4.689   6.596 -0.0650  0.1520 -0.0151
  621MOL0     C85601  -1.984   4.660   6.622 -0.2906  0.6964 -0.2458
  621MOL0     C85602  -2.008   4.548   6.717  0.3635 -0.2213 -0.6459
  621MOL0     C85603  -2.156   4.526   6.727  0.4435  0.0427  0.3111
  621MOL0     C85604  -2.197   4.403   6.794  0.2321  0.4524 -1.3415
  621MOL0    Cl85605  -2.377   4.428   6.835 -0.7682  0.1668  0.0196
  621MOL0     C85606  -1.574   4.546   6.107  0.1798  0.1639 -0.8266
  621MOL0     C85607  -1.504   4.483   6.011 -0.2486  0.3399 -1.2337
  621MOL0     O85608  -1.290   4.219   6.057  0.5133 -0.5580  0.8860
  621MOL0     C85609  -1.111   4.250   5.747  0.6308  0.4535  0.1434
  621MOL0     C85610  -1.006   4.197   5.673 -0.1356  0.3797 -0.0180
  621MOL0     N85611  -0.628   3.736   5.261  0.8628 -0.2598  0.1958
  621MOL0     N85612  -0.659   3.718   5.133  0.0055  0.0097  0.4348
  621MOL0     C85613  -0.095   3.746   4.271  0.1573 -1.4464  0.8338
  621MOL0     C85614   0.006   3.713   4.184  0.4520  0.4421 -0.3041
  621MOL0     C85615   0.394   3.608   4.022 -0.4154 -0.1627 -0.0282
  621MOL0     C85616   0.388   3.626   3.884  0.5028  0.3363  0.4711
  621MOL0     C85617   0.468   3.562   3.792  0.2683 -0.0087 -0.5839
  621MOL0     C85618   0.566   3.474   3.844  0.4575  0.3911 -0.3714
  621MOL0     O85619   0.656   3.405   3.765  0.4223  0.6565  0.6993
  621MOL0     C85620   0.787   3.450   3.736 -0.0726  0.2072  0.7892
  621MOL0     C85621   0.808   3.600   3.719  0.3203 -0.1000  0.7888
  621MOL0     C85622   0.832   3.666   3.853  0.8229  0.5666 -0.4420
  621MOL0     C85623   0.773   3.802   3.857  0.7166  0.6587  0.3108
  621MOL0     C85624   0.845   3.894   3.770 -1.3274 -1.4290 -0.9926
  621MOL0     C85625   0.891   3.982   3.696 -0.1831  0.0633 -0.3387
  621MOL0     C85626   0.570   3.451   3.977  0.3988 -0.3824  0.3475
  621MOL0     C85627   0.489   3.513   4.067 -0.2761 -0.2731 -0.3341
  621MOL0     C85628   0.517   3.484   4.211 -0.5294 -0.2001  0.6242
  621MOL0     H85629   0.121   3.996   4.060  1.0934  0.0038  1.0041
  621MOL0     H85630  -0.065   4.083   4.201  1.8161  0.8519 -0.0914
  621MOL0     H85631  -0.307   4.066   4.232  1.1285  2.3659  0.3885
  621MOL0     H85632  -0.217   4.128   4.369 -0.3331  1.6682 -1.2875
  621MOL0     H85633  -0.462   4.151   4.352  0.4495  0.8516  0.9934
  621MOL0     H85634  -0.478   3.983   4.410  3.3661 -3.5525  0.7156
  621MOL0     H85635  -0.305   4.137   4.585  1.9901 -3.7902 -2.1678
  621MOL0     H85636  -0.473   4.189   4.605 -0.4963 -1.7481  2.9686
  621MOL0     H85637  -0.551   3.982   4.630 -1.3057  0.5029  0.9193
  621MOL0     H85638  -0.380   3.912   4.632 -0.7201 -0.8637  2.9494
  621MOL0     H85639  -0.497   4.124   4.824  1.4906  0.9365 -1.4060
  621MOL0     H85640  -0.343   4.047   4.849  0.2403  0.5234  1.2614
  621MOL0     H85641  -0.505   3.820   4.843 -2.9810  0.3578 -1.1228
  621MOL0     H85642  -0.473   3.917   4.989  1.0443  2.5767  0.1774
  621MOL0     H85643  -0.693   3.945   4.779  1.5083  2.6499 -0.2385
  621MOL0     H85644  -0.707   4.038   4.937 -1.2433 -0.0870 -0.2445
  621MOL0     H85645  -0.872   3.878   4.954 -0.2655  0.8488  0.6392
  621MOL0     H85646  -0.757   3.753   4.898 -0.2259 -0.9286  1.2412
  621MOL0     H85647  -0.780   4.017   5.182  1.6165 -0.4128 -3.5877
  621MOL0     H85648  -0.587   3.857   5.494  3.9487  1.5225 -3.0171
  621MOL0     H85649  -0.755   3.909   5.475  0.2530  1.3428  0.3538
  621MOL0     H85650  -0.507   4.068   5.381  0.2693 -3.8697  0.2367
  621MOL0     H85651  -0.671   4.131   5.373 -0.6085  0.1256  2.4539
  621MOL0     H85652  -0.532   4.044   5.628  0.4513 -1.5658 -2.0251
  621MOL0     H85653  -0.499   4.207   5.567 -0.0400  0.3844  0.8099
  621MOL0     H85654  -0.667   4.240   5.728  0.1240  0.4344 -1.3122
  621MOL0     H85655  -0.738   4.236   5.555 -0.9137  1.9173  0.8591
  621MOL0     H85656  -0.846   4.033   5.928 -0.5190  0.8561  1.2533
  621MOL0     H85657  -1.071   4.179   6.139 -1.8916 -1.4990 -0.2936
  621MOL0     H85658  -0.933   4.064   6.132  1.7807  3.8828  0.7836
  621MOL0     H85659  -1.096   4.002   6.122 -0.8089 -1.4718 -3.0746
  621MOL0     H85660  -1.199   4.590   6.112 -0.5666  0.0181 -2.8472
  621MOL0     H85661  -1.323   4.700   6.278 -0.4294  1.3735  0.8738
  621MOL0     H85662  -1.559   4.654   6.490 -1.3097  0.6557  0.0668
  621MOL0     H85663  -1.460   4.782   6.412 -0.4753  1.0471 -1.0897
  621MOL0     H85664  -1.628   4.867   6.569  1.0495  1.3336 -1.6699
  621MOL0     H85665  -1.669   4.914   6.400 -3.2751 -1.7158 -1.8603
  621MOL0     H85666  -1.832   4.733   6.389  0.6045  0.9237 -1.2900
  621MOL0     H85667  -1.874   4.871   6.490 -2.7395 -0.8493  3.6687
  621MOL0     H85668  -1.790   4.738   6.683  0.6505  0.6492 -0.6421
  621MOL0     H85669  -1.786   4.597   6.565  2.3511  1.5656 -0.6687
  621MOL0     H85670  -2.030   4.756   6.649  1.7187  1.9438 -1.0269
  621MOL0     H85671  -2.032   4.637   6.526  2.1772  0.8866 -1.6059
  621MOL0     H85672  -1.969   4.567   6.818 -3.9968  1.6614  0.9218
  621MOL0     H85673  -1.950   4.459   6.689  0.5773 -1.6423  3.6279
  621MOL0     H85674  -2.194   4.520   6.624  0.8410 -0.0635  0.1702
  621MOL0     H85675  -2.195   4.616   6.777 -0.2153 -0.0198 -0.0740
  621MOL0     H85676  -2.142   4.384   6.886  2.5641 -1.2693 -2.9630
  621MOL0     H85677  -2.185   4.329   6.714  0.3063  1.8483 -2.6744
  621MOL0     H85678  -1.681   4.565   6.104 -0.2525 -1.2625  1.9112
  621MOL0     H85679  -1.566   4.437   5.935 -0.1661  2.5226 -2.7376
  621MOL0     H85680  -1.172   4.325   5.699  1.9033  1.6672  0.3660
  621MOL0     H85681  -0.991   4.216   5.567 -2.8313  4.1669  0.0903
  621MOL0     H85682  -0.164   3.675   4.316  3.0545 -4.6604  0.6653
  621MOL0     H85683   0.024   3.609   4.157 -2.5419 -0.3058  0.2039
  621MOL0     H85684   0.308   3.688   3.846  0.8883  1.7615  1.8730
  621MOL0     H85685   0.454   3.572   3.685 -1.4471 -2.3634 -0.6409
  621MOL0     H85686   0.849   3.406   3.814 -3.6140  2.0624  5.1693
  621MOL0     H85687   0.817   3.414   3.637 -0.3686 -2.1929  1.5078
  621MOL0     H85688   0.721   3.635   3.662  1.5055 -2.1196 -2.5763
  621MOL0     H85689   0.897   3.612   3.657  0.7120  1.7599  1.6625
  621MOL0     H85690   0.787   3.615   3.939 -1.1483 -0.5206 -2.0394
  621MOL0     H85691   0.941   3.660   3.850  0.7642 -0.7728 -0.4657
  621MOL0     H85692   0.790   3.842   3.958  3.5841 -0.3320  0.3085
  621MOL0     H85693   0.666   3.814   3.839  0.9303  1.1051 -0.7182
  621MOL0     H85694   0.921   4.065   3.635 -3.1474  0.8181 -0.8990
  621MOL0     H85695   0.631   3.367   4.008 -2.2060 -2.3935  0.3072
  621MOL0     H85696   0.580   3.394   4.219  0.4577  0.1888 -1.9501
  621MOL0     H85697   0.584   3.567   4.234  2.3525 -2.0539 -0.4778
  621MOL0     H85698   0.426   3.468   4.270  0.0949 -0.0342  1.6603
  622MOL0     O85699   5.452   4.638   6.396  0.4673  0.1270  0.0361
  622MOL0     C85700   5.399   4.700   6.302 -0.2923  0.3434 -0.5900
  622MOL0     O85701   5.411   4.683   6.169 -0.4118 -0.2163  0.0728
  622MOL0     C85702   5.421   4.564   6.110 -0.3514  1.0529  0.0759
  622MOL0     C85703   5.386   4.445   6.182  0.0473 -0.1712 -0.9296
  622MOL0     C85704   5.372   4.313   6.130  0.1082  0.2140 -0.2603
  622MOL0     C85705   5.408   4.292   5.995  0.1068 -0.6389  0.1810
  622MOL0     O85706   5.427   4.163   5.953  0.1460 -0.0376  0.5290
  622MOL0     C85707   5.543   4.137   5.867 -1.3209 -0.4004 -0.1189
  622MOL0     C85708   5.570   3.989   5.845  0.0907  0.0877 -0.7593
  622MOL0     C85709   5.447   3.911   5.787  0.7937  0.9919 -0.4560
  622MOL0     C85710   5.471   3.763   5.746 -0.7781 -0.4337  0.5364
  622MOL0     C85711   5.354   3.694   5.681  1.0071  0.7505 -0.4750
  622MOL0     C85712   5.388   3.554   5.627  0.8763 -0.5832  0.8700
  622MOL0     C85713   5.476   3.547   5.505 -0.7926 -0.5539 -0.8993
  622MOL0     C85714   5.444   3.645   5.387 -0.4134 -0.2404 -0.8667
  622MOL0     N85715   5.301   3.647   5.339  0.1659  0.4212  0.4266
  622MOL0     C85716   5.211   3.546   5.351 -0.3977 -0.2436 -0.0432
  622MOL0     C85717   5.094   3.584   5.293 -0.2667 -0.1108 -0.2508
  622MOL0     C85718   4.967   3.496   5.281 -0.5906 -0.2628  0.3776
  622MOL0     C85719   4.844   3.562   5.347  0.1202  0.4857  0.6486
  622MOL0     C85720   4.846   3.541   5.499  0.1523 -0.0169  0.2098
  622MOL0     C85721   4.752   3.435   5.542  0.2517 -0.0820 -0.1479
  622MOL0     O85722   4.815   3.311   5.536  0.1766  0.6667 -0.4299
  622MOL0     C85723   4.770   3.204   5.613  1.0246 -0.0508  0.1026
  622MOL0     C85724   4.834   3.084   5.582 -0.7332  0.7661 -0.1194
  622MOL0     C85725   4.806   2.963   5.652  1.1429 -0.2368 -0.9630
  622MOL0     C85726   4.878   2.842   5.613 -0.2316  0.5438  0.6690
  622MOL0     C85727   4.711   2.965   5.763  0.4558 -0.4889 -0.0426
  622MOL0     C85728   4.676   2.840   5.833  0.2405  0.1520 -0.5052
  622MOL0     O85729   4.681   2.855   5.971  0.3801 -0.5200  0.4214
  622MOL0     C85730   4.688   2.754   6.056  0.7380 -0.3026  0.4437
  622MOL0     C85731   4.724   2.621   6.023  0.8614 -0.5950 -0.5321
  622MOL0     C85732   4.711   2.538   6.142 -0.1756 -0.8127  0.4723
  622MOL0     C85733   4.678   2.580   6.272 -0.0676 -0.5142  0.0412
  622MOL0     O85734   4.674   2.473   6.359  0.3270  0.3937  0.0463
  622MOL0     C85735   4.657   2.515   6.491  0.3574  0.2185  0.0943
  622MOL0     C85736   4.645   2.395   6.587 -0.5609  1.0629 -1.2257
  622MOL0     C85737   4.678   2.427   6.737 -0.4293 -0.6617 -0.4245
  622MOL0     C85738   4.830   2.436   6.767  0.0109  0.3815 -1.1139
  622MOL0     C85739   4.869   2.580   6.800  0.0397 -0.1944 -0.1134
  622MOL0     C85740   5.029   2.587   6.785 -0.6455 -0.0202 -0.6591
  622MOL0     C85741   5.101   2.685   6.887 -0.0479 -0.0333  0.5124
  622MOL0     C85742   5.253   2.691   6.898  0.3932 -0.1616  0.6569
  622MOL0    Cl85743   5.329   2.685   6.735  0.6289 -0.1768 -0.3908
  622MOL0     C85744   4.652   2.718   6.288  0.7954 -0.1215  0.3503
  622MOL0     C85745   4.646   2.800   6.176  0.4039  0.1205  1.1176
  622MOL0     O85746   4.645   2.740   5.776 -0.3717 -0.0911 -0.5711
  622MOL0     C85747   4.648   3.092   5.795 -0.4855  0.4947 -0.2022
  622MOL0     C85748   4.673   3.206   5.717 -0.4058  0.3283  0.5422
  622MOL0     N85749   5.115   3.713   5.240 -0.3657  0.3067 -0.3948
  622MOL0     N85750   5.238   3.741   5.262  0.1427  0.4870  0.0064
  622MOL0     C85751   5.446   4.409   5.921  0.0446  0.8772  0.4851
  622MOL0     C85752   5.451   4.542   5.976 -0.1536  0.7348 -0.2364
  622MOL0     C85753   5.338   4.826   6.352  1.1503 -0.5246 -1.3596
  622MOL0     C85754   5.291   4.826   6.483 -1.5019  1.0612  0.4557
  622MOL0     C85755   5.240   4.943   6.544 -0.3715  0.1733 -0.0221
  622MOL0     C85756   5.218   5.057   6.478  0.3087  0.3472 -0.1950
  622MOL0     O85757   5.156   5.170   6.527 -0.3554 -0.4626 -0.8965
  622MOL0     C85758   5.226   5.224   6.646 -0.5509 -0.2344 -0.0540
  622MOL0     C85759   5.137   5.315   6.731  0.1598 -0.4736 -0.2615
  622MOL0     C85760   5.125   5.450   6.664 -0.0631 -0.9549 -0.0196
  622MOL0     C85761   5.062   5.556   6.770 -0.8728  0.5665 -0.0154
  622MOL0     C85762   5.079   5.695   6.723  0.4013  0.0877 -0.2042
  622MOL0     C85763   5.100   5.799   6.662 -0.1005  0.7082  0.4624
  622MOL0     C85764   5.255   5.056   6.346  0.0027 -0.1442  0.1846
  622MOL0     C85765   5.309   4.951   6.279  0.1532  0.3826 -0.6146
  622MOL0     C85766   5.331   4.968   6.130 -0.1230 -0.1293 -1.0853
  622MOL0     H85767   5.339   4.457   6.279 -0.7208  0.4974 -1.3692
  622MOL0     H85768   5.328   4.233   6.188  1.6986 -0.2301  0.4168
  622MOL0     H85769   5.630   4.188   5.911 -2.0888 -1.4522  2.8894
  622MOL0     H85770   5.534   4.178   5.766 -0.7449 -2.7005 -1.1831
  622MOL0     H85771   5.659   3.978   5.783  2.6197  2.3499  2.1862
  622MOL0     H85772   5.583   3.939   5.941 -0.8486  2.0428  0.4504
  622MOL0     H85773   5.375   3.902   5.869  2.1743 -1.9741  0.5636
  622MOL0     H85774   5.408   3.960   5.697  1.1219  2.6362  0.2630
  622MOL0     H85775   5.561   3.765   5.685  0.2750  4.7886  1.7502
  622MOL0     H85776   5.508   3.706   5.832  0.7080  0.2536  0.3838
  622MOL0     H85777   5.302   3.751   5.604 -1.7247 -1.2022 -0.1922
  622MOL0     H85778   5.291   3.673   5.768  0.6685 -2.9160 -1.4585
  622MOL0     H85779   5.426   3.483   5.701 -2.9651 -1.4238  2.2512
  622MOL0     H85780   5.293   3.508   5.597  0.5135  0.4573  0.3292
  622MOL0     H85781   5.464   3.451   5.453 -0.1896 -0.8180 -0.5682
  622MOL0     H85782   5.577   3.548   5.547 -1.3089  2.0523  0.4601
  622MOL0     H85783   5.462   3.744   5.431  1.5073 -2.1987  3.3513
  622MOL0     H85784   5.514   3.627   5.305 -1.4575 -0.1201 -1.8069
  622MOL0     H85785   5.223   3.449   5.399  0.1989  0.8170  2.0840
  622MOL0     H85786   4.985   3.397   5.323 -1.0528  0.2060  1.7224
  622MOL0     H85787   4.957   3.487   5.172  0.7686  1.9672  0.0001
  622MOL0     H85788   4.845   3.668   5.318  0.6369  0.3509  0.1473
  622MOL0     H85789   4.760   3.507   5.304  0.6132  0.7362 -0.6786
  622MOL0     H85790   4.948   3.521   5.533  0.8005  3.5206  0.7111
  622MOL0     H85791   4.821   3.639   5.540  2.2181  0.6028  0.1195
  622MOL0     H85792   4.731   3.468   5.645  0.0326  1.8976 -0.7819
  622MOL0     H85793   4.650   3.439   5.503 -0.6916 -0.2340  2.1284
  622MOL0     H85794   4.913   3.079   5.508 -0.6800 -3.3296 -0.0057
  622MOL0     H85795   4.912   2.792   5.704 -1.3987 -1.7934 -0.1011
  622MOL0     H85796   4.970   2.869   5.559  0.0644  2.2989  1.9469
  622MOL0     H85797   4.825   2.779   5.542  1.1699 -1.2182  1.1322
  622MOL0     H85798   4.750   2.592   5.922  0.6219 -1.4461 -0.3601
  622MOL0     H85799   4.730   2.432   6.128  0.2510 -1.4397  4.4452
  622MOL0     H85800   4.738   2.582   6.522 -1.9089  1.2471  4.6768
  622MOL0     H85801   4.564   2.571   6.497  1.0723  1.6099 -1.0827
  622MOL0     H85802   4.539   2.367   6.586 -0.5325  0.9527 -2.1062
  622MOL0     H85803   4.701   2.314   6.542 -0.6793  1.6816 -2.5436
  622MOL0     H85804   4.646   2.336   6.789  0.4901 -0.7839 -0.0414
  622MOL0     H85805   4.616   2.509   6.774 -1.9248 -1.8936 -0.0865
  622MOL0     H85806   4.892   2.414   6.679  1.4646 -1.1433  0.2218
  622MOL0     H85807   4.850   2.364   6.847  0.1669  3.9955  2.3821
  622MOL0     H85808   4.817   2.657   6.743  0.0952  1.5139  2.0161
  622MOL0     H85809   4.828   2.585   6.902 -0.9091  2.6440 -0.5480
  622MOL0     H85810   5.059   2.623   6.686  1.5686  0.1677  0.0148
  622MOL0     H85811   5.074   2.490   6.807 -0.6977  0.1572  0.2342
  622MOL0     H85812   5.067   2.651   6.985  0.9596  2.2530  1.7363
  622MOL0     H85813   5.060   2.785   6.869 -0.0264  0.2074  1.7332
  622MOL0     H85814   5.281   2.603   6.957 -1.6059 -1.0895  0.3306
  622MOL0     H85815   5.284   2.774   6.961  1.0932  2.3149 -2.6615
  622MOL0     H85816   4.630   2.771   6.380  1.5617  1.1576 -0.1733
  622MOL0     H85817   4.624   2.905   6.196  1.2685  0.5144  0.1138
  622MOL0     H85818   4.569   3.105   5.869 -0.5341 -2.7713  0.4503
  622MOL0     H85819   4.617   3.299   5.724 -1.6809 -0.3624 -0.3173
  622MOL0     H85820   5.474   4.399   5.817 -0.3858  0.6366  0.3928
  622MOL0     H85821   5.478   4.633   5.924  4.0632  0.1950  0.6687
  622MOL0     H85822   5.298   4.735   6.542 -2.3096 -1.4418 -3.0377
  622MOL0     H85823   5.204   4.937   6.646  1.0555 -2.1923  0.4174
  622MOL0     H85824   5.272   5.152   6.714 -1.2065 -0.2863  0.3430
  622MOL0     H85825   5.308   5.287   6.611 -0.1445 -0.1681  0.9963
  622MOL0     H85826   5.184   5.327   6.829 -0.2144 -0.3269 -0.0974
  622MOL0     H85827   5.036   5.273   6.729 -0.2523  0.4724 -2.4687
  622MOL0     H85828   5.224   5.474   6.626  0.2997 -0.2112  1.3543
  622MOL0     H85829   5.058   5.454   6.577 -1.2120  2.9705  0.8662
  622MOL0     H85830   5.130   5.536   6.853  1.8063  1.7684 -1.7971
  622MOL0     H85831   4.957   5.532   6.792 -1.0369  0.8756 -0.4471
  622MOL0     H85832   5.099   5.881   6.594 -3.3525  1.5302  1.3448
  622MOL0     H85833   5.231   5.146   6.289  0.1961 -0.0425  0.2595
  622MOL0     H85834   5.440   4.972   6.121 -0.0922  3.3000 -0.4441
  622MOL0     H85835   5.295   4.878   6.079  1.3685 -0.8690 -0.9056
  622MOL0     H85836   5.280   5.060   6.101  1.1779  0.6324 -1.0441
  623MOL0     O85837   6.269  11.409   5.738  0.3056  0.1164 -0.3818
  623MOL0     C85838   6.376  11.373   5.699  0.2297 -0.0285 -0.5397
  623MOL0     O85839   6.483  11.345   5.780  0.3127 -0.0699 -0.9295
  623MOL0     C85840   6.457  11.285   5.904 -0.5431  0.2409  0.8822
  623MOL0     C85841   6.474  11.144   5.914 -0.2286  0.3951  0.0295
  623MOL0     C85842   6.432  11.072   6.024 -0.0819  0.2646 -0.3876
  623MOL0     C85843   6.382  11.144   6.137  0.1190  0.4192  1.0344
  623MOL0     O85844   6.335  11.094   6.254  0.1791  0.3850  0.6427
  623MOL0     C85845   6.365  10.956   6.281  0.2391  1.2727 -0.4721
  623MOL0     C85846   6.343  10.922   6.429  0.3352 -0.1346 -0.0256
  623MOL0     C85847   6.253  11.028   6.503 -0.0138  0.7846  0.8046
  623MOL0     C85848   6.198  10.983   6.641  0.0125  0.1963 -1.3338
  623MOL0     C85849   6.084  10.878   6.622  0.8526 -0.0368 -0.7811
  623MOL0     C85850   6.017  10.863   6.758 -0.6856 -1.3921 -1.1544
  623MOL0     C85851   5.874  10.802   6.758 -0.2801 -0.1540 -0.2646
  623MOL0     C85852   5.869  10.655   6.707  0.2355 -0.4546 -0.4105
  623MOL0     N85853   5.725  10.617   6.702  0.3058 -0.2993  0.0447
  623MOL0     C85854   5.632  10.658   6.601 -0.2373 -0.1770  0.1895
  623MOL0     C85855   5.514  10.604   6.635  0.6083  0.2070 -0.7013
  623MOL0     C85856   5.381  10.599   6.567 -0.5271 -0.4358 -0.3180
  623MOL0     C85857   5.333  10.743   6.540 -0.6237 -0.7030  0.2440
  623MOL0     C85858   5.199  10.742   6.463  0.4133 -0.7514 -0.0077
  623MOL0     C85859   5.156  10.892   6.438  0.0828 -0.5210  0.0680
  623MOL0     O85860   5.252  10.971   6.363  0.1132 -0.1926  0.4515
  623MOL0     C85861   5.241  11.106   6.380  0.2256 -0.1190 -0.5616
  623MOL0     C85862   5.115  11.161   6.352  0.5308 -0.8570 -0.5862
  623MOL0     C85863   5.110  11.301   6.336 -1.4067 -0.4979 -0.6655
  623MOL0     C85864   4.972  11.367   6.327  0.8860 -0.1145 -0.3253
  623MOL0     C85865   5.231  11.375   6.339 -1.1510  0.3975  0.1484
  623MOL0     C85866   5.248  11.516   6.307 -0.1214 -0.3262  1.2970
  623MOL0     O85867   5.130  11.583   6.293 -0.8673 -0.5139 -0.3496
  623MOL0     C85868   5.132  11.717   6.260 -0.2197 -0.0006  0.3612
  623MOL0     C85869   5.192  11.811   6.329  0.8374  0.2033 -0.6265
  623MOL0     C85870   5.192  11.947   6.289  0.1258  0.2972 -0.1984
  623MOL0     C85871   5.129  11.979   6.169  0.1982 -0.6642  0.0687
  623MOL0     O85872   5.125  12.111   6.126  0.4776 -0.3353 -0.4757
  623MOL0     C85873   5.201  12.213   6.181 -0.4403 -0.2018  0.5596
  623MOL0     C85874   5.345  12.219   6.120 -0.2687 -0.7003  0.0377
  623MOL0     C85875   5.432  12.348   6.140 -0.2061 -0.3515 -0.0764
  623MOL0     C85876   5.440  12.406   6.283  0.5331  0.8867 -0.0512
  623MOL0     C85877   5.555  12.502   6.281  0.3036  0.3415  0.8751
  623MOL0     C85878   5.553  12.617   6.380 -0.8007 -0.9335  0.7064
  623MOL0     C85879   5.443  12.724   6.349 -0.1138 -0.8522 -0.4829
  623MOL0     C85880   5.471  12.861   6.418 -0.7304  0.3235  0.2753
  623MOL0    Cl85881   5.321  12.966   6.409 -0.1363 -0.0178 -0.0563
  623MOL0     C85882   5.073  11.880   6.092 -0.0810  0.2324 -0.2712
  623MOL0     C85883   5.080  11.747   6.137 -1.0836 -0.3687  0.6068
  623MOL0     O85884   5.363  11.570   6.306  0.6176 -0.1387  0.5408
  623MOL0     C85885   5.352  11.316   6.368  0.1059 -0.4768 -0.2539
  623MOL0     C85886   5.361  11.183   6.398  1.1452  0.5700 -0.1858
  623MOL0     N85887   5.543  10.522   6.745  0.8886 -0.8276  0.0881
  623MOL0     N85888   5.658  10.537   6.789 -0.2604 -0.4098 -0.6148
  623MOL0     C85889   6.381  11.288   6.132 -1.2256 -0.7144 -0.4757
  623MOL0     C85890   6.414  11.358   6.013  0.1640 -0.0814 -0.0070
  623MOL0     C85891   6.394  11.391   5.557  0.8517  0.3116  1.3027
  623MOL0     C85892   6.277  11.424   5.474 -0.9476  0.6563 -0.9215
  623MOL0     C85893   6.286  11.463   5.335  0.0680  0.0856 -1.1105
  623MOL0     C85894   6.411  11.477   5.281  0.6076  0.6284  0.0712
  623MOL0     O85895   6.416  11.520   5.151 -0.1881  0.1779  0.1237
  623MOL0     C85896   6.397  11.414   5.050 -0.2958  1.0538 -0.3081
  623MOL0     C85897   6.407  11.444   4.893 -0.3385 -0.3708  0.3804
  623MOL0     C85898   6.533  11.522   4.859 -1.2342  1.1982  1.1288
  623MOL0     C85899   6.660  11.458   4.907 -0.5619  0.2245  0.0098
  623MOL0     C85900   6.676  11.325   4.846 -1.3976 -0.3621 -0.7269
  623MOL0     C85901   6.689  11.226   4.781  0.4464  0.0312 -0.4840
  623MOL0     C85902   6.527  11.439   5.357  0.1701 -0.9008  0.0556
  623MOL0     C85903   6.524  11.396   5.491 -1.0434 -0.2979 -0.1955
  623MOL0     C85904   6.663  11.379   5.550 -0.7352  0.2686 -0.5789
  623MOL0     H85905   6.505  11.093   5.823 -0.8729 -1.8291  1.0130
  623MOL0     H85906   6.467  10.971   6.042  1.5622  0.9777  0.5994
  623MOL0     H85907   6.470  10.935   6.263 -0.0779 -1.5496  0.5312
  623MOL0     H85908   6.312  10.876   6.228  3.7997 -1.3671 -0.4023
  623MOL0     H85909   6.286  10.829   6.438 -0.3574 -0.0844 -2.8698
  623MOL0     H85910   6.436  10.919   6.486  1.1884 -1.1066 -1.4049
  623MOL0     H85911   6.304  11.125   6.510 -0.8197  1.4738 -1.8716
  623MOL0     H85912   6.178  11.040   6.425  0.9666 -1.9803 -0.7056
  623MOL0     H85913   6.275  10.943   6.706 -1.2104  1.1383  0.7869
  623MOL0     H85914   6.156  11.069   6.695 -0.1529 -0.9407  0.4166
  623MOL0     H85915   6.127  10.782   6.591 -0.4127 -0.7714 -0.3370
  623MOL0     H85916   6.008  10.919   6.554 -2.1648 -3.1150  0.4483
  623MOL0     H85917   6.075  10.804   6.830 -0.8131  2.1584  2.2219
  623MOL0     H85918   5.997  10.962   6.801 -4.3408 -1.0903 -3.1371
  623MOL0     H85919   5.816  10.869   6.694  0.2099  0.2750 -0.2709
  623MOL0     H85920   5.832  10.810   6.858  0.4612  2.7916 -0.0918
  623MOL0     H85921   5.916  10.653   6.608 -2.0916  2.6739 -1.7718
  623MOL0     H85922   5.932  10.587   6.766  0.0050 -0.6672 -0.4112
  623MOL0     H85923   5.640  10.719   6.511 -5.3792 -0.3313 -0.6742
  623MOL0     H85924   5.313  10.541   6.630 -4.4991 -0.6012 -4.2654
  623MOL0     H85925   5.380  10.543   6.473  1.5422 -2.1502  0.6076
  623MOL0     H85926   5.324  10.797   6.635  0.4997 -0.4471  0.2168
  623MOL0     H85927   5.403  10.793   6.472 -0.0393 -0.5814  0.9262
  623MOL0     H85928   5.202  10.687   6.369 -2.0098 -0.3748 -0.3682
  623MOL0     H85929   5.125  10.695   6.529  2.0752  1.8127  4.1300
  623MOL0     H85930   5.059  10.880   6.389  0.0510 -1.5682  0.3644
  623MOL0     H85931   5.143  10.934   6.538 -0.7255 -1.0212  0.1861
  623MOL0     H85932   5.019  11.110   6.348  1.3379 -2.3660 -1.9841
  623MOL0     H85933   4.964  11.441   6.406  0.5098 -0.8768  0.3720
  623MOL0     H85934   4.895  11.291   6.343  0.3728  0.2299 -1.1249
  623MOL0     H85935   4.946  11.413   6.231 -2.4949 -0.2804  0.3703
  623MOL0     H85936   5.246  11.786   6.420 -1.5344 -2.3074  0.2113
  623MOL0     H85937   5.231  12.018   6.361  4.4483 -1.2240 -0.6818
  623MOL0     H85938   5.153  12.307   6.154 -0.3082 -0.2788  0.0420
  623MOL0     H85939   5.197  12.205   6.290 -2.9773 -1.5760  0.4231
  623MOL0     H85940   5.412  12.146   6.165  3.0938  3.2297  2.1531
  623MOL0     H85941   5.333  12.201   6.013 -0.8155  3.9971 -0.9088
  623MOL0     H85942   5.387  12.428   6.080  0.6907 -0.9535 -1.6115
  623MOL0     H85943   5.532  12.324   6.103 -0.5683 -1.2367 -0.4992
  623MOL0     H85944   5.450  12.328   6.359 -1.0807  1.8165  1.1807
  623MOL0     H85945   5.350  12.464   6.309  0.4776  2.7978 -3.8349
  623MOL0     H85946   5.649  12.455   6.312 -1.0197 -0.4852  4.1026
  623MOL0     H85947   5.557  12.533   6.176  0.5718 -2.3352  0.0099
  623MOL0     H85948   5.659  12.645   6.376  0.2475 -4.3529  0.8343
  623MOL0     H85949   5.537  12.590   6.485  0.5534  0.5813  1.3484
  623MOL0     H85950   5.347  12.692   6.391  1.0158  0.7240  3.8335
  623MOL0     H85951   5.438  12.746   6.242  0.0596  2.7562  0.1218
  623MOL0     H85952   5.551  12.910   6.362  1.7352 -0.2397  3.0954
  623MOL0     H85953   5.508  12.845   6.519  1.8260 -0.9764 -0.7795
  623MOL0     H85954   5.020  11.906   6.001 -3.0177 -0.7795  1.0105
  623MOL0     H85955   5.049  11.670   6.067  0.9168 -0.3726 -0.3326
  623MOL0     H85956   5.444  11.374   6.371  0.0363 -0.2559 -1.5912
  623MOL0     H85957   5.462  11.148   6.414  1.3491  2.2483  3.1358
  623MOL0     H85958   6.338  11.350   6.210 -0.9611  0.1984 -1.0463
  623MOL0     H85959   6.402  11.465   6.008  2.7754  0.4416  2.2341
  623MOL0     H85960   6.183  11.424   5.527  0.4647  2.3706  1.8308
  623MOL0     H85961   6.202  11.498   5.276 -1.3691  1.3284  1.5293
  623MOL0     H85962   6.475  11.341   5.075 -1.0767 -0.6166 -2.4577
  623MOL0     H85963   6.300  11.367   5.069 -0.0504  0.4827 -0.4465
  623MOL0     H85964   6.324  11.506   4.857  0.2304 -1.2002 -2.5599
  623MOL0     H85965   6.408  11.350   4.837 -1.3396 -0.3194  0.2545
  623MOL0     H85966   6.527  11.523   4.750  1.1041  0.7546  0.9594
  623MOL0     H85967   6.533  11.624   4.899 -1.4192  1.9437 -0.6893
  623MOL0     H85968   6.658  11.442   5.015  1.2466 -1.8756 -0.1876
  623MOL0     H85969   6.732  11.535   4.879 -2.3384  2.8088  2.1125
  623MOL0     H85970   6.711  11.132   4.734 -0.9470 -0.3657 -0.3831
  623MOL0     H85971   6.624  11.434   5.309 -0.1538 -2.6257 -0.5093
  623MOL0     H85972   6.743  11.357   5.479 -0.4399 -0.6750  0.0405
  623MOL0     H85973   6.693  11.475   5.594 -0.6063 -0.1026  0.1505
  623MOL0     H85974   6.666  11.297   5.622 -1.5635  1.3136  0.6842
  624MOL0     O85975   0.890   3.502   6.271 -0.2450  0.4383  0.0173
  624MOL0     C85976   0.858   3.389   6.300  0.1716 -0.1348  0.1739
  624MOL0     O85977   0.931   3.267   6.282  0.5628 -0.2138  0.0840
  624MOL0     C85978   1.069   3.276   6.273  0.3774 -0.0216  0.6137
  624MOL0     C85979   1.148   3.355   6.353  0.5347 -0.4421 -0.6281
  624MOL0     C85980   1.285   3.341   6.364 -0.3326 -0.6932  0.3027
  624MOL0     C85981   1.350   3.245   6.275 -0.4388  0.4921 -0.7094
  624MOL0     O85982   1.484   3.224   6.259 -0.6947 -0.3544  0.2769
  624MOL0     C85983   1.587   3.269   6.337  0.2492 -0.6927 -0.7983
  624MOL0     C85984   1.628   3.399   6.280  0.2458 -0.3785  0.1954
  624MOL0     C85985   1.707   3.388   6.155 -0.1055 -0.0154  0.5769
  624MOL0     C85986   1.782   3.510   6.098  0.5990  1.0832  0.0551
  624MOL0     C85987   1.853   3.500   5.959  0.0746 -0.3826  0.2548
  624MOL0     C85988   1.946   3.625   5.927  0.5712 -0.6346  1.1810
  624MOL0     C85989   2.036   3.671   6.038  0.0811  0.3586  0.6921
  624MOL0     C85990   2.162   3.751   5.991  0.0282  0.2090 -0.3744
  624MOL0     N85991   2.294   3.690   6.046  1.2465 -0.0727 -0.5239
  624MOL0     C85992   2.347   3.573   6.013 -0.3530 -0.2072 -0.4139
  624MOL0     C85993   2.457   3.566   6.082 -0.2633  0.3819 -0.3724
  624MOL0     C85994   2.546   3.440   6.091 -0.3283  0.3611 -0.2826
  624MOL0     C85995   2.656   3.438   6.198  0.7869  0.1718  0.7528
  624MOL0     C85996   2.796   3.479   6.148 -0.1087  0.3421 -0.5234
  624MOL0     C85997   2.905   3.478   6.259 -0.4426 -1.2956  0.5805
  624MOL0     O85998   2.955   3.353   6.288 -0.2585 -0.1727  0.4167
  624MOL0     C85999   3.070   3.308   6.220  0.5484 -0.2851 -0.6870
  624MOL0     C86000   3.181   3.380   6.189  0.3488  0.4389 -0.0614
  624MOL0     C86001   3.301   3.317   6.152  0.2373 -0.7405  0.5821
  624MOL0     C86002   3.423   3.402   6.163  0.5807  0.1793 -0.2619
  624MOL0     C86003   3.297   3.182   6.118  0.2443 -0.2174  1.0151
  624MOL0     C86004   3.425   3.125   6.058 -0.1666  0.1110  0.4953
  624MOL0     O86005   3.449   3.134   5.924  0.4381 -0.4835  0.4299
  624MOL0     C86006   3.565   3.089   5.870 -0.6546  0.5987  0.7834
  624MOL0     C86007   3.663   3.001   5.931 -0.8709  0.0675  0.4546
  624MOL0     C86008   3.771   2.948   5.856 -0.4722 -0.5541 -0.1644
  624MOL0     C86009   3.782   2.968   5.719  0.5340 -0.3371  0.4816
  624MOL0     O86010   3.885   2.899   5.655  0.5656  0.8810  0.7457
  624MOL0     C86011   3.952   2.955   5.540  0.4666  0.5668  0.3924
  624MOL0     C86012   4.032   3.078   5.576 -0.4077 -0.7902 -0.9916
  624MOL0     C86013   4.131   3.024   5.684  0.1960 -0.1109 -0.2460
  624MOL0     C86014   4.197   3.134   5.762 -0.1472  0.4118  0.5970
  624MOL0     C86015   4.120   3.182   5.883 -0.0302 -0.4336  0.6392
  624MOL0     C86016   3.983   3.256   5.866  0.3276  0.9910 -0.2047
  624MOL0     C86017   3.913   3.288   5.994 -0.0052  0.4905 -0.3118
  624MOL0     C86018   3.987   3.393   6.082  0.5869 -0.4363  0.6913
  624MOL0    Cl86019   3.891   3.428   6.217  0.3607  0.1989  0.3780
  624MOL0     C86020   3.680   3.046   5.652 -0.3566 -0.4643 -0.1873
  624MOL0     C86021   3.588   3.115   5.730 -0.5778 -0.9828  0.0309
  624MOL0     O86022   3.483   3.059   6.139 -0.7186 -0.2427  0.3773
  624MOL0     C86023   3.182   3.109   6.152  0.4689  0.3732  0.4243
  624MOL0     C86024   3.070   3.172   6.201 -0.0008 -0.3243 -0.0540
  624MOL0     N86025   2.475   3.673   6.164  0.1536  0.3515  0.4976
  624MOL0     N86026   2.373   3.754   6.140 -0.0644  0.2192  0.0353
  624MOL0     C86027   1.271   3.179   6.181 -0.1741 -0.0228 -0.4441
  624MOL0     C86028   1.126   3.183   6.179 -0.1730  0.0026 -0.7866
  624MOL0     C86029   0.719   3.374   6.358 -0.1724 -0.0027  0.1628
  624MOL0     C86030   0.672   3.251   6.409 -0.3164 -0.6011 -0.4227
  624MOL0     C86031   0.547   3.238   6.456 -0.1674  0.4291 -0.4280
  624MOL0     C86032   0.455   3.343   6.467  0.5333  0.6646 -0.2812
  624MOL0     O86033   0.342   3.311   6.541  1.8000 -0.6526 -0.4092
  624MOL0     C86034   0.260   3.414   6.596  0.4522 -0.7740  0.1910
  624MOL0     C86035   0.124   3.372   6.645 -0.1942  0.5610 -0.9289
  624MOL0     C86036   0.024   3.486   6.657 -0.3954 -0.6650 -0.0837
  624MOL0     C86037   0.077   3.609   6.736 -0.1793 -0.9891  0.0993
  624MOL0     C86038   0.069   3.586   6.883 -0.3207  0.1153  0.2221
  624MOL0     C86039   0.061   3.545   6.993 -0.2298 -0.4273  0.1611
  624MOL0     C86040   0.493   3.470   6.418 -0.2311  0.0513  0.4116
  624MOL0     C86041   0.623   3.483   6.366  0.4689  0.0208 -0.6346
  624MOL0     C86042   0.638   3.619   6.306  0.3984  0.6743  0.0103
  624MOL0     H86043   1.091   3.428   6.410 -1.0254 -1.4110 -0.8939
  624MOL0     H86044   1.345   3.401   6.432 -3.1782 -1.5146  3.8860
  624MOL0     H86045   1.675   3.204   6.340 -0.1354 -1.2023  1.2720
  624MOL0     H86046   1.557   3.278   6.442 -1.4319 -0.4208 -1.2672
  624MOL0     H86047   1.531   3.445   6.258 -1.5367 -3.1570  1.6518
  624MOL0     H86048   1.685   3.462   6.349 -0.9362  0.5253  0.3749
  624MOL0     H86049   1.784   3.315   6.180  1.4542  1.7309  1.0717
  624MOL0     H86050   1.631   3.366   6.079 -0.8716  1.7182  0.7700
  624MOL0     H86051   1.715   3.596   6.099  0.1189  0.7080  0.7227
  624MOL0     H86052   1.863   3.527   6.170  1.2423 -2.3595  0.3299
  624MOL0     H86053   1.784   3.483   5.876  0.7977 -1.2105 -0.1934
  624MOL0     H86054   1.927   3.419   5.965  0.1287 -0.7431 -3.2794
  624MOL0     H86055   2.004   3.592   5.841  2.4652 -1.5698  2.7427
  624MOL0     H86056   1.892   3.713   5.890  0.3269 -1.2476  0.0465
  624MOL0     H86057   2.063   3.581   6.094  0.8719 -0.0579 -0.3243
  624MOL0     H86058   1.971   3.733   6.101 -2.0346 -0.4117 -0.6295
  624MOL0     H86059   2.171   3.729   5.885  3.1693 -1.5270  0.1420
  624MOL0     H86060   2.149   3.859   6.009 -1.0756  0.3789 -1.9934
  624MOL0     H86061   2.297   3.506   5.944 -0.1025 -2.3184  1.3445
  624MOL0     H86062   2.576   3.413   5.989 -0.9452 -2.3051  0.1421
  624MOL0     H86063   2.476   3.358   6.114 -0.9279 -0.0301 -3.1068
  624MOL0     H86064   2.634   3.504   6.282  0.7926  0.6844  0.3542
  624MOL0     H86065   2.663   3.337   6.239 -0.4429  0.2045  1.0648
  624MOL0     H86066   2.837   3.401   6.083 -0.3386 -2.1201  2.0766
  624MOL0     H86067   2.788   3.581   6.110 -1.2372  0.8336  0.9526
  624MOL0     H86068   2.991   3.540   6.232 -0.1600 -1.9055  0.0480
  624MOL0     H86069   2.851   3.518   6.346 -0.0955  2.5852 -0.7934
  624MOL0     H86070   3.186   3.488   6.199  0.3041  0.8692 -3.3127
  624MOL0     H86071   3.492   3.364   6.239 -0.8430  6.0177  4.7508
  624MOL0     H86072   3.400   3.504   6.193 -0.6547  0.9083 -3.3029
  624MOL0     H86073   3.482   3.411   6.071  1.0436 -0.2089 -0.0092
  624MOL0     H86074   3.662   2.970   6.035  0.9833 -0.0053  0.4976
  624MOL0     H86075   3.853   2.907   5.915 -1.6814 -1.0528  1.2068
  624MOL0     H86076   4.022   2.879   5.504 -3.2511 -2.7303 -0.5832
  624MOL0     H86077   3.878   2.962   5.459  1.7461  0.9314 -0.7799
  624MOL0     H86078   4.096   3.105   5.491  0.1301 -0.2172 -0.4079
  624MOL0     H86079   3.968   3.163   5.601 -1.1574 -1.7094  0.3522
  624MOL0     H86080   4.205   2.970   5.626  0.9950  1.9785 -1.2862
  624MOL0     H86081   4.101   2.953   5.762  0.2178  0.2243  0.0731
  624MOL0     H86082   4.236   3.220   5.705 -0.3023 -0.3424 -0.6856
  624MOL0     H86083   4.290   3.092   5.802  2.0307  1.1372 -3.1610
  624MOL0     H86084   4.092   3.098   5.947 -1.4307 -1.1907 -0.8984
  624MOL0     H86085   4.190   3.243   5.940 -1.0907  2.0521 -0.5488
  624MOL0     H86086   3.918   3.185   5.812 -0.9200  1.2511  0.9176
  624MOL0     H86087   3.996   3.346   5.806 -1.2279 -0.1881 -2.4873
  624MOL0     H86088   3.911   3.190   6.044  2.7694 -0.0679 -1.1059
  624MOL0     H86089   3.809   3.319   5.983  0.1361  1.2396  0.3310
  624MOL0     H86090   3.981   3.484   6.022 -1.9419 -1.0351 -0.1153
  624MOL0     H86091   4.088   3.366   6.115  1.9534  3.2302 -0.0634
  624MOL0     H86092   3.706   3.057   5.547  4.7265  1.3980  0.9591
  624MOL0     H86093   3.541   3.187   5.663  0.6635 -0.0807  0.0946
  624MOL0     H86094   3.174   3.001   6.146  1.9301  0.3204 -1.2791
  624MOL0     H86095   2.981   3.118   6.235  1.0717 -1.3792  1.2020
  624MOL0     H86096   1.317   3.110   6.111  1.2071  3.0761 -2.8295
  624MOL0     H86097   1.055   3.120   6.127 -4.1335  1.8164  1.9648
  624MOL0     H86098   0.742   3.168   6.416 -0.8009 -1.0086 -0.3980
  624MOL0     H86099   0.525   3.148   6.513 -2.0835  2.0859  1.6465
  624MOL0     H86100   0.308   3.468   6.679  1.4679  1.1938 -1.5882
  624MOL0     H86101   0.240   3.487   6.517  0.1905 -1.8746 -0.7736
  624MOL0     H86102   0.114   3.307   6.732  0.8651 -0.2336 -1.3757
  624MOL0     H86103   0.099   3.311   6.559 -0.3878 -1.3431  0.4234
  624MOL0     H86104  -0.001   3.522   6.557  3.7718 -3.4406 -2.4340
  624MOL0     H86105  -0.067   3.440   6.697  0.1779 -1.3910  0.4035
  624MOL0     H86106   0.014   3.693   6.708  0.3490 -1.2053 -1.9366
  624MOL0     H86107   0.181   3.632   6.708 -0.9477 -0.9887 -3.1445
  624MOL0     H86108   0.030   3.514   7.091  1.3190  0.0756  0.8521
  624MOL0     H86109   0.422   3.549   6.437 -1.1132 -0.7597  0.5654
  624MOL0     H86110   0.683   3.683   6.383  1.2038  1.0085 -0.7262
  624MOL0     H86111   0.694   3.614   6.212 -2.0169 -1.7907 -1.4318
  624MOL0     H86112   0.538   3.659   6.290 -0.3200 -1.5463 -1.6150
  625MOL0     O86113   8.842   5.425   1.053  0.7632 -0.6420  0.3879
  625MOL0     C86114   8.887   5.406   0.941  1.5370  0.4981  1.2841
  625MOL0     O86115   8.927   5.509   0.845  0.1209 -0.6893 -0.3999
  625MOL0     C86116   8.950   5.643   0.894  0.4040  0.0627 -0.2300
  625MOL0     C86117   9.066   5.663   0.962  0.3695 -0.5546 -0.6322
  625MOL0     C86118   9.101   5.793   1.004  0.5315 -0.5993 -0.5311
  625MOL0     C86119   9.010   5.901   0.993  0.7065  0.5694 -0.9180
  625MOL0     O86120   9.038   6.022   1.053  0.5221 -0.0887 -0.0935
  625MOL0     C86121   9.023   6.129   0.958  1.4302 -0.5825  0.1769
  625MOL0     C86122   9.027   6.256   1.021  1.2897 -0.8210  0.0167
  625MOL0     C86123   9.002   6.371   0.919  0.5632 -0.1617 -0.2404
  625MOL0     C86124   8.960   6.500   0.983  0.7067  0.1728 -0.0322
  625MOL0     C86125   9.070   6.569   1.075  0.5715 -0.3768  0.1793
  625MOL0     C86126   9.071   6.514   1.218 -0.4774  0.1285 -1.0529
  625MOL0     C86127   9.188   6.579   1.306 -0.1765  0.5240 -1.3375
  625MOL0     C86128   9.208   6.525   1.453  0.8747  0.3195  0.3865
  625MOL0     N86129   9.081   6.555   1.530 -0.7185 -0.0404 -0.6909
  625MOL0     C86130   9.025   6.677   1.555 -1.4266 -0.7505 -0.6351
  625MOL0     C86131   8.910   6.650   1.620  0.2389 -0.1211  0.2529
  625MOL0     C86132   8.795   6.738   1.659  0.1283 -0.9762  1.6230
  625MOL0     C86133   8.746   6.818   1.536  1.0121 -0.8092  0.3180
  625MOL0     C86134   8.696   6.743   1.409  0.2041 -0.2819  0.5103
  625MOL0     C86135   8.734   6.808   1.274  0.7377 -0.3338 -0.0691
  625MOL0     O86136   8.689   6.730   1.162 -0.8951 -0.4800  0.9579
  625MOL0     C86137   8.604   6.792   1.070 -0.2995  0.5474  0.6533
  625MOL0     C86138   8.633   6.778   0.932 -0.4408  0.0896 -0.9671
  625MOL0     C86139   8.547   6.825   0.831  0.3918 -1.1791  0.3703
  625MOL0     C86140   8.578   6.799   0.680  0.0362  0.4005  0.0057
  625MOL0     C86141   8.429   6.904   0.866 -0.4552  0.2734  0.2994
  625MOL0     C86142   8.329   6.971   0.767  0.5409  0.1898 -0.4924
  625MOL0     O86143   8.232   7.053   0.828 -0.6685 -1.0251 -0.6492
  625MOL0     C86144   8.144   7.128   0.756 -0.6068 -0.6026 -0.1644
  625MOL0     C86145   8.057   7.066   0.678  0.0770  0.2464 -0.5956
  625MOL0     C86146   7.966   7.154   0.618  0.2947 -0.0695  0.1608
  625MOL0     C86147   7.953   7.297   0.633 -0.6291  0.0765  0.3254
  625MOL0     O86148   7.854   7.369   0.584 -0.0771 -1.0527  0.4315
  625MOL0     C86149   7.873   7.511   0.594  0.9187 -0.1212  0.0314
  625MOL0     C86150   7.756   7.586   0.524 -0.4365 -0.2977  0.2995
  625MOL0     C86151   7.650   7.642   0.615 -0.0117  0.3855 -0.0428
  625MOL0     C86152   7.535   7.701   0.534  1.0214 -0.1639 -0.0881
  625MOL0     C86153   7.407   7.706   0.629  0.1748 -0.7722  0.7406
  625MOL0     C86154   7.300   7.766   0.548  0.8235  0.0684 -0.3945
  625MOL0     C86155   7.201   7.816   0.662 -0.6816  0.1154  0.7219
  625MOL0     C86156   7.072   7.852   0.595 -0.8154 -0.2671 -0.4581
  625MOL0    Cl86157   6.973   7.948   0.698 -0.2697  0.2093 -0.2126
  625MOL0     C86158   8.053   7.343   0.715  1.0955 -0.4947 -0.6104
  625MOL0     C86159   8.151   7.269   0.767  0.3944 -0.3066 -0.6860
  625MOL0     O86160   8.330   6.960   0.645 -0.1296  0.3146  0.2074
  625MOL0     C86161   8.397   6.915   1.005 -0.7887 -0.3961  0.6657
  625MOL0     C86162   8.480   6.855   1.100 -1.0031 -0.7637  0.2177
  625MOL0     N86163   8.914   6.517   1.643 -0.5199  0.2950 -0.1919
  625MOL0     N86164   9.001   6.457   1.579 -0.4524 -0.1441  0.4030
  625MOL0     C86165   8.886   5.880   0.928 -0.3179  0.0499  0.2157
  625MOL0     C86166   8.853   5.743   0.887  0.7606  0.1490  0.2704
  625MOL0     C86167   8.862   5.264   0.875  0.3293  0.3622 -0.3459
  625MOL0     C86168   8.864   5.260   0.740 -0.2280  0.2201  0.3449
  625MOL0     C86169   8.881   5.139   0.673 -0.2060 -0.2677 -0.3856
  625MOL0     C86170   8.868   5.012   0.740 -0.2487  0.4364  0.2509
  625MOL0     O86171   8.876   4.884   0.692  0.0549 -0.7176  0.9428
  625MOL0     C86172   8.939   4.882   0.568 -0.4277 -0.0170  0.0798
  625MOL0     C86173   8.967   4.744   0.508  0.0423  0.2165  0.1201
  625MOL0     C86174   9.082   4.676   0.599  0.9220  0.6082 -0.2990
  625MOL0     C86175   9.075   4.530   0.564 -0.8658  0.0886 -0.3063
  625MOL0     C86176   9.133   4.454   0.677 -0.3244  0.1173 -0.3676
  625MOL0     C86177   9.190   4.382   0.758  0.3289 -1.5559  0.1634
  625MOL0     C86178   8.855   5.024   0.875  0.4607  0.8168 -0.0723
  625MOL0     C86179   8.847   5.145   0.946 -0.4776 -1.2062 -0.6179
  625MOL0     C86180   8.834   5.126   1.099 -0.9004 -0.1173 -0.0553
  625MOL0     H86181   9.132   5.582   0.991  0.7328  0.1343  0.5246
  625MOL0     H86182   9.203   5.803   1.038  1.0588 -0.5056 -2.0862
  625MOL0     H86183   8.937   6.124   0.890  1.2284  0.7445  0.3100
  625MOL0     H86184   9.107   6.116   0.889  0.3160 -0.5359 -1.2205
  625MOL0     H86185   8.957   6.271   1.105 -0.2228  0.8073 -1.4437
  625MOL0     H86186   9.130   6.258   1.057  2.2664 -0.4670 -2.5899
  625MOL0     H86187   9.096   6.382   0.865  0.1232 -0.8703 -1.1802
  625MOL0     H86188   8.929   6.355   0.839  2.2453 -0.6720 -1.7325
  625MOL0     H86189   8.929   6.570   0.905  2.8822  0.2447 -0.8848
  625MOL0     H86190   8.867   6.491   1.040  1.4766 -0.4314  1.1599
  625MOL0     H86191   9.040   6.674   1.071  0.9118 -0.3158 -1.4841
  625MOL0     H86192   9.171   6.579   1.035  0.4527 -0.3615 -0.1231
  625MOL0     H86193   8.975   6.530   1.269  1.5901 -0.8387  3.7684
  625MOL0     H86194   9.088   6.406   1.224  0.5005  0.3601  2.3475
  625MOL0     H86195   9.150   6.680   1.292 -0.6473  0.1322 -3.1586
  625MOL0     H86196   9.281   6.559   1.251 -1.1846 -2.4619 -2.1708
  625MOL0     H86197   9.224   6.417   1.448 -0.0493  0.1544  0.8591
  625MOL0     H86198   9.290   6.580   1.499 -0.5287  2.0503  0.9184
  625MOL0     H86199   9.061   6.776   1.528  0.5955 -1.6715 -1.5476
  625MOL0     H86200   8.824   6.815   1.732  2.4092  0.4344 -0.6099
  625MOL0     H86201   8.718   6.675   1.704 -1.4839 -0.1038  0.1785
  625MOL0     H86202   8.686   6.902   1.572  1.0250 -0.3850 -0.6072
  625MOL0     H86203   8.829   6.876   1.493 -0.3085  1.5822  0.8052
  625MOL0     H86204   8.732   6.640   1.404 -1.7867 -0.9814 -1.6049
  625MOL0     H86205   8.587   6.735   1.421  0.3131 -0.5878  1.3285
  625MOL0     H86206   8.686   6.907   1.274  1.5424  0.0619 -0.2091
  625MOL0     H86207   8.843   6.821   1.278  0.4944  2.8617  4.0038
  625MOL0     H86208   8.718   6.712   0.926 -1.3757 -1.1584 -0.9333
  625MOL0     H86209   8.496   6.747   0.629 -0.4159  0.5338  0.5952
  625MOL0     H86210   8.657   6.724   0.675  0.0368  0.3109  1.2460
  625MOL0     H86211   8.604   6.895   0.634  2.3410 -0.2116 -0.0417
  625MOL0     H86212   8.040   6.959   0.674 -1.2795  0.0259  4.1372
  625MOL0     H86213   7.891   7.109   0.554 -0.1714 -0.0173  0.6594
  625MOL0     H86214   7.879   7.555   0.694 -3.8757  1.4704 -0.0819
  625MOL0     H86215   7.958   7.548   0.536 -1.8685  1.7285 -3.2871
  625MOL0     H86216   7.798   7.670   0.467  2.5260 -2.3161 -0.7446
  625MOL0     H86217   7.705   7.514   0.460  0.0041  1.2378 -1.8943
  625MOL0     H86218   7.678   7.713   0.693 -1.5847  3.6242 -2.1707
  625MOL0     H86219   7.606   7.562   0.675  1.3311  0.2541  0.8032
  625MOL0     H86220   7.514   7.644   0.443 -3.3364  0.5090  0.2638
  625MOL0     H86221   7.562   7.802   0.503  2.7944 -0.2267  1.1453
  625MOL0     H86222   7.383   7.605   0.664  0.7663 -0.0855  3.3143
  625MOL0     H86223   7.440   7.768   0.712  0.6217  0.3209 -0.2369
  625MOL0     H86224   7.253   7.703   0.473  1.9353 -0.7626 -0.4302
  625MOL0     H86225   7.336   7.854   0.493  0.4565  0.0206 -0.7122
  625MOL0     H86226   7.258   7.896   0.709  4.2257 -1.5719 -1.6498
  625MOL0     H86227   7.188   7.731   0.731  0.0318 -1.3899 -0.9378
  625MOL0     H86228   7.025   7.756   0.570 -0.4030 -0.0825 -2.0474
  625MOL0     H86229   7.087   7.906   0.501  2.6044  0.3052  0.2638
  625MOL0     H86230   8.066   7.446   0.749  0.2617 -0.9222  1.1325
  625MOL0     H86231   8.223   7.295   0.844  2.4103 -1.6358 -2.0111
  625MOL0     H86232   8.317   6.979   1.040 -1.1046  0.5613 -1.5891
  625MOL0     H86233   8.457   6.857   1.206  1.1923 -2.5791  0.8154
  625MOL0     H86234   8.800   5.944   0.914  0.4496  1.1118  0.2732
  625MOL0     H86235   8.760   5.713   0.839  0.6831 -2.5583  1.9139
  625MOL0     H86236   8.868   5.356   0.690 -0.2760  0.9661  1.7254
  625MOL0     H86237   8.891   5.137   0.565  0.8608 -1.6712 -0.2901
  625MOL0     H86238   8.879   4.946   0.502  3.0632  3.7094  0.1244
  625MOL0     H86239   9.036   4.933   0.575 -0.0742 -0.9310  2.7477
  625MOL0     H86240   8.999   4.752   0.404  3.6258 -1.0117  0.9605
  625MOL0     H86241   8.874   4.688   0.506  0.4162 -0.4491 -2.4248
  625MOL0     H86242   9.178   4.716   0.566 -0.0696  2.6479 -0.8699
  625MOL0     H86243   9.058   4.707   0.701 -1.0946  1.3868 -0.9552
  625MOL0     H86244   9.123   4.522   0.466 -0.0865  1.8182 -0.0958
  625MOL0     H86245   8.976   4.484   0.552  0.2327 -2.3548 -0.4748
  625MOL0     H86246   9.218   4.312   0.833  0.1382 -0.4979  1.2499
  625MOL0     H86247   8.840   4.935   0.935  0.1242  1.9747  1.6276
  625MOL0     H86248   8.931   5.093   1.137 -1.6098  0.3170  2.2970
  625MOL0     H86249   8.825   5.220   1.154  2.5976  0.2784  0.0541
  625MOL0     H86250   8.756   5.056   1.130 -2.5648  2.5791  2.3242
  626MOL0     O86251   1.402  11.005  11.227 -0.4012  0.0784  0.1190
  626MOL0     C86252   1.462  11.007  11.118 -0.1937  1.0206  0.6108
  626MOL0     O86253   1.601  10.989  11.104 -0.1815 -0.2907  0.1618
  626MOL0     C86254   1.665  10.939  11.211 -0.1722 -0.0794 -0.9007
  626MOL0     C86255   1.644  10.804  11.246 -1.5233  0.4911 -0.2536
  626MOL0     C86256   1.710  10.754  11.359  0.7140  0.8857 -0.4299
  626MOL0     C86257   1.781  10.836  11.445  0.3446 -0.5286  0.1843
  626MOL0     O86258   1.819  10.775  11.557  0.5039  0.7648  0.2165
  626MOL0     C86259   1.863  10.865  11.664 -0.6320 -1.0444 -0.0979
  626MOL0     C86260   1.750  10.944  11.736  0.1920 -0.5517 -0.7104
  626MOL0     C86261   1.661  10.859  11.827  0.6487 -0.2755  0.1773
  626MOL0     C86262   1.727  10.821  11.961  0.3496 -1.1876  0.2207
  626MOL0     C86263   1.626  10.773  12.065  0.2082  0.1003 -0.4715
  626MOL0     C86264   1.693  10.728  12.199  0.4755 -0.1189 -0.5115
  626MOL0     C86265   1.783  10.610  12.205 -0.3742 -0.3511  0.5407
  626MOL0     C86266   1.704  10.477  12.182  0.5355  0.0287  0.1171
  626MOL0     N86267   1.607  10.460  12.290 -0.5687 -0.1176  1.2649
  626MOL0     C86268   1.652  10.435  12.423  0.5343 -0.1922 -0.0927
  626MOL0     C86269   1.538  10.438  12.504 -1.5208  0.2398  0.3218
  626MOL0     C86270   1.528  10.408  12.648 -0.4111  0.1917  0.2443
  626MOL0     C86271   1.428  10.290  12.667  0.0591 -0.4416  0.5915
  626MOL0     C86272   1.416  10.265  12.818 -0.0614  0.3663  1.1729
  626MOL0     C86273   1.302  10.163  12.845  1.0866 -1.0565 -0.1496
  626MOL0     O86274   1.177  10.218  12.809  0.5439  0.1589  0.0600
  626MOL0     C86275   1.064  10.138  12.819  0.4381 -1.1861  0.1742
  626MOL0     C86276   0.943  10.196  12.760 -1.0696  0.1976 -0.5170
  626MOL0     C86277   0.828  10.109  12.760 -1.1756  0.2626  0.1742
  626MOL0     C86278   0.706  10.175  12.705 -0.4087  0.4157 -0.3315
  626MOL0     C86279   0.823   9.982  12.824 -1.6167 -0.3438  0.1486
  626MOL0     C86280   0.696   9.914  12.835 -0.9254  0.2905  0.5261
  626MOL0     O86281   0.595   9.941  12.753  0.2662 -0.3869  0.0625
  626MOL0     C86282   0.477   9.881  12.772 -0.0345 -0.8735  0.4795
  626MOL0     C86283   0.374   9.955  12.832  0.7666  0.0406  0.2761
  626MOL0     C86284   0.255   9.881  12.851  0.3047 -0.8627  0.8823
  626MOL0     C86285   0.235   9.749  12.819  1.2419 -0.0098  0.2426
  626MOL0     O86286   0.123   9.674  12.822 -0.3095 -0.2517 -0.5534
  626MOL0     C86287  -0.005   9.743  12.815 -0.7024  0.4073  0.3435
  626MOL0     C86288  -0.115   9.645  12.800 -0.4491  0.6365 -0.7460
  626MOL0     C86289  -0.257   9.709  12.779  0.6911 -0.2748 -0.9957
  626MOL0     C86290  -0.291   9.804  12.900  0.1344  0.5262 -0.2115
  626MOL0     C86291  -0.436   9.841  12.876  0.8066 -0.2763  0.5388
  626MOL0     C86292  -0.525   9.735  12.952 -1.0281  0.0353 -0.0090
  626MOL0     C86293  -0.674   9.766  12.969  0.4733  1.6964  0.6513
  626MOL0     C86294  -0.747   9.639  13.015 -0.1033 -0.1112  0.4336
  626MOL0    Cl86295  -0.687   9.591  13.169 -0.4712 -0.7103  0.2680
  626MOL0     C86296   0.342   9.681  12.768 -0.6246 -0.5222  0.1357
  626MOL0     C86297   0.462   9.746  12.742  0.1012  0.6514 -0.2663
  626MOL0     O86298   0.680   9.830  12.925 -0.7316 -0.4642  0.4984
  626MOL0     C86299   0.939   9.938  12.885  0.3600 -0.0864 -0.5677
  626MOL0     C86300   1.058  10.018  12.883 -0.1929  0.0758 -0.1356
  626MOL0     N86301   1.438  10.478  12.416  0.1386 -0.3603 -0.2149
  626MOL0     N86302   1.481  10.497  12.297 -0.4046  0.1726  0.7662
  626MOL0     C86303   1.794  10.975  11.416  0.5403 -0.2550  0.2048
  626MOL0     C86304   1.734  11.018  11.302  0.6854  0.5354 -0.3576
  626MOL0     C86305   1.390  10.995  10.988  0.2562  0.5753  0.6651
  626MOL0     C86306   1.466  11.011  10.870  0.5134  0.6352  0.0755
  626MOL0     C86307   1.412  11.006  10.739 -0.4082 -0.0843 -0.6688
  626MOL0     C86308   1.269  11.001  10.727 -0.7204  0.1471 -0.2824
  626MOL0     O86309   1.200  10.989  10.618  0.7029 -0.1041 -0.1209
  626MOL0     C86310   1.244  11.035  10.489  0.2153  0.1399  0.2182
  626MOL0     C86311   1.171  10.954  10.385 -0.0735 -0.5727  0.1920
  626MOL0     C86312   1.013  10.984  10.395 -0.9405 -0.4205  0.3430
  626MOL0     C86313   0.950  10.876  10.483  1.1713 -0.2074  0.1321
  626MOL0     C86314   0.804  10.900  10.478 -0.2095 -0.9622 -0.6181
  626MOL0     C86315   0.684  10.916  10.492 -0.7607 -0.2611 -0.1610
  626MOL0     C86316   1.198  10.991  10.840 -0.5597 -0.4863 -0.7767
  626MOL0     C86317   1.245  10.999  10.976  0.2007  0.1113 -0.4525
  626MOL0     C86318   1.150  10.996  11.089  0.0343 -0.6155 -0.4747
  626MOL0     H86319   1.584  10.755  11.169  0.1875  4.4193 -4.6141
  626MOL0     H86320   1.720  10.652  11.393  1.3753  1.0603 -0.0823
  626MOL0     H86321   1.948  10.927  11.634 -1.6355  1.3882  1.7572
  626MOL0     H86322   1.904  10.801  11.744 -2.1865 -2.3035 -0.2676
  626MOL0     H86323   1.807  11.016  11.796  2.2589 -1.3914 -1.5347
  626MOL0     H86324   1.687  10.994  11.662 -0.6332 -1.1166 -0.3980
  626MOL0     H86325   1.570  10.911  11.858 -1.5888 -2.6147 -2.0122
  626MOL0     H86326   1.636  10.764  11.779 -1.4010 -0.4831  1.5319
  626MOL0     H86327   1.806  10.747  11.943  3.8745  2.6883 -1.7202
  626MOL0     H86328   1.782  10.904  12.004  1.4240 -2.3509  1.1818
  626MOL0     H86329   1.575  10.685  12.025  1.8136 -0.5262 -1.2029
  626MOL0     H86330   1.552  10.852  12.081 -1.5345 -1.2013 -1.6513
  626MOL0     H86331   1.752  10.814  12.233  0.7945 -0.6185  0.2356
  626MOL0     H86332   1.603  10.725  12.261  0.0848  1.9567 -0.9052
  626MOL0     H86333   1.830  10.610  12.303  1.0843 -0.4821 -0.1308
  626MOL0     H86334   1.859  10.612  12.126 -1.5316 -2.0920 -0.6954
  626MOL0     H86335   1.662  10.491  12.082 -0.0957  0.2546  0.4118
  626MOL0     H86336   1.762  10.384  12.176 -2.1596 -1.6755 -2.0910
  626MOL0     H86337   1.749  10.397  12.453  0.6861 -1.4171 -1.9701
  626MOL0     H86338   1.494  10.503  12.691 -2.6306  0.0706 -1.0377
  626MOL0     H86339   1.623  10.377  12.691 -1.5619  0.2606  3.0831
  626MOL0     H86340   1.327  10.314  12.631  0.4408  0.2158 -0.0654
  626MOL0     H86341   1.447  10.193  12.620 -0.2867 -0.7662  1.1103
  626MOL0     H86342   1.509  10.238  12.870 -0.4120  1.4654  2.4215
  626MOL0     H86343   1.388  10.362  12.860 -3.8727  0.4860 -1.1544
  626MOL0     H86344   1.317  10.076  12.780  2.6106 -1.6222  0.8975
  626MOL0     H86345   1.303  10.132  12.950 -1.0569 -3.5302 -0.7695
  626MOL0     H86346   0.945  10.289  12.704 -2.5356  0.5036 -0.1084
  626MOL0     H86347   0.729  10.282  12.705  0.8737  0.2445  3.0673
  626MOL0     H86348   0.614  10.159  12.763 -0.2114 -0.3680 -0.2227
  626MOL0     H86349   0.687  10.131  12.606  0.5759  2.1087 -1.3310
  626MOL0     H86350   0.391  10.058  12.862  2.6815  0.2530 -1.3336
  626MOL0     H86351   0.167   9.929  12.892 -4.2224 -6.2345 -1.1725
  626MOL0     H86352  -0.016   9.788  12.913 -1.6376 -1.6598  1.2421
  626MOL0     H86353  -0.014   9.812  12.730 -3.6996  0.5771  0.7062
  626MOL0     H86354  -0.096   9.572  12.721  0.4612  1.4825 -1.3313
  626MOL0     H86355  -0.112   9.571  12.881  0.6562  0.4829 -0.9109
  626MOL0     H86356  -0.332   9.630  12.768  0.4278 -0.1445 -0.1875
  626MOL0     H86357  -0.264   9.752  12.679 -3.4720  0.8454 -0.3837
  626MOL0     H86358  -0.228   9.892  12.909  1.8282 -0.6403 -0.2421
  626MOL0     H86359  -0.286   9.746  12.993 -0.0723  1.5941  0.4858
  626MOL0     H86360  -0.460   9.940  12.915  1.4496  0.6428 -1.2600
  626MOL0     H86361  -0.454   9.839  12.768 -1.4788  1.6438  0.7926
  626MOL0     H86362  -0.496   9.738  13.057 -1.0434 -1.5495  0.0503
  626MOL0     H86363  -0.508   9.634  12.914 -0.1954 -0.7991  2.4193
  626MOL0     H86364  -0.706   9.790  12.868 -2.2343 -4.1114 -0.2860
  626MOL0     H86365  -0.696   9.843  13.044 -0.0874 -0.8828  3.3840
  626MOL0     H86366  -0.722   9.557  12.948 -0.8738  1.4913 -1.9234
  626MOL0     H86367  -0.854   9.657  13.008 -0.4121 -1.4995  1.1280
  626MOL0     H86368   0.334   9.576  12.742  1.9463 -0.3815 -1.5878
  626MOL0     H86369   0.544   9.690  12.698 -1.2325 -2.3106  0.7750
  626MOL0     H86370   0.933   9.849  12.947 -0.6307 -0.3687 -1.0593
  626MOL0     H86371   1.142   9.980  12.940  0.0080 -2.6867 -2.0656
  626MOL0     H86372   1.843  11.045  11.482  0.0135  1.2564 -0.9559
  626MOL0     H86373   1.736  11.123  11.277 -1.7451  0.5148 -0.8710
  626MOL0     H86374   1.574  11.014  10.868  0.7912 -2.9276  1.5142
  626MOL0     H86375   1.478  11.029  10.655  3.7772  2.3271  2.8703
  626MOL0     H86376   1.230  11.143  10.492  2.2320  0.4507  2.9014
  626MOL0     H86377   1.349  11.016  10.468  0.7560  0.5810  2.2469
  626MOL0     H86378   1.183  10.845  10.393  0.8494 -0.5448 -0.5828
  626MOL0     H86379   1.202  11.001  10.291  1.5246  1.2958  1.5732
  626MOL0     H86380   1.006  11.082  10.442  1.6725 -0.5216  1.1113
  626MOL0     H86381   0.969  10.982  10.294 -0.8571 -0.8937  0.3098
  626MOL0     H86382   0.981  10.892  10.586 -0.6584  2.6891  0.3625
  626MOL0     H86383   0.971  10.775  10.448 -1.1239 -0.2412 -1.4067
  626MOL0     H86384   0.583  10.950  10.507 -2.0026 -2.7754 -2.1054
  626MOL0     H86385   1.091  10.973  10.837 -0.5727 -0.3655 -1.0860
  626MOL0     H86386   1.161  10.900  11.139 -1.6467 -0.6057 -0.0337
  626MOL0     H86387   1.170  11.078  11.160  1.0875 -0.5670 -0.8071
  626MOL0     H86388   1.047  10.998  11.051  0.1041  1.2560 -0.6990
  627MOL0     O86389   1.324  11.253   1.756  0.2092 -0.4070  0.2928
  627MOL0     C86390   1.412  11.309   1.818  0.6354 -0.9795 -0.1615
  627MOL0     O86391   1.540  11.345   1.770  0.2143 -0.0781  0.5410
  627MOL0     C86392   1.569  11.281   1.652 -0.0721 -0.7683  0.0432
  627MOL0     C86393   1.673  11.191   1.650 -0.4366  0.2542  0.7690
  627MOL0     C86394   1.704  11.118   1.528  1.2591 -0.3354  0.5921
  627MOL0     C86395   1.623  11.127   1.416 -0.1442  0.8757  0.5099
  627MOL0     O86396   1.651  11.050   1.305  0.3346 -0.1074  0.2880
  627MOL0     C86397   1.749  10.952   1.296 -0.3159 -0.0910  0.0112
  627MOL0     C86398   1.722  10.849   1.191 -0.2740 -0.2652  0.3394
  627MOL0     C86399   1.839  10.757   1.176  0.0870 -0.1480  0.1425
  627MOL0     C86400   1.805  10.631   1.252  1.0160 -0.4621 -0.0573
  627MOL0     C86401   1.905  10.521   1.237  0.3844 -0.0022 -0.4480
  627MOL0     C86402   1.919  10.471   1.091 -0.6454  0.0788  0.9321
  627MOL0     C86403   1.987  10.336   1.085  0.1490 -0.0308  0.2057
  627MOL0     C86404   1.952  10.235   0.968 -0.5140 -0.7636 -0.6803
  627MOL0     N86405   2.037  10.259   0.855 -0.0988  0.4588 -0.4067
  627MOL0     C86406   2.180  10.262   0.843  0.7042 -0.5359  0.3593
  627MOL0     C86407   2.194  10.305   0.714  0.8844  1.0929  0.6640
  627MOL0     C86408   2.310  10.325   0.629 -0.6372 -0.1514 -0.6969
  627MOL0     C86409   2.411  10.423   0.684  0.1156 -0.0816 -0.2605
  627MOL0     C86410   2.525  10.434   0.577 -0.6609 -0.5744  0.0586
  627MOL0     C86411   2.646  10.477   0.652  0.3415  0.0444  0.5794
  627MOL0     O86412   2.621  10.599   0.705 -0.3383  0.4056 -0.0820
  627MOL0     C86413   2.700  10.647   0.807  0.7767  0.1896 -0.2531
  627MOL0     C86414   2.797  10.587   0.882 -0.6210 -0.0569  0.9290
  627MOL0     C86415   2.883  10.649   0.972  0.5745 -0.5094  0.5896
  627MOL0     C86416   3.003  10.583   1.030 -0.3470  0.3279 -0.8003
  627MOL0     C86417   2.852  10.777   1.005 -0.1825 -0.0242 -0.0290
  627MOL0     C86418   2.908  10.849   1.124 -0.6311 -0.7944  0.0648
  627MOL0     O86419   2.920  10.789   1.243 -0.6724  0.0445  0.0342
  627MOL0     C86420   2.990  10.861   1.343  0.4860  0.0442  0.0019
  627MOL0     C86421   3.111  10.829   1.383  0.4156  0.1443  0.9762
  627MOL0     C86422   3.174  10.909   1.483  0.2017 -0.8566  0.2743
  627MOL0     C86423   3.104  11.010   1.554  0.4120 -0.4574 -0.5127
  627MOL0     O86424   3.167  11.074   1.663  0.0502  0.6290 -1.0858
  627MOL0     C86425   3.078  11.080   1.771 -0.4232 -0.2809  0.2670
  627MOL0     C86426   3.119  11.189   1.866 -0.1312  0.0803  0.6291
  627MOL0     C86427   3.254  11.157   1.931 -0.1740 -0.0680 -0.5678
  627MOL0     C86428   3.302  11.279   2.015 -1.2235  0.6801 -0.5144
  627MOL0     C86429   3.245  11.289   2.154 -0.0601 -0.2269  0.2860
  627MOL0     C86430   3.284  11.420   2.217 -0.0509 -0.1881  0.6171
  627MOL0     C86431   3.262  11.408   2.370  0.0982 -0.3260 -0.8477
  627MOL0     C86432   3.378  11.483   2.432  0.2164 -0.4687 -1.3186
  627MOL0    Cl86433   3.369  11.650   2.391  0.0744 -0.5166  0.1360
  627MOL0     C86434   2.977  11.045   1.501 -0.0706  0.3551  0.6891
  627MOL0     C86435   2.920  10.963   1.401  0.7166  0.1861  0.1820
  627MOL0     O86436   2.939  10.966   1.095 -0.2974 -0.5244 -0.1889
  627MOL0     C86437   2.753  10.848   0.934 -0.1093  0.0199 -0.0082
  627MOL0     C86438   2.684  10.781   0.830 -0.5858  0.2737  0.6695
  627MOL0     N86439   2.066  10.331   0.658 -0.5889  0.4666  0.1445
  627MOL0     N86440   1.981  10.302   0.738 -0.3455 -0.3235  0.0431
  627MOL0     C86441   1.505  11.208   1.425 -0.2644 -0.3046  0.5983
  627MOL0     C86442   1.486  11.298   1.529  0.5427  0.1758  0.0081
  627MOL0     C86443   1.388  11.361   1.959  1.3367  0.6685 -0.9624
  627MOL0     C86444   1.248  11.354   2.008  0.5004  0.6981 -0.0256
  627MOL0     C86445   1.231  11.386   2.147  0.4924  1.1169 -0.1004
  627MOL0     C86446   1.326  11.434   2.238 -0.6974  0.5421  0.1788
  627MOL0     O86447   1.284  11.472   2.367 -0.5575  0.5842  0.0082
  627MOL0     C86448   1.394  11.526   2.459 -0.5921  0.0346  0.5913
  627MOL0     C86449   1.484  11.408   2.508 -0.4500 -1.2829  0.3395
  627MOL0     C86450   1.581  11.443   2.624  0.3699  0.2971  0.1178
  627MOL0     C86451   1.699  11.532   2.578 -0.3514  0.9528  0.6224
  627MOL0     C86452   1.798  11.515   2.684 -1.4572  1.0354 -0.0633
  627MOL0     C86453   1.890  11.518   2.770  0.2509 -0.1452 -0.0776
  627MOL0     C86454   1.456  11.439   2.179  0.1960  0.4915 -0.6844
  627MOL0     C86455   1.492  11.401   2.043  1.0911  0.0056 -0.1344
  627MOL0     C86456   1.630  11.419   2.017 -0.1172  0.1315 -0.2317
  627MOL0     H86457   1.745  11.166   1.727  0.4638  0.1419 -0.0886
  627MOL0     H86458   1.798  11.064   1.524  1.7417  0.5407 -0.2762
  627MOL0     H86459   1.767  10.897   1.390 -2.7633 -0.0778  0.5474
  627MOL0     H86460   1.843  11.004   1.275  1.8202 -1.8010  4.0256
  627MOL0     H86461   1.645  10.782   1.231  0.2863 -0.8076  0.5306
  627MOL0     H86462   1.687  10.893   1.098  1.8564  3.9600  1.3047
  627MOL0     H86463   1.854  10.723   1.073 -0.3313 -1.6785  0.5584
  627MOL0     H86464   1.933  10.805   1.203  0.2460 -0.6218  0.4482
  627MOL0     H86465   1.802  10.668   1.355  0.2759  4.5640 -1.5750
  627MOL0     H86466   1.710  10.582   1.230  1.8789 -1.4240 -1.7942
  627MOL0     H86467   1.865  10.435   1.291 -0.3271  0.8167  0.3596
  627MOL0     H86468   2.008  10.541   1.269  0.6503  0.1084 -1.3292
  627MOL0     H86469   1.818  10.436   1.065 -1.8805  1.6329  3.2483
  627MOL0     H86470   1.960  10.543   1.020  1.2292 -0.3387  1.5301
  627MOL0     H86471   1.960  10.291   1.181 -3.9004  1.4252 -0.0286
  627MOL0     H86472   2.095  10.353   1.081  0.8033 -3.5330 -2.0898
  627MOL0     H86473   1.975  10.131   0.994  1.7404 -0.7437 -2.2667
  627MOL0     H86474   1.856  10.247   0.918 -0.4014 -1.7432 -1.1613
  627MOL0     H86475   2.255  10.249   0.921  0.6575  4.3912  1.5890
  627MOL0     H86476   2.282  10.345   0.525 -0.6368 -0.0579 -0.6789
  627MOL0     H86477   2.371  10.234   0.618 -0.3994 -0.0242 -0.4364
  627MOL0     H86478   2.371  10.524   0.701 -0.1980  0.0711 -1.7445
  627MOL0     H86479   2.455  10.392   0.779  2.6461  1.5839 -0.7849
  627MOL0     H86480   2.547  10.342   0.522 -1.8128 -0.0933 -1.2775
  627MOL0     H86481   2.499  10.504   0.497  3.7338 -1.5034 -2.4769
  627MOL0     H86482   2.676  10.409   0.732  0.8871 -0.3666  0.0327
  627MOL0     H86483   2.725  10.487   0.577 -0.8741  0.9675 -0.6176
  627MOL0     H86484   2.807  10.482   0.856 -1.1865  0.0395  0.2869
  627MOL0     H86485   3.083  10.657   1.038  0.0602  0.0196 -1.8373
  627MOL0     H86486   3.035  10.495   0.973  1.1003  1.6967 -2.1992
  627MOL0     H86487   2.984  10.549   1.133  3.4432  2.7977  0.9339
  627MOL0     H86488   3.163  10.753   1.327  0.7077  1.9742 -1.4179
  627MOL0     H86489   3.272  10.874   1.513  0.0605 -0.4726  1.2272
  627MOL0     H86490   2.981  11.120   1.743  0.0795  0.3521 -0.6053
  627MOL0     H86491   3.075  10.982   1.820  0.8761 -0.6408 -0.3146
  627MOL0     H86492   3.123  11.282   1.809  1.7664 -0.3315  0.0177
  627MOL0     H86493   3.051  11.206   1.950 -0.1106 -0.5740  0.7827
  627MOL0     H86494   3.323  11.144   1.847 -0.3646 -1.5000 -0.5277
  627MOL0     H86495   3.241  11.065   1.989 -1.4280  1.5082  1.8493
  627MOL0     H86496   3.283  11.367   1.953  2.2306  0.8238 -1.5570
  627MOL0     H86497   3.409  11.278   2.035 -0.9071  2.7527 -1.8209
  627MOL0     H86498   3.136  11.282   2.150  0.0836 -2.1106 -1.7956
  627MOL0     H86499   3.290  11.208   2.211 -0.7787  0.2076  1.5339
  627MOL0     H86500   3.222  11.501   2.177  1.8043  0.9389 -0.0840
  627MOL0     H86501   3.387  11.447   2.194 -1.1224  3.5005 -0.6727
  627MOL0     H86502   3.254  11.307   2.413 -2.9995  0.4235  0.6217
  627MOL0     H86503   3.171  11.460   2.400 -0.7278 -1.3391 -1.4877
  627MOL0     H86504   3.478  11.450   2.404  0.3867 -3.0593  1.7104
  627MOL0     H86505   3.371  11.478   2.541  1.1025  2.6018 -1.0307
  627MOL0     H86506   2.926  11.129   1.548 -0.3890 -0.2410  1.4237
  627MOL0     H86507   2.820  10.967   1.359  0.0417 -0.5857  1.6275
  627MOL0     H86508   2.721  10.946   0.967 -0.7458 -0.7491  1.8161
  627MOL0     H86509   2.599  10.820   0.775 -1.9985 -1.2143  1.7146
  627MOL0     H86510   1.444  11.217   1.336 -0.0654 -3.0795  0.1121
  627MOL0     H86511   1.409  11.375   1.530  1.2124  0.8631  1.7358
  627MOL0     H86512   1.160  11.316   1.956 -2.3340  2.4776  3.0865
  627MOL0     H86513   1.136  11.359   2.191  1.1483  2.1473  2.1045
  627MOL0     H86514   1.452  11.599   2.402 -0.2383  0.0987  1.0273
  627MOL0     H86515   1.352  11.570   2.549  0.8022 -1.4421  2.0459
  627MOL0     H86516   1.541  11.375   2.420 -0.4805  0.7442 -0.4767
  627MOL0     H86517   1.423  11.326   2.546  1.2749 -2.0937  1.5119
  627MOL0     H86518   1.512  11.492   2.693 -1.1115 -0.2640 -0.9139
  627MOL0     H86519   1.629  11.351   2.656  4.4684  1.3960 -2.1955
  627MOL0     H86520   1.663  11.635   2.578  0.3512  1.2532  2.8374
  627MOL0     H86521   1.734  11.494   2.481 -3.5484 -4.0262  1.0468
  627MOL0     H86522   1.977  11.539   2.828  0.4122  2.7371 -1.1602
  627MOL0     H86523   1.540  11.471   2.240  1.3288  0.4043 -2.1259
  627MOL0     H86524   1.663  11.486   1.937 -0.0585  0.6999  0.2604
  627MOL0     H86525   1.682  11.466   2.102 -0.6437 -1.0026  0.7430
  627MOL0     H86526   1.667  11.318   2.000 -1.5505 -0.5898  0.7565
  628MOL0     O86527  10.405   1.014   0.817  0.3711 -0.8740  0.5861
  628MOL0     C86528  10.453   0.922   0.882 -0.6302 -0.0701  0.4710
  628MOL0     O86529  10.586   0.877   0.881 -0.0702  0.6518 -0.6528
  628MOL0     C86530  10.709   0.933   0.835  0.4984 -0.6028  0.4769
  628MOL0     C86531  10.819   0.857   0.846 -0.7377  0.8033 -0.8180
  628MOL0     C86532  10.939   0.896   0.785  1.0682 -0.0614 -0.0190
  628MOL0     C86533  10.956   1.020   0.714  0.4649 -0.0676 -0.5965
  628MOL0     O86534  11.079   1.074   0.682 -0.2081  0.6955  0.3071
  628MOL0     C86535  11.090   1.145   0.557 -0.2262 -0.5447  0.1236
  628MOL0     C86536  11.138   1.041   0.463  0.1398 -0.3415  0.9217
  628MOL0     C86537  11.139   1.098   0.323  0.5973 -0.7677  0.5664
  628MOL0     C86538  11.061   1.006   0.234 -0.1014  0.2234 -0.4855
  628MOL0     C86539  11.026   1.083   0.108  0.2532 -0.2617  0.8706
  628MOL0     C86540  10.939   1.003   0.008  0.0946 -0.3908 -0.0964
  628MOL0     C86541  10.888   1.079  -0.110 -0.1293 -0.7592 -0.5131
  628MOL0     C86542  10.764   1.166  -0.099 -0.6305  0.2943  0.0905
  628MOL0     N86543  10.760   1.270   0.005  0.5415 -0.6249  0.0261
  628MOL0     C86544  10.844   1.376  -0.004 -1.2574  0.3765 -0.4163
  628MOL0     C86545  10.775   1.490   0.006  0.2845 -0.9846  0.8602
  628MOL0     C86546  10.825   1.638  -0.010  0.1780 -0.2898 -0.3157
  628MOL0     C86547  10.920   1.655  -0.127 -0.2501  0.5718 -0.4747
  628MOL0     C86548  10.847   1.664  -0.263  0.6358  0.5302  0.4445
  628MOL0     C86549  10.775   1.799  -0.279  0.1961 -0.0192 -0.0774
  628MOL0     O86550  10.702   1.806  -0.400  0.5665  0.1232  0.5021
  628MOL0     C86551  10.769   1.789  -0.519  0.0621  0.6844 -1.2933
  628MOL0     C86552  10.898   1.827  -0.559 -0.5407 -0.1140  0.0543
  628MOL0     C86553  10.942   1.809  -0.696  0.2893  0.4976  0.0284
  628MOL0     C86554  11.066   1.878  -0.727  0.1230 -0.6163 -0.1546
  628MOL0     C86555  10.857   1.733  -0.783  0.1176 -1.2586  0.1547
  628MOL0     C86556  10.907   1.678  -0.906  0.2351  0.4380 -0.3773
  628MOL0     O86557  10.826   1.621  -0.995  0.1263 -0.2878 -0.2802
  628MOL0     C86558  10.875   1.550  -1.102  0.6502  0.0551  0.1878
  628MOL0     C86559  10.843   1.602  -1.226 -0.2197 -0.5086  1.1282
  628MOL0     C86560  10.915   1.540  -1.338  0.5451  0.0114  0.4061
  628MOL0     C86561  10.990   1.424  -1.326  0.8044  0.7589 -0.3357
  628MOL0     O86562  11.053   1.359  -1.429  0.0654 -0.3047 -1.1200
  628MOL0     C86563  10.990   1.324  -1.554 -0.0673  0.2994 -1.2361
  628MOL0     C86564  11.098   1.293  -1.660  0.2119  0.9024  0.0552
  628MOL0     C86565  11.035   1.276  -1.801 -0.4852 -0.4422  0.0139
  628MOL0     C86566  11.009   1.127  -1.819 -0.9703 -0.0220 -0.7968
  628MOL0     C86567  10.938   1.092  -1.952  0.2923  0.1450  0.2654
  628MOL0     C86568  10.897   0.949  -1.949  0.5237  0.4677 -0.7507
  628MOL0     C86569  10.815   0.922  -2.070 -0.2320  0.4303 -0.3217
  628MOL0     C86570  10.885   0.939  -2.204  0.0680 -0.4102 -0.1528
  628MOL0    Cl86571  10.791   0.872  -2.329  0.0353  0.0175 -0.2971
  628MOL0     C86572  10.999   1.362  -1.198 -0.3833 -1.1220 -0.3480
  628MOL0     C86573  10.944   1.437  -1.088 -0.9429  0.8626  0.4603
  628MOL0     O86574  11.027   1.674  -0.920 -0.1132  0.3478  0.0676
  628MOL0     C86575  10.718   1.709  -0.751  0.1209 -0.4828 -0.2355
  628MOL0     C86576  10.676   1.738  -0.615 -0.9216  0.2260 -0.2864
  628MOL0     N86577  10.644   1.452   0.035 -0.7216 -0.2962  0.0022
  628MOL0     N86578  10.633   1.319   0.033  0.9586 -0.1052 -0.1774
  628MOL0     C86579  10.840   1.097   0.704  0.0073 -0.2186 -0.9556
  628MOL0     C86580  10.719   1.050   0.762 -0.2804 -0.5875  1.0800
  628MOL0     C86581  10.366   0.843   0.992 -0.4539  0.6399  0.5627
  628MOL0     C86582  10.432   0.766   1.088  0.0296 -1.1223  0.5066
  628MOL0     C86583  10.366   0.694   1.191  0.1604  0.2378  0.4203
  628MOL0     C86584  10.225   0.689   1.193  0.0159 -0.1227  0.1357
  628MOL0     O86585  10.140   0.613   1.278 -0.2588 -0.0645  0.4659
  628MOL0     C86586  10.198   0.517   1.367  0.6891 -0.2522  0.5933
  628MOL0     C86587  10.104   0.465   1.468 -0.3028 -0.0434  1.1137
  628MOL0     C86588   9.981   0.416   1.399 -0.0400  0.2236  0.6685
  628MOL0     C86589   9.852   0.504   1.389 -1.2299  0.0140  0.6447
  628MOL0     C86590   9.731   0.422   1.342  0.9730 -0.0538  0.6397
  628MOL0     C86591   9.620   0.379   1.317 -0.6270  0.2202  0.0879
  628MOL0     C86592  10.167   0.784   1.108  0.4684  0.1583 -0.1440
  628MOL0     C86593  10.227   0.859   1.006  0.2134  0.0851  0.4811
  628MOL0     C86594  10.142   0.937   0.910 -0.9267 -0.6767  0.0283
  628MOL0     H86595  10.796   0.767   0.903 -0.2267  0.3329 -1.3517
  628MOL0     H86596  11.026   0.833   0.802  1.2038 -0.1144 -0.8630
  628MOL0     H86597  11.155   1.233   0.563 -4.3678  2.9708 -1.4896
  628MOL0     H86598  10.999   1.191   0.517  0.4085  0.5414 -0.1179
  628MOL0     H86599  11.243   1.028   0.492  0.2041  1.0815  1.3940
  628MOL0     H86600  11.094   0.942   0.474  0.5646 -0.8545 -1.3388
  628MOL0     H86601  11.121   1.206   0.322  2.8774 -0.3394  0.1014
  628MOL0     H86602  11.245   1.097   0.296 -0.1304  1.7902 -3.2707
  628MOL0     H86603  11.121   0.915   0.220  3.9416  2.6826 -0.9700
  628MOL0     H86604  10.967   0.967   0.274 -0.1252  1.5889  0.8792
  628MOL0     H86605  11.119   1.117   0.062 -0.1860 -0.3669 -0.1258
  628MOL0     H86606  10.975   1.176   0.134 -1.8554 -0.9105 -0.6534
  628MOL0     H86607  11.006   0.924  -0.027  3.4731  0.5409  3.5347
  628MOL0     H86608  10.867   0.940   0.061 -1.1138 -0.2510 -1.4932
  628MOL0     H86609  10.879   1.016  -0.199 -0.3626  0.2240 -1.2033
  628MOL0     H86610  10.962   1.151  -0.147 -0.4362  1.0674  2.1836
  628MOL0     H86611  10.776   1.222  -0.192  0.8965 -1.5854 -0.8973
  628MOL0     H86612  10.673   1.106  -0.107 -1.2120  1.2336 -0.6360
  628MOL0     H86613  10.947   1.374  -0.039 -0.6425 -0.5091  1.3311
  628MOL0     H86614  10.885   1.665   0.077  1.0979  0.1616 -1.0758
  628MOL0     H86615  10.742   1.710  -0.017  2.3343  2.5805  1.5057
  628MOL0     H86616  10.978   1.745  -0.105  3.1254 -1.6859  0.5065
  628MOL0     H86617  10.992   1.574  -0.120  0.6117  1.4033  0.5421
  628MOL0     H86618  10.935   1.660  -0.328  0.2154  0.5378 -0.1255
  628MOL0     H86619  10.770   1.587  -0.272 -1.2763  2.4831 -0.7332
  628MOL0     H86620  10.692   1.798  -0.208  0.9038  1.3605  0.8413
  628MOL0     H86621  10.845   1.883  -0.279 -0.3964  0.5069  1.2232
  628MOL0     H86622  10.954   1.885  -0.487 -0.1193 -1.3702  0.7858
  628MOL0     H86623  11.136   1.796  -0.745 -0.7723 -1.1311 -1.4703
  628MOL0     H86624  11.101   1.942  -0.645 -0.7553 -2.7775  1.9950
  628MOL0     H86625  11.064   1.942  -0.816 -1.0160  1.5887  1.3793
  628MOL0     H86626  10.771   1.681  -1.246 -1.7823 -2.0633  0.2611
  628MOL0     H86627  10.896   1.573  -1.439  1.9071 -1.3399 -0.3233
  628MOL0     H86628  10.930   1.233  -1.544 -1.5175  1.4021  0.8003
  628MOL0     H86629  10.932   1.409  -1.591 -0.3276  1.0634  0.8115
  628MOL0     H86630  11.179   1.365  -1.668 -0.2284  1.6468  1.8763
  628MOL0     H86631  11.132   1.192  -1.634 -0.5880 -0.3194 -3.1876
  628MOL0     H86632  11.081   1.314  -1.892 -3.3626  0.0738 -1.3374
  628MOL0     H86633  10.935   1.321  -1.791  0.3277  1.0217  2.3734
  628MOL0     H86634  10.948   1.097  -1.734  0.1693  0.1137  0.0837
  628MOL0     H86635  11.101   1.068  -1.828 -0.8467 -0.5452  2.5894
  628MOL0     H86636  10.846   1.151  -1.941 -0.0135 -0.7889  4.5608
  628MOL0     H86637  10.992   1.120  -2.043 -0.7436  0.1771 -0.3502
  628MOL0     H86638  10.842   0.927  -1.857  1.0371  2.8685  0.2156
  628MOL0     H86639  10.987   0.886  -1.948  1.4684  1.7475  1.7624
  628MOL0     H86640  10.726   0.985  -2.062  0.0729  0.7997  0.1336
  628MOL0     H86641  10.770   0.822  -2.057 -3.6261  2.0044  1.3854
  628MOL0     H86642  10.982   0.889  -2.204 -0.3110 -1.3345  2.9810
  628MOL0     H86643  10.894   1.046  -2.228  1.6508 -0.4175  0.2804
  628MOL0     H86644  11.061   1.273  -1.192  0.8602 -0.1811  3.3452
  628MOL0     H86645  10.967   1.389  -0.994 -1.8964  0.1699  0.3557
  628MOL0     H86646  10.650   1.665  -0.823  0.0011 -4.1649  1.8645
  628MOL0     H86647  10.578   1.707  -0.582  0.5398 -2.9739  1.5277
  628MOL0     H86648  10.833   1.193   0.653 -0.1754  0.0286 -0.4665
  628MOL0     H86649  10.634   1.117   0.753 -1.0345 -1.4843  1.4175
  628MOL0     H86650  10.540   0.766   1.082 -0.0265  0.0413 -1.3392
  628MOL0     H86651  10.433   0.641   1.258  0.5079  0.2147  0.0593
  628MOL0     H86652  10.237   0.439   1.301 -0.6951  0.8719 -1.7240
  628MOL0     H86653  10.276   0.569   1.423 -0.1317 -0.6199  2.1179
  628MOL0     H86654  10.078   0.542   1.541  0.9728  1.4524  0.0688
  628MOL0     H86655  10.138   0.372   1.515  3.1032  1.1717  1.3636
  628MOL0     H86656   9.999   0.402   1.292  1.8674  1.1607  0.8242
  628MOL0     H86657   9.948   0.320   1.439  0.9592 -0.9296 -1.1443
  628MOL0     H86658   9.868   0.584   1.316  1.0799 -1.9577 -1.1861
  628MOL0     H86659   9.831   0.549   1.486 -2.2130 -1.0532  0.9514
  628MOL0     H86660   9.520   0.339   1.310  0.4365 -2.5905 -0.5927
  628MOL0     H86661  10.059   0.790   1.109  0.3396 -1.5556 -0.0743
  628MOL0     H86662  10.174   0.905   0.811 -1.0249 -2.4597  0.5346
  628MOL0     H86663  10.040   0.902   0.928 -0.6516 -0.6183  1.8823
  628MOL0     H86664  10.136   1.046   0.922  2.4963 -0.5563  1.9251
  629MOL0     O86665   2.876   3.947   3.645 -0.5496  0.4888  0.4860
  629MOL0     C86666   2.975   3.901   3.592  0.4887  0.4982 -0.1240
  629MOL0     O86667   3.078   3.835   3.657 -0.9258 -0.1988 -0.0275
  629MOL0     C86668   3.060   3.829   3.791 -0.0989 -0.0665 -0.1086
  629MOL0     C86669   3.070   3.942   3.882 -1.4224  0.7230  0.6286
  629MOL0     C86670   3.074   3.919   4.023  0.2235 -0.4142 -0.6577
  629MOL0     C86671   3.044   3.797   4.078 -0.5803 -0.0876 -0.7524
  629MOL0     O86672   3.051   3.780   4.217  0.9575  0.2261  0.6627
  629MOL0     C86673   3.109   3.659   4.267  0.4006 -0.2854 -0.5113
  629MOL0     C86674   3.098   3.667   4.421 -0.8450 -0.6466  0.8531
  629MOL0     C86675   3.211   3.746   4.491 -0.3789 -0.0842 -0.3839
  629MOL0     C86676   3.156   3.798   4.625  0.9438 -0.6088 -0.2864
  629MOL0     C86677   3.262   3.877   4.699  0.2912  0.6119 -0.0759
  629MOL0     C86678   3.366   3.789   4.762 -0.4323  0.1369 -0.3219
  629MOL0     C86679   3.493   3.871   4.789  0.6443 -0.0954  0.4766
  629MOL0     C86680   3.607   3.779   4.856 -0.1631  0.0258 -0.6444
  629MOL0     N86681   3.590   3.769   5.007 -0.3228  0.1441  0.7613
  629MOL0     C86682   3.516   3.850   5.085 -0.3383  0.2299 -0.2736
  629MOL0     C86683   3.529   3.788   5.211 -0.8049 -0.5142 -1.1551
  629MOL0     C86684   3.441   3.829   5.333  0.4453  1.1110  1.7271
  629MOL0     C86685   3.508   3.931   5.424  0.1775 -0.1580  0.4518
  629MOL0     C86686   3.425   3.970   5.538 -0.5666  0.8695 -0.8770
  629MOL0     C86687   3.477   4.085   5.614  0.2258  0.3812 -0.0560
  629MOL0     O86688   3.512   4.199   5.534 -0.2398  0.2090  0.6103
  629MOL0     C86689   3.580   4.307   5.590  0.4590 -0.5655  0.2353
  629MOL0     C86690   3.661   4.385   5.509  0.1500  0.3640  0.4295
  629MOL0     C86691   3.736   4.501   5.554  0.2118  0.5863 -0.2716
  629MOL0     C86692   3.827   4.573   5.461  0.2857 -0.1808 -0.0962
  629MOL0     C86693   3.723   4.541   5.694 -0.5412 -0.1188  0.2062
  629MOL0     C86694   3.789   4.663   5.761 -0.4160 -0.2241  0.8244
  629MOL0     O86695   3.767   4.678   5.892  0.4153 -0.4692 -0.7466
  629MOL0     C86696   3.796   4.803   5.940  0.3309  0.0072  0.2053
  629MOL0     C86697   3.926   4.860   5.947  0.1235 -0.4624  0.8194
  629MOL0     C86698   3.940   4.997   5.993  0.1117 -0.1146  0.2540
  629MOL0     C86699   3.826   5.074   6.019 -0.1491  0.5035  1.0240
  629MOL0     O86700   3.816   5.206   6.038  0.7839 -0.7819  0.0545
  629MOL0     C86701   3.928   5.291   6.002 -0.5218 -0.5494  0.0198
  629MOL0     C86702   4.024   5.343   6.118 -0.1830 -0.0332  0.6833
  629MOL0     C86703   4.122   5.235   6.165 -1.2180  0.1786  0.3505
  629MOL0     C86704   4.196   5.290   6.291 -0.3935  0.0646 -0.9389
  629MOL0     C86705   4.311   5.390   6.261 -0.3380 -0.5416 -0.7487
  629MOL0     C86706   4.438   5.318   6.192  1.1459 -0.5388 -0.4413
  629MOL0     C86707   4.563   5.408   6.207 -0.6132  0.0496 -1.0249
  629MOL0     C86708   4.682   5.332   6.151  0.5094 -0.2018  0.3391
  629MOL0    Cl86709   4.813   5.439   6.189 -0.2120 -0.2837  0.0386
  629MOL0     C86710   3.701   5.016   6.016  1.2758 -0.6114  0.2271
  629MOL0     C86711   3.687   4.882   5.985  0.8811  0.3939 -0.2067
  629MOL0     O86712   3.862   4.741   5.690 -0.1792  0.5916  0.9095
  629MOL0     C86713   3.638   4.466   5.774  0.4845  0.7892 -0.5630
  629MOL0     C86714   3.561   4.355   5.727  0.6326 -0.6376 -0.0568
  629MOL0     N86715   3.600   3.664   5.200  0.0204  0.1483 -0.4198
  629MOL0     N86716   3.638   3.660   5.072  0.1277  0.2977 -0.3303
  629MOL0     C86717   3.006   3.693   3.989 -0.3081 -0.9053 -0.0535
  629MOL0     C86718   3.025   3.706   3.849  0.4909  1.4571  0.4503
  629MOL0     C86719   2.985   3.925   3.439 -0.0471  0.1161 -0.1168
  629MOL0     C86720   3.107   3.901   3.377 -0.0536 -0.0182  0.2333
  629MOL0     C86721   3.133   3.931   3.240 -1.6871 -0.2974 -0.2772
  629MOL0     C86722   3.018   3.950   3.153  0.7830  0.1932 -0.8854
  629MOL0     O86723   3.018   3.958   3.011  0.8853  0.6538 -0.2759
  629MOL0     C86724   3.128   4.036   2.951  0.3301 -0.0228  0.0249
  629MOL0     C86725   3.114   4.042   2.798  0.1817 -0.1602  1.1807
  629MOL0     C86726   2.998   4.116   2.746 -0.5872  0.7688  0.4891
  629MOL0     C86727   2.963   4.084   2.593 -0.6101  0.4729 -0.2089
  629MOL0     C86728   3.061   4.122   2.483  0.1942 -0.6339  0.1392
  629MOL0     C86729   3.121   4.150   2.374  0.6928 -0.8831 -0.2838
  629MOL0     C86730   2.892   3.967   3.211 -0.5081 -0.5342  0.4510
  629MOL0     C86731   2.877   3.959   3.358  0.0385 -0.0257  0.1615
  629MOL0     C86732   2.742   3.981   3.407 -0.3944  0.4186 -0.4772
  629MOL0     H86733   3.094   4.039   3.841 -2.5051  0.7331 -0.0094
  629MOL0     H86734   3.098   3.997   4.094 -0.2928 -0.0683 -0.8589
  629MOL0     H86735   3.213   3.641   4.238  0.2235 -1.2903 -0.5592
  629MOL0     H86736   3.054   3.568   4.240 -1.6069 -0.1420  2.5619
  629MOL0     H86737   3.003   3.715   4.444  0.1995  0.6800  2.5880
  629MOL0     H86738   3.109   3.567   4.464  0.1387 -0.6781  0.5465
  629MOL0     H86739   3.293   3.674   4.501 -0.3148  0.0719  0.2170
  629MOL0     H86740   3.248   3.820   4.419 -0.2291 -1.3270 -1.6427
  629MOL0     H86741   3.080   3.876   4.614  2.0079  0.2540 -1.9748
  629MOL0     H86742   3.127   3.706   4.677 -0.3766  0.1299  0.3363
  629MOL0     H86743   3.221   3.941   4.778 -0.7559 -0.1969  0.0633
  629MOL0     H86744   3.315   3.938   4.626  2.4912 -0.5312  0.4632
  629MOL0     H86745   3.331   3.755   4.860  4.2859 -0.5414  1.3756
  629MOL0     H86746   3.393   3.702   4.700 -1.1344  0.1883 -0.7163
  629MOL0     H86747   3.469   3.962   4.845 -0.6916  3.2126 -4.8195
  629MOL0     H86748   3.535   3.907   4.695  0.9211  0.1876  0.7055
  629MOL0     H86749   3.607   3.684   4.801  1.3872 -0.5394  0.2538
  629MOL0     H86750   3.704   3.827   4.846  0.1791  0.5728  3.4264
  629MOL0     H86751   3.465   3.942   5.058  3.3700  2.5616 -0.0630
  629MOL0     H86752   3.415   3.732   5.377 -1.1868 -0.4337 -2.1893
  629MOL0     H86753   3.349   3.872   5.293  0.9965  0.5054 -0.2689
  629MOL0     H86754   3.606   3.890   5.453  0.5570 -0.5261 -1.2237
  629MOL0     H86755   3.512   4.022   5.363  1.6918  0.2633  1.1242
  629MOL0     H86756   3.330   4.004   5.495 -2.9304  0.3881  3.3415
  629MOL0     H86757   3.410   3.888   5.609 -1.8888  0.6490 -1.3767
  629MOL0     H86758   3.399   4.113   5.685 -0.7421 -0.9010 -0.5802
  629MOL0     H86759   3.564   4.052   5.671  0.7805  1.5297 -0.1971
  629MOL0     H86760   3.685   4.361   5.406 -0.2360  1.7999 -0.0195
  629MOL0     H86761   3.829   4.532   5.359  2.4738 -1.4034  0.3841
  629MOL0     H86762   3.932   4.580   5.489  0.4905  0.5876 -0.9794
  629MOL0     H86763   3.775   4.669   5.449 -0.6872 -0.8281 -1.3800
  629MOL0     H86764   4.012   4.800   5.920 -0.1007 -1.2073  1.7032
  629MOL0     H86765   4.037   5.044   5.982 -1.3027  2.9213 -0.2987
  629MOL0     H86766   3.988   5.245   5.922 -1.1084  0.8358 -1.2673
  629MOL0     H86767   3.883   5.385   5.971 -2.1062 -0.8504  1.3108
  629MOL0     H86768   4.079   5.434   6.091 -0.0916 -0.4411 -0.5822
  629MOL0     H86769   3.959   5.366   6.203 -1.6310  1.4369 -0.7421
  629MOL0     H86770   4.195   5.207   6.088 -1.9265  0.4560 -0.4303
  629MOL0     H86771   4.068   5.143   6.191 -4.4595  1.9264  0.2709
  629MOL0     H86772   4.237   5.211   6.355 -1.6143  0.5844  0.5659
  629MOL0     H86773   4.135   5.354   6.356  0.9412  1.7963 -1.2922
  629MOL0     H86774   4.265   5.470   6.201 -1.9158 -3.3668 -3.6042
  629MOL0     H86775   4.341   5.427   6.359  0.2069 -0.0944 -1.0698
  629MOL0     H86776   4.407   5.315   6.087  0.1469 -0.6118 -0.1498
  629MOL0     H86777   4.449   5.219   6.236  0.2839 -0.2193  0.5272
  629MOL0     H86778   4.576   5.430   6.314 -1.2576  0.3550 -1.0013
  629MOL0     H86779   4.560   5.507   6.162  0.5157  0.8919  0.6823
  629MOL0     H86780   4.685   5.300   6.046 -1.1322 -0.5053  0.3576
  629MOL0     H86781   4.692   5.242   6.211  0.0699  1.1316  2.4906
  629MOL0     H86782   3.609   5.072   6.022 -1.0914 -4.0364 -1.0771
  629MOL0     H86783   3.589   4.837   5.978  1.0530  0.1527 -1.2751
  629MOL0     H86784   3.633   4.473   5.882 -0.0245 -3.2156 -0.2054
  629MOL0     H86785   3.494   4.305   5.795  1.5501  0.8247  2.0152
  629MOL0     H86786   2.976   3.597   4.030 -0.6784 -0.8938 -0.2945
  629MOL0     H86787   3.007   3.627   3.778  0.5918  1.6259  0.2348
  629MOL0     H86788   3.195   3.873   3.434  1.2063 -1.5349 -2.2693
  629MOL0     H86789   3.232   3.922   3.196 -0.9983 -1.9836  1.4699
  629MOL0     H86790   3.141   4.135   2.996  1.6501  0.4104 -1.2498
  629MOL0     H86791   3.226   3.991   2.968  1.7270  3.2766  1.4366
  629MOL0     H86792   3.109   3.941   2.756  2.2211  0.6176 -1.1585
  629MOL0     H86793   3.200   4.093   2.754 -0.1938  0.0923  0.7280
  629MOL0     H86794   2.910   4.110   2.810 -2.2839  3.8856 -1.3300
  629MOL0     H86795   3.029   4.221   2.744  2.6119 -0.0656 -1.2008
  629MOL0     H86796   2.867   4.134   2.575 -1.5524 -1.0071  0.5353
  629MOL0     H86797   2.954   3.975   2.582  3.9198  0.0146 -1.8727
  629MOL0     H86798   3.182   4.164   2.288  0.8372 -2.1396 -0.4013
  629MOL0     H86799   2.805   3.987   3.150  1.0736  0.8632 -1.4670
  629MOL0     H86800   2.727   4.069   3.470  0.0837  0.6629 -0.6934
  629MOL0     H86801   2.675   3.992   3.321  0.3713 -2.6507 -1.6111
  629MOL0     H86802   2.719   3.887   3.457 -0.2223 -0.5138 -2.0928
  630MOL0     O86803   2.472   6.348  10.745  0.2063  0.4585  0.8587
  630MOL0     C86804   2.494   6.472  10.740 -0.2452  0.7560  0.8092
  630MOL0     O86805   2.598   6.532  10.790 -0.2880 -1.1097  0.1218
  630MOL0     C86806   2.697   6.467  10.866  0.8309  0.1704  0.3909
  630MOL0     C86807   2.757   6.352  10.814 -0.6614 -0.6033  0.7800
  630MOL0     C86808   2.857   6.288  10.884  0.2895  0.1677  0.4857
  630MOL0     C86809   2.886   6.319  11.013  0.0180  0.2366 -0.1731
  630MOL0     O86810   2.975   6.244  11.078 -0.2160  0.1251  1.2427
  630MOL0     C86811   2.971   6.263  11.216  0.1891 -0.4098  0.0042
  630MOL0     C86812   3.039   6.157  11.290 -0.7113 -0.4011 -0.1360
  630MOL0     C86813   3.189   6.161  11.258 -0.0755 -0.1573 -0.7444
  630MOL0     C86814   3.262   6.233  11.360 -0.0621 -0.0906  0.1803
  630MOL0     C86815   3.419   6.249  11.338  0.7501  0.0415  0.3602
  630MOL0     C86816   3.481   6.131  11.278  0.3420 -0.6954 -0.7440
  630MOL0     C86817   3.630   6.146  11.265  0.3546 -0.0182 -0.0734
  630MOL0     C86818   3.699   6.021  11.209 -0.3322  0.2178 -1.5277
  630MOL0     N86819   3.834   6.046  11.163  0.1857 -0.3201  0.3035
  630MOL0     C86820   3.921   6.131  11.239 -0.1943 -0.2773 -0.2642
  630MOL0     C86821   4.034   6.147  11.164 -1.0891 -0.0020 -0.2323
  630MOL0     C86822   4.161   6.221  11.215  0.5010  0.5298  0.0831
  630MOL0     C86823   4.182   6.354  11.138  0.1130 -0.0848  0.0908
  630MOL0     C86824   4.063   6.422  11.065 -0.1392  0.9214  0.3558
  630MOL0     C86825   3.966   6.473  11.166  0.5521 -1.1005 -0.2808
  630MOL0     O86826   4.014   6.608  11.203  0.2975 -0.3762 -0.5563
  630MOL0     C86827   3.927   6.714  11.246  0.9868 -0.8282  0.4562
  630MOL0     C86828   3.794   6.701  11.280  0.6549  1.4372 -0.1710
  630MOL0     C86829   3.721   6.810  11.332 -0.7807  0.3110  0.6925
  630MOL0     C86830   3.572   6.782  11.349 -0.0299  0.2580  0.0495
  630MOL0     C86831   3.774   6.944  11.339  0.8059  0.5020 -0.2606
  630MOL0     C86832   3.698   7.067  11.383  0.6622  1.0541  0.5880
  630MOL0     O86833   3.563   7.060  11.359 -1.0397 -0.5521  0.0584
  630MOL0     C86834   3.473   7.161  11.392  0.2817 -0.7795  0.4455
  630MOL0     C86835   3.495   7.288  11.443  0.3632 -0.4723  0.2252
  630MOL0     C86836   3.389   7.373  11.469 -0.6053 -0.3928  0.5236
  630MOL0     C86837   3.259   7.337  11.435  0.2701 -0.4798 -0.6599
  630MOL0     O86838   3.153   7.413  11.449  0.0133  0.5177 -0.0148
  630MOL0     C86839   3.138   7.504  11.562  0.2324 -0.5863 -0.4754
  630MOL0     C86840   3.128   7.647  11.512  0.7960 -0.6411 -0.0373
  630MOL0     C86841   3.096   7.759  11.606  0.2535 -0.2007 -0.4711
  630MOL0     C86842   3.043   7.885  11.539  0.5054  0.2469  0.6498
  630MOL0     C86843   3.151   7.939  11.464 -0.4663 -0.6864  0.9263
  630MOL0     C86844   3.117   8.063  11.384 -0.4781 -0.2034 -0.6181
  630MOL0     C86845   3.228   8.142  11.315  0.6759  0.5086  0.1124
  630MOL0     C86846   3.222   8.289  11.309  0.0361  0.1440  0.3512
  630MOL0    Cl86847   3.076   8.344  11.232  0.4405  0.4405 -0.5310
  630MOL0     C86848   3.240   7.209  11.383 -0.3516  0.3293  1.7004
  630MOL0     C86849   3.341   7.128  11.365 -0.1275  0.3985 -0.4583
  630MOL0     O86850   3.758   7.157  11.442  0.2484  0.1968  0.0819
  630MOL0     C86851   3.911   6.945  11.315  0.0417  1.2683  0.9064
  630MOL0     C86852   3.984   6.836  11.266  0.4416 -0.3076  0.1472
  630MOL0     N86853   4.032   6.081  11.049  1.2853 -0.4643  0.8126
  630MOL0     N86854   3.907   6.022  11.043 -0.5064 -0.4987 -0.0319
  630MOL0     C86855   2.821   6.431  11.067 -0.8300  0.9912 -0.6282
  630MOL0     C86856   2.725   6.499  10.992 -0.4677 -0.7985 -0.1058
  630MOL0     C86857   2.394   6.564  10.692 -0.6642 -0.5611  0.5339
  630MOL0     C86858   2.257   6.527  10.676 -0.4203  0.4392 -0.3553
  630MOL0     C86859   2.151   6.608  10.625  0.0294  1.2423  0.0508
  630MOL0     C86860   2.175   6.740  10.596 -0.9825 -0.1785 -0.3035
  630MOL0     O86861   2.083   6.833  10.558 -0.0156  0.0849  0.0885
  630MOL0     C86862   2.080   6.867  10.415  0.3785 -0.1648 -0.3957
  630MOL0     C86863   1.999   6.996  10.412 -0.5855 -0.3140 -0.3111
  630MOL0     C86864   1.863   7.003  10.486  0.0687 -0.1316  0.8065
  630MOL0     C86865   1.765   6.896  10.448  0.0109 -0.2518  0.0554
  630MOL0     C86866   1.625   6.913  10.492  0.5313 -0.6523  0.1663
  630MOL0     C86867   1.510   6.912  10.519  0.3520  0.3285 -0.6152
  630MOL0     C86868   2.306   6.782  10.619  0.8290 -0.5325 -0.0153
  630MOL0     C86869   2.418   6.700  10.653  0.7698 -0.9976 -0.5905
  630MOL0     C86870   2.550   6.768  10.654  0.3397  0.1337 -0.9293
  630MOL0     H86871   2.723   6.325  10.714 -1.1560  1.4645  0.3411
  630MOL0     H86872   2.913   6.204  10.845 -0.3770 -0.6002  1.1495
  630MOL0     H86873   2.866   6.258  11.248 -0.0528  1.1505 -0.4426
  630MOL0     H86874   3.003   6.365  11.238  0.4120 -0.4849  0.0299
  630MOL0     H86875   3.015   6.177  11.395 -2.2965 -0.6094 -0.4281
  630MOL0     H86876   3.002   6.057  11.265 -0.4979 -0.7670  0.9219
  630MOL0     H86877   3.227   6.059  11.249 -0.6222 -0.5175  0.7543
  630MOL0     H86878   3.200   6.210  11.160 -3.5262  1.3185 -0.5371
  630MOL0     H86879   3.230   6.336  11.348  2.0192  0.6482  0.5325
  630MOL0     H86880   3.230   6.200  11.459  1.0430  0.6308  0.8054
  630MOL0     H86881   3.465   6.257  11.437  1.5665 -1.1743  0.0964
  630MOL0     H86882   3.446   6.335  11.277  0.3579  0.0573  0.2040
  630MOL0     H86883   3.450   6.046  11.340 -0.9969 -1.9912 -3.0868
  630MOL0     H86884   3.442   6.102  11.180 -2.9429 -2.7583  0.9797
  630MOL0     H86885   3.685   6.180  11.353  2.0780  1.3396 -1.6118
  630MOL0     H86886   3.644   6.220  11.186  0.9458 -0.3984 -0.3254
  630MOL0     H86887   3.701   5.932  11.272 -1.3231 -0.3718 -2.2986
  630MOL0     H86888   3.645   5.994  11.118 -2.6978  0.7870 -0.3585
  630MOL0     H86889   3.898   6.171  11.337  0.6583  0.8071 -0.4864
  630MOL0     H86890   4.244   6.150  11.204  1.6428  1.8171  0.0867
  630MOL0     H86891   4.170   6.255  11.319  1.6096  2.9979 -0.7411
  630MOL0     H86892   4.242   6.415  11.206 -2.3377  0.9831  1.4132
  630MOL0     H86893   4.265   6.336  11.069  0.9642 -0.4769  1.1751
  630MOL0     H86894   4.093   6.511  11.008 -2.8449 -0.0936 -2.9673
  630MOL0     H86895   4.016   6.354  10.993  3.0278 -0.3479 -0.7118
  630MOL0     H86896   3.865   6.502  11.133  0.2575  2.8502  3.1676
  630MOL0     H86897   3.960   6.407  11.253 -3.6323 -1.8758 -0.9464
  630MOL0     H86898   3.746   6.606  11.260 -0.4004  2.2324 -1.5916
  630MOL0     H86899   3.520   6.818  11.438  0.7284 -1.6344  1.3284
  630MOL0     H86900   3.559   6.673  11.354  2.2134 -0.0092  2.5209
  630MOL0     H86901   3.520   6.814  11.259  4.9423  1.3928 -2.7945
  630MOL0     H86902   3.596   7.327  11.449  0.3210 -0.0631 -1.2703
  630MOL0     H86903   3.410   7.477  11.489  0.6484 -0.6236  0.4774
  630MOL0     H86904   3.050   7.476  11.621 -1.3474  0.2389 -2.3291
  630MOL0     H86905   3.218   7.502  11.637 -1.1032  1.9140  1.1600
  630MOL0     H86906   3.221   7.673  11.461  0.4617 -0.8545 -0.7611
  630MOL0     H86907   3.057   7.653  11.429  0.0526 -1.4615  0.5171
  630MOL0     H86908   3.187   7.784  11.662 -1.9304  0.7539  2.9344
  630MOL0     H86909   3.035   7.726  11.690  0.6315 -3.1318 -1.2379
  630MOL0     H86910   3.006   7.950  11.619 -1.4698 -0.9033  0.7318
  630MOL0     H86911   2.961   7.867  11.469  1.2112 -0.5848  0.0214
  630MOL0     H86912   3.235   7.961  11.531  0.1164  0.0319 -0.0127
  630MOL0     H86913   3.186   7.868  11.388  0.0955  2.8514 -2.4629
  630MOL0     H86914   3.061   8.128  11.450  0.6138 -1.2708  1.4503
  630MOL0     H86915   3.051   8.028  11.304 -0.0365  0.1536 -1.1489
  630MOL0     H86916   3.235   8.101  11.215  1.5419 -0.0215  0.3789
  630MOL0     H86917   3.318   8.113  11.370 -1.5844 -2.2021  2.7392
  630MOL0     H86918   3.312   8.344  11.281  0.6702  0.3284  2.5664
  630MOL0     H86919   3.206   8.327  11.410 -2.3917  0.0744  0.0516
  630MOL0     H86920   3.145   7.162  11.361  0.9812 -0.7214 -2.9252
  630MOL0     H86921   3.325   7.041  11.301  1.2469  0.1609 -0.5131
  630MOL0     H86922   3.961   7.041  11.323  2.1124  0.1826  1.6611
  630MOL0     H86923   4.090   6.853  11.278  0.4498 -0.9587  1.0700
  630MOL0     H86924   2.842   6.468  11.167 -2.1289  1.4531 -0.5053
  630MOL0     H86925   2.672   6.588  11.026 -2.3070 -1.2708 -1.5642
  630MOL0     H86926   2.230   6.425  10.698  2.3225 -0.7114 -1.8838
  630MOL0     H86927   2.053   6.563  10.609  0.6713  0.0363 -0.7181
  630MOL0     H86928   2.177   6.897  10.375 -0.0571  3.0166  0.6337
  630MOL0     H86929   2.026   6.796  10.353  0.7203 -0.0945 -0.7787
  630MOL0     H86930   1.980   7.027  10.309  1.1252  1.1688 -0.2190
  630MOL0     H86931   2.070   7.070  10.449  0.2046 -0.9517 -0.5371
  630MOL0     H86932   1.875   7.003  10.595  2.1048 -1.3836  0.6371
  630MOL0     H86933   1.827   7.103  10.460  0.9072  0.0720  0.4011
  630MOL0     H86934   1.806   6.803  10.487  0.3660 -0.0388  0.1969
  630MOL0     H86935   1.774   6.901  10.339 -1.0390 -0.2403 -0.0377
  630MOL0     H86936   1.406   6.913  10.542 -0.0209 -3.8616 -1.4160
  630MOL0     H86937   2.302   6.889  10.603  2.6820 -0.1503  1.7116
  630MOL0     H86938   2.610   6.722  10.575 -1.9350 -2.2468 -1.4530
  630MOL0     H86939   2.547   6.873  10.626  0.8179  0.5666  0.5571
  630MOL0     H86940   2.599   6.770  10.752 -0.6899  1.5512 -0.4119
  631MOL0     O86941   4.009  10.654  11.134 -0.2096  0.0747 -0.4052
  631MOL0     C86942   3.914  10.731  11.139 -0.0731  0.1445  0.8417
  631MOL0     O86943   3.899  10.838  11.216 -0.6984 -0.3403 -0.0764
  631MOL0     C86944   3.978  10.847  11.318  0.4569  0.3172 -0.5595
  631MOL0     C86945   4.061  10.956  11.317 -0.2947 -0.2172 -1.1265
  631MOL0     C86946   4.140  10.999  11.421  0.8287  0.5060 -1.1355
  631MOL0     C86947   4.153  10.916  11.531 -0.1333  0.6995  0.1667
  631MOL0     O86948   4.223  10.952  11.642 -0.7700  0.2040 -0.4218
  631MOL0     C86949   4.180  10.918  11.769 -0.1755  0.1228  0.1900
  631MOL0     C86950   4.284  10.989  11.856 -1.0911 -0.2506 -0.0850
  631MOL0     C86951   4.429  10.941  11.852  0.7237 -0.4141  0.9489
  631MOL0     C86952   4.438  10.804  11.910  0.0959 -0.1255  0.5891
  631MOL0     C86953   4.513  10.783  12.034 -0.0895 -0.8246 -0.6211
  631MOL0     C86954   4.455  10.872  12.153  0.1236  0.4650  0.3172
  631MOL0     C86955   4.528  10.838  12.281 -1.0478  0.3367 -0.8505
  631MOL0     C86956   4.464  10.904  12.397  0.7716 -0.1687 -0.0699
  631MOL0     N86957   4.475  11.049  12.383  0.4202 -0.6549  1.0555
  631MOL0     C86958   4.581  11.119  12.328 -0.1745  0.0106 -0.5024
  631MOL0     C86959   4.549  11.251  12.338  0.0490 -0.3365  1.4200
  631MOL0     C86960   4.630  11.377  12.309  0.3830  0.3046  0.6947
  631MOL0     C86961   4.657  11.398  12.154 -0.0258 -0.1849  0.7234
  631MOL0     C86962   4.758  11.500  12.109 -0.8887  0.5888  0.7304
  631MOL0     C86963   4.743  11.525  11.962  0.0634  1.4063 -0.5856
  631MOL0     O86964   4.746  11.411  11.883 -0.6660 -0.2349  1.3510
  631MOL0     C86965   4.858  11.329  11.875 -0.4021 -0.2460  0.8248
  631MOL0     C86966   4.842  11.198  11.911 -0.2649  0.8356  0.1248
  631MOL0     C86967   4.949  11.105  11.924 -0.5362 -0.0219  0.1513
  631MOL0     C86968   4.922  10.957  11.961 -0.2639  0.1235  0.1416
  631MOL0     C86969   5.074  11.147  11.877 -0.6379  0.1512 -0.2557
  631MOL0     C86970   5.189  11.050  11.868 -0.9169 -0.0628  0.3786
  631MOL0     O86971   5.269  11.079  11.760  0.0731  0.1918  0.5489
  631MOL0     C86972   5.368  11.001  11.708  0.2762 -0.0339  0.9861
  631MOL0     C86973   5.413  11.026  11.571 -0.8576  0.7478 -1.1181
  631MOL0     C86974   5.525  10.958  11.518  0.6414 -0.1052 -0.6382
  631MOL0     C86975   5.587  10.856  11.596 -0.6563  0.0111  0.9150
  631MOL0     O86976   5.696  10.788  11.550  0.8540 -0.3676  1.0667
  631MOL0     C86977   5.668  10.674  11.468 -0.1856 -0.3456 -0.3002
  631MOL0     C86978   5.787  10.634  11.377  0.1591 -0.5640 -0.4054
  631MOL0     C86979   5.769  10.493  11.329 -0.9892  0.5597  0.4809
  631MOL0     C86980   5.647  10.462  11.234 -0.5382  0.5593 -0.3293
  631MOL0     C86981   5.659  10.318  11.173 -0.8032  0.8435 -0.4296
  631MOL0     C86982   5.557  10.312  11.059 -0.3536 -0.7438  0.4837
  631MOL0     C86983   5.553  10.175  10.991 -0.9556 -0.4795 -0.1292
  631MOL0     C86984   5.498  10.184  10.849 -0.2979  0.2467  0.0284
  631MOL0    Cl86985   5.641  10.252  10.738  0.3667 -0.0662 -0.3052
  631MOL0     C86986   5.530  10.813  11.709  0.3403 -0.2031 -0.2431
  631MOL0     C86987   5.434  10.884  11.772  0.3481 -0.4938  0.0913
  631MOL0     O86988   5.216  10.963  11.954  0.8203 -0.0813  0.3494
  631MOL0     C86989   5.086  11.276  11.824 -0.7372 -1.0163  0.5101
  631MOL0     C86990   4.986  11.366  11.832 -0.2965 -0.1951  0.5056
  631MOL0     N86991   4.422  11.255  12.398  0.7101 -0.4028 -0.3071
  631MOL0     N86992   4.377  11.139  12.414  0.0541 -0.2508  1.1384
  631MOL0     C86993   4.074  10.799  11.533 -0.8030  0.8309  0.4932
  631MOL0     C86994   3.985  10.762  11.427 -0.2732 -0.2228  0.8958
  631MOL0     C86995   3.796  10.701  11.056 -0.7541  0.0430 -0.8419
  631MOL0     C86996   3.693  10.793  11.055 -0.0350 -0.8310  0.1365
  631MOL0     C86997   3.582  10.781  10.971  0.0680  0.5930 -0.6507
  631MOL0     C86998   3.562  10.664  10.890 -0.3468 -0.1410  0.8910
  631MOL0     O86999   3.454  10.634  10.810  0.0998 -0.5468 -0.1367
  631MOL0     C87000   3.448  10.726  10.700  0.0183  0.3692  0.0770
  631MOL0     C87001   3.296  10.756  10.668 -0.2169  0.0747 -0.7239
  631MOL0     C87002   3.216  10.637  10.628 -0.1379 -0.0303  0.9430
  631MOL0     C87003   3.163  10.545  10.731 -0.0305 -0.4656 -0.1593
  631MOL0     C87004   3.017  10.532  10.729 -0.4735 -0.1725 -0.8873
  631MOL0     C87005   2.899  10.519  10.715  0.3116 -0.2640 -0.3303
  631MOL0     C87006   3.659  10.571  10.894  0.2305  1.0225 -0.2563
  631MOL0     C87007   3.772  10.584  10.979  0.4449 -0.5623  0.2818
  631MOL0     C87008   3.874  10.474  10.964  0.4026  0.0820 -0.9332
  631MOL0     H87009   4.059  11.023  11.231 -1.4952  1.7062  0.2946
  631MOL0     H87010   4.192  11.094  11.411 -2.1043  2.4657  0.7193
  631MOL0     H87011   4.164  10.812  11.790 -0.1256 -0.8396 -3.9069
  631MOL0     H87012   4.086  10.973  11.783  1.0118  1.4106  4.7766
  631MOL0     H87013   4.287  11.093  11.824  2.0716 -0.9362 -2.4612
  631MOL0     H87014   4.248  10.986  11.959 -0.6379  0.6596  0.1090
  631MOL0     H87015   4.457  10.943  11.746  0.7195  2.6928  0.9108
  631MOL0     H87016   4.493  11.016  11.899  0.6403 -0.1469  0.6449
  631MOL0     H87017   4.344  10.757  11.940  1.0479  0.0229  4.2333
  631MOL0     H87018   4.483  10.734  11.839  0.5087  0.4127  0.3188
  631MOL0     H87019   4.616  10.811  12.008 -0.1068 -0.1763 -0.0329
  631MOL0     H87020   4.506  10.678  12.061  0.4397 -1.6102 -3.2367
  631MOL0     H87021   4.458  10.977  12.124  0.5797  0.2130 -0.5987
  631MOL0     H87022   4.350  10.841  12.160  0.3214 -0.2534  0.1822
  631MOL0     H87023   4.629  10.870  12.255 -2.2756  2.9857 -2.8565
  631MOL0     H87024   4.527  10.733  12.310 -1.0553  0.9823  1.7129
  631MOL0     H87025   4.360  10.872  12.414  1.5957 -1.2874  3.5924
  631MOL0     H87026   4.518  10.885  12.489  0.3006  2.7855  0.9332
  631MOL0     H87027   4.673  11.069  12.302 -0.0485 -0.3549  0.5844
  631MOL0     H87028   4.722  11.371  12.369 -0.1521  0.4366  1.5431
  631MOL0     H87029   4.575  11.462  12.349 -0.5976 -0.3489  0.7512
  631MOL0     H87030   4.685  11.298  12.121 -2.5749 -1.4280  1.9658
  631MOL0     H87031   4.564  11.430  12.106  1.7623  0.6547 -2.3901
  631MOL0     H87032   4.742  11.596  12.159 -3.0168 -0.7146  2.7856
  631MOL0     H87033   4.859  11.465  12.133 -0.2172  1.9691  0.0094
  631MOL0     H87034   4.643  11.568  11.955 -0.5604 -0.1450 -4.8577
  631MOL0     H87035   4.820  11.594  11.925  0.7771  1.2483  0.5641
  631MOL0     H87036   4.741  11.172  11.943 -0.3718  1.9312  0.7178
  631MOL0     H87037   4.997  10.890  11.918 -0.7141 -0.2171 -0.1254
  631MOL0     H87038   4.831  10.928  11.907  0.3004  2.6307 -2.3761
  631MOL0     H87039   4.914  10.933  12.067 -0.5363 -1.7107 -0.2543
  631MOL0     H87040   5.360  11.097  11.508 -1.6518  0.0627 -1.2426
  631MOL0     H87041   5.560  10.973  11.417 -1.0363 -2.4686 -1.6582
  631MOL0     H87042   5.649  10.600  11.546 -3.5791  3.9315  3.5054
  631MOL0     H87043   5.581  10.693  11.405 -2.0167 -4.4140  0.7019
  631MOL0     H87044   5.778  10.699  11.290 -1.6247 -3.2569 -2.3850
  631MOL0     H87045   5.878  10.646  11.438 -1.3801  0.7338  1.7833
  631MOL0     H87046   5.759  10.427  11.415 -1.2858  1.7041  1.3433
  631MOL0     H87047   5.862  10.479  11.273  1.6943  1.5454  4.3030
  631MOL0     H87048   5.638  10.542  11.160  0.2898  2.6548  1.7153
  631MOL0     H87049   5.552  10.468  11.287 -1.8622 -6.0039 -1.0590
  631MOL0     H87050   5.758  10.301  11.131 -0.1820  2.6566  0.2263
  631MOL0     H87051   5.627  10.240  11.243  0.6618  0.7180  0.1225
  631MOL0     H87052   5.580  10.387  10.982  0.4111 -0.6231  0.8217
  631MOL0     H87053   5.453  10.326  11.090 -2.1963 -3.9255 -3.4319
  631MOL0     H87054   5.497  10.112  11.061 -1.8554  0.5746  0.1367
  631MOL0     H87055   5.654  10.135  10.982 -0.1554  1.2457  0.6664
  631MOL0     H87056   5.401  10.235  10.843 -0.9780 -0.5199  2.9616
  631MOL0     H87057   5.479  10.080  10.821 -0.7420  0.0709  0.9471
  631MOL0     H87058   5.573  10.734  11.770 -1.9515 -1.9884 -0.8178
  631MOL0     H87059   5.414  10.863  11.876  1.2579  0.2582  0.4321
  631MOL0     H87060   5.181  11.302  11.778 -0.6149 -2.6179 -0.2412
  631MOL0     H87061   4.988  11.466  11.791 -2.1474 -0.2772  0.1179
  631MOL0     H87062   4.082  10.733  11.618  1.9585  1.7865  1.0870
  631MOL0     H87063   3.929  10.670  11.434  0.0513 -0.4683  0.3465
  631MOL0     H87064   3.709  10.885  11.111  2.1405 -1.4680  0.6811
  631MOL0     H87065   3.514  10.865  10.960  0.1174  0.6531 -0.4975
  631MOL0     H87066   3.508  10.817  10.710 -1.3723  1.5165 -1.4903
  631MOL0     H87067   3.492  10.668  10.619  0.7729  0.2557  0.5592
  631MOL0     H87068   3.311  10.825  10.584  1.3444 -0.8840 -1.2603
  631MOL0     H87069   3.254  10.812  10.752  2.9756  1.9332 -0.1922
  631MOL0     H87070   3.134  10.682  10.571 -1.4723 -2.4213  0.8411
  631MOL0     H87071   3.274  10.585  10.551 -2.6420 -2.2935  0.4503
  631MOL0     H87072   3.182  10.601  10.823 -2.3003 -0.3194  0.2812
  631MOL0     H87073   3.211  10.446  10.731  2.7070  0.7798  0.6351
  631MOL0     H87074   2.792  10.516  10.707  0.2857 -0.9111  0.2343
  631MOL0     H87075   3.645  10.482  10.834 -1.5891  1.1644 -0.0832
  631MOL0     H87076   3.842  10.390  10.902 -0.5887  1.3621 -2.2240
  631MOL0     H87077   3.975  10.501  10.932  0.7335 -0.1912 -0.1483
  631MOL0     H87078   3.873  10.437  11.067 -1.5249 -0.8543 -1.2536
  632MOL0     O87079   3.151   1.222   7.771  0.0812  0.2065 -0.2401
  632MOL0     C87080   3.170   1.126   7.694 -0.9056 -0.1337  0.0167
  632MOL0     O87081   3.102   1.082   7.582  0.4309  0.0331  0.2639
  632MOL0     C87082   2.975   1.134   7.564  0.4158  0.0122 -0.0307
  632MOL0     C87083   2.950   1.257   7.490 -0.3470 -0.3219 -0.5259
  632MOL0     C87084   2.820   1.293   7.467 -0.1851  0.5852 -0.1634
  632MOL0     C87085   2.713   1.223   7.516 -0.2791  0.6605  0.0717
  632MOL0     O87086   2.588   1.279   7.496 -1.6108 -0.1677  0.2755
  632MOL0     C87087   2.482   1.243   7.586 -0.4513 -0.1249  0.7722
  632MOL0     C87088   2.376   1.357   7.601 -0.4935 -0.0686  0.3973
  632MOL0     C87089   2.441   1.480   7.664  0.4274  0.2388  0.0044
  632MOL0     C87090   2.342   1.574   7.747  0.1856  0.0686 -0.4289
  632MOL0     C87091   2.405   1.705   7.782 -0.2327  0.1808 -0.1891
  632MOL0     C87092   2.309   1.811   7.833  0.6287  0.0455  0.6840
  632MOL0     C87093   2.379   1.949   7.851 -0.1863  0.2422 -0.8989
  632MOL0     C87094   2.283   2.038   7.924 -0.1059 -0.0508 -0.4576
  632MOL0     N87095   2.294   2.177   7.865 -0.0364  0.1093 -0.2816
  632MOL0     C87096   2.388   2.265   7.915  0.0454 -0.1075 -0.3517
  632MOL0     C87097   2.370   2.372   7.834 -0.4286 -0.5762  0.3438
  632MOL0     C87098   2.462   2.502   7.825 -0.0813  1.3211  0.6416
  632MOL0     C87099   2.421   2.593   7.932 -0.3230  0.6167  0.4123
  632MOL0     C87100   2.269   2.628   7.939  0.1679 -0.1443 -0.6848
  632MOL0     C87101   2.201   2.687   7.809 -0.2336  0.0212 -0.0905
  632MOL0     O87102   2.055   2.699   7.814  0.4680  0.0043  0.0653
  632MOL0     C87103   1.992   2.817   7.821  0.9631  0.1529 -0.0786
  632MOL0     C87104   2.040   2.945   7.849  0.2184  0.8181 -0.0819
  632MOL0     C87105   1.976   3.066   7.835  0.2206 -0.4360 -0.1293
  632MOL0     C87106   2.047   3.200   7.847 -0.8551  0.1504  0.6099
  632MOL0     C87107   1.831   3.058   7.807 -0.1482  0.3845  0.7456
  632MOL0     C87108   1.739   3.174   7.784 -0.8870 -0.5195 -0.0241
  632MOL0     O87109   1.617   3.152   7.740 -0.2792  0.1306 -0.1559
  632MOL0     C87110   1.542   3.257   7.702  0.2883  0.4529  0.3674
  632MOL0     C87111   1.586   3.355   7.610 -1.0051 -0.2349 -0.3795
  632MOL0     C87112   1.505   3.458   7.564 -0.3028 -0.0323 -0.2662
  632MOL0     C87113   1.371   3.462   7.605 -0.0325 -0.5420 -0.1848
  632MOL0     O87114   1.284   3.561   7.575  0.5697 -0.0071 -0.9399
  632MOL0     C87115   1.326   3.645   7.479 -0.0183 -0.0122  0.0693
  632MOL0     C87116   1.218   3.738   7.448 -0.1106  0.5084 -0.4993
  632MOL0     C87117   1.186   3.815   7.571  0.3813 -0.1755 -0.0126
  632MOL0     C87118   1.191   3.962   7.538  0.3831 -1.3174  0.8289
  632MOL0     C87119   1.142   4.046   7.657  0.3247  0.0148 -0.4098
  632MOL0     C87120   0.994   4.049   7.667 -0.2332 -0.2680  0.7508
  632MOL0     C87121   0.953   4.144   7.770  0.5520 -0.0597 -0.5601
  632MOL0     C87122   0.802   4.143   7.783  0.1477  0.2924 -0.7213
  632MOL0    Cl87123   0.767   4.292   7.894 -0.5140  0.1274  0.2415
  632MOL0     C87124   1.332   3.376   7.707 -1.1743  0.2871  0.3009
  632MOL0     C87125   1.415   3.266   7.752  0.2948  0.6853 -0.0325
  632MOL0     O87126   1.773   3.288   7.830 -0.3955  0.3260  0.1272
  632MOL0     C87127   1.773   2.929   7.801  0.3547 -0.1950 -0.5308
  632MOL0     C87128   1.853   2.811   7.805  0.1890 -1.2734 -0.3848
  632MOL0     N87129   2.259   2.344   7.748  0.8686  0.2137 -0.7431
  632MOL0     N87130   2.208   2.225   7.768  0.5323 -0.2754 -0.1077
  632MOL0     C87131   2.740   1.116   7.594  0.1169  0.7089  0.8351
  632MOL0     C87132   2.865   1.068   7.612 -0.4720  0.1980 -0.6512
  632MOL0     C87133   3.299   1.048   7.746 -0.1307  0.2736  0.0269
  632MOL0     C87134   3.343   1.049   7.880  0.0371  0.2180 -0.5852
  632MOL0     C87135   3.452   0.978   7.928  0.4439  0.7534 -0.2151
  632MOL0     C87136   3.534   0.906   7.855 -0.4666  0.6223  0.3828
  632MOL0     O87137   3.628   0.813   7.893 -0.2318  0.0377 -0.1802
  632MOL0     C87138   3.657   0.782   8.029  0.4902 -0.3848  0.4698
  632MOL0     C87139   3.760   0.858   8.114  0.4828 -0.4965  0.5853
  632MOL0     C87140   3.733   0.851   8.270 -0.6530 -0.3078 -0.4119
  632MOL0     C87141   3.687   0.719   8.342 -0.6306  0.4168 -0.0255
  632MOL0     C87142   3.789   0.618   8.357 -0.0836  0.3770  0.1346
  632MOL0     C87143   3.889   0.542   8.359  0.2298  0.3303  0.8511
  632MOL0     C87144   3.490   0.887   7.717 -0.9512 -2.3876 -0.9896
  632MOL0     C87145   3.385   0.974   7.666 -0.3030  0.9467  1.1888
  632MOL0     C87146   3.355   0.939   7.520  0.5431 -0.4355  0.7977
  632MOL0     H87147   3.034   1.314   7.453 -0.8316 -0.4911 -1.9407
  632MOL0     H87148   2.801   1.373   7.396 -1.6016  2.0597  1.7715
  632MOL0     H87149   2.516   1.203   7.682  0.5211  0.7340  0.8076
  632MOL0     H87150   2.434   1.167   7.524 -0.9591  0.5674  0.2972
  632MOL0     H87151   2.342   1.378   7.499  2.6452  0.1878 -0.7042
  632MOL0     H87152   2.281   1.323   7.642 -1.3787 -1.3254 -2.4133
  632MOL0     H87153   2.507   1.438   7.741  1.7999  2.1026 -0.0742
  632MOL0     H87154   2.509   1.538   7.600  0.6014 -0.1150 -0.1355
  632MOL0     H87155   2.252   1.579   7.686 -0.4813 -2.0224  0.2731
  632MOL0     H87156   2.298   1.527   7.836 -3.9527  7.5925  2.3784
  632MOL0     H87157   2.456   1.740   7.691 -0.1022  3.3102  0.9579
  632MOL0     H87158   2.471   1.692   7.868  0.1891  2.1410 -0.1690
  632MOL0     H87159   2.228   1.820   7.760  0.1777  2.5879  1.4129
  632MOL0     H87160   2.271   1.768   7.926 -0.6395 -3.2699 -1.1767
  632MOL0     H87161   2.400   1.988   7.751 -3.0400  1.0200 -1.2761
  632MOL0     H87162   2.473   1.945   7.907  0.5510  0.3321 -2.0967
  632MOL0     H87163   2.189   1.993   7.889 -0.0495  0.5265 -1.3628
  632MOL0     H87164   2.301   2.024   8.031  1.0558 -3.2201 -0.9397
  632MOL0     H87165   2.456   2.246   7.997  1.1666 -0.8944 -1.4409
  632MOL0     H87166   2.461   2.543   7.724  1.3093  4.3696  1.7062
  632MOL0     H87167   2.568   2.480   7.840 -0.5102 -0.4853  1.2188
  632MOL0     H87168   2.455   2.565   8.031 -2.2793 -2.7380  0.2700
  632MOL0     H87169   2.453   2.695   7.909 -0.6241  1.7779  4.4661
  632MOL0     H87170   2.213   2.535   7.953 -0.2055 -0.1398 -2.0166
  632MOL0     H87171   2.252   2.700   8.019  0.2353 -1.1570  0.2612
  632MOL0     H87172   2.252   2.782   7.791  0.9993 -0.1324  2.1905
  632MOL0     H87173   2.231   2.630   7.720  0.8138 -1.1509  0.9614
  632MOL0     H87174   2.143   2.948   7.884 -0.3399  1.2161  1.6333
  632MOL0     H87175   2.146   3.182   7.890  0.1705  1.5417 -1.0054
  632MOL0     H87176   1.997   3.278   7.905  4.0048  2.8498  1.7839
  632MOL0     H87177   2.081   3.231   7.747  1.8562  2.8826  2.2006
  632MOL0     H87178   1.683   3.358   7.562 -1.7607 -2.9416 -2.3632
  632MOL0     H87179   1.542   3.538   7.500  0.5966 -0.1292  0.1293
  632MOL0     H87180   1.411   3.705   7.512 -1.3661  1.1193  1.6156
  632MOL0     H87181   1.353   3.584   7.391 -1.0088 -0.6327  0.1828
  632MOL0     H87182   1.240   3.789   7.354 -3.5772 -1.3574 -2.5414
  632MOL0     H87183   1.135   3.676   7.411  0.5244  0.9604 -2.8424
  632MOL0     H87184   1.255   3.797   7.654  1.1687  1.8484 -0.1949
  632MOL0     H87185   1.087   3.779   7.602  0.6161 -1.6595 -0.8810
  632MOL0     H87186   1.133   3.983   7.448 -0.6486  0.0722  1.7867
  632MOL0     H87187   1.296   3.982   7.513 -0.5948 -1.3381 -4.4152
  632MOL0     H87188   1.174   3.995   7.748  0.2701  1.3373  0.3691
  632MOL0     H87189   1.186   4.146   7.663 -0.4720  0.3504 -0.1650
  632MOL0     H87190   0.963   3.946   7.684 -1.0263 -1.0378 -3.9595
  632MOL0     H87191   0.954   4.079   7.570 -0.3533  1.4208  1.2789
  632MOL0     H87192   0.989   4.247   7.758 -0.3505  0.1369 -1.7831
  632MOL0     H87193   0.995   4.113   7.867  1.2827  0.8596 -0.5737
  632MOL0     H87194   0.766   4.050   7.829 -2.5912  1.4236 -0.4106
  632MOL0     H87195   0.741   4.151   7.693 -0.3385  0.1162 -0.4098
  632MOL0     H87196   1.233   3.388   7.750 -1.2831  1.6298 -0.2686
  632MOL0     H87197   1.367   3.200   7.824  2.0842  0.5746  1.1220
  632MOL0     H87198   1.667   2.915   7.783 -0.4073 -1.5658  3.7154
  632MOL0     H87199   1.815   2.711   7.791  2.5431 -2.1289 -1.1705
  632MOL0     H87200   2.659   1.053   7.629  0.6514 -0.4360  0.0852
  632MOL0     H87201   2.892   0.979   7.668  3.4780  1.9469  0.6284
  632MOL0     H87202   3.299   1.093   7.969  3.5242  2.5270  0.1956
  632MOL0     H87203   3.461   0.980   8.036 -0.9087  0.4261 -0.0807
  632MOL0     H87204   3.559   0.784   8.077 -1.2441 -0.5869 -2.7642
  632MOL0     H87205   3.683   0.676   8.029  1.8097 -0.0789 -0.0194
  632MOL0     H87206   3.765   0.964   8.089 -0.7735 -0.5713 -0.0610
  632MOL0     H87207   3.857   0.808   8.101  0.8328  0.2994  0.0626
  632MOL0     H87208   3.823   0.888   8.319 -2.2473  1.7498  1.1441
  632MOL0     H87209   3.648   0.918   8.286 -0.3538  0.4814 -1.9403
  632MOL0     H87210   3.605   0.680   8.281 -0.1494  2.3710 -2.0620
  632MOL0     H87211   3.643   0.736   8.441  1.4604 -2.0945  1.4651
  632MOL0     H87212   3.957   0.468   8.396 -0.4998 -1.3290 -0.9291
  632MOL0     H87213   3.553   0.826   7.653  2.1340  1.8006 -2.3747
  632MOL0     H87214   3.371   1.027   7.458 -1.4596  0.0588  0.9029
  632MOL0     H87215   3.406   0.851   7.479 -3.4620 -2.1138 -1.2049
  632MOL0     H87216   3.252   0.924   7.488  0.5012  3.1892 -1.2397
  633MOL0     O87217   1.237   5.267   3.771 -0.0967 -0.8408 -0.1197
  633MOL0     C87218   1.351   5.282   3.720  0.3316 -1.0040 -0.1241
  633MOL0     O87219   1.478   5.244   3.776  0.4463  0.1931 -0.3838
  633MOL0     C87220   1.492   5.114   3.826  0.3127  0.4716 -0.5760
  633MOL0     C87221   1.419   5.009   3.773 -0.1756  0.2842  0.1786
  633MOL0     C87222   1.389   4.902   3.850 -0.5225  0.0661 -0.4636
  633MOL0     C87223   1.442   4.889   3.981  0.0010  0.1141 -1.3963
  633MOL0     O87224   1.377   4.804   4.069 -0.1364 -0.6300  0.3605
  633MOL0     C87225   1.419   4.776   4.199 -0.1264  0.8463 -0.0312
  633MOL0     C87226   1.312   4.668   4.245 -0.6927 -0.3370 -0.1372
  633MOL0     C87227   1.182   4.744   4.261  0.4582  0.7241 -1.0730
  633MOL0     C87228   1.072   4.644   4.272 -0.0743 -0.3133 -0.8920
  633MOL0     C87229   1.045   4.586   4.134  0.7136 -0.3473 -0.7204
  633MOL0     C87230   0.930   4.478   4.156 -0.3850  0.0182  0.2882
  633MOL0     C87231   0.881   4.402   4.030  0.6693 -0.5665  0.1964
  633MOL0     C87232   0.991   4.351   3.934 -0.6602 -0.4389 -0.2372
  633MOL0     N87233   1.070   4.249   4.009 -0.3872 -0.4283 -0.1817
  633MOL0     C87234   1.040   4.121   4.021  0.3132 -0.7027  0.0268
  633MOL0     C87235   1.144   4.069   4.091 -0.2819 -0.4694 -0.2201
  633MOL0     C87236   1.130   3.927   4.130  0.2401  0.4784  0.4589
  633MOL0     C87237   1.261   3.845   4.119 -0.4842  0.1009  0.0674
  633MOL0     C87238   1.327   3.807   4.255  0.8053 -0.7739  0.9210
  633MOL0     C87239   1.382   3.663   4.260  0.7531 -0.0049 -0.6523
  633MOL0     O87240   1.418   3.653   4.399  0.1702  0.6579 -0.2049
  633MOL0     C87241   1.349   3.550   4.470  0.4380  0.1164 -0.2201
  633MOL0     C87242   1.405   3.425   4.458  0.1968  0.0904 -0.8857
  633MOL0     C87243   1.347   3.309   4.515 -0.3407  0.2210 -1.2007
  633MOL0     C87244   1.416   3.192   4.481 -0.5369  1.1880  0.0197
  633MOL0     C87245   1.235   3.323   4.595 -0.0045 -0.5985 -0.8095
  633MOL0     C87246   1.167   3.200   4.654  0.3333 -0.0506  0.0527
  633MOL0     O87247   1.129   3.221   4.785  1.2578  0.3760  0.2676
  633MOL0     C87248   1.097   3.120   4.862  0.3167  1.0407  0.6291
  633MOL0     C87249   1.195   3.084   4.954 -0.2120  0.1952 -0.3434
  633MOL0     C87250   1.168   2.986   5.054 -0.6061  0.2820  0.5126
  633MOL0     C87251   1.038   2.924   5.055 -0.5005 -0.0922 -0.6497
  633MOL0     O87252   1.017   2.829   5.153 -0.3431  0.3870  0.0858
  633MOL0     C87253   0.903   2.835   5.242  0.3284 -0.3559 -0.7202
  633MOL0     C87254   0.915   2.959   5.328 -0.6197 -0.2500 -0.5794
  633MOL0     C87255   1.050   2.961   5.404  0.0802  0.4590 -1.2363
  633MOL0     C87256   1.045   3.014   5.547  0.1482 -0.5232  0.6033
  633MOL0     C87257   1.161   2.971   5.632 -0.1055 -0.0667  0.6210
  633MOL0     C87258   1.155   2.845   5.708  0.9733 -0.6794 -0.0116
  633MOL0     C87259   1.104   2.859   5.850 -0.6658  0.0945  0.8046
  633MOL0     C87260   1.079   2.728   5.924 -0.2052  0.1414  0.3947
  633MOL0    Cl87261   0.944   2.634   5.867 -0.0590 -0.2644  0.1971
  633MOL0     C87262   0.940   2.974   4.969 -1.2799  0.0578 -0.1683
  633MOL0     C87263   0.971   3.072   4.868 -0.3982  0.5266  0.2592
  633MOL0     O87264   1.179   3.091   4.597 -0.4229 -0.6618  0.3833
  633MOL0     C87265   1.178   3.448   4.617 -0.9163  0.6406 -0.1918
  633MOL0     C87266   1.238   3.561   4.559  0.4985 -0.8649  0.0379
  633MOL0     N87267   1.236   4.172   4.123  0.5442 -0.2394 -0.5688
  633MOL0     N87268   1.182   4.284   4.086  1.6229  0.3905 -0.4365
  633MOL0     C87269   1.547   4.972   4.009 -0.5205 -0.1844 -0.2073
  633MOL0     C87270   1.557   5.097   3.948 -0.3810  0.0404 -0.2841
  633MOL0     C87271   1.355   5.391   3.620 -0.5506 -0.2620  0.4428
  633MOL0     C87272   1.486   5.431   3.575 -0.2329  0.3391  0.3941
  633MOL0     C87273   1.505   5.541   3.478 -0.1389  0.6445 -0.3433
  633MOL0     C87274   1.397   5.601   3.417 -0.0678  0.1581  0.1256
  633MOL0     O87275   1.406   5.735   3.360  0.2252  0.9677 -0.2419
  633MOL0     C87276   1.531   5.782   3.326  0.3164 -0.0715  0.1930
  633MOL0     C87277   1.520   5.870   3.203 -0.5056  0.4170  0.7755
  633MOL0     C87278   1.497   6.022   3.239 -0.0210  1.1966 -0.5163
  633MOL0     C87279   1.500   6.112   3.112 -0.1727 -0.4094  0.8414
  633MOL0     C87280   1.617   6.098   3.020 -0.1808 -0.3839 -0.0649
  633MOL0     C87281   1.721   6.080   2.963 -0.3752 -0.3316  0.5033
  633MOL0     C87282   1.266   5.551   3.456 -0.6002  0.0817  0.6293
  633MOL0     C87283   1.243   5.450   3.552 -0.8096  0.1752 -0.0437
  633MOL0     C87284   1.098   5.410   3.568  0.0217 -0.5101 -0.2765
  633MOL0     H87285   1.383   5.030   3.673  0.1514  0.7746  0.1575
  633MOL0     H87286   1.313   4.834   3.814 -0.3898 -0.8328  0.8871
  633MOL0     H87287   1.412   4.870   4.256  4.8267  0.7820  1.2151
  633MOL0     H87288   1.522   4.740   4.190 -0.8709 -1.2108 -0.9879
  633MOL0     H87289   1.317   4.592   4.167 -2.6572 -0.8194  0.1614
  633MOL0     H87290   1.328   4.613   4.338  1.4647  0.3599 -0.0299
  633MOL0     H87291   1.186   4.794   4.358  2.8411 -2.6402  0.7959
  633MOL0     H87292   1.164   4.809   4.175 -1.5162 -2.7442 -3.5313
  633MOL0     H87293   1.092   4.564   4.344 -0.4048  0.8383  0.5089
  633MOL0     H87294   0.987   4.706   4.301  0.0269 -1.4926  2.2414
  633MOL0     H87295   1.129   4.530   4.093 -0.8486 -2.0703 -1.6946
  633MOL0     H87296   1.008   4.658   4.060 -1.0608 -1.7723 -1.3075
  633MOL0     H87297   0.978   4.406   4.223  1.5054  0.8895 -0.0727
  633MOL0     H87298   0.841   4.519   4.205 -0.7503 -3.6895  3.1924
  633MOL0     H87299   0.808   4.464   3.978  0.8509 -1.3914 -1.0830
  633MOL0     H87300   0.821   4.318   4.067  0.9440 -0.3346  1.2019
  633MOL0     H87301   0.944   4.305   3.847 -1.4206 -1.7694  0.8284
  633MOL0     H87302   1.045   4.436   3.892  3.5679 -1.9394  1.5551
  633MOL0     H87303   0.949   4.071   3.988  0.1019  0.6987 -1.6604
  633MOL0     H87304   1.063   3.874   4.062 -0.4260  3.0367 -0.9949
  633MOL0     H87305   1.081   3.931   4.228 -0.4205  0.8874  0.1161
  633MOL0     H87306   1.238   3.755   4.061  1.0796 -0.1159 -0.2537
  633MOL0     H87307   1.331   3.902   4.058 -1.3535  1.0060 -0.1250
  633MOL0     H87308   1.407   3.879   4.275 -2.3003  2.5477  2.5294
  633MOL0     H87309   1.255   3.825   4.335 -3.1813 -0.4892 -2.3520
  633MOL0     H87310   1.318   3.578   4.235  0.8087  0.5032 -2.7162
  633MOL0     H87311   1.467   3.655   4.191  2.3171 -0.0255  1.2058
  633MOL0     H87312   1.488   3.413   4.390  1.5539 -0.8598  0.8249
  633MOL0     H87313   1.513   3.207   4.431 -0.4345 -1.0905 -0.5944
  633MOL0     H87314   1.354   3.134   4.412 -3.0640  1.8781  1.6218
  633MOL0     H87315   1.432   3.132   4.572 -1.2579 -2.0719 -1.8361
  633MOL0     H87316   1.293   3.131   4.956  0.6691 -1.4803  2.0936
  633MOL0     H87317   1.241   2.948   5.124 -1.4670 -3.5654 -0.4192
  633MOL0     H87318   0.819   2.836   5.172  0.4259 -1.5733 -0.8718
  633MOL0     H87319   0.899   2.754   5.315  1.2912  0.9666  0.8523
  633MOL0     H87320   0.903   3.046   5.263 -0.4557 -1.5806 -2.4574
  633MOL0     H87321   0.832   2.951   5.399 -0.0821  0.9057  0.2030
  633MOL0     H87322   1.126   3.028   5.362 -1.9649  2.9658 -1.1963
  633MOL0     H87323   1.086   2.858   5.401 -1.7702 -0.2573 -0.5163
  633MOL0     H87324   0.954   2.987   5.602  0.1021  0.6752  1.1501
  633MOL0     H87325   1.036   3.123   5.540 -2.4527 -0.7738 -1.4326
  633MOL0     H87326   1.252   2.971   5.571  0.2264 -2.4339  1.0090
  633MOL0     H87327   1.183   3.054   5.699  2.5640 -0.8264  0.8133
  633MOL0     H87328   1.252   2.794   5.703 -0.4482 -3.8795  2.1445
  633MOL0     H87329   1.087   2.775   5.658 -1.6801  1.9607 -0.3791
  633MOL0     H87330   1.011   2.914   5.835 -1.2036 -1.5806 -3.3402
  633MOL0     H87331   1.174   2.921   5.907 -0.8117  0.5123  0.5368
  633MOL0     H87332   1.042   2.773   6.016  4.0384  0.7190  2.0671
  633MOL0     H87333   1.169   2.666   5.934 -1.0442 -1.6104 -1.9892
  633MOL0     H87334   0.835   2.949   4.972 -1.8570  1.9796 -2.3543
  633MOL0     H87335   0.893   3.117   4.809  2.2031  3.0417 -1.5016
  633MOL0     H87336   1.093   3.449   4.685 -1.1642  1.4589 -0.5054
  633MOL0     H87337   1.209   3.662   4.586  0.7756 -0.7521 -0.0850
  633MOL0     H87338   1.602   4.949   4.100 -1.3035 -1.6878 -0.0841
  633MOL0     H87339   1.625   5.172   3.987  0.5544 -0.2516 -1.2949
  633MOL0     H87340   1.575   5.380   3.611  0.8136  0.9035 -1.2779
  633MOL0     H87341   1.605   5.569   3.445 -0.6406  4.0918  0.6869
  633MOL0     H87342   1.587   5.839   3.400 -0.5562  0.0832  0.7489
  633MOL0     H87343   1.601   5.702   3.301  1.0560  1.5827 -3.7618
  633MOL0     H87344   1.458   5.822   3.127  3.2941 -1.8699 -1.1858
  633MOL0     H87345   1.618   5.876   3.155  0.2680 -3.5048  1.5746
  633MOL0     H87346   1.403   6.031   3.293 -0.1965 -1.3203 -0.2722
  633MOL0     H87347   1.567   6.049   3.320  0.2903  1.0079 -0.7187
  633MOL0     H87348   1.497   6.211   3.158 -0.7664 -0.6916  1.4285
  633MOL0     H87349   1.414   6.116   3.044  0.8810 -0.4302 -0.5535
  633MOL0     H87350   1.813   6.051   2.918  0.0075 -1.0140  1.6772
  633MOL0     H87351   1.188   5.607   3.405 -2.2573 -1.5668  1.2261
  633MOL0     H87352   1.049   5.467   3.648  0.6906 -1.9828  1.2362
  633MOL0     H87353   1.047   5.430   3.473 -0.1797  1.3315  0.1644
  633MOL0     H87354   1.092   5.302   3.581  0.7158 -0.8590 -2.3830
  634MOL0     O87355  10.872   0.151   3.946  0.1401  0.6877  0.5346
  634MOL0     C87356  10.866   0.213   3.837  0.8073 -0.6092 -0.0298
  634MOL0     O87357  10.933   0.321   3.807 -0.6801 -0.4812  0.4767
  634MOL0     C87358  11.021   0.379   3.894  0.5361  0.1149 -0.4095
  634MOL0     C87359  11.151   0.334   3.926  0.3804  0.6441  0.0234
  634MOL0     C87360  11.225   0.397   4.034  0.5026 -1.5078 -0.5495
  634MOL0     C87361  11.184   0.520   4.086 -0.0199  0.8077 -0.4588
  634MOL0     O87362  11.253   0.575   4.195  0.0265  0.0929  0.3728
  634MOL0     C87363  11.180   0.638   4.298  0.3871  0.5335  0.1015
  634MOL0     C87364  11.239   0.635   4.437  0.5447  0.0984  0.1524
  634MOL0     C87365  11.287   0.486   4.465  0.0290 -0.0304 -0.8584
  634MOL0     C87366  11.360   0.472   4.598 -0.2370  0.1555  0.0883
  634MOL0     C87367  11.281   0.474   4.728  0.6468  0.3443  0.3853
  634MOL0     C87368  11.365   0.458   4.847 -1.2457 -0.1976 -0.7413
  634MOL0     C87369  11.286   0.493   4.973 -0.6962 -0.1393 -0.3524
  634MOL0     C87370  11.161   0.411   5.003  0.0667 -0.1670  0.8389
  634MOL0     N87371  11.117   0.445   5.136 -0.2982 -0.0857 -0.0235
  634MOL0     C87372  11.039   0.546   5.181 -0.0182  0.2804  0.5036
  634MOL0     C87373  11.018   0.518   5.318  0.0358 -0.3550  0.4389
  634MOL0     C87374  10.946   0.603   5.424  0.3494  0.1660  1.1694
  634MOL0     C87375  11.000   0.742   5.433 -0.4723 -0.7734  1.1296
  634MOL0     C87376  10.956   0.829   5.555 -0.3470  0.2092  0.2875
  634MOL0     C87377  10.800   0.814   5.577 -0.4685  0.3607  0.7680
  634MOL0     O87378  10.725   0.845   5.463  0.8231 -0.0857 -0.2204
  634MOL0     C87379  10.590   0.847   5.477  0.8297 -0.8134  0.4833
  634MOL0     C87380  10.530   0.929   5.378 -0.1066  0.5486  0.5554
  634MOL0     C87381  10.394   0.942   5.365  0.0922  0.8056  0.5475
  634MOL0     C87382  10.335   1.027   5.263  0.1988  0.7917  0.1489
  634MOL0     C87383  10.309   0.885   5.464  0.3549 -0.0307 -0.3880
  634MOL0     C87384  10.159   0.899   5.480 -0.2250  0.2082 -0.4499
  634MOL0     O87385  10.108   0.835   5.583 -0.3836  0.1072 -0.7369
  634MOL0     C87386   9.975   0.816   5.616  0.2010  0.0740  0.1371
  634MOL0     C87387   9.868   0.842   5.532 -0.7375  0.7194  0.3838
  634MOL0     C87388   9.738   0.826   5.578  0.2360 -0.0745  0.0125
  634MOL0     C87389   9.723   0.770   5.708  0.2200 -0.3612 -0.1108
  634MOL0     O87390   9.594   0.743   5.747 -0.1895 -0.1501 -0.0519
  634MOL0     C87391   9.548   0.712   5.880 -0.6183  0.1895 -0.5334
  634MOL0     C87392   9.388   0.736   5.882 -0.7702  0.2660 -0.0299
  634MOL0     C87393   9.350   0.886   5.868  0.4240 -1.2108 -0.9312
  634MOL0     C87394   9.206   0.927   5.902  0.1047 -0.4036  0.8857
  634MOL0     C87395   9.190   1.075   5.885  0.1931  0.1415 -0.5601
  634MOL0     C87396   9.056   1.138   5.923 -0.4739 -0.3938  0.3503
  634MOL0     C87397   9.069   1.297   5.900  0.3885 -0.1948 -0.3344
  634MOL0     C87398   8.927   1.358   5.928 -0.2834  0.1994 -0.1364
  634MOL0    Cl87399   8.831   1.323   5.776  0.4889  0.0499  0.3164
  634MOL0     C87400   9.831   0.751   5.794 -0.3947  0.1594  0.6728
  634MOL0     C87401   9.960   0.768   5.747  0.7560 -0.7092  0.8163
  634MOL0     O87402  10.092   0.969   5.402 -0.4579  0.5738 -0.0074
  634MOL0     C87403  10.374   0.812   5.562  0.3065 -0.4801  0.8220
  634MOL0     C87404  10.506   0.780   5.571 -0.5264 -1.5062  0.5740
  634MOL0     N87405  11.083   0.403   5.343 -0.8992 -0.9383 -0.3774
  634MOL0     N87406  11.140   0.362   5.238 -0.6133 -0.7348 -0.2016
  634MOL0     C87407  11.066   0.575   4.030  0.3851  0.9911 -0.0519
  634MOL0     C87408  10.980   0.506   3.944  0.1865  0.3328 -0.6450
  634MOL0     C87409  10.751   0.172   3.749 -0.5720 -0.3673  0.0836
  634MOL0     C87410  10.668   0.062   3.791  1.0459 -0.3880  0.6203
  634MOL0     C87411  10.559   0.018   3.708  0.3778  0.0516  0.1924
  634MOL0     C87412  10.536   0.068   3.577  0.0937 -0.4334  0.3292
  634MOL0     O87413  10.429   0.030   3.497  0.3840  0.6277  0.2426
  634MOL0     C87414  10.393  -0.114   3.505  0.2326 -0.7548 -0.1664
  634MOL0     C87415  10.285  -0.142   3.615 -0.7832 -0.3299 -0.0806
  634MOL0     C87416  10.224  -0.284   3.588 -0.4428  0.2966  0.5982
  634MOL0     C87417  10.121  -0.325   3.693  0.1971 -0.9351 -1.0807
  634MOL0     C87418  10.006  -0.242   3.697 -0.6984 -0.9048  0.2612
  634MOL0     C87419   9.914  -0.168   3.715 -0.1195 -0.1016 -0.8021
  634MOL0     C87420  10.604   0.180   3.541 -0.2947  0.3999  0.0091
  634MOL0     C87421  10.714   0.232   3.622  0.5476 -0.7114  0.0448
  634MOL0     C87422  10.772   0.360   3.564 -0.2107  0.8414  0.0653
  634MOL0     H87423  11.160   0.234   3.885 -3.0968 -0.3292  1.3035
  634MOL0     H87424  11.309   0.359   4.091  1.6354  2.9591  1.1215
  634MOL0     H87425  11.083   0.589   4.310 -0.6120  2.7221  1.6546
  634MOL0     H87426  11.159   0.740   4.262 -0.3684  0.1638 -0.5536
  634MOL0     H87427  11.315   0.712   4.451 -0.5388  1.4649 -1.1477
  634MOL0     H87428  11.169   0.673   4.512  1.5762  2.1384  0.1524
  634MOL0     H87429  11.199   0.423   4.448  1.1381 -2.6029  1.9843
  634MOL0     H87430  11.366   0.449   4.399  0.7375  1.1041 -0.6870
  634MOL0     H87431  11.430   0.389   4.594  1.5161  1.4993  1.1385
  634MOL0     H87432  11.440   0.546   4.610  2.8632 -2.8514 -0.3085
  634MOL0     H87433  11.228   0.379   4.720 -1.0228  1.1022  1.8370
  634MOL0     H87434  11.210   0.557   4.740 -0.2363 -0.4824  0.9833
  634MOL0     H87435  11.404   0.357   4.865 -0.5961  0.1829  0.0898
  634MOL0     H87436  11.449   0.527   4.833 -1.5132  0.1548 -0.5987
  634MOL0     H87437  11.241   0.593   4.970 -0.7549 -0.1615 -0.2256
  634MOL0     H87438  11.345   0.483   5.064 -1.3983 -0.0847  0.1167
  634MOL0     H87439  11.081   0.421   4.928  2.6917 -2.5121 -2.5814
  634MOL0     H87440  11.190   0.305   4.996 -0.4139 -0.5568  3.5808
  634MOL0     H87441  11.004   0.633   5.127 -1.3867  0.1509  1.1477
  634MOL0     H87442  10.975   0.555   5.518 -2.5745 -0.9734  1.6007
  634MOL0     H87443  10.838   0.590   5.416  0.3107 -0.3054  2.2806
  634MOL0     H87444  11.108   0.752   5.443 -0.7492  1.0843  2.6485
  634MOL0     H87445  10.972   0.792   5.340 -2.0133 -3.3963  0.0704
  634MOL0     H87446  11.006   0.809   5.650 -1.1523 -2.8360  0.1519
  634MOL0     H87447  10.974   0.933   5.525  1.0182  0.0384  0.4578
  634MOL0     H87448  10.794   0.708   5.603 -1.3152  0.1148 -0.3465
  634MOL0     H87449  10.769   0.860   5.672  1.7686  2.2727  0.6658
  634MOL0     H87450  10.605   0.948   5.302  1.1990 -5.7844 -0.2793
  634MOL0     H87451  10.293   1.116   5.311  2.9720  0.8065  2.8098
  634MOL0     H87452  10.254   0.974   5.212 -1.6347  0.9388  2.7472
  634MOL0     H87453  10.407   1.056   5.186  1.5391 -0.6596  0.8108
  634MOL0     H87454   9.867   0.886   5.433 -2.9514 -0.1188 -0.0288
  634MOL0     H87455   9.656   0.860   5.516 -0.0856 -1.8300 -0.5830
  634MOL0     H87456   9.578   0.612   5.912  0.7252  0.3633 -1.1598
  634MOL0     H87457   9.601   0.773   5.954  1.6766 -0.4935 -1.5036
  634MOL0     H87458   9.331   0.668   5.820  0.5282 -2.0494  1.1724
  634MOL0     H87459   9.356   0.718   5.985  0.9870 -1.1357  0.3165
  634MOL0     H87460   9.351   0.927   5.767 -1.0824  3.1640  0.6223
  634MOL0     H87461   9.417   0.947   5.928 -0.5347  0.3039 -1.3455
  634MOL0     H87462   9.195   0.899   6.007  0.9703 -0.9625  0.8409
  634MOL0     H87463   9.122   0.880   5.849 -1.5972  0.3709  2.7372
  634MOL0     H87464   9.262   1.131   5.945 -2.0681  3.4110 -0.6777
  634MOL0     H87465   9.214   1.107   5.783  1.4016  0.9469 -0.0502
  634MOL0     H87466   9.037   1.135   6.030 -0.9095  0.1200  0.2934
  634MOL0     H87467   8.974   1.091   5.868 -0.0719  0.0538 -0.6597
  634MOL0     H87468   9.104   1.331   5.802  2.4935  1.2684  0.8377
  634MOL0     H87469   9.148   1.328   5.969  1.6206 -0.5686 -1.5122
  634MOL0     H87470   8.926   1.465   5.951 -0.9923 -0.1369  1.5301
  634MOL0     H87471   8.884   1.307   6.015  0.8626  2.3460  1.8141
  634MOL0     H87472   9.822   0.698   5.888  2.6348  1.0145  1.5432
  634MOL0     H87473  10.043   0.745   5.812 -0.6735 -0.4738  2.8428
  634MOL0     H87474  10.319   0.754   5.634 -2.5612 -0.2175 -0.9993
  634MOL0     H87475  10.551   0.721   5.650 -2.1260 -2.3716  0.8795
  634MOL0     H87476  11.034   0.676   4.051  0.0023  0.7417  0.5837
  634MOL0     H87477  10.886   0.550   3.912 -1.5038 -0.4111  2.8269
  634MOL0     H87478  10.681  -0.008   3.873 -2.3352 -0.3041  1.3576
  634MOL0     H87479  10.503  -0.063   3.755  0.1928  1.7827  3.2329
  634MOL0     H87480  10.375  -0.156   3.406  3.6745 -1.8612 -0.4587
  634MOL0     H87481  10.487  -0.164   3.533  0.3653 -1.1317 -1.2248
  634MOL0     H87482  10.220  -0.056   3.597 -1.1434 -0.8919 -1.6066
  634MOL0     H87483  10.330  -0.143   3.714 -0.8630  2.1556  0.0468
  634MOL0     H87484  10.183  -0.290   3.486  2.5217  0.2706 -0.7132
  634MOL0     H87485  10.296  -0.366   3.595 -0.1518  0.1433 -2.5555
  634MOL0     H87486  10.180  -0.319   3.785  0.3814  0.7630 -1.2729
  634MOL0     H87487  10.090  -0.429   3.694  0.8201 -1.2948  3.6866
  634MOL0     H87488   9.834  -0.100   3.736  2.0020  1.7946  1.7082
  634MOL0     H87489  10.588   0.222   3.442  2.5300  0.1680 -0.6213
  634MOL0     H87490  10.741   0.456   3.606  2.0928  0.6457  2.5041
  634MOL0     H87491  10.881   0.353   3.575 -0.3240 -2.9763  0.0094
  634MOL0     H87492  10.754   0.346   3.457 -1.8057  1.8735  0.1715
  635MOL0     O87493   0.786   8.638   5.083 -0.1145 -0.2390  0.1103
  635MOL0     C87494   0.832   8.725   5.151  0.2739  0.3861 -0.3361
  635MOL0     O87495   0.899   8.711   5.265 -0.2354  0.6186  0.0464
  635MOL0     C87496   0.955   8.601   5.330 -0.0276 -0.7467  0.2213
  635MOL0     C87497   0.876   8.491   5.356 -0.0146  0.2812  0.0014
  635MOL0     C87498   0.938   8.369   5.399  0.6754 -0.7613 -0.3379
  635MOL0     C87499   1.070   8.362   5.394  0.0272 -0.6382 -0.4388
  635MOL0     O87500   1.141   8.256   5.434 -0.6996  0.4315  1.0056
  635MOL0     C87501   1.065   8.156   5.509  0.5369 -1.0564  0.3000
  635MOL0     C87502   1.160   8.077   5.604 -0.2553 -0.1836 -0.0058
  635MOL0     C87503   1.221   8.154   5.726  0.6395  0.4242 -0.2521
  635MOL0     C87504   1.369   8.129   5.715  0.3787  0.1188  0.5448
  635MOL0     C87505   1.446   8.209   5.829 -0.3581 -1.2161  0.6001
  635MOL0     C87506   1.590   8.234   5.800  0.4115  0.6585 -0.7859
  635MOL0     C87507   1.641   8.359   5.870  0.5315 -1.1063  0.1406
  635MOL0     C87508   1.790   8.403   5.841 -0.0874 -0.5557  0.5161
  635MOL0     N87509   1.887   8.296   5.846 -0.4291 -1.3131 -1.1106
  635MOL0     C87510   1.927   8.213   5.744 -0.0567 -0.1618 -0.6540
  635MOL0     C87511   2.022   8.134   5.803 -0.4871  0.1458 -0.1557
  635MOL0     C87512   2.100   8.016   5.748  0.0631 -0.1026 -0.3532
  635MOL0     C87513   2.236   8.073   5.710  0.4825 -0.4194  0.1275
  635MOL0     C87514   2.337   8.106   5.828 -0.0463 -0.6004 -0.6655
  635MOL0     C87515   2.361   7.992   5.926  0.2861 -0.8005 -0.6911
  635MOL0     O87516   2.479   7.917   5.883 -0.4698  0.6539 -0.1405
  635MOL0     C87517   2.522   7.804   5.958 -0.6928 -0.4194  1.0266
  635MOL0     C87518   2.466   7.767   6.081 -0.7292 -1.0824  0.0521
  635MOL0     C87519   2.524   7.670   6.165  0.4493 -0.2191  0.7623
  635MOL0     C87520   2.466   7.650   6.301  0.2951  0.9801 -1.2255
  635MOL0     C87521   2.631   7.600   6.122 -0.5753 -0.3488  1.1978
  635MOL0     C87522   2.705   7.497   6.208  0.0485 -0.0772 -0.0944
  635MOL0     O87523   2.770   7.400   6.131  0.9359  0.0082 -0.1690
  635MOL0     C87524   2.758   7.277   6.172  0.6219  0.0495  0.3843
  635MOL0     C87525   2.851   7.193   6.114 -0.0105  0.4045 -0.5798
  635MOL0     C87526   2.845   7.062   6.126 -0.3007  0.6999 -0.8300
  635MOL0     C87527   2.756   6.996   6.220  0.7637 -0.9371  0.2854
  635MOL0     O87528   2.743   6.867   6.244  0.0026  0.2150 -0.4961
  635MOL0     C87529   2.856   6.791   6.282  0.2034  0.1111  1.0779
  635MOL0     C87530   2.902   6.700   6.172  0.4314  0.0797 -0.2168
  635MOL0     C87531   3.033   6.614   6.220  0.2736 -1.1934 -1.0944
  635MOL0     C87532   3.079   6.527   6.104  0.0430 -0.1441 -0.6608
  635MOL0     C87533   3.190   6.435   6.146  0.7492  0.7134  0.6762
  635MOL0     C87534   3.309   6.517   6.198  0.4624 -0.3314  0.8830
  635MOL0     C87535   3.417   6.411   6.242 -0.2281  0.0049 -0.9013
  635MOL0     C87536   3.523   6.470   6.330  0.1882  0.0326 -0.2215
  635MOL0    Cl87537   3.601   6.358   6.444  0.2484  0.2640 -0.2198
  635MOL0     C87538   2.657   7.087   6.276  0.0256  0.1147 -0.4034
  635MOL0     C87539   2.657   7.226   6.255  0.1923  0.6939 -0.0238
  635MOL0     O87540   2.721   7.514   6.330  0.4335  0.0051  0.4522
  635MOL0     C87541   2.677   7.624   5.991 -0.5840  0.4503  0.1172
  635MOL0     C87542   2.635   7.730   5.916 -0.4886 -0.2055 -0.2603
  635MOL0     N87543   2.032   8.169   5.937  0.0306  0.9245  1.0378
  635MOL0     N87544   1.961   8.271   5.954 -0.5905 -0.1150 -0.2917
  635MOL0     C87545   1.144   8.468   5.364  0.1331  0.4126 -0.2219
  635MOL0     C87546   1.087   8.582   5.318 -0.0451 -0.2885 -0.1937
  635MOL0     C87547   0.822   8.867   5.100  0.3164  1.1806  0.6765
  635MOL0     C87548   0.805   8.878   4.959 -0.2510  0.0471 -0.3225
  635MOL0     C87549   0.780   9.000   4.892  0.3353 -0.0638 -0.1545
  635MOL0     C87550   0.760   9.109   4.979  0.0545 -0.5025  0.3480
  635MOL0     O87551   0.718   9.225   4.939  1.4483 -0.6421  0.4445
  635MOL0     C87552   0.826   9.306   4.896 -0.5682 -0.4171  0.6335
  635MOL0     C87553   0.795   9.450   4.908  0.2054  0.9712  0.1596
  635MOL0     C87554   0.652   9.494   4.862 -0.4223  0.1397  0.2337
  635MOL0     C87555   0.635   9.646   4.850 -0.6276  0.0520 -0.2457
  635MOL0     C87556   0.511   9.670   4.770  0.8021 -0.2166  0.2293
  635MOL0     C87557   0.406   9.684   4.707 -0.5147  0.5418  0.4127
  635MOL0     C87558   0.792   9.095   5.116 -0.6189 -0.2061 -0.8814
  635MOL0     C87559   0.814   8.976   5.179  0.6050 -0.8206 -0.7337
  635MOL0     C87560   0.796   8.983   5.330 -0.0959  0.0171 -0.3658
  635MOL0     H87561   0.768   8.494   5.347 -0.0728  2.0968  0.7949
  635MOL0     H87562   0.875   8.281   5.412 -1.2583  0.6709  0.3803
  635MOL0     H87563   1.022   8.071   5.456 -1.5292  2.0475 -3.6083
  635MOL0     H87564   0.986   8.203   5.569  0.3443 -0.4939 -0.3791
  635MOL0     H87565   1.106   7.990   5.643 -1.7540  0.8440  0.3140
  635MOL0     H87566   1.235   8.034   5.537 -1.5419 -1.6225 -0.5763
  635MOL0     H87567   1.208   8.261   5.710  0.3118  0.2510 -1.2309
  635MOL0     H87568   1.177   8.114   5.818  0.7244 -0.8713 -0.7489
  635MOL0     H87569   1.383   8.024   5.743 -0.1989  0.5371  2.5536
  635MOL0     H87570   1.400   8.154   5.614 -1.3310  0.2884  0.0398
  635MOL0     H87571   1.455   8.157   5.925  3.7840  0.4984  1.3399
  635MOL0     H87572   1.406   8.307   5.856  2.8631 -0.1602  2.0215
  635MOL0     H87573   1.640   8.143   5.834  0.6754  1.6462  1.6896
  635MOL0     H87574   1.596   8.249   5.692  1.0583  2.2285 -0.5613
  635MOL0     H87575   1.629   8.345   5.978  0.7009  0.1501  0.3349
  635MOL0     H87576   1.573   8.437   5.836  0.6296 -0.5830  1.1231
  635MOL0     H87577   1.798   8.453   5.745 -1.1248  2.3842  1.8518
  635MOL0     H87578   1.817   8.471   5.922  0.9388 -1.5315  1.0344
  635MOL0     H87579   1.882   8.214   5.645  1.2120  2.2519 -1.2629
  635MOL0     H87580   2.055   7.979   5.655  0.6834  1.4161 -1.3131
  635MOL0     H87581   2.085   7.932   5.816 -1.1043 -0.6789 -1.2766
  635MOL0     H87582   2.283   8.001   5.642 -1.5402 -0.7855 -0.9565
  635MOL0     H87583   2.215   8.163   5.652 -2.0491  0.2408  1.8828
  635MOL0     H87584   2.435   8.138   5.792  0.3717  0.4886  1.3209
  635MOL0     H87585   2.300   8.194   5.882  1.4029 -0.8850  0.8535
  635MOL0     H87586   2.373   8.039   6.023 -0.0574 -1.0268 -0.5358
  635MOL0     H87587   2.283   7.919   5.951  2.0332 -2.8259 -0.8480
  635MOL0     H87588   2.394   7.835   6.127  0.5092  2.1984 -2.4804
  635MOL0     H87589   2.377   7.712   6.314 -2.7855 -2.8769 -1.7823
  635MOL0     H87590   2.531   7.689   6.379 -0.9186  0.3212  0.1545
  635MOL0     H87591   2.456   7.544   6.328 -1.7936  1.1467 -1.1992
  635MOL0     H87592   2.928   7.241   6.053 -0.4388  0.6702 -0.9220
  635MOL0     H87593   2.923   6.998   6.085  1.7424  1.2701  1.9030
  635MOL0     H87594   2.946   6.845   6.314  0.4873 -0.9231  2.0840
  635MOL0     H87595   2.824   6.740   6.372 -0.5643  3.3988  2.8315
  635MOL0     H87596   2.821   6.630   6.149 -1.3001  2.1266 -0.6670
  635MOL0     H87597   2.927   6.754   6.080  0.6044  3.3184  1.5897
  635MOL0     H87598   3.023   6.547   6.306 -1.4284 -0.4583 -0.6764
  635MOL0     H87599   3.108   6.688   6.249  1.0728 -3.0188  1.9442
  635MOL0     H87600   3.111   6.596   6.026  1.3221  1.0954  0.8998
  635MOL0     H87601   2.996   6.463   6.074  1.1356 -2.3852  0.8030
  635MOL0     H87602   3.147   6.378   6.229  0.8360  0.9444  0.8836
  635MOL0     H87603   3.214   6.365   6.066 -1.5855  1.2913 -0.6171
  635MOL0     H87604   3.270   6.575   6.283  0.7470  2.0139 -0.5120
  635MOL0     H87605   3.340   6.595   6.129 -1.0873  1.4756  2.1238
  635MOL0     H87606   3.461   6.363   6.154 -0.7112  0.5721 -1.4556
  635MOL0     H87607   3.368   6.331   6.299  1.6281  0.7873  2.0496
  635MOL0     H87608   3.480   6.546   6.396  1.5551 -1.2927  2.3620
  635MOL0     H87609   3.609   6.509   6.274  1.7203 -0.9170  1.3422
  635MOL0     H87610   2.572   7.048   6.330  0.8686  0.7528  1.4924
  635MOL0     H87611   2.578   7.293   6.287 -1.2522 -0.4910 -0.9746
  635MOL0     H87612   2.760   7.567   5.950 -2.4234 -2.2578 -0.1755
  635MOL0     H87613   2.684   7.759   5.824  0.1628 -0.9535 -0.1598
  635MOL0     H87614   1.252   8.475   5.373 -0.0703  2.3792  1.1668
  635MOL0     H87615   1.148   8.664   5.279 -0.0322  0.1459  0.7112
  635MOL0     H87616   0.822   8.789   4.900  0.8831  0.4527 -0.6547
  635MOL0     H87617   0.782   9.017   4.785 -0.8415  0.7964 -0.0606
  635MOL0     H87618   0.924   9.290   4.942  1.3470  3.0875 -1.7299
  635MOL0     H87619   0.844   9.293   4.789 -1.8624  2.6564 -0.0689
  635MOL0     H87620   0.874   9.505   4.857  1.4540 -1.7904 -1.0322
  635MOL0     H87621   0.787   9.469   5.016 -2.1391  0.4166  0.1445
  635MOL0     H87622   0.639   9.457   4.760 -1.6663 -0.2937  0.5260
  635MOL0     H87623   0.575   9.459   4.932  0.4226  0.1238  1.1631
  635MOL0     H87624   0.719   9.693   4.799  0.2909 -0.8494  0.3869
  635MOL0     H87625   0.621   9.685   4.951 -0.4961 -2.3539  0.7769
  635MOL0     H87626   0.314   9.707   4.657 -2.4570 -1.0172  3.0217
  635MOL0     H87627   0.781   9.180   5.182  0.8670 -0.7585  0.1235
  635MOL0     H87628   0.849   8.903   5.383 -1.6261 -1.7396 -1.3671
  635MOL0     H87629   0.850   9.071   5.365  4.4642 -1.9644 -1.6216
  635MOL0     H87630   0.691   8.967   5.352 -0.3083 -0.3506 -1.5584
  636MOL0     O87631   9.489   4.708   6.194  0.7618  0.1425 -0.3870
  636MOL0     C87632   9.588   4.667   6.147 -0.3557 -0.4829  0.9304
  636MOL0     O87633   9.647   4.550   6.180 -0.4176 -0.6148 -0.2995
  636MOL0     C87634   9.590   4.463   6.267  0.2768  0.1549  0.4019
  636MOL0     C87635   9.669   4.365   6.332 -0.6093 -0.6145 -0.0846
  636MOL0     C87636   9.604   4.272   6.426 -0.1121  1.2428  0.3968
  636MOL0     C87637   9.468   4.265   6.436  0.3219 -0.5344  0.1727
  636MOL0     O87638   9.412   4.184   6.529  1.1355  0.8773  0.1647
  636MOL0     C87639   9.352   4.066   6.456  0.3771  0.7096 -0.7080
  636MOL0     C87640   9.266   3.983   6.542 -0.1470  0.0431 -0.7003
  636MOL0     C87641   9.148   4.060   6.622 -0.4660 -0.5659 -0.2067
  636MOL0     C87642   9.044   4.145   6.539 -0.0721  0.0967 -0.0539
  636MOL0     C87643   8.986   4.272   6.596  0.1142  0.6475  0.0644
  636MOL0     C87644   8.863   4.321   6.507  0.4562  0.1819  0.4406
  636MOL0     C87645   8.747   4.224   6.495  0.5434  0.4894 -0.2700
  636MOL0     C87646   8.624   4.301   6.447 -0.6305 -0.2880 -0.7758
  636MOL0     N87647   8.625   4.426   6.371  0.1135 -0.0631 -0.1870
  636MOL0     C87648   8.675   4.428   6.245 -0.0952  0.8074 -0.2608
  636MOL0     C87649   8.668   4.556   6.211  0.9493  0.1535  0.2714
  636MOL0     C87650   8.726   4.612   6.082  0.1304  0.6152 -0.2221
  636MOL0     C87651   8.748   4.764   6.082  0.2812 -0.2565  1.1021
  636MOL0     C87652   8.792   4.815   5.942  0.0488  1.1860 -0.0397
  636MOL0     C87653   8.857   4.959   5.941  0.6030 -0.5455 -0.3833
  636MOL0     O87654   8.935   4.985   5.829  0.3525  0.1535 -0.1347
  636MOL0     C87655   9.047   5.067   5.847  0.6637 -0.2980  0.0116
  636MOL0     C87656   9.152   5.044   5.761 -0.7594  0.1628 -0.2668
  636MOL0     C87657   9.278   5.100   5.771 -0.8214 -0.5160 -0.0839
  636MOL0     C87658   9.381   5.055   5.683  0.2003 -0.1320  0.7880
  636MOL0     C87659   9.304   5.181   5.889  0.3669 -0.3048 -0.2848
  636MOL0     C87660   9.425   5.256   5.918  0.3842 -1.1462 -1.1779
  636MOL0     O87661   9.405   5.386   5.970 -0.3803  0.6501  0.6320
  636MOL0     C87662   9.511   5.453   6.014 -0.1015  0.2531 -1.3809
  636MOL0     C87663   9.578   5.531   5.933  0.0750 -0.1848  0.5621
  636MOL0     C87664   9.690   5.605   5.961 -0.1292  0.7301 -0.6091
  636MOL0     C87665   9.757   5.578   6.086 -1.6346  0.1190  0.3717
  636MOL0     O87666   9.879   5.631   6.118 -0.1529 -0.2102 -0.0282
  636MOL0     C87667   9.887   5.769   6.090 -0.3304 -0.8279  0.2211
  636MOL0     C87668  10.022   5.812   6.141 -0.2185 -0.1251 -0.5109
  636MOL0     C87669  10.032   5.961   6.181  0.0081  0.3329  0.3042
  636MOL0     C87670  10.176   5.986   6.221 -0.0859 -0.2450  0.0950
  636MOL0     C87671  10.278   5.986   6.108  0.1477 -0.4787  0.3652
  636MOL0     C87672  10.398   6.057   6.174 -0.0115 -0.5863  0.0459
  636MOL0     C87673  10.532   6.071   6.095 -1.0965 -0.5615  0.4195
  636MOL0     C87674  10.600   5.933   6.087 -0.1778  0.1930  0.0454
  636MOL0    Cl87675  10.740   5.938   5.960  0.3923  0.5587 -0.2035
  636MOL0     C87676   9.692   5.477   6.165  0.0589  0.3357  0.2020
  636MOL0     C87677   9.568   5.421   6.143 -0.5212 -0.0985  0.1818
  636MOL0     O87678   9.533   5.204   5.892 -0.0791 -1.0406 -0.4519
  636MOL0     C87679   9.196   5.206   5.969 -1.0639 -0.2448 -0.4245
  636MOL0     C87680   9.076   5.152   5.950  1.0025  0.1891 -0.3048
  636MOL0     N87681   8.600   4.623   6.309 -0.2833 -0.7219  0.4875
  636MOL0     N87682   8.574   4.549   6.403 -0.5206 -0.3828 -0.3029
  636MOL0     C87683   9.394   4.348   6.356 -0.3497 -0.1456 -0.2132
  636MOL0     C87684   9.450   4.449   6.280 -0.3790 -0.6971  0.9868
  636MOL0     C87685   9.656   4.757   6.043  0.3057 -0.0722 -0.5456
  636MOL0     C87686   9.713   4.685   5.937  0.5290 -0.1987 -0.6932
  636MOL0     C87687   9.775   4.759   5.840  0.2326 -1.2263 -0.5425
  636MOL0     C87688   9.782   4.902   5.845  0.6955 -0.4990  0.1851
  636MOL0     O87689   9.828   4.949   5.714 -0.2903 -0.1004 -0.8344
  636MOL0     C87690   9.833   5.094   5.685  0.6696  0.3408 -0.6068
  636MOL0     C87691   9.803   5.125   5.533 -0.6874 -0.8485 -0.1479
  636MOL0     C87692   9.908   5.072   5.443  0.3401 -0.2349 -0.9669
  636MOL0     C87693  10.034   5.167   5.452 -0.5003 -0.6133  0.5716
  636MOL0     C87694  10.141   5.110   5.365  1.4000  1.1873 -0.6392
  636MOL0     C87695  10.218   5.048   5.293 -0.8248 -0.8556 -0.4772
  636MOL0     C87696   9.740   4.971   5.957 -0.2055 -0.0142 -0.6125
  636MOL0     C87697   9.668   4.902   6.058  0.3365 -0.6530  0.9472
  636MOL0     C87698   9.600   4.994   6.169 -0.1722 -0.1897  0.1582
  636MOL0     H87699   9.777   4.376   6.325 -0.8839  1.3040 -3.4045
  636MOL0     H87700   9.668   4.216   6.494  1.3393  0.8201 -1.2504
  636MOL0     H87701   9.435   4.002   6.423 -0.5614 -0.3139 -1.1643
  636MOL0     H87702   9.293   4.096   6.369 -2.0412  0.3282  0.6893
  636MOL0     H87703   9.216   3.903   6.485  0.8049 -1.4141  0.4401
  636MOL0     H87704   9.327   3.928   6.614 -2.0725 -2.7852 -1.0782
  636MOL0     H87705   9.104   3.991   6.695  2.3788  0.7026  2.9422
  636MOL0     H87706   9.205   4.118   6.695  0.0862  0.2396 -1.2555
  636MOL0     H87707   9.087   4.164   6.440  0.8814 -0.6568  0.1956
  636MOL0     H87708   8.960   4.076   6.529 -0.0561 -0.0519  0.7233
  636MOL0     H87709   9.052   4.359   6.596 -0.9016  1.4540 -1.3890
  636MOL0     H87710   8.955   4.259   6.701 -0.2165 -1.7291 -0.2717
  636MOL0     H87711   8.835   4.413   6.559  0.7730  0.4979  0.0657
  636MOL0     H87712   8.907   4.338   6.408 -1.2342 -2.5084 -0.8867
  636MOL0     H87713   8.742   4.171   6.591  2.4516  1.1885  0.2544
  636MOL0     H87714   8.772   4.150   6.418  0.3514 -0.6831  0.7432
  636MOL0     H87715   8.560   4.233   6.390 -0.1638 -0.3168 -1.2701
  636MOL0     H87716   8.578   4.328   6.542 -1.7109 -1.8700 -0.8135
  636MOL0     H87717   8.709   4.338   6.196 -1.0560  0.3855 -0.1805
  636MOL0     H87718   8.664   4.573   6.001  2.4253  0.9978 -2.2734
  636MOL0     H87719   8.826   4.569   6.074  0.4132  0.9590  1.1965
  636MOL0     H87720   8.655   4.817   6.105  1.0787  0.4992  2.7387
  636MOL0     H87721   8.818   4.805   6.156 -0.3710 -4.0172  4.1547
  636MOL0     H87722   8.860   4.744   5.894 -1.2787 -1.4421  1.7139
  636MOL0     H87723   8.705   4.814   5.876 -0.9818  1.0690  1.2585
  636MOL0     H87724   8.769   5.025   5.947 -0.1884 -1.4498 -1.5625
  636MOL0     H87725   8.911   4.973   6.035 -2.3262  1.4428  1.1800
  636MOL0     H87726   9.118   4.979   5.681 -1.1219 -0.3939  0.3219
  636MOL0     H87727   9.433   5.136   5.631 -1.2850 -1.1096 -2.4859
  636MOL0     H87728   9.338   4.989   5.606  1.8416 -2.5255  1.7964
  636MOL0     H87729   9.463   5.000   5.730 -2.1210 -5.7003 -0.7747
  636MOL0     H87730   9.534   5.532   5.834 -0.2773 -2.7296  0.6460
  636MOL0     H87731   9.728   5.669   5.882  0.0070 -0.5104 -1.5852
  636MOL0     H87732   9.860   5.796   5.987  0.5818 -1.4662 -0.2029
  636MOL0     H87733   9.814   5.803   6.163  0.4713 -0.6874  0.9688
  636MOL0     H87734  10.052   5.750   6.227 -0.5308 -0.8676 -0.9265
  636MOL0     H87735  10.084   5.801   6.051 -1.6146  2.4693 -1.8885
  636MOL0     H87736   9.962   5.988   6.261 -0.4641  0.7310 -0.2337
  636MOL0     H87737  10.015   6.010   6.085 -1.9351 -0.9712 -0.0841
  636MOL0     H87738  10.202   5.910   6.296 -2.7277  1.5910  3.1290
  636MOL0     H87739  10.179   6.074   6.286 -0.8964  1.3017 -1.8532
  636MOL0     H87740  10.293   5.882   6.076 -0.8926  0.1039 -2.3124
  636MOL0     H87741  10.244   6.047   6.024 -1.5135  1.6242  2.4219
  636MOL0     H87742  10.415   6.007   6.270  2.1451 -2.5096 -1.2267
  636MOL0     H87743  10.368   6.161   6.190 -2.5087 -1.6187  3.1460
  636MOL0     H87744  10.601   6.148   6.131 -0.6071 -1.0588  0.5640
  636MOL0     H87745  10.502   6.107   5.996  2.2688  2.3259  0.2531
  636MOL0     H87746  10.528   5.855   6.058 -1.2125 -0.6243  4.1054
  636MOL0     H87747  10.643   5.906   6.184 -2.5398 -0.5911  0.9642
  636MOL0     H87748   9.730   5.452   6.264  1.7191  1.3504 -0.1360
  636MOL0     H87749   9.534   5.339   6.205  1.3215  0.1047  1.5261
  636MOL0     H87750   9.215   5.263   6.059 -3.1376 -1.6744  0.9993
  636MOL0     H87751   9.003   5.177   6.026  0.6220 -0.9744 -0.2585
  636MOL0     H87752   9.287   4.332   6.370  0.0870 -3.0195  0.4464
  636MOL0     H87753   9.389   4.506   6.211  0.6632 -0.6527  0.0627
  636MOL0     H87754   9.710   4.577   5.929  1.8700 -0.3338  0.3442
  636MOL0     H87755   9.817   4.709   5.754  1.2220 -1.0076 -0.1993
  636MOL0     H87756   9.753   5.141   5.743  0.7703 -2.5316  2.1079
  636MOL0     H87757   9.928   5.134   5.721 -0.4358  1.6358  1.0512
  636MOL0     H87758   9.801   5.233   5.515  0.1951 -0.9682 -1.0033
  636MOL0     H87759   9.701   5.097   5.506 -1.7240  3.9478 -2.2272
  636MOL0     H87760   9.925   4.968   5.471 -1.0601 -0.6147 -1.4803
  636MOL0     H87761   9.865   5.077   5.343  0.1628  1.9851 -0.8333
  636MOL0     H87762  10.079   5.173   5.552 -1.7382  0.8580  1.0723
  636MOL0     H87763  10.010   5.266   5.413 -1.2353 -0.7225  0.7396
  636MOL0     H87764  10.288   4.995   5.232  0.3705  1.9531 -1.6771
  636MOL0     H87765   9.750   5.079   5.951 -0.8940  0.1334  0.6560
  636MOL0     H87766   9.492   5.008   6.163 -0.0109  0.4176 -2.8070
  636MOL0     H87767   9.621   4.964   6.273 -0.1120 -2.3458 -0.4173
  636MOL0     H87768   9.638   5.095   6.152 -1.3219  0.0704 -0.9171
  637MOL0     O87769   1.555   3.472   8.638  0.2102  0.5201  0.5417
  637MOL0     C87770   1.592   3.358   8.668  0.0082  0.4608 -0.6074
  637MOL0     O87771   1.612   3.319   8.795  0.7037 -0.5061  0.1569
  637MOL0     C87772   1.591   3.421   8.890 -0.2515 -0.4160 -1.0167
  637MOL0     C87773   1.675   3.537   8.904  0.7353  0.1211  1.1576
  637MOL0     C87774   1.644   3.644   8.989  0.5089 -1.1310  0.8105
  637MOL0     C87775   1.530   3.643   9.059  1.1720 -0.2773 -1.0004
  637MOL0     O87776   1.502   3.752   9.145 -0.7556  0.3666  0.3311
  637MOL0     C87777   1.398   3.831   9.101 -0.6536  0.1964 -0.1418
  637MOL0     C87778   1.448   3.955   9.032  0.2361 -1.1421  0.4480
  637MOL0     C87779   1.364   4.073   9.064  0.1874  0.3339  0.2444
  637MOL0     C87780   1.400   4.208   8.996  0.2943  0.0966 -0.6715
  637MOL0     C87781   1.332   4.326   9.052  0.1911 -0.8405 -0.4198
  637MOL0     C87782   1.400   4.452   8.991  0.3345  0.0434 -0.3823
  637MOL0     C87783   1.544   4.460   9.036 -0.4593 -0.0489  0.1080
  637MOL0     C87784   1.587   4.608   9.041 -0.5096  0.1601  0.3621
  637MOL0     N87785   1.572   4.672   8.911 -0.2004  0.3024  0.5761
  637MOL0     C87786   1.636   4.632   8.790  0.3967  0.2002 -0.0590
  637MOL0     C87787   1.556   4.686   8.691  0.7306  0.2002 -0.1273
  637MOL0     C87788   1.567   4.664   8.550  1.6264  0.0250  0.2506
  637MOL0     C87789   1.553   4.514   8.512  0.0968  1.1241 -0.1383
  637MOL0     C87790   1.426   4.443   8.572  0.0611 -0.1690  0.2430
  637MOL0     C87791   1.299   4.509   8.522 -0.2737  0.0722 -0.2437
  637MOL0     O87792   1.291   4.495   8.382 -0.6399 -0.7815 -0.5881
  637MOL0     C87793   1.181   4.554   8.327 -0.4861 -0.2543  0.9482
  637MOL0     C87794   1.052   4.537   8.376 -0.4095  0.7982 -0.0007
  637MOL0     C87795   0.942   4.585   8.307  0.5589 -0.4722 -0.0727
  637MOL0     C87796   0.802   4.554   8.356 -0.2130 -0.3508 -0.3979
  637MOL0     C87797   0.958   4.653   8.184  1.4682  0.5598 -0.1186
  637MOL0     C87798   0.839   4.686   8.095 -0.4008  0.1012  1.3133
  637MOL0     O87799   0.847   4.651   7.962  0.3958  0.2763 -0.0530
  637MOL0     C87800   0.763   4.713   7.871 -0.7215  0.7906 -0.7311
  637MOL0     C87801   0.753   4.850   7.866 -0.0090  0.4529  0.2995
  637MOL0     C87802   0.683   4.914   7.762 -0.2396  0.4480  0.3696
  637MOL0     C87803   0.651   4.833   7.639  1.2850 -1.2605 -0.7293
  637MOL0     O87804   0.591   4.899   7.537 -0.3950  0.8757 -0.6936
  637MOL0     C87805   0.567   4.822   7.413 -0.1897 -0.4933 -0.5619
  637MOL0     C87806   0.554   4.908   7.287 -0.9881 -0.1633  0.1402
  637MOL0     C87807   0.693   4.968   7.250 -0.3513  0.3417  0.5581
  637MOL0     C87808   0.681   5.027   7.117 -0.2700  0.5227  0.6651
  637MOL0     C87809   0.738   4.932   7.004 -0.1882  0.0060  0.0880
  637MOL0     C87810   0.680   4.794   6.989  0.1002  0.3737 -0.4562
  637MOL0     C87811   0.762   4.715   6.875  0.4175  0.0003 -0.6222
  637MOL0     C87812   0.913   4.715   6.881 -1.0773  0.3806 -0.7225
  637MOL0    Cl87813   0.967   4.672   7.037 -0.6645  0.3635 -0.0363
  637MOL0     C87814   0.667   4.696   7.646  0.1384  0.7939  0.7714
  637MOL0     C87815   0.723   4.636   7.762  0.1675  0.6101 -1.2072
  637MOL0     O87816   0.740   4.742   8.141  0.5918 -0.3728  0.3184
  637MOL0     C87817   1.085   4.663   8.126 -0.1683 -0.0379  0.0603
  637MOL0     C87818   1.205   4.624   8.199 -0.8568  0.1427 -0.4678
  637MOL0     N87819   1.455   4.767   8.748 -0.8005 -0.2493 -0.4699
  637MOL0     N87820   1.467   4.752   8.879 -0.2817  0.4847 -0.1670
  637MOL0     C87821   1.438   3.534   9.047 -0.2456  0.0601 -0.2421
  637MOL0     C87822   1.477   3.422   8.970 -0.1229  0.1850  0.2079
  637MOL0     C87823   1.624   3.270   8.554 -0.6034 -0.2758 -0.0776
  637MOL0     C87824   1.639   3.138   8.598 -0.4564 -0.2232  0.8088
  637MOL0     C87825   1.684   3.035   8.516 -0.0708 -0.6045 -0.6264
  637MOL0     C87826   1.712   3.056   8.385 -0.0460  0.1037  0.4754
  637MOL0     O87827   1.764   2.947   8.320 -0.2242  0.8426  0.7908
  637MOL0     C87828   1.825   2.952   8.185  0.5932 -0.5221  0.2084
  637MOL0     C87829   1.910   2.830   8.175 -0.3831  0.8002  0.1389
  637MOL0     C87830   1.811   2.711   8.179 -0.6277 -0.2403 -0.0856
  637MOL0     C87831   1.874   2.574   8.129 -0.4344  0.2059  0.3221
  637MOL0     C87832   1.902   2.487   8.241 -0.2998 -0.4405  0.2468
  637MOL0     C87833   1.921   2.400   8.326  0.4267 -0.4397  0.1600
  637MOL0     C87834   1.722   3.189   8.341 -0.9292 -0.6931 -0.7904
  637MOL0     C87835   1.666   3.298   8.418 -0.0235  0.3600 -0.2224
  637MOL0     C87836   1.667   3.428   8.353 -0.1670  0.1473 -0.3502
  637MOL0     H87837   1.769   3.539   8.850 -0.3397  4.7582 -0.9952
  637MOL0     H87838   1.708   3.731   8.991  0.5680 -1.0990 -0.8848
  637MOL0     H87839   1.337   3.847   9.190 -0.5635 -0.1633 -0.0148
  637MOL0     H87840   1.336   3.777   9.028 -1.3559  0.5261  0.1997
  637MOL0     H87841   1.549   3.983   9.064  0.2934 -3.5379  2.6999
  637MOL0     H87842   1.435   3.939   8.925 -2.3289 -1.2534  0.7088
  637MOL0     H87843   1.268   4.051   9.015  0.9093 -0.0917 -1.0244
  637MOL0     H87844   1.374   4.093   9.171  3.0837 -1.1639  0.3445
  637MOL0     H87845   1.509   4.205   9.007  0.2135  0.6712  0.4507
  637MOL0     H87846   1.384   4.200   8.888  0.6765 -2.9751 -0.5964
  637MOL0     H87847   1.352   4.337   9.159  0.5463  1.2351 -0.6677
  637MOL0     H87848   1.224   4.325   9.035  0.6619 -0.6905 -4.1594
  637MOL0     H87849   1.395   4.460   8.882 -0.4290  0.9086 -0.2989
  637MOL0     H87850   1.353   4.543   9.031 -0.9451  0.6099 -2.9872
  637MOL0     H87851   1.611   4.424   8.958  0.3247  1.4508  0.0441
  637MOL0     H87852   1.569   4.408   9.129  2.8812  1.5962  0.2905
  637MOL0     H87853   1.528   4.656   9.120  0.3574 -1.1404  1.8472
  637MOL0     H87854   1.692   4.617   9.067 -0.3291 -0.6642 -0.0451
  637MOL0     H87855   1.721   4.568   8.768  0.4091  0.8846 -2.2526
  637MOL0     H87856   1.662   4.706   8.516  1.4563  0.6247  0.5092
  637MOL0     H87857   1.489   4.722   8.500 -1.8739 -3.4890  1.0714
  637MOL0     H87858   1.575   4.499   8.406  1.4784 -0.5668  0.3351
  637MOL0     H87859   1.639   4.459   8.553  0.2125  0.9258 -0.6434
  637MOL0     H87860   1.419   4.337   8.549 -1.2274 -0.1929  0.6592
  637MOL0     H87861   1.428   4.454   8.681 -0.1257 -3.1785  0.6372
  637MOL0     H87862   1.224   4.452   8.578  1.2568 -1.0347  0.7536
  637MOL0     H87863   1.300   4.612   8.560  2.0615 -1.0907  3.3168
  637MOL0     H87864   1.033   4.461   8.452  1.4072  1.2397  0.9444
  637MOL0     H87865   0.764   4.649   8.394  2.5869  0.0238  1.8515
  637MOL0     H87866   0.806   4.483   8.440  1.7513 -4.1280 -3.3556
  637MOL0     H87867   0.737   4.501   8.286 -1.1338 -0.9674  0.8810
  637MOL0     H87868   0.792   4.910   7.948  1.2090 -1.2349  0.9900
  637MOL0     H87869   0.677   5.022   7.762  1.3632  0.7130 -3.7284
  637MOL0     H87870   0.642   4.745   7.390  0.7963  0.3378 -0.1938
  637MOL0     H87871   0.470   4.770   7.420  0.2081 -1.1221  0.6529
  637MOL0     H87872   0.517   4.844   7.206 -1.4379  1.0458 -0.6621
  637MOL0     H87873   0.477   4.985   7.303 -0.1888  1.3276 -2.4539
  637MOL0     H87874   0.777   4.897   7.253  0.5203  1.2964 -0.3213
  637MOL0     H87875   0.719   5.051   7.316 -3.0787  1.2740  0.5654
  637MOL0     H87876   0.747   5.114   7.102 -0.2190  0.5777  1.2086
  637MOL0     H87877   0.577   5.056   7.099 -0.9895 -2.2518 -0.0013
  637MOL0     H87878   0.718   4.982   6.909 -2.4606 -0.1731  0.4204
  637MOL0     H87879   0.846   4.931   7.023 -0.2414  0.7957  0.5060
  637MOL0     H87880   0.573   4.801   6.971  0.2404  0.4138 -1.3427
  637MOL0     H87881   0.684   4.733   7.080 -2.5666 -2.0983 -1.8334
  637MOL0     H87882   0.732   4.754   6.777  0.9729  0.8886 -0.4471
  637MOL0     H87883   0.725   4.612   6.873  1.5039 -0.4347  0.5731
  637MOL0     H87884   0.934   4.816   6.845 -1.9933  0.6852 -0.4450
  637MOL0     H87885   0.959   4.640   6.816 -0.3709 -0.0286  0.2243
  637MOL0     H87886   0.639   4.629   7.566 -1.8716 -0.5169  2.4811
  637MOL0     H87887   0.747   4.530   7.769 -0.8084  0.4730  3.5809
  637MOL0     H87888   1.099   4.702   8.026 -1.3363 -2.9317 -1.3667
  637MOL0     H87889   1.305   4.615   8.158  0.3730  1.5901  1.9915
  637MOL0     H87890   1.336   3.535   9.083  0.5559  0.0197  2.2368
  637MOL0     H87891   1.408   3.338   8.962 -0.7883  0.7761 -0.4913
  637MOL0     H87892   1.625   3.111   8.702 -2.4028 -1.2956  0.3204
  637MOL0     H87893   1.680   2.931   8.543  3.6177 -0.7833 -0.2815
  637MOL0     H87894   1.755   2.952   8.101 -0.5626 -1.0788  1.1401
  637MOL0     H87895   1.888   3.039   8.169 -1.5996  0.8921 -1.3856
  637MOL0     H87896   1.988   2.830   8.252 -0.2616  1.0533  0.0164
  637MOL0     H87897   1.959   2.836   8.078 -0.9661  2.1632 -0.1117
  637MOL0     H87898   1.781   2.692   8.283 -1.2329 -2.0698 -0.5565
  637MOL0     H87899   1.722   2.737   8.121 -0.8103  0.0356  0.3128
  637MOL0     H87900   1.965   2.592   8.070 -0.0257 -1.9472  0.2253
  637MOL0     H87901   1.803   2.519   8.067  0.1245 -1.2876  0.9523
  637MOL0     H87902   1.956   2.330   8.399 -2.6457 -1.5770  0.6659
  637MOL0     H87903   1.767   3.220   8.247 -1.1489  2.1330 -0.0570
  637MOL0     H87904   1.738   3.423   8.270  3.6087 -5.0579  2.5979
  637MOL0     H87905   1.569   3.467   8.323  0.3119 -0.5473 -3.0923
  637MOL0     H87906   1.703   3.494   8.433 -1.2596  2.3306 -1.5667
  638MOL0     O87907   1.352   9.039   9.197  0.2647 -0.1393  0.8360
  638MOL0     C87908   1.258   8.994   9.258 -0.0107  0.0157 -0.1332
  638MOL0     O87909   1.217   9.038   9.377 -0.2664 -0.6201  0.1926
  638MOL0     C87910   1.262   9.153   9.442  0.2821 -0.1889  0.1953
  638MOL0     C87911   1.328   9.265   9.382  0.0512  0.0446  0.9111
  638MOL0     C87912   1.383   9.361   9.463  0.5746  0.2464  0.8874
  638MOL0     C87913   1.354   9.363   9.594  0.7177 -0.3334 -0.8622
  638MOL0     O87914   1.397   9.472   9.664 -0.4484  0.1433  0.2957
  638MOL0     C87915   1.314   9.538   9.769 -0.4594 -0.6813 -0.3363
  638MOL0     C87916   1.221   9.643   9.715 -0.2279  0.5271 -0.3182
  638MOL0     C87917   1.126   9.693   9.820  0.6522 -0.6770 -0.0189
  638MOL0     C87918   0.998   9.752   9.766  0.0949  0.3141  0.1558
  638MOL0     C87919   0.898   9.760   9.881 -0.0003  0.3005  0.2965
  638MOL0     C87920   0.899   9.902   9.939 -0.6969  0.1469  0.4243
  638MOL0     C87921   0.792   9.936  10.043  1.4350 -0.2849  0.2254
  638MOL0     C87922   0.796  10.077  10.095 -0.5718  0.2437 -0.6354
  638MOL0     N87923   0.681  10.093  10.188 -0.6785 -0.2790 -0.0572
  638MOL0     C87924   0.551  10.135  10.154 -0.5021 -0.2950 -0.4600
  638MOL0     C87925   0.462  10.112  10.258 -0.1009  0.0142  0.6461
  638MOL0     C87926   0.312  10.125  10.258  0.2670 -0.2287 -0.8481
  638MOL0     C87927   0.231  10.004  10.285 -0.6295  0.0283  0.1655
  638MOL0     C87928   0.251   9.904  10.172 -0.3486  0.3194  0.3997
  638MOL0     C87929   0.164   9.793  10.220 -0.0761  0.5746  0.3041
  638MOL0     O87930   0.174   9.668  10.147  0.4533 -0.0912 -0.1193
  638MOL0     C87931   0.059   9.588  10.153 -0.0632  0.1468 -0.1785
  638MOL0     C87932  -0.058   9.610  10.232  0.2063 -0.0313 -0.1881
  638MOL0     C87933  -0.154   9.510  10.234  0.9164 -1.0543  0.2154
  638MOL0     C87934  -0.274   9.540  10.331  0.8774  0.4825 -0.1056
  638MOL0     C87935  -0.155   9.397  10.147 -0.2157  1.3603 -0.1915
  638MOL0     C87936  -0.266   9.294  10.140  0.3197 -0.2184  0.5228
  638MOL0     O87937  -0.389   9.321  10.195  0.1214 -0.0024  0.8740
  638MOL0     C87938  -0.492   9.239  10.170  0.6036  1.1350  0.3960
  638MOL0     C87939  -0.568   9.240  10.048 -0.6436  0.4202  0.3139
  638MOL0     C87940  -0.671   9.158  10.017  0.5967 -0.3920 -0.5735
  638MOL0     C87941  -0.719   9.071  10.116 -0.9154  0.8550  1.7582
  638MOL0     O87942  -0.827   9.003  10.067 -0.1562  0.6208  0.0301
  638MOL0     C87943  -0.816   8.861  10.060 -0.7951  0.2336  0.6030
  638MOL0     C87944  -0.900   8.806   9.939 -0.3371 -0.6257  0.4763
  638MOL0     C87945  -0.836   8.849   9.812 -0.0455  0.7249  0.1553
  638MOL0     C87946  -0.903   8.785   9.689 -0.3400 -0.2882  0.0972
  638MOL0     C87947  -0.812   8.797   9.557  0.0818 -0.6335 -0.3494
  638MOL0     C87948  -0.833   8.936   9.497  0.6786 -0.3188  0.4260
  638MOL0     C87949  -0.731   8.943   9.383  0.8323  1.1199 -0.6894
  638MOL0     C87950  -0.792   9.007   9.256 -0.9775 -0.3625  0.1242
  638MOL0    Cl87951  -0.945   9.093   9.263  0.2160  0.1895 -0.0935
  638MOL0     C87952  -0.637   9.045  10.228  0.0751 -0.5820  0.4453
  638MOL0     C87953  -0.537   9.141  10.264  0.4691 -0.2345 -0.4699
  638MOL0     O87954  -0.237   9.206  10.058  1.3845 -0.7180  0.1679
  638MOL0     C87955  -0.036   9.376  10.079 -0.5366  0.1721 -0.6159
  638MOL0     C87956   0.061   9.475  10.079  0.1233  0.1112  0.9441
  638MOL0     N87957   0.544  10.058  10.355 -0.0606 -0.1265 -0.2057
  638MOL0     N87958   0.666  10.045  10.313  1.1887 -0.4112  0.2732
  638MOL0     C87959   1.281   9.259   9.654 -0.2469 -0.3269  0.0219
  638MOL0     C87960   1.243   9.149   9.583  0.1578  0.4915 -0.2644
  638MOL0     C87961   1.182   8.868   9.210  1.0498 -1.4734  0.5648
  638MOL0     C87962   1.062   8.824   9.274 -1.3201  0.7739 -0.0511
  638MOL0     C87963   1.007   8.701   9.241 -0.6543  0.5238  0.4888
  638MOL0     C87964   1.068   8.611   9.157 -0.1831  0.3045 -0.0759
  638MOL0     O87965   1.017   8.487   9.126 -0.0948  0.0566  0.7293
  638MOL0     C87966   0.878   8.447   9.150  1.3189 -0.2231 -0.9082
  638MOL0     C87967   0.808   8.342   9.058  0.4696  0.0005  0.1054
  638MOL0     C87968   0.659   8.338   9.077 -0.0444 -0.5766 -0.4431
  638MOL0     C87969   0.593   8.259   8.965  0.0367 -0.4448 -0.8476
  638MOL0     C87970   0.473   8.187   9.008 -0.6749 -0.8154  0.1087
  638MOL0     C87971   0.375   8.145   9.052  0.3280 -0.2573 -0.1966
  638MOL0     C87972   1.185   8.644   9.092 -0.2076 -0.1496  0.2403
  638MOL0     C87973   1.241   8.779   9.111  0.1304 -0.9050 -0.8584
  638MOL0     C87974   1.362   8.804   9.025  0.8034  0.9493  1.2437
  638MOL0     H87975   1.367   9.277   9.281  1.0689 -0.0183  1.2866
  638MOL0     H87976   1.432   9.451   9.428 -0.9648  1.1099  0.8660
  638MOL0     H87977   1.387   9.591   9.831 -1.8010  0.8550 -0.0239
  638MOL0     H87978   1.268   9.469   9.840  0.3424  1.8424  2.8618
  638MOL0     H87979   1.286   9.724   9.681  0.4082  1.0507  2.0031
  638MOL0     H87980   1.165   9.600   9.631 -1.3889 -1.2085  1.2527
  638MOL0     H87981   1.098   9.606   9.880 -0.8324  1.0857  2.0174
  638MOL0     H87982   1.186   9.751   9.890 -1.3849 -1.9691  3.0071
  638MOL0     H87983   1.028   9.850   9.727 -2.1252 -0.1762 -3.1952
  638MOL0     H87984   0.964   9.697   9.678 -0.7466  0.0251  0.6511
  638MOL0     H87985   0.916   9.684   9.957 -0.0880  0.7221  0.7445
  638MOL0     H87986   0.797   9.741   9.843 -0.4204  1.6333  0.6624
  638MOL0     H87987   0.994   9.937   9.982  0.2673  1.4633 -2.5093
  638MOL0     H87988   0.883   9.973   9.857 -0.0699 -0.2427 -0.0375
  638MOL0     H87989   0.801   9.861  10.121  0.6867 -0.8389 -0.2114
  638MOL0     H87990   0.688   9.924  10.012  0.1209  2.3584  3.0365
  638MOL0     H87991   0.893  10.083  10.146 -0.1472 -0.6846 -1.2971
  638MOL0     H87992   0.779  10.154  10.019 -1.7586  0.3854 -0.2412
  638MOL0     H87993   0.522  10.198  10.070 -0.1148 -0.4096 -0.6819
  638MOL0     H87994   0.259  10.171  10.175 -0.9741 -0.5774 -0.2758
  638MOL0     H87995   0.292  10.196  10.339 -0.1176 -2.2204  0.8988
  638MOL0     H87996   0.283   9.965  10.374  0.1909 -0.2350 -0.4149
  638MOL0     H87997   0.130  10.028  10.320 -0.9481 -1.8135  0.6173
  638MOL0     H87998   0.234   9.942  10.071  0.6598  2.9812  1.1406
  638MOL0     H87999   0.351   9.859  10.169 -1.9232 -3.6653 -3.5897
  638MOL0     H88000   0.169   9.776  10.328 -1.3514  1.7035  0.5648
  638MOL0     H88001   0.062   9.826  10.200 -0.9569 -0.3253  2.8683
  638MOL0     H88002  -0.069   9.693  10.300  0.7256 -1.7329  2.0938
  638MOL0     H88003  -0.244   9.596  10.420  1.4460 -1.0038  0.6778
  638MOL0     H88004  -0.322   9.448  10.365 -0.7487  1.4986  0.4565
  638MOL0     H88005  -0.343   9.610  10.283 -0.5495 -1.0394 -0.3303
  638MOL0     H88006  -0.537   9.308   9.968  2.8605 -2.5076 -1.1422
  638MOL0     H88007  -0.734   9.166   9.928 -2.4856  3.3580  1.6512
  638MOL0     H88008  -0.713   8.826  10.046 -0.5206  1.0580  0.4951
  638MOL0     H88009  -0.842   8.817  10.156 -1.3944 -3.8492 -1.2374
  638MOL0     H88010  -0.906   8.697   9.946  2.5380 -0.7573  2.8593
  638MOL0     H88011  -1.003   8.841   9.936 -0.5236 -0.9477 -4.4739
  638MOL0     H88012  -0.736   8.804   9.816 -0.7309 -0.7349  2.6376
  638MOL0     H88013  -0.827   8.958   9.807 -2.0747  0.8833 -1.8680
  638MOL0     H88014  -0.991   8.845   9.664 -0.8510 -0.8170  0.5799
  638MOL0     H88015  -0.930   8.681   9.709  2.8004 -1.2084  0.1093
  638MOL0     H88016  -0.709   8.782   9.592 -0.2826 -1.7451  0.3013
  638MOL0     H88017  -0.856   8.722   9.491 -0.6515 -1.4514  1.0201
  638MOL0     H88018  -0.824   9.011   9.576 -2.8104  0.9184 -0.2138
  638MOL0     H88019  -0.936   8.929   9.461  0.9735 -5.5946 -0.3096
  638MOL0     H88020  -0.690   8.850   9.343  1.6388  1.7932 -1.4689
  638MOL0     H88021  -0.649   8.992   9.436  1.2967 -0.9813  0.6516
  638MOL0     H88022  -0.806   8.930   9.179 -2.1091  1.2864 -1.4097
  638MOL0     H88023  -0.721   9.076   9.210 -1.2688  2.0738  3.1152
  638MOL0     H88024  -0.666   8.966  10.296  0.5633 -1.0951  0.0641
  638MOL0     H88025  -0.509   9.122  10.367 -4.2677 -1.6819  0.7883
  638MOL0     H88026  -0.028   9.286  10.019 -1.2793 -1.8011  2.0712
  638MOL0     H88027   0.147   9.446  10.020 -0.1651 -0.1684  0.6596
  638MOL0     H88028   1.263   9.263   9.761 -0.8541 -1.9248  0.0189
  638MOL0     H88029   1.212   9.065   9.644  0.6161 -0.5301 -1.4123
  638MOL0     H88030   1.012   8.873   9.357 -0.8173 -2.4427  2.3665
  638MOL0     H88031   0.925   8.664   9.302  0.4279  1.2529  2.4779
  638MOL0     H88032   0.858   8.411   9.252 -0.2081  0.2610 -1.0027
  638MOL0     H88033   0.824   8.542   9.142 -1.0026 -1.5457 -1.8905
  638MOL0     H88034   0.851   8.242   9.071  0.0231 -0.2893 -0.5753
  638MOL0     H88035   0.814   8.382   8.956 -2.0241 -1.0964 -0.5493
  638MOL0     H88036   0.641   8.304   9.180  2.0958  0.9209  0.5029
  638MOL0     H88037   0.613   8.437   9.071  1.7235  0.4039  1.1606
  638MOL0     H88038   0.666   8.186   8.930  0.4764  0.0925 -1.0584
  638MOL0     H88039   0.557   8.315   8.878 -0.5311 -1.2934 -1.1655
  638MOL0     H88040   0.278   8.109   9.078  0.7591 -0.5114  1.1459
  638MOL0     H88041   1.224   8.579   9.014 -0.9827  1.1873 -1.3236
  638MOL0     H88042   1.368   8.906   8.985  2.3448  0.0369 -1.0687
  638MOL0     H88043   1.448   8.778   9.088 -0.8020 -1.3274  2.6414
  638MOL0     H88044   1.361   8.736   8.939 -1.6242 -2.4354  3.6678
  639MOL0     O88045  11.241   6.174   2.440 -0.4280  0.2182  0.1246
  639MOL0     C88046  11.245   6.281   2.385  0.1865 -0.2379  0.3950
  639MOL0     O88047  11.213   6.306   2.256 -0.4845  0.4185 -0.0816
  639MOL0     C88048  11.213   6.201   2.163 -0.0041 -0.1275  0.0797
  639MOL0     C88049  11.089   6.155   2.129  0.6887  0.3310  0.1019
  639MOL0     C88050  11.075   6.042   2.056 -0.0090 -0.3810  0.2198
  639MOL0     C88051  11.190   5.971   2.003  0.3371 -0.2735 -0.8844
  639MOL0     O88052  11.167   5.850   1.942  0.9422 -0.4017  1.1655
  639MOL0     C88053  11.264   5.747   1.936  0.1253 -0.2345 -0.4248
  639MOL0     C88054  11.257   5.654   2.057  0.1723 -0.9910  0.3917
  639MOL0     C88055  11.301   5.509   2.032 -0.1780 -1.1937  0.9209
  639MOL0     C88056  11.295   5.436   2.163 -1.0621 -1.2216 -1.0636
  639MOL0     C88057  11.371   5.301   2.171  0.7465  0.0484 -0.9959
  639MOL0     C88058  11.276   5.191   2.112  0.2417 -0.8329  0.3446
  639MOL0     C88059  11.149   5.161   2.187 -0.0593  0.7109  0.5387
  639MOL0     C88060  11.073   5.050   2.124 -0.4160 -0.2422 -0.7809
  639MOL0     N88061  11.129   4.912   2.158 -0.3824 -0.0744  0.3325
  639MOL0     C88062  11.053   4.796   2.149 -0.1687 -0.8329  0.4606
  639MOL0     C88063  11.141   4.705   2.191  0.5480  0.4419 -0.2261
  639MOL0     C88064  11.096   4.570   2.229  0.4199 -0.7712 -0.0309
  639MOL0     C88065  11.092   4.464   2.116  0.8195  0.7697  0.2819
  639MOL0     C88066  11.226   4.406   2.070 -0.3668  0.0777 -0.2927
  639MOL0     C88067  11.282   4.305   2.177  0.6047 -1.0023  0.9696
  639MOL0     O88068  11.185   4.192   2.202  0.0097 -0.3761 -0.2267
  639MOL0     C88069  11.225   4.097   2.279 -0.1882  0.3970  0.6195
  639MOL0     C88070  11.160   3.976   2.265 -1.1968  0.2498 -0.1488
  639MOL0     C88071  11.197   3.858   2.337 -0.3564 -0.4758 -0.5455
  639MOL0     C88072  11.131   3.726   2.313  0.7686 -0.1691  0.3236
  639MOL0     C88073  11.310   3.866   2.430 -0.1713  0.2980 -0.2007
  639MOL0     C88074  11.352   3.764   2.530 -0.5231 -0.0048  0.5761
  639MOL0     O88075  11.251   3.690   2.583  0.6594  0.3218  0.1614
  639MOL0     C88076  11.277   3.567   2.643  0.4825 -0.6213 -0.1610
  639MOL0     C88077  11.285   3.555   2.787  0.7127 -0.2722  0.1466
  639MOL0     C88078  11.317   3.436   2.850  0.3572 -0.4042 -0.2751
  639MOL0     C88079  11.326   3.320   2.768 -0.7177  1.4488  0.2457
  639MOL0     O88080  11.363   3.187   2.813  0.6003 -0.3952  0.9864
  639MOL0     C88081  11.407   3.165   2.943  0.1804 -0.2798 -0.3551
  639MOL0     C88082  11.479   3.029   2.970  0.5920 -1.0457 -0.0400
  639MOL0     C88083  11.500   2.990   3.117 -0.1528  0.9078 -0.4499
  639MOL0     C88084  11.538   3.110   3.204 -0.1377  0.2922  0.6612
  639MOL0     C88085  11.588   3.064   3.337 -1.3667  1.2714  0.3334
  639MOL0     C88086  11.467   3.021   3.421  0.0715  0.0992 -0.1897
  639MOL0     C88087  11.518   3.000   3.563 -0.1939  0.4421  0.1303
  639MOL0     C88088  11.395   3.001   3.659  0.0565 -0.0068 -0.0538
  639MOL0    Cl88089  11.444   2.996   3.829 -0.5757 -0.0189 -0.4634
  639MOL0     C88090  11.315   3.333   2.632  1.5210  0.5105 -0.7234
  639MOL0     C88091  11.280   3.451   2.569 -0.0471 -0.0749  0.1415
  639MOL0     O88092  11.473   3.737   2.551 -0.2756 -0.4763 -0.5535
  639MOL0     C88093  11.382   3.984   2.435 -0.4711  0.1604 -0.2593
  639MOL0     C88094  11.339   4.101   2.364  0.3910  0.0330 -1.2000
  639MOL0     N88095  11.271   4.756   2.207 -0.1188  0.6696  0.5573
  639MOL0     N88096  11.253   4.883   2.200 -0.7062  0.7383 -0.2426
  639MOL0     C88097  11.318   6.017   2.040  0.5571  1.0231 -1.0223
  639MOL0     C88098  11.331   6.136   2.107 -0.3824  0.6117  0.2056
  639MOL0     C88099  11.270   6.391   2.476  0.1530  0.2121  0.5141
  639MOL0     C88100  11.204   6.508   2.444  0.0800  0.2027  0.3968
  639MOL0     C88101  11.210   6.612   2.533 -0.0895  0.0126  0.3327
  639MOL0     C88102  11.281   6.616   2.647 -0.3430 -0.1788 -0.8753
  639MOL0     O88103  11.284   6.736   2.719  0.0389 -0.0600  0.4432
  639MOL0     C88104  11.341   6.741   2.840 -0.3954  0.3465 -0.7829
  639MOL0     C88105  11.321   6.890   2.884  0.0070 -0.1056  0.4482
  639MOL0     C88106  11.182   6.937   2.923 -0.3130 -0.6086  0.7057
  639MOL0     C88107  11.163   7.084   2.947 -0.1790 -0.0306 -0.5858
  639MOL0     C88108  11.045   7.108   3.034 -0.0821  0.5411 -0.4492
  639MOL0     C88109  10.947   7.136   3.104  0.0186 -0.6074  0.8353
  639MOL0     C88110  11.350   6.496   2.682 -0.2161 -0.3658 -1.3815
  639MOL0     C88111  11.339   6.378   2.603  0.7657 -1.0880  0.4819
  639MOL0     C88112  11.425   6.262   2.635  0.6400  0.0077  0.2537
  639MOL0     H88113  11.003   6.211   2.162  0.2601  0.9301 -1.9101
  639MOL0     H88114  10.975   6.028   2.016 -0.2796  0.0110  0.7519
  639MOL0     H88115  11.362   5.796   1.928 -1.3524  2.7292 -2.1473
  639MOL0     H88116  11.254   5.694   1.841 -1.7076 -2.4427  0.8877
  639MOL0     H88117  11.318   5.713   2.126 -2.4775 -0.4425  2.4440
  639MOL0     H88118  11.155   5.661   2.095 -0.3255  2.3298 -1.2734
  639MOL0     H88119  11.233   5.470   1.955  0.3483 -0.6630  0.1713
  639MOL0     H88120  11.402   5.503   1.988 -0.9376  3.2022 -2.0893
  639MOL0     H88121  11.342   5.499   2.240 -4.2747 -0.4678  0.4228
  639MOL0     H88122  11.193   5.434   2.201 -0.9601 -2.0186 -0.8092
  639MOL0     H88123  11.381   5.259   2.271 -3.5095 -1.2064 -0.9130
  639MOL0     H88124  11.462   5.313   2.111 -0.9281  2.5376 -3.3188
  639MOL0     H88125  11.250   5.222   2.011  2.0773  2.4960  0.7498
  639MOL0     H88126  11.327   5.095   2.108  3.0047  0.2681  3.8474
  639MOL0     H88127  11.087   5.251   2.194  0.9104  1.2732  2.7052
  639MOL0     H88128  11.174   5.138   2.291 -3.9604  2.7574  2.1155
  639MOL0     H88129  10.973   5.057   2.166 -1.5181 -1.7229 -2.9791
  639MOL0     H88130  11.060   5.063   2.016  0.5245  1.7907 -0.6852
  639MOL0     H88131  10.945   4.784   2.138 -0.4444  1.2235  0.5774
  639MOL0     H88132  11.008   4.579   2.293  1.2204  1.8023  0.8294
  639MOL0     H88133  11.174   4.541   2.300  0.3528  1.0028  0.8209
  639MOL0     H88134  11.039   4.376   2.152  3.9000 -1.3574 -0.0149
  639MOL0     H88135  11.035   4.502   2.031  0.6497 -3.4710 -1.7578
  639MOL0     H88136  11.219   4.360   1.971 -1.5987 -1.4339  0.4494
  639MOL0     H88137  11.292   4.492   2.056 -0.2394  0.4198  1.9733
  639MOL0     H88138  11.379   4.271   2.139  1.0563  0.3486  0.8871
  639MOL0     H88139  11.299   4.354   2.273  1.8151 -0.1003  0.3202
  639MOL0     H88140  11.085   3.975   2.186  1.0147  1.8247 -2.4450
  639MOL0     H88141  11.083   3.697   2.407 -2.0471 -1.8251 -1.4590
  639MOL0     H88142  11.202   3.645   2.293  2.1798  1.1923 -0.3461
  639MOL0     H88143  11.053   3.741   2.237  0.2044 -0.6717  0.7916
  639MOL0     H88144  11.254   3.636   2.852 -2.9666 -0.1060 -1.5711
  639MOL0     H88145  11.334   3.440   2.957 -1.2048  0.5701 -0.0331
  639MOL0     H88146  11.457   3.253   2.985 -2.2801  1.8585 -1.6255
  639MOL0     H88147  11.314   3.169   3.002 -1.0670 -0.9192 -2.1948
  639MOL0     H88148  11.421   2.949   2.924  2.0701 -1.7544 -0.7277
  639MOL0     H88149  11.577   3.029   2.923  1.1590 -1.8385  1.0902
  639MOL0     H88150  11.575   2.910   3.123 -0.5248  0.4770 -1.4486
  639MOL0     H88151  11.404   2.948   3.148  1.2203 -2.1649  0.0086
  639MOL0     H88152  11.452   3.178   3.206 -1.0274 -0.7211 -0.9125
  639MOL0     H88153  11.622   3.167   3.163  1.0309  1.7659  4.6417
  639MOL0     H88154  11.655   2.979   3.325 -1.0379  1.5559  0.1273
  639MOL0     H88155  11.635   3.155   3.376  3.7879 -0.0141 -2.1611
  639MOL0     H88156  11.410   2.932   3.395  0.4613 -1.7682  4.3331
  639MOL0     H88157  11.401   3.108   3.427 -4.1719 -2.8496 -0.3341
  639MOL0     H88158  11.582   3.083   3.592  0.1747 -0.5506  2.3426
  639MOL0     H88159  11.583   2.912   3.568  0.3428  0.9049  2.6531
  639MOL0     H88160  11.350   2.903   3.640 -2.0522  0.5754  1.5787
  639MOL0     H88161  11.333   3.090   3.644 -0.6307 -0.6664 -1.3351
  639MOL0     H88162  11.306   3.239   2.578 -2.1443  1.1571 -1.5094
  639MOL0     H88163  11.252   3.447   2.464 -0.8466 -2.4886  0.3961
  639MOL0     H88164  11.471   3.988   2.497  0.6781 -5.4126 -1.0278
  639MOL0     H88165  11.396   4.188   2.398 -3.0996  1.8707  0.4855
  639MOL0     H88166  11.416   5.969   2.039  2.6178  4.5247  2.5856
  639MOL0     H88167  11.425   6.183   2.136 -1.3821  2.2927  0.8559
  639MOL0     H88168  11.161   6.520   2.345 -0.5336 -0.7763  0.5338
  639MOL0     H88169  11.157   6.704   2.512 -3.0921 -2.1538 -2.5073
  639MOL0     H88170  11.285   6.677   2.909  0.2053 -0.8697 -1.3867
  639MOL0     H88171  11.446   6.710   2.834 -0.1036  1.3818 -1.1519
  639MOL0     H88172  11.355   6.953   2.802 -2.6055 -1.5125 -1.8867
  639MOL0     H88173  11.388   6.907   2.969  5.0242  1.9980 -3.3903
  639MOL0     H88174  11.107   6.900   2.853  0.8812 -0.0814 -0.9091
  639MOL0     H88175  11.165   6.878   3.013 -1.0109 -0.2922  0.7872
  639MOL0     H88176  11.143   7.148   2.860 -1.5892  0.1816 -0.1478
  639MOL0     H88177  11.255   7.118   2.995  0.4974 -2.9732  0.3806
  639MOL0     H88178  10.867   7.170   3.166  0.1585  0.0229  0.6771
  639MOL0     H88179  11.409   6.495   2.773 -2.8831 -0.0322  0.4402
  639MOL0     H88180  11.475   6.275   2.731 -1.5404 -2.2488  1.8015
  639MOL0     H88181  11.371   6.167   2.636  0.1862  0.0492 -3.5659
  639MOL0     H88182  11.506   6.250   2.562  2.4243  0.1259  2.1430
  640MOL0     O88183   2.015   0.482   2.722 -0.4813 -0.1796  0.5874
  640MOL0     C88184   2.139   0.448   2.704  0.3600 -0.6172 -0.7161
  640MOL0     O88185   2.226   0.514   2.622 -0.0796 -0.3416  0.2323
  640MOL0     C88186   2.155   0.567   2.511 -1.3789 -0.2365 -0.5832
  640MOL0     C88187   2.095   0.497   2.405  0.1538 -0.0679  0.4163
  640MOL0     C88188   2.018   0.562   2.313 -0.7236 -1.0062 -0.0172
  640MOL0     C88189   1.999   0.705   2.313 -0.3314  0.3179 -0.9232
  640MOL0     O88190   1.914   0.754   2.216  0.3224 -0.7118  0.1382
  640MOL0     C88191   1.916   0.896   2.193 -0.5254  1.6892 -0.9255
  640MOL0     C88192   1.930   0.933   2.045  0.6170 -0.5447  0.2004
  640MOL0     C88193   1.839   0.856   1.946 -0.7329 -0.2763  0.3914
  640MOL0     C88194   1.858   0.902   1.791 -0.5653  0.6180 -0.1587
  640MOL0     C88195   1.994   0.844   1.734  0.4695 -0.2048  0.4052
  640MOL0     C88196   2.036   0.914   1.599  0.6912  0.8202  0.0964
  640MOL0     C88197   2.176   0.863   1.557 -0.8824  0.1680 -0.5520
  640MOL0     C88198   2.230   0.950   1.451 -0.5808  1.0569 -0.4129
  640MOL0     N88199   2.361   0.895   1.417 -0.1606  0.2648  0.1246
  640MOL0     C88200   2.390   0.774   1.351  0.7222 -0.1244 -0.9349
  640MOL0     C88201   2.522   0.783   1.307  0.8001 -0.7508  0.6492
  640MOL0     C88202   2.599   0.680   1.241 -0.6171  0.6212  0.3459
  640MOL0     C88203   2.735   0.739   1.199 -0.9796  0.7395  0.4670
  640MOL0     C88204   2.730   0.846   1.080 -0.5287  1.4303 -0.5344
  640MOL0     C88205   2.860   0.926   1.086 -1.0582  0.0644  0.4706
  640MOL0     O88206   2.966   0.828   1.080  1.3381 -0.1077 -0.6378
  640MOL0     C88207   3.029   0.804   0.955  0.8395 -0.2418  0.4866
  640MOL0     C88208   3.127   0.711   0.956  0.1375 -0.4245  0.4579
  640MOL0     C88209   3.194   0.678   0.835  0.2800  0.2204 -0.5233
  640MOL0     C88210   3.301   0.575   0.857  0.4280  0.0397  0.0049
  640MOL0     C88211   3.154   0.734   0.712  0.3151  0.2229 -0.0160
  640MOL0     C88212   3.216   0.695   0.585  0.1183 -0.6365 -0.2191
  640MOL0     O88213   3.352   0.732   0.575  0.4356 -0.0589 -0.1796
  640MOL0     C88214   3.409   0.728   0.450 -0.1195  0.7566 -0.1959
  640MOL0     C88215   3.472   0.848   0.410  0.1503  1.1739 -0.3462
  640MOL0     C88216   3.575   0.840   0.317  0.3081 -1.0562 -0.3781
  640MOL0     C88217   3.603   0.718   0.258 -0.2264 -0.5853 -0.2673
  640MOL0     O88218   3.691   0.694   0.160  0.2089 -0.2083 -0.0471
  640MOL0     C88219   3.761   0.795   0.105 -0.0090 -0.1817 -0.3663
  640MOL0     C88220   3.863   0.724   0.022 -0.3129  0.4343 -0.3202
  640MOL0     C88221   3.946   0.810  -0.076  0.1989  0.4626  1.4091
  640MOL0     C88222   4.007   0.934  -0.003  0.8465  0.6948  0.2141
  640MOL0     C88223   4.107   1.003  -0.098  0.2469  0.7021 -0.3292
  640MOL0     C88224   4.200   1.093  -0.026  0.6611  0.1317 -0.2451
  640MOL0     C88225   4.145   1.206   0.067  0.0784 -0.1156 -0.0464
  640MOL0     C88226   4.035   1.277  -0.001 -0.4681  0.3259 -0.8134
  640MOL0    Cl88227   3.963   1.395   0.112  0.4459  0.6841  0.5984
  640MOL0     C88228   3.528   0.602   0.291 -0.5182 -0.5257 -0.8085
  640MOL0     C88229   3.439   0.608   0.393 -0.0837  0.9172 -0.6683
  640MOL0     O88230   3.149   0.632   0.501 -0.1288  0.0122  0.5185
  640MOL0     C88231   3.058   0.828   0.715  0.0418 -0.3786  0.5044
  640MOL0     C88232   2.981   0.860   0.828  0.6322 -0.2933  0.3907
  640MOL0     N88233   2.556   0.917   1.340 -0.3113 -0.3865  0.6164
  640MOL0     N88234   2.471   0.976   1.419 -0.3240 -0.1574  0.0660
  640MOL0     C88235   2.054   0.771   2.421 -1.0614 -0.4069  0.1831
  640MOL0     C88236   2.136   0.702   2.516  0.2565  0.5457  0.3163
  640MOL0     C88237   2.195   0.360   2.804  0.1303 -0.9285 -0.4518
  640MOL0     C88238   2.338   0.360   2.817  0.5348 -1.1079  1.1807
  640MOL0     C88239   2.398   0.265   2.895 -0.3631 -0.6872 -0.9036
  640MOL0     C88240   2.320   0.180   2.968 -0.0343  0.4775 -1.3743
  640MOL0     O88241   2.379   0.079   3.049  0.2774 -0.0494  0.9133
  640MOL0     C88242   2.430   0.128   3.176  0.7449  0.1412  0.1221
  640MOL0     C88243   2.549   0.067   3.234 -0.1788 -0.0411 -0.1520
  640MOL0     C88244   2.658   0.039   3.126  0.7187 -0.3007  0.1858
  640MOL0     C88245   2.641  -0.082   3.034 -0.9348  0.4831  0.3451
  640MOL0     C88246   2.686  -0.061   2.895  0.0049 -0.0572 -0.2115
  640MOL0     C88247   2.708  -0.042   2.775 -1.1640  0.3291 -0.4092
  640MOL0     C88248   2.184   0.182   2.977  0.2420 -0.1072  0.2904
  640MOL0     C88249   2.122   0.271   2.890  0.1401 -0.0392 -0.6839
  640MOL0     C88250   1.969   0.263   2.899  0.6640 -0.1120  0.3186
  640MOL0     H88251   2.114   0.391   2.400 -0.5615 -0.2303  1.0120
  640MOL0     H88252   1.962   0.507   2.239  0.1573  0.5588 -1.9285
  640MOL0     H88253   1.991   0.956   2.246  0.1208  0.1760 -0.0424
  640MOL0     H88254   1.814   0.919   2.227 -0.5052  2.1814 -1.1870
  640MOL0     H88255   1.905   1.039   2.036  2.4948  0.0805  1.7561
  640MOL0     H88256   2.036   0.924   2.021  0.9959  1.5230  0.8794
  640MOL0     H88257   1.861   0.749   1.947 -2.4642 -0.7027  2.9924
  640MOL0     H88258   1.733   0.880   1.960 -0.5812  1.4615 -0.9894
  640MOL0     H88259   1.779   0.848   1.738 -3.3857  3.8857  0.4128
  640MOL0     H88260   1.850   1.009   1.771  0.5812  0.5536 -1.0846
  640MOL0     H88261   1.995   0.735   1.728  0.5118 -0.2282  0.7700
  640MOL0     H88262   2.075   0.873   1.802  2.4315 -2.5739 -0.7326
  640MOL0     H88263   1.971   0.878   1.519  1.6903  0.1103 -0.4232
  640MOL0     H88264   2.032   1.023   1.607 -1.2119  0.9073 -1.3379
  640MOL0     H88265   2.173   0.760   1.522 -1.8938 -0.6430  1.6898
  640MOL0     H88266   2.250   0.853   1.637  0.1198 -2.2147 -1.7006
  640MOL0     H88267   2.153   0.962   1.374  3.1026  4.0243 -4.1681
  640MOL0     H88268   2.235   1.052   1.492 -2.4259  0.1597  2.3646
  640MOL0     H88269   2.312   0.699   1.352 -1.8935  2.3595  2.0969
  640MOL0     H88270   2.547   0.652   1.149  0.3868 -0.9370  0.2045
  640MOL0     H88271   2.610   0.591   1.304  1.2451 -1.1131 -2.2268
  640MOL0     H88272   2.784   0.781   1.288  0.3293 -2.2758  1.2850
  640MOL0     H88273   2.787   0.650   1.162 -3.4226 -0.0884 -1.2081
  640MOL0     H88274   2.723   0.803   0.980  4.4965 -2.6165  0.4256
  640MOL0     H88275   2.651   0.919   1.102 -2.1172 -1.2544  4.0629
  640MOL0     H88276   2.872   0.997   1.004  1.4066 -0.4197  0.3309
  640MOL0     H88277   2.858   0.973   1.185  1.3837  0.4487  0.3815
  640MOL0     H88278   3.145   0.677   1.057 -0.9210  0.6829  1.0443
  640MOL0     H88279   3.386   0.619   0.911 -0.7159  3.2831 -0.5676
  640MOL0     H88280   3.328   0.517   0.769  0.6423  0.5232 -0.2543
  640MOL0     H88281   3.258   0.500   0.924 -0.6972 -1.3117 -2.1338
  640MOL0     H88282   3.442   0.944   0.450  2.0352  2.6830 -2.3443
  640MOL0     H88283   3.615   0.931   0.275 -1.2718  0.0549  0.4534
  640MOL0     H88284   3.687   0.846   0.042  0.1372 -0.3060 -0.6386
  640MOL0     H88285   3.796   0.863   0.184 -2.4036  0.8852 -0.1171
  640MOL0     H88286   3.927   0.672   0.094 -0.7797  2.1480  1.3951
  640MOL0     H88287   3.806   0.644  -0.027  0.5292  1.6027 -3.4849
  640MOL0     H88288   3.874   0.862  -0.140 -0.7933 -2.1547  0.2289
  640MOL0     H88289   4.004   0.743  -0.140 -2.3459 -0.1207 -0.4419
  640MOL0     H88290   4.053   0.888   0.085 -0.7007  2.7315  2.2378
  640MOL0     H88291   3.935   1.004   0.041  0.5467 -0.1372  1.0995
  640MOL0     H88292   4.165   0.926  -0.150  0.3928  0.8904 -0.4440
  640MOL0     H88293   4.055   1.065  -0.172  1.2573 -0.7743 -2.3922
  640MOL0     H88294   4.274   1.134  -0.096  1.8770 -0.3635  0.7213
  640MOL0     H88295   4.274   1.037   0.031  0.9004  0.0388 -0.6416
  640MOL0     H88296   4.222   1.283   0.082  0.2836 -0.7267  2.6489
  640MOL0     H88297   4.118   1.170   0.167 -0.7550 -0.4596 -0.3847
  640MOL0     H88298   3.956   1.212  -0.037  1.0597 -1.3486 -1.2873
  640MOL0     H88299   4.083   1.329  -0.085  0.4005  0.5083 -0.2212
  640MOL0     H88300   3.561   0.514   0.237  0.0784 -0.0374 -1.2574
  640MOL0     H88301   3.391   0.514   0.418  0.9829 -0.0126 -1.9535
  640MOL0     H88302   3.008   0.856   0.623  3.3397  0.8902 -1.0635
  640MOL0     H88303   2.881   0.903   0.827  0.8305  0.1703 -0.6114
  640MOL0     H88304   2.035   0.878   2.430 -0.6991 -0.4128  1.1272
  640MOL0     H88305   2.183   0.760   2.595  4.0268 -1.9642  0.1715
  640MOL0     H88306   2.389   0.437   2.760 -2.5034 -1.8483 -3.0181
  640MOL0     H88307   2.504   0.249   2.881 -0.5183  0.0684 -3.4360
  640MOL0     H88308   2.443   0.236   3.167  0.8440  0.0416 -1.2053
  640MOL0     H88309   2.348   0.103   3.245 -1.5197 -4.1374 -3.5439
  640MOL0     H88310   2.520  -0.028   3.280  1.9949 -1.0508 -0.7282
  640MOL0     H88311   2.591   0.123   3.318 -3.7325 -2.5774  3.7233
  640MOL0     H88312   2.656   0.134   3.070  0.9632  1.7516  3.4183
  640MOL0     H88313   2.750   0.030   3.184 -0.5129 -0.1947  2.2689
  640MOL0     H88314   2.541  -0.125   3.040 -0.8594  0.4713  2.4208
  640MOL0     H88315   2.699  -0.162   3.081 -1.7193 -2.3729 -3.1120
  640MOL0     H88316   2.740  -0.050   2.673  1.1894  2.6286  0.0351
  640MOL0     H88317   2.124   0.119   3.042  0.8662 -1.3799 -0.3150
  640MOL0     H88318   1.921   0.214   2.984  0.9975  0.0601  0.6086
  640MOL0     H88319   1.938   0.367   2.913 -0.9163 -0.3281 -1.2938
  640MOL0     H88320   1.927   0.218   2.809  2.1125 -1.3989  0.2473
  641MOL0     O88321   2.138   4.999   2.636  1.0090 -0.3341 -0.8961
  641MOL0     C88322   2.172   4.889   2.586  0.6562  0.2988  0.0937
  641MOL0     O88323   2.256   4.799   2.645  0.2893  0.0543 -0.0491
  641MOL0     C88324   2.293   4.801   2.779 -0.9808  1.2903  0.4978
  641MOL0     C88325   2.270   4.903   2.879  0.1071  0.0276 -0.2909
  641MOL0     C88326   2.311   4.880   3.011  0.4646  0.3447 -0.0081
  641MOL0     C88327   2.383   4.759   3.046 -0.3163 -1.1165 -0.8892
  641MOL0     O88328   2.413   4.733   3.178  0.3211  0.5064  0.6274
  641MOL0     C88329   2.359   4.812   3.277 -0.2883 -0.2302 -0.4185
  641MOL0     C88330   2.388   4.767   3.417 -0.6039 -0.7964 -0.0225
  641MOL0     C88331   2.291   4.657   3.468 -0.4892 -0.1201  0.2321
  641MOL0     C88332   2.312   4.642   3.623 -0.5386 -0.1794 -0.1101
  641MOL0     C88333   2.243   4.514   3.676  0.0303  0.0507 -0.3520
  641MOL0     C88334   2.259   4.510   3.827 -0.2654 -0.2247  0.6174
  641MOL0     C88335   2.148   4.419   3.885  0.1705 -0.1309 -0.3450
  641MOL0     C88336   2.158   4.402   4.036  0.1240  0.6488 -0.5797
  641MOL0     N88337   2.267   4.312   4.075 -0.7143  0.0163 -0.3142
  641MOL0     C88338   2.245   4.180   4.068 -0.0587 -0.6184  0.3032
  641MOL0     C88339   2.349   4.126   4.140  0.6172  0.6484 -0.0379
  641MOL0     C88340   2.371   3.983   4.166  0.3389 -0.2039  0.4493
  641MOL0     C88341   2.348   3.971   4.310  0.1011  0.0899  0.0576
  641MOL0     C88342   2.351   3.821   4.348  0.4988 -0.0627  0.3178
  641MOL0     C88343   2.373   3.793   4.500  0.0584  0.2339  0.1710
  641MOL0     O88344   2.261   3.823   4.573 -0.3579  0.4414 -0.0775
  641MOL0     C88345   2.251   3.799   4.712  0.1544 -0.3166  0.5082
  641MOL0     C88346   2.126   3.824   4.767  0.0010  0.6021  0.2321
  641MOL0     C88347   2.095   3.789   4.898 -0.0698  0.1157  0.2707
  641MOL0     C88348   1.953   3.836   4.941  0.8313 -0.5734 -0.0251
  641MOL0     C88349   2.189   3.724   4.977 -0.2894  0.1277 -0.0266
  641MOL0     C88350   2.156   3.671   5.118 -0.4527 -0.0413  0.0860
  641MOL0     O88351   2.241   3.566   5.167  0.3374 -0.5077  0.2289
  641MOL0     C88352   2.213   3.524   5.298  0.0088 -0.1002  0.6660
  641MOL0     C88353   2.247   3.610   5.403  0.4543 -0.6325 -0.1571
  641MOL0     C88354   2.222   3.571   5.535 -0.1505  0.0130  0.0683
  641MOL0     C88355   2.173   3.439   5.566  0.1869 -0.0932  0.7707
  641MOL0     O88356   2.157   3.426   5.699  0.6596  0.5778  0.3432
  641MOL0     C88357   2.120   3.295   5.748  0.4294  0.4738 -0.0092
  641MOL0     C88358   2.234   3.186   5.736  0.3528  0.0661  0.0793
  641MOL0     C88359   2.285   3.146   5.874 -0.3727 -0.3146 -0.2535
  641MOL0     C88360   2.373   3.024   5.855 -0.6876 -0.7340 -0.2349
  641MOL0     C88361   2.421   2.979   5.991  1.1400 -0.0572  0.3013
  641MOL0     C88362   2.487   2.836   5.992  0.1130 -0.8765 -0.2634
  641MOL0     C88363   2.523   2.786   6.137  0.2406  0.1956 -1.1808
  641MOL0     C88364   2.664   2.739   6.150  0.4334 -0.4161 -0.2749
  641MOL0    Cl88365   2.770   2.874   6.115  0.0046  0.0359 -0.3578
  641MOL0     C88366   2.146   3.352   5.460 -0.2961 -0.7358 -0.2845
  641MOL0     C88367   2.178   3.391   5.330  0.5416  0.2021  1.0400
  641MOL0     O88368   2.057   3.721   5.179 -0.1579 -0.1189  0.4250
  641MOL0     C88369   2.313   3.684   4.916  0.4083 -0.3480 -0.4929
  641MOL0     C88370   2.339   3.726   4.787 -0.5579  0.0600  0.3073
  641MOL0     N88371   2.430   4.231   4.180 -0.1736  0.5315 -0.1679
  641MOL0     N88372   2.374   4.346   4.147 -0.2107  0.1846  0.1813
  641MOL0     C88373   2.404   4.658   2.947  0.6427  0.3042 -0.1382
  641MOL0     C88374   2.358   4.680   2.813 -0.8402  0.4017 -0.7107
  641MOL0     C88375   2.114   4.862   2.449 -0.1824  0.3192 -0.2896
  641MOL0     C88376   2.118   4.725   2.420  0.1053 -0.4916  0.1452
  641MOL0     C88377   2.061   4.677   2.300  0.8224 -0.4647  0.6721
  641MOL0     C88378   1.994   4.761   2.206 -0.9742 -0.5342  0.0144
  641MOL0     O88379   1.925   4.712   2.103  0.6882 -0.0350  0.7165
  641MOL0     C88380   1.904   4.571   2.071 -0.1457 -0.3582  0.1103
  641MOL0     C88381   1.798   4.576   1.965  0.1020 -0.8889 -0.6478
  641MOL0     C88382   1.842   4.641   1.833  0.0478 -0.1900  0.4304
  641MOL0     C88383   1.759   4.605   1.712 -0.0319  0.5010 -0.8134
  641MOL0     C88384   1.615   4.570   1.748  0.4851  0.5948 -0.4197
  641MOL0     C88385   1.503   4.550   1.779  0.3349  0.6079 -0.3651
  641MOL0     C88386   2.002   4.895   2.234 -0.1130 -0.2948  0.1727
  641MOL0     C88387   2.059   4.946   2.356 -0.1351 -0.8880 -0.6363
  641MOL0     C88388   2.052   5.099   2.367 -0.7182 -1.1446 -0.2394
  641MOL0     H88389   2.219   4.998   2.867  1.6257  1.1693  1.7231
  641MOL0     H88390   2.298   4.970   3.070  0.3373  2.2135 -2.6852
  641MOL0     H88391   2.255   4.831   3.251 -0.1954 -0.5458 -1.0424
  641MOL0     H88392   2.417   4.905   3.272 -0.5446 -0.1014 -1.1381
  641MOL0     H88393   2.493   4.737   3.418 -0.1157  0.8234  0.1833
  641MOL0     H88394   2.380   4.848   3.491 -0.7316 -0.0564 -0.8349
  641MOL0     H88395   2.187   4.686   3.450 -0.5239 -0.6187 -0.4375
  641MOL0     H88396   2.326   4.559   3.434  1.4436  0.1806  1.2094
  641MOL0     H88397   2.420   4.636   3.640 -0.8686  0.1708  2.5254
  641MOL0     H88398   2.271   4.733   3.667  0.1793 -1.6766  4.0471
  641MOL0     H88399   2.289   4.424   3.633  1.8935  0.7137  0.1497
  641MOL0     H88400   2.136   4.516   3.652 -0.5010 -0.2011  1.7966
  641MOL0     H88401   2.360   4.481   3.856  0.8802  2.1792 -0.7428
  641MOL0     H88402   2.247   4.614   3.857  2.1136 -0.2523  1.9272
  641MOL0     H88403   2.136   4.325   3.831  1.0744 -1.7827  2.1119
  641MOL0     H88404   2.057   4.477   3.870  1.0721  1.5948  0.5729
  641MOL0     H88405   2.172   4.499   4.084  2.4385  0.3905 -0.6057
  641MOL0     H88406   2.060   4.366   4.068  1.0353  1.1569  3.2569
  641MOL0     H88407   2.162   4.120   4.033  0.7850 -0.4605 -2.1732
  641MOL0     H88408   2.471   3.947   4.140  1.4464  0.0397  3.8166
  641MOL0     H88409   2.290   3.928   4.118  0.4159 -0.0906  0.1923
  641MOL0     H88410   2.425   4.030   4.360  1.0361  2.1138 -3.4256
  641MOL0     H88411   2.256   4.015   4.352 -0.8629  0.4885 -2.3032
  641MOL0     H88412   2.262   3.770   4.310 -1.0933  3.4641 -1.0422
  641MOL0     H88413   2.441   3.777   4.302 -0.7642 -0.7883 -1.5873
  641MOL0     H88414   2.407   3.689   4.508 -0.0729 -0.2029 -3.3193
  641MOL0     H88415   2.457   3.860   4.522  0.5752 -1.0174  2.3232
  641MOL0     H88416   2.044   3.861   4.706  1.4194 -0.9941 -2.8541
  641MOL0     H88417   1.952   3.921   5.009 -1.3513 -0.2988 -0.3305
  641MOL0     H88418   1.908   3.750   4.990 -3.1402  0.9352 -0.6968
  641MOL0     H88419   1.898   3.861   4.850  3.5053  1.2337 -1.3066
  641MOL0     H88420   2.303   3.699   5.376  4.3170 -2.6455  0.4932
  641MOL0     H88421   2.253   3.637   5.615  2.0606  0.0635 -0.7477
  641MOL0     H88422   2.100   3.308   5.855  0.3958 -0.2307  0.0717
  641MOL0     H88423   2.027   3.262   5.700 -0.0303  3.4956 -1.4378
  641MOL0     H88424   2.175   3.107   5.690 -1.1507  3.1969 -3.9911
  641MOL0     H88425   2.314   3.210   5.666 -0.2383  1.6690 -0.1082
  641MOL0     H88426   2.199   3.118   5.936  0.1982 -4.6961 -1.0679
  641MOL0     H88427   2.351   3.219   5.922  1.0735 -1.7674  0.0542
  641MOL0     H88428   2.456   3.043   5.786 -0.7391  0.0836 -0.0715
  641MOL0     H88429   2.306   2.949   5.811 -1.0035 -1.0857  0.8172
  641MOL0     H88430   2.498   3.043   6.036  1.8202  1.9319 -3.3230
  641MOL0     H88431   2.329   2.976   6.052 -0.3435  1.4925 -1.7291
  641MOL0     H88432   2.580   2.830   5.935  0.9151  0.6046  0.8062
  641MOL0     H88433   2.421   2.761   5.947 -0.3173  1.0131 -3.0242
  641MOL0     H88434   2.447   2.718   6.176  1.9846 -1.2980 -0.1780
  641MOL0     H88435   2.527   2.870   6.208 -0.3768 -0.4733 -0.3297
  641MOL0     H88436   2.687   2.658   6.081  0.7576  0.3394 -1.0837
  641MOL0     H88437   2.687   2.703   6.250  2.7076  0.2178 -0.5103
  641MOL0     H88438   2.107   3.253   5.482  0.2893 -2.3166 -5.2746
  641MOL0     H88439   2.154   3.317   5.254 -0.1413 -1.1889  2.5312
  641MOL0     H88440   2.380   3.638   4.987 -2.3028 -1.6766  1.3657
  641MOL0     H88441   2.431   3.711   4.731 -0.3473  2.2152  0.0058
  641MOL0     H88442   2.436   4.568   2.999  0.8474  1.7946  2.4960
  641MOL0     H88443   2.371   4.602   2.739 -2.1794 -1.5270  0.9917
  641MOL0     H88444   2.155   4.650   2.489 -3.9535 -1.4520  1.5721
  641MOL0     H88445   2.048   4.570   2.295 -0.5844 -0.3116  0.5630
  641MOL0     H88446   1.997   4.526   2.035  1.3722  0.0474  3.1694
  641MOL0     H88447   1.870   4.509   2.154 -1.4370  3.3188  2.5572
  641MOL0     H88448   1.715   4.630   2.013  1.6117  1.1412 -0.1805
  641MOL0     H88449   1.769   4.472   1.946  2.8118 -2.2436  1.8871
  641MOL0     H88450   1.842   4.750   1.843 -1.6044 -0.1603  0.3765
  641MOL0     H88451   1.944   4.603   1.824  1.1596  2.1818  2.0311
  641MOL0     H88452   1.795   4.517   1.658  1.8907  1.1859 -0.7127
  641MOL0     H88453   1.773   4.686   1.640  1.2888  1.0081 -0.0356
  641MOL0     H88454   1.400   4.532   1.801 -0.2427 -0.6664 -3.4848
  641MOL0     H88455   1.960   4.971   2.169  2.6532  2.1744  1.0307
  641MOL0     H88456   2.048   5.132   2.471  0.4694 -0.9651 -0.2462
  641MOL0     H88457   2.140   5.139   2.316 -1.8116  2.8475  0.6860
  641MOL0     H88458   1.969   5.150   2.317  0.1159  0.9550  0.4407
  642MOL0     O88459   3.044  10.878   7.493 -0.7862  0.4368  0.2732
  642MOL0     C88460   3.091  10.865   7.379  1.1183 -0.2226 -0.4919
  642MOL0     O88461   3.153  10.966   7.309  0.7147  0.4143  0.2107
  642MOL0     C88462   3.214  11.078   7.368 -1.6192  0.4851  0.2547
  642MOL0     C88463   3.153  11.198   7.366  0.0098  0.2779  0.4852
  642MOL0     C88464   3.228  11.311   7.404  0.0724 -0.4938  0.2360
  642MOL0     C88465   3.360  11.303   7.447 -0.0209 -1.0474 -0.1414
  642MOL0     O88466   3.418  11.420   7.497  0.1859 -0.3263 -0.4915
  642MOL0     C88467   3.504  11.411   7.614 -0.1928  0.9189  0.4189
  642MOL0     C88468   3.532  11.545   7.677  0.0522  0.8818  0.0246
  642MOL0     C88469   3.588  11.654   7.579  0.3476 -0.0955 -0.6138
  642MOL0     C88470   3.709  11.600   7.503  0.2326 -0.2139  0.0251
  642MOL0     C88471   3.797  11.712   7.434  0.6196 -0.1981 -0.0627
  642MOL0     C88472   3.727  11.792   7.317  0.4317 -0.8954  0.1680
  642MOL0     C88473   3.788  11.930   7.280 -0.2257  0.4614  0.3474
  642MOL0     C88474   3.911  11.902   7.199  0.0599  0.1247  0.1958
  642MOL0     N88475   3.957  12.023   7.141 -0.0064  0.2257 -0.3951
  642MOL0     C88476   4.042  12.108   7.210  0.0925  0.3069 -0.3044
  642MOL0     C88477   4.047  12.214   7.120 -1.1024  0.6188  0.0499
  642MOL0     C88478   4.141  12.333   7.144 -0.0118 -0.9210 -0.2377
  642MOL0     C88479   4.160  12.407   7.012  1.0046 -0.9994 -0.2047
  642MOL0     C88480   4.246  12.531   7.028  0.1937  0.0139  0.0515
  642MOL0     C88481   4.228  12.640   6.907 -0.3619 -0.1873  1.3352
  642MOL0     O88482   4.241  12.581   6.780 -0.8797 -0.5615 -0.1698
  642MOL0     C88483   4.170  12.644   6.680 -0.5847  0.1642  0.5741
  642MOL0     C88484   4.030  12.635   6.682  0.1263 -0.8024 -0.0705
  642MOL0     C88485   3.950  12.718   6.587 -0.5682 -0.3712  1.2014
  642MOL0     C88486   3.805  12.696   6.585  0.5824 -0.1126  0.1910
  642MOL0     C88487   4.015  12.797   6.479 -0.1104  0.5319  0.5562
  642MOL0     C88488   3.961  12.872   6.371 -0.0003 -0.7228 -0.2560
  642MOL0     O88489   4.035  12.962   6.307 -0.1298 -0.1878 -0.1745
  642MOL0     C88490   3.975  13.060   6.234 -0.9370 -0.2634  0.4066
  642MOL0     C88491   3.901  13.040   6.113 -0.0427 -0.4281  0.0560
  642MOL0     C88492   3.854  13.155   6.042 -0.2296 -0.7356 -0.2301
  642MOL0     C88493   3.866  13.289   6.096 -0.1389  0.1978 -0.2669
  642MOL0     O88494   3.799  13.396   6.042  0.1363 -0.3556 -0.8406
  642MOL0     C88495   3.845  13.430   5.907 -0.1128 -0.1801 -0.5417
  642MOL0     C88496   3.781  13.542   5.836  0.6792 -0.4933 -1.1932
  642MOL0     C88497   3.821  13.558   5.694  0.2248 -0.1054 -0.5761
  642MOL0     C88498   3.718  13.635   5.605 -0.7759  0.2347 -0.4315
  642MOL0     C88499   3.788  13.679   5.481 -1.0142 -0.3223  0.4026
  642MOL0     C88500   3.704  13.772   5.396  0.1188  0.0169 -0.1157
  642MOL0     C88501   3.566  13.721   5.354 -0.1778  0.3765 -0.5664
  642MOL0     C88502   3.505  13.814   5.242 -0.1747  0.4221 -0.0400
  642MOL0    Cl88503   3.355  13.731   5.167 -0.4465 -0.2949 -0.0878
  642MOL0     C88504   3.933  13.301   6.218 -0.9861 -0.4443  0.1248
  642MOL0     C88505   3.991  13.190   6.274  1.3838 -1.2963  0.3467
  642MOL0     O88506   3.842  12.857   6.348 -0.3552 -0.0336 -0.5267
  642MOL0     C88507   4.154  12.777   6.477  1.0347  0.1923 -0.3206
  642MOL0     C88508   4.232  12.716   6.578 -0.1054  0.0735  0.1700
  642MOL0     N88509   3.965  12.195   7.008 -0.2915 -1.2213  0.0914
  642MOL0     N88510   3.912  12.081   7.026  0.3570  0.3626 -0.4778
  642MOL0     C88511   3.426  11.180   7.437  0.7525  0.0268  1.3577
  642MOL0     C88512   3.353  11.065   7.398 -0.1968  0.1669  0.2033
  642MOL0     C88513   3.088  10.734   7.313 -0.1036  1.0171 -0.1032
  642MOL0     C88514   3.076  10.727   7.174 -0.8047  0.4129  0.5991
  642MOL0     C88515   3.026  10.611   7.112 -0.3613 -1.0712  0.3682
  642MOL0     C88516   2.988  10.494   7.178  0.5177  0.5848 -0.1423
  642MOL0     O88517   2.916  10.400   7.101 -0.3241  0.2343 -0.4928
  642MOL0     C88518   2.877  10.271   7.156  1.1222 -0.4429 -0.3587
  642MOL0     C88519   2.868  10.164   7.045  0.0204 -0.1961  0.1345
  642MOL0     C88520   2.768  10.191   6.932  0.0714 -0.3268  0.1053
  642MOL0     C88521   2.824  10.139   6.797  0.0185  0.3197 -0.8607
  642MOL0     C88522   2.830   9.990   6.792 -0.2294  0.4303 -0.4908
  642MOL0     C88523   2.843   9.872   6.809  0.9677 -0.0795 -0.9250
  642MOL0     C88524   3.018  10.489   7.316 -0.4841  0.1448  0.2131
  642MOL0     C88525   3.070  10.605   7.383  0.6108 -0.9878  0.7011
  642MOL0     C88526   3.099  10.612   7.530  0.7441  0.1466  0.0808
  642MOL0     H88527   3.050  11.198   7.331 -1.0411 -1.7224  3.2011
  642MOL0     H88528   3.181  11.409   7.402  0.2835 -0.3781 -2.0643
  642MOL0     H88529   3.600  11.362   7.595 -1.5776 -2.5005  1.4073
  642MOL0     H88530   3.462  11.342   7.689  1.4690  0.1531  0.6794
  642MOL0     H88531   3.435  11.579   7.714 -3.1615 -2.4668 -4.2093
  642MOL0     H88532   3.592  11.533   7.767 -0.0588  1.1090  0.1292
  642MOL0     H88533   3.504  11.670   7.510 -1.4464 -0.0332  1.4582
  642MOL0     H88534   3.619  11.746   7.629 -1.0944  2.1223 -3.4969
  642MOL0     H88535   3.774  11.549   7.574 -1.6261  1.2697  3.0322
  642MOL0     H88536   3.669  11.524   7.435  1.5218 -0.1813 -0.8044
  642MOL0     H88537   3.889  11.670   7.394  0.8535 -2.1950  2.3191
  642MOL0     H88538   3.812  11.784   7.516 -3.1032  2.4011 -1.3732
  642MOL0     H88539   3.713  11.727   7.229  0.6655 -1.1051  0.2855
  642MOL0     H88540   3.623  11.810   7.348  0.3245  0.7822 -1.0188
  642MOL0     H88541   3.818  11.972   7.377 -0.6150  3.9516 -0.8925
  642MOL0     H88542   3.715  11.995   7.231  2.9269  3.3116 -0.9940
  642MOL0     H88543   3.986  11.852   7.261 -0.4501 -0.3062  0.4818
  642MOL0     H88544   3.890  11.838   7.113  4.0223  0.9707 -1.6306
  642MOL0     H88545   4.089  12.084   7.304 -0.0095 -1.1381 -0.5969
  642MOL0     H88546   4.239  12.299   7.178  1.0358  2.1112  0.0841
  642MOL0     H88547   4.105  12.397   7.225 -1.1798 -0.1233 -1.3444
  642MOL0     H88548   4.205  12.346   6.932 -0.1190 -1.8477 -0.2184
  642MOL0     H88549   4.065  12.449   6.977  2.8819  3.0942 -0.9071
  642MOL0     H88550   4.227  12.569   7.129  1.0750  1.3526 -0.2594
  642MOL0     H88551   4.350  12.498   7.039 -0.0177 -0.0258  2.5775
  642MOL0     H88552   4.131  12.690   6.921  1.9199  4.6723  1.9500
  642MOL0     H88553   4.303  12.715   6.933  1.7143 -2.0258  0.8651
  642MOL0     H88554   3.979  12.567   6.749 -1.3065  0.9463  0.6902
  642MOL0     H88555   3.780  12.591   6.603 -0.3899  0.1169  0.2650
  642MOL0     H88556   3.758  12.710   6.487  2.7019 -0.2591 -0.9023
  642MOL0     H88557   3.762  12.760   6.662  2.2945  0.7006  0.5035
  642MOL0     H88558   3.879  12.941   6.074  1.5376 -1.0862  0.7257
  642MOL0     H88559   3.786  13.148   5.958 -0.4853  3.1235 -0.5419
  642MOL0     H88560   3.953  13.447   5.907 -0.5281  3.2387 -2.1056
  642MOL0     H88561   3.841  13.338   5.848  1.1044 -0.9654  0.5475
  642MOL0     H88562   3.672  13.536   5.829  0.3989  1.4397  0.5370
  642MOL0     H88563   3.791  13.640   5.885 -2.2158 -0.1856 -1.0239
  642MOL0     H88564   3.818  13.459   5.647  0.0629  0.6127 -2.1195
  642MOL0     H88565   3.914  13.614   5.685 -1.4486  3.1988  0.8906
  642MOL0     H88566   3.696  13.726   5.662  2.5883 -0.5494  2.5438
  642MOL0     H88567   3.638  13.564   5.584  0.0343 -1.1844  1.0540
  642MOL0     H88568   3.875  13.739   5.510 -0.9126 -0.1372 -0.2876
  642MOL0     H88569   3.809  13.583   5.435 -4.3540  0.1642 -2.5925
  642MOL0     H88570   3.769  13.787   5.309 -0.3311 -0.2140 -0.5007
  642MOL0     H88571   3.700  13.869   5.445  1.7656 -0.4709  1.0664
  642MOL0     H88572   3.492  13.712   5.434 -0.1668 -0.6601 -0.6617
  642MOL0     H88573   3.583  13.621   5.314  0.2472  0.9059 -1.7442
  642MOL0     H88574   3.576  13.834   5.161  0.2185  2.1173  0.6806
  642MOL0     H88575   3.480  13.916   5.271  0.0814  2.0087 -4.5875
  642MOL0     H88576   3.950  13.395   6.269  2.2893  0.5374 -2.3852
  642MOL0     H88577   4.060  13.205   6.357  3.1448 -0.0167 -1.2614
  642MOL0     H88578   4.223  12.820   6.405  3.0258 -1.6258  0.3950
  642MOL0     H88579   4.341  12.718   6.572 -0.0870  4.2842 -0.8930
  642MOL0     H88580   3.535  11.173   7.436  0.7261 -1.0618 -1.4466
  642MOL0     H88581   3.416  10.977   7.389 -0.5733 -0.0550 -0.2876
  642MOL0     H88582   3.096  10.811   7.109 -1.4892  0.3688  0.3189
  642MOL0     H88583   3.006  10.616   7.006  0.6732 -0.5576  0.1904
  642MOL0     H88584   2.942  10.240   7.238  0.5816 -1.4857 -0.3126
  642MOL0     H88585   2.777  10.281   7.200  1.1567  2.2033 -0.6856
  642MOL0     H88586   2.836  10.071   7.093 -0.7772  0.0465  0.0776
  642MOL0     H88587   2.967  10.142   7.003 -0.4428 -2.9074  0.2623
  642MOL0     H88588   2.675  10.133   6.943 -0.7336  0.6738 -1.0818
  642MOL0     H88589   2.742  10.297   6.933 -1.3062 -0.6362  1.5372
  642MOL0     H88590   2.924  10.175   6.772  1.8872 -2.4835  1.8328
  642MOL0     H88591   2.758  10.174   6.716 -3.8112 -1.7138  1.0815
  642MOL0     H88592   2.842   9.765   6.820 -0.8649 -0.2990 -2.7825
  642MOL0     H88593   2.997  10.399   7.373  2.6206 -1.2365 -0.5999
  642MOL0     H88594   3.015  10.638   7.596  0.1283 -0.5372 -0.4217
  642MOL0     H88595   3.143  10.513   7.547  3.2930  0.8353 -1.8781
  642MOL0     H88596   3.187  10.674   7.551  0.4183  0.5164  0.3789
  643MOL0     O88597   3.336   2.381  10.787 -0.1965 -0.6472  0.6347
  643MOL0     C88598   3.404   2.470  10.845  0.3560  0.9932 -0.0644
  643MOL0     O88599   3.439   2.589  10.791  0.6714  0.3218 -0.0931
  643MOL0     C88600   3.415   2.604  10.652  0.8501  0.6011 -1.7599
  643MOL0     C88601   3.288   2.632  10.608  0.8597 -0.7192 -0.5591
  643MOL0     C88602   3.275   2.656  10.472 -0.1551 -0.5439  0.2047
  643MOL0     C88603   3.378   2.683  10.385 -0.0643 -0.2722 -0.9774
  643MOL0     O88604   3.346   2.729  10.257 -0.4459 -0.7536 -0.9083
  643MOL0     C88605   3.444   2.763  10.160 -0.2860  0.3219  0.2374
  643MOL0     C88606   3.384   2.793  10.027 -0.0014 -0.5714  1.0532
  643MOL0     C88607   3.268   2.896  10.014 -0.0416  0.2460  0.8934
  643MOL0     C88608   3.237   2.938   9.870 -0.2943 -0.5828 -0.1618
  643MOL0     C88609   3.089   2.992   9.880  0.2262 -0.0013 -0.1341
  643MOL0     C88610   3.057   3.059   9.740  0.1342  0.0274  0.4781
  643MOL0     C88611   3.047   2.952   9.626 -0.3318 -0.2951  0.3221
  643MOL0     C88612   2.979   2.985   9.487 -0.9551  0.6510  0.7407
  643MOL0     N88613   2.986   2.873   9.394  0.1755  0.1056  0.6565
  643MOL0     C88614   2.889   2.818   9.307  0.1866  0.4219  0.0526
  643MOL0     C88615   2.950   2.763   9.216 -0.0228  0.4930 -0.0508
  643MOL0     C88616   2.885   2.704   9.085 -1.1351  0.6339 -0.5380
  643MOL0     C88617   2.896   2.809   8.974 -0.8097  0.0529 -1.3018
  643MOL0     C88618   2.876   2.747   8.838 -1.3116 -0.8601 -0.3471
  643MOL0     C88619   2.978   2.629   8.805 -0.3569 -0.2835 -0.4304
  643MOL0     O88620   2.959   2.610   8.668  0.0514  0.7215 -0.0536
  643MOL0     C88621   3.012   2.491   8.622 -0.4848  0.8833  0.1737
  643MOL0     C88622   3.134   2.435   8.658  0.2171 -0.4332  0.2810
  643MOL0     C88623   3.180   2.314   8.597 -0.4013 -0.0756 -0.0557
  643MOL0     C88624   3.304   2.252   8.658  0.0515 -0.2765 -0.0832
  643MOL0     C88625   3.103   2.254   8.492  0.5991 -0.4223  0.3503
  643MOL0     C88626   3.128   2.126   8.430 -0.7175 -0.5464  0.2881
  643MOL0     O88627   3.077   2.114   8.308 -0.1952  0.1725  0.1213
  643MOL0     C88628   3.138   2.003   8.234  0.2757 -0.2629 -0.3162
  643MOL0     C88629   3.066   1.878   8.203 -0.4441 -0.2171  0.2176
  643MOL0     C88630   3.129   1.779   8.126  0.4068  0.7193  0.5290
  643MOL0     C88631   3.253   1.799   8.068 -0.9619 -0.7229 -0.0253
  643MOL0     O88632   3.320   1.701   8.001 -0.0265  0.0555 -0.0668
  643MOL0     C88633   3.233   1.614   7.918  0.0862 -0.0432  0.5663
  643MOL0     C88634   3.322   1.539   7.817  0.1326 -0.3794 -0.2830
  643MOL0     C88635   3.435   1.469   7.893  0.6957  0.5247  0.3434
  643MOL0     C88636   3.539   1.394   7.803  0.2699  0.1190  0.0166
  643MOL0     C88637   3.648   1.326   7.891 -0.0262 -0.7708 -0.3536
  643MOL0     C88638   3.765   1.281   7.792  0.3350  0.7103  0.5303
  643MOL0     C88639   3.857   1.188   7.875 -0.7111  0.0417 -0.2526
  643MOL0     C88640   3.993   1.153   7.816  0.1169 -0.2842 -0.0535
  643MOL0    Cl88641   4.071   1.294   7.738  0.5099  0.5707 -0.0027
  643MOL0     C88642   3.325   1.914   8.105 -0.2771 -0.0518  0.0235
  643MOL0     C88643   3.260   2.018   8.174 -0.2212 -0.6349  0.4681
  643MOL0     O88644   3.217   2.051   8.476 -0.0721 -0.2547  0.5223
  643MOL0     C88645   2.988   2.319   8.446  0.8266  0.6948  0.3011
  643MOL0     C88646   2.950   2.438   8.512  0.5304  1.5097  0.8609
  643MOL0     N88647   3.085   2.768   9.253  0.4565  0.2943 -0.9043
  643MOL0     N88648   3.106   2.847   9.348 -0.0084  0.3512  0.6489
  643MOL0     C88649   3.511   2.677  10.438 -0.3038  0.2504 -0.0091
  643MOL0     C88650   3.525   2.634  10.568  0.6674  0.9517 -0.4791
  643MOL0     C88651   3.450   2.423  10.979 -0.1136  0.4035  0.5371
  643MOL0     C88652   3.391   2.311  11.039  0.1124  0.9001  0.2506
  643MOL0     C88653   3.433   2.280  11.174  0.0495  0.8423 -0.3910
  643MOL0     C88654   3.541   2.355  11.231 -0.0270 -0.0204 -0.4592
  643MOL0     O88655   3.563   2.307  11.355  0.7757  0.4922 -0.9763
  643MOL0     C88656   3.652   2.375  11.441 -0.3222 -0.2625 -0.3070
  643MOL0     C88657   3.634   2.343  11.592  0.5487  0.7655  0.7623
  643MOL0     C88658   3.478   2.370  11.624 -0.7305 -0.4311 -0.2500
  643MOL0     C88659   3.458   2.338  11.770  0.2153 -0.1478 -0.6373
  643MOL0     C88660   3.491   2.456  11.857 -1.1160 -0.7458  0.2043
  643MOL0     C88661   3.510   2.538  11.942 -0.9128  0.9906 -0.5715
  643MOL0     C88662   3.596   2.469  11.174 -0.3496  0.7542  0.0487
  643MOL0     C88663   3.561   2.490  11.034  0.2643 -0.3136 -0.1443
  643MOL0     C88664   3.641   2.604  10.974  0.9510 -0.5324  0.0937
  643MOL0     H88665   3.204   2.631  10.677  3.0854  0.1302  2.3403
  643MOL0     H88666   3.176   2.675  10.431  0.4311  1.3624 -0.4483
  643MOL0     H88667   3.520   2.684  10.159 -1.3567 -0.7664  1.5581
  643MOL0     H88668   3.492   2.855  10.193 -1.8037  1.4029 -0.4316
  643MOL0     H88669   3.468   2.828   9.965 -1.5468 -1.4246 -1.6793
  643MOL0     H88670   3.353   2.695   9.990  1.5164 -1.2084  1.3771
  643MOL0     H88671   3.181   2.840  10.048 -0.2839  1.6417  2.7418
  643MOL0     H88672   3.283   2.977  10.086 -1.5440  0.8899  0.5210
  643MOL0     H88673   3.304   3.014   9.828  1.8122 -2.4351 -0.3178
  643MOL0     H88674   3.232   2.851   9.804 -1.3972 -1.1583  0.6412
  643MOL0     H88675   3.057   3.062   9.958 -2.7928 -1.3043 -0.0529
  643MOL0     H88676   3.014   2.913   9.888 -1.3305  1.3414 -0.8126
  643MOL0     H88677   2.960   3.110   9.742  1.0116  1.8074  0.2045
  643MOL0     H88678   3.138   3.127   9.711 -0.5628  0.0229 -1.6589
  643MOL0     H88679   2.990   2.869   9.668 -1.5542 -0.6986 -1.9800
  643MOL0     H88680   3.145   2.904   9.613  0.5741  1.6696 -0.5535
  643MOL0     H88681   2.878   3.014   9.517 -1.2240 -1.2094  1.8089
  643MOL0     H88682   3.031   3.074   9.450 -2.7300  2.4622  2.3742
  643MOL0     H88683   2.782   2.835   9.312  0.1095 -0.1240  0.3264
  643MOL0     H88684   2.788   2.654   9.093  0.3957 -2.9054 -1.7136
  643MOL0     H88685   2.950   2.618   9.063 -0.3180  1.6331 -2.2448
  643MOL0     H88686   2.827   2.894   8.982  0.9535  1.4227  0.2824
  643MOL0     H88687   2.999   2.845   8.978  0.9352 -4.4336  1.4933
  643MOL0     H88688   2.776   2.703   8.837 -1.5488 -0.4533  1.5393
  643MOL0     H88689   2.890   2.835   8.774 -3.2239 -0.5515 -0.4108
  643MOL0     H88690   3.080   2.657   8.830  0.4148 -0.2778 -3.2590
  643MOL0     H88691   2.944   2.541   8.861  1.3148 -0.9317 -0.3680
  643MOL0     H88692   3.185   2.476   8.745 -2.1259  2.7587  0.3460
  643MOL0     H88693   3.320   2.296   8.757 -1.8841  0.9442 -0.2597
  643MOL0     H88694   3.382   2.283   8.587  1.4979  0.5837  1.7899
  643MOL0     H88695   3.307   2.143   8.664 -1.0735 -0.2502  1.4578
  643MOL0     H88696   2.963   1.858   8.228 -1.0490  0.7090 -1.4151
  643MOL0     H88697   3.067   1.689   8.119  0.9417  0.3781  0.0664
  643MOL0     H88698   3.184   1.540   7.982 -1.2157 -1.2985 -1.7522
  643MOL0     H88699   3.167   1.660   7.844  0.4522 -1.1605 -0.4773
  643MOL0     H88700   3.272   1.460   7.759  1.2484  0.1835 -2.0851
  643MOL0     H88701   3.363   1.608   7.744  0.9955 -1.1817 -0.5801
  643MOL0     H88702   3.383   1.405   7.965 -0.6067  1.4746  0.2796
  643MOL0     H88703   3.498   1.541   7.947  1.0901 -0.2570  0.9471
  643MOL0     H88704   3.592   1.459   7.732 -1.0547  0.9491 -0.2289
  643MOL0     H88705   3.483   1.316   7.750 -1.3410  1.0165  0.3376
  643MOL0     H88706   3.696   1.375   7.976  0.8364 -2.7532  0.3739
  643MOL0     H88707   3.611   1.234   7.937 -0.2730 -0.8514 -0.7096
  643MOL0     H88708   3.805   1.378   7.762  0.1914  0.5069 -0.3703
  643MOL0     H88709   3.735   1.233   7.698 -0.7615 -2.9152  2.5125
  643MOL0     H88710   3.807   1.092   7.890 -0.2257 -0.4927 -1.8609
  643MOL0     H88711   3.886   1.229   7.972 -0.1534  1.4601 -0.9917
  643MOL0     H88712   3.987   1.077   7.738  0.7317  1.8498 -2.2887
  643MOL0     H88713   4.051   1.116   7.901 -1.0411  0.3787  1.0543
  643MOL0     H88714   3.430   1.927   8.080  1.6174 -2.8564  5.0717
  643MOL0     H88715   3.320   2.104   8.203 -0.3442  0.9441 -3.4097
  643MOL0     H88716   2.921   2.284   8.368 -3.0213  0.2778  3.4593
  643MOL0     H88717   2.851   2.472   8.482 -0.3983 -2.5111 -1.4671
  643MOL0     H88718   3.597   2.710  10.382  0.2694 -2.0329 -0.5963
  643MOL0     H88719   3.618   2.618  10.623 -0.4256  0.6791  1.3845
  643MOL0     H88720   3.307   2.257  10.996  0.6774 -0.0165  0.2647
  643MOL0     H88721   3.390   2.199  11.231  0.5218  3.0345  3.3740
  643MOL0     H88722   3.752   2.337  11.415  0.7339  1.6040  0.8187
  643MOL0     H88723   3.644   2.483  11.431  1.8192 -0.0986 -0.7679
  643MOL0     H88724   3.700   2.402  11.657 -1.3363  4.9705 -0.7525
  643MOL0     H88725   3.656   2.238  11.610 -0.1034 -0.0956 -2.7855
  643MOL0     H88726   3.450   2.472  11.600 -0.3006  0.1819  1.6761
  643MOL0     H88727   3.415   2.302  11.566 -1.2868  0.7924 -1.1122
  643MOL0     H88728   3.515   2.257  11.818 -3.9235 -1.7225  2.2372
  643MOL0     H88729   3.351   2.315  11.779  0.4626 -0.6534  1.7200
  643MOL0     H88730   3.545   2.601  12.022 -0.8339 -1.2692  1.2888
  643MOL0     H88731   3.670   2.524  11.230 -0.2606  1.3578 -0.6492
  643MOL0     H88732   3.672   2.583  10.871  0.5829  0.5634 -0.2625
  643MOL0     H88733   3.595   2.703  10.968  2.9962  0.7123  3.0172
  643MOL0     H88734   3.733   2.618  11.032  0.8349  0.5980  0.0251
  644MOL0     O88735   9.397   2.381  10.590  0.5985 -0.9414 -0.4968
  644MOL0     C88736   9.399   2.285  10.509  0.4716 -0.3523 -0.2615
  644MOL0     O88737   9.469   2.168  10.531 -0.5012  0.0901  0.0046
  644MOL0     C88738   9.534   2.147  10.657 -0.4742 -1.4131  0.0757
  644MOL0     C88739   9.673   2.138  10.655 -0.1298 -0.5895  0.7173
  644MOL0     C88740   9.743   2.098  10.766 -0.0264 -0.8319 -0.5933
  644MOL0     C88741   9.669   2.083  10.884  0.3987  0.1866  0.2604
  644MOL0     O88742   9.737   2.028  10.990  0.8082  0.2257  0.9995
  644MOL0     C88743   9.836   2.103  11.065 -1.1096 -0.7369  0.5832
  644MOL0     C88744   9.765   2.189  11.167  0.4528  0.5049  0.8951
  644MOL0     C88745   9.670   2.113  11.266 -0.3833  0.6744  0.8818
  644MOL0     C88746   9.734   1.996  11.323  0.6160 -1.3198 -0.3020
  644MOL0     C88747   9.647   1.962  11.453  0.0482 -0.2279 -0.0193
  644MOL0     C88748   9.681   1.831  11.513 -0.1489  0.4844 -0.7509
  644MOL0     C88749   9.656   1.703  11.438  1.0282 -0.8607  0.6317
  644MOL0     C88750   9.742   1.594  11.491  0.3981 -0.0931 -0.0322
  644MOL0     N88751   9.683   1.462  11.451  0.5033 -0.1797  0.1692
  644MOL0     C88752   9.743   1.352  11.494 -0.6897 -0.3631  0.6635
  644MOL0     C88753   9.721   1.261  11.395  0.1348 -0.5014 -0.0538
  644MOL0     C88754   9.798   1.133  11.376 -0.3476  0.6307 -0.1227
  644MOL0     C88755   9.782   1.033  11.486 -0.3738 -0.0093  0.0373
  644MOL0     C88756   9.655   0.946  11.462 -0.0849  1.0901  0.1538
  644MOL0     C88757   9.613   0.860  11.578  0.4467  0.3844 -0.9025
  644MOL0     O88758   9.558   0.944  11.680 -0.7094  0.7797  0.1222
  644MOL0     C88759   9.497   0.884  11.790  1.0436 -0.2057  0.7714
  644MOL0     C88760   9.542   0.766  11.854  0.1570 -0.5332 -0.1878
  644MOL0     C88761   9.486   0.705  11.961  0.3993 -0.2462 -0.8793
  644MOL0     C88762   9.535   0.565  11.995 -0.8532 -0.6269 -0.7788
  644MOL0     C88763   9.370   0.763  12.028 -0.5839 -0.3713  0.6863
  644MOL0     C88764   9.286   0.719  12.142 -0.7281 -0.4204 -0.5771
  644MOL0     O88765   9.170   0.784  12.199  0.1639 -0.6572 -0.0549
  644MOL0     C88766   9.122   0.744  12.321  0.5079  0.2980  0.0193
  644MOL0     C88767   9.110   0.845  12.425  0.4175  0.3182  0.0951
  644MOL0     C88768   9.041   0.819  12.549 -0.1551  0.6442 -0.1194
  644MOL0     C88769   8.996   0.689  12.575 -0.5953 -0.2808  1.2610
  644MOL0     O88770   8.940   0.647  12.687 -0.2183 -0.0168 -1.4345
  644MOL0     C88771   9.017   0.694  12.798  0.7656 -0.0802 -0.6541
  644MOL0     C88772   8.940   0.663  12.935 -0.9802 -0.4393 -0.2540
  644MOL0     C88773   9.020   0.726  13.062  0.0229  0.2297  0.0554
  644MOL0     C88774   8.980   0.670  13.200  0.2396  0.6830 -0.3053
  644MOL0     C88775   9.023   0.764  13.319  0.1442 -0.3923  0.2896
  644MOL0     C88776   9.169   0.787  13.302  0.6384  0.1720  0.2308
  644MOL0     C88777   9.223   0.873  13.411  0.0811  0.6226 -0.3090
  644MOL0     C88778   9.364   0.922  13.392  0.5846 -0.0123 -0.4745
  644MOL0    Cl88779   9.421   0.999  13.544  0.1266 -0.3669 -0.0333
  644MOL0     C88780   9.002   0.594  12.476 -0.3752  0.0046  0.3428
  644MOL0     C88781   9.055   0.622  12.347 -1.2102 -0.6636 -1.0105
  644MOL0     O88782   9.337   0.620  12.199 -0.0175  0.0487  0.1218
  644MOL0     C88783   9.327   0.885  11.969  0.3813 -0.3109  0.5911
  644MOL0     C88784   9.381   0.937  11.851 -0.2230 -0.1818  0.4333
  644MOL0     N88785   9.631   1.314  11.303 -0.6736  0.7067 -0.2382
  644MOL0     N88786   9.608   1.430  11.337 -0.1634  0.9292 -0.2641
  644MOL0     C88787   9.529   2.111  10.889  0.6498  0.1469 -0.2412
  644MOL0     C88788   9.462   2.148  10.773  0.3020 -0.3744  0.7670
  644MOL0     C88789   9.311   2.295  10.391 -0.2347  1.0752 -0.1909
  644MOL0     C88790   9.262   2.167  10.339 -0.4891  0.3743  0.0685
  644MOL0     C88791   9.174   2.164  10.228 -0.5202 -0.4693 -1.4312
  644MOL0     C88792   9.117   2.281  10.184 -0.8045  0.3452 -0.0016
  644MOL0     O88793   9.025   2.276  10.089  0.5457  0.4297 -0.4267
  644MOL0     C88794   8.973   2.390  10.011 -0.7890  0.1227  0.2319
  644MOL0     C88795   8.862   2.360   9.922  0.1825 -0.8265 -0.1487
  644MOL0     C88796   8.866   2.238   9.835 -0.5061  0.2817  0.1413
  644MOL0     C88797   8.731   2.195   9.768 -0.7110  0.9828 -0.4834
  644MOL0     C88798   8.749   2.081   9.682 -1.3882 -0.1003 -0.3678
  644MOL0     C88799   8.738   1.980   9.611  0.1745  0.3925 -0.4547
  644MOL0     C88800   9.185   2.405  10.212  0.4507 -0.6667 -0.0448
  644MOL0     C88801   9.275   2.415  10.322  0.5238 -0.4983  0.2289
  644MOL0     C88802   9.335   2.556  10.357 -0.3424 -0.8047 -0.2759
  644MOL0     H88803   9.730   2.150  10.563  0.6677 -0.4402  1.2188
  644MOL0     H88804   9.850   2.084  10.771 -0.0144 -0.3305  2.2916
  644MOL0     H88805   9.888   2.179  11.006 -3.3652  4.0848  4.0988
  644MOL0     H88806   9.915   2.039  11.106  1.6475  1.4346 -0.9257
  644MOL0     H88807   9.844   2.242  11.222  1.6103  2.6353 -2.5035
  644MOL0     H88808   9.708   2.270  11.119  1.4435  1.4670  1.2961
  644MOL0     H88809   9.624   2.182  11.337 -1.1967 -0.0586  1.0812
  644MOL0     H88810   9.583   2.089  11.205 -1.3981  1.2869  2.0493
  644MOL0     H88811   9.732   1.915  11.249  2.5682 -2.3219  0.6545
  644MOL0     H88812   9.837   2.021  11.352  1.1653 -2.5082 -1.1324
  644MOL0     H88813   9.543   1.959  11.419  0.2057 -1.5183 -0.4286
  644MOL0     H88814   9.657   2.042  11.527  2.9123 -1.8230  1.4871
  644MOL0     H88815   9.787   1.841  11.538 -0.5368 -0.7560  1.6977
  644MOL0     H88816   9.632   1.820  11.610 -0.0808  1.8435 -0.5366
  644MOL0     H88817   9.681   1.717  11.333  4.3452 -2.5979  1.0548
  644MOL0     H88818   9.549   1.686  11.451  0.9343 -1.0031 -0.2551
  644MOL0     H88819   9.847   1.604  11.460  0.1554  1.6723 -0.3729
  644MOL0     H88820   9.757   1.602  11.600  1.7937  0.7877 -0.2603
  644MOL0     H88821   9.817   1.334  11.572  1.3598 -0.3461 -1.1834
  644MOL0     H88822   9.904   1.155  11.359  0.8066 -3.6493  0.3589
  644MOL0     H88823   9.770   1.077  11.286 -3.6915 -2.2606  2.4147
  644MOL0     H88824   9.875   0.974  11.485  1.0717  2.0926  1.3995
  644MOL0     H88825   9.778   1.091  11.579  2.2759 -2.9473  2.2374
  644MOL0     H88826   9.570   1.011  11.438 -1.5746 -1.2055 -1.0703
  644MOL0     H88827   9.674   0.874  11.382  2.3540  1.6081  0.1827
  644MOL0     H88828   9.537   0.787  11.551 -0.2272  0.4389  0.6973
  644MOL0     H88829   9.690   0.795  11.621  0.5857  0.5700 -0.8698
  644MOL0     H88830   9.632   0.710  11.832 -0.9166 -3.4639  2.1799
  644MOL0     H88831   9.559   0.504  11.908  3.4925 -3.5051  2.0372
  644MOL0     H88832   9.460   0.508  12.052 -1.4245  4.6291  4.7264
  644MOL0     H88833   9.627   0.564  12.053 -0.4075  0.8147 -1.4417
  644MOL0     H88834   9.136   0.950  12.418  2.3536 -0.2055 -1.1317
  644MOL0     H88835   9.050   0.900  12.621  1.6373  1.8334 -1.5721
  644MOL0     H88836   9.121   0.660  12.785  0.8134  0.7303 -2.9147
  644MOL0     H88837   9.011   0.803  12.791  1.0731 -0.0745 -0.9057
  644MOL0     H88838   8.836   0.696  12.936 -0.9128 -0.2331  0.2237
  644MOL0     H88839   8.927   0.555  12.947  1.6938 -0.5890  2.4746
  644MOL0     H88840   8.994   0.832  13.071  2.2661  0.7941  0.4386
  644MOL0     H88841   9.126   0.713  13.041 -0.2916 -0.3499 -1.3146
  644MOL0     H88842   9.026   0.571  13.202  1.9296  1.3120 -2.6203
  644MOL0     H88843   8.873   0.653  13.210  0.3133  0.7573  0.6418
  644MOL0     H88844   8.951   0.845  13.302  1.1344 -0.1615 -3.5619
  644MOL0     H88845   9.001   0.707  13.410  2.4253 -4.1147 -1.2409
  644MOL0     H88846   9.184   0.838  13.206 -1.2854 -1.2692 -0.9106
  644MOL0     H88847   9.221   0.692  13.293 -1.4965 -1.0771  0.3440
  644MOL0     H88848   9.235   0.810  13.500  0.3463  3.5420  1.8766
  644MOL0     H88849   9.155   0.958  13.423  1.3533  1.6882 -0.4397
  644MOL0     H88850   9.372   0.981  13.301 -1.4382 -0.1072 -0.7434
  644MOL0     H88851   9.436   0.841  13.376  2.3939  1.1850  1.1216
  644MOL0     H88852   8.963   0.495  12.498 -0.4574 -0.0481 -0.0288
  644MOL0     H88853   9.084   0.537  12.285  2.1818 -0.4481  0.0280
  644MOL0     H88854   9.251   0.948  12.013 -0.5688  0.7033 -2.2789
  644MOL0     H88855   9.351   1.037  11.824  2.0337  1.3237  2.9799
  644MOL0     H88856   9.462   2.116  10.975  0.3356 -2.3220 -0.2680
  644MOL0     H88857   9.355   2.161  10.780  0.0913 -1.3180 -0.2891
  644MOL0     H88858   9.295   2.071  10.378  0.2533  0.1416 -1.0924
  644MOL0     H88859   9.149   2.060  10.209 -0.8718 -0.9283  1.1716
  644MOL0     H88860   8.948   2.481  10.066  4.2992  1.9325  0.0989
  644MOL0     H88861   9.056   2.423   9.948 -2.0909 -1.4285 -2.4664
  644MOL0     H88862   8.839   2.446   9.858 -3.8017 -0.9232  0.8677
  644MOL0     H88863   8.776   2.350   9.988  1.3463 -1.0231  1.3916
  644MOL0     H88864   8.943   2.251   9.758  0.9863 -1.1211  1.3017
  644MOL0     H88865   8.904   2.157   9.899  0.5664  2.3240  2.2605
  644MOL0     H88866   8.695   2.277   9.705 -1.5256  0.8889 -0.1507
  644MOL0     H88867   8.655   2.173   9.844 -1.3428 -0.6876 -1.5350
  644MOL0     H88868   8.734   1.888   9.557  0.3295 -0.0745  0.3337
  644MOL0     H88869   9.157   2.488  10.149  0.3518 -1.9114 -1.7227
  644MOL0     H88870   9.310   2.626  10.276 -3.1246  1.3780  2.1980
  644MOL0     H88871   9.290   2.604  10.444  0.0830  1.2634 -1.1188
  644MOL0     H88872   9.441   2.553  10.382 -0.4476  1.1267  0.5960
  645MOL0     O88873   2.610   6.137   1.146  0.9264 -0.0918  0.2013
  645MOL0     C88874   2.599   6.069   1.248  0.7250  1.4321  0.4945
  645MOL0     O88875   2.482   6.014   1.298  0.7171 -0.4705  0.4520
  645MOL0     C88876   2.359   6.018   1.228 -0.6744  0.1402  0.0054
  645MOL0     C88877   2.267   5.906   1.225 -1.3228 -0.1119 -0.7371
  645MOL0     C88878   2.145   5.910   1.165 -0.1890 -1.2004  0.5544
  645MOL0     C88879   2.101   6.026   1.104  0.2841 -0.5919 -0.3966
  645MOL0     O88880   1.986   6.041   1.028 -0.4913  0.3638  0.2491
  645MOL0     C88881   1.897   5.937   1.015  0.8417  0.0481  0.8763
  645MOL0     C88882   1.798   5.937   1.137  0.0192  0.0494 -0.1658
  645MOL0     C88883   1.737   5.789   1.161 -0.4279  0.4089 -0.0407
  645MOL0     C88884   1.653   5.796   1.288 -0.2295  0.0368 -0.3904
  645MOL0     C88885   1.582   5.665   1.324  0.2257 -0.4108  0.3494
  645MOL0     C88886   1.478   5.625   1.227 -0.1973  0.5345  0.1429
  645MOL0     C88887   1.409   5.496   1.281  0.1674 -1.1203 -0.1089
  645MOL0     C88888   1.289   5.453   1.194  0.0016 -0.5882 -0.0409
  645MOL0     N88889   1.215   5.339   1.242 -0.5183 -0.6574 -0.8702
  645MOL0     C88890   1.266   5.217   1.225 -0.2794  0.6282  1.1086
  645MOL0     C88891   1.171   5.141   1.282  0.1333 -0.2748  1.1044
  645MOL0     C88892   1.167   4.987   1.297 -0.8383 -0.4102  0.1132
  645MOL0     C88893   1.181   4.919   1.158  0.4466 -0.2050  0.4511
  645MOL0     C88894   1.059   4.956   1.070 -0.6400  0.2090  0.1818
  645MOL0     C88895   1.059   4.861   0.942 -0.1987  0.1339 -0.5200
  645MOL0     O88896   0.980   4.754   0.999  0.8132  0.2884 -0.4907
  645MOL0     C88897   0.990   4.628   0.952  0.5583 -0.8997 -0.3933
  645MOL0     C88898   1.061   4.592   0.834 -0.2237  0.4669  0.2478
  645MOL0     C88899   1.069   4.456   0.787 -0.5761 -0.2220 -0.0869
  645MOL0     C88900   1.156   4.430   0.670  0.0859  1.3497  0.7922
  645MOL0     C88901   1.002   4.354   0.858  0.2479 -0.2193  0.6729
  645MOL0     C88902   0.982   4.220   0.800 -1.6357 -0.2495  0.2495
  645MOL0     O88903   0.934   4.135   0.894 -0.6591  0.4584  0.2495
  645MOL0     C88904   0.921   3.997   0.875 -0.3261  0.4371 -1.0191
  645MOL0     C88905   0.832   3.945   0.972 -0.2698 -0.1805 -0.4849
  645MOL0     C88906   0.816   3.808   0.967 -0.4620 -0.0201  0.1669
  645MOL0     C88907   0.878   3.724   0.871  0.1272  0.2449 -0.0648
  645MOL0     O88908   0.829   3.598   0.876  0.7453  0.3463 -0.1957
  645MOL0     C88909   0.919   3.490   0.835  0.4124  0.3371  0.6004
  645MOL0     C88910   0.921   3.364   0.929 -0.1349  0.4508  0.4854
  645MOL0     C88911   1.041   3.271   0.921  0.0151  0.1631  0.9499
  645MOL0     C88912   1.014   3.143   1.003  0.1195 -0.9222  0.3159
  645MOL0     C88913   1.108   3.035   0.966  0.3104  1.6050 -0.8774
  645MOL0     C88914   1.082   2.917   1.063  0.4264  0.2857 -0.1470
  645MOL0     C88915   1.185   2.913   1.179  0.8345  0.4843  0.3835
  645MOL0     C88916   1.137   2.835   1.295 -0.1802  0.4707 -0.8944
  645MOL0    Cl88917   1.006   2.908   1.394 -0.0476  0.0942  0.5762
  645MOL0     C88918   0.955   3.776   0.773 -0.1448  0.1278  0.2261
  645MOL0     C88919   0.974   3.919   0.770  0.6193 -1.2844 -0.5968
  645MOL0     O88920   1.006   4.198   0.683 -0.1054 -0.3053  0.3721
  645MOL0     C88921   0.931   4.402   0.975  0.4763  0.3270 -0.2125
  645MOL0     C88922   0.930   4.528   1.021  0.5661  0.0583  0.2719
  645MOL0     N88923   1.074   5.217   1.330  0.1419 -0.4856  1.1785
  645MOL0     N88924   1.098   5.340   1.304  0.5042 -0.0220 -0.2559
  645MOL0     C88925   2.182   6.136   1.113  0.0166 -0.8549  0.9249
  645MOL0     C88926   2.305   6.143   1.182 -0.5798  0.3240 -0.8127
  645MOL0     C88927   2.728   6.041   1.325 -0.0512 -0.0668  0.3655
  645MOL0     C88928   2.726   5.934   1.413  0.3385 -0.3185  0.8539
  645MOL0     C88929   2.826   5.917   1.498 -0.8258 -0.1234  0.6304
  645MOL0     C88930   2.940   5.996   1.499  0.0295  0.1497 -0.6623
  645MOL0     O88931   3.039   5.993   1.587 -0.3058 -0.1188 -0.2824
  645MOL0     C88932   3.048   5.880   1.668 -0.4281  0.5424 -1.2571
  645MOL0     C88933   2.963   5.896   1.798  0.2650  0.2962  0.6484
  645MOL0     C88934   2.969   5.774   1.892 -0.1789 -0.1340 -0.2336
  645MOL0     C88935   2.888   5.664   1.829  0.9550  1.1435 -0.4229
  645MOL0     C88936   2.882   5.548   1.910 -0.6012  0.5312  0.4632
  645MOL0     C88937   2.860   5.454   1.986 -0.7645  0.1095 -0.0807
  645MOL0     C88938   2.937   6.108   1.413 -0.0350  0.5449  0.5732
  645MOL0     C88939   2.831   6.133   1.322 -0.5970  0.5511 -0.2790
  645MOL0     C88940   2.835   6.264   1.251  0.2347  0.3913 -0.4433
  645MOL0     H88941   2.305   5.813   1.265 -1.2385 -1.2334 -3.2142
  645MOL0     H88942   2.087   5.819   1.168  0.8512 -1.8954  0.2087
  645MOL0     H88943   1.951   5.844   0.998  1.3886  0.6587 -0.9636
  645MOL0     H88944   1.827   5.947   0.932  1.4477 -0.9546  0.2369
  645MOL0     H88945   1.852   5.974   1.224 -0.6805 -0.4807  0.5072
  645MOL0     H88946   1.711   6.000   1.117 -1.1179 -1.0667  1.0666
  645MOL0     H88947   1.679   5.750   1.077  1.2344  0.8758 -1.4758
  645MOL0     H88948   1.809   5.707   1.172 -1.9419 -0.6433  2.7479
  645MOL0     H88949   1.711   5.826   1.376  1.3521  2.8313 -2.2186
  645MOL0     H88950   1.574   5.870   1.272 -1.4652 -1.4522 -1.3997
  645MOL0     H88951   1.535   5.676   1.422 -1.9140  1.8007 -0.8143
  645MOL0     H88952   1.660   5.588   1.324 -0.0245 -0.7125 -1.5725
  645MOL0     H88953   1.406   5.707   1.212  0.7071  1.5428  1.1274
  645MOL0     H88954   1.521   5.599   1.129 -3.0931  0.2666 -1.1661
  645MOL0     H88955   1.366   5.522   1.378 -0.2262 -0.4738 -0.4559
  645MOL0     H88956   1.487   5.419   1.289  2.0627  0.5231 -1.5902
  645MOL0     H88957   1.222   5.537   1.176 -0.3561 -0.7965  0.3096
  645MOL0     H88958   1.338   5.430   1.098 -0.8262  0.4254 -0.7340
  645MOL0     H88959   1.350   5.182   1.166 -0.5683 -2.3237  2.2598
  645MOL0     H88960   1.076   4.949   1.345 -2.2658 -0.5914 -2.5230
  645MOL0     H88961   1.249   4.950   1.359  0.8250  1.1386 -1.0451
  645MOL0     H88962   1.276   4.937   1.107  0.5246 -1.4413  0.1150
  645MOL0     H88963   1.168   4.813   1.180  2.3715 -0.7805 -0.8411
  645MOL0     H88964   0.960   4.958   1.117 -2.0081 -0.9843 -2.4249
  645MOL0     H88965   1.073   5.055   1.026  1.8363 -1.9506 -4.6442
  645MOL0     H88966   1.007   4.898   0.854 -2.0575 -0.1896  0.3890
  645MOL0     H88967   1.157   4.817   0.919 -0.4480 -1.2204  0.7872
  645MOL0     H88968   1.109   4.667   0.773 -0.1299  1.8806  1.9859
  645MOL0     H88969   1.227   4.349   0.682  0.9406  1.5615 -2.0196
  645MOL0     H88970   1.217   4.517   0.644  4.4069 -1.6573 -0.1803
  645MOL0     H88971   1.105   4.415   0.575  2.4070 -4.4413  0.0830
  645MOL0     H88972   0.798   4.019   1.044  2.4690  0.8211 -0.1234
  645MOL0     H88973   0.753   3.759   1.040 -0.1094  0.7609  1.0172
  645MOL0     H88974   0.903   3.451   0.733  0.0581  0.1633  0.7205
  645MOL0     H88975   1.022   3.526   0.834  0.9764 -1.1948  0.1112
  645MOL0     H88976   0.910   3.393   1.034 -1.7677 -0.9194  0.7289
  645MOL0     H88977   0.830   3.305   0.913  0.3424  0.4529 -3.0415
  645MOL0     H88978   1.143   3.305   0.945  1.2335 -2.0536 -0.7008
  645MOL0     H88979   1.043   3.236   0.817  0.5699  2.9047 -0.0775
  645MOL0     H88980   0.910   3.113   0.988  0.4312 -1.9100  0.0669
  645MOL0     H88981   1.030   3.171   1.108  2.4865 -2.7720  0.5602
  645MOL0     H88982   1.089   3.015   0.860  0.8507 -1.0209 -0.5540
  645MOL0     H88983   1.215   3.057   0.977  0.2964  1.1678  0.2975
  645MOL0     H88984   1.097   2.829   1.001  1.3204  1.0236 -1.0146
  645MOL0     H88985   0.976   2.912   1.091  0.2699 -4.7364 -0.8518
  645MOL0     H88986   1.201   3.017   1.209  0.0761  0.1960  1.9114
  645MOL0     H88987   1.280   2.875   1.140  0.6943  0.2722  0.2470
  645MOL0     H88988   1.228   2.829   1.355 -0.4314  0.9233 -0.4663
  645MOL0     H88989   1.105   2.734   1.268  0.0094 -0.5496  2.3138
  645MOL0     H88990   0.994   3.709   0.697 -4.2491 -2.0913 -0.1554
  645MOL0     H88991   1.026   3.977   0.695 -1.2407  1.7842  0.2812
  645MOL0     H88992   0.866   4.324   1.014  3.2527 -1.2710  1.6062
  645MOL0     H88993   0.889   4.552   1.118 -0.4229 -1.8628  0.3746
  645MOL0     H88994   2.142   6.230   1.075 -1.6576 -1.1816  1.7784
  645MOL0     H88995   2.364   6.234   1.187 -0.5758  0.3000 -0.4053
  645MOL0     H88996   2.630   5.882   1.414  0.2982 -0.4657 -1.9914
  645MOL0     H88997   2.803   5.846   1.577  0.1957  0.7330  1.7350
  645MOL0     H88998   3.031   5.785   1.617 -0.5359 -0.2280  0.1482
  645MOL0     H88999   3.153   5.872   1.698 -1.3306 -0.7874  1.9781
  645MOL0     H89000   2.858   5.927   1.784 -0.1829 -0.8743  1.2787
  645MOL0     H89001   3.009   5.981   1.850 -1.6232  0.1515  2.7396
  645MOL0     H89002   3.074   5.747   1.898  0.1604 -1.1956 -5.7274
  645MOL0     H89003   2.933   5.814   1.987  0.1285 -3.2023  1.2990
  645MOL0     H89004   2.933   5.635   1.734  2.6179  2.8251 -0.2205
  645MOL0     H89005   2.785   5.699   1.817 -0.9254 -3.3246  0.6853
  645MOL0     H89006   2.847   5.367   2.047  1.3365 -2.1834 -2.6991
  645MOL0     H89007   3.018   6.180   1.412 -1.8414  2.8712 -3.8770
  645MOL0     H89008   2.829   6.252   1.142  1.8307  2.7602 -0.8638
  645MOL0     H89009   2.751   6.319   1.295  0.9998  2.1258 -1.0623
  645MOL0     H89010   2.924   6.318   1.281  0.8844  0.1805 -1.8851
  646MOL0     O89011   3.984   2.411  10.791 -0.2361 -0.6221  0.3540
  646MOL0     C89012   3.901   2.341  10.852  0.0265  0.6124  0.6728
  646MOL0     O89013   3.793   2.280  10.800  0.6548 -0.8265  0.6800
  646MOL0     C89014   3.780   2.271  10.662  0.0562 -0.0098 -0.1623
  646MOL0     C89015   3.880   2.199  10.586  0.9615 -0.5599 -0.1008
  646MOL0     C89016   3.866   2.204  10.445  0.1147 -0.5665 -0.3055
  646MOL0     C89017   3.749   2.262  10.389  0.3579  0.1155  0.3649
  646MOL0     O89018   3.750   2.264  10.253  0.4045 -0.8551  0.0542
  646MOL0     C89019   3.672   2.362  10.188  0.0937  0.1291  1.5591
  646MOL0     C89020   3.662   2.352  10.034 -0.0239 -0.6548 -0.0763
  646MOL0     C89021   3.559   2.454   9.981 -0.3106  0.5186 -0.4798
  646MOL0     C89022   3.511   2.404   9.839  0.0841 -0.5321 -1.2273
  646MOL0     C89023   3.408   2.507   9.802  0.9028 -0.3287  1.0374
  646MOL0     C89024   3.348   2.471   9.661  0.3927 -0.2969 -0.4993
  646MOL0     C89025   3.304   2.591   9.578  0.6717  0.2549 -0.0781
  646MOL0     C89026   3.402   2.622   9.469  0.2890 -0.8372  1.1394
  646MOL0     N89027   3.545   2.637   9.487 -0.2624  0.9510 -0.0118
  646MOL0     C89028   3.595   2.740   9.557 -1.7939 -0.4375  0.1541
  646MOL0     C89029   3.726   2.699   9.584  0.2095  0.1260  0.1265
  646MOL0     C89030   3.832   2.782   9.642 -0.1612 -0.7305  0.4968
  646MOL0     C89031   3.825   2.779   9.792 -0.3006 -0.0055 -0.7534
  646MOL0     C89032   3.948   2.830   9.850  0.3260 -0.3658 -0.1906
  646MOL0     C89033   3.968   2.789  10.004  0.5222 -0.7498  1.0396
  646MOL0     O89034   3.839   2.786  10.062  0.0634  0.3348 -0.6857
  646MOL0     C89035   3.816   2.802  10.193 -0.2331  0.3082 -0.6454
  646MOL0     C89036   3.859   2.702  10.276 -0.5343 -0.7966 -0.6638
  646MOL0     C89037   3.858   2.725  10.423  0.4871 -0.6836  0.8537
  646MOL0     C89038   3.914   2.611  10.509  0.0630  1.5337  0.2863
  646MOL0     C89039   3.802   2.845  10.469  0.0979 -0.0158 -0.1091
  646MOL0     C89040   3.780   2.879  10.609  0.3739 -0.2321 -0.2649
  646MOL0     O89041   3.725   2.999  10.638  0.0251  0.0703 -0.9224
  646MOL0     C89042   3.712   3.037  10.766  0.5399 -0.1167  0.3346
  646MOL0     C89043   3.594   3.011  10.841 -1.0673  0.1663 -0.3644
  646MOL0     C89044   3.594   3.044  10.980 -0.3723 -0.7163 -0.2626
  646MOL0     C89045   3.692   3.130  11.030 -0.1811  0.1185 -0.1195
  646MOL0     O89046   3.689   3.184  11.155  0.0268 -0.5077 -0.4822
  646MOL0     C89047   3.582   3.159  11.253  0.3992  0.2798  0.4448
  646MOL0     C89048   3.625   3.197  11.391 -0.7411 -0.5924 -0.4248
  646MOL0     C89049   3.708   3.313  11.404 -0.1605 -1.4756  0.4247
  646MOL0     C89050   3.751   3.319  11.546  0.4913 -0.0709  0.4409
  646MOL0     C89051   3.838   3.444  11.566  0.4934 -0.8082  0.3254
  646MOL0     C89052   3.868   3.455  11.719 -0.3217  0.0737 -0.2000
  646MOL0     C89053   3.965   3.573  11.743 -0.3241 -0.5348 -0.2221
  646MOL0     C89054   4.014   3.587  11.887 -0.5814  0.5988  0.6563
  646MOL0    Cl89055   4.128   3.716  11.909 -0.4015 -0.5520 -0.1149
  646MOL0     C89056   3.799   3.165  10.948 -0.6259  0.2072 -0.4615
  646MOL0     C89057   3.813   3.119  10.821 -0.8592  0.0587  0.4046
  646MOL0     O89058   3.814   2.804  10.697  1.0841  0.0115 -0.0290
  646MOL0     C89059   3.755   2.939  10.375 -0.1767 -0.2979  0.3935
  646MOL0     C89060   3.763   2.918  10.244 -0.0007 -0.1291  0.4926
  646MOL0     N89061   3.741   2.563   9.544 -0.3381  0.4282  0.8462
  646MOL0     N89062   3.634   2.535   9.482 -0.2168  0.4001 -0.7457
  646MOL0     C89063   3.647   2.323  10.465  0.7943  0.2224 -0.4312
  646MOL0     C89064   3.673   2.331  10.599  0.5291 -0.4903  0.6163
  646MOL0     C89065   3.909   2.337  11.002  0.0599  0.2395 -0.6665
  646MOL0     C89066   3.954   2.457  11.058  0.0746 -0.1192  0.2606
  646MOL0     C89067   3.993   2.462  11.193 -0.0715  0.1575 -0.2200
  646MOL0     C89068   3.989   2.339  11.270 -0.2006 -0.1056  0.5980
  646MOL0     O89069   4.015   2.354  11.406  0.5011 -0.1598  0.4947
  646MOL0     C89070   4.081   2.242  11.469  0.6691  0.4495  0.1950
  646MOL0     C89071   4.160   2.283  11.591  0.2680 -0.7104 -0.5743
  646MOL0     C89072   4.086   2.370  11.697 -0.1285  0.2703 -1.1214
  646MOL0     C89073   3.959   2.303  11.748  0.3557  0.4562  1.0545
  646MOL0     C89074   3.985   2.211  11.860  0.3583 -0.8886  0.2119
  646MOL0     C89075   4.026   2.140  11.950  1.3079 -0.3108 -0.4576
  646MOL0     C89076   3.944   2.225  11.202 -0.5881  0.2097  0.0176
  646MOL0     C89077   3.900   2.215  11.073 -0.5261 -0.4657  0.1096
  646MOL0     C89078   3.843   2.083  11.025  0.5227  0.0467 -0.3583
  646MOL0     H89079   3.969   2.154  10.630  0.4096  0.4774  2.2516
  646MOL0     H89080   3.932   2.153  10.376 -1.7667  0.0204 -2.7015
  646MOL0     H89081   3.723   2.456  10.214 -0.4858  0.9543 -0.1549
  646MOL0     H89082   3.565   2.348  10.211  0.4047  0.4777  3.4309
  646MOL0     H89083   3.757   2.365   9.981  1.9916 -1.3603  3.1071
  646MOL0     H89084   3.626   2.251  10.016 -1.6664 -0.0736 -0.2739
  646MOL0     H89085   3.467   2.456  10.040  0.7706  2.8965  1.2956
  646MOL0     H89086   3.601   2.554   9.995 -0.8511  0.8587 -1.1525
  646MOL0     H89087   3.594   2.398   9.769  2.3181 -2.7656  1.3966
  646MOL0     H89088   3.455   2.311   9.849 -1.4917  0.5397  0.9785
  646MOL0     H89089   3.455   2.606   9.796 -2.2157  1.1785 -3.2024
  646MOL0     H89090   3.335   2.512   9.882 -0.6890 -1.3548 -0.2822
  646MOL0     H89091   3.414   2.409   9.601 -2.0269 -1.1541 -2.4397
  646MOL0     H89092   3.258   2.417   9.691  0.0485  1.0905  1.1693
  646MOL0     H89093   3.309   2.673   9.651  2.0247 -1.3682  1.7389
  646MOL0     H89094   3.201   2.590   9.541 -0.3286 -1.2007  2.5469
  646MOL0     H89095   3.402   2.539   9.398  1.7675  1.5413 -1.8500
  646MOL0     H89096   3.366   2.706   9.409  3.0968  0.8763  1.6999
  646MOL0     H89097   3.549   2.834   9.584 -2.1008 -0.8256  1.0423
  646MOL0     H89098   3.822   2.887   9.611  1.5609 -0.8934 -0.7327
  646MOL0     H89099   3.930   2.761   9.600 -0.0484  1.4593 -0.4490
  646MOL0     H89100   3.741   2.839   9.828  1.6703  3.4835 -1.5810
  646MOL0     H89101   3.821   2.677   9.832  1.6199  1.1459  2.8149
  646MOL0     H89102   4.034   2.798   9.790  2.5689  2.7538  1.0815
  646MOL0     H89103   3.953   2.940   9.845 -0.8528 -0.2877 -0.0511
  646MOL0     H89104   4.007   2.688  10.019  0.0997 -1.2499 -0.9428
  646MOL0     H89105   4.024   2.873  10.048 -0.8471  1.4459 -1.1269
  646MOL0     H89106   3.901   2.611  10.232 -0.3114 -0.3911 -1.3017
  646MOL0     H89107   4.014   2.636  10.546  0.7289  1.6448 -1.4869
  646MOL0     H89108   3.933   2.528  10.441  0.4757 -0.0783  2.2849
  646MOL0     H89109   3.837   2.588  10.583  0.8166  2.8361  1.5285
  646MOL0     H89110   3.508   2.964  10.793  0.1543 -3.1867  0.4819
  646MOL0     H89111   3.508   3.014  11.039  1.0255 -1.4866  1.5024
  646MOL0     H89112   3.490   3.216  11.250 -1.6665 -2.5627  3.1860
  646MOL0     H89113   3.565   3.051  11.241 -0.0860  0.3283  0.6917
  646MOL0     H89114   3.531   3.214  11.445  0.6594  0.2586  1.9226
  646MOL0     H89115   3.669   3.107  11.435 -2.1023 -1.1695 -0.1668
  646MOL0     H89116   3.654   3.400  11.366 -0.2629 -1.4216  0.6876
  646MOL0     H89117   3.804   3.303  11.351  0.1761  2.0401  0.1715
  646MOL0     H89118   3.813   3.236  11.581 -0.8199 -0.4737  1.9514
  646MOL0     H89119   3.658   3.315  11.604 -0.2304  0.5002 -0.6307
  646MOL0     H89120   3.932   3.437  11.511  0.0502 -0.2474 -0.5135
  646MOL0     H89121   3.784   3.532  11.533  0.6597 -0.4424  1.0097
  646MOL0     H89122   3.900   3.365  11.771  0.3641  0.3120 -0.2033
  646MOL0     H89123   3.772   3.479  11.766 -0.9554  0.7073 -1.7321
  646MOL0     H89124   3.921   3.671  11.722 -0.3671 -0.3218  0.7908
  646MOL0     H89125   4.050   3.564  11.676  1.1810  1.8549  1.2265
  646MOL0     H89126   4.048   3.490  11.925  1.4340  1.4814  1.2345
  646MOL0     H89127   3.930   3.614  11.951 -0.7045  1.6154  0.0921
  646MOL0     H89128   3.885   3.211  10.996 -0.1504 -2.4956  1.4418
  646MOL0     H89129   3.901   3.134  10.759 -1.3371  2.1826  0.1527
  646MOL0     H89130   3.720   3.033  10.416  1.4146  1.0071 -1.0766
  646MOL0     H89131   3.722   2.995  10.180  1.0185  0.1949  0.2095
  646MOL0     H89132   3.556   2.368  10.426  2.6430  2.9215 -1.9716
  646MOL0     H89133   3.595   2.357  10.669 -0.0194  2.1773 -0.8491
  646MOL0     H89134   3.955   2.552  11.005  2.3285  0.3877  1.0919
  646MOL0     H89135   4.005   2.557  11.243 -3.4885  0.3458  0.4732
  646MOL0     H89136   4.002   2.169  11.493 -0.4042  1.2931 -0.6494
  646MOL0     H89137   4.151   2.194  11.400 -1.9972 -1.2728 -1.4963
  646MOL0     H89138   4.243   2.349  11.564  0.4620 -0.2502  1.0509
  646MOL0     H89139   4.201   2.198  11.646  0.8713 -0.5753 -0.8144
  646MOL0     H89140   4.139   2.386  11.791 -3.2771  1.9900  0.5338
  646MOL0     H89141   4.050   2.470  11.674 -2.1855 -0.2686 -0.4309
  646MOL0     H89142   3.927   2.238  11.666  0.2840  1.5283  0.2138
  646MOL0     H89143   3.876   2.369  11.771  0.4913  1.0233 -0.0061
  646MOL0     H89144   4.042   2.078  12.036 -3.0912 -1.4445 -0.2276
  646MOL0     H89145   3.935   2.150  11.279  2.9969  0.7027  1.0803
  646MOL0     H89146   3.734   2.092  11.029  0.4593 -0.8000  2.5644
  646MOL0     H89147   3.859   2.074  10.917 -3.3360  0.7019 -1.1421
  646MOL0     H89148   3.884   1.994  11.074  1.9083  0.3946 -0.8514
  647MOL0     O89149   8.063   0.132   3.410  1.2788 -0.1809 -0.5875
  647MOL0     C89150   7.996   0.037   3.369  1.1996  0.0137 -1.0115
  647MOL0     O89151   7.963   0.013   3.242  0.1448 -0.6239  0.4542
  647MOL0     C89152   8.005   0.108   3.146 -0.6418 -1.1131 -0.4951
  647MOL0     C89153   7.947   0.236   3.144  0.7901  0.2890  0.0583
  647MOL0     C89154   7.982   0.325   3.036 -0.7642 -1.0669 -0.6345
  647MOL0     C89155   8.074   0.287   2.934 -0.0914 -0.3536 -0.0332
  647MOL0     O89156   8.111   0.370   2.825 -0.3932  0.3165 -0.8806
  647MOL0     C89157   8.100   0.510   2.846  0.2814 -0.7570  0.9584
  647MOL0     C89158   8.170   0.582   2.735  0.3017 -0.4641  0.4587
  647MOL0     C89159   8.099   0.714   2.702  0.5004  0.1466  0.9797
  647MOL0     C89160   8.119   0.825   2.814  0.2492  0.2714 -0.0734
  647MOL0     C89161   8.049   0.960   2.782 -0.7971  0.1712  0.4977
  647MOL0     C89162   7.903   0.960   2.838  0.6335 -0.0811 -0.6059
  647MOL0     C89163   7.802   1.041   2.746 -0.4861 -0.1555 -1.0548
  647MOL0     C89164   7.845   1.173   2.685 -0.1772  0.5544  0.0489
  647MOL0     N89165   7.733   1.259   2.684  1.0289  0.0209  0.5590
  647MOL0     C89166   7.676   1.308   2.572  0.1375  0.3691  1.0756
  647MOL0     C89167   7.605   1.413   2.620  0.5851  0.1830  1.1738
  647MOL0     C89168   7.506   1.489   2.525 -1.1908 -0.5844 -0.4579
  647MOL0     C89169   7.588   1.547   2.401  1.5560 -0.7887 -0.1063
  647MOL0     C89170   7.492   1.627   2.309  0.6609 -0.4440 -0.5873
  647MOL0     C89171   7.482   1.772   2.374  0.1402  0.2166  0.0673
  647MOL0     O89172   7.362   1.832   2.324  0.4270 -0.8704 -0.7044
  647MOL0     C89173   7.359   1.908   2.214  0.4720 -0.0706  0.5111
  647MOL0     C89174   7.467   1.932   2.123 -0.4287  0.9018  0.0898
  647MOL0     C89175   7.439   1.999   2.004 -0.3158 -0.7718 -1.0308
  647MOL0     C89176   7.558   2.036   1.913 -0.1101  0.6970  0.3482
  647MOL0     C89177   7.311   2.043   1.969  0.3197  0.3804  0.3814
  647MOL0     C89178   7.278   2.097   1.838  0.8736  0.2033  0.9695
  647MOL0     O89179   7.193   2.028   1.758 -0.6296 -0.8508  0.4630
  647MOL0     C89180   7.156   2.096   1.646 -0.5379 -0.6976  1.2462
  647MOL0     C89181   7.032   2.160   1.631 -0.1111 -0.0884  0.0718
  647MOL0     C89182   7.002   2.232   1.516  0.9008  0.1226 -0.9910
  647MOL0     C89183   7.098   2.254   1.420 -0.3012 -0.9462 -0.3622
  647MOL0     O89184   7.084   2.329   1.306 -0.2785  0.1306  0.3147
  647MOL0     C89185   6.955   2.360   1.249 -0.2038 -0.0602  0.3812
  647MOL0     C89186   6.989   2.427   1.111  0.2854  0.2158  0.1191
  647MOL0     C89187   6.970   2.585   1.132  0.3956  0.4893 -0.2110
  647MOL0     C89188   7.104   2.649   1.164 -0.0984  0.4156 -0.9215
  647MOL0     C89189   7.088   2.778   1.232 -0.3154  0.1826  0.0319
  647MOL0     C89190   7.220   2.816   1.303 -0.7220  0.7484 -0.2814
  647MOL0     C89191   7.208   2.930   1.408  0.2513 -0.7093  0.5469
  647MOL0     C89192   7.274   2.921   1.547 -0.6322  0.9147 -0.8420
  647MOL0    Cl89193   7.209   3.063   1.627 -0.4975  0.1437 -0.4493
  647MOL0     C89194   7.220   2.195   1.434  0.1290  0.5957  0.7698
  647MOL0     C89195   7.253   2.124   1.547 -0.2556 -0.2234 -0.4980
  647MOL0     O89196   7.320   2.206   1.813 -1.0830 -1.1320  0.1541
  647MOL0     C89197   7.208   2.006   2.056 -0.7638 -0.4680 -1.1813
  647MOL0     C89198   7.237   1.943   2.171  0.3396  1.0157 -0.2899
  647MOL0     N89199   7.624   1.433   2.747  0.3062  0.4035  0.0042
  647MOL0     N89200   7.690   1.333   2.792 -0.1235  0.3899 -0.6796
  647MOL0     C89201   8.141   0.168   2.956 -0.1166  0.1862 -0.1298
  647MOL0     C89202   8.105   0.077   3.052 -0.3784 -0.4112  0.3122
  647MOL0     C89203   7.943  -0.056   3.476 -0.0148 -1.0041 -0.2556
  647MOL0     C89204   7.893  -0.174   3.423 -1.2324  0.6842 -0.5052
  647MOL0     C89205   7.854  -0.280   3.494 -0.1199  0.5824  0.8800
  647MOL0     C89206   7.841  -0.259   3.634 -0.9412 -0.2539  0.0548
  647MOL0     O89207   7.806  -0.369   3.709  0.5076 -0.3622  0.6314
  647MOL0     C89208   7.687  -0.347   3.786 -0.7225 -0.6420  0.1717
  647MOL0     C89209   7.678  -0.450   3.896 -0.2595 -0.2409 -0.3474
  647MOL0     C89210   7.544  -0.448   3.964 -0.8057 -0.8131 -0.8375
  647MOL0     C89211   7.511  -0.553   4.062 -0.1177  0.7425  0.0580
  647MOL0     C89212   7.379  -0.550   4.122 -0.6313 -0.1381 -0.7797
  647MOL0     C89213   7.271  -0.542   4.178  0.4494  0.0022  0.8413
  647MOL0     C89214   7.886  -0.138   3.699 -0.1125  0.9413 -0.8645
  647MOL0     C89215   7.948  -0.040   3.617 -0.4539  0.1190 -0.8251
  647MOL0     C89216   8.026   0.070   3.685  0.0008  0.2826  0.5653
  647MOL0     H89217   7.880   0.268   3.223 -1.8462 -1.5205 -1.3329
  647MOL0     H89218   7.940   0.424   3.016 -0.4032 -1.2170 -2.2759
  647MOL0     H89219   8.133   0.543   2.945  3.0745 -4.2344  1.3713
  647MOL0     H89220   7.997   0.540   2.825  0.7907 -0.3943 -1.3160
  647MOL0     H89221   8.269   0.609   2.774 -1.0486 -0.1652  4.0113
  647MOL0     H89222   8.164   0.518   2.646 -0.7715  0.3645 -0.0945
  647MOL0     H89223   8.149   0.748   2.611  0.3175  0.3705  0.9619
  647MOL0     H89224   7.993   0.699   2.682  0.8868 -1.9507  0.2512
  647MOL0     H89225   8.085   0.788   2.912  0.1057  0.3587 -0.0895
  647MOL0     H89226   8.224   0.855   2.821  0.9625 -1.3759 -2.5450
  647MOL0     H89227   8.042   0.966   2.673  0.3484 -0.7049  0.3623
  647MOL0     H89228   8.112   1.044   2.812  3.1782 -2.6137  0.7643
  647MOL0     H89229   7.875   0.854   2.843  0.7017 -0.0378  1.2933
  647MOL0     H89230   7.906   1.008   2.936  0.8870 -0.3301 -0.4877
  647MOL0     H89231   7.729   1.074   2.821  3.3993  4.0692  1.3495
  647MOL0     H89232   7.761   0.977   2.668  0.0714 -5.2054  2.3168
  647MOL0     H89233   7.927   1.210   2.748 -0.5807 -0.3216  1.1301
  647MOL0     H89234   7.889   1.168   2.585  0.2133  0.3730  0.2242
  647MOL0     H89235   7.682   1.264   2.473 -0.5262  0.2678  1.0765
  647MOL0     H89236   7.456   1.567   2.583 -0.9832  0.4017 -1.5781
  647MOL0     H89237   7.437   1.418   2.478 -2.0461 -0.2523  0.2700
  647MOL0     H89238   7.671   1.610   2.435  1.3279 -0.7984  0.4767
  647MOL0     H89239   7.617   1.463   2.337  0.3658  0.6690 -2.7015
  647MOL0     H89240   7.550   1.639   2.217  1.5701 -0.3022 -0.0187
  647MOL0     H89241   7.395   1.588   2.277 -0.1900  2.0985 -1.2928
  647MOL0     H89242   7.456   1.758   2.480 -2.7904  1.1449 -0.4229
  647MOL0     H89243   7.576   1.825   2.358  0.5607 -0.4644  0.2000
  647MOL0     H89244   7.571   1.909   2.141 -0.6088  0.9357  1.2524
  647MOL0     H89245   7.541   1.991   1.815  2.2204 -2.0640  1.0751
  647MOL0     H89246   7.654   2.009   1.957 -0.5109 -0.0491  0.7867
  647MOL0     H89247   7.551   2.145   1.901 -0.8617  0.3558 -3.4488
  647MOL0     H89248   6.954   2.162   1.706  0.4641  1.0105  0.6762
  647MOL0     H89249   6.907   2.286   1.514  0.0026 -1.3973 -2.9582
  647MOL0     H89250   6.885   2.276   1.240  1.1145 -1.1442 -0.0499
  647MOL0     H89251   6.902   2.429   1.316  0.6164 -0.9541  2.0202
  647MOL0     H89252   7.090   2.407   1.073  0.4142  0.9111  0.0743
  647MOL0     H89253   6.925   2.385   1.034  1.2997 -1.1247 -0.0345
  647MOL0     H89254   6.902   2.606   1.214 -0.1534 -0.0525 -0.5169
  647MOL0     H89255   6.918   2.619   1.042 -1.4153 -0.4954  0.4033
  647MOL0     H89256   7.165   2.679   1.078  0.6538  2.2505  0.1893
  647MOL0     H89257   7.166   2.579   1.221  0.2860  2.0972  0.8393
  647MOL0     H89258   7.045   2.857   1.169 -1.2920 -1.3709 -1.3523
  647MOL0     H89259   7.014   2.774   1.313  1.6537 -2.0687  1.8281
  647MOL0     H89260   7.295   2.856   1.234 -0.1268  0.4055  0.1586
  647MOL0     H89261   7.253   2.726   1.356  0.3136  2.5146  2.2332
  647MOL0     H89262   7.100   2.944   1.418  0.2850 -0.8966  1.2361
  647MOL0     H89263   7.239   3.022   1.358  0.0066 -0.5114  0.7593
  647MOL0     H89264   7.384   2.920   1.542 -0.5865 -0.6747 -0.1465
  647MOL0     H89265   7.239   2.839   1.611  0.6518  1.3197  0.4529
  647MOL0     H89266   7.286   2.207   1.348  1.8301  1.5632  2.1472
  647MOL0     H89267   7.352   2.078   1.549  0.4762  1.0226 -3.5390
  647MOL0     H89268   7.105   2.025   2.029 -1.2107 -1.6452 -0.4091
  647MOL0     H89269   7.163   1.931   2.250  0.5730 -0.6122 -0.2945
  647MOL0     H89270   8.215   0.147   2.879  0.5112  0.1122  0.4804
  647MOL0     H89271   8.158  -0.018   3.049  4.7635  2.1100 -0.6598
  647MOL0     H89272   7.887  -0.193   3.316 -0.0609  0.4552 -0.5457
  647MOL0     H89273   7.828  -0.382   3.466  5.5133 -1.5744  2.0429
  647MOL0     H89274   7.693  -0.253   3.841  2.2481 -0.9978  0.6203
  647MOL0     H89275   7.602  -0.354   3.718 -0.3181 -3.6094 -0.1798
  647MOL0     H89276   7.766  -0.425   3.955 -0.4755  2.5752 -1.0410
  647MOL0     H89277   7.696  -0.547   3.850 -3.3248 -1.4695  0.8079
  647MOL0     H89278   7.542  -0.354   4.021  1.3106 -0.2604 -1.5669
  647MOL0     H89279   7.460  -0.450   3.894 -2.1156  2.1117  0.4737
  647MOL0     H89280   7.581  -0.546   4.145 -0.5104 -0.5376  0.5118
  647MOL0     H89281   7.515  -0.643   4.000 -0.9039  2.0461 -2.0114
  647MOL0     H89282   7.178  -0.540   4.230  0.1881 -0.9528  0.4204
  647MOL0     H89283   7.911  -0.132   3.805 -0.5466  5.1765 -0.8648
  647MOL0     H89284   8.119   0.084   3.628 -0.9480 -0.1466 -1.1483
  647MOL0     H89285   7.958   0.155   3.676 -3.8966 -2.6128  0.0890
  647MOL0     H89286   8.052   0.057   3.791 -2.8028 -0.6976  1.2159
  648MOL0     O89287   7.306   5.634   2.560  0.3198  0.3846  0.2527
  648MOL0     C89288   7.292   5.732   2.638  0.3960  0.4669 -0.3705
  648MOL0     O89289   7.174   5.802   2.664  0.1813  0.5288  0.0436
  648MOL0     C89290   7.053   5.755   2.614 -0.3561 -0.1625 -0.1354
  648MOL0     C89291   7.023   5.784   2.480  0.2480  0.2358  0.7289
  648MOL0     C89292   6.894   5.751   2.434 -0.4368 -0.5081  0.1524
  648MOL0     C89293   6.802   5.670   2.515 -0.4198  1.0116 -0.4566
  648MOL0     O89294   6.699   5.628   2.446 -0.0106  0.0037  0.4536
  648MOL0     C89295   6.585   5.579   2.500  0.1054  0.9213 -0.2157
  648MOL0     C89296   6.492   5.692   2.532 -0.1578 -0.1591  0.2600
  648MOL0     C89297   6.480   5.797   2.413 -0.7312 -0.2988 -0.4302
  648MOL0     C89298   6.400   5.919   2.454  0.8643 -0.8700 -0.2355
  648MOL0     C89299   6.384   6.005   2.329  0.1421 -0.3670 -0.6265
  648MOL0     C89300   6.325   6.142   2.375 -0.3261  0.4955 -0.8463
  648MOL0     C89301   6.319   6.236   2.260  0.3839  1.1310 -0.3817
  648MOL0     C89302   6.333   6.376   2.300 -0.9015 -1.1900  0.5542
  648MOL0     N89303   6.467   6.413   2.344  0.2371  0.5209  0.0773
  648MOL0     C89304   6.509   6.435   2.471 -0.4560  0.3838 -1.4864
  648MOL0     C89305   6.646   6.433   2.477 -0.0612  0.3884  0.9627
  648MOL0     C89306   6.745   6.458   2.596 -0.6085  0.6508 -0.2392
  648MOL0     C89307   6.871   6.364   2.587 -0.3889  0.3240 -0.2344
  648MOL0     C89308   6.838   6.215   2.643 -0.0524  0.1680 -0.3534
  648MOL0     C89309   6.948   6.110   2.614  0.1604 -0.5276  0.0483
  648MOL0     O89310   7.026   6.083   2.729 -1.0245 -0.8469 -0.8702
  648MOL0     C89311   7.134   6.155   2.778 -0.3152  0.3645  0.5854
  648MOL0     C89312   7.160   6.123   2.909  0.5875  0.0699  0.0422
  648MOL0     C89313   7.256   6.200   2.983  0.4477  0.0128  0.6289
  648MOL0     C89314   7.277   6.164   3.130  0.1303  0.3615  0.1069
  648MOL0     C89315   7.335   6.300   2.911  0.7489  0.3227  0.1425
  648MOL0     C89316   7.453   6.373   2.970  0.2912 -1.0021 -0.5604
  648MOL0     O89317   7.490   6.494   2.914 -0.1864 -0.5662  0.4188
  648MOL0     C89318   7.588   6.582   2.963  0.0137 -0.0544  0.6063
  648MOL0     C89319   7.658   6.575   3.087 -0.6939  0.1721 -0.9185
  648MOL0     C89320   7.757   6.664   3.121  0.5830  0.5449 -0.7931
  648MOL0     C89321   7.791   6.771   3.025  0.3192  0.7822 -0.2797
  648MOL0     O89322   7.887   6.862   3.054  0.0030 -0.9625  0.9191
  648MOL0     C89323   7.921   6.967   2.958 -0.3324  1.4637  0.0514
  648MOL0     C89324   8.047   7.035   3.021  0.1631 -1.0204  0.0488
  648MOL0     C89325   8.108   7.156   2.935  0.4934 -0.7006  0.1004
  648MOL0     C89326   8.136   7.112   2.787  0.3610 -0.2470  0.2376
  648MOL0     C89327   8.239   7.204   2.708 -0.2435 -0.7776 -0.5269
  648MOL0     C89328   8.262   7.176   2.566  0.2661  0.2854 -0.4471
  648MOL0     C89329   8.145   7.193   2.461 -0.6884 -0.5474  1.0950
  648MOL0     C89330   8.172   7.284   2.335  0.1966 -0.5569 -0.2370
  648MOL0    Cl89331   8.308   7.227   2.241 -0.2187 -0.0278 -0.3243
  648MOL0     C89332   7.719   6.775   2.906  0.4138 -0.8990 -0.5608
  648MOL0     C89333   7.618   6.688   2.874 -0.0127 -0.9349 -0.1535
  648MOL0     O89334   7.496   6.319   3.069  0.0090  1.3773  0.7583
  648MOL0     C89335   7.311   6.327   2.779 -0.7090  0.8304 -0.1122
  648MOL0     C89336   7.204   6.260   2.715 -0.0390  0.7756  0.5407
  648MOL0     N89337   6.683   6.425   2.343  0.8054  0.2943 -0.5248
  648MOL0     N89338   6.577   6.399   2.272  0.4580 -0.7484 -0.3657
  648MOL0     C89339   6.842   5.634   2.644  0.0217 -0.2135 -0.3078
  648MOL0     C89340   6.964   5.689   2.697 -0.5624  0.0049  0.0833
  648MOL0     C89341   7.414   5.784   2.709 -0.4995 -0.2806  0.4614
  648MOL0     C89342   7.395   5.863   2.827  0.5651  0.8739 -0.1007
  648MOL0     C89343   7.497   5.912   2.896 -0.6763 -0.2642  0.5583
  648MOL0     C89344   7.625   5.891   2.857  0.1601 -0.4299  0.4794
  648MOL0     O89345   7.735   5.939   2.922  0.6997 -0.3038  0.9957
  648MOL0     C89346   7.711   6.034   3.028 -0.0206 -0.0876 -0.5152
  648MOL0     C89347   7.845   6.099   3.059 -0.1226 -1.3915  0.5650
  648MOL0     C89348   7.844   6.165   3.195  0.3860  0.4852  0.3306
  648MOL0     C89349   7.960   6.252   3.226 -0.1359  0.4271 -1.3475
  648MOL0     C89350   8.090   6.174   3.216  0.3960 -0.3445  0.1313
  648MOL0     C89351   8.184   6.105   3.185  0.5529  0.4273 -1.2155
  648MOL0     C89352   7.647   5.823   2.732 -0.8640 -1.0582  0.6263
  648MOL0     C89353   7.547   5.767   2.655  0.4642  0.2942 -0.0423
  648MOL0     C89354   7.580   5.693   2.527  0.2116 -0.6878  0.1409
  648MOL0     H89355   7.073   5.841   2.402 -0.1612 -1.5340 -0.8842
  648MOL0     H89356   6.870   5.790   2.336 -0.3242 -1.1867 -0.1483
  648MOL0     H89357   6.598   5.518   2.590  0.1084 -0.8568 -1.3606
  648MOL0     H89358   6.544   5.517   2.419  3.3633  0.3881 -1.6076
  648MOL0     H89359   6.394   5.660   2.566 -0.3583 -1.8592 -1.7190
  648MOL0     H89360   6.546   5.757   2.601  1.1687  0.2871 -1.1332
  648MOL0     H89361   6.573   5.830   2.367 -1.5895  1.9168 -0.7230
  648MOL0     H89362   6.425   5.744   2.335 -2.1633  1.1828 -0.5045
  648MOL0     H89363   6.301   5.884   2.488  0.7370 -0.1250  0.1746
  648MOL0     H89364   6.463   5.966   2.530 -0.1896  3.3889 -1.7317
  648MOL0     H89365   6.314   5.967   2.254 -1.8752  1.1291  0.3718
  648MOL0     H89366   6.481   6.032   2.287 -0.8477  1.5063 -1.8100
  648MOL0     H89367   6.227   6.138   2.424  0.2614 -0.6789  0.3208
  648MOL0     H89368   6.393   6.182   2.451  0.2048 -2.8139  0.6068
  648MOL0     H89369   6.218   6.229   2.218  0.7967  0.8287 -1.3276
  648MOL0     H89370   6.386   6.209   2.178  1.5329  0.4292  0.7403
  648MOL0     H89371   6.332   6.438   2.210 -0.9942 -1.4783  0.3546
  648MOL0     H89372   6.257   6.409   2.371 -0.8958  0.2043 -0.0509
  648MOL0     H89373   6.439   6.453   2.552  1.4324  1.6933 -0.0602
  648MOL0     H89374   6.688   6.464   2.690 -1.4793  3.0663 -0.8743
  648MOL0     H89375   6.772   6.562   2.578 -2.4294  0.9154 -1.7519
  648MOL0     H89376   6.909   6.357   2.485  0.5283 -2.9086  0.2202
  648MOL0     H89377   6.956   6.393   2.649 -0.4326 -1.3275  0.6538
  648MOL0     H89378   6.833   6.230   2.751 -0.1686 -2.4004  0.0624
  648MOL0     H89379   6.739   6.177   2.617 -0.3672  0.4562  0.4129
  648MOL0     H89380   6.902   6.012   2.599 -0.3572 -0.1679 -0.7716
  648MOL0     H89381   7.010   6.137   2.528  1.2279 -2.4142  0.1747
  648MOL0     H89382   7.115   6.031   2.946  0.5349  0.2895  0.5230
  648MOL0     H89383   7.299   6.254   3.188 -2.5446  0.0201  1.8514
  648MOL0     H89384   7.366   6.104   3.152 -0.0246  0.1236  0.0815
  648MOL0     H89385   7.190   6.115   3.176  2.0253 -1.4078  2.0931
  648MOL0     H89386   7.615   6.500   3.153 -0.2122 -0.5049 -1.3632
  648MOL0     H89387   7.803   6.669   3.220  1.5323 -1.2108 -1.1035
  648MOL0     H89388   7.943   6.939   2.855 -1.3348  2.1253 -0.3578
  648MOL0     H89389   7.837   7.037   2.952 -0.3846  1.6570  2.1781
  648MOL0     H89390   8.035   7.067   3.125 -1.5642  0.9037 -0.6721
  648MOL0     H89391   8.129   6.962   3.020  1.3895  0.3256  0.3093
  648MOL0     H89392   8.205   7.187   2.974  1.1594 -1.1765 -1.1255
  648MOL0     H89393   8.037   7.239   2.939 -0.1643 -1.1082  6.4091
  648MOL0     H89394   8.046   7.118   2.725 -0.5052 -0.5119  1.4360
  648MOL0     H89395   8.175   7.010   2.784 -0.1426 -0.4257 -2.1734
  648MOL0     H89396   8.217   7.311   2.716  2.5031 -0.2771  1.5947
  648MOL0     H89397   8.333   7.201   2.763 -0.5431 -0.1688  0.0379
  648MOL0     H89398   8.301   7.075   2.549  1.0609  0.4091  0.5890
  648MOL0     H89399   8.324   7.261   2.537 -0.8358  0.8657 -1.2184
  648MOL0     H89400   8.063   7.242   2.514 -0.8104  0.1208  0.2964
  648MOL0     H89401   8.111   7.096   2.424  1.0427 -0.6203 -0.4594
  648MOL0     H89402   8.193   7.386   2.369 -0.6217 -0.3654 -0.3017
  648MOL0     H89403   8.088   7.294   2.266 -0.3025  1.2133  0.5884
  648MOL0     H89404   7.737   6.858   2.838  0.8081 -1.3199 -0.9846
  648MOL0     H89405   7.561   6.687   2.782  1.6874  1.2448 -1.3156
  648MOL0     H89406   7.354   6.399   2.710 -0.1870  0.8385  0.2104
  648MOL0     H89407   7.178   6.301   2.618 -0.0885  0.6668  0.5077
  648MOL0     H89408   6.774   5.579   2.707 -0.2910 -0.7014 -1.0561
  648MOL0     H89409   7.011   5.675   2.794 -1.3002 -2.0684  0.1847
  648MOL0     H89410   7.295   5.861   2.870  0.5387 -1.4012 -0.1154
  648MOL0     H89411   7.464   5.965   2.985 -0.9641  0.9480 -0.2361
  648MOL0     H89412   7.644   6.114   2.995 -0.6905 -0.5098 -0.2010
  648MOL0     H89413   7.672   5.986   3.119  0.0545 -0.3899 -0.6407
  648MOL0     H89414   7.863   6.170   2.978 -0.2298 -1.8354  0.1477
  648MOL0     H89415   7.919   6.020   3.058 -1.1476 -2.5282 -3.1566
  648MOL0     H89416   7.759   6.234   3.202 -0.9279 -1.1091  0.5701
  648MOL0     H89417   7.831   6.087   3.270 -1.5686  1.1356  0.7425
  648MOL0     H89418   7.946   6.291   3.328  2.4487  0.1437 -0.8279
  648MOL0     H89419   7.965   6.339   3.160 -0.1280  0.0007 -1.9091
  648MOL0     H89420   8.270   6.044   3.166  0.4737  0.1857 -0.8350
  648MOL0     H89421   7.751   5.821   2.701 -0.4965  0.6588  1.5996
  648MOL0     H89422   7.499   5.726   2.461 -1.1488 -4.7471 -0.4953
  648MOL0     H89423   7.674   5.725   2.482  0.5232 -0.6948  0.7778
  648MOL0     H89424   7.569   5.584   2.528  0.9334 -0.7803 -0.8722
  649MOL0     O89425   7.611   0.405   3.036 -0.4125  0.2416 -0.8665
  649MOL0     C89426   7.540   0.327   2.979  0.0562  0.9716  0.2994
  649MOL0     O89427   7.472   0.350   2.862 -0.2400  0.3541 -0.0621
  649MOL0     C89428   7.514   0.473   2.805  0.5380  0.5517 -0.7105
  649MOL0     C89429   7.406   0.569   2.795 -0.3689  0.5196  0.1676
  649MOL0     C89430   7.428   0.693   2.730 -0.0628  0.0485  0.6268
  649MOL0     C89431   7.557   0.712   2.690 -0.1072  0.7576 -0.1787
  649MOL0     O89432   7.580   0.825   2.627 -0.0956  0.1751  0.2922
  649MOL0     C89433   7.647   0.810   2.496  1.0507  0.0588 -1.0677
  649MOL0     C89434   7.634   0.950   2.430  0.1985 -0.0971 -0.1754
  649MOL0     C89435   7.496   0.980   2.378 -0.4757  0.4838 -0.7831
  649MOL0     C89436   7.470   1.125   2.331 -0.9535  0.5556 -0.3858
  649MOL0     C89437   7.365   1.126   2.227  0.4732 -0.1425 -0.7239
  649MOL0     C89438   7.221   1.088   2.291  0.1925 -0.5916  0.0291
  649MOL0     C89439   7.119   1.048   2.174 -0.2628  0.8772 -1.0938
  649MOL0     C89440   6.979   1.040   2.241  0.7297  0.3031 -0.5958
  649MOL0     N89441   6.892   0.965   2.146  0.5362 -0.0470  0.1276
  649MOL0     C89442   6.809   1.029   2.060 -1.1371  0.3185 -0.2412
  649MOL0     C89443   6.723   0.940   2.012  0.2395  0.2753  0.3925
  649MOL0     C89444   6.622   0.950   1.900 -0.4689 -0.8683 -0.3988
  649MOL0     C89445   6.643   0.850   1.794 -0.0332 -0.3172 -0.4104
  649MOL0     C89446   6.754   0.898   1.701 -0.1800  0.4154  0.1959
  649MOL0     C89447   6.709   1.034   1.634 -0.6463  0.3413  0.0199
  649MOL0     O89448   6.779   1.150   1.692 -0.2448 -0.3154  0.1608
  649MOL0     C89449   6.906   1.170   1.659 -0.8061 -0.1904  0.6220
  649MOL0     C89450   6.933   1.228   1.539 -0.5669  0.8945  1.6356
  649MOL0     C89451   7.060   1.262   1.483  0.2273  1.7487  0.2135
  649MOL0     C89452   7.072   1.314   1.337 -0.1246  0.2516  0.6383
  649MOL0     C89453   7.166   1.226   1.565  0.6899 -0.1908 -0.6635
  649MOL0     C89454   7.311   1.262   1.533  1.0188 -0.4685 -0.1919
  649MOL0     O89455   7.398   1.237   1.632 -0.6308 -0.5424  0.5509
  649MOL0     C89456   7.529   1.279   1.619  1.6817  0.7252  0.0456
  649MOL0     C89457   7.616   1.239   1.516  0.1541 -0.3162 -0.1128
  649MOL0     C89458   7.747   1.287   1.510  0.1054 -0.5048  0.3773
  649MOL0     C89459   7.797   1.355   1.620  0.5166  0.1979 -0.3687
  649MOL0     O89460   7.931   1.389   1.639 -0.0688 -0.5390  0.1329
  649MOL0     C89461   8.017   1.391   1.521 -0.0333 -0.4911  0.8062
  649MOL0     C89462   8.153   1.451   1.556 -1.5649  0.4667 -0.3323
  649MOL0     C89463   8.229   1.390   1.677 -0.8668  0.1851 -0.5504
  649MOL0     C89464   8.193   1.243   1.712 -0.2383 -0.0468 -0.1384
  649MOL0     C89465   8.265   1.186   1.833  0.3350 -1.1151 -1.1730
  649MOL0     C89466   8.418   1.161   1.813  0.2602  0.3550  0.0747
  649MOL0     C89467   8.498   1.133   1.938  0.6155  0.7647 -0.7555
  649MOL0     C89468   8.627   1.075   1.900  0.2630 -0.1586 -0.9464
  649MOL0    Cl89469   8.613   0.959   1.758 -0.4243 -0.0613  0.0383
  649MOL0     C89470   7.711   1.383   1.728 -0.1831  0.9487 -0.1812
  649MOL0     C89471   7.578   1.347   1.734 -0.3094 -0.8188 -0.1111
  649MOL0     O89472   7.336   1.298   1.420 -0.4716  0.3205 -1.0246
  649MOL0     C89473   7.137   1.173   1.696  0.0128 -0.3076 -0.2209
  649MOL0     C89474   7.002   1.151   1.751 -0.3648 -1.1238  0.3479
  649MOL0     N89475   6.764   0.811   2.067  0.6714 -0.3379  0.3799
  649MOL0     N89476   6.861   0.831   2.159 -0.2456  0.0410  0.8408
  649MOL0     C89477   7.663   0.628   2.716 -0.9071  0.0057  0.1547
  649MOL0     C89478   7.644   0.503   2.764  0.0680 -0.3404 -0.7103
  649MOL0     C89479   7.519   0.198   3.046  0.7086 -0.1433  0.1174
  649MOL0     C89480   7.621   0.104   3.068 -0.4579 -0.5743 -0.0569
  649MOL0     C89481   7.596  -0.020   3.130  0.0612  0.6037 -0.3916
  649MOL0     C89482   7.468  -0.043   3.183 -0.5508  0.5226  0.4144
  649MOL0     O89483   7.448  -0.163   3.252  0.8236  0.5286 -0.9117
  649MOL0     C89484   7.513  -0.187   3.375  0.3362 -0.7069  0.2115
  649MOL0     C89485   7.535  -0.338   3.392 -0.5189 -0.1833  0.5190
  649MOL0     C89486   7.427  -0.431   3.320  0.6665 -0.7183  0.3589
  649MOL0     C89487   7.459  -0.471   3.175  0.4328  0.7525 -0.0591
  649MOL0     C89488   7.341  -0.467   3.082 -0.3990 -0.9782  0.1455
  649MOL0     C89489   7.264  -0.461   2.994 -0.1869  0.3220  0.5546
  649MOL0     C89490   7.361   0.050   3.169 -0.3756 -0.2160 -0.1481
  649MOL0     C89491   7.386   0.175   3.098 -0.8039 -1.0415 -0.9324
  649MOL0     C89492   7.283   0.281   3.088 -0.3561 -0.4248 -0.1993
  649MOL0     H89493   7.317   0.550   2.853 -0.1381  0.1338  0.3995
  649MOL0     H89494   7.347   0.766   2.734  0.5147  0.7385  0.0597
  649MOL0     H89495   7.587   0.749   2.428 -0.8201  0.6471 -0.0315
  649MOL0     H89496   7.747   0.769   2.513  0.8989  0.3351  0.6140
  649MOL0     H89497   7.659   1.033   2.496 -1.5009  2.1832 -2.2365
  649MOL0     H89498   7.712   0.947   2.354  5.1639  0.0195  4.3078
  649MOL0     H89499   7.477   0.907   2.299 -0.8409  2.0960 -2.2605
  649MOL0     H89500   7.433   0.961   2.465 -0.6396  0.4248 -0.9142
  649MOL0     H89501   7.445   1.186   2.418 -2.6098 -3.4907  2.3095
  649MOL0     H89502   7.555   1.159   2.271 -1.6861 -0.6567 -2.1802
  649MOL0     H89503   7.395   1.051   2.153  0.5006 -2.0703  1.1605
  649MOL0     H89504   7.352   1.221   2.173  0.9843  0.6001  0.4211
  649MOL0     H89505   7.235   1.008   2.364  0.5337  1.1467  1.9666
  649MOL0     H89506   7.176   1.176   2.339 -1.5237 -1.5267  0.2503
  649MOL0     H89507   7.145   0.953   2.125 -1.1249  0.3510 -0.5573
  649MOL0     H89508   7.107   1.133   2.107  3.1643  1.9393 -0.5694
  649MOL0     H89509   6.985   0.990   2.338  1.5043  4.5040  1.7736
  649MOL0     H89510   6.950   1.145   2.251 -0.4697  0.2134 -2.6599
  649MOL0     H89511   6.822   1.130   2.023  1.1957  0.4913  0.8200
  649MOL0     H89512   6.627   1.054   1.864 -0.3254 -1.1733 -1.3034
  649MOL0     H89513   6.520   0.928   1.930  0.2960 -0.0320  3.2399
  649MOL0     H89514   6.667   0.750   1.833 -0.1385 -1.1869 -2.4531
  649MOL0     H89515   6.554   0.833   1.733 -1.4364 -0.6677  1.6075
  649MOL0     H89516   6.853   0.909   1.745 -0.3601  0.4683  0.5893
  649MOL0     H89517   6.757   0.826   1.619 -1.1798 -0.9903  1.3652
  649MOL0     H89518   6.732   1.029   1.527 -0.6789  1.6091 -0.0632
  649MOL0     H89519   6.601   1.043   1.645 -0.7939  1.1722 -1.7275
  649MOL0     H89520   6.859   1.268   1.470  0.1239  1.8445  1.4222
  649MOL0     H89521   7.091   1.227   1.273 -2.2975  0.8347 -0.9593
  649MOL0     H89522   7.137   1.401   1.326  0.7513 -0.6923 -3.9241
  649MOL0     H89523   6.975   1.341   1.294  1.0775  1.7678 -1.3020
  649MOL0     H89524   7.582   1.171   1.438  0.5888 -1.1714  0.4177
  649MOL0     H89525   7.808   1.264   1.423 -1.9783  0.0681 -1.3304
  649MOL0     H89526   8.039   1.289   1.489  3.6078  1.1069 -2.7084
  649MOL0     H89527   7.965   1.444   1.441 -0.9355 -4.0571 -1.1953
  649MOL0     H89528   8.212   1.450   1.464  0.9377  2.3733  1.1155
  649MOL0     H89529   8.140   1.560   1.557  0.1577  0.7013 -0.3183
  649MOL0     H89530   8.206   1.447   1.767  0.5755 -2.5826  1.7372
  649MOL0     H89531   8.335   1.401   1.652 -1.2308  1.8957 -1.5606
  649MOL0     H89532   8.223   1.191   1.622  1.2845  1.4837 -0.5784
  649MOL0     H89533   8.086   1.226   1.729  0.2910 -3.4135  0.4034
  649MOL0     H89534   8.252   1.255   1.917 -1.4885  0.3535 -2.5844
  649MOL0     H89535   8.217   1.092   1.862  0.0675 -1.0634 -1.4542
  649MOL0     H89536   8.462   1.252   1.771 -1.9481  2.4523  2.0616
  649MOL0     H89537   8.422   1.082   1.738 -2.0696 -0.6689  0.9517
  649MOL0     H89538   8.454   1.067   2.014  0.4861 -0.1549 -1.6229
  649MOL0     H89539   8.509   1.223   1.999  1.3244  0.5916 -0.6179
  649MOL0     H89540   8.658   1.024   1.992  3.9661  0.6573 -1.5813
  649MOL0     H89541   8.709   1.144   1.879  1.0700 -1.2049 -1.3277
  649MOL0     H89542   7.756   1.423   1.818 -0.3226 -1.8003  1.2396
  649MOL0     H89543   7.517   1.365   1.822 -0.6728 -3.7083  0.3240
  649MOL0     H89544   7.221   1.141   1.757 -0.2698  0.2828  0.4916
  649MOL0     H89545   6.985   1.112   1.851  2.0955  1.4038  1.8719
  649MOL0     H89546   7.765   0.659   2.699  0.3779 -3.9995 -0.4348
  649MOL0     H89547   7.717   0.432   2.801 -3.9232 -2.9663  3.1032
  649MOL0     H89548   7.719   0.115   3.023  1.0641 -2.5819  2.5163
  649MOL0     H89549   7.671  -0.098   3.124 -0.3807  0.0365  1.1046
  649MOL0     H89550   7.614  -0.147   3.359  0.9031 -2.1075  0.0642
  649MOL0     H89551   7.465  -0.152   3.466  0.6071 -0.3439  0.2143
  649MOL0     H89552   7.524  -0.366   3.498  1.8561 -1.6587  0.4664
  649MOL0     H89553   7.638  -0.357   3.361  0.3517  1.7120  2.0644
  649MOL0     H89554   7.431  -0.525   3.377 -1.8295  0.6824  3.1062
  649MOL0     H89555   7.324  -0.397   3.329  1.0303  1.1899 -1.9313
  649MOL0     H89556   7.517  -0.564   3.169  0.4398  0.6001  1.7208
  649MOL0     H89557   7.521  -0.396   3.126 -2.7603  3.2651 -0.5495
  649MOL0     H89558   7.190  -0.463   2.917 -0.8313  0.9163  1.1434
  649MOL0     H89559   7.263   0.025   3.208 -1.9080  3.0439 -1.5225
  649MOL0     H89560   7.246   0.288   2.985  0.0355  0.9177 -0.2694
  649MOL0     H89561   7.205   0.279   3.164  1.7756  3.0351  2.3771
  649MOL0     H89562   7.334   0.378   3.088 -0.7151 -0.2285 -0.6573
  650MOL0     O89563   0.525   6.090   2.231 -0.3989 -0.1648 -0.8297
  650MOL0     C89564   0.596   6.061   2.328  0.5983  0.7258 -1.3001
  650MOL0     O89565   0.725   6.031   2.318 -0.4538  0.4177  0.3824
  650MOL0     C89566   0.763   5.988   2.193  0.2265  0.1183 -1.7935
  650MOL0     C89567   0.829   6.079   2.115 -0.1516  0.3320 -0.3290
  650MOL0     C89568   0.888   6.036   1.990 -0.7543 -0.3630  1.0122
  650MOL0     C89569   0.888   5.901   1.951  0.3401 -0.8991 -0.8386
  650MOL0     O89570   0.935   5.844   1.834 -0.1457 -0.0445 -0.3760
  650MOL0     C89571   0.978   5.929   1.727  0.3682 -0.5472 -0.1546
  650MOL0     C89572   1.013   5.841   1.606  0.3390  0.4937  0.4658
  650MOL0     C89573   1.060   5.929   1.489  0.9550  0.0361  0.6519
  650MOL0     C89574   1.098   5.853   1.362 -0.3040  0.3637 -0.0718
  650MOL0     C89575   1.202   5.926   1.267  0.1040 -0.4142  0.0294
  650MOL0     C89576   1.130   6.044   1.194 -1.0737  0.0351 -0.3776
  650MOL0     C89577   1.236   6.114   1.095  0.0510 -0.4246 -0.9257
  650MOL0     C89578   1.375   6.157   1.154 -0.3236  0.6249  0.1120
  650MOL0     N89579   1.398   6.249   1.272 -0.4528 -0.5547  0.0783
  650MOL0     C89580   1.343   6.373   1.287  0.4697 -1.6171  0.3219
  650MOL0     C89581   1.354   6.397   1.423 -0.2271 -0.0063  0.3695
  650MOL0     C89582   1.321   6.526   1.485 -0.3923 -0.4955 -0.3962
  650MOL0     C89583   1.273   6.511   1.630  0.6069 -0.3635 -0.5611
  650MOL0     C89584   1.133   6.440   1.639 -1.1406 -0.3046 -0.1249
  650MOL0     C89585   1.110   6.400   1.784 -0.0980 -0.2124  0.1565
  650MOL0     O89586   1.113   6.522   1.859  0.3960 -0.2587 -0.3064
  650MOL0     C89587   1.013   6.542   1.953 -0.4914 -0.6193  0.1953
  650MOL0     C89588   0.896   6.464   1.993 -0.0714  0.3348  0.7396
  650MOL0     C89589   0.802   6.516   2.094 -0.2244  0.5643 -0.7326
  650MOL0     C89590   0.683   6.434   2.109  0.2589 -0.8937 -0.3317
  650MOL0     C89591   0.826   6.643   2.153 -0.0373  0.5720 -0.0620
  650MOL0     C89592   0.732   6.704   2.243 -0.1109 -0.0262  0.7335
  650MOL0     O89593   0.735   6.843   2.238  0.5302 -0.1932  1.0613
  650MOL0     C89594   0.632   6.909   2.305 -1.1560 -0.2595 -0.8898
  650MOL0     C89595   0.618   6.896   2.445  0.3964 -0.4265 -0.7066
  650MOL0     C89596   0.516   6.969   2.514  0.1025 -0.6406  0.3514
  650MOL0     C89597   0.422   7.057   2.450 -0.0120  0.0048  0.9806
  650MOL0     O89598   0.317   7.133   2.504  0.0760  0.2030  0.6056
  650MOL0     C89599   0.236   7.055   2.584  0.3773  0.6087 -0.5968
  650MOL0     C89600   0.107   7.129   2.608 -0.0643 -0.0712 -0.2151
  650MOL0     C89601  -0.011   7.039   2.630 -0.2142 -0.5169  0.1734
  650MOL0     C89602  -0.094   6.994   2.511  0.2424  0.5063  0.1639
  650MOL0     C89603  -0.194   7.107   2.447  0.7139  0.1896 -0.2918
  650MOL0     C89604  -0.283   7.045   2.336 -0.1179  0.2300 -0.5607
  650MOL0     C89605  -0.379   7.147   2.296  0.2243 -0.1830 -0.5244
  650MOL0     C89606  -0.490   7.091   2.200 -0.5771  0.6194  0.9006
  650MOL0    Cl89607  -0.404   7.043   2.043  0.0437 -0.1156  0.1888
  650MOL0     C89608   0.441   7.068   2.309  0.8062 -0.8635  0.0458
  650MOL0     C89609   0.535   6.988   2.237  1.0727  0.6295  0.1384
  650MOL0     O89610   0.661   6.634   2.313  0.0941  0.0443 -0.2255
  650MOL0     C89611   0.951   6.709   2.131  0.3457 -0.1802  0.2494
  650MOL0     C89612   1.035   6.654   2.030  0.0368 -0.6340  0.5634
  650MOL0     N89613   1.407   6.289   1.485 -0.2675 -0.3653 -0.2210
  650MOL0     N89614   1.436   6.206   1.396 -0.0386 -0.1068  1.0081
  650MOL0     C89615   0.827   5.808   2.046  0.7779  0.1291  0.1891
  650MOL0     C89616   0.776   5.855   2.163 -0.3068 -0.9931 -0.3153
  650MOL0     C89617   0.522   6.064   2.456  0.4452 -0.7973  0.9871
  650MOL0     C89618   0.410   6.143   2.474  0.0264 -0.3640 -0.2939
  650MOL0     C89619   0.330   6.142   2.587 -0.6976  0.8679 -1.0622
  650MOL0     C89620   0.358   6.044   2.682  0.0252 -0.1805 -0.8999
  650MOL0     O89621   0.275   6.043   2.795  0.3130 -0.2654  0.3733
  650MOL0     C89622   0.136   6.068   2.781  0.7255  0.0618 -0.0734
  650MOL0     C89623   0.067   6.030   2.910 -0.7959  0.8088  0.1787
  650MOL0     C89624   0.128   6.097   3.034  0.0713 -0.7985 -0.3343
  650MOL0     C89625   0.173   6.235   3.016 -0.3561  1.1724  0.1407
  650MOL0     C89626   0.077   6.346   3.000 -0.4812  0.0187 -0.1240
  650MOL0     C89627   0.006   6.437   3.009  0.5755  0.3756 -0.2510
  650MOL0     C89628   0.464   5.961   2.664  0.7234 -0.4765 -0.2707
  650MOL0     C89629   0.543   5.967   2.556 -0.2960  0.3748  0.4936
  650MOL0     C89630   0.657   5.876   2.553  1.2366  1.0714 -0.0843
  650MOL0     H89631   0.837   6.180   2.154  0.4735  0.5347 -0.9642
  650MOL0     H89632   0.916   6.110   1.916 -1.0516 -4.3335 -3.5238
  650MOL0     H89633   1.069   5.986   1.747  0.1724  0.1704 -1.1976
  650MOL0     H89634   0.896   5.999   1.708  1.2913  1.3435  2.2821
  650MOL0     H89635   1.092   5.767   1.621 -0.7874 -1.3824 -2.0962
  650MOL0     H89636   0.934   5.787   1.554  2.2411  1.0090 -3.3744
  650MOL0     H89637   0.973   5.990   1.462 -0.0957 -0.5740  2.4931
  650MOL0     H89638   1.134   6.003   1.521 -0.0019  1.5192 -0.4395
  650MOL0     H89639   1.155   5.766   1.397 -0.7553  0.6631  1.4865
  650MOL0     H89640   1.005   5.834   1.309  0.4972 -1.8503 -0.8013
  650MOL0     H89641   1.254   5.858   1.199  3.3856  1.1425  0.7398
  650MOL0     H89642   1.282   5.966   1.331  0.3522  3.8842 -2.5836
  650MOL0     H89643   1.052   5.997   1.135  0.1184 -0.6827 -1.4327
  650MOL0     H89644   1.101   6.121   1.267  0.2638 -0.7740  1.0568
  650MOL0     H89645   1.192   6.211   1.069 -3.3067 -1.5129  0.1511
  650MOL0     H89646   1.238   6.054   1.004 -0.9927 -4.4874  1.4688
  650MOL0     H89647   1.414   6.059   1.181 -1.7400  0.5481  2.1026
  650MOL0     H89648   1.430   6.201   1.070  0.4076  1.9773  1.2433
  650MOL0     H89649   1.322   6.444   1.207  0.7749  0.4691  1.9827
  650MOL0     H89650   1.241   6.582   1.436 -1.4607  2.4724  4.0535
  650MOL0     H89651   1.413   6.585   1.489  2.0296 -3.9891  0.7140
  650MOL0     H89652   1.345   6.459   1.693 -0.9060  1.4474  2.9465
  650MOL0     H89653   1.272   6.611   1.674  1.0934 -0.5146 -0.1950
  650MOL0     H89654   1.059   6.512   1.603 -2.0080 -0.7344  0.7730
  650MOL0     H89655   1.131   6.345   1.585 -4.5519 -0.3204 -0.1778
  650MOL0     H89656   1.031   6.325   1.796  0.1382 -1.3168 -3.8179
  650MOL0     H89657   1.198   6.342   1.811 -0.1043 -0.9460 -1.3167
  650MOL0     H89658   0.883   6.370   1.940  0.3512  0.8994 -0.3958
  650MOL0     H89659   0.704   6.377   2.200  1.1848  2.4706  1.7468
  650MOL0     H89660   0.675   6.359   2.030 -1.1861 -0.1358 -0.9489
  650MOL0     H89661   0.590   6.491   2.120 -0.3314 -1.4132 -2.1609
  650MOL0     H89662   0.696   6.851   2.505  1.5414  2.4696  0.1752
  650MOL0     H89663   0.522   6.963   2.622  3.1223  3.9048  0.7293
  650MOL0     H89664   0.204   6.963   2.534 -0.5364  1.2190 -1.1386
  650MOL0     H89665   0.288   7.030   2.678  2.1547 -2.5087 -2.2272
  650MOL0     H89666   0.107   7.202   2.690 -2.2954  2.8890 -2.6050
  650MOL0     H89667   0.091   7.206   2.532 -0.6373 -0.9319 -0.9934
  650MOL0     H89668  -0.071   7.092   2.706 -0.0602 -1.3541  0.8964
  650MOL0     H89669   0.024   6.949   2.682 -3.7606 -0.6163  2.7994
  650MOL0     H89670  -0.162   6.914   2.544 -0.5818  2.1967  2.8905
  650MOL0     H89671  -0.027   6.959   2.431  1.0647  1.2089  0.5270
  650MOL0     H89672  -0.261   7.151   2.522 -1.2966 -1.4711 -1.0231
  650MOL0     H89673  -0.127   7.188   2.416 -0.2517  1.3148  0.4387
  650MOL0     H89674  -0.333   6.958   2.380 -0.8571  1.2620  0.7224
  650MOL0     H89675  -0.218   7.009   2.256 -1.0079 -3.6003  0.2443
  650MOL0     H89676  -0.328   7.233   2.251  3.7387 -1.1571  1.2486
  650MOL0     H89677  -0.426   7.198   2.380  0.4849  0.5098 -0.7904
  650MOL0     H89678  -0.558   7.173   2.175  2.2755  3.0099  0.3240
  650MOL0     H89679  -0.542   7.001   2.233 -1.4829  0.8488  0.1335
  650MOL0     H89680   0.366   7.124   2.255 -0.0431 -1.8912  0.1157
  650MOL0     H89681   0.529   6.982   2.129  2.5300  1.5704 -0.0305
  650MOL0     H89682   0.988   6.797   2.183 -0.8518 -0.3754  1.5019
  650MOL0     H89683   1.121   6.719   2.016 -1.8761  1.8503 -0.5109
  650MOL0     H89684   0.818   5.704   2.019 -1.9325  0.9646 -2.8731
  650MOL0     H89685   0.729   5.786   2.233  1.7047 -0.2419  1.9332
  650MOL0     H89686   0.388   6.220   2.401 -1.3483  0.1908  0.6675
  650MOL0     H89687   0.239   6.200   2.593 -1.5089 -0.4725  0.2178
  650MOL0     H89688   0.112   6.173   2.764 -1.8852 -0.4021  0.3049
  650MOL0     H89689   0.091   6.007   2.702 -0.7005  0.8751  0.0673
  650MOL0     H89690   0.071   5.921   2.919  1.1317  0.9399  1.4621
  650MOL0     H89691  -0.040   6.048   2.899 -0.5852  0.9808 -1.8895
  650MOL0     H89692   0.058   6.103   3.118  0.7851 -0.5107  0.2441
  650MOL0     H89693   0.216   6.040   3.063  0.2583 -2.1528 -3.2566
  650MOL0     H89694   0.246   6.236   2.935  2.9775  0.1534  2.9145
  650MOL0     H89695   0.233   6.256   3.105  0.8734  2.8865 -1.0568
  650MOL0     H89696  -0.033   6.533   3.036  0.3339 -0.0952  1.2001
  650MOL0     H89697   0.481   5.892   2.746  1.2912  0.9978  0.8986
  650MOL0     H89698   0.664   5.820   2.647  3.8482  2.3381  0.5472
  650MOL0     H89699   0.657   5.810   2.466 -0.9958  1.2119 -0.2697
  650MOL0     H89700   0.745   5.939   2.567 -0.1524  2.6870  2.1330
  651MOL0     O89701   0.219   1.360   9.441 -0.3064 -0.8991  0.1804
  651MOL0     C89702   0.224   1.246   9.479 -0.0085  0.8652  0.3089
  651MOL0     O89703   0.241   1.137   9.397  0.0689  0.1642 -0.0817
  651MOL0     C89704   0.193   1.132   9.273  0.3588 -0.8483 -0.8351
  651MOL0     C89705   0.105   1.221   9.207 -0.0882  0.3596 -0.0306
  651MOL0     C89706   0.081   1.201   9.071  0.7823  0.0016 -0.3032
  651MOL0     C89707   0.128   1.098   9.004 -0.5545  0.0105 -0.0618
  651MOL0     O89708   0.082   1.084   8.872  0.1660 -0.1359 -0.0633
  651MOL0     C89709   0.178   1.037   8.786  0.1275 -0.5228 -0.8583
  651MOL0     C89710   0.139   1.053   8.636 -0.3955 -1.0348 -0.2525
  651MOL0     C89711   0.136   1.196   8.602  0.0381 -0.2986  0.3530
  651MOL0     C89712   0.188   1.222   8.464 -0.1842 -0.3690  0.3544
  651MOL0     C89713   0.328   1.275   8.465  0.7831 -0.0121  0.6339
  651MOL0     C89714   0.374   1.293   8.320  1.3209 -0.0401 -0.2602
  651MOL0     C89715   0.308   1.395   8.236 -0.2868 -1.0362  0.2759
  651MOL0     C89716   0.224   1.339   8.127  0.3348 -1.2570 -0.2635
  651MOL0     N89717   0.301   1.263   8.036  0.4884 -0.7786 -0.0169
  651MOL0     C89718   0.379   1.312   7.924  0.3873 -0.0330  0.4228
  651MOL0     C89719   0.392   1.198   7.849 -0.0084  0.2427  0.1827
  651MOL0     C89720   0.477   1.183   7.725 -1.5599 -0.2225 -0.0309
  651MOL0     C89721   0.616   1.250   7.734  0.8869  0.0704 -0.8461
  651MOL0     C89722   0.731   1.167   7.674  1.1582  0.1904 -0.7525
  651MOL0     C89723   0.859   1.246   7.661 -0.1699  0.2668 -0.3558
  651MOL0     O89724   0.966   1.152   7.679  0.0828  0.3934  0.3927
  651MOL0     C89725   1.082   1.181   7.746 -0.1123  0.2468  0.6300
  651MOL0     C89726   1.142   1.312   7.769  0.0160  0.8579  0.5994
  651MOL0     C89727   1.268   1.323   7.829 -0.5992 -0.8155  0.2753
  651MOL0     C89728   1.318   1.466   7.841  0.5343 -0.0614 -0.7318
  651MOL0     C89729   1.351   1.211   7.858  0.0800 -0.2787  0.1552
  651MOL0     C89730   1.491   1.221   7.910 -0.3886 -0.3177 -0.3058
  651MOL0     O89731   1.570   1.099   7.915  0.3467 -0.0192  0.1844
  651MOL0     C89732   1.665   1.096   8.008 -0.3843 -0.0241 -0.0533
  651MOL0     C89733   1.646   1.050   8.143 -0.1383 -0.1006 -0.6863
  651MOL0     C89734   1.748   1.055   8.238 -0.2065 -0.3687  0.6835
  651MOL0     C89735   1.882   1.090   8.211  0.1365 -0.2029 -0.0759
  651MOL0     O89736   1.968   1.118   8.315  0.2035 -0.5490 -0.4061
  651MOL0     C89737   2.117   1.095   8.304  0.0550  0.1066  0.0531
  651MOL0     C89738   2.159   1.099   8.461  0.1688  0.5345  0.2903
  651MOL0     C89739   2.075   1.006   8.543  0.2239 -0.3652  0.1940
  651MOL0     C89740   2.179   0.930   8.633  0.7435  0.2750  0.2173
  651MOL0     C89741   2.096   0.844   8.729 -0.4992 -0.7633  1.2705
  651MOL0     C89742   2.179   0.774   8.839 -0.8183 -0.3514  0.3304
  651MOL0     C89743   2.287   0.864   8.903 -0.4279 -0.0672 -0.6254
  651MOL0     C89744   2.344   0.811   9.041 -0.1557 -0.5226  0.2778
  651MOL0    Cl89745   2.418   0.649   9.031 -0.6233 -0.1683 -0.0794
  651MOL0     C89746   1.910   1.122   8.084  0.0821  0.1459  0.4540
  651MOL0     C89747   1.802   1.126   7.990  0.4268  0.7186 -0.1617
  651MOL0     O89748   1.526   1.323   7.962 -0.3215  0.0159  0.1680
  651MOL0     C89749   1.291   1.083   7.830 -0.3263 -0.5013 -0.1069
  651MOL0     C89750   1.161   1.072   7.783  0.0580 -0.1312 -0.1310
  651MOL0     N89751   0.329   1.092   7.912 -0.0608 -0.2596 -0.4528
  651MOL0     N89752   0.276   1.136   8.014 -0.1006 -0.4921  0.1697
  651MOL0     C89753   0.205   1.009   9.076 -0.5458  0.5692 -0.1743
  651MOL0     C89754   0.245   1.020   9.214 -0.3648 -0.7287  0.1342
  651MOL0     C89755   0.237   1.227   9.621  0.6559  0.3034  0.7557
  651MOL0     C89756   0.272   1.095   9.667  0.6286 -0.5874  0.5399
  651MOL0     C89757   0.298   1.068   9.797 -0.6112 -0.0411  0.1271
  651MOL0     C89758   0.274   1.158   9.889  0.3314 -0.2285 -0.4217
  651MOL0     O89759   0.289   1.113  10.023  0.3539  0.8137 -0.1522
  651MOL0     C89760   0.273   1.225  10.114 -0.1561  0.7560  0.2589
  651MOL0     C89761   0.304   1.174  10.254 -0.4170 -0.2976 -0.1606
  651MOL0     C89762   0.447   1.121  10.276 -0.2855  0.5736  0.7166
  651MOL0     C89763   0.468   1.027  10.403 -0.3061 -1.0016 -0.3277
  651MOL0     C89764   0.428   0.888  10.370 -0.2090  0.2649 -0.4489
  651MOL0     C89765   0.384   0.778  10.330 -1.4041  0.2402  0.8121
  651MOL0     C89766   0.226   1.279   9.856 -0.0718 -0.7549  0.7272
  651MOL0     C89767   0.209   1.322   9.726  0.4890  0.2010 -0.1486
  651MOL0     C89768   0.174   1.468   9.701  1.1154 -0.9093 -0.2881
  651MOL0     H89769   0.064   1.308   9.258  0.6872 -0.9185  3.0124
  651MOL0     H89770   0.008   1.267   9.026 -0.7070 -2.7519 -2.2249
  651MOL0     H89771   0.200   0.932   8.807 -2.8429 -0.9205  0.8873
  651MOL0     H89772   0.270   1.093   8.807  1.3280 -2.0767 -1.7649
  651MOL0     H89773   0.218   1.006   8.578 -0.7796 -2.3519  0.2619
  651MOL0     H89774   0.043   1.005   8.615  0.4985 -1.8205 -2.8628
  651MOL0     H89775   0.035   1.239   8.601 -0.6021 -1.7513 -0.7345
  651MOL0     H89776   0.176   1.261   8.681 -3.8237 -1.7040  3.8540
  651MOL0     H89777   0.185   1.129   8.407  1.5564 -3.1274  4.3313
  651MOL0     H89778   0.128   1.291   8.405  1.7632  0.4121 -0.8409
  651MOL0     H89779   0.401   1.213   8.519 -0.0331  0.8527  2.8404
  651MOL0     H89780   0.317   1.372   8.513 -3.5330 -0.1201  0.2651
  651MOL0     H89781   0.479   1.319   8.336  1.5293 -1.1524  0.2271
  651MOL0     H89782   0.363   1.194   8.276 -0.2338 -1.2706  2.6183
  651MOL0     H89783   0.392   1.450   8.192  1.4969 -3.4160  0.5208
  651MOL0     H89784   0.245   1.467   8.291 -3.7604  0.0022 -4.4482
  651MOL0     H89785   0.144   1.278   8.169 -1.1268 -0.4973 -1.8109
  651MOL0     H89786   0.176   1.426   8.080 -0.5303  0.9635  4.2148
  651MOL0     H89787   0.407   1.414   7.900 -0.0579  0.0495  0.2482
  651MOL0     H89788   0.435   1.227   7.633 -0.7005 -0.8249 -0.7306
  651MOL0     H89789   0.498   1.079   7.700 -1.0857 -0.0513 -0.3679
  651MOL0     H89790   0.606   1.338   7.670 -3.2537 -0.3676 -1.0849
  651MOL0     H89791   0.636   1.276   7.838  0.0906  2.7108 -1.2727
  651MOL0     H89792   0.741   1.083   7.744 -1.9505 -1.5380 -2.1396
  651MOL0     H89793   0.706   1.124   7.577 -1.9388 -0.2079  0.0976
  651MOL0     H89794   0.861   1.287   7.560  1.3702 -1.4191 -1.0490
  651MOL0     H89795   0.858   1.333   7.727  0.1595 -0.3942  0.5453
  651MOL0     H89796   1.084   1.401   7.748  1.3250  1.6108  0.0613
  651MOL0     H89797   1.311   1.516   7.938  0.2064 -2.0182  0.3014
  651MOL0     H89798   1.252   1.525   7.777  1.3070 -0.1840 -1.6667
  651MOL0     H89799   1.417   1.480   7.797  0.7387 -0.6131 -0.4625
  651MOL0     H89800   1.554   1.010   8.185 -1.5971  1.1478 -2.5167
  651MOL0     H89801   1.722   1.053   8.344  1.2890 -0.5525  1.0638
  651MOL0     H89802   2.115   0.998   8.254 -4.6169  0.4921 -0.9934
  651MOL0     H89803   2.165   1.169   8.240  0.2801  0.3983  0.5551
  651MOL0     H89804   2.268   1.082   8.464  0.4153  1.6793 -1.0939
  651MOL0     H89805   2.130   1.196   8.501 -0.2848  0.2620  0.6175
  651MOL0     H89806   2.022   0.933   8.482  0.7402  0.1755 -0.9265
  651MOL0     H89807   1.999   1.057   8.603 -1.8182 -2.6634 -0.3126
  651MOL0     H89808   2.256   0.997   8.672  0.7045 -0.3111  1.3416
  651MOL0     H89809   2.241   0.882   8.557  0.0715  5.4423 -4.1755
  651MOL0     H89810   2.023   0.908   8.777  0.6443  0.9087  0.8650
  651MOL0     H89811   2.038   0.769   8.674 -0.0755  1.1700 -2.1248
  651MOL0     H89812   2.248   0.704   8.791 -0.0694  0.4491  0.2097
  651MOL0     H89813   2.118   0.722   8.914  1.9404 -3.7420  0.4998
  651MOL0     H89814   2.251   0.968   8.901 -0.4610 -0.0761 -2.0296
  651MOL0     H89815   2.372   0.862   8.835 -0.6466 -0.4307 -0.8916
  651MOL0     H89816   2.261   0.797   9.111 -0.7485 -1.2404 -0.5520
  651MOL0     H89817   2.414   0.888   9.075 -1.0689  1.7102 -2.4208
  651MOL0     H89818   2.003   1.154   8.037 -1.7396  1.3882 -2.6121
  651MOL0     H89819   1.830   1.160   7.891  3.8859 -0.4565  0.2456
  651MOL0     H89820   1.340   0.989   7.850 -0.2757 -0.1943  1.2619
  651MOL0     H89821   1.124   0.971   7.769 -0.2500 -0.3545  1.9116
  651MOL0     H89822   0.263   0.942   9.014 -0.0105  2.1554 -1.4661
  651MOL0     H89823   0.312   0.942   9.248 -2.7778 -3.8459 -1.7047
  651MOL0     H89824   0.275   1.010   9.600 -1.5369  0.9988 -1.7540
  651MOL0     H89825   0.318   0.966   9.827 -1.7653  0.2417  2.0429
  651MOL0     H89826   0.346   1.302  10.086  2.2252 -1.1265  0.9213
  651MOL0     H89827   0.167   1.253  10.108 -0.2948 -0.0428 -2.5956
  651MOL0     H89828   0.237   1.090  10.277 -1.3792  0.3673 -0.4738
  651MOL0     H89829   0.274   1.250  10.327 -3.2165 -1.7836  0.3831
  651MOL0     H89830   0.490   1.058  10.198  3.6036  1.4822  1.9081
  651MOL0     H89831   0.518   1.204  10.274 -0.3215  0.6064 -0.6986
  651MOL0     H89832   0.404   1.057  10.487  1.2050 -1.2218  0.9411
  651MOL0     H89833   0.571   1.040  10.436 -0.4929 -1.0149  0.2632
  651MOL0     H89834   0.355   0.689  10.278  0.1067  0.9511 -1.3775
  651MOL0     H89835   0.198   1.352   9.931 -0.1621  0.5356 -0.5294
  651MOL0     H89836   0.093   1.482   9.629  1.6845  0.2993 -0.7030
  651MOL0     H89837   0.134   1.504   9.797 -1.3587 -2.5509 -0.5926
  651MOL0     H89838   0.263   1.526   9.676 -0.1465  3.0086  3.1315
  652MOL0     O89839   7.464   6.700   8.570  0.1802 -0.4491  0.5208
  652MOL0     C89840   7.457   6.584   8.524  1.4116 -0.0093 -0.4864
  652MOL0     O89841   7.509   6.540   8.404  0.2556 -1.1733  0.6884
  652MOL0     C89842   7.595   6.630   8.349 -0.7033 -0.0705  0.1241
  652MOL0     C89843   7.535   6.722   8.263 -0.8768  0.9507  0.2897
  652MOL0     C89844   7.602   6.810   8.188 -0.6959 -0.6490 -0.0104
  652MOL0     C89845   7.743   6.823   8.225  1.2399  0.0032  0.4746
  652MOL0     O89846   7.831   6.917   8.175  0.0392 -0.1654  0.2981
  652MOL0     C89847   7.779   6.997   8.064 -0.5179  0.4586 -0.3145
  652MOL0     C89848   7.898   7.097   8.058  0.2352 -0.1337  0.5534
  652MOL0     C89849   7.892   7.195   8.176 -0.1046 -0.4987  1.0857
  652MOL0     C89850   7.958   7.331   8.123 -0.3791  0.7250 -0.5225
  652MOL0     C89851   7.981   7.430   8.236  0.0494  0.0241 -0.3355
  652MOL0     C89852   8.045   7.551   8.171 -0.6738  0.2511  0.7753
  652MOL0     C89853   8.074   7.653   8.286 -1.1057 -0.7197  0.1138
  652MOL0     C89854   7.949   7.721   8.342  0.5455 -1.0296 -0.0374
  652MOL0     N89855   7.970   7.870   8.362 -0.6056 -0.5599 -0.7059
  652MOL0     C89856   8.014   7.915   8.485  0.0675 -1.2916 -0.3980
  652MOL0     C89857   8.020   8.052   8.459  0.7267 -0.5251 -0.1483
  652MOL0     C89858   8.046   8.162   8.559 -0.2904 -0.7665  0.1283
  652MOL0     C89859   7.980   8.125   8.693  0.1814 -0.7226 -0.0480
  652MOL0     C89860   7.970   8.237   8.797  0.3247  0.5820  0.7517
  652MOL0     C89861   8.094   8.248   8.883  0.3635  0.1788 -0.4655
  652MOL0     O89862   8.208   8.239   8.806 -0.7087  0.3689 -0.4117
  652MOL0     C89863   8.263   8.349   8.741  0.2495 -0.3378 -0.4502
  652MOL0     C89864   8.203   8.473   8.716 -0.5147  1.4771  0.8873
  652MOL0     C89865   8.287   8.575   8.666  0.5913 -0.0884 -0.9267
  652MOL0     C89866   8.224   8.713   8.674 -0.2315  0.0067 -0.6101
  652MOL0     C89867   8.414   8.546   8.610  0.0275  0.8620 -0.1097
  652MOL0     C89868   8.503   8.647   8.535 -0.1306 -1.0406  0.2731
  652MOL0     O89869   8.631   8.617   8.528  0.2215  0.4654  0.6196
  652MOL0     C89870   8.719   8.691   8.453  0.8475  0.5138 -0.2033
  652MOL0     C89871   8.691   8.749   8.328 -0.4023  0.2350 -0.1374
  652MOL0     C89872   8.789   8.818   8.262 -0.2340  0.8456 -0.0667
  652MOL0     C89873   8.911   8.848   8.335 -0.8720 -0.0679  0.5865
  652MOL0     O89874   9.015   8.918   8.273 -0.5556  0.0021  0.0943
  652MOL0     C89875   9.042   9.043   8.331  1.1048  0.1554 -0.2506
  652MOL0     C89876   8.972   9.146   8.246  0.1642 -0.2435 -0.3711
  652MOL0     C89877   9.011   9.148   8.093  0.4246  0.8413  0.1087
  652MOL0     C89878   8.908   9.070   8.004 -0.5913 -0.6709 -0.6702
  652MOL0     C89879   8.898   9.113   7.855 -0.3165  0.4294  0.5746
  652MOL0     C89880   8.835   9.009   7.766 -0.1467 -0.9329 -0.1879
  652MOL0     C89881   8.877   8.864   7.785  1.1176 -0.9698  0.4741
  652MOL0     C89882   8.854   8.780   7.658 -0.0057 -0.1999  0.0944
  652MOL0    Cl89883   8.929   8.610   7.666 -0.1911  0.1547 -0.0873
  652MOL0     C89884   8.936   8.789   8.460 -0.6821  0.5801 -0.6027
  652MOL0     C89885   8.841   8.703   8.516  0.2718  0.3916 -0.3463
  652MOL0     O89886   8.450   8.748   8.483  0.1165  0.0939  0.0489
  652MOL0     C89887   8.467   8.417   8.631  0.3484 -0.0386 -0.6345
  652MOL0     C89888   8.395   8.320   8.701 -0.1949  0.2170 -0.1780
  652MOL0     N89889   7.973   8.081   8.329 -0.0127  0.0003 -0.1095
  652MOL0     N89890   7.962   7.965   8.270  0.4735 -1.1371  0.5064
  652MOL0     C89891   7.800   6.736   8.314  0.3637  1.1776  0.2461
  652MOL0     C89892   7.724   6.638   8.374 -0.1902 -0.0091  0.0509
  652MOL0     C89893   7.382   6.486   8.607 -1.1333 -0.5619  0.2892
  652MOL0     C89894   7.338   6.520   8.733  0.7507 -1.1236  0.1845
  652MOL0     C89895   7.275   6.434   8.819 -0.2575 -0.3571  0.2235
  652MOL0     C89896   7.260   6.300   8.789 -0.0939 -0.2902  0.3938
  652MOL0     O89897   7.230   6.199   8.882 -0.3590 -0.6528 -0.0201
  652MOL0     C89898   7.187   6.229   9.020  0.6811 -0.4860  0.3052
  652MOL0     C89899   7.183   6.099   9.084 -0.4847 -0.2695 -0.5856
  652MOL0     C89900   7.089   5.998   9.026  0.1321  0.3364  0.3142
  652MOL0     C89901   7.076   5.882   9.127  0.6559  0.1164 -0.5961
  652MOL0     C89902   6.987   5.776   9.078  0.4752 -0.5915 -0.1217
  652MOL0     C89903   6.913   5.688   9.027 -1.1253 -0.0848  0.2449
  652MOL0     C89904   7.298   6.265   8.661  0.3919 -0.1203  0.3461
  652MOL0     C89905   7.353   6.352   8.574  0.0570  0.0144  0.1276
  652MOL0     C89906   7.409   6.276   8.452  0.0923 -1.1072  0.2151
  652MOL0     H89907   7.427   6.717   8.250 -0.8215  0.5187 -0.0472
  652MOL0     H89908   7.553   6.879   8.120 -0.0232 -0.7703 -0.6426
  652MOL0     H89909   7.689   7.056   8.082  1.1905  3.0143  0.2815
  652MOL0     H89910   7.770   6.940   7.971 -1.0939  1.3926 -0.8403
  652MOL0     H89911   7.990   7.037   8.058  0.0541 -0.7284 -3.7616
  652MOL0     H89912   7.898   7.155   7.966 -0.5576  0.7563  1.1046
  652MOL0     H89913   7.791   7.203   8.217 -1.5276 -1.7641 -1.8600
  652MOL0     H89914   7.950   7.146   8.255  0.2535  0.1231  1.2154
  652MOL0     H89915   8.045   7.302   8.064  0.3563  1.7472  0.0316
  652MOL0     H89916   7.890   7.373   8.048 -0.8981  0.1029 -0.4012
  652MOL0     H89917   8.043   7.380   8.311 -3.9071  0.9711  3.9681
  652MOL0     H89918   7.886   7.468   8.273  0.9017  3.6867 -1.4775
  652MOL0     H89919   8.136   7.517   8.120 -0.4621 -0.6903  1.7242
  652MOL0     H89920   7.981   7.583   8.089  0.9748  0.5162 -0.4638
  652MOL0     H89921   8.139   7.731   8.247 -0.0600  0.1236  3.2801
  652MOL0     H89922   8.145   7.620   8.363  0.0930 -2.6760 -1.7161
  652MOL0     H89923   7.877   7.730   8.261 -0.0013  3.1270  0.7097
  652MOL0     H89924   7.900   7.674   8.428 -1.4833  1.0502  0.0473
  652MOL0     H89925   8.031   7.870   8.582  0.3574 -2.9175 -1.1701
  652MOL0     H89926   8.007   8.255   8.517  2.9004  0.7503  0.2039
  652MOL0     H89927   8.153   8.187   8.558 -0.4205  0.0698 -2.9485
  652MOL0     H89928   7.876   8.102   8.665 -0.5342  2.9708 -0.9559
  652MOL0     H89929   8.027   8.039   8.741 -1.0352 -1.4106 -0.0355
  652MOL0     H89930   7.941   8.330   8.749  0.0366 -0.7286 -1.8126
  652MOL0     H89931   7.886   8.222   8.865 -0.2272  2.6132  0.5712
  652MOL0     H89932   8.082   8.346   8.930  0.1028 -0.7470  1.5187
  652MOL0     H89933   8.096   8.168   8.958  1.4019 -0.4606 -1.1574
  652MOL0     H89934   8.102   8.498   8.747 -1.0122 -1.5202  2.0226
  652MOL0     H89935   8.294   8.797   8.670 -0.8371  0.6472  1.2228
  652MOL0     H89936   8.158   8.732   8.760  0.2293 -4.0414  0.8489
  652MOL0     H89937   8.167   8.727   8.581  0.6809 -1.1793 -1.3783
  652MOL0     H89938   8.600   8.724   8.274 -1.2122 -0.3902  1.4382
  652MOL0     H89939   8.797   8.848   8.158 -2.1659  1.2107 -0.1460
  652MOL0     H89940   9.017   9.050   8.437  0.9430 -0.6951 -0.2201
  652MOL0     H89941   9.151   9.051   8.326  1.1573 -0.6743 -0.7151
  652MOL0     H89942   8.865   9.147   8.271  0.0483  1.6149 -0.8223
  652MOL0     H89943   9.002   9.246   8.278  0.1917 -0.0992 -0.8538
  652MOL0     H89944   9.110   9.100   8.094  0.9813  1.6395  4.6174
  652MOL0     H89945   9.010   9.257   8.082  1.0525  0.6729 -1.9875
  652MOL0     H89946   8.812   9.081   8.054  0.4055 -0.1949  1.2298
  652MOL0     H89947   8.930   8.963   8.013 -0.8637 -0.9475 -2.7505
  652MOL0     H89948   8.852   9.211   7.842  1.1698  0.8904 -2.0457
  652MOL0     H89949   9.002   9.134   7.826 -0.0429 -0.3277  0.9683
  652MOL0     H89950   8.860   9.031   7.662 -2.4419 -3.1700 -1.3176
  652MOL0     H89951   8.726   9.007   7.767 -0.1502 -2.3252 -0.9621
  652MOL0     H89952   8.821   8.816   7.865  2.5707  0.3430  2.3610
  652MOL0     H89953   8.983   8.853   7.809  1.4084  1.0169  0.2806
  652MOL0     H89954   8.901   8.828   7.573 -0.3734 -2.9953 -1.8169
  652MOL0     H89955   8.748   8.756   7.642  0.0397 -0.3832  0.0643
  652MOL0     H89956   9.026   8.813   8.515 -0.6234 -1.2544  0.1737
  652MOL0     H89957   8.857   8.653   8.611 -0.0803  3.0665  1.2398
  652MOL0     H89958   8.572   8.402   8.606  0.9453  1.8794  0.4561
  652MOL0     H89959   8.437   8.228   8.741 -3.0852 -0.7014  1.0464
  652MOL0     H89960   7.904   6.746   8.342 -0.2738 -1.2546  4.2879
  652MOL0     H89961   7.761   6.569   8.450  1.4350 -0.5003 -1.1275
  652MOL0     H89962   7.348   6.618   8.780  2.4965  0.1016 -2.4956
  652MOL0     H89963   7.231   6.455   8.917 -1.1687 -2.5159  0.3269
  652MOL0     H89964   7.257   6.291   9.077 -2.0885  0.0738  3.4231
  652MOL0     H89965   7.086   6.270   9.014 -0.2186 -2.4140  1.5539
  652MOL0     H89966   7.160   6.112   9.190  3.3271  3.6580  0.0546
  652MOL0     H89967   7.287   6.065   9.085  0.0688  1.1289  3.0847
  652MOL0     H89968   6.991   6.036   8.999  0.5514  0.0192 -1.8048
  652MOL0     H89969   7.130   5.958   8.933 -0.5705  0.5533 -0.0869
  652MOL0     H89970   7.019   5.919   9.213 -3.4281 -1.8959 -2.1509
  652MOL0     H89971   7.174   5.844   9.155 -0.4510 -4.9307 -2.5490
  652MOL0     H89972   6.837   5.624   8.987 -1.1347  0.9062 -1.4199
  652MOL0     H89973   7.309   6.159   8.639 -1.5954  0.0984 -2.1815
  652MOL0     H89974   7.518   6.286   8.449  0.0219  0.3950  1.4082
  652MOL0     H89975   7.393   6.168   8.454 -0.6258 -1.0813 -2.1573
  652MOL0     H89976   7.354   6.314   8.366  0.2777 -0.9095  0.1842
  653MOL0     O89977   5.491   9.345   7.569  0.3204  0.6538  0.1499
  653MOL0     C89978   5.533   9.250   7.512 -0.5498 -0.0591  0.2141
  653MOL0     O89979   5.494   9.116   7.530 -0.3984 -0.0730  0.1138
  653MOL0     C89980   5.467   9.087   7.660  0.7018 -0.6533  0.6187
  653MOL0     C89981   5.358   9.146   7.732  0.5419  0.5689 -0.9197
  653MOL0     C89982   5.344   9.108   7.868  0.8652  1.0369 -0.8395
  653MOL0     C89983   5.438   9.035   7.936  0.2533 -0.3088 -0.1023
  653MOL0     O89984   5.441   9.001   8.074  0.1103 -0.2116 -0.3777
  653MOL0     C89985   5.310   8.964   8.126 -0.3559 -1.1826 -0.2187
  653MOL0     C89986   5.310   8.889   8.256  0.1150  0.3584  0.1282
  653MOL0     C89987   5.233   8.750   8.253 -0.0268 -0.4974  0.0841
  653MOL0     C89988   5.224   8.688   8.395  1.6306  0.0601  0.2620
  653MOL0     C89989   5.132   8.570   8.394  0.0493  0.3128 -0.0134
  653MOL0     C89990   5.164   8.475   8.513  0.4432 -0.1382  0.3595
  653MOL0     C89991   5.059   8.366   8.511  0.8297  0.8735  0.0760
  653MOL0     C89992   5.072   8.284   8.632 -0.4666  0.4217 -0.7361
  653MOL0     N89993   4.973   8.306   8.740  0.0556 -0.4616 -0.8866
  653MOL0     C89994   5.007   8.324   8.873 -0.7361  0.6231 -0.3120
  653MOL0     C89995   4.909   8.397   8.929 -0.5798 -0.7638  0.8062
  653MOL0     C89996   4.913   8.430   9.071  1.0461  0.4630  0.3263
  653MOL0     C89997   4.775   8.478   9.120  1.0019 -0.3132  0.2770
  653MOL0     C89998   4.753   8.635   9.096  0.0204  0.5323 -0.1903
  653MOL0     C89999   4.601   8.670   9.106 -0.4695  0.5205  0.9798
  653MOL0     O90000   4.549   8.627   9.229  0.2333  0.0067  0.3549
  653MOL0     C90001   4.439   8.685   9.285 -0.3844  0.6056 -0.6865
  653MOL0     C90002   4.383   8.610   9.391  0.6098  0.7442  0.3131
  653MOL0     C90003   4.261   8.648   9.451  0.8157  0.6776  0.3532
  653MOL0     C90004   4.197   8.572   9.559 -0.0958  0.5075  0.5134
  653MOL0     C90005   4.196   8.763   9.403  0.4463 -0.2828  0.1073
  653MOL0     C90006   4.071   8.828   9.443  0.1832  0.1640 -0.2017
  653MOL0     O90007   3.984   8.882   9.354 -0.1030 -0.2130 -0.4090
  653MOL0     C90008   3.862   8.933   9.391  0.4866  0.0673 -0.2708
  653MOL0     C90009   3.819   9.041   9.311  0.4458 -0.8155  0.0620
  653MOL0     C90010   3.695   9.103   9.339  0.1668 -0.1129 -0.3643
  653MOL0     C90011   3.610   9.063   9.447 -0.7094 -0.1536  1.1482
  653MOL0     O90012   3.492   9.123   9.468  0.0760  0.3528  1.5317
  653MOL0     C90013   3.431   9.139   9.598 -0.9172  0.6002  0.4499
  653MOL0     C90014   3.304   9.219   9.587 -0.2293 -0.7733  0.2215
  653MOL0     C90015   3.311   9.376   9.614  0.7297  0.4116 -0.3347
  653MOL0     C90016   3.167   9.436   9.611 -0.7460  0.4280 -0.0095
  653MOL0     C90017   3.183   9.583   9.651  0.4759  0.1560  1.0107
  653MOL0     C90018   3.051   9.631   9.710 -0.1497 -0.3085 -0.5395
  653MOL0     C90019   3.046   9.785   9.714 -0.2012  0.1892 -0.6785
  653MOL0     C90020   2.926   9.843   9.772  0.9848 -0.2273  0.3931
  653MOL0    Cl90021   2.903   9.792   9.939  0.4535  0.0259 -0.0291
  653MOL0     C90022   3.663   8.961   9.529  0.4267  0.5910  0.3631
  653MOL0     C90023   3.784   8.891   9.504  0.3178 -0.3964  1.0649
  653MOL0     O90024   4.042   8.806   9.554  0.4045 -0.2429 -0.1173
  653MOL0     C90025   4.253   8.835   9.303 -0.7950 -0.9627 -0.9106
  653MOL0     C90026   4.379   8.808   9.251 -0.2526  0.7006 -0.1802
  653MOL0     N90027   4.819   8.433   8.834 -0.1509 -0.1289  0.3568
  653MOL0     N90028   4.864   8.382   8.724  0.3943 -0.5984 -0.6554
  653MOL0     C90029   5.544   8.992   7.864  0.0388  0.8153 -0.7242
  653MOL0     C90030   5.556   9.005   7.731 -0.3315 -1.0614 -0.9126
  653MOL0     C90031   5.615   9.269   7.383  0.4739  0.0087 -0.2001
  653MOL0     C90032   5.589   9.183   7.271  0.5496  0.6636 -0.9735
  653MOL0     C90033   5.652   9.210   7.152 -1.1556  1.1462 -0.5258
  653MOL0     C90034   5.740   9.316   7.133  0.0974 -0.3446  0.0281
  653MOL0     O90035   5.823   9.330   7.017 -0.0854 -0.4787  0.4280
  653MOL0     C90036   5.757   9.356   6.888 -0.0165  0.2750  0.0349
  653MOL0     C90037   5.839   9.460   6.817 -0.3097  1.1393  0.1975
  653MOL0     C90038   5.856   9.598   6.896  0.1893  0.1576  0.3832
  653MOL0     C90039   6.000   9.617   6.946  0.7719  0.2257 -0.2036
  653MOL0     C90040   6.003   9.717   7.055 -0.1770 -0.6188 -0.0379
  653MOL0     C90041   6.036   9.802   7.137  0.6644 -0.4299  0.6578
  653MOL0     C90042   5.755   9.403   7.238 -0.6335  0.0908  0.4135
  653MOL0     C90043   5.709   9.379   7.371 -0.2325  0.1223 -0.9343
  653MOL0     C90044   5.746   9.492   7.468 -0.2994  0.6733 -0.0763
  653MOL0     H90045   5.288   9.223   7.700 -0.9672  1.8472  4.3461
  653MOL0     H90046   5.270   9.159   7.929 -0.9749 -0.4394 -1.7509
  653MOL0     H90047   5.268   8.896   8.051  1.9098 -3.4846  0.4784
  653MOL0     H90048   5.261   9.061   8.135  0.9398 -0.5849  0.6889
  653MOL0     H90049   5.409   8.872   8.298 -0.3314 -1.9447  0.4172
  653MOL0     H90050   5.253   8.949   8.329  1.1422  1.3551  0.1292
  653MOL0     H90051   5.132   8.779   8.224  0.5986 -1.9217 -4.2064
  653MOL0     H90052   5.283   8.684   8.181 -0.9828  0.4411 -1.4843
  653MOL0     H90053   5.322   8.652   8.427  0.7005 -2.6626  0.3757
  653MOL0     H90054   5.183   8.761   8.464  3.5840  2.3906 -0.9027
  653MOL0     H90055   5.138   8.515   8.300 -2.4672 -0.0172 -0.0578
  653MOL0     H90056   5.031   8.612   8.400  0.7841  2.0614  1.1824
  653MOL0     H90057   5.263   8.431   8.499 -0.7392 -3.0316  0.4186
  653MOL0     H90058   5.156   8.529   8.607  1.5568  3.5398 -1.4605
  653MOL0     H90059   5.073   8.305   8.421 -0.8988  0.5574 -0.0170
  653MOL0     H90060   4.960   8.413   8.510  1.4061  2.1038 -0.6414
  653MOL0     H90061   5.042   8.179   8.615  1.4035 -0.1410 -0.7532
  653MOL0     H90062   5.178   8.283   8.658  1.0468  1.8418 -5.7026
  653MOL0     H90063   5.096   8.283   8.918 -0.4828 -1.5583 -2.5658
  653MOL0     H90064   4.990   8.504   9.092  0.4115  1.6513 -1.3393
  653MOL0     H90065   4.936   8.341   9.131  0.2626  1.2192  1.8298
  653MOL0     H90066   4.685   8.425   9.087 -0.4983 -0.6555  4.2911
  653MOL0     H90067   4.769   8.470   9.229  1.8215 -2.3074  0.2258
  653MOL0     H90068   4.817   8.686   9.168  1.7922 -0.4667 -0.9934
  653MOL0     H90069   4.783   8.655   8.992  1.9225  0.8157  0.3722
  653MOL0     H90070   4.586   8.777   9.085 -1.9885 -0.0072 -0.8936
  653MOL0     H90071   4.551   8.620   9.023  1.5291  2.5026 -1.6257
  653MOL0     H90072   4.436   8.518   9.415  1.2666  0.9021 -0.4717
  653MOL0     H90073   4.251   8.584   9.654  1.2548 -1.1404  0.0076
  653MOL0     H90074   4.205   8.465   9.538 -4.4771 -0.1686  1.2422
  653MOL0     H90075   4.089   8.576   9.580 -0.1264 -2.5343  1.4062
  653MOL0     H90076   3.890   9.066   9.233  1.8795  0.4354  1.7023
  653MOL0     H90077   3.670   9.188   9.277 -1.4296  1.7955  2.6182
  653MOL0     H90078   3.419   9.036   9.634  1.9580 -0.4668 -1.2463
  653MOL0     H90079   3.512   9.183   9.658  2.0223 -2.9945 -0.4558
  653MOL0     H90080   3.250   9.192   9.496 -0.9454 -0.2809  0.4866
  653MOL0     H90081   3.233   9.187   9.663  0.6934 -0.5679  1.1958
  653MOL0     H90082   3.373   9.423   9.537 -0.5264  1.4940 -0.7139
  653MOL0     H90083   3.355   9.375   9.714 -0.0168 -1.2193  0.0066
  653MOL0     H90084   3.100   9.392   9.686  1.4241 -0.7047  1.3702
  653MOL0     H90085   3.127   9.445   9.510 -0.7471 -0.1879 -0.0654
  653MOL0     H90086   3.264   9.592   9.724 -0.7748  1.5190  2.3279
  653MOL0     H90087   3.204   9.642   9.561 -1.9081  0.8061  0.7923
  653MOL0     H90088   3.058   9.600   9.815  3.5106  0.1419 -0.5038
  653MOL0     H90089   2.963   9.600   9.654 -0.6146  2.7446 -1.6531
  653MOL0     H90090   3.051   9.824   9.612  0.0627  1.4830 -0.1937
  653MOL0     H90091   3.123   9.822   9.783 -2.3284 -0.5677  2.3038
  653MOL0     H90092   2.836   9.819   9.715  3.0864 -0.6841 -3.0068
  653MOL0     H90093   2.954   9.949   9.772  1.6171 -0.2986 -2.9386
  653MOL0     H90094   3.605   8.935   9.617  1.9858 -0.8538  1.0089
  653MOL0     H90095   3.804   8.797   9.553  4.9889 -0.3872 -0.3748
  653MOL0     H90096   4.215   8.932   9.272 -3.1581 -0.4176  2.9181
  653MOL0     H90097   4.420   8.879   9.179  1.2504 -0.0885 -0.1610
  653MOL0     H90098   5.616   8.932   7.917 -3.8026 -1.6274  2.2739
  653MOL0     H90099   5.637   8.966   7.670 -0.4752 -0.0701 -1.7635
  653MOL0     H90100   5.508   9.111   7.278 -1.0859  2.3069 -2.0353
  653MOL0     H90101   5.617   9.145   7.072  0.1161 -2.6406  1.7533
  653MOL0     H90102   5.752   9.269   6.822  4.1506 -1.2671  1.3788
  653MOL0     H90103   5.657   9.389   6.916 -0.2272 -1.6112  1.8259
  653MOL0     H90104   5.781   9.472   6.725 -1.8526 -0.6861  0.8796
  653MOL0     H90105   5.934   9.412   6.790 -0.4642 -1.4801  3.5163
  653MOL0     H90106   5.837   9.671   6.817  2.8586 -1.5326 -1.9717
  653MOL0     H90107   5.783   9.608   6.977  1.6338  0.8540  1.6467
  653MOL0     H90108   6.074   9.644   6.871  2.8153 -1.3274  1.1291
  653MOL0     H90109   6.039   9.528   6.997  1.0731  1.3793  1.6857
  653MOL0     H90110   6.060   9.873   7.214  4.1740 -0.0415 -0.6064
  653MOL0     H90111   5.831   9.480   7.232  1.7956 -1.8127  3.3790
  653MOL0     H90112   5.855   9.508   7.468  0.2289 -2.0304 -2.5364
  653MOL0     H90113   5.714   9.590   7.434  0.9857  1.1005 -0.1103
  653MOL0     H90114   5.717   9.463   7.570 -1.9525  0.8287 -0.4801
  654MOL0     O90115  11.116   9.682   5.555  0.8717 -0.0292 -0.3413
  654MOL0     C90116  11.226   9.723   5.572 -1.0632  0.5528  0.1570
  654MOL0     O90117  11.279   9.769   5.684 -0.0782 -0.0764 -0.1278
  654MOL0     C90118  11.208   9.801   5.798  0.2287  0.0161  0.7128
  654MOL0     C90119  11.266   9.813   5.925 -0.9064 -1.7084 -0.0191
  654MOL0     C90120  11.197   9.855   6.036 -0.3462  0.5471  0.1307
  654MOL0     C90121  11.061   9.864   6.039 -1.0697  0.2421  0.1564
  654MOL0     O90122  11.004   9.883   6.163  0.3256  0.0794  0.0864
  654MOL0     C90123  10.864   9.921   6.164  0.2745  0.0111  0.3921
  654MOL0     C90124  10.813   9.941   6.300  0.0830  0.0806  0.2744
  654MOL0     C90125  10.659   9.952   6.312 -0.0344 -0.3938  0.7893
  654MOL0     C90126  10.628  10.013   6.449 -0.0042  1.1904 -0.7803
  654MOL0     C90127  10.492  10.078   6.454 -0.1794 -0.0946  0.8873
  654MOL0     C90128  10.466  10.141   6.587 -0.7865 -0.2584 -0.4264
  654MOL0     C90129  10.314  10.138   6.627  0.5229  0.0066  0.0086
  654MOL0     C90130  10.313  10.168   6.776  0.4795 -1.2898 -0.0470
  654MOL0     N90131  10.176  10.154   6.833  0.1977 -0.7278 -0.1171
  654MOL0     C90132  10.105  10.269   6.853 -0.5712  0.0500  0.3890
  654MOL0     C90133   9.976  10.224   6.855  0.3904 -0.3242 -0.3757
  654MOL0     C90134   9.868  10.326   6.874  0.6595  0.4558  0.4293
  654MOL0     C90135   9.725  10.259   6.909  1.2069 -0.4823 -0.6630
  654MOL0     C90136   9.725  10.177   7.035 -1.1325 -0.4589 -0.2956
  654MOL0     C90137   9.600  10.099   7.063  0.2522 -0.7394 -0.1124
  654MOL0     O90138   9.606  10.079   7.209  0.3028  0.3093 -0.1878
  654MOL0     C90139   9.503  10.009   7.273 -0.6523  0.4099 -0.5725
  654MOL0     C90140   9.368  10.005   7.227 -0.3478  0.8323 -1.1905
  654MOL0     C90141   9.265   9.934   7.295  0.4576  0.4239 -0.4941
  654MOL0     C90142   9.118   9.936   7.237  0.4436  0.0569 -0.2945
  654MOL0     C90143   9.302   9.859   7.407 -0.6316  0.1049 -0.1324
  654MOL0     C90144   9.206   9.766   7.478  0.4789 -0.0492 -0.9201
  654MOL0     O90145   9.255   9.674   7.570  0.2078 -0.7750 -0.5339
  654MOL0     C90146   9.168   9.636   7.672  0.4443  0.6485  0.2946
  654MOL0     C90147   9.088   9.516   7.668  0.0283 -0.2698 -0.6704
  654MOL0     C90148   9.006   9.480   7.777  0.0589 -0.0916  0.1703
  654MOL0     C90149   8.986   9.571   7.879 -0.0146  0.2334  0.5170
  654MOL0     O90150   8.887   9.532   7.968 -0.0427  0.1750  0.2374
  654MOL0     C90151   8.835   9.626   8.070 -0.5088  0.0185 -0.0707
  654MOL0     C90152   8.699   9.576   8.108  1.3630 -0.4178 -0.1027
  654MOL0     C90153   8.669   9.427   8.145 -0.2207  0.7984  0.4796
  654MOL0     C90154   8.515   9.420   8.178 -1.0641  0.1945  0.3737
  654MOL0     C90155   8.464   9.278   8.201 -0.0002 -0.0241 -0.5367
  654MOL0     C90156   8.502   9.180   8.092  0.1797  0.4730  0.7185
  654MOL0     C90157   8.400   9.075   8.054  0.2486 -0.0339  0.4562
  654MOL0     C90158   8.436   9.003   7.929  0.2171  0.6401  1.1288
  654MOL0    Cl90159   8.398   9.070   7.764  0.0267 -0.0465  0.2469
  654MOL0     C90160   9.053   9.688   7.884  0.3493 -0.1446  0.1714
  654MOL0     C90161   9.146   9.722   7.787  0.9508 -0.3142  0.9090
  654MOL0     O90162   9.087   9.789   7.465  0.3130 -0.6067 -0.1477
  654MOL0     C90163   9.438   9.865   7.453 -0.0000  0.3719 -0.4617
  654MOL0     C90164   9.533   9.945   7.396 -0.9361  1.3595 -0.5184
  654MOL0     N90165   9.981  10.086   6.835 -0.4327 -0.4279 -0.2847
  654MOL0     N90166  10.101  10.041   6.829  0.1148  0.0955  0.7813
  654MOL0     C90167  10.999   9.864   5.912  1.1666 -0.8376  0.4867
  654MOL0     C90168  11.076   9.836   5.795  0.3050  0.6533 -0.9979
  654MOL0     C90169  11.325   9.723   5.457 -0.8638  0.1249 -0.5034
  654MOL0     C90170  11.286   9.756   5.328  0.3021  0.2228  0.5846
  654MOL0     C90171  11.381   9.769   5.227  0.2252 -0.5819  0.5415
  654MOL0     C90172  11.520   9.761   5.262 -0.1552  0.2822  0.5546
  654MOL0     O90173  11.610   9.810   5.170  0.4356  0.1910  0.3462
  654MOL0     C90174  11.603   9.743   5.037  0.3513 -0.5714 -0.1060
  654MOL0     C90175  11.696   9.815   4.946  0.5426 -0.2549 -0.7402
  654MOL0     C90176  11.639   9.952   4.907 -0.6878  0.1045 -0.5933
  654MOL0     C90177  11.723  10.018   4.795  0.8943 -0.8568  0.5782
  654MOL0     C90178  11.655  10.142   4.753  0.7267  0.0338  0.6435
  654MOL0     C90179  11.614  10.241   4.693 -0.5960  0.2372 -1.0345
  654MOL0     C90180  11.565   9.720   5.383  0.7587  0.3156 -0.3973
  654MOL0     C90181  11.468   9.692   5.483 -0.6824 -0.8020  0.3550
  654MOL0     C90182  11.514   9.639   5.622 -0.5047 -0.3586  1.1958
  654MOL0     H90183  11.374   9.807   5.936 -0.6733  2.5454  2.2718
  654MOL0     H90184  11.243   9.857   6.135 -1.1209 -3.0308  0.7216
  654MOL0     H90185  10.801   9.848   6.111 -0.9750  2.2122 -1.2913
  654MOL0     H90186  10.864  10.007   6.097 -0.1817 -0.8753 -0.7945
  654MOL0     H90187  10.845   9.862   6.369  1.6518  1.1381  0.8004
  654MOL0     H90188  10.839  10.042   6.331 -2.1078  1.2134 -1.2551
  654MOL0     H90189  10.610  10.017   6.239 -0.0630  0.8190  1.8384
  654MOL0     H90190  10.624   9.849   6.300 -0.6556 -0.1644  0.5740
  654MOL0     H90191  10.622   9.932   6.522 -2.0865 -1.3452 -3.5034
  654MOL0     H90192  10.708  10.082   6.476  1.7577 -0.7298 -0.9004
  654MOL0     H90193  10.422   9.994   6.447  1.5120 -1.5645  0.7490
  654MOL0     H90194  10.486  10.148   6.370  0.0467 -2.7218 -1.4642
  654MOL0     H90195  10.521  10.077   6.657  0.0404 -1.0082 -1.7219
  654MOL0     H90196  10.501  10.245   6.592 -2.1905  0.1812  1.7650
  654MOL0     H90197  10.273  10.040   6.603 -1.6529  0.9050 -0.1296
  654MOL0     H90198  10.253  10.206   6.566 -0.3865 -2.5530 -2.1069
  654MOL0     H90199  10.373  10.098   6.835  2.0527  0.5590  0.6479
  654MOL0     H90200  10.353  10.270   6.774 -2.5332 -0.0216  0.0446
  654MOL0     H90201  10.148  10.368   6.853  0.8334 -0.5465  0.3973
  654MOL0     H90202   9.845  10.388   6.787 -0.6239  0.3314  0.6724
  654MOL0     H90203   9.889  10.383   6.965  1.3152  0.1342  0.4856
  654MOL0     H90204   9.642  10.329   6.911  0.4812 -1.3426  0.2288
  654MOL0     H90205   9.682  10.200   6.827 -2.1117 -0.2535  0.7743
  654MOL0     H90206   9.804  10.102   7.027 -0.6492 -0.4022  2.7781
  654MOL0     H90207   9.743  10.245   7.120 -0.3806 -0.6955 -0.2573
  654MOL0     H90208   9.514  10.163   7.041  0.1585  0.6575  3.5695
  654MOL0     H90209   9.608  10.006   7.006  0.3023 -1.0939  0.4628
  654MOL0     H90210   9.331  10.073   7.151  0.9785  1.0143 -1.7045
  654MOL0     H90211   9.114   9.998   7.147 -0.2401 -1.4130 -1.3231
  654MOL0     H90212   9.047   9.972   7.312  1.4820 -0.3492  0.9129
  654MOL0     H90213   9.084   9.835   7.212  0.7030 -0.4904  1.4300
  654MOL0     H90214   9.116   9.430   7.608 -0.3350 -1.1890  0.4503
  654MOL0     H90215   8.961   9.380   7.779  3.8149 -1.9476  0.4349
  654MOL0     H90216   8.909   9.615   8.150  1.2218 -0.5008 -1.6505
  654MOL0     H90217   8.829   9.730   8.035 -0.2477 -0.2020 -0.7906
  654MOL0     H90218   8.656   9.632   8.191  0.2848  0.0493 -0.9496
  654MOL0     H90219   8.631   9.595   8.024  0.9607 -0.4349  0.2151
  654MOL0     H90220   8.733   9.393   8.226 -1.0447  1.8728  1.6086
  654MOL0     H90221   8.687   9.360   8.060 -2.5190  2.0053 -1.0912
  654MOL0     H90222   8.449   9.478   8.113 -2.7897 -1.1822  0.7860
  654MOL0     H90223   8.504   9.462   8.278  0.0421 -1.7065  1.3527
  654MOL0     H90224   8.491   9.245   8.302  0.3715 -4.3975 -1.8644
  654MOL0     H90225   8.355   9.275   8.191  0.0313 -4.6339 -1.9408
  654MOL0     H90226   8.599   9.132   8.108 -0.7225 -1.8241 -0.2624
  654MOL0     H90227   8.526   9.234   7.999  0.0436 -4.5402 -2.5904
  654MOL0     H90228   8.304   9.125   8.036 -0.4733 -1.3933  0.3151
  654MOL0     H90229   8.379   9.006   8.137 -2.6507 -0.8347 -0.8138
  654MOL0     H90230   8.405   8.899   7.913  2.7409  0.2485 -2.2321
  654MOL0     H90231   8.544   8.989   7.924 -0.0464 -1.1946 -0.5329
  654MOL0     H90232   9.047   9.755   7.969  1.3293 -1.9594  1.7640
  654MOL0     H90233   9.206   9.812   7.790 -1.0952  1.2634 -1.4302
  654MOL0     H90234   9.466   9.808   7.541  0.3043  0.4495 -0.5076
  654MOL0     H90235   9.632   9.953   7.438 -1.5200  1.1393  0.9670
  654MOL0     H90236  10.891   9.878   5.907  1.1606  0.0860  2.3178
  654MOL0     H90237  11.014   9.838   5.706 -0.7772 -1.0453 -0.3405
  654MOL0     H90238  11.180   9.772   5.316  0.2883  1.2722  1.8268
  654MOL0     H90239  11.333   9.796   5.133  3.9013 -0.8317 -1.6074
  654MOL0     H90240  11.632   9.639   5.057  0.2236 -0.3226  1.4615
  654MOL0     H90241  11.511   9.744   4.979  0.2144 -2.2979  0.0286
  654MOL0     H90242  11.703   9.751   4.858 -0.0606 -3.3347  1.3082
  654MOL0     H90243  11.797   9.825   4.987 -0.4011  1.8314  1.3189
  654MOL0     H90244  11.530   9.954   4.897 -0.5765 -0.4291 -2.4016
  654MOL0     H90245  11.663  10.017   4.991  2.9401  1.0794 -2.1882
  654MOL0     H90246  11.723   9.951   4.709  0.6748  0.3886 -0.4186
  654MOL0     H90247  11.822  10.056   4.823  0.4411 -1.5016  3.3706
  654MOL0     H90248  11.597  10.338   4.650 -0.4746  2.3889  3.1992
  654MOL0     H90249  11.669   9.713   5.414  0.2713 -0.9314  1.1330
  654MOL0     H90250  11.621   9.621   5.613 -0.3281  0.2235  2.0424
  654MOL0     H90251  11.512   9.717   5.698  1.3027  0.1600  0.7631
  654MOL0     H90252  11.454   9.554   5.658  1.0019 -2.5064 -1.0110
  655MOL0     O90253   8.519   5.967   2.891  0.1723  0.0243 -1.3242
  655MOL0     C90254   8.528   5.969   2.774 -0.5018 -0.5215  0.3889
  655MOL0     O90255   8.644   5.962   2.705  0.5037 -0.8532  0.1014
  655MOL0     C90256   8.760   5.943   2.773 -0.5489 -0.5578 -0.1447
  655MOL0     C90257   8.761   5.814   2.833 -0.9218  0.0878  0.0512
  655MOL0     C90258   8.879   5.782   2.899 -0.2362 -0.2970  0.0639
  655MOL0     C90259   8.988   5.857   2.909 -0.9951 -0.5237 -0.7945
  655MOL0     O90260   9.099   5.850   2.996  0.0835  0.4499  0.2596
  655MOL0     C90261   9.127   5.720   3.053  0.4807 -0.3216  0.7807
  655MOL0     C90262   9.263   5.676   3.017 -0.4116  0.5475  0.2287
  655MOL0     C90263   9.301   5.536   3.069 -1.1727  0.2054 -0.0274
  655MOL0     C90264   9.450   5.515   3.029 -0.3179  0.0016 -0.1204
  655MOL0     C90265   9.483   5.371   3.002  0.6612  0.2928 -0.0064
  655MOL0     C90266   9.455   5.254   3.105 -0.1398 -0.1922 -0.1750
  655MOL0     C90267   9.516   5.117   3.070  0.6079  0.4675  0.4093
  655MOL0     C90268   9.531   5.021   3.191 -0.1445 -0.5808 -0.1333
  655MOL0     N90269   9.571   4.885   3.140 -0.0827 -0.4744 -0.3854
  655MOL0     C90270   9.690   4.854   3.078  0.4944 -0.3613 -0.6269
  655MOL0     C90271   9.697   4.720   3.089  0.0126  1.1683  0.1422
  655MOL0     C90272   9.804   4.619   3.046  0.2090  0.0683 -0.6976
  655MOL0     C90273   9.915   4.604   3.152 -0.6329 -0.8394  0.5546
  655MOL0     C90274   9.999   4.480   3.126 -0.0941 -0.8651  0.1264
  655MOL0     C90275  10.114   4.474   3.215 -0.1293 -0.4228  0.3841
  655MOL0     O90276  10.072   4.448   3.347 -0.2886  0.1149 -0.0429
  655MOL0     C90277  10.076   4.566   3.430  1.2009  0.1864 -0.2989
  655MOL0     C90278   9.966   4.585   3.520  0.8392  0.1501  0.5578
  655MOL0     C90279   9.954   4.687   3.618  0.0186 -0.0997 -0.0515
  655MOL0     C90280   9.833   4.672   3.716 -1.0755  0.0740  0.6085
  655MOL0     C90281  10.064   4.779   3.624 -0.0359  0.3060 -0.3247
  655MOL0     C90282  10.084   4.872   3.740  0.1083  0.9490 -0.3381
  655MOL0     O90283   9.979   4.914   3.811  0.2244 -0.0967  0.1197
  655MOL0     C90284   9.991   4.948   3.942  0.1777  0.2170 -0.2079
  655MOL0     C90285   9.906   5.041   3.997 -0.6187 -0.5325  0.0509
  655MOL0     C90286   9.907   5.089   4.126  0.1520  0.2982  0.1411
  655MOL0     C90287  10.001   5.025   4.216  0.3610  0.3392 -0.5154
  655MOL0     O90288  10.005   5.061   4.348  0.0278 -0.0688  0.1889
  655MOL0     C90289  10.117   5.009   4.435 -0.1463  0.1295 -0.4003
  655MOL0     C90290  10.075   4.895   4.514  0.1877  1.0145 -0.1975
  655MOL0     C90291   9.993   4.930   4.641 -0.8253  0.3510 -0.3758
  655MOL0     C90292   9.882   4.826   4.663 -0.2621 -0.2645  0.0206
  655MOL0     C90293   9.954   4.692   4.694  0.1227  0.2354  0.1305
  655MOL0     C90294  10.067   4.697   4.792 -0.3608  0.3968  0.3256
  655MOL0     C90295  10.133   4.558   4.810  0.5429 -0.1211 -0.9706
  655MOL0     C90296  10.196   4.554   4.949  0.0937 -0.2206  0.9664
  655MOL0    Cl90297  10.323   4.680   4.992  0.4181 -0.1161 -0.1712
  655MOL0     C90298  10.090   4.933   4.157 -0.6159 -0.0391 -0.3850
  655MOL0     C90299  10.084   4.895   4.028 -0.5164  0.8745 -0.5210
  655MOL0     O90300  10.200   4.899   3.759 -0.0791  0.3364  0.2767
  655MOL0     C90301  10.175   4.754   3.545 -0.1242 -0.4637 -0.8788
  655MOL0     C90302  10.176   4.657   3.446 -0.0473 -0.4682 -0.2157
  655MOL0     N90303   9.575   4.676   3.144 -0.4082  0.1584  0.6058
  655MOL0     N90304   9.500   4.773   3.174 -0.4815 -0.1909 -0.4099
  655MOL0     C90305   8.983   5.981   2.846  0.6976  0.1317  0.7013
  655MOL0     C90306   8.871   6.027   2.773 -0.8132  0.2033 -0.8948
  655MOL0     C90307   8.407   5.975   2.683  1.6110  0.2770 -0.7725
  655MOL0     C90308   8.417   5.941   2.542  0.6109 -0.2680 -0.5337
  655MOL0     C90309   8.308   5.966   2.457 -1.1162  0.0955  1.3378
  655MOL0     C90310   8.187   6.006   2.500  0.0730 -0.1974 -0.1409
  655MOL0     O90311   8.084   6.043   2.422 -0.0891  0.3227  0.8494
  655MOL0     C90312   8.055   5.989   2.296 -1.1460  0.8669  0.1146
  655MOL0     C90313   7.945   6.062   2.212 -0.8490 -0.5895 -0.4952
  655MOL0     C90314   7.968   6.214   2.208  0.1193  0.0724 -1.2782
  655MOL0     C90315   8.114   6.225   2.168 -0.9718 -0.6064 -1.1055
  655MOL0     C90316   8.138   6.358   2.109 -0.3793 -0.0221  0.0961
  655MOL0     C90317   8.157   6.468   2.061  0.4802 -0.7933  0.3350
  655MOL0     C90318   8.170   6.018   2.639  0.6116 -1.2755 -0.0400
  655MOL0     C90319   8.274   6.007   2.732 -0.2057  0.4969  0.1347
  655MOL0     C90320   8.249   6.038   2.876 -0.2821 -1.5621 -0.6507
  655MOL0     H90321   8.671   5.755   2.822 -1.6906  1.6806 -4.1519
  655MOL0     H90322   8.881   5.690   2.956 -0.0712  0.4097  1.2228
  655MOL0     H90323   9.066   5.634   3.023  0.2470  0.7649 -2.2084
  655MOL0     H90324   9.125   5.733   3.162  3.4654  2.4169  0.6495
  655MOL0     H90325   9.278   5.676   2.908  0.7153 -1.9981  0.3067
  655MOL0     H90326   9.339   5.745   3.053  0.4419 -0.0825 -0.3346
  655MOL0     H90327   9.289   5.524   3.177  2.5007 -3.6051  0.1693
  655MOL0     H90328   9.240   5.462   3.017 -1.4446  1.3905 -1.4734
  655MOL0     H90329   9.494   5.577   2.950  3.6294 -0.9361  1.1548
  655MOL0     H90330   9.514   5.544   3.113  1.4118 -2.4441 -0.5067
  655MOL0     H90331   9.588   5.365   2.973  0.8957  0.0119  0.8711
  655MOL0     H90332   9.451   5.353   2.899  0.5272  1.6356 -0.2142
  655MOL0     H90333   9.492   5.281   3.204 -0.4439  2.0530 -0.6268
  655MOL0     H90334   9.348   5.233   3.108 -0.1359 -0.4217 -1.1844
  655MOL0     H90335   9.616   5.134   3.029 -0.3347 -1.5141 -3.1937
  655MOL0     H90336   9.462   5.064   2.992  3.0486  0.8277 -1.6766
  655MOL0     H90337   9.604   5.070   3.256 -1.5800  0.2509  0.9150
  655MOL0     H90338   9.437   5.015   3.246  0.1597  3.6464  1.2043
  655MOL0     H90339   9.773   4.914   3.042  1.9455 -2.4340 -0.8851
  655MOL0     H90340   9.833   4.641   2.942  0.5320 -0.3398 -0.6968
  655MOL0     H90341   9.759   4.520   3.047 -1.0270  0.5695  1.8819
  655MOL0     H90342   9.978   4.693   3.145 -0.1086 -1.2272  0.2388
  655MOL0     H90343   9.876   4.603   3.255 -2.5282 -1.8335 -0.1124
  655MOL0     H90344   9.942   4.387   3.135 -0.0876 -0.7648  1.2955
  655MOL0     H90345  10.026   4.486   3.020 -2.6006  0.1448 -0.5197
  655MOL0     H90346  10.158   4.384   3.171 -0.2492 -1.5316  2.4496
  655MOL0     H90347  10.177   4.562   3.196 -2.3433  1.0512 -0.6860
  655MOL0     H90348   9.878   4.521   3.516 -2.0171  3.8055  0.0359
  655MOL0     H90349   9.813   4.567   3.739  3.3846 -1.0649  0.2124
  655MOL0     H90350   9.739   4.707   3.672  1.3870  2.5073 -3.3614
  655MOL0     H90351   9.858   4.704   3.817  0.9023  0.5314  0.0120
  655MOL0     H90352   9.848   5.104   3.930  2.3363  2.0357 -0.3211
  655MOL0     H90353   9.839   5.163   4.166  1.2636  0.4619  1.8044
  655MOL0     H90354  10.206   5.004   4.372 -0.9331  1.2127 -1.6515
  655MOL0     H90355  10.142   5.087   4.507  2.8661  1.3865 -2.6107
  655MOL0     H90356  10.040   4.818   4.446  1.4154 -0.4585  0.7759
  655MOL0     H90357  10.158   4.834   4.552 -2.2669 -2.0284  0.6829
  655MOL0     H90358   9.930   5.016   4.615  0.4637  1.9814  1.6506
  655MOL0     H90359  10.050   4.964   4.727 -1.3723  1.9716 -0.6078
  655MOL0     H90360   9.817   4.820   4.575 -0.4171  2.0448 -0.0822
  655MOL0     H90361   9.824   4.856   4.751 -1.0962  0.5744 -0.7924
  655MOL0     H90362   9.871   4.637   4.738  1.4982 -0.4771  1.9417
  655MOL0     H90363   9.974   4.648   4.596 -1.3667  2.5680 -1.3277
  655MOL0     H90364  10.040   4.743   4.888  4.9730  2.0368  1.3748
  655MOL0     H90365  10.153   4.760   4.768 -0.6217  0.7810  0.3916
  655MOL0     H90366  10.215   4.556   4.738  0.6670  0.4610 -0.8547
  655MOL0     H90367  10.059   4.479   4.793  1.5908 -1.8162  1.7854
  655MOL0     H90368  10.245   4.457   4.959 -2.3366 -1.7647 -0.8107
  655MOL0     H90369  10.107   4.573   5.010 -0.0120 -1.8945  1.3665
  655MOL0     H90370  10.162   4.875   4.214 -1.6809 -2.0108 -0.9707
  655MOL0     H90371  10.155   4.819   3.996  2.9114  2.7887  1.8450
  655MOL0     H90372  10.268   4.808   3.558  0.1737 -1.2664  0.6121
  655MOL0     H90373  10.267   4.658   3.388  0.3139 -0.2169  0.3475
  655MOL0     H90374   9.068   6.049   2.853 -0.3228  1.5092  0.2346
  655MOL0     H90375   8.868   6.124   2.723  1.5512  1.8380  1.8400
  655MOL0     H90376   8.513   5.918   2.499  2.1193 -1.2711  2.9807
  655MOL0     H90377   8.321   5.943   2.352 -1.7463  0.2394  1.2246
  655MOL0     H90378   8.146   5.975   2.237 -2.5352 -0.3081 -1.8648
  655MOL0     H90379   8.014   5.890   2.318 -1.5438  1.0219  0.0875
  655MOL0     H90380   7.852   6.038   2.266  0.4274 -2.5757  0.9385
  655MOL0     H90381   7.934   6.024   2.110  2.5420  2.0126 -2.0247
  655MOL0     H90382   7.901   6.247   2.127 -0.1676  1.5339 -0.4628
  655MOL0     H90383   7.952   6.262   2.304 -0.7699  1.3572 -2.0378
  655MOL0     H90384   8.155   6.155   2.094 -2.9576 -1.1463 -1.7577
  655MOL0     H90385   8.176   6.221   2.258 -3.3969  2.4737  0.9073
  655MOL0     H90386   8.155   6.570   2.026  2.2072 -0.9035 -0.1509
  655MOL0     H90387   8.070   6.038   2.676  0.6826  0.1338 -0.5283
  655MOL0     H90388   8.292   5.956   2.935  2.6184  0.2814 -0.0262
  655MOL0     H90389   8.296   6.134   2.899 -2.4529 -0.2561 -1.3317
  655MOL0     H90390   8.143   6.054   2.897 -0.0468  1.5404 -1.3829
  656MOL0     O90391   3.776   7.307   6.011 -0.6090  0.1742  0.0719
  656MOL0     C90392   3.696   7.264   6.087 -0.4882  0.2700 -0.4356
  656MOL0     O90393   3.574   7.228   6.057  0.3987 -0.3871 -0.4431
  656MOL0     C90394   3.540   7.235   5.927 -0.3356 -0.1324 -0.8362
  656MOL0     C90395   3.591   7.145   5.834 -0.4328 -0.6365  0.0407
  656MOL0     C90396   3.551   7.150   5.694 -0.9501  0.9602 -0.6722
  656MOL0     C90397   3.456   7.243   5.655 -0.2105 -0.5842  0.6605
  656MOL0     O90398   3.407   7.252   5.533 -0.1930  0.2018 -1.1969
  656MOL0     C90399   3.457   7.186   5.420 -0.1648  0.1859  1.1795
  656MOL0     C90400   3.370   7.068   5.380 -0.6283 -0.1182 -0.3862
  656MOL0     C90401   3.220   7.090   5.350 -0.5565 -0.5143  0.1174
  656MOL0     C90402   3.138   6.964   5.298  1.1266 -0.0366  0.2871
  656MOL0     C90403   2.986   7.001   5.275 -0.2772 -0.6496  1.0311
  656MOL0     C90404   2.953   7.118   5.172 -0.1242  0.0610 -1.1312
  656MOL0     C90405   2.984   7.089   5.017 -0.6860  0.4294 -0.1003
  656MOL0     C90406   3.008   7.232   4.953  0.1415  0.1717  0.0473
  656MOL0     N90407   2.999   7.235   4.813  0.5382  0.2239  0.2246
  656MOL0     C90408   2.959   7.348   4.748 -0.2204  0.2796  0.5216
  656MOL0     C90409   2.967   7.306   4.620 -0.9271 -0.3265 -0.1218
  656MOL0     C90410   2.928   7.401   4.504 -0.2551 -0.0975 -0.0637
  656MOL0     C90411   2.978   7.554   4.522 -0.4337 -0.0119  0.2315
  656MOL0     C90412   2.964   7.618   4.377  0.0380  0.6912  0.9382
  656MOL0     C90413   3.031   7.753   4.363 -0.4490  0.5989  1.1157
  656MOL0     O90414   3.002   7.826   4.479 -0.5504  0.0461 -0.6443
  656MOL0     C90415   3.054   7.953   4.492  0.1121  0.0605 -0.0719
  656MOL0     C90416   3.181   7.995   4.434 -1.0262  1.0391 -0.1962
  656MOL0     C90417   3.234   8.120   4.462 -0.2336  0.4238  0.0816
  656MOL0     C90418   3.380   8.141   4.409 -0.0650  0.5406 -0.5301
  656MOL0     C90419   3.172   8.208   4.558  0.0511 -1.2444 -0.7782
  656MOL0     C90420   3.231   8.336   4.605 -0.4112  0.9270 -0.3994
  656MOL0     O90421   3.289   8.417   4.512  0.0787 -0.8004 -0.5899
  656MOL0     C90422   3.356   8.527   4.558 -0.9095 -0.5815  0.0196
  656MOL0     C90423   3.499   8.525   4.578  0.2389 -0.0575  1.2199
  656MOL0     C90424   3.558   8.640   4.620 -0.7482  0.3060 -0.1502
  656MOL0     C90425   3.492   8.759   4.636 -0.8134  0.3968  0.4327
  656MOL0     O90426   3.568   8.870   4.682  0.3848  0.4654 -0.7360
  656MOL0     C90427   3.678   8.908   4.590  0.1357 -0.3916  0.3742
  656MOL0     C90428   3.767   9.016   4.678 -0.5111 -0.2340  0.0289
  656MOL0     C90429   3.863   8.958   4.777  0.4343 -0.1917  0.6540
  656MOL0     C90430   3.987   8.885   4.701 -0.2954 -0.1689  0.0396
  656MOL0     C90431   4.051   8.794   4.811  0.3459  0.0532  0.6388
  656MOL0     C90432   4.148   8.686   4.765 -0.4195  1.0572  0.0165
  656MOL0     C90433   4.274   8.729   4.697 -0.6961  0.0483  0.0262
  656MOL0     C90434   4.368   8.610   4.668  0.2997  0.3247  0.3270
  656MOL0    Cl90435   4.443   8.564   4.817  0.3809  0.1850  0.1413
  656MOL0     C90436   3.354   8.768   4.602  0.0287  0.7716 -0.1235
  656MOL0     C90437   3.292   8.648   4.565 -0.4487 -0.1704 -0.2738
  656MOL0     O90438   3.228   8.351   4.727 -0.2710 -0.6627  0.5039
  656MOL0     C90439   3.054   8.162   4.624 -0.0342  0.0606 -0.1915
  656MOL0     C90440   3.001   8.032   4.595 -0.6201 -0.3190  0.8730
  656MOL0     N90441   3.002   7.175   4.610 -0.2932 -0.0326  0.9449
  656MOL0     N90442   3.022   7.127   4.733 -0.7710  0.1054  0.6837
  656MOL0     C90443   3.399   7.322   5.755  0.5767 -0.4191  0.8256
  656MOL0     C90444   3.439   7.324   5.891  0.2986  0.3335  0.2983
  656MOL0     C90445   3.741   7.251   6.227  0.1311  0.1824  0.6744
  656MOL0     C90446   3.863   7.182   6.251  0.0489 -0.0465 -0.4277
  656MOL0     C90447   3.901   7.170   6.386  0.0672  0.1291 -0.3030
  656MOL0     C90448   3.830   7.213   6.498 -0.6890  0.0233  0.0928
  656MOL0     O90449   3.874   7.205   6.633 -0.1210  0.6629  0.1483
  656MOL0     C90450   3.992   7.129   6.650 -0.6120 -0.1026 -0.8799
  656MOL0     C90451   4.022   7.109   6.807  0.1167 -0.3071 -0.1793
  656MOL0     C90452   4.122   6.988   6.829  1.0194  0.0618 -0.0423
  656MOL0     C90453   4.167   6.988   6.979  0.5373 -1.1088  1.0086
  656MOL0     C90454   4.066   6.938   7.064 -0.7273  0.1324 -0.1476
  656MOL0     C90455   3.982   6.886   7.131  0.0963  0.2317 -0.4584
  656MOL0     C90456   3.706   7.271   6.473  0.5343  0.3145 -0.5875
  656MOL0     C90457   3.662   7.297   6.339 -0.5655  1.0447  1.0968
  656MOL0     C90458   3.552   7.386   6.302  0.5706  0.3772 -0.4525
  656MOL0     H90459   3.678   7.085   5.859  0.3404  1.2768  2.2296
  656MOL0     H90460   3.605   7.082   5.628  1.0163 -0.8520  2.5514
  656MOL0     H90461   3.558   7.148   5.436  0.3327  0.8915 -0.1039
  656MOL0     H90462   3.452   7.260   5.339 -0.4113  0.6741  1.6306
  656MOL0     H90463   3.416   7.018   5.294 -1.6574 -0.4912 -0.7363
  656MOL0     H90464   3.379   6.993   5.459 -2.7219  2.3894  2.4362
  656MOL0     H90465   3.176   7.130   5.442  1.8604  0.2045  1.0301
  656MOL0     H90466   3.215   7.166   5.271 -0.8126 -2.5943 -1.9726
  656MOL0     H90467   3.187   6.926   5.207 -0.8821  1.4098 -1.5122
  656MOL0     H90468   3.139   6.875   5.361  0.3809  0.8932  1.6431
  656MOL0     H90469   2.936   7.025   5.369  0.9279  2.4534  0.9849
  656MOL0     H90470   2.938   6.914   5.228 -1.5155  0.8832 -0.6736
  656MOL0     H90471   2.844   7.127   5.166 -0.5217 -2.1291  1.0306
  656MOL0     H90472   2.985   7.211   5.220 -2.8649  0.8805 -0.6822
  656MOL0     H90473   2.906   7.029   4.970 -0.5917 -1.3740  1.8698
  656MOL0     H90474   3.077   7.031   5.011  0.5353  2.2709  0.1382
  656MOL0     H90475   2.935   7.296   5.004  0.4771 -1.6962  3.1509
  656MOL0     H90476   3.106   7.274   4.975  0.8145 -1.2363 -0.1375
  656MOL0     H90477   2.920   7.439   4.792  0.6840  1.0562 -0.2547
  656MOL0     H90478   2.819   7.407   4.492 -0.3370  1.4101  1.1335
  656MOL0     H90479   2.976   7.362   4.414  1.2120  3.2983 -0.8952
  656MOL0     H90480   2.901   7.617   4.567 -0.9437  2.0395 -3.1409
  656MOL0     H90481   3.080   7.565   4.560  0.4233 -1.3902 -1.5389
  656MOL0     H90482   3.009   7.559   4.297 -1.2620 -1.1046  1.4803
  656MOL0     H90483   2.859   7.637   4.352 -0.7778 -2.8675  1.2222
  656MOL0     H90484   3.140   7.744   4.360 -0.4252  1.0403 -0.4641
  656MOL0     H90485   2.988   7.820   4.287  0.7420  0.0112 -0.1131
  656MOL0     H90486   3.208   7.933   4.349 -0.5074  0.1727  0.5858
  656MOL0     H90487   3.395   8.079   4.320 -1.9516 -0.2945 -0.3153
  656MOL0     H90488   3.450   8.118   4.489 -1.6722 -0.5106  0.6502
  656MOL0     H90489   3.380   8.246   4.378  1.2611  0.7551  0.1425
  656MOL0     H90490   3.555   8.434   4.560  0.1707 -0.2251  1.8298
  656MOL0     H90491   3.664   8.648   4.642 -0.1139 -0.5255 -2.6737
  656MOL0     H90492   3.740   8.825   4.554  1.5091  0.5790  0.4217
  656MOL0     H90493   3.642   8.963   4.502 -1.8289  0.1792  1.4595
  656MOL0     H90494   3.831   9.082   4.619 -0.2544  0.7106  1.3363
  656MOL0     H90495   3.689   9.077   4.726 -1.7943 -2.6281  1.1810
  656MOL0     H90496   3.806   8.883   4.833 -0.6426 -0.1605 -0.3479
  656MOL0     H90497   3.900   9.036   4.843  2.6943  1.7089 -2.5643
  656MOL0     H90498   4.054   8.963   4.664 -0.8784  0.2259 -0.1995
  656MOL0     H90499   3.953   8.819   4.621 -2.1569  0.2586  0.4279
  656MOL0     H90500   4.095   8.867   4.880 -0.2882  2.6638 -1.5262
  656MOL0     H90501   3.985   8.735   4.876 -0.3640 -2.2302 -1.9891
  656MOL0     H90502   4.097   8.619   4.695 -1.0720  0.6740  0.8445
  656MOL0     H90503   4.176   8.630   4.855  0.6234  2.0394  0.3213
  656MOL0     H90504   4.333   8.799   4.757 -0.8232 -2.4804  3.4114
  656MOL0     H90505   4.239   8.771   4.603 -0.9620 -2.5656 -1.1163
  656MOL0     H90506   4.446   8.651   4.603  1.5135  1.4785  2.3993
  656MOL0     H90507   4.307   8.531   4.622  0.0356  1.3029 -1.0677
  656MOL0     H90508   3.302   8.863   4.607 -0.3120  0.5124  2.2358
  656MOL0     H90509   3.184   8.647   4.552 -0.5670 -2.8981  0.3105
  656MOL0     H90510   3.007   8.223   4.700 -1.7762  1.0912 -2.0162
  656MOL0     H90511   2.924   7.984   4.656  2.8374 -2.8054  3.7046
  656MOL0     H90512   3.306   7.375   5.738  1.1403  0.7047  1.0999
  656MOL0     H90513   3.388   7.395   5.956 -1.3204  1.5991 -2.1831
  656MOL0     H90514   3.936   7.150   6.177 -1.3162  1.4658 -2.5146
  656MOL0     H90515   3.992   7.112   6.396  1.0578  1.1625 -2.4775
  656MOL0     H90516   3.972   7.030   6.606 -0.9465  0.0218 -1.0045
  656MOL0     H90517   4.083   7.175   6.609 -0.1705 -1.2520 -1.2564
  656MOL0     H90518   3.928   7.078   6.853  0.3459 -2.0621 -0.8113
  656MOL0     H90519   4.063   7.202   6.847  2.0560 -0.6002 -1.3474
  656MOL0     H90520   4.073   6.897   6.793 -2.3093  1.8181 -0.4083
  656MOL0     H90521   4.212   7.004   6.769  1.8846 -1.1090  0.9042
  656MOL0     H90522   4.185   7.091   7.011 -1.0223 -0.8539  1.1265
  656MOL0     H90523   4.263   6.936   6.992  1.2835 -0.2352 -0.6797
  656MOL0     H90524   3.898   6.841   7.180  0.1549 -0.1614 -0.7141
  656MOL0     H90525   3.657   7.317   6.559  0.5926 -1.6159  0.5445
  656MOL0     H90526   3.474   7.334   6.245  0.3820  0.6517 -0.4473
  656MOL0     H90527   3.517   7.435   6.394  2.9406  0.0236  0.6979
  656MOL0     H90528   3.585   7.472   6.243  1.9446 -1.2289 -2.0991
  657MOL0     O90529   8.039   9.481  10.115  0.9852  0.3208 -0.4909
  657MOL0     C90530   8.029   9.365  10.155  0.6088  0.1165 -0.1888
  657MOL0     O90531   7.963   9.316  10.273 -0.2579 -0.1103 -0.7357
  657MOL0     C90532   7.881   9.408  10.340  0.2632  0.1412  0.1918
  657MOL0     C90533   7.923   9.460  10.463  0.0373 -0.1823 -0.0893
  657MOL0     C90534   7.840   9.544  10.545  0.0552 -0.2790 -0.9209
  657MOL0     C90535   7.702   9.554  10.512  0.1029 -0.8441  0.4656
  657MOL0     O90536   7.623   9.638  10.591 -0.2217 -0.1338 -0.0708
  657MOL0     C90537   7.479   9.618  10.602 -0.3764 -0.4323  0.3541
  657MOL0     C90538   7.444   9.501  10.694  0.4290  0.2257  0.0042
  657MOL0     C90539   7.490   9.511  10.844  0.2760  0.9638  0.5889
  657MOL0     C90540   7.528   9.379  10.908 -0.6637  0.0759 -1.0861
  657MOL0     C90541   7.510   9.387  11.063  0.3530  0.1439  0.1971
  657MOL0     C90542   7.474   9.252  11.123  0.1896 -0.2262  0.6983
  657MOL0     C90543   7.385   9.281  11.243 -0.4023 -0.4986 -0.8435
  657MOL0     C90544   7.351   9.148  11.311  0.1162 -0.0516  0.3591
  657MOL0     N90545   7.456   9.090  11.405 -0.2176 -0.7535  0.8513
  657MOL0     C90546   7.545   8.983  11.387  0.6950  0.4588 -1.3119
  657MOL0     C90547   7.619   8.988  11.505  0.7396 -0.1926 -0.1830
  657MOL0     C90548   7.732   8.890  11.533  0.9542 -0.1296  0.4169
  657MOL0     C90549   7.680   8.740  11.549  0.4900  0.3602  0.2854
  657MOL0     C90550   7.551   8.712  11.642 -0.5666  0.0463  0.4829
  657MOL0     C90551   7.523   8.806  11.758 -0.6157  0.5770  0.3120
  657MOL0     O90552   7.419   8.756  11.849  0.0904 -0.4428 -0.0507
  657MOL0     C90553   7.398   8.829  11.964 -0.5945 -1.0435  1.0358
  657MOL0     C90554   7.449   8.965  11.976  0.0190 -0.7381  0.4351
  657MOL0     C90555   7.465   9.029  12.098  0.7793  0.2451 -0.4551
  657MOL0     C90556   7.507   9.179  12.109 -0.0349  0.1167 -0.1901
  657MOL0     C90557   7.428   8.957  12.214  0.9818 -0.3568  0.3105
  657MOL0     C90558   7.420   9.012  12.351 -0.9958  0.3053  0.3178
  657MOL0     O90559   7.347   8.941  12.435  0.5067  0.2858 -0.0659
  657MOL0     C90560   7.339   8.993  12.568  0.5689 -0.1419 -0.3618
  657MOL0     C90561   7.223   9.071  12.605 -1.0371 -0.1384 -0.3141
  657MOL0     C90562   7.207   9.114  12.735  0.2779 -0.1405 -0.4459
  657MOL0     C90563   7.311   9.086  12.830 -0.9176  0.9151 -0.1215
  657MOL0     O90564   7.299   9.126  12.959 -0.0380  0.5970  0.0397
  657MOL0     C90565   7.224   9.249  12.988 -0.0647 -0.0095 -0.1560
  657MOL0     C90566   7.225   9.270  13.148 -0.0575 -0.7643  0.8324
  657MOL0     C90567   7.133   9.379  13.182 -1.3071 -1.2085 -0.7084
  657MOL0     C90568   7.171   9.523  13.123  0.4612  0.5515  0.0369
  657MOL0     C90569   7.309   9.570  13.189  0.5506  0.6329  0.3901
  657MOL0     C90570   7.336   9.719  13.147 -0.5362 -0.5304 -0.0312
  657MOL0     C90571   7.482   9.744  13.196  0.0960  0.0695 -0.1689
  657MOL0     C90572   7.534   9.874  13.143  0.2820 -1.0787 -0.4199
  657MOL0    Cl90573   7.575   9.836  12.977 -0.3855  0.1186  0.2198
  657MOL0     C90574   7.428   9.014  12.793  0.0230 -0.0054 -0.7672
  657MOL0     C90575   7.435   8.964  12.665 -0.3878  0.1309  0.5618
  657MOL0     O90576   7.492   9.101  12.376 -0.3247  0.5280  0.4267
  657MOL0     C90577   7.372   8.825  12.205  0.5463  0.2450  0.8414
  657MOL0     C90578   7.356   8.766  12.079  0.3810 -0.2036 -1.0687
  657MOL0     N90579   7.588   9.102  11.577  0.6865 -0.5941 -0.1125
  657MOL0     N90580   7.481   9.152  11.521  0.2569  0.2457  0.5293
  657MOL0     C90581   7.669   9.513  10.384  0.2436  0.1725  0.3807
  657MOL0     C90582   7.745   9.425  10.307 -0.2953  0.0395 -0.3118
  657MOL0     C90583   8.100   9.259  10.081  1.2310  0.0156  0.8077
  657MOL0     C90584   8.230   9.294  10.043  0.1731 -0.0732  0.1242
  657MOL0     C90585   8.300   9.208   9.957 -0.3922 -0.1551 -0.9568
  657MOL0     C90586   8.250   9.082   9.936 -0.1552 -0.1434  0.9003
  657MOL0     O90587   8.327   8.992   9.868  0.2421  0.6251  0.0690
  657MOL0     C90588   8.417   8.906   9.941  0.3582  0.3696 -0.0223
  657MOL0     C90589   8.530   8.983  10.010 -0.8807  0.1780 -0.6671
  657MOL0     C90590   8.633   9.041   9.915  0.3103  0.1870  0.3530
  657MOL0     C90591   8.677   9.192   9.955 -0.3631  0.0619  0.1341
  657MOL0     C90592   8.813   9.218   9.892  0.1220  0.0211  0.1122
  657MOL0     C90593   8.913   9.262   9.840 -0.4808 -0.4216 -0.6272
  657MOL0     C90594   8.127   9.044   9.987  0.8232 -0.7967 -0.7537
  657MOL0     C90595   8.046   9.129  10.065  0.4572  0.1999 -0.4861
  657MOL0     C90596   7.911   9.088  10.112 -0.0036  0.8009  1.4396
  657MOL0     H90597   8.029   9.453  10.486  1.6771 -0.9622 -6.2632
  657MOL0     H90598   7.892   9.595  10.625  0.5842 -3.2103  0.7190
  657MOL0     H90599   7.436   9.577  10.510 -0.7459 -0.6112  0.6042
  657MOL0     H90600   7.436   9.716  10.625 -0.1203  0.0810 -1.2402
  657MOL0     H90601   7.335   9.500  10.689  0.4552 -0.4257 -0.5305
  657MOL0     H90602   7.487   9.412  10.648 -1.3737 -0.5885 -0.2177
  657MOL0     H90603   7.578   9.576  10.846  0.0839  1.2328  0.4176
  657MOL0     H90604   7.404   9.556  10.894 -0.5906  3.8333 -2.9922
  657MOL0     H90605   7.464   9.299  10.870 -1.0039 -2.8294  4.5564
  657MOL0     H90606   7.625   9.344  10.872 -1.6563 -2.0445 -1.8580
  657MOL0     H90607   7.427   9.456  11.080  0.6819  0.3721  0.9506
  657MOL0     H90608   7.596   9.436  11.111 -0.2190  2.0062 -0.5901
  657MOL0     H90609   7.414   9.201  11.047 -1.3938  0.3381  1.5190
  657MOL0     H90610   7.563   9.189  11.134  1.0940  0.5824 -1.3698
  657MOL0     H90611   7.288   9.323  11.214  0.0608  0.2655 -1.3110
  657MOL0     H90612   7.435   9.354  11.308 -0.5469 -0.8324 -0.3554
  657MOL0     H90613   7.261   9.164  11.372  0.7803 -2.5324  2.1463
  657MOL0     H90614   7.326   9.068  11.241 -2.0440 -1.1211  2.2349
  657MOL0     H90615   7.559   8.917  11.302 -0.5278  0.4418 -1.5152
  657MOL0     H90616   7.793   8.915  11.620  1.1776  0.6510  0.0473
  657MOL0     H90617   7.796   8.895  11.445 -1.3550  1.3440 -1.2950
  657MOL0     H90618   7.671   8.705  11.445  1.2745  3.0809 -0.7802
  657MOL0     H90619   7.764   8.683  11.589 -0.0965 -0.2581  0.6793
  657MOL0     H90620   7.460   8.726  11.582 -0.4125 -0.5264  0.1008
  657MOL0     H90621   7.559   8.607  11.671  0.0065 -0.1931 -0.4771
  657MOL0     H90622   7.621   8.815  11.806 -0.3073 -0.0079 -0.2012
  657MOL0     H90623   7.493   8.903  11.716 -3.1348 -0.2492  0.0658
  657MOL0     H90624   7.480   9.027  11.892  2.3097  0.1970  1.8690
  657MOL0     H90625   7.600   9.192  12.164 -0.6993  2.7843  0.4519
  657MOL0     H90626   7.424   9.234  12.155  0.9539  1.5958 -0.1335
  657MOL0     H90627   7.516   9.216  12.007  1.7265 -1.0646 -0.5137
  657MOL0     H90628   7.139   9.088  12.538 -2.6956 -2.8065  0.9287
  657MOL0     H90629   7.109   9.156  12.757  1.5134  1.7056  2.0765
  657MOL0     H90630   7.253   9.338  12.931  2.1415  1.3179  2.7631
  657MOL0     H90631   7.120   9.238  12.957 -0.3445 -0.5448  0.9365
  657MOL0     H90632   7.209   9.187  13.217 -0.0666  0.7952  2.7811
  657MOL0     H90633   7.323   9.312  13.173  0.4926  1.8064 -4.2843
  657MOL0     H90634   7.137   9.381  13.291 -1.8518 -2.0146 -0.6640
  657MOL0     H90635   7.028   9.364  13.153 -1.4610 -0.1226 -0.7335
  657MOL0     H90636   7.096   9.597  13.151 -0.0638  0.6815 -1.5846
  657MOL0     H90637   7.180   9.530  13.014 -1.0607 -3.3405 -0.4679
  657MOL0     H90638   7.283   9.561  13.295 -1.7740  1.6702 -0.0389
  657MOL0     H90639   7.392   9.506  13.157 -1.3713 -1.7767 -0.0191
  657MOL0     H90640   7.260   9.787  13.185 -1.7882 -1.4110 -0.8906
  657MOL0     H90641   7.341   9.741  13.040  1.0079  1.2496  0.3473
  657MOL0     H90642   7.549   9.667  13.157  0.1478  1.5671 -3.4316
  657MOL0     H90643   7.490   9.739  13.305  4.9323 -3.2012 -0.3536
  657MOL0     H90644   7.623   9.906  13.198 -1.3797  0.2339  1.6502
  657MOL0     H90645   7.459   9.952  13.160 -0.1489 -1.2218 -1.5558
  657MOL0     H90646   7.499   8.998  12.873 -1.5554  0.3063  0.7671
  657MOL0     H90647   7.519   8.912  12.620 -0.6878  1.6322 -1.9648
  657MOL0     H90648   7.323   8.780  12.290 -2.7812  1.0831 -0.4498
  657MOL0     H90649   7.329   8.661  12.070  0.8373 -0.4213 -0.0894
  657MOL0     H90650   7.566   9.528  10.357  0.1403 -1.7420 -0.4817
  657MOL0     H90651   7.705   9.383  10.215 -1.3678  0.0343  0.1314
  657MOL0     H90652   8.268   9.395  10.053 -0.3867  0.2878 -1.1329
  657MOL0     H90653   8.392   9.226   9.904  0.5443 -2.1782 -0.1200
  657MOL0     H90654   8.359   8.840  10.007 -1.6531  2.3941  0.3530
  657MOL0     H90655   8.454   8.832   9.870 -0.8167  0.9389 -1.2732
  657MOL0     H90656   8.576   8.911  10.078 -1.3247 -0.0840 -0.6410
  657MOL0     H90657   8.489   9.056  10.080 -1.0546  0.2548 -0.8493
  657MOL0     H90658   8.709   8.963   9.917 -1.8002 -1.9765 -0.2088
  657MOL0     H90659   8.596   9.053   9.813  0.4271  1.7202  0.4665
  657MOL0     H90660   8.686   9.199  10.064  1.2800 -0.7133  0.0876
  657MOL0     H90661   8.611   9.272   9.922  2.2242  1.1584 -2.8746
  657MOL0     H90662   8.985   9.328   9.796 -0.7763  0.1576 -0.2725
  657MOL0     H90663   8.081   8.952   9.952 -2.1371  0.2014  0.2593
  657MOL0     H90664   7.897   8.986  10.074  4.4459  1.3977 -2.6846
  657MOL0     H90665   7.912   9.091  10.222  0.2101  1.7012  1.4187
  657MOL0     H90666   7.831   9.150  10.070  1.5947  1.0167 -1.4853
  658MOL0     O90667   1.718   9.826   9.811 -0.8681  0.4817  0.5547
  658MOL0     C90668   1.690   9.791   9.697  0.3129 -0.9635 -0.5426
  658MOL0     O90669   1.579   9.832   9.628 -0.2511 -0.9335  0.6934
  658MOL0     C90670   1.477   9.915   9.672 -0.6193 -0.0214 -0.3623
  658MOL0     C90671   1.437   9.911   9.804  0.3549 -0.4201  0.6335
  658MOL0     C90672   1.326   9.982   9.846  0.3450 -0.4684  0.1512
  658MOL0     C90673   1.257  10.065   9.755  0.7686  0.0922 -1.0444
  658MOL0     O90674   1.161  10.157   9.796  0.1783  0.6493  0.2570
  658MOL0     C90675   1.168  10.227   9.916 -0.9844 -0.4858  0.1722
  658MOL0     C90676   1.106  10.363   9.908  0.4126 -0.5473 -0.2494
  658MOL0     C90677   0.950  10.351   9.894 -0.0032  0.0708  0.3248
  658MOL0     C90678   0.895  10.416   9.765 -0.6357 -0.2583 -0.1791
  658MOL0     C90679   0.918  10.567   9.761 -0.1980  0.3771  0.2681
  658MOL0     C90680   0.808  10.636   9.850  0.5847 -0.1297 -0.4782
  658MOL0     C90681   0.814  10.786   9.867 -0.1448 -0.1861  0.2878
  658MOL0     C90682   0.868  10.837  10.002 -0.3368  1.3864 -0.9489
  658MOL0     N90683   1.014  10.798  10.025  0.7063  0.4299  0.1454
  658MOL0     C90684   1.106  10.822   9.929  0.1343  0.5701  0.4356
  658MOL0     C90685   1.218  10.762   9.983 -0.8281  0.4051 -0.2849
  658MOL0     C90686   1.353  10.759   9.903  0.3964  0.0096 -0.6840
  658MOL0     C90687   1.403  10.899   9.938 -0.3638  0.1083 -0.2201
  658MOL0     C90688   1.554  10.908   9.896 -0.2951 -0.1999  0.5070
  658MOL0     C90689   1.624  11.045   9.910  0.1768 -0.0640 -0.4159
  658MOL0     O90690   1.587  11.130  10.022  0.2982  0.8087  0.0883
  658MOL0     C90691   1.644  11.099  10.138  0.0365  0.3047 -0.2837
  658MOL0     C90692   1.603  11.180  10.239  0.2773  0.3878  0.3315
  658MOL0     C90693   1.655  11.172  10.368  0.2418  0.1467 -0.8955
  658MOL0     C90694   1.592  11.273  10.460 -1.1510  0.3057 -0.2619
  658MOL0     C90695   1.759  11.072  10.408 -0.8991 -0.1259  0.3808
  658MOL0     C90696   1.802  11.054  10.552  0.4039  0.5945 -0.6384
  658MOL0     O90697   1.921  10.983  10.566  0.1700  0.0706 -0.2459
  658MOL0     C90698   1.946  10.909  10.682  0.3749 -0.8980  0.2157
  658MOL0     C90699   2.085  10.889  10.700 -0.3305  0.5222  0.3067
  658MOL0     C90700   2.126  10.837  10.824 -0.8771 -0.2936 -0.2593
  658MOL0     C90701   2.035  10.799  10.926  0.1084  0.3007  0.3974
  658MOL0     O90702   2.098  10.741  11.039 -0.3265 -0.6566  0.3229
  658MOL0     C90703   2.030  10.750  11.163  0.6703 -0.0146 -0.5006
  658MOL0     C90704   2.128  10.728  11.285  0.1074 -0.3985 -0.9237
  658MOL0     C90705   2.178  10.586  11.303 -0.8985 -1.2609 -0.2373
  658MOL0     C90706   2.261  10.572  11.430  0.2965 -0.0930  0.0152
  658MOL0     C90707   2.315  10.434  11.469  0.3610  0.4348  0.1554
  658MOL0     C90708   2.389  10.366  11.362 -0.2782 -0.0348  0.0906
  658MOL0     C90709   2.457  10.245  11.423 -0.2667  0.5501  0.2110
  658MOL0     C90710   2.553  10.186  11.331 -0.0786  0.5302 -0.1885
  658MOL0    Cl90711   2.686  10.304  11.284 -0.1772  0.6656  0.0246
  658MOL0     C90712   1.898  10.803  10.898  1.0278  0.0244 -0.3839
  658MOL0     C90713   1.850  10.871  10.784 -1.0679  1.4015  1.0846
  658MOL0     O90714   1.732  11.097  10.648  0.6088 -0.2686  0.5611
  658MOL0     C90715   1.815  11.009  10.296  0.1422 -0.4700  0.2050
  658MOL0     C90716   1.748  11.011  10.168 -0.2455 -0.6053 -0.4345
  658MOL0     N90717   1.198  10.707  10.111 -0.2508  0.1904 -0.6201
  658MOL0     N90718   1.067  10.716  10.131 -0.5728  0.7948  0.1801
  658MOL0     C90719   1.277  10.041   9.619 -0.1333 -0.5228  0.1184
  658MOL0     C90720   1.389   9.961   9.581  0.5846 -0.3553  0.6979
  658MOL0     C90721   1.786   9.706   9.625  0.0854 -0.4268  0.6360
  658MOL0     C90722   1.735   9.634   9.518  0.7817 -0.3494  0.0649
  658MOL0     C90723   1.807   9.558   9.429 -1.0178  0.7061  0.8685
  658MOL0     C90724   1.945   9.534   9.452 -0.9409 -1.0863 -0.0716
  658MOL0     O90725   2.019   9.454   9.367  0.0245 -0.4037  0.5464
  658MOL0     C90726   2.159   9.437   9.396 -0.0575  0.3818 -0.5745
  658MOL0     C90727   2.242   9.352   9.297 -0.2519 -0.7401 -0.1019
  658MOL0     C90728   2.209   9.401   9.161  0.9509  0.4404  0.5383
  658MOL0     C90729   2.258   9.545   9.133  0.3093 -0.7708  0.0330
  658MOL0     C90730   2.398   9.572   9.156 -0.4199  0.2846  0.8780
  658MOL0     C90731   2.516   9.603   9.160 -0.4645  0.7205 -0.0524
  658MOL0     C90732   1.999   9.613   9.562 -0.0053  0.1880  0.7303
  658MOL0     C90733   1.926   9.704   9.644 -0.7538 -0.4788  1.0599
  658MOL0     C90734   1.997   9.783   9.755  0.1595  0.7543 -0.2146
  658MOL0     H90735   1.488   9.852   9.879 -0.3193 -0.3487  1.1569
  658MOL0     H90736   1.307   9.975   9.953  2.3442 -0.1217  0.5834
  658MOL0     H90737   1.272  10.236   9.948 -1.9041  0.6538  3.1525
  658MOL0     H90738   1.126  10.170  10.000  1.8620 -1.1203  1.2649
  658MOL0     H90739   1.131  10.411  10.003 -0.2473  2.8730 -1.6543
  658MOL0     H90740   1.158  10.406   9.822  3.6473  1.1758  2.3441
  658MOL0     H90741   0.921  10.246   9.880  0.6716  0.0978 -1.5138
  658MOL0     H90742   0.902  10.384   9.987 -0.7516  1.2977 -0.4719
  658MOL0     H90743   0.948  10.376   9.678  0.1445 -0.1570  0.2460
  658MOL0     H90744   0.786  10.409   9.755 -0.5826 -0.9582 -0.3340
  658MOL0     H90745   0.909  10.595   9.656  0.5757 -0.7613 -0.1200
  658MOL0     H90746   1.020  10.590   9.795 -1.3106  3.3096  2.1092
  658MOL0     H90747   0.717  10.606   9.797 -0.7060 -2.4752  2.7831
  658MOL0     H90748   0.799  10.592   9.949 -2.2460 -2.0086 -1.4586
  658MOL0     H90749   0.713  10.825   9.857  0.5446  1.6984  0.1960
  658MOL0     H90750   0.869  10.836   9.787  0.5597 -0.8217  0.3597
  658MOL0     H90751   0.853  10.945  10.017  0.2422  1.1311  2.0967
  658MOL0     H90752   0.809  10.796  10.084  1.2710 -1.0443 -0.8912
  658MOL0     H90753   1.099  10.870   9.832 -4.8791 -1.7756 -0.6981
  658MOL0     H90754   1.345  10.764   9.794  0.2851 -0.5378 -0.7028
  658MOL0     H90755   1.420  10.679   9.935  2.0073  0.2709 -3.1594
  658MOL0     H90756   1.346  10.977   9.886  2.2829  2.1614 -0.2837
  658MOL0     H90757   1.400  10.912  10.046 -1.2859 -1.4623 -0.0240
  658MOL0     H90758   1.604  10.844   9.968  2.9790  2.6504  1.0333
  658MOL0     H90759   1.559  10.854   9.801  0.8804 -1.7519  1.4225
  658MOL0     H90760   1.733  11.031   9.912  0.5732  2.4622 -0.0847
  658MOL0     H90761   1.593  11.114   9.831 -0.8111  2.3089  1.8714
  658MOL0     H90762   1.529  11.256  10.214 -1.3218 -0.0027  3.3114
  658MOL0     H90763   1.534  11.217  10.534 -0.4046 -0.8164 -0.5033
  658MOL0     H90764   1.539  11.351  10.403  0.3216  2.0162  0.6258
  658MOL0     H90765   1.671  11.323  10.516 -1.2509  0.3668 -0.1726
  658MOL0     H90766   2.165  10.914  10.632  0.3491 -1.4898  0.2994
  658MOL0     H90767   2.231  10.828  10.850 -0.2431  0.4419 -2.3113
  658MOL0     H90768   1.994  10.853  11.168  1.7468  0.3314  0.4443
  658MOL0     H90769   1.945  10.684  11.183  2.5957 -2.2562  0.7432
  658MOL0     H90770   2.200  10.810  11.282 -0.8215  0.4449 -0.7315
  658MOL0     H90771   2.072  10.760  11.374  1.4622 -0.9271  0.1540
  658MOL0     H90772   2.225  10.540  11.216 -1.0558  1.3471 -1.7985
  658MOL0     H90773   2.089  10.523  11.312  0.8015 -3.6294  1.1960
  658MOL0     H90774   2.203  10.606  11.516  2.3564 -0.8418  1.7684
  658MOL0     H90775   2.344  10.644  11.436  1.5540 -1.6187  2.9101
  658MOL0     H90776   2.371  10.443  11.562 -0.3255 -0.4720  0.6674
  658MOL0     H90777   2.227  10.370  11.480  1.4112 -0.7985  1.8900
  658MOL0     H90778   2.454  10.440  11.313 -0.6440 -0.1930 -0.6562
  658MOL0     H90779   2.317  10.329  11.287  1.3656 -0.2936 -1.4249
  658MOL0     H90780   2.375  10.178  11.451 -0.7230  0.6803 -0.7646
  658MOL0     H90781   2.515  10.256  11.515 -1.6685 -0.4621  1.2782
  658MOL0     H90782   2.491  10.141  11.253 -2.3786  0.5492  1.5117
  658MOL0     H90783   2.588  10.095  11.382 -1.1008 -0.7693 -1.7266
  658MOL0     H90784   1.819  10.775  10.967  1.1165  2.5249  0.8492
  658MOL0     H90785   1.747  10.863  10.750 -0.3600 -4.1079 -0.7083
  658MOL0     H90786   1.890  10.931  10.302  1.2211  0.5411  0.2712
  658MOL0     H90787   1.785  10.943  10.091 -0.9001 -0.0206 -1.2895
  658MOL0     H90788   1.220  10.082   9.537 -0.1953  0.7961  0.7969
  658MOL0     H90789   1.406   9.929   9.479  1.6077 -0.1951  0.8081
  658MOL0     H90790   1.632   9.639   9.484 -0.0338  0.8368  2.4591
  658MOL0     H90791   1.758   9.518   9.341  0.6541  1.3473 -0.4054
  658MOL0     H90792   2.201   9.538   9.403  0.9178  0.0176 -0.9919
  658MOL0     H90793   2.167   9.391   9.494  0.5794 -0.2827 -0.9266
  658MOL0     H90794   2.225   9.244   9.291 -0.7735 -0.6287 -0.7516
  658MOL0     H90795   2.347   9.379   9.307 -1.1749  3.6913 -0.4013
  658MOL0     H90796   2.247   9.339   9.079 -0.2226  2.7264 -1.8971
  658MOL0     H90797   2.100   9.394   9.157  1.0173 -2.4501  1.4371
  658MOL0     H90798   2.201   9.602   9.207 -1.1403  1.8326 -2.8650
  658MOL0     H90799   2.220   9.581   9.037 -1.3564  1.4881  1.4314
  658MOL0     H90800   2.619   9.631   9.152 -0.6817  1.2003 -1.3438
  658MOL0     H90801   2.106   9.608   9.579 -0.0268 -0.9766  0.5799
  658MOL0     H90802   2.105   9.777   9.737 -0.1308 -2.2627 -1.5660
  658MOL0     H90803   1.977   9.889   9.738 -0.7858  0.2033 -3.2205
  658MOL0     H90804   1.963   9.750   9.854  2.4546 -0.4216  0.2308
  659MOL0     O90805  10.664  10.967   2.470  0.4196 -0.0613 -0.5486
  659MOL0     C90806  10.749  10.884   2.476  0.1120 -0.5854  0.0588
  659MOL0     O90807  10.854  10.873   2.388 -0.3020  0.2975  0.0021
  659MOL0     C90808  10.861  10.969   2.293  0.1553  0.6087  0.3883
  659MOL0     C90809  10.929  11.091   2.293  0.0570 -0.1642  0.1925
  659MOL0     C90810  10.925  11.186   2.195  0.4028  0.2785 -0.5973
  659MOL0     C90811  10.848  11.160   2.079 -1.1049  0.0687  0.4022
  659MOL0     O90812  10.811  11.253   1.985 -0.5886  0.7867  0.3242
  659MOL0     C90813  10.850  11.386   1.997 -0.7431  0.0569  0.8219
  659MOL0     C90814  10.770  11.462   1.894 -1.0452  0.0126 -0.3102
  659MOL0     C90815  10.783  11.617   1.916  0.8631 -1.0786  0.3056
  659MOL0     C90816  10.708  11.676   2.038 -0.0738  0.4121 -0.7535
  659MOL0     C90817  10.760  11.823   2.074 -0.4304  0.5797  1.0004
  659MOL0     C90818  10.704  11.868   2.209  0.7289 -0.3198 -0.3057
  659MOL0     C90819  10.759  12.006   2.242  0.3677  0.4761 -0.0984
  659MOL0     C90820  10.673  12.124   2.207 -0.3030 -0.6612  0.0869
  659MOL0     N90821  10.564  12.146   2.307  0.1009 -0.0252  0.6227
  659MOL0     C90822  10.581  12.206   2.430 -0.5875  1.0269  0.2445
  659MOL0     C90823  10.459  12.199   2.489 -0.2033  0.9818 -0.6600
  659MOL0     C90824  10.425  12.258   2.617  0.0435 -0.5937  0.0957
  659MOL0     C90825  10.354  12.384   2.596  1.2119  0.3041  0.6928
  659MOL0     C90826  10.253  12.422   2.708 -0.1338 -0.2793  0.6323
  659MOL0     C90827  10.123  12.351   2.721  0.8780  0.5652  0.3112
  659MOL0     O90828  10.080  12.352   2.854 -0.1486  0.6922  0.1688
  659MOL0     C90829   9.989  12.261   2.897  0.8144  0.6017 -0.0082
  659MOL0     C90830   9.940  12.281   3.022  0.5420  0.4568  0.2144
  659MOL0     C90831   9.856  12.201   3.091 -0.5190  0.3745 -0.0960
  659MOL0     C90832   9.815  12.245   3.233 -0.5793  0.2598 -0.3789
  659MOL0     C90833   9.805  12.082   3.015  0.3039 -0.9572 -0.8002
  659MOL0     C90834   9.706  11.985   3.068 -0.2348  0.2964 -0.4432
  659MOL0     O90835   9.658  11.899   2.978  0.8090 -0.3156  1.2180
  659MOL0     C90836   9.588  11.782   3.005  0.0112  0.0584 -0.8548
  659MOL0     C90837   9.560  11.703   2.891 -0.3703 -0.1921 -0.1133
  659MOL0     C90838   9.484  11.582   2.907  0.2268 -0.4100  0.2645
  659MOL0     C90839   9.450  11.532   3.038  1.3667 -0.7115 -0.5508
  659MOL0     O90840   9.398  11.411   3.059  0.4050  0.4937 -0.1998
  659MOL0     C90841   9.360  11.315   2.960 -0.3710  0.7833  0.2704
  659MOL0     C90842   9.323  11.185   3.032  0.0840 -0.7479  0.5412
  659MOL0     C90843   9.305  11.058   2.941  0.0798  0.3401  0.6158
  659MOL0     C90844   9.438  11.011   2.892 -0.3924 -0.0699  0.2299
  659MOL0     C90845   9.424  10.885   2.794  0.6778 -0.5840  0.8634
  659MOL0     C90846   9.382  10.756   2.854 -0.1423 -0.0558  0.4770
  659MOL0     C90847   9.432  10.624   2.786  0.0300 -0.5809 -0.8016
  659MOL0     C90848   9.354  10.504   2.841 -0.9713  1.3842  0.6884
  659MOL0    Cl90849   9.410  10.471   3.009 -0.1717  0.2991 -0.1360
  659MOL0     C90850   9.482  11.612   3.147 -0.4462  0.0596  0.1164
  659MOL0     C90851   9.540  11.741   3.129 -0.3306 -0.3743 -0.0610
  659MOL0     O90852   9.708  11.973   3.192  0.3779 -0.0388 -0.3271
  659MOL0     C90853   9.845  12.072   2.879  0.4063  0.2187 -0.0680
  659MOL0     C90854   9.930  12.164   2.821  0.1842  0.3706  0.3641
  659MOL0     N90855  10.368  12.139   2.394 -0.1997 -0.0822  0.2998
  659MOL0     N90856  10.434  12.106   2.285  0.3958  0.0714  0.3404
  659MOL0     C90857  10.798  11.030   2.062 -0.1734 -0.7593  0.3161
  659MOL0     C90858  10.796  10.939   2.176 -0.4400 -0.3652  0.9594
  659MOL0     C90859  10.740  10.790   2.598 -0.2301  0.0933  0.3230
  659MOL0     C90860  10.850  10.704   2.618 -0.1868 -0.7373  0.8242
  659MOL0     C90861  10.863  10.619   2.717  0.3026  0.1683  0.4202
  659MOL0     C90862  10.754  10.606   2.804 -0.1993  0.3989 -0.0951
  659MOL0     O90863  10.739  10.511   2.908  0.3090  0.2314  0.0919
  659MOL0     C90864  10.854  10.433   2.938 -0.6338  1.0147  0.1722
  659MOL0     C90865  10.951  10.506   3.037 -0.2140  1.2500 -0.2254
  659MOL0     C90866  10.895  10.522   3.182  0.8607 -0.6345  0.7663
  659MOL0     C90867  11.005  10.593   3.255 -0.2702  0.4267  0.7936
  659MOL0     C90868  10.969  10.614   3.399 -0.9103  0.0639  1.3220
  659MOL0     C90869  10.945  10.633   3.515 -0.6797 -0.4190  0.1382
  659MOL0     C90870  10.645  10.686   2.787  0.0328 -1.0645  0.1991
  659MOL0     C90871  10.633  10.778   2.686 -0.2691  0.8937  0.4863
  659MOL0     C90872  10.501  10.852   2.671  0.2525  0.0332 -0.0702
  659MOL0     H90873  10.976  11.123   2.386  1.0380 -1.3551  0.1402
  659MOL0     H90874  10.970  11.279   2.227 -0.9332 -0.7001  5.4237
  659MOL0     H90875  10.953  11.415   1.975 -1.4048  2.5555  0.7128
  659MOL0     H90876  10.824  11.433   2.093 -1.8056  0.4507  0.3561
  659MOL0     H90877  10.811  11.429   1.798 -0.0760  2.1070 -0.6729
  659MOL0     H90878  10.664  11.435   1.899 -0.2940 -2.9028  2.2031
  659MOL0     H90879  10.886  11.651   1.931  0.0083  1.4588  0.9333
  659MOL0     H90880  10.745  11.668   1.828  4.1407 -0.9318 -1.1923
  659MOL0     H90881  10.601  11.673   2.017 -0.3114  1.4645  0.2375
  659MOL0     H90882  10.735  11.617   2.126  2.9831  1.8051 -0.6119
  659MOL0     H90883  10.734  11.888   1.991  3.4360 -0.5459 -1.3480
  659MOL0     H90884  10.869  11.823   2.075 -0.3598  0.2409 -1.6730
  659MOL0     H90885  10.595  11.879   2.209  0.1169 -4.3224  1.7971
  659MOL0     H90886  10.722  11.805   2.297 -2.3400 -1.7790 -0.5864
  659MOL0     H90887  10.861  12.018   2.203  0.7025 -0.0884  0.5819
  659MOL0     H90888  10.771  12.001   2.350 -0.1386 -3.6001 -0.0918
  659MOL0     H90889  10.738  12.211   2.200 -1.6020  0.3971  0.7907
  659MOL0     H90890  10.624  12.100   2.112  1.1324 -2.3347 -0.2811
  659MOL0     H90891  10.669  12.259   2.468  0.9596 -0.8986 -0.4897
  659MOL0     H90892  10.513  12.264   2.681  1.9227 -2.7936 -2.0476
  659MOL0     H90893  10.347  12.191   2.656  0.6037 -0.9543  0.6276
  659MOL0     H90894  10.425  12.465   2.580  0.7068  0.2604 -2.2289
  659MOL0     H90895  10.304  12.377   2.499 -0.4614  2.5718  1.2961
  659MOL0     H90896  10.295  12.417   2.808 -0.8340  1.4615  1.0456
  659MOL0     H90897  10.231  12.528   2.697  1.0718 -0.1397 -0.6901
  659MOL0     H90898  10.046  12.394   2.657  1.9336  2.9553  0.5375
  659MOL0     H90899  10.132  12.244   2.700 -2.7041 -0.8413  4.5343
  659MOL0     H90900   9.985  12.364   3.076  0.8296 -2.5645  5.3191
  659MOL0     H90901   9.715  12.204   3.247 -1.2164  1.6779 -0.5528
  659MOL0     H90902   9.803  12.353   3.248 -4.0128  0.0718 -1.0918
  659MOL0     H90903   9.879  12.210   3.315 -1.7803 -0.1513  0.4042
  659MOL0     H90904   9.577  11.737   2.789  0.9857 -1.2588 -0.2652
  659MOL0     H90905   9.447  11.524   2.822 -1.4166 -0.1452  0.7596
  659MOL0     H90906   9.287  11.358   2.891  0.3195  0.9254 -0.3827
  659MOL0     H90907   9.451  11.284   2.907  0.5174  2.0160  1.0437
  659MOL0     H90908   9.396  11.167   3.111  2.3783  1.3049 -0.9451
  659MOL0     H90909   9.230  11.212   3.084 -0.4180  0.9384 -1.1069
  659MOL0     H90910   9.239  11.085   2.858 -2.3892 -2.4134  1.4744
  659MOL0     H90911   9.261  10.972   2.993  0.1240 -0.6617 -0.9402
  659MOL0     H90912   9.481  10.988   2.990 -0.3915 -2.4264 -0.2740
  659MOL0     H90913   9.482  11.097   2.841 -0.4599 -0.6022 -0.7580
  659MOL0     H90914   9.342  10.903   2.724 -1.8375 -2.2064  3.1764
  659MOL0     H90915   9.522  10.874   2.746  0.1661  1.5322 -0.7926
  659MOL0     H90916   9.274  10.751   2.872 -0.1781 -1.4813 -0.0606
  659MOL0     H90917   9.436  10.760   2.950 -0.7769  0.5188  0.8211
  659MOL0     H90918   9.539  10.607   2.799 -0.6136 -3.0791  2.8085
  659MOL0     H90919   9.417  10.621   2.678  1.0245 -5.5326 -1.0000
  659MOL0     H90920   9.396  10.416   2.793 -0.1611  1.6724  0.8474
  659MOL0     H90921   9.245  10.510   2.840 -1.1371  0.3378 -3.5302
  659MOL0     H90922   9.457  11.579   3.247 -2.7973  0.2994 -0.3517
  659MOL0     H90923   9.568  11.786   3.224  1.8948  4.0803 -2.5167
  659MOL0     H90924   9.792  12.001   2.818  0.0608 -0.2147  0.7144
  659MOL0     H90925   9.941  12.160   2.714  2.4853  2.6972  0.4208
  659MOL0     H90926  10.745  11.016   1.968 -0.0583  1.3759 -0.1342
  659MOL0     H90927  10.742  10.846   2.166  3.5746 -2.6881 -2.1724
  659MOL0     H90928  10.933  10.702   2.548 -0.1858  0.2691  0.7767
  659MOL0     H90929  10.950  10.554   2.725 -2.3309 -3.3934  3.4984
  659MOL0     H90930  10.833  10.332   2.975  3.2198 -0.6971 -1.7503
  659MOL0     H90931  10.908  10.411   2.845 -1.3875 -0.0634 -0.0286
  659MOL0     H90932  10.982  10.597   2.985 -1.6273  2.0421  0.2599
  659MOL0     H90933  11.042  10.450   3.061 -0.1681  2.2899  2.3403
  659MOL0     H90934  10.806  10.584   3.187 -0.3621 -2.4181  2.5633
  659MOL0     H90935  10.864  10.428   3.228 -2.7882 -0.5862 -1.2694
  659MOL0     H90936  11.029  10.692   3.216 -3.1890  1.0040  0.2509
  659MOL0     H90937  11.093  10.528   3.249 -2.4581 -2.7765  0.6037
  659MOL0     H90938  10.918  10.666   3.614  1.6446 -1.2476  1.1202
  659MOL0     H90939  10.549  10.669   2.836 -1.3164  1.4097 -1.4094
  659MOL0     H90940  10.464  10.807   2.578 -0.5459 -0.2296  0.3646
  659MOL0     H90941  10.420  10.849   2.744 -0.4163  0.2054 -0.7939
  659MOL0     H90942  10.516  10.959   2.659 -1.4291  0.4577  1.3076
  660MOL0     O90943  10.558   5.154   0.443 -0.0107  0.1699 -0.6190
  660MOL0     C90944  10.634   5.059   0.466  0.7260 -0.5667 -0.5453
  660MOL0     O90945  10.698   5.047   0.583 -0.2574 -0.0019  0.1345
  660MOL0     C90946  10.626   5.089   0.691  0.1990  0.0095 -0.6455
  660MOL0     C90947  10.674   5.181   0.776 -0.1228  0.5027 -0.1858
  660MOL0     C90948  10.606   5.215   0.892 -0.1951 -0.7795  0.0312
  660MOL0     C90949  10.492   5.149   0.934 -0.1693  0.9597  0.4831
  660MOL0     O90950  10.428   5.169   1.050 -0.4870 -0.1447 -0.7608
  660MOL0     C90951  10.475   5.274   1.134  0.0640  1.3791 -0.0863
  660MOL0     C90952  10.392   5.268   1.254  0.1039  0.2231  0.6824
  660MOL0     C90953  10.426   5.154   1.347 -0.0386  1.0735  0.3908
  660MOL0     C90954  10.527   5.193   1.453 -0.0149 -0.0046  0.1593
  660MOL0     C90955  10.670   5.215   1.414  0.5526 -1.1520 -0.1243
  660MOL0     C90956  10.744   5.250   1.549 -1.3831 -0.0985 -0.3442
  660MOL0     C90957  10.898   5.263   1.524  0.1060 -0.4863 -0.8834
  660MOL0     C90958  10.969   5.291   1.660 -0.1367 -0.3062 -0.3248
  660MOL0     N90959  11.114   5.275   1.642  0.3153 -0.7949  0.2426
  660MOL0     C90960  11.203   5.368   1.586  0.6154 -0.6433  0.4562
  660MOL0     C90961  11.318   5.309   1.615  0.0570 -0.3869  0.0206
  660MOL0     C90962  11.458   5.361   1.578  0.1683 -0.0304 -0.7794
  660MOL0     C90963  11.524   5.423   1.705  0.1033  0.7057 -0.0082
  660MOL0     C90964  11.647   5.498   1.677 -0.6734 -0.4027 -0.4031
  660MOL0     C90965  11.682   5.593   1.798 -0.7720 -0.0613 -0.0105
  660MOL0     O90966  11.589   5.702   1.817 -0.4105  0.7366 -0.0163
  660MOL0     C90967  11.637   5.809   1.882 -0.3090  0.4103 -1.0526
  660MOL0     C90968  11.646   5.924   1.803 -0.7105 -0.4996 -0.1135
  660MOL0     C90969  11.687   6.045   1.861 -0.4740 -0.4526  0.2668
  660MOL0     C90970  11.711   6.171   1.779  0.3518  1.4263 -1.2361
  660MOL0     C90971  11.710   6.045   1.997 -0.5279 -0.3276 -0.3650
  660MOL0     C90972  11.751   6.167   2.080 -0.1319  0.6726 -0.0932
  660MOL0     O90973  11.700   6.291   2.044 -0.1414 -0.1220 -0.2234
  660MOL0     C90974  11.705   6.388   2.141 -0.4636  0.7171  0.0294
  660MOL0     C90975  11.616   6.390   2.245 -0.2467  0.3316  0.8006
  660MOL0     C90976  11.626   6.484   2.348  0.1544  0.6676 -0.0269
  660MOL0     C90977  11.720   6.589   2.340  0.1846 -0.0556  0.1481
  660MOL0     O90978  11.746   6.669   2.451  0.1732  0.3974 -0.2525
  660MOL0     C90979  11.778   6.591   2.563  1.0165  0.0636  0.9738
  660MOL0     C90980  11.883   6.662   2.653  0.7720  1.3800 -0.5836
  660MOL0     C90981  11.897   6.589   2.793  0.1224 -0.3121  0.9269
  660MOL0     C90982  11.974   6.689   2.887  0.3587  0.8876 -0.3987
  660MOL0     C90983  11.945   6.652   3.034  0.6086 -0.4861  1.1483
  660MOL0     C90984  12.056   6.722   3.119 -0.7537 -0.5614 -0.4994
  660MOL0     C90985  12.025   6.735   3.265  0.0762  0.4734 -0.3473
  660MOL0     C90986  12.075   6.862   3.337 -1.4344  0.1149  0.2520
  660MOL0    Cl90987  12.251   6.886   3.344 -0.0562 -0.1604  0.5849
  660MOL0     C90988  11.809   6.587   2.228 -0.3834  0.8315 -0.0104
  660MOL0     C90989  11.800   6.486   2.131  0.9407 -0.0153  0.3631
  660MOL0     O90990  11.818   6.157   2.181 -0.6261 -0.1003 -0.4998
  660MOL0     C90991  11.703   5.925   2.072  0.4557  0.1811 -0.1668
  660MOL0     C90992  11.668   5.802   2.011  0.4571  0.2634  0.9579
  660MOL0     N90993  11.303   5.193   1.685 -0.9688 -0.5461  0.2835
  660MOL0     N90994  11.183   5.175   1.697 -0.2378 -0.4001  0.0092
  660MOL0     C90995  10.451   5.040   0.855 -0.4085 -0.3923  0.7303
  660MOL0     C90996  10.509   5.021   0.732  1.0589 -1.6291  0.1015
  660MOL0     C90997  10.669   4.973   0.357 -0.3537  0.0602  0.8504
  660MOL0     C90998  10.602   4.854   0.341  0.4425  0.7288  1.0965
  660MOL0     C90999  10.641   4.751   0.255  0.4811 -0.1185  0.4052
  660MOL0     C91000  10.746   4.770   0.184 -0.4975  0.2298  1.6047
  660MOL0     O91001  10.796   4.681   0.090  0.8991  0.4828 -0.1739
  660MOL0     C91002  10.768   4.544   0.101  0.1184 -1.3307 -0.2785
  660MOL0     C91003  10.871   4.467   0.032 -0.6778  1.0299 -0.3273
  660MOL0     C91004  10.867   4.319   0.057  0.2950 -0.2806  0.1794
  660MOL0     C91005  10.737   4.251   0.006  0.0444 -0.4658  0.1371
  660MOL0     C91006  10.750   4.105   0.027 -0.3702 -0.0926  1.4126
  660MOL0     C91007  10.780   3.991   0.058 -0.2444 -0.0308  0.8115
  660MOL0     C91008  10.809   4.895   0.183 -1.0123  1.0878  0.4307
  660MOL0     C91009  10.781   4.995   0.273  0.4468 -0.2196 -1.0727
  660MOL0     C91010  10.873   5.116   0.290  1.1393  0.7006  0.3011
  660MOL0     H91011  10.763   5.236   0.748 -1.6912  1.7981 -3.0944
  660MOL0     H91012  10.642   5.288   0.963 -1.4374  2.3006 -2.2748
  660MOL0     H91013  10.471   5.361   1.067  0.0376  0.7117 -0.9573
  660MOL0     H91014  10.579   5.259   1.161  0.3213 -1.9780 -2.4092
  660MOL0     H91015  10.387   5.360   1.313  1.1889  0.7267  0.0082
  660MOL0     H91016  10.294   5.243   1.212  2.2353 -1.5524 -3.8839
  660MOL0     H91017  10.335   5.118   1.396 -1.8835  2.5135 -1.7920
  660MOL0     H91018  10.455   5.065   1.290  1.2168  2.1526 -0.6974
  660MOL0     H91019  10.498   5.296   1.476 -2.8060 -0.8027  0.6515
  660MOL0     H91020  10.511   5.130   1.540  0.0441  1.3351  1.1653
  660MOL0     H91021  10.679   5.298   1.342 -1.1129  0.4249  1.3845
  660MOL0     H91022  10.712   5.122   1.374  2.2443 -1.0652  1.2979
  660MOL0     H91023  10.699   5.346   1.577  0.7497  0.9952 -0.4156
  660MOL0     H91024  10.716   5.180   1.628 -1.2771 -2.5092 -2.3212
  660MOL0     H91025  10.928   5.334   1.446 -1.2411  0.1750 -0.8260
  660MOL0     H91026  10.941   5.172   1.482 -0.3814 -0.4283 -1.5189
  660MOL0     H91027  10.936   5.392   1.686  0.8828 -0.2464  0.8413
  660MOL0     H91028  10.924   5.225   1.734 -1.5357 -0.4240 -1.2323
  660MOL0     H91029  11.190   5.453   1.520 -1.7852 -2.7663 -2.1241
  660MOL0     H91030  11.435   5.437   1.504 -3.4454 -1.9435 -1.8659
  660MOL0     H91031  11.518   5.282   1.532 -0.4385  0.1581 -1.9149
  660MOL0     H91032  11.445   5.492   1.738 -0.0519  1.2835 -1.5028
  660MOL0     H91033  11.533   5.341   1.777 -1.9282 -0.1515 -0.6466
  660MOL0     H91034  11.726   5.425   1.663 -0.1641 -0.4644  2.2254
  660MOL0     H91035  11.631   5.547   1.580  0.9784 -1.8573 -1.4648
  660MOL0     H91036  11.685   5.531   1.888 -1.3691  1.7440  1.3354
  660MOL0     H91037  11.780   5.640   1.787 -1.5615  1.2484 -2.2922
  660MOL0     H91038  11.629   5.909   1.697 -3.0870 -2.9413  0.4984
  660MOL0     H91039  11.799   6.225   1.813 -1.1272  2.2761  1.5462
  660MOL0     H91040  11.630   6.240   1.807 -1.9838 -1.9693  1.2261
  660MOL0     H91041  11.708   6.138   1.675  2.8003  1.2750 -1.3069
  660MOL0     H91042  11.538   6.316   2.259  0.8673 -0.3190  4.6951
  660MOL0     H91043  11.556   6.482   2.431 -1.0613  0.4890 -1.0263
  660MOL0     H91044  11.687   6.565   2.618  1.4205 -2.1665  0.6866
  660MOL0     H91045  11.809   6.492   2.528 -1.6439  0.5517 -3.4518
  660MOL0     H91046  11.979   6.655   2.600  1.6222 -0.1532  1.0746
  660MOL0     H91047  11.852   6.765   2.672 -0.5710  0.5063  2.5903
  660MOL0     H91048  11.954   6.497   2.778  3.8324  1.5024  2.5588
  660MOL0     H91049  11.801   6.548   2.826  0.6893 -2.1522  0.4235
  660MOL0     H91050  11.935   6.791   2.875 -0.6928  0.3334 -2.0352
  660MOL0     H91051  12.081   6.686   2.863  0.7542  1.6738  1.1461
  660MOL0     H91052  11.847   6.691   3.064  1.0352  3.6074 -1.8527
  660MOL0     H91053  11.964   6.547   3.059  0.4204 -0.3616  1.8250
  660MOL0     H91054  12.059   6.828   3.091 -3.7090 -0.0606  0.7213
  660MOL0     H91055  12.147   6.672   3.086  0.8132  2.0982 -0.5566
  660MOL0     H91056  12.065   6.651   3.323  1.2790 -1.3286 -3.5130
  660MOL0     H91057  11.916   6.739   3.258 -0.0871 -1.5791  0.3613
  660MOL0     H91058  12.032   6.861   3.438 -1.2307 -0.8377  0.3346
  660MOL0     H91059  12.023   6.945   3.288  0.0719  0.7862 -0.2414
  660MOL0     H91060  11.878   6.671   2.220 -0.2817  0.6303 -1.5656
  660MOL0     H91061  11.863   6.490   2.043  0.5447  0.8493  0.1094
  660MOL0     H91062  11.714   5.925   2.180 -1.9333 -2.0615  0.1809
  660MOL0     H91063  11.675   5.708   2.065 -1.3667  1.3978  3.3680
  660MOL0     H91064  10.368   4.975   0.881 -1.6202  0.8597  0.1296
  660MOL0     H91065  10.471   4.938   0.674  1.0946 -0.6303 -1.4086
  660MOL0     H91066  10.503   4.843   0.385 -0.3014 -1.2501 -0.8593
  660MOL0     H91067  10.586   4.658   0.253  0.4380 -0.1636  2.2178
  660MOL0     H91068  10.761   4.524   0.208 -1.8434 -0.0247 -0.1049
  660MOL0     H91069  10.667   4.524   0.065 -1.6720 -0.5429  3.6829
  660MOL0     H91070  10.966   4.496   0.078 -1.3416  0.7859  1.2562
  660MOL0     H91071  10.873   4.499  -0.073 -0.6263  2.1509  0.0098
  660MOL0     H91072  10.957   4.289   0.003  0.4926  1.6861 -0.6589
  660MOL0     H91073  10.883   4.308   0.164  0.3340 -3.5177 -0.0534
  660MOL0     H91074  10.697   4.298  -0.084 -0.9874  0.9924  1.3068
  660MOL0     H91075  10.665   4.278   0.083  0.6045  0.6233  0.3131
  660MOL0     H91076  10.798   3.894   0.100 -1.2696 -0.9060 -0.6830
  660MOL0     H91077  10.894   4.905   0.116 -0.9589 -1.2864  0.0400
  660MOL0     H91078  10.828   5.207   0.247  1.1946  1.4224  1.7250
  660MOL0     H91079  10.902   5.137   0.393  1.4173  0.1428  0.3398
  660MOL0     H91080  10.968   5.103   0.237  2.2753  0.7533  2.2392
  661MOL0     O91081   0.801   3.001   3.915 -0.0591 -0.3585 -0.2209
  661MOL0     C91082   0.790   2.879   3.899  0.1836  0.7743  0.1230
  661MOL0     O91083   0.882   2.789   3.925  0.6087 -0.0741  0.0871
  661MOL0     C91084   0.997   2.834   3.986  0.1534 -0.2470  0.4190
  661MOL0     C91085   0.995   2.897   4.106  1.0916  0.6761 -0.4172
  661MOL0     C91086   1.111   2.933   4.168 -0.3885 -0.5307 -0.2444
  661MOL0     C91087   1.237   2.902   4.116  0.0283 -0.1911  1.2115
  661MOL0     O91088   1.353   2.926   4.184 -0.4527 -0.8351 -0.7145
  661MOL0     C91089   1.463   2.859   4.123 -0.3801 -0.8050  0.6504
  661MOL0     C91090   1.575   2.893   4.212  0.7739  0.3730 -0.1050
  661MOL0     C91091   1.640   3.033   4.190 -0.4337 -0.8039 -1.0091
  661MOL0     C91092   1.736   3.034   4.062 -0.2213 -0.1670  0.2313
  661MOL0     C91093   1.788   3.182   4.042 -0.2601 -0.2738  0.3891
  661MOL0     C91094   1.698   3.264   3.955  0.4697 -0.1996  0.6581
  661MOL0     C91095   1.655   3.395   4.028  0.6633 -0.2742  0.7044
  661MOL0     C91096   1.587   3.487   3.928 -0.0402 -0.2788 -0.2436
  661MOL0     N91097   1.682   3.556   3.829  0.0348 -0.4177  0.0527
  661MOL0     C91098   1.680   3.535   3.694  0.0594  0.3383  0.3675
  661MOL0     C91099   1.803   3.569   3.655 -0.4631 -0.4038 -0.5804
  661MOL0     C91100   1.874   3.555   3.524 -0.5238  0.3161  0.2280
  661MOL0     C91101   1.828   3.647   3.406  0.9407 -0.3891 -0.0566
  661MOL0     C91102   1.862   3.788   3.443 -0.4016 -0.2686  0.7164
  661MOL0     C91103   1.822   3.894   3.332  0.5225 -0.4804  0.3215
  661MOL0     O91104   1.936   3.905   3.246  1.0645 -0.6073  0.0090
  661MOL0     C91105   1.931   4.016   3.150 -0.2419  0.0613 -0.3170
  661MOL0     C91106   2.054   4.066   3.119  1.0835  0.1957  0.4428
  661MOL0     C91107   2.060   4.159   3.014  0.3555 -0.6904 -0.1088
  661MOL0     C91108   2.201   4.182   2.963 -0.5023 -0.7814  1.2228
  661MOL0     C91109   1.945   4.231   2.962  0.5270 -0.2414 -1.2619
  661MOL0     C91110   1.942   4.337   2.859  0.1464 -0.1469  0.2260
  661MOL0     O91111   1.821   4.394   2.834 -0.3346 -0.1421 -0.2068
  661MOL0     C91112   1.793   4.489   2.743 -0.5484 -0.6488  0.8559
  661MOL0     C91113   1.881   4.588   2.681 -0.8737  0.4423  0.5958
  661MOL0     C91114   1.826   4.698   2.611  0.8088 -1.0939 -0.5789
  661MOL0     C91115   1.688   4.725   2.602  0.1790 -0.0570 -0.2785
  661MOL0     O91116   1.625   4.830   2.549  0.5996 -0.4045  0.4951
  661MOL0     C91117   1.686   4.893   2.432 -0.0645 -0.6608  0.0674
  661MOL0     C91118   1.601   5.008   2.391 -0.0894  0.0961 -0.5402
  661MOL0     C91119   1.482   4.952   2.310 -0.4258  0.6099 -0.4094
  661MOL0     C91120   1.432   5.047   2.208 -0.7935 -0.0953  0.5996
  661MOL0     C91121   1.352   5.176   2.249  0.3371  0.0024 -0.4368
  661MOL0     C91122   1.205   5.145   2.275  0.6706 -0.0121  0.1718
  661MOL0     C91123   1.144   5.102   2.137 -0.0003  0.8292 -0.6191
  661MOL0     C91124   1.094   4.952   2.157  0.0223 -0.8737  0.9797
  661MOL0    Cl91125   0.951   4.987   2.271  0.3739  0.0407  0.4726
  661MOL0     C91126   1.614   4.618   2.654 -0.2764 -0.9782  0.6343
  661MOL0     C91127   1.661   4.510   2.714  0.7863 -0.3389 -0.3606
  661MOL0     O91128   2.045   4.377   2.799 -0.1072 -0.5668  0.2983
  661MOL0     C91129   1.829   4.195   3.026  0.4528  0.0845 -0.4702
  661MOL0     C91130   1.819   4.081   3.109  0.0266 -0.1350 -0.3285
  661MOL0     N91131   1.880   3.618   3.759 -0.2910 -0.6860 -0.1110
  661MOL0     N91132   1.799   3.616   3.859 -0.5534 -0.0188 -1.1099
  661MOL0     C91133   1.235   2.851   3.983  0.5025 -0.3279  0.3020
  661MOL0     C91134   1.118   2.814   3.916  0.0928 -0.6604 -0.7356
  661MOL0     C91135   0.672   2.840   3.825 -1.0504  0.3653 -0.2206
  661MOL0     C91136   0.684   2.735   3.731 -0.5685  0.0354 -0.5541
  661MOL0     C91137   0.570   2.699   3.656 -0.1176  0.5054 -0.2573
  661MOL0     C91138   0.445   2.750   3.669 -0.0742  0.7020 -0.1242
  661MOL0     O91139   0.340   2.713   3.593  0.2174  0.0301  0.3423
  661MOL0     C91140   0.365   2.606   3.494 -0.1184 -0.8647 -0.5023
  661MOL0     C91141   0.231   2.540   3.447 -0.0782  0.1423  0.4257
  661MOL0     C91142   0.260   2.415   3.359 -0.5628 -1.0895  0.1672
  661MOL0     C91143   0.132   2.360   3.286  0.1105  0.2016 -0.1785
  661MOL0     C91144   0.152   2.252   3.188  0.5505 -0.9614  0.7781
  661MOL0     C91145   0.169   2.160   3.112 -0.2983 -0.1289 -0.0852
  661MOL0     C91146   0.435   2.855   3.764  0.9063 -0.6498 -0.6465
  661MOL0     C91147   0.545   2.896   3.842 -0.1228  0.0930  0.9357
  661MOL0     C91148   0.508   2.989   3.961  0.0417 -0.0067  1.0162
  661MOL0     H91149   0.911   2.935   4.163  1.6594 -0.2943  1.1492
  661MOL0     H91150   1.108   2.971   4.270  0.7535 -3.4988  1.0029
  661MOL0     H91151   1.494   2.891   4.023  0.1720  1.0988  1.3903
  661MOL0     H91152   1.454   2.750   4.122 -0.9519 -0.7990  2.1317
  661MOL0     H91153   1.538   2.889   4.315  1.3673  1.1015  0.1434
  661MOL0     H91154   1.661   2.828   4.195  1.3092  1.2091 -0.7016
  661MOL0     H91155   1.571   3.117   4.190 -1.7356 -1.6877  2.2825
  661MOL0     H91156   1.691   3.050   4.285 -0.9952 -1.5642 -0.5627
  661MOL0     H91157   1.820   2.973   4.096  1.3816  1.9098  0.1648
  661MOL0     H91158   1.688   2.999   3.970  1.6971  0.8137 -1.2153
  661MOL0     H91159   1.877   3.189   3.979 -2.0620  1.0371 -2.2053
  661MOL0     H91160   1.806   3.237   4.134 -0.6967  2.7050 -1.1609
  661MOL0     H91161   1.733   3.268   3.852  0.4610 -1.2865  0.5958
  661MOL0     H91162   1.607   3.204   3.948  0.2973 -0.0434  1.4893
  661MOL0     H91163   1.742   3.440   4.077 -1.3026  1.8981  2.4647
  661MOL0     H91164   1.590   3.357   4.108 -1.8353 -2.3840 -2.0908
  661MOL0     H91165   1.518   3.418   3.880  0.6807 -2.0339  1.1288
  661MOL0     H91166   1.519   3.556   3.979 -0.7644 -0.1435 -1.3529
  661MOL0     H91167   1.605   3.487   3.632 -0.7801  0.7986  0.9977
  661MOL0     H91168   1.872   3.453   3.486 -0.4484  0.5550 -0.4299
  661MOL0     H91169   1.981   3.567   3.538 -0.7836  2.1751  0.9381
  661MOL0     H91170   1.883   3.620   3.315  1.2831  2.8837 -0.9817
  661MOL0     H91171   1.722   3.644   3.379  1.2258  1.2279 -1.5999
  661MOL0     H91172   1.811   3.808   3.538 -1.2990 -0.3157  0.2500
  661MOL0     H91173   1.970   3.793   3.462 -0.0372 -1.8586 -0.7116
  661MOL0     H91174   1.729   3.874   3.278  1.3332  0.0164 -1.3219
  661MOL0     H91175   1.810   3.987   3.389  0.7209 -0.4436  0.3042
  661MOL0     H91176   2.141   4.017   3.161  0.7272 -3.6574 -2.7281
  661MOL0     H91177   2.256   4.252   3.025 -1.5430  2.9617 -1.6698
  661MOL0     H91178   2.204   4.217   2.859 -1.9761 -0.2731  1.3187
  661MOL0     H91179   2.256   4.088   2.969  0.7426 -0.0604  1.4757
  661MOL0     H91180   1.989   4.585   2.696 -0.4766  0.2083 -1.8103
  661MOL0     H91181   1.897   4.768   2.568  0.7498 -0.3276  0.5172
  661MOL0     H91182   1.787   4.921   2.463 -0.9663  2.2419  0.7143
  661MOL0     H91183   1.703   4.819   2.353  2.8333 -0.1332  0.0894
  661MOL0     H91184   1.563   5.068   2.474  2.1362  0.8465  0.0246
  661MOL0     H91185   1.668   5.071   2.332  1.8354 -2.5959 -1.4013
  661MOL0     H91186   1.402   4.926   2.380  1.4125 -2.4869  0.7187
  661MOL0     H91187   1.498   4.859   2.254 -1.3040  0.2216 -0.0450
  661MOL0     H91188   1.374   4.983   2.142  1.8262 -1.4823 -0.5215
  661MOL0     H91189   1.526   5.064   2.155  0.9395 -1.8437  2.8633
  661MOL0     H91190   1.389   5.201   2.348 -0.1545  0.6070 -0.4029
  661MOL0     H91191   1.366   5.254   2.174 -1.1793  0.2339 -0.4980
  661MOL0     H91192   1.146   5.232   2.305  0.7223 -0.1042  0.5409
  661MOL0     H91193   1.194   5.064   2.347 -2.6036  0.2467  0.1121
  661MOL0     H91194   1.210   5.100   2.049  2.0856  0.2371  0.8992
  661MOL0     H91195   1.064   5.175   2.121 -1.0180  1.3275  4.9783
  661MOL0     H91196   1.164   4.872   2.183 -0.1918 -1.7829 -1.0195
  661MOL0     H91197   1.055   4.924   2.059  1.7078  3.9274 -1.3562
  661MOL0     H91198   1.506   4.626   2.645 -0.0446  1.7735 -0.7663
  661MOL0     H91199   1.585   4.450   2.764 -1.6428  1.5560 -1.5823
  661MOL0     H91200   1.740   4.257   3.016  0.3849 -0.3290 -3.1665
  661MOL0     H91201   1.726   4.045   3.152  0.7247 -0.6719  0.7763
  661MOL0     H91202   1.319   2.815   3.925  0.9614 -2.4895  2.1704
  661MOL0     H91203   1.113   2.774   3.815 -1.7074  0.4182 -1.1160
  661MOL0     H91204   0.782   2.690   3.721 -0.3044 -0.0671  1.9604
  661MOL0     H91205   0.596   2.609   3.600 -2.4806 -0.8655  0.6742
  661MOL0     H91206   0.423   2.649   3.412  1.7076 -1.0369  0.6565
  661MOL0     H91207   0.427   2.528   3.539 -0.3001 -1.5389 -1.3962
  661MOL0     H91208   0.162   2.608   3.397  0.4489  0.5997  0.3127
  661MOL0     H91209   0.182   2.490   3.531  2.8340 -1.4103  1.3462
  661MOL0     H91210   0.321   2.455   3.278 -3.0398  0.7723 -0.9183
  661MOL0     H91211   0.305   2.331   3.413  1.3245 -0.6596 -0.6480
  661MOL0     H91212   0.066   2.429   3.232  0.9328  0.3713 -0.9908
  661MOL0     H91213   0.066   2.328   3.366 -1.4470 -0.4899 -1.6845
  661MOL0     H91214   0.211   2.100   3.033  1.2138 -1.2486  1.4969
  661MOL0     H91215   0.342   2.909   3.777  2.0594  1.5234 -0.9575
  661MOL0     H91216   0.513   3.091   3.923  1.9136 -0.6906 -0.7679
  661MOL0     H91217   0.411   2.961   4.004 -0.2776 -1.4938 -0.5319
  661MOL0     H91218   0.577   2.966   4.042  0.7932 -1.1541  0.0939
  662MOL0     O91219   5.091   9.950   6.184 -0.2579  0.4002  0.4368
  662MOL0     C91220   5.183   9.891   6.242  0.3237  0.3615  0.1880
  662MOL0     O91221   5.303   9.946   6.279 -0.6218  0.5270  0.3200
  662MOL0     C91222   5.335  10.081   6.260 -1.2867 -0.1986  0.5413
  662MOL0     C91223   5.461  10.107   6.198  0.4947 -0.4759 -0.1708
  662MOL0     C91224   5.497  10.239   6.180  0.0262 -0.4571  0.9456
  662MOL0     C91225   5.411  10.348   6.204  0.8677  0.1848  0.5086
  662MOL0     O91226   5.447  10.483   6.193  0.4510  0.1506 -0.4846
  662MOL0     C91227   5.446  10.512   6.052 -0.2839  0.2263 -0.1592
  662MOL0     C91228   5.539  10.634   6.031 -1.0686  1.5148  0.5701
  662MOL0     C91229   5.473  10.763   6.069  0.4179 -0.8394  0.5604
  662MOL0     C91230   5.568  10.881   6.022  0.5916 -0.2146 -0.1929
  662MOL0     C91231   5.518  11.015   6.057  0.3971  0.0933  0.1931
  662MOL0     C91232   5.372  11.052   6.011  1.4041  0.4867 -0.6970
  662MOL0     C91233   5.368  11.195   6.006 -0.0487  0.0777  0.7628
  662MOL0     C91234   5.226  11.247   5.976 -0.5307  0.3663 -0.1038
  662MOL0     N91235   5.246  11.374   5.909  0.7821 -0.3316 -0.4558
  662MOL0     C91236   5.311  11.479   5.966  0.4199  0.0794  0.1533
  662MOL0     C91237   5.282  11.580   5.886 -0.5998  0.6255 -0.5909
  662MOL0     C91238   5.337  11.720   5.899 -0.5855  0.2377  0.5630
  662MOL0     C91239   5.448  11.782   5.805  0.0649  0.4552  0.0218
  662MOL0     C91240   5.459  11.936   5.839  0.9825 -0.9608  0.5584
  662MOL0     C91241   5.599  11.985   5.783 -0.0034 -0.7743  1.0489
  662MOL0     O91242   5.704  11.933   5.866  0.4332 -0.5890  0.9351
  662MOL0     C91243   5.707  11.998   5.993  0.0356  0.9369  0.1598
  662MOL0     C91244   5.655  11.935   6.099  0.2297  0.2858 -1.4934
  662MOL0     C91245   5.655  11.989   6.229 -0.2436 -0.9413 -0.3408
  662MOL0     C91246   5.575  11.913   6.335 -0.2777  0.1883 -0.0989
  662MOL0     C91247   5.730  12.109   6.249  0.3175  0.7213  0.0481
  662MOL0     C91248   5.756  12.179   6.381  1.5937  0.2411 -0.5108
  662MOL0     O91249   5.853  12.272   6.393 -0.2876 -0.2333  0.8541
  662MOL0     C91250   5.923  12.301   6.506  0.3291  0.3531  0.4786
  662MOL0     C91251   5.995  12.416   6.513  0.3657  0.0565 -0.0554
  662MOL0     C91252   6.082  12.447   6.616 -0.2809 -0.7576 -0.2185
  662MOL0     C91253   6.109  12.354   6.722  0.4086 -0.1584  0.9337
  662MOL0     O91254   6.218  12.390   6.798 -0.2358  0.3127 -0.4150
  662MOL0     C91255   6.249  12.305   6.914 -0.5661 -0.1644  0.1578
  662MOL0     C91256   6.342  12.384   7.011  0.7452  0.5117 -1.3283
  662MOL0     C91257   6.308  12.532   7.036  0.3064 -0.6208 -0.4620
  662MOL0     C91258   6.169  12.554   7.103  0.4509 -0.5221 -0.7563
  662MOL0     C91259   6.142  12.693   7.156  0.4360 -0.2553 -0.1327
  662MOL0     C91260   6.168  12.805   7.056  0.2712  0.5960  0.1867
  662MOL0     C91261   6.109  12.937   7.101  0.0122 -1.0261 -0.4653
  662MOL0     C91262   6.079  13.035   6.987  0.1851 -0.0471  0.5528
  662MOL0    Cl91263   6.211  13.116   6.921  0.1725  0.3172 -0.1431
  662MOL0     C91264   6.035  12.239   6.719  0.5273  0.0548 -0.0590
  662MOL0     C91265   5.941  12.215   6.618  0.3336 -0.7694  0.2842
  662MOL0     O91266   5.699  12.134   6.480  0.3732 -0.5525 -0.1319
  662MOL0     C91267   5.791  12.164   6.131 -0.0954  0.6971 -0.0474
  662MOL0     C91268   5.773  12.120   6.006  0.1682  0.0189  0.1359
  662MOL0     N91269   5.201  11.538   5.782  0.6719 -0.0097  0.2490
  662MOL0     N91270   5.195  11.412   5.795  0.9443  0.0834  0.5468
  662MOL0     C91271   5.286  10.315   6.250  0.6218 -0.7955  0.8249
  662MOL0     C91272   5.248  10.184   6.279  0.0176  0.1235 -0.6747
  662MOL0     C91273   5.159   9.745   6.244  0.2274 -0.3765 -0.3077
  662MOL0     C91274   5.275   9.664   6.248  0.4794 -0.0041 -0.1748
  662MOL0     C91275   5.270   9.525   6.220  0.5551  0.8929  0.0235
  662MOL0     C91276   5.143   9.469   6.206  0.0807  0.2657  0.5044
  662MOL0     O91277   5.144   9.332   6.189  0.1859  0.5735  1.0229
  662MOL0     C91278   5.108   9.296   6.052  0.2735 -0.5560 -0.2851
  662MOL0     C91279   5.191   9.175   6.026 -0.6227  0.4799 -0.1061
  662MOL0     C91280   5.149   9.045   6.090  0.4842  0.1390 -0.5452
  662MOL0     C91281   5.251   8.928   6.059 -0.7601 -0.4065 -0.3394
  662MOL0     C91282   5.236   8.875   5.923  0.1348  0.8048  0.2732
  662MOL0     C91283   5.236   8.824   5.811  1.4210  0.0516  0.6055
  662MOL0     C91284   5.030   9.546   6.214  0.4378  0.5948 -0.1592
  662MOL0     C91285   5.039   9.684   6.235  0.5212 -0.3355  0.7585
  662MOL0     C91286   4.898   9.748   6.243 -0.1306 -0.2138 -0.3093
  662MOL0     H91287   5.533  10.031   6.170  5.1789  1.9173  3.8032
  662MOL0     H91288   5.596  10.257   6.139 -0.8902  0.9622 -0.7436
  662MOL0     H91289   5.352  10.548   6.010  0.8982  3.7148 -0.1363
  662MOL0     H91290   5.475  10.429   5.987 -0.8262 -0.1787  0.1037
  662MOL0     H91291   5.627  10.620   6.094 -2.1193 -0.8838  1.6411
  662MOL0     H91292   5.570  10.633   5.926  0.9238 -2.3056  1.0100
  662MOL0     H91293   5.382  10.761   6.008  0.2766 -1.0519  0.7737
  662MOL0     H91294   5.440  10.773   6.173 -2.2633  3.8263 -0.4279
  662MOL0     H91295   5.668  10.883   6.067  2.0159  1.1141 -3.1234
  662MOL0     H91296   5.586  10.875   5.914  2.4036 -0.1888  0.0700
  662MOL0     H91297   5.587  11.091   6.023 -0.0694  0.7352  0.6583
  662MOL0     H91298   5.518  11.023   6.167  1.6532  0.9795  0.1463
  662MOL0     H91299   5.342  11.011   5.914 -1.2967  0.7404 -0.0379
  662MOL0     H91300   5.296  11.038   6.088 -1.1319  3.1842 -2.4525
  662MOL0     H91301   5.436  11.218   5.924 -0.7471 -2.2491 -0.5710
  662MOL0     H91302   5.405  11.238   6.100  1.2990 -0.9715  0.7258
  662MOL0     H91303   5.174  11.182   5.906  0.2354 -1.1378  0.6727
  662MOL0     H91304   5.162  11.257   6.064 -2.2639 -0.6501 -1.1816
  662MOL0     H91305   5.353  11.495   6.065 -2.3019  1.4233  1.1742
  662MOL0     H91306   5.397  11.733   5.990  0.6253  4.9837 -0.6196
  662MOL0     H91307   5.256  11.794   5.903  1.1880  2.5015 -1.7003
  662MOL0     H91308   5.539  11.733   5.839 -1.2292  0.2607  3.6807
  662MOL0     H91309   5.444  11.765   5.697  1.0612  3.4290 -0.5694
  662MOL0     H91310   5.379  11.997   5.796  0.3962 -2.0964  0.0094
  662MOL0     H91311   5.445  11.957   5.945 -3.3137 -0.0958 -0.0103
  662MOL0     H91312   5.610  11.958   5.678  1.9787  1.5678  0.5629
  662MOL0     H91313   5.591  12.094   5.784  2.2526 -0.5204 -0.1364
  662MOL0     H91314   5.585  11.853   6.082 -0.9898  0.7356  0.8862
  662MOL0     H91315   5.469  11.937   6.323 -0.6427 -2.2492 -3.2826
  662MOL0     H91316   5.600  11.939   6.438  3.1199  1.0280 -1.0269
  662MOL0     H91317   5.599  11.808   6.317  0.5720  0.4125 -0.2917
  662MOL0     H91318   5.981  12.485   6.430  2.8974  3.8902  2.3667
  662MOL0     H91319   6.135  12.541   6.624 -0.1754 -0.9494  1.7660
  662MOL0     H91320   6.155  12.300   6.969 -0.9947  3.3974 -0.0746
  662MOL0     H91321   6.294  12.207   6.895 -1.3031 -0.6582  0.8846
  662MOL0     H91322   6.346  12.318   7.098  1.0109 -1.2429 -2.6285
  662MOL0     H91323   6.447  12.400   6.983  0.9311  0.0261 -0.9261
  662MOL0     H91324   6.307  12.596   6.947 -2.9471  2.5493  1.5855
  662MOL0     H91325   6.385  12.579   7.098 -1.2075 -3.6690  4.2567
  662MOL0     H91326   6.150  12.475   7.177 -0.7251  0.4215 -0.0083
  662MOL0     H91327   6.089  12.545   7.029  0.0245  0.2207 -0.3949
  662MOL0     H91328   6.041  12.708   7.194  0.3272  2.1311 -1.1830
  662MOL0     H91329   6.212  12.706   7.239 -0.8707  0.7628  0.8483
  662MOL0     H91330   6.117  12.774   6.964  0.9674  1.2532 -0.4293
  662MOL0     H91331   6.276  12.812   7.036  0.7946 -5.0177 -0.5385
  662MOL0     H91332   6.178  12.996   7.161 -0.2707  0.6260 -1.6768
  662MOL0     H91333   6.018  12.923   7.160 -2.4296  1.2212 -3.3570
  662MOL0     H91334   6.017  13.112   7.033 -1.0490 -2.3099  2.9902
  662MOL0     H91335   6.029  12.989   6.901  0.9600 -0.2678  0.2032
  662MOL0     H91336   6.047  12.174   6.805  1.0797 -1.9699 -1.5817
  662MOL0     H91337   5.873  12.133   6.641  1.7873 -2.0269  0.2822
  662MOL0     H91338   5.856  12.251   6.127  2.0813 -0.8795 -1.4074
  662MOL0     H91339   5.832  12.151   5.920  0.1906 -2.0493 -0.6422
  662MOL0     H91340   5.218  10.398   6.265 -0.0186 -1.5054  2.0673
  662MOL0     H91341   5.149  10.158   6.315  0.0149  0.1992 -0.6253
  662MOL0     H91342   5.378   9.699   6.252 -0.3067  2.6657 -1.2618
  662MOL0     H91343   5.359   9.463   6.208 -0.8157 -0.9425 -1.2858
  662MOL0     H91344   5.002   9.271   6.053  0.0506  0.3515  0.8355
  662MOL0     H91345   5.124   9.372   5.974 -0.1618  2.1668  2.1025
  662MOL0     H91346   5.293   9.198   6.059  0.7320  1.2714 -4.2680
  662MOL0     H91347   5.192   9.158   5.918 -1.3794  0.2526 -0.0765
  662MOL0     H91348   5.161   9.059   6.198 -2.4621  1.4296 -0.2977
  662MOL0     H91349   5.046   9.017   6.066  0.3374  1.5709 -1.7564
  662MOL0     H91350   5.232   8.851   6.134  0.6671  0.3558  0.8646
  662MOL0     H91351   5.353   8.966   6.065 -0.4984 -1.2047  0.3818
  662MOL0     H91352   5.234   8.776   5.716  2.5032  0.1673  0.5130
  662MOL0     H91353   4.935   9.494   6.205  1.0666 -0.7522  0.6649
  662MOL0     H91354   4.892   9.823   6.323 -0.6258  0.3864 -0.8952
  662MOL0     H91355   4.877   9.799   6.148  2.6126 -0.9034 -1.3855
  662MOL0     H91356   4.815   9.678   6.258 -1.3534  0.5740 -2.8418
  663MOL0     O91357   7.402   0.725   2.156  0.1186  0.0137  0.2085
  663MOL0     C91358   7.300   0.695   2.091  0.0662  0.0861  0.4583
  663MOL0     O91359   7.194   0.640   2.144  0.5837  0.6091  0.1406
  663MOL0     C91360   7.167   0.586   2.272 -0.3067 -0.6018  0.0257
  663MOL0     C91361   7.260   0.564   2.368  0.5285  0.0871  0.8579
  663MOL0     C91362   7.216   0.491   2.485 -0.2163 -0.8276 -0.4906
  663MOL0     C91363   7.084   0.468   2.507 -0.4101  0.1746 -0.6476
  663MOL0     O91364   7.055   0.441   2.637 -0.0068  0.4604  0.7611
  663MOL0     C91365   6.938   0.500   2.709 -0.1230  0.3943 -0.0540
  663MOL0     C91366   6.934   0.505   2.869 -0.3913  0.4738 -0.4155
  663MOL0     C91367   6.864   0.630   2.943 -0.5352 -0.7486 -0.6359
  663MOL0     C91368   6.712   0.603   2.965  0.0751 -0.0099  0.1784
  663MOL0     C91369   6.635   0.726   3.019  0.0004 -0.4559  0.3073
  663MOL0     C91370   6.640   0.749   3.170 -0.5170  0.7059 -0.4625
  663MOL0     C91371   6.572   0.653   3.255 -0.4140 -0.9595  0.2402
  663MOL0     C91372   6.567   0.693   3.395 -1.5734 -0.0757  0.2933
  663MOL0     N91373   6.510   0.597   3.484  0.0666  0.6361 -0.6326
  663MOL0     C91374   6.393   0.525   3.477 -0.2314  0.4282 -0.6495
  663MOL0     C91375   6.362   0.486   3.597  0.7283  0.2367 -1.0922
  663MOL0     C91376   6.239   0.411   3.638 -0.7456  0.7492 -0.7196
  663MOL0     C91377   6.250   0.369   3.780  0.5229  0.2084  0.1095
  663MOL0     C91378   6.126   0.294   3.828  0.2302  0.0146 -0.0560
  663MOL0     C91379   6.124   0.273   3.984 -0.4568 -0.6961  0.4570
  663MOL0     O91380   6.035   0.166   4.016  0.4665 -0.0456  0.5561
  663MOL0     C91381   6.007   0.134   4.147 -0.5045 -0.0705 -0.2388
  663MOL0     C91382   5.949   0.222   4.235 -0.2083  0.6587  0.7012
  663MOL0     C91383   5.926   0.182   4.369 -0.9187 -0.0112 -0.0446
  663MOL0     C91384   5.858   0.280   4.465 -0.4422 -0.0360  0.2773
  663MOL0     C91385   5.966   0.051   4.411 -0.1517 -0.2344  0.0397
  663MOL0     C91386   5.956  -0.009   4.547  0.4771 -0.0294 -0.6877
  663MOL0     O91387   5.966   0.079   4.656 -0.9812 -0.8074  0.0544
  663MOL0     C91388   5.958   0.039   4.787 -0.2207  0.3443  0.2763
  663MOL0     C91389   6.058   0.072   4.881 -0.5870  1.5590  0.9179
  663MOL0     C91390   6.069   0.008   5.008  0.0018  0.1879  0.3002
  663MOL0     C91391   5.973  -0.087   5.042  0.5424  0.8909  0.7546
  663MOL0     O91392   6.000  -0.159   5.161  0.0002  0.4712 -0.2712
  663MOL0     C91393   5.909  -0.259   5.199  0.7516 -0.1374 -0.4618
  663MOL0     C91394   5.965  -0.318   5.329  0.6211  0.3327  0.4921
  663MOL0     C91395   5.900  -0.273   5.465 -0.5724 -0.7236  0.2031
  663MOL0     C91396   5.747  -0.296   5.476 -0.5544 -0.7999  0.4486
  663MOL0     C91397   5.690  -0.280   5.619 -0.1934 -0.4911  0.1138
  663MOL0     C91398   5.717  -0.141   5.676 -0.3219 -0.2386  0.7302
  663MOL0     C91399   5.644  -0.121   5.811  1.1462  0.3013  0.9997
  663MOL0     C91400   5.721  -0.213   5.917  0.8244  0.9134 -0.5921
  663MOL0    Cl91401   5.674  -0.160   6.090 -0.2801  0.1120 -0.3097
  663MOL0     C91402   5.858  -0.107   4.954 -0.3976  0.2274 -1.3061
  663MOL0     C91403   5.860  -0.046   4.821 -0.4438 -0.4167  0.6918
  663MOL0     O91404   5.937  -0.131   4.558  0.1283  0.1362  0.3123
  663MOL0     C91405   6.017  -0.034   4.309 -1.0744 -0.1149 -1.3503
  663MOL0     C91406   6.047   0.011   4.183 -0.8112 -0.6170  0.6098
  663MOL0     N91407   6.460   0.534   3.686 -0.4271  0.7974 -0.3189
  663MOL0     N91408   6.549   0.591   3.618 -0.5350 -0.1798  0.8784
  663MOL0     C91409   6.991   0.488   2.402 -0.2106 -0.2933  1.0642
  663MOL0     C91410   7.028   0.545   2.285  0.4223 -0.9609  0.0273
  663MOL0     C91411   7.298   0.740   1.949 -0.7092 -0.2632 -0.0667
  663MOL0     C91412   7.421   0.799   1.899 -0.0915 -0.4592  0.6669
  663MOL0     C91413   7.420   0.868   1.780  0.1757  1.2999  0.3757
  663MOL0     C91414   7.306   0.884   1.708  0.4751  0.7610 -0.0617
  663MOL0     O91415   7.301   0.945   1.586  1.2952 -0.5040 -0.0970
  663MOL0     C91416   7.401   0.903   1.500  0.2416 -0.3381 -0.2956
  663MOL0     C91417   7.370   0.938   1.354  0.0026 -0.2611  0.1821
  663MOL0     C91418   7.253   0.862   1.287 -0.2759 -0.9404  0.3357
  663MOL0     C91419   7.114   0.936   1.302 -0.6919 -0.0969  0.3396
  663MOL0     C91420   6.995   0.849   1.316 -0.9358  0.5215  0.9298
  663MOL0     C91421   6.893   0.794   1.304  0.8165 -0.8308  0.1311
  663MOL0     C91422   7.185   0.833   1.765 -0.4274  0.3035  0.4480
  663MOL0     C91423   7.179   0.756   1.877  0.3519 -0.4070  0.4236
  663MOL0     C91424   7.038   0.705   1.912 -0.1083 -0.0198 -0.4692
  663MOL0     H91425   7.367   0.579   2.353  0.1921  0.9787 -0.9616
  663MOL0     H91426   7.293   0.467   2.558 -1.4703  1.7324  1.8452
  663MOL0     H91427   6.853   0.441   2.673 -0.2374 -0.5772  1.6976
  663MOL0     H91428   6.914   0.597   2.665 -1.9202 -0.4493 -1.0309
  663MOL0     H91429   6.883   0.418   2.912  2.5287 -1.0599  0.1952
  663MOL0     H91430   7.038   0.483   2.895  0.1410  1.4218 -1.6450
  663MOL0     H91431   6.911   0.646   3.040  0.6725 -1.7210 -1.0296
  663MOL0     H91432   6.877   0.717   2.878  2.1563 -0.7414 -0.2292
  663MOL0     H91433   6.670   0.571   2.869 -1.4886 -0.8347  1.0928
  663MOL0     H91434   6.713   0.525   3.040 -0.7599  2.2076  2.6637
  663MOL0     H91435   6.529   0.721   2.992  0.4203 -0.7963 -1.3379
  663MOL0     H91436   6.675   0.815   2.970  3.6889 -1.3060  1.4755
  663MOL0     H91437   6.740   0.765   3.213 -1.6007 -0.2623  2.7099
  663MOL0     H91438   6.585   0.841   3.189  1.4283  1.8241  0.0613
  663MOL0     H91439   6.592   0.547   3.236 -1.3619 -0.9556 -0.8874
  663MOL0     H91440   6.468   0.669   3.225 -0.2049 -0.0249 -0.0192
  663MOL0     H91441   6.667   0.716   3.435 -1.9244 -0.5640  1.5053
  663MOL0     H91442   6.516   0.789   3.407  0.7388  1.0488  2.1769
  663MOL0     H91443   6.334   0.504   3.389  3.1509 -0.6644 -2.8782
  663MOL0     H91444   6.242   0.326   3.570  2.9057  0.6001 -0.5769
  663MOL0     H91445   6.145   0.466   3.627 -1.6040 -0.6106 -0.3676
  663MOL0     H91446   6.341   0.308   3.785  0.1560 -0.7354 -2.8629
  663MOL0     H91447   6.262   0.457   3.845  2.3288  0.1386 -0.0660
  663MOL0     H91448   6.027   0.336   3.809 -0.7838 -2.3467 -0.4028
  663MOL0     H91449   6.117   0.197   3.777 -2.4811 -0.4166  1.0286
  663MOL0     H91450   6.224   0.245   4.018  0.9774  1.3674 -1.7808
  663MOL0     H91451   6.088   0.367   4.026 -2.2039 -2.3339  2.9930
  663MOL0     H91452   5.913   0.316   4.194 -1.6758 -0.5922 -0.9918
  663MOL0     H91453   5.931   0.315   4.537 -0.2392 -1.3633  0.7535
  663MOL0     H91454   5.764   0.241   4.505  0.5804 -0.5180  2.3656
  663MOL0     H91455   5.828   0.367   4.406 -2.0865 -1.7605 -1.6378
  663MOL0     H91456   6.129   0.149   4.852 -0.3354  0.8153 -0.5533
  663MOL0     H91457   6.142   0.039   5.083  1.0060 -0.9019 -0.2012
  663MOL0     H91458   5.808  -0.219   5.213  0.2611 -1.4759 -0.0468
  663MOL0     H91459   5.905  -0.331   5.117  1.1024 -1.7421  0.8943
  663MOL0     H91460   5.965  -0.427   5.335  2.4665  0.1348 -1.8437
  663MOL0     H91461   6.074  -0.303   5.327  0.7472 -0.3326 -2.9101
  663MOL0     H91462   5.925  -0.168   5.485 -1.6641 -0.2674 -0.6720
  663MOL0     H91463   5.935  -0.336   5.547  0.8679 -0.3703 -0.1138
  663MOL0     H91464   5.719  -0.395   5.438 -1.7674 -1.4699  2.8786
  663MOL0     H91465   5.706  -0.217   5.411 -1.0189  2.1594  4.0127
  663MOL0     H91466   5.582  -0.292   5.618  0.0063 -2.8169 -1.2894
  663MOL0     H91467   5.718  -0.353   5.695 -1.4358 -1.1989 -0.0955
  663MOL0     H91468   5.687  -0.066   5.603  1.9028  0.2327  0.2239
  663MOL0     H91469   5.826  -0.132   5.687 -0.4348  4.4623  0.0324
  663MOL0     H91470   5.537  -0.143   5.804  0.7642  2.4144 -3.1687
  663MOL0     H91471   5.656  -0.016   5.841  0.9594  0.6129  0.0133
  663MOL0     H91472   5.829  -0.217   5.897  0.1515  2.3396 -5.8574
  663MOL0     H91473   5.701  -0.319   5.899 -0.7091  0.7732  1.6141
  663MOL0     H91474   5.784  -0.177   4.991 -1.4116  1.3241 -1.2150
  663MOL0     H91475   5.775  -0.060   4.755 -0.1035  1.8125 -0.2966
  663MOL0     H91476   6.048  -0.135   4.337  0.8785  1.3068  2.2502
  663MOL0     H91477   6.097  -0.057   4.115  1.2787 -0.2449  1.6923
  663MOL0     H91478   6.884   0.475   2.415  0.3329 -2.4712  5.4799
  663MOL0     H91479   6.952   0.573   2.212  1.0616 -1.8802 -1.0244
  663MOL0     H91480   7.521   0.789   1.940 -0.0875 -1.2955  0.4607
  663MOL0     H91481   7.515   0.903   1.741  0.4884  1.8809  1.6072
  663MOL0     H91482   7.501   0.938   1.528 -0.3541  0.4510  0.9421
  663MOL0     H91483   7.414   0.794   1.501 -0.0010 -0.4814 -3.6283
  663MOL0     H91484   7.459   0.902   1.300 -0.7842 -2.3869  0.1812
  663MOL0     H91485   7.372   1.047   1.355 -0.7586 -0.2409 -0.0260
  663MOL0     H91486   7.278   0.848   1.181  0.7114 -3.2652  0.8172
  663MOL0     H91487   7.249   0.767   1.340  1.2553 -0.9236  0.5176
  663MOL0     H91488   7.101   1.003   1.216 -1.4614 -0.6924 -0.0241
  663MOL0     H91489   7.109   0.997   1.392  0.2343  2.3545 -1.1651
  663MOL0     H91490   6.796   0.748   1.302  1.9770 -3.4657 -0.5310
  663MOL0     H91491   7.093   0.853   1.712 -0.2116 -0.0701 -0.0806
  663MOL0     H91492   7.021   0.747   2.012  2.3085  2.2704 -0.8922
  663MOL0     H91493   6.970   0.739   1.833  2.2258  1.0411 -2.1369
  663MOL0     H91494   7.039   0.596   1.911 -0.4106 -0.1216  2.2799
  664MOL0     O91495   9.773   6.944   0.568 -0.3794 -0.2897 -0.0358
  664MOL0     C91496   9.673   6.955   0.494  0.2036  0.2795 -0.7601
  664MOL0     O91497   9.603   6.859   0.439 -0.0034  0.2732 -0.3732
  664MOL0     C91498   9.598   6.735   0.493 -0.7421  0.0041  0.3487
  664MOL0     C91499   9.713   6.652   0.508  0.2725  0.1595  0.8723
  664MOL0     C91500   9.696   6.522   0.557  0.0524  0.7508  0.0967
  664MOL0     C91501   9.575   6.474   0.610  0.2470  0.0980  0.5874
  664MOL0     O91502   9.554   6.359   0.686 -0.5926 -0.1683 -0.0150
  664MOL0     C91503   9.615   6.233   0.649  0.2304 -0.1514  0.5717
  664MOL0     C91504   9.565   6.121   0.742  0.2654  0.5806 -0.1213
  664MOL0     C91505   9.418   6.085   0.698  0.5139  1.0842 -1.2818
  664MOL0     C91506   9.407   5.976   0.594 -0.2970  0.7008 -0.8661
  664MOL0     C91507   9.264   5.957   0.546 -0.3278 -0.0082 -0.7804
  664MOL0     C91508   9.145   5.967   0.643  0.5397 -0.2126  0.8270
  664MOL0     C91509   9.000   5.943   0.585 -0.4424 -0.0050  0.0059
  664MOL0     C91510   8.984   5.796   0.524 -0.5281 -0.8555 -1.1784
  664MOL0     N91511   8.847   5.771   0.535 -0.0228  0.9304  0.0535
  664MOL0     C91512   8.781   5.644   0.531  0.3164 -0.7495  0.0047
  664MOL0     C91513   8.656   5.672   0.503 -0.0101  0.0322 -0.1241
  664MOL0     C91514   8.534   5.589   0.516 -0.1784 -0.0987 -0.9906
  664MOL0     C91515   8.480   5.568   0.667 -0.4604  1.3342  0.1625
  664MOL0     C91516   8.338   5.535   0.674  0.1718  0.5190 -0.0131
  664MOL0     C91517   8.248   5.650   0.638 -0.0442 -0.1688  0.0079
  664MOL0     O91518   8.276   5.769   0.708 -0.3010 -0.0418  0.5547
  664MOL0     C91519   8.193   5.809   0.808 -0.1840 -0.6232 -0.7626
  664MOL0     C91520   8.123   5.721   0.886  0.7428 -0.3029  0.0427
  664MOL0     C91521   8.047   5.765   1.006  0.4246  0.0479  0.4267
  664MOL0     C91522   7.983   5.654   1.080 -0.3572  0.4895 -0.1517
  664MOL0     C91523   8.038   5.898   1.042  0.0295  0.0942 -0.9509
  664MOL0     C91524   7.970   5.961   1.150 -0.0251  0.8974 -0.2605
  664MOL0     O91525   7.935   6.090   1.136 -0.7040  0.2853  0.0514
  664MOL0     C91526   7.826   6.139   1.207  0.6704  0.5078  0.1796
  664MOL0     C91527   7.699   6.092   1.171  0.1239  1.0469 -0.9333
  664MOL0     C91528   7.584   6.154   1.225 -0.0467 -0.1448  0.3126
  664MOL0     C91529   7.600   6.278   1.291  0.8749  0.3015 -0.2355
  664MOL0     O91530   7.480   6.333   1.347  0.2917 -0.4174 -0.7037
  664MOL0     C91531   7.446   6.300   1.475 -0.4517  0.8163 -0.4771
  664MOL0     C91532   7.305   6.360   1.495 -0.2736 -0.2352  0.0134
  664MOL0     C91533   7.259   6.376   1.645 -0.1916 -0.6898 -0.7161
  664MOL0     C91534   7.376   6.391   1.760  0.5371  0.1356  0.2438
  664MOL0     C91535   7.302   6.403   1.889 -0.1225 -0.6102 -0.0622
  664MOL0     C91536   7.385   6.410   2.014 -1.0226  0.0569 -0.2132
  664MOL0     C91537   7.317   6.469   2.132 -0.1904 -0.0520 -0.0677
  664MOL0     C91538   7.416   6.456   2.246 -0.2766  0.3219 -0.3802
  664MOL0    Cl91539   7.353   6.542   2.388 -0.1786  0.1453  0.2377
  664MOL0     C91540   7.731   6.324   1.333  0.3445 -0.6726 -0.4092
  664MOL0     C91541   7.836   6.261   1.275 -0.1755 -0.3047  0.4531
  664MOL0     O91542   7.936   5.889   1.248 -0.8161  0.4392 -0.6939
  664MOL0     C91543   8.104   5.985   0.949  1.0323  0.4068  0.3113
  664MOL0     C91544   8.181   5.944   0.845 -0.2665  0.3478  0.1079
  664MOL0     N91545   8.645   5.809   0.473  0.8864  0.1816  0.8346
  664MOL0     N91546   8.763   5.860   0.480 -0.1462 -0.1889  0.5757
  664MOL0     C91547   9.464   6.554   0.587  0.1860 -1.2492  1.0174
  664MOL0     C91548   9.478   6.686   0.539 -0.6276  1.0409  0.2150
  664MOL0     C91549   9.643   7.094   0.425  0.5620 -0.2905  1.0062
  664MOL0     C91550   9.594   7.093   0.293 -0.6404 -0.4505 -0.7201
  664MOL0     C91551   9.586   7.214   0.218  0.2498  0.6147  0.2642
  664MOL0     C91552   9.624   7.332   0.285 -0.2749  0.4311  0.9077
  664MOL0     O91553   9.628   7.447   0.205  0.3256  0.0498  0.2302
  664MOL0     C91554   9.685   7.577   0.258 -1.0906 -0.5336 -0.3537
  664MOL0     C91555   9.825   7.569   0.220  0.1639  0.2549 -1.0266
  664MOL0     C91556   9.917   7.690   0.255 -0.6655  0.0277 -1.4721
  664MOL0     C91557  10.066   7.654   0.242  0.2566 -0.0190  1.0983
  664MOL0     C91558  10.101   7.623   0.099  0.2751 -0.5453  0.3268
  664MOL0     C91559  10.148   7.575  -0.010  1.0068  0.3790 -0.6428
  664MOL0     C91560   9.650   7.329   0.418  0.4307 -0.6605  0.1715
  664MOL0     C91561   9.665   7.214   0.494 -0.3751  0.2952 -0.4929
  664MOL0     C91562   9.725   7.226   0.633 -0.2100 -0.0940  0.2518
  664MOL0     H91563   9.811   6.681   0.471  0.4818 -0.6982  0.7365
  664MOL0     H91564   9.784   6.461   0.573 -1.1780 -0.9843  0.4914
  664MOL0     H91565   9.724   6.237   0.640  0.1914 -1.2942 -0.8769
  664MOL0     H91566   9.591   6.226   0.542 -1.0338  3.2935  0.4892
  664MOL0     H91567   9.640   6.041   0.732  0.9134  1.4026 -2.4420
  664MOL0     H91568   9.561   6.137   0.850 -1.6290 -1.7842  0.2566
  664MOL0     H91569   9.360   6.044   0.782 -2.1930  0.8017 -3.1553
  664MOL0     H91570   9.369   6.181   0.679  0.0131  1.4825  1.5767
  664MOL0     H91571   9.472   5.995   0.509  1.4995 -4.2633 -0.9235
  664MOL0     H91572   9.425   5.881   0.646 -2.4660 -0.1998 -1.6373
  664MOL0     H91573   9.274   5.863   0.490  1.8601  1.2154 -2.5865
  664MOL0     H91574   9.257   6.036   0.470  0.0652  1.1865  0.3965
  664MOL0     H91575   9.158   5.912   0.737 -3.5876  0.1700  1.8099
  664MOL0     H91576   9.152   6.072   0.673 -0.6803  0.4188 -0.9444
  664MOL0     H91577   8.984   6.013   0.502  1.2330 -1.4256 -1.6111
  664MOL0     H91578   8.922   5.969   0.657 -1.5005  0.0017 -1.0924
  664MOL0     H91579   9.030   5.795   0.425  0.0271  0.8740 -0.9829
  664MOL0     H91580   9.041   5.719   0.578  1.0475 -1.0402 -3.0198
  664MOL0     H91581   8.823   5.545   0.547  3.1096  0.1851 -0.9589
  664MOL0     H91582   8.555   5.496   0.463 -0.2498 -1.5445  1.3678
  664MOL0     H91583   8.453   5.642   0.465 -2.4401 -2.4292 -0.0794
  664MOL0     H91584   8.528   5.478   0.707  1.4423  2.4599  0.5109
  664MOL0     H91585   8.509   5.652   0.731 -2.3410  0.1323  2.7703
  664MOL0     H91586   8.316   5.444   0.618  1.6329  0.1394 -0.0354
  664MOL0     H91587   8.319   5.512   0.779 -2.2020  0.5825 -0.3948
  664MOL0     H91588   8.262   5.677   0.532 -4.1478  1.3404 -0.3103
  664MOL0     H91589   8.144   5.620   0.646 -0.3366  0.1698 -1.9385
  664MOL0     H91590   8.114   5.614   0.871 -2.5446 -0.6935  3.4420
  664MOL0     H91591   8.049   5.630   1.164  2.1268  3.0322 -1.2036
  664MOL0     H91592   7.970   5.561   1.022 -1.4032 -0.2849  1.2762
  664MOL0     H91593   7.884   5.673   1.122  1.0000  0.0054  3.6608
  664MOL0     H91594   7.692   6.012   1.098  1.6714  0.2847 -0.2855
  664MOL0     H91595   7.490   6.101   1.213  0.9565 -1.7200 -0.9329
  664MOL0     H91596   7.438   6.191   1.475  0.3167  0.7042 -2.8382
  664MOL0     H91597   7.523   6.343   1.540 -1.6557 -0.6840  2.0911
  664MOL0     H91598   7.310   6.454   1.440 -0.9990 -0.9635 -1.3703
  664MOL0     H91599   7.230   6.298   1.444 -1.1858 -1.8307  3.0255
  664MOL0     H91600   7.196   6.290   1.670  0.1586 -2.5440 -5.2560
  664MOL0     H91601   7.193   6.463   1.647  1.5685  0.7103 -1.1165
  664MOL0     H91602   7.436   6.481   1.745  0.7365 -0.3526 -2.2903
  664MOL0     H91603   7.439   6.302   1.754 -2.0111 -1.8126  0.7541
  664MOL0     H91604   7.247   6.497   1.888 -2.6924 -2.0246 -0.5191
  664MOL0     H91605   7.220   6.331   1.896 -1.2170  0.2785 -2.4842
  664MOL0     H91606   7.479   6.463   1.998  0.3759 -2.1463  0.1754
  664MOL0     H91607   7.413   6.311   2.052  2.8421  1.0112 -0.1418
  664MOL0     H91608   7.218   6.442   2.169 -0.0973  3.3499  3.2435
  664MOL0     H91609   7.308   6.575   2.111  2.3040  0.3513  0.5205
  664MOL0     H91610   7.518   6.484   2.221 -0.8484 -0.0766 -3.6173
  664MOL0     H91611   7.435   6.351   2.270 -2.7160  0.1617  1.2099
  664MOL0     H91612   7.747   6.416   1.389  2.2680 -2.3398  2.0032
  664MOL0     H91613   7.933   6.308   1.286  0.1021 -0.0079 -2.4428
  664MOL0     H91614   8.096   6.093   0.951  3.0990  0.5914  0.8890
  664MOL0     H91615   8.214   6.012   0.766 -2.6049 -1.8796 -3.0510
  664MOL0     H91616   9.360   6.527   0.600 -0.5655  1.1097  0.3258
  664MOL0     H91617   9.394   6.753   0.524 -0.2049  1.7453  0.9224
  664MOL0     H91618   9.560   7.001   0.246  0.6914  0.2659 -3.2482
  664MOL0     H91619   9.550   7.224   0.116  1.4840  1.4143 -0.1165
  664MOL0     H91620   9.641   7.661   0.204 -1.3421 -0.2037  0.3460
  664MOL0     H91621   9.669   7.594   0.365 -0.0186  3.1887 -0.6723
  664MOL0     H91622   9.831   7.534   0.117 -0.1675 -2.5407 -0.1770
  664MOL0     H91623   9.876   7.489   0.273 -0.2297 -0.9436 -2.3918
  664MOL0     H91624   9.901   7.766   0.178  1.6186  0.9030 -1.1671
  664MOL0     H91625   9.883   7.727   0.352  1.3045  1.2469 -1.1796
  664MOL0     H91626  10.097   7.576   0.312 -1.3086 -0.3013  1.5035
  664MOL0     H91627  10.114   7.745   0.279  0.0524 -0.0675  1.4893
  664MOL0     H91628  10.182   7.539  -0.105  1.3529  0.8062 -0.6820
  664MOL0     H91629   9.669   7.424   0.469  0.2488 -0.1075 -0.7643
  664MOL0     H91630   9.701   7.327   0.669  0.9173  0.1278  0.4047
  664MOL0     H91631   9.699   7.156   0.714  0.0576 -1.8242 -1.1099
  664MOL0     H91632   9.832   7.220   0.613  0.3074  3.4771  1.2768
  665MOL0     O91633   0.162   2.219   7.109  0.2592  0.7358  0.4454
  665MOL0     C91634   0.265   2.217   7.039 -0.3561 -0.4254 -0.1396
  665MOL0     O91635   0.271   2.239   6.901  0.8156 -0.3386 -0.1960
  665MOL0     C91636   0.150   2.228   6.823  0.1168  0.5817 -1.0424
  665MOL0     C91637   0.147   2.293   6.707  0.3490  0.7442  0.3773
  665MOL0     C91638   0.034   2.292   6.618  0.3273 -0.4250  0.0072
  665MOL0     C91639  -0.071   2.197   6.641 -1.2190  0.7680  0.1106
  665MOL0     O91640  -0.176   2.168   6.557 -0.0910 -0.5181  0.3654
  665MOL0     C91641  -0.304   2.175   6.620  0.7464 -0.1600 -0.1868
  665MOL0     C91642  -0.402   2.250   6.524  0.5289 -0.3780 -0.2916
  665MOL0     C91643  -0.427   2.180   6.385  0.6811  0.3894 -0.6479
  665MOL0     C91644  -0.534   2.075   6.397  0.6388 -0.2865 -0.2696
  665MOL0     C91645  -0.530   1.978   6.269 -0.0503 -0.2517  0.5234
  665MOL0     C91646  -0.392   1.900   6.264 -0.5609 -1.0814  0.0967
  665MOL0     C91647  -0.389   1.761   6.194  0.5001  0.0804  1.0222
  665MOL0     C91648  -0.273   1.681   6.242 -0.4765  0.3240  0.1920
  665MOL0     N91649  -0.300   1.549   6.211 -0.1990 -0.0823 -0.1480
  665MOL0     C91650  -0.355   1.473   6.315 -0.6664 -0.3564  0.6991
  665MOL0     C91651  -0.340   1.349   6.265 -0.0098  0.5056  0.5286
  665MOL0     C91652  -0.376   1.233   6.354 -0.3571  0.6836  0.0223
  665MOL0     C91653  -0.289   1.215   6.481  0.4736  0.3332 -1.0039
  665MOL0     C91654  -0.364   1.272   6.608 -0.1251 -0.2516 -0.3537
  665MOL0     C91655  -0.279   1.267   6.739 -0.5471  0.2295 -0.4146
  665MOL0     O91656  -0.357   1.253   6.858  0.2455 -0.1141 -0.8038
  665MOL0     C91657  -0.402   1.128   6.899  0.0064 -0.4768  1.4625
  665MOL0     C91658  -0.479   1.137   7.008  0.1501  1.0273 -1.0544
  665MOL0     C91659  -0.535   1.022   7.066 -0.4289 -0.6832 -0.1160
  665MOL0     C91660  -0.587   1.041   7.204  0.0737  0.2847  0.7297
  665MOL0     C91661  -0.516   0.895   7.015  0.1151  1.0020 -1.0160
  665MOL0     C91662  -0.589   0.772   7.069  0.4253 -0.0074  0.3835
  665MOL0     O91663  -0.719   0.798   7.113 -0.0203 -0.1487 -0.5496
  665MOL0     C91664  -0.793   0.688   7.162 -0.2979  0.2384 -0.0769
  665MOL0     C91665  -0.805   0.569   7.105  0.0095 -0.0157 -0.4405
  665MOL0     C91666  -0.873   0.458   7.165  0.9003 -0.1755  0.0752
  665MOL0     C91667  -0.939   0.481   7.291  0.6493 -0.6342  0.2027
  665MOL0     O91668  -1.028   0.390   7.346 -0.9873  0.1354  0.0715
  665MOL0     C91669  -1.050   0.265   7.277 -0.5852  0.5641  0.5402
  665MOL0     C91670  -1.148   0.172   7.358  0.1926 -0.3621  1.0454
  665MOL0     C91671  -1.289   0.222   7.356  1.5685 -0.2958 -0.0170
  665MOL0     C91672  -1.379   0.173   7.479  0.2579 -0.8174 -0.4936
  665MOL0     C91673  -1.508   0.256   7.493  0.9959  0.4027 -1.2374
  665MOL0     C91674  -1.628   0.202   7.402  1.0949  0.0913 -0.6267
  665MOL0     C91675  -1.756   0.280   7.423 -0.7674 -0.5438  0.1522
  665MOL0     C91676  -1.865   0.230   7.330  0.2656  0.7451  0.1235
  665MOL0    Cl91677  -2.006   0.324   7.354 -0.2134 -0.5121 -0.5378
  665MOL0     C91678  -0.928   0.607   7.346  0.0117 -0.0740 -0.8213
  665MOL0     C91679  -0.852   0.703   7.283 -0.9360  0.9454 -0.7749
  665MOL0     O91680  -0.527   0.665   7.068  0.1039 -0.2024 -0.5275
  665MOL0     C91681  -0.423   0.889   6.913 -0.3112 -0.8198 -1.2343
  665MOL0     C91682  -0.371   1.004   6.849 -0.2559 -0.1958 -0.7697
  665MOL0     N91683  -0.300   1.354   6.133  1.0431 -0.1118 -0.8568
  665MOL0     N91684  -0.271   1.476   6.097 -0.3009 -1.3524  0.5491
  665MOL0     C91685  -0.066   2.135   6.771 -1.3764 -0.4527 -0.3189
  665MOL0     C91686   0.037   2.160   6.853  0.4254 -0.2883  0.3284
  665MOL0     C91687   0.393   2.192   7.095 -0.4957 -0.8661  0.4466
  665MOL0     C91688   0.509   2.237   7.038 -0.8725 -1.1631  0.5982
  665MOL0     C91689   0.640   2.213   7.089 -0.3930  0.3863 -0.9462
  665MOL0     C91690   0.661   2.135   7.204 -1.4168  0.9393  0.1748
  665MOL0     O91691   0.784   2.118   7.267 -0.2587 -0.1373 -0.0622
  665MOL0     C91692   0.907   2.189   7.232 -0.2330  0.0632  0.0360
  665MOL0     C91693   0.983   2.204   7.368 -0.2549  0.7953 -0.2820
  665MOL0     C91694   1.130   2.216   7.337  0.2445 -0.1292  0.1793
  665MOL0     C91695   1.222   2.256   7.451 -0.1888  0.0840 -0.7182
  665MOL0     C91696   1.351   2.305   7.406 -0.1547  0.6124 -0.3861
  665MOL0     C91697   1.445   2.359   7.349 -0.3125  0.0266 -0.7665
  665MOL0     C91698   0.548   2.094   7.272  0.9396 -0.3042  0.2664
  665MOL0     C91699   0.417   2.111   7.215 -0.8298  1.1322  0.1874
  665MOL0     C91700   0.301   2.042   7.290  0.7081 -0.1941 -0.5405
  665MOL0     H91701   0.233   2.353   6.680  0.1086  1.2703  0.7639
  665MOL0     H91702   0.030   2.370   6.543 -1.9276  3.1901  3.5169
  665MOL0     H91703  -0.308   2.209   6.724  2.1712  0.2948 -0.2668
  665MOL0     H91704  -0.339   2.071   6.624  4.7587 -1.6584  0.6807
  665MOL0     H91705  -0.504   2.254   6.563 -0.1986 -2.7208 -1.6865
  665MOL0     H91706  -0.369   2.353   6.508  1.2768 -0.7334 -1.1165
  665MOL0     H91707  -0.470   2.254   6.316  2.3135  0.2422 -1.8749
  665MOL0     H91708  -0.336   2.144   6.337  0.1501  0.8400 -2.0812
  665MOL0     H91709  -0.522   2.004   6.480  1.9832 -0.9058 -0.9589
  665MOL0     H91710  -0.633   2.119   6.411  0.5795 -0.4602 -0.1329
  665MOL0     H91711  -0.555   2.044   6.185 -1.6718  2.8775  3.2166
  665MOL0     H91712  -0.600   1.895   6.262  1.1255 -1.1609 -1.0428
  665MOL0     H91713  -0.313   1.964   6.224 -3.8661  3.5656  0.2531
  665MOL0     H91714  -0.368   1.867   6.365  0.4111  0.9149  0.5587
  665MOL0     H91715  -0.377   1.770   6.085  2.4617  0.2956  1.2372
  665MOL0     H91716  -0.481   1.711   6.226  1.8689 -2.3385  1.3945
  665MOL0     H91717  -0.187   1.717   6.184 -1.4784  2.0248 -0.3025
  665MOL0     H91718  -0.248   1.701   6.347 -0.0304 -0.3597  0.2168
  665MOL0     H91719  -0.367   1.507   6.417  2.8121  0.4535  0.9677
  665MOL0     H91720  -0.368   1.140   6.297  0.4476  1.4310 -1.1214
  665MOL0     H91721  -0.483   1.246   6.373 -0.5306 -1.5309  0.8849
  665MOL0     H91722  -0.267   1.109   6.494  0.8471  0.4956 -0.2649
  665MOL0     H91723  -0.195   1.270   6.468  2.7954 -3.0677  0.1464
  665MOL0     H91724  -0.396   1.376   6.597 -1.2783 -0.2343  2.4386
  665MOL0     H91725  -0.450   1.210   6.635  1.2332 -1.5952  1.1065
  665MOL0     H91726  -0.211   1.182   6.722  1.0643  1.0184  1.6781
  665MOL0     H91727  -0.210   1.352   6.740  2.3704 -1.9753  1.5373
  665MOL0     H91728  -0.479   1.231   7.063 -1.3247  1.4543 -1.7312
  665MOL0     H91729  -0.553   0.957   7.266 -1.6499  1.5996  3.6799
  665MOL0     H91730  -0.696   1.048   7.194  0.2909  0.4323 -2.9041
  665MOL0     H91731  -0.545   1.134   7.244  3.3103  0.2522 -2.1330
  665MOL0     H91732  -0.757   0.554   7.010  2.3413 -1.1527  0.8324
  665MOL0     H91733  -0.883   0.364   7.113 -0.1242 -1.1860  1.9703
  665MOL0     H91734  -1.091   0.293   7.179 -0.4575  0.8471  0.5678
  665MOL0     H91735  -0.953   0.215   7.261 -1.1387 -0.7198  1.0712
  665MOL0     H91736  -1.133   0.071   7.321  1.1636 -0.1856  0.9447
  665MOL0     H91737  -1.103   0.167   7.458  1.1610  2.1840  0.8250
  665MOL0     H91738  -1.347   0.176   7.275  1.6720 -1.4646  0.5555
  665MOL0     H91739  -1.295   0.330   7.343  1.0924 -0.2555  0.4834
  665MOL0     H91740  -1.325   0.195   7.571 -0.4442  1.7933 -0.6243
  665MOL0     H91741  -1.393   0.065   7.464  3.1512 -0.8109 -6.4184
  665MOL0     H91742  -1.537   0.237   7.597  3.6333  0.2582 -0.4717
  665MOL0     H91743  -1.495   0.364   7.479 -0.1545  1.4455  3.7148
  665MOL0     H91744  -1.644   0.094   7.413  0.5030  0.1584 -0.7890
  665MOL0     H91745  -1.595   0.216   7.299  1.0146  2.0532 -0.4190
  665MOL0     H91746  -1.736   0.385   7.402 -1.8070 -0.6768 -1.6045
  665MOL0     H91747  -1.788   0.271   7.528 -1.5123  0.7976  0.0561
  665MOL0     H91748  -1.885   0.125   7.354  2.1710  1.1796  4.5845
  665MOL0     H91749  -1.829   0.236   7.227 -1.2847 -0.7851 -0.5560
  665MOL0     H91750  -0.967   0.643   7.441  0.3522  2.6483 -1.6257
  665MOL0     H91751  -0.835   0.797   7.336  0.3607 -0.7004  1.9233
  665MOL0     H91752  -0.407   0.792   6.868  2.9396 -0.5704 -0.8310
  665MOL0     H91753  -0.297   0.992   6.771  3.5690  0.2373  2.4488
  665MOL0     H91754  -0.152   2.076   6.800 -0.9420 -1.6923 -1.4435
  665MOL0     H91755   0.024   2.118   6.952 -0.6428  0.2226  0.4251
  665MOL0     H91756   0.502   2.292   6.945  0.6271  0.3641  1.3079
  665MOL0     H91757   0.720   2.252   7.028  0.9481 -1.6189 -0.5718
  665MOL0     H91758   0.964   2.120   7.170 -0.5169 -0.8616  0.7724
  665MOL0     H91759   0.894   2.284   7.181  3.2058  0.5019 -0.2135
  665MOL0     H91760   0.969   2.113   7.428 -1.0151 -0.0306 -1.6557
  665MOL0     H91761   0.940   2.292   7.417 -1.1686 -0.0074  0.3909
  665MOL0     H91762   1.162   2.123   7.289  0.8075 -0.1245  0.5314
  665MOL0     H91763   1.124   2.289   7.256 -2.1320  1.3144  1.5293
  665MOL0     H91764   1.252   2.177   7.520 -1.3843 -0.7824 -1.1593
  665MOL0     H91765   1.182   2.335   7.514 -0.8056 -1.0077  0.2927
  665MOL0     H91766   1.518   2.417   7.295 -0.4274 -0.0583 -1.0149
  665MOL0     H91767   0.545   2.059   7.375 -1.3690  0.6760  0.5978
  665MOL0     H91768   0.225   2.007   7.220 -0.3293  0.3636  0.2764
  665MOL0     H91769   0.346   1.963   7.351  2.3976  0.6353 -0.6366
  665MOL0     H91770   0.254   2.118   7.353  1.1887  1.2763 -1.8630
  666MOL0     O91771   8.984  11.383   9.437 -0.4595  0.0618 -0.2702
  666MOL0     C91772   9.103  11.373   9.462 -0.1039  0.0981  0.1010
  666MOL0     O91773   9.193  11.311   9.385 -0.7895  0.2653  0.5007
  666MOL0     C91774   9.160  11.262   9.259  0.0868  0.0717  0.1078
  666MOL0     C91775   9.198  11.127   9.232 -0.0613 -1.0087 -0.1052
  666MOL0     C91776   9.161  11.074   9.108 -0.8215  0.7688  0.5162
  666MOL0     C91777   9.076  11.138   9.022  0.6464  0.1488 -0.0159
  666MOL0     O91778   9.029  11.063   8.918  0.3954 -0.2310 -0.6070
  666MOL0     C91779   9.132  11.028   8.826  0.7453  0.1649 -0.1673
  666MOL0     C91780   9.079  11.010   8.685 -0.9795  0.6972 -0.9223
  666MOL0     C91781   8.987  11.121   8.645 -1.4354 -0.5328 -0.2669
  666MOL0     C91782   8.963  11.117   8.495  0.4882  0.6746 -0.2273
  666MOL0     C91783   8.873  11.237   8.451  0.0140  0.0792  0.2937
  666MOL0     C91784   8.821  11.224   8.312 -0.2411  0.3518  0.3032
  666MOL0     C91785   8.763  11.352   8.252  0.2928  0.0319  0.7246
  666MOL0     C91786   8.638  11.408   8.322  0.1688  0.9668 -0.3212
  666MOL0     N91787   8.572  11.520   8.245 -0.3188 -0.0598  0.2864
  666MOL0     C91788   8.457  11.496   8.180  0.0968 -0.1462 -1.0053
  666MOL0     C91789   8.402  11.621   8.154  0.6997 -0.0698 -0.3019
  666MOL0     C91790   8.279  11.649   8.080 -0.1953 -0.3099  0.2133
  666MOL0     C91791   8.316  11.719   7.947  1.0428  0.5382  0.1919
  666MOL0     C91792   8.187  11.738   7.856 -0.0848  0.2557 -0.2651
  666MOL0     C91793   8.212  11.791   7.709  0.9046 -0.6142  0.5162
  666MOL0     O91794   8.296  11.714   7.619 -0.7509 -0.6223 -0.1769
  666MOL0     C91795   8.315  11.758   7.500 -0.4618  0.2865  0.0930
  666MOL0     C91796   8.251  11.692   7.399 -0.1592  0.3611  0.1661
  666MOL0     C91797   8.250  11.733   7.265  0.1338 -0.6048  0.6440
  666MOL0     C91798   8.173  11.651   7.166  0.2974  0.5799  0.6154
  666MOL0     C91799   8.320  11.858   7.239 -0.2429  1.0201  0.9697
  666MOL0     C91800   8.348  11.904   7.097 -0.2323  0.7760 -0.2467
  666MOL0     O91801   8.391  12.033   7.094  0.1957 -0.4764  0.2546
  666MOL0     C91802   8.446  12.060   6.969 -0.0680  0.9252  0.1611
  666MOL0     C91803   8.362  12.104   6.866  0.3644  0.1437  0.7151
  666MOL0     C91804   8.409  12.104   6.732  0.0360  0.2809 -0.3838
  666MOL0     C91805   8.539  12.062   6.701  0.2825  0.4134  0.3007
  666MOL0     O91806   8.566  12.044   6.566 -0.1964 -0.1891 -0.5326
  666MOL0     C91807   8.697  11.992   6.527 -0.2580 -0.9482  0.2261
  666MOL0     C91808   8.691  11.839   6.514  0.3963 -0.2148  0.0849
  666MOL0     C91809   8.819  11.764   6.518 -0.0956 -0.1273  0.3054
  666MOL0     C91810   8.901  11.782   6.390 -0.6874  1.2110  0.1131
  666MOL0     C91811   9.007  11.674   6.380 -0.2874  0.5301  0.4894
  666MOL0     C91812   9.092  11.673   6.243  0.5933  0.2885  0.4447
  666MOL0     C91813   9.195  11.562   6.229  0.1218  0.6412  0.5196
  666MOL0     C91814   9.282  11.577   6.091 -1.1778 -0.2737  0.6643
  666MOL0    Cl91815   9.370  11.741   6.093 -0.0198  0.1346 -0.1710
  666MOL0     C91816   8.619  12.031   6.807 -1.5090  0.3853 -0.6005
  666MOL0     C91817   8.576  12.019   6.940  0.6303  0.3189  0.1257
  666MOL0     O91818   8.353  11.824   7.004  0.2630  0.7102  0.5879
  666MOL0     C91819   8.377  11.928   7.344 -0.7004  0.3812  0.2854
  666MOL0     C91820   8.377  11.880   7.476  1.0999 -0.5127 -0.0774
  666MOL0     N91821   8.483  11.712   8.217  0.3176  0.7329  0.2020
  666MOL0     N91822   8.575  11.649   8.274 -0.1330 -0.3385  0.2069
  666MOL0     C91823   9.032  11.272   9.055 -0.4851 -0.1575  0.3645
  666MOL0     C91824   9.084  11.333   9.168  0.3353 -0.6629 -0.8843
  666MOL0     C91825   9.165  11.439   9.579 -0.1089 -0.2149  0.2760
  666MOL0     C91826   9.300  11.406   9.606 -0.6167 -0.2044  0.0565
  666MOL0     C91827   9.366  11.469   9.715 -1.1191 -0.5682  0.4150
  666MOL0     C91828   9.314  11.574   9.784 -0.4041  0.1270 -0.4760
  666MOL0     O91829   9.398  11.633   9.886  0.0892  0.7048  0.3881
  666MOL0     C91830   9.381  11.767   9.921  0.0015  0.2956 -0.0547
  666MOL0     C91831   9.349  11.771  10.076 -0.2974 -0.2852  0.4169
  666MOL0     C91832   9.358  11.916  10.142 -1.2839  0.7110  1.2199
  666MOL0     C91833   9.475  11.894  10.243 -0.5198 -0.1894  0.9420
  666MOL0     C91834   9.464  12.017  10.333 -0.3729  0.4153 -0.8795
  666MOL0     C91835   9.445  12.121  10.386  0.3690 -1.1503 -0.8004
  666MOL0     C91836   9.185  11.615   9.757  0.2937  0.0665  0.4736
  666MOL0     C91837   9.107  11.552   9.659 -1.2880  0.4467  0.1469
  666MOL0     C91838   8.968  11.605   9.631 -1.3929  0.7159 -0.0112
  666MOL0     H91839   9.268  11.070   9.293  2.5609  2.2071  0.1626
  666MOL0     H91840   9.189  10.971   9.086 -1.3788  0.7561 -0.1586
  666MOL0     H91841   9.172  10.931   8.860 -0.8637  0.5998  3.4794
  666MOL0     H91842   9.211  11.104   8.821 -0.9628  1.8952 -2.2483
  666MOL0     H91843   9.160  10.995   8.614  1.3321  2.0273  1.2643
  666MOL0     H91844   9.025  10.915   8.685  2.5126 -1.6872  3.6004
  666MOL0     H91845   8.895  11.106   8.703 -2.3274  0.9341 -1.2226
  666MOL0     H91846   9.036  11.214   8.674 -1.6008 -0.5375  0.0277
  666MOL0     H91847   9.059  11.119   8.442 -0.0902  0.0382 -1.3530
  666MOL0     H91848   8.908  11.026   8.470 -0.2230  0.6505  1.3484
  666MOL0     H91849   8.937  11.326   8.461  0.5624 -0.2781  0.0444
  666MOL0     H91850   8.788  11.253   8.517 -1.2465 -0.0343 -1.2463
  666MOL0     H91851   8.919  11.224   8.262  0.8723  1.4050  2.3676
  666MOL0     H91852   8.766  11.132   8.290 -0.0497  0.0582  1.0038
  666MOL0     H91853   8.735  11.331   8.148 -2.6347  1.3784  1.1359
  666MOL0     H91854   8.845  11.424   8.248  1.5418 -1.3729 -0.2802
  666MOL0     H91855   8.565  11.327   8.334  2.6121 -1.5717 -1.4524
  666MOL0     H91856   8.663  11.445   8.422 -0.1015  0.1443  0.0615
  666MOL0     H91857   8.431  11.393   8.157  3.0030 -1.0875 -0.4947
  666MOL0     H91858   8.211  11.706   8.144 -0.7537  0.8292 -1.3401
  666MOL0     H91859   8.233  11.551   8.062  1.4775 -0.5679 -3.5451
  666MOL0     H91860   8.347  11.821   7.972  2.2980  0.3721 -0.6007
  666MOL0     H91861   8.387  11.663   7.886 -0.0797 -0.9558  0.2163
  666MOL0     H91862   8.143  11.639   7.842  0.2848  0.1131 -0.4301
  666MOL0     H91863   8.112  11.802   7.902 -2.0467 -1.0363 -1.4949
  666MOL0     H91864   8.113  11.799   7.664  1.1825 -2.8571 -0.6368
  666MOL0     H91865   8.266  11.886   7.713 -0.0395 -0.0437 -0.1772
  666MOL0     H91866   8.198  11.601   7.426 -0.6588  1.3131  2.7406
  666MOL0     H91867   8.097  11.701   7.107  0.5764  2.6509  1.9122
  666MOL0     H91868   8.130  11.564   7.218 -1.0637  1.0104  0.2447
  666MOL0     H91869   8.248  11.617   7.094 -1.2583  0.8992 -1.2191
  666MOL0     H91870   8.258  12.112   6.896  0.1295 -4.7855  1.9943
  666MOL0     H91871   8.341  12.104   6.647 -0.8869  1.5911  0.3236
  666MOL0     H91872   8.718  12.036   6.429  0.3214  2.1561  1.6104
  666MOL0     H91873   8.769  12.037   6.596 -0.3409  1.4793 -1.1682
  666MOL0     H91874   8.632  11.805   6.600  0.4194  0.8113  0.5265
  666MOL0     H91875   8.622  11.811   6.435 -0.0299 -1.1768  0.7733
  666MOL0     H91876   8.801  11.657   6.531 -1.2691  0.3457  3.5451
  666MOL0     H91877   8.865  11.803   6.609  1.7156 -3.6116  1.0741
  666MOL0     H91878   8.948  11.881   6.394 -0.9757  1.3215  1.3612
  666MOL0     H91879   8.829  11.787   6.308 -0.5792 -0.3359 -0.1109
  666MOL0     H91880   9.079  11.689   6.461  0.4121 -0.9848  0.1963
  666MOL0     H91881   8.963  11.577   6.407 -0.6464  1.0869  2.0102
  666MOL0     H91882   9.138  11.771   6.228 -1.0590  1.2946  1.6211
  666MOL0     H91883   9.023  11.662   6.158 -0.3130  3.0408  0.7355
  666MOL0     H91884   9.132  11.473   6.222  0.0623  0.8166 -2.9873
  666MOL0     H91885   9.267  11.561   6.311  2.8139  0.7471 -1.7178
  666MOL0     H91886   9.215  11.570   6.005  1.5708 -2.7109 -1.4718
  666MOL0     H91887   9.361  11.503   6.075 -1.9263 -1.3305  1.6614
  666MOL0     H91888   8.721  11.999   6.791 -0.8535  1.9110  0.3744
  666MOL0     H91889   8.644  11.983   7.017  0.7351 -0.5894 -0.3682
  666MOL0     H91890   8.449  12.006   7.324 -0.6092 -0.1533 -1.6500
  666MOL0     H91891   8.428  11.927   7.558  1.6704  0.4837 -0.9810
  666MOL0     H91892   8.963  11.317   8.984 -1.3674  0.6844  1.7147
  666MOL0     H91893   9.072  11.438   9.191  0.8615 -0.8556  0.3438
  666MOL0     H91894   9.348  11.324   9.554  0.1007 -0.4457  1.0736
  666MOL0     H91895   9.465  11.428   9.728 -0.7264 -1.2571 -3.4103
  666MOL0     H91896   9.469  11.828   9.898 -2.5593  4.0955 -0.7245
  666MOL0     H91897   9.310  11.817   9.854  0.6295  3.3187  1.3950
  666MOL0     H91898   9.411  11.697  10.127  2.8376  0.8088 -1.4861
  666MOL0     H91899   9.243  11.741  10.074 -1.8771  4.3513 -2.0795
  666MOL0     H91900   9.371  11.996  10.068 -0.2743 -1.1495 -0.6919
  666MOL0     H91901   9.263  11.941  10.189 -0.6677 -0.9356  3.5379
  666MOL0     H91902   9.576  11.892  10.199 -0.2955 -1.3094  1.4755
  666MOL0     H91903   9.470  11.807  10.310 -1.5566 -1.9348 -1.2717
  666MOL0     H91904   9.427  12.225  10.402  1.3851 -1.0852  0.0574
  666MOL0     H91905   9.126  11.684   9.817 -0.3974  0.0032 -0.1137
  666MOL0     H91906   8.976  11.637   9.527  3.8225 -1.5358 -0.5957
  666MOL0     H91907   8.896  11.527   9.657  1.0424 -2.2253 -1.4375
  666MOL0     H91908   8.943  11.684   9.704 -0.0329  2.2611 -1.1510
  667MOL0     O91909   9.013   5.824   2.068 -0.6437  0.2379 -0.8617
  667MOL0     C91910   9.059   5.759   1.971 -0.4366  0.0231 -0.0112
  667MOL0     O91911   9.021   5.776   1.847  0.1778 -0.0469 -0.3851
  667MOL0     C91912   8.924   5.864   1.813 -0.6220 -0.0466 -0.2345
  667MOL0     C91913   8.789   5.838   1.834  0.7818 -0.2385 -0.2901
  667MOL0     C91914   8.691   5.932   1.822  0.1536 -0.8662  0.6867
  667MOL0     C91915   8.732   6.064   1.791  0.6960 -0.8749  0.1536
  667MOL0     O91916   8.629   6.157   1.801  0.7219 -0.3355  0.7791
  667MOL0     C91917   8.635   6.272   1.711 -0.5504 -0.3465  0.1934
  667MOL0     C91918   8.656   6.227   1.568 -0.3164  0.7418  1.0014
  667MOL0     C91919   8.632   6.344   1.470 -0.0209  0.1858 -0.0435
  667MOL0     C91920   8.627   6.288   1.326  0.0076  0.1125  0.5262
  667MOL0     C91921   8.619   6.408   1.231 -0.3288  0.1442  0.8940
  667MOL0     C91922   8.573   6.374   1.087 -0.5304  0.0500 -0.0400
  667MOL0     C91923   8.634   6.256   1.011  0.5502  0.1950  0.7371
  667MOL0     C91924   8.522   6.153   0.980  1.2225  0.3385 -0.5180
  667MOL0     N91925   8.446   6.184   0.867  0.2934  1.3957  0.8134
  667MOL0     C91926   8.501   6.163   0.740  0.8266  0.0027 -0.6277
  667MOL0     C91927   8.415   6.247   0.663 -0.5430  0.3707  0.0995
  667MOL0     C91928   8.423   6.265   0.516 -0.9998  0.3197  0.6503
  667MOL0     C91929   8.488   6.402   0.486  1.2079 -0.3700 -0.7276
  667MOL0     C91930   8.496   6.423   0.337 -0.0041 -0.4994  0.1270
  667MOL0     C91931   8.589   6.544   0.297  0.0198 -0.0949  0.7358
  667MOL0     O91932   8.537   6.659   0.351 -0.0246 -0.2221  0.3475
  667MOL0     C91933   8.575   6.778   0.302 -0.4578 -0.5470  0.5579
  667MOL0     C91934   8.685   6.787   0.217  0.1579  0.2234 -0.3604
  667MOL0     C91935   8.732   6.911   0.163  0.4455 -0.6580 -1.5547
  667MOL0     C91936   8.836   6.912   0.059 -0.0351 -0.2631  0.7443
  667MOL0     C91937   8.667   7.033   0.214 -1.0978 -0.5198 -0.1916
  667MOL0     C91938   8.712   7.165   0.176 -0.5217  0.5340  0.2397
  667MOL0     O91939   8.621   7.251   0.120 -0.4227  0.1162  0.2241
  667MOL0     C91940   8.662   7.379   0.096 -0.3543  0.1676  0.8758
  667MOL0     C91941   8.668   7.457   0.209 -0.5795 -0.0172  0.6335
  667MOL0     C91942   8.705   7.592   0.193  0.0116  0.0338 -0.3060
  667MOL0     C91943   8.737   7.655   0.069  0.6051  0.2869  1.0194
  667MOL0     O91944   8.749   7.789   0.056  0.5858  0.0741 -0.1830
  667MOL0     C91945   8.850   7.830  -0.032 -0.5454 -0.1984 -0.3982
  667MOL0     C91946   8.869   7.982  -0.013  0.0306  0.7948  1.0065
  667MOL0     C91947   8.955   8.009   0.111  0.6301 -0.5291  0.2355
  667MOL0     C91948   9.004   8.158   0.104  0.7256  0.0114 -0.8247
  667MOL0     C91949   9.060   8.202   0.250 -0.0550  0.0328  0.1928
  667MOL0     C91950   9.102   8.343   0.246  0.2570  0.0120  1.6442
  667MOL0     C91951   9.226   8.381   0.162  0.9303  0.8932  0.5572
  667MOL0     C91952   9.267   8.521   0.189  0.9831  0.1463  0.4116
  667MOL0    Cl91953   9.136   8.644   0.187  0.2461 -0.2027  0.0175
  667MOL0     C91954   8.735   7.568  -0.042  0.2557 -0.5160 -0.4191
  667MOL0     C91955   8.691   7.426  -0.025 -0.2650 -1.0042  0.4309
  667MOL0     O91956   8.822   7.189   0.221 -0.5001 -0.0612 -0.0405
  667MOL0     C91957   8.557   7.017   0.303 -0.9794 -0.6590 -0.4379
  667MOL0     C91958   8.512   6.888   0.343  0.0870 -0.1796 -0.2742
  667MOL0     N91959   8.311   6.303   0.739  0.0227  0.7909 -0.2821
  667MOL0     N91960   8.328   6.252   0.857  0.1264  0.6577  0.4295
  667MOL0     C91961   8.867   6.096   1.782  0.1911  0.4048 -0.9448
  667MOL0     C91962   8.962   5.999   1.803 -0.5572  0.0333 -0.0692
  667MOL0     C91963   9.162   5.655   1.998 -0.1440 -0.2644  0.0841
  667MOL0     C91964   9.243   5.674   2.107  0.2209 -0.2072  0.1526
  667MOL0     C91965   9.351   5.597   2.144  0.2432  0.5280 -0.9549
  667MOL0     C91966   9.377   5.477   2.081 -0.2068  0.3781 -0.0717
  667MOL0     O91967   9.495   5.413   2.110  0.3162 -0.6176  0.5078
  667MOL0     C91968   9.521   5.276   2.090  0.2353 -0.0037 -0.0733
  667MOL0     C91969   9.468   5.202   2.210  0.2552 -0.1490  0.4134
  667MOL0     C91970   9.503   5.052   2.202  0.7130  0.0744  0.3257
  667MOL0     C91971   9.638   4.994   2.157 -0.1171 -0.4766  1.0546
  667MOL0     C91972   9.739   5.044   2.252 -0.4068 -0.8244  0.3682
  667MOL0     C91973   9.822   5.079   2.337  0.0721  0.1739 -0.6893
  667MOL0     C91974   9.289   5.439   1.977 -0.3202  0.3128  0.0309
  667MOL0     C91975   9.180   5.528   1.931  0.2825 -0.6867 -0.0362
  667MOL0     C91976   9.086   5.479   1.830 -0.0847  0.4925 -0.3972
  667MOL0     H91977   8.750   5.739   1.855 -3.1437  1.0633 -0.5054
  667MOL0     H91978   8.589   5.924   1.857 -0.8687  3.4225 -0.7481
  667MOL0     H91979   8.718   6.337   1.742 -1.3806  0.5513  0.5574
  667MOL0     H91980   8.537   6.318   1.722 -0.8145 -0.6593 -0.7598
  667MOL0     H91981   8.757   6.193   1.544 -1.2360 -1.4964  0.0000
  667MOL0     H91982   8.581   6.152   1.538  1.1381  0.0615 -1.2015
  667MOL0     H91983   8.536   6.391   1.492  1.1524  2.7488 -0.0132
  667MOL0     H91984   8.703   6.425   1.491 -0.0602 -0.3883  2.8395
  667MOL0     H91985   8.716   6.226   1.313 -0.4631 -0.7088  1.0937
  667MOL0     H91986   8.532   6.239   1.301  0.2652  0.1201 -0.5016
  667MOL0     H91987   8.717   6.458   1.225 -1.1711  1.7232 -1.3043
  667MOL0     H91988   8.547   6.477   1.276 -0.1588  0.9995 -0.1077
  667MOL0     H91989   8.465   6.364   1.095 -0.6154  2.0630  2.1302
  667MOL0     H91990   8.598   6.463   1.028  0.6758  1.6814  2.7689
  667MOL0     H91991   8.716   6.214   1.071  1.8556  2.0738  0.3664
  667MOL0     H91992   8.667   6.298   0.916 -2.4812 -2.3324 -1.6254
  667MOL0     H91993   8.574   6.057   0.964  1.6472  0.5924 -0.6923
  667MOL0     H91994   8.452   6.146   1.064 -1.1984 -0.7983 -2.4881
  667MOL0     H91995   8.593   6.114   0.709  1.1640 -0.2827  0.7469
  667MOL0     H91996   8.324   6.251   0.472 -1.7730 -1.2551  2.7411
  667MOL0     H91997   8.487   6.189   0.471 -1.8784 -0.4947  0.7614
  667MOL0     H91998   8.438   6.482   0.541  1.6373 -0.1420 -0.6683
  667MOL0     H91999   8.583   6.403   0.540 -0.6619 -0.6110  2.8536
  667MOL0     H92000   8.538   6.333   0.292 -0.7532 -1.2244  0.8301
  667MOL0     H92001   8.393   6.426   0.299 -0.0550 -1.2986  0.1702
  667MOL0     H92002   8.691   6.530   0.335  0.7933  0.6995 -0.9324
  667MOL0     H92003   8.592   6.556   0.188 -2.1745  3.2548  0.9177
  667MOL0     H92004   8.745   6.699   0.195 -2.2605 -0.8226 -3.4453
  667MOL0     H92005   8.806   6.955  -0.037  3.3005 -0.3983 -0.5112
  667MOL0     H92006   8.871   6.811   0.036  2.0438  0.4952  0.3912
  667MOL0     H92007   8.921   6.971   0.095  0.3073  0.1583 -0.6834
  667MOL0     H92008   8.664   7.417   0.309 -0.2922 -0.5101  0.4493
  667MOL0     H92009   8.706   7.652   0.284 -2.2579 -1.3706  0.7296
  667MOL0     H92010   8.946   7.780  -0.019  0.1396  1.1847  0.1127
  667MOL0     H92011   8.809   7.806  -0.131  2.4581 -0.8175 -1.5945
  667MOL0     H92012   8.901   8.036  -0.103 -2.6392 -2.1513 -1.9953
  667MOL0     H92013   8.770   8.025   0.005  1.1374  3.4048  1.2987
  667MOL0     H92014   9.045   7.946   0.118 -0.9879 -2.8688  5.1878
  667MOL0     H92015   8.900   7.975   0.199 -0.8479  0.2600 -0.3541
  667MOL0     H92016   8.919   8.225   0.091  2.5404  2.5203 -0.6447
  667MOL0     H92017   9.076   8.169   0.022 -0.2510  0.9551 -1.5804
  667MOL0     H92018   8.971   8.189   0.312 -1.5179  0.2469 -1.7563
  667MOL0     H92019   9.145   8.137   0.273 -1.1729 -1.6907 -0.4254
  667MOL0     H92020   9.112   8.385   0.347  1.3150 -1.6509  2.2684
  667MOL0     H92021   9.011   8.392   0.210  0.7081 -0.5564 -0.4053
  667MOL0     H92022   9.214   8.348   0.058  0.8964 -1.9626  1.3709
  667MOL0     H92023   9.316   8.334   0.203 -0.8247 -2.2399  1.1158
  667MOL0     H92024   9.349   8.548   0.121 -1.6782  0.1871 -3.0700
  667MOL0     H92025   9.309   8.507   0.289  1.5366 -1.9158 -0.0517
  667MOL0     H92026   8.754   7.611  -0.140 -2.1101  0.2245 -0.6216
  667MOL0     H92027   8.693   7.356  -0.108  1.1034  1.6876 -1.9972
  667MOL0     H92028   8.491   7.101   0.321  0.1536  1.3416 -4.4599
  667MOL0     H92029   8.424   6.879   0.405  0.7495  0.5922  0.7969
  667MOL0     H92030   8.901   6.199   1.769 -0.4690  1.1279  2.1757
  667MOL0     H92031   9.068   6.015   1.791 -0.5291  0.2157  0.3986
  667MOL0     H92032   9.237   5.773   2.151  2.3637  1.0512 -2.1208
  667MOL0     H92033   9.416   5.610   2.231  1.3788 -1.7958 -1.3719
  667MOL0     H92034   9.466   5.228   2.008 -0.1899 -0.6714  0.5865
  667MOL0     H92035   9.627   5.254   2.079  0.3259 -0.0954  0.8516
  667MOL0     H92036   9.359   5.211   2.216  0.2052  0.2931 -0.8028
  667MOL0     H92037   9.511   5.240   2.303  0.7979 -0.5853  0.3486
  667MOL0     H92038   9.508   5.024   2.307  2.4033 -1.7569 -0.1941
  667MOL0     H92039   9.440   4.991   2.138 -0.9492  1.8760  0.1623
  667MOL0     H92040   9.656   5.034   2.057 -3.6926 -0.4098  0.3125
  667MOL0     H92041   9.644   4.885   2.150  0.7697 -0.4215  0.8639
  667MOL0     H92042   9.896   5.102   2.410  0.6359 -1.3741 -0.7357
  667MOL0     H92043   9.310   5.345   1.927  1.7835 -0.2409  1.7686
  667MOL0     H92044   9.079   5.540   1.739 -0.2716 -0.3181 -0.9334
  667MOL0     H92045   9.104   5.375   1.803 -1.0789  0.2503 -0.1673
  667MOL0     H92046   8.985   5.482   1.872  0.5642  0.7173  1.2096
  668MOL0     O92047   7.500   4.214   8.624  0.7326  0.0392  0.0832
  668MOL0     C92048   7.535   4.274   8.532 -0.2752 -0.9574  0.2372
  668MOL0     O92049   7.575   4.407   8.546 -0.5128  0.1917  0.0976
  668MOL0     C92050   7.585   4.485   8.655 -0.1005 -0.2126  0.2037
  668MOL0     C92051   7.704   4.547   8.688  0.0868 -0.1475  0.7743
  668MOL0     C92052   7.716   4.624   8.796  0.1846 -1.2840 -0.3025
  668MOL0     C92053   7.609   4.653   8.873 -0.1116  0.3534 -1.2202
  668MOL0     O92054   7.624   4.734   8.983 -0.0614  0.1814 -0.1233
  668MOL0     C92055   7.619   4.665   9.110  0.4053 -0.0322 -0.2375
  668MOL0     C92056   7.592   4.756   9.228  0.2989  0.4710 -0.2142
  668MOL0     C92057   7.524   4.683   9.345 -0.3327 -0.0565  0.0351
  668MOL0     C92058   7.536   4.762   9.469  0.5382 -0.3157  0.4625
  668MOL0     C92059   7.467   4.676   9.579 -0.4388 -0.4779  0.4504
  668MOL0     C92060   7.498   4.760   9.704 -0.2423  0.2203  0.2325
  668MOL0     C92061   7.462   4.713   9.842  1.4560 -0.5155 -0.3092
  668MOL0     C92062   7.375   4.580   9.855 -0.9213 -0.3337 -1.0479
  668MOL0     N92063   7.227   4.598   9.848 -0.8635  0.3213 -0.0601
  668MOL0     C92064   7.151   4.625   9.951 -0.6514 -0.1319  0.4475
  668MOL0     C92065   7.028   4.640   9.911 -0.5155  0.2621 -0.0177
  668MOL0     C92066   6.908   4.655   9.999  0.6781 -0.3632  0.7008
  668MOL0     C92067   6.883   4.804  10.037 -0.5222  0.1111 -0.1970
  668MOL0     C92068   6.750   4.819  10.111  0.7227  0.8860  0.1333
  668MOL0     C92069   6.646   4.923  10.060 -0.0792 -0.2498  0.2535
  668MOL0     O92070   6.702   5.049  10.039 -0.1265  0.4408 -0.0975
  668MOL0     C92071   6.727   5.132  10.146  0.2562 -0.4312 -0.7185
  668MOL0     C92072   6.641   5.155  10.253  0.9044 -0.1060 -0.3005
  668MOL0     C92073   6.664   5.242  10.358 -0.0281 -0.1639  0.9816
  668MOL0     C92074   6.556   5.249  10.462  0.0723 -0.4216 -0.1303
  668MOL0     C92075   6.785   5.326  10.356 -0.3299  0.5148 -0.4573
  668MOL0     C92076   6.828   5.423  10.455 -0.4984  0.0318  0.0816
  668MOL0     O92077   6.963   5.455  10.449 -0.1223  0.2068 -0.0283
  668MOL0     C92078   7.015   5.542  10.537  0.9833  0.7695  0.5181
  668MOL0     C92079   7.074   5.649  10.478 -0.0466  0.8144  0.1837
  668MOL0     C92080   7.127   5.758  10.557  0.0926  0.6871  0.4130
  668MOL0     C92081   7.125   5.759  10.693 -0.1389  0.2120 -0.4006
  668MOL0     O92082   7.167   5.863  10.782  0.7512  0.6213  0.2372
  668MOL0     C92083   7.235   5.971  10.721 -0.7507  0.1342  0.2629
  668MOL0     C92084   7.282   6.068  10.831  1.6508  1.1256 -0.8536
  668MOL0     C92085   7.305   6.207  10.757  0.5628 -0.2363 -0.1231
  668MOL0     C92086   7.171   6.287  10.731  0.6391 -0.3632  0.3732
  668MOL0     C92087   7.208   6.426  10.674 -0.3732  0.7058 -0.1680
  668MOL0     C92088   7.190   6.447  10.518  0.0678  0.0825 -0.2660
  668MOL0     C92089   7.035   6.466  10.483  0.1595 -0.2973  0.3482
  668MOL0     C92090   7.002   6.523  10.342 -0.2733  0.5454 -0.2659
  668MOL0    Cl92091   7.113   6.441  10.229 -0.4993 -0.0505  0.0019
  668MOL0     C92092   7.067   5.643  10.748  0.4803 -0.1799 -1.0604
  668MOL0     C92093   7.011   5.539  10.673  0.4731 -0.5016 -0.4132
  668MOL0     O92094   6.750   5.476  10.529 -0.1501  0.4331 -0.8053
  668MOL0     C92095   6.875   5.298  10.247 -0.7474  0.0042  0.2230
  668MOL0     C92096   6.849   5.205  10.153  0.2387  0.8027  1.3886
  668MOL0     N92097   7.029   4.611   9.778 -0.2685 -0.0105 -0.0324
  668MOL0     N92098   7.149   4.589   9.743  0.6149  0.2187  0.3382
  668MOL0     C92099   7.482   4.604   8.839  0.6142  0.1695 -0.5434
  668MOL0     C92100   7.471   4.519   8.727  1.2493  0.1354  0.3039
  668MOL0     C92101   7.550   4.216   8.406 -0.2538 -0.2729  0.2115
  668MOL0     C92102   7.569   4.310   8.296 -0.2456  0.1151  0.6962
  668MOL0     C92103   7.556   4.272   8.160 -0.1167 -0.7029 -0.2367
  668MOL0     C92104   7.537   4.136   8.126 -0.2533 -0.8960  0.5139
  668MOL0     O92105   7.512   4.093   8.004 -0.0243 -0.5321 -0.2778
  668MOL0     C92106   7.377   4.124   7.972 -0.1879 -0.5075  0.4992
  668MOL0     C92107   7.360   4.045   7.843  0.9956 -0.1083  0.1013
  668MOL0     C92108   7.441   4.112   7.727 -0.3055  0.4142 -0.1901
  668MOL0     C92109   7.431   4.026   7.603 -0.1391 -0.7122 -0.8213
  668MOL0     C92110   7.446   4.114   7.488  0.1717 -0.2540  0.0596
  668MOL0     C92111   7.477   4.193   7.405 -0.4620 -0.5688  0.0286
  668MOL0     C92112   7.523   4.043   8.227 -0.0999  0.0856 -0.5409
  668MOL0     C92113   7.525   4.082   8.367 -0.0530  0.6605  1.3224
  668MOL0     C92114   7.487   3.968   8.459 -0.1462  0.2925 -0.6445
  668MOL0     H92115   7.788   4.521   8.624 -0.7199  1.5330 -1.0598
  668MOL0     H92116   7.811   4.662   8.830 -0.9868  0.4941  1.1953
  668MOL0     H92117   7.711   4.613   9.137  0.6438  0.0395 -0.8966
  668MOL0     H92118   7.538   4.591   9.102  1.2220 -0.7969 -2.0521
  668MOL0     H92119   7.687   4.799   9.260  2.3273 -3.5362 -0.2280
  668MOL0     H92120   7.523   4.838   9.202 -1.1036 -0.6873 -0.3046
  668MOL0     H92121   7.416   4.692   9.326 -0.6925  3.5177  2.8015
  668MOL0     H92122   7.557   4.580   9.358 -1.3160 -0.7445 -2.2565
  668MOL0     H92123   7.642   4.776   9.492  0.1222  3.7664  0.6123
  668MOL0     H92124   7.494   4.861   9.449  2.2273 -0.1720 -3.2028
  668MOL0     H92125   7.511   4.576   9.576 -1.5321 -0.9951  1.0645
  668MOL0     H92126   7.363   4.683   9.543  0.1514  3.0438 -1.0764
  668MOL0     H92127   7.607   4.766   9.701  0.0737 -3.0799  1.2087
  668MOL0     H92128   7.452   4.857   9.681 -0.0850  0.6776  1.7052
  668MOL0     H92129   7.407   4.789   9.899 -0.6785 -2.4636  0.3786
  668MOL0     H92130   7.554   4.689   9.895  0.9195  0.3294  1.0599
  668MOL0     H92131   7.397   4.502   9.782 -4.1850 -2.7671  0.3394
  668MOL0     H92132   7.392   4.523   9.946  0.1660 -0.7757 -1.5102
  668MOL0     H92133   7.185   4.639  10.053 -1.1220 -0.5483  0.6663
  668MOL0     H92134   6.940   4.598  10.087  5.4697  0.7023 -0.0917
  668MOL0     H92135   6.812   4.613   9.966 -1.0111  2.8396  1.2075
  668MOL0     H92136   6.968   4.832  10.099 -2.1884 -0.1870  2.3668
  668MOL0     H92137   6.886   4.870   9.950  4.1512 -1.8295 -1.8388
  668MOL0     H92138   6.692   4.726  10.115 -0.4008  1.6160  1.6601
  668MOL0     H92139   6.772   4.842  10.215 -2.9779  1.1851  0.9845
  668MOL0     H92140   6.610   4.880   9.966 -0.3570  0.0388  0.2246
  668MOL0     H92141   6.554   4.926  10.120  0.0178 -0.1945  0.4008
  668MOL0     H92142   6.552   5.093  10.256  1.5017 -0.9202  1.5934
  668MOL0     H92143   6.489   5.162  10.459 -0.0110 -0.4103  0.8402
  668MOL0     H92144   6.505   5.345  10.451  1.6037  0.5462  0.8656
  668MOL0     H92145   6.606   5.248  10.559  0.0949 -0.5952 -0.1435
  668MOL0     H92146   7.092   5.651  10.371  1.1189  0.1056  0.3528
  668MOL0     H92147   7.174   5.838  10.501  3.0406 -1.0227  0.2322
  668MOL0     H92148   7.326   5.938  10.671  0.1817  2.5277  0.2796
  668MOL0     H92149   7.173   6.027  10.651  1.7203  1.5093 -0.9573
  668MOL0     H92150   7.192   6.081  10.892 -0.8762 -1.1279 -3.7791
  668MOL0     H92151   7.356   6.019  10.894  0.4281 -1.6943 -1.4282
  668MOL0     H92152   7.357   6.183  10.664  0.1934  0.3586 -0.4969
  668MOL0     H92153   7.368   6.272  10.818  0.2144  0.1756 -0.1938
  668MOL0     H92154   7.108   6.305  10.818 -1.7640  1.6947 -1.5950
  668MOL0     H92155   7.110   6.225  10.664 -1.0792  0.0447  1.4867
  668MOL0     H92156   7.158   6.507  10.727 -3.8805 -1.6905  0.4757
  668MOL0     H92157   7.314   6.446  10.695 -1.2565  3.3742  2.4484
  668MOL0     H92158   7.235   6.367  10.458 -0.9592  0.4088 -1.5137
  668MOL0     H92159   7.235   6.535  10.472 -1.2320  0.6755 -0.4328
  668MOL0     H92160   7.004   6.542  10.555  0.4217 -1.1493  1.3893
  668MOL0     H92161   6.983   6.371  10.496 -1.8244  0.6535 -0.2408
  668MOL0     H92162   7.030   6.629  10.332  0.0837  1.2718  5.1505
  668MOL0     H92163   6.896   6.511  10.316 -0.4183  3.8349 -1.6516
  668MOL0     H92164   7.047   5.648  10.855  0.2450  1.2844 -1.1558
  668MOL0     H92165   6.954   5.469  10.733  0.0966  1.3408  1.5206
  668MOL0     H92166   6.974   5.342  10.240  1.4594 -4.3730  0.3121
  668MOL0     H92167   6.926   5.176  10.082 -1.3150 -0.0425 -0.0207
  668MOL0     H92168   7.390   4.630   8.890  1.4570 -0.0757  1.1421
  668MOL0     H92169   7.373   4.486   8.695  0.8532  0.0538  1.5437
  668MOL0     H92170   7.577   4.417   8.312 -0.9205  0.8158 -2.7895
  668MOL0     H92171   7.557   4.356   8.092 -1.1160 -1.4237 -1.1820
  668MOL0     H92172   7.301   4.097   8.045  1.5006 -0.7749  2.2180
  668MOL0     H92173   7.372   4.232   7.951  2.1540 -0.1317  1.5319
  668MOL0     H92174   7.252   4.050   7.824  0.7809  0.3135  1.3357
  668MOL0     H92175   7.391   3.943   7.865  2.7932  1.0330  3.5305
  668MOL0     H92176   7.410   4.215   7.706 -1.1360  0.3491  0.6494
  668MOL0     H92177   7.546   4.119   7.754  0.2580 -1.6720 -1.6148
  668MOL0     H92178   7.336   3.972   7.602 -0.0245 -0.9737  0.7715
  668MOL0     H92179   7.509   3.949   7.607 -1.5541 -2.1768 -0.7588
  668MOL0     H92180   7.521   4.254   7.329  1.8827 -1.5909  0.4776
  668MOL0     H92181   7.503   3.939   8.204 -0.1594  0.0558 -0.3628
  668MOL0     H92182   7.378   3.957   8.458 -0.4476  1.4832  3.3139
  668MOL0     H92183   7.537   3.877   8.424  0.9557  0.3775  0.6348
  668MOL0     H92184   7.525   3.978   8.561 -0.3532 -1.5534 -0.3646
  669MOL0     O92185   8.654   4.262   5.615 -0.0585 -0.7650 -0.2208
  669MOL0     C92186   8.718   4.166   5.587 -0.2871  0.0827  0.0793
  669MOL0     O92187   8.674   4.051   5.525  0.4258 -0.7697  0.0435
  669MOL0     C92188   8.532   4.037   5.540 -1.0018 -0.5242  0.2675
  669MOL0     C92189   8.469   3.978   5.650 -0.6885 -0.3723 -0.3350
  669MOL0     C92190   8.328   3.975   5.654  0.0557 -0.4215  0.3027
  669MOL0     C92191   8.253   4.040   5.551  0.6134 -0.8823  0.1219
  669MOL0     O92192   8.112   4.048   5.546 -0.4508  0.7344 -0.5473
  669MOL0     C92193   8.036   3.966   5.638  0.6744 -0.6766 -0.1205
  669MOL0     C92194   7.999   4.051   5.766 -0.0316 -0.5933  0.1323
  669MOL0     C92195   7.903   3.986   5.856 -0.0091  0.4239  0.6069
  669MOL0     C92196   7.958   3.877   5.935 -0.2801  0.1657 -0.9460
  669MOL0     C92197   7.885   3.741   5.931 -0.6204 -0.0972 -0.0175
  669MOL0     C92198   7.928   3.674   5.809  0.2250  0.4906  0.7693
  669MOL0     C92199   7.874   3.525   5.793 -0.2474 -0.8695 -0.0781
  669MOL0     C92200   7.721   3.538   5.776  0.1347  0.0342  0.0467
  669MOL0     N92201   7.658   3.413   5.750 -0.1260 -0.2557 -0.2658
  669MOL0     C92202   7.587   3.373   5.640 -0.9545 -0.6299  1.2179
  669MOL0     C92203   7.544   3.249   5.671 -1.0774 -1.0300 -0.1541
  669MOL0     C92204   7.475   3.166   5.576  0.3731  0.3140  0.5351
  669MOL0     C92205   7.322   3.154   5.597 -0.6913  0.2743 -0.5128
  669MOL0     C92206   7.248   3.266   5.513  0.0200 -0.5987  0.2685
  669MOL0     C92207   7.246   3.241   5.359 -0.0002  0.0951  0.4637
  669MOL0     O92208   7.206   3.104   5.333  0.3321 -0.6423  0.0729
  669MOL0     C92209   7.214   3.056   5.203  1.2660  0.0713 -0.2289
  669MOL0     C92210   7.166   3.127   5.094  0.6865 -0.8584 -0.5072
  669MOL0     C92211   7.159   3.067   4.963 -0.1391  0.6949 -1.3236
  669MOL0     C92212   7.113   3.160   4.861  0.2164 -0.6010  0.4755
  669MOL0     C92213   7.180   2.935   4.952 -0.4290 -0.9250  0.0751
  669MOL0     C92214   7.166   2.869   4.822 -0.8672  0.7886  1.1222
  669MOL0     O92215   7.170   2.940   4.702  0.4719  1.0893 -0.4919
  669MOL0     C92216   7.143   2.863   4.585  1.2332 -0.6455  0.2619
  669MOL0     C92217   7.262   2.813   4.509  0.3631  0.1558 -0.3719
  669MOL0     C92218   7.232   2.739   4.392  0.0826  0.3499 -0.4231
  669MOL0     C92219   7.095   2.706   4.359 -0.4794  0.5668  1.3949
  669MOL0     O92220   7.082   2.617   4.247 -0.2755  0.2016  0.0199
  669MOL0     C92221   6.968   2.523   4.240  0.3691 -0.4343 -0.1130
  669MOL0     C92222   6.873   2.575   4.144  0.2068  0.9734  0.2596
  669MOL0     C92223   6.883   2.507   4.005  0.1057 -0.8723 -0.4742
  669MOL0     C92224   6.801   2.587   3.910  0.3534  0.0112 -0.5499
  669MOL0     C92225   6.806   2.545   3.762  0.4707 -0.0699 -0.8895
  669MOL0     C92226   6.922   2.614   3.698  0.7955  0.2302 -1.0444
  669MOL0     C92227   6.966   2.542   3.579 -0.8834  0.0007  1.8323
  669MOL0     C92228   7.088   2.607   3.505 -0.6472 -0.0579  0.3380
  669MOL0    Cl92229   7.063   2.753   3.398  0.1629 -0.0756 -0.3689
  669MOL0     C92230   6.986   2.761   4.428 -0.2193 -0.0127 -0.1998
  669MOL0     C92231   7.008   2.839   4.541  0.0584  0.3676  0.7738
  669MOL0     O92232   7.133   2.746   4.834 -0.6794  0.7793  0.4758
  669MOL0     C92233   7.217   2.861   5.062 -0.9434  0.9123 -0.0765
  669MOL0     C92234   7.228   2.914   5.196 -0.6826 -0.0901  0.7490
  669MOL0     N92235   7.568   3.223   5.805 -0.8333 -0.3417  0.0447
  669MOL0     N92236   7.645   3.322   5.845 -0.5197 -0.8866 -0.3717
  669MOL0     C92237   8.323   4.119   5.450  0.4553 -0.8545 -0.7547
  669MOL0     C92238   8.458   4.106   5.443  0.4910 -0.2205 -0.9467
  669MOL0     C92239   8.862   4.187   5.612  0.0219 -0.1587  0.6838
  669MOL0     C92240   8.951   4.130   5.520 -0.5425  0.2309 -0.3509
  669MOL0     C92241   9.090   4.150   5.534  1.0617 -0.1646 -0.5984
  669MOL0     C92242   9.148   4.253   5.623  0.4352 -0.5146 -0.2277
  669MOL0     O92243   9.279   4.296   5.623 -0.0597 -0.3038 -0.8274
  669MOL0     C92244   9.359   4.254   5.519  0.0633  0.4865  0.3933
  669MOL0     C92245   9.325   4.322   5.384 -0.1353 -0.3530 -0.0350
  669MOL0     C92246   9.424   4.288   5.275  1.1092  0.4980 -0.1214
  669MOL0     C92247   9.427   4.139   5.235 -0.0529  0.0922 -0.5043
  669MOL0     C92248   9.313   4.107   5.143 -0.3431  0.6995 -0.3299
  669MOL0     C92249   9.223   4.108   5.056 -0.3680  0.7885  0.0913
  669MOL0     C92250   9.057   4.295   5.722  0.3032 -0.1536 -0.4938
  669MOL0     C92251   8.918   4.267   5.719  0.1345  0.9277 -0.3401
  669MOL0     C92252   8.837   4.318   5.834  0.3222  1.4410  0.8020
  669MOL0     H92253   8.524   3.918   5.722 -1.6098 -1.3347 -0.4199
  669MOL0     H92254   8.275   3.927   5.735 -0.4264  1.8275  1.3975
  669MOL0     H92255   8.088   3.873   5.663 -0.6055 -0.9984  1.5269
  669MOL0     H92256   7.935   3.944   5.602  0.2852  0.7454  0.0581
  669MOL0     H92257   8.088   4.098   5.808 -2.3788  5.2550 -0.5328
  669MOL0     H92258   7.944   4.140   5.734 -4.1803 -1.2214  4.3714
  669MOL0     H92259   7.858   4.052   5.930 -0.5520  1.6687 -0.7936
  669MOL0     H92260   7.814   3.957   5.801  0.3444  0.6647 -0.1005
  669MOL0     H92261   8.065   3.860   5.916  0.5939 -0.5928  3.6281
  669MOL0     H92262   7.953   3.908   6.039 -0.4360 -1.4221 -0.4540
  669MOL0     H92263   7.776   3.749   5.938 -0.4688  2.8346  0.5151
  669MOL0     H92264   7.926   3.675   6.008  2.1939  0.0512 -1.2450
  669MOL0     H92265   7.894   3.730   5.722  1.5944 -0.5515 -0.4924
  669MOL0     H92266   8.036   3.662   5.800 -0.0126 -0.2984 -2.2561
  669MOL0     H92267   7.902   3.472   5.884 -0.8752  0.9467  1.2276
  669MOL0     H92268   7.916   3.480   5.703 -0.5727 -0.4736 -0.4303
  669MOL0     H92269   7.667   3.591   5.855 -2.2510 -0.4889 -1.1153
  669MOL0     H92270   7.707   3.595   5.683  0.7781  0.6323  0.3075
  669MOL0     H92271   7.573   3.431   5.549  0.7048 -1.0528  0.6598
  669MOL0     H92272   7.506   3.062   5.589  1.6476  0.6574  0.3793
  669MOL0     H92273   7.494   3.196   5.472  0.0883 -2.0334 -0.2350
  669MOL0     H92274   7.270   3.061   5.569 -1.5019 -0.0773  1.8975
  669MOL0     H92275   7.302   3.168   5.703  0.7774 -1.3607  0.0320
  669MOL0     H92276   7.143   3.278   5.543 -0.0181  1.5170 -0.5298
  669MOL0     H92277   7.291   3.364   5.535  1.5083 -1.1846  0.0529
  669MOL0     H92278   7.181   3.312   5.306 -2.5321 -1.5645  1.1944
  669MOL0     H92279   7.347   3.257   5.319 -0.4146 -1.2590 -1.2275
  669MOL0     H92280   7.127   3.226   5.115 -1.1736 -1.6227 -0.1495
  669MOL0     H92281   7.079   3.255   4.903  1.0619 -0.4659  0.8794
  669MOL0     H92282   7.029   3.113   4.810  1.6529 -4.0430  1.0141
  669MOL0     H92283   7.197   3.172   4.792 -2.3139  1.1662 -2.5561
  669MOL0     H92284   7.365   2.824   4.541 -0.1457  0.9638  1.0815
  669MOL0     H92285   7.318   2.702   4.337  0.8544 -1.5731  1.9203
  669MOL0     H92286   7.011   2.430   4.204 -0.5741 -0.3792 -1.4283
  669MOL0     H92287   6.905   2.511   4.329 -1.2742  0.4946 -1.1018
  669MOL0     H92288   6.773   2.537   4.170 -0.2229 -0.2540 -2.8069
  669MOL0     H92289   6.877   2.684   4.144 -0.1979  0.9937 -0.4291
  669MOL0     H92290   6.845   2.405   4.019 -0.1003 -0.7664 -0.2622
  669MOL0     H92291   6.984   2.521   3.965 -0.4025  0.9886 -1.2025
  669MOL0     H92292   6.811   2.695   3.921  3.0026 -0.0530 -1.4983
  669MOL0     H92293   6.696   2.570   3.933 -0.0875  0.2831 -2.1921
  669MOL0     H92294   6.807   2.436   3.757 -0.5664 -0.0576 -1.7196
  669MOL0     H92295   6.716   2.580   3.710 -0.3832  3.0603  2.2253
  669MOL0     H92296   7.013   2.605   3.758  0.6052 -2.3456 -1.0248
  669MOL0     H92297   6.893   2.717   3.674  1.6231  1.6797  3.3057
  669MOL0     H92298   6.892   2.529   3.500  0.3484  1.6950  0.3376
  669MOL0     H92299   7.001   2.442   3.609 -2.2423 -1.6911 -1.6417
  669MOL0     H92300   7.137   2.527   3.448  0.5504  1.0812 -0.3014
  669MOL0     H92301   7.167   2.627   3.578 -0.2578  0.4173 -0.2036
  669MOL0     H92302   6.879   2.752   4.412 -0.0799 -1.3354 -0.5347
  669MOL0     H92303   6.926   2.874   4.604 -0.4559 -1.0021  0.8975
  669MOL0     H92304   7.222   2.755   5.042 -0.8288  1.0949 -1.1155
  669MOL0     H92305   7.234   2.851   5.284 -2.1979 -0.6877  0.4572
  669MOL0     H92306   8.266   4.190   5.390  1.2133  0.4713  0.0377
  669MOL0     H92307   8.521   4.153   5.368 -0.6962 -1.4299 -2.7920
  669MOL0     H92308   8.909   4.055   5.453 -0.2882 -1.4693  1.2983
  669MOL0     H92309   9.153   4.111   5.454  1.7307  2.8516 -1.6913
  669MOL0     H92310   9.462   4.282   5.546  0.5561  1.2907 -2.0555
  669MOL0     H92311   9.355   4.145   5.507 -0.2321  0.1537  2.9809
  669MOL0     H92312   9.319   4.430   5.398 -2.9358 -0.6415  1.8099
  669MOL0     H92313   9.222   4.295   5.357  0.2862 -1.1543 -0.8769
  669MOL0     H92314   9.396   4.360   5.197 -0.9461  2.2095  2.0262
  669MOL0     H92315   9.521   4.322   5.313  0.2755  0.8550  1.7495
  669MOL0     H92316   9.419   4.083   5.328 -0.1533  2.0256  0.7109
  669MOL0     H92317   9.521   4.105   5.191  0.3832  0.2632  0.2861
  669MOL0     H92318   9.138   4.122   4.992 -0.9955 -1.4133  0.3538
  669MOL0     H92319   9.110   4.347   5.802  2.9985  0.1932 -2.3662
  669MOL0     H92320   8.781   4.406   5.800 -2.1947 -0.1940  0.3787
  669MOL0     H92321   8.767   4.245   5.875 -0.0957  1.2446 -0.2168
  669MOL0     H92322   8.894   4.374   5.908  3.1199  1.4638 -1.1979
  670MOL0     O92323   9.566   4.065   0.988 -0.5682  0.4136 -0.9530
  670MOL0     C92324   9.608   3.979   0.915  1.2096  0.2194  0.4255
  670MOL0     O92325   9.640   4.008   0.783 -0.0630  0.3941  0.4576
  670MOL0     C92326   9.602   4.125   0.722  0.1230 -0.7118 -0.0003
  670MOL0     C92327   9.473   4.118   0.659 -0.8608 -0.3861 -0.6338
  670MOL0     C92328   9.420   4.232   0.589  0.1623 -0.2347 -0.3306
  670MOL0     C92329   9.511   4.340   0.570  0.1405  0.3320  0.3191
  670MOL0     O92330   9.465   4.442   0.492 -0.2120  0.5719 -0.2100
  670MOL0     C92331   9.545   4.560   0.476 -0.0254  0.1086 -0.2951
  670MOL0     C92332   9.454   4.670   0.415  0.6229  0.6871 -0.7928
  670MOL0     C92333   9.426   4.640   0.271  0.0357  0.2144 -0.1810
  670MOL0     C92334   9.316   4.724   0.198  0.1248  0.0375 -0.4335
  670MOL0     C92335   9.263   4.648   0.078 -0.0605 -0.4163 -0.0168
  670MOL0     C92336   9.140   4.714   0.022  0.7192  0.2893  0.3076
  670MOL0     C92337   9.080   4.629  -0.096 -0.2259  0.7180 -0.2080
  670MOL0     C92338   8.982   4.518  -0.047 -1.3089 -0.7720  0.3173
  670MOL0     N92339   8.855   4.551   0.027  0.1110  0.4754  0.2641
  670MOL0     C92340   8.733   4.532  -0.028  0.1115  0.4133  0.4834
  670MOL0     C92341   8.649   4.597   0.055 -0.4939  0.3240 -0.7408
  670MOL0     C92342   8.507   4.619   0.034  1.1696 -1.1219  0.0734
  670MOL0     C92343   8.412   4.505   0.069  0.2006 -0.4782  0.5885
  670MOL0     C92344   8.380   4.485   0.216 -0.5746  0.0672  0.5108
  670MOL0     C92345   8.271   4.372   0.241  0.2818 -0.8622 -0.2267
  670MOL0     O92346   8.326   4.245   0.220 -0.1644  0.3696 -0.1794
  670MOL0     C92347   8.316   4.155   0.326  0.0438  0.0084 -0.0358
  670MOL0     C92348   8.425   4.073   0.348 -0.6552 -0.6378  0.1089
  670MOL0     C92349   8.430   3.971   0.447  0.0239 -0.9757  0.5457
  670MOL0     C92350   8.548   3.873   0.449  0.3198  0.3382  0.2425
  670MOL0     C92351   8.321   3.963   0.537  0.2259 -0.2531  0.3430
  670MOL0     C92352   8.305   3.860   0.651 -0.4804  0.8548 -0.4771
  670MOL0     O92353   8.177   3.848   0.711  0.2522  0.0303 -0.6733
  670MOL0     C92354   8.153   3.754   0.803 -0.5295 -0.2023 -0.8796
  670MOL0     C92355   8.237   3.721   0.913 -0.4567 -0.3983  0.1329
  670MOL0     C92356   8.197   3.636   1.015  0.1317  0.0749 -0.3167
  670MOL0     C92357   8.065   3.575   1.014 -0.5269  0.4234  1.1239
  670MOL0     O92358   8.021   3.486   1.107  0.2400 -0.2101 -0.6055
  670MOL0     C92359   8.096   3.457   1.228  0.7355  0.2842  0.2902
  670MOL0     C92360   8.008   3.482   1.354  0.0947  0.7930 -0.5200
  670MOL0     C92361   7.994   3.632   1.363 -0.3816 -0.7938 -0.9304
  670MOL0     C92362   7.927   3.687   1.489 -0.1462 -0.2035 -0.6437
  670MOL0     C92363   7.789   3.631   1.508 -0.6593  0.0524  0.0892
  670MOL0     C92364   7.703   3.702   1.621 -0.3493 -0.2726 -0.5181
  670MOL0     C92365   7.727   3.646   1.764  0.5972  0.2446 -0.1489
  670MOL0     C92366   7.627   3.706   1.870 -0.3034  0.0667  0.3042
  670MOL0    Cl92367   7.656   3.617   2.024  0.1700 -0.2972 -0.6571
  670MOL0     C92368   7.990   3.605   0.898  0.5691 -0.2577 -0.5579
  670MOL0     C92369   8.033   3.690   0.802  0.5890 -0.4123  0.2364
  670MOL0     O92370   8.412   3.805   0.688  0.1638  0.8975  0.1480
  670MOL0     C92371   8.212   4.050   0.519  0.8525 -0.1867 -0.2950
  670MOL0     C92372   8.202   4.139   0.406  0.0186  0.6858 -0.1294
  670MOL0     N92373   8.726   4.647   0.162  0.0910 -0.4349 -0.2491
  670MOL0     N92374   8.850   4.617   0.150  0.3755  0.6077  1.3032
  670MOL0     C92375   9.643   4.333   0.604 -0.2870  0.4645 -0.1382
  670MOL0     C92376   9.691   4.228   0.689  1.4242  0.0312 -0.9601
  670MOL0     C92377   9.630   3.843   0.943 -0.2928 -0.2566 -0.6735
  670MOL0     C92378   9.667   3.744   0.848 -0.2485  0.1177  0.3656
  670MOL0     C92379   9.721   3.623   0.880  0.8455 -0.0658  0.2139
  670MOL0     C92380   9.730   3.579   1.008 -0.9431 -0.8003 -0.1472
  670MOL0     O92381   9.794   3.465   1.029  0.7905  0.6028 -0.6777
  670MOL0     C92382   9.819   3.406   1.159  0.4909 -0.1091  0.5407
  670MOL0     C92383   9.947   3.465   1.214  0.4884 -1.0989  0.2144
  670MOL0     C92384  10.079   3.431   1.156  0.8817  0.2971  0.1323
  670MOL0     C92385  10.189   3.525   1.191  0.3466  0.2873 -0.1993
  670MOL0     C92386  10.314   3.466   1.151 -0.5549  1.0236 -0.5035
  670MOL0     C92387  10.417   3.400   1.130  0.3373 -0.7493  0.3530
  670MOL0     C92388   9.682   3.668   1.104  0.2096  0.8710 -0.2959
  670MOL0     C92389   9.631   3.790   1.073  1.0286 -0.3596 -0.1791
  670MOL0     C92390   9.578   3.862   1.194 -0.5129 -0.5931 -0.2081
  670MOL0     H92391   9.413   4.027   0.666 -0.9972 -0.2312  0.3896
  670MOL0     H92392   9.315   4.239   0.562 -0.1416  0.2336  0.9209
  670MOL0     H92393   9.634   4.547   0.414  2.4165  1.1218  2.7850
  670MOL0     H92394   9.593   4.588   0.570  2.6005  0.4224 -1.6379
  670MOL0     H92395   9.367   4.683   0.481 -0.0088 -1.5874 -1.0831
  670MOL0     H92396   9.502   4.766   0.393  2.9434 -0.6790 -2.0826
  670MOL0     H92397   9.518   4.657   0.214 -1.4904  2.6363 -2.1651
  670MOL0     H92398   9.399   4.535   0.259  0.3417  0.2710 -1.5122
  670MOL0     H92399   9.227   4.740   0.260 -0.2675 -3.3657  0.0872
  670MOL0     H92400   9.359   4.819   0.166  0.1603  0.4462  0.7757
  670MOL0     H92401   9.237   4.547   0.111  0.5296 -0.8837 -0.9516
  670MOL0     H92402   9.339   4.624   0.003  2.0199  1.2086  1.4664
  670MOL0     H92403   9.060   4.726   0.096  1.0699 -0.5621  0.8358
  670MOL0     H92404   9.169   4.811  -0.020  1.9546  0.2986  1.1400
  670MOL0     H92405   9.163   4.590  -0.155 -1.0886 -1.1651 -0.2490
  670MOL0     H92406   9.015   4.689  -0.161 -3.3795 -1.3221  0.8367
  670MOL0     H92407   8.957   4.463  -0.139 -0.6654 -2.3205  1.0338
  670MOL0     H92408   9.038   4.451   0.018 -3.3175 -1.7387  1.1412
  670MOL0     H92409   8.706   4.498  -0.128  1.4504 -2.0217  0.8721
  670MOL0     H92410   8.490   4.637  -0.073 -3.9034 -3.3647  0.2168
  670MOL0     H92411   8.479   4.710   0.088  3.9250 -0.3642  0.3350
  670MOL0     H92412   8.322   4.529   0.011 -0.4826 -0.6355  1.5644
  670MOL0     H92413   8.461   4.419   0.025  0.7982  0.6356 -1.0037
  670MOL0     H92414   8.476   4.470   0.266  1.6060  0.2664 -3.2151
  670MOL0     H92415   8.348   4.577   0.266 -4.0366 -1.1874  0.8535
  670MOL0     H92416   8.241   4.396   0.344  0.1605  3.2606 -1.0414
  670MOL0     H92417   8.178   4.379   0.183 -0.8751 -1.9896  1.4114
  670MOL0     H92418   8.511   4.075   0.283 -0.0421 -2.2672  0.8043
  670MOL0     H92419   8.510   3.771   0.436  0.5473  0.3086 -0.2095
  670MOL0     H92420   8.611   3.875   0.539  0.9944  0.7229 -0.2355
  670MOL0     H92421   8.607   3.907   0.364  2.0098  1.6657  1.8589
  670MOL0     H92422   8.332   3.772   0.921 -2.0770  2.9594 -0.2264
  670MOL0     H92423   8.267   3.630   1.098  0.6993  0.8184 -0.7206
  670MOL0     H92424   8.112   3.349   1.222  0.8154  0.1129  2.6393
  670MOL0     H92425   8.192   3.509   1.236  1.7711 -1.4207 -0.5203
  670MOL0     H92426   7.912   3.430   1.344  1.9727 -3.1659  0.0784
  670MOL0     H92427   8.062   3.450   1.443  0.7418  0.7032 -0.9437
  670MOL0     H92428   7.938   3.675   1.280  1.4734  2.0480 -0.8325
  670MOL0     H92429   8.093   3.677   1.372 -0.1136 -1.2155 -1.6703
  670MOL0     H92430   7.944   3.795   1.490  0.7128 -0.3265 -0.7565
  670MOL0     H92431   7.984   3.653   1.576 -2.9340  0.9700  1.8116
  670MOL0     H92432   7.742   3.642   1.410 -3.5768  0.2830  1.4126
  670MOL0     H92433   7.780   3.523   1.523  0.4105 -0.6739 -3.5032
  670MOL0     H92434   7.601   3.678   1.590 -1.0343  0.6010  0.9400
  670MOL0     H92435   7.720   3.809   1.608 -0.4170 -0.4367 -2.0592
  670MOL0     H92436   7.822   3.668   1.812  0.8451 -0.0479 -0.5039
  670MOL0     H92437   7.713   3.538   1.753  0.4112  0.2506  0.0207
  670MOL0     H92438   7.524   3.724   1.838 -0.2820  1.9982  1.1594
  670MOL0     H92439   7.643   3.814   1.879  1.2868  0.0226 -1.2510
  670MOL0     H92440   7.888   3.569   0.893 -0.1788  1.8924 -2.2558
  670MOL0     H92441   7.966   3.718   0.721 -1.1898 -0.6174  1.5784
  670MOL0     H92442   8.121   4.040   0.576  1.0806  2.6950  0.7677
  670MOL0     H92443   8.113   4.199   0.392 -1.2426 -0.6968  1.5246
  670MOL0     H92444   9.716   4.409   0.582 -0.7749  1.0193  0.1468
  670MOL0     H92445   9.797   4.220   0.713  1.9665  2.2461 -2.2855
  670MOL0     H92446   9.661   3.762   0.741  0.3965 -0.2112  0.2733
  670MOL0     H92447   9.767   3.556   0.808  2.5353  1.1581  0.0967
  670MOL0     H92448   9.727   3.415   1.218 -0.1088 -0.2853 -0.3403
  670MOL0     H92449   9.825   3.298   1.148 -1.9432 -0.2671  0.2611
  670MOL0     H92450   9.945   3.431   1.319 -1.9185  0.9924  0.9455
  670MOL0     H92451   9.931   3.573   1.218 -0.0710 -1.0201 -2.4254
  670MOL0     H92452  10.102   3.333   1.198 -1.1892 -1.1269 -1.7987
  670MOL0     H92453  10.079   3.418   1.047  1.5936 -2.1900  0.3647
  670MOL0     H92454  10.182   3.549   1.298  1.9095  0.5580 -0.1386
  670MOL0     H92455  10.168   3.618   1.137 -1.9755  0.3422  0.6787
  670MOL0     H92456  10.510   3.347   1.124  0.4071 -0.5791 -0.2044
  670MOL0     H92457   9.693   3.636   1.208  0.0942  1.0039 -0.2420
  670MOL0     H92458   9.540   3.794   1.271  0.5815 -1.5963 -0.5201
  670MOL0     H92459   9.661   3.916   1.240  0.0334 -1.8901  0.3713
  670MOL0     H92460   9.494   3.927   1.166  0.3808  0.7230  0.1047
  671MOL0     O92461   4.353   1.744   1.832 -0.0369 -0.7748 -0.3734
  671MOL0     C92462   4.259   1.811   1.792 -0.3848  0.3835  0.9181
  671MOL0     O92463   4.230   1.824   1.661  0.3547 -0.6653 -0.0292
  671MOL0     C92464   4.296   1.750   1.570  0.2894 -1.2915  0.5535
  671MOL0     C92465   4.386   1.809   1.483 -0.3776 -0.4340 -0.4591
  671MOL0     C92466   4.436   1.734   1.367  0.4022 -0.5308 -0.2770
  671MOL0     C92467   4.409   1.595   1.352 -0.6431 -0.5251 -0.0031
  671MOL0     O92468   4.451   1.508   1.254 -0.3691  0.3114 -0.6335
  671MOL0     C92469   4.553   1.547   1.165  0.4773  0.7026 -1.6400
  671MOL0     C92470   4.685   1.520   1.234 -0.6155 -0.6570 -0.1140
  671MOL0     C92471   4.772   1.498   1.109  0.0041 -0.7513 -0.6774
  671MOL0     C92472   4.917   1.453   1.143  0.4299  0.1685 -0.2111
  671MOL0     C92473   4.986   1.401   1.012 -0.1704 -0.5601 -0.0506
  671MOL0     C92474   5.059   1.510   0.930 -0.0894  0.0648  0.6046
  671MOL0     C92475   5.115   1.435   0.805 -0.6127  0.6083  0.2850
  671MOL0     C92476   5.002   1.412   0.703 -0.1704  0.3548  0.0165
  671MOL0     N92477   5.051   1.442   0.570  0.2012 -0.1585  0.0741
  671MOL0     C92478   5.147   1.368   0.514 -0.8131  0.3922  0.2618
  671MOL0     C92479   5.173   1.445   0.404 -0.7024 -0.6547  0.1532
  671MOL0     C92480   5.266   1.401   0.302 -0.0481 -0.4522  0.4917
  671MOL0     C92481   5.409   1.430   0.340  0.6965 -0.1159  1.0669
  671MOL0     C92482   5.499   1.304   0.341  0.0855 -0.0739  0.2680
  671MOL0     C92483   5.530   1.252   0.200  0.0704 -0.1987 -0.0196
  671MOL0     O92484   5.663   1.197   0.195  0.0019  0.2556 -0.2494
  671MOL0     C92485   5.770   1.291   0.214  0.4601 -0.7002 -0.0968
  671MOL0     C92486   5.774   1.429   0.175  0.4392  0.6546  0.4961
  671MOL0     C92487   5.885   1.507   0.222  0.2601  0.5995  0.4498
  671MOL0     C92488   5.872   1.650   0.183  0.1849 -0.6542 -0.3631
  671MOL0     C92489   6.003   1.450   0.274 -0.0174 -1.1071  0.7597
  671MOL0     C92490   6.130   1.527   0.303  0.2438  0.1708  0.4587
  671MOL0     O92491   6.143   1.659   0.283 -0.2704  0.3738  0.0277
  671MOL0     C92492   6.250   1.738   0.326 -0.3175  0.9560 -0.6812
  671MOL0     C92493   6.348   1.705   0.421  0.2471 -0.9712 -0.2141
  671MOL0     C92494   6.450   1.794   0.456  0.2458 -0.0851  0.2945
  671MOL0     C92495   6.442   1.927   0.413  0.3760  0.1961  0.1702
  671MOL0     O92496   6.548   2.015   0.429 -0.5358  0.8201 -0.3785
  671MOL0     C92497   6.504   2.131   0.509 -0.0387 -0.1549 -0.3605
  671MOL0     C92498   6.525   2.111   0.661  0.2352  0.9100  0.5913
  671MOL0     C92499   6.669   2.050   0.689  0.1159 -0.4335  0.1995
  671MOL0     C92500   6.696   2.053   0.840 -0.8128 -0.0943  0.1116
  671MOL0     C92501   6.815   1.954   0.873  0.2266  0.3220 -0.1103
  671MOL0     C92502   6.881   2.008   1.011  0.0766  0.4509 -0.0556
  671MOL0     C92503   7.003   1.929   1.061  0.6644 -0.1542  0.1206
  671MOL0     C92504   7.053   1.990   1.191  0.8755 -0.1891  0.7507
  671MOL0    Cl92505   7.218   1.932   1.201  0.1454  0.2673 -0.1200
  671MOL0     C92506   6.340   1.956   0.315  0.1962 -0.7211 -0.1895
  671MOL0     C92507   6.253   1.864   0.271  0.6751  0.3372 -0.2441
  671MOL0     O92508   6.227   1.457   0.319  1.0896 -0.2306 -0.8152
  671MOL0     C92509   5.992   1.314   0.301 -1.3315 -0.9713  0.3322
  671MOL0     C92510   5.877   1.235   0.266 -0.3042 -0.5159 -0.6498
  671MOL0     N92511   5.086   1.548   0.397  0.1354 -0.0787 -0.2582
  671MOL0     N92512   5.024   1.551   0.503 -0.4327 -0.4434 -0.5630
  671MOL0     C92513   4.324   1.539   1.444  0.0112 -0.0939 -0.0794
  671MOL0     C92514   4.261   1.612   1.541 -0.2343  0.2933  0.0172
  671MOL0     C92515   4.163   1.882   1.884 -0.0766 -0.2320 -0.1282
  671MOL0     C92516   4.097   1.810   1.989  0.0572  0.3398 -0.2298
  671MOL0     C92517   3.995   1.868   2.062  0.6842  0.5271 -0.0936
  671MOL0     C92518   3.956   2.002   2.035  0.1336  0.1987 -0.0654
  671MOL0     O92519   3.843   2.054   2.103  0.5661 -0.6871  0.2119
  671MOL0     C92520   3.812   2.193   2.093  0.2558 -0.2449 -1.0921
  671MOL0     C92521   3.700   2.220   2.185  0.3846  0.3657 -0.0716
  671MOL0     C92522   3.580   2.197   2.101 -0.4773  0.2484 -0.2557
  671MOL0     C92523   3.453   2.206   2.183  0.5863 -0.0024 -0.1943
  671MOL0     C92524   3.437   2.319   2.275 -1.0005 -0.0259  0.0090
  671MOL0     C92525   3.410   2.395   2.361  0.2535  0.5095 -0.0950
  671MOL0     C92526   4.033   2.081   1.948 -0.0059 -0.1509 -0.7695
  671MOL0     C92527   4.138   2.020   1.865  0.9612  1.1040  0.1824
  671MOL0     C92528   4.193   2.103   1.750  0.6530  0.3957 -0.1575
  671MOL0     H92529   4.412   1.908   1.520 -0.1432 -1.5552  2.5760
  671MOL0     H92530   4.501   1.791   1.301  1.8952  1.7701  2.9204
  671MOL0     H92531   4.563   1.651   1.132 -1.4591  2.3343  2.2679
  671MOL0     H92532   4.531   1.473   1.089 -0.9792 -3.1366  2.1302
  671MOL0     H92533   4.725   1.606   1.288  0.0962 -1.7205  1.1184
  671MOL0     H92534   4.681   1.440   1.309  1.7259  1.3400  2.3228
  671MOL0     H92535   4.727   1.420   1.049  0.0843 -1.8180  0.6051
  671MOL0     H92536   4.787   1.591   1.053  0.3058 -0.6535 -0.4441
  671MOL0     H92537   4.974   1.531   1.193 -1.6046  0.2324  2.2321
  671MOL0     H92538   4.903   1.371   1.214  0.5128 -0.7847 -1.2562
  671MOL0     H92539   4.917   1.348   0.946  2.2751 -1.1273 -2.3289
  671MOL0     H92540   5.070   1.333   1.031 -0.3641 -1.0772 -0.9702
  671MOL0     H92541   4.991   1.587   0.893  1.0253  0.9068  0.2544
  671MOL0     H92542   5.126   1.571   0.991 -0.4322 -0.1571  1.2183
  671MOL0     H92543   5.165   1.345   0.843 -1.1166 -0.3168 -1.1695
  671MOL0     H92544   5.193   1.500   0.766  0.1107 -0.9522 -0.9551
  671MOL0     H92545   4.969   1.307   0.702  0.6602  0.0908 -0.6497
  671MOL0     H92546   4.920   1.478   0.733  0.3548  0.1185  2.1496
  671MOL0     H92547   5.199   1.281   0.553 -0.5101  0.0656 -0.8386
  671MOL0     H92548   5.235   1.443   0.206  2.7801 -1.6699 -1.0785
  671MOL0     H92549   5.253   1.293   0.290 -0.5021 -0.6719  2.5695
  671MOL0     H92550   5.455   1.509   0.280  2.2062 -2.0519 -0.4902
  671MOL0     H92551   5.398   1.467   0.442 -2.9769  2.5328 -0.0826
  671MOL0     H92552   5.595   1.327   0.389  1.3213 -0.8151 -1.7253
  671MOL0     H92553   5.454   1.227   0.405  0.3264  1.0211  1.8058
  671MOL0     H92554   5.452   1.180   0.174  0.5654 -1.0946  0.8748
  671MOL0     H92555   5.522   1.341   0.137 -1.5045  2.3360  3.4031
  671MOL0     H92556   5.685   1.450   0.116  0.0318  0.5083  1.0466
  671MOL0     H92557   5.847   1.711   0.270  4.3164  0.8114  0.0005
  671MOL0     H92558   5.794   1.677   0.111  2.3514  0.1936 -2.5226
  671MOL0     H92559   5.955   1.703   0.135  0.8205  1.4779  2.7918
  671MOL0     H92560   6.341   1.615   0.482 -0.1307 -0.6823  0.1714
  671MOL0     H92561   6.523   1.756   0.526  0.6977 -2.0581 -1.1750
  671MOL0     H92562   6.565   2.220   0.491  0.4859 -0.6670 -1.2102
  671MOL0     H92563   6.400   2.162   0.496  0.7757  2.1415 -2.2942
  671MOL0     H92564   6.517   2.205   0.717  0.2900  0.3268  1.6031
  671MOL0     H92565   6.459   2.041   0.714  0.1017 -0.7996 -1.7007
  671MOL0     H92566   6.748   2.114   0.651 -0.6585  1.5169  1.6929
  671MOL0     H92567   6.678   1.947   0.653 -2.4399 -0.7136  0.1865
  671MOL0     H92568   6.612   2.022   0.902 -0.0842  0.7134  1.5310
  671MOL0     H92569   6.724   2.154   0.872  0.5245 -1.3190  3.0918
  671MOL0     H92570   6.782   1.851   0.887  0.2920  0.1959 -0.8390
  671MOL0     H92571   6.893   1.955   0.796  2.1675 -0.6329  1.7187
  671MOL0     H92572   6.804   2.018   1.088 -2.0639 -1.5266 -1.7816
  671MOL0     H92573   6.921   2.108   0.991 -2.2628  2.5736  4.4424
  671MOL0     H92574   7.076   1.949   0.982  1.9520 -0.7232  1.1328
  671MOL0     H92575   6.984   1.822   1.058 -2.9683  0.4084 -1.8057
  671MOL0     H92576   7.002   1.957   1.282  3.3238 -1.6759  1.6925
  671MOL0     H92577   7.051   2.100   1.186  0.3040  0.0029  3.5964
  671MOL0     H92578   6.332   2.059   0.281 -0.3598 -0.7068 -0.0341
  671MOL0     H92579   6.175   1.868   0.196  0.1635 -0.4342  0.2393
  671MOL0     H92580   6.078   1.260   0.339 -1.0951 -1.0898 -0.3527
  671MOL0     H92581   5.879   1.127   0.281  0.4739 -0.5348 -0.8515
  671MOL0     H92582   4.296   1.436   1.424 -2.7855  0.6747 -0.5132
  671MOL0     H92583   4.193   1.559   1.607 -3.7906  1.8302 -2.0801
  671MOL0     H92584   4.119   1.705   2.008  1.1879  0.1725 -2.1746
  671MOL0     H92585   3.943   1.803   2.132  0.6840 -0.0194 -0.5916
  671MOL0     H92586   3.902   2.245   2.126  0.1202 -1.0243  0.5896
  671MOL0     H92587   3.794   2.232   1.992  1.2694 -2.3275 -2.1497
  671MOL0     H92588   3.707   2.326   2.207 -1.5275  0.8921 -1.6603
  671MOL0     H92589   3.700   2.150   2.269 -0.3319  0.1761 -0.2188
  671MOL0     H92590   3.581   2.277   2.027 -0.1342  2.1217  1.6965
  671MOL0     H92591   3.582   2.096   2.058  0.5885 -0.0164  0.3770
  671MOL0     H92592   3.444   2.117   2.246 -0.8195  1.2303  1.4550
  671MOL0     H92593   3.360   2.189   2.127  1.0070 -5.0549  0.2118
  671MOL0     H92594   3.402   2.456   2.448 -1.7786  0.8691 -0.5004
  671MOL0     H92595   4.011   2.187   1.951  0.6863 -0.0192  1.7953
  671MOL0     H92596   4.136   2.086   1.658 -0.3823  0.4031  0.4684
  671MOL0     H92597   4.165   2.205   1.780  0.4142 -0.1662  1.6213
  671MOL0     H92598   4.302   2.105   1.741  0.7131  0.5321  0.5209
  672MOL0     O92599   3.955   5.715   6.993 -0.0682 -0.1045 -0.6090
  672MOL0     C92600   3.976   5.604   7.045  0.0513  0.4297 -0.3147
  672MOL0     O92601   3.966   5.566   7.175  1.2812 -0.4544  0.1980
  672MOL0     C92602   3.971   5.658   7.270  0.0372 -0.9599 -1.2054
  672MOL0     C92603   4.048   5.776   7.255  0.2940  0.4695  0.4679
  672MOL0     C92604   4.064   5.871   7.367  0.2862  0.3078 -0.1199
  672MOL0     C92605   4.001   5.844   7.491  0.6835  0.4103  0.0237
  672MOL0     O92606   4.022   5.927   7.599 -0.7003  0.0954 -0.6664
  672MOL0     C92607   4.162   5.959   7.607  0.6314 -0.5824 -0.8820
  672MOL0     C92608   4.190   6.029   7.742  0.7151 -0.3680  0.2394
  672MOL0     C92609   4.134   6.170   7.753 -0.2489 -0.8374  0.9895
  672MOL0     C92610   4.208   6.253   7.855  0.5526 -0.8940  0.0323
  672MOL0     C92611   4.138   6.388   7.878  0.3623  0.2207  0.1288
  672MOL0     C92612   4.187   6.466   8.001  0.7606 -0.3726  0.0158
  672MOL0     C92613   4.094   6.593   8.028  0.6522 -0.2675 -0.1994
  672MOL0     C92614   4.146   6.702   8.113  0.3736 -0.7310  0.3853
  672MOL0     N92615   4.207   6.670   8.230 -0.1122 -0.2477  0.2821
  672MOL0     C92616   4.340   6.635   8.247  0.1794 -0.5020  0.3776
  672MOL0     C92617   4.350   6.631   8.381 -1.0484  0.6404  0.0204
  672MOL0     C92618   4.482   6.583   8.439  0.9919 -0.8825 -0.5298
  672MOL0     C92619   4.584   6.687   8.452 -0.5966 -0.3357  0.6327
  672MOL0     C92620   4.663   6.697   8.320 -0.1104  0.3270  0.5617
  672MOL0     C92621   4.777   6.799   8.347 -0.1256 -0.1829 -0.0821
  672MOL0     O92622   4.903   6.741   8.374  0.1815 -0.3483 -0.3058
  672MOL0     C92623   5.016   6.822   8.406 -0.1145  0.2976  0.3678
  672MOL0     C92624   5.012   6.958   8.403  0.1819  0.8622  0.0151
  672MOL0     C92625   5.119   7.045   8.429  0.2261  0.3404 -0.0638
  672MOL0     C92626   5.081   7.183   8.432 -0.2864  0.2147 -0.1007
  672MOL0     C92627   5.243   6.981   8.457 -0.3972 -0.1870 -0.3540
  672MOL0     C92628   5.370   7.050   8.491 -0.6312 -0.6685  0.2388
  672MOL0     O92629   5.474   6.980   8.556  0.4120 -0.6288 -0.0351
  672MOL0     C92630   5.591   7.049   8.566  1.1034  0.2791 -0.4021
  672MOL0     C92631   5.658   7.077   8.440  0.0170 -0.0682 -1.1823
  672MOL0     C92632   5.782   7.142   8.440  0.5526  0.5861  0.1317
  672MOL0     C92633   5.830   7.198   8.559  0.0160 -0.4743 -0.3541
  672MOL0     O92634   5.944   7.282   8.552  0.1155  0.4924 -1.4381
  672MOL0     C92635   6.033   7.282   8.663  0.6027  0.0250 -0.6291
  672MOL0     C92636   6.160   7.343   8.621 -0.6990  0.8990 -0.2563
  672MOL0     C92637   6.156   7.487   8.580 -0.6157  0.6296  0.4463
  672MOL0     C92638   6.078   7.572   8.681 -0.1749  0.6005  0.3304
  672MOL0     C92639   6.086   7.718   8.647 -0.0222  0.9616 -0.8085
  672MOL0     C92640   6.106   7.818   8.764 -0.7034 -0.3587 -0.0135
  672MOL0     C92641   6.146   7.950   8.701  0.2626  0.0279 -0.8642
  672MOL0     C92642   6.217   8.040   8.805 -0.7344 -0.0608  0.0226
  672MOL0    Cl92643   6.357   7.974   8.887  0.3828  0.0829  0.0638
  672MOL0     C92644   5.766   7.173   8.680  0.3047  0.2455 -0.0429
  672MOL0     C92645   5.654   7.092   8.689  0.4260 -0.0952  0.1813
  672MOL0     O92646   5.382   7.165   8.449 -0.5636 -0.0795 -0.2406
  672MOL0     C92647   5.248   6.833   8.448 -1.1849  0.1748  0.1016
  672MOL0     C92648   5.131   6.759   8.429 -0.5961 -0.1323  0.5956
  672MOL0     N92649   4.232   6.662   8.443  0.2161 -0.4054 -0.0294
  672MOL0     N92650   4.149   6.690   8.354 -0.1072  0.5644  0.9608
  672MOL0     C92651   3.917   5.728   7.507  0.0597 -0.0227  0.9069
  672MOL0     C92652   3.913   5.632   7.404  0.4597 -0.1814  0.8006
  672MOL0     C92653   3.982   5.490   6.953  0.2201  0.0100  0.1906
  672MOL0     C92654   3.902   5.379   6.989 -0.0956  0.4710 -0.2773
  672MOL0     C92655   3.882   5.271   6.896 -0.0765 -0.6017  0.4551
  672MOL0     C92656   3.954   5.271   6.771  0.6794 -0.2668 -0.2489
  672MOL0     O92657   3.912   5.179   6.677 -0.0959 -0.4781 -1.1586
  672MOL0     C92658   3.962   5.189   6.547 -0.0462  0.6362  0.3653
  672MOL0     C92659   3.885   5.081   6.460 -0.6869  0.2229  0.0458
  672MOL0     C92660   3.965   4.944   6.497 -0.4337  0.3652  0.6164
  672MOL0     C92661   3.896   4.820   6.439  0.9968  0.0185  0.0790
  672MOL0     C92662   3.781   4.770   6.523  0.3569  0.2414  0.1781
  672MOL0     C92663   3.673   4.751   6.575 -0.6588 -0.1615  0.4710
  672MOL0     C92664   4.036   5.387   6.738 -0.1529  0.6976  0.4475
  672MOL0     C92665   4.052   5.490   6.826  0.6037  0.4703  0.5754
  672MOL0     C92666   4.145   5.602   6.797  1.2278 -0.7839  0.2736
  672MOL0     H92667   4.098   5.801   7.162 -0.8272 -0.9562 -0.5506
  672MOL0     H92668   4.125   5.959   7.350 -1.0019  1.7931  2.3328
  672MOL0     H92669   4.168   6.043   7.538  1.1279  2.2825  2.4163
  672MOL0     H92670   4.236   5.879   7.597  0.9716 -0.3914  0.0967
  672MOL0     H92671   4.152   5.970   7.826 -2.2584  0.7428 -0.1836
  672MOL0     H92672   4.299   6.034   7.736  0.8744 -3.1023 -0.6091
  672MOL0     H92673   4.146   6.220   7.656 -0.3466 -1.3734  0.6992
  672MOL0     H92674   4.026   6.163   7.773 -0.3143  0.2012  1.0418
  672MOL0     H92675   4.217   6.195   7.948 -1.4231 -2.3698 -0.6250
  672MOL0     H92676   4.310   6.266   7.817  0.8288 -3.0837 -0.0967
  672MOL0     H92677   4.029   6.382   7.876  0.2322  1.8327 -2.3799
  672MOL0     H92678   4.153   6.446   7.786  3.8972 -5.3337 -3.3756
  672MOL0     H92679   4.190   6.394   8.084  2.3745 -0.7383 -0.3152
  672MOL0     H92680   4.289   6.499   7.979  0.2708  2.8689  2.0120
  672MOL0     H92681   4.000   6.554   8.070 -1.0418  3.6024  0.0055
  672MOL0     H92682   4.075   6.643   7.932  0.3988  0.8778  0.4238
  672MOL0     H92683   4.211   6.762   8.049 -1.4738 -1.2618 -2.1100
  672MOL0     H92684   4.057   6.764   8.129  0.0841 -1.7134  3.1516
  672MOL0     H92685   4.401   6.605   8.163 -0.9590  1.8004 -1.3930
  672MOL0     H92686   4.513   6.487   8.398 -0.1736 -2.6436  2.3715
  672MOL0     H92687   4.462   6.551   8.542  2.8453 -1.7693 -0.4186
  672MOL0     H92688   4.542   6.785   8.475  0.7559  0.8955 -1.7185
  672MOL0     H92689   4.656   6.667   8.533 -2.1471  1.9349  2.7232
  672MOL0     H92690   4.698   6.596   8.297 -1.0479 -0.1857  1.3411
  672MOL0     H92691   4.582   6.721   8.250 -1.6387  1.8627  2.7551
  672MOL0     H92692   4.775   6.861   8.257 -3.6572 -0.4797 -0.3195
  672MOL0     H92693   4.749   6.862   8.431  1.5926  1.3043 -0.5505
  672MOL0     H92694   4.919   7.004   8.371  2.8009  3.9062 -4.3911
  672MOL0     H92695   5.119   7.241   8.347  0.4475 -0.4268 -0.2242
  672MOL0     H92696   5.130   7.231   8.518  1.8429 -1.8163 -0.0862
  672MOL0     H92697   4.973   7.202   8.439 -0.3642 -0.6710  1.8789
  672MOL0     H92698   5.618   7.042   8.345  2.2747  1.6087 -2.8597
  672MOL0     H92699   5.827   7.154   8.342  0.9621  1.2652  0.3906
  672MOL0     H92700   5.991   7.322   8.755  2.9312 -2.6895  1.8203
  672MOL0     H92701   6.068   7.180   8.679 -0.7564 -0.1611  1.6615
  672MOL0     H92702   6.233   7.327   8.700  2.8362 -3.2559 -3.8327
  672MOL0     H92703   6.194   7.275   8.543 -1.5367 -2.5475  2.1936
  672MOL0     H92704   6.093   7.493   8.490 -0.5182 -0.7628  0.2598
  672MOL0     H92705   6.255   7.526   8.552  0.0983 -1.7415 -0.5713
  672MOL0     H92706   6.124   7.560   8.780  0.9861  2.7320  0.1070
  672MOL0     H92707   5.973   7.545   8.693 -0.4268  1.7564  0.8929
  672MOL0     H92708   6.174   7.732   8.582  1.1559  0.7392  0.6795
  672MOL0     H92709   5.997   7.752   8.593 -0.7230  1.3070  0.5295
  672MOL0     H92710   6.177   7.779   8.837  0.3419  0.5100 -0.5453
  672MOL0     H92711   6.007   7.835   8.808  0.4366  4.1412  1.3011
  672MOL0     H92712   6.061   8.011   8.670  2.3865  1.9991 -3.2882
  672MOL0     H92713   6.208   7.947   8.611 -1.1600  2.9749 -2.0754
  672MOL0     H92714   6.143   8.063   8.882  0.6936  0.9286  1.1734
  672MOL0     H92715   6.256   8.135   8.766  6.0570 -2.0488  0.6546
  672MOL0     H92716   5.798   7.208   8.777 -1.2176 -0.7630  0.8538
  672MOL0     H92717   5.608   7.067   8.783  3.0052 -0.4833  1.4217
  672MOL0     H92718   5.342   6.781   8.463 -0.0526  2.2867  0.6986
  672MOL0     H92719   5.135   6.651   8.425 -1.0117 -0.0988 -1.7602
  672MOL0     H92720   3.843   5.727   7.586 -2.0042  0.7085 -0.9300
  672MOL0     H92721   3.850   5.546   7.424  1.2649 -0.5819  1.6727
  672MOL0     H92722   3.850   5.373   7.084 -2.0332 -3.2266 -1.3882
  672MOL0     H92723   3.814   5.188   6.914  2.5374 -2.6200  1.6011
  672MOL0     H92724   3.943   5.290   6.510  0.3062  1.5200  2.4890
  672MOL0     H92725   4.069   5.175   6.532  0.6126  5.7677 -1.7731
  672MOL0     H92726   3.888   5.115   6.356 -0.3303  1.0649  0.3183
  672MOL0     H92727   3.783   5.076   6.499  0.3417 -0.5584  2.9147
  672MOL0     H92728   4.066   4.963   6.460 -0.0005 -0.2669  1.4547
  672MOL0     H92729   3.975   4.924   6.604  1.4491 -4.2731 -0.1795
  672MOL0     H92730   3.971   4.741   6.439  0.9154 -0.0608 -0.4250
  672MOL0     H92731   3.861   4.831   6.336  2.8199 -1.7559 -0.8019
  672MOL0     H92732   3.576   4.742   6.620  0.8818  0.7912  4.3825
  672MOL0     H92733   4.084   5.392   6.640 -2.4500 -1.0470 -0.8626
  672MOL0     H92734   4.201   5.586   6.704  0.3525  2.7895 -1.0336
  672MOL0     H92735   4.096   5.698   6.780  3.0361  0.5033  1.9620
  672MOL0     H92736   4.215   5.605   6.880 -1.5552  0.8381  2.7468
  673MOL0     O92737   9.212   5.332   3.464 -0.6407 -0.0823  0.3102
  673MOL0     C92738   9.334   5.362   3.456 -0.0475 -0.2793  0.3898
  673MOL0     O92739   9.437   5.271   3.470  0.2685  0.3622 -0.1090
  673MOL0     C92740   9.419   5.138   3.499  0.2888  0.0700  0.0102
  673MOL0     C92741   9.305   5.052   3.481 -0.7740  0.3167 -0.2849
  673MOL0     C92742   9.322   4.906   3.495  0.2815 -2.1039  0.1336
  673MOL0     C92743   9.442   4.862   3.531 -0.8627  0.7079 -0.7082
  673MOL0     O92744   9.442   4.728   3.567 -0.9090  0.2934 -0.3124
  673MOL0     C92745   9.506   4.647   3.465 -0.1454 -0.2067  0.2779
  673MOL0     C92746   9.546   4.513   3.533 -0.4945 -0.1466 -1.0774
  673MOL0     C92747   9.566   4.421   3.406  0.1274  1.0116 -0.8009
  673MOL0     C92748   9.607   4.279   3.452  0.0472 -0.3283 -0.1415
  673MOL0     C92749   9.678   4.208   3.346  0.7087 -0.1662  0.3051
  673MOL0     C92750   9.729   4.064   3.398  0.3902 -0.6569 -0.2966
  673MOL0     C92751   9.853   4.059   3.476  0.0952 -0.1742 -0.9458
  673MOL0     C92752   9.886   3.916   3.525 -0.0882 -0.2222  0.0202
  673MOL0     N92753  10.022   3.899   3.579 -0.9187  0.7666 -0.5538
  673MOL0     C92754  10.137   3.910   3.500  0.6453  0.8451  0.5399
  673MOL0     C92755  10.241   3.849   3.562  0.0006 -0.1606  0.5230
  673MOL0     C92756  10.379   3.838   3.511 -0.6917  0.2081 -1.2396
  673MOL0     C92757  10.456   3.716   3.567  0.1779  0.5041 -0.3803
  673MOL0     C92758  10.574   3.664   3.481  0.7310  0.9598  0.3974
  673MOL0     C92759  10.661   3.559   3.540  0.1022  0.4978  1.1622
  673MOL0     O92760  10.719   3.478   3.437 -0.5564  0.3585  0.6537
  673MOL0     C92761  10.845   3.511   3.400 -0.4420  0.2583 -0.9465
  673MOL0     C92762  10.948   3.412   3.384  0.6994 -0.0956  0.9582
  673MOL0     C92763  11.069   3.434   3.310 -0.5757  0.0952  0.1846
  673MOL0     C92764  11.157   3.312   3.292 -0.0139  0.2685  0.2786
  673MOL0     C92765  11.082   3.563   3.253 -0.0242  0.5630  0.4939
  673MOL0     C92766  11.207   3.597   3.174  0.4132 -0.8833  0.0290
  673MOL0     O92767  11.318   3.528   3.198  0.1941 -0.1237  0.5149
  673MOL0     C92768  11.443   3.588   3.164  0.8004 -0.6703 -0.4811
  673MOL0     C92769  11.474   3.727   3.147  0.2167  0.7169  0.2942
  673MOL0     C92770  11.605   3.756   3.120 -1.7115  0.0438  0.0778
  673MOL0     C92771  11.704   3.655   3.098  0.3527 -0.5123 -1.1799
  673MOL0     O92772  11.825   3.698   3.052  0.9350 -0.5129  0.3150
  673MOL0     C92773  11.937   3.701   3.138  0.3750  0.3392  0.2893
  673MOL0     C92774  12.052   3.605   3.098  0.0041  1.2015  0.4218
  673MOL0     C92775  12.177   3.634   3.180  0.4310 -0.1566  0.1368
  673MOL0     C92776  12.269   3.520   3.213  0.2962 -0.2822 -0.9945
  673MOL0     C92777  12.343   3.502   3.082 -0.4438 -0.4390 -0.4271
  673MOL0     C92778  12.431   3.378   3.082 -0.2369 -0.0956  0.5242
  673MOL0     C92779  12.510   3.374   2.955  0.7108 -0.1303  0.3231
  673MOL0     C92780  12.570   3.235   2.960  0.2040 -1.0095  0.6573
  673MOL0    Cl92781  12.448   3.111   2.907  0.0285 -0.4102  0.0420
  673MOL0     C92782  11.672   3.524   3.124 -0.5533  0.3088  0.2501
  673MOL0     C92783  11.542   3.491   3.161 -0.0745  0.7291 -0.0380
  673MOL0     O92784  11.189   3.664   3.078 -0.0208 -0.3365  0.0813
  673MOL0     C92785  10.992   3.661   3.274 -0.0860 -0.2841 -0.9101
  673MOL0     C92786  10.870   3.635   3.338 -0.1637  0.0161  0.2188
  673MOL0     N92787  10.191   3.789   3.681  0.1555  0.6307 -0.2377
  673MOL0     N92788  10.066   3.831   3.693  0.1856 -0.5570  0.7700
  673MOL0     C92789   9.553   4.943   3.550 -0.6860 -0.3956 -0.1567
  673MOL0     C92790   9.548   5.082   3.520 -0.0140 -0.1811 -1.1764
  673MOL0     C92791   9.373   5.503   3.435 -0.7708 -0.2420  0.4815
  673MOL0     C92792   9.514   5.542   3.458  0.3682  0.1728 -0.0732
  673MOL0     C92793   9.563   5.671   3.444 -0.5195  1.1392  0.1342
  673MOL0     C92794   9.468   5.767   3.408  0.1111  0.2745 -0.2504
  673MOL0     O92795   9.517   5.894   3.414 -0.2688  0.0901 -0.1741
  673MOL0     C92796   9.440   6.010   3.382  0.6454 -0.0724 -0.2789
  673MOL0     C92797   9.392   6.087   3.514 -0.8238 -0.4534  0.9395
  673MOL0     C92798   9.287   6.198   3.476 -0.2641  0.1808 -0.1258
  673MOL0     C92799   9.363   6.320   3.420  0.6278 -0.5963  0.1946
  673MOL0     C92800   9.267   6.425   3.377  0.2094 -0.0751  0.2019
  673MOL0     C92801   9.194   6.509   3.322 -0.7590  0.1027 -0.0983
  673MOL0     C92802   9.327   5.737   3.396 -0.9849  0.4765  0.2002
  673MOL0     C92803   9.278   5.609   3.420  0.1769  0.1845  0.2470
  673MOL0     C92804   9.132   5.583   3.412  0.1109 -0.2195  0.3445
  673MOL0     H92805   9.210   5.098   3.457 -0.9856 -0.1511 -0.3587
  673MOL0     H92806   9.235   4.840   3.499 -1.3667 -0.0261  4.2020
  673MOL0     H92807   9.592   4.692   3.413 -0.1884 -0.6611 -0.2013
  673MOL0     H92808   9.427   4.635   3.390 -1.0680  2.8023  0.6507
  673MOL0     H92809   9.627   4.534   3.603 -0.5463  1.2127 -1.4014
  673MOL0     H92810   9.468   4.466   3.593 -0.1826  0.4522 -0.1996
  673MOL0     H92811   9.470   4.411   3.353 -1.3474 -1.6076  2.0078
  673MOL0     H92812   9.652   4.460   3.352  0.6960 -2.6553 -2.8520
  673MOL0     H92813   9.683   4.295   3.528  1.3260  1.1569 -1.6645
  673MOL0     H92814   9.523   4.222   3.493 -1.1678  1.5693  0.1376
  673MOL0     H92815   9.759   4.275   3.317  0.0277  0.7423  0.4435
  673MOL0     H92816   9.612   4.196   3.259  1.5138  1.2995 -0.5324
  673MOL0     H92817   9.651   4.026   3.464 -0.1072  2.2019  0.9030
  673MOL0     H92818   9.726   3.999   3.310  1.3404 -2.0641  0.6657
  673MOL0     H92819   9.838   4.110   3.572  1.9593 -2.9874  0.9783
  673MOL0     H92820   9.943   4.101   3.432  2.7446 -1.1278  3.0365
  673MOL0     H92821   9.807   3.898   3.599 -1.2222  0.0804 -1.0905
  673MOL0     H92822   9.883   3.849   3.438  0.5965  1.5237 -1.4122
  673MOL0     H92823  10.143   3.961   3.405  1.6491  1.5127  0.9458
  673MOL0     H92824  10.440   3.920   3.550 -2.3369 -0.2347  2.7392
  673MOL0     H92825  10.374   3.832   3.402 -0.2240  1.3274 -1.3365
  673MOL0     H92826  10.495   3.735   3.668  1.3167  0.6755 -0.8388
  673MOL0     H92827  10.380   3.637   3.560  0.1120  0.7328 -3.1037
  673MOL0     H92828  10.539   3.614   3.390  0.5852  0.9990  0.4325
  673MOL0     H92829  10.639   3.747   3.452  1.7989 -0.8728 -3.0335
  673MOL0     H92830  10.740   3.609   3.597 -0.2766  0.5510  1.6473
  673MOL0     H92831  10.599   3.498   3.607 -1.8397  1.7384  0.5578
  673MOL0     H92832  10.919   3.315   3.424  4.0678 -0.7339  2.1841
  673MOL0     H92833  11.252   3.333   3.344 -0.1098  3.1743 -0.5316
  673MOL0     H92834  11.164   3.290   3.185  1.4464  0.4056  0.3187
  673MOL0     H92835  11.103   3.229   3.339 -1.3752 -0.0458 -1.7162
  673MOL0     H92836  11.397   3.801   3.167 -1.0606  0.0431 -1.7806
  673MOL0     H92837  11.624   3.859   3.089 -0.6194 -0.6899 -1.8892
  673MOL0     H92838  11.978   3.802   3.130 -0.4593  0.9184  2.3963
  673MOL0     H92839  11.921   3.690   3.246  0.6503  0.1750  0.3133
  673MOL0     H92840  12.011   3.505   3.116 -1.5402  1.3823 -1.6195
  673MOL0     H92841  12.061   3.624   2.990  2.7808  2.9710  0.8486
  673MOL0     H92842  12.143   3.670   3.278 -0.1360  1.1426 -0.5209
  673MOL0     H92843  12.229   3.720   3.138  0.1841  0.6452  1.4213
  673MOL0     H92844  12.198   3.438   3.230 -2.1000  1.8785  0.1841
  673MOL0     H92845  12.344   3.533   3.292  0.2201 -0.2823 -0.9222
  673MOL0     H92846  12.272   3.484   3.001 -0.6204  0.4931 -0.4840
  673MOL0     H92847  12.400   3.594   3.063  2.0832 -1.4348  1.6566
  673MOL0     H92848  12.364   3.292   3.082  0.7917 -0.9251 -0.0659
  673MOL0     H92849  12.490   3.380   3.174 -1.8658  1.9443  1.6061
  673MOL0     H92850  12.584   3.455   2.957 -0.8556  1.5147 -2.0438
  673MOL0     H92851  12.439   3.383   2.873  0.8253  0.2935  0.2669
  673MOL0     H92852  12.594   3.212   3.064 -0.1094 -0.8467  0.7669
  673MOL0     H92853  12.657   3.214   2.897 -0.0801  0.9760 -0.5011
  673MOL0     H92854  11.756   3.455   3.123 -0.5746  0.2074  1.8750
  673MOL0     H92855  11.531   3.387   3.192  2.1713  0.5257  0.2541
  673MOL0     H92856  11.013   3.757   3.228  4.4859 -2.1140 -3.2059
  673MOL0     H92857  10.789   3.707   3.335 -3.3764 -3.3125  0.2491
  673MOL0     H92858   9.652   4.905   3.575 -1.4338 -1.3626  1.5587
  673MOL0     H92859   9.632   5.148   3.534 -0.1849 -0.1084 -0.4544
  673MOL0     H92860   9.588   5.467   3.481  1.3872  1.2192  0.1785
  673MOL0     H92861   9.663   5.695   3.479  0.0656  0.4049 -0.9927
  673MOL0     H92862   9.515   6.075   3.336  1.9736 -1.8340 -0.7210
  673MOL0     H92863   9.363   6.002   3.305 -1.6474  0.8904  1.7856
  673MOL0     H92864   9.483   6.124   3.561  1.1560 -1.3845 -1.9021
  673MOL0     H92865   9.350   6.018   3.588  1.1379 -2.2417  0.4761
  673MOL0     H92866   9.220   6.157   3.400 -0.6802  0.8113 -0.1093
  673MOL0     H92867   9.230   6.242   3.559 -2.5573 -2.2114 -0.3154
  673MOL0     H92868   9.427   6.281   3.340  0.7846 -2.0068  0.9680
  673MOL0     H92869   9.434   6.375   3.481 -0.3205  4.5459 -2.7667
  673MOL0     H92870   9.133   6.586   3.279 -1.6126 -0.5866 -0.1576
  673MOL0     H92871   9.256   5.813   3.366  1.2122  2.5292 -0.1317
  673MOL0     H92872   9.089   5.581   3.512  1.0849 -0.0615  0.7788
  673MOL0     H92873   9.082   5.666   3.361 -0.3292 -0.4264  0.4348
  673MOL0     H92874   9.103   5.495   3.355  2.4267 -0.2057 -0.9849
  674MOL0     O92875   9.078   3.534   4.798 -0.1280 -0.6219  0.7374
  674MOL0     C92876   8.983   3.586   4.747  0.8233  0.8276  1.2751
  674MOL0     O92877   8.872   3.517   4.712 -0.3713 -0.1967 -0.5644
  674MOL0     C92878   8.838   3.408   4.792 -0.2728  0.3545  0.4395
  674MOL0     C92879   8.772   3.302   4.722 -0.1063  0.3735 -0.1556
  674MOL0     C92880   8.734   3.187   4.794 -1.0962 -0.4023  1.0552
  674MOL0     C92881   8.744   3.171   4.928 -0.1582  0.1808 -1.1797
  674MOL0     O92882   8.707   3.067   5.017  0.0685  0.3556  0.4601
  674MOL0     C92883   8.614   2.973   4.962 -0.9397 -0.7585 -0.2026
  674MOL0     C92884   8.572   2.877   5.084 -0.4871 -0.4750 -0.0333
  674MOL0     C92885   8.477   2.762   5.043  0.5186 -0.0501  0.3752
  674MOL0     C92886   8.456   2.678   5.160  0.2989 -0.0490  0.5460
  674MOL0     C92887   8.401   2.543   5.135  0.4072  0.6513 -0.2204
  674MOL0     C92888   8.379   2.447   5.261 -0.1311  0.6536  0.0931
  674MOL0     C92889   8.466   2.318   5.256  0.6083  0.7890 -0.0767
  674MOL0     C92890   8.420   2.233   5.377 -0.7836 -2.0584  0.1711
  674MOL0     N92891   8.451   2.294   5.508  0.5693  0.1864  0.2272
  674MOL0     C92892   8.574   2.318   5.559 -0.8211  1.1441 -0.7993
  674MOL0     C92893   8.558   2.359   5.687  0.0604  0.7541  0.1044
  674MOL0     C92894   8.665   2.396   5.780 -1.1955  0.5476 -0.4181
  674MOL0     C92895   8.801   2.453   5.726  0.8110  0.9154 -0.2944
  674MOL0     C92896   8.798   2.599   5.680 -0.9298  0.2724  0.3501
  674MOL0     C92897   8.935   2.618   5.605  0.2756 -0.3210  0.8217
  674MOL0     O92898   9.048   2.587   5.697 -0.3185  0.3258  0.6746
  674MOL0     C92899   9.121   2.698   5.716 -0.9278  0.0029 -0.5715
  674MOL0     C92900   9.193   2.751   5.615  0.4883 -0.1604 -0.1568
  674MOL0     C92901   9.281   2.869   5.628  1.2081  0.3971 -0.4191
  674MOL0     C92902   9.363   2.916   5.512 -0.9832 -0.5544  0.2306
  674MOL0     C92903   9.282   2.932   5.767 -0.1357  0.4872  0.6618
  674MOL0     C92904   9.357   3.055   5.806  0.9654 -0.0262  0.9278
  674MOL0     O92905   9.342   3.106   5.934 -0.6201  0.7129  0.9987
  674MOL0     C92906   9.431   3.197   5.974 -0.7555  0.6916  0.2860
  674MOL0     C92907   9.509   3.163   6.091 -0.4139  0.3011  0.3562
  674MOL0     C92908   9.605   3.249   6.144  0.6392 -0.0936  0.6048
  674MOL0     C92909   9.605   3.377   6.101 -0.1622 -0.2200  0.5150
  674MOL0     O92910   9.670   3.480   6.168 -0.2080  0.5223  0.0958
  674MOL0     C92911   9.802   3.442   6.202 -0.7998 -0.1643  0.0343
  674MOL0     C92912   9.914   3.539   6.198  0.2553 -0.4520 -0.0918
  674MOL0     C92913   9.916   3.644   6.081  0.0920 -0.0753 -1.9593
  674MOL0     C92914  10.058   3.700   6.066 -0.4719  0.1349  0.4393
  674MOL0     C92915  10.064   3.794   5.943  0.0950 -1.1566  0.2885
  674MOL0     C92916  10.196   3.863   5.923 -0.2157 -0.1870  0.4454
  674MOL0     C92917  10.188   3.960   5.800 -0.3562  0.2076 -0.3820
  674MOL0     C92918  10.069   4.061   5.814 -0.1016 -0.1688 -0.1990
  674MOL0    Cl92919  10.077   4.191   5.681  0.2350 -0.5375 -0.6740
  674MOL0     C92920   9.526   3.422   5.995  0.7538 -0.3499 -0.1738
  674MOL0     C92921   9.443   3.334   5.931  0.2672  0.4678  0.1504
  674MOL0     O92922   9.430   3.108   5.723  0.2521  0.2591 -0.2493
  674MOL0     C92923   9.200   2.870   5.868  0.6800  0.8186 -1.1183
  674MOL0     C92924   9.112   2.758   5.837 -0.5334 -0.5404  0.1686
  674MOL0     N92925   8.422   2.346   5.712 -0.8207  0.0149  0.5751
  674MOL0     N92926   8.357   2.301   5.608 -1.0868 -0.8740  0.7789
  674MOL0     C92927   8.825   3.270   4.996  1.0951 -0.1992  0.5971
  674MOL0     C92928   8.866   3.388   4.931 -0.3590  0.0826  0.0284
  674MOL0     C92929   8.985   3.733   4.740 -0.0975 -0.1572 -0.4736
  674MOL0     C92930   8.860   3.797   4.738  0.1229  0.6381 -0.6824
  674MOL0     C92931   8.855   3.933   4.750 -0.3907  0.3026 -0.7225
  674MOL0     C92932   8.965   4.013   4.748 -0.2832  0.1969  0.5589
  674MOL0     O92933   8.962   4.148   4.764  0.3741  0.4161 -0.2010
  674MOL0     C92934   8.869   4.227   4.698 -0.4119  0.8152  0.6239
  674MOL0     C92935   8.916   4.370   4.732  0.5525  0.4436 -0.2445
  674MOL0     C92936   8.806   4.480   4.732 -0.5974 -0.1216  0.8745
  674MOL0     C92937   8.861   4.622   4.735  0.0811 -0.7049  0.3581
  674MOL0     C92938   8.888   4.664   4.870  0.6326 -0.5433 -0.6260
  674MOL0     C92939   8.903   4.715   4.986 -0.0619 -0.6195 -0.1184
  674MOL0     C92940   9.090   3.956   4.743  0.5744 -0.1364 -0.1209
  674MOL0     C92941   9.099   3.812   4.741  0.2782  0.9704  0.4089
  674MOL0     C92942   9.244   3.769   4.734 -1.1473  0.4769  0.0483
  674MOL0     H92943   8.746   3.305   4.616 -2.1416 -0.7670  0.2548
  674MOL0     H92944   8.695   3.101   4.739 -2.2838  0.8424 -0.1360
  674MOL0     H92945   8.674   2.933   4.880 -2.1933  0.0748 -1.5695
  674MOL0     H92946   8.524   3.007   4.912  0.3376 -0.8372 -2.7077
  674MOL0     H92947   8.660   2.834   5.134 -0.4470 -1.2132 -0.7147
  674MOL0     H92948   8.522   2.945   5.154 -0.4498  2.3748 -2.5663
  674MOL0     H92949   8.389   2.812   5.000  1.2111  0.0040 -1.0244
  674MOL0     H92950   8.524   2.710   4.958 -0.4072  0.8482 -0.7182
  674MOL0     H92951   8.551   2.657   5.208  1.6186  0.2590 -1.7699
  674MOL0     H92952   8.397   2.742   5.226 -2.9696  1.8450 -3.6780
  674MOL0     H92953   8.460   2.496   5.056  3.1010  2.3365  0.6845
  674MOL0     H92954   8.309   2.569   5.080  1.4928  1.8388 -1.5673
  674MOL0     H92955   8.383   2.502   5.355  3.0908  0.3772  0.2420
  674MOL0     H92956   8.277   2.412   5.244  0.6697 -0.4168 -3.4995
  674MOL0     H92957   8.570   2.347   5.268  0.8469 -0.1049  0.0911
  674MOL0     H92958   8.450   2.270   5.158  3.0325  1.5074 -0.9018
  674MOL0     H92959   8.315   2.205   5.366 -0.5278 -2.5288 -1.2291
  674MOL0     H92960   8.490   2.150   5.367 -0.6094 -1.7227 -1.8060
  674MOL0     H92961   8.676   2.314   5.523 -0.4590 -1.2005  0.3328
  674MOL0     H92962   8.690   2.306   5.837 -2.7160  2.2535  3.2424
  674MOL0     H92963   8.624   2.466   5.853 -0.3214  0.7985 -0.1527
  674MOL0     H92964   8.874   2.428   5.803  0.0889 -6.5115 -1.2641
  674MOL0     H92965   8.839   2.388   5.646 -1.3110 -1.6659  0.6257
  674MOL0     H92966   8.721   2.620   5.606  0.5912  4.5084 -0.3713
  674MOL0     H92967   8.789   2.669   5.764 -3.7915  1.7996 -1.1013
  674MOL0     H92968   8.938   2.552   5.518 -2.3031  3.2534 -2.2915
  674MOL0     H92969   8.946   2.714   5.554  1.0627  0.0358  1.6197
  674MOL0     H92970   9.177   2.708   5.517  2.3032  2.2657 -1.6390
  674MOL0     H92971   9.464   2.936   5.547 -1.3333 -0.8976  1.4935
  674MOL0     H92972   9.313   3.001   5.466 -2.1991 -2.6900 -2.7261
  674MOL0     H92973   9.369   2.854   5.422  3.6251  1.5273 -1.1933
  674MOL0     H92974   9.500   3.064   6.136  2.7932 -0.2755 -0.0482
  674MOL0     H92975   9.668   3.215   6.226  2.4028 -0.7712 -0.9526
  674MOL0     H92976   9.804   3.398   6.302 -2.3625 -0.2928  0.0426
  674MOL0     H92977   9.828   3.364   6.130  0.3425 -0.8009  1.0845
  674MOL0     H92978   9.932   3.594   6.291  3.9985  3.6586 -2.8213
  674MOL0     H92979  10.005   3.479   6.194  0.7369 -0.0511  2.5329
  674MOL0     H92980   9.840   3.724   6.087  0.2806  0.1516 -2.5785
  674MOL0     H92981   9.899   3.592   5.987  1.6503 -1.9430 -1.2585
  674MOL0     H92982  10.139   3.628   6.060  2.1136  2.9020 -0.4195
  674MOL0     H92983  10.085   3.770   6.145  1.2296  1.3762 -1.1610
  674MOL0     H92984  10.026   3.755   5.848 -0.1171  1.2713 -0.6955
  674MOL0     H92985  10.003   3.881   5.968  3.2543  2.3762 -2.9246
  674MOL0     H92986  10.277   3.792   5.904 -1.4522 -1.5881  0.2186
  674MOL0     H92987  10.215   3.926   6.011 -0.3147  0.9790 -0.3553
  674MOL0     H92988  10.181   3.902   5.708 -0.4932  0.0631 -0.2818
  674MOL0     H92989  10.277   4.022   5.786 -0.8940  0.7301 -1.5695
  674MOL0     H92990  10.084   4.116   5.908  0.8737  0.7367 -0.8485
  674MOL0     H92991   9.976   4.006   5.823 -0.9235  1.3234  0.9461
  674MOL0     H92992   9.523   3.518   5.945  3.9551 -1.6236 -3.1899
  674MOL0     H92993   9.392   3.370   5.842  0.0944 -2.6187 -1.1531
  674MOL0     H92994   9.197   2.910   5.969  1.7409  2.7512 -1.8006
  674MOL0     H92995   9.045   2.719   5.914 -3.5127 -0.6441 -2.2825
  674MOL0     H92996   8.842   3.254   5.101  2.3229 -1.5436  0.2232
  674MOL0     H92997   8.938   3.455   4.978  2.1539 -2.4330  0.0800
  674MOL0     H92998   8.776   3.729   4.736 -1.3535  2.3998 -1.6525
  674MOL0     H92999   8.756   3.977   4.745 -1.3179 -1.5615  0.3622
  674MOL0     H93000   8.877   4.217   4.589 -0.4958  4.3764  0.1585
  674MOL0     H93001   8.773   4.209   4.748  0.9465  3.4153  4.6693
  674MOL0     H93002   8.995   4.397   4.661  1.1804  1.1112  0.6725
  674MOL0     H93003   8.962   4.364   4.831  0.4980 -1.6324 -0.3052
  674MOL0     H93004   8.742   4.471   4.644 -1.5398  1.4229  1.3781
  674MOL0     H93005   8.743   4.452   4.817  0.3790 -1.8068  1.0992
  674MOL0     H93006   8.797   4.690   4.680  0.8213 -1.4472 -1.5112
  674MOL0     H93007   8.948   4.624   4.669  0.0941  1.7927  0.3639
  674MOL0     H93008   8.920   4.748   5.087  1.1167 -3.1399  0.5839
  674MOL0     H93009   9.179   4.019   4.744  1.2963 -0.9588 -2.8262
  674MOL0     H93010   9.261   3.692   4.658 -0.6788 -1.9773  2.4700
  674MOL0     H93011   9.318   3.850   4.732 -0.8405  0.2044  0.3739
  674MOL0     H93012   9.258   3.728   4.834  0.5895  0.9489  0.0394
  675MOL0     O93013   7.440   0.374  10.808 -0.3922  0.0536  0.3342
  675MOL0     C93014   7.446   0.496  10.791 -0.7521  0.1774 -0.0124
  675MOL0     O93015   7.517   0.553  10.693  0.5377 -0.0371 -0.5671
  675MOL0     C93016   7.592   0.460  10.608 -0.3012 -0.0655 -0.4488
  675MOL0     C93017   7.735   0.459  10.616 -0.7156 -0.2806  0.1347
  675MOL0     C93018   7.805   0.376  10.530 -0.5273 -0.7314  0.7549
  675MOL0     C93019   7.742   0.298  10.433  0.8139  0.1687 -0.4362
  675MOL0     O93020   7.815   0.243  10.339  0.0185  0.6144 -0.6983
  675MOL0     C93021   7.804   0.098  10.329  0.5926  0.1584  0.0468
  675MOL0     C93022   7.928   0.054  10.242 -0.1676  0.2288 -0.3594
  675MOL0     C93023   7.914   0.091  10.094  0.1915  0.1896  0.1344
  675MOL0     C93024   8.029   0.024  10.018  0.1026 -0.5473 -0.5404
  675MOL0     C93025   8.023   0.047   9.867  1.2701  0.0419  1.0351
  675MOL0     C93026   8.150   0.038   9.793 -0.2939 -0.4309  0.5592
  675MOL0     C93027   8.184  -0.102   9.760  0.6920  0.4498 -0.3588
  675MOL0     C93028   8.306  -0.101   9.656 -0.6695  0.4157 -0.6427
  675MOL0     N93029   8.253  -0.130   9.528 -0.6428 -1.3766 -0.2007
  675MOL0     C93030   8.222  -0.262   9.496  0.5131  0.7165 -0.7365
  675MOL0     C93031   8.163  -0.254   9.374 -1.2468 -0.9974 -0.4089
  675MOL0     C93032   8.117  -0.378   9.301  0.1539  0.1638  0.0780
  675MOL0     C93033   8.235  -0.467   9.255 -0.1377  0.4477  0.4587
  675MOL0     C93034   8.191  -0.596   9.175 -0.3442  0.3232 -0.0570
  675MOL0     C93035   8.265  -0.718   9.229 -0.2222 -0.0306 -0.0212
  675MOL0     O93036   8.201  -0.773   9.341  0.0545 -0.1090  0.1184
  675MOL0     C93037   8.212  -0.727   9.469 -0.6629 -1.1691  0.2188
  675MOL0     C93038   8.335  -0.666   9.517  0.4953 -0.3962  0.4049
  675MOL0     C93039   8.334  -0.584   9.631  0.0813 -0.0733 -0.1272
  675MOL0     C93040   8.452  -0.507   9.672  0.0181 -0.9285  0.1731
  675MOL0     C93041   8.222  -0.587   9.719  0.0930  1.0435 -0.4380
  675MOL0     C93042   8.213  -0.519   9.855 -0.5680 -0.1200  0.1806
  675MOL0     O93043   8.160  -0.588   9.953 -0.2249 -0.4056 -0.0502
  675MOL0     C93044   8.159  -0.522  10.073 -0.6072  0.2745 -0.6740
  675MOL0     C93045   8.035  -0.462  10.109 -0.3178 -0.6504  0.4405
  675MOL0     C93046   8.027  -0.392  10.230  0.7644 -0.1001  0.8577
  675MOL0     C93047   8.134  -0.392  10.316  0.3356  0.2836  0.6004
  675MOL0     O93048   8.103  -0.336  10.432  0.0140  0.3023  0.0024
  675MOL0     C93049   8.211  -0.339  10.535 -0.3645 -0.3760 -0.4704
  675MOL0     C93050   8.149  -0.278  10.660  0.9913  0.1441  0.2659
  675MOL0     C93051   8.253  -0.266  10.775 -0.3703 -1.1398 -0.9572
  675MOL0     C93052   8.203  -0.198  10.907  0.1738  0.1142  0.7445
  675MOL0     C93053   8.266  -0.238  11.033 -0.3886 -0.1555 -0.1128
  675MOL0     C93054   8.189  -0.186  11.149  0.1140 -0.1305  0.6347
  675MOL0     C93055   8.252  -0.238  11.281  0.0462  0.2472  0.7213
  675MOL0     C93056   8.155  -0.245  11.396  0.1555 -0.1848 -0.2872
  675MOL0    Cl93057   8.100  -0.078  11.443  0.2097  0.0444 -0.4414
  675MOL0     C93058   8.260  -0.447  10.284  0.3427  0.5300  0.2901
  675MOL0     C93059   8.270  -0.512  10.158 -0.6415 -1.1864  0.0614
  675MOL0     O93060   8.259  -0.407   9.861 -0.2188  0.1178  0.0013
  675MOL0     C93061   8.112  -0.666   9.680  0.5052  0.1324 -0.6010
  675MOL0     C93062   8.111  -0.733   9.560  0.5803  0.2812  0.1286
  675MOL0     N93063   8.146  -0.115   9.339 -0.0484 -0.9785  0.1963
  675MOL0     N93064   8.206  -0.042   9.433 -1.2280  0.3237  0.5596
  675MOL0     C93065   7.603   0.297  10.426  0.3828  2.3042 -0.8856
  675MOL0     C93066   7.530   0.368  10.525 -0.1747 -0.9690  0.5846
  675MOL0     C93067   7.370   0.586  10.887  0.4260  0.4795 -0.4813
  675MOL0     C93068   7.264   0.528  10.951  0.3631 -0.5630  0.4458
  675MOL0     C93069   7.177   0.612  11.029  0.2319 -0.8709 -0.6329
  675MOL0     C93070   7.200   0.752  11.050 -1.1113  0.1119  0.7318
  675MOL0     O93071   7.115   0.821  11.128 -0.2248 -0.4062  0.1751
  675MOL0     C93072   7.178   0.908  11.220  0.2929  0.0547 -0.8742
  675MOL0     C93073   7.109   0.912  11.355  1.1047  0.6496 -0.0013
  675MOL0     C93074   7.062   0.774  11.405  0.4826  0.5877  0.2384
  675MOL0     C93075   7.181   0.675  11.422  0.4016 -0.6411  0.1500
  675MOL0     C93076   7.141   0.534  11.456 -0.8543  1.3660 -0.6784
  675MOL0     C93077   7.108   0.416  11.501  0.5166  0.1886  0.3545
  675MOL0     C93078   7.319   0.803  10.988 -0.2787  0.3065 -0.3835
  675MOL0     C93079   7.402   0.724  10.908 -1.0101  0.8104 -0.2261
  675MOL0     C93080   7.540   0.789  10.872  0.4339  0.4878 -0.5395
  675MOL0     H93081   7.785   0.523  10.688 -0.7055  1.0309 -1.0013
  675MOL0     H93082   7.914   0.376  10.537 -0.4219 -0.0352 -0.5997
  675MOL0     H93083   7.711   0.067  10.281 -1.0593  2.1567  1.7811
  675MOL0     H93084   7.817   0.061  10.431 -0.2265  0.8249  0.3988
  675MOL0     H93085   8.020   0.094  10.285 -0.0734 -1.8386  1.5605
  675MOL0     H93086   7.951  -0.053  10.255  0.1412  0.4661  1.2774
  675MOL0     H93087   7.814   0.059  10.061 -0.9689  2.6201  1.0675
  675MOL0     H93088   7.905   0.198  10.072 -1.5443 -0.3712 -2.3904
  675MOL0     H93089   8.121   0.060  10.065 -0.1624 -1.4496  0.7192
  675MOL0     H93090   8.039  -0.083  10.035  3.6827 -0.4589 -1.2839
  675MOL0     H93091   7.983   0.148   9.854 -3.0451 -1.5907  0.1249
  675MOL0     H93092   7.954  -0.024   9.823 -0.8106  3.0938 -1.0075
  675MOL0     H93093   8.132   0.087   9.697 -2.1880  0.6484  1.4029
  675MOL0     H93094   8.229   0.088   9.850  0.5115 -1.2705  0.2010
  675MOL0     H93095   8.100  -0.151   9.710  1.8331 -3.5890  1.2791
  675MOL0     H93096   8.222  -0.157   9.847  0.2445 -2.0850 -1.6502
  675MOL0     H93097   8.358  -0.005   9.667 -1.2458  0.5167  1.8826
  675MOL0     H93098   8.367  -0.186   9.686 -2.0581  0.4097  2.5874
  675MOL0     H93099   8.243  -0.348   9.558 -0.2235  0.1924 -1.1966
  675MOL0     H93100   8.054  -0.347   9.218 -1.2160 -3.0853 -0.2436
  675MOL0     H93101   8.061  -0.436   9.375 -0.7023 -0.1274 -0.7712
  675MOL0     H93102   8.309  -0.414   9.194 -0.1904 -2.1449 -2.0845
  675MOL0     H93103   8.283  -0.499   9.348 -3.5490 -3.0543  1.2744
  675MOL0     H93104   8.082  -0.606   9.173 -0.6427  2.4455  2.0349
  675MOL0     H93105   8.234  -0.584   9.075  0.4924 -3.5651 -0.3275
  675MOL0     H93106   8.273  -0.798   9.155 -1.0289 -0.5364  0.4119
  675MOL0     H93107   8.359  -0.683   9.272 -0.4906  0.9956 -0.2303
  675MOL0     H93108   8.425  -0.663   9.456  0.1991  3.9052 -0.0919
  675MOL0     H93109   8.489  -0.543   9.769 -0.0098  1.4990  1.1713
  675MOL0     H93110   8.429  -0.400   9.677 -1.3693 -1.2349  0.8933
  675MOL0     H93111   8.533  -0.518   9.600 -0.1279  0.0288 -0.1534
  675MOL0     H93112   7.960  -0.463  10.031  2.3436  2.3459 -2.4883
  675MOL0     H93113   7.936  -0.333  10.234  0.5641 -0.0629 -1.8456
  675MOL0     H93114   8.247  -0.437  10.567  1.5368  0.3144 -0.3761
  675MOL0     H93115   8.301  -0.292  10.495 -0.4322 -0.5462 -0.8307
  675MOL0     H93116   8.094  -0.185  10.644  2.2525  0.4756 -2.7018
  675MOL0     H93117   8.070  -0.349  10.686 -1.4239  1.9522 -1.6583
  675MOL0     H93118   8.333  -0.197  10.747  0.3243 -0.2499  2.6876
  675MOL0     H93119   8.291  -0.366  10.798 -2.6327 -2.4796 -2.6252
  675MOL0     H93120   8.096  -0.217  10.918  0.0003  0.6267  0.0647
  675MOL0     H93121   8.217  -0.090  10.890  0.7534 -0.3135 -2.0467
  675MOL0     H93122   8.274  -0.347  11.035  2.4764 -0.0985 -2.1157
  675MOL0     H93123   8.368  -0.201  11.049 -0.7591 -0.1764  3.0305
  675MOL0     H93124   8.082  -0.207  11.152  0.1456 -0.1513  2.0317
  675MOL0     H93125   8.201  -0.077  11.137  1.6903 -0.2198  1.1288
  675MOL0     H93126   8.346  -0.186  11.303  1.3829 -0.1096 -3.3735
  675MOL0     H93127   8.287  -0.339  11.257 -0.4311  0.5756 -1.5382
  675MOL0     H93128   8.210  -0.287  11.481  0.5947  0.0144 -0.4674
  675MOL0     H93129   8.064  -0.301  11.378  0.1520 -0.0160 -0.8171
  675MOL0     H93130   8.344  -0.435  10.352 -0.2155  1.1885  0.8920
  675MOL0     H93131   8.362  -0.560  10.127 -1.4861 -3.3397  0.6920
  675MOL0     H93132   8.021  -0.658   9.738  1.0376 -3.3792  0.9731
  675MOL0     H93133   8.035  -0.802   9.526  0.9837  2.4621 -6.6900
  675MOL0     H93134   7.554   0.223  10.363 -0.3079  1.9612  0.0256
  675MOL0     H93135   7.421   0.370  10.526 -0.1771 -1.2603  0.9167
  675MOL0     H93136   7.227   0.431  10.921  0.8248 -0.5695 -0.1168
  675MOL0     H93137   7.087   0.570  11.072  0.2187 -0.4052 -0.1890
  675MOL0     H93138   7.279   0.873  11.247 -0.2474 -1.1008 -0.2691
  675MOL0     H93139   7.177   1.011  11.183  0.9857 -0.2196 -1.6827
  675MOL0     H93140   7.016   0.970  11.352  1.4966  1.4031  1.4377
  675MOL0     H93141   7.162   0.971  11.431  0.3919  1.7821 -0.3522
  675MOL0     H93142   7.011   0.790  11.501 -0.6326 -1.7646  0.1114
  675MOL0     H93143   6.986   0.735  11.337  1.6346 -0.7314 -0.3565
  675MOL0     H93144   7.243   0.710  11.505 -1.1618 -0.7780  1.4148
  675MOL0     H93145   7.231   0.670  11.325  2.4870  3.7147  0.7960
  675MOL0     H93146   7.068   0.323  11.535  1.6024 -1.0105 -1.5035
  675MOL0     H93147   7.340   0.909  11.004  1.4421 -0.2620  1.5838
  675MOL0     H93148   7.537   0.839  10.775  2.7511  1.2179 -0.2786
  675MOL0     H93149   7.572   0.850  10.957  3.3721 -0.9236 -0.5251
  675MOL0     H93150   7.622   0.717  10.864 -0.5342 -0.6870 -0.3980
  676MOL0     O93151   2.654   5.669   3.943  0.0542 -0.7579 -0.4270
  676MOL0     C93152   2.680   5.635   4.059 -0.7039  0.4221 -0.2733
  676MOL0     O93153   2.658   5.707   4.176  0.0691 -0.8170  0.0803
  676MOL0     C93154   2.635   5.845   4.175  0.0068 -0.1599 -0.9166
  676MOL0     C93155   2.591   5.923   4.063 -0.5388  0.2645 -0.3290
  676MOL0     C93156   2.568   6.066   4.082  0.0111  0.3359  0.3318
  676MOL0     C93157   2.570   6.131   4.206  0.5228  0.8417 -0.1330
  676MOL0     O93158   2.510   6.250   4.226  0.5168  0.2604  0.3692
  676MOL0     C93159   2.601   6.354   4.222  0.1109  0.5914  0.7295
  676MOL0     C93160   2.546   6.459   4.316  0.7504  1.0139  0.0563
  676MOL0     C93161   2.626   6.579   4.316 -1.2024 -0.3715 -0.6330
  676MOL0     C93162   2.598   6.653   4.443 -0.6319 -0.5177  0.8607
  676MOL0     C93163   2.679   6.780   4.476 -0.6613 -0.5975  0.5610
  676MOL0     C93164   2.675   6.891   4.368 -0.2342  0.1471  0.3037
  676MOL0     C93165   2.760   7.016   4.405  0.2365 -0.9790 -0.3361
  676MOL0     C93166   2.761   7.117   4.284  0.9297 -0.1988  0.4860
  676MOL0     N93167   2.630   7.161   4.229 -0.7173 -0.5565 -0.1098
  676MOL0     C93168   2.535   7.229   4.295  1.2940 -0.5454 -0.8861
  676MOL0     C93169   2.437   7.252   4.201 -0.6181  0.5103  0.2355
  676MOL0     C93170   2.308   7.329   4.213 -0.9407  0.6684  0.1743
  676MOL0     C93171   2.303   7.459   4.295  0.0811 -0.6192 -0.1643
  676MOL0     C93172   2.325   7.585   4.212  0.2398 -0.5830 -0.1690
  676MOL0     C93173   2.273   7.715   4.275  0.1529 -0.4307 -0.0929
  676MOL0     O93174   2.368   7.782   4.356 -0.2588 -0.1425  0.1683
  676MOL0     C93175   2.404   7.760   4.488 -0.2888  0.4896  0.4273
  676MOL0     C93176   2.530   7.774   4.536 -0.9695  0.1640 -0.8746
  676MOL0     C93177   2.566   7.749   4.669  0.0750  0.2836 -0.6857
  676MOL0     C93178   2.710   7.768   4.707 -0.1469 -0.5093 -0.7788
  676MOL0     C93179   2.474   7.677   4.756 -0.0071  0.4268 -0.3613
  676MOL0     C93180   2.513   7.632   4.896 -0.0317 -0.0209  0.5080
  676MOL0     O93181   2.417   7.539   4.944  0.0550  0.1237 -1.1763
  676MOL0     C93182   2.437   7.502   5.077  1.1383 -0.3052  0.0576
  676MOL0     C93183   2.549   7.427   5.114  0.2733  0.3909  0.3279
  676MOL0     C93184   2.561   7.397   5.249 -0.6989  0.1979  0.4178
  676MOL0     C93185   2.463   7.428   5.339  0.1160  0.5921  0.0701
  676MOL0     O93186   2.477   7.420   5.476  0.3265 -0.0405 -0.2877
  676MOL0     C93187   2.601   7.376   5.533  0.4633  0.0945  0.3155
  676MOL0     C93188   2.615   7.223   5.537  0.3249  0.4008  0.2045
  676MOL0     C93189   2.749   7.186   5.599  0.5948 -0.1284 -0.5526
  676MOL0     C93190   2.753   7.034   5.619  0.5649  0.1498 -0.3656
  676MOL0     C93191   2.875   7.001   5.710  0.3363  0.0768  0.0353
  676MOL0     C93192   2.874   6.859   5.761 -0.1526 -0.4370 -0.0246
  676MOL0     C93193   2.899   6.745   5.654  0.7476  0.3015 -0.5109
  676MOL0     C93194   2.920   6.615   5.723  0.1057  0.8021  0.3864
  676MOL0    Cl93195   2.760   6.545   5.784 -0.8473  0.0192 -0.0992
  676MOL0     C93196   2.355   7.497   5.303 -0.1100 -0.5298  0.2258
  676MOL0     C93197   2.331   7.525   5.170  0.6139  0.2370 -0.0361
  676MOL0     O93198   2.609   7.686   4.959 -0.3771  0.4708  0.4737
  676MOL0     C93199   2.345   7.657   4.703  0.0014 -0.1859  0.2529
  676MOL0     C93200   2.309   7.708   4.575  0.0763  0.3985 -0.3227
  676MOL0     N93201   2.484   7.208   4.076 -0.1829 -0.2566  0.8706
  676MOL0     N93202   2.591   7.148   4.098  0.3820 -0.5297 -0.3411
  676MOL0     C93203   2.620   6.049   4.313  0.6182 -0.9166 -0.2251
  676MOL0     C93204   2.649   5.916   4.295 -0.8037  1.4243  0.0059
  676MOL0     C93205   2.736   5.495   4.074 -0.4523  0.4334 -0.0908
  676MOL0     C93206   2.760   5.451   4.205  0.1081  0.4884  0.4905
  676MOL0     C93207   2.826   5.332   4.221  0.1605 -0.0277 -0.3659
  676MOL0     C93208   2.831   5.238   4.124 -0.1291  0.4785 -0.5006
  676MOL0     O93209   2.882   5.111   4.164 -0.3585 -0.7212 -0.5468
  676MOL0     C93210   2.861   4.998   4.078 -1.1102  0.2206 -0.1359
  676MOL0     C93211   2.891   4.875   4.170 -0.7485 -0.5369  0.7529
  676MOL0     C93212   2.794   4.865   4.290  0.0130 -0.2243 -0.3366
  676MOL0     C93213   2.835   4.754   4.392  0.5809 -1.1052 -0.9569
  676MOL0     C93214   2.794   4.622   4.354  0.1045 -0.3661 -0.2304
  676MOL0     C93215   2.767   4.511   4.319  0.0834 -0.7073  0.4144
  676MOL0     C93216   2.793   5.269   3.992 -0.0645  0.5059  0.1261
  676MOL0     C93217   2.752   5.401   3.967  0.5856  0.6193 -0.0835
  676MOL0     C93218   2.711   5.434   3.827  0.1025  0.0763  0.3175
  676MOL0     H93219   2.579   5.880   3.964 -1.6567 -0.0882 -0.0498
  676MOL0     H93220   2.545   6.109   3.984  2.3347 -4.3373 -2.5973
  676MOL0     H93221   2.626   6.379   4.118  4.0101  3.0983  2.0624
  676MOL0     H93222   2.696   6.319   4.263  0.2281 -2.0844 -1.4823
  676MOL0     H93223   2.442   6.488   4.302  0.2263 -0.4020  0.7540
  676MOL0     H93224   2.544   6.405   4.412 -1.6496 -0.5710 -0.7935
  676MOL0     H93225   2.730   6.552   4.299 -0.7267  2.2518 -2.4355
  676MOL0     H93226   2.604   6.634   4.224  0.0439 -0.8860 -1.2629
  676MOL0     H93227   2.491   6.675   4.445 -1.0382 -1.5478 -2.5111
  676MOL0     H93228   2.622   6.584   4.524  0.1582 -0.6265  0.5402
  676MOL0     H93229   2.785   6.760   4.492 -0.4469  0.2379  0.2712
  676MOL0     H93230   2.636   6.823   4.567 -0.9529 -2.2238  1.2279
  676MOL0     H93231   2.715   6.852   4.274 -1.7369 -0.1220 -0.2492
  676MOL0     H93232   2.573   6.923   4.343  0.8701  2.9427 -1.0562
  676MOL0     H93233   2.863   6.988   4.428  0.9882  0.5769 -1.6222
  676MOL0     H93234   2.726   7.076   4.490  0.9964  2.9442 -2.5741
  676MOL0     H93235   2.821   7.203   4.316 -0.1947 -0.0612  2.3626
  676MOL0     H93236   2.811   7.071   4.198 -3.2820 -2.0370 -1.2503
  676MOL0     H93237   2.550   7.254   4.399 -0.2281 -0.4454 -0.6784
  676MOL0     H93238   2.236   7.264   4.265 -0.8769 -1.2527 -1.9921
  676MOL0     H93239   2.284   7.345   4.108  2.4235  1.5200 -0.6118
  676MOL0     H93240   2.202   7.463   4.337 -2.4285  1.7219 -5.4859
  676MOL0     H93241   2.385   7.461   4.368  1.4315  0.1681 -1.6273
  676MOL0     H93242   2.430   7.591   4.183 -0.4583 -0.5144 -2.9304
  676MOL0     H93243   2.272   7.584   4.117 -1.7844  0.2085  0.8758
  676MOL0     H93244   2.253   7.776   4.187  1.5172  0.9831  0.5298
  676MOL0     H93245   2.176   7.703   4.325 -0.2682  0.3132 -0.6993
  676MOL0     H93246   2.597   7.822   4.465 -2.6760  0.7867 -2.1241
  676MOL0     H93247   2.718   7.822   4.802  2.4088 -1.0606 -0.6080
  676MOL0     H93248   2.756   7.825   4.626 -1.2032  0.9959 -0.3721
  676MOL0     H93249   2.761   7.672   4.711  0.9845  0.0543 -1.3399
  676MOL0     H93250   2.627   7.399   5.043  1.9336  0.9409  1.8691
  676MOL0     H93251   2.650   7.338   5.268 -0.4618  0.2364 -0.5329
  676MOL0     H93252   2.683   7.436   5.492  2.6333 -0.8087  3.0070
  676MOL0     H93253   2.602   7.401   5.640  0.5841  0.6099  0.1930
  676MOL0     H93254   2.529   7.174   5.583  0.3190  0.5423  0.3441
  676MOL0     H93255   2.628   7.188   5.434  1.1225 -1.4872  0.9136
  676MOL0     H93256   2.776   7.242   5.689  1.5364  1.0618 -1.5395
  676MOL0     H93257   2.826   7.214   5.526  0.3116 -4.1816 -2.6490
  676MOL0     H93258   2.777   6.982   5.526 -0.9851 -0.7747 -0.2847
  676MOL0     H93259   2.659   7.002   5.667  0.6563  0.8190  0.2829
  676MOL0     H93260   2.969   7.020   5.657 -0.2556  0.1814 -0.9892
  676MOL0     H93261   2.869   7.074   5.792 -0.1451  0.4371 -0.3150
  676MOL0     H93262   2.777   6.854   5.811 -1.9580  2.1913 -2.8502
  676MOL0     H93263   2.942   6.868   5.846 -0.3912 -1.8258  0.3347
  676MOL0     H93264   2.984   6.771   5.590  0.6596  1.4621 -0.1728
  676MOL0     H93265   2.824   6.743   5.575  1.4631 -0.3181 -1.2006
  676MOL0     H93266   2.990   6.626   5.807  0.5169  2.5184 -0.1333
  676MOL0     H93267   2.978   6.557   5.651 -0.2965  1.0027 -0.0986
  676MOL0     H93268   2.286   7.528   5.381 -0.7196 -2.6827  0.6041
  676MOL0     H93269   2.237   7.572   5.141  0.0444  0.8151  2.5254
  676MOL0     H93270   2.271   7.598   4.757  1.7850 -2.9232 -0.0883
  676MOL0     H93271   2.210   7.675   4.547 -0.1445 -0.4151  1.3205
  676MOL0     H93272   2.633   6.086   4.414  1.5062 -0.7547 -0.3837
  676MOL0     H93273   2.689   5.860   4.379 -3.8816  1.0817  1.4045
  676MOL0     H93274   2.732   5.502   4.297  2.1394  0.8607  0.9502
  676MOL0     H93275   2.855   5.302   4.321  1.2644  1.4340 -0.2235
  676MOL0     H93276   2.762   4.992   4.033 -0.5692 -1.9011 -1.1580
  676MOL0     H93277   2.933   5.014   3.996  0.2439 -0.0014  0.9703
  676MOL0     H93278   2.995   4.871   4.205 -0.0290 -2.0597 -1.3790
  676MOL0     H93279   2.880   4.788   4.104 -0.4124 -0.7370  0.9633
  676MOL0     H93280   2.789   4.959   4.347 -4.3328  1.0196 -2.2832
  676MOL0     H93281   2.688   4.854   4.267 -1.0192  0.0914  3.5631
  676MOL0     H93282   2.779   4.772   4.484  3.0405 -2.0550  0.8503
  676MOL0     H93283   2.941   4.754   4.420  0.7972 -1.8486 -1.7341
  676MOL0     H93284   2.741   4.416   4.277  0.1755 -0.3885 -0.3849
  676MOL0     H93285   2.801   5.188   3.919  2.5300  0.1236  0.7325
  676MOL0     H93286   2.715   5.352   3.755 -1.3251  1.3261 -1.2633
  676MOL0     H93287   2.610   5.475   3.817  0.7768  1.2669 -2.6193
  676MOL0     H93288   2.779   5.513   3.794 -2.3063  1.7810 -0.7983
  677MOL0     O93289   4.136   2.222   5.722  0.7730  0.4162  0.3614
  677MOL0     C93290   4.086   2.193   5.832  0.1492 -0.7391 -0.1106
  677MOL0     O93291   4.130   2.103   5.923  0.6266 -0.1348  0.3843
  677MOL0     C93292   4.223   2.006   5.883  0.5817  0.1236 -1.1328
  677MOL0     C93293   4.294   1.946   5.993  0.0934  0.5508  0.1881
  677MOL0     C93294   4.393   1.860   5.971 -0.0416 -0.4471  0.6020
  677MOL0     C93295   4.429   1.821   5.837 -0.5750  0.3245  0.2578
  677MOL0     O93296   4.540   1.738   5.835  0.1866 -0.8545  0.1916
  677MOL0     C93297   4.578   1.664   5.720  0.4276 -0.2575 -0.4332
  677MOL0     C93298   4.708   1.590   5.745  0.2005  0.0600  0.8811
  677MOL0     C93299   4.730   1.520   5.883 -0.0625  1.0217  0.2767
  677MOL0     C93300   4.638   1.399   5.929 -0.2472 -0.1592 -0.0172
  677MOL0     C93301   4.647   1.349   6.073 -0.1395 -0.4643 -0.0289
  677MOL0     C93302   4.780   1.278   6.111 -0.5858  0.4288 -0.6292
  677MOL0     C93303   4.762   1.185   6.231  0.4159  0.7900  0.3855
  677MOL0     C93304   4.780   1.032   6.188  0.8078  1.0202 -0.2583
  677MOL0     N93305   4.745   0.959   6.313 -1.1916 -0.3541 -0.1157
  677MOL0     C93306   4.834   0.953   6.419 -0.8761 -0.3741  0.3983
  677MOL0     C93307   4.781   0.867   6.511 -0.9708  0.0757  0.1830
  677MOL0     C93308   4.843   0.827   6.644  0.0334  0.1927 -0.1569
  677MOL0     C93309   4.858   0.675   6.661  0.2330  0.6921 -0.1046
  677MOL0     C93310   4.932   0.599   6.551  0.1905  0.0477 -0.0228
  677MOL0     C93311   4.987   0.456   6.602 -0.3484 -0.3609 -0.0075
  677MOL0     O93312   5.131   0.472   6.607  0.2180 -0.4511 -1.4116
  677MOL0     C93313   5.206   0.364   6.641  0.0946  0.0296 -0.4378
  677MOL0     C93314   5.154   0.240   6.673  0.1423 -0.7484 -0.3824
  677MOL0     C93315   5.243   0.129   6.684  0.8978 -1.0654 -0.1726
  677MOL0     C93316   5.184  -0.001   6.709 -0.1211  0.2602 -0.3368
  677MOL0     C93317   5.387   0.146   6.666  0.3182  0.0738 -0.3427
  677MOL0     C93318   5.502   0.040   6.642  0.5174 -0.8634  0.0367
  677MOL0     O93319   5.476  -0.091   6.650 -0.1262 -0.3418 -0.1179
  677MOL0     C93320   5.580  -0.170   6.683 -0.1975  0.6891  0.4195
  677MOL0     C93321   5.693  -0.211   6.601 -0.5458 -0.6856 -0.0161
  677MOL0     C93322   5.793  -0.292   6.654  0.6687 -0.4153  0.3565
  677MOL0     C93323   5.797  -0.311   6.788  0.5202  1.2895 -0.1887
  677MOL0     O93324   5.894  -0.406   6.828  0.6186 -0.0987 -0.4052
  677MOL0     C93325   5.956  -0.367   6.957 -0.6883 -0.8044  0.0700
  677MOL0     C93326   5.950  -0.497   7.050 -0.5767 -0.4093 -0.0320
  677MOL0     C93327   5.956  -0.454   7.191 -0.5644 -1.1191 -0.7939
  677MOL0     C93328   5.965  -0.582   7.285 -0.3238 -0.4974  0.6558
  677MOL0     C93329   6.013  -0.562   7.433  0.5376  0.2677 -0.7734
  677MOL0     C93330   5.904  -0.522   7.528  0.7286  0.6370 -0.6572
  677MOL0     C93331   5.956  -0.516   7.670  0.0240 -0.2367 -0.0010
  677MOL0     C93332   5.883  -0.609   7.760 -0.4725  0.3062 -0.2745
  677MOL0    Cl93333   5.707  -0.542   7.788 -0.0887 -0.2773  0.3379
  677MOL0     C93334   5.688  -0.278   6.871 -0.1209 -0.9490 -0.7045
  677MOL0     C93335   5.577  -0.217   6.815 -0.7688 -0.6793  0.2853
  677MOL0     O93336   5.615   0.089   6.637  0.9665 -0.1160 -0.3796
  677MOL0     C93337   5.429   0.278   6.637  0.7976  0.2525 -0.9957
  677MOL0     C93338   5.338   0.385   6.625 -1.1961  0.4127  0.1850
  677MOL0     N93339   4.678   0.799   6.443  0.1745 -1.1419 -0.7165
  677MOL0     N93340   4.662   0.848   6.328 -0.1782 -0.0016  0.9329
  677MOL0     C93341   4.359   1.866   5.726 -0.3026 -0.0499  0.6860
  677MOL0     C93342   4.257   1.960   5.753  0.2017  0.0312 -0.4369
  677MOL0     C93343   3.975   2.282   5.874 -0.2635  0.3137 -0.7039
  677MOL0     C93344   3.901   2.349   5.773 -0.3889 -0.3056  0.1966
  677MOL0     C93345   3.806   2.446   5.808  0.0016 -0.0586  0.6779
  677MOL0     C93346   3.784   2.485   5.939 -0.7770  0.2665 -1.6978
  677MOL0     O93347   3.686   2.575   5.981  0.6411  0.1902 -0.7055
  677MOL0     C93348   3.592   2.641   5.886  0.8834  0.0878  1.0639
  677MOL0     C93349   3.474   2.711   5.950  0.1034 -1.2272 -0.2171
  677MOL0     C93350   3.364   2.637   6.010  0.1172 -0.0085 -0.4657
  677MOL0     C93351   3.255   2.725   6.058 -0.6013  0.6630  0.1816
  677MOL0     C93352   3.157   2.778   5.971  0.5911  0.7173  0.0965
  677MOL0     C93353   3.055   2.840   5.936 -0.6060  0.8330  0.8713
  677MOL0     C93354   3.846   2.425   6.048 -1.0180  0.4573 -0.0586
  677MOL0     C93355   3.947   2.327   6.015  0.4341  0.6672  0.0099
  677MOL0     C93356   4.002   2.252   6.139  0.3020 -0.5707 -0.7027
  677MOL0     H93357   4.285   1.973   6.098  1.0612  0.4516  0.3046
  677MOL0     H93358   4.435   1.816   6.061 -3.8622 -1.6133  2.0332
  677MOL0     H93359   4.599   1.730   5.635  0.9877  1.6678  1.1113
  677MOL0     H93360   4.497   1.595   5.695 -0.1631  0.4299 -0.4632
  677MOL0     H93361   4.696   1.501   5.681 -3.8195  0.4471  0.8090
  677MOL0     H93362   4.796   1.648   5.719 -1.4864  1.8830 -1.1891
  677MOL0     H93363   4.836   1.493   5.888  0.1216  1.4107 -1.1589
  677MOL0     H93364   4.720   1.599   5.958  1.9073  0.4259  1.2385
  677MOL0     H93365   4.539   1.444   5.922  0.1598  0.9099  0.8610
  677MOL0     H93366   4.630   1.318   5.856  0.9986  1.2341 -1.8244
  677MOL0     H93367   4.564   1.280   6.088  0.3322 -0.8828  0.7274
  677MOL0     H93368   4.631   1.430   6.145  1.4192 -2.8182  3.2691
  677MOL0     H93369   4.823   1.224   6.026 -2.8944 -3.3368  0.3820
  677MOL0     H93370   4.848   1.363   6.127 -1.8703  2.4932 -4.7346
  677MOL0     H93371   4.664   1.212   6.272 -1.5290 -0.1556 -3.2049
  677MOL0     H93372   4.843   1.214   6.298  0.8093  1.1407 -0.2257
  677MOL0     H93373   4.715   1.008   6.104  0.2567  0.2648  0.3638
  677MOL0     H93374   4.886   1.021   6.162  0.9459  1.4933  0.0736
  677MOL0     H93375   4.925   1.010   6.435 -0.8186 -0.8955  2.1599
  677MOL0     H93376   4.785   0.861   6.730  0.6774 -0.5929  0.6164
  677MOL0     H93377   4.943   0.869   6.660 -1.1567  2.5778  1.5597
  677MOL0     H93378   4.904   0.648   6.757  0.7149 -1.0678 -0.7790
  677MOL0     H93379   4.758   0.633   6.664 -0.7682  2.9795  2.4209
  677MOL0     H93380   4.869   0.575   6.465 -1.0200  0.9067  0.6021
  677MOL0     H93381   5.016   0.662   6.520 -0.7894  2.2273  1.5236
  677MOL0     H93382   4.938   0.427   6.696 -5.3092  3.0542 -1.0974
  677MOL0     H93383   4.970   0.382   6.524 -0.6631 -0.2034 -0.0920
  677MOL0     H93384   5.051   0.209   6.688  0.1863 -3.1235 -3.8273
  677MOL0     H93385   5.095   0.008   6.770  0.6461 -1.5831  1.1573
  677MOL0     H93386   5.259  -0.058   6.764  0.5164 -0.5368 -1.9398
  677MOL0     H93387   5.146  -0.041   6.614 -2.0333 -1.0093  0.9094
  677MOL0     H93388   5.703  -0.187   6.496  2.3035 -1.8430 -0.0907
  677MOL0     H93389   5.872  -0.346   6.603  0.5167 -0.3178  0.0190
  677MOL0     H93390   6.058  -0.335   6.939 -0.2672 -2.1494 -0.0384
  677MOL0     H93391   5.897  -0.288   7.006 -1.8411 -1.3432 -0.4087
  677MOL0     H93392   5.856  -0.552   7.047 -0.5128 -0.7480  2.3499
  677MOL0     H93393   6.036  -0.563   7.040  0.2888  0.9132 -1.8805
  677MOL0     H93394   5.870  -0.391   7.215 -1.8090 -2.7302 -0.8598
  677MOL0     H93395   6.038  -0.384   7.209  0.3706 -1.7706 -2.3125
  677MOL0     H93396   6.032  -0.659   7.246  0.6179  1.6915 -2.4339
  677MOL0     H93397   5.861  -0.618   7.285 -0.6442 -0.0516 -3.5297
  677MOL0     H93398   6.053  -0.657   7.468 -0.1321 -0.0798 -0.9229
  677MOL0     H93399   6.100  -0.496   7.429  0.0595  0.8717 -1.8454
  677MOL0     H93400   5.811  -0.580   7.522  1.9207 -1.5041  0.4241
  677MOL0     H93401   5.877  -0.417   7.512 -0.2368  0.5631  0.3182
  677MOL0     H93402   5.942  -0.414   7.705 -1.8238 -0.4555  0.0074
  677MOL0     H93403   6.064  -0.528   7.660  0.0170  1.4408 -3.3153
  677MOL0     H93404   5.928  -0.623   7.859 -5.2140 -0.8569  2.0325
  677MOL0     H93405   5.870  -0.713   7.726  0.1495  0.0722  0.1790
  677MOL0     H93406   5.677  -0.318   6.972 -2.0720  1.4509  0.1372
  677MOL0     H93407   5.494  -0.193   6.881  0.2793  1.0172  1.0606
  677MOL0     H93408   5.531   0.307   6.616  1.0504 -0.0622 -0.2561
  677MOL0     H93409   5.369   0.480   6.584  1.1620 -1.2832 -2.3491
  677MOL0     H93410   4.382   1.835   5.624  2.3514  3.4388  0.0602
  677MOL0     H93411   4.209   2.016   5.674  0.0087  0.8364  0.2323
  677MOL0     H93412   3.925   2.338   5.668 -1.1462  2.0326 -0.2709
  677MOL0     H93413   3.741   2.492   5.735  1.1869  0.4492 -0.1001
  677MOL0     H93414   3.645   2.717   5.827  0.1207 -0.8679 -0.9568
  677MOL0     H93415   3.552   2.576   5.808 -1.8268  0.2322  2.2157
  677MOL0     H93416   3.429   2.773   5.872 -3.9799 -2.5727  0.7875
  677MOL0     H93417   3.510   2.771   6.033 -0.7145 -3.3361  1.7725
  677MOL0     H93418   3.337   2.572   5.927 -0.7341 -0.0323 -0.1848
  677MOL0     H93419   3.403   2.574   6.091 -0.0088 -0.2065 -0.5582
  677MOL0     H93420   3.304   2.802   6.118  1.0348 -0.9084  0.9592
  677MOL0     H93421   3.184   2.666   6.118  0.8964 -2.3788 -0.8262
  677MOL0     H93422   2.966   2.895   5.913  0.0881  0.4847 -3.5205
  677MOL0     H93423   3.808   2.439   6.148  1.3850 -1.6384  1.2533
  677MOL0     H93424   3.963   2.150   6.145 -0.5342 -0.3728 -2.3149
  677MOL0     H93425   4.110   2.257   6.121  0.3302  1.8418 -0.1462
  677MOL0     H93426   3.985   2.305   6.234 -0.7440 -2.7006  0.3766
  678MOL0     O93427   3.039   8.913   4.636  0.3718 -0.0152 -0.0141
  678MOL0     C93428   2.929   8.862   4.623  0.0357  0.1168  1.3180
  678MOL0     O93429   2.871   8.786   4.721 -0.0376 -0.0583  0.2760
  678MOL0     C93430   2.931   8.797   4.846  0.5105  1.2000 -0.1128
  678MOL0     C93431   2.917   8.911   4.925 -0.3851 -0.1136  0.3093
  678MOL0     C93432   2.964   8.912   5.050 -0.1201 -0.9920  0.7726
  678MOL0     C93433   3.044   8.807   5.104 -0.7403 -0.7550  0.2892
  678MOL0     O93434   3.083   8.792   5.234  0.5393 -0.0333  0.0505
  678MOL0     C93435   3.084   8.904   5.331 -0.5761 -0.6553  0.4701
  678MOL0     C93436   3.209   8.987   5.310 -0.1388 -0.9117 -0.1566
  678MOL0     C93437   3.230   9.063   5.442 -0.1012  0.1960  0.1742
  678MOL0     C93438   3.353   9.152   5.436 -0.0425 -0.7217 -0.4081
  678MOL0     C93439   3.384   9.223   5.566 -0.2497  0.1839  0.0151
  678MOL0     C93440   3.275   9.322   5.605  0.1782  0.2007  0.2952
  678MOL0     C93441   3.312   9.393   5.738  0.3375  0.5030  0.4156
  678MOL0     C93442   3.453   9.461   5.736  0.2542 -0.1449  0.0457
  678MOL0     N93443   3.468   9.532   5.863  0.0603  0.3469 -0.8975
  678MOL0     C93444   3.413   9.653   5.887 -0.7867 -0.4645  0.3763
  678MOL0     C93445   3.452   9.684   6.015 -0.5490 -0.6408 -0.6125
  678MOL0     C93446   3.426   9.820   6.082  0.1793 -0.5035 -0.4559
  678MOL0     C93447   3.455   9.946   5.992 -0.8836 -0.3756 -0.0031
  678MOL0     C93448   3.607   9.965   5.960  0.9090 -0.7658  0.6938
  678MOL0     C93449   3.638  10.072   5.851  0.3986 -0.2622  0.7174
  678MOL0     O93450   3.564  10.055   5.727 -0.0090  0.3795  0.1715
  678MOL0     C93451   3.572   9.930   5.657 -0.3131 -0.1906  0.5549
  678MOL0     C93452   3.472   9.888   5.570 -0.1687  0.2913 -0.9455
  678MOL0     C93453   3.486   9.772   5.497  0.1933 -0.0893  0.4870
  678MOL0     C93454   3.369   9.739   5.402  0.0611 -0.1588  0.0498
  678MOL0     C93455   3.607   9.689   5.514  0.6888 -1.1579 -0.2309
  678MOL0     C93456   3.630   9.575   5.434 -0.1892 -0.0517  0.0415
  678MOL0     O93457   3.608   9.577   5.297 -0.5047 -0.3121 -0.8485
  678MOL0     C93458   3.596   9.467   5.230  0.2987 -0.4612  0.6603
  678MOL0     C93459   3.663   9.339   5.244 -0.1348  0.1255  1.0137
  678MOL0     C93460   3.641   9.222   5.165 -0.3641  0.2814 -0.2578
  678MOL0     C93461   3.541   9.225   5.071  0.2622 -0.0182 -0.6358
  678MOL0     O93462   3.520   9.114   4.992 -0.2059 -0.0728 -0.5020
  678MOL0     C93463   3.524   8.991   5.065  0.5313 -0.1363 -0.4045
  678MOL0     C93464   3.429   8.891   4.994 -0.1855  1.4198 -0.1811
  678MOL0     C93465   3.453   8.756   5.067  0.0270 -0.8440  0.2863
  678MOL0     C93466   3.585   8.691   5.002  0.0781  0.8035  0.1611
  678MOL0     C93467   3.654   8.593   5.092  0.6222 -0.6394 -0.6905
  678MOL0     C93468   3.757   8.518   5.013 -0.2589  1.0152 -0.3571
  678MOL0     C93469   3.711   8.426   4.903  0.2150  0.0166 -0.3842
  678MOL0     C93470   3.800   8.313   4.861 -0.2978 -0.0388 -0.4996
  678MOL0    Cl93471   3.951   8.377   4.801  0.3203  0.1090 -0.2721
  678MOL0     C93472   3.471   9.350   5.045 -0.4668  0.6748  0.0654
  678MOL0     C93473   3.503   9.465   5.119 -0.1986 -0.0604  0.4106
  678MOL0     O93474   3.683   9.486   5.492 -0.3043  0.4474 -0.7085
  678MOL0     C93475   3.705   9.736   5.594 -0.1234  0.1569 -0.1295
  678MOL0     C93476   3.690   9.858   5.665  0.1949 -0.1246  0.1558
  678MOL0     N93477   3.485   9.563   6.077 -1.0155  0.3343  0.0830
  678MOL0     N93478   3.506   9.478   5.979 -0.0108  0.0008 -0.8314
  678MOL0     C93479   3.072   8.697   5.023  0.0773 -0.4420 -0.1354
  678MOL0     C93480   3.020   8.697   4.890 -0.2821  1.0299 -0.2067
  678MOL0     C93481   2.833   8.908   4.513 -1.1979  0.0674 -0.5402
  678MOL0     C93482   2.703   8.930   4.550  0.4918  0.3096  0.2228
  678MOL0     C93483   2.603   8.955   4.458 -0.5796 -0.4390  0.8119
  678MOL0     C93484   2.634   8.960   4.317 -0.6863 -0.7062  0.5459
  678MOL0     O93485   2.558   8.984   4.211  0.0122  0.1039  0.3418
  678MOL0     C93486   2.417   9.006   4.234  0.2947  0.3093 -0.0628
  678MOL0     C93487   2.338   8.880   4.256  0.5966  0.5592  0.7528
  678MOL0     C93488   2.201   8.889   4.324  0.4181  0.7191  0.4376
  678MOL0     C93489   2.112   9.006   4.297  0.1598 -0.8741  0.0598
  678MOL0     C93490   2.009   8.975   4.196 -0.2829 -0.6448 -0.3147
  678MOL0     C93491   1.913   8.954   4.122 -0.2391 -0.0405  0.1251
  678MOL0     C93492   2.766   8.937   4.288 -0.2851 -0.3729  0.0756
  678MOL0     C93493   2.867   8.909   4.384 -0.0560 -0.6276  0.4496
  678MOL0     C93494   3.005   8.885   4.334  0.0911  0.3870 -0.7793
  678MOL0     H93495   2.867   9.003   4.898 -1.5117  0.2900  3.3931
  678MOL0     H93496   2.937   8.990   5.121 -0.6474  0.2987 -0.8014
  678MOL0     H93497   3.072   8.874   5.436  0.2286  0.8660  1.0277
  678MOL0     H93498   2.999   8.972   5.319  0.6331  0.7081 -0.7333
  678MOL0     H93499   3.292   8.920   5.286 -0.0392 -0.9414  0.2540
  678MOL0     H93500   3.213   9.053   5.223  4.1448 -0.2768  0.3044
  678MOL0     H93501   3.140   9.124   5.453 -1.2935 -1.2029 -1.2465
  678MOL0     H93502   3.238   8.997   5.529 -1.1876 -0.5028 -0.2311
  678MOL0     H93503   3.444   9.095   5.416 -0.5245 -0.3680 -4.4040
  678MOL0     H93504   3.342   9.225   5.355  1.1860 -1.0073 -0.8509
  678MOL0     H93505   3.480   9.274   5.553  0.2270 -1.0333 -1.4946
  678MOL0     H93506   3.400   9.139   5.634 -0.1695  1.1203  1.1964
  678MOL0     H93507   3.265   9.394   5.523  3.5295  0.6697  0.1496
  678MOL0     H93508   3.185   9.262   5.620 -0.4055  0.6487 -1.2071
  678MOL0     H93509   3.338   9.318   5.813 -0.1495  2.6266  2.8444
  678MOL0     H93510   3.231   9.453   5.780 -1.1336 -4.0541  5.0574
  678MOL0     H93511   3.530   9.385   5.719  0.6320  0.7797 -2.8612
  678MOL0     H93512   3.457   9.531   5.652 -0.4053  2.4130  2.0229
  678MOL0     H93513   3.370   9.709   5.805  6.1027  2.1096 -2.1807
  678MOL0     H93514   3.492   9.833   6.168  1.9627  1.3119 -2.0056
  678MOL0     H93515   3.322   9.832   6.114  0.7994  0.2090  1.3983
  678MOL0     H93516   3.401   9.934   5.898  0.4164  2.6777 -1.2611
  678MOL0     H93517   3.412  10.030   6.045  2.2080  0.9776  0.6022
  678MOL0     H93518   3.664   9.994   6.049  1.2778 -1.4566  0.6872
  678MOL0     H93519   3.654   9.872   5.927  0.5100 -0.4354 -0.8981
  678MOL0     H93520   3.599  10.159   5.905 -3.1232  0.3496 -2.4408
  678MOL0     H93521   3.746  10.083   5.839  0.4325 -1.5495 -0.4262
  678MOL0     H93522   3.383   9.948   5.579 -0.0783  0.1599  1.4827
  678MOL0     H93523   3.274   9.762   5.452 -0.9108 -2.1917 -0.7639
  678MOL0     H93524   3.372   9.637   5.363  2.6442  0.0012 -0.3938
  678MOL0     H93525   3.399   9.805   5.320  0.8905 -0.1321  0.3622
  678MOL0     H93526   3.745   9.330   5.315  0.7947  0.3225  0.0022
  678MOL0     H93527   3.698   9.140   5.208  0.9823  1.3596  0.0806
  678MOL0     H93528   3.623   8.945   5.068  0.1405 -1.1465  3.9531
  678MOL0     H93529   3.489   8.993   5.169  2.2645 -1.6831  0.2659
  678MOL0     H93530   3.324   8.919   5.002 -0.8886 -1.1195  0.5291
  678MOL0     H93531   3.447   8.888   4.886 -1.7033  4.2325 -0.5895
  678MOL0     H93532   3.364   8.693   5.051  0.2261 -1.8109  2.6449
  678MOL0     H93533   3.453   8.771   5.175  0.9264  1.9077 -0.0255
  678MOL0     H93534   3.665   8.757   4.968 -2.0537  1.5720 -4.1826
  678MOL0     H93535   3.548   8.638   4.913  0.7521 -0.1283  0.4204
  678MOL0     H93536   3.684   8.656   5.175 -2.9171  0.1858  0.1542
  678MOL0     H93537   3.578   8.524   5.130 -0.2301  0.6925  0.1141
  678MOL0     H93538   3.820   8.466   5.085 -0.2174 -2.2586 -2.5552
  678MOL0     H93539   3.827   8.586   4.963  1.4984 -0.4690 -0.0047
  678MOL0     H93540   3.686   8.493   4.820 -1.9283  0.3366  0.4497
  678MOL0     H93541   3.614   8.389   4.936 -0.3342  2.3408  0.8347
  678MOL0     H93542   3.752   8.239   4.797  1.2111 -1.6087  0.0991
  678MOL0     H93543   3.815   8.243   4.944 -2.7068 -2.8270 -2.2005
  678MOL0     H93544   3.405   9.358   4.960  0.9065  2.5541 -0.8947
  678MOL0     H93545   3.457   9.561   5.099 -1.6721 -0.1443  2.9458
  678MOL0     H93546   3.794   9.675   5.606 -0.7239 -0.8429 -0.6039
  678MOL0     H93547   3.774   9.870   5.733 -0.4764 -2.3788  1.4883
  678MOL0     H93548   3.140   8.620   5.059 -0.1378 -0.2273  0.7738
  678MOL0     H93549   3.051   8.616   4.825  2.5627  1.9414 -0.1364
  678MOL0     H93550   2.672   8.925   4.654  1.0913  2.0950  0.5110
  678MOL0     H93551   2.503   8.970   4.497 -0.6054  3.2867 -0.3295
  678MOL0     H93552   2.414   9.069   4.323  1.1911  2.0432 -1.1857
  678MOL0     H93553   2.372   9.070   4.157 -1.1321  0.2445  0.7038
  678MOL0     H93554   2.411   8.824   4.315  3.1351  2.5346 -0.3501
  678MOL0     H93555   2.325   8.838   4.156  1.6611  0.1291  0.7909
  678MOL0     H93556   2.146   8.796   4.307  1.7155 -1.0280  4.5142
  678MOL0     H93557   2.223   8.894   4.431  0.0242  1.5725  0.4909
  678MOL0     H93558   2.177   9.088   4.263 -1.3835 -0.8096 -3.1781
  678MOL0     H93559   2.059   9.033   4.388 -4.7878  0.8466 -2.9361
  678MOL0     H93560   1.832   8.924   4.059  0.9708  0.7075 -1.8636
  678MOL0     H93561   2.799   8.937   4.185 -1.4706 -1.7558 -0.3407
  678MOL0     H93562   3.073   8.968   4.354 -0.1906  0.7452 -1.3024
  678MOL0     H93563   3.050   8.799   4.384  0.2966 -0.7340 -2.8273
  678MOL0     H93564   3.010   8.873   4.226  2.1241  1.9516 -0.9330
  679MOL0     O93565   1.918   7.380   8.154 -0.2163 -0.3840  0.4002
  679MOL0     C93566   1.875   7.404   8.039  0.6781  0.1104 -0.4531
  679MOL0     O93567   1.888   7.317   7.929  0.1039  0.8032 -0.0409
  679MOL0     C93568   1.907   7.191   7.966  0.3293  0.6834  0.3350
  679MOL0     C93569   2.026   7.137   8.027  0.1883 -0.3030  0.7205
  679MOL0     C93570   2.030   7.001   8.064 -0.4860  0.0960  0.2011
  679MOL0     C93571   1.923   6.909   8.024  0.7107 -0.6234  0.3659
  679MOL0     O93572   1.922   6.771   8.061  0.2092 -0.7081 -0.3230
  679MOL0     C93573   2.047   6.708   8.059  0.4945 -0.5991 -1.1488
  679MOL0     C93574   2.118   6.687   7.929 -0.2964  0.6677  0.1356
  679MOL0     C93575   2.031   6.624   7.820 -0.9087 -0.9883  0.4454
  679MOL0     C93576   2.127   6.590   7.713  1.1106  0.0653  0.4163
  679MOL0     C93577   2.078   6.505   7.595 -0.5972 -0.0166  0.5982
  679MOL0     C93578   2.030   6.365   7.623 -0.9608  0.2709 -0.4693
  679MOL0     C93579   1.879   6.364   7.658  0.3095 -0.2032 -0.1685
  679MOL0     C93580   1.818   6.232   7.640  0.1729  0.1620  0.8082
  679MOL0     N93581   1.684   6.229   7.684 -0.8627  0.5522  0.4383
  679MOL0     C93582   1.574   6.276   7.606  0.3672  0.4635 -0.6471
  679MOL0     C93583   1.466   6.220   7.668 -1.1768 -0.6034 -0.0724
  679MOL0     C93584   1.327   6.259   7.637  0.9908  0.3468 -0.3216
  679MOL0     C93585   1.232   6.135   7.615  0.6110 -0.3546  0.1506
  679MOL0     C93586   1.266   6.078   7.476 -0.8185  0.1071  0.4452
  679MOL0     C93587   1.202   5.934   7.454  0.2128  0.4052 -0.1314
  679MOL0     O93588   1.255   5.872   7.334 -1.0975 -0.3484 -0.6066
  679MOL0     C93589   1.177   5.791   7.255 -0.7958 -0.3931  0.6907
  679MOL0     C93590   1.225   5.768   7.122 -0.0186 -0.2122  0.0541
  679MOL0     C93591   1.138   5.725   7.012 -0.0852  0.7563  0.1251
  679MOL0     C93592   1.201   5.714   6.872 -0.0803  0.2513 -0.5223
  679MOL0     C93593   1.004   5.690   7.038  0.5444  0.7318 -0.2680
  679MOL0     C93594   0.901   5.631   6.951 -0.2048 -0.3677 -0.4306
  679MOL0     O93595   0.793   5.569   6.998 -0.4802 -0.5148 -0.3322
  679MOL0     C93596   0.691   5.530   6.914  0.4178  0.9013 -0.0254
  679MOL0     C93597   0.667   5.390   6.893 -0.3751 -0.0490  0.5000
  679MOL0     C93598   0.550   5.349   6.830  0.5210 -0.0229 -0.2607
  679MOL0     C93599   0.448   5.439   6.778  0.0512  0.2403  0.1574
  679MOL0     O93600   0.336   5.402   6.719 -0.4479  0.5526 -0.7385
  679MOL0     C93601   0.320   5.263   6.682 -0.1369 -0.2570 -0.0311
  679MOL0     C93602   0.242   5.187   6.778  0.0063 -0.5664 -0.7057
  679MOL0     C93603   0.186   5.053   6.727 -0.4187  0.8681 -0.0979
  679MOL0     C93604   0.298   4.967   6.661  0.1981  0.1707  0.1989
  679MOL0     C93605   0.259   4.824   6.657 -0.1302 -0.1972 -0.8744
  679MOL0     C93606   0.298   4.759   6.797 -0.4515  0.7593  0.2952
  679MOL0     C93607   0.296   4.605   6.791 -0.8321  0.6894  0.3934
  679MOL0     C93608   0.443   4.560   6.760 -0.3014  0.3492  0.0773
  679MOL0    Cl93609   0.424   4.393   6.697  0.1254 -0.0914 -0.2195
  679MOL0     C93610   0.476   5.570   6.796 -0.9658 -0.4799 -0.3973
  679MOL0     C93611   0.593   5.615   6.861  0.4545  0.5542 -0.0549
  679MOL0     O93612   0.928   5.625   6.830 -0.5211 -0.4102 -0.6691
  679MOL0     C93613   0.962   5.692   7.173  1.0216 -0.7445 -0.5869
  679MOL0     C93614   1.046   5.745   7.278  1.3597 -0.4144 -0.2575
  679MOL0     N93615   1.504   6.144   7.774 -0.3388 -0.1166 -0.3385
  679MOL0     N93616   1.633   6.149   7.781  0.0618 -0.0973 -0.3966
  679MOL0     C93617   1.810   6.964   7.963  0.4135  0.1627  0.7672
  679MOL0     C93618   1.798   7.104   7.952  0.1112  0.0222  0.8699
  679MOL0     C93619   1.813   7.538   8.009 -0.4246 -0.4249  0.2500
  679MOL0     C93620   1.793   7.573   7.877 -0.4046  0.1786  0.1195
  679MOL0     C93621   1.736   7.692   7.840 -0.7824 -0.4055 -0.4874
  679MOL0     C93622   1.697   7.785   7.924  0.3657 -0.1690 -0.3381
  679MOL0     O93623   1.639   7.897   7.873 -0.2182  0.8769 -0.3147
  679MOL0     C93624   1.593   8.001   7.964 -0.0156  0.3103  0.9197
  679MOL0     C93625   1.521   8.105   7.894 -0.1805  0.0052 -0.7981
  679MOL0     C93626   1.539   8.241   7.963 -0.7406 -0.0320 -0.2356
  679MOL0     C93627   1.454   8.355   7.897  0.0806  0.3772 -0.0356
  679MOL0     C93628   1.429   8.456   8.002  0.1299 -0.7776 -0.7673
  679MOL0     C93629   1.399   8.555   8.073 -0.2921  0.5833 -0.9433
  679MOL0     C93630   1.720   7.758   8.055  0.4543  0.0510  0.1997
  679MOL0     C93631   1.778   7.638   8.100  0.2430 -0.5471  0.3128
  679MOL0     C93632   1.807   7.639   8.242 -0.4935 -0.2683 -0.6350
  679MOL0     H93633   2.094   7.219   8.051 -1.5143  0.4455  3.5625
  679MOL0     H93634   2.112   6.958   8.120 -1.2629 -1.2639  0.3270
  679MOL0     H93635   2.031   6.611   8.107  1.1530  0.6436  1.7889
  679MOL0     H93636   2.127   6.755   8.116 -1.4926  1.6619 -0.0893
  679MOL0     H93637   2.154   6.784   7.896  2.0628 -0.4935 -0.9397
  679MOL0     H93638   2.210   6.628   7.938 -0.7389  0.0336  0.6552
  679MOL0     H93639   1.983   6.530   7.848  1.2235 -2.3357 -0.2855
  679MOL0     H93640   1.960   6.700   7.786  1.0329 -0.3157 -2.4117
  679MOL0     H93641   2.160   6.683   7.666 -0.2831 -0.2395 -1.2653
  679MOL0     H93642   2.216   6.542   7.756  2.4667  2.2826  0.2120
  679MOL0     H93643   2.165   6.502   7.528 -1.9452 -0.0755 -1.2239
  679MOL0     H93644   1.994   6.543   7.535 -3.0843 -1.2572  3.0865
  679MOL0     H93645   2.052   6.309   7.532 -1.1833  2.0521 -1.6438
  679MOL0     H93646   2.075   6.319   7.712 -0.3075  1.0548 -0.3834
  679MOL0     H93647   1.823   6.435   7.597 -3.5107  0.4628  3.5898
  679MOL0     H93648   1.866   6.393   7.763  2.0813 -1.2688  0.3739
  679MOL0     H93649   1.809   6.202   7.535 -0.7732  2.7543  0.0615
  679MOL0     H93650   1.879   6.147   7.673  0.5173 -0.6182 -1.5774
  679MOL0     H93651   1.566   6.345   7.523 -0.6871 -2.0670 -2.8098
  679MOL0     H93652   1.317   6.328   7.553  0.3011  0.4985 -0.1200
  679MOL0     H93653   1.281   6.317   7.717 -1.5040  0.6326 -1.8270
  679MOL0     H93654   1.247   6.055   7.688  1.7058 -0.8275 -0.5632
  679MOL0     H93655   1.128   6.169   7.611  1.6246  2.9016 -1.7341
  679MOL0     H93656   1.219   6.138   7.398 -2.1625  1.5174  2.2444
  679MOL0     H93657   1.371   6.068   7.447 -0.7835  1.1064  0.2028
  679MOL0     H93658   1.232   5.869   7.536  1.5620  0.1709 -0.7762
  679MOL0     H93659   1.094   5.944   7.443  0.3516  0.5885 -1.6493
  679MOL0     H93660   1.320   5.812   7.094 -0.5472 -0.7287 -2.9014
  679MOL0     H93661   1.309   5.731   6.881  0.3061 -2.2922  0.6950
  679MOL0     H93662   1.141   5.786   6.817  1.6483  2.1591 -0.0175
  679MOL0     H93663   1.184   5.613   6.832 -0.3136  0.6066 -1.3588
  679MOL0     H93664   0.734   5.327   6.951  2.6007  1.8906 -0.5782
  679MOL0     H93665   0.540   5.241   6.829  1.9597 -0.1700 -0.7019
  679MOL0     H93666   0.264   5.277   6.589 -0.6142  3.1616  0.6342
  679MOL0     H93667   0.419   5.221   6.665  0.9673  1.5940  1.3330
  679MOL0     H93668   0.306   5.173   6.865 -0.8066 -0.3761 -0.0611
  679MOL0     H93669   0.160   5.252   6.811 -1.3395 -1.7454 -1.6111
  679MOL0     H93670   0.105   5.080   6.659  0.2301  2.9197 -0.1453
  679MOL0     H93671   0.146   4.999   6.814  3.8119 -0.0380  1.5173
  679MOL0     H93672   0.385   4.978   6.726 -1.8234 -0.1480  3.1792
  679MOL0     H93673   0.316   5.011   6.563 -1.1858  2.8169  1.0394
  679MOL0     H93674   0.154   4.800   6.639 -0.5431 -0.2188  1.2915
  679MOL0     H93675   0.323   4.789   6.576 -3.1396  0.8197 -3.9336
  679MOL0     H93676   0.222   4.786   6.872 -0.2010  1.9550  0.1426
  679MOL0     H93677   0.391   4.802   6.836 -1.5390  3.1438  0.4416
  679MOL0     H93678   0.233   4.566   6.710  1.0248 -1.6771 -0.0413
  679MOL0     H93679   0.274   4.562   6.889  1.2157  1.6928  1.3534
  679MOL0     H93680   0.506   4.563   6.849  1.3527 -1.8099 -0.9448
  679MOL0     H93681   0.487   4.631   6.690 -2.1851  1.2618 -0.2510
  679MOL0     H93682   0.406   5.641   6.754  2.7221  1.9913 -3.0280
  679MOL0     H93683   0.591   5.723   6.866 -0.6923  0.5781 -0.7776
  679MOL0     H93684   0.867   5.655   7.208  1.7813 -1.2431  1.0628
  679MOL0     H93685   1.006   5.748   7.379  1.2337 -2.8210 -0.1785
  679MOL0     H93686   1.724   6.901   7.945 -2.4026  3.0438  2.9444
  679MOL0     H93687   1.701   7.145   7.928 -0.1512 -0.6137  0.8322
  679MOL0     H93688   1.798   7.508   7.790 -2.9698  0.1596 -0.0955
  679MOL0     H93689   1.712   7.708   7.735 -1.0544  1.3158 -0.1915
  679MOL0     H93690   1.527   7.954   8.039  0.7767 -1.5239  0.5328
  679MOL0     H93691   1.682   8.043   8.012  1.9178 -4.1393  1.7957
  679MOL0     H93692   1.417   8.069   7.897 -0.1566 -0.0949  3.0908
  679MOL0     H93693   1.558   8.123   7.792 -0.2979  2.5042 -0.4669
  679MOL0     H93694   1.530   8.216   8.069 -3.0370 -0.0494 -0.3823
  679MOL0     H93695   1.637   8.288   7.950 -1.7883  2.2705 -0.2802
  679MOL0     H93696   1.367   8.306   7.853  0.4902 -1.2144  0.8272
  679MOL0     H93697   1.509   8.398   7.813  2.1743  0.5487  1.3558
  679MOL0     H93698   1.369   8.641   8.128 -1.4945 -0.4366  0.0672
  679MOL0     H93699   1.702   7.837   8.126  0.0994  0.1847 -0.0353
  679MOL0     H93700   1.916   7.624   8.243 -0.2335  1.0980 -2.5385
  679MOL0     H93701   1.783   7.738   8.282  1.6084 -0.2399  0.7083
  679MOL0     H93702   1.761   7.559   8.300 -1.0179  0.9919  0.7637
  680MOL0     O93703   5.043   3.169  11.367  0.1749  0.4168 -0.2790
  680MOL0     C93704   5.063   3.091  11.274 -0.5504 -0.1698 -0.9843
  680MOL0     O93705   5.139   2.976  11.283  0.4567  0.2608  0.8890
  680MOL0     C93706   5.174   2.942  11.410  0.3603 -0.3893 -0.6251
  680MOL0     C93707   5.136   2.823  11.450 -0.2252 -0.2420  0.0663
  680MOL0     C93708   5.162   2.779  11.580  0.2204 -0.2529 -0.0226
  680MOL0     C93709   5.240   2.851  11.674  0.7854  0.2026  0.8879
  680MOL0     O93710   5.269   2.792  11.793  0.0143  0.7500  0.3150
  680MOL0     C93711   5.265   2.868  11.913 -0.1416 -0.1620 -0.0183
  680MOL0     C93712   5.124   2.930  11.957  0.3014 -0.0282  0.9028
  680MOL0     C93713   5.121   3.031  12.072 -0.6146  0.5389  0.7066
  680MOL0     C93714   5.212   3.156  12.059 -0.6332  0.8597  0.0624
  680MOL0     C93715   5.207   3.270  12.155 -0.1765  0.1076 -0.2660
  680MOL0     C93716   5.280   3.230  12.286 -0.5024  0.5399  0.2488
  680MOL0     C93717   5.233   3.332  12.386 -0.0799  0.7049  0.2443
  680MOL0     C93718   5.093   3.305  12.444 -0.8303  0.3416 -0.6485
  680MOL0     N93719   5.097   3.189  12.532 -0.0162  0.9877  0.4287
  680MOL0     C93720   5.175   3.156  12.633  0.0770 -0.3606 -0.5443
  680MOL0     C93721   5.121   3.046  12.696 -0.3894 -0.3096 -0.7859
  680MOL0     C93722   5.158   2.981  12.826  0.4550  0.0810  0.2235
  680MOL0     C93723   5.196   3.073  12.942  0.5515  0.2885  0.4062
  680MOL0     C93724   5.087   3.093  13.040 -0.4913  0.8154  0.5167
  680MOL0     C93725   5.152   3.133  13.170 -0.2173  0.0693 -1.0227
  680MOL0     O93726   5.233   3.251  13.154  0.1548  0.1272 -0.6292
  680MOL0     C93727   5.315   3.293  13.257  1.4106 -0.5092 -0.6487
  680MOL0     C93728   5.415   3.386  13.230 -0.1166 -0.3797  0.2780
  680MOL0     C93729   5.485   3.456  13.321  0.1813 -0.0958 -0.3982
  680MOL0     C93730   5.592   3.554  13.273  0.3801  0.6304 -0.0052
  680MOL0     C93731   5.456   3.436  13.457 -1.1883  1.0547 -0.4807
  680MOL0     C93732   5.514   3.505  13.572  0.3498  0.5580  0.1896
  680MOL0     O93733   5.448   3.495  13.698 -0.0250  0.0754  0.1059
  680MOL0     C93734   5.494   3.564  13.807  0.1469 -0.3212 -0.3265
  680MOL0     C93735   5.551   3.492  13.912 -0.4942  0.2668  0.0292
  680MOL0     C93736   5.608   3.563  14.013  0.7297  0.1363 -0.7574
  680MOL0     C93737   5.611   3.706  14.011 -0.0352 -0.7780  0.1734
  680MOL0     O93738   5.673   3.773  14.116  0.3091  0.7992  0.7309
  680MOL0     C93739   5.605   3.871  14.198  0.3178  0.4979 -0.2948
  680MOL0     C93740   5.653   3.842  14.342  0.6043  0.3942  0.2690
  680MOL0     C93741   5.557   3.884  14.461  0.5655  0.3703  0.2068
  680MOL0     C93742   5.557   4.028  14.498  0.3208  0.0908 -0.2872
  680MOL0     C93743   5.482   4.053  14.632  0.0176  1.3763 -0.8196
  680MOL0     C93744   5.468   4.202  14.666 -0.5954  0.6135  0.7585
  680MOL0     C93745   5.386   4.227  14.786 -0.3478  0.5417  0.1111
  680MOL0     C93746   5.237   4.223  14.765 -0.1490  0.2216 -0.2921
  680MOL0    Cl93747   5.181   4.341  14.655 -0.3428 -0.1860  0.2285
  680MOL0     C93748   5.539   3.775  13.915  0.1255 -0.3772 -0.3881
  680MOL0     C93749   5.480   3.701  13.809 -0.4628  0.1949 -0.0520
  680MOL0     O93750   5.623   3.552  13.553  0.3718 -0.5639 -0.2790
  680MOL0     C93751   5.358   3.348  13.489 -0.4696  0.3686  0.4589
  680MOL0     C93752   5.285   3.282  13.393  0.3731 -0.4049  0.7357
  680MOL0     N93753   5.015   2.999  12.625  0.4643  1.0409 -0.6817
  680MOL0     N93754   5.012   3.081  12.524  0.4810 -0.1200  0.1668
  680MOL0     C93755   5.276   2.981  11.633 -0.2078  0.4281 -0.0212
  680MOL0     C93756   5.250   3.017  11.497  0.9041  0.8673  0.1889
  680MOL0     C93757   4.991   3.109  11.149 -0.3645 -0.4221  0.6936
  680MOL0     C93758   5.061   3.076  11.029 -0.2839  0.8834  0.9416
  680MOL0     C93759   4.994   3.087  10.911  0.0178 -0.3964 -0.0170
  680MOL0     C93760   4.865   3.136  10.891  0.2995 -0.5530  0.1737
  680MOL0     O93761   4.800   3.159  10.773  0.3953  0.4476  0.0246
  680MOL0     C93762   4.849   3.087  10.657  0.2336  0.3217  0.6573
  680MOL0     C93763   4.785   3.126  10.528  0.3933  0.0088  1.0090
  680MOL0     C93764   4.813   3.003  10.435  0.3526 -0.7455  0.3540
  680MOL0     C93765   4.731   3.016  10.300  0.0338 -0.8284 -0.3765
  680MOL0     C93766   4.779   2.922  10.206 -0.6286  0.6366  0.5140
  680MOL0     C93767   4.826   2.843  10.116  0.1151  0.1603  0.1132
  680MOL0     C93768   4.802   3.175  11.002 -0.0934 -0.2518  0.1857
  680MOL0     C93769   4.859   3.159  11.134  0.2965  0.3858 -0.4789
  680MOL0     C93770   4.773   3.187  11.250  0.2635  0.1659 -0.1504
  680MOL0     H93771   5.089   2.752  11.382 -1.0385 -3.0088  3.2577
  680MOL0     H93772   5.142   2.676  11.606 -0.9212 -0.2745 -0.9127
  680MOL0     H93773   5.341   2.944  11.895  1.5998 -1.6972  0.5632
  680MOL0     H93774   5.309   2.812  11.996  1.5132  0.1108 -0.6787
  680MOL0     H93775   5.085   2.988  11.873 -1.0869  0.0589  1.5823
  680MOL0     H93776   5.052   2.852  11.978  1.4806 -1.0330  1.3317
  680MOL0     H93777   5.021   3.074  12.077 -0.2608  1.7141 -1.2843
  680MOL0     H93778   5.140   2.973  12.164  0.2438  0.0148  0.2153
  680MOL0     H93779   5.318   3.130  12.056 -0.5172  1.4113 -1.4389
  680MOL0     H93780   5.183   3.199  11.963  0.0418  1.9132  0.3154
  680MOL0     H93781   5.102   3.299  12.160 -1.1000 -2.6489 -1.5510
  680MOL0     H93782   5.263   3.351  12.108 -1.7206  0.4742 -1.5578
  680MOL0     H93783   5.263   3.126  12.317 -0.3906  0.3440 -0.3225
  680MOL0     H93784   5.387   3.249  12.277 -0.1792 -1.3008 -0.3116
  680MOL0     H93785   5.227   3.432  12.342 -2.4623  0.6555  0.2884
  680MOL0     H93786   5.302   3.341  12.470  2.3208 -3.9727 -0.9022
  680MOL0     H93787   5.070   3.390  12.509  0.6490  2.7227 -3.0393
  680MOL0     H93788   5.029   3.296  12.356 -0.2883 -2.7296 -0.8420
  680MOL0     H93789   5.266   3.204  12.668 -1.8742  2.2923  1.2585
  680MOL0     H93790   5.245   2.916  12.810  1.4772  1.4778 -0.0150
  680MOL0     H93791   5.084   2.909  12.862  0.7578  0.9421  2.7550
  680MOL0     H93792   5.281   3.025  12.992  0.6008 -2.5274 -2.0848
  680MOL0     H93793   5.236   3.170  12.911 -0.3297  0.3540 -0.5745
  680MOL0     H93794   5.022   3.173  13.002  0.7622  2.6082  1.9607
  680MOL0     H93795   5.035   2.998  13.054  0.4584 -0.5025 -3.6478
  680MOL0     H93796   5.067   3.143  13.238 -0.2092 -2.3093 -0.5978
  680MOL0     H93797   5.203   3.050  13.220 -0.7665 -0.1839 -0.8743
  680MOL0     H93798   5.422   3.412  13.125  0.9833 -1.3207  0.1077
  680MOL0     H93799   5.620   3.547  13.168  0.6245 -0.3709  0.1118
  680MOL0     H93800   5.683   3.541  13.334  0.1171  2.0842  0.7388
  680MOL0     H93801   5.560   3.658  13.283 -0.5929  0.2356  1.2575
  680MOL0     H93802   5.567   3.386  13.891 -1.9012  0.1229 -0.4559
  680MOL0     H93803   5.653   3.517  14.100 -1.4415  0.2470  0.4981
  680MOL0     H93804   5.637   3.972  14.173  1.9090  0.8390  2.7688
  680MOL0     H93805   5.496   3.864  14.196  0.2759  0.4010  1.2709
  680MOL0     H93806   5.682   3.737  14.341  6.1751  1.6455 -0.2217
  680MOL0     H93807   5.745   3.899  14.353  2.0973 -2.0345  1.0143
  680MOL0     H93808   5.574   3.840  14.559 -2.6899  1.0272  1.1899
  680MOL0     H93809   5.450   3.871  14.443  0.7658  0.7183 -1.4147
  680MOL0     H93810   5.520   4.090  14.416  1.2777  1.2751  0.1511
  680MOL0     H93811   5.662   4.053  14.514  0.1635  0.5653  0.0318
  680MOL0     H93812   5.381   4.014  14.626  1.5455 -2.9141 -1.8393
  680MOL0     H93813   5.527   3.994  14.713 -0.4655  2.7257  0.4817
  680MOL0     H93814   5.433   4.263  14.582  1.6972  2.7742  1.2684
  680MOL0     H93815   5.571   4.233  14.688 -0.1986 -0.1144  0.0087
  680MOL0     H93816   5.417   4.317  14.840  0.4843  1.1182 -1.2926
  680MOL0     H93817   5.403   4.142  14.853  1.5554  1.2572  0.6065
  680MOL0     H93818   5.179   4.238  14.857 -0.6975  2.5759 -0.9597
  680MOL0     H93819   5.214   4.127  14.719 -1.1967  0.4345 -0.2327
  680MOL0     H93820   5.542   3.883  13.906  0.8933 -0.4139 -0.6680
  680MOL0     H93821   5.445   3.749  13.719 -1.6676 -0.6528 -0.0562
  680MOL0     H93822   5.335   3.336  13.594  1.4896  2.6163  1.2531
  680MOL0     H93823   5.198   3.223  13.419 -1.4904  1.4492 -0.9098
  680MOL0     H93824   5.340   3.051  11.686  3.2835 -3.1922  0.9481
  680MOL0     H93825   5.279   3.116  11.462  0.3798  0.6477 -0.9080
  680MOL0     H93826   5.160   3.033  11.041 -0.4285  0.5118  0.8232
  680MOL0     H93827   5.050   3.042  10.829  1.4347 -1.9025  1.6828
  680MOL0     H93828   4.958   3.085  10.647  0.2392 -0.7934  0.8127
  680MOL0     H93829   4.824   2.984  10.684  0.7005  0.4776  1.7431
  680MOL0     H93830   4.824   3.216  10.478 -2.9548 -1.5996 -5.6573
  680MOL0     H93831   4.678   3.138  10.543 -0.4557 -2.4288 -2.1295
  680MOL0     H93832   4.920   2.993  10.416  0.1151 -3.1743 -0.0771
  680MOL0     H93833   4.792   2.907  10.483 -0.6097  0.0548  1.5886
  680MOL0     H93834   4.734   3.121  10.271 -0.5615 -1.0106 -1.1414
  680MOL0     H93835   4.624   3.002  10.316 -0.4593  2.6304  0.2523
  680MOL0     H93836   4.872   2.784  10.039 -1.9274  0.7780 -1.6761
  680MOL0     H93837   4.700   3.214  11.004  0.0860  0.2122  1.6258
  680MOL0     H93838   4.789   3.117  11.333 -0.9343  0.6563  0.5222
  680MOL0     H93839   4.799   3.288  11.283 -2.8130  0.2700  2.4619
  680MOL0     H93840   4.664   3.181  11.238 -0.1103  3.4962  0.5997
  681MOL0     O93841   9.426   1.969  10.132  0.1150  0.8483  0.3235
  681MOL0     C93842   9.440   2.061  10.046  1.2047  0.6845 -0.0779
  681MOL0     O93843   9.371   2.076   9.929 -0.9017  0.3107  0.0076
  681MOL0     C93844   9.301   1.971   9.886 -0.6651 -0.3956 -0.5574
  681MOL0     C93845   9.158   1.973   9.896  0.6899  0.5285 -0.0670
  681MOL0     C93846   9.072   1.885   9.836  0.3086 -0.3593  0.2926
  681MOL0     C93847   9.123   1.772   9.780  0.0007  1.5148 -0.2819
  681MOL0     O93848   9.040   1.667   9.744  0.0642 -0.3625  0.4413
  681MOL0     C93849   9.093   1.532   9.726  1.3664  0.8647  0.1534
  681MOL0     C93850   8.980   1.439   9.653 -0.5989  0.6706  0.8231
  681MOL0     C93851   9.040   1.311   9.607  0.1385  0.1616 -0.6237
  681MOL0     C93852   8.928   1.220   9.571  0.1397 -0.4143 -0.2693
  681MOL0     C93853   8.998   1.090   9.520  0.1222 -0.0822  0.0597
  681MOL0     C93854   9.048   0.989   9.626  1.2464  0.3067  0.0809
  681MOL0     C93855   8.929   0.930   9.713  1.3044 -0.6713  0.2687
  681MOL0     C93856   8.823   0.854   9.630 -0.1947  0.0182  0.5603
  681MOL0     N93857   8.710   0.810   9.719 -0.4508  0.5832  0.7192
  681MOL0     C93858   8.622   0.909   9.771  0.5756  0.1467 -0.5968
  681MOL0     C93859   8.521   0.835   9.830  0.1247 -0.1897  0.1275
  681MOL0     C93860   8.415   0.881   9.926  0.0709 -0.3703  0.1877
  681MOL0     C93861   8.493   0.917  10.053 -0.1137 -0.3862  0.0257
  681MOL0     C93862   8.497   0.786  10.148  0.2063 -1.1804 -0.2118
  681MOL0     C93863   8.618   0.813  10.245  0.4541 -0.0786  1.6469
  681MOL0     O93864   8.731   0.750  10.183 -0.0220  0.5243 -0.5316
  681MOL0     C93865   8.857   0.803  10.202  0.5979  0.8428 -0.9123
  681MOL0     C93866   8.901   0.815  10.327 -0.9785  0.4188 -0.1701
  681MOL0     C93867   9.026   0.862  10.355 -0.1351 -0.3252 -0.8029
  681MOL0     C93868   9.060   0.903  10.502  0.2655 -0.1002  0.2773
  681MOL0     C93869   9.117   0.885  10.253 -0.4702  1.0209 -0.3343
  681MOL0     C93870   9.250   0.947  10.267 -0.1442 -0.2108 -0.5288
  681MOL0     O93871   9.323   0.920  10.381 -0.6624  0.5671 -0.4985
  681MOL0     C93872   9.448   0.967  10.401  0.4389  0.4522 -0.5489
  681MOL0     C93873   9.462   1.065  10.495 -0.2058  1.6619  0.1946
  681MOL0     C93874   9.583   1.129  10.520  0.0321  0.0545 -0.0876
  681MOL0     C93875   9.695   1.091  10.449 -1.6848 -0.0551 -0.1079
  681MOL0     O93876   9.816   1.139  10.477  0.5098 -0.1887  0.1949
  681MOL0     C93877   9.869   1.218  10.369 -0.5066 -1.2324  0.8008
  681MOL0     C93878  10.017   1.234  10.396  0.5457 -0.2509  0.9342
  681MOL0     C93879  10.094   1.298  10.273  0.0195 -0.2907  0.5189
  681MOL0     C93880  10.016   1.400  10.189  0.5089  0.3306  0.0730
  681MOL0     C93881  10.094   1.451  10.068  0.4739 -0.3890  0.3322
  681MOL0     C93882  10.005   1.557   9.995 -0.0813 -0.5683 -0.4589
  681MOL0     C93883  10.077   1.631   9.881 -0.3186  1.3449  0.4999
  681MOL0     C93884  10.069   1.560   9.748  0.0018 -0.2530 -0.0991
  681MOL0    Cl93885   9.890   1.570   9.711  0.2580 -0.0274 -0.3251
  681MOL0     C93886   9.683   0.992  10.350  0.6577  0.1121  0.1495
  681MOL0     C93887   9.557   0.928  10.321 -1.1426  0.0462  0.1796
  681MOL0     O93888   9.296   1.012  10.165 -0.2420  0.0254 -0.3652
  681MOL0     C93889   9.070   0.853  10.121 -0.5501  0.0284 -0.2906
  681MOL0     C93890   8.937   0.813  10.093 -0.3185 -0.1447  0.0100
  681MOL0     N93891   8.556   0.697   9.820  1.0383  0.8805 -1.1080
  681MOL0     N93892   8.665   0.687   9.744 -0.2425 -0.3612  1.0553
  681MOL0     C93893   9.260   1.751   9.790 -0.3064 -0.5273  0.1065
  681MOL0     C93894   9.348   1.852   9.833 -0.4573  0.2383  0.9475
  681MOL0     C93895   9.544   2.160  10.083 -0.0541  0.4312  0.5556
  681MOL0     C93896   9.606   2.160  10.214  0.5803  0.3425 -0.1459
  681MOL0     C93897   9.702   2.256  10.262 -0.1413 -0.7788  1.3409
  681MOL0     C93898   9.751   2.357  10.176 -0.2169  0.0068 -0.3613
  681MOL0     O93899   9.844   2.444  10.223 -0.8027  0.2287 -0.7647
  681MOL0     C93900   9.920   2.532  10.138  0.3294 -0.6712 -0.8609
  681MOL0     C93901  10.001   2.628  10.214  0.6672  0.8877 -0.2307
  681MOL0     C93902   9.907   2.709  10.320  0.1030 -0.2405 -0.7902
  681MOL0     C93903   9.819   2.815  10.239 -0.3368 -0.0523 -0.0238
  681MOL0     C93904   9.880   2.953  10.238 -0.3105 -0.1682 -0.0934
  681MOL0     C93905   9.920   3.062  10.263 -0.2862 -0.9179  0.2576
  681MOL0     C93906   9.695   2.358  10.047  0.9334 -0.1177 -0.3436
  681MOL0     C93907   9.593   2.274  10.002  0.7958  0.8938 -0.9062
  681MOL0     C93908   9.533   2.325   9.870 -1.1193 -0.2786 -0.2195
  681MOL0     H93909   9.119   2.062   9.942 -0.5483 -0.3147  0.5608
  681MOL0     H93910   8.965   1.904   9.829 -0.4804 -3.5453  1.8836
  681MOL0     H93911   9.127   1.490   9.822  0.0828  1.4697  0.9030
  681MOL0     H93912   9.176   1.534   9.655  0.7663  2.9997 -0.5538
  681MOL0     H93913   8.900   1.424   9.726 -0.3002  2.5493  1.5679
  681MOL0     H93914   8.950   1.489   9.560  0.9116  2.9696  1.5034
  681MOL0     H93915   9.109   1.327   9.523 -0.7981 -0.2004 -1.4829
  681MOL0     H93916   9.102   1.271   9.687  1.2482  1.8343 -0.6120
  681MOL0     H93917   8.859   1.202   9.654 -1.5205 -1.2159 -1.7457
  681MOL0     H93918   8.875   1.279   9.495 -1.6940 -1.8115 -0.1468
  681MOL0     H93919   9.087   1.126   9.468  0.2208  0.1016  0.3488
  681MOL0     H93920   8.935   1.041   9.445 -0.3217  1.7348 -0.8148
  681MOL0     H93921   9.104   0.909   9.577 -0.3530 -0.0709 -1.2399
  681MOL0     H93922   9.122   1.031   9.693 -0.6999  2.0292  1.2680
  681MOL0     H93923   8.884   1.014   9.766  1.9076 -0.3350  0.2517
  681MOL0     H93924   8.968   0.864   9.792  1.5834 -1.4029 -0.4715
  681MOL0     H93925   8.781   0.926   9.559  0.3723  1.5923  1.7615
  681MOL0     H93926   8.886   0.774   9.589  0.4313  0.4955  0.5818
  681MOL0     H93927   8.627   1.016   9.756 -0.8506  0.1763 -1.0729
  681MOL0     H93928   8.341   0.801   9.944 -2.3554  1.1527 -2.2519
  681MOL0     H93929   8.360   0.964   9.881  0.2611 -1.3841 -2.0178
  681MOL0     H93930   8.597   0.935  10.025 -0.0656  0.7068  0.8394
  681MOL0     H93931   8.457   1.005  10.107 -0.1875 -0.4527  0.0854
  681MOL0     H93932   8.416   0.779  10.221 -2.1336 -3.3090 -2.8062
  681MOL0     H93933   8.475   0.691  10.100 -1.6645  0.5215 -2.9959
  681MOL0     H93934   8.629   0.922  10.239 -0.2848 -0.0896 -1.0603
  681MOL0     H93935   8.611   0.766  10.344  3.2479 -2.0811  1.0119
  681MOL0     H93936   8.833   0.808  10.411  0.2323  4.6303  1.4331
  681MOL0     H93937   9.135   0.982  10.510 -0.5542  0.6763  0.5520
  681MOL0     H93938   9.083   0.824  10.573  0.4570  0.4495  0.8375
  681MOL0     H93939   8.971   0.948  10.548 -0.2575 -3.1857  2.5904
  681MOL0     H93940   9.378   1.107  10.549 -0.3210  0.0701  1.3437
  681MOL0     H93941   9.589   1.200  10.602 -0.7108 -1.1458  1.0433
  681MOL0     H93942   9.868   1.163  10.275  1.2907 -0.1153  0.0840
  681MOL0     H93943   9.817   1.313  10.353 -0.4522 -1.6423 -2.3255
  681MOL0     H93944  10.024   1.291  10.489 -1.6316 -0.9246  1.5824
  681MOL0     H93945  10.058   1.132  10.401  0.9526 -0.1203  0.3031
  681MOL0     H93946  10.111   1.214  10.205 -1.5598  0.6128 -1.0605
  681MOL0     H93947  10.186   1.346  10.307 -1.8745  2.9150  1.5978
  681MOL0     H93948   9.981   1.486  10.247 -0.7527  2.9735 -4.1992
  681MOL0     H93949   9.924   1.352  10.154  0.9635 -1.3067  0.9962
  681MOL0     H93950  10.190   1.494  10.099 -0.6192  1.5742  1.1434
  681MOL0     H93951  10.107   1.368   9.997 -0.9229 -0.3716  0.0407
  681MOL0     H93952   9.971   1.630  10.069 -0.4748 -1.8754  0.6947
  681MOL0     H93953   9.912   1.519   9.952 -0.1097 -1.4343  0.3509
  681MOL0     H93954  10.184   1.652   9.896 -0.3887  1.6877  0.5173
  681MOL0     H93955  10.035   1.732   9.881 -0.1762  1.4764  2.9165
  681MOL0     H93956  10.092   1.453   9.751  1.5791  0.0667  0.1144
  681MOL0     H93957  10.133   1.598   9.668  0.7834 -0.8274  0.2452
  681MOL0     H93958   9.776   0.954  10.309  0.2357 -3.1775  1.8909
  681MOL0     H93959   9.565   0.856  10.240  0.5331  0.1122  0.2500
  681MOL0     H93960   9.121   0.873  10.027  0.4644 -1.3328 -0.0607
  681MOL0     H93961   8.905   0.785   9.993  1.1275 -2.8005  0.1889
  681MOL0     H93962   9.312   1.663   9.753  1.2375  2.0246 -4.6192
  681MOL0     H93963   9.454   1.835   9.847 -0.3744 -1.6645 -1.5392
  681MOL0     H93964   9.571   2.091  10.290  1.5658  1.9852  1.8872
  681MOL0     H93965   9.724   2.254  10.368  4.2190 -0.6128  0.6454
  681MOL0     H93966   9.989   2.465  10.086 -0.4741 -1.3426 -1.0836
  681MOL0     H93967   9.854   2.583  10.067  2.4940  2.6592 -0.7045
  681MOL0     H93968  10.042   2.686  10.131  0.0885 -0.0425 -1.1921
  681MOL0     H93969  10.079   2.580  10.274 -1.0801 -0.3126  1.1994
  681MOL0     H93970   9.843   2.635  10.369  1.8199 -2.7379 -2.1060
  681MOL0     H93971   9.966   2.753  10.400 -0.8088  0.8606 -0.6972
  681MOL0     H93972   9.724   2.827  10.292  0.6074  1.2478  1.4816
  681MOL0     H93973   9.801   2.784  10.136  1.0003  2.3616 -1.0822
  681MOL0     H93974   9.953   3.163  10.270  1.7797 -1.1209 -3.8133
  681MOL0     H93975   9.715   2.441   9.981  0.9327  2.6052  2.8440
  681MOL0     H93976   9.509   2.234   9.813 -3.4748 -1.1227  1.8945
  681MOL0     H93977   9.443   2.385   9.887 -2.7326 -2.0844 -1.7676
  681MOL0     H93978   9.601   2.383   9.807 -3.6700  1.8697 -1.1963
  682MOL0     O93979   1.723   3.276   3.540  0.0557 -0.5824 -0.0784
  682MOL0     C93980   1.752   3.164   3.505 -0.9521  0.0926 -0.0952
  682MOL0     O93981   1.834   3.137   3.396  0.8277  0.4355 -0.1697
  682MOL0     C93982   1.854   3.226   3.296 -0.5365 -0.1212 -0.6669
  682MOL0     C93983   1.762   3.253   3.190  0.9238  0.8628 -0.2280
  682MOL0     C93984   1.787   3.343   3.082  0.6550 -0.4169  0.5897
  682MOL0     C93985   1.917   3.406   3.076 -0.0445 -0.4012 -0.3652
  682MOL0     O93986   1.957   3.483   2.975 -0.0769  0.6139 -0.5272
  682MOL0     C93987   2.010   3.614   3.007  0.2218  0.9408  0.1944
  682MOL0     C93988   1.941   3.722   2.945  0.4073 -0.0273 -0.1628
  682MOL0     C93989   1.915   3.703   2.799 -0.4906  0.0623 -0.2896
  682MOL0     C93990   1.880   3.837   2.734 -0.0072  0.1414  0.7100
  682MOL0     C93991   1.998   3.903   2.680 -0.8198  0.8705  0.4451
  682MOL0     C93992   1.973   4.043   2.617  0.3676 -0.1249 -1.0063
  682MOL0     C93993   1.900   4.045   2.479  0.0273  1.9757 -1.9020
  682MOL0     C93994   1.881   4.191   2.436 -0.1603 -0.1656  1.3173
  682MOL0     N93995   2.000   4.253   2.367  0.4403  0.2058 -0.2967
  682MOL0     C93996   2.111   4.311   2.437 -0.7886 -0.6828 -0.1409
  682MOL0     C93997   2.204   4.337   2.337 -0.2206  0.4797  0.0111
  682MOL0     C93998   2.328   4.403   2.372  0.3504  0.0444 -0.1251
  682MOL0     C93999   2.426   4.324   2.453 -0.4719  0.2797 -0.4151
  682MOL0     C94000   2.466   4.201   2.374  0.1405  0.2199  0.3648
  682MOL0     C94001   2.589   4.145   2.444  0.7493  0.0010 -0.1137
  682MOL0     O94002   2.600   4.166   2.588 -0.1208 -0.1391 -0.3185
  682MOL0     C94003   2.545   4.080   2.682  1.0178 -0.1669  0.0805
  682MOL0     C94004   2.466   3.969   2.657  0.1500  0.2774 -0.3685
  682MOL0     C94005   2.445   3.880   2.767  0.3163 -0.9801 -0.1919
  682MOL0     C94006   2.374   3.744   2.743 -0.0346  1.1105  0.1187
  682MOL0     C94007   2.495   3.908   2.901 -0.0520  0.6173  0.3544
  682MOL0     C94008   2.470   3.838   3.028  0.3409 -0.0037  0.2089
  682MOL0     O94009   2.344   3.776   3.042 -0.0447  0.8917  0.5998
  682MOL0     C94010   2.332   3.694   3.152 -0.2528 -0.7432 -0.6812
  682MOL0     C94011   2.405   3.573   3.167  1.3365 -0.0618  0.2532
  682MOL0     C94012   2.391   3.499   3.282  0.9319 -0.0511  0.9980
  682MOL0     C94013   2.294   3.534   3.379 -0.7410 -0.1909 -0.8629
  682MOL0     O94014   2.253   3.463   3.491 -0.4449 -0.0397 -0.1451
  682MOL0     C94015   2.282   3.328   3.499  0.3963  0.3566 -0.1327
  682MOL0     C94016   2.203   3.266   3.616 -0.0301 -0.7982 -0.1034
  682MOL0     C94017   2.169   3.119   3.588 -0.1794 -0.7467  0.2254
  682MOL0     C94018   2.095   3.060   3.709  0.6971 -1.5004 -0.3259
  682MOL0     C94019   2.086   2.907   3.701 -0.1407 -0.3573  0.0620
  682MOL0     C94020   2.020   2.852   3.826  0.2584  0.1362  0.8450
  682MOL0     C94021   2.021   2.702   3.822  0.6458 -0.1835  0.0262
  682MOL0     C94022   1.940   2.636   3.932  0.0157 -1.3531  0.1454
  682MOL0    Cl94023   1.956   2.460   3.926 -0.4707 -0.0078  0.0010
  682MOL0     C94024   2.231   3.655   3.359 -0.8777 -0.1814 -0.7044
  682MOL0     C94025   2.234   3.722   3.242 -0.0396  0.2140 -0.5487
  682MOL0     O94026   2.568   3.822   3.098  0.2544  0.1317  0.1494
  682MOL0     C94027   2.592   4.010   2.905  0.6347 -0.6706 -0.9367
  682MOL0     C94028   2.613   4.090   2.799 -0.1625  0.9939 -0.2938
  682MOL0     N94029   2.150   4.304   2.219  0.1099  0.4382 -0.4240
  682MOL0     N94030   2.037   4.251   2.238 -0.1032  0.2733 -0.1049
  682MOL0     C94031   2.008   3.376   3.176 -0.9207  0.3441 -0.0332
  682MOL0     C94032   1.976   3.297   3.286  0.3264  0.3825 -0.1820
  682MOL0     C94033   1.696   3.052   3.578 -0.6483  1.0943 -0.0092
  682MOL0     C94034   1.758   2.923   3.559  0.2884  0.3929  0.8671
  682MOL0     C94035   1.715   2.811   3.631 -0.0900 -0.4403 -0.3526
  682MOL0     C94036   1.605   2.815   3.714  0.8280 -0.4155  0.5473
  682MOL0     O94037   1.550   2.709   3.775  0.0013  0.2369  0.4644
  682MOL0     C94038   1.603   2.582   3.760  0.2687  0.3857  0.7842
  682MOL0     C94039   1.521   2.481   3.839  0.3142 -0.5799 -0.5890
  682MOL0     C94040   1.368   2.489   3.804  0.4825 -0.3617 -0.3269
  682MOL0     C94041   1.301   2.363   3.856 -0.1765  0.2065 -0.9498
  682MOL0     C94042   1.358   2.236   3.799 -0.4685  0.0697  0.1394
  682MOL0     C94043   1.405   2.140   3.735  0.1629 -0.3724 -0.9973
  682MOL0     C94044   1.539   2.938   3.727  0.0174 -0.2626 -0.8035
  682MOL0     C94045   1.582   3.060   3.666 -0.8289  0.3500  0.6397
  682MOL0     C94046   1.476   3.166   3.671  0.2032  0.3803 -0.2431
  682MOL0     H94047   1.670   3.195   3.199  1.9049 -0.5353  1.3291
  682MOL0     H94048   1.733   3.371   2.993  0.9627  1.2456  0.9034
  682MOL0     H94049   2.113   3.610   2.970  0.3961  0.1205  0.7414
  682MOL0     H94050   2.020   3.629   3.115 -2.4211  1.0540  0.4834
  682MOL0     H94051   1.848   3.742   2.999  1.2184  2.2266  0.5263
  682MOL0     H94052   1.996   3.813   2.972  0.9735 -0.5495  0.4642
  682MOL0     H94053   1.998   3.655   2.747  0.7188 -2.9539  3.9300
  682MOL0     H94054   1.841   3.624   2.782  1.8849 -2.1967 -0.7126
  682MOL0     H94055   1.813   3.822   2.649 -0.4933 -0.9306  1.2619
  682MOL0     H94056   1.826   3.901   2.806 -0.7958 -0.0101  0.2699
  682MOL0     H94057   2.037   3.841   2.600 -0.4981  1.9408 -0.2554
  682MOL0     H94058   2.066   3.919   2.765  1.1695 -3.9879  0.0958
  682MOL0     H94059   1.913   4.100   2.688  3.1408 -0.7643  2.0755
  682MOL0     H94060   2.068   4.091   2.592 -0.6611  1.8162 -1.4414
  682MOL0     H94061   1.802   3.998   2.497  1.5800 -1.4565 -1.5174
  682MOL0     H94062   1.949   3.983   2.403 -0.1620  0.1212 -0.6001
  682MOL0     H94063   1.792   4.189   2.373  0.8987 -0.2060 -0.2422
  682MOL0     H94064   1.865   4.255   2.524 -2.4939 -0.6966  1.3293
  682MOL0     H94065   2.117   4.335   2.542  2.8166 -3.4823  0.5014
  682MOL0     H94066   2.306   4.502   2.414 -0.6573  0.4337 -1.5076
  682MOL0     H94067   2.390   4.429   2.286  0.2815  3.0547  0.6138
  682MOL0     H94068   2.513   4.389   2.451 -1.6574  1.9470  0.1308
  682MOL0     H94069   2.394   4.291   2.552 -1.0931 -0.6506 -0.9053
  682MOL0     H94070   2.380   4.134   2.385  0.3871 -0.0137  0.9075
  682MOL0     H94071   2.496   4.216   2.270 -0.0034 -0.6724  0.1854
  682MOL0     H94072   2.590   4.036   2.431 -1.9833 -0.1828  0.5948
  682MOL0     H94073   2.682   4.181   2.398  0.5280 -1.5160 -1.9016
  682MOL0     H94074   2.426   3.949   2.559  1.7174  4.0437 -1.9701
  682MOL0     H94075   2.387   3.676   2.828 -1.1825  1.0542  0.2696
  682MOL0     H94076   2.421   3.695   2.658 -0.1661  0.2559  0.5248
  682MOL0     H94077   2.266   3.754   2.724  0.0875  1.6593 -0.3088
  682MOL0     H94078   2.477   3.545   3.091  1.2815  0.1721  0.1159
  682MOL0     H94079   2.455   3.411   3.279  3.0115  1.4020  1.2586
  682MOL0     H94080   2.262   3.268   3.410  2.3255 -0.6556  0.0602
  682MOL0     H94081   2.388   3.308   3.515 -0.5288 -2.7208  3.6520
  682MOL0     H94082   2.259   3.278   3.709 -2.4290  4.3795  1.0108
  682MOL0     H94083   2.104   3.311   3.618 -0.6022 -1.9041 -1.5187
  682MOL0     H94084   2.263   3.065   3.598  0.5506  0.6443  1.1668
  682MOL0     H94085   2.125   3.096   3.491  1.0277 -4.5436  0.4214
  682MOL0     H94086   1.995   3.104   3.713  0.4268 -2.1065 -0.3833
  682MOL0     H94087   2.145   3.096   3.799 -1.4692 -1.8577  1.0886
  682MOL0     H94088   2.035   2.887   3.607 -5.1860  2.6642  1.7764
  682MOL0     H94089   2.187   2.870   3.679  0.1232  1.8880 -3.1846
  682MOL0     H94090   1.914   2.879   3.818 -0.5247 -2.6864  0.9258
  682MOL0     H94091   2.062   2.880   3.924  2.4973 -3.0002  0.9257
  682MOL0     H94092   2.127   2.676   3.821  1.2524  1.9626  1.0590
  682MOL0     H94093   1.986   2.672   3.723  2.0502  0.7640 -0.7939
  682MOL0     H94094   1.837   2.671   3.924 -0.4503 -2.9951 -1.7751
  682MOL0     H94095   1.977   2.675   4.027  1.3036  1.3314 -1.3070
  682MOL0     H94096   2.167   3.691   3.439  0.6590  1.6942 -0.2475
  682MOL0     H94097   2.161   3.801   3.229  1.0663  1.3877  0.1337
  682MOL0     H94098   2.642   4.022   3.000 -1.0736 -2.5245  0.2952
  682MOL0     H94099   2.688   4.165   2.822  3.0837 -1.6049 -1.5208
  682MOL0     H94100   2.113   3.400   3.167  0.8101 -5.4184  1.0002
  682MOL0     H94101   2.037   3.278   3.374  0.2233 -0.3818 -0.2685
  682MOL0     H94102   1.847   2.919   3.497 -0.9047 -3.5571 -0.9363
  682MOL0     H94103   1.760   2.715   3.607 -2.6245 -1.4284 -1.6289
  682MOL0     H94104   1.611   2.548   3.656 -2.7718  0.4625  0.4271
  682MOL0     H94105   1.702   2.571   3.804  0.2938 -3.3740  0.0809
  682MOL0     H94106   1.527   2.496   3.948 -3.9308 -3.2267  0.2689
  682MOL0     H94107   1.557   2.382   3.812 -3.6163 -2.4934  0.3427
  682MOL0     H94108   1.331   2.572   3.864  0.9867 -0.5454  0.2542
  682MOL0     H94109   1.349   2.492   3.696 -3.8454 -0.1274  0.2835
  682MOL0     H94110   1.195   2.358   3.827 -1.1194 -2.2043  2.3566
  682MOL0     H94111   1.299   2.358   3.965  1.0175 -0.9199 -0.9525
  682MOL0     H94112   1.440   2.044   3.703  1.5638  0.0897 -0.9198
  682MOL0     H94113   1.447   2.942   3.783  0.7375 -0.1342  0.4081
  682MOL0     H94114   1.519   3.243   3.736 -0.2529  0.3802  0.0628
  682MOL0     H94115   1.452   3.202   3.571 -3.9306 -0.6571  0.2140
  682MOL0     H94116   1.384   3.135   3.722 -1.0489  3.2824 -0.5333
  683MOL0     O94117   8.911  10.706   5.307 -0.3644  0.0870 -0.3963
  683MOL0     C94118   8.812  10.752   5.363  0.1993 -0.2704 -0.6974
  683MOL0     O94119   8.763  10.709   5.485  0.2128 -0.7201  0.2856
  683MOL0     C94120   8.828  10.607   5.546 -0.2744 -0.8347 -0.9099
  683MOL0     C94121   8.910  10.639   5.653  0.3901 -0.2437  0.5561
  683MOL0     C94122   8.961  10.533   5.729 -0.1506 -0.1344  0.6299
  683MOL0     C94123   8.936  10.397   5.694 -0.1694 -0.3279  1.5113
  683MOL0     O94124   8.985  10.288   5.764 -0.5239 -0.8803  0.8404
  683MOL0     C94125   9.124  10.260   5.742 -0.2288  0.4597 -0.3062
  683MOL0     C94126   9.132  10.106   5.753  1.3338  0.6186 -0.4595
  683MOL0     C94127   9.095  10.054   5.890  0.0178  0.1113  0.5101
  683MOL0     C94128   9.113   9.905   5.902  0.0809  0.0149  0.4883
  683MOL0     C94129   9.132   9.856   6.046  0.0248  0.5230  0.0536
  683MOL0     C94130   9.189   9.706   6.036 -0.3741 -0.5339 -0.2257
  683MOL0     C94131   9.237   9.660   6.171 -0.0579 -0.0416 -0.2188
  683MOL0     C94132   9.278   9.514   6.192  1.4629 -0.3104  0.0171
  683MOL0     N94133   9.233   9.430   6.081 -1.0932 -0.3593  0.0226
  683MOL0     C94134   9.307   9.382   5.973 -0.0160 -0.3638 -0.6002
  683MOL0     C94135   9.213   9.347   5.883 -0.1435  0.5155  0.5832
  683MOL0     C94136   9.228   9.308   5.738 -0.6167  0.0020  0.1859
  683MOL0     C94137   9.374   9.287   5.711 -0.8526  0.5366  0.2534
  683MOL0     C94138   9.401   9.223   5.571 -0.3159  0.8467 -0.4025
  683MOL0     C94139   9.553   9.184   5.562 -0.3287 -0.8251  0.3538
  683MOL0     O94140   9.588   9.120   5.442 -0.6417  0.5153 -0.0749
  683MOL0     C94141   9.608   9.194   5.334 -0.2771  0.2471  0.0644
  683MOL0     C94142   9.621   9.328   5.325  0.0164 -1.2872 -0.1323
  683MOL0     C94143   9.640   9.396   5.204 -1.0013 -0.8351  0.3041
  683MOL0     C94144   9.662   9.544   5.224  0.0814 -0.6974 -0.0267
  683MOL0     C94145   9.659   9.328   5.083 -0.3679  0.5623 -0.9950
  683MOL0     C94146   9.696   9.392   4.953  0.5340  0.8549  0.5229
  683MOL0     O94147   9.767   9.321   4.862  0.4540 -0.0632  0.7089
  683MOL0     C94148   9.774   9.359   4.732 -0.3069 -0.1247  0.3641
  683MOL0     C94149   9.671   9.435   4.660 -0.9043 -0.0726 -0.0610
  683MOL0     C94150   9.705   9.504   4.549  0.3143  1.0183 -0.6290
  683MOL0     C94151   9.824   9.474   4.481  0.1558  0.3560 -0.1265
  683MOL0     O94152   9.852   9.537   4.363  0.4639 -0.0619 -0.0626
  683MOL0     C94153   9.964   9.518   4.273  0.9462  0.0731 -0.9603
  683MOL0     C94154  10.094   9.575   4.322 -0.6905 -1.4423  0.6571
  683MOL0     C94155  10.206   9.546   4.214 -0.5196  0.3201 -0.8090
  683MOL0     C94156  10.233   9.654   4.121  1.0298 -1.9024 -0.4604
  683MOL0     C94157  10.315   9.601   3.999  0.0117  0.1886 -0.6936
  683MOL0     C94158  10.334   9.704   3.889 -0.6882 -0.0051  0.5633
  683MOL0     C94159  10.380   9.648   3.748 -0.9070 -0.2719 -0.0957
  683MOL0     C94160  10.428   9.753   3.648  0.8212  0.2746  0.3262
  683MOL0    Cl94161  10.511   9.678   3.526 -0.2089  0.3254  0.0941
  683MOL0     C94162   9.907   9.385   4.531 -0.3752 -0.2398 -0.3820
  683MOL0     C94163   9.889   9.323   4.654  0.8109 -1.3473 -0.8091
  683MOL0     O94164   9.673   9.509   4.946 -0.3367 -0.5325  0.1707
  683MOL0     C94165   9.651   9.191   5.100 -0.7218 -0.4877  0.5112
  683MOL0     C94166   9.634   9.125   5.223  0.1230  0.1963  0.0307
  683MOL0     N94167   9.090   9.369   5.943  0.1348 -0.3180 -0.1141
  683MOL0     N94168   9.097   9.410   6.056 -0.2030 -0.3609 -0.3865
  683MOL0     C94169   8.848  10.375   5.586  0.1094  0.1938  0.1107
  683MOL0     C94170   8.792  10.476   5.522  0.7401 -0.2376  0.0651
  683MOL0     C94171   8.739  10.851   5.282  0.0141  0.2148  1.2266
  683MOL0     C94172   8.802  10.972   5.260  0.8122 -0.1163 -0.3706
  683MOL0     C94173   8.730  11.077   5.192 -0.3000  0.3256 -0.4491
  683MOL0     C94174   8.601  11.051   5.142  0.3932  0.6156  0.3807
  683MOL0     O94175   8.528  11.146   5.075 -0.4926  0.4674 -0.4921
  683MOL0     C94176   8.585  11.267   5.013 -0.0327 -0.0526 -0.0100
  683MOL0     C94177   8.497  11.380   5.078 -0.4707  0.4483  1.1170
  683MOL0     C94178   8.496  11.415   5.232  0.6352  0.0247 -0.0027
  683MOL0     C94179   8.410  11.532   5.281  0.6491 -0.8215 -0.8200
  683MOL0     C94180   8.435  11.577   5.416  0.3994  0.0978  1.1404
  683MOL0     C94181   8.462  11.617   5.528  0.4825 -0.4294 -0.2721
  683MOL0     C94182   8.544  10.927   5.170 -0.1465  0.5610  1.6063
  683MOL0     C94183   8.610  10.825   5.244  0.3227  0.0816  0.2682
  683MOL0     C94184   8.532  10.698   5.277 -0.8857 -1.0829 -0.6820
  683MOL0     H94185   8.938  10.742   5.673  2.1333 -1.2585  4.2092
  683MOL0     H94186   9.023  10.567   5.811 -1.7312  0.1456  1.7554
  683MOL0     H94187   9.180  10.300   5.827 -2.0383  0.9597  0.6958
  683MOL0     H94188   9.167  10.296   5.648 -0.7446 -0.1889 -0.8036
  683MOL0     H94189   9.070  10.060   5.675  3.4838 -1.5620 -0.9853
  683MOL0     H94190   9.232  10.070   5.726  1.4837 -0.1074  0.9884
  683MOL0     H94191   9.158  10.099   5.967 -0.9584 -1.2358  2.1740
  683MOL0     H94192   8.997  10.091   5.922  0.5633  0.8649  1.3714
  683MOL0     H94193   9.027   9.849   5.866 -0.0044 -1.0166  2.2014
  683MOL0     H94194   9.203   9.881   5.844  0.3420  0.1649  0.8283
  683MOL0     H94195   9.043   9.873   6.108  0.1028  0.1036  0.2877
  683MOL0     H94196   9.214   9.919   6.083  3.1836 -1.5792 -2.7744
  683MOL0     H94197   9.115   9.645   5.984 -0.8356 -2.8663  2.9296
  683MOL0     H94198   9.281   9.702   5.976  0.2118  0.3758  0.5662
  683MOL0     H94199   9.157   9.680   6.242 -1.8350 -0.9279 -1.8792
  683MOL0     H94200   9.314   9.726   6.212  0.5034 -1.1137  0.5184
  683MOL0     H94201   9.387   9.515   6.185  1.5961  0.3395  1.7577
  683MOL0     H94202   9.241   9.466   6.283  2.2841 -0.5703  0.2305
  683MOL0     H94203   9.414   9.393   5.960  0.0969  0.3383  0.8271
  683MOL0     H94204   9.199   9.387   5.669  2.2446  0.6582 -0.3735
  683MOL0     H94205   9.169   9.217   5.723 -0.0628  0.0493 -2.9974
  683MOL0     H94206   9.423   9.385   5.707  2.3766 -1.0193 -2.6197
  683MOL0     H94207   9.414   9.218   5.785 -2.1602 -1.7084 -1.0225
  683MOL0     H94208   9.336   9.136   5.560  1.1579 -0.8662  2.9273
  683MOL0     H94209   9.377   9.300   5.497  1.3733  1.2729 -0.5508
  683MOL0     H94210   9.608   9.276   5.583 -2.6222  0.9935 -1.0978
  683MOL0     H94211   9.575   9.117   5.646  0.0526  1.6017  2.3426
  683MOL0     H94212   9.609   9.387   5.415  1.0037 -1.5451  0.1778
  683MOL0     H94213   9.651   9.571   5.329 -4.3142 -0.9554 -0.2392
  683MOL0     H94214   9.590   9.592   5.156 -2.1257 -0.6239  2.2135
  683MOL0     H94215   9.762   9.572   5.191  0.6576 -0.6411  1.7193
  683MOL0     H94216   9.582   9.471   4.710 -0.2841  2.1760 -0.4373
  683MOL0     H94217   9.636   9.567   4.493  0.5421  0.6512 -1.3420
  683MOL0     H94218   9.968   9.410   4.251 -1.8607  0.0139 -1.4698
  683MOL0     H94219   9.942   9.551   4.171 -0.4254 -0.1866 -0.7669
  683MOL0     H94220  10.084   9.684   4.317  3.5763 -0.8642  0.9459
  683MOL0     H94221  10.115   9.532   4.420  3.4088 -0.0695  0.6000
  683MOL0     H94222  10.180   9.451   4.166 -2.3486 -0.8457  2.1714
  683MOL0     H94223  10.298   9.523   4.270  0.1882 -1.0352 -2.4470
  683MOL0     H94224  10.289   9.735   4.169 -3.1947  1.4049 -0.4894
  683MOL0     H94225  10.134   9.692   4.093  1.8323 -0.0302 -0.9155
  683MOL0     H94226  10.411   9.553   4.014  0.8452  2.3745  1.6718
  683MOL0     H94227  10.243   9.530   3.957  2.0525 -1.7281 -1.0880
  683MOL0     H94228  10.391   9.787   3.931 -0.9833  1.0003 -0.9296
  683MOL0     H94229  10.234   9.746   3.871 -0.3659  0.5507  0.0373
  683MOL0     H94230  10.301   9.587   3.703  1.6900 -2.4011 -2.0908
  683MOL0     H94231  10.459   9.574   3.764 -0.3819  0.2472 -0.2682
  683MOL0     H94232  10.503   9.812   3.702  1.5163 -1.6305  1.5643
  683MOL0     H94233  10.344   9.814   3.616  0.4104 -0.0510  0.7755
  683MOL0     H94234   9.988   9.356   4.465  2.2696  1.5437  1.8539
  683MOL0     H94235   9.948   9.250   4.709 -0.6680  0.6309  3.9766
  683MOL0     H94236   9.678   9.120   5.022 -2.4911 -1.5026  0.7686
  683MOL0     H94237   9.660   9.020   5.231  2.6267  0.9129  3.5766
  683MOL0     H94238   8.826  10.274   5.552 -3.4476  1.7488 -3.0281
  683MOL0     H94239   8.722  10.447   5.443  1.0645 -1.7091  0.2928
  683MOL0     H94240   8.901  10.997   5.295  0.9320  0.4170 -1.0587
  683MOL0     H94241   8.791  11.163   5.165  0.0923  0.4297  0.7410
  683MOL0     H94242   8.692  11.279   5.034  0.1053 -0.0935 -0.6584
  683MOL0     H94243   8.586  11.262   4.904  1.8154 -2.4960  0.0176
  683MOL0     H94244   8.394  11.348   5.056 -0.7061  1.3750  0.8341
  683MOL0     H94245   8.523  11.469   5.021  0.5906  0.0408  0.9481
  683MOL0     H94246   8.476  11.325   5.291  2.2365 -1.1740 -1.1866
  683MOL0     H94247   8.595  11.446   5.267 -0.3110 -1.2392  4.3404
  683MOL0     H94248   8.309  11.491   5.265 -0.3251  1.7953 -1.8469
  683MOL0     H94249   8.422  11.622   5.221 -0.5252  0.7421  1.1552
  683MOL0     H94250   8.462  11.664   5.624 -0.6378 -1.4327  0.2601
  683MOL0     H94251   8.441  10.910   5.140  0.5093 -1.2738  0.2444
  683MOL0     H94252   8.582  10.619   5.221 -0.2439  0.7899 -2.8935
  683MOL0     H94253   8.530  10.680   5.385 -1.9195  0.1322 -0.4758
  683MOL0     H94254   8.429  10.700   5.241 -1.3065  0.2774  0.4984
  684MOL0     O94255  10.816   4.151   3.952  0.2827  0.0916 -0.1279
  684MOL0     C94256  10.773   4.172   3.835  0.7435 -0.5743  0.1075
  684MOL0     O94257  10.635   4.183   3.795  0.2955 -0.7761  0.6931
  684MOL0     C94258  10.545   4.178   3.901 -0.7677  0.0861  0.7133
  684MOL0     C94259  10.536   4.267   4.001 -0.3615  0.2998  0.2193
  684MOL0     C94260  10.439   4.259   4.104  0.2451 -0.1970 -0.2456
  684MOL0     C94261  10.348   4.151   4.114 -0.7348 -0.4626  1.4863
  684MOL0     O94262  10.259   4.143   4.217  0.7344 -0.4460 -0.5456
  684MOL0     C94263  10.235   4.022   4.275 -0.0827 -0.3999 -0.0450
  684MOL0     C94264  10.096   3.975   4.240 -0.2783 -0.3405 -0.4005
  684MOL0     C94265  10.067   3.843   4.313  0.5934  0.0199  0.1422
  684MOL0     C94266   9.933   3.781   4.273  0.0833 -0.2903  0.2609
  684MOL0     C94267   9.809   3.858   4.320 -0.4057  0.0083 -0.6953
  684MOL0     C94268   9.690   3.777   4.262 -0.3556 -0.2142  0.6731
  684MOL0     C94269   9.551   3.830   4.334  0.2032  0.1905  0.6329
  684MOL0     C94270   9.433   3.738   4.287 -0.4036  0.1327 -0.1200
  684MOL0     N94271   9.431   3.595   4.331 -0.2941 -0.5539  0.0758
  684MOL0     C94272   9.416   3.541   4.457 -0.4797  0.2239  0.4806
  684MOL0     C94273   9.397   3.405   4.436  0.0558 -1.4499  0.3141
  684MOL0     C94274   9.345   3.314   4.544 -0.2861  0.0127  1.1494
  684MOL0     C94275   9.191   3.302   4.538  0.3206  0.2492 -0.5630
  684MOL0     C94276   9.141   3.172   4.609 -1.4138 -0.6487  0.7986
  684MOL0     C94277   9.172   3.169   4.752 -0.4361  0.1650  0.4381
  684MOL0     O94278   9.101   3.060   4.812  0.4851 -0.6092  0.1058
  684MOL0     C94279   9.146   2.932   4.792  1.1286  0.4633 -0.1717
  684MOL0     C94280   9.268   2.887   4.744  0.8267 -0.5840 -0.1562
  684MOL0     C94281   9.290   2.756   4.715 -0.3415  0.7503 -0.1648
  684MOL0     C94282   9.422   2.716   4.660 -0.6191 -0.1525  0.1647
  684MOL0     C94283   9.196   2.656   4.744  0.1397 -0.4498 -0.6357
  684MOL0     C94284   9.201   2.507   4.714  0.7943  0.3119  0.4444
  684MOL0     O94285   9.320   2.453   4.678 -0.9019  0.2989 -0.6639
  684MOL0     C94286   9.325   2.331   4.609  0.6238  0.9303 -0.2796
  684MOL0     C94287   9.455   2.283   4.595  0.2363 -0.2843  0.2184
  684MOL0     C94288   9.472   2.178   4.509 -0.4836  0.0277  0.0332
  684MOL0     C94289   9.360   2.112   4.445  0.3750  0.2599 -0.9149
  684MOL0     O94290   9.363   2.019   4.345 -0.1161 -0.3273 -0.4996
  684MOL0     C94291   9.481   1.935   4.345 -0.4436 -0.8971 -0.9207
  684MOL0     C94292   9.485   1.832   4.248 -0.4164  1.1873 -0.1364
  684MOL0     C94293   9.400   1.706   4.287 -0.2585 -0.8214  0.4717
  684MOL0     C94294   9.458   1.614   4.390 -0.0869 -0.1836 -0.3796
  684MOL0     C94295   9.383   1.479   4.404 -0.0336 -0.6936  0.1152
  684MOL0     C94296   9.225   1.490   4.417  0.1549  0.1463  0.0480
  684MOL0     C94297   9.159   1.565   4.539 -0.1743 -0.2510 -1.0093
  684MOL0     C94298   9.221   1.531   4.676  0.5503 -1.0836  0.1487
  684MOL0    Cl94299   9.075   1.501   4.792 -0.3610 -0.1511 -0.3303
  684MOL0     C94300   9.229   2.161   4.466 -0.1136  0.5954 -0.6670
  684MOL0     C94301   9.210   2.275   4.538  0.6411  0.0580  0.2960
  684MOL0     O94302   9.109   2.444   4.754 -0.0076  0.2472  0.1828
  684MOL0     C94303   9.084   2.699   4.809  0.0657  0.0090  0.3034
  684MOL0     C94304   9.061   2.830   4.834 -0.2946 -1.0021 -0.1182
  684MOL0     N94305   9.411   3.380   4.303  0.1981 -0.6086 -0.2573
  684MOL0     N94306   9.426   3.485   4.244 -0.3578 -0.5175  0.4804
  684MOL0     C94307  10.363   4.057   4.012 -0.9143  0.2028  0.0274
  684MOL0     C94308  10.452   4.070   3.905  0.6678  0.8473  1.1092
  684MOL0     C94309  10.864   4.167   3.728 -0.2036 -0.3491  0.1739
  684MOL0     C94310  10.936   4.058   3.697 -0.4231 -0.9216 -0.3206
  684MOL0     C94311  11.036   4.056   3.595 -0.0417 -0.2078 -0.1390
  684MOL0     C94312  11.054   4.166   3.513  0.3009 -1.1215  0.3181
  684MOL0     O94313  11.155   4.181   3.418  0.0006 -0.1634  0.3003
  684MOL0     C94314  11.258   4.084   3.424 -0.3991  0.1528 -0.9169
  684MOL0     C94315  11.372   4.123   3.325 -0.1526  0.2998  0.7301
  684MOL0     C94316  11.448   4.256   3.358 -0.1194 -0.0619 -0.0648
  684MOL0     C94317  11.579   4.275   3.293 -0.8548  0.6314 -0.4377
  684MOL0     C94318  11.650   4.398   3.329  0.2199 -0.4840 -0.3873
  684MOL0     C94319  11.708   4.491   3.384 -0.1079  0.4175 -1.0859
  684MOL0     C94320  10.979   4.284   3.545 -0.0051 -0.3732 -0.4069
  684MOL0     C94321  10.892   4.288   3.659  0.5871 -0.2729  0.6345
  684MOL0     C94322  10.830   4.425   3.684 -0.1808  0.3983  1.0545
  684MOL0     H94323  10.586   4.364   3.995 -1.7808  0.9710 -3.3955
  684MOL0     H94324  10.423   4.334   4.181 -1.6884 -1.4633  0.6640
  684MOL0     H94325  10.243   4.040   4.383 -0.6714  1.2243 -0.2347
  684MOL0     H94326  10.306   3.943   4.249 -0.3729 -1.1405  1.3116
  684MOL0     H94327  10.021   4.048   4.271 -0.8687 -1.2513  0.3578
  684MOL0     H94328  10.082   3.952   4.134 -0.3998  0.3730 -0.5466
  684MOL0     H94329  10.145   3.769   4.293 -1.0576 -1.4162 -1.4446
  684MOL0     H94330  10.057   3.861   4.420 -1.8444  2.1202 -0.3303
  684MOL0     H94331   9.928   3.772   4.164 -1.3217 -1.0687  0.3605
  684MOL0     H94332   9.919   3.684   4.321  0.2224  0.0884  1.0914
  684MOL0     H94333   9.806   3.959   4.279 -0.2708  0.8846  1.3414
  684MOL0     H94334   9.816   3.845   4.429  1.7485 -2.7329 -1.0251
  684MOL0     H94335   9.688   3.776   4.153  2.6804 -2.3650  0.5171
  684MOL0     H94336   9.688   3.670   4.285 -6.6794 -1.0396 -1.7615
  684MOL0     H94337   9.539   3.931   4.292  0.6303  1.1883  2.7838
  684MOL0     H94338   9.552   3.849   4.442 -0.7837  1.4415  0.4410
  684MOL0     H94339   9.346   3.781   4.337 -0.5147 -0.8778  0.6005
  684MOL0     H94340   9.415   3.750   4.180 -0.5811 -0.6093 -0.1809
  684MOL0     H94341   9.416   3.590   4.554 -1.5368  0.8847  0.1628
  684MOL0     H94342   9.376   3.366   4.635  1.6700  4.3005 -1.6313
  684MOL0     H94343   9.388   3.215   4.526  0.2422  0.5673 -0.8520
  684MOL0     H94344   9.145   3.395   4.572  0.4159  1.0036 -2.3503
  684MOL0     H94345   9.171   3.287   4.431  1.8664  0.2013 -0.8674
  684MOL0     H94346   9.032   3.171   4.599 -1.2768 -0.9954 -0.9345
  684MOL0     H94347   9.174   3.083   4.556 -0.3187 -2.2418  3.9111
  684MOL0     H94348   9.281   3.170   4.768 -0.3261  4.0951  0.3732
  684MOL0     H94349   9.144   3.263   4.800 -0.2550  0.2445  0.3908
  684MOL0     H94350   9.343   2.957   4.708 -1.5261  2.2501  0.0343
  684MOL0     H94351   9.488   2.691   4.743 -0.3747 -1.3412 -0.3757
  684MOL0     H94352   9.467   2.791   4.594  2.7074 -2.6847 -0.6938
  684MOL0     H94353   9.424   2.625   4.599  3.0709 -0.2023  0.1512
  684MOL0     H94354   9.539   2.335   4.640 -0.4856  3.5986 -2.4874
  684MOL0     H94355   9.566   2.125   4.505 -1.7812 -2.3951 -4.1574
  684MOL0     H94356   9.575   1.988   4.331  1.3103 -3.6750 -0.4062
  684MOL0     H94357   9.500   1.903   4.448 -1.2721 -0.7690 -0.7206
  684MOL0     H94358   9.457   1.871   4.149  2.0549  3.3942 -0.0521
  684MOL0     H94359   9.588   1.798   4.233 -0.8247 -0.3752  0.3729
  684MOL0     H94360   9.390   1.658   4.189 -1.9100  0.2822  0.0448
  684MOL0     H94361   9.303   1.742   4.320 -1.4050 -1.5441 -1.8640
  684MOL0     H94362   9.456   1.662   4.488 -5.0938 -1.4369  0.3865
  684MOL0     H94363   9.562   1.596   4.360 -0.3392 -2.7396  0.0481
  684MOL0     H94364   9.400   1.410   4.321  0.4238  2.2521 -2.4457
  684MOL0     H94365   9.423   1.446   4.500 -0.3377  0.5120  0.6764
  684MOL0     H94366   9.189   1.387   4.424  2.1206 -0.6206 -0.4932
  684MOL0     H94367   9.182   1.521   4.321  0.8007  0.6511 -0.0854
  684MOL0     H94368   9.051   1.544   4.537 -0.6394  1.8365 -3.8350
  684MOL0     H94369   9.171   1.672   4.521  0.2379 -0.0575  0.3322
  684MOL0     H94370   9.296   1.602   4.713  0.1772  1.3099 -3.2222
  684MOL0     H94371   9.264   1.431   4.671  2.7660 -0.1267 -1.1391
  684MOL0     H94372   9.154   2.116   4.401  1.1875  0.1322 -1.9009
  684MOL0     H94373   9.114   2.326   4.537 -0.0857 -1.2423  0.2145
  684MOL0     H94374   9.008   2.628   4.840  1.7227 -2.0100 -0.0273
  684MOL0     H94375   8.972   2.863   4.887  0.1966 -1.0728  0.7787
  684MOL0     H94376  10.305   3.965   4.012  0.9550 -1.2030  4.1976
  684MOL0     H94377  10.444   4.003   3.821  0.6549 -0.4738  2.1271
  684MOL0     H94378  10.933   3.967   3.756  0.5964 -0.4689  0.4666
  684MOL0     H94379  11.097   3.966   3.598 -0.0398 -0.2136 -0.3456
  684MOL0     H94380  11.292   4.073   3.528 -1.4482  0.8571 -0.4732
  684MOL0     H94381  11.211   3.990   3.394 -1.2338 -0.5795  2.2086
  684MOL0     H94382  11.332   4.143   3.226 -0.7369 -0.3109  0.8370
  684MOL0     H94383  11.443   4.040   3.336 -1.1280 -0.5217  0.9731
  684MOL0     H94384  11.374   4.334   3.336 -0.5060 -0.2003  0.7035
  684MOL0     H94385  11.463   4.260   3.466  2.0672 -2.2346 -0.2104
  684MOL0     H94386  11.570   4.273   3.184 -2.8842  0.5633 -0.2985
  684MOL0     H94387  11.650   4.200   3.330 -0.3952  1.9833  1.5675
  684MOL0     H94388  11.765   4.573   3.424 -0.4735  0.5066 -0.7311
  684MOL0     H94389  10.996   4.373   3.484  0.1981 -0.8961 -1.1239
  684MOL0     H94390  10.801   4.433   3.789 -0.9842 -2.0789  1.0857
  684MOL0     H94391  10.903   4.499   3.650  0.1242 -0.3652 -0.0092
  684MOL0     H94392  10.742   4.439   3.620  1.5688  0.9400 -1.3959
  685MOL0     O94393   1.098   4.885   6.079  0.6829  0.0476 -0.1991
  685MOL0     C94394   1.203   4.919   6.023  0.5167  0.1002  0.7788
  685MOL0     O94395   1.318   4.831   6.000 -0.6070 -0.5863 -0.7335
  685MOL0     C94396   1.321   4.709   6.054  0.5124 -0.7618 -0.0983
  685MOL0     C94397   1.392   4.700   6.180 -0.0622  0.4259  0.8928
  685MOL0     C94398   1.396   4.573   6.234  1.1767  0.2542 -0.6097
  685MOL0     C94399   1.336   4.467   6.158  0.4655 -0.0714 -0.1132
  685MOL0     O94400   1.338   4.334   6.193  0.0993 -0.2668 -0.6288
  685MOL0     C94401   1.387   4.305   6.319 -0.2972  0.4147 -0.7071
  685MOL0     C94402   1.374   4.149   6.328  0.5715  0.0729  0.0972
  685MOL0     C94403   1.493   4.080   6.250 -0.8050  0.2126 -1.3791
  685MOL0     C94404   1.492   3.924   6.258 -0.3859 -0.4668  0.1553
  685MOL0     C94405   1.362   3.858   6.205  0.7899  0.0281  0.3705
  685MOL0     C94406   1.376   3.703   6.213  0.1522  0.6798  0.8199
  685MOL0     C94407   1.255   3.624   6.160 -0.1866 -0.4289 -0.4266
  685MOL0     C94408   1.242   3.626   6.010 -0.2315 -0.6253 -0.6612
  685MOL0     N94409   1.162   3.521   5.942  0.0145 -0.0604 -1.4838
  685MOL0     C94410   1.029   3.497   5.970  0.4783  0.4269  0.4517
  685MOL0     C94411   0.997   3.374   5.899 -0.3915 -0.6612  0.1582
  685MOL0     C94412   0.868   3.303   5.894 -0.1423  0.4590  0.7238
  685MOL0     C94413   0.758   3.390   5.831 -0.3022  0.2529  0.0326
  685MOL0     C94414   0.764   3.390   5.675 -0.2691 -0.3694  0.5110
  685MOL0     C94415   0.647   3.469   5.620  0.5569  0.0904  0.6581
  685MOL0     O94416   0.652   3.610   5.638 -0.3382  0.3601 -0.6315
  685MOL0     C94417   0.525   3.656   5.652  0.3584 -1.4414  0.3788
  685MOL0     C94418   0.426   3.617   5.740 -0.5332 -0.8160  0.2387
  685MOL0     C94419   0.296   3.669   5.746  0.6059 -0.6030  0.5348
  685MOL0     C94420   0.198   3.602   5.847 -1.0670 -0.3397  0.7627
  685MOL0     C94421   0.265   3.788   5.678  0.4328 -0.0128  0.1566
  685MOL0     C94422   0.139   3.882   5.689 -0.4152  0.6443 -0.0828
  685MOL0     O94423   0.124   3.978   5.589  1.3424 -0.2170  0.0266
  685MOL0     C94424   0.029   4.073   5.590  0.5103 -0.2960  0.4750
  685MOL0     C94425  -0.100   4.052   5.645  0.3771 -0.9796 -0.3530
  685MOL0     C94426  -0.190   4.158   5.644 -0.4156  0.9802 -0.1357
  685MOL0     C94427  -0.151   4.282   5.593  0.2165 -0.7345  0.7659
  685MOL0     O94428  -0.244   4.382   5.587 -0.4311 -0.3749  0.0907
  685MOL0     C94429  -0.227   4.480   5.484  0.3140 -0.1054  0.8299
  685MOL0     C94430  -0.342   4.569   5.494 -0.1600 -0.1962  0.8106
  685MOL0     C94431  -0.488   4.513   5.476  0.1877 -0.3145 -0.2728
  685MOL0     C94432  -0.515   4.431   5.350 -0.4071 -0.5299 -0.2265
  685MOL0     C94433  -0.482   4.516   5.227  0.1506 -0.4081  0.0399
  685MOL0     C94434  -0.547   4.467   5.099 -0.5734 -0.8903  1.2157
  685MOL0     C94435  -0.703   4.495   5.089 -0.5139 -0.1078  0.1415
  685MOL0     C94436  -0.756   4.522   4.950  1.1657  1.3872  0.6730
  685MOL0    Cl94437  -0.938   4.510   4.971  0.0393  0.1604  0.7770
  685MOL0     C94438  -0.025   4.298   5.533  0.0400 -0.1196  0.1037
  685MOL0     C94439   0.072   4.191   5.535  1.9768  0.1492  1.0231
  685MOL0     O94440   0.062   3.849   5.777  1.0923  0.0219  0.2572
  685MOL0     C94441   0.364   3.829   5.587  0.2270 -1.3444  1.3555
  685MOL0     C94442   0.491   3.770   5.571  1.6413  1.8938 -0.1804
  685MOL0     N94443   1.109   3.342   5.823  0.7580 -0.1648 -0.0296
  685MOL0     N94444   1.208   3.422   5.857  0.3879  0.5475  0.6340
  685MOL0     C94445   1.256   4.480   6.049 -0.3248  0.3648  1.0408
  685MOL0     C94446   1.244   4.609   6.003  0.0861  0.3845 -0.9550
  685MOL0     C94447   1.228   5.050   5.981 -0.5555 -0.2208  0.3660
  685MOL0     C94448   1.127   5.117   5.913 -0.8440  0.0740 -0.4754
  685MOL0     C94449   1.153   5.238   5.847  0.3643  0.2382 -0.2994
  685MOL0     C94450   1.278   5.293   5.842 -0.2969  0.9048 -0.2591
  685MOL0     O94451   1.279   5.410   5.758 -0.2917  0.0628  0.0254
  685MOL0     C94452   1.392   5.482   5.721  0.1598 -0.0166  0.1743
  685MOL0     C94453   1.491   5.410   5.622  0.4028  0.4284  0.3606
  685MOL0     C94454   1.595   5.510   5.596 -0.1936 -0.1065  0.5209
  685MOL0     C94455   1.714   5.463   5.512 -0.2723  0.4228 -0.0483
  685MOL0     C94456   1.803   5.581   5.505  0.1233  0.2084  0.0176
  685MOL0     C94457   1.879   5.682   5.492  0.0512  0.7216  0.2936
  685MOL0     C94458   1.375   5.243   5.931 -0.9216 -0.9054  1.3222
  685MOL0     C94459   1.354   5.121   5.999  0.0128  0.5912 -0.5018
  685MOL0     C94460   1.467   5.090   6.097  0.1638 -0.3223 -0.1223
  685MOL0     H94461   1.421   4.790   6.233 -0.9817  1.4807 -0.3229
  685MOL0     H94462   1.459   4.559   6.321  3.2421  0.0205 -2.0580
  685MOL0     H94463   1.322   4.353   6.394  4.4801  0.4310  4.0081
  685MOL0     H94464   1.490   4.339   6.327  0.2578 -1.3842  0.3188
  685MOL0     H94465   1.381   4.126   6.434 -3.4904  3.2952  1.3345
  685MOL0     H94466   1.274   4.114   6.298 -1.3001  1.9509  3.5050
  685MOL0     H94467   1.488   4.109   6.145 -1.1777  2.8403 -0.6903
  685MOL0     H94468   1.592   4.098   6.294 -2.3637  0.5255  2.3844
  685MOL0     H94469   1.578   3.896   6.198 -1.1565 -0.7715 -0.8381
  685MOL0     H94470   1.506   3.885   6.360 -3.3210 -0.6612  0.5846
  685MOL0     H94471   1.336   3.887   6.103  0.4449 -0.2670  0.3752
  685MOL0     H94472   1.279   3.892   6.267  3.4643  0.3898  4.1021
  685MOL0     H94473   1.464   3.678   6.153 -2.1594  0.9837 -2.9616
  685MOL0     H94474   1.393   3.681   6.319  4.3980  1.5030  0.4715
  685MOL0     H94475   1.163   3.662   6.205  0.2749  0.7889 -0.4418
  685MOL0     H94476   1.258   3.522   6.197  0.4283 -0.4927 -0.6423
  685MOL0     H94477   1.190   3.721   5.996 -1.2717 -1.3236 -1.8144
  685MOL0     H94478   1.336   3.648   5.959  1.4316 -2.3066  1.5008
  685MOL0     H94479   0.958   3.545   6.036 -1.5322 -2.3781  0.5226
  685MOL0     H94480   0.840   3.280   5.997 -2.1468  1.1825  0.3692
  685MOL0     H94481   0.876   3.219   5.824 -0.4128  2.9331 -2.5355
  685MOL0     H94482   0.667   3.345   5.870  0.4161 -0.2485  1.2010
  685MOL0     H94483   0.760   3.492   5.870 -0.1264  0.5129 -0.6364
  685MOL0     H94484   0.855   3.440   5.642  0.9095 -1.7847  1.4638
  685MOL0     H94485   0.776   3.288   5.637  1.5972 -0.0792  0.2122
  685MOL0     H94486   0.654   3.438   5.515  3.8054 -0.1462  0.8561
  685MOL0     H94487   0.554   3.425   5.659  0.3654  1.8943  2.4161
  685MOL0     H94488   0.435   3.524   5.795  3.5299 -2.5014 -2.8031
  685MOL0     H94489   0.225   3.498   5.865  4.1721  0.6488  0.1118
  685MOL0     H94490   0.097   3.595   5.804 -2.5897 -1.8818  4.1568
  685MOL0     H94491   0.185   3.659   5.939 -1.8823  0.2141  0.3150
  685MOL0     H94492  -0.125   3.950   5.671  0.6688 -1.0049 -0.1756
  685MOL0     H94493  -0.294   4.144   5.674 -1.7949  3.4750 -3.0762
  685MOL0     H94494  -0.135   4.537   5.500  1.4284 -1.2399 -1.1843
  685MOL0     H94495  -0.236   4.436   5.385  0.7135  2.2660 -0.3175
  685MOL0     H94496  -0.337   4.629   5.585  0.8100 -3.0890  2.8205
  685MOL0     H94497  -0.326   4.642   5.414 -0.1021  1.4960  2.2988
  685MOL0     H94498  -0.558   4.597   5.483  0.5789 -0.0189  0.1348
  685MOL0     H94499  -0.514   4.458   5.567  1.6852 -2.7452 -1.2141
  685MOL0     H94500  -0.620   4.402   5.338  0.5818 -3.4932 -2.8901
  685MOL0     H94501  -0.461   4.338   5.333 -0.9749 -0.8897 -0.0703
  685MOL0     H94502  -0.503   4.623   5.238  0.1443 -0.1579 -2.0576
  685MOL0     H94503  -0.375   4.533   5.215 -0.3092  2.5898 -0.6887
  685MOL0     H94504  -0.520   4.363   5.077 -0.3384 -0.1860 -2.5136
  685MOL0     H94505  -0.507   4.532   5.021 -0.4766  1.6705  3.2397
  685MOL0     H94506  -0.730   4.585   5.145 -0.8425  0.0232 -0.2247
  685MOL0     H94507  -0.761   4.413   5.132 -1.1188  1.0853  1.6835
  685MOL0     H94508  -0.732   4.441   4.881 -0.5326  2.2535 -1.0278
  685MOL0     H94509  -0.738   4.619   4.902 -1.7382  2.0636  0.7818
  685MOL0     H94510   0.008   4.399   5.509  0.6063 -0.3061  0.0728
  685MOL0     H94511   0.176   4.194   5.506  1.2515 -2.3574 -2.5971
  685MOL0     H94512   0.345   3.926   5.542 -1.8201 -1.9616  0.7716
  685MOL0     H94513   0.564   3.803   5.498 -2.5427  1.8372 -4.8738
  685MOL0     H94514   1.210   4.395   5.998 -1.8216  1.8626 -0.2574
  685MOL0     H94515   1.172   4.623   5.923 -1.0466 -3.5650 -0.8601
  685MOL0     H94516   1.028   5.074   5.916 -0.5312 -0.7580  3.1213
  685MOL0     H94517   1.072   5.291   5.798 -1.2517 -1.7692  0.0533
  685MOL0     H94518   1.371   5.574   5.667  1.7037  1.8887  2.5987
  685MOL0     H94519   1.445   5.506   5.814 -2.3219  2.8374  0.9921
  685MOL0     H94520   1.443   5.380   5.529  2.3572 -0.7056 -0.3307
  685MOL0     H94521   1.529   5.316   5.663  0.8836  0.2767 -0.4213
  685MOL0     H94522   1.553   5.588   5.532 -0.5506 -0.7664 -0.0679
  685MOL0     H94523   1.630   5.548   5.693 -0.2887  2.4000 -0.3743
  685MOL0     H94524   1.679   5.428   5.415  3.0496  0.3027 -1.3576
  685MOL0     H94525   1.772   5.385   5.562  0.7050  2.4070  2.1355
  685MOL0     H94526   1.934   5.771   5.470  2.9524 -0.9409  0.1956
  685MOL0     H94527   1.470   5.294   5.939 -0.2053 -2.3503  2.6701
  685MOL0     H94528   1.443   5.018   6.176  1.6292 -1.6365 -0.8240
  685MOL0     H94529   1.551   5.036   6.054  0.4085 -1.5811  1.7856
  685MOL0     H94530   1.520   5.177   6.139  0.3043  1.3121 -3.3690
  686MOL0     O94531   7.972   1.358   2.457 -0.1911  0.1561  0.1397
  686MOL0     C94532   7.983   1.483   2.458 -0.5362 -0.3014  0.0466
  686MOL0     O94533   8.018   1.548   2.572  0.0616  0.1567 -0.8097
  686MOL0     C94534   8.073   1.483   2.679 -0.3322 -1.0794 -0.1765
  686MOL0     C94535   8.152   1.365   2.682  0.4698 -0.0032  1.3828
  686MOL0     C94536   8.204   1.307   2.791  0.2209 -0.4824  0.2758
  686MOL0     C94537   8.180   1.363   2.908  0.4636  0.0904  0.0003
  686MOL0     O94538   8.233   1.316   3.025 -0.7636  0.5920  0.7625
  686MOL0     C94539   8.141   1.227   3.100 -0.6232 -0.2225 -0.5209
  686MOL0     C94540   8.205   1.184   3.232  0.4225 -0.1887 -0.2264
  686MOL0     C94541   8.281   1.301   3.308  0.8537  0.1255 -0.8713
  686MOL0     C94542   8.175   1.407   3.344  0.3995  0.5279 -0.0264
  686MOL0     C94543   8.225   1.520   3.415  0.6081 -0.4795 -0.3090
  686MOL0     C94544   8.364   1.585   3.380 -0.7697  0.4687  0.8629
  686MOL0     C94545   8.397   1.626   3.235  0.1947 -0.3828  0.0515
  686MOL0     C94546   8.313   1.732   3.165  0.4020  0.0412 -0.9058
  686MOL0     N94547   8.341   1.746   3.024  0.5872 -1.1476  0.1424
  686MOL0     C94548   8.416   1.668   2.945  0.5881 -0.0762  0.3610
  686MOL0     C94549   8.412   1.724   2.823  0.1846  0.0207  1.0825
  686MOL0     C94550   8.499   1.686   2.707 -0.2758  0.1082  0.5838
  686MOL0     C94551   8.420   1.652   2.587  0.5721  1.0522  0.8104
  686MOL0     C94552   8.392   1.772   2.500  0.0087 -0.3157 -0.1520
  686MOL0     C94553   8.289   1.749   2.385  0.5522  0.5097 -0.2351
  686MOL0     O94554   8.353   1.659   2.292  0.2748 -0.0702 -0.0175
  686MOL0     C94555   8.353   1.684   2.159 -0.4720 -0.5384  0.5813
  686MOL0     C94556   8.435   1.609   2.074  0.0176 -0.3733  0.0217
  686MOL0     C94557   8.451   1.637   1.938  0.2213 -0.3626  0.7351
  686MOL0     C94558   8.543   1.551   1.865 -0.0852 -0.6424  0.3828
  686MOL0     C94559   8.369   1.739   1.882  0.7800 -0.5351 -0.7546
  686MOL0     C94560   8.375   1.779   1.742 -0.6416  0.4652 -0.5486
  686MOL0     O94561   8.465   1.875   1.720 -0.3963 -0.2180 -0.3931
  686MOL0     C94562   8.472   1.927   1.598  0.3461  0.4326 -0.2704
  686MOL0     C94563   8.520   1.852   1.486  0.3052 -0.0235  0.4413
  686MOL0     C94564   8.546   1.912   1.357  0.2088 -0.0844 -0.3678
  686MOL0     C94565   8.500   2.046   1.337  0.4365  0.1919  0.4649
  686MOL0     O94566   8.514   2.108   1.214 -0.6368  0.4847  0.1147
  686MOL0     C94567   8.464   2.034   1.111  0.1666  0.5078 -0.4333
  686MOL0     C94568   8.453   2.109   0.979 -0.0339 -0.2830 -0.0359
  686MOL0     C94569   8.596   2.150   0.933 -0.3042 -0.7716  0.2301
  686MOL0     C94570   8.598   2.251   0.819  0.4878 -0.6697 -1.0653
  686MOL0     C94571   8.729   2.327   0.821 -0.8350  0.0020  0.5551
  686MOL0     C94572   8.729   2.430   0.704 -0.1824  0.3890 -0.7363
  686MOL0     C94573   8.821   2.540   0.732  0.6817  0.6389  0.3072
  686MOL0     C94574   8.865   2.625   0.608 -0.5687  0.0415 -0.7488
  686MOL0    Cl94575   8.996   2.535   0.518 -0.1365 -0.5333  0.4208
  686MOL0     C94576   8.444   2.107   1.440 -0.8631 -0.3553  0.0967
  686MOL0     C94577   8.431   2.053   1.571  0.7462 -0.0532  0.3946
  686MOL0     O94578   8.292   1.730   1.667  0.1720 -0.2484  0.7066
  686MOL0     C94579   8.280   1.812   1.961 -0.6940 -0.7396 -0.3315
  686MOL0     C94580   8.275   1.786   2.097 -0.9352 -0.4964 -0.4196
  686MOL0     N94581   8.325   1.829   2.824 -0.2231  0.3877  0.0894
  686MOL0     N94582   8.286   1.847   2.950  0.6151  0.5959  0.4849
  686MOL0     C94583   8.099   1.473   2.927  0.4029 -0.1219 -0.0273
  686MOL0     C94584   8.042   1.525   2.816  0.4694  0.2625  0.1496
  686MOL0     C94585   7.949   1.568   2.339 -0.5998  1.0236  0.0033
  686MOL0     C94586   7.955   1.504   2.208  0.2165  0.0178 -0.1071
  686MOL0     C94587   7.931   1.571   2.098  0.6129 -0.3452 -0.1894
  686MOL0     C94588   7.895   1.708   2.102  1.0972  1.1987  0.5348
  686MOL0     O94589   7.853   1.778   1.995 -0.2072  0.7080  0.6341
  686MOL0     C94590   7.891   1.728   1.857 -1.2276  0.2003  0.1297
  686MOL0     C94591   7.896   1.849   1.756  0.1700 -0.4529  0.2257
  686MOL0     C94592   7.910   1.808   1.614  0.4307 -0.4694  0.3342
  686MOL0     C94593   7.918   1.917   1.503 -1.0190  0.2868 -0.2218
  686MOL0     C94594   7.806   2.010   1.531 -0.4199 -1.0458 -0.6900
  686MOL0     C94595   7.703   2.062   1.564  0.5731  0.7024 -0.7294
  686MOL0     C94596   7.879   1.765   2.227 -0.4051 -0.1442 -0.6857
  686MOL0     C94597   7.911   1.705   2.344 -0.0515 -0.1955 -0.1475
  686MOL0     C94598   7.890   1.784   2.478  0.3828 -0.6579  1.1501
  686MOL0     H94599   8.193   1.319   2.593 -0.9180 -1.6046  1.5148
  686MOL0     H94600   8.280   1.230   2.791  3.0118  1.9859 -2.3712
  686MOL0     H94601   8.101   1.142   3.045 -0.8555 -1.2735  1.2180
  686MOL0     H94602   8.047   1.283   3.113 -1.3990 -1.7852  0.8991
  686MOL0     H94603   8.130   1.137   3.297  0.7814  1.9100  1.8430
  686MOL0     H94604   8.281   1.107   3.214 -0.9351 -1.5037 -0.4910
  686MOL0     H94605   8.315   1.263   3.404  2.5185  0.2148 -1.3868
  686MOL0     H94606   8.366   1.341   3.252 -0.0661 -0.6529 -2.9276
  686MOL0     H94607   8.134   1.448   3.252  1.5146 -2.3226 -1.9511
  686MOL0     H94608   8.106   1.355   3.411  2.8155 -2.1484  0.6143
  686MOL0     H94609   8.244   1.486   3.518 -3.7464 -0.5297  0.6639
  686MOL0     H94610   8.152   1.600   3.431  1.8077  0.6781 -0.4588
  686MOL0     H94611   8.379   1.670   3.447  1.0429 -0.0248  1.1356
  686MOL0     H94612   8.441   1.510   3.399  1.1864  2.2458  0.3463
  686MOL0     H94613   8.372   1.533   3.184 -0.3163 -1.2116  1.7294
  686MOL0     H94614   8.502   1.655   3.227  0.0626  0.1920  0.3339
  686MOL0     H94615   8.208   1.712   3.188  1.0706 -0.7010  1.8842
  686MOL0     H94616   8.336   1.824   3.220 -0.0850 -0.0515 -0.5404
  686MOL0     H94617   8.473   1.581   2.976  0.8743 -0.4709 -1.2325
  686MOL0     H94618   8.565   1.605   2.738  0.1262 -0.1242 -0.8051
  686MOL0     H94619   8.565   1.771   2.686 -1.0798  0.8232  0.8738
  686MOL0     H94620   8.478   1.583   2.524  0.4598  2.0712 -0.4509
  686MOL0     H94621   8.330   1.598   2.618  0.1021  1.3233 -0.0590
  686MOL0     H94622   8.353   1.853   2.562  0.4924 -1.0694  1.1870
  686MOL0     H94623   8.485   1.801   2.449  1.0404 -0.5546  1.5302
  686MOL0     H94624   8.195   1.711   2.424  0.9631  1.0990  1.3928
  686MOL0     H94625   8.268   1.847   2.340 -2.6429  0.7443  1.5393
  686MOL0     H94626   8.492   1.530   2.123  1.8442  1.0454  0.3054
  686MOL0     H94627   8.592   1.487   1.938 -0.9636 -1.4010  0.3252
  686MOL0     H94628   8.626   1.610   1.826  0.5297  0.6408  3.4356
  686MOL0     H94629   8.495   1.496   1.783 -0.8168 -0.9665  1.0170
  686MOL0     H94630   8.533   1.745   1.501 -0.6650 -0.2293 -0.0723
  686MOL0     H94631   8.582   1.841   1.282 -1.9663 -4.0999  2.0482
  686MOL0     H94632   8.526   1.947   1.087  0.7753  1.2194 -1.5459
  686MOL0     H94633   8.365   2.000   1.143 -0.1856  2.0276  0.1481
  686MOL0     H94634   8.399   2.048   0.906  2.3058 -1.2371 -1.0761
  686MOL0     H94635   8.397   2.202   0.990  0.3280 -0.1752  0.9913
  686MOL0     H94636   8.657   2.067   0.897  0.5342  0.7963 -2.2211
  686MOL0     H94637   8.644   2.193   1.021 -4.7293 -0.4644  2.8204
  686MOL0     H94638   8.511   2.315   0.834 -0.7718 -2.5023 -0.2799
  686MOL0     H94639   8.572   2.184   0.737  1.3351 -2.9311  0.4197
  686MOL0     H94640   8.752   2.378   0.915  1.4891 -0.2974  0.2001
  686MOL0     H94641   8.801   2.248   0.797  0.9691  2.6956 -4.0819
  686MOL0     H94642   8.622   2.452   0.691 -0.2978 -1.2790 -3.2628
  686MOL0     H94643   8.758   2.377   0.613  0.0189 -2.4297  0.8367
  686MOL0     H94644   8.908   2.504   0.788  1.3392 -2.8096 -2.5499
  686MOL0     H94645   8.760   2.606   0.795  0.8694 -0.2853  1.4838
  686MOL0     H94646   8.913   2.715   0.648  1.0050 -1.6315  1.3827
  686MOL0     H94647   8.778   2.651   0.547 -0.1204 -1.2943 -2.0301
  686MOL0     H94648   8.418   2.208   1.409 -0.9699 -0.5199 -0.3604
  686MOL0     H94649   8.388   2.111   1.652  1.0976 -2.1785  2.2087
  686MOL0     H94650   8.219   1.893   1.921  1.0979  1.4439  1.0562
  686MOL0     H94651   8.221   1.859   2.157 -0.5180 -1.8975  1.7483
  686MOL0     H94652   8.069   1.510   3.025  0.6745 -2.9852  1.2553
  686MOL0     H94653   7.982   1.615   2.820  1.6832  1.0454  1.8891
  686MOL0     H94654   7.978   1.398   2.209  0.8254  0.1471  1.5261
  686MOL0     H94655   7.933   1.509   2.009 -1.2563 -2.5786  1.2155
  686MOL0     H94656   7.990   1.684   1.844 -1.4120 -0.2549  0.2220
  686MOL0     H94657   7.825   1.649   1.820  1.3670 -2.0520  0.0237
  686MOL0     H94658   7.985   1.901   1.793  0.0358 -2.5474  3.9628
  686MOL0     H94659   7.805   1.908   1.771  0.9311  0.9364 -0.4548
  686MOL0     H94660   7.994   1.742   1.591  1.1424  1.1689 -2.3274
  686MOL0     H94661   7.824   1.746   1.587 -0.1717 -0.2183  1.6096
  686MOL0     H94662   7.905   1.874   1.403  0.7750 -0.5353 -0.1332
  686MOL0     H94663   8.014   1.969   1.502 -0.8062  0.0080  1.9000
  686MOL0     H94664   7.625   2.125   1.602  0.3024 -0.3169  0.4480
  686MOL0     H94665   7.844   1.867   2.234 -0.3032  0.0343 -2.4181
  686MOL0     H94666   7.841   1.723   2.554 -5.8798 -0.6090 -2.1910
  686MOL0     H94667   7.985   1.827   2.511  0.4764  1.1870 -1.2766
  686MOL0     H94668   7.822   1.867   2.458 -0.1423 -0.8900  1.9152
  687MOL0     O94669   2.102   6.640   9.024  0.1987 -0.9707  0.5334
  687MOL0     C94670   2.038   6.651   8.919  0.3400  0.0673  0.6328
  687MOL0     O94671   2.090   6.715   8.809  0.6161  0.2342 -0.3285
  687MOL0     C94672   2.003   6.790   8.721 -0.4861 -0.2732 -0.4623
  687MOL0     C94673   1.872   6.833   8.741 -0.3422 -0.3683 -0.3969
  687MOL0     C94674   1.806   6.925   8.659  0.5315  0.0780  0.9048
  687MOL0     C94675   1.876   6.957   8.540 -0.3451 -0.4501 -0.4445
  687MOL0     O94676   1.798   7.019   8.442 -0.4830  1.3346  0.5861
  687MOL0     C94677   1.852   7.137   8.369  0.4782  0.5295 -0.0882
  687MOL0     C94678   1.851   7.265   8.450 -1.6001  0.2408  0.1923
  687MOL0     C94679   1.734   7.262   8.548 -0.0323 -0.3412 -0.4406
  687MOL0     C94680   1.757   7.397   8.630 -0.9524  0.2399  0.2039
  687MOL0     C94681   1.665   7.392   8.752  0.2504  0.1481 -0.4838
  687MOL0     C94682   1.675   7.518   8.844 -0.7182 -0.9752  0.0086
  687MOL0     C94683   1.649   7.651   8.778  0.6796 -0.7246  0.0776
  687MOL0     C94684   1.610   7.765   8.867  0.3312 -0.3100 -0.4192
  687MOL0     N94685   1.733   7.829   8.933  1.3163 -0.6352 -0.2155
  687MOL0     C94686   1.800   7.770   9.032 -0.5479 -0.6838 -0.6521
  687MOL0     C94687   1.884   7.865   9.072 -0.3639  0.6633 -0.0950
  687MOL0     C94688   1.982   7.846   9.186 -0.6353 -0.1862  0.1961
  687MOL0     C94689   2.005   7.982   9.259  0.3144  0.7865 -0.0016
  687MOL0     C94690   1.882   8.018   9.351  1.4370 -0.8755  0.3779
  687MOL0     C94691   1.913   8.148   9.433 -0.2434  0.7406 -0.1057
  687MOL0     O94692   1.799   8.197   9.498  0.3739  0.4590  0.2760
  687MOL0     C94693   1.737   8.126   9.601  0.1183 -0.7095 -1.1452
  687MOL0     C94694   1.799   8.032   9.676  0.7034 -0.4404  0.2910
  687MOL0     C94695   1.736   7.977   9.791 -0.6591 -0.2011  0.6632
  687MOL0     C94696   1.810   7.859   9.850 -0.0575 -0.2419 -0.6238
  687MOL0     C94697   1.619   8.034   9.839 -0.0673  0.2662  0.0970
  687MOL0     C94698   1.558   8.011   9.978  0.2742 -1.3621 -0.2370
  687MOL0     O94699   1.452   8.092  10.007 -0.2294  0.1247  0.2238
  687MOL0     C94700   1.390   8.047  10.117 -0.1830 -0.5344  0.0534
  687MOL0     C94701   1.380   8.141  10.221 -0.3190 -0.2368 -0.1290
  687MOL0     C94702   1.329   8.102  10.347 -0.8088  0.0200 -0.0938
  687MOL0     C94703   1.271   7.978  10.362  1.1377  0.5656  0.3734
  687MOL0     O94704   1.197   7.935  10.473 -0.0215 -0.6012 -0.0425
  687MOL0     C94705   1.222   7.985  10.606 -0.4113  1.6562  0.9038
  687MOL0     C94706   1.319   7.895  10.668  0.0570 -0.0854  0.0266
  687MOL0     C94707   1.336   7.924  10.815 -0.5252  0.3863  0.2215
  687MOL0     C94708   1.429   7.839  10.908  0.2941 -0.3086  0.8846
  687MOL0     C94709   1.431   7.896  11.051  0.9068 -0.4289  0.2670
  687MOL0     C94710   1.537   7.818  11.133  0.5965 -0.0604 -1.1463
  687MOL0     C94711   1.557   7.889  11.266 -0.2487 -0.0302 -1.1180
  687MOL0     C94712   1.639   7.813  11.366  0.5837  0.2605  0.3807
  687MOL0    Cl94713   1.553   7.813  11.520  0.5296 -0.1359  0.0939
  687MOL0     C94714   1.265   7.893  10.256  0.5793 -0.4803 -0.4008
  687MOL0     C94715   1.322   7.927  10.133 -0.3161 -0.3810 -0.1927
  687MOL0     O94716   1.612   7.934  10.066  0.8306 -0.8602  0.5363
  687MOL0     C94717   1.553   8.124   9.766 -0.4290 -1.0069  0.1036
  687MOL0     C94718   1.612   8.176   9.649 -0.4070  0.1592  0.0423
  687MOL0     N94719   1.867   7.984   8.999 -0.2296  0.9188  0.6559
  687MOL0     N94720   1.783   7.950   8.905 -0.4255 -0.5575  0.4819
  687MOL0     C94721   2.001   6.919   8.505 -0.3571  0.4864 -0.4488
  687MOL0     C94722   2.069   6.836   8.605 -0.4210  0.1276 -0.0448
  687MOL0     C94723   1.914   6.572   8.901  0.5583 -0.0060  0.9910
  687MOL0     C94724   1.889   6.499   8.788 -0.6469 -0.3482  0.5635
  687MOL0     C94725   1.769   6.446   8.752  0.3470  1.1531  0.7978
  687MOL0     C94726   1.677   6.433   8.850  0.4897  0.0541 -0.3010
  687MOL0     O94727   1.566   6.363   8.819  0.0320  0.1198 -0.9830
  687MOL0     C94728   1.444   6.435   8.840  0.3194  0.7275  0.5401
  687MOL0     C94729   1.330   6.342   8.886 -0.8428  0.1526 -0.5802
  687MOL0     C94730   1.331   6.195   8.836  0.5307 -0.2830 -0.4997
  687MOL0     C94731   1.316   6.188   8.685  0.3428 -1.3026 -0.2052
  687MOL0     C94732   1.349   6.052   8.642 -0.1266 -0.0356  0.1828
  687MOL0     C94733   1.376   5.942   8.594  0.1112 -0.0909  0.1161
  687MOL0     C94734   1.707   6.480   8.987 -0.1990  0.2907  0.1947
  687MOL0     C94735   1.825   6.557   9.010 -0.0996  0.2650 -0.2737
  687MOL0     C94736   1.836   6.634   9.148 -0.6777 -0.1466 -0.0269
  687MOL0     H94737   1.834   6.780   8.828  0.3907 -1.5956 -0.8054
  687MOL0     H94738   1.703   6.948   8.682 -0.6728 -0.8778 -2.7869
  687MOL0     H94739   1.785   7.140   8.283 -1.1439  1.4107  1.1251
  687MOL0     H94740   1.953   7.125   8.329  0.5690  0.2567  0.2170
  687MOL0     H94741   1.949   7.262   8.498 -1.7236 -3.0582  0.4936
  687MOL0     H94742   1.846   7.349   8.380 -0.9169 -2.3932 -3.2460
  687MOL0     H94743   1.641   7.246   8.494  1.2484 -0.2170 -2.8276
  687MOL0     H94744   1.750   7.183   8.622  0.2316  2.1103  2.3088
  687MOL0     H94745   1.860   7.416   8.661  0.2911 -0.6939 -2.9186
  687MOL0     H94746   1.732   7.474   8.556  1.1590 -1.0565 -2.0082
  687MOL0     H94747   1.691   7.308   8.818 -2.1960  1.5018  2.4788
  687MOL0     H94748   1.560   7.377   8.725  0.4101  2.5399 -2.8505
  687MOL0     H94749   1.601   7.507   8.924 -0.7355 -2.0892 -0.1418
  687MOL0     H94750   1.774   7.520   8.892 -0.0164  0.9936 -1.4160
  687MOL0     H94751   1.569   7.632   8.706  2.6756 -2.1836 -1.9328
  687MOL0     H94752   1.732   7.670   8.708 -1.0809  2.3400 -1.3787
  687MOL0     H94753   1.548   7.840   8.818  0.4454 -1.3780 -2.3025
  687MOL0     H94754   1.552   7.733   8.954  0.0768  2.6252  0.6300
  687MOL0     H94755   1.780   7.667   9.060  0.8968 -1.3384 -1.8674
  687MOL0     H94756   2.083   7.820   9.151 -0.1753  1.7359 -0.0045
  687MOL0     H94757   1.963   7.760   9.252  5.3765 -0.5003  2.0906
  687MOL0     H94758   2.083   7.983   9.335  3.4611  1.2818 -3.0177
  687MOL0     H94759   2.023   8.064   9.190 -0.8912  0.6716 -0.4875
  687MOL0     H94760   1.801   8.020   9.278  2.0139  0.8154 -0.2637
  687MOL0     H94761   1.848   7.954   9.433  0.7143  1.6742  2.1965
  687MOL0     H94762   1.995   8.127   9.503  0.0849  1.3235 -0.3096
  687MOL0     H94763   1.957   8.223   9.366 -2.8609  2.7976  0.2705
  687MOL0     H94764   1.898   7.994   9.651  0.9740  1.1617 -1.3322
  687MOL0     H94765   1.887   7.819   9.784  0.4866  0.7393 -0.5881
  687MOL0     H94766   1.739   7.776   9.841 -0.4079  0.0424 -0.4913
  687MOL0     H94767   1.835   7.873   9.956 -0.4477  2.0476 -0.7807
  687MOL0     H94768   1.414   8.243  10.206  0.5465 -0.3893  0.6919
  687MOL0     H94769   1.331   8.180  10.422 -5.7150  1.6184 -1.2863
  687MOL0     H94770   1.274   8.081  10.596  0.5814  0.9109 -2.4030
  687MOL0     H94771   1.131   7.995  10.665 -1.2195 -0.3891  0.0805
  687MOL0     H94772   1.296   7.792  10.639  2.5014 -1.2037  1.7099
  687MOL0     H94773   1.421   7.909  10.630  0.6034  0.0758  1.4875
  687MOL0     H94774   1.234   7.920  10.856 -2.2694 -0.1005 -3.7394
  687MOL0     H94775   1.365   8.029  10.820 -6.1422  2.3133 -0.1498
  687MOL0     H94776   1.532   7.835  10.870  0.8029  0.7456  2.0456
  687MOL0     H94777   1.394   7.736  10.905 -1.8938  0.3238  2.2448
  687MOL0     H94778   1.441   8.005  11.046 -0.1212 -0.3725 -1.4573
  687MOL0     H94779   1.332   7.880  11.094  0.7105 -1.0343 -0.3884
  687MOL0     H94780   1.628   7.805  11.073  0.9982 -0.0856 -0.5355
  687MOL0     H94781   1.491   7.721  11.156 -1.3875  0.8673 -1.0776
  687MOL0     H94782   1.457   7.909  11.306 -0.0007  0.4099 -0.7143
  687MOL0     H94783   1.600   7.989  11.266 -2.0572  0.7887 -1.0714
  687MOL0     H94784   1.731   7.871  11.380  0.2421  0.5793  1.3580
  687MOL0     H94785   1.664   7.713  11.330  0.4642  1.7134 -4.4383
  687MOL0     H94786   1.212   7.799  10.268 -1.9750  1.1036  1.7830
  687MOL0     H94787   1.322   7.854  10.053 -1.7245  0.1364 -0.7032
  687MOL0     H94788   1.456   8.169   9.784  0.5842  0.6366  1.9309
  687MOL0     H94789   1.566   8.257   9.592 -0.8850 -0.3905 -0.3722
  687MOL0     H94790   2.040   6.950   8.409 -1.4504  0.9626 -0.7638
  687MOL0     H94791   2.172   6.809   8.585  0.0094  1.4014  0.3347
  687MOL0     H94792   1.963   6.509   8.709 -1.3532 -2.7057 -0.4614
  687MOL0     H94793   1.744   6.400   8.657 -0.1861 -1.0550  1.9445
  687MOL0     H94794   1.440   6.502   8.926 -2.1335 -2.2465  2.9973
  687MOL0     H94795   1.416   6.489   8.749  0.6197 -0.2237 -0.1317
  687MOL0     H94796   1.231   6.386   8.870 -0.9370 -0.3232 -1.4140
  687MOL0     H94797   1.328   6.337   8.995  0.1154  3.5886 -0.3095
  687MOL0     H94798   1.419   6.144   8.874  0.5913  1.4952  1.9407
  687MOL0     H94799   1.242   6.146   8.878 -0.2220  1.6569  0.2985
  687MOL0     H94800   1.402   6.241   8.644 -0.6568  0.4776 -0.0698
  687MOL0     H94801   1.226   6.234   8.646  0.2312  0.0530  1.5145
  687MOL0     H94802   1.420   5.848   8.567  3.8570  1.2237  0.9875
  687MOL0     H94803   1.633   6.460   9.064  0.4300 -1.1848  0.4441
  687MOL0     H94804   1.749   6.604   9.208 -1.4180  2.2113  0.1888
  687MOL0     H94805   1.932   6.606   9.193 -0.4939  1.6789  0.8444
  687MOL0     H94806   1.827   6.743   9.140 -0.0020  0.0276  1.3222
  688MOL0     O94807   3.612   3.751   2.897  0.3713  0.2382 -0.3094
  688MOL0     C94808   3.539   3.839   2.950 -0.4723  0.2827 -0.6435
  688MOL0     O94809   3.461   3.926   2.895  1.5965  0.0361 -0.0711
  688MOL0     C94810   3.459   3.937   2.750 -0.3040  0.7035  0.8027
  688MOL0     C94811   3.506   4.048   2.679  0.2596  0.5655  0.8648
  688MOL0     C94812   3.478   4.077   2.542  1.1861 -0.1749  0.2038
  688MOL0     C94813   3.410   3.980   2.466  0.3465 -0.7664 -0.1678
  688MOL0     O94814   3.392   3.979   2.334  0.3752 -0.4717 -0.7252
  688MOL0     C94815   3.513   3.983   2.259 -0.1990 -0.0042  0.3418
  688MOL0     C94816   3.489   3.935   2.115  0.2292  0.7631 -0.2661
  688MOL0     C94817   3.510   3.781   2.094  0.0408  0.2309  0.7816
  688MOL0     C94818   3.621   3.760   1.993 -0.4125  0.5741 -0.4713
  688MOL0     C94819   3.681   3.617   1.999  0.9998 -0.2126  0.4206
  688MOL0     C94820   3.760   3.598   1.872 -1.1362 -0.2071  0.4071
  688MOL0     C94821   3.891   3.507   1.894  0.9525  0.6251 -0.6966
  688MOL0     C94822   3.970   3.508   1.767  0.4713 -0.0677 -0.6237
  688MOL0     N94823   4.100   3.442   1.781  0.3842 -0.3732  0.6251
  688MOL0     C94824   4.131   3.321   1.728  0.2165 -0.4110 -0.0737
  688MOL0     C94825   4.269   3.312   1.739  0.1667  0.1616  1.5359
  688MOL0     C94826   4.354   3.189   1.720  0.0191 -0.2666  0.6445
  688MOL0     C94827   4.266   3.065   1.686  0.3016  0.5551 -0.9240
  688MOL0     C94828   4.359   2.941   1.675 -0.3164 -0.0780  1.0909
  688MOL0     C94829   4.289   2.806   1.641  0.6162  0.6326 -0.3172
  688MOL0     O94830   4.269   2.779   1.501  0.0710 -0.0642 -0.5643
  688MOL0     C94831   4.193   2.672   1.471 -0.3962  0.6944  0.0249
  688MOL0     C94832   4.127   2.659   1.348  0.1145 -0.0531  1.4509
  688MOL0     C94833   4.046   2.548   1.316 -0.3801 -0.8675  0.7451
  688MOL0     C94834   3.988   2.546   1.176  1.0721  0.3024 -0.2674
  688MOL0     C94835   4.022   2.453   1.418 -0.0052 -0.5339 -0.1352
  688MOL0     C94836   3.920   2.341   1.418 -1.3679 -0.1376  0.2916
  688MOL0     O94837   3.818   2.346   1.327 -0.0352 -0.1848 -0.3986
  688MOL0     C94838   3.742   2.228   1.310  0.0735 -0.4527 -0.6623
  688MOL0     C94839   3.751   2.166   1.186 -0.6898 -0.3435  0.2522
  688MOL0     C94840   3.660   2.065   1.148  0.6485 -0.5582 -0.5841
  688MOL0     C94841   3.583   2.008   1.258  0.8064  0.1962 -0.2846
  688MOL0     O94842   3.510   1.901   1.238  0.0956  0.2276 -1.0564
  688MOL0     C94843   3.504   1.806   1.348  0.3833 -0.6628  0.5040
  688MOL0     C94844   3.450   1.674   1.302 -0.1332  0.1098 -0.2016
  688MOL0     C94845   3.504   1.636   1.158 -0.2574 -0.1399 -0.7272
  688MOL0     C94846   3.440   1.502   1.117 -0.7343  0.5002 -0.1860
  688MOL0     C94847   3.516   1.383   1.184  1.0742 -1.8706  0.0237
  688MOL0     C94848   3.473   1.242   1.131 -0.8028 -1.2959 -0.4121
  688MOL0     C94849   3.347   1.193   1.194 -0.1699 -0.3618 -0.1862
  688MOL0     C94850   3.305   1.064   1.119  0.0748 -0.4154 -0.4180
  688MOL0    Cl94851   3.435   0.926   1.117  0.1423 -0.1293 -0.0112
  688MOL0     C94852   3.589   2.068   1.383  0.0290 -0.4605 -0.4047
  688MOL0     C94853   3.661   2.178   1.413  0.3860  0.7556  0.3132
  688MOL0     O94854   3.961   2.245   1.483  0.2118  0.7759  0.2074
  688MOL0     C94855   4.101   2.461   1.533  0.0985  0.9321  0.7331
  688MOL0     C94856   4.188   2.565   1.558  0.1638 -0.1696  0.3947
  688MOL0     N94857   4.315   3.424   1.799 -0.3770 -0.0051  1.3431
  688MOL0     N94858   4.216   3.508   1.808 -0.3371 -0.0377 -0.6065
  688MOL0     C94859   3.369   3.865   2.531 -0.4293  0.1114 -0.8258
  688MOL0     C94860   3.388   3.843   2.671  0.8574 -0.0082 -0.0404
  688MOL0     C94861   3.536   3.832   3.096 -0.1780 -0.9255  0.3180
  688MOL0     C94862   3.457   3.735   3.160 -0.4005 -0.2092  0.1393
  688MOL0     C94863   3.463   3.736   3.305  1.0323  0.9132 -0.5882
  688MOL0     C94864   3.549   3.823   3.379  0.4439  0.3146  1.6947
  688MOL0     O94865   3.552   3.819   3.513  0.0985  0.1822  0.2392
  688MOL0     C94866   3.687   3.795   3.558  0.9979 -0.5832  0.1481
  688MOL0     C94867   3.757   3.677   3.508  0.0750  0.1779  0.0694
  688MOL0     C94868   3.691   3.539   3.546 -0.9487 -0.5422  0.5139
  688MOL0     C94869   3.743   3.426   3.465 -0.5069 -0.5207  0.4926
  688MOL0     C94870   3.896   3.423   3.463 -0.4301 -0.0963  0.1745
  688MOL0     C94871   4.017   3.406   3.467  0.6499 -0.2498  0.3533
  688MOL0     C94872   3.629   3.907   3.310 -0.2644 -0.5473  1.1698
  688MOL0     C94873   3.623   3.917   3.168 -0.4506  0.0312 -0.8351
  688MOL0     C94874   3.718   4.009   3.102 -1.5093 -0.1524  0.0336
  688MOL0     H94875   3.552   4.120   2.745  2.5521  1.9613 -2.0263
  688MOL0     H94876   3.504   4.172   2.496 -3.7156  2.3990  2.0305
  688MOL0     H94877   3.588   3.923   2.310 -3.1289 -5.4456 -0.9769
  688MOL0     H94878   3.547   4.087   2.249  0.4244 -0.0046  2.1159
  688MOL0     H94879   3.388   3.974   2.101  1.1273  4.2459  1.7944
  688MOL0     H94880   3.544   3.996   2.043 -1.8204  3.9037  0.6611
  688MOL0     H94881   3.537   3.731   2.187  2.6863 -0.4176 -0.2278
  688MOL0     H94882   3.415   3.739   2.060  1.3962 -4.1618  1.7896
  688MOL0     H94883   3.578   3.779   1.895  0.2086  4.1724 -0.1900
  688MOL0     H94884   3.702   3.830   2.017  0.8507 -0.7381 -0.7118
  688MOL0     H94885   3.598   3.547   2.006 -1.2971  2.0373 -1.9463
  688MOL0     H94886   3.739   3.619   2.092  0.9851  0.7264  0.4198
  688MOL0     H94887   3.704   3.542   1.798 -2.3870 -1.1692  2.0232
  688MOL0     H94888   3.789   3.699   1.839 -1.2611 -0.8044 -1.6468
  688MOL0     H94889   3.862   3.408   1.932 -0.7047  2.0552  2.1407
  688MOL0     H94890   3.961   3.553   1.965  3.4446  0.3693 -2.8386
  688MOL0     H94891   3.910   3.451   1.695 -0.7413 -2.5426  2.1410
  688MOL0     H94892   3.984   3.613   1.742  2.4027 -0.1090  0.1126
  688MOL0     H94893   4.067   3.238   1.699  0.7845 -1.1888  0.8160
  688MOL0     H94894   4.402   3.175   1.817  1.3106  1.0820  0.2452
  688MOL0     H94895   4.424   3.202   1.637  0.3468 -2.2937  0.5630
  688MOL0     H94896   4.194   3.046   1.766  2.4730 -1.4676  0.7256
  688MOL0     H94897   4.220   3.075   1.587 -1.6305 -1.1653 -0.2608
  688MOL0     H94898   4.436   2.963   1.601 -0.7852  3.0019  1.3961
  688MOL0     H94899   4.401   2.925   1.775 -1.3288 -0.7559  1.4221
  688MOL0     H94900   4.358   2.727   1.672  0.4316  1.2624  1.8571
  688MOL0     H94901   4.195   2.799   1.697 -0.5556  0.4581 -2.2239
  688MOL0     H94902   4.140   2.740   1.276 -2.1945 -2.1983 -1.6586
  688MOL0     H94903   4.059   2.585   1.103 -0.0722  1.2276 -0.9276
  688MOL0     H94904   3.896   2.603   1.191 -0.8582 -2.7603  0.4768
  688MOL0     H94905   3.943   2.451   1.147 -2.4531  1.7766 -0.2324
  688MOL0     H94906   3.814   2.223   1.118  0.0091  0.3060  1.3981
  688MOL0     H94907   3.656   2.010   1.054  0.2421 -0.6425 -0.5175
  688MOL0     H94908   3.609   1.800   1.376  1.3788  1.2724 -2.4073
  688MOL0     H94909   3.440   1.847   1.427  1.1011  2.1421 -0.2676
  688MOL0     H94910   3.479   1.596   1.373  0.4482  0.0595 -0.4960
  688MOL0     H94911   3.341   1.662   1.293  0.2011 -2.7507 -1.5713
  688MOL0     H94912   3.611   1.624   1.176 -0.6923 -1.8258  1.1360
  688MOL0     H94913   3.489   1.712   1.081  1.7388 -0.8718 -1.9107
  688MOL0     H94914   3.452   1.497   1.009  1.7094 -1.4434  0.0848
  688MOL0     H94915   3.334   1.516   1.144 -0.6127  1.0216  0.0417
  688MOL0     H94916   3.623   1.388   1.163  0.9222 -2.9238 -1.0791
  688MOL0     H94917   3.503   1.393   1.292 -0.5107 -0.0566 -0.2701
  688MOL0     H94918   3.551   1.178   1.172 -0.9676 -0.8620  0.6160
  688MOL0     H94919   3.479   1.241   1.022 -2.0642  1.5710 -0.6028
  688MOL0     H94920   3.273   1.273   1.182  0.6191  0.3435 -0.4802
  688MOL0     H94921   3.370   1.179   1.300 -3.8795 -0.2870  0.7779
  688MOL0     H94922   3.274   1.080   1.016 -1.5163 -3.1191 -0.4345
  688MOL0     H94923   3.223   1.020   1.177 -0.1118 -2.5755 -2.1758
  688MOL0     H94924   3.524   2.025   1.459  0.8692 -1.4411 -0.2346
  688MOL0     H94925   3.658   2.209   1.517  2.7744 -3.2338  1.7917
  688MOL0     H94926   4.085   2.384   1.608 -0.8827 -2.3999 -2.5773
  688MOL0     H94927   4.248   2.546   1.647  2.1172  1.3598 -0.5095
  688MOL0     H94928   3.313   3.788   2.478  0.7114 -0.7777 -0.7804
  688MOL0     H94929   3.342   3.759   2.722  1.9596  0.0618  1.1192
  688MOL0     H94930   3.396   3.667   3.100  0.0832  1.1249 -1.9972
  688MOL0     H94931   3.399   3.666   3.357  1.2009  0.4492 -0.9975
  688MOL0     H94932   3.752   3.882   3.545  0.3416 -0.1090 -0.0134
  688MOL0     H94933   3.656   3.789   3.663  0.4263  1.6036  0.1581
  688MOL0     H94934   3.854   3.678   3.559  0.7075 -0.7232 -1.0880
  688MOL0     H94935   3.769   3.671   3.400 -1.9309 -1.9595 -0.1013
  688MOL0     H94936   3.717   3.530   3.652  0.7696 -2.7759 -0.0211
  688MOL0     H94937   3.583   3.526   3.537 -0.6143 -2.2709 -3.1713
  688MOL0     H94938   3.708   3.421   3.361 -1.4176  1.4568  0.6543
  688MOL0     H94939   3.716   3.335   3.519 -1.8962  0.0108  0.7340
  688MOL0     H94940   4.124   3.402   3.471  0.6108 -3.6330  0.7575
  688MOL0     H94941   3.699   3.974   3.358  2.0974 -2.3392  0.4299
  688MOL0     H94942   3.802   4.038   3.167 -2.7280 -1.3842  2.2730
  688MOL0     H94943   3.755   3.948   3.019 -1.6742  1.5335 -1.3240
  688MOL0     H94944   3.672   4.099   3.060 -1.9743 -0.0288  0.7894
  689MOL0     O94945   0.393   4.387  10.220 -0.0520  0.0453  0.4461
  689MOL0     C94946   0.283   4.409  10.264  0.6929  0.0650 -0.4370
  689MOL0     O94947   0.246   4.450  10.392 -0.0919 -0.4254 -0.4130
  689MOL0     C94948   0.347   4.461  10.484 -0.3658 -0.3378 -0.4537
  689MOL0     C94949   0.368   4.352  10.567 -0.5103 -0.1220 -0.0625
  689MOL0     C94950   0.482   4.350  10.650  0.5693  0.4010  0.1512
  689MOL0     C94951   0.561   4.463  10.658  0.7908  0.3928  0.2973
  689MOL0     O94952   0.672   4.471  10.739  0.7862 -0.0701  0.9199
  689MOL0     C94953   0.694   4.386  10.852  0.4747 -1.0255  0.0068
  689MOL0     C94954   0.620   4.443  10.981 -0.2520  1.1095 -0.5976
  689MOL0     C94955   0.675   4.373  11.106 -0.4392 -0.4080  0.6777
  689MOL0     C94956   0.627   4.227  11.116 -0.7637 -0.2472 -0.4156
  689MOL0     C94957   0.499   4.230  11.196  0.5164  0.0582 -0.0812
  689MOL0     C94958   0.519   4.251  11.349 -0.1292  0.3048 -0.3481
  689MOL0     C94959   0.572   4.120  11.421 -0.9304  0.8333 -0.3423
  689MOL0     C94960   0.596   4.138  11.570  0.7265  0.3615 -0.5518
  689MOL0     N94961   0.630   4.020  11.643  0.3514 -0.1853 -1.1782
  689MOL0     C94962   0.668   4.025  11.771 -0.5922  0.5612  0.2930
  689MOL0     C94963   0.706   3.905  11.800 -0.4840 -0.0084  0.0898
  689MOL0     C94964   0.774   3.877  11.933  0.3124  0.3404 -0.2199
  689MOL0     C94965   0.703   3.789  12.045 -0.1057  0.7815 -0.1562
  689MOL0     C94966   0.598   3.868  12.129 -0.2052 -0.0611  0.5419
  689MOL0     C94967   0.476   3.782  12.166 -0.2443 -0.3054 -0.1207
  689MOL0     O94968   0.391   3.729  12.068  0.7776  0.4565 -0.1037
  689MOL0     C94969   0.320   3.817  11.993 -1.1196  0.3999  0.8855
  689MOL0     C94970   0.322   3.800  11.850  0.1734 -0.2565  0.4246
  689MOL0     C94971   0.255   3.883  11.765  0.2191  1.0493 -0.3793
  689MOL0     C94972   0.257   3.844  11.621 -0.7252  0.7526  0.2878
  689MOL0     C94973   0.184   3.994  11.816  0.6451 -0.7885 -0.6269
  689MOL0     C94974   0.117   4.096  11.729 -0.2577 -0.4374  0.8432
  689MOL0     O94975   0.103   4.228  11.773 -0.1093 -0.2927  0.0019
  689MOL0     C94976   0.082   4.333  11.682  0.3316 -0.2912  0.5790
  689MOL0     C94977   0.039   4.453  11.740 -0.4365 -0.1572 -0.1370
  689MOL0     C94978   0.038   4.576  11.675  0.7752  0.2174 -0.0253
  689MOL0     C94979   0.049   4.571  11.530 -0.4165  0.2523 -0.1836
  689MOL0     O94980   0.045   4.690  11.456 -0.2642  0.2807  0.3603
  689MOL0     C94981  -0.023   4.808  11.504 -0.5221 -0.1360 -0.5518
  689MOL0     C94982  -0.017   4.892  11.381  0.9988 -0.1945  0.6811
  689MOL0     C94983  -0.137   4.853  11.281 -0.0491 -0.9761 -0.0041
  689MOL0     C94984  -0.140   4.928  11.152 -0.0383 -1.0448 -0.0755
  689MOL0     C94985  -0.123   5.078  11.155  0.5357  0.2932 -0.2511
  689MOL0     C94986  -0.144   5.159  11.031 -0.7749  0.3045  0.1500
  689MOL0     C94987  -0.131   5.310  11.073 -0.3064 -0.1952 -0.3387
  689MOL0     C94988  -0.153   5.399  10.950 -1.1301 -0.1806  0.9465
  689MOL0    Cl94989  -0.088   5.570  10.983  0.0025  0.1181  0.0516
  689MOL0     C94990   0.101   4.454  11.468  0.0644  0.3448  0.7340
  689MOL0     C94991   0.121   4.338  11.542  0.1615  0.5812  0.3505
  689MOL0     O94992   0.061   4.056  11.630  0.7922  0.8447 -0.5637
  689MOL0     C94993   0.189   4.013  11.956  1.0223 -0.3515  0.3295
  689MOL0     C94994   0.264   3.935  12.044 -0.9457 -0.0971  0.5927
  689MOL0     N94995   0.716   3.823  11.689  1.0196 -0.1774 -0.7348
  689MOL0     N94996   0.662   3.895  11.591  0.4448  0.3872  0.8883
  689MOL0     C94997   0.528   4.580  10.591  0.4086  0.5651 -0.5137
  689MOL0     C94998   0.433   4.575  10.493  0.6993 -0.5640 -0.4842
  689MOL0     C94999   0.174   4.385  10.166 -0.2172 -0.2589  0.3567
  689MOL0     C95000   0.181   4.457  10.046 -0.0860  0.1231  0.1221
  689MOL0     C95001   0.080   4.432   9.941  0.1082 -0.4411 -0.4013
  689MOL0     C95002  -0.028   4.351   9.969 -0.1678 -0.2275  0.3980
  689MOL0     O95003  -0.109   4.334   9.861  0.1735 -0.3567  0.0034
  689MOL0     C95004  -0.213   4.234   9.850 -0.0941  0.2281 -0.0044
  689MOL0     C95005  -0.155   4.099   9.783 -0.2872  0.0158  1.3056
  689MOL0     C95006  -0.112   4.139   9.645 -0.2903  0.5816 -0.3513
  689MOL0     C95007  -0.056   4.017   9.571  0.0710  0.1508  0.6003
  689MOL0     C95008  -0.009   4.056   9.437 -0.8995  0.0677  0.3621
  689MOL0     C95009   0.047   4.090   9.331 -0.9050 -0.8300 -0.2708
  689MOL0     C95010  -0.031   4.277  10.091  1.3842 -0.3674  0.4802
  689MOL0     C95011   0.069   4.296  10.180  0.9773 -0.2340 -0.4674
  689MOL0     C95012   0.053   4.220  10.301  0.4931 -0.3075  0.3676
  689MOL0     H95013   0.303   4.267  10.554  0.1910 -0.8764  1.1314
  689MOL0     H95014   0.511   4.258  10.701  1.1174  0.1364 -0.6247
  689MOL0     H95015   0.796   4.410  10.883  0.0156  3.0787 -1.0196
  689MOL0     H95016   0.678   4.281  10.828 -0.0079 -1.5577  2.4116
  689MOL0     H95017   0.652   4.547  10.995  1.4981  0.3384  1.6928
  689MOL0     H95018   0.511   4.443  10.989 -0.1648  1.1184  0.9677
  689MOL0     H95019   0.785   4.370  11.100 -0.3917 -0.4358  1.4930
  689MOL0     H95020   0.655   4.431  11.197  0.4537  1.1330 -0.0533
  689MOL0     H95021   0.620   4.188  11.013  2.2603 -0.2428 -0.6947
  689MOL0     H95022   0.703   4.160  11.156  2.3274  2.8948 -0.5867
  689MOL0     H95023   0.451   4.132  11.194  0.5916 -0.0290  1.5221
  689MOL0     H95024   0.445   4.313  11.148  1.4957  0.3180 -0.7707
  689MOL0     H95025   0.585   4.336  11.366 -1.3730  1.8309 -2.6458
  689MOL0     H95026   0.415   4.271  11.377 -0.4061  2.1635 -2.4906
  689MOL0     H95027   0.661   4.079  11.373  0.0067 -0.8974  2.6227
  689MOL0     H95028   0.497   4.039  11.417 -0.0625  0.0527 -1.6871
  689MOL0     H95029   0.673   4.212  11.595  0.2376 -0.3989  4.1011
  689MOL0     H95030   0.504   4.179  11.613 -0.1090  0.0355 -1.9761
  689MOL0     H95031   0.674   4.114  11.834  1.9132  1.5626 -1.1796
  689MOL0     H95032   0.780   3.972  11.987  3.1596  0.6883 -1.0235
  689MOL0     H95033   0.870   3.828  11.918 -1.3143 -2.4632 -2.7158
  689MOL0     H95034   0.644   3.704  12.009 -1.3122  0.9167  1.4199
  689MOL0     H95035   0.775   3.751  12.117  0.0744  1.1812 -0.1200
  689MOL0     H95036   0.650   3.894  12.222 -0.3179 -0.7170  0.7934
  689MOL0     H95037   0.561   3.960  12.081 -0.8356 -0.3071  0.5523
  689MOL0     H95038   0.524   3.699  12.219 -0.4350 -0.5935 -0.3957
  689MOL0     H95039   0.412   3.844  12.231 -0.7818  0.7527 -1.6030
  689MOL0     H95040   0.385   3.722  11.808  1.6881  0.3861  1.4403
  689MOL0     H95041   0.154   3.821  11.595 -1.0937  0.4437  1.8771
  689MOL0     H95042   0.317   3.757  11.594 -1.0266  0.7419 -0.3445
  689MOL0     H95043   0.298   3.930  11.567 -2.7947  2.5615  1.4504
  689MOL0     H95044   0.024   4.460  11.847  1.9222 -0.0543  0.2296
  689MOL0     H95045   0.021   4.673  11.719 -1.3919  0.1469 -0.5746
  689MOL0     H95046  -0.124   4.779  11.535 -1.0908 -1.6852 -3.5437
  689MOL0     H95047   0.026   4.840  11.597 -2.8247 -5.3514  2.9495
  689MOL0     H95048  -0.038   4.994  11.414  1.7692  0.5684 -1.0392
  689MOL0     H95049   0.082   4.887  11.335  0.6112 -1.6678 -0.0388
  689MOL0     H95050  -0.238   4.875  11.316 -0.0821  2.0003 -1.6251
  689MOL0     H95051  -0.125   4.746  11.263  2.4026 -0.4166 -2.2667
  689MOL0     H95052  -0.240   4.894  11.122 -1.0102  0.5234  1.1828
  689MOL0     H95053  -0.069   4.898  11.075 -2.0287 -1.2059 -1.9651
  689MOL0     H95054  -0.197   5.111  11.228  1.4995  1.9695  0.0102
  689MOL0     H95055  -0.030   5.113  11.201  0.5611  3.4495 -2.3975
  689MOL0     H95056  -0.239   5.128  10.988 -0.4022  0.4859 -0.8279
  689MOL0     H95057  -0.071   5.133  10.954  0.5664  1.8792  0.8181
  689MOL0     H95058  -0.032   5.340  11.110 -0.8929  1.5979 -0.1372
  689MOL0     H95059  -0.205   5.332  11.151  1.0230 -1.0812  1.2415
  689MOL0     H95060  -0.261   5.400  10.933 -1.3367  0.0638  2.1465
  689MOL0     H95061  -0.108   5.357  10.860 -0.1012 -0.3360  1.5189
  689MOL0     H95062   0.137   4.462  11.365 -2.8365  0.6790 -0.3315
  689MOL0     H95063   0.173   4.247  11.511 -0.9245 -1.0814  2.9992
  689MOL0     H95064   0.126   4.096  11.986  0.8914  0.1984 -1.4129
  689MOL0     H95065   0.272   3.961  12.149 -1.6409  2.1769  0.1516
  689MOL0     H95066   0.585   4.672  10.606 -1.3701  1.7291 -0.6505
  689MOL0     H95067   0.415   4.669  10.443 -2.0290  1.9038  4.4422
  689MOL0     H95068   0.267   4.522  10.028 -0.7695  1.9084  2.7017
  689MOL0     H95069   0.087   4.469   9.839  1.3356  0.2693 -0.0865
  689MOL0     H95070  -0.255   4.208   9.948 -0.6565 -1.9533 -0.7444
  689MOL0     H95071  -0.291   4.275   9.785 -0.7283  2.6747  2.1696
  689MOL0     H95072  -0.229   4.019   9.790 -0.6887  0.4994  3.5108
  689MOL0     H95073  -0.073   4.072   9.850 -0.9226 -0.4234  1.9227
  689MOL0     H95074  -0.196   4.188   9.595 -0.0006  2.0549  0.5562
  689MOL0     H95075  -0.030   4.211   9.651  0.5990 -0.3259 -1.0507
  689MOL0     H95076  -0.125   3.932   9.566 -0.8158  0.7841  1.5643
  689MOL0     H95077   0.035   3.987   9.625  1.1247  1.3668 -0.4381
  689MOL0     H95078   0.080   4.117   9.233  0.2492 -1.5579 -0.1139
  689MOL0     H95079  -0.113   4.207  10.104  1.5878 -0.5055  1.0914
  689MOL0     H95080   0.078   4.280  10.389 -3.8277  0.6551  1.1742
  689MOL0     H95081  -0.055   4.208  10.317  0.5112 -0.0193  0.7156
  689MOL0     H95082   0.099   4.122  10.291 -2.9124 -1.8945 -1.6759
  690MOL0     O95083   8.667   2.525   4.429 -0.2356  0.3755  0.6057
  690MOL0     C95084   8.679   2.543   4.550 -0.3279 -1.1694 -0.5036
  690MOL0     O95085   8.771   2.633   4.608  1.0496 -0.8952 -0.2967
  690MOL0     C95086   8.876   2.663   4.534 -0.1441 -0.2001  0.1275
  690MOL0     C95087   8.902   2.803   4.534 -0.8381 -0.1459  0.4302
  690MOL0     C95088   9.022   2.846   4.466  0.7110  0.2373  0.5958
  690MOL0     C95089   9.104   2.753   4.398  0.1519  0.2029  0.0117
  690MOL0     O95090   9.213   2.794   4.321  0.3962  0.4696 -0.1775
  690MOL0     C95091   9.219   2.929   4.273  0.6351 -0.7352  0.1886
  690MOL0     C95092   9.305   2.952   4.147  0.9913 -0.7642  0.4952
  690MOL0     C95093   9.254   3.075   4.077  0.2215 -0.3015 -0.3582
  690MOL0     C95094   9.348   3.122   3.962 -0.1076 -0.2054 -0.0327
  690MOL0     C95095   9.280   3.238   3.891 -1.2340  0.1324 -0.2790
  690MOL0     C95096   9.271   3.368   3.977  0.2868  0.8315  0.2985
  690MOL0     C95097   9.180   3.470   3.913 -0.2715  0.4305  0.7812
  690MOL0     C95098   9.200   3.512   3.760 -0.2704 -0.3351 -0.1243
  690MOL0     N95099   9.330   3.559   3.719 -1.3530 -0.5209  0.1884
  690MOL0     C95100   9.453   3.485   3.714  0.3922  0.8469 -0.6571
  690MOL0     C95101   9.537   3.565   3.650  0.2201  0.1921  0.0737
  690MOL0     C95102   9.681   3.527   3.636  0.6850  0.6745  0.0851
  690MOL0     C95103   9.732   3.551   3.491  0.3106 -0.6101 -0.4533
  690MOL0     C95104   9.886   3.538   3.477  0.4646 -0.0400 -0.8231
  690MOL0     C95105   9.927   3.548   3.332  0.3830  0.0249  0.5231
  690MOL0     O95106  10.065   3.572   3.321  0.1581  0.4448  0.0323
  690MOL0     C95107  10.146   3.467   3.346 -0.2383  0.7954  0.1069
  690MOL0     C95108  10.169   3.373   3.247  0.1385  0.2331 -0.9739
  690MOL0     C95109  10.253   3.261   3.272 -0.4604 -0.2658  0.7625
  690MOL0     C95110  10.247   3.149   3.164 -0.6050  0.1519 -0.3701
  690MOL0     C95111  10.330   3.254   3.384  0.4187 -0.4198 -0.0197
  690MOL0     C95112  10.435   3.154   3.428 -0.0174 -0.2839 -0.8718
  690MOL0     O95113  10.484   3.162   3.554  0.2129 -0.3109  0.4641
  690MOL0     C95114  10.598   3.086   3.586 -0.3056 -0.2605  0.4581
  690MOL0     C95115  10.725   3.130   3.540  0.4877 -0.2851  0.1052
  690MOL0     C95116  10.837   3.051   3.566  0.4335 -0.2089  0.5328
  690MOL0     C95117  10.828   2.941   3.653 -0.3389  0.1958 -0.5253
  690MOL0     O95118  10.923   2.842   3.681 -0.1996 -0.5630 -0.3010
  690MOL0     C95119  11.061   2.882   3.673 -0.4701 -0.3597 -0.4287
  690MOL0     C95120  11.104   2.891   3.820  0.1303 -0.7912 -0.4184
  690MOL0     C95121  11.047   2.996   3.911 -0.1182 -0.5857 -0.4353
  690MOL0     C95122  11.132   3.019   4.047 -0.9781 -0.1283 -0.6326
  690MOL0     C95123  11.102   2.914   4.154 -0.1384 -0.5977  0.7597
  690MOL0     C95124  11.153   2.948   4.286  0.2751  0.6156  0.2397
  690MOL0     C95125  11.102   2.845   4.384 -0.1896 -0.1949 -0.4175
  690MOL0     C95126  11.140   2.891   4.529 -0.4243 -0.4459  0.0063
  690MOL0    Cl95127  11.315   2.881   4.549  0.4014  0.6528  0.1759
  690MOL0     C95128  10.704   2.904   3.707  0.5550 -0.4682  0.5529
  690MOL0     C95129  10.592   2.979   3.676  0.5707  0.2804 -0.7238
  690MOL0     O95130  10.482   3.079   3.337 -0.0047  0.5861  0.9841
  690MOL0     C95131  10.318   3.359   3.476  0.4333 -0.3475 -0.6362
  690MOL0     C95132  10.231   3.465   3.455 -0.2423 -0.5601  1.0185
  690MOL0     N95133   9.486   3.692   3.635  0.7999  0.4976 -0.2362
  690MOL0     N95134   9.364   3.686   3.678  0.4789  0.5495 -0.2104
  690MOL0     C95135   9.077   2.615   4.408 -1.0086  0.5328 -0.9255
  690MOL0     C95136   8.961   2.571   4.473  0.0441  0.2476 -0.6414
  690MOL0     C95137   8.600   2.444   4.629  0.2110  0.2885 -0.1671
  690MOL0     C95138   8.641   2.434   4.762 -0.1378 -0.2240  0.1524
  690MOL0     C95139   8.596   2.332   4.844 -0.0176 -0.2979 -0.2700
  690MOL0     C95140   8.492   2.251   4.799 -0.7814  0.0981 -0.3251
  690MOL0     O95141   8.439   2.156   4.882  0.5096 -0.1958  0.0899
  690MOL0     C95142   8.462   2.025   4.842 -0.2613  0.9032  0.3994
  690MOL0     C95143   8.382   1.922   4.923  0.4256  0.1144 -0.1806
  690MOL0     C95144   8.415   1.771   4.902  0.8010 -0.3420  0.3902
  690MOL0     C95145   8.558   1.739   4.957  0.6546 -0.0899 -0.2261
  690MOL0     C95146   8.578   1.589   4.977 -0.0768  0.4130 -0.7670
  690MOL0     C95147   8.587   1.473   4.996  0.1459 -0.1135  0.4557
  690MOL0     C95148   8.439   2.268   4.666  0.3671  0.1399  0.4938
  690MOL0     C95149   8.494   2.360   4.576  0.1830  0.1011  0.4930
  690MOL0     C95150   8.433   2.381   4.440  0.3028  0.5813 -0.2842
  690MOL0     H95151   8.846   2.882   4.583  1.1624  0.5298  1.7309
  690MOL0     H95152   9.030   2.954   4.462 -3.3284  0.6870  0.8984
  690MOL0     H95153   9.255   2.994   4.352 -1.2796  0.4236  0.1761
  690MOL0     H95154   9.119   2.957   4.238  1.3332  1.2371 -0.3728
  690MOL0     H95155   9.408   2.979   4.169  1.1345  2.1652 -2.9075
  690MOL0     H95156   9.310   2.869   4.075  2.3323  0.8337 -1.3481
  690MOL0     H95157   9.164   3.039   4.026 -0.3813 -0.7234  0.9613
  690MOL0     H95158   9.219   3.144   4.154  2.3415 -0.1057  0.5060
  690MOL0     H95159   9.436   3.164   4.011 -0.2076  0.6278 -0.5303
  690MOL0     H95160   9.387   3.043   3.897  1.9386  2.7048 -2.6930
  690MOL0     H95161   9.194   3.191   3.842 -1.1517 -0.5889  0.2655
  690MOL0     H95162   9.346   3.262   3.806 -0.5595 -1.7923 -0.3378
  690MOL0     H95163   9.235   3.348   4.078 -2.7654 -4.0472 -1.3721
  690MOL0     H95164   9.372   3.410   3.978  0.1413  1.2069 -0.1439
  690MOL0     H95165   9.194   3.558   3.976  1.6983  1.4794 -1.0210
  690MOL0     H95166   9.081   3.424   3.923  1.1419 -4.0815 -2.4251
  690MOL0     H95167   9.178   3.432   3.688  2.2621 -1.0271 -0.2584
  690MOL0     H95168   9.132   3.596   3.749  0.9710  0.7942  0.5433
  690MOL0     H95169   9.472   3.382   3.743  2.4372  2.1138  3.1782
  690MOL0     H95170   9.696   3.421   3.655 -1.2367  0.6958  2.1102
  690MOL0     H95171   9.742   3.583   3.707  1.0259  2.0172 -1.2098
  690MOL0     H95172   9.690   3.475   3.425  0.3660 -0.8008 -0.2711
  690MOL0     H95173   9.700   3.653   3.468  1.8649  0.5589  2.0625
  690MOL0     H95174   9.925   3.623   3.533 -0.4140  0.1141 -0.4219
  690MOL0     H95175   9.930   3.451   3.527  2.7683  2.0117  0.9710
  690MOL0     H95176   9.896   3.459   3.276  2.8700  0.2826 -1.3988
  690MOL0     H95177   9.875   3.631   3.284 -1.2985 -1.0582  0.3736
  690MOL0     H95178  10.115   3.365   3.153 -1.0923 -0.7803 -0.2045
  690MOL0     H95179  10.230   3.047   3.199 -0.0004  0.7328  1.7396
  690MOL0     H95180  10.344   3.160   3.113 -1.4339  0.6124 -1.9168
  690MOL0     H95181  10.180   3.162   3.079 -1.7287  2.0515  0.7436
  690MOL0     H95182  10.719   3.225   3.486  0.1107  0.8829  2.1037
  690MOL0     H95183  10.936   3.067   3.525  0.1354  0.5826  0.1017
  690MOL0     H95184  11.120   2.796   3.639 -0.9893 -0.0834 -2.1470
  690MOL0     H95185  11.091   2.971   3.617  1.8195  0.8244  2.4254
  690MOL0     H95186  11.076   2.794   3.862 -0.4291 -0.1651  0.7233
  690MOL0     H95187  11.212   2.894   3.838 -0.0535 -1.7906  1.0460
  690MOL0     H95188  10.945   2.975   3.945 -0.2465 -0.9349 -1.0187
  690MOL0     H95189  11.050   3.085   3.848 -0.2903 -0.7614 -0.6938
  690MOL0     H95190  11.091   3.115   4.080 -1.1803  0.8216 -3.3358
  690MOL0     H95191  11.241   3.020   4.041 -0.7686 -0.6486  2.0403
  690MOL0     H95192  10.993   2.909   4.148 -0.4912  3.0801  1.6962
  690MOL0     H95193  11.153   2.823   4.121  3.1637  1.2253  0.3551
  690MOL0     H95194  11.107   3.047   4.298 -3.2659 -0.5349 -2.2053
  690MOL0     H95195  11.262   2.955   4.281  0.2413  0.3946 -3.9761
  690MOL0     H95196  11.137   2.742   4.371 -5.2620 -2.5432  1.7027
  690MOL0     H95197  10.993   2.840   4.378 -0.0653 -1.9682 -2.0444
  690MOL0     H95198  11.100   2.829   4.609  0.1360 -1.2061 -0.2871
  690MOL0     H95199  11.107   2.994   4.547  2.3723 -0.1376  4.9831
  690MOL0     H95200  10.696   2.811   3.763  0.5186 -1.7674 -1.4700
  690MOL0     H95201  10.498   2.937   3.710  0.5382 -0.2415 -1.4345
  690MOL0     H95202  10.372   3.366   3.569  0.8348  2.8994 -0.9957
  690MOL0     H95203  10.209   3.540   3.530 -2.5051 -0.4256  0.2779
  690MOL0     H95204   9.144   2.543   4.362 -2.6006  1.1391 -4.5114
  690MOL0     H95205   8.939   2.464   4.477  1.2053  0.0014 -0.3978
  690MOL0     H95206   8.715   2.503   4.801  0.8781 -0.9821 -0.3812
  690MOL0     H95207   8.627   2.344   4.947  0.9684  0.6928 -0.6524
  690MOL0     H95208   8.425   2.006   4.741 -1.6315  0.5985  0.9370
  690MOL0     H95209   8.569   2.005   4.855 -0.7400 -2.3218  0.0901
  690MOL0     H95210   8.277   1.931   4.894  0.1182 -3.3530 -0.5573
  690MOL0     H95211   8.394   1.947   5.029 -2.1684 -0.8564  0.4200
  690MOL0     H95212   8.334   1.723   4.956  0.0629  2.8459  2.4122
  690MOL0     H95213   8.411   1.756   4.793  0.2628  3.8109 -0.3360
  690MOL0     H95214   8.567   1.779   5.059 -2.3489 -1.8305  0.8571
  690MOL0     H95215   8.644   1.768   4.896 -2.3582  0.8415 -4.4848
  690MOL0     H95216   8.612   1.368   4.998  1.4545  0.1925  2.6675
  690MOL0     H95217   8.348   2.212   4.646  1.7946 -2.4112  0.7551
  690MOL0     H95218   8.336   2.331   4.438  0.3943  0.3634  0.3564
  690MOL0     H95219   8.408   2.485   4.417 -0.7779  1.0195  2.4905
  690MOL0     H95220   8.504   2.339   4.367  1.2256 -1.7754  1.8290
  691MOL0     O95221   7.009   2.136   2.918  0.2020  0.0198 -0.5835
  691MOL0     C95222   6.891   2.173   2.955  0.2964  1.0375  0.5466
  691MOL0     O95223   6.832   2.152   3.077 -0.2950  0.8182 -0.5407
  691MOL0     C95224   6.911   2.073   3.157  0.0034  0.5328 -0.6113
  691MOL0     C95225   6.896   1.929   3.152 -0.3630  0.0927  0.0950
  691MOL0     C95226   6.971   1.835   3.237  1.2695 -0.3138  0.3402
  691MOL0     C95227   7.080   1.883   3.310  0.0005 -0.7722  1.0007
  691MOL0     O95228   7.165   1.807   3.383  0.0941  1.3392 -0.2895
  691MOL0     C95229   7.132   1.671   3.414 -1.1072  0.2288  0.7813
  691MOL0     C95230   7.240   1.609   3.498  0.0897  0.2542 -0.1400
  691MOL0     C95231   7.262   1.681   3.637  0.6727  0.6422 -0.3344
  691MOL0     C95232   7.344   1.589   3.729 -0.9661 -0.5064 -0.8207
  691MOL0     C95233   7.382   1.652   3.863 -0.1072  0.2273 -0.5944
  691MOL0     C95234   7.443   1.540   3.952 -0.3467 -0.6576  0.4176
  691MOL0     C95235   7.503   1.599   4.081  0.7748 -0.1578 -0.7447
  691MOL0     C95236   7.407   1.701   4.145 -0.5163 -0.2567 -0.2059
  691MOL0     N95237   7.448   1.740   4.287 -0.1459  0.1273  0.6447
  691MOL0     C95238   7.467   1.662   4.395  0.6907 -0.4703  0.0665
  691MOL0     C95239   7.488   1.757   4.489  0.1866  0.0217 -0.2399
  691MOL0     C95240   7.491   1.715   4.633  0.1786 -0.9464 -0.1810
  691MOL0     C95241   7.635   1.682   4.665 -0.5597  0.2879  0.0794
  691MOL0     C95242   7.719   1.787   4.750 -0.1345  0.4551  0.3295
  691MOL0     C95243   7.725   1.926   4.672 -0.6841 -0.0879 -0.0916
  691MOL0     O95244   7.845   2.006   4.718  0.3892  0.2438  0.0401
  691MOL0     C95245   7.958   1.992   4.645  0.0024  0.8010 -0.0593
  691MOL0     C95246   7.983   2.066   4.534 -0.5802 -0.2178 -1.6250
  691MOL0     C95247   8.103   2.036   4.458  0.0461  0.4238  0.2029
  691MOL0     C95248   8.110   2.106   4.331 -0.7414  0.4774  0.4877
  691MOL0     C95249   8.193   1.940   4.501  0.2412  0.0101 -0.1090
  691MOL0     C95250   8.315   1.911   4.421 -0.4597  0.0543  0.3256
  691MOL0     O95251   8.301   1.895   4.292 -0.1407 -0.1487  0.4157
  691MOL0     C95252   8.297   1.765   4.237 -0.1273  0.4550  0.5653
  691MOL0     C95253   8.187   1.743   4.147 -0.4963 -0.0902 -0.1939
  691MOL0     C95254   8.176   1.621   4.083 -0.6984 -0.9711 -0.6062
  691MOL0     C95255   8.268   1.522   4.111  0.6468  0.3581 -0.4561
  691MOL0     O95256   8.248   1.400   4.054  0.1919  0.1364 -0.1442
  691MOL0     C95257   8.352   1.300   4.054  0.1969  1.0056  0.3090
  691MOL0     C95258   8.344   1.218   4.184  0.2457 -0.1183  0.2212
  691MOL0     C95259   8.217   1.141   4.215  0.0145  0.8165  0.1347
  691MOL0     C95260   8.238   0.991   4.183  0.7978  0.9873  0.7545
  691MOL0     C95261   8.113   0.901   4.204 -0.4164  0.3975 -0.7916
  691MOL0     C95262   8.081   0.894   4.351 -0.5113  1.4245  0.2811
  691MOL0     C95263   7.980   0.780   4.388 -1.0146  0.0963 -0.0115
  691MOL0     C95264   7.977   0.740   4.538  0.7517  0.2721 -0.8274
  691MOL0    Cl95265   8.141   0.735   4.622 -0.0257 -0.1976 -0.4425
  691MOL0     C95266   8.375   1.542   4.199 -0.3502 -0.8885 -0.1594
  691MOL0     C95267   8.385   1.664   4.268 -0.8079  0.1238  0.9511
  691MOL0     O95268   8.425   1.898   4.474 -0.3207 -0.7131  0.3246
  691MOL0     C95269   8.170   1.872   4.622  0.2151  0.4508  0.5629
  691MOL0     C95270   8.050   1.896   4.685 -0.2287  0.8517  0.0346
  691MOL0     N95271   7.499   1.880   4.441 -0.0970 -0.3864 -0.2600
  691MOL0     N95272   7.452   1.872   4.322 -0.5668  1.0166  0.4535
  691MOL0     C95273   7.091   2.022   3.317  0.4643  0.0395 -0.2771
  691MOL0     C95274   7.015   2.116   3.244 -1.1240 -0.3755  0.7974
  691MOL0     C95275   6.806   2.239   2.867 -0.4625 -0.3175  0.3809
  691MOL0     C95276   6.880   2.328   2.778  0.7833  0.4037  0.0873
  691MOL0     C95277   6.816   2.410   2.703  0.4963  0.8225 -0.2178
  691MOL0     C95278   6.681   2.411   2.695 -0.0747 -0.1003  0.0790
  691MOL0     O95279   6.599   2.489   2.622  0.2754  0.0190  0.2611
  691MOL0     C95280   6.658   2.552   2.511 -0.3178  0.4523  0.6746
  691MOL0     C95281   6.654   2.453   2.389  0.4455 -0.5430  0.6383
  691MOL0     C95282   6.523   2.399   2.336  0.2783  0.9742  0.6912
  691MOL0     C95283   6.431   2.505   2.289 -0.9880 -0.4816  0.3358
  691MOL0     C95284   6.316   2.459   2.211  0.0845  0.9131  0.6605
  691MOL0     C95285   6.224   2.412   2.142 -0.4049  0.3035 -0.6729
  691MOL0     C95286   6.606   2.328   2.779 -0.3774 -0.1449  0.5689
  691MOL0     C95287   6.667   2.239   2.868  0.6230 -0.1287  1.1262
  691MOL0     C95288   6.572   2.169   2.963 -0.4887  0.4748  0.4194
  691MOL0     H95289   6.824   1.898   3.077  0.9511 -0.9611 -0.7975
  691MOL0     H95290   6.944   1.731   3.239  0.3464 -0.1234 -0.9682
  691MOL0     H95291   7.109   1.615   3.323  1.3547  0.8065 -0.2987
  691MOL0     H95292   7.039   1.672   3.471 -2.6955 -2.6470 -1.5053
  691MOL0     H95293   7.222   1.503   3.519  3.2887 -0.7537 -1.7794
  691MOL0     H95294   7.330   1.608   3.436  0.6057  0.2061  0.6015
  691MOL0     H95295   7.307   1.780   3.624  0.2455  1.0775  1.3209
  691MOL0     H95296   7.158   1.695   3.668 -0.5222 -1.9154 -2.7426
  691MOL0     H95297   7.278   1.504   3.748 -1.2517 -0.2891 -0.8249
  691MOL0     H95298   7.435   1.557   3.677  0.5552  0.2946  1.2017
  691MOL0     H95299   7.291   1.700   3.903 -0.9690 -1.1301 -0.8716
  691MOL0     H95300   7.457   1.729   3.841  0.0954 -0.6467 -3.2828
  691MOL0     H95301   7.366   1.465   3.974 -0.9683  0.8718  4.1601
  691MOL0     H95302   7.533   1.491   3.914 -0.0276  0.7545 -0.7343
  691MOL0     H95303   7.584   1.662   4.043  0.2005  1.4670  0.5784
  691MOL0     H95304   7.533   1.523   4.154 -3.1553  0.0030  1.3161
  691MOL0     H95305   7.414   1.797   4.093 -0.3460  0.6749  1.4674
  691MOL0     H95306   7.301   1.677   4.130 -0.7312  0.1933  0.5151
  691MOL0     H95307   7.461   1.555   4.411  1.2595 -0.2214  2.2986
  691MOL0     H95308   7.419   1.639   4.666 -0.8236  0.4784  1.0539
  691MOL0     H95309   7.451   1.805   4.682 -0.0113 -0.2732 -1.5217
  691MOL0     H95310   7.643   1.592   4.726  0.8925  0.9548  0.9201
  691MOL0     H95311   7.693   1.667   4.573  0.9861  2.4242  0.6344
  691MOL0     H95312   7.683   1.806   4.852  2.2535  2.2352  0.9391
  691MOL0     H95313   7.818   1.740   4.759  0.0797  1.2364  3.2407
  691MOL0     H95314   7.735   1.910   4.564  0.5402  0.4112 -0.0689
  691MOL0     H95315   7.627   1.970   4.690 -0.6474 -1.2202  3.6820
  691MOL0     H95316   7.920   2.151   4.510 -0.2588  1.3257  2.2717
  691MOL0     H95317   8.207   2.153   4.315 -1.3335  1.0802 -1.6329
  691MOL0     H95318   8.039   2.189   4.329  0.8114  1.9171 -3.1742
  691MOL0     H95319   8.096   2.030   4.254 -0.8922 -0.6675  1.6081
  691MOL0     H95320   8.118   1.820   4.114  0.3199 -0.3417 -2.7319
  691MOL0     H95321   8.097   1.607   4.010 -0.3265  2.0672 -1.7457
  691MOL0     H95322   8.326   1.233   3.971 -1.1471  0.3729  1.2088
  691MOL0     H95323   8.456   1.333   4.051  1.4409 -2.5052  0.4150
  691MOL0     H95324   8.424   1.143   4.178 -1.1468 -1.5189 -3.0279
  691MOL0     H95325   8.359   1.275   4.276  2.2025  1.8660 -1.1934
  691MOL0     H95326   8.130   1.180   4.162 -0.0319 -0.9618 -1.1841
  691MOL0     H95327   8.195   1.141   4.322 -1.0881  2.4070 -0.0669
  691MOL0     H95328   8.322   0.954   4.243  1.9052  2.2873  0.0505
  691MOL0     H95329   8.280   0.973   4.084  0.6509 -4.4358  1.3761
  691MOL0     H95330   8.027   0.930   4.142  0.0696 -0.3325 -1.8331
  691MOL0     H95331   8.130   0.798   4.172  0.1363  1.4033 -4.0780
  691MOL0     H95332   8.035   0.988   4.382 -0.6963  1.5527 -0.3627
  691MOL0     H95333   8.175   0.873   4.404 -0.0513 -0.5645 -1.2034
  691MOL0     H95334   8.018   0.689   4.341  1.3393  0.0058  1.8497
  691MOL0     H95335   7.879   0.806   4.355 -0.4744  2.4592  0.0080
  691MOL0     H95336   7.935   0.639   4.541  1.3986  0.0189 -0.2493
  691MOL0     H95337   7.908   0.805   4.592 -0.7539 -0.4474 -1.8264
  691MOL0     H95338   8.458   1.478   4.227  1.4769  2.1493  1.9112
  691MOL0     H95339   8.462   1.695   4.338 -0.0124  3.1026 -1.0117
  691MOL0     H95340   8.241   1.801   4.664  1.3912 -0.3592 -2.5092
  691MOL0     H95341   8.025   1.837   4.773 -1.1855  2.3176  0.7775
  691MOL0     H95342   7.165   2.075   3.376 -1.8981 -0.0763  3.1059
  691MOL0     H95343   7.031   2.222   3.263 -0.9086 -0.7116  2.7123
  691MOL0     H95344   6.988   2.336   2.782  0.6994  1.2106  3.2744
  691MOL0     H95345   6.889   2.471   2.651  0.7201  1.4012  0.7571
  691MOL0     H95346   6.612   2.649   2.493  0.7473  0.7986 -0.2483
  691MOL0     H95347   6.765   2.569   2.528 -0.0202 -0.6567  0.0412
  691MOL0     H95348   6.721   2.369   2.411 -0.9307 -2.7330 -2.6474
  691MOL0     H95349   6.699   2.506   2.305 -0.9845  0.7504  0.6543
  691MOL0     H95350   6.544   2.336   2.248  0.0177  1.2460  0.4361
  691MOL0     H95351   6.482   2.327   2.407 -1.3353  1.0468 -0.1273
  691MOL0     H95352   6.490   2.567   2.222  0.0613  0.1390  1.7859
  691MOL0     H95353   6.408   2.575   2.370 -0.1193  0.6694 -0.3750
  691MOL0     H95354   6.150   2.371   2.077 -1.4475  0.1670  0.5640
  691MOL0     H95355   6.500   2.350   2.771 -0.1957  0.2143 -1.5050
  691MOL0     H95356   6.468   2.187   2.932 -1.9041 -2.6306  2.8404
  691MOL0     H95357   6.593   2.062   2.964 -0.9274  0.3865  0.3790
  691MOL0     H95358   6.596   2.207   3.062 -1.5066 -1.9009  1.6544
  692MOL0     O95359   7.060   0.035   6.925  0.1205  0.0680 -0.1944
  692MOL0     C95360   7.016  -0.054   6.998  0.4477  1.8485 -1.0168
  692MOL0     O95361   6.905  -0.044   7.066 -0.4124 -0.0915 -0.1396
  692MOL0     C95362   6.861   0.082   7.088  0.2897  0.0682 -0.2315
  692MOL0     C95363   6.918   0.159   7.187  0.6341  0.5236  0.6648
  692MOL0     C95364   6.852   0.274   7.224 -0.0484  0.5844  0.2432
  692MOL0     C95365   6.734   0.307   7.161  0.9319 -0.1202  0.3805
  692MOL0     O95366   6.669   0.423   7.176 -0.2587  0.4254  0.3590
  692MOL0     C95367   6.687   0.483   7.306 -0.0692  0.3470 -0.8669
  692MOL0     C95368   6.595   0.596   7.307 -0.1301 -0.0959  0.0045
  692MOL0     C95369   6.460   0.532   7.308  0.6043 -0.2611 -0.9570
  692MOL0     C95370   6.355   0.620   7.378  0.3270 -0.0436  0.2903
  692MOL0     C95371   6.220   0.556   7.358 -0.0303  0.2253 -0.6974
  692MOL0     C95372   6.197   0.437   7.462 -0.0928 -0.2566  0.1233
  692MOL0     C95373   6.072   0.348   7.446  0.0431 -0.8293  0.0912
  692MOL0     C95374   5.944   0.421   7.486 -1.2317 -0.2252 -0.0252
  692MOL0     N95375   5.830   0.343   7.461  0.4267  0.7344  0.7239
  692MOL0     C95376   5.768   0.329   7.338 -0.3974 -0.2740  0.1213
  692MOL0     C95377   5.637   0.304   7.370 -0.4005  0.1685  0.6544
  692MOL0     C95378   5.512   0.280   7.296  0.4733 -0.3912  0.3333
  692MOL0     C95379   5.434   0.414   7.309  0.4571  0.6734 -0.3499
  692MOL0     C95380   5.284   0.405   7.270  1.5846 -0.4597  0.1805
  692MOL0     C95381   5.255   0.380   7.118  0.0430  0.4392 -0.5903
  692MOL0     O95382   5.117   0.391   7.086 -0.3384  0.4530 -0.6192
  692MOL0     C95383   5.054   0.510   7.082 -0.2908  0.2629  0.2985
  692MOL0     C95384   4.921   0.503   7.049 -0.4294  0.6140  0.0154
  692MOL0     C95385   4.840   0.612   7.022 -0.4848 -0.0515 -0.1399
  692MOL0     C95386   4.700   0.581   6.978 -0.4529 -0.7934 -0.6344
  692MOL0     C95387   4.900   0.741   7.026 -0.5561  0.3815  1.4551
  692MOL0     C95388   4.817   0.866   7.028 -0.7939  0.4577 -0.1839
  692MOL0     O95389   4.878   0.988   7.002 -0.6626 -0.3081  0.1064
  692MOL0     C95390   4.799   1.105   6.987  0.6667 -0.2174  0.6400
  692MOL0     C95391   4.840   1.212   7.055  0.0379 -0.1465 -0.3608
  692MOL0     C95392   4.765   1.336   7.049  0.2760  0.7402 -0.4777
  692MOL0     C95393   4.647   1.348   6.977 -0.0991  0.4392  0.2132
  692MOL0     O95394   4.564   1.453   6.973 -0.6746  0.4446  0.6347
  692MOL0     C95395   4.446   1.459   6.892  0.3657  1.6109  0.2633
  692MOL0     C95396   4.476   1.484   6.743 -0.4493 -0.6563  0.3239
  692MOL0     C95397   4.471   1.627   6.689 -0.0791 -1.0337  1.0108
  692MOL0     C95398   4.338   1.700   6.702 -0.6685  0.4706  0.4130
  692MOL0     C95399   4.361   1.850   6.688 -0.3390  0.4950  0.2028
  692MOL0     C95400   4.432   1.887   6.556  0.9338  0.2895 -0.5060
  692MOL0     C95401   4.436   2.041   6.543  0.0218  0.5704 -0.3655
  692MOL0     C95402   4.442   2.088   6.399 -0.1412 -0.4796 -0.7084
  692MOL0    Cl95403   4.367   2.250   6.390  0.5576  0.3803  0.0682
  692MOL0     C95404   4.622   1.231   6.896  0.3377  0.9878 -0.9085
  692MOL0     C95405   4.694   1.113   6.899 -0.0625  0.0706 -0.3160
  692MOL0     O95406   4.696   0.858   7.060  0.0138  1.0559  0.0948
  692MOL0     C95407   5.036   0.750   7.059  0.3948  0.6643  0.5034
  692MOL0     C95408   5.111   0.640   7.094 -0.4735  1.2677 -0.5966
  692MOL0     N95409   5.643   0.283   7.514  0.7038  0.7365  0.8204
  692MOL0     N95410   5.758   0.304   7.561  0.5688 -0.7039 -0.4474
  692MOL0     C95411   6.684   0.233   7.057 -0.5162  0.2353 -0.1498
  692MOL0     C95412   6.746   0.119   7.018  1.1091  0.4233 -0.5055
  692MOL0     C95413   7.096  -0.181   7.001  1.0204  0.5386  0.1279
  692MOL0     C95414   7.028  -0.296   7.053  0.0435  0.9878  0.1786
  692MOL0     C95415   7.090  -0.423   7.070 -0.0554 -0.6130  0.3299
  692MOL0     C95416   7.223  -0.431   7.047 -1.0509  0.0620 -0.0810
  692MOL0     O95417   7.288  -0.553   7.073  0.0681  0.3166 -0.1282
  692MOL0     C95418   7.394  -0.548   7.162 -0.8362  0.0433 -1.2692
  692MOL0     C95419   7.341  -0.542   7.313  0.3460  0.4376 -0.1082
  692MOL0     C95420   7.221  -0.619   7.341  0.2444  0.6859  0.1842
  692MOL0     C95421   7.226  -0.664   7.488  0.5359  0.0686  0.2332
  692MOL0     C95422   7.118  -0.754   7.521  0.5565  0.3025 -0.1991
  692MOL0     C95423   7.020  -0.826   7.527 -0.2237 -0.4585  0.0951
  692MOL0     C95424   7.289  -0.311   6.999  0.0571  0.7613 -0.2098
  692MOL0     C95425   7.225  -0.195   6.964 -1.5640 -0.5074 -0.5803
  692MOL0     C95426   7.320  -0.080   6.915 -0.0976 -0.2735 -0.5869
  692MOL0     H95427   7.011   0.137   7.240  1.0051 -0.7258 -0.4309
  692MOL0     H95428   6.894   0.331   7.306 -2.7745  3.4241 -0.1427
  692MOL0     H95429   6.789   0.517   7.327  1.6647 -1.5450 -5.1168
  692MOL0     H95430   6.663   0.405   7.380  3.5065 -1.0885 -0.9844
  692MOL0     H95431   6.610   0.653   7.399 -1.1762  0.3852 -0.1088
  692MOL0     H95432   6.609   0.659   7.218  0.4680 -2.4688 -1.6653
  692MOL0     H95433   6.421   0.516   7.207 -1.8002 -0.3264 -0.0679
  692MOL0     H95434   6.452   0.433   7.354 -1.6455 -0.6212 -1.9805
  692MOL0     H95435   6.380   0.629   7.484 -3.7219  3.9546  1.2285
  692MOL0     H95436   6.354   0.715   7.324 -1.6681 -0.8152 -1.1608
  692MOL0     H95437   6.215   0.537   7.250  1.8484  2.5471 -1.2681
  692MOL0     H95438   6.146   0.631   7.386  2.8397  3.0777 -0.2609
  692MOL0     H95439   6.289   0.379   7.464  1.2566  1.8216  0.9648
  692MOL0     H95440   6.185   0.480   7.562 -1.5785  1.7281 -0.8419
  692MOL0     H95441   6.088   0.263   7.514  2.7064 -0.7207 -0.2932
  692MOL0     H95442   6.050   0.320   7.342 -2.5807  4.7565 -1.2426
  692MOL0     H95443   5.939   0.458   7.589 -3.4007  1.0809 -0.5421
  692MOL0     H95444   5.942   0.512   7.425  1.8646 -0.6006 -0.8799
  692MOL0     H95445   5.816   0.345   7.242  2.6283  0.4675  1.6345
  692MOL0     H95446   5.444   0.206   7.337 -0.9687  0.6419 -0.1182
  692MOL0     H95447   5.537   0.251   7.194  0.7397 -1.2100  0.6180
  692MOL0     H95448   5.431   0.446   7.414 -2.1751 -1.1387  0.2223
  692MOL0     H95449   5.474   0.505   7.264 -1.0852  1.9321  0.6915
  692MOL0     H95450   5.228   0.330   7.326  2.1370  0.2150  1.6860
  692MOL0     H95451   5.245   0.504   7.296  2.2763 -0.3809  0.9903
  692MOL0     H95452   5.293   0.459   7.053 -0.5642 -0.9461 -2.7578
  692MOL0     H95453   5.301   0.285   7.088 -0.9123 -0.8600  1.7807
  692MOL0     H95454   4.867   0.409   7.052 -0.7719  0.7462 -1.2872
  692MOL0     H95455   4.643   0.580   7.072  1.8586 -2.8768  0.9111
  692MOL0     H95456   4.684   0.495   6.912 -4.1610 -1.1453  0.4668
  692MOL0     H95457   4.664   0.666   6.919  3.0801  0.6801 -0.8975
  692MOL0     H95458   4.921   1.221   7.127 -1.2996 -0.8394  1.2860
  692MOL0     H95459   4.791   1.427   7.103 -0.7407 -0.5710  2.3961
  692MOL0     H95460   4.384   1.370   6.906 -1.5185  3.0865  1.9981
  692MOL0     H95461   4.386   1.547   6.918  2.1978  2.1870  2.9279
  692MOL0     H95462   4.575   1.443   6.720  1.2533  2.8884  0.6075
  692MOL0     H95463   4.414   1.432   6.670 -0.4434 -1.7139  1.0592
  692MOL0     H95464   4.496   1.634   6.583 -1.4616  2.9990  0.7833
  692MOL0     H95465   4.544   1.690   6.740  3.1709 -1.6496 -2.4447
  692MOL0     H95466   4.282   1.670   6.791  0.6153  0.0184  1.0842
  692MOL0     H95467   4.264   1.662   6.631  1.4829 -2.5009 -0.4055
  692MOL0     H95468   4.261   1.892   6.703 -0.2089  1.4692 -1.4325
  692MOL0     H95469   4.431   1.894   6.760  2.6304  0.7952 -2.6277
  692MOL0     H95470   4.383   1.828   6.478  2.7893 -0.9284 -0.8074
  692MOL0     H95471   4.529   1.838   6.564 -0.6929 -3.3001 -0.4575
  692MOL0     H95472   4.520   2.089   6.593  1.3420 -0.8222 -1.1585
  692MOL0     H95473   4.355   2.091   6.597 -1.2879 -1.0158 -0.7910
  692MOL0     H95474   4.405   2.016   6.326 -3.4567  0.3151  0.0189
  692MOL0     H95475   4.550   2.093   6.384  0.6642  0.2842  3.7204
  692MOL0     H95476   4.534   1.238   6.833 -0.0110 -1.3399 -0.7583
  692MOL0     H95477   4.661   1.025   6.845 -0.6039  0.4851 -0.6745
  692MOL0     H95478   5.092   0.843   7.064  1.7665 -0.1975  2.3968
  692MOL0     H95479   5.217   0.640   7.120 -0.3423 -2.3150 -0.6117
  692MOL0     H95480   6.599   0.262   6.997 -0.0689 -0.4911 -1.1646
  692MOL0     H95481   6.704   0.058   6.939 -0.0262 -1.9424  1.7724
  692MOL0     H95482   6.926  -0.314   7.086 -0.1801 -1.6540 -1.6386
  692MOL0     H95483   7.033  -0.510   7.101 -2.1090  0.4197 -0.3768
  692MOL0     H95484   7.447  -0.644   7.160 -0.0111  0.4220  0.3739
  692MOL0     H95485   7.458  -0.461   7.148 -0.6675 -0.0494 -1.0782
  692MOL0     H95486   7.318  -0.439   7.340 -1.5812 -0.3644  1.6110
  692MOL0     H95487   7.421  -0.574   7.380 -0.2833  0.9683  0.9361
  692MOL0     H95488   7.126  -0.573   7.312  0.8643  0.1635 -3.0023
  692MOL0     H95489   7.236  -0.710   7.282  0.2963  0.2444  0.8592
  692MOL0     H95490   7.233  -0.581   7.558  0.5863 -0.2894  0.6593
  692MOL0     H95491   7.316  -0.725   7.500  0.6551  0.3679  0.8858
  692MOL0     H95492   6.931  -0.885   7.537 -0.7137  0.0451 -1.0979
  692MOL0     H95493   7.397  -0.312   6.984  0.3972  1.1344  1.8543
  692MOL0     H95494   7.293  -0.048   6.814 -3.8956 -1.5873 -0.1422
  692MOL0     H95495   7.295   0.001   6.985  0.4465 -1.8476  1.5217
  692MOL0     H95496   7.424  -0.108   6.935  0.8108  3.0626  0.1748
  693MOL0     O95497   6.778  10.548   0.766  0.2850  0.3910  0.3935
  693MOL0     C95498   6.797  10.661   0.725 -0.2985 -0.0955 -0.9542
  693MOL0     O95499   6.865  10.689   0.614  1.4077 -0.0007  0.4894
  693MOL0     C95500   6.919  10.590   0.535  0.0879  0.5689 -0.2869
  693MOL0     C95501   6.844  10.560   0.423 -0.2555  0.3286 -0.2956
  693MOL0     C95502   6.885  10.455   0.337  0.2860 -0.2000 -0.2438
  693MOL0     C95503   7.000  10.389   0.357 -0.2133 -0.1976 -0.5605
  693MOL0     O95504   7.056  10.302   0.268  0.1204  0.5030 -0.5034
  693MOL0     C95505   6.964  10.236   0.174  0.1633 -0.1063 -1.0223
  693MOL0     C95506   7.029  10.136   0.088 -0.4995  0.8245  0.8733
  693MOL0     C95507   7.007  10.155  -0.064 -0.3955 -0.4752 -0.5307
  693MOL0     C95508   7.101  10.066  -0.151  0.1661 -0.3839  0.8844
  693MOL0     C95509   7.049  10.090  -0.294  0.3111  0.0427 -0.2326
  693MOL0     C95510   7.102   9.968  -0.382 -0.3447 -0.1657  0.2604
  693MOL0     C95511   7.048   9.972  -0.524  0.1499  0.6576 -0.4100
  693MOL0     C95512   7.095   9.850  -0.608  0.2254  1.0303 -0.1146
  693MOL0     N95513   7.209   9.883  -0.685 -0.0545  0.3222  0.1428
  693MOL0     C95514   7.340   9.917  -0.644  0.0230  0.2646  0.1394
  693MOL0     C95515   7.390   9.995  -0.739  0.1889 -0.1575  0.7648
  693MOL0     C95516   7.519  10.069  -0.724 -0.7229 -0.6227 -0.1942
  693MOL0     C95517   7.623  10.039  -0.834 -0.6343 -0.0661 -0.7578
  693MOL0     C95518   7.608  10.118  -0.971 -0.9313 -0.5752 -0.5699
  693MOL0     C95519   7.680  10.044  -1.085  0.1453 -0.2702  0.7577
  693MOL0     O95520   7.658  10.109  -1.212 -1.2774 -0.6099  0.2032
  693MOL0     C95521   7.742  10.082  -1.310 -0.8219 -0.6941  0.5351
  693MOL0     C95522   7.829   9.966  -1.316  0.3848  0.1134 -0.4013
  693MOL0     C95523   7.900   9.930  -1.434  0.5019 -0.0408 -0.5503
  693MOL0     C95524   7.980   9.800  -1.433 -0.0457  0.5362 -0.2392
  693MOL0     C95525   7.892  10.018  -1.548 -0.2256 -0.2146 -0.9481
  693MOL0     C95526   7.965   9.978  -1.678  0.0383  0.4070 -1.2360
  693MOL0     O95527   8.086   9.905  -1.668  0.5543 -0.3952  0.5342
  693MOL0     C95528   8.137   9.851  -1.781 -0.7085 -0.1329  0.2328
  693MOL0     C95529   8.241   9.920  -1.850 -1.0123 -0.5334  1.2689
  693MOL0     C95530   8.295   9.873  -1.973  0.6854  0.0676  0.3583
  693MOL0     C95531   8.236   9.758  -2.030  0.1943  0.8974  0.3119
  693MOL0     O95532   8.269   9.686  -2.143 -0.0900 -0.2041 -0.3814
  693MOL0     C95533   8.410   9.652  -2.174  0.8325  0.2866 -0.8636
  693MOL0     C95534   8.466   9.758  -2.272 -0.1533  0.2107  0.3680
  693MOL0     C95535   8.620   9.741  -2.297  1.5985 -0.2469  0.2490
  693MOL0     C95536   8.648   9.791  -2.435  0.1342  0.6211  0.1249
  693MOL0     C95537   8.795   9.792  -2.459 -0.1960 -0.1605 -0.1508
  693MOL0     C95538   8.831   9.847  -2.599 -0.0884 -0.3791  0.0513
  693MOL0     C95539   8.844   9.745  -2.706  0.6276 -0.1332  0.0558
  693MOL0     C95540   8.876   9.800  -2.838 -0.4076 -0.3837  0.4684
  693MOL0    Cl95541   9.038   9.881  -2.838  0.2946  0.3938 -0.0158
  693MOL0     C95542   8.132   9.699  -1.959 -0.0087  0.1731 -0.0845
  693MOL0     C95543   8.079   9.739  -1.841 -0.9069  0.0388  0.3816
  693MOL0     O95544   7.914  10.018  -1.782 -0.0205  0.3717 -0.6348
  693MOL0     C95545   7.808  10.131  -1.537  0.0580 -0.4024  0.6858
  693MOL0     C95546   7.729  10.166  -1.425  0.1303 -0.0414  0.6712
  693MOL0     N95547   7.309  10.003  -0.845  0.1625 -0.8375  0.2400
  693MOL0     N95548   7.200   9.940  -0.809  0.3601  0.6518  1.3941
  693MOL0     C95549   7.071  10.408   0.472 -0.3701 -0.7843  0.0780
  693MOL0     C95550   7.031  10.505   0.569 -0.2896  0.2870  0.6073
  693MOL0     C95551   6.733  10.770   0.802  1.0164 -0.7400  1.6401
  693MOL0     C95552   6.762  10.899   0.748 -0.8705  1.4704 -0.1983
  693MOL0     C95553   6.718  11.019   0.802 -0.1516 -0.6880  0.2607
  693MOL0     C95554   6.641  11.016   0.921 -0.4442 -0.3500  1.1594
  693MOL0     O95555   6.598  11.137   0.955  0.1030  0.0397 -0.0832
  693MOL0     C95556   6.504  11.150   1.068  0.3014  0.2095  0.7948
  693MOL0     C95557   6.576  11.154   1.208 -0.3184 -1.0363  0.0102
  693MOL0     C95558   6.654  11.285   1.219  0.0478 -0.3833 -1.1623
  693MOL0     C95559   6.693  11.304   1.368 -0.3145 -0.1024 -0.3786
  693MOL0     C95560   6.728  11.436   1.386 -0.5840 -0.6470 -0.6467
  693MOL0     C95561   6.760  11.553   1.392 -0.3839 -0.8394 -0.7749
  693MOL0     C95562   6.617  10.886   0.974 -0.1811  0.6544  0.2509
  693MOL0     C95563   6.659  10.769   0.921 -0.0835  0.7754  0.1839
  693MOL0     C95564   6.633  10.635   0.997 -0.2462  0.7195  0.3197
  693MOL0     H95565   6.756  10.620   0.408  0.9207  2.2694  0.2682
  693MOL0     H95566   6.830  10.441   0.244 -1.3383  0.3924  0.5972
  693MOL0     H95567   6.904  10.306   0.115  0.3413 -1.2724 -2.6579
  693MOL0     H95568   6.889  10.186   0.236  1.5640  0.1585  0.9800
  693MOL0     H95569   7.135  10.126   0.112 -0.3089  0.2760 -0.1335
  693MOL0     H95570   6.992  10.035   0.109  0.9775  0.0313 -0.1278
  693MOL0     H95571   6.905  10.123  -0.089  0.1926 -2.0236 -1.0974
  693MOL0     H95572   7.022  10.261  -0.085 -0.2743 -0.3950 -0.0424
  693MOL0     H95573   7.207  10.079  -0.130  0.8529 -1.7993 -1.3197
  693MOL0     H95574   7.074   9.961  -0.134 -1.6933  0.0052  0.6069
  693MOL0     H95575   7.078  10.186  -0.338  0.6956  0.2055  0.3705
  693MOL0     H95576   6.940  10.076  -0.297 -0.1826  2.3606  2.4424
  693MOL0     H95577   7.210   9.955  -0.378 -0.3262 -0.3700 -0.6507
  693MOL0     H95578   7.060   9.882  -0.330  1.2526 -1.4220 -0.4569
  693MOL0     H95579   7.061  10.068  -0.574 -1.9616  0.4033 -1.5396
  693MOL0     H95580   6.941   9.964  -0.505  0.8488 -1.0011  4.2049
  693MOL0     H95581   7.131   9.770  -0.542 -0.1345 -1.1305 -2.3647
  693MOL0     H95582   7.011   9.814  -0.669  0.6352  2.0293 -1.2858
  693MOL0     H95583   7.374   9.910  -0.541 -2.5512 -1.5474  0.9803
  693MOL0     H95584   7.556  10.047  -0.623 -0.5020  0.7900  0.0554
  693MOL0     H95585   7.502  10.177  -0.729  4.6760  0.5168  0.4039
  693MOL0     H95586   7.721  10.073  -0.797 -0.3718  2.0441 -3.0740
  693MOL0     H95587   7.628   9.931  -0.851 -0.1786 -0.2544  0.4733
  693MOL0     H95588   7.503  10.134  -1.000 -1.5075 -4.0167 -0.7918
  693MOL0     H95589   7.651  10.216  -0.949 -0.2068 -0.7903 -1.0058
  693MOL0     H95590   7.788  10.050  -1.068  0.8951 -3.2749 -1.9079
  693MOL0     H95591   7.653   9.938  -1.091  1.8322 -0.6518 -2.0114
  693MOL0     H95592   7.824   9.893  -1.235 -4.1640 -3.5089 -3.4622
  693MOL0     H95593   8.088   9.815  -1.440 -0.0224 -0.1995 -1.7817
  693MOL0     H95594   7.953   9.748  -1.525 -4.2785  1.6471  0.1623
  693MOL0     H95595   7.949   9.741  -1.346  0.9378  0.9872  0.4360
  693MOL0     H95596   8.295  10.011  -1.824 -0.3794  0.2735 -2.3643
  693MOL0     H95597   8.382   9.923  -2.015  0.2145 -0.5614 -1.4457
  693MOL0     H95598   8.472   9.641  -2.084  0.9734  2.0475 -0.7170
  693MOL0     H95599   8.410   9.550  -2.214  1.9333 -0.0158 -0.1588
  693MOL0     H95600   8.412   9.764  -2.367  1.8498  1.6882 -0.7320
  693MOL0     H95601   8.451   9.862  -2.241  4.9665  1.4175 -0.4129
  693MOL0     H95602   8.648   9.636  -2.296  2.3904 -0.0531 -0.5235
  693MOL0     H95603   8.672   9.801  -2.221  0.2206  0.0194  1.0084
  693MOL0     H95604   8.607   9.892  -2.438  1.1535  1.0544  0.5807
  693MOL0     H95605   8.603   9.724  -2.510  4.3976 -0.0316 -2.1695
  693MOL0     H95606   8.849   9.843  -2.379 -1.3698 -1.9765  1.9091
  693MOL0     H95607   8.825   9.687  -2.453  0.5339  0.0139 -0.6907
  693MOL0     H95608   8.925   9.902  -2.596 -0.8459  1.1346 -2.0314
  693MOL0     H95609   8.763   9.923  -2.637  0.3588  0.5134  0.9911
  693MOL0     H95610   8.750   9.688  -2.714  0.9679 -1.1117  2.3568
  693MOL0     H95611   8.912   9.666  -2.671 -1.7725 -1.6747  1.5241
  693MOL0     H95612   8.814   9.885  -2.868  2.0389  1.7307  1.0565
  693MOL0     H95613   8.875   9.718  -2.910 -0.4981  1.1291 -1.3053
  693MOL0     H95614   8.076   9.621  -2.010 -1.5633  2.3499 -1.8708
  693MOL0     H95615   7.986   9.707  -1.794 -1.1676  2.6955  1.9291
  693MOL0     H95616   7.805  10.198  -1.622 -1.4336  3.0308  3.2065
  693MOL0     H95617   7.660  10.250  -1.420 -0.5768 -0.4166 -1.7234
  693MOL0     H95618   7.159  10.345   0.481 -0.2320 -0.5986  0.0244
  693MOL0     H95619   7.092  10.515   0.659  1.0436  1.5442 -0.4017
  693MOL0     H95620   6.815  10.908   0.654 -1.3391  0.5893 -0.5602
  693MOL0     H95621   6.743  11.109   0.748 -1.3455 -1.2941 -1.3966
  693MOL0     H95622   6.439  11.235   1.047  0.0548 -0.8559 -3.8936
  693MOL0     H95623   6.452  11.055   1.083  2.5692 -1.3555 -0.6279
  693MOL0     H95624   6.643  11.071   1.232  2.2773  1.3690  1.5849
  693MOL0     H95625   6.498  11.153   1.285  0.2053 -2.9609  0.5816
  693MOL0     H95626   6.746  11.279   1.160  0.7088 -2.6776 -0.0133
  693MOL0     H95627   6.591  11.364   1.178 -0.1050 -0.3275 -0.8290
  693MOL0     H95628   6.788  11.251   1.376 -0.1440  0.4382  1.9636
  693MOL0     H95629   6.618  11.264   1.438 -0.6585  0.7809 -0.2329
  693MOL0     H95630   6.784  11.655   1.409  1.9899 -1.2204 -1.5086
  693MOL0     H95631   6.573  10.876   1.072  2.6822  1.6203  1.7385
  693MOL0     H95632   6.591  10.551   0.942  0.4929 -0.3820  1.4087
  693MOL0     H95633   6.731  10.603   1.033  0.3147  1.4436 -0.5084
  693MOL0     H95634   6.567  10.649   1.083 -0.4188  0.1422  0.2856
  694MOL0     O95635  11.024   9.047   2.612  0.3910  0.5575 -0.7001
  694MOL0     C95636  10.977   8.982   2.522  0.3732  0.0474 -0.3051
  694MOL0     O95637  10.917   8.857   2.530 -0.2253 -0.0525 -0.2288
  694MOL0     C95638  10.895   8.798   2.656 -0.1663 -0.1870  0.2697
  694MOL0     C95639  10.907   8.655   2.667 -0.0858 -0.0011  0.0004
  694MOL0     C95640  10.878   8.599   2.796  0.5411  0.7631  0.4156
  694MOL0     C95641  10.839   8.678   2.907  0.3657  0.0989 -0.6675
  694MOL0     O95642  10.799   8.620   3.024 -0.0408 -1.1423 -0.1762
  694MOL0     C95643  10.757   8.486   3.033 -0.8708 -0.0402 -0.0281
  694MOL0     C95644  10.706   8.456   3.170  0.2147 -0.0338  0.5291
  694MOL0     C95645  10.633   8.327   3.170  0.4383  0.3264  0.0168
  694MOL0     C95646  10.700   8.203   3.100  1.2306 -0.7182 -0.3254
  694MOL0     C95647  10.607   8.085   3.109 -0.2656 -0.8998  0.2610
  694MOL0     C95648  10.650   7.961   3.040  0.1581 -0.1029  0.0770
  694MOL0     C95649  10.784   7.906   3.088 -0.1860 -0.2315  0.7464
  694MOL0     C95650  10.801   7.763   3.057  0.4044 -0.0494  0.5629
  694MOL0     N95651  10.835   7.740   2.911 -0.3384 -0.1342  0.6566
  694MOL0     C95652  10.938   7.803   2.835  0.6504 -0.3964 -0.6437
  694MOL0     C95653  10.890   7.795   2.706  0.3019  0.1900 -0.5554
  694MOL0     C95654  10.956   7.862   2.585  0.0909  0.7563 -0.3290
  694MOL0     C95655  11.045   7.987   2.609 -0.2773  1.8000  0.1328
  694MOL0     C95656  11.121   8.030   2.481  0.3350  0.6257  0.0493
  694MOL0     C95657  11.201   7.919   2.415  0.3608 -0.3560 -0.0960
  694MOL0     O95658  11.290   7.963   2.303  0.6623  0.0403 -0.7335
  694MOL0     C95659  11.318   7.894   2.190  0.1706  0.9615  0.1711
  694MOL0     C95660  11.376   7.968   2.088 -0.1273  1.0493 -0.2455
  694MOL0     C95661  11.424   7.903   1.971  0.3164  0.2563 -0.4242
  694MOL0     C95662  11.493   7.993   1.870  0.4676 -0.2588 -0.6150
  694MOL0     C95663  11.377   7.770   1.941  0.0956 -0.1752  0.5917
  694MOL0     C95664  11.398   7.700   1.814 -1.0757  0.3930  0.8086
  694MOL0     O95665  11.374   7.568   1.817  0.2668 -0.1719  0.9664
  694MOL0     C95666  11.354   7.500   1.702 -0.4517  0.7875 -0.9011
  694MOL0     C95667  11.231   7.489   1.645  0.7444  0.6084  0.8465
  694MOL0     C95668  11.199   7.393   1.546 -0.0557 -0.0448 -0.2140
  694MOL0     C95669  11.298   7.292   1.514 -0.9750 -0.1422  0.4706
  694MOL0     O95670  11.271   7.203   1.415 -0.0985  0.9156 -0.3852
  694MOL0     C95671  11.352   7.083   1.403 -0.4265  0.6760 -0.0030
  694MOL0     C95672  11.330   6.988   1.527  0.0329  0.1953  0.6896
  694MOL0     C95673  11.187   6.963   1.552  0.1375 -0.1552 -0.3657
  694MOL0     C95674  11.158   6.851   1.654  0.2174 -0.4805  0.7698
  694MOL0     C95675  11.178   6.713   1.589  0.4481  0.6080 -0.3645
  694MOL0     C95676  11.053   6.640   1.567  0.6196  1.2388 -0.0250
  694MOL0     C95677  10.967   6.709   1.464 -0.4983 -0.5082  0.2821
  694MOL0     C95678  10.842   6.637   1.414  0.4700 -0.5961 -0.2465
  694MOL0    Cl95679  10.873   6.507   1.299  0.4368  0.1532 -0.1398
  694MOL0     C95680  11.429   7.304   1.570  0.2626 -0.2272 -1.3560
  694MOL0     C95681  11.454   7.402   1.668 -0.2297 -0.7314  0.0822
  694MOL0     O95682  11.409   7.770   1.709  0.2973  0.4424 -0.1809
  694MOL0     C95683  11.309   7.697   2.040 -0.1449  0.3069 -0.1377
  694MOL0     C95684  11.279   7.758   2.160 -0.3701 -0.3668 -0.2306
  694MOL0     N95685  10.775   7.724   2.714  0.0863 -0.4957  0.0518
  694MOL0     N95686  10.747   7.684   2.836  0.3146 -0.0053 -0.3360
  694MOL0     C95687  10.813   8.816   2.886 -0.0821 -0.3700 -0.0892
  694MOL0     C95688  10.850   8.880   2.765 -0.1468  0.4984  0.2939
  694MOL0     C95689  10.998   9.035   2.384  0.4227  1.0852  0.1662
  694MOL0     C95690  10.950   9.167   2.371 -0.0463  0.2916 -0.6276
  694MOL0     C95691  10.954   9.239   2.253 -0.3628 -0.0793  0.3227
  694MOL0     C95692  11.016   9.178   2.136  0.9773  0.5526  0.2712
  694MOL0     O95693  11.021   9.230   2.008 -0.4877 -0.3406 -0.5320
  694MOL0     C95694  10.902   9.284   1.956  0.3391 -0.5328 -0.6822
  694MOL0     C95695  10.903   9.309   1.810 -0.0576 -1.3115 -0.3532
  694MOL0     C95696  10.907   9.176   1.726 -0.3100  0.6502  0.1182
  694MOL0     C95697  10.920   9.210   1.572 -0.2771 -0.4566 -0.4580
  694MOL0     C95698  10.796   9.266   1.528  0.5222  0.9133 -0.3812
  694MOL0     C95699  10.691   9.311   1.485 -0.3123  0.2933 -0.0572
  694MOL0     C95700  11.068   9.044   2.158  0.5883  0.8567  0.7969
  694MOL0     C95701  11.067   8.968   2.279  1.2664 -0.7472  1.0293
  694MOL0     C95702  11.124   8.831   2.283  0.7476 -0.2815  0.3968
  694MOL0     H95703  10.930   8.597   2.578 -2.1081  0.1288 -0.6397
  694MOL0     H95704  10.881   8.491   2.804  1.0612  0.7162 -0.2969
  694MOL0     H95705  10.844   8.420   3.023 -0.5915  0.2322  0.5904
  694MOL0     H95706  10.676   8.460   2.964 -1.6562  0.6957  0.5995
  694MOL0     H95707  10.790   8.445   3.241 -0.6974 -4.8503  1.2091
  694MOL0     H95708  10.642   8.537   3.205  1.3406  0.9853  0.3053
  694MOL0     H95709  10.629   8.313   3.278  0.6956 -0.2009 -0.0408
  694MOL0     H95710  10.531   8.344   3.134  0.8262  0.2176 -1.1834
  694MOL0     H95711  10.703   8.222   2.992 -0.5139 -2.2665 -0.7028
  694MOL0     H95712  10.800   8.183   3.140  1.0827  0.0195  0.4290
  694MOL0     H95713  10.508   8.113   3.072 -1.4994 -2.9980  1.7105
  694MOL0     H95714  10.598   8.059   3.215  1.3601  0.2090  0.7030
  694MOL0     H95715  10.571   7.892   3.071 -0.1977  1.2737  2.4700
  694MOL0     H95716  10.648   7.958   2.930  1.6617 -3.6620  0.0012
  694MOL0     H95717  10.798   7.917   3.196 -2.8691 -1.8599  1.3593
  694MOL0     H95718  10.866   7.962   3.044 -0.7971  0.0168 -0.1019
  694MOL0     H95719  10.888   7.725   3.111  0.4141 -0.0815  0.5249
  694MOL0     H95720  10.707   7.712   3.078  0.3773 -0.4795 -0.5174
  694MOL0     H95721  11.031   7.842   2.875  0.0024  0.0757  0.4432
  694MOL0     H95722  10.876   7.895   2.519  1.4147  0.2606 -2.2583
  694MOL0     H95723  11.010   7.784   2.530  1.5997  1.1666  0.5055
  694MOL0     H95724  10.970   8.062   2.633 -1.0052  0.7103  1.3775
  694MOL0     H95725  11.115   7.959   2.688 -2.2680 -2.6630  0.6291
  694MOL0     H95726  11.054   8.080   2.410 -0.6242  1.3127  1.3839
  694MOL0     H95727  11.193   8.105   2.514  1.0936  0.5643 -1.3896
  694MOL0     H95728  11.257   7.872   2.497 -2.8480 -1.8523  1.4179
  694MOL0     H95729  11.131   7.842   2.380 -0.4460  0.6230 -0.6880
  694MOL0     H95730  11.409   8.070   2.110 -0.0953  0.9368  0.2474
  694MOL0     H95731  11.551   7.936   1.797  0.2497 -3.1156  1.2902
  694MOL0     H95732  11.561   8.060   1.924  0.0071 -0.3029  0.0349
  694MOL0     H95733  11.416   8.052   1.820 -0.5696 -0.7209  0.3788
  694MOL0     H95734  11.167   7.570   1.679 -1.6984 -0.8911  0.0813
  694MOL0     H95735  11.105   7.397   1.492  0.1863 -0.2075 -0.6566
  694MOL0     H95736  11.326   7.026   1.314 -1.0793  1.3907 -0.2805
  694MOL0     H95737  11.459   7.103   1.389  0.4506 -1.5776  2.5006
  694MOL0     H95738  11.364   6.889   1.497 -0.9460  0.2921 -0.8746
  694MOL0     H95739  11.370   7.016   1.625 -0.5197 -1.4678  1.4222
  694MOL0     H95740  11.141   6.941   1.455 -3.4937  2.4406  0.5670
  694MOL0     H95741  11.145   7.058   1.585  3.0829  0.7544  1.0276
  694MOL0     H95742  11.062   6.879   1.698  0.0748  0.7296 -0.2572
  694MOL0     H95743  11.223   6.848   1.742 -1.5554 -1.7651  2.1155
  694MOL0     H95744  11.209   6.714   1.485 -1.5338 -0.8828 -1.0305
  694MOL0     H95745  11.253   6.663   1.651  0.1104  1.2292  0.5677
  694MOL0     H95746  10.985   6.640   1.653 -1.1176  2.5603 -1.3118
  694MOL0     H95747  11.087   6.543   1.529  3.2780  1.7399  0.8756
  694MOL0     H95748  11.022   6.747   1.378  1.7821  1.8472  2.5747
  694MOL0     H95749  10.945   6.795   1.528  3.4698  2.5444 -1.9839
  694MOL0     H95750  10.778   6.717   1.377  1.7997 -0.2469 -1.9264
  694MOL0     H95751  10.795   6.591   1.501  1.6371 -0.8849  0.2549
  694MOL0     H95752  11.514   7.236   1.565  0.3937 -0.5542  2.4059
  694MOL0     H95753  11.551   7.408   1.714 -0.1874 -2.2681  0.2456
  694MOL0     H95754  11.280   7.592   2.033  1.0205 -0.2199  2.0511
  694MOL0     H95755  11.221   7.700   2.230 -0.4127  0.4029  0.3863
  694MOL0     H95756  10.776   8.883   2.963  2.7243  0.9382  0.2460
  694MOL0     H95757  10.835   8.986   2.745  0.8702  0.6694  0.3860
  694MOL0     H95758  10.902   9.214   2.456  1.0556 -0.7198  0.5947
  694MOL0     H95759  10.921   9.343   2.255 -3.0760 -0.8708  2.3790
  694MOL0     H95760  10.817   9.216   1.968 -1.0786  1.3137  0.2401
  694MOL0     H95761  10.881   9.379   2.007  2.3290 -0.7544  0.6635
  694MOL0     H95762  10.991   9.369   1.786 -0.6669  1.1333  2.7937
  694MOL0     H95763  10.816   9.364   1.771  0.7886 -0.1842 -0.6947
  694MOL0     H95764  10.992   9.119   1.764  2.1494  2.6726 -1.9845
  694MOL0     H95765  10.815   9.123   1.752  0.9880 -0.5512  2.7459
  694MOL0     H95766  10.935   9.112   1.526 -1.6418 -0.2712 -1.3679
  694MOL0     H95767  11.004   9.276   1.546  1.0190 -2.2002 -0.8735
  694MOL0     H95768  10.610   9.367   1.443  0.4641  3.9566  2.8353
  694MOL0     H95769  11.122   8.994   2.078 -1.9269 -0.3906 -0.2331
  694MOL0     H95770  11.172   8.802   2.189 -0.0956  0.5097 -0.3051
  694MOL0     H95771  11.203   8.836   2.358  1.0468  4.4068  0.0842
  694MOL0     H95772  11.040   8.769   2.316 -3.2640  4.2563 -0.2006
  695MOL0     O95773   2.014   7.241  10.125 -0.1045  0.0083 -0.4489
  695MOL0     C95774   2.063   7.346  10.081 -0.0599  0.4925 -0.5058
  695MOL0     O95775   2.150   7.351   9.976 -0.0928 -0.2992 -0.1415
  695MOL0     C95776   2.135   7.259   9.877 -0.3915  1.2480  0.8929
  695MOL0     C95777   2.013   7.216   9.825  0.4998  0.7063  0.0097
  695MOL0     C95778   2.015   7.106   9.741  0.1311  0.1497  0.1033
  695MOL0     C95779   2.132   7.057   9.687 -0.5524 -0.3819 -0.4654
  695MOL0     O95780   2.106   6.959   9.592  0.4790  0.2030  0.3133
  695MOL0     C95781   2.191   6.957   9.471  1.7715  0.1231  0.0686
  695MOL0     C95782   2.121   6.886   9.357  1.0498 -0.3627 -0.7338
  695MOL0     C95783   2.177   6.886   9.215  0.2234 -0.2100  0.5321
  695MOL0     C95784   2.200   7.026   9.166 -0.0048  0.5933 -0.4491
  695MOL0     C95785   2.182   7.034   9.014  0.6733 -0.2545 -0.5752
  695MOL0     C95786   2.035   7.047   8.964  0.1118  0.8286 -0.1993
  695MOL0     C95787   1.936   7.123   9.053 -1.0228  0.5641 -0.8891
  695MOL0     C95788   1.788   7.139   9.014 -0.7457  0.3484  0.6800
  695MOL0     N95789   1.710   7.025   9.052  0.6631  0.1749 -0.4941
  695MOL0     C95790   1.612   6.969   8.976  0.9422 -0.1394  0.3394
  695MOL0     C95791   1.554   6.875   9.048 -0.1206  0.6473 -0.6645
  695MOL0     C95792   1.462   6.773   8.984  0.2212 -0.1722  0.3285
  695MOL0     C95793   1.348   6.840   8.904  0.5341 -0.4018  0.4702
  695MOL0     C95794   1.242   6.738   8.869  1.0782  0.5011  0.6799
  695MOL0     C95795   1.101   6.786   8.814  0.0178 -0.0805  0.1145
  695MOL0     O95796   1.019   6.665   8.805  0.4929 -0.0679  0.2944
  695MOL0     C95797   0.893   6.683   8.768  0.8941  0.4669 -0.3557
  695MOL0     C95798   0.837   6.572   8.710 -0.2296  0.5586  0.6850
  695MOL0     C95799   0.705   6.574   8.673  0.0662 -0.4481  0.1816
  695MOL0     C95800   0.673   6.451   8.591 -1.5699 -0.1406 -0.5259
  695MOL0     C95801   0.619   6.681   8.704 -0.6394  1.1540 -0.5099
  695MOL0     C95802   0.472   6.668   8.680  0.0692  0.1170  0.7070
  695MOL0     O95803   0.400   6.777   8.665  0.6054  0.0146  0.0961
  695MOL0     C95804   0.268   6.761   8.624 -0.9702  0.2124  0.4196
  695MOL0     C95805   0.231   6.675   8.512 -0.0885 -0.5214 -0.6056
  695MOL0     C95806   0.102   6.667   8.462 -0.9474 -0.0625 -0.7165
  695MOL0     C95807   0.004   6.746   8.525  0.0208  0.6645  0.0392
  695MOL0     O95808  -0.131   6.716   8.493 -0.3605  0.0898 -0.0355
  695MOL0     C95809  -0.217   6.833   8.486 -0.4074  0.5625  0.3653
  695MOL0     C95810  -0.363   6.801   8.485  0.0580 -0.7314 -0.6390
  695MOL0     C95811  -0.463   6.926   8.512 -0.5161  0.5403  0.4747
  695MOL0     C95812  -0.431   7.048   8.421  0.8400  0.9412  0.2818
  695MOL0     C95813  -0.540   7.159   8.447  1.0018  0.2951  0.5479
  695MOL0     C95814  -0.491   7.242   8.562 -0.7654  0.7596  0.5247
  695MOL0     C95815  -0.606   7.333   8.603  0.1785  0.2435  0.1219
  695MOL0     C95816  -0.580   7.409   8.726 -0.3317  0.0788 -0.9511
  695MOL0    Cl95817  -0.458   7.539   8.703  0.1058 -0.1634 -0.1993
  695MOL0     C95818   0.043   6.841   8.625  1.2747  0.7852  0.8154
  695MOL0     C95819   0.169   6.833   8.687 -0.1901 -1.1733  0.2557
  695MOL0     O95820   0.425   6.554   8.674 -0.1855  0.3482  1.2741
  695MOL0     C95821   0.675   6.793   8.759 -0.6221 -0.4105  0.2628
  695MOL0     C95822   0.811   6.796   8.787 -0.8420 -1.1122 -0.0053
  695MOL0     N95823   1.609   6.859   9.174 -0.0988 -0.5248  0.6074
  695MOL0     N95824   1.709   6.946   9.166 -0.8093  0.0585  0.0468
  695MOL0     C95825   2.260   7.111   9.726  0.3586 -0.5220 -0.6606
  695MOL0     C95826   2.253   7.221   9.817 -0.4368  0.0947  0.8078
  695MOL0     C95827   2.022   7.470  10.145  0.2113 -0.6172 -0.6102
  695MOL0     C95828   2.042   7.592  10.079 -0.6755  1.0525  0.7463
  695MOL0     C95829   2.014   7.712  10.142 -0.3298 -0.3111  0.5913
  695MOL0     C95830   1.926   7.714  10.250 -0.3419 -0.5789 -0.2297
  695MOL0     O95831   1.883   7.824  10.317  0.0719  0.2323  0.2900
  695MOL0     C95832   1.925   7.954  10.283  0.1268 -0.0409  0.0038
  695MOL0     C95833   1.855   8.050  10.380 -0.7302 -0.3613  0.1359
  695MOL0     C95834   1.702   8.017  10.412 -0.2330  0.0861 -0.0525
  695MOL0     C95835   1.654   8.132  10.503 -0.7432 -0.9175 -0.1789
  695MOL0     C95836   1.712   8.110  10.639  0.7764  0.0120  0.0044
  695MOL0     C95837   1.755   8.102  10.752  0.0556  0.0527 -0.5779
  695MOL0     C95838   1.879   7.594  10.299 -0.2749 -0.9357 -0.2035
  695MOL0     C95839   1.932   7.476  10.258  0.0703 -0.7187  0.6340
  695MOL0     C95840   1.878   7.365  10.339  0.1573  0.0951 -0.3924
  695MOL0     H95841   1.922   7.253   9.870  0.3179 -1.5984  1.7191
  695MOL0     H95842   1.935   7.046   9.698 -1.7114  3.8300 -2.1705
  695MOL0     H95843   2.287   6.913   9.501  2.1484  1.2920  0.6401
  695MOL0     H95844   2.218   7.056   9.434  2.2395 -0.0229  0.0152
  695MOL0     H95845   2.111   6.783   9.391  0.4434  0.4760  1.9258
  695MOL0     H95846   2.019   6.925   9.349  0.2527 -1.7458  1.6782
  695MOL0     H95847   2.272   6.833   9.210  0.5567  0.2905  1.5078
  695MOL0     H95848   2.105   6.840   9.147 -0.4463  0.6622  0.6276
  695MOL0     H95849   2.140   7.095   9.227  1.6826  1.3486  0.4333
  695MOL0     H95850   2.297   7.067   9.196 -0.1526  1.6643 -1.3761
  695MOL0     H95851   2.214   6.942   8.965 -4.2310 -2.1443 -0.8171
  695MOL0     H95852   2.249   7.114   8.983  0.7799 -0.9609 -2.2946
  695MOL0     H95853   2.034   7.075   8.858  1.3811 -3.4886 -1.6012
  695MOL0     H95854   1.983   6.951   8.969 -1.2296  1.4758 -1.2461
  695MOL0     H95855   1.974   7.224   9.070  1.3368 -0.8071  3.6179
  695MOL0     H95856   1.949   7.079   9.152 -1.0745 -0.0489 -1.1497
  695MOL0     H95857   1.747   7.234   9.052  0.1840  1.5538 -1.1532
  695MOL0     H95858   1.793   7.142   8.905 -0.3976  0.4918  0.7004
  695MOL0     H95859   1.582   6.981   8.873  1.4701 -1.4600  0.0086
  695MOL0     H95860   1.430   6.701   9.059  0.9333 -1.3676 -0.4787
  695MOL0     H95861   1.516   6.716   8.907 -1.0239  1.7455 -2.1038
  695MOL0     H95862   1.306   6.919   8.968  2.7672  2.0821 -0.9468
  695MOL0     H95863   1.376   6.900   8.817 -0.8149 -1.3065 -0.6295
  695MOL0     H95864   1.282   6.683   8.784 -1.5260 -0.1560 -0.2162
  695MOL0     H95865   1.226   6.668   8.952  0.6290 -0.9814 -0.6164
  695MOL0     H95866   1.059   6.854   8.889 -1.8523 -0.2857 -0.7013
  695MOL0     H95867   1.106   6.830   8.714 -1.5650 -0.3426 -0.0972
  695MOL0     H95868   0.889   6.479   8.726 -1.3261 -0.2286 -0.2034
  695MOL0     H95869   0.676   6.369   8.663  0.5314 -1.4546 -1.9928
  695MOL0     H95870   0.751   6.432   8.517 -2.3083  0.0438 -1.3704
  695MOL0     H95871   0.581   6.450   8.531 -1.5011  2.5054 -0.7797
  695MOL0     H95872   0.295   6.604   8.460  1.1831 -0.0424  0.2362
  695MOL0     H95873   0.084   6.594   8.384 -3.8728 -0.2373 -0.0117
  695MOL0     H95874  -0.200   6.905   8.566 -4.3157  2.4321 -0.2558
  695MOL0     H95875  -0.182   6.883   8.394  2.0197 -2.4858 -0.5556
  695MOL0     H95876  -0.390   6.745   8.395  1.7043  1.3542 -2.5681
  695MOL0     H95877  -0.376   6.735   8.571 -1.7410 -1.4083 -1.3798
  695MOL0     H95878  -0.452   6.961   8.615 -1.5609  1.8142  0.1681
  695MOL0     H95879  -0.568   6.901   8.493 -0.1740  0.6858 -1.9598
  695MOL0     H95880  -0.436   7.004   8.321 -2.1944  1.0900  0.2653
  695MOL0     H95881  -0.329   7.083   8.438  1.1547  0.4880 -0.6249
  695MOL0     H95882  -0.550   7.223   8.359  1.1830 -1.2851 -0.6704
  695MOL0     H95883  -0.642   7.121   8.459  0.2406  1.5157 -1.5808
  695MOL0     H95884  -0.403   7.296   8.528 -0.9206  0.7501  0.0902
  695MOL0     H95885  -0.448   7.175   8.637  2.4299  0.2117 -1.6144
  695MOL0     H95886  -0.687   7.263   8.623 -2.0466  2.3510 -0.9201
  695MOL0     H95887  -0.636   7.403   8.524  0.1469 -0.1736 -0.2411
  695MOL0     H95888  -0.552   7.341   8.807 -1.7701  1.0373  0.4073
  695MOL0     H95889  -0.676   7.457   8.746 -1.2321 -1.8404 -0.4992
  695MOL0     H95890  -0.026   6.899   8.685  0.7097 -0.7210  1.6930
  695MOL0     H95891   0.208   6.890   8.771 -0.2801  0.9578 -1.0613
  695MOL0     H95892   0.604   6.873   8.781 -5.9559 -4.2653 -0.9729
  695MOL0     H95893   0.847   6.896   8.807 -3.6676  0.7451 -3.1201
  695MOL0     H95894   2.359   7.091   9.686  0.3239 -0.2924 -0.8619
  695MOL0     H95895   2.345   7.278   9.831  1.1569 -2.3198  0.7068
  695MOL0     H95896   2.091   7.593   9.982 -0.4164 -3.6462  0.6308
  695MOL0     H95897   2.052   7.796  10.084  3.9502 -1.9321  0.7421
  695MOL0     H95898   2.031   7.968  10.309 -0.1288 -0.5583  1.4496
  695MOL0     H95899   1.911   7.995  10.183  1.5753  1.9141  0.5189
  695MOL0     H95900   1.871   8.151  10.342 -1.0539 -0.7835 -1.1525
  695MOL0     H95901   1.915   8.042  10.472  0.4175  3.1595 -0.1596
  695MOL0     H95902   1.646   8.008  10.318 -3.2262  1.3098  1.4576
  695MOL0     H95903   1.694   7.924  10.469  0.8974  0.1965  0.3027
  695MOL0     H95904   1.545   8.127  10.510 -0.8282 -3.4849 -2.0556
  695MOL0     H95905   1.678   8.231  10.462 -0.1560 -1.6840 -1.7515
  695MOL0     H95906   1.794   8.101  10.852  0.6709  1.6954 -0.7720
  695MOL0     H95907   1.807   7.599  10.380  1.5775  0.2341  1.4708
  695MOL0     H95908   1.962   7.303  10.370 -0.1491  0.0182  0.3211
  695MOL0     H95909   1.836   7.386  10.438  2.7225 -3.5871  1.6784
  695MOL0     H95910   1.797   7.303  10.299  0.2703 -0.6530  0.5153
  696MOL0     O95911   4.875   5.706  10.868  0.0173 -0.5663 -0.2071
  696MOL0     C95912   4.882   5.831  10.842  0.5556  0.6156 -0.3057
  696MOL0     O95913   4.934   5.921  10.930  0.5662  0.4139  0.0138
  696MOL0     C95914   5.009   5.873  11.041 -0.5135 -0.0943  0.5491
  696MOL0     C95915   5.000   5.938  11.162 -0.6272  0.2525 -1.6422
  696MOL0     C95916   5.068   5.883  11.272 -0.8485 -0.3477 -0.7335
  696MOL0     C95917   5.171   5.782  11.254  0.6359 -0.5544 -0.6480
  696MOL0     O95918   5.259   5.729  11.355 -0.2316  0.2022  0.8139
  696MOL0     C95919   5.287   5.811  11.465  0.3610 -1.1347  0.2368
  696MOL0     C95920   5.421   5.786  11.521 -0.3407  0.8025 -0.6207
  696MOL0     C95921   5.530   5.841  11.425 -0.3869 -0.7371 -0.6988
  696MOL0     C95922   5.656   5.786  11.478 -0.0850  0.1749 -0.0374
  696MOL0     C95923   5.677   5.644  11.411 -0.5496 -0.9013  0.1645
  696MOL0     C95924   5.805   5.585  11.456 -0.1116 -1.1432 -0.6047
  696MOL0     C95925   5.817   5.570  11.607 -0.0173  0.2339  0.5126
  696MOL0     C95926   5.701   5.497  11.681 -1.1017  0.1579 -0.4036
  696MOL0     N95927   5.689   5.358  11.623  0.3425 -0.1952  0.1676
  696MOL0     C95928   5.597   5.312  11.525 -0.2115 -0.3042 -0.1917
  696MOL0     C95929   5.617   5.185  11.516  0.7866  0.4386 -0.2021
  696MOL0     C95930   5.557   5.095  11.416  0.1931 -0.5708  0.0733
  696MOL0     C95931   5.551   4.951  11.461  0.6750 -0.0162 -0.0986
  696MOL0     C95932   5.468   4.865  11.361 -0.0046  0.4435  0.3806
  696MOL0     C95933   5.319   4.898  11.353  0.7848 -0.0076  0.3242
  696MOL0     O95934   5.253   4.814  11.259 -0.3227  0.0798 -0.1151
  696MOL0     C95935   5.260   4.849  11.132 -0.2150 -0.1741 -0.9881
  696MOL0     C95936   5.356   4.795  11.047 -0.5791  0.7298  0.2333
  696MOL0     C95937   5.354   4.803  10.909 -0.3571 -0.0032 -0.1340
  696MOL0     C95938   5.430   4.702  10.838  0.3051  0.1290  0.0028
  696MOL0     C95939   5.260   4.888  10.846 -0.6577 -0.1188  0.3336
  696MOL0     C95940   5.251   4.921  10.701 -0.0890  0.4457 -0.5507
  696MOL0     O95941   5.133   4.974  10.661  0.1755  0.6249 -0.7800
  696MOL0     C95942   5.105   5.037  10.544  0.6161 -0.2868 -0.3890
  696MOL0     C95943   5.197   5.054  10.438  0.2630  0.2004  0.4875
  696MOL0     C95944   5.154   5.138  10.327  0.1542  1.1246 -0.1078
  696MOL0     C95945   5.013   5.183  10.315  0.3785  0.4268  0.3515
  696MOL0     O95946   4.956   5.230  10.199 -0.0175 -0.5636  0.1558
  696MOL0     C95947   5.030   5.198  10.080  0.1166 -0.1116  0.1885
  696MOL0     C95948   4.921   5.182   9.972 -0.3581  1.0858 -0.2491
  696MOL0     C95949   4.977   5.172   9.830 -0.5930 -0.0112 -0.2646
  696MOL0     C95950   4.870   5.163   9.714 -0.7879 -0.2452 -0.0299
  696MOL0     C95951   4.764   5.274   9.704 -0.5734 -0.8822  0.0208
  696MOL0     C95952   4.795   5.376   9.595 -0.0133  0.6398 -0.4448
  696MOL0     C95953   4.671   5.455   9.559 -0.5180  0.1957  1.3430
  696MOL0     C95954   4.698   5.560   9.447 -0.3177  0.8718  0.7148
  696MOL0    Cl95955   4.802   5.695   9.512  0.1836  0.3035  0.4324
  696MOL0     C95956   4.921   5.155  10.419  0.2204 -0.4595  0.7930
  696MOL0     C95957   4.969   5.080  10.519 -0.3366  0.4334 -0.5365
  696MOL0     O95958   5.361   4.910  10.639  1.3724 -0.5810 -0.8231
  696MOL0     C95959   5.171   4.955  10.931  0.7243 -0.2798  0.4821
  696MOL0     C95960   5.162   4.930  11.071  0.1686 -0.3672 -0.2533
  696MOL0     N95961   5.717   5.148  11.603  0.6273 -1.1610 -0.3699
  696MOL0     N95962   5.758   5.257  11.666 -0.3658  0.5374 -0.7606
  696MOL0     C95963   5.192   5.733  11.127 -0.4428 -0.1996  0.3879
  696MOL0     C95964   5.114   5.779  11.027 -0.4869 -0.1374 -0.2520
  696MOL0     C95965   4.833   5.878  10.717  0.0727 -0.3991  0.3378
  696MOL0     C95966   4.755   5.787  10.646  0.4147  0.3269  0.5245
  696MOL0     C95967   4.702   5.815  10.515 -0.2162 -0.3632  0.5392
  696MOL0     C95968   4.746   5.937  10.456  0.2295  0.1643  0.6145
  696MOL0     O95969   4.672   5.974  10.349  0.9686 -0.5541  1.1066
  696MOL0     C95970   4.711   5.927  10.217 -0.0389 -0.0015 -0.1771
  696MOL0     C95971   4.861   5.919  10.175  0.2249  0.3609 -0.2810
  696MOL0     C95972   4.906   6.036  10.083  0.1673  0.8650 -0.0621
  696MOL0     C95973   4.918   6.158  10.184  0.4638 -0.5236  0.0863
  696MOL0     C95974   5.045   6.154  10.247 -0.5065  0.7179 -0.3683
  696MOL0     C95975   5.149   6.145  10.315  0.2298 -0.8162  0.4407
  696MOL0     C95976   4.820   6.035  10.528 -0.4564  0.5304  0.5622
  696MOL0     C95977   4.852   6.012  10.661 -0.2102  0.2756  0.5520
  696MOL0     C95978   4.924   6.135  10.737 -0.2235  0.5008  0.1610
  696MOL0     H95979   4.928   6.016  11.186  0.6290  1.2196 -0.8772
  696MOL0     H95980   5.050   5.923  11.372  2.6012  0.7102 -0.4066
  696MOL0     H95981   5.206   5.795  11.536  0.2597  1.0382  0.6983
  696MOL0     H95982   5.288   5.912  11.422  0.5628 -1.1596  0.1768
  696MOL0     H95983   5.427   5.841  11.615 -1.4781 -0.2774  0.1268
  696MOL0     H95984   5.421   5.679  11.544  1.0746  1.6643  4.8238
  696MOL0     H95985   5.515   5.811  11.321  1.4962  0.3974 -1.3451
  696MOL0     H95986   5.546   5.949  11.425 -2.0683 -0.4494 -2.1076
  696MOL0     H95987   5.741   5.847  11.446 -2.0228  0.8583 -4.5266
  696MOL0     H95988   5.648   5.778  11.587 -2.7896 -0.6861 -0.2442
  696MOL0     H95989   5.694   5.663  11.304  3.2370 -0.1048  0.7388
  696MOL0     H95990   5.604   5.563  11.418  0.5603 -1.7824  2.4253
  696MOL0     H95991   5.814   5.483  11.419  1.4609 -1.7202  1.2146
  696MOL0     H95992   5.883   5.649  11.413 -1.0545 -0.9016 -2.0115
  696MOL0     H95993   5.829   5.667  11.657 -3.4604 -0.7835  3.7593
  696MOL0     H95994   5.911   5.521  11.634 -1.0793 -0.0703  4.2210
  696MOL0     H95995   5.729   5.481  11.786  1.9308  1.6176 -0.8714
  696MOL0     H95996   5.615   5.565  11.677  1.7571  4.0959 -0.6508
  696MOL0     H95997   5.528   5.363  11.458 -0.6316 -0.2613  0.2684
  696MOL0     H95998   5.613   5.092  11.322  1.9636 -1.7159  1.1118
  696MOL0     H95999   5.460   5.133  11.382  0.4712  1.4128  1.3482
  696MOL0     H96000   5.651   4.908  11.472  2.3625  3.2243 -1.4639
  696MOL0     H96001   5.510   4.943  11.562  1.2597  1.0740  0.2447
  696MOL0     H96002   5.520   4.882  11.266  0.7760 -3.4943 -0.0755
  696MOL0     H96003   5.479   4.760  11.391 -0.2306 -0.0254 -1.0861
  696MOL0     H96004   5.286   4.890  11.456 -1.4275 -0.8642 -0.3930
  696MOL0     H96005   5.298   5.000  11.318 -4.2352 -1.9562 -3.6294
  696MOL0     H96006   5.438   4.752  11.105  0.4071  1.6923 -0.4243
  696MOL0     H96007   5.380   4.688  10.741  0.9425 -0.1538 -0.2892
  696MOL0     H96008   5.432   4.612  10.900  2.3272  0.2841  0.2351
  696MOL0     H96009   5.533   4.736  10.824  0.4439  1.1155  2.8453
  696MOL0     H96010   5.301   5.024  10.445 -0.2887 -2.5503 -1.7337
  696MOL0     H96011   5.227   5.156  10.249 -1.5675  0.1689 -2.0391
  696MOL0     H96012   5.099   5.277  10.049  0.0776  0.3429  1.2339
  696MOL0     H96013   5.074   5.098  10.093 -1.0643 -0.6695  0.0427
  696MOL0     H96014   4.880   5.081   9.986  1.7514 -0.0360 -1.6468
  696MOL0     H96015   4.838   5.252   9.981  0.8024  2.5864 -0.8727
  696MOL0     H96016   5.038   5.081   9.829  0.8595  0.8807 -2.8554
  696MOL0     H96017   5.049   5.253   9.818  1.7426 -1.9321  0.1383
  696MOL0     H96018   4.829   5.062   9.726  0.8265 -0.9519 -0.2863
  696MOL0     H96019   4.928   5.163   9.622 -1.1305  2.0858 -0.3120
  696MOL0     H96020   4.673   5.224   9.669 -1.1440  2.4072 -4.0449
  696MOL0     H96021   4.738   5.318   9.801  2.2366 -0.0571  0.4800
  696MOL0     H96022   4.821   5.325   9.502  1.5023  0.5696 -0.0001
  696MOL0     H96023   4.861   5.445   9.648 -1.8845  1.7580  0.5490
  696MOL0     H96024   4.624   5.503   9.645 -1.6658  0.2153  0.7238
  696MOL0     H96025   4.593   5.386   9.527  0.2272 -1.0094  2.0425
  696MOL0     H96026   4.595   5.585   9.422 -1.3556 -2.2623  1.4760
  696MOL0     H96027   4.748   5.517   9.360 -2.0964  0.9553 -0.3953
  696MOL0     H96028   4.816   5.180  10.412  0.4528  0.7304  1.4363
  696MOL0     H96029   4.899   5.059  10.599  0.2763 -0.2210 -0.1491
  696MOL0     H96030   5.105   5.028  10.884  0.3969  1.6280  3.6630
  696MOL0     H96031   5.095   4.980  11.140  0.4043 -0.6143  0.1562
  696MOL0     H96032   5.255   5.649  11.100 -1.4339 -0.4119 -1.3991
  696MOL0     H96033   5.131   5.734  10.930  2.9421  3.5908 -1.6940
  696MOL0     H96034   4.722   5.692  10.689 -0.2312  0.2411 -0.1517
  696MOL0     H96035   4.616   5.757  10.484  0.1267 -2.5530  3.3046
  696MOL0     H96036   4.679   5.823  10.226 -1.5286  0.5640  1.5981
  696MOL0     H96037   4.643   5.968  10.141 -0.9854  2.5175  1.8854
  696MOL0     H96038   4.881   5.822  10.129  2.2011  0.3136  0.5642
  696MOL0     H96039   4.918   5.921  10.269  0.4135 -1.5214 -0.3131
  696MOL0     H96040   5.003   6.018  10.035  1.4085 -1.2213  2.9053
  696MOL0     H96041   4.824   6.051  10.012  1.7818 -2.6562 -2.9946
  696MOL0     H96042   4.832   6.149  10.251  0.5590 -1.3812  0.1092
  696MOL0     H96043   4.905   6.247  10.123  2.3296  0.8490  1.5767
  696MOL0     H96044   5.245   6.151  10.363  0.4390  0.6236 -0.1109
  696MOL0     H96045   4.860   6.125  10.482 -1.2362  0.2312 -0.7551
  696MOL0     H96046   4.944   6.215  10.666 -0.8436 -1.7104 -2.7204
  696MOL0     H96047   4.846   6.189  10.791  0.8400  3.4735 -1.0929
  696MOL0     H96048   5.014   6.107  10.793  0.2502  0.1132 -0.7618
  697MOL0     O96049   6.874   0.936   0.091 -0.1784  0.0278 -0.0682
  697MOL0     C96050   6.808   0.907   0.186  0.0926 -0.4957  0.5528
  697MOL0     O96051   6.715   0.995   0.239 -0.3043 -0.9874  0.3294
  697MOL0     C96052   6.744   1.133   0.244 -1.3561  0.4793  0.7995
  697MOL0     C96053   6.863   1.177   0.299 -0.0685 -0.2977 -0.7374
  697MOL0     C96054   6.898   1.315   0.302 -0.2984 -0.1768 -0.0493
  697MOL0     C96055   6.810   1.411   0.258 -0.1235 -0.1666 -0.1449
  697MOL0     O96056   6.834   1.549   0.255  0.3389  0.6281  0.7763
  697MOL0     C96057   6.940   1.606   0.339  1.0815 -0.6556 -0.8801
  697MOL0     C96058   6.922   1.763   0.331  0.2390  0.9616 -0.3362
  697MOL0     C96059   7.002   1.833   0.442  0.6652  0.9891 -0.1481
  697MOL0     C96060   6.985   1.990   0.432 -1.1650  0.0136  0.4378
  697MOL0     C96061   7.052   2.064   0.310  0.3823 -0.5313 -0.4576
  697MOL0     C96062   7.076   2.214   0.352  0.4856 -0.0279 -0.5072
  697MOL0     C96063   7.091   2.309   0.238  0.3298 -0.1440  1.0005
  697MOL0     C96064   7.239   2.324   0.188  0.4923  0.0075 -0.7995
  697MOL0     N96065   7.244   2.391   0.058 -0.3730 -0.8406  0.0715
  697MOL0     C96066   7.261   2.328  -0.064 -0.3821 -0.5885  0.4646
  697MOL0     C96067   7.314   2.429  -0.131  0.4583  0.4168 -0.7639
  697MOL0     C96068   7.322   2.441  -0.282  0.6068 -0.4205 -0.1379
  697MOL0     C96069   7.451   2.513  -0.337  0.9444 -0.4367 -0.5372
  697MOL0     C96070   7.441   2.621  -0.442  0.1988 -0.3649  0.5620
  697MOL0     C96071   7.412   2.764  -0.375 -0.1264  0.3084 -0.4042
  697MOL0     O96072   7.399   2.874  -0.473 -0.3317  0.1533  0.1985
  697MOL0     C96073   7.417   3.000  -0.444 -0.2268 -0.1736  0.8087
  697MOL0     C96074   7.428   3.089  -0.550 -0.4218 -0.8469 -0.3201
  697MOL0     C96075   7.440   3.232  -0.529 -0.2955 -0.3055  0.1001
  697MOL0     C96076   7.462   3.309  -0.659  0.2771 -0.1293  0.2204
  697MOL0     C96077   7.449   3.277  -0.395  0.0593 -0.3102  0.3581
  697MOL0     C96078   7.497   3.409  -0.346 -0.1989 -0.8776  1.0223
  697MOL0     O96079   7.479   3.434  -0.221  0.4688 -0.5314  0.3536
  697MOL0     C96080   7.379   3.525  -0.176  0.3409 -0.3062  0.1935
  697MOL0     C96081   7.375   3.524  -0.037  0.8756  0.3831 -0.3320
  697MOL0     C96082   7.272   3.590   0.037 -0.3043 -0.1330  0.6339
  697MOL0     C96083   7.195   3.681  -0.043 -0.1189 -0.6204 -0.4505
  697MOL0     O96084   7.109   3.768   0.015 -0.1926  0.5837 -0.2328
  697MOL0     C96085   7.162   3.832   0.132  0.0612 -0.6089  0.3191
  697MOL0     C96086   7.055   3.924   0.202  0.0510  0.3307 -0.3239
  697MOL0     C96087   7.078   4.076   0.172 -0.1178 -0.1879  1.2314
  697MOL0     C96088   6.938   4.134   0.142 -0.1376 -1.5472  0.1787
  697MOL0     C96089   6.952   4.289   0.159 -0.0373  0.2057 -0.5721
  697MOL0     C96090   6.810   4.353   0.150 -0.9983 -0.7388  0.1088
  697MOL0     C96091   6.745   4.378   0.286  0.4275  0.3415  0.1701
  697MOL0     C96092   6.796   4.505   0.358 -0.0577  1.0557 -0.4736
  697MOL0    Cl96093   6.724   4.493   0.524 -0.1947  0.1702  0.0828
  697MOL0     C96094   7.210   3.688  -0.185  0.5311 -0.9186 -0.2647
  697MOL0     C96095   7.301   3.615  -0.254  0.1796  0.0955  0.4426
  697MOL0     O96096   7.535   3.493  -0.430  0.6398 -0.2688  0.1397
  697MOL0     C96097   7.416   3.185  -0.294 -0.0409 -0.2722 -0.2997
  697MOL0     C96098   7.404   3.050  -0.315 -0.1078  0.1503  0.1331
  697MOL0     N96099   7.321   2.546  -0.061  0.0602 -0.6201  0.5525
  697MOL0     N96100   7.279   2.521   0.052 -0.3730  0.1522 -1.1669
  697MOL0     C96101   6.688   1.364   0.217  0.0822 -0.9943  0.7360
  697MOL0     C96102   6.656   1.230   0.206  0.7044  0.1719 -0.2216
  697MOL0     C96103   6.813   0.775   0.238  0.3425  0.3002 -0.3206
  697MOL0     C96104   6.861   0.675   0.153  0.4587 -0.6260  0.6461
  697MOL0     C96105   6.871   0.549   0.202  0.7471  0.3817 -0.4787
  697MOL0     C96106   6.852   0.507   0.328 -0.3486  0.3349 -0.4145
  697MOL0     O96107   6.892   0.374   0.354 -0.2431 -0.1724  0.5004
  697MOL0     C96108   6.903   0.327   0.488  0.4462  0.9172 -0.1249
  697MOL0     C96109   7.018   0.384   0.575 -0.0475 -0.6219 -1.0297
  697MOL0     C96110   7.039   0.314   0.712 -0.5606  1.6981  0.0225
  697MOL0     C96111   6.961   0.368   0.832  0.3972  0.1753  0.3392
  697MOL0     C96112   7.019   0.508   0.855  0.4936  0.6887 -0.3113
  697MOL0     C96113   7.059   0.622   0.866 -0.1186  1.4896  0.4359
  697MOL0     C96114   6.790   0.597   0.407 -0.0513  0.2946  0.2915
  697MOL0     C96115   6.777   0.734   0.368 -0.4636 -0.3912 -0.3422
  697MOL0     C96116   6.721   0.834   0.483  0.4162  0.3887  0.3032
  697MOL0     H96117   6.928   1.097   0.334  0.8944  1.7128  2.4585
  697MOL0     H96118   6.996   1.326   0.347  0.5785 -0.6312 -1.7220
  697MOL0     H96119   7.033   1.574   0.289  0.3417 -1.7364 -1.6032
  697MOL0     H96120   6.933   1.565   0.440 -0.4632 -0.7166 -0.9906
  697MOL0     H96121   6.944   1.794   0.229 -1.8099  0.0651 -1.1010
  697MOL0     H96122   6.817   1.790   0.349  0.9678  2.2655  2.4584
  697MOL0     H96123   6.956   1.794   0.533  3.1437 -2.1164 -0.0673
  697MOL0     H96124   7.108   1.806   0.450  0.6484  1.2167  0.9117
  697MOL0     H96125   6.879   2.016   0.430 -0.7947  1.6575  0.7085
  697MOL0     H96126   7.030   2.033   0.522 -0.0650 -1.9599  0.8958
  697MOL0     H96127   6.983   2.050   0.226 -1.2645 -1.8476  1.0366
  697MOL0     H96128   7.154   2.024   0.301  0.8207  0.3569  0.3734
  697MOL0     H96129   6.980   2.251   0.389 -0.8068 -0.3327 -3.2541
  697MOL0     H96130   7.148   2.225   0.433 -3.1352  0.2982  2.9765
  697MOL0     H96131   7.034   2.397   0.267 -4.7168 -2.3153 -1.2097
  697MOL0     H96132   7.025   2.272   0.160 -3.4329  3.2255  2.2349
  697MOL0     H96133   7.295   2.385   0.259  3.9809 -1.3076 -2.1894
  697MOL0     H96134   7.302   2.234   0.188  2.3346  1.2166  0.1841
  697MOL0     H96135   7.245   2.224  -0.090 -1.0172 -0.4722  0.3836
  697MOL0     H96136   7.233   2.495  -0.314 -0.6383 -2.7940 -0.9250
  697MOL0     H96137   7.324   2.340  -0.324  2.8472 -2.1518  3.6425
  697MOL0     H96138   7.505   2.552  -0.249 -2.7398  0.1689  1.6446
  697MOL0     H96139   7.519   2.442  -0.385 -2.8077 -3.0460 -2.4075
  697MOL0     H96140   7.537   2.627  -0.495 -0.4518 -1.1579 -0.7514
  697MOL0     H96141   7.362   2.609  -0.516  1.9564 -1.1960 -1.3038
  697MOL0     H96142   7.313   2.751  -0.329 -0.9115  2.8271 -1.2404
  697MOL0     H96143   7.488   2.778  -0.298  0.7671  2.1197 -1.5756
  697MOL0     H96144   7.437   3.049  -0.650 -2.3508 -1.1477 -0.4178
  697MOL0     H96145   7.375   3.375  -0.668  0.6805  0.6092  1.4782
  697MOL0     H96146   7.469   3.246  -0.748 -0.5224 -3.4274  2.3418
  697MOL0     H96147   7.554   3.369  -0.650 -0.7398  1.2401  2.1708
  697MOL0     H96148   7.450   3.462   0.011  1.3856  0.6480 -0.7751
  697MOL0     H96149   7.260   3.583   0.145 -2.9368 -1.3287  0.3472
  697MOL0     H96150   7.206   3.767   0.208 -1.6338  0.2794  2.1327
  697MOL0     H96151   7.239   3.902   0.099 -2.0774  1.3386 -0.8390
  697MOL0     H96152   6.958   3.879   0.179 -0.2054  0.5044  0.3969
  697MOL0     H96153   7.072   3.908   0.309  2.1378  1.8235 -0.3689
  697MOL0     H96154   7.151   4.087   0.092  0.2088 -3.6047  0.9128
  697MOL0     H96155   7.117   4.133   0.257  2.9317  0.2767 -0.3475
  697MOL0     H96156   6.872   4.100   0.222 -0.1644  2.2915  1.9817
  697MOL0     H96157   6.904   4.123   0.039  2.0607  0.8426 -0.9291
  697MOL0     H96158   7.004   4.317   0.251 -0.8152  0.7561 -0.2893
  697MOL0     H96159   7.015   4.311   0.072  1.1223 -0.3953  0.0853
  697MOL0     H96160   6.740   4.292   0.092 -1.0914 -2.5324  1.9726
  697MOL0     H96161   6.826   4.445   0.093  0.8773  0.1434  1.9180
  697MOL0     H96162   6.763   4.298   0.358  1.5870  1.3031  1.0060
  697MOL0     H96163   6.638   4.365   0.266  0.8686 -1.8176 -1.0621
  697MOL0     H96164   6.780   4.599   0.304  1.4170  0.3914 -2.1607
  697MOL0     H96165   6.904   4.490   0.371 -0.6038 -2.0342  1.4777
  697MOL0     H96166   7.144   3.748  -0.247  2.1105 -0.4160 -1.5095
  697MOL0     H96167   7.298   3.612  -0.363 -0.0909  1.2028  0.4040
  697MOL0     H96168   7.397   3.224  -0.195 -1.1525  3.7282 -1.8761
  697MOL0     H96169   7.383   2.982  -0.233  3.1315 -0.7182  0.3746
  697MOL0     H96170   6.627   1.443   0.175 -1.7260 -2.7464 -0.0850
  697MOL0     H96171   6.564   1.210   0.151  0.9485 -0.0364 -0.5654
  697MOL0     H96172   6.887   0.683   0.048  1.0815  0.3530  0.8591
  697MOL0     H96173   6.916   0.473   0.138  4.2921  1.1993  0.8168
  697MOL0     H96174   6.809   0.353   0.538  1.9518 -0.0585  3.5129
  697MOL0     H96175   6.899   0.218   0.495  1.8587  0.9569  2.5928
  697MOL0     H96176   7.026   0.493   0.579  0.1222 -0.6563 -0.1767
  697MOL0     H96177   7.111   0.359   0.523  1.5434 -1.5166  1.9526
  697MOL0     H96178   7.030   0.205   0.704  3.4371  1.2526 -0.4651
  697MOL0     H96179   7.142   0.330   0.744 -0.6846  3.0610 -0.2183
  697MOL0     H96180   6.973   0.305   0.921  0.7189  0.4590  0.5014
  697MOL0     H96181   6.855   0.379   0.807 -0.5035 -1.3535  3.0682
  697MOL0     H96182   7.089   0.724   0.876  2.8495  0.6336  1.1186
  697MOL0     H96183   6.756   0.560   0.503 -4.6526  2.6765 -0.1496
  697MOL0     H96184   6.707   0.782   0.578 -1.3559 -3.0523 -1.6213
  697MOL0     H96185   6.797   0.912   0.478  1.7687 -0.9055 -0.2782
  697MOL0     H96186   6.621   0.868   0.456  0.6867  0.8330 -0.1460
  698MOL0     O96187   3.600   7.449   9.388 -0.4010 -0.0362 -0.1497
  698MOL0     C96188   3.598   7.385   9.287 -0.1750 -0.0103  0.3369
  698MOL0     O96189   3.488   7.352   9.212 -0.7272 -0.6518  0.5097
  698MOL0     C96190   3.368   7.358   9.260  0.3269 -0.1169 -0.7702
  698MOL0     C96191   3.262   7.385   9.168  0.1911 -0.2842 -1.3490
  698MOL0     C96192   3.130   7.375   9.202  0.3604 -1.2650 -0.1217
  698MOL0     C96193   3.100   7.365   9.338  0.2502  0.3579 -0.9499
  698MOL0     O96194   2.967   7.378   9.376 -0.0214  0.5029 -0.1241
  698MOL0     C96195   2.949   7.446   9.501  0.3998 -0.1001 -0.6856
  698MOL0     C96196   2.808   7.508   9.523  0.2691 -0.6977  0.0382
  698MOL0     C96197   2.772   7.605   9.409  0.1240 -0.3330  0.1779
  698MOL0     C96198   2.636   7.684   9.428  0.5402  1.5389 -0.2603
  698MOL0     C96199   2.567   7.744   9.303 -0.7597 -0.1777 -0.1485
  698MOL0     C96200   2.422   7.773   9.311  0.2322 -0.7962 -0.2453
  698MOL0     C96201   2.368   7.885   9.219  0.2888  0.0567  0.7648
  698MOL0     C96202   2.451   8.015   9.216 -0.1300  0.5542 -0.3260
  698MOL0     N96203   2.416   8.090   9.333 -0.2805 -1.1019 -0.7859
  698MOL0     C96204   2.504   8.143   9.412 -0.0328 -0.4875  0.1521
  698MOL0     C96205   2.434   8.222   9.489  0.3770  0.3694 -0.4453
  698MOL0     C96206   2.489   8.310   9.583  0.0415 -0.4706  0.6085
  698MOL0     C96207   2.492   8.454   9.527  0.0615  0.0481  0.2959
  698MOL0     C96208   2.552   8.548   9.636  0.5504  0.4088  0.0227
  698MOL0     C96209   2.461   8.568   9.762 -0.5321  0.1724  0.1064
  698MOL0     O96210   2.355   8.660   9.735  0.5093 -0.6485  0.0040
  698MOL0     C96211   2.254   8.675   9.829 -0.5253  0.3890  0.1217
  698MOL0     C96212   2.244   8.640   9.964  0.2101 -0.5560 -0.5712
  698MOL0     C96213   2.130   8.675  10.038  0.4691 -0.1298  0.0153
  698MOL0     C96214   2.134   8.615  10.180  0.0060 -0.5112 -0.2628
  698MOL0     C96215   2.020   8.743   9.984 -0.0626  0.8187  1.2349
  698MOL0     C96216   1.904   8.798  10.053 -0.9023  0.6155  1.1146
  698MOL0     O96217   1.910   8.824  10.184 -0.5607  0.5295 -0.2677
  698MOL0     C96218   1.855   8.932  10.246 -0.7064 -0.3198 -0.2721
  698MOL0     C96219   1.891   8.965  10.376  0.1230  0.5996 -0.1749
  698MOL0     C96220   1.831   9.069  10.450 -0.6352  0.0148 -0.0372
  698MOL0     C96221   1.725   9.135  10.397  0.2811  0.6872 -0.6167
  698MOL0     O96222   1.660   9.225  10.475  0.4110 -0.2696 -0.5138
  698MOL0     C96223   1.676   9.364  10.437  0.6315  0.1232  0.1885
  698MOL0     C96224   1.592   9.449  10.538 -0.5008  0.5039  0.4222
  698MOL0     C96225   1.434   9.459  10.511 -0.7345 -0.0672  0.2967
  698MOL0     C96226   1.352   9.346  10.586 -0.1236 -0.4681 -0.4466
  698MOL0     C96227   1.202   9.366  10.555 -0.6978 -0.5383  0.4418
  698MOL0     C96228   1.121   9.335  10.687  0.4067 -0.3223 -1.3209
  698MOL0     C96229   1.087   9.458  10.777  0.7272 -0.0836 -0.8671
  698MOL0     C96230   1.203   9.496  10.867  0.0317 -0.5234 -0.1297
  698MOL0    Cl96231   1.230   9.369  10.986 -0.1753  0.1533 -0.2801
  698MOL0     C96232   1.698   9.114  10.265  0.3190  0.5929 -0.1279
  698MOL0     C96233   1.753   9.007  10.195 -0.7539  0.9985  0.6538
  698MOL0     O96234   1.799   8.803   9.979 -0.2351 -0.2176  0.1882
  698MOL0     C96235   2.032   8.783   9.845 -0.8318  0.8391  0.1808
  698MOL0     C96236   2.147   8.740   9.774  0.2594  0.3661 -0.1581
  698MOL0     N96237   2.296   8.213   9.458 -0.8394 -0.4078 -0.2677
  698MOL0     N96238   2.292   8.133   9.357  0.2966  0.2109 -0.6144
  698MOL0     C96239   3.197   7.339   9.435 -0.1013  1.3313  0.4588
  698MOL0     C96240   3.332   7.337   9.393 -0.7796  0.5308  0.1785
  698MOL0     C96241   3.729   7.362   9.215  0.0871 -0.4971 -0.0068
  698MOL0     C96242   3.838   7.450   9.231  0.6211  0.8935 -0.1497
  698MOL0     C96243   3.957   7.443   9.157  0.5911 -0.4954  0.9818
  698MOL0     C96244   3.977   7.332   9.074  0.4760  0.0375  1.0350
  698MOL0     O96245   4.098   7.302   9.018 -0.2451  0.9344  0.1000
  698MOL0     C96246   4.217   7.342   9.089  0.4850 -0.2214  0.0537
  698MOL0     C96247   4.330   7.266   9.040  0.2694 -0.1366  1.1380
  698MOL0     C96248   4.438   7.236   9.139  1.1922 -0.5931  0.3516
  698MOL0     C96249   4.502   7.358   9.216 -0.7657 -0.3704 -1.0841
  698MOL0     C96250   4.562   7.304   9.341  0.1630 -0.1724 -0.2302
  698MOL0     C96251   4.626   7.270   9.440  0.6989  0.5334 -1.0397
  698MOL0     C96252   3.872   7.250   9.041  0.2384  0.6264 -0.6244
  698MOL0     C96253   3.748   7.263   9.113 -1.4220  0.4096  0.9346
  698MOL0     C96254   3.633   7.159   9.079 -0.8876  0.2937 -0.4912
  698MOL0     H96255   3.286   7.402   9.064  3.9521  3.2854 -0.1723
  698MOL0     H96256   3.050   7.410   9.138 -0.6408 -0.5336  1.4755
  698MOL0     H96257   3.011   7.536   9.494 -1.5214  1.1654 -2.2198
  698MOL0     H96258   2.973   7.390   9.593  0.5021 -0.7851 -1.1167
  698MOL0     H96259   2.727   7.434   9.528 -0.5066 -0.3507 -4.2601
  698MOL0     H96260   2.798   7.553   9.623 -3.0201 -3.9674  1.4396
  698MOL0     H96261   2.848   7.682   9.392  0.4871 -0.4738  1.0964
  698MOL0     H96262   2.765   7.558   9.310  1.8752  3.4983 -2.0004
  698MOL0     H96263   2.567   7.615   9.478  3.0509 -1.4112 -0.5715
  698MOL0     H96264   2.642   7.767   9.499 -1.1292 -0.6077  2.5938
  698MOL0     H96265   2.584   7.674   9.221 -0.8827  2.2833 -2.4013
  698MOL0     H96266   2.625   7.832   9.274 -0.0841 -0.3893  0.5291
  698MOL0     H96267   2.366   7.684   9.281 -1.4170  0.5957 -1.5262
  698MOL0     H96268   2.395   7.806   9.412 -0.5584  0.0806 -0.7342
  698MOL0     H96269   2.265   7.909   9.247 -0.3999 -1.7118 -0.1054
  698MOL0     H96270   2.361   7.847   9.117 -0.5538 -2.7968  1.7790
  698MOL0     H96271   2.559   7.997   9.212  0.0681  0.1683  3.0727
  698MOL0     H96272   2.442   8.092   9.139  1.5389  0.1273 -0.9989
  698MOL0     H96273   2.609   8.124   9.393 -0.2545 -0.0024 -1.6683
  698MOL0     H96274   2.588   8.292   9.624 -0.4322  0.2570  2.1384
  698MOL0     H96275   2.417   8.311   9.666 -1.2808  0.9726 -0.4944
  698MOL0     H96276   2.551   8.446   9.435 -1.1788  1.5043 -0.6703
  698MOL0     H96277   2.388   8.484   9.514  0.5848  2.2413  0.7235
  698MOL0     H96278   2.636   8.504   9.690 -1.0790 -2.1818  0.6197
  698MOL0     H96279   2.584   8.636   9.579 -0.7847  1.2419  0.5188
  698MOL0     H96280   2.423   8.469   9.788 -0.9047  0.1005 -0.6803
  698MOL0     H96281   2.514   8.604   9.851  1.2472  0.6317 -1.0970
  698MOL0     H96282   2.319   8.577  10.011  0.3793  0.0764  0.0251
  698MOL0     H96283   2.204   8.531  10.187  0.0030 -0.7572 -2.3712
  698MOL0     H96284   2.039   8.583  10.223 -0.5406 -0.3011 -1.2740
  698MOL0     H96285   2.176   8.693  10.243  3.2233 -3.6394  1.8404
  698MOL0     H96286   1.973   8.902  10.410 -0.3442 -0.0768 -0.2825
  698MOL0     H96287   1.871   9.087  10.549 -1.6321 -0.0597  0.3818
  698MOL0     H96288   1.780   9.396  10.447  0.2294  1.1101  1.5766
  698MOL0     H96289   1.628   9.389  10.342 -1.2524 -2.1653  0.4372
  698MOL0     H96290   1.623   9.432  10.642 -3.2611 -2.2670  0.9624
  698MOL0     H96291   1.616   9.551  10.508 -0.5723  0.2754 -0.4462
  698MOL0     H96292   1.402   9.456  10.406 -4.7569  0.8627  1.3280
  698MOL0     H96293   1.388   9.556  10.530  0.0056  0.8483 -2.0819
  698MOL0     H96294   1.375   9.345  10.693  0.1092 -1.8111 -0.4854
  698MOL0     H96295   1.394   9.252  10.547  1.3876  0.3627 -0.9141
  698MOL0     H96296   1.171   9.462  10.513  0.4318 -1.2414 -2.1600
  698MOL0     H96297   1.182   9.288  10.481 -2.2589  0.2574 -0.0256
  698MOL0     H96298   1.160   9.252  10.747 -1.6745  2.2781  4.3640
  698MOL0     H96299   1.023   9.309  10.647  0.0190 -2.0040  0.5818
  698MOL0     H96300   1.001   9.432  10.840  2.5236 -0.4095  1.5541
  698MOL0     H96301   1.052   9.545  10.721 -0.8674  0.3958  0.7876
  698MOL0     H96302   1.192   9.583  10.932  2.6522  2.1425 -2.9637
  698MOL0     H96303   1.297   9.511  10.814  0.3510 -0.2761  0.4913
  698MOL0     H96304   1.616   9.173  10.227 -0.4361 -0.9287 -0.9361
  698MOL0     H96305   1.714   8.990  10.096 -2.4396  2.0698  1.0921
  698MOL0     H96306   1.965   8.858   9.806  1.0614  2.4437 -0.1563
  698MOL0     H96307   2.140   8.765   9.668  2.2184 -0.9965 -0.6528
  698MOL0     H96308   3.165   7.305   9.533  2.1379 -2.1962  0.1396
  698MOL0     H96309   3.406   7.333   9.471 -2.1113  1.3055  1.5315
  698MOL0     H96310   3.824   7.529   9.303 -1.1036  1.0916 -0.6651
  698MOL0     H96311   4.038   7.511   9.178  1.0145 -0.6370 -0.1419
  698MOL0     H96312   4.237   7.449   9.074 -0.9732  0.0539 -0.0866
  698MOL0     H96313   4.208   7.322   9.197 -2.9553  2.1173  0.3750
  698MOL0     H96314   4.361   7.324   8.953  0.3685  0.0527  1.2985
  698MOL0     H96315   4.303   7.169   8.996 -0.7296  0.1450  1.0965
  698MOL0     H96316   4.401   7.164   9.212 -0.5450 -0.0162  0.0850
  698MOL0     H96317   4.514   7.178   9.087  0.5777 -0.0832 -1.1721
  698MOL0     H96318   4.429   7.438   9.233  0.4039  0.5605 -0.2164
  698MOL0     H96319   4.585   7.406   9.163 -0.2161  0.7461  0.6943
  698MOL0     H96320   4.665   7.240   9.536 -3.2358 -0.6004  0.4397
  698MOL0     H96321   3.886   7.159   8.983 -0.8169 -2.3942  3.3832
  698MOL0     H96322   3.579   7.137   9.172  2.4506  0.7050  1.7676
  698MOL0     H96323   3.584   7.206   8.993 -0.5341 -0.5372 -1.1528
  698MOL0     H96324   3.673   7.061   9.055 -1.1845  0.3696 -1.3065
  699MOL0     O96325   0.461   8.993   7.404 -0.3602  0.3563 -0.1919
  699MOL0     C96326   0.494   8.873   7.421  0.0939 -0.1771 -0.2324
  699MOL0     O96327   0.596   8.828   7.486 -0.0415 -0.0216 -0.1703
  699MOL0     C96328   0.706   8.907   7.508  1.0720  0.2713 -0.9438
  699MOL0     C96329   0.702   8.987   7.626  0.7938 -0.6779 -0.3787
  699MOL0     C96330   0.809   9.068   7.662 -0.0427  0.2504  0.4599
  699MOL0     C96331   0.924   9.065   7.575 -0.4488  0.0805 -0.4450
  699MOL0     O96332   1.009   9.163   7.620  0.5694 -0.4569  0.3675
  699MOL0     C96333   1.095   9.219   7.523 -0.4356 -0.2450 -0.3433
  699MOL0     C96334   1.202   9.318   7.584  0.9532  0.3307  0.1035
  699MOL0     C96335   1.141   9.456   7.621  0.1422  0.2675  0.0845
  699MOL0     C96336   1.077   9.523   7.502 -0.1148  0.8049  0.5988
  699MOL0     C96337   1.098   9.669   7.505  0.4388  0.4626 -0.6046
  699MOL0     C96338   1.234   9.721   7.480 -0.7892 -0.0424  0.4429
  699MOL0     C96339   1.294   9.678   7.345  0.0255  0.3914  0.7740
  699MOL0     C96340   1.213   9.702   7.217 -0.5935  0.1249 -0.0841
  699MOL0     N96341   1.278   9.703   7.089 -0.2914 -0.3292  0.3228
  699MOL0     C96342   1.380   9.783   7.042  0.4636  0.0907 -0.8683
  699MOL0     C96343   1.392   9.755   6.913  1.0011 -0.3578  0.2289
  699MOL0     C96344   1.475   9.828   6.808 -0.8401  0.2729 -0.3478
  699MOL0     C96345   1.623   9.842   6.841 -1.4564 -0.4987  0.6565
  699MOL0     C96346   1.696   9.937   6.751 -0.5034 -0.7734  0.1632
  699MOL0     C96347   1.849   9.906   6.743 -0.6011 -0.3864  0.6585
  699MOL0     O96348   1.905   9.937   6.871 -0.7382 -0.5610  1.1339
  699MOL0     C96349   1.994   9.841   6.930 -0.1071 -0.2549  0.2987
  699MOL0     C96350   2.044   9.868   7.050 -0.3744 -0.6082 -0.5068
  699MOL0     C96351   2.136   9.793   7.120 -0.4118 -0.0028  0.0980
  699MOL0     C96352   2.188   9.853   7.255 -0.1292  0.8492  0.6620
  699MOL0     C96353   2.183   9.671   7.060 -0.8897  0.2847  0.1990
  699MOL0     C96354   2.278   9.575   7.111 -0.5808  1.2801 -0.0902
  699MOL0     O96355   2.334   9.484   7.023 -0.3373  0.4194 -0.0495
  699MOL0     C96356   2.438   9.406   7.072 -0.2317 -0.4713  0.7400
  699MOL0     C96357   2.564   9.457   7.051  0.9362  0.4671  0.0557
  699MOL0     C96358   2.675   9.390   7.096 -0.6184 -0.4018  0.0856
  699MOL0     C96359   2.658   9.262   7.164  0.4379 -1.2793  0.5907
  699MOL0     O96360   2.759   9.183   7.213  0.5277  0.5129 -0.8351
  699MOL0     C96361   2.899   9.229   7.209  0.4335 -0.2779 -0.0134
  699MOL0     C96362   2.986   9.186   7.093  0.8291  0.0153 -0.0507
  699MOL0     C96363   3.124   9.249   7.102  0.1865  0.5884  0.2514
  699MOL0     C96364   3.240   9.153   7.069  0.7387  0.1238  0.0402
  699MOL0     C96365   3.374   9.210   7.125  0.7352 -0.5769  0.1814
  699MOL0     C96366   3.491   9.142   7.055  0.4544 -0.1820 -0.6565
  699MOL0     C96367   3.621   9.167   7.132 -0.3499 -1.3417 -0.1229
  699MOL0     C96368   3.679   9.311   7.136  0.2334  1.0971 -0.6963
  699MOL0    Cl96369   3.707   9.388   6.966  0.0348 -0.1213 -0.0971
  699MOL0     C96370   2.529   9.212   7.189 -0.1310 -0.1153  0.0661
  699MOL0     C96371   2.419   9.275   7.132 -0.5019  1.5891 -0.6862
  699MOL0     O96372   2.292   9.569   7.232 -0.3836 -0.1689 -0.0640
  699MOL0     C96373   2.125   9.633   6.944 -0.2472  0.9945  0.3032
  699MOL0     C96374   2.038   9.719   6.883  0.5749  0.5132 -0.7994
  699MOL0     N96375   1.305   9.648   6.881 -0.1733  0.2121 -0.7614
  699MOL0     N96376   1.239   9.623   6.989  0.5413 -0.5738  0.0679
  699MOL0     C96377   0.928   8.978   7.462  0.1799 -0.1554  0.1379
  699MOL0     C96378   0.818   8.903   7.429 -0.2071 -0.8445  0.2207
  699MOL0     C96379   0.413   8.769   7.362  0.8407  1.1754 -0.4939
  699MOL0     C96380   0.475   8.572   7.404 -0.5599 -0.3376  0.2927
  699MOL0     C96381   0.362   8.410   7.342 -0.6242  0.1670 -0.2255
  699MOL0     C96382   0.191   8.439   7.226  0.8543  1.0169 -0.6224
  699MOL0     O96383   0.111   8.335   7.194  0.4141  0.0246  0.1088
  699MOL0     C96384   0.126   8.204   7.256  0.0680 -0.0616 -0.2727
  699MOL0     C96385   0.044   8.218   7.385  0.6919 -0.7010  0.6377
  699MOL0     C96386   0.037   8.093   7.481 -0.4927  0.6259 -0.9397
  699MOL0     C96387  -0.006   7.959   7.423 -0.3301 -0.1265 -0.5007
  699MOL0     C96388  -0.141   7.970   7.364  0.8596  0.4677  0.1279
  699MOL0     C96389  -0.247   7.978   7.299 -0.5065 -0.0822 -0.2453
  699MOL0     C96390   0.121   8.636   7.183 -0.2530  0.2657 -0.1759
  699MOL0     C96391   0.234   8.801   7.252 -1.1058  0.6190  1.6545
  699MOL0     C96392   0.184   8.934   7.207  0.6187 -0.6051 -0.1810
  699MOL0     H96393   0.605   8.982   7.674  0.1201  0.8149 -1.4836
  699MOL0     H96394   0.812   9.132   7.750  0.6755 -1.0970  1.4642
  699MOL0     H96395   1.039   9.286   7.456  2.9147  1.1855 -1.9769
  699MOL0     H96396   1.151   9.137   7.477  1.3984  1.3901 -1.1851
  699MOL0     H96397   1.253   9.274   7.670  1.5034  0.8267  0.0361
  699MOL0     H96398   1.281   9.329   7.509  1.3032 -0.9090  0.2733
  699MOL0     H96399   1.066   9.448   7.700 -1.0056  1.8072 -0.7913
  699MOL0     H96400   1.211   9.526   7.668  0.8879 -0.1869 -0.3274
  699MOL0     H96401   1.112   9.485   7.405 -1.4011  0.6148  0.1905
  699MOL0     H96402   0.970   9.504   7.514 -0.1437  1.7901  2.0335
  699MOL0     H96403   1.062   9.708   7.600  1.3607 -2.0970  0.9170
  699MOL0     H96404   1.035   9.721   7.434  0.9718  3.1736  0.7878
  699MOL0     H96405   1.234   9.830   7.487  0.2351  0.0870 -1.1280
  699MOL0     H96406   1.294   9.689   7.566 -2.7155  2.6154  2.9778
  699MOL0     H96407   1.314   9.571   7.357 -1.6029  0.2296  2.5118
  699MOL0     H96408   1.385   9.737   7.329 -0.3562  0.6960 -0.3606
  699MOL0     H96409   1.130   9.631   7.206  1.2102 -2.5532  2.3274
  699MOL0     H96410   1.165   9.800   7.226  0.7099  0.8036 -0.3873
  699MOL0     H96411   1.431   9.864   7.091  3.4105 -0.7404 -2.3332
  699MOL0     H96412   1.425   9.924   6.791 -0.1534  0.7643  0.3434
  699MOL0     H96413   1.460   9.762   6.722 -0.6828  0.0943 -0.2408
  699MOL0     H96414   1.635   9.881   6.942 -0.6439 -1.4521  0.9414
  699MOL0     H96415   1.671   9.744   6.837 -0.0438  0.0379  2.9281
  699MOL0     H96416   1.654   9.927   6.650 -0.5254  1.4335 -0.1018
  699MOL0     H96417   1.692  10.041   6.786 -0.5720  0.1943 -2.4783
  699MOL0     H96418   1.866   9.805   6.704  1.4563  0.8068 -1.9182
  699MOL0     H96419   1.898   9.963   6.663  2.3625 -2.1261  1.0951
  699MOL0     H96420   2.012   9.959   7.099  0.6477  1.7638 -3.8961
  699MOL0     H96421   2.167   9.781   7.334  1.2486 -1.8199 -1.2655
  699MOL0     H96422   2.149   9.955   7.269 -0.3347  0.4041  4.4553
  699MOL0     H96423   2.297   9.854   7.246 -0.1543 -0.2208  0.1272
  699MOL0     H96424   2.580   9.559   7.017  1.0275 -0.4170 -2.8497
  699MOL0     H96425   2.776   9.428   7.091 -0.2283 -1.5134 -0.9731
  699MOL0     H96426   2.911   9.338   7.212 -0.9548 -0.0928 -0.5866
  699MOL0     H96427   2.947   9.208   7.305 -0.4582 -0.0271  0.4945
  699MOL0     H96428   2.991   9.076   7.094 -0.1103 -0.0829 -1.8859
  699MOL0     H96429   2.934   9.214   7.001 -4.6301  2.2961  3.3194
  699MOL0     H96430   3.159   9.279   7.201  1.2545 -4.2527  1.6039
  699MOL0     H96431   3.119   9.334   7.034 -1.9702  0.5172  0.2712
  699MOL0     H96432   3.244   9.138   6.961  0.9609  1.1463 -0.1047
  699MOL0     H96433   3.230   9.060   7.126 -3.8058  0.6885  0.5129
  699MOL0     H96434   3.381   9.316   7.099 -0.9775 -1.1807 -3.2642
  699MOL0     H96435   3.363   9.184   7.231 -2.0179 -1.3727 -0.2394
  699MOL0     H96436   3.484   9.172   6.950 -1.7831  4.9338  0.6775
  699MOL0     H96437   3.471   9.034   7.056  2.1230 -0.5582 -2.0202
  699MOL0     H96438   3.696   9.098   7.093  1.7862  1.5873 -1.6297
  699MOL0     H96439   3.599   9.146   7.237  0.0697  1.4472  0.6124
  699MOL0     H96440   3.772   9.306   7.193  1.3347 -1.4631 -2.5227
  699MOL0     H96441   3.608   9.380   7.182 -0.1397  0.7690 -0.7730
  699MOL0     H96442   2.527   9.130   7.260  1.1044 -0.3257 -0.1246
  699MOL0     H96443   2.324   9.231   7.160  1.6092 -2.3357  1.1052
  699MOL0     H96444   2.140   9.539   6.892 -4.7186 -0.2426  0.8513
  699MOL0     H96445   1.993   9.676   6.794 -1.3332 -2.2123  1.3183
  699MOL0     H96446   1.012   8.974   7.393  2.9578  0.0922  3.2599
  699MOL0     H96447   0.843   8.836   7.347 -1.8945 -1.4237  0.1323
  699MOL0     H96448   0.565   8.561   7.464 -0.7077  0.3319  0.6412
  699MOL0     H96449   0.386   8.307   7.369 -0.7093  0.1965 -0.0388
  699MOL0     H96450   0.069   8.136   7.192 -2.5570 -1.9563  3.6768
  699MOL0     H96451   0.233   8.182   7.265  0.8243  2.9443 -0.8912
  699MOL0     H96452  -0.060   8.236   7.357  0.7692 -2.1186 -0.6710
  699MOL0     H96453   0.099   8.292   7.444  0.1906 -1.0843  1.6139
  699MOL0     H96454   0.135   8.063   7.518 -2.8546 -2.0335  4.1843
  699MOL0     H96455  -0.023   8.119   7.569  4.7226  3.6855  2.2355
  699MOL0     H96456  -0.014   7.894   7.510 -0.2671  0.3311 -0.1518
  699MOL0     H96457   0.062   7.920   7.347  0.1920  0.8702 -0.5602
  699MOL0     H96458  -0.334   7.993   7.238  0.1399  2.3927 -0.6502
  699MOL0     H96459   0.031   8.654   7.125 -1.3590 -3.6101  0.0818
  699MOL0     H96460   0.076   8.945   7.214  0.7980  1.3292 -0.0348
  699MOL0     H96461   0.219   9.008   7.279 -1.4664  0.5680 -0.3108
  699MOL0     H96462   0.213   8.961   7.105 -3.3178  1.9352 -0.8657
  700MOL0     O96463   8.935   9.116   6.815  0.3359 -0.3735  0.0413
  700MOL0     C96464   8.971   9.226   6.771  0.5019 -0.0478 -0.8325
  700MOL0     O96465   9.037   9.313   6.846 -0.2317 -0.2052 -0.1013
  700MOL0     C96466   9.081   9.292   6.977 -0.1818 -0.1638 -0.2916
  700MOL0     C96467   9.142   9.176   7.018  0.5026 -0.4844  0.4245
  700MOL0     C96468   9.183   9.156   7.155  0.0589 -0.1143  0.4706
  700MOL0     C96469   9.172   9.277   7.241 -0.9665  1.4061 -0.2345
  700MOL0     O96470   9.198   9.291   7.381 -0.5263  0.4200  0.6042
  700MOL0     C96471   9.275   9.179   7.421  0.2545  0.3314  0.2360
  700MOL0     C96472   9.332   9.186   7.566 -0.6427  0.0743 -0.1700
  700MOL0     C96473   9.301   9.064   7.646  0.6450  0.0657  1.0457
  700MOL0     C96474   9.347   9.092   7.790 -0.1743  0.1294  0.4760
  700MOL0     C96475   9.321   8.971   7.864 -0.0316  0.4501  0.2255
  700MOL0     C96476   9.381   8.973   8.009 -0.3071 -0.4131  0.5627
  700MOL0     C96477   9.345   8.856   8.092  0.1719  1.0237 -0.3111
  700MOL0     C96478   9.427   8.843   8.226  0.3311  0.6583 -0.2196
  700MOL0     N96479   9.546   8.761   8.216  0.1734 -0.4802  0.8356
  700MOL0     C96480   9.625   8.746   8.101  0.0157  0.4929 -0.5519
  700MOL0     C96481   9.724   8.665   8.151 -0.4553  0.5802 -0.0354
  700MOL0     C96482   9.825   8.604   8.067  0.6501  0.4214  0.3329
  700MOL0     C96483   9.950   8.699   8.048 -0.3689 -0.3157  0.3478
  700MOL0     C96484  10.020   8.720   8.184 -0.4532  0.4786 -0.5449
  700MOL0     C96485  10.073   8.593   8.236  0.2346 -0.1186  0.2360
  700MOL0     O96486  10.139   8.518   8.141 -0.8672  0.1950 -0.3490
  700MOL0     C96487  10.225   8.425   8.187  0.4318  0.4165  0.2554
  700MOL0     C96488  10.218   8.356   8.319  0.5105  0.3070  0.9071
  700MOL0     C96489  10.314   8.266   8.361  0.3809  0.3684 -0.0305
  700MOL0     C96490  10.315   8.218   8.509  0.4185  0.4396 -0.7725
  700MOL0     C96491  10.400   8.215   8.259 -0.2721  0.7942 -0.0594
  700MOL0     C96492  10.497   8.107   8.282  0.9788  0.6630  0.2997
  700MOL0     O96493  10.631   8.133   8.262  0.4842  0.6944 -0.5439
  700MOL0     C96494  10.718   8.030   8.265  0.6551  0.1801 -0.9162
  700MOL0     C96495  10.703   7.933   8.168 -1.0878 -0.3320  0.1082
  700MOL0     C96496  10.801   7.830   8.155  0.2438  0.1206  0.5637
  700MOL0     C96497  10.911   7.830   8.246 -0.4895  0.1058  0.0735
  700MOL0     O96498  11.005   7.731   8.230  0.0015 -0.7701  0.2423
  700MOL0     C96499  11.094   7.692   8.342 -0.8305  0.1899  0.8385
  700MOL0     C96500  11.141   7.535   8.331  0.0833 -0.8172  0.0654
  700MOL0     C96501  11.265   7.517   8.229  0.8953 -0.8282 -0.7303
  700MOL0     C96502  11.308   7.361   8.212  0.6145 -0.7458 -0.2389
  700MOL0     C96503  11.425   7.324   8.310 -0.2610  0.7244  0.0310
  700MOL0     C96504  11.503   7.213   8.252 -0.2916  0.5234  0.0344
  700MOL0     C96505  11.624   7.186   8.337  0.1036 -0.7177  0.1857
  700MOL0     C96506  11.732   7.126   8.254 -0.0649  0.1162 -0.5131
  700MOL0    Cl96507  11.851   7.044   8.358 -0.1458 -0.4085 -0.4754
  700MOL0     C96508  10.916   7.917   8.345  0.3964 -0.6831 -0.3373
  700MOL0     C96509  10.821   8.021   8.358 -0.7792 -0.3537 -0.1104
  700MOL0     O96510  10.445   8.008   8.339  0.2371  0.1975  0.1377
  700MOL0     C96511  10.402   8.271   8.125  0.5799 -0.1666 -0.5116
  700MOL0     C96512  10.309   8.371   8.093 -0.3489 -0.4310  0.5434
  700MOL0     N96513   9.706   8.639   8.281 -0.0676  0.3797 -0.2346
  700MOL0     N96514   9.602   8.693   8.320  0.6616 -1.4318  0.6037
  700MOL0     C96515   9.112   9.393   7.189 -0.6212 -0.0813 -0.3614
  700MOL0     C96516   9.076   9.409   7.060  0.3279  0.4382  0.7921
  700MOL0     C96517   8.912   9.278   6.640 -0.5684  0.1308 -0.0059
  700MOL0     C96518   9.015   9.306   6.547 -0.0799  0.4560  0.6432
  700MOL0     C96519   8.982   9.349   6.422 -1.6046  0.0896  0.7295
  700MOL0     C96520   8.853   9.378   6.388 -0.7327  0.1649 -1.0596
  700MOL0     O96521   8.843   9.448   6.274  0.5824  0.2010  0.0795
  700MOL0     C96522   8.808   9.579   6.286  0.1818  0.3123 -0.6015
  700MOL0     C96523   8.804   9.628   6.138  0.4042 -0.5916  0.8270
  700MOL0     C96524   8.683   9.562   6.057  0.3860  0.2109 -0.4834
  700MOL0     C96525   8.714   9.554   5.910 -0.5478  0.6887 -0.3089
  700MOL0     C96526   8.586   9.542   5.845  1.2789  0.1556 -0.1701
  700MOL0     C96527   8.473   9.520   5.800 -0.3223 -0.2337 -0.6271
  700MOL0     C96528   8.746   9.343   6.476 -0.6700 -0.3336  0.6991
  700MOL0     C96529   8.777   9.292   6.598 -0.3430 -0.0874 -0.1622
  700MOL0     C96530   8.673   9.260   6.695  0.3310  0.4471 -0.1665
  700MOL0     H96531   9.142   9.094   6.947 -1.4041 -0.0099 -0.1879
  700MOL0     H96532   9.218   9.056   7.177  1.1733  0.1842  0.1179
  700MOL0     H96533   9.355   9.167   7.347 -1.3048  1.4249 -1.7341
  700MOL0     H96534   9.212   9.090   7.413 -1.1634  1.4560 -4.5383
  700MOL0     H96535   9.441   9.196   7.557 -0.3158 -1.8014  1.1798
  700MOL0     H96536   9.288   9.274   7.615 -1.4305 -0.2604 -0.2721
  700MOL0     H96537   9.193   9.048   7.654  0.7409 -0.1722  1.8747
  700MOL0     H96538   9.346   8.976   7.600 -1.1718 -0.9536  1.1096
  700MOL0     H96539   9.454   9.117   7.796 -0.5570  2.1701 -0.6375
  700MOL0     H96540   9.290   9.172   7.837 -2.0683 -0.6003 -0.4882
  700MOL0     H96541   9.363   8.883   7.814  0.2419  0.1778  0.9317
  700MOL0     H96542   9.217   8.940   7.858  0.7108 -2.0146 -3.2552
  700MOL0     H96543   9.488   8.980   7.991 -0.5857  1.7327 -0.5510
  700MOL0     H96544   9.363   9.067   8.061 -0.7409 -0.8136  1.1643
  700MOL0     H96545   9.346   8.767   8.028 -0.7706 -1.1069  2.4183
  700MOL0     H96546   9.242   8.868   8.126 -0.2797  1.8977 -1.8811
  700MOL0     H96547   9.450   8.944   8.261 -0.2767  1.9234 -3.1975
  700MOL0     H96548   9.365   8.794   8.302 -0.5912  2.7092  0.4102
  700MOL0     H96549   9.611   8.771   7.996 -2.1505 -1.6174 -0.8605
  700MOL0     H96550   9.778   8.598   7.968 -1.5223  2.3450  1.1331
  700MOL0     H96551   9.864   8.504   8.089 -1.2396 -0.4138  0.0677
  700MOL0     H96552  10.007   8.662   7.962 -1.3550  0.7841 -0.8041
  700MOL0     H96553   9.911   8.795   8.014 -0.7645 -0.9705 -1.1612
  700MOL0     H96554  10.108   8.784   8.169 -0.6077  0.8038 -0.0897
  700MOL0     H96555   9.943   8.764   8.248 -2.9260 -2.0120 -1.6051
  700MOL0     H96556  10.152   8.614   8.309 -0.0327 -3.6681  1.7203
  700MOL0     H96557   9.995   8.532   8.282 -0.2426 -0.0904 -0.5322
  700MOL0     H96558  10.148   8.388   8.395  0.4848 -2.2563  2.0612
  700MOL0     H96559  10.255   8.126   8.516  0.5739  0.3182 -1.0041
  700MOL0     H96560  10.283   8.298   8.577 -2.5101  0.6234 -2.1981
  700MOL0     H96561  10.409   8.178   8.548 -2.1133 -3.0413  2.4879
  700MOL0     H96562  10.619   7.943   8.101 -0.2762 -0.5639 -0.9719
  700MOL0     H96563  10.789   7.755   8.078 -1.9278  3.6542 -2.9520
  700MOL0     H96564  11.173   7.766   8.359 -1.5666  0.5938  2.8014
  700MOL0     H96565  11.034   7.693   8.434 -1.0618  1.7728  0.7055
  700MOL0     H96566  11.180   7.499   8.426 -0.5525 -1.4181  0.1083
  700MOL0     H96567  11.061   7.467   8.298 -0.3783  0.1843 -0.9413
  700MOL0     H96568  11.348   7.583   8.256  2.3147 -2.1155 -1.7763
  700MOL0     H96569  11.223   7.558   8.137 -1.0592 -2.4950 -0.6378
  700MOL0     H96570  11.333   7.342   8.107 -2.7573 -0.3248 -1.2426
  700MOL0     H96571  11.220   7.298   8.227  1.3164 -2.3419 -2.4231
  700MOL0     H96572  11.493   7.408   8.325  0.0708  0.2666  1.1890
  700MOL0     H96573  11.383   7.300   8.408 -3.0541 -0.1805 -1.2865
  700MOL0     H96574  11.530   7.227   8.147  0.4464 -1.1427 -0.0147
  700MOL0     H96575  11.449   7.118   8.259 -1.7260  0.9676 -3.2805
  700MOL0     H96576  11.597   7.118   8.418  0.3765 -0.7377  0.2606
  700MOL0     H96577  11.654   7.286   8.370 -2.6758  0.6462 -1.0652
  700MOL0     H96578  11.782   7.214   8.212  0.8603  0.8190  1.8910
  700MOL0     H96579  11.689   7.056   8.182  2.6588  0.9382 -3.1523
  700MOL0     H96580  11.000   7.921   8.414  1.1237  1.5925 -1.2529
  700MOL0     H96581  10.840   8.092   8.438  0.8950 -2.0843  1.1113
  700MOL0     H96582  10.458   8.245   8.035  0.3221 -4.0200  0.2498
  700MOL0     H96583  10.322   8.415   7.994 -0.1530  0.0939  0.7996
  700MOL0     H96584   9.100   9.477   7.257  1.5386  1.0715 -1.3072
  700MOL0     H96585   9.031   9.500   7.022 -1.0909 -0.6075 -0.1594
  700MOL0     H96586   9.115   9.304   6.591  0.1075 -0.8428  0.1932
  700MOL0     H96587   9.061   9.392   6.361  1.1368 -0.4844  3.5981
  700MOL0     H96588   8.707   9.594   6.325 -0.4883 -3.4453 -0.4628
  700MOL0     H96589   8.887   9.633   6.339  0.4850  1.0143 -1.7273
  700MOL0     H96590   8.894   9.592   6.086  0.6143 -4.3607  3.4189
  700MOL0     H96591   8.785   9.735   6.135  0.9496 -0.4840  1.0472
  700MOL0     H96592   8.652   9.463   6.092  1.0513 -0.0167 -0.5133
  700MOL0     H96593   8.595   9.625   6.071  0.5127  0.4783 -0.8643
  700MOL0     H96594   8.774   9.464   5.894  0.3113  1.0175  0.8765
  700MOL0     H96595   8.772   9.641   5.876  2.9549 -0.7528  1.4246
  700MOL0     H96596   8.391   9.481   5.744 -1.0862 -2.0080  1.5913
  700MOL0     H96597   8.647   9.369   6.442 -1.1315 -1.7374  0.8998
  700MOL0     H96598   8.655   9.153   6.709 -3.2572  0.8948 -0.5227
  700MOL0     H96599   8.709   9.304   6.789 -0.1328  0.9198 -0.2071
  700MOL0     H96600   8.577   9.301   6.663  0.8288  1.3006 -0.6106
  701MOL0     O96601   1.428   1.374   9.846  0.0963  0.2508 -0.5255
  701MOL0     C96602   1.384   1.484   9.849 -0.6751  0.9737 -0.5070
  701MOL0     O96603   1.257   1.522   9.878  0.1996  0.1319  0.8058
  701MOL0     C96604   1.165   1.426   9.910  0.5017 -0.3719 -1.1517
  701MOL0     C96605   1.151   1.310   9.840 -0.3106  0.6036  0.1715
  701MOL0     C96606   1.053   1.221   9.890 -0.0403  0.2047 -0.6368
  701MOL0     C96607   0.960   1.254   9.988 -0.2745  0.5705 -0.0496
  701MOL0     O96608   0.860   1.175  10.034  0.0926  0.5021 -0.2200
  701MOL0     C96609   0.843   1.041   9.981 -0.5565 -0.4293 -0.4501
  701MOL0     C96610   0.719   0.975  10.026  0.8648 -0.5017 -0.0250
  701MOL0     C96611   0.684   0.846   9.963 -0.1100  0.1894 -0.0083
  701MOL0     C96612   0.678   0.867   9.809 -0.5167  0.1056  1.2356
  701MOL0     C96613   0.619   0.750   9.735  0.0527  0.4085 -0.5493
  701MOL0     C96614   0.581   0.790   9.596 -0.5463  0.0621  0.6965
  701MOL0     C96615   0.476   0.694   9.543  0.4276 -0.5492  0.6105
  701MOL0     C96616   0.450   0.725   9.394  0.3580  0.9152  0.0573
  701MOL0     N96617   0.561   0.669   9.316  0.6432  1.5320  0.5217
  701MOL0     C96618   0.670   0.725   9.275 -0.6366 -0.7091  0.7373
  701MOL0     C96619   0.729   0.631   9.198  0.2415 -0.3229 -0.0240
  701MOL0     C96620   0.857   0.640   9.126  0.4549  0.0526  0.5242
  701MOL0     C96621   0.957   0.558   9.204  0.4165  0.0856 -0.5334
  701MOL0     C96622   0.979   0.422   9.127  0.7088 -0.2387 -0.1254
  701MOL0     C96623   1.082   0.341   9.207  0.5538 -0.3044  1.1014
  701MOL0     O96624   1.050   0.319   9.347 -0.1117  0.0956  0.4239
  701MOL0     C96625   1.154   0.248   9.410  0.0979 -0.4206  0.2070
  701MOL0     C96626   1.249   0.331   9.482 -0.7444 -0.4577  1.1225
  701MOL0     C96627   1.372   0.269   9.528  1.2277  1.0752 -0.5117
  701MOL0     C96628   1.475   0.359   9.597 -1.0417 -0.2593 -0.1430
  701MOL0     C96629   1.383   0.127   9.511 -0.1238  0.1059  0.0951
  701MOL0     C96630   1.491   0.046   9.573  0.1782  0.0089 -0.4173
  701MOL0     O96631   1.495  -0.089   9.549 -0.2954  0.8084 -0.0724
  701MOL0     C96632   1.611  -0.158   9.585 -1.0354  0.9131  0.1701
  701MOL0     C96633   1.710  -0.191   9.492  0.0107  0.2211 -0.7973
  701MOL0     C96634   1.821  -0.265   9.533  0.1608  0.4347  0.2707
  701MOL0     C96635   1.819  -0.316   9.664  0.1199 -0.3001  0.8560
  701MOL0     O96636   1.907  -0.414   9.704 -0.0658 -0.4262  1.0504
  701MOL0     C96637   2.005  -0.363   9.803 -0.2281  0.3690 -0.2642
  701MOL0     C96638   2.022  -0.450   9.924  0.2155 -0.7855 -0.1143
  701MOL0     C96639   2.037  -0.591   9.886 -0.9847  1.4416 -0.4796
  701MOL0     C96640   2.079  -0.681  10.004  0.7437 -0.6747  0.2660
  701MOL0     C96641   2.081  -0.831   9.960 -0.0776 -1.0401  0.1649
  701MOL0     C96642   1.939  -0.889   9.967 -0.0728  0.2002 -0.1348
  701MOL0     C96643   1.932  -1.037   9.930  0.0120 -0.2159 -0.4739
  701MOL0     C96644   1.800  -1.053   9.864 -0.4662 -0.9143  0.1525
  701MOL0    Cl96645   1.673  -1.020   9.994 -0.2404 -0.2709 -0.2257
  701MOL0     C96646   1.729  -0.265   9.756 -0.3132  0.5138 -0.4364
  701MOL0     C96647   1.630  -0.187   9.716  0.6834 -0.2345  0.0063
  701MOL0     O96648   1.568   0.101   9.647 -0.5260  0.0463 -0.1657
  701MOL0     C96649   1.287   0.047   9.442  0.1321 -0.4379  0.3374
  701MOL0     C96650   1.174   0.111   9.387  0.4829  0.8638  0.3901
  701MOL0     N96651   0.650   0.518   9.197 -0.5006 -0.0289  0.3448
  701MOL0     N96652   0.545   0.538   9.270  0.1942 -0.0777 -0.1569
  701MOL0     C96653   0.973   1.377  10.051  0.6024  0.0939 -0.2231
  701MOL0     C96654   1.076   1.462  10.011  0.0271  0.5773 -0.5970
  701MOL0     C96655   1.493   1.581   9.842  0.0362  0.3809 -0.3890
  701MOL0     C96656   1.624   1.545   9.895 -0.1072 -0.2119  0.0881
  701MOL0     C96657   1.736   1.643   9.886 -0.0506  0.0220 -0.1647
  701MOL0     C96658   1.717   1.762   9.822  0.0277 -0.4569 -0.1642
  701MOL0     O96659   1.827   1.849   9.806  0.0698 -0.9000 -0.0157
  701MOL0     C96660   1.952   1.848   9.868 -0.6851 -1.2667  1.0347
  701MOL0     C96661   2.015   1.993   9.871 -0.2660  0.6990 -1.0173
  701MOL0     C96662   1.918   2.099   9.925  0.5391 -0.9253 -0.4264
  701MOL0     C96663   1.994   2.247   9.936  0.3422  0.6673 -0.0546
  701MOL0     C96664   2.119   2.246  10.010 -0.0030  0.4649  0.2299
  701MOL0     C96665   2.214   2.241  10.080 -0.1869 -0.3082 -0.6082
  701MOL0     C96666   1.594   1.801   9.778  0.6112  0.0325  0.6086
  701MOL0     C96667   1.480   1.713   9.785 -0.4244 -0.1568 -0.3239
  701MOL0     C96668   1.352   1.758   9.717 -0.2513  0.1144  0.2614
  701MOL0     H96669   1.222   1.277   9.764 -2.0691 -2.2385 -0.3826
  701MOL0     H96670   1.047   1.131   9.829  0.7029  2.6478 -4.6267
  701MOL0     H96671   0.916   0.963  10.002 -0.1595 -0.1579 -0.8168
  701MOL0     H96672   0.845   1.049   9.872 -0.7514 -0.7142 -0.4754
  701MOL0     H96673   0.723   0.960  10.135  2.0481 -2.0474 -0.2375
  701MOL0     H96674   0.642   1.048  10.003  2.1747  0.4176 -1.7593
  701MOL0     H96675   0.770   0.783   9.988  2.1536  3.8771  2.3890
  701MOL0     H96676   0.592   0.803  10.002 -0.1643  0.2544 -0.0640
  701MOL0     H96677   0.620   0.957   9.787 -0.0219 -0.4239 -3.0783
  701MOL0     H96678   0.771   0.879   9.753  0.0559 -2.0302  1.6514
  701MOL0     H96679   0.530   0.726   9.794  0.7346  1.3951  0.9490
  701MOL0     H96680   0.679   0.659   9.743  1.7883  1.4085 -1.5093
  701MOL0     H96681   0.545   0.894   9.595 -0.2830  0.1521 -0.0760
  701MOL0     H96682   0.672   0.789   9.536 -0.1168 -1.2482  1.3274
  701MOL0     H96683   0.375   0.694   9.586  0.7748 -0.6282  1.4400
  701MOL0     H96684   0.518   0.594   9.557  2.0216 -0.1562 -0.9111
  701MOL0     H96685   0.352   0.679   9.376  0.3841 -0.9733  3.8051
  701MOL0     H96686   0.446   0.832   9.368 -0.4347  1.5864  2.6394
  701MOL0     H96687   0.699   0.826   9.302 -1.4567  0.0757 -1.1322
  701MOL0     H96688   0.889   0.744   9.127 -0.2673  0.2842  2.1470
  701MOL0     H96689   0.846   0.621   9.018 -1.3689  2.8187  0.1147
  701MOL0     H96690   1.053   0.608   9.223  0.7367 -0.9250  0.6455
  701MOL0     H96691   0.927   0.531   9.306 -2.2674 -2.5284 -1.8740
  701MOL0     H96692   0.883   0.371   9.113 -1.9714  4.4408 -0.8264
  701MOL0     H96693   1.008   0.447   9.025 -1.9465  0.1496 -0.8609
  701MOL0     H96694   1.102   0.249   9.151 -1.7934 -0.7651  0.8959
  701MOL0     H96695   1.177   0.394   9.196 -0.2486  0.8710 -0.5226
  701MOL0     H96696   1.251   0.439   9.487 -1.7021 -0.4645  2.1822
  701MOL0     H96697   1.576   0.346   9.558 -1.0732  0.9984 -0.6833
  701MOL0     H96698   1.468   0.334   9.703  0.1042 -1.4655 -0.3371
  701MOL0     H96699   1.461   0.467   9.588  4.3445  0.7495  0.3530
  701MOL0     H96700   1.689  -0.163   9.389 -0.5715 -0.3811 -0.8523
  701MOL0     H96701   1.912  -0.284   9.477  0.9987 -0.6029  1.8950
  701MOL0     H96702   2.102  -0.327   9.768  1.3101  0.4028  3.5156
  701MOL0     H96703   1.964  -0.270   9.844  1.1890  0.9821 -0.1916
  701MOL0     H96704   2.103  -0.414   9.988 -1.1649 -1.2442  1.9667
  701MOL0     H96705   1.934  -0.434   9.986 -0.0097  1.1314 -0.8716
  701MOL0     H96706   2.110  -0.604   9.806 -3.8884 -0.7051 -2.9877
  701MOL0     H96707   1.935  -0.615   9.853 -1.7290  1.8590  1.3693
  701MOL0     H96708   2.007  -0.670  10.086 -0.2623  1.3899 -0.8132
  701MOL0     H96709   2.180  -0.653  10.036  0.2532  0.2243  1.0812
  701MOL0     H96710   2.117  -0.840   9.857 -1.7393  1.3790 -0.7147
  701MOL0     H96711   2.150  -0.885  10.025  0.8494  1.2960  1.2371
  701MOL0     H96712   1.889  -0.826   9.892  0.9453 -1.8038 -2.6299
  701MOL0     H96713   1.886  -0.874  10.061 -2.5070  0.1228 -1.4134
  701MOL0     H96714   1.925  -1.108  10.013 -1.8723 -0.7284 -1.0071
  701MOL0     H96715   2.006  -1.066   9.856 -1.8276 -0.1010 -2.4542
  701MOL0     H96716   1.793  -1.156   9.826  2.5829 -0.1007 -3.2330
  701MOL0     H96717   1.802  -0.979   9.783 -1.2198  2.4791  3.0000
  701MOL0     H96718   1.736  -0.292   9.861  0.0390  1.6382 -0.1617
  701MOL0     H96719   1.553  -0.152   9.784  1.8238  2.5673  0.0125
  701MOL0     H96720   1.288  -0.060   9.424 -3.1211 -0.4605 -0.3085
  701MOL0     H96721   1.116   0.048   9.320  0.6918 -2.0093  2.6902
  701MOL0     H96722   0.903   1.417  10.124 -0.6264  1.2131 -1.9416
  701MOL0     H96723   1.091   1.559  10.057  1.1662  0.8305 -1.4617
  701MOL0     H96724   1.632   1.450   9.947 -3.8184  0.0042  1.3662
  701MOL0     H96725   1.835   1.610   9.916  0.2873  0.5991 -0.6302
  701MOL0     H96726   1.937   1.836   9.976 -2.6308 -2.1724  0.7068
  701MOL0     H96727   2.016   1.779   9.813 -0.1331 -0.3697  0.5287
  701MOL0     H96728   2.044   2.013   9.768 -0.6609  2.1550 -0.8618
  701MOL0     H96729   2.097   1.989   9.942 -1.5790 -1.7922  0.5037
  701MOL0     H96730   1.830   2.112   9.861  0.1687 -2.6038 -0.3111
  701MOL0     H96731   1.879   2.068  10.022  2.0630  1.1905  0.9524
  701MOL0     H96732   1.931   2.316   9.993 -0.8969 -0.4120 -0.0567
  701MOL0     H96733   2.011   2.267   9.830  0.5596 -1.6765 -0.5175
  701MOL0     H96734   2.297   2.225  10.146 -0.9501 -1.2246  0.1771
  701MOL0     H96735   1.581   1.893   9.722  0.5148  1.8079  3.3108
  701MOL0     H96736   1.296   1.810   9.795 -0.3935 -0.1589  0.3386
  701MOL0     H96737   1.376   1.829   9.637 -0.9273 -0.2455 -0.2664
  701MOL0     H96738   1.294   1.680   9.668 -2.8917  3.2818 -2.1220
  702MOL0     O96739   2.779   7.584   8.310  0.5985 -0.1241  0.1630
  702MOL0     C96740   2.886   7.525   8.294  0.3131 -0.3979  0.2915
  702MOL0     O96741   3.005   7.546   8.365 -0.3483 -0.3075 -0.1282
  702MOL0     C96742   3.040   7.649   8.445 -0.4723 -0.3904  0.4889
  702MOL0     C96743   3.166   7.654   8.502 -0.3411  0.8596 -0.5048
  702MOL0     C96744   3.205   7.765   8.579  0.7443 -0.4560  0.0932
  702MOL0     C96745   3.128   7.876   8.599  0.1770  0.2720 -0.0700
  702MOL0     O96746   3.161   7.991   8.664 -0.5611  0.1813  0.1261
  702MOL0     C96747   3.289   7.989   8.720 -0.7215  0.3998  0.4918
  702MOL0     C96748   3.312   8.124   8.792  0.3009 -0.6913  0.8382
  702MOL0     C96749   3.426   8.107   8.894  0.4804  0.3805  0.4679
  702MOL0     C96750   3.555   8.074   8.813  0.2341  0.4799 -0.6994
  702MOL0     C96751   3.676   8.132   8.889  0.4888  0.0980 -0.0236
  702MOL0     C96752   3.809   8.104   8.819 -0.0451 -0.1776 -0.3035
  702MOL0     C96753   3.821   8.141   8.672 -0.3603  1.2426  0.3805
  702MOL0     C96754   3.837   8.285   8.635  0.8560 -0.4165 -0.6948
  702MOL0     N96755   3.838   8.295   8.492  1.7569  0.3780 -0.2501
  702MOL0     C96756   3.732   8.281   8.415  0.0549  0.6146 -0.1264
  702MOL0     C96757   3.754   8.324   8.295  0.1295 -0.1993  0.0057
  702MOL0     C96758   3.681   8.330   8.163 -0.0508 -0.0775  0.8773
  702MOL0     C96759   3.728   8.226   8.068 -0.3781  0.5645  0.6001
  702MOL0     C96760   3.631   8.223   7.953 -0.4833  0.4265  0.5783
  702MOL0     C96761   3.678   8.119   7.848  0.2652  0.5302  0.0318
  702MOL0     O96762   3.814   8.148   7.803  0.2233  0.1283  0.3677
  702MOL0     C96763   3.873   8.068   7.715 -0.3725 -0.3716  0.5357
  702MOL0     C96764   3.813   7.964   7.642 -0.4787 -0.5390  0.6248
  702MOL0     C96765   3.898   7.880   7.556  0.4686 -0.1830  0.2961
  702MOL0     C96766   3.827   7.771   7.481  0.7584  0.1326 -0.1188
  702MOL0     C96767   4.034   7.905   7.544  0.0579 -1.3004 -0.4512
  702MOL0     C96768   4.133   7.809   7.490 -0.7866  0.7105 -0.3193
  702MOL0     O96769   4.233   7.805   7.576  0.5380  0.1788 -0.1480
  702MOL0     C96770   4.301   7.693   7.609  1.0040  0.4957 -0.5084
  702MOL0     C96771   4.267   7.568   7.565  0.3890 -0.1290 -0.5053
  702MOL0     C96772   4.347   7.455   7.606  0.1516 -1.0972 -0.5542
  702MOL0     C96773   4.455   7.482   7.691  0.1822  0.2708 -0.1989
  702MOL0     O96774   4.536   7.387   7.743  0.1950  0.0712  0.6990
  702MOL0     C96775   4.547   7.258   7.680  0.2162 -0.6391 -0.0340
  702MOL0     C96776   4.676   7.185   7.727  0.6521  0.8487 -1.3283
  702MOL0     C96777   4.754   7.115   7.620  0.8696 -0.5723  1.7356
  702MOL0     C96778   4.901   7.088   7.653  1.0267 -0.1053 -0.2092
  702MOL0     C96779   4.952   6.971   7.573 -0.1321 -0.2442 -0.9526
  702MOL0     C96780   5.102   6.958   7.584 -0.2725 -0.3070 -0.4240
  702MOL0     C96781   5.153   6.840   7.492  0.5875 -0.0161  0.1406
  702MOL0     C96782   5.271   6.759   7.553 -0.7757  0.6848  0.1111
  702MOL0    Cl96783   5.210   6.623   7.647  0.3137 -0.0215  0.8486
  702MOL0     C96784   4.491   7.610   7.728 -0.1124 -0.4653  0.5592
  702MOL0     C96785   4.409   7.716   7.688  0.0484 -0.0299 -0.8134
  702MOL0     O96786   4.121   7.741   7.391  0.4759 -0.6402 -0.7231
  702MOL0     C96787   4.084   8.019   7.617 -0.4984  1.0082  0.2349
  702MOL0     C96788   4.012   8.093   7.695 -0.6718 -0.5203 -0.6375
  702MOL0     N96789   3.891   8.363   8.305 -0.6285  0.4877 -0.5129
  702MOL0     N96790   3.935   8.345   8.419 -0.0021  0.3099 -0.2183
  702MOL0     C96791   3.005   7.875   8.537  0.0081  0.5292 -0.2441
  702MOL0     C96792   2.957   7.762   8.468 -1.0587  0.3857 -0.1821
  702MOL0     C96793   2.891   7.431   8.179  0.3679 -0.9140 -0.0797
  702MOL0     C96794   3.012   7.357   8.169 -0.2748  0.6237  0.5406
  702MOL0     C96795   3.044   7.277   8.062 -0.2784 -0.2837 -0.6248
  702MOL0     C96796   2.948   7.249   7.968 -0.1369  0.7812  0.0278
  702MOL0     O96797   2.969   7.157   7.871  0.1759 -1.1696 -0.5400
  702MOL0     C96798   3.095   7.099   7.837 -1.0221  0.2198  1.2571
  702MOL0     C96799   3.078   7.047   7.688  0.3897 -0.3587  0.3375
  702MOL0     C96800   3.082   7.170   7.588  0.0420 -0.7231  0.1220
  702MOL0     C96801   2.956   7.174   7.502 -0.0755 -1.0765  0.1276
  702MOL0     C96802   2.830   7.211   7.572 -0.3827  0.3966  0.2902
  702MOL0     C96803   2.736   7.257   7.637  0.1908  0.4449 -0.5189
  702MOL0     C96804   2.827   7.323   7.974 -0.8303  0.7565  0.0698
  702MOL0     C96805   2.791   7.411   8.073 -0.3636 -0.4158  0.4064
  702MOL0     C96806   2.656   7.481   8.066 -0.7257 -0.7929  0.2962
  702MOL0     H96807   3.218   7.560   8.487 -0.2005  0.7145  0.7454
  702MOL0     H96808   3.306   7.749   8.617  1.3862 -4.3387 -2.5715
  702MOL0     H96809   3.367   7.992   8.644  0.2466 -3.0999  1.1750
  702MOL0     H96810   3.305   7.901   8.783 -3.9641 -0.2465  0.5847
  702MOL0     H96811   3.321   8.202   8.715  1.1471 -1.3240  0.2800
  702MOL0     H96812   3.220   8.145   8.847  0.0973  1.9846 -0.3692
  702MOL0     H96813   3.438   8.195   8.958  0.2140  0.5592  0.2741
  702MOL0     H96814   3.397   8.032   8.968 -2.4119  1.0894  0.1638
  702MOL0     H96815   3.566   7.967   8.797  0.1065  0.5085 -0.9798
  702MOL0     H96816   3.555   8.129   8.718 -0.7288  5.0448  1.6547
  702MOL0     H96817   3.693   8.104   8.993  2.6817 -0.6373 -0.5257
  702MOL0     H96818   3.655   8.239   8.885 -1.1940 -0.2218 -3.5008
  702MOL0     H96819   3.894   8.143   8.875  1.0933  0.8055 -2.5907
  702MOL0     H96820   3.840   7.999   8.817  1.9499  0.3681  0.0783
  702MOL0     H96821   3.742   8.099   8.609 -1.4979  0.2198  2.3897
  702MOL0     H96822   3.907   8.081   8.641 -1.8596 -0.4831 -0.6670
  702MOL0     H96823   3.754   8.337   8.685  1.1660 -0.6234  0.0574
  702MOL0     H96824   3.927   8.326   8.684 -1.0884 -0.1515  3.0469
  702MOL0     H96825   3.633   8.248   8.447  0.5273 -0.8504 -0.1333
  702MOL0     H96826   3.686   8.425   8.110  2.0730 -0.9462 -0.6313
  702MOL0     H96827   3.574   8.313   8.180  0.0432 -1.2003  0.4527
  702MOL0     H96828   3.833   8.236   8.039 -0.2920  1.4633  1.1872
  702MOL0     H96829   3.713   8.130   8.119 -0.6890  0.5344  0.4547
  702MOL0     H96830   3.538   8.186   7.998  1.5096 -3.5253  1.9640
  702MOL0     H96831   3.608   8.324   7.918  1.2852  0.7196  0.1636
  702MOL0     H96832   3.677   8.017   7.889 -2.4382  0.6321  0.3978
  702MOL0     H96833   3.601   8.132   7.771  1.8270 -0.1504 -1.6984
  702MOL0     H96834   3.706   7.942   7.638 -0.5069 -0.3601  0.3613
  702MOL0     H96835   3.862   7.674   7.516 -0.3297  1.5449  6.0035
  702MOL0     H96836   3.850   7.795   7.376  0.3656 -0.8922 -0.4473
  702MOL0     H96837   3.719   7.770   7.498  0.8200  4.4785  1.8227
  702MOL0     H96838   4.182   7.544   7.502  1.4446 -0.6363 -1.7876
  702MOL0     H96839   4.316   7.353   7.587  1.6439 -1.9336  1.2260
  702MOL0     H96840   4.463   7.192   7.701 -0.6528 -0.6583 -3.1943
  702MOL0     H96841   4.555   7.272   7.572 -1.8464  0.6044 -0.0749
  702MOL0     H96842   4.738   7.259   7.780 -0.9142 -0.6461  3.0702
  702MOL0     H96843   4.661   7.109   7.804  2.2189  0.2827 -1.5405
  702MOL0     H96844   4.759   7.162   7.521  0.4833 -2.7008  0.6418
  702MOL0     H96845   4.696   7.026   7.593 -0.4294 -0.0391  2.6754
  702MOL0     H96846   4.917   7.064   7.759  1.4361 -1.9885 -0.6576
  702MOL0     H96847   4.963   7.176   7.636  1.9751 -0.8849 -0.8735
  702MOL0     H96848   4.906   6.877   7.607  0.0738  0.1510  0.4908
  702MOL0     H96849   4.918   6.978   7.469 -1.4817 -1.2476 -0.6189
  702MOL0     H96850   5.123   6.942   7.691 -0.1873  0.0909 -0.3782
  702MOL0     H96851   5.150   7.053   7.558 -0.9866  1.1945  3.1338
  702MOL0     H96852   5.190   6.877   7.396  0.1050  0.7299  0.2306
  702MOL0     H96853   5.067   6.776   7.474 -0.3419  0.6394  1.9497
  702MOL0     H96854   5.350   6.811   7.607  2.5556 -0.2704 -3.3781
  702MOL0     H96855   5.329   6.727   7.465  0.4621 -2.2074  1.8436
  702MOL0     H96856   4.586   7.608   7.781  1.6567 -2.3463 -2.4139
  702MOL0     H96857   4.428   7.818   7.718 -2.0885  0.7156 -1.8033
  702MOL0     H96858   4.188   8.046   7.603 -0.2032  0.1036  0.6030
  702MOL0     H96859   4.050   8.184   7.742 -0.6237 -0.3953 -0.9211
  702MOL0     H96860   2.937   7.959   8.536 -0.8119 -0.0305  1.8840
  702MOL0     H96861   2.856   7.776   8.431 -1.3640  2.6017  1.3031
  702MOL0     H96862   3.100   7.377   8.230  1.0086  0.9837 -1.3680
  702MOL0     H96863   3.135   7.218   8.073 -0.8202 -0.9302  0.7380
  702MOL0     H96864   3.186   7.160   7.846  1.6294 -3.4394  1.5346
  702MOL0     H96865   3.114   7.014   7.904  1.3609  0.7610  1.3694
  702MOL0     H96866   2.983   6.994   7.697  0.9420 -0.9546  4.0324
  702MOL0     H96867   3.156   6.976   7.662 -2.8721 -3.3661 -2.3004
  702MOL0     H96868   3.095   7.263   7.644  0.5608 -2.2350  2.6825
  702MOL0     H96869   3.165   7.160   7.517  3.8660  0.2164  4.0310
  702MOL0     H96870   2.939   7.076   7.455  2.3914 -1.3809 -0.2669
  702MOL0     H96871   2.964   7.247   7.421  0.6048  1.1192  2.0780
  702MOL0     H96872   2.646   7.277   7.692  1.4771 -2.0249  2.8271
  702MOL0     H96873   2.760   7.298   7.893  1.0799  1.3745 -1.7695
  702MOL0     H96874   2.585   7.444   8.141 -0.9475 -3.8973 -1.3071
  702MOL0     H96875   2.659   7.590   8.068 -1.0698 -0.6693 -2.1621
  702MOL0     H96876   2.607   7.459   7.970  1.0476 -2.0479 -0.3654
  703MOL0     O96877   4.955   4.776   9.908  0.0720  0.6872 -0.4649
  703MOL0     C96878   4.974   4.655   9.906 -0.3242 -0.1236 -0.0850
  703MOL0     O96879   4.977   4.578   9.791 -0.3356 -0.1728  0.3152
  703MOL0     C96880   5.003   4.637   9.669  0.1892 -0.2630  0.9828
  703MOL0     C96881   4.933   4.749   9.620 -0.8810  0.8716  0.2784
  703MOL0     C96882   4.944   4.787   9.485 -0.2098  0.8471  0.2006
  703MOL0     C96883   5.032   4.722   9.404  0.0005 -0.2713  0.7218
  703MOL0     O96884   5.037   4.760   9.271  0.3581 -0.4764 -0.0654
  703MOL0     C96885   5.160   4.818   9.228 -1.5365 -0.1093 -0.3834
  703MOL0     C96886   5.187   4.960   9.295  0.1399  0.9314 -0.7342
  703MOL0     C96887   5.312   5.029   9.240 -0.4181 -0.5543 -0.1588
  703MOL0     C96888   5.343   5.170   9.310  0.1590  0.5887 -0.1297
  703MOL0     C96889   5.492   5.197   9.314 -0.2556 -0.3406  0.6549
  703MOL0     C96890   5.545   5.314   9.407  0.8984 -0.2756  0.4049
  703MOL0     C96891   5.550   5.459   9.334  0.0559  0.0185 -0.9567
  703MOL0     C96892   5.658   5.462   9.217  0.2211 -0.7590 -0.5538
  703MOL0     N96893   5.794   5.444   9.254  0.0324 -0.1199  0.2850
  703MOL0     C96894   5.868   5.327   9.239 -0.0578 -0.5927  0.0125
  703MOL0     C96895   5.992   5.365   9.289  0.5434 -0.2446 -0.6316
  703MOL0     C96896   6.116   5.280   9.313 -1.0014 -0.4655  0.3935
  703MOL0     C96897   6.181   5.255   9.177  0.5848 -0.1843 -0.4459
  703MOL0     C96898   6.310   5.175   9.190 -0.3149 -0.5711 -0.3515
  703MOL0     C96899   6.349   5.100   9.057  0.7090  0.1404 -0.4025
  703MOL0     O96900   6.332   5.172   8.947  0.4045 -0.6099  0.3727
  703MOL0     C96901   6.331   5.122   8.826  0.8006  1.2235 -0.1321
  703MOL0     C96902   6.357   4.982   8.800  0.7538  0.7822 -0.8114
  703MOL0     C96903   6.346   4.918   8.674  0.5213 -0.1541  0.2524
  703MOL0     C96904   6.387   4.773   8.654  0.1177  0.4958  0.0789
  703MOL0     C96905   6.303   4.988   8.567  0.3843  0.9418  0.6668
  703MOL0     C96906   6.297   4.936   8.427  0.8847 -0.1688  0.4172
  703MOL0     O96907   6.279   5.034   8.331 -1.1651 -0.1785 -0.2953
  703MOL0     C96908   6.263   5.005   8.199  0.3804 -0.1021  0.0621
  703MOL0     C96909   6.160   4.925   8.147  0.0870  0.1981 -0.6149
  703MOL0     C96910   6.144   4.938   8.007 -0.2926  0.4186 -0.6206
  703MOL0     C96911   6.231   5.006   7.926 -0.0128 -0.9310  0.8473
  703MOL0     O96912   6.247   5.011   7.788  0.1038  0.0020 -0.9413
  703MOL0     C96913   6.117   5.013   7.719 -0.6288 -0.3832 -0.1793
  703MOL0     C96914   6.029   5.134   7.765 -1.1991  0.1219 -0.0751
  703MOL0     C96915   5.889   5.136   7.698 -0.0517 -1.4516  0.3753
  703MOL0     C96916   5.822   5.284   7.719  0.1413  0.0108  0.4842
  703MOL0     C96917   5.681   5.292   7.668  0.5830 -0.2418 -0.0719
  703MOL0     C96918   5.620   5.435   7.659  0.6640  0.6154  0.0169
  703MOL0     C96919   5.492   5.426   7.563 -0.7510 -0.5001 -0.3852
  703MOL0     C96920   5.348   5.415   7.633 -0.6667 -0.7149 -0.8674
  703MOL0    Cl96921   5.209   5.418   7.515  0.5256 -0.5849 -0.0990
  703MOL0     C96922   6.330   5.082   7.988  0.3877 -0.8247  0.1726
  703MOL0     C96923   6.346   5.080   8.121  0.0013 -0.4710 -0.2203
  703MOL0     O96924   6.295   4.820   8.400 -0.6217 -0.0415  0.7194
  703MOL0     C96925   6.268   5.128   8.593 -0.2991  0.1550  0.0585
  703MOL0     C96926   6.298   5.195   8.714 -0.4809  0.9051 -0.2134
  703MOL0     N96927   5.985   5.498   9.316 -0.1056  0.0503 -0.8739
  703MOL0     N96928   5.868   5.540   9.297 -0.8199  0.8770  0.1506
  703MOL0     C96929   5.115   4.619   9.451  1.5706  0.1340  0.1885
  703MOL0     C96930   5.093   4.578   9.582  0.5604  0.2239 -1.0884
  703MOL0     C96931   4.982   4.593  10.041  0.1796 -0.7877  0.0898
  703MOL0     C96932   4.951   4.455  10.051 -1.1089  0.5445 -1.2003
  703MOL0     C96933   4.968   4.384  10.169 -0.2270  0.7436  0.2772
  703MOL0     C96934   5.024   4.440  10.278  0.9674 -0.4582 -0.1002
  703MOL0     O96935   5.069   4.374  10.391  0.0100 -0.4504 -0.0773
  703MOL0     C96936   5.017   4.246  10.420  0.4066  0.3060  0.4176
  703MOL0     C96937   5.108   4.123  10.384  1.1406  0.1049  0.4838
  703MOL0     C96938   5.213   4.099  10.493  0.0069 -0.1781  0.4324
  703MOL0     C96939   5.199   3.967  10.568  0.1707 -0.8157  0.2208
  703MOL0     C96940   5.260   3.860  10.483 -0.6077  0.6016  0.4320
  703MOL0     C96941   5.327   3.800  10.397  1.5176  0.1145 -0.5204
  703MOL0     C96942   5.046   4.575  10.275  0.0713 -0.2049 -0.3517
  703MOL0     C96943   5.027   4.655  10.160 -0.3145  0.0345  0.6329
  703MOL0     C96944   5.072   4.796  10.162 -0.3975  0.1612 -0.0949
  703MOL0     H96945   4.864   4.806   9.681 -2.4792 -0.0217 -0.6176
  703MOL0     H96946   4.903   4.884   9.457 -2.8543 -0.6380 -1.4967
  703MOL0     H96947   5.165   4.832   9.120  1.8536 -0.2093 -0.3487
  703MOL0     H96948   5.239   4.744   9.250  2.1422  3.3140 -0.9063
  703MOL0     H96949   5.095   5.018   9.288  0.0111  0.7244 -0.7711
  703MOL0     H96950   5.195   4.948   9.403 -0.4600  0.7806 -0.7021
  703MOL0     H96951   5.401   4.965   9.230 -0.6581 -0.7924 -0.7959
  703MOL0     H96952   5.300   5.061   9.136  0.7852 -3.5060 -1.3048
  703MOL0     H96953   5.292   5.252   9.259  2.5171  1.9706 -0.4178
  703MOL0     H96954   5.317   5.162   9.416  0.6416 -0.6802 -0.0893
  703MOL0     H96955   5.510   5.223   9.209 -1.9737  3.0216  1.0607
  703MOL0     H96956   5.542   5.108   9.353  1.4066 -0.5742 -1.8098
  703MOL0     H96957   5.475   5.312   9.491  2.2480  1.2342  1.6320
  703MOL0     H96958   5.649   5.290   9.432  1.2278 -2.5353 -2.5335
  703MOL0     H96959   5.574   5.534   9.409 -2.0575 -0.8002  0.6286
  703MOL0     H96960   5.455   5.488   9.286 -1.0591 -2.3162 -0.3446
  703MOL0     H96961   5.616   5.406   9.133 -2.6986 -2.7107  1.9737
  703MOL0     H96962   5.660   5.565   9.181 -1.8649 -1.1346 -1.9259
  703MOL0     H96963   5.828   5.232   9.206 -2.4417 -0.2410  1.6017
  703MOL0     H96964   6.088   5.189   9.366  1.1251 -2.7452 -2.0456
  703MOL0     H96965   6.185   5.337   9.377 -2.0543 -2.1746  3.1809
  703MOL0     H96966   6.106   5.192   9.128  1.1798 -1.8832  0.7236
  703MOL0     H96967   6.209   5.343   9.119  0.4080  1.5464  1.9830
  703MOL0     H96968   6.392   5.238   9.224 -1.2829  1.2803 -1.2775
  703MOL0     H96969   6.291   5.096   9.264 -1.4072  0.8407  0.9354
  703MOL0     H96970   6.454   5.070   9.065  0.0033 -3.3201 -2.0424
  703MOL0     H96971   6.290   5.009   9.045  3.2578 -1.6113 -0.4785
  703MOL0     H96972   6.378   4.909   8.878  1.0619  1.9114  0.1910
  703MOL0     H96973   6.313   4.707   8.609  2.4581 -1.4013 -1.1996
  703MOL0     H96974   6.420   4.719   8.743  0.3707 -0.1885 -0.4189
  703MOL0     H96975   6.465   4.776   8.577  0.6729 -0.6956  0.5673
  703MOL0     H96976   6.095   4.863   8.209  0.7569  2.0631  2.0913
  703MOL0     H96977   6.068   4.876   7.961 -0.5646 -1.1130  1.7210
  703MOL0     H96978   6.135   5.034   7.613 -0.4057  5.2530  0.6846
  703MOL0     H96979   6.064   4.917   7.720  0.9668 -1.3495 -1.5832
  703MOL0     H96980   6.017   5.135   7.874 -1.3566 -0.6668 -0.0758
  703MOL0     H96981   6.081   5.222   7.726 -0.5329 -1.0659 -2.0085
  703MOL0     H96982   5.836   5.055   7.749 -0.9004 -1.4341 -0.4368
  703MOL0     H96983   5.892   5.115   7.591  0.3369  0.8604 -0.1181
  703MOL0     H96984   5.880   5.362   7.668  0.5957 -0.3702  0.4020
  703MOL0     H96985   5.826   5.307   7.825  1.5082 -1.8771  0.8988
  703MOL0     H96986   5.683   5.257   7.565  0.0297 -0.8655  0.1218
  703MOL0     H96987   5.610   5.223   7.715 -1.2608  1.3389 -0.4317
  703MOL0     H96988   5.691   5.517   7.645 -1.7202  3.1891  1.8711
  703MOL0     H96989   5.592   5.455   7.762  3.3008 -0.7704  1.0961
  703MOL0     H96990   5.501   5.338   7.499 -1.6764 -2.5154  2.0764
  703MOL0     H96991   5.500   5.512   7.497 -2.0732 -0.6508 -0.7763
  703MOL0     H96992   5.323   5.490   7.708  1.7243  0.2187 -0.8957
  703MOL0     H96993   5.339   5.318   7.683 -2.8315 -0.0635  0.1161
  703MOL0     H96994   6.391   5.145   7.925 -1.4567 -0.4678 -1.3419
  703MOL0     H96995   6.423   5.140   8.168 -0.3409 -0.7126  0.6671
  703MOL0     H96996   6.250   5.188   8.504 -0.3473  0.2284  0.1169
  703MOL0     H96997   6.283   5.300   8.734 -0.3349  1.0171 -0.6932
  703MOL0     H96998   5.181   4.571   9.379  0.3464 -0.3263 -0.6589
  703MOL0     H96999   5.156   4.499   9.624 -0.6252 -0.4661 -0.5296
  703MOL0     H97000   4.911   4.411   9.961  2.0245 -0.1281 -2.4095
  703MOL0     H97001   4.946   4.278  10.172  2.3916  0.0096 -1.9671
  703MOL0     H97002   4.995   4.232  10.526  1.0725  1.2794  0.7016
  703MOL0     H97003   4.919   4.230  10.376  0.8444 -2.4923  0.2501
  703MOL0     H97004   5.151   4.137  10.284 -0.6667  0.4612 -0.2866
  703MOL0     H97005   5.044   4.034  10.375  1.7762 -0.2608 -0.6302
  703MOL0     H97006   5.317   4.106  10.459  0.2395 -0.1281  1.1366
  703MOL0     H97007   5.193   4.178  10.566 -1.7636  1.7664 -1.9977
  703MOL0     H97008   5.092   3.948  10.578 -1.0053  2.5638 -3.3036
  703MOL0     H97009   5.242   3.973  10.668  0.4745 -1.5304  0.1346
  703MOL0     H97010   5.380   3.750  10.319  2.3475 -4.1169  2.4097
  703MOL0     H97011   5.087   4.614  10.368  0.0090  0.0727 -0.4407
  703MOL0     H97012   5.161   4.811  10.101  2.0124  1.3331  3.3847
  703MOL0     H97013   4.989   4.864  10.138  0.1313  0.8616  0.0395
  703MOL0     H97014   5.102   4.832  10.261 -1.2659  1.1202 -0.1647
  704MOL0     O97015   8.509   2.879   4.599 -0.3180  0.0478 -0.0367
  704MOL0     C97016   8.433   2.834   4.522  0.3929  0.3479 -0.0485
  704MOL0     O97017   8.437   2.859   4.389  0.3684 -0.3059 -0.2358
  704MOL0     C97018   8.533   2.954   4.357  0.8693 -1.2218  0.1853
  704MOL0     C97019   8.667   2.919   4.317  0.1272  0.4417 -0.1096
  704MOL0     C97020   8.768   3.014   4.298 -0.2305  0.0640 -0.2694
  704MOL0     C97021   8.747   3.145   4.308  0.3574 -0.0673  0.2141
  704MOL0     O97022   8.857   3.217   4.288 -0.5556  0.3380 -0.9133
  704MOL0     C97023   8.831   3.357   4.283 -1.1943 -0.1883 -0.1217
  704MOL0     C97024   8.965   3.432   4.264 -0.6650  0.2968 -0.1093
  704MOL0     C97025   8.941   3.584   4.251  0.6426 -0.3673 -0.0887
  704MOL0     C97026   9.055   3.656   4.339  0.3621  0.3483 -0.7216
  704MOL0     C97027   9.063   3.803   4.337 -0.8187  0.3699 -0.0258
  704MOL0     C97028   9.091   3.860   4.195  0.3995 -0.1276 -0.8647
  704MOL0     C97029   9.092   4.016   4.192 -0.7227 -0.2855 -0.6804
  704MOL0     C97030   9.227   4.063   4.253  0.4165 -0.5471 -0.1397
  704MOL0     N97031   9.221   4.197   4.302  0.2109  0.1024  1.0309
  704MOL0     C97032   9.200   4.315   4.234  0.1876  0.8725  0.2449
  704MOL0     C97033   9.231   4.411   4.318 -0.9436 -0.9178  0.0948
  704MOL0     C97034   9.239   4.561   4.290  0.1843 -0.1171 -0.5689
  704MOL0     C97035   9.131   4.640   4.370  1.4713 -0.7633  0.2052
  704MOL0     C97036   8.987   4.591   4.356 -0.0988  0.2598 -0.1432
  704MOL0     C97037   8.944   4.601   4.204  0.4675 -0.5439 -0.1714
  704MOL0     O97038   8.809   4.572   4.175  0.2219  0.7843  1.1279
  704MOL0     C97039   8.750   4.464   4.235 -0.6463 -0.7579 -0.1577
  704MOL0     C97040   8.660   4.493   4.334  0.1165  0.2065 -0.5773
  704MOL0     C97041   8.598   4.387   4.403 -0.0810  0.6174 -1.1569
  704MOL0     C97042   8.491   4.434   4.505  0.2627  0.5059 -0.5966
  704MOL0     C97043   8.655   4.250   4.388  0.7346  0.0656  0.1784
  704MOL0     C97044   8.623   4.132   4.475  0.5869  0.2739 -0.1011
  704MOL0     O97045   8.644   4.012   4.417 -0.2616 -0.0097  0.0259
  704MOL0     C97046   8.596   3.894   4.462  0.6427  0.6653 -0.5843
  704MOL0     C97047   8.663   3.782   4.415  0.1127 -0.0992 -0.0128
  704MOL0     C97048   8.603   3.660   4.441  0.3342  0.4419 -0.7616
  704MOL0     C97049   8.475   3.647   4.503  0.0376  0.5751  0.2700
  704MOL0     O97050   8.410   3.529   4.511  0.2894  0.3430 -0.4587
  704MOL0     C97051   8.443   3.451   4.626  0.6546 -0.5273 -0.2289
  704MOL0     C97052   8.313   3.378   4.663  0.2685 -1.0745  0.6595
  704MOL0     C97053   8.338   3.259   4.748  0.2114  0.1257 -0.5111
  704MOL0     C97054   8.197   3.197   4.786 -0.2909  0.1345  1.6251
  704MOL0     C97055   8.215   3.103   4.894 -0.3689  0.5109 -0.2533
  704MOL0     C97056   8.082   3.031   4.931 -0.4649 -1.0862 -0.7104
  704MOL0     C97057   8.110   2.906   5.010  0.0709  0.3221 -1.1718
  704MOL0     C97058   7.978   2.820   5.024 -0.5266 -0.7802 -0.3103
  704MOL0    Cl97059   8.011   2.674   5.109  0.2453  0.0453  0.0694
  704MOL0     C97060   8.409   3.760   4.537  0.2061  0.7855  0.4240
  704MOL0     C97061   8.467   3.882   4.517  0.3465 -0.5298 -0.1682
  704MOL0     O97062   8.564   4.156   4.583  0.5424  0.4089  0.0914
  704MOL0     C97063   8.757   4.230   4.297  0.1396  0.0271  0.4965
  704MOL0     C97064   8.793   4.333   4.210  1.0752  0.3865 -0.4034
  704MOL0     N97065   9.267   4.350   4.439  1.0282  0.6407 -0.8336
  704MOL0     N97066   9.259   4.227   4.431  0.7498 -0.3132  0.4404
  704MOL0     C97067   8.613   3.187   4.333  0.3973 -0.4928  0.1882
  704MOL0     C97068   8.504   3.102   4.357  0.5903  0.6181  0.4010
  704MOL0     C97069   8.331   2.738   4.573 -0.0503  0.7370 -0.5129
  704MOL0     C97070   8.355   2.709   4.712  1.1245 -0.5611  0.3860
  704MOL0     C97071   8.264   2.648   4.792  0.0837 -0.5253 -0.7437
  704MOL0     C97072   8.142   2.597   4.737 -0.2637  0.0695  0.3916
  704MOL0     O97073   8.049   2.530   4.815  0.1253 -0.7511 -0.1060
  704MOL0     C97074   8.023   2.392   4.791  0.0854  0.7838  0.2802
  704MOL0     C97075   8.144   2.309   4.823  0.4841  0.1880  0.5276
  704MOL0     C97076   8.155   2.308   4.971  0.1685 -0.5160 -0.0867
  704MOL0     C97077   8.075   2.192   5.031  0.0250  0.4131  1.1431
  704MOL0     C97078   8.047   2.210   5.174 -0.4677 -0.2143  0.5857
  704MOL0     C97079   8.009   2.229   5.289 -0.5764 -0.5971  0.6131
  704MOL0     C97080   8.122   2.607   4.599  0.4584 -0.2529 -0.0169
  704MOL0     C97081   8.210   2.682   4.519  0.2471 -0.1405 -0.0769
  704MOL0     C97082   8.184   2.707   4.371 -0.2218  0.1025 -0.5501
  704MOL0     H97083   8.681   2.812   4.301  0.2904  0.4243  0.1502
  704MOL0     H97084   8.868   2.981   4.271 -0.6905 -2.0382  0.4451
  704MOL0     H97085   8.792   3.391   4.379 -3.2189  0.6658 -1.2007
  704MOL0     H97086   8.762   3.394   4.207 -1.1889  3.7169  1.5486
  704MOL0     H97087   9.013   3.403   4.358 -0.1740  2.2626  0.2911
  704MOL0     H97088   9.023   3.397   4.178 -2.2719 -3.0584  0.0184
  704MOL0     H97089   8.955   3.621   4.149 -0.4920 -0.7593 -0.4051
  704MOL0     H97090   8.843   3.620   4.283 -0.5487 -1.2580 -2.4816
  704MOL0     H97091   9.055   3.631   4.446  1.3855 -0.3510 -0.8716
  704MOL0     H97092   9.144   3.605   4.301  0.1488  0.8156 -1.8959
  704MOL0     H97093   9.132   3.834   4.416 -2.2719 -0.2306  1.5378
  704MOL0     H97094   8.963   3.837   4.365  0.1856  2.1048  1.6496
  704MOL0     H97095   9.190   3.823   4.164  0.1271 -0.4790 -1.3323
  704MOL0     H97096   9.016   3.822   4.125  1.1079 -1.3759 -0.9741
  704MOL0     H97097   9.008   4.047   4.255  0.4340 -0.5124  1.0255
  704MOL0     H97098   9.071   4.038   4.086  2.2818  0.9817 -1.1017
  704MOL0     H97099   9.251   3.999   4.338  2.1881 -0.5427 -0.6031
  704MOL0     H97100   9.294   4.058   4.167  1.2196  2.1777  0.2163
  704MOL0     H97101   9.154   4.332   4.137  1.1429  3.9068  0.2408
  704MOL0     H97102   9.242   4.587   4.184  0.0731 -0.8234 -0.7519
  704MOL0     H97103   9.332   4.606   4.327  0.6781 -0.5565 -1.2451
  704MOL0     H97104   9.151   4.647   4.477 -1.1356  2.3960  0.6342
  704MOL0     H97105   9.138   4.745   4.341 -1.0002 -0.6316 -0.0889
  704MOL0     H97106   8.989   4.490   4.397  0.8835  1.3763  2.8101
  704MOL0     H97107   8.920   4.655   4.413 -1.2889  1.2311 -2.4877
  704MOL0     H97108   8.956   4.704   4.168  0.3030 -0.4530  0.0352
  704MOL0     H97109   9.013   4.541   4.144  2.9434  0.5907  1.3705
  704MOL0     H97110   8.630   4.598   4.331 -2.4210 -0.4129  0.2973
  704MOL0     H97111   8.471   4.540   4.488  2.0382  0.4540 -3.8697
  704MOL0     H97112   8.517   4.420   4.611 -2.1603  2.4299  0.3443
  704MOL0     H97113   8.401   4.385   4.468  0.4797  1.0692 -1.9318
  704MOL0     H97114   8.762   3.803   4.377 -0.1464  2.9901  0.7521
  704MOL0     H97115   8.656   3.566   4.430  1.1326  0.5802  1.5171
  704MOL0     H97116   8.514   3.373   4.598  2.8089 -0.2736  3.8382
  704MOL0     H97117   8.475   3.509   4.713 -0.5661 -2.5747  1.6809
  704MOL0     H97118   8.246   3.452   4.707 -1.3961 -1.0041 -1.7975
  704MOL0     H97119   8.273   3.334   4.571  1.2525 -0.0987 -0.2700
  704MOL0     H97120   8.379   3.299   4.841 -1.2600  0.9515 -0.1854
  704MOL0     H97121   8.406   3.187   4.701  0.0126 -0.7399  0.4682
  704MOL0     H97122   8.151   3.141   4.704 -0.5313 -0.0873  1.9143
  704MOL0     H97123   8.126   3.273   4.817 -1.7340 -0.9873  1.1579
  704MOL0     H97124   8.292   3.034   4.860  0.5894  2.6295 -2.6540
  704MOL0     H97125   8.234   3.174   4.975  0.7224  1.7816 -1.5832
  704MOL0     H97126   8.038   2.998   4.837  0.7856  2.2897 -2.6795
  704MOL0     H97127   8.013   3.095   4.987 -0.6058 -3.1201  1.6528
  704MOL0     H97128   8.141   2.942   5.108  2.3512 -1.5132 -1.1458
  704MOL0     H97129   8.190   2.853   4.958  0.0462  1.4522 -2.4496
  704MOL0     H97130   7.948   2.795   4.922  1.7842  0.8332 -1.4684
  704MOL0     H97131   7.892   2.878   5.059 -0.7322  0.9306 -3.3697
  704MOL0     H97132   8.322   3.753   4.602  1.2981  2.7590  2.2572
  704MOL0     H97133   8.404   3.970   4.517 -0.9523 -1.3534  2.6179
  704MOL0     H97134   8.807   4.134   4.294  2.2673  1.0952 -1.0975
  704MOL0     H97135   8.862   4.298   4.133 -1.5458 -0.9340 -2.3104
  704MOL0     H97136   8.590   3.293   4.334 -0.2408 -0.6279  0.6360
  704MOL0     H97137   8.404   3.142   4.368  0.6013  1.1561 -1.1616
  704MOL0     H97138   8.448   2.745   4.756  0.7643  1.2581 -0.2256
  704MOL0     H97139   8.277   2.632   4.899 -4.1959  0.1543  0.0745
  704MOL0     H97140   7.949   2.359   4.865  1.0717 -0.4638  0.7410
  704MOL0     H97141   7.987   2.373   4.689 -2.1923 -2.7248  1.5170
  704MOL0     H97142   8.230   2.358   4.775 -1.6292  0.9890 -2.7939
  704MOL0     H97143   8.137   2.209   4.778 -0.6975 -0.1983  1.5289
  704MOL0     H97144   8.262   2.309   4.997 -0.1020  1.0373  1.1147
  704MOL0     H97145   8.104   2.392   5.020  1.5582 -0.6043  1.6487
  704MOL0     H97146   8.134   2.104   5.006  3.0615  2.5935  0.0323
  704MOL0     H97147   7.976   2.179   4.985  0.7716  1.7189 -0.9736
  704MOL0     H97148   7.969   2.251   5.386  2.2053  0.6342  1.5792
  704MOL0     H97149   8.030   2.568   4.557 -1.9446  4.3549  0.2724
  704MOL0     H97150   8.261   2.651   4.317  0.4193 -0.8435  1.2551
  704MOL0     H97151   8.083   2.673   4.346 -0.8991 -0.4936  2.5423
  704MOL0     H97152   8.194   2.814   4.350 -0.2960  0.9227  2.9302
  705MOL0     O97153   2.268   1.741   9.458 -0.6604 -0.6557 -0.0397
  705MOL0     C97154   2.359   1.784   9.537  1.1104  0.3229  0.4362
  705MOL0     O97155   2.466   1.857   9.489  0.1660 -0.1220 -0.8137
  705MOL0     C97156   2.472   1.884   9.356  0.6785 -0.1443 -0.4810
  705MOL0     C97157   2.569   1.821   9.274 -0.4388  0.1844 -0.5391
  705MOL0     C97158   2.597   1.861   9.143 -0.7802  0.3540  0.2782
  705MOL0     C97159   2.510   1.962   9.081 -0.2366  0.5264 -0.5400
  705MOL0     O97160   2.518   1.988   8.946  0.0641 -0.0334 -0.5920
  705MOL0     C97161   2.561   1.881   8.866 -0.6572 -0.0748 -0.4407
  705MOL0     C97162   2.463   1.874   8.754 -0.2713  0.1648  1.0514
  705MOL0     C97163   2.515   1.790   8.635  0.0830  0.3610 -0.5257
  705MOL0     C97164   2.423   1.799   8.519  0.0513  0.5006  0.1912
  705MOL0     C97165   2.475   1.711   8.403  0.4925  0.2943  1.6361
  705MOL0     C97166   2.408   1.742   8.269 -0.0018  0.3240 -0.1734
  705MOL0     C97167   2.252   1.714   8.280 -0.6800  0.8138  0.0472
  705MOL0     C97168   2.210   1.575   8.331  0.2102  0.1084 -0.3477
  705MOL0     N97169   2.291   1.466   8.279 -0.8124  0.0323 -0.4072
  705MOL0     C97170   2.325   1.449   8.143  0.3100 -0.6783 -0.8016
  705MOL0     C97171   2.398   1.341   8.133  0.9046  1.2735 -0.6321
  705MOL0     C97172   2.453   1.279   8.011 -0.1044  1.4058 -0.6948
  705MOL0     C97173   2.371   1.150   7.984  0.8763  0.1702 -0.0837
  705MOL0     C97174   2.436   1.017   8.021 -0.9339 -0.7149  0.4125
  705MOL0     C97175   2.515   0.952   7.910 -0.7492 -0.8610 -0.2444
  705MOL0     O97176   2.618   0.867   7.968  0.8216  0.3036  0.2590
  705MOL0     C97177   2.740   0.918   8.005  0.9233  1.0368  0.2010
  705MOL0     C97178   2.816   0.825   8.076 -0.9372  0.8780  0.6086
  705MOL0     C97179   2.943   0.844   8.121 -0.1648  0.2569  0.0554
  705MOL0     C97180   3.005   0.732   8.194  0.4239 -0.2651 -0.1800
  705MOL0     C97181   3.000   0.979   8.109  0.2890 -1.0143  0.6863
  705MOL0     C97182   3.112   1.034   8.184 -0.6382 -0.6106  0.0517
  705MOL0     O97183   3.124   1.174   8.177  0.2282  0.2934 -0.4603
  705MOL0     C97184   3.228   1.246   8.221  0.2064  0.2305 -0.4718
  705MOL0     C97185   3.355   1.193   8.269  0.0737 -0.2812 -0.8319
  705MOL0     C97186   3.452   1.290   8.319  0.7646  1.0883 -0.0882
  705MOL0     C97187   3.427   1.428   8.317 -0.6550  0.3592 -0.4640
  705MOL0     O97188   3.522   1.507   8.371  0.5624 -0.4694 -0.1914
  705MOL0     C97189   3.609   1.562   8.273 -1.0770  0.3979  0.3169
  705MOL0     C97190   3.691   1.677   8.339 -0.4895  0.3637 -0.7363
  705MOL0     C97191   3.599   1.803   8.343  0.0668 -0.2566  0.4772
  705MOL0     C97192   3.667   1.931   8.391  0.4246 -1.3948  0.3207
  705MOL0     C97193   3.588   2.066   8.355  0.0700  0.2736  0.0449
  705MOL0     C97194   3.681   2.188   8.340  0.2416 -0.2132  0.0207
  705MOL0     C97195   3.605   2.322   8.298 -0.1038 -0.6224 -0.1025
  705MOL0     C97196   3.693   2.445   8.282  0.4150 -0.1383 -0.8248
  705MOL0    Cl97197   3.811   2.414   8.145 -0.7176 -0.1054  0.0716
  705MOL0     C97198   3.302   1.464   8.268 -0.6798  0.0401  0.1047
  705MOL0     C97199   3.210   1.383   8.219  0.5333  1.0751 -0.2663
  705MOL0     O97200   3.180   0.960   8.251 -0.2555  0.3784 -0.6507
  705MOL0     C97201   2.919   1.069   8.028 -1.2081  0.1340 -0.1726
  705MOL0     C97202   2.793   1.040   7.980 -0.2125 -0.1776 -0.5137
  705MOL0     N97203   2.408   1.289   8.265  0.0089  0.2584 -1.5614
  705MOL0     N97204   2.346   1.363   8.352  0.5483  0.3053 -0.0898
  705MOL0     C97205   2.408   2.017   9.155  1.1759  0.1636 -0.7335
  705MOL0     C97206   2.384   1.974   9.295  0.0651 -0.0552 -0.3245
  705MOL0     C97207   2.336   1.769   9.676  0.1187 -0.3798  0.1660
  705MOL0     C97208   2.287   1.651   9.714 -0.0420 -0.8653 -0.0769
  705MOL0     C97209   2.262   1.628   9.847 -0.1932  0.5503  0.4422
  705MOL0     C97210   2.277   1.723   9.933 -0.2824 -0.3282  0.3894
  705MOL0     O97211   2.244   1.693  10.069 -0.3703 -0.7481  0.2701
  705MOL0     C97212   2.332   1.745  10.179  0.0231 -0.0696 -0.1667
  705MOL0     C97213   2.250   1.765  10.310 -0.1537 -0.3248  0.9409
  705MOL0     C97214   2.109   1.823  10.296  0.0931  0.3559 -0.7907
  705MOL0     C97215   2.110   1.969  10.268 -0.4645  0.4846  0.6032
  705MOL0     C97216   1.976   2.031  10.282  0.7028 -0.6501 -0.2676
  705MOL0     C97217   1.878   2.106  10.289  0.2523  0.0628 -0.7776
  705MOL0     C97218   2.323   1.853   9.901 -0.1019  0.3525  0.1850
  705MOL0     C97219   2.355   1.872   9.770 -1.0157  0.4625 -0.3402
  705MOL0     C97220   2.408   2.010   9.738  0.4430  1.0481 -0.8741
  705MOL0     H97221   2.650   1.774   9.329 -0.3792 -0.4640 -1.1705
  705MOL0     H97222   2.691   1.837   9.095  0.2531  1.2101  1.8194
  705MOL0     H97223   2.560   1.784   8.917 -0.1167  0.9007  1.5562
  705MOL0     H97224   2.653   1.914   8.816 -0.7248  1.1423  0.1927
  705MOL0     H97225   2.376   1.832   8.806  0.8503 -1.0037  2.0485
  705MOL0     H97226   2.432   1.973   8.720  0.0069  1.0857  3.2994
  705MOL0     H97227   2.615   1.822   8.604  0.2347  1.0859  0.6725
  705MOL0     H97228   2.514   1.685   8.667  0.3703  0.7277  0.7434
  705MOL0     H97229   2.318   1.779   8.543  0.1765  0.3671  0.6293
  705MOL0     H97230   2.441   1.902   8.487  1.3403  0.5315  0.9706
  705MOL0     H97231   2.457   1.605   8.422 -3.7501  1.2041  3.7794
  705MOL0     H97232   2.580   1.733   8.383  2.1340 -5.5856  1.8742
  705MOL0     H97233   2.423   1.846   8.238 -2.2745  0.4657 -0.9569
  705MOL0     H97234   2.460   1.675   8.201  0.0571  1.1834 -1.0026
  705MOL0     H97235   2.211   1.724   8.179  0.7876  1.5022 -0.5206
  705MOL0     H97236   2.207   1.792   8.343  2.9237  2.8522  0.4377
  705MOL0     H97237   2.224   1.578   8.440 -0.1857  0.6574 -0.3109
  705MOL0     H97238   2.104   1.554   8.313  0.4065  1.6314 -4.2803
  705MOL0     H97239   2.289   1.518   8.067  0.7142 -0.3293 -0.6811
  705MOL0     H97240   2.554   1.241   8.026 -1.2436 -1.3944  0.5919
  705MOL0     H97241   2.441   1.343   7.923  0.5513  1.8757 -0.4418
  705MOL0     H97242   2.273   1.153   8.033 -1.7186  3.5679 -4.6316
  705MOL0     H97243   2.330   1.141   7.883 -0.8699 -1.8948  0.7184
  705MOL0     H97244   2.506   1.031   8.105 -1.3163 -2.8636  1.1598
  705MOL0     H97245   2.354   0.954   8.056  0.8786 -3.0526  0.7035
  705MOL0     H97246   2.438   0.889   7.863 -3.1771  1.5877  0.2080
  705MOL0     H97247   2.561   1.029   7.848  0.2260  0.3819  1.8945
  705MOL0     H97248   2.775   0.725   8.084  0.5141  0.3560  1.9186
  705MOL0     H97249   3.003   0.735   8.303 -0.6898 -2.0935 -0.1106
  705MOL0     H97250   3.108   0.741   8.158 -0.2796  2.0515 -1.8973
  705MOL0     H97251   2.967   0.635   8.160  1.5656 -0.2120 -1.7415
  705MOL0     H97252   3.371   1.086   8.279 -3.7575 -0.7775  4.2260
  705MOL0     H97253   3.539   1.244   8.364  0.3608 -1.2770 -1.5474
  705MOL0     H97254   3.663   1.478   8.230  0.2925 -0.1243  2.8971
  705MOL0     H97255   3.563   1.603   8.182 -2.8058  0.1293  1.0278
  705MOL0     H97256   3.720   1.653   8.442  0.4762 -5.2506 -1.9699
  705MOL0     H97257   3.785   1.697   8.287  0.0280  0.2732  0.1274
  705MOL0     H97258   3.520   1.777   8.413 -1.6882  0.7012 -1.0458
  705MOL0     H97259   3.561   1.822   8.242 -2.1257 -1.6156  0.9919
  705MOL0     H97260   3.764   1.928   8.342 -0.0011 -1.2549 -0.5539
  705MOL0     H97261   3.676   1.927   8.500 -0.9680  2.6289  0.7363
  705MOL0     H97262   3.535   2.057   8.259 -0.0927  1.0678  0.0517
  705MOL0     H97263   3.510   2.082   8.430 -0.2227  0.6865 -0.3400
  705MOL0     H97264   3.757   2.167   8.265 -0.9828  1.3874 -1.7499
  705MOL0     H97265   3.736   2.215   8.431 -1.0050 -0.8478  1.0041
  705MOL0     H97266   3.528   2.352   8.369  1.9370 -1.5593  2.6933
  705MOL0     H97267   3.556   2.305   8.201 -1.9404  0.0921  0.6690
  705MOL0     H97268   3.744   2.476   8.374  2.6132  1.6328 -2.5070
  705MOL0     H97269   3.633   2.530   8.248  1.3225  0.0916 -1.9308
  705MOL0     H97270   3.290   1.571   8.276  3.6658  0.6504  1.6430
  705MOL0     H97271   3.117   1.418   8.176  0.1006  0.3971  0.0889
  705MOL0     H97272   2.957   1.165   7.997  1.8076 -1.5455 -2.0480
  705MOL0     H97273   2.746   1.106   7.907  2.0658  1.1890 -0.8122
  705MOL0     H97274   2.348   2.090   9.103 -0.7345 -0.6463  0.2590
  705MOL0     H97275   2.303   2.014   9.355  0.7484 -2.8781  2.7955
  705MOL0     H97276   2.276   1.575   9.638 -1.8373  1.1788 -2.0264
  705MOL0     H97277   2.230   1.528   9.875 -0.6518  1.3413  2.9904
  705MOL0     H97278   2.412   1.675  10.203 -0.2448  0.7520  3.8958
  705MOL0     H97279   2.378   1.841  10.155 -2.3943  0.8091 -1.6959
  705MOL0     H97280   2.313   1.825  10.377  2.1581 -1.9997  0.3865
  705MOL0     H97281   2.235   1.669  10.359  0.7562 -0.5889  0.7158
  705MOL0     H97282   2.050   1.759  10.230 -1.2905  1.0352 -0.2513
  705MOL0     H97283   2.065   1.820  10.396  1.6122  2.1707 -0.0044
  705MOL0     H97284   2.144   1.983  10.166 -0.0530  2.9103  1.0245
  705MOL0     H97285   2.179   2.003  10.346  0.2483 -1.5580  0.9327
  705MOL0     H97286   1.786   2.160  10.303 -0.3023 -0.5159 -2.0447
  705MOL0     H97287   2.313   1.943   9.962 -2.1597  1.6594 -1.9076
  705MOL0     H97288   2.343   2.085   9.783  1.0812  2.8196 -2.7223
  705MOL0     H97289   2.508   2.012   9.783  0.6015 -1.9597 -0.8456
  705MOL0     H97290   2.420   2.028   9.631  0.9171  0.5356 -0.9130
  706MOL0     O97291   7.749   7.216   0.095 -0.6356 -0.5088  0.4021
  706MOL0     C97292   7.745   7.099   0.088 -0.2032  0.0409 -0.7291
  706MOL0     O97293   7.693   7.016   0.181  0.2093 -0.2335 -0.2187
  706MOL0     C97294   7.604   7.058   0.279 -0.1965  0.0462 -0.0489
  706MOL0     C97295   7.637   7.163   0.372  1.4313 -0.1868 -0.0881
  706MOL0     C97296   7.547   7.201   0.476  0.8149  0.4028  0.5000
  706MOL0     C97297   7.419   7.139   0.478  0.4512  0.5325 -0.4962
  706MOL0     O97298   7.317   7.162   0.561  0.0131  0.4143 -0.1965
  706MOL0     C97299   7.313   7.294   0.630 -0.3371  0.6774 -0.3398
  706MOL0     C97300   7.166   7.313   0.686  0.8710  0.1668 -0.6606
  706MOL0     C97301   7.092   7.408   0.597 -0.5211  0.0325 -0.2608
  706MOL0     C97302   7.056   7.347   0.456 -0.4349  0.1077 -0.3573
  706MOL0     C97303   6.942   7.417   0.376  0.3247  0.6760 -0.1262
  706MOL0     C97304   6.991   7.553   0.323 -0.0243 -0.8091  0.2831
  706MOL0     C97305   6.886   7.675   0.317  0.0188 -0.1712 -0.1089
  706MOL0     C97306   6.765   7.617   0.248  0.4436  0.3929  0.1094
  706MOL0     N97307   6.694   7.719   0.174  0.4029  0.1933 -1.1399
  706MOL0     C97308   6.725   7.778   0.054 -1.4511  0.3884 -0.4901
  706MOL0     C97309   6.629   7.866   0.024 -0.5952  0.3257  0.6750
  706MOL0     C97310   6.613   7.926  -0.113 -0.6326  0.0310  0.2433
  706MOL0     C97311   6.479   7.912  -0.169 -0.2006 -0.0399  0.3056
  706MOL0     C97312   6.458   7.979  -0.303 -0.7487 -0.3215 -0.5168
  706MOL0     C97313   6.316   7.962  -0.345  0.0642  0.4128 -1.0509
  706MOL0     O97314   6.284   8.030  -0.466 -0.4309  0.4311  0.0203
  706MOL0     C97315   6.337   7.985  -0.585 -0.4368 -0.1711 -0.5155
  706MOL0     C97316   6.383   7.856  -0.608  0.4821 -0.0028 -0.8837
  706MOL0     C97317   6.431   7.819  -0.734 -0.6275 -0.3475  0.5831
  706MOL0     C97318   6.502   7.682  -0.748  0.0236 -0.2897 -0.2475
  706MOL0     C97319   6.415   7.901  -0.844  0.6155  0.8756 -0.6992
  706MOL0     C97320   6.466   7.861  -0.977 -0.5000  0.0674 -0.2192
  706MOL0     O97321   6.398   7.767  -1.048 -0.0145  0.0926 -0.2989
  706MOL0     C97322   6.444   7.737  -1.164 -0.1912  0.3457  0.6660
  706MOL0     C97323   6.390   7.782  -1.291 -0.5677  0.8145  0.4654
  706MOL0     C97324   6.455   7.745  -1.413 -0.1232 -0.7628 -0.8650
  706MOL0     C97325   6.571   7.670  -1.409  0.5450 -0.6266 -0.2908
  706MOL0     O97326   6.642   7.641  -1.523 -0.2438  1.1105 -0.1174
  706MOL0     C97327   6.694   7.751  -1.593  0.0577 -0.3210 -0.9625
  706MOL0     C97328   6.817   7.713  -1.670  0.0156 -0.0466  0.2407
  706MOL0     C97329   6.857   7.843  -1.744  0.3216 -0.2453  0.5905
  706MOL0     C97330   6.992   7.831  -1.799 -0.2067  0.5723  0.3956
  706MOL0     C97331   7.054   7.965  -1.850 -0.5650  0.0947 -0.9696
  706MOL0     C97332   6.985   8.051  -1.943 -0.3639  0.6702  0.6663
  706MOL0     C97333   6.934   7.998  -2.079  0.0218  0.3325  0.4905
  706MOL0     C97334   7.034   7.942  -2.182  0.6276  0.1889  0.0870
  706MOL0    Cl97335   6.954   7.934  -2.351  0.3805 -0.1418  0.2362
  706MOL0     C97336   6.620   7.626  -1.281  0.4547  0.3774 -0.0892
  706MOL0     C97337   6.555   7.653  -1.160  0.5368 -0.3844 -0.1655
  706MOL0     O97338   6.564   7.918  -1.025  0.1058 -0.0620 -0.6175
  706MOL0     C97339   6.369   8.030  -0.823  0.6437 -0.2675  0.7983
  706MOL0     C97340   6.336   8.080  -0.695 -0.0394  0.1495 -0.8052
  706MOL0     N97341   6.527   7.853   0.119 -0.6778  1.2264 -0.1310
  706MOL0     N97342   6.567   7.769   0.207  0.1212  1.0535 -0.3345
  706MOL0     C97343   7.387   7.038   0.391 -0.4885 -0.0371  0.2962
  706MOL0     C97344   7.482   6.995   0.304 -0.6159  1.1026  1.1144
  706MOL0     C97345   7.811   7.041  -0.020 -0.1118  0.4395  0.7724
  706MOL0     C97346   7.900   7.121  -0.101  0.5798  1.0017 -0.7189
  706MOL0     C97347   7.974   7.078  -0.211  0.3789  0.1346  0.7677
  706MOL0     C97348   7.973   6.942  -0.237  0.1693  1.0628  0.2056
  706MOL0     O97349   8.061   6.895  -0.340 -0.3152  0.0288 -0.3616
  706MOL0     C97350   8.091   6.752  -0.343 -0.0989  0.1567  0.0968
  706MOL0     C97351   8.165   6.706  -0.461  0.4652  0.9863  0.3442
  706MOL0     C97352   8.183   6.557  -0.460 -0.9733  0.5010  0.2132
  706MOL0     C97353   8.281   6.508  -0.576  0.1093  0.2293 -1.1401
  706MOL0     C97354   8.376   6.409  -0.518  1.5381 -0.9542  0.2845
  706MOL0     C97355   8.450   6.320  -0.481 -0.3671  0.1526  0.5977
  706MOL0     C97356   7.883   6.859  -0.165  0.3044  0.4587 -0.3631
  706MOL0     C97357   7.794   6.908  -0.062 -0.4610  0.6926 -0.7324
  706MOL0     C97358   7.701   6.797   0.003  0.6715 -0.7637 -0.1174
  706MOL0     H97359   7.735   7.206   0.353  1.3182 -0.2723 -0.8879
  706MOL0     H97360   7.565   7.282   0.546 -0.1877 -0.0064  1.2653
  706MOL0     H97361   7.340   7.370   0.556  0.6599 -0.9162 -1.6920
  706MOL0     H97362   7.378   7.294   0.718 -2.6927  1.3881  1.4996
  706MOL0     H97363   7.128   7.212   0.669 -0.6255  0.3104  1.4930
  706MOL0     H97364   7.161   7.334   0.793  0.2707 -2.2351 -0.1678
  706MOL0     H97365   7.001   7.436   0.652 -0.3097  2.3135 -0.9383
  706MOL0     H97366   7.150   7.497   0.571 -1.8528  0.6635 -1.2211
  706MOL0     H97367   7.145   7.343   0.393 -1.8502 -0.2080 -2.4668
  706MOL0     H97368   7.019   7.244   0.455  0.6459 -0.2898  0.0379
  706MOL0     H97369   6.855   7.418   0.441  1.9659  2.8546  2.2419
  706MOL0     H97370   6.926   7.350   0.291 -2.6224 -2.9992  3.0024
  706MOL0     H97371   7.071   7.597   0.384 -0.7075 -1.0395  1.3815
  706MOL0     H97372   7.031   7.553   0.222  0.4257  2.3020  0.3528
  706MOL0     H97373   6.929   7.767   0.276  1.0780  0.2209  1.7693
  706MOL0     H97374   6.847   7.693   0.418 -1.7141 -0.5498 -0.6820
  706MOL0     H97375   6.784   7.541   0.171  0.0345 -0.9470  1.2964
  706MOL0     H97376   6.704   7.570   0.326  2.1085  0.5287  1.5451
  706MOL0     H97377   6.804   7.739  -0.010 -0.7162 -0.6905  1.0428
  706MOL0     H97378   6.678   7.868  -0.179 -0.0155 -2.6662  2.9933
  706MOL0     H97379   6.651   8.029  -0.115  2.2180 -0.9174  0.8353
  706MOL0     H97380   6.438   7.811  -0.174 -1.6412  0.4664  1.0813
  706MOL0     H97381   6.422   7.979  -0.104 -0.7435  0.9590 -1.1458
  706MOL0     H97382   6.485   8.085  -0.300  0.1471 -0.2530 -4.8236
  706MOL0     H97383   6.529   7.936  -0.374 -0.4111 -0.1393 -0.2928
  706MOL0     H97384   6.291   7.855  -0.350  0.0732  0.4576 -2.2344
  706MOL0     H97385   6.251   7.998  -0.264  1.1410 -0.3125  0.1659
  706MOL0     H97386   6.382   7.784  -0.527 -1.6808  1.4686  0.4979
  706MOL0     H97387   6.494   7.631  -0.651  1.1367 -2.8516 -1.4288
  706MOL0     H97388   6.604   7.708  -0.776  1.6887 -2.4270  3.1517
  706MOL0     H97389   6.455   7.607  -0.811  4.2348 -3.5585  0.1096
  706MOL0     H97390   6.297   7.837  -1.278 -0.4045  1.5833 -1.3210
  706MOL0     H97391   6.397   7.759  -1.504 -2.5087 -0.2060  0.6492
  706MOL0     H97392   6.613   7.771  -1.663  0.1826 -2.0584 -1.6563
  706MOL0     H97393   6.719   7.832  -1.524 -0.1359 -0.5679 -0.6013
  706MOL0     H97394   6.894   7.683  -1.598  2.1196 -0.7544 -2.1448
  706MOL0     H97395   6.795   7.637  -1.745 -3.2814  0.1935  0.8397
  706MOL0     H97396   6.857   7.920  -1.666 -2.1123 -1.3706  1.8298
  706MOL0     H97397   6.789   7.874  -1.824  0.3207  1.1924  1.1320
  706MOL0     H97398   6.994   7.753  -1.876  0.9752 -1.4423  2.3403
  706MOL0     H97399   7.048   7.797  -1.712 -1.3097  1.6988  1.5902
  706MOL0     H97400   7.059   8.030  -1.762 -2.1520  0.0583 -0.8249
  706MOL0     H97401   7.159   7.951  -1.878 -0.2451  1.2308 -0.4188
  706MOL0     H97402   7.045   8.142  -1.949 -1.2500  1.1945 -0.5482
  706MOL0     H97403   6.893   8.082  -1.891 -1.6971 -2.0227  0.1022
  706MOL0     H97404   6.879   8.076  -2.133  0.6772 -0.4388 -1.3911
  706MOL0     H97405   6.857   7.925  -2.056 -1.0735  1.3120  0.0635
  706MOL0     H97406   7.067   7.846  -2.140  1.0664  0.2521 -0.1154
  706MOL0     H97407   7.114   8.013  -2.202 -0.1342  1.1368  0.3372
  706MOL0     H97408   6.703   7.556  -1.283  0.0615 -0.0913 -0.0268
  706MOL0     H97409   6.601   7.614  -1.070  1.7018  2.6854  0.7163
  706MOL0     H97410   6.359   8.090  -0.913  1.3760 -1.5009 -0.1371
  706MOL0     H97411   6.280   8.172  -0.676 -3.1271 -1.8870  0.7101
  706MOL0     H97412   7.295   6.981   0.388 -0.7053  0.2876 -3.1235
  706MOL0     H97413   7.450   6.925   0.227 -2.2280  2.4885  0.4321
  706MOL0     H97414   7.904   7.228  -0.089  2.1094  0.8267  0.6255
  706MOL0     H97415   8.032   7.139  -0.280  0.6242 -0.9629 -0.0292
  706MOL0     H97416   8.145   6.727  -0.251 -2.2544  4.3484  2.7807
  706MOL0     H97417   7.994   6.700  -0.347 -1.1881  2.1411 -0.3054
  706MOL0     H97418   8.261   6.757  -0.474  3.5569 -4.6086 -2.3457
  706MOL0     H97419   8.111   6.733  -0.553 -1.2865 -0.2092  0.9745
  706MOL0     H97420   8.244   6.529  -0.374 -0.9654 -0.1992 -0.0136
  706MOL0     H97421   8.087   6.504  -0.458 -0.2549 -1.1273 -2.4667
  706MOL0     H97422   8.324   6.597  -0.622 -2.7073  2.3600  0.0406
  706MOL0     H97423   8.217   6.472  -0.656  0.1792  2.0512 -2.0611
  706MOL0     H97424   8.510   6.247  -0.432 -1.5062  0.5379  2.7280
  706MOL0     H97425   7.862   6.755  -0.189  0.2793  0.4667 -0.3766
  706MOL0     H97426   7.607   6.839   0.039  2.3236  1.0264  2.4547
  706MOL0     H97427   7.675   6.736  -0.084 -1.2090 -1.9198  1.1771
  706MOL0     H97428   7.752   6.737   0.079 -0.9686 -0.3126  1.4184
  707MOL0     O97429  11.564   1.582   5.173  0.0596 -0.7183  0.3040
  707MOL0     C97430  11.579   1.482   5.094 -0.0829 -0.8921 -0.9667
  707MOL0     O97431  11.541   1.355   5.123 -0.9614 -0.0102 -0.1152
  707MOL0     C97432  11.488   1.328   5.248 -0.0172  0.0803  0.2223
  707MOL0     C97433  11.350   1.319   5.255 -0.3857 -0.0845  0.6985
  707MOL0     C97434  11.285   1.273   5.372  0.2591  0.0223  0.4905
  707MOL0     C97435  11.361   1.247   5.490 -0.0678 -0.2558  0.0112
  707MOL0     O97436  11.296   1.193   5.600 -0.3788 -0.5188 -0.4020
  707MOL0     C97437  11.375   1.130   5.704  0.1543  0.8458  1.2880
  707MOL0     C97438  11.294   1.119   5.831  0.3584 -0.2674  0.0212
  707MOL0     C97439  11.219   0.987   5.853  0.1473 -0.6474  0.1686
  707MOL0     C97440  11.119   0.985   5.971  0.5988  0.4276  0.3671
  707MOL0     C97441  11.011   1.091   5.983  0.0415  0.3217  0.5941
  707MOL0     C97442  10.925   1.081   6.111  0.3339 -0.7926  0.6763
  707MOL0     C97443  10.843   1.204   6.131 -0.0244 -0.0124 -0.2061
  707MOL0     C97444  10.732   1.164   6.225 -0.4260 -1.0665  0.8649
  707MOL0     N97445  10.786   1.139   6.360 -0.2721  0.2684  0.1551
  707MOL0     C97446  10.769   1.022   6.434 -0.2951 -0.7049  0.9254
  707MOL0     C97447  10.839   1.060   6.542  0.0423 -1.0387  0.5567
  707MOL0     C97448  10.836   0.959   6.656  1.2186  0.2022 -0.2347
  707MOL0     C97449  10.717   0.956   6.749  0.7155  0.1824 -0.5669
  707MOL0     C97450  10.698   1.083   6.824  0.5000 -0.1464 -0.3509
  707MOL0     C97451  10.561   1.084   6.901  1.0465 -0.1972 -0.1615
  707MOL0     O97452  10.546   1.202   6.989  0.1329  0.7033  0.5970
  707MOL0     C97453  10.444   1.213   7.074  0.0499  0.0925  0.4691
  707MOL0     C97454  10.443   1.315   7.164 -0.6691 -0.2607  0.0871
  707MOL0     C97455  10.342   1.325   7.264 -0.5715 -0.5742  1.0354
  707MOL0     C97456  10.370   1.426   7.367  0.2988  0.4761 -0.2749
  707MOL0     C97457  10.231   1.239   7.254 -0.4088 -0.8762 -0.9549
  707MOL0     C97458  10.104   1.239   7.337 -1.4637 -0.1296 -0.7276
  707MOL0     O97459  10.020   1.144   7.308 -0.2095  0.6365 -0.0225
  707MOL0     C97460   9.888   1.134   7.346 -0.8079 -0.0338 -0.8639
  707MOL0     C97461   9.808   1.072   7.256 -1.1066  0.1915 -0.4987
  707MOL0     C97462   9.668   1.073   7.261  0.1601 -0.2605  0.0493
  707MOL0     C97463   9.606   1.131   7.373  0.0598 -0.9023  1.3643
  707MOL0     O97464   9.471   1.140   7.376 -0.0756  0.7947 -0.7056
  707MOL0     C97465   9.392   1.115   7.253  0.0799 -0.7371 -0.1879
  707MOL0     C97466   9.249   1.154   7.283  0.1866 -0.9859  0.1165
  707MOL0     C97467   9.166   1.132   7.159  0.3818 -0.2755 -0.1469
  707MOL0     C97468   9.019   1.122   7.188 -0.0344  0.4026  0.0437
  707MOL0     C97469   8.963   1.249   7.254  1.2142  0.2619  0.6894
  707MOL0     C97470   8.814   1.228   7.295 -0.3950  0.7486 -0.5070
  707MOL0     C97471   8.797   1.129   7.404 -0.4342  0.5447 -0.1888
  707MOL0     C97472   8.643   1.134   7.456 -0.4346 -0.0173  1.4193
  707MOL0    Cl97473   8.582   0.973   7.527 -0.1880 -0.1315 -0.0601
  707MOL0     C97474   9.691   1.187   7.470  0.2263  0.0996  0.4399
  707MOL0     C97475   9.830   1.192   7.457 -0.2648  0.1209 -0.6804
  707MOL0     O97476  10.091   1.319   7.433 -0.4158  0.6146 -0.9035
  707MOL0     C97477  10.241   1.134   7.154  0.0319  0.2770 -1.0345
  707MOL0     C97478  10.345   1.116   7.070 -0.9805  0.3754 -0.2033
  707MOL0     N97479  10.892   1.191   6.531 -0.4051 -0.0656 -0.5305
  707MOL0     N97480  10.842   1.252   6.429 -0.3644 -0.0073 -0.4526
  707MOL0     C97481  11.505   1.255   5.475  0.2348  0.8491  0.0303
  707MOL0     C97482  11.566   1.288   5.353  0.6952  0.0077  0.0550
  707MOL0     C97483  11.647   1.504   4.958 -0.1756  0.0293  1.1286
  707MOL0     C97484  11.674   1.380   4.881 -0.5148 -0.9782 -0.7978
  707MOL0     C97485  11.740   1.379   4.760 -0.4590  0.2195  0.1532
  707MOL0     C97486  11.775   1.505   4.706 -0.1881 -0.1511 -0.3197
  707MOL0     O97487  11.821   1.510   4.576 -0.2433 -0.2883  0.1054
  707MOL0     C97488  11.851   1.396   4.497  0.0876 -0.4188 -0.7448
  707MOL0     C97489  11.855   1.448   4.352 -1.0393  0.4568  0.2390
  707MOL0     C97490  11.903   1.325   4.269 -0.5723 -0.1557  0.3905
  707MOL0     C97491  12.049   1.341   4.231 -0.5913  0.1356 -0.0411
  707MOL0     C97492  12.098   1.221   4.153 -0.2810 -0.5314 -0.1175
  707MOL0     C97493  12.124   1.119   4.091  0.6795  0.5723 -0.1246
  707MOL0     C97494  11.749   1.623   4.779 -0.4466 -0.7836  0.6033
  707MOL0     C97495  11.694   1.625   4.907  0.1434 -0.1842  0.5294
  707MOL0     C97496  11.684   1.756   4.981 -0.5343 -0.6458 -0.0252
  707MOL0     H97497  11.293   1.338   5.165  0.1692  0.8747  0.5336
  707MOL0     H97498  11.177   1.258   5.372  0.5316 -2.5641 -1.4339
  707MOL0     H97499  11.469   1.181   5.724  0.2866  0.0875  2.7543
  707MOL0     H97500  11.397   1.028   5.671  0.0146  0.2345  2.9712
  707MOL0     H97501  11.365   1.154   5.907  0.4981  4.5778 -2.0076
  707MOL0     H97502  11.216   1.196   5.838  0.8252  0.0915  1.8991
  707MOL0     H97503  11.164   0.966   5.761 -1.1046  0.6220  0.5792
  707MOL0     H97504  11.287   0.904   5.874 -0.9420 -1.0448  2.4538
  707MOL0     H97505  11.085   0.882   5.954  0.9291  0.4052 -0.1952
  707MOL0     H97506  11.180   0.989   6.062 -1.7564  1.0381  2.0194
  707MOL0     H97507  10.942   1.083   5.898  0.0969 -1.0859  0.6667
  707MOL0     H97508  11.051   1.192   5.994 -4.1699  2.3485 -0.2654
  707MOL0     H97509  10.864   0.991   6.108  3.5944 -3.1740 -0.6836
  707MOL0     H97510  10.984   1.073   6.203  0.4176 -0.7575  0.6269
  707MOL0     H97511  10.802   1.236   6.035 -0.6651  0.7067  0.2944
  707MOL0     H97512  10.905   1.283   6.175  2.1143 -2.1519  0.9083
  707MOL0     H97513  10.668   1.253   6.229  3.3866  2.1224 -1.6601
  707MOL0     H97514  10.676   1.080   6.183 -0.6823 -0.0061 -1.0598
  707MOL0     H97515  10.735   0.921   6.414  2.4061 -1.7070  0.9443
  707MOL0     H97516  10.922   0.985   6.717  2.3398 -1.4813 -1.0281
  707MOL0     H97517  10.845   0.860   6.610  1.3076  0.4526 -0.7652
  707MOL0     H97518  10.626   0.934   6.692  0.7292  1.2411 -1.0323
  707MOL0     H97519  10.717   0.874   6.821  0.9363 -0.8653 -1.7199
  707MOL0     H97520  10.789   1.103   6.882  1.0924 -0.5601 -1.1122
  707MOL0     H97521  10.700   1.163   6.750 -2.2243 -0.5772 -0.9796
  707MOL0     H97522  10.491   1.083   6.816  1.9142 -1.9275 -0.9023
  707MOL0     H97523  10.549   0.990   6.955 -0.0546 -1.6720 -2.7847
  707MOL0     H97524  10.515   1.396   7.161  0.3782 -0.8082  4.4630
  707MOL0     H97525  10.476   1.422   7.396 -0.8814  0.9806  5.0901
  707MOL0     H97526  10.316   1.413   7.461  2.6709 -1.3300  0.9370
  707MOL0     H97527  10.367   1.526   7.323  2.0731 -0.1486 -1.9711
  707MOL0     H97528   9.840   1.032   7.160 -1.1190 -2.0596  0.3831
  707MOL0     H97529   9.604   1.024   7.189 -0.3050 -0.6528  0.7159
  707MOL0     H97530   9.427   1.177   7.170  0.8757  2.6010  2.4124
  707MOL0     H97531   9.394   1.009   7.224  1.7961 -0.1932 -2.2631
  707MOL0     H97532   9.220   1.090   7.367  0.4925 -0.8992  0.2876
  707MOL0     H97533   9.244   1.257   7.319  0.0983 -1.5312  1.7972
  707MOL0     H97534   9.203   1.038   7.118  1.0485 -0.6098  1.1665
  707MOL0     H97535   9.188   1.204   7.080 -3.5439  0.0257 -1.1609
  707MOL0     H97536   9.001   1.030   7.244  0.3388  1.9709  2.9248
  707MOL0     H97537   8.966   1.109   7.093 -1.3054  0.8389  0.6726
  707MOL0     H97538   9.026   1.296   7.330  0.8180  1.7914  0.1234
  707MOL0     H97539   8.969   1.323   7.173 -0.3661 -1.3459 -1.0219
  707MOL0     H97540   8.758   1.189   7.210 -1.6384 -0.7777  0.9378
  707MOL0     H97541   8.765   1.321   7.323 -1.0815  0.1771  0.2418
  707MOL0     H97542   8.865   1.141   7.489  1.0532 -1.5725 -1.0201
  707MOL0     H97543   8.811   1.026   7.371 -1.7770 -0.4940  2.2084
  707MOL0     H97544   8.572   1.168   7.380 -2.2933  0.8918  3.4450
  707MOL0     H97545   8.645   1.211   7.533  4.7412  2.6439 -0.8860
  707MOL0     H97546   9.644   1.238   7.553  0.3948 -1.3524  1.4814
  707MOL0     H97547   9.896   1.240   7.530  3.7652 -0.0495 -3.8746
  707MOL0     H97548  10.169   1.053   7.144 -2.5317  2.1027  1.0358
  707MOL0     H97549  10.343   1.031   7.003  3.0346  0.8552 -1.2097
  707MOL0     H97550  11.579   1.231   5.550 -1.2757  0.5661  1.4865
  707MOL0     H97551  11.674   1.281   5.340  0.4726 -0.5898 -1.7010
  707MOL0     H97552  11.627   1.292   4.923 -4.8946  1.6226  0.4074
  707MOL0     H97553  11.760   1.286   4.708 -1.0209  1.1304 -1.7989
  707MOL0     H97554  11.940   1.345   4.535  1.8754  2.9394  0.0575
  707MOL0     H97555  11.774   1.319   4.505  0.5936 -0.8170  0.6302
  707MOL0     H97556  11.922   1.532   4.333  0.3440 -1.2969 -3.6083
  707MOL0     H97557  11.757   1.482   4.319  1.0995  4.2509 -2.9915
  707MOL0     H97558  11.895   1.228   4.320  1.5469 -0.6630 -0.1219
  707MOL0     H97559  11.837   1.313   4.182  1.3413 -1.6888 -0.9581
  707MOL0     H97560  12.105   1.349   4.324 -0.7110  0.7480 -0.0162
  707MOL0     H97561  12.065   1.429   4.167 -2.4549 -0.8940 -2.0714
  707MOL0     H97562  12.144   1.031   4.034  0.8197  1.4769 -1.4964
  707MOL0     H97563  11.766   1.713   4.721 -0.4583 -2.5075 -2.2524
  707MOL0     H97564  11.740   1.833   4.927  0.3267 -0.1053  1.5685
  707MOL0     H97565  11.580   1.787   4.994 -0.3725  0.9713 -2.0558
  707MOL0     H97566  11.734   1.754   5.079 -3.3307  2.0044  1.6136
  708MOL0     O97567   0.119   3.925   1.783  0.0941 -0.0251  1.0465
  708MOL0     C97568   0.091   3.826   1.712 -0.6755 -0.3961 -0.0397
  708MOL0     O97569   0.183   3.734   1.681  0.0078  0.1325  0.5209
  708MOL0     C97570   0.313   3.770   1.699  0.3210 -0.1655  0.3862
  708MOL0     C97571   0.399   3.703   1.784  0.5490 -0.3961  0.4309
  708MOL0     C97572   0.541   3.726   1.786 -0.1311 -0.0730  0.8722
  708MOL0     C97573   0.598   3.812   1.691 -0.2270 -0.4501 -0.4032
  708MOL0     O97574   0.735   3.821   1.689  0.6651 -0.5403 -0.6134
  708MOL0     C97575   0.783   3.857   1.560 -0.3491 -1.0589 -0.2192
  708MOL0     C97576   0.929   3.833   1.575  0.6700  0.2728 -0.8859
  708MOL0     C97577   0.992   3.954   1.653 -0.0047  0.6011  0.1112
  708MOL0     C97578   1.130   3.911   1.700 -1.0983 -0.5080 -0.0450
  708MOL0     C97579   1.209   4.026   1.766  0.6360  0.0642  0.5089
  708MOL0     C97580   1.358   4.011   1.801  0.7303 -0.4548  0.2950
  708MOL0     C97581   1.429   4.139   1.848  0.1130 -0.3668 -0.1297
  708MOL0     C97582   1.513   4.098   1.974  0.5034 -0.1084 -0.4915
  708MOL0     N97583   1.549   4.225   2.053 -1.5437  0.5552  0.3820
  708MOL0     C97584   1.473   4.338   2.073 -0.5673  0.7646  0.0523
  708MOL0     C97585   1.548   4.415   2.158  0.0301  0.4030 -0.1452
  708MOL0     C97586   1.515   4.549   2.227  0.3432 -0.1993  0.2696
  708MOL0     C97587   1.463   4.533   2.375 -1.1845  1.0691  0.0486
  708MOL0     C97588   1.322   4.489   2.377 -0.1932 -0.8405  0.6704
  708MOL0     C97589   1.268   4.457   2.518 -0.7909 -0.9973 -0.5964
  708MOL0     O97590   1.128   4.449   2.521  0.5190  0.2324  0.5467
  708MOL0     C97591   1.067   4.476   2.641  0.0640  0.3569 -0.4582
  708MOL0     C97592   0.943   4.533   2.631  0.9398 -0.7250  0.2515
  708MOL0     C97593   0.866   4.565   2.738 -0.4644 -0.0348  0.6487
  708MOL0     C97594   0.761   4.672   2.726 -0.1886  0.7762 -0.1180
  708MOL0     C97595   0.893   4.502   2.859 -0.3467  0.1702 -0.4802
  708MOL0     C97596   0.798   4.491   2.969 -0.0233 -0.1539  0.7483
  708MOL0     O97597   0.838   4.419   3.069  0.0573  0.4719  0.0771
  708MOL0     C97598   0.781   4.424   3.197  0.6736 -0.4069  0.2916
  708MOL0     C97599   0.785   4.302   3.272  0.2947  0.5673  0.2124
  708MOL0     C97600   0.756   4.296   3.406  0.2099  0.0470 -0.3344
  708MOL0     C97601   0.704   4.411   3.470  0.4766 -0.2364  0.0144
  708MOL0     O97602   0.663   4.430   3.596  0.5847  0.3020  0.3843
  708MOL0     C97603   0.635   4.308   3.662  0.1240  0.0147  0.2424
  708MOL0     C97604   0.495   4.267   3.627 -0.6773  0.1860 -0.7003
  708MOL0     C97605   0.392   4.367   3.689 -0.3904  0.3677 -0.1301
  708MOL0     C97606   0.256   4.293   3.692  0.3789  0.2507 -0.3277
  708MOL0     C97607   0.153   4.382   3.757  0.0502  0.3529 -0.1815
  708MOL0     C97608   0.020   4.311   3.779  0.6532 -0.8012 -0.2198
  708MOL0     C97609  -0.088   4.415   3.815 -0.4599  0.6806  0.2980
  708MOL0     C97610  -0.219   4.343   3.857 -0.1755 -0.0097  0.5492
  708MOL0    Cl97611  -0.191   4.231   3.995  0.1968 -0.2602 -0.0683
  708MOL0     C97612   0.691   4.531   3.402 -1.3788  0.8197  0.2745
  708MOL0     C97613   0.736   4.537   3.267  0.1447  0.1523  0.7904
  708MOL0     O97614   0.689   4.543   2.967  0.5867 -0.0500  0.6140
  708MOL0     C97615   1.024   4.437   2.872  0.1326  0.1572  0.6540
  708MOL0     C97616   1.113   4.429   2.766 -0.0820  1.1901  0.1757
  708MOL0     N97617   1.661   4.347   2.183  0.1606  0.4614  0.8617
  708MOL0     N97618   1.659   4.233   2.128 -0.8019  0.2133  0.0893
  708MOL0     C97619   0.513   3.886   1.607 -0.3139 -1.0383  0.0216
  708MOL0     C97620   0.371   3.861   1.609 -0.2621 -0.8124 -0.5309
  708MOL0     C97621  -0.047   3.799   1.656  0.1486 -0.3950  0.6402
  708MOL0     C97622  -0.059   3.706   1.545  0.3853 -0.2858  0.0098
  708MOL0     C97623  -0.185   3.663   1.502  0.3264  0.3177  0.1472
  708MOL0     C97624  -0.297   3.710   1.554  0.0828 -0.9264  0.7066
  708MOL0     O97625  -0.410   3.650   1.515  0.8291 -0.4385  0.1322
  708MOL0     C97626  -0.538   3.690   1.588  0.0553 -0.1380  0.7755
  708MOL0     C97627  -0.665   3.645   1.514  0.8614  0.6657 -0.5578
  708MOL0     C97628  -0.710   3.514   1.571 -1.3253 -0.0270 -0.3591
  708MOL0     C97629  -0.820   3.431   1.503 -0.7406 -0.8393 -0.1307
  708MOL0     C97630  -0.791   3.416   1.356  0.7530 -0.7233  0.2662
  708MOL0     C97631  -0.769   3.421   1.234  0.4606 -0.4549  0.0275
  708MOL0     C97632  -0.293   3.816   1.652 -0.3930 -0.7476  0.9585
  708MOL0     C97633  -0.172   3.858   1.707  1.0475 -0.9162  0.6846
  708MOL0     C97634  -0.182   3.980   1.799 -0.6266  0.6241  0.1913
  708MOL0     H97635   0.348   3.631   1.847  0.5176  0.4962  1.4449
  708MOL0     H97636   0.604   3.671   1.854  0.4593  0.8554  1.0944
  708MOL0     H97637   0.765   3.957   1.520  2.4203  0.2825  1.5050
  708MOL0     H97638   0.751   3.788   1.482 -0.9581 -1.0023 -0.0195
  708MOL0     H97639   0.947   3.737   1.623 -0.3375  0.9240  0.8685
  708MOL0     H97640   0.980   3.822   1.478 -0.9435 -1.8635 -1.5557
  708MOL0     H97641   0.985   4.050   1.600 -2.6764  0.7767  0.6717
  708MOL0     H97642   0.933   3.968   1.743 -1.4215  0.2879 -0.7386
  708MOL0     H97643   1.131   3.829   1.773  2.9673  1.0420  1.9784
  708MOL0     H97644   1.188   3.881   1.613  0.9752  2.1396  0.2946
  708MOL0     H97645   1.152   4.052   1.856  0.4154  1.3622  0.0127
  708MOL0     H97646   1.200   4.118   1.708  2.0113  1.6779  2.7226
  708MOL0     H97647   1.374   3.927   1.870  2.9043 -2.9657 -2.9395
  708MOL0     H97648   1.413   3.980   1.712 -1.0159 -3.4658  0.1091
  708MOL0     H97649   1.357   4.220   1.865 -0.6352 -1.2491  1.0748
  708MOL0     H97650   1.503   4.183   1.780  0.5323  3.7359  2.6380
  708MOL0     H97651   1.445   4.047   2.044 -0.2465 -0.4467 -1.4525
  708MOL0     H97652   1.594   4.028   1.949  0.6197 -1.6251  3.2964
  708MOL0     H97653   1.381   4.372   2.027  0.6628 -0.3182 -3.5121
  708MOL0     H97654   1.448   4.606   2.162  2.3442  3.2990  1.0119
  708MOL0     H97655   1.602   4.615   2.219 -1.3602  2.4452  1.9793
  708MOL0     H97656   1.529   4.456   2.416 -1.4988  1.1827  0.7950
  708MOL0     H97657   1.469   4.625   2.434 -1.4097  1.5942 -0.7420
  708MOL0     H97658   1.249   4.561   2.339  0.0548 -1.3648 -0.8573
  708MOL0     H97659   1.321   4.404   2.309  2.6072  0.8535 -1.6987
  708MOL0     H97660   1.300   4.359   2.556 -1.2473 -0.8919  0.0807
  708MOL0     H97661   1.298   4.536   2.588 -0.4409 -0.5480 -1.2467
  708MOL0     H97662   0.908   4.577   2.538 -0.2253 -0.4029  0.8151
  708MOL0     H97663   0.658   4.636   2.732 -0.3589  1.4489  1.4590
  708MOL0     H97664   0.769   4.733   2.636  3.7075  1.7014  0.6394
  708MOL0     H97665   0.762   4.748   2.805  0.5039  1.3282 -0.6478
  708MOL0     H97666   0.824   4.211   3.227  0.9599 -0.3998  2.6139
  708MOL0     H97667   0.773   4.197   3.449 -1.8494 -0.9036 -1.5664
  708MOL0     H97668   0.711   4.231   3.648 -0.5151 -0.6590  0.3656
  708MOL0     H97669   0.639   4.323   3.771 -0.1339 -1.1888  0.4308
  708MOL0     H97670   0.477   4.284   3.520  0.7281 -0.4323 -1.0510
  708MOL0     H97671   0.472   4.162   3.648 -3.3376  1.1506  1.9916
  708MOL0     H97672   0.386   4.441   3.608  0.5722 -1.5321 -2.0172
  708MOL0     H97673   0.424   4.417   3.781  0.1093 -1.5696  0.7885
  708MOL0     H97674   0.267   4.203   3.753 -1.8305  1.0368  1.3868
  708MOL0     H97675   0.224   4.278   3.589  2.5569  2.7837 -1.5058
  708MOL0     H97676   0.186   4.429   3.850  1.2178 -2.8341  1.1862
  708MOL0     H97677   0.134   4.459   3.682 -3.1325 -0.9305 -0.8738
  708MOL0     H97678   0.021   4.244   3.865 -2.5149  0.0209  0.5953
  708MOL0     H97679  -0.009   4.262   3.686 -1.5838  0.6502 -0.3559
  708MOL0     H97680  -0.108   4.483   3.731  1.8925 -0.0262 -0.9423
  708MOL0     H97681  -0.050   4.470   3.902  0.6083 -0.8266  0.8334
  708MOL0     H97682  -0.261   4.284   3.775  2.2841 -0.3258 -0.5630
  708MOL0     H97683  -0.288   4.414   3.903  1.0154  1.8796 -0.4954
  708MOL0     H97684   0.671   4.613   3.470  0.8865  0.0296  2.0217
  708MOL0     H97685   0.730   4.632   3.215  0.1122  1.6130  3.3408
  708MOL0     H97686   1.050   4.397   2.969 -0.7063  1.9922  1.6880
  708MOL0     H97687   1.205   4.374   2.783 -1.6753 -2.0930 -0.8647
  708MOL0     H97688   0.550   3.957   1.534  0.7028  1.3605  2.6849
  708MOL0     H97689   0.320   3.919   1.533 -1.3534 -0.3408  0.5152
  708MOL0     H97690   0.030   3.665   1.499  0.3869 -0.2472 -0.0229
  708MOL0     H97691  -0.195   3.592   1.421 -0.4190  1.7257 -1.0394
  708MOL0     H97692  -0.532   3.646   1.688  1.8642  0.3992  0.9312
  708MOL0     H97693  -0.559   3.797   1.601 -0.9497 -0.4483  1.8492
  708MOL0     H97694  -0.641   3.642   1.407  1.5126  1.8131 -0.4505
  708MOL0     H97695  -0.754   3.709   1.521  0.2483 -0.1421 -0.7436
  708MOL0     H97696  -0.635   3.434   1.580 -2.5042 -1.0429  0.8755
  708MOL0     H97697  -0.741   3.529   1.675 -3.6785  0.0631 -1.0309
  708MOL0     H97698  -0.918   3.474   1.525 -0.9948 -1.0215 -0.8715
  708MOL0     H97699  -0.827   3.325   1.530  1.9682 -1.2352 -0.7080
  708MOL0     H97700  -0.729   3.426   1.134 -0.3179  1.3160 -0.2297
  708MOL0     H97701  -0.388   3.862   1.675 -0.8270 -2.0740  1.9238
  708MOL0     H97702  -0.283   4.006   1.832 -1.5126 -3.7289  1.4965
  708MOL0     H97703  -0.118   3.939   1.878 -0.2070 -2.3643 -1.5870
  708MOL0     H97704  -0.131   4.062   1.748  1.5206  0.0513  1.2779
  709MOL0     O97705   9.051   4.418   3.902  0.4470  0.4199  0.0252
  709MOL0     C97706   9.076   4.455   3.790 -0.0726  0.8798 -0.7837
  709MOL0     O97707   9.160   4.390   3.712 -0.3267  0.4151  0.4234
  709MOL0     C97708   9.252   4.300   3.770  0.7270  0.0710  0.3456
  709MOL0     C97709   9.307   4.196   3.695  0.3613  0.7198 -0.2041
  709MOL0     C97710   9.379   4.095   3.747  0.3867 -0.7330 -0.7209
  709MOL0     C97711   9.425   4.104   3.878  0.1506  1.1629  0.6096
  709MOL0     O97712   9.497   4.012   3.954 -0.2814 -0.2395  0.7309
  709MOL0     C97713   9.605   3.952   3.888  0.5617  1.1984  0.2429
  709MOL0     C97714   9.712   4.050   3.836 -1.0228 -0.0523 -1.0041
  709MOL0     C97715   9.750   4.169   3.932 -0.5418 -0.2761  0.7856
  709MOL0     C97716   9.862   4.263   3.866 -0.1594  0.8282 -0.2574
  709MOL0     C97717   9.999   4.194   3.833  0.2761 -0.2760 -0.8439
  709MOL0     C97718  10.100   4.301   3.785 -0.2979 -0.1277  1.3740
  709MOL0     C97719  10.131   4.423   3.876 -0.1481 -0.7228 -0.3819
  709MOL0     C97720  10.259   4.503   3.854 -1.0621  0.5643  0.0571
  709MOL0     N97721  10.315   4.578   3.968  0.3096 -0.2656 -0.1348
  709MOL0     C97722  10.408   4.675   3.968  0.6506 -0.4013  0.2366
  709MOL0     C97723  10.415   4.728   4.090  0.6852 -0.5306  0.7068
  709MOL0     C97724  10.509   4.843   4.124 -0.2470  0.3703 -0.0040
  709MOL0     C97725  10.656   4.803   4.124  0.1543 -0.2556  0.1623
  709MOL0     C97726  10.755   4.923   4.124 -0.2667 -0.1296  1.2374
  709MOL0     C97727  10.903   4.875   4.117 -0.2610 -0.0002 -0.6149
  709MOL0     O97728  10.930   4.833   3.979  0.7887  0.6988 -0.3202
  709MOL0     C97729  11.057   4.799   3.959  0.4553 -0.2714  0.7934
  709MOL0     C97730  11.091   4.790   3.822  0.4557  0.4300  0.1961
  709MOL0     C97731  11.224   4.783   3.776 -0.9220  1.1247  0.7512
  709MOL0     C97732  11.253   4.761   3.633 -0.8311  0.4647  0.7851
  709MOL0     C97733  11.325   4.797   3.877 -0.1836  0.4226  0.8916
  709MOL0     C97734  11.468   4.807   3.851  0.2277 -1.3655 -0.1666
  709MOL0     O97735  11.517   4.758   3.737 -0.0543  0.6708  0.2455
  709MOL0     C97736  11.657   4.746   3.728 -0.7689  0.7948 -1.3582
  709MOL0     C97737  11.742   4.701   3.831 -0.0768  0.8698  0.1326
  709MOL0     C97738  11.883   4.706   3.829  0.0269  0.7650 -0.4810
  709MOL0     C97739  11.946   4.745   3.714  0.0482  0.5332 -0.6591
  709MOL0     O97740  12.087   4.763   3.713  0.2738  0.9002  1.3511
  709MOL0     C97741  12.175   4.760   3.826  0.0734 -0.0021  0.5307
  709MOL0     C97742  12.316   4.820   3.811 -1.5362 -0.6658  0.4943
  709MOL0     C97743  12.407   4.729   3.738  0.4952 -0.7900 -0.0522
  709MOL0     C97744  12.531   4.806   3.692 -0.7704 -0.3614  0.6506
  709MOL0     C97745  12.607   4.755   3.573  0.4200 -0.8301 -0.2886
  709MOL0     C97746  12.607   4.602   3.582 -0.7252 -0.7030 -0.2550
  709MOL0     C97747  12.688   4.535   3.468 -0.7572  0.2220 -0.3601
  709MOL0     C97748  12.742   4.388   3.487  0.7488  0.2488  0.0997
  709MOL0    Cl97749  12.675   4.303   3.625 -0.0503  0.3239  0.0334
  709MOL0     C97750  11.874   4.777   3.603  0.1049 -0.3405  0.7641
  709MOL0     C97751  11.726   4.791   3.611 -0.5960  0.7787 -0.3518
  709MOL0     O97752  11.532   4.865   3.938  0.3182  0.0206 -0.6418
  709MOL0     C97753  11.288   4.792   4.011 -0.9426 -1.0571 -1.1197
  709MOL0     C97754  11.158   4.805   4.054 -0.3196  0.7751  0.7350
  709MOL0     N97755  10.324   4.659   4.170 -0.2344  0.1869 -0.8785
  709MOL0     N97756  10.267   4.569   4.103  0.2421 -1.3612 -0.6573
  709MOL0     C97757   9.391   4.224   3.941  0.4990 -0.0910 -0.2572
  709MOL0     C97758   9.299   4.313   3.899  0.3293  0.0999 -0.3221
  709MOL0     C97759   9.009   4.582   3.750 -0.5650 -1.3842  0.0403
  709MOL0     C97760   8.918   4.645   3.834  0.1350 -0.2098 -0.0129
  709MOL0     C97761   8.863   4.763   3.797 -0.5846 -0.3431 -0.0666
  709MOL0     C97762   8.885   4.830   3.678  0.6082 -0.7205 -0.6169
  709MOL0     O97763   8.832   4.957   3.666 -0.1528 -0.2539  0.4922
  709MOL0     C97764   8.843   5.018   3.535 -0.2453 -0.7026 -0.6961
  709MOL0     C97765   8.902   5.155   3.525 -0.0648  0.0208  0.5982
  709MOL0     C97766   8.828   5.250   3.616 -0.2843 -0.6083 -0.1215
  709MOL0     C97767   8.883   5.395   3.596 -0.4464  0.0912 -1.4373
  709MOL0     C97768   8.822   5.446   3.469  0.3988  0.1512  0.2281
  709MOL0     C97769   8.779   5.481   3.358 -0.1545 -1.1593  0.3975
  709MOL0     C97770   8.964   4.762   3.583 -0.4211  0.2017 -0.3911
  709MOL0     C97771   9.030   4.641   3.615 -0.5508  0.9709  0.1469
  709MOL0     C97772   9.119   4.584   3.507 -0.5702 -0.7104 -0.1240
  709MOL0     H97773   9.266   4.184   3.595 -2.9537  1.9637  0.8923
  709MOL0     H97774   9.410   4.010   3.686 -1.7754 -0.4482 -2.3469
  709MOL0     H97775   9.571   3.879   3.813 -1.5414 -0.5638  2.7452
  709MOL0     H97776   9.653   3.881   3.955 -1.3288 -1.4464 -1.0179
  709MOL0     H97777   9.807   4.001   3.813  1.0034  3.2494 -0.3514
  709MOL0     H97778   9.684   4.101   3.743 -2.6910  1.7401  0.3868
  709MOL0     H97779   9.666   4.239   3.936  2.5122  3.7244  0.8211
  709MOL0     H97780   9.763   4.133   4.034  2.8000  2.3263  1.4620
  709MOL0     H97781   9.824   4.310   3.774 -2.2564 -1.4766 -0.6699
  709MOL0     H97782   9.893   4.336   3.941  1.7923 -0.3132  0.0878
  709MOL0     H97783   9.993   4.115   3.758  2.9272 -2.9807  1.4659
  709MOL0     H97784  10.028   4.137   3.922  4.2592  2.0131 -0.4072
  709MOL0     H97785  10.197   4.251   3.772 -0.9747 -1.3056  0.7139
  709MOL0     H97786  10.068   4.346   3.691  1.2018  3.0383  2.2453
  709MOL0     H97787  10.134   4.398   3.982  3.0851 -0.4762 -0.3233
  709MOL0     H97788  10.051   4.498   3.865  1.8120  1.6828  0.8625
  709MOL0     H97789  10.325   4.419   3.829 -1.0794 -0.2636  2.5633
  709MOL0     H97790  10.254   4.568   3.766 -0.0768 -0.0987 -0.5002
  709MOL0     H97791  10.450   4.727   3.883 -1.3309 -2.1537 -2.0063
  709MOL0     H97792  10.486   4.877   4.225 -0.3163  3.3667 -0.9257
  709MOL0     H97793  10.490   4.923   4.051  0.8118  1.1748  0.5838
  709MOL0     H97794  10.685   4.747   4.213  0.9566 -0.3935 -0.1725
  709MOL0     H97795  10.668   4.746   4.031 -1.4619  0.0049 -0.2431
  709MOL0     H97796  10.722   4.993   4.046  0.1326 -0.7957  0.4498
  709MOL0     H97797  10.751   4.973   4.221 -2.0622  0.1292  1.0681
  709MOL0     H97798  10.968   4.956   4.150 -0.6791 -0.7272  2.3291
  709MOL0     H97799  10.918   4.789   4.184 -1.5115  0.1499 -0.1227
  709MOL0     H97800  11.010   4.786   3.750  0.8087  3.7862 -0.5536
  709MOL0     H97801  11.297   4.661   3.630 -0.3063  0.6647  1.4283
  709MOL0     H97802  11.318   4.837   3.589 -0.0188 -0.3965  0.4782
  709MOL0     H97803  11.154   4.759   3.586 -1.4121 -2.2328  1.9153
  709MOL0     H97804  11.696   4.656   3.918  1.7132  0.6580  1.0140
  709MOL0     H97805  11.948   4.682   3.912  0.2832  0.7148 -0.6941
  709MOL0     H97806  12.127   4.827   3.898  0.7982  1.5502 -0.3868
  709MOL0     H97807  12.178   4.658   3.865 -4.2615 -0.5973 -0.1877
  709MOL0     H97808  12.308   4.912   3.753 -0.1445 -0.5053  0.5319
  709MOL0     H97809  12.362   4.837   3.909 -0.8579 -0.4863  0.1472
  709MOL0     H97810  12.354   4.698   3.648  1.9096 -1.1404 -0.7919
  709MOL0     H97811  12.455   4.646   3.791  0.0049 -1.6543 -0.9262
  709MOL0     H97812  12.607   4.815   3.771  1.8849  2.8428 -1.9946
  709MOL0     H97813  12.503   4.909   3.669 -1.7871 -1.0388 -1.3807
  709MOL0     H97814  12.554   4.783   3.482 -0.5641  0.5090  0.6605
  709MOL0     H97815  12.708   4.793   3.559  1.3971 -3.7687 -2.0291
  709MOL0     H97816  12.505   4.562   3.579 -1.0866  0.1400  0.5529
  709MOL0     H97817  12.674   4.573   3.662 -0.0583 -0.7281 -0.8126
  709MOL0     H97818  12.773   4.595   3.435  1.4096 -3.2971 -1.7916
  709MOL0     H97819  12.620   4.532   3.382 -0.1206  0.3065 -0.8751
  709MOL0     H97820  12.850   4.381   3.501  0.7497  2.1006  1.3919
  709MOL0     H97821  12.707   4.324   3.405  1.7142 -1.3131  0.8477
  709MOL0     H97822  11.931   4.813   3.519 -2.0908  1.7034  0.0228
  709MOL0     H97823  11.673   4.827   3.524  0.8092  3.6043 -0.1394
  709MOL0     H97824  11.360   4.811   4.090  0.2890  0.4931 -2.5481
  709MOL0     H97825  11.145   4.821   4.160 -3.2728  3.0566  0.1560
  709MOL0     H97826   9.433   4.234   4.041  0.7788 -1.8648 -0.1708
  709MOL0     H97827   9.263   4.399   3.954  0.6867 -1.0902  1.8935
  709MOL0     H97828   8.889   4.604   3.930  1.9570 -3.7247 -0.7993
  709MOL0     H97829   8.789   4.792   3.871 -2.6418 -1.1841 -1.7068
  709MOL0     H97830   8.901   4.969   3.457 -2.0334 -0.5288 -2.2074
  709MOL0     H97831   8.741   5.025   3.496 -0.0193  0.0312 -1.1897
  709MOL0     H97832   8.890   5.192   3.423 -0.4219  0.5542  0.8325
  709MOL0     H97833   9.008   5.155   3.551 -0.1234  2.5523  1.0689
  709MOL0     H97834   8.721   5.247   3.593 -0.5885 -1.2229  1.2774
  709MOL0     H97835   8.852   5.218   3.718  0.6393  1.2343  0.2770
  709MOL0     H97836   8.993   5.394   3.599 -0.4017 -1.5585  2.6270
  709MOL0     H97837   8.846   5.469   3.667 -0.0432 -0.0871 -1.0396
  709MOL0     H97838   8.764   5.502   3.254  1.9249 -3.1914 -0.4043
  709MOL0     H97839   8.997   4.796   3.486  2.0708 -2.1251 -0.4981
  709MOL0     H97840   9.221   4.583   3.547 -0.6496 -0.7198  0.0774
  709MOL0     H97841   9.099   4.481   3.475 -0.9068 -1.0253  1.0638
  709MOL0     H97842   9.112   4.646   3.417 -3.7542  0.2748  0.6927
  710MOL0     O97843   4.210  11.529  10.416  0.2388 -0.2321  0.0947
  710MOL0     C97844   4.288  11.602  10.354 -0.8352  0.0984  0.0582
  710MOL0     O97845   4.265  11.735  10.345 -0.2014 -0.2877 -0.1221
  710MOL0     C97846   4.171  11.799  10.415  0.2958 -0.2803  1.3942
  710MOL0     C97847   4.204  11.906  10.506  0.2338  0.2999 -0.2728
  710MOL0     C97848   4.105  11.989  10.550  0.0490  0.2636 -0.0031
  710MOL0     C97849   3.968  11.977  10.498  0.1336 -0.2584  0.0706
  710MOL0     O97850   3.871  12.068  10.540 -0.2533 -0.0217  0.7058
  710MOL0     C97851   3.901  12.203  10.582 -1.7895 -0.5166 -0.1769
  710MOL0     C97852   3.773  12.279  10.595 -1.1302  1.0147  0.6492
  710MOL0     C97853   3.777  12.418  10.654  0.5863 -0.5757 -0.3020
  710MOL0     C97854   3.627  12.465  10.671 -0.3792 -0.6164 -0.2585
  710MOL0     C97855   3.611  12.616  10.673 -0.3683  0.4648 -0.0992
  710MOL0     C97856   3.655  12.674  10.810 -0.7945 -0.4892  0.6640
  710MOL0     C97857   3.595  12.813  10.826  0.0331 -0.4502 -0.4976
  710MOL0     C97858   3.455  12.811  10.868  0.3295 -0.2349  0.6398
  710MOL0     N97859   3.413  12.937  10.928 -0.8154 -0.3476  0.6891
  710MOL0     C97860   3.351  13.037  10.860 -0.2542 -0.4712 -0.8905
  710MOL0     C97861   3.370  13.150  10.929 -1.4743 -0.1482  0.0612
  710MOL0     C97862   3.313  13.288  10.895  0.7481 -0.1586 -0.1108
  710MOL0     C97863   3.424  13.389  10.881 -0.4822 -0.0456  0.3863
  710MOL0     C97864   3.361  13.522  10.847 -1.1541 -0.2623  1.0424
  710MOL0     C97865   3.470  13.625  10.801 -0.3596 -0.2128  0.0963
  710MOL0     O97866   3.541  13.598  10.682  0.0493  0.0853  0.1324
  710MOL0     C97867   3.484  13.627  10.560  0.4455  0.0500 -0.1942
  710MOL0     C97868   3.562  13.586  10.457 -0.2757 -0.4153  0.7277
  710MOL0     C97869   3.523  13.604  10.319 -0.2356  0.0459 -0.3722
  710MOL0     C97870   3.620  13.543  10.225 -0.4168 -1.3884 -1.0088
  710MOL0     C97871   3.398  13.664  10.295 -0.6115 -0.2063  0.1826
  710MOL0     C97872   3.336  13.673  10.161 -0.6694 -0.1709  0.2187
  710MOL0     O97873   3.219  13.748  10.154  0.7781  0.6147 -0.3369
  710MOL0     C97874   3.144  13.731  10.040  0.0325  0.2948 -0.5666
  710MOL0     C97875   3.128  13.831   9.941 -0.1191 -0.5413  0.5683
  710MOL0     C97876   3.060  13.802   9.818  0.0908 -0.8934  0.5499
  710MOL0     C97877   2.985  13.680   9.802 -0.0185  0.1728 -0.5297
  710MOL0     O97878   2.931  13.658   9.680  0.3976 -0.0156  0.9030
  710MOL0     C97879   2.988  13.549   9.611  0.1165  0.7685  0.5443
  710MOL0     C97880   3.068  13.595   9.492 -0.5646 -0.7142  0.7898
  710MOL0     C97881   3.123  13.496   9.403  1.6780  1.2139  0.7250
  710MOL0     C97882   3.000  13.405   9.354  0.3322  0.1102 -0.1441
  710MOL0     C97883   3.031  13.306   9.237 -0.3867  0.6121  0.7284
  710MOL0     C97884   2.917  13.212   9.198  1.1318 -0.5460  0.4552
  710MOL0     C97885   2.954  13.111   9.084  0.1263 -0.2866 -0.1007
  710MOL0     C97886   2.838  13.046   9.008  0.0606  0.0602 -0.2473
  710MOL0    Cl97887   2.758  13.168   8.905  0.1424 -0.0932 -0.2453
  710MOL0     C97888   2.996  13.581   9.907 -0.0404 -0.6799  0.1180
  710MOL0     C97889   3.073  13.611  10.024  0.1182  0.4381  1.1938
  710MOL0     O97890   3.393  13.615  10.063  0.1637 -0.5336 -0.3629
  710MOL0     C97891   3.320  13.715  10.400  0.7052  0.7196 -0.1335
  710MOL0     C97892   3.364  13.703  10.534  0.1738 -0.2586  0.3149
  710MOL0     N97893   3.458  13.125  11.030  0.3620 -0.2565  0.1081
  710MOL0     N97894   3.489  13.002  11.031 -0.8176 -0.0017  0.2975
  710MOL0     C97895   3.936  11.874  10.411 -0.0626 -0.3669 -0.2990
  710MOL0     C97896   4.036  11.784  10.369  0.4157 -0.4158 -0.4604
  710MOL0     C97897   4.414  11.535  10.302 -0.3910  0.7015  0.1665
  710MOL0     C97898   4.401  11.393  10.276 -0.3035  0.6016  0.4868
  710MOL0     C97899   4.507  11.322  10.246 -0.4359  0.2792 -0.0907
  710MOL0     C97900   4.638  11.370  10.257  0.2440 -0.0925  0.0679
  710MOL0     O97901   4.740  11.288  10.220 -0.2360  0.4516 -0.1826
  710MOL0     C97902   4.845  11.252  10.311 -0.7374 -0.9231 -1.1685
  710MOL0     C97903   4.968  11.323  10.255 -0.1551 -0.7343 -0.9078
  710MOL0     C97904   5.026  11.264  10.135 -0.2208 -0.3738 -0.3271
  710MOL0     C97905   5.072  11.120  10.149  0.0268 -0.3208  0.3257
  710MOL0     C97906   5.196  11.093  10.076 -0.5164 -0.2799 -0.2749
  710MOL0     C97907   5.293  11.082   9.999  0.6009 -0.4213  0.2277
  710MOL0     C97908   4.654  11.503  10.281 -0.3402 -0.1899 -0.5215
  710MOL0     C97909   4.544  11.593  10.305  0.3705  0.1781 -0.1900
  710MOL0     C97910   4.576  11.734  10.340 -0.0253 -0.2323 -0.2652
  710MOL0     H97911   4.306  11.927  10.535 -1.0029  4.7027  1.6549
  710MOL0     H97912   4.140  12.053  10.631 -1.5130 -2.6390  3.2450
  710MOL0     H97913   3.969  12.249  10.509 -1.1531 -1.1256  0.0155
  710MOL0     H97914   3.948  12.200  10.681 -0.6616  1.0868 -0.6234
  710MOL0     H97915   3.733  12.277  10.493  3.1234 -3.0466 -1.2972
  710MOL0     H97916   3.702  12.221  10.654  1.0333 -1.5502  0.9118
  710MOL0     H97917   3.835  12.423  10.746  1.2640  0.6866 -0.7760
  710MOL0     H97918   3.831  12.481  10.582 -1.7457 -0.3717 -1.9956
  710MOL0     H97919   3.579  12.433  10.578 -0.1015  0.7345 -0.8972
  710MOL0     H97920   3.580  12.423  10.760  0.5762 -1.0263  0.0732
  710MOL0     H97921   3.505  12.636  10.657 -0.8610 -0.6175  1.5543
  710MOL0     H97922   3.665  12.669  10.594  1.9039 -2.6625 -0.8623
  710MOL0     H97923   3.628  12.615  10.898 -0.0363  0.6578  1.6876
  710MOL0     H97924   3.763  12.668  10.823 -0.5798  2.6633  0.9953
  710MOL0     H97925   3.601  12.861  10.728 -0.3076 -0.7552 -0.6725
  710MOL0     H97926   3.654  12.872  10.897 -0.6703 -0.1132 -0.1882
  710MOL0     H97927   3.395  12.789  10.779 -1.9322  0.8523  1.8307
  710MOL0     H97928   3.443  12.735  10.946  0.8026 -0.8225  0.1544
  710MOL0     H97929   3.280  13.025  10.779 -2.5678 -0.6289  1.0462
  710MOL0     H97930   3.242  13.322  10.970 -2.5455 -0.7546 -2.7338
  710MOL0     H97931   3.260  13.262  10.802 -2.9176 -0.1214  1.7860
  710MOL0     H97932   3.478  13.397  10.976 -0.5279 -0.4618  0.4490
  710MOL0     H97933   3.494  13.359  10.803 -1.8847  0.8949 -1.2848
  710MOL0     H97934   3.289  13.509  10.766 -0.7360 -1.1327  0.7962
  710MOL0     H97935   3.308  13.551  10.938 -0.7094  0.8032  0.9716
  710MOL0     H97936   3.428  13.725  10.789 -0.3807 -0.4057 -1.7710
  710MOL0     H97937   3.547  13.615  10.878  0.3964 -1.2639 -0.7596
  710MOL0     H97938   3.653  13.537  10.490  0.0995 -1.4729 -1.6451
  710MOL0     H97939   3.585  13.451  10.176  1.4714 -2.1311 -1.0496
  710MOL0     H97940   3.706  13.521  10.288 -1.7476 -0.1164  1.4028
  710MOL0     H97941   3.655  13.605  10.142 -1.8980  1.4917  0.3781
  710MOL0     H97942   3.165  13.931   9.962  0.1388 -0.5334  0.0963
  710MOL0     H97943   3.069  13.877   9.739  1.6723  1.4225  2.7525
  710MOL0     H97944   3.050  13.480   9.669 -1.3716 -0.7925  0.3358
  710MOL0     H97945   2.911  13.483   9.572  0.7619  0.7774 -0.8344
  710MOL0     H97946   3.013  13.669   9.434  2.9787  0.5912 -1.1962
  710MOL0     H97947   3.149  13.655   9.533 -1.4908 -0.9944  3.2438
  710MOL0     H97948   3.183  13.418   9.451 -3.5844 -1.4781  3.8702
  710MOL0     H97949   3.163  13.539   9.311 -0.1450 -0.3107 -0.8539
  710MOL0     H97950   2.908  13.461   9.335 -1.7559 -3.0771 -0.1175
  710MOL0     H97951   2.979  13.338   9.437  2.0112 -0.0491  0.1984
  710MOL0     H97952   3.059  13.364   9.149  0.0290  0.1409  0.5492
  710MOL0     H97953   3.117  13.250   9.275  0.2618  0.7748 -0.4720
  710MOL0     H97954   2.842  13.271   9.144  2.2478 -0.4816 -1.0799
  710MOL0     H97955   2.873  13.167   9.287 -2.3605 -0.9098 -1.2708
  710MOL0     H97956   3.019  13.037   9.133  0.8632  0.3745 -0.0557
  710MOL0     H97957   3.017  13.158   9.007  0.9427 -2.2996 -0.7365
  710MOL0     H97958   2.763  12.995   9.069 -0.5476  0.5649 -0.5552
  710MOL0     H97959   2.876  12.961   8.952  2.1934 -1.1146  2.6962
  710MOL0     H97960   2.937  13.495   9.880  0.9066 -1.2309 -0.2322
  710MOL0     H97961   3.075  13.545  10.111  0.0438  1.6684  2.1549
  710MOL0     H97962   3.227  13.768  10.381  0.9804  1.3149  0.1726
  710MOL0     H97963   3.315  13.760  10.613  0.0806  2.2957 -1.4531
  710MOL0     H97964   3.839  11.881  10.364 -0.1302  4.8585 -0.0599
  710MOL0     H97965   4.012  11.714  10.289  2.4737 -1.0141 -0.6091
  710MOL0     H97966   4.306  11.342  10.264  1.0771 -1.2975 -5.4668
  710MOL0     H97967   4.506  11.214  10.233  0.3112 -0.2858  3.3678
  710MOL0     H97968   4.836  11.297  10.410 -2.3312 -1.8854 -0.8575
  710MOL0     H97969   4.856  11.144  10.320  1.5031 -0.6290  0.6364
  710MOL0     H97970   5.043  11.353  10.329 -2.7418  2.0103  0.8929
  710MOL0     H97971   4.935  11.421  10.219  2.3643  0.0307 -1.2895
  710MOL0     H97972   4.947  11.272  10.059  3.4790  1.4633 -4.4504
  710MOL0     H97973   5.103  11.334  10.102 -1.1388 -0.4803 -2.9456
  710MOL0     H97974   4.994  11.051  10.114 -0.4450  1.9367 -3.6311
  710MOL0     H97975   5.087  11.093  10.254  0.5324  0.3358  0.4241
  710MOL0     H97976   5.366  11.050   9.928  0.0029 -5.3783  1.4820
  710MOL0     H97977   4.755  11.542  10.294  0.2592 -0.1536 -4.2942
  710MOL0     H97978   4.498  11.784  10.398  0.0010  0.6755 -0.9909
  710MOL0     H97979   4.671  11.740  10.394  1.2447  1.6070 -2.5254
  710MOL0     H97980   4.598  11.788  10.248 -0.0118 -0.4206 -0.3727
  711MOL0     O97981   4.253   8.637   2.336 -0.3390 -0.0109  0.6726
  711MOL0     C97982   4.272   8.528   2.279  0.0787  0.8162  0.6561
  711MOL0     O97983   4.188   8.456   2.205 -0.2971 -0.4861 -0.5895
  711MOL0     C97984   4.092   8.508   2.118  0.2266 -1.0143  0.0686
  711MOL0     C97985   3.973   8.435   2.090  0.1774  0.1450 -0.0735
  711MOL0     C97986   3.873   8.471   2.006 -0.4033  0.1403 -0.3375
  711MOL0     C97987   3.877   8.598   1.957 -0.7157  0.5383  0.4820
  711MOL0     O97988   3.794   8.661   1.868  0.8767  0.4990  0.1530
  711MOL0     C97989   3.669   8.586   1.856 -0.1661 -0.0205  0.6571
  711MOL0     C97990   3.688   8.489   1.742 -0.8397  0.2612  0.1257
  711MOL0     C97991   3.564   8.407   1.698  0.5069 -0.6335 -0.4890
  711MOL0     C97992   3.504   8.332   1.815 -0.0156  0.4219 -0.3474
  711MOL0     C97993   3.421   8.212   1.784  0.3155  0.7944  0.2295
  711MOL0     C97994   3.491   8.094   1.700 -0.1830 -0.8348 -0.7799
  711MOL0     C97995   3.629   8.066   1.768  0.5992  0.0672  0.5648
  711MOL0     C97996   3.683   7.931   1.709 -0.3215  0.4915 -0.6118
  711MOL0     N97997   3.699   7.946   1.562  0.6441  0.3698 -0.5339
  711MOL0     C97998   3.774   8.040   1.509 -0.4940 -0.6491 -0.2792
  711MOL0     C97999   3.744   8.043   1.375 -0.5124  0.0594 -0.7510
  711MOL0     C98000   3.799   8.122   1.265 -0.8376  1.1825 -0.4992
  711MOL0     C98001   3.934   8.073   1.207  0.7093  0.7816  0.3186
  711MOL0     C98002   3.914   7.965   1.089 -0.2156 -0.2379  0.1810
  711MOL0     C98003   3.850   8.018   0.961  0.1119  0.0708 -0.5287
  711MOL0     O98004   3.705   8.058   0.974  0.2722 -0.8683 -0.2235
  711MOL0     C98005   3.608   7.964   0.987 -0.1376  0.7467 -0.0738
  711MOL0     C98006   3.626   7.828   0.956  0.1075  0.8089 -0.0582
  711MOL0     C98007   3.520   7.741   0.945  0.6098 -0.4394 -0.1538
  711MOL0     C98008   3.546   7.601   0.916 -0.4787  0.1045 -0.6835
  711MOL0     C98009   3.385   7.786   0.969  0.0692  1.3530  0.5051
  711MOL0     C98010   3.261   7.706   0.960 -0.1239  0.5533 -0.1030
  711MOL0     O98011   3.269   7.577   0.914  0.2444  0.4884  0.1570
  711MOL0     C98012   3.158   7.495   0.932 -0.4246 -0.5627  0.0867
  711MOL0     C98013   3.028   7.532   0.901  0.0525 -0.4630 -1.0144
  711MOL0     C98014   2.918   7.452   0.930  0.0369 -0.7159 -0.1397
  711MOL0     C98015   2.944   7.333   1.000 -0.4535 -0.6862  0.4409
  711MOL0     O98016   2.826   7.269   1.029  0.3973 -0.2676 -0.6379
  711MOL0     C98017   2.827   7.191   1.147 -0.4040  0.2811 -0.7017
  711MOL0     C98018   2.682   7.150   1.190  0.4896 -0.7443  1.1501
  711MOL0     C98019   2.673   7.080   1.327  0.0718 -0.8551  0.4419
  711MOL0     C98020   2.539   7.034   1.363 -0.7600 -0.1578 -0.7575
  711MOL0     C98021   2.526   6.955   1.495 -0.1067 -0.4447  0.0789
  711MOL0     C98022   2.381   6.957   1.524  0.1522  0.3792 -0.5264
  711MOL0     C98023   2.337   6.859   1.632 -0.2648  0.6146 -0.5796
  711MOL0     C98024   2.184   6.850   1.650 -1.2255  0.1268  0.8508
  711MOL0    Cl98025   2.122   6.721   1.753 -0.5724 -0.2989  0.4715
  711MOL0     C98026   3.075   7.298   1.033  0.3379 -1.0637 -0.1931
  711MOL0     C98027   3.177   7.373   1.000 -0.1937 -0.0048 -0.8484
  711MOL0     O98028   3.158   7.766   0.981 -0.0413 -0.1723  0.0437
  711MOL0     C98029   3.371   7.912   1.018  0.7816  0.4047  0.0513
  711MOL0     C98030   3.479   8.000   1.016 -0.3013  0.7221  0.3607
  711MOL0     N98031   3.669   7.931   1.353 -0.5117  0.2912 -0.3795
  711MOL0     N98032   3.634   7.867   1.466 -0.0257  0.2159  0.0167
  711MOL0     C98033   3.988   8.674   1.987  0.6759 -0.2834  0.4238
  711MOL0     C98034   4.094   8.639   2.066 -0.5872  0.0620  0.5849
  711MOL0     C98035   4.393   8.460   2.322 -0.1777  0.9409  0.9776
  711MOL0     C98036   4.390   8.322   2.336 -1.0375 -1.2176  0.8363
  711MOL0     C98037   4.492   8.257   2.397  0.3348  0.0395 -0.0530
  711MOL0     C98038   4.607   8.329   2.438 -0.1627  0.4274 -0.3393
  711MOL0     O98039   4.713   8.269   2.510 -0.0235  0.9092 -0.0888
  711MOL0     C98040   4.668   8.166   2.596  0.2614 -1.5247 -0.7451
  711MOL0     C98041   4.796   8.108   2.659  0.3973 -0.0333 -0.6216
  711MOL0     C98042   4.884   8.214   2.732  0.1883  0.4029  0.4227
  711MOL0     C98043   4.868   8.211   2.886 -0.4262  0.1176 -1.2115
  711MOL0     C98044   4.738   8.252   2.942  0.8624  0.3188 -0.1110
  711MOL0     C98045   4.627   8.284   2.983 -0.8389 -0.6154  0.0146
  711MOL0     C98046   4.619   8.463   2.403 -0.1470  0.8621  0.2795
  711MOL0     C98047   4.514   8.531   2.353  0.1609 -0.7184  0.4289
  711MOL0     C98048   4.549   8.672   2.310 -0.7232 -0.5365 -0.6890
  711MOL0     H98049   3.980   8.340   2.143  1.0585 -0.2937 -0.9526
  711MOL0     H98050   3.794   8.398   1.989  0.6365 -1.4818  1.3030
  711MOL0     H98051   3.596   8.662   1.828  1.1841  1.0405 -0.0938
  711MOL0     H98052   3.619   8.531   1.937 -2.0591 -1.3587 -1.2830
  711MOL0     H98053   3.719   8.549   1.656 -0.6926 -0.5269 -0.3832
  711MOL0     H98054   3.772   8.419   1.755  2.0005  2.7672 -2.9637
  711MOL0     H98055   3.504   8.484   1.648  2.5610  0.8380 -0.8310
  711MOL0     H98056   3.589   8.336   1.618  0.9388 -0.9290 -0.0944
  711MOL0     H98057   3.582   8.309   1.889  1.8911  3.1385 -1.3529
  711MOL0     H98058   3.436   8.403   1.864 -0.6226  0.6564 -1.5049
  711MOL0     H98059   3.331   8.232   1.725 -2.6386  0.8723  4.3908
  711MOL0     H98060   3.379   8.168   1.874  0.4912  0.7740  0.3024
  711MOL0     H98061   3.434   8.001   1.697  2.2266 -2.5373  1.3988
  711MOL0     H98062   3.523   8.120   1.599  0.5163 -2.0487 -0.8920
  711MOL0     H98063   3.614   8.053   1.876 -1.1860 -0.2563  0.3215
  711MOL0     H98064   3.704   8.143   1.751  3.3725 -1.8512  3.1212
  711MOL0     H98065   3.774   7.888   1.751  0.2873  0.6145 -1.7791
  711MOL0     H98066   3.605   7.861   1.741  0.6436 -0.3420 -0.0499
  711MOL0     H98067   3.844   8.104   1.562  2.4420 -2.6096 -1.4820
  711MOL0     H98068   3.829   8.218   1.306 -3.1273  2.8464 -2.4359
  711MOL0     H98069   3.715   8.140   1.197  0.6912 -1.2923 -3.3507
  711MOL0     H98070   3.983   8.147   1.143  1.9236 -2.3930 -2.7676
  711MOL0     H98071   4.003   8.040   1.285 -1.1922  0.4510  1.9444
  711MOL0     H98072   4.015   7.927   1.070  1.5884  3.6546  1.0304
  711MOL0     H98073   3.850   7.888   1.133 -3.6798  2.6081  0.5798
  711MOL0     H98074   3.907   8.109   0.940 -0.2555  0.6667  0.9392
  711MOL0     H98075   3.857   7.952   0.874  1.7581 -0.2187 -0.2088
  711MOL0     H98076   3.719   7.778   0.929 -0.4987 -0.5070  0.2182
  711MOL0     H98077   3.654   7.587   0.909  0.2245  2.4310  3.0304
  711MOL0     H98078   3.510   7.573   0.816 -1.2786  1.2632 -0.7382
  711MOL0     H98079   3.510   7.536   0.997  0.3498 -1.5947 -1.6298
  711MOL0     H98080   3.021   7.625   0.845 -1.5541 -0.9132 -1.6245
  711MOL0     H98081   2.816   7.486   0.916  0.6386  1.1096 -0.2761
  711MOL0     H98082   2.878   7.094   1.137 -0.3863  0.3075 -0.8714
  711MOL0     H98083   2.869   7.251   1.228 -3.0690  1.6869 -0.2529
  711MOL0     H98084   2.620   7.241   1.193 -0.5847 -1.1639 -2.7576
  711MOL0     H98085   2.639   7.088   1.111  0.8587 -1.8452  1.7946
  711MOL0     H98086   2.718   7.151   1.397 -1.0091 -0.6456  0.9582
  711MOL0     H98087   2.730   6.988   1.337 -0.5446 -1.2486  0.4051
  711MOL0     H98088   2.506   6.972   1.280 -2.0827  0.7097 -0.9087
  711MOL0     H98089   2.490   7.132   1.358  0.9160  0.9605  1.9258
  711MOL0     H98090   2.554   6.850   1.485 -0.4017 -0.5483  0.3312
  711MOL0     H98091   2.591   7.002   1.569  2.7555 -3.5750 -0.2017
  711MOL0     H98092   2.337   6.910   1.436 -0.8370 -2.0897  1.1663
  711MOL0     H98093   2.338   7.057   1.537 -0.2046  0.3024 -1.0916
  711MOL0     H98094   2.384   6.889   1.726  1.4206 -2.0074 -0.4728
  711MOL0     H98095   2.380   6.759   1.625  0.3889  0.9888 -2.6204
  711MOL0     H98096   2.138   6.817   1.556 -1.9735 -1.4464  1.7246
  711MOL0     H98097   2.148   6.945   1.690 -0.6486 -0.6366  3.3415
  711MOL0     H98098   3.096   7.224   1.109  0.6432  0.1724  0.9652
  711MOL0     H98099   3.274   7.331   1.022 -0.4705 -2.0839 -3.1660
  711MOL0     H98100   3.272   7.950   1.040 -0.0931 -1.4319 -0.4572
  711MOL0     H98101   3.470   8.105   1.042  0.9297  1.2457 -1.1415
  711MOL0     H98102   3.985   8.772   1.939 -2.4004 -0.7251 -0.4943
  711MOL0     H98103   4.188   8.693   2.072  1.2083 -1.8024 -4.9561
  711MOL0     H98104   4.295   8.279   2.308 -1.8459 -0.0298  1.6694
  711MOL0     H98105   4.472   8.155   2.428 -0.6250  1.0189  2.9214
  711MOL0     H98106   4.599   8.216   2.665  0.5464 -2.0219 -0.0921
  711MOL0     H98107   4.610   8.087   2.548 -0.6154 -2.1234  1.1710
  711MOL0     H98108   4.851   8.058   2.579  0.2430 -0.9979 -0.1415
  711MOL0     H98109   4.777   8.030   2.734  3.2238  0.6098  0.9042
  711MOL0     H98110   4.987   8.201   2.698  0.9470 -1.2956  3.0690
  711MOL0     H98111   4.856   8.315   2.699 -1.0085  0.0746  0.4080
  711MOL0     H98112   4.943   8.273   2.935  1.6852 -2.6941 -0.6089
  711MOL0     H98113   4.879   8.108   2.921 -1.6377 -0.0844 -1.3878
  711MOL0     H98114   4.532   8.299   3.028 -1.4666  1.2281 -1.7617
  711MOL0     H98115   4.704   8.527   2.421  0.9108 -0.4153 -0.0547
  711MOL0     H98116   4.642   8.679   2.253  0.4197  1.4782  1.2287
  711MOL0     H98117   4.474   8.725   2.250 -1.4080 -1.2062 -0.4248
  711MOL0     H98118   4.565   8.729   2.403  0.1090 -1.5135 -0.2175
  712MOL0     O98119   5.870   9.618   8.796  0.7527  0.5958  0.2990
  712MOL0     C98120   5.924   9.617   8.904 -0.5690 -0.0294  0.8866
  712MOL0     O98121   5.861   9.599   9.016  0.1626  0.5006 -0.1676
  712MOL0     C98122   5.765   9.698   9.051 -0.0171 -0.0887  0.0368
  712MOL0     C98123   5.738   9.804   8.966  0.7856 -0.3607 -0.5094
  712MOL0     C98124   5.642   9.895   9.010  0.3968  0.9955  0.0243
  712MOL0     C98125   5.568   9.899   9.138  0.1695  0.5322  0.4263
  712MOL0     O98126   5.478   9.999   9.159 -0.1576 -0.3599  0.0588
  712MOL0     C98127   5.473  10.057   9.291 -0.3970  0.9669  0.4841
  712MOL0     C98128   5.392  10.186   9.283 -0.3306  0.0311  0.4682
  712MOL0     C98129   5.446  10.301   9.191 -0.7794  0.3845  0.1535
  712MOL0     C98130   5.556  10.382   9.269 -0.6794 -0.6170 -0.1138
  712MOL0     C98131   5.680  10.417   9.177  0.0658  0.4214 -0.8099
  712MOL0     C98132   5.670  10.540   9.089 -0.1814 -0.4396  0.1538
  712MOL0     C98133   5.777  10.533   8.978 -0.4922 -0.0408 -0.3062
  712MOL0     C98134   5.925  10.548   9.012 -1.0988  0.1081 -0.1111
  712MOL0     N98135   6.010  10.622   8.911  0.5684 -0.1307 -0.7761
  712MOL0     C98136   6.024  10.763   8.901  0.0676  0.4219 -1.6497
  712MOL0     C98137   6.028  10.788   8.771  0.8964  0.7793  0.2464
  712MOL0     C98138   6.048  10.921   8.707 -0.3669 -1.1213 -0.0941
  712MOL0     C98139   6.196  10.964   8.716 -0.2743 -0.0794  0.5721
  712MOL0     C98140   6.210  11.102   8.650  0.2392 -0.0508  0.0489
  712MOL0     C98141   6.351  11.164   8.640 -0.8763 -0.1134  0.3252
  712MOL0     O98142   6.394  11.176   8.776  0.5383 -0.7065 -0.9391
  712MOL0     C98143   6.514  11.240   8.796  0.2965 -0.3795 -1.3776
  712MOL0     C98144   6.549  11.271   8.930 -1.5309  1.5313  1.4664
  712MOL0     C98145   6.678  11.315   8.968 -0.4535  0.5561 -0.1326
  712MOL0     C98146   6.701  11.331   9.116  0.2224  0.0428  0.5709
  712MOL0     C98147   6.774  11.330   8.864 -0.0266  0.3502 -0.1892
  712MOL0     C98148   6.912  11.395   8.873  0.5129  0.5192  0.0298
  712MOL0     O98149   6.927  11.493   8.957  1.3467 -0.3802 -0.8587
  712MOL0     C98150   7.049  11.535   9.001 -0.5330 -1.0071  0.0834
  712MOL0     C98151   7.127  11.456   9.087 -1.2914 -0.5281  0.0633
  712MOL0     C98152   7.243  11.504   9.137 -1.4741 -0.3666 -0.1002
  712MOL0     C98153   7.285  11.634   9.106 -0.6557 -1.0317  0.2643
  712MOL0     O98154   7.406  11.690   9.168  0.3976  0.0350 -0.9893
  712MOL0     C98155   7.514  11.720   9.084  0.8736 -0.3147  0.4054
  712MOL0     C98156   7.631  11.753   9.175  0.0992  0.0850 -0.7861
  712MOL0     C98157   7.644  11.672   9.312 -0.2081  0.5474  0.3563
  712MOL0     C98158   7.620  11.764   9.436  0.5834  0.3051 -0.2029
  712MOL0     C98159   7.642  11.706   9.575 -0.2990 -0.2050  0.6343
  712MOL0     C98160   7.608  11.822   9.684  0.1257  0.5018 -0.1900
  712MOL0     C98161   7.638  11.750   9.819 -0.9513  0.7355 -0.0191
  712MOL0     C98162   7.540  11.636   9.853 -0.1306  0.3149  0.4255
  712MOL0    Cl98163   7.529  11.578  10.022  0.1421  0.3743  0.1075
  712MOL0     C98164   7.215  11.710   9.013  0.2253 -0.0827  0.0150
  712MOL0     C98165   7.092  11.661   8.963  0.0747 -0.3496 -0.5251
  712MOL0     O98166   6.998  11.354   8.794 -0.2667 -0.2321 -1.0441
  712MOL0     C98167   6.741  11.300   8.729  0.4574  0.4623 -0.2421
  712MOL0     C98168   6.604  11.265   8.689 -0.6211  0.3642  0.5589
  712MOL0     N98169   6.037  10.664   8.703  0.2606 -0.1508 -0.4063
  712MOL0     N98170   6.031  10.569   8.787 -0.7213 -0.5434  0.3946
  712MOL0     C98171   5.612   9.792   9.220 -0.2892 -0.7903 -0.5120
  712MOL0     C98172   5.705   9.694   9.177  0.1536  0.1534  0.8189
  712MOL0     C98173   6.076   9.621   8.923  0.8384 -0.0665 -0.6073
  712MOL0     C98174   6.127   9.596   9.050  0.1834 -1.1482  0.8280
  712MOL0     C98175   6.263   9.579   9.069 -0.6521  0.3765 -0.4550
  712MOL0     C98176   6.357   9.588   8.964  0.2036 -0.4126  0.4747
  712MOL0     O98177   6.487   9.573   9.002 -0.6769  0.4893 -0.1853
  712MOL0     C98178   6.585   9.599   8.896 -0.0780  0.5123 -0.3131
  712MOL0     C98179   6.723   9.562   8.940 -0.2111  0.3332 -0.4729
  712MOL0     C98180   6.826   9.592   8.819  0.5193 -0.6926  0.0843
  712MOL0     C98181   6.972   9.546   8.840  0.5710  0.5582 -0.6922
  712MOL0     C98182   7.015   9.607   8.965 -0.3670 -0.0130  0.1747
  712MOL0     C98183   7.029   9.630   9.083  0.3438 -0.1899 -0.8789
  712MOL0     C98184   6.307   9.617   8.837  1.1997 -0.7083 -1.0928
  712MOL0     C98185   6.166   9.639   8.813  0.5185  1.0989  0.0796
  712MOL0     C98186   6.129   9.661   8.665  0.6283 -0.7621  0.3382
  712MOL0     H98187   5.789   9.819   8.871  1.4269 -2.5731 -0.5556
  712MOL0     H98188   5.615   9.979   8.946  0.5092  1.4794  0.6079
  712MOL0     H98189   5.572  10.067   9.338 -1.9407 -0.0307  4.2569
  712MOL0     H98190   5.426   9.984   9.357  0.0840  0.1909 -0.0082
  712MOL0     H98191   5.291  10.177   9.240 -0.1783  0.6758 -0.0509
  712MOL0     H98192   5.379  10.222   9.385 -1.4642  0.8821  0.0522
  712MOL0     H98193   5.481  10.253   9.099 -0.2399  1.1429 -0.0452
  712MOL0     H98194   5.364  10.366   9.160 -1.0122 -0.2868 -0.6639
  712MOL0     H98195   5.504  10.468   9.312  0.0030  0.8416 -2.0359
  712MOL0     H98196   5.605  10.319   9.343 -0.0181 -2.0103 -1.6696
  712MOL0     H98197   5.704  10.323   9.125 -1.4698 -1.1859  1.1765
  712MOL0     H98198   5.770  10.428   9.237  0.0215 -2.2163 -0.1247
  712MOL0     H98199   5.575  10.542   9.034  0.0723  1.3302 -0.2817
  712MOL0     H98200   5.691  10.629   9.148  2.0255 -1.7987  1.5637
  712MOL0     H98201   5.754  10.607   8.901 -0.0079 -2.0706 -2.5623
  712MOL0     H98202   5.777  10.436   8.927  0.3849  0.8417 -2.0800
  712MOL0     H98203   5.932  10.607   9.104 -1.4435 -2.5772  1.7703
  712MOL0     H98204   5.960  10.450   9.046 -0.2159  0.3631 -0.2567
  712MOL0     H98205   6.016  10.837   8.979 -1.7636  0.8991 -2.2577
  712MOL0     H98206   5.995  10.988   8.776 -0.9936  0.0867 -1.6750
  712MOL0     H98207   6.012  10.934   8.604 -0.0984  0.7740  0.0173
  712MOL0     H98208   6.233  10.983   8.817  0.5831  2.2405 -0.1204
  712MOL0     H98209   6.247  10.888   8.656 -0.4565 -0.0940  0.4341
  712MOL0     H98210   6.175  11.095   8.547 -2.0899 -0.7453  0.8104
  712MOL0     H98211   6.143  11.179   8.689 -1.0873 -0.7564 -0.7616
  712MOL0     H98212   6.411  11.089   8.589 -2.0522 -1.1862  0.4647
  712MOL0     H98213   6.366  11.244   8.567  1.7088 -3.7862 -3.5698
  712MOL0     H98214   6.475  11.240   9.003  1.3276  2.6782  5.1878
  712MOL0     H98215   6.720  11.437   9.139 -1.9509 -0.1271  3.7767
  712MOL0     H98216   6.778  11.264   9.155 -2.0713 -2.7978  0.4957
  712MOL0     H98217   6.603  11.312   9.160  0.1844  0.0471  0.4872
  712MOL0     H98218   7.097  11.356   9.117 -0.2511 -0.1798  2.4741
  712MOL0     H98219   7.308  11.450   9.204  1.4072 -0.8135 -2.9781
  712MOL0     H98220   7.538  11.633   9.023 -1.2477 -0.9261  0.3588
  712MOL0     H98221   7.493  11.812   9.029  2.9662  0.5449  0.9234
  712MOL0     H98222   7.722  11.746   9.116  0.0716 -1.2942 -0.6940
  712MOL0     H98223   7.611  11.855   9.209 -2.7337 -1.4711  3.0129
  712MOL0     H98224   7.743  11.625   9.303 -0.7032 -0.0897 -2.9172
  712MOL0     H98225   7.586  11.579   9.310  0.7559 -0.0577 -0.0480
  712MOL0     H98226   7.515  11.794   9.435 -0.7577 -3.7355  1.0311
  712MOL0     H98227   7.685  11.849   9.414 -0.5814  0.7827 -2.0839
  712MOL0     H98228   7.575  11.621   9.594  0.1475 -0.5577  0.6481
  712MOL0     H98229   7.746  11.673   9.589 -0.1932 -0.0105  0.3203
  712MOL0     H98230   7.509  11.866   9.672  0.8480  1.7069 -2.1821
  712MOL0     H98231   7.671  11.911   9.672  0.9448  0.1838  1.4162
  712MOL0     H98232   7.645  11.813   9.909  4.6030 -1.0133  1.2135
  712MOL0     H98233   7.736  11.705   9.802 -0.2903  1.0414  2.5152
  712MOL0     H98234   7.557  11.555   9.782 -4.2614  0.8228 -1.4737
  712MOL0     H98235   7.436  11.669   9.838 -0.1069  0.1170 -0.2111
  712MOL0     H98236   7.265  11.795   8.968  0.6272  0.2064  0.9831
  712MOL0     H98237   7.022  11.712   8.899 -1.2211  1.0981  1.9065
  712MOL0     H98238   6.825  11.289   8.661 -0.0571 -2.5930 -0.5249
  712MOL0     H98239   6.587  11.244   8.584 -0.3587 -0.3324  0.6562
  712MOL0     H98240   5.569   9.773   9.318  1.5391 -1.9784  0.1071
  712MOL0     H98241   5.749   9.623   9.246 -2.6510 -1.4206  1.1557
  712MOL0     H98242   6.071   9.596   9.143  2.2860  3.6259  2.4079
  712MOL0     H98243   6.293   9.563   9.172  3.2293  1.9239 -1.1522
  712MOL0     H98244   6.561   9.520   8.824  2.9609 -1.6229  0.7711
  712MOL0     H98245   6.572   9.697   8.849 -1.8654 -0.8393 -2.8688
  712MOL0     H98246   6.725   9.454   8.955 -1.9089  0.2531 -0.5750
  712MOL0     H98247   6.769   9.625   9.018  1.9523  1.2134 -2.3553
  712MOL0     H98248   6.778   9.552   8.729 -0.1741 -0.1693  0.2082
  712MOL0     H98249   6.824   9.699   8.794  1.6949 -1.4269 -3.8154
  712MOL0     H98250   7.038   9.581   8.761  0.4360  0.1311 -0.9988
  712MOL0     H98251   6.976   9.436   8.843 -0.3730  0.4759 -1.8338
  712MOL0     H98252   7.033   9.649   9.188 -0.6461  1.8529 -1.1687
  712MOL0     H98253   6.382   9.631   8.760  0.9943  2.2282 -0.8722
  712MOL0     H98254   6.215   9.655   8.597  0.3348 -3.4187  0.0869
  712MOL0     H98255   6.054   9.589   8.632  1.4300 -0.4984 -2.3183
  712MOL0     H98256   6.074   9.755   8.660  2.0336  0.1564  1.4702
  713MOL0     O98257   3.045   5.195   2.906  0.4769  0.1824  0.3352
  713MOL0     C98258   3.154   5.245   2.871 -0.0442  0.6881  0.2911
  713MOL0     O98259   3.228   5.353   2.940 -0.1829  0.4384  0.0943
  713MOL0     C98260   3.205   5.368   3.081  0.0924  0.4169 -0.2117
  713MOL0     C98261   3.242   5.493   3.133  0.4506  0.0686 -0.4576
  713MOL0     C98262   3.223   5.514   3.275 -0.0472  0.2921  0.4996
  713MOL0     C98263   3.177   5.416   3.360  0.8580 -0.0239  0.1637
  713MOL0     O98264   3.143   5.442   3.493  0.0991 -0.7341  0.3197
  713MOL0     C98265   3.192   5.565   3.555 -1.2213  0.3698 -0.5959
  713MOL0     C98266   3.147   5.564   3.701 -0.6214  0.2218  1.8116
  713MOL0     C98267   3.200   5.437   3.770 -0.3967 -0.7180  0.8739
  713MOL0     C98268   3.348   5.457   3.809 -0.1126 -0.3649  0.3659
  713MOL0     C98269   3.384   5.390   3.934  0.2450  0.1995 -0.2149
  713MOL0     C98270   3.372   5.237   3.933 -0.5303 -0.7419  0.4114
  713MOL0     C98271   3.385   5.169   4.073 -0.6029 -0.7564 -0.1763
  713MOL0     C98272   3.271   5.209   4.167  0.6182  0.1718 -0.2370
  713MOL0     N98273   3.288   5.153   4.299  0.5727 -0.5044 -0.7941
  713MOL0     C98274   3.404   5.156   4.376  0.7547  0.3820 -0.1621
  713MOL0     C98275   3.365   5.104   4.498  0.7672  0.4159 -0.7035
  713MOL0     C98276   3.465   5.082   4.608  0.0045  0.1413 -0.1808
  713MOL0     C98277   3.546   4.952   4.579 -0.4006  0.6673 -0.0299
  713MOL0     C98278   3.623   4.917   4.704 -0.2694  0.4189  0.2846
  713MOL0     C98279   3.754   4.840   4.689 -0.2719 -0.9291 -0.5406
  713MOL0     O98280   3.729   4.706   4.646 -0.1728  0.1199  0.3839
  713MOL0     C98281   3.827   4.629   4.595  0.4554  0.6289 -0.8051
  713MOL0     C98282   3.898   4.539   4.682  0.4398 -0.1292 -0.2011
  713MOL0     C98283   3.996   4.451   4.636  0.3180  0.1353  1.1020
  713MOL0     C98284   4.058   4.354   4.735  0.2398 -0.9239  0.9104
  713MOL0     C98285   4.005   4.447   4.489  0.5681 -0.4736  0.2984
  713MOL0     C98286   4.100   4.350   4.426  0.3133 -0.7606 -0.4274
  713MOL0     O98287   4.112   4.226   4.477  0.2134  0.1499  1.1283
  713MOL0     C98288   4.190   4.136   4.406  0.3966 -0.2118  0.0382
  713MOL0     C98289   4.164   4.072   4.282 -0.5567 -0.0105  0.2106
  713MOL0     C98290   4.269   3.987   4.230  0.6922  0.6097  0.9515
  713MOL0     C98291   4.395   3.977   4.285 -1.2480 -0.6263  0.3322
  713MOL0     O98292   4.487   3.906   4.214 -0.5701 -0.1237  0.4733
  713MOL0     C98293   4.529   3.777   4.268 -0.2804 -0.0670  0.8092
  713MOL0     C98294   4.685   3.772   4.259  0.0172  0.6997 -0.3336
  713MOL0     C98295   4.747   3.867   4.367  0.8994  0.1948 -0.1260
  713MOL0     C98296   4.891   3.850   4.379 -0.5754  0.9198 -0.0024
  713MOL0     C98297   4.971   3.960   4.457  0.5167 -0.0527 -0.5498
  713MOL0     C98298   4.910   3.987   4.601 -0.7558 -0.2093 -0.8374
  713MOL0     C98299   5.006   4.079   4.676  0.1726  0.1444  0.7826
  713MOL0     C98300   4.983   4.108   4.823 -0.4097 -1.3068  0.3483
  713MOL0    Cl98301   4.814   4.190   4.819  0.1266 -0.2144 -0.2400
  713MOL0     C98302   4.416   4.045   4.408  0.0175  0.1388  1.1565
  713MOL0     C98303   4.309   4.118   4.461  0.1295 -0.9815  0.5698
  713MOL0     O98304   4.152   4.379   4.318 -0.0219 -0.2760 -0.6310
  713MOL0     C98305   3.939   4.541   4.410 -0.1034 -1.0006  0.3303
  713MOL0     C98306   3.850   4.630   4.468 -1.0901  0.1212  0.0652
  713MOL0     N98307   3.228   5.073   4.495  0.4548 -0.9434  0.7379
  713MOL0     N98308   3.184   5.105   4.373  0.6323 -0.4328  0.0198
  713MOL0     C98309   3.139   5.286   3.311 -0.4611  0.3418 -0.4773
  713MOL0     C98310   3.149   5.266   3.179 -0.5140 -0.0529  0.7840
  713MOL0     C98311   3.222   5.184   2.738 -0.5835  0.4548 -0.8455
  713MOL0     C98312   3.321   5.256   2.675 -0.4356  0.6240  0.7939
  713MOL0     C98313   3.390   5.215   2.555 -0.4098  0.1210  0.0075
  713MOL0     C98314   3.354   5.101   2.490  0.2465 -0.3922 -0.0906
  713MOL0     O98315   3.408   5.062   2.365  0.1725  0.1686  0.1126
  713MOL0     C98316   3.447   5.171   2.286 -0.6091  0.9485  1.0841
  713MOL0     C98317   3.468   5.115   2.136 -0.7960  0.9920  0.7788
  713MOL0     C98318   3.571   5.000   2.131  0.6751  0.7232 -0.6777
  713MOL0     C98319   3.604   4.980   1.976  0.1881 -0.1972 -0.4797
  713MOL0     C98320   3.717   5.063   1.936  0.0214 -0.0507  0.2262
  713MOL0     C98321   3.811   5.136   1.913 -0.1237 -0.5261 -0.7524
  713MOL0     C98322   3.264   5.021   2.558  0.0305 -0.6218  0.6173
  713MOL0     C98323   3.197   5.058   2.676  0.5468 -0.3962  0.4709
  713MOL0     C98324   3.099   4.961   2.735  0.2097  0.6491 -0.2551
  713MOL0     H98325   3.280   5.572   3.069  1.8697 -0.1056  0.1269
  713MOL0     H98326   3.253   5.612   3.312  0.5547  1.4272 -2.6412
  713MOL0     H98327   3.145   5.652   3.509 -1.3534  1.8194  2.0735
  713MOL0     H98328   3.300   5.564   3.536 -1.5640  0.1256 -2.7233
  713MOL0     H98329   3.170   5.657   3.754  3.4411  0.7104 -0.3541
  713MOL0     H98330   3.038   5.556   3.696 -0.6347  0.9494  0.7224
  713MOL0     H98331   3.137   5.431   3.859 -0.3414  1.5325  1.1380
  713MOL0     H98332   3.185   5.344   3.715  3.7109 -1.2439  0.2639
  713MOL0     H98333   3.409   5.424   3.724  0.8992  4.6284 -1.1970
  713MOL0     H98334   3.371   5.562   3.829 -0.5328 -0.0857 -0.5665
  713MOL0     H98335   3.322   5.437   4.010  0.1449  1.5930 -1.1286
  713MOL0     H98336   3.482   5.409   3.979 -0.2002  3.0265 -0.2997
  713MOL0     H98337   3.277   5.206   3.887 -0.7260  0.0360  0.2902
  713MOL0     H98338   3.440   5.196   3.859 -2.0072 -0.5678 -1.1004
  713MOL0     H98339   3.479   5.211   4.111  0.9510  0.4935 -4.7506
  713MOL0     H98340   3.378   5.061   4.062  2.7897 -1.6601  3.8779
  713MOL0     H98341   3.258   5.317   4.160  0.3525  0.1843  0.3416
  713MOL0     H98342   3.171   5.172   4.139 -0.3509  2.1260  0.4667
  713MOL0     H98343   3.503   5.194   4.354  0.6252  1.5557  1.1393
  713MOL0     H98344   3.406   5.070   4.700  0.0752 -2.3866 -0.4121
  713MOL0     H98345   3.535   5.166   4.613  0.7894 -0.4842 -0.4524
  713MOL0     H98346   3.475   4.874   4.552  0.8032 -0.8273  0.9090
  713MOL0     H98347   3.616   4.976   4.499 -2.4670  2.4842 -1.3905
  713MOL0     H98348   3.641   5.005   4.766  0.3133 -0.5191  1.4970
  713MOL0     H98349   3.570   4.846   4.769  2.7278  0.1142  2.5863
  713MOL0     H98350   3.817   4.892   4.616 -0.7203  0.6065  0.1287
  713MOL0     H98351   3.814   4.841   4.780  1.3632  1.2647 -1.5442
  713MOL0     H98352   3.873   4.543   4.787 -3.1898 -0.4874 -0.9485
  713MOL0     H98353   4.000   4.262   4.727 -2.5087  0.8334 -3.3133
  713MOL0     H98354   4.064   4.390   4.838  1.1533 -2.3938  1.3911
  713MOL0     H98355   4.160   4.329   4.707  0.8285  1.0143  1.1655
  713MOL0     H98356   4.070   4.080   4.228 -1.4432  0.7481  1.7910
  713MOL0     H98357   4.258   3.943   4.132 -0.0861  0.3523  1.1530
  713MOL0     H98358   4.495   3.771   4.372 -3.0516 -2.2157 -0.1104
  713MOL0     H98359   4.467   3.712   4.206  1.1448 -2.0175  1.3463
  713MOL0     H98360   4.723   3.672   4.283  0.9144  1.9157  4.4104
  713MOL0     H98361   4.723   3.799   4.160 -2.9356  2.1376 -1.1919
  713MOL0     H98362   4.687   3.851   4.457  1.3751 -1.8785 -0.1216
  713MOL0     H98363   4.729   3.971   4.337 -3.1992 -0.3455 -0.0867
  713MOL0     H98364   4.932   3.842   4.277  2.5101  1.1512  1.1192
  713MOL0     H98365   4.919   3.759   4.432 -0.7794  2.5627  3.1090
  713MOL0     H98366   5.079   3.946   4.461  0.3099 -1.6054  0.4490
  713MOL0     H98367   4.962   4.053   4.400 -1.6310  0.4230  0.4743
  713MOL0     H98368   4.902   3.898   4.664 -2.6456 -0.5076 -1.4138
  713MOL0     H98369   4.809   4.029   4.592  0.1552  2.3247 -0.0341
  713MOL0     H98370   5.012   4.176   4.626 -2.0024 -0.3279 -0.5210
  713MOL0     H98371   5.103   4.028   4.668 -1.2819 -2.8420  0.8289
  713MOL0     H98372   5.064   4.173   4.856 -0.6728  0.0205 -1.4502
  713MOL0     H98373   4.979   4.009   4.871 -3.0004 -0.9769  0.9645
  713MOL0     H98374   4.515   4.051   4.452  1.5721  3.3258 -2.3017
  713MOL0     H98375   4.312   4.168   4.558 -0.0002  1.1671 -0.4750
  713MOL0     H98376   3.953   4.541   4.302  0.8028  0.1592  0.4222
  713MOL0     H98377   3.792   4.705   4.414 -0.6454  0.0814 -0.4807
  713MOL0     H98378   3.096   5.212   3.378 -0.7772  2.2382  1.5139
  713MOL0     H98379   3.118   5.164   3.155  2.7422 -1.1668  0.7333
  713MOL0     H98380   3.355   5.350   2.718  0.5608 -0.5896  2.8527
  713MOL0     H98381   3.477   5.271   2.520 -1.3598  2.3269  0.9529
  713MOL0     H98382   3.377   5.254   2.294 -1.6726 -0.0346  2.3615
  713MOL0     H98383   3.546   5.192   2.328  0.7598 -1.1285 -0.8568
  713MOL0     H98384   3.494   5.204   2.079 -0.5411  0.7712  0.5461
  713MOL0     H98385   3.377   5.073   2.093 -2.2930  2.1620  2.6349
  713MOL0     H98386   3.660   5.035   2.184  2.6301 -2.1686 -1.7682
  713MOL0     H98387   3.557   4.903   2.180  0.5228  1.0978  0.0443
  713MOL0     H98388   3.518   5.005   1.913  1.0917  3.1672 -0.5547
  713MOL0     H98389   3.639   4.878   1.957  1.5606  0.2673 -0.5575
  713MOL0     H98390   3.873   5.215   1.876 -2.3816 -0.2642 -4.4644
  713MOL0     H98391   3.239   4.925   2.514 -1.4010  0.1491 -0.3299
  713MOL0     H98392   3.003   5.011   2.719  0.2711  2.1266  3.1444
  713MOL0     H98393   3.098   4.866   2.681  1.1246  1.6967 -2.2514
  713MOL0     H98394   3.121   4.944   2.840 -1.6330 -0.1472  0.0318
  714MOL0     O98395   6.289   6.050   2.705  0.0085  0.5422 -1.1024
  714MOL0     C98396   6.324   6.138   2.789 -0.5623 -0.5399  0.0236
  714MOL0     O98397   6.413   6.122   2.889  0.1709 -0.5631  0.6822
  714MOL0     C98398   6.489   6.008   2.911 -0.1884  0.6149  0.5019
  714MOL0     C98399   6.465   5.912   3.016  0.9960 -0.2501  0.4503
  714MOL0     C98400   6.543   5.796   3.039  0.3531 -0.7841 -0.1446
  714MOL0     C98401   6.669   5.793   2.971  0.6847  0.5020  0.3737
  714MOL0     O98402   6.756   5.693   2.995  0.7047  0.7798 -0.1895
  714MOL0     C98403   6.713   5.557   3.013  0.4082  0.2312 -0.1252
  714MOL0     C98404   6.822   5.460   3.067  1.3970  0.1916 -0.0248
  714MOL0     C98405   6.872   5.514   3.202  0.3302  0.8256 -0.4137
  714MOL0     C98406   6.942   5.393   3.268 -0.3273 -1.1350 -0.6351
  714MOL0     C98407   6.985   5.397   3.412  1.0439  0.5881 -0.0288
  714MOL0     C98408   7.060   5.517   3.452 -0.3376  0.1210  0.6628
  714MOL0     C98409   7.072   5.537   3.610  0.1970 -0.6091  0.6084
  714MOL0     C98410   6.940   5.545   3.693  0.3408 -0.3684  0.6906
  714MOL0     N98411   6.871   5.672   3.673 -0.4147 -1.0027 -0.2574
  714MOL0     C98412   6.799   5.707   3.564  0.5944 -0.0812 -0.5145
  714MOL0     C98413   6.716   5.812   3.599 -0.6295  0.6959  0.1660
  714MOL0     C98414   6.613   5.883   3.512  0.3764  0.8010  1.1966
  714MOL0     C98415   6.631   5.869   3.359  0.8278 -0.5123  0.9138
  714MOL0     C98416   6.759   5.923   3.295  1.4631  0.4843  0.2509
  714MOL0     C98417   6.726   6.048   3.212 -0.5998  0.1788  0.2797
  714MOL0     O98418   6.692   6.166   3.284  0.3337 -0.2872 -0.3397
  714MOL0     C98419   6.799   6.226   3.347  0.2448  0.2594 -0.5702
  714MOL0     C98420   6.779   6.258   3.480  0.7379 -0.3038 -0.5891
  714MOL0     C98421   6.873   6.342   3.544  0.3952 -0.5983 -0.6096
  714MOL0     C98422   6.844   6.364   3.692 -0.0265  0.3033 -0.3211
  714MOL0     C98423   6.982   6.394   3.470 -0.5050 -0.1407  0.1022
  714MOL0     C98424   7.072   6.492   3.531 -0.6178 -0.1742  0.2309
  714MOL0     O98425   7.209   6.487   3.475 -0.3843 -0.6876  0.0664
  714MOL0     C98426   7.331   6.557   3.523  1.4130 -0.7805 -0.0132
  714MOL0     C98427   7.323   6.653   3.636  0.2037 -0.7152  0.6486
  714MOL0     C98428   7.435   6.713   3.685  0.2392  0.5137 -0.4624
  714MOL0     C98429   7.557   6.682   3.629 -0.0525  0.5118 -0.3655
  714MOL0     O98430   7.681   6.720   3.678  0.2367 -0.1352 -0.2756
  714MOL0     C98431   7.689   6.838   3.762  0.1966 -0.3524  0.0772
  714MOL0     C98432   7.827   6.875   3.757 -0.5936  0.9018  0.0079
  714MOL0     C98433   7.866   7.005   3.833 -0.0066  0.2322  0.7773
  714MOL0     C98434   7.827   7.121   3.752 -0.2665  0.4598 -0.0359
  714MOL0     C98435   7.953   7.199   3.701 -0.4190  0.4572 -0.7821
  714MOL0     C98436   7.920   7.309   3.607 -0.5153 -0.0605  0.0327
  714MOL0     C98437   8.027   7.326   3.496  0.0236 -0.0039  0.0082
  714MOL0     C98438   8.017   7.217   3.389 -0.5853 -0.1324  0.3557
  714MOL0    Cl98439   7.873   7.192   3.295 -0.0045 -0.2962  0.0128
  714MOL0     C98440   7.568   6.579   3.540  1.2471  1.0700  0.2946
  714MOL0     C98441   7.461   6.519   3.484  0.8441  0.1380 -0.0871
  714MOL0     O98442   7.036   6.569   3.627 -0.4495  0.4614  0.9095
  714MOL0     C98443   6.991   6.355   3.339  0.1532 -1.1272  0.6338
  714MOL0     C98444   6.911   6.263   3.279  0.1322 -0.0313 -0.2442
  714MOL0     N98445   6.745   5.835   3.735 -0.2239  0.4333 -0.0869
  714MOL0     N98446   6.830   5.754   3.773 -0.2804  0.4780  0.1513
  714MOL0     C98447   6.709   5.897   2.894 -0.1783 -1.1884  0.5740
  714MOL0     C98448   6.617   5.998   2.850  0.3194 -1.1597 -0.3817
  714MOL0     C98449   6.266   6.277   2.770  0.7995 -0.4787  0.4104
  714MOL0     C98450   6.149   6.287   2.682 -0.0553 -0.6723  0.3351
  714MOL0     C98451   6.080   6.404   2.678  0.1872  0.4178  0.2228
  714MOL0     C98452   6.112   6.520   2.756  0.6376  1.1029 -1.4204
  714MOL0     O98453   6.033   6.628   2.741 -0.1607  0.1931  0.6371
  714MOL0     C98454   6.097   6.758   2.779  0.4430  0.3885  0.3061
  714MOL0     C98455   5.995   6.862   2.749  0.2341  0.6706  0.5574
  714MOL0     C98456   6.038   7.000   2.787  0.1324 -0.6835 -0.1516
  714MOL0     C98457   5.915   7.099   2.764  0.4218  0.5132 -0.1451
  714MOL0     C98458   5.877   7.129   2.622  0.0915  0.1896 -0.8696
  714MOL0     C98459   5.856   7.156   2.502  0.6092 -0.5509 -0.2827
  714MOL0     C98460   6.224   6.508   2.841  0.0730 -0.4774  0.5202
  714MOL0     C98461   6.309   6.392   2.838  0.1983 -0.7826  0.1408
  714MOL0     C98462   6.446   6.413   2.893  0.0126 -0.6139 -0.5871
  714MOL0     H98463   6.362   5.908   3.050 -0.2850  3.3505 -2.3675
  714MOL0     H98464   6.499   5.714   3.094  0.8695  0.3373  2.0489
  714MOL0     H98465   6.669   5.523   2.918 -1.3300  2.6048 -0.2608
  714MOL0     H98466   6.637   5.565   3.091  2.3226  3.2428  1.6108
  714MOL0     H98467   6.783   5.358   3.072  0.6158  0.2634 -3.0067
  714MOL0     H98468   6.898   5.458   2.988 -1.1837  1.2840 -2.7113
  714MOL0     H98469   6.944   5.593   3.181 -0.6816  2.5834  2.2590
  714MOL0     H98470   6.785   5.554   3.255 -2.7737  1.5045 -5.3548
  714MOL0     H98471   6.881   5.303   3.257 -2.2907 -0.2122  1.8117
  714MOL0     H98472   7.039   5.381   3.219  0.7419  0.2246  1.0350
  714MOL0     H98473   7.046   5.308   3.428 -0.4055 -0.6060 -0.8539
  714MOL0     H98474   6.902   5.384   3.482  3.2387  1.5311  2.9790
  714MOL0     H98475   7.159   5.508   3.406 -1.3985 -0.5206 -1.6415
  714MOL0     H98476   7.007   5.598   3.400  4.1330  1.0140 -3.1898
  714MOL0     H98477   7.136   5.625   3.624  3.2792 -2.8073  1.3618
  714MOL0     H98478   7.133   5.464   3.663 -1.6913 -1.3180  1.9155
  714MOL0     H98479   6.874   5.460   3.674 -2.0775  0.7884  3.1402
  714MOL0     H98480   6.968   5.539   3.798 -4.5525 -2.8662  2.1372
  714MOL0     H98481   6.802   5.662   3.465  0.7012  0.3322 -0.7064
  714MOL0     H98482   6.623   5.988   3.540  0.5959  2.5107 -4.1619
  714MOL0     H98483   6.514   5.843   3.536  0.2919  1.1105  1.3665
  714MOL0     H98484   6.623   5.762   3.337  3.6970 -0.2540 -2.1180
  714MOL0     H98485   6.535   5.905   3.322 -0.6059 -4.2421  0.5829
  714MOL0     H98486   6.836   5.940   3.370  0.2880  1.3698  1.3104
  714MOL0     H98487   6.785   5.849   3.219  0.9208  0.6460 -0.1044
  714MOL0     H98488   6.816   6.060   3.151 -0.9290 -0.1981 -0.2878
  714MOL0     H98489   6.648   6.028   3.139  1.0561  1.6916 -2.0093
  714MOL0     H98490   6.688   6.224   3.527  1.2495 -1.0035 -0.0930
  714MOL0     H98491   6.936   6.369   3.752  0.5628 -1.0329 -1.0706
  714MOL0     H98492   6.785   6.281   3.731 -0.4236 -0.4529 -2.4039
  714MOL0     H98493   6.801   6.463   3.712  0.3371 -0.0267  2.5755
  714MOL0     H98494   7.229   6.691   3.673  0.0788  2.9265 -2.7081
  714MOL0     H98495   7.432   6.779   3.771  2.7360 -1.2390  1.1429
  714MOL0     H98496   7.634   6.927   3.730 -0.5266  0.4005  3.1444
  714MOL0     H98497   7.653   6.827   3.864 -2.1731 -0.1552 -0.6732
  714MOL0     H98498   7.900   6.797   3.783 -2.5381 -0.5885  1.2811
  714MOL0     H98499   7.859   6.893   3.654  2.1161 -0.2422  0.5444
  714MOL0     H98500   7.974   7.017   3.848  0.2806  1.2042 -1.5672
  714MOL0     H98501   7.817   7.002   3.931  0.6321  0.2550  1.1004
  714MOL0     H98502   7.763   7.182   3.817  0.2521  2.4363 -1.2902
  714MOL0     H98503   7.778   7.086   3.661 -1.4300 -0.2192  0.8339
  714MOL0     H98504   8.004   7.229   3.792 -0.2904  1.7423 -1.2590
  714MOL0     H98505   8.019   7.127   3.652 -2.0089 -0.2032 -2.0872
  714MOL0     H98506   7.916   7.403   3.663 -3.0794 -0.9168  1.4429
  714MOL0     H98507   7.821   7.290   3.565 -0.3380  0.3270 -0.5721
  714MOL0     H98508   8.129   7.334   3.537  0.4167  0.1319 -0.9558
  714MOL0     H98509   8.008   7.421   3.444  0.2694 -0.1322 -0.3212
  714MOL0     H98510   8.034   7.124   3.444  0.3972 -0.2904 -0.1909
  714MOL0     H98511   8.103   7.230   3.323  1.2578 -0.8165  2.5293
  714MOL0     H98512   7.660   6.535   3.505 -0.6385 -0.7062 -2.8907
  714MOL0     H98513   7.475   6.445   3.406  1.8399  0.9689 -0.7063
  714MOL0     H98514   7.074   6.389   3.278 -0.1307 -0.0507  0.8118
  714MOL0     H98515   6.941   6.236   3.178  0.7118 -2.6390  0.5707
  714MOL0     H98516   6.801   5.900   2.837 -0.1494  2.7295  0.5333
  714MOL0     H98517   6.653   6.078   2.788 -2.4284  1.1857  0.8198
  714MOL0     H98518   6.117   6.198   2.630  0.4138 -1.4926  1.4066
  714MOL0     H98519   5.991   6.395   2.617 -0.6178 -1.5766  1.5889
  714MOL0     H98520   6.130   6.768   2.883  4.4900  0.9474 -0.8376
  714MOL0     H98521   6.186   6.783   2.720 -0.8917  2.9208 -0.7738
  714MOL0     H98522   5.904   6.843   2.806  1.1416 -3.6024  0.9089
  714MOL0     H98523   5.967   6.854   2.644 -1.9664 -2.5699  1.2648
  714MOL0     H98524   6.072   7.024   2.888 -1.1093  0.8246 -0.0542
  714MOL0     H98525   6.122   7.043   2.732  1.1390  0.1798  1.9617
  714MOL0     H98526   5.930   7.194   2.817 -3.5819  0.5701  1.2254
  714MOL0     H98527   5.831   7.049   2.814  2.8033 -1.4136  2.2526
  714MOL0     H98528   5.875   7.192   2.403  1.8073  1.7050  0.6980
  714MOL0     H98529   6.259   6.595   2.895 -3.4465  0.5944  1.3628
  714MOL0     H98530   6.463   6.519   2.913 -0.8046 -0.1033 -2.3479
  714MOL0     H98531   6.452   6.343   2.977 -1.9407 -0.6751 -0.4429
  714MOL0     H98532   6.523   6.383   2.822  0.4287 -2.2492  0.5135
  715MOL0     O98533   8.011   9.722   0.151 -0.3731  0.2745 -0.1715
  715MOL0     C98534   7.964   9.616   0.192 -0.2795 -0.1355 -0.1469
  715MOL0     O98535   7.887   9.597   0.303  0.2162  0.4720 -0.1003
  715MOL0     C98536   7.824   9.718   0.344 -0.0712  0.1509 -0.8424
  715MOL0     C98537   7.867   9.783   0.466  0.6882 -0.4095  1.3013
  715MOL0     C98538   7.832   9.915   0.494  0.2771 -0.0334  1.3297
  715MOL0     C98539   7.748   9.984   0.404  0.2012  1.0794  1.7351
  715MOL0     O98540   7.730  10.117   0.436 -0.7016 -0.0228 -0.1308
  715MOL0     C98541   7.625  10.176   0.357  0.3542  0.7672 -0.4202
  715MOL0     C98542   7.590  10.325   0.390 -0.3715 -0.7492 -0.3746
  715MOL0     C98543   7.529  10.325   0.533  0.1680  1.0276 -0.7168
  715MOL0     C98544   7.477  10.463   0.561  0.1034 -0.0407  0.1463
  715MOL0     C98545   7.390  10.477   0.683 -0.5301 -0.3912  0.0070
  715MOL0     C98546   7.501  10.519   0.790  0.5821  0.6682  0.2428
  715MOL0     C98547   7.442  10.548   0.925 -0.5852  1.1554  1.2304
  715MOL0     C98548   7.383  10.420   0.984  0.6140  1.0217  1.0009
  715MOL0     N98549   7.351  10.410   1.128 -0.0014 -0.1340 -0.4056
  715MOL0     C98550   7.438  10.379   1.231  0.7872  0.1351  0.1055
  715MOL0     C98551   7.377  10.401   1.349  0.8085  1.1408  0.7474
  715MOL0     C98552   7.435  10.362   1.485 -0.9254  0.1639  0.6219
  715MOL0     C98553   7.343  10.264   1.566 -1.0234  0.6009  0.3958
  715MOL0     C98554   7.427  10.223   1.688 -0.6693  0.0027  0.7748
  715MOL0     C98555   7.338  10.152   1.789 -0.3511 -0.7353 -0.1225
  715MOL0     O98556   7.233  10.233   1.838  0.4508 -0.6510  0.3173
  715MOL0     C98557   7.156  10.185   1.946 -0.6292  0.1494 -0.1341
  715MOL0     C98558   7.143  10.049   1.986  0.5365 -0.8294  0.8673
  715MOL0     C98559   7.090  10.012   2.110  1.3510 -0.0882  0.3590
  715MOL0     C98560   7.084   9.853   2.136  0.1606 -0.2816  0.3184
  715MOL0     C98561   7.033  10.109   2.196 -0.2499  1.0054  0.3133
  715MOL0     C98562   6.947  10.085   2.319  0.1614  0.7064 -0.7976
  715MOL0     O98563   6.962  10.165   2.425  0.2578  0.2065  0.1626
  715MOL0     C98564   6.894  10.138   2.546 -0.5304  0.1449  0.6293
  715MOL0     C98565   6.924  10.027   2.627  0.2597 -0.1661  0.5593
  715MOL0     C98566   6.865  10.015   2.755 -0.2882  0.1048  0.0948
  715MOL0     C98567   6.781  10.117   2.794 -0.4916 -0.1348  0.0494
  715MOL0     O98568   6.762  10.108   2.930 -0.0287  0.1135 -0.2267
  715MOL0     C98569   6.678  10.212   2.988  0.3089 -0.0620  0.1609
  715MOL0     C98570   6.761  10.335   3.016  0.6570 -0.7614 -0.6396
  715MOL0     C98571   6.755  10.393   3.157 -1.5925 -0.6636 -0.3083
  715MOL0     C98572   6.865  10.502   3.200 -0.4000 -0.1607  0.1115
  715MOL0     C98573   6.850  10.635   3.125 -0.4496  0.2357 -0.5557
  715MOL0     C98574   6.866  10.761   3.213 -0.5155 -0.4762  0.8691
  715MOL0     C98575   6.928  10.863   3.121  0.2255 -0.0517 -0.3683
  715MOL0     C98576   6.909  11.009   3.186 -0.0906  0.0638  0.2684
  715MOL0    Cl98577   7.008  11.027   3.334 -0.0951  0.4548  0.3379
  715MOL0     C98578   6.737  10.216   2.702  0.1553 -0.4454 -0.5266
  715MOL0     C98579   6.788  10.224   2.578 -0.2711  0.8746  0.3456
  715MOL0     O98580   6.867   9.990   2.313 -0.6134  0.7304  0.8089
  715MOL0     C98581   7.052  10.244   2.156 -0.0952  0.1471 -0.3098
  715MOL0     C98582   7.108  10.274   2.034  1.2198 -1.1194 -0.3069
  715MOL0     N98583   7.251  10.432   1.320 -0.3663  0.6102 -0.4853
  715MOL0     N98584   7.237  10.436   1.187  1.0045  0.3498  0.4751
  715MOL0     C98585   7.716   9.918   0.280  1.5989 -0.0623 -0.3360
  715MOL0     C98586   7.749   9.788   0.253  0.3912  0.3621 -0.7442
  715MOL0     C98587   7.994   9.501   0.101  0.2341 -0.4356  0.7137
  715MOL0     C98588   7.919   9.381   0.120 -0.5772 -0.0403 -0.5799
  715MOL0     C98589   7.934   9.266   0.052  0.3372  0.0829  0.3765
  715MOL0     C98590   7.993   9.272  -0.074  0.5479  0.2375 -0.2505
  715MOL0     O98591   7.987   9.164  -0.159 -0.2770  0.1931 -0.2387
  715MOL0     C98592   8.029   9.180  -0.300  0.2646  0.5924 -0.5343
  715MOL0     C98593   8.024   9.039  -0.361  0.7162  0.3744 -1.4048
  715MOL0     C98594   8.128   8.950  -0.277  0.6883 -0.6844  0.6518
  715MOL0     C98595   8.093   8.806  -0.324 -0.1265 -0.3675  0.5091
  715MOL0     C98596   8.204   8.731  -0.286 -0.5157 -0.2137 -0.0960
  715MOL0     C98597   8.312   8.669  -0.271 -0.2906  0.3266 -0.5181
  715MOL0     C98598   8.071   9.390  -0.103  0.2064 -0.8924 -0.6543
  715MOL0     C98599   8.075   9.504  -0.014  0.0511  0.1270  0.5217
  715MOL0     C98600   8.171   9.603  -0.056  0.5806 -0.6423  0.1977
  715MOL0     H98601   7.943   9.743   0.531 -0.0834 -0.2729  2.3101
  715MOL0     H98602   7.884   9.965   0.575  1.7057  1.3530 -0.3478
  715MOL0     H98603   7.531  10.123   0.374 -0.7776  2.6143 -0.6372
  715MOL0     H98604   7.660  10.169   0.254 -1.4048 -2.1500 -0.9351
  715MOL0     H98605   7.689  10.370   0.399 -0.2907 -0.9125 -0.4722
  715MOL0     H98606   7.533  10.387   0.320  0.6397  0.5077 -0.1201
  715MOL0     H98607   7.441  10.261   0.540  0.7598  0.3932  2.5518
  715MOL0     H98608   7.608  10.300   0.604  1.5582  3.3850 -1.3200
  715MOL0     H98609   7.565  10.529   0.563 -2.4636  3.8024 -1.6580
  715MOL0     H98610   7.409  10.488   0.479 -0.6584 -1.9663  0.1303
  715MOL0     H98611   7.345  10.386   0.723 -0.2087  0.4475  2.4712
  715MOL0     H98612   7.311  10.552   0.669 -1.2678 -1.1060  0.2659
  715MOL0     H98613   7.579  10.444   0.808  0.4153  0.3698 -0.2640
  715MOL0     H98614   7.533  10.612   0.743 -3.4955  1.7908 -0.6946
  715MOL0     H98615   7.366  10.626   0.914 -0.7838  0.5803 -3.3814
  715MOL0     H98616   7.514  10.590   0.996  0.9077  1.3616 -0.3403
  715MOL0     H98617   7.306  10.381   0.917  0.1221  1.9992  0.9843
  715MOL0     H98618   7.461  10.344   0.970 -0.0336  0.6690 -1.0356
  715MOL0     H98619   7.542  10.353   1.211  0.6376  0.1862 -0.7894
  715MOL0     H98620   7.440  10.456   1.540 -0.5858  4.4406 -5.6613
  715MOL0     H98621   7.538  10.326   1.477  0.5910  3.3508  3.3468
  715MOL0     H98622   7.245  10.308   1.587 -2.2312 -0.8434 -1.7006
  715MOL0     H98623   7.319  10.182   1.497  2.5351  0.4594 -0.8899
  715MOL0     H98624   7.520  10.168   1.673 -1.3249 -1.1080  0.6975
  715MOL0     H98625   7.454  10.318   1.734  1.1978  0.0837 -0.3756
  715MOL0     H98626   7.290  10.063   1.747  1.7177 -2.2167  0.4822
  715MOL0     H98627   7.398  10.117   1.874  0.2109 -1.1073 -0.6682
  715MOL0     H98628   7.183   9.971   1.922  0.6698 -0.7845  0.8949
  715MOL0     H98629   6.987   9.824   2.177 -0.9340  0.1972 -1.7687
  715MOL0     H98630   7.161   9.824   2.208 -1.2169 -1.8292  1.2139
  715MOL0     H98631   7.102   9.795   2.045 -0.7437 -0.6047  0.3397
  715MOL0     H98632   7.013   9.969   2.603  0.0955 -0.1878 -0.0103
  715MOL0     H98633   6.904   9.946   2.830  2.2232  0.5616 -0.6834
  715MOL0     H98634   6.596  10.244   2.922 -0.9904  2.9448  2.9349
  715MOL0     H98635   6.649  10.183   3.090 -0.8654  1.1708  0.2107
  715MOL0     H98636   6.867  10.318   2.995  1.5550 -1.6936  3.6245
  715MOL0     H98637   6.732  10.407   2.939  1.5889  0.3493  0.0054
  715MOL0     H98638   6.745  10.318   3.236 -1.8789 -0.7035 -0.3809
  715MOL0     H98639   6.656  10.440   3.163 -2.1047 -1.8143  4.9825
  715MOL0     H98640   6.969  10.473   3.184  0.1335  1.7063 -0.1197
  715MOL0     H98641   6.860  10.520   3.308 -1.6283  0.0243  0.0437
  715MOL0     H98642   6.926  10.637   3.047 -0.6309  0.3846 -0.7281
  715MOL0     H98643   6.750  10.628   3.081 -0.9261  0.0188  0.5123
  715MOL0     H98644   6.938  10.744   3.294  0.7272 -1.3944 -0.3748
  715MOL0     H98645   6.767  10.789   3.250 -1.4160 -2.3423  0.0138
  715MOL0     H98646   6.872  10.856   3.027 -1.0079  0.8366  0.2792
  715MOL0     H98647   7.035  10.841   3.112  0.1502 -0.6751  0.1987
  715MOL0     H98648   6.804  11.034   3.203 -0.6293 -0.9200 -1.3653
  715MOL0     H98649   6.941  11.088   3.118 -4.1637 -0.1475 -2.2349
  715MOL0     H98650   6.668  10.297   2.726  3.0617  2.0174  0.2332
  715MOL0     H98651   6.740  10.310   2.532 -1.0839  0.2902  0.0704
  715MOL0     H98652   7.010  10.318   2.223  1.1365  0.9213 -0.3568
  715MOL0     H98653   7.103  10.374   1.993  1.3906 -1.4800 -1.2329
  715MOL0     H98654   7.664   9.976   0.204  1.9747 -1.1865 -1.4930
  715MOL0     H98655   7.720   9.763   0.151 -2.6470  0.6761 -0.0270
  715MOL0     H98656   7.852   9.384   0.206  0.1241  0.0080 -0.0274
  715MOL0     H98657   7.883   9.179   0.092  1.3769  0.2922  2.2872
  715MOL0     H98658   7.958   9.250  -0.346 -0.2966  1.3781  1.4276
  715MOL0     H98659   8.127   9.227  -0.315 -0.2382  1.9610  0.3317
  715MOL0     H98660   8.048   9.048  -0.467 -1.6769  0.8607 -1.9610
  715MOL0     H98661   7.917   9.015  -0.360  0.2085  2.3854  0.8740
  715MOL0     H98662   8.224   8.984  -0.318  0.1441 -2.5560 -2.5221
  715MOL0     H98663   8.118   8.950  -0.168 -2.1376  0.9859  0.4775
  715MOL0     H98664   8.084   8.797  -0.433  0.2784  1.1779  0.3141
  715MOL0     H98665   8.005   8.764  -0.275  0.3789 -1.3689  0.5763
  715MOL0     H98666   8.405   8.621  -0.247  0.5333  1.7430 -0.7648
  715MOL0     H98667   8.127   9.404  -0.195 -1.4474 -0.2308 -1.5947
  715MOL0     H98668   8.192   9.679   0.020  2.1379  0.9479 -1.7124
  715MOL0     H98669   8.272   9.564  -0.071  0.4737 -1.2094  0.8903
  715MOL0     H98670   8.141   9.646  -0.151  1.8104 -0.5298 -0.1530
  716MOL0     O98671   5.559   5.335   1.120  0.3298 -0.1348 -0.0253
  716MOL0     C98672   5.653   5.279   1.175 -1.1587  0.2452  0.1449
  716MOL0     O98673   5.659   5.267   1.311  0.3792  0.8380  0.1044
  716MOL0     C98674   5.608   5.356   1.394  0.2498 -0.4217  0.2376
  716MOL0     C98675   5.575   5.308   1.520  0.5548 -0.0554  0.1522
  716MOL0     C98676   5.538   5.397   1.625  0.1663  1.2191 -0.0553
  716MOL0     C98677   5.521   5.535   1.594  0.1096 -0.6386 -0.8725
  716MOL0     O98678   5.473   5.614   1.697  0.4708  0.7356  0.8649
  716MOL0     C98679   5.456   5.763   1.685  0.8752  0.1221  0.4757
  716MOL0     C98680   5.588   5.835   1.713 -0.8868 -0.6554 -0.0574
  716MOL0     C98681   5.552   5.982   1.689 -0.1804 -0.0659  0.0443
  716MOL0     C98682   5.669   6.081   1.713 -0.4475 -0.5677  0.1705
  716MOL0     C98683   5.639   6.216   1.660  0.8323  0.1327  0.5077
  716MOL0     C98684   5.727   6.334   1.705 -0.7978 -0.5294  0.2140
  716MOL0     C98685   5.680   6.476   1.651  1.0267  0.4895  0.6826
  716MOL0     C98686   5.537   6.513   1.707 -0.7796 -1.3450  0.0718
  716MOL0     N98687   5.424   6.437   1.654  0.9669 -0.1421 -0.2186
  716MOL0     C98688   5.399   6.423   1.523  0.5866 -0.5861  1.4744
  716MOL0     C98689   5.297   6.327   1.514  0.7492  0.4977 -0.2473
  716MOL0     C98690   5.257   6.258   1.378 -1.1511  0.2183  0.2463
  716MOL0     C98691   5.131   6.165   1.385 -0.4668 -0.5932 -0.0650
  716MOL0     C98692   5.183   6.021   1.363 -0.6062 -0.4642 -1.3681
  716MOL0     C98693   5.069   5.918   1.364 -0.3984  0.2964  0.6699
  716MOL0     O98694   5.123   5.789   1.320 -0.5586 -0.0904  0.1257
  716MOL0     C98695   5.147   5.676   1.399  0.1904  0.3545  0.1567
  716MOL0     C98696   5.089   5.664   1.528  0.4769 -0.3382 -0.5431
  716MOL0     C98697   5.099   5.554   1.618 -0.6519 -0.8112  0.5770
  716MOL0     C98698   5.028   5.573   1.748 -0.2505  0.5230 -0.6384
  716MOL0     C98699   5.177   5.446   1.574 -1.1265  0.7864  0.8895
  716MOL0     C98700   5.203   5.316   1.641 -0.3763  0.5873  0.5728
  716MOL0     O98701   5.226   5.199   1.567  0.7169 -0.8023 -0.1767
  716MOL0     C98702   5.279   5.081   1.621  0.7304 -0.0284  0.0957
  716MOL0     C98703   5.372   5.083   1.728  0.9254  0.3061  1.1318
  716MOL0     C98704   5.401   4.962   1.796 -0.3593  0.2809  0.2804
  716MOL0     C98705   5.374   4.839   1.736  0.2558  0.2163 -0.7900
  716MOL0     O98706   5.428   4.726   1.806 -0.7282  0.6576 -0.3403
  716MOL0     C98707   5.338   4.614   1.832 -1.2372 -0.5670 -0.0129
  716MOL0     C98708   5.429   4.499   1.899  0.3778  0.3606  0.4743
  716MOL0     C98709   5.345   4.362   1.920 -0.1372  0.2454  0.2816
  716MOL0     C98710   5.432   4.243   1.950  0.4760  0.4211  0.4742
  716MOL0     C98711   5.521   4.193   1.832 -0.8079 -0.4456  0.2790
  716MOL0     C98712   5.455   4.145   1.705  0.1432 -0.0149 -0.2167
  716MOL0     C98713   5.561   4.126   1.588 -0.1977 -0.4248 -1.3389
  716MOL0     C98714   5.661   4.007   1.609  0.6697 -0.9340 -0.7099
  716MOL0    Cl98715   5.629   3.861   1.515  0.1558  0.0759 -0.2900
  716MOL0     C98716   5.299   4.840   1.624 -0.0492 -0.0348  0.6242
  716MOL0     C98717   5.247   4.954   1.570 -0.3392 -0.5330  0.4277
  716MOL0     O98718   5.216   5.325   1.759  0.4619 -0.1506 -0.2307
  716MOL0     C98719   5.230   5.448   1.436  0.7358 -0.8934  0.0235
  716MOL0     C98720   5.217   5.566   1.351 -0.5077  0.6166 -0.4404
  716MOL0     N98721   5.251   6.305   1.643 -1.4346 -0.4647 -0.4559
  716MOL0     N98722   5.329   6.378   1.721  0.3166  0.6048  0.0280
  716MOL0     C98723   5.561   5.585   1.465  0.9425  0.2625 -0.7492
  716MOL0     C98724   5.608   5.496   1.367 -0.2487  0.0832 -0.2663
  716MOL0     C98725   5.756   5.216   1.102  0.1841 -0.4017 -0.1476
  716MOL0     C98726   5.883   5.196   1.170  0.5216  0.2994 -0.5049
  716MOL0     C98727   5.991   5.134   1.112  0.1284  1.3108  0.3705
  716MOL0     C98728   5.989   5.109   0.970  0.3580  0.6717 -1.1247
  716MOL0     O98729   6.087   5.060   0.894  0.3078  0.2444  0.7392
  716MOL0     C98730   6.226   5.098   0.913 -0.0695 -0.5442 -0.1326
  716MOL0     C98731   6.264   5.167   0.787 -0.2104  0.1367 -0.9425
  716MOL0     C98732   6.394   5.252   0.820  0.3883  0.1552  1.0314
  716MOL0     C98733   6.523   5.171   0.861 -0.7345  0.4898 -0.3506
  716MOL0     C98734   6.556   5.074   0.744 -0.7072 -0.4836 -0.6902
  716MOL0     C98735   6.588   4.992   0.665 -0.4032 -0.1389 -0.0332
  716MOL0     C98736   5.859   5.114   0.907  0.4124  0.9711 -0.7103
  716MOL0     C98737   5.745   5.167   0.970  0.0782 -0.3100  0.5282
  716MOL0     C98738   5.613   5.162   0.895 -0.3020 -0.7787 -0.0143
  716MOL0     H98739   5.579   5.202   1.541 -1.2570 -0.2367 -0.2969
  716MOL0     H98740   5.515   5.369   1.727 -0.2068  3.4676  0.5242
  716MOL0     H98741   5.379   5.791   1.758  1.5994  0.2189  1.2217
  716MOL0     H98742   5.416   5.793   1.588 -2.0989 -1.5357  1.0828
  716MOL0     H98743   5.609   5.805   1.816  1.5620 -0.4491 -0.4423
  716MOL0     H98744   5.674   5.809   1.651  2.9073 -5.2622  5.9310
  716MOL0     H98745   5.522   5.981   1.584  0.9010 -1.8623 -0.2986
  716MOL0     H98746   5.466   6.018   1.745  1.0142 -2.4047  3.7951
  716MOL0     H98747   5.681   6.102   1.819 -1.5461  1.9708 -0.1308
  716MOL0     H98748   5.759   6.048   1.661 -0.7261 -0.9244 -0.0891
  716MOL0     H98749   5.532   6.234   1.679  0.0197 -0.1914 -3.0759
  716MOL0     H98750   5.644   6.212   1.551  1.5461 -1.1452  0.5723
  716MOL0     H98751   5.724   6.342   1.814 -2.1139  2.0148  0.0702
  716MOL0     H98752   5.832   6.322   1.679 -0.6861  1.5432 -0.4513
  716MOL0     H98753   5.674   6.457   1.543  0.8944 -1.3175  0.9771
  716MOL0     H98754   5.745   6.558   1.681  1.2267 -0.3711  2.7960
  716MOL0     H98755   5.541   6.480   1.812  1.2966 -0.3420  0.3659
  716MOL0     H98756   5.522   6.621   1.699 -1.8040 -1.4408  0.5520
  716MOL0     H98757   5.454   6.467   1.441 -0.8150 -0.5691  0.5281
  716MOL0     H98758   5.348   6.197   1.375 -0.3840  1.3343  0.3436
  716MOL0     H98759   5.248   6.325   1.293 -1.9243 -0.8465 -0.5499
  716MOL0     H98760   5.088   6.177   1.485  1.7125  0.0160  0.8757
  716MOL0     H98761   5.053   6.198   1.316 -1.4910 -0.4799  1.0999
  716MOL0     H98762   5.224   6.021   1.262 -0.4000  2.1851 -1.3342
  716MOL0     H98763   5.264   5.998   1.433 -2.4847  1.7220  1.7658
  716MOL0     H98764   5.021   5.912   1.462  0.4007  0.6298  1.0920
  716MOL0     H98765   4.989   5.956   1.301  0.7032  1.5580 -0.0304
  716MOL0     H98766   5.030   5.739   1.580 -0.3170 -0.0496 -1.8098
  716MOL0     H98767   4.998   5.476   1.789 -0.4464 -0.0820 -2.1527
  716MOL0     H98768   4.940   5.636   1.731 -1.3613 -1.9089 -6.5854
  716MOL0     H98769   5.095   5.621   1.820 -0.6864  3.7025 -2.1758
  716MOL0     H98770   5.403   5.179   1.767  4.9436 -0.5544  0.4341
  716MOL0     H98771   5.455   4.974   1.889 -1.9854  2.4740  1.0312
  716MOL0     H98772   5.256   4.633   1.902  0.7011  0.5356  2.1354
  716MOL0     H98773   5.303   4.573   1.737  0.1304 -0.5204 -0.5561
  716MOL0     H98774   5.518   4.482   1.837 -0.0006  1.6883 -0.4927
  716MOL0     H98775   5.461   4.521   2.001  0.1381 -2.8972  1.3384
  716MOL0     H98776   5.286   4.336   1.831 -0.9040  4.7963 -0.7694
  716MOL0     H98777   5.275   4.378   2.003 -1.6931 -0.1533 -0.9106
  716MOL0     H98778   5.367   4.159   1.977  0.8615  0.2221  0.7978
  716MOL0     H98779   5.500   4.254   2.034  1.6120  0.9642 -0.4911
  716MOL0     H98780   5.594   4.272   1.812 -3.1080  1.8096  0.2754
  716MOL0     H98781   5.571   4.099   1.857 -1.4489 -1.0866 -0.7612
  716MOL0     H98782   5.388   4.221   1.665 -2.2783 -0.7727  2.1330
  716MOL0     H98783   5.397   4.053   1.708 -2.0050  1.2779 -0.4420
  716MOL0     H98784   5.617   4.220   1.583 -2.3848  1.3085  2.3016
  716MOL0     H98785   5.504   4.122   1.495 -0.2042  2.4677 -1.5434
  716MOL0     H98786   5.655   3.980   1.715 -0.0280 -1.0954 -0.7892
  716MOL0     H98787   5.766   4.031   1.590  1.9317 -5.0484 -0.0501
  716MOL0     H98788   5.277   4.741   1.584 -0.2744  0.9985 -2.0379
  716MOL0     H98789   5.188   4.944   1.479 -0.1817  0.5253  0.2050
  716MOL0     H98790   5.284   5.366   1.388  0.5919 -1.2132  0.4045
  716MOL0     H98791   5.242   5.577   1.246 -0.8687  1.8318 -0.4142
  716MOL0     H98792   5.575   5.687   1.431 -0.6409  0.7029 -0.1608
  716MOL0     H98793   5.636   5.548   1.275  1.4555  1.2023  0.8169
  716MOL0     H98794   5.896   5.231   1.272 -0.6526 -0.5945 -0.0273
  716MOL0     H98795   6.088   5.127   1.160 -0.0528 -2.7356  0.4866
  716MOL0     H98796   6.249   5.176   0.986  0.3230  2.1119 -2.8967
  716MOL0     H98797   6.288   5.013   0.941  2.5894  1.4919  0.6196
  716MOL0     H98798   6.183   5.227   0.747  0.0583  0.9136 -0.3348
  716MOL0     H98799   6.297   5.094   0.711 -0.7543 -0.5151 -0.5654
  716MOL0     H98800   6.418   5.308   0.728  0.3837 -1.2925  0.1251
  716MOL0     H98801   6.376   5.332   0.892  0.6224  2.4413 -1.2628
  716MOL0     H98802   6.500   5.139   0.963  2.7885 -0.2482  0.3261
  716MOL0     H98803   6.613   5.232   0.873  0.5162 -1.6831  2.1979
  716MOL0     H98804   6.617   4.921   0.591  0.4764  0.0565  0.1100
  716MOL0     H98805   5.865   5.071   0.808 -2.0182 -2.6543  0.5205
  716MOL0     H98806   5.610   5.115   0.796 -0.5113 -0.1011 -0.3317
  716MOL0     H98807   5.551   5.093   0.953  0.0282 -1.2846 -0.2563
  716MOL0     H98808   5.560   5.257   0.881 -0.9503 -0.8495  1.7522
  717MOL0     O98809   2.027   6.587   6.740  0.7911 -0.2012  0.1154
  717MOL0     C98810   2.142   6.623   6.738 -0.6062 -0.1830 -0.5444
  717MOL0     O98811   2.231   6.605   6.850  0.1369 -0.6902  0.4397
  717MOL0     C98812   2.197   6.499   6.929 -0.2923  0.6084 -0.6008
  717MOL0     C98813   2.159   6.518   7.061  0.2644 -0.3995 -0.3033
  717MOL0     C98814   2.102   6.418   7.138  0.3319 -0.4102  0.6507
  717MOL0     C98815   2.104   6.288   7.088 -0.0490 -0.4852  0.4362
  717MOL0     O98816   2.053   6.186   7.160 -0.7563 -0.5596 -0.2088
  717MOL0     C98817   2.158   6.104   7.212 -0.0740 -0.0276  0.5969
  717MOL0     C98818   2.109   5.997   7.312  0.4427  0.3564 -0.4332
  717MOL0     C98819   2.014   5.897   7.238  0.7447 -0.0205  0.3708
  717MOL0     C98820   1.984   5.787   7.339  0.2380  0.0739  0.1259
  717MOL0     C98821   1.837   5.771   7.382  0.8697  0.3198  0.3915
  717MOL0     C98822   1.789   5.891   7.480 -0.0002  0.6165  0.0394
  717MOL0     C98823   1.632   5.906   7.492 -0.3354  0.3562 -0.8426
  717MOL0     C98824   1.555   5.776   7.505  0.6499  0.2446 -0.2439
  717MOL0     N98825   1.555   5.710   7.630  0.8245  0.2428 -0.2928
  717MOL0     C98826   1.494   5.763   7.743  0.2630  0.3621  0.2115
  717MOL0     C98827   1.511   5.667   7.837  0.4339 -0.6046 -0.3478
  717MOL0     C98828   1.467   5.673   7.977  0.4826 -0.1481  0.3962
  717MOL0     C98829   1.430   5.819   8.013 -0.2713 -0.5983 -0.7121
  717MOL0     C98830   1.386   5.830   8.164 -0.2267 -1.3820  0.2362
  717MOL0     C98831   1.298   5.953   8.182 -0.3216 -0.0831  0.8253
  717MOL0     O98832   1.370   6.079   8.169  0.2926  0.2403 -0.2642
  717MOL0     C98833   1.280   6.183   8.158 -0.1313  0.2513 -0.1949
  717MOL0     C98834   1.223   6.239   8.275  0.4246 -0.4944  0.5241
  717MOL0     C98835   1.116   6.330   8.264 -0.3111  0.3433  0.4750
  717MOL0     C98836   1.073   6.408   8.389 -1.0557 -0.0138 -0.3452
  717MOL0     C98837   1.065   6.361   8.137 -0.6773 -0.6277 -0.2813
  717MOL0     C98838   0.980   6.476   8.112  0.3621  0.9773 -0.1207
  717MOL0     O98839   0.975   6.518   7.979 -0.5283  0.3286  0.0672
  717MOL0     C98840   0.918   6.644   7.949 -0.5882 -0.3605  0.0089
  717MOL0     C98841   0.992   6.733   7.873 -0.8530 -0.3864 -0.0760
  717MOL0     C98842   0.945   6.861   7.844 -0.0047  0.1149  0.6863
  717MOL0     C98843   0.815   6.895   7.885 -0.2528 -0.2258  0.3318
  717MOL0     O98844   0.770   7.018   7.856 -0.5396 -0.1283  0.3194
  717MOL0     C98845   0.752   7.106   7.967  0.4140 -0.9382 -0.5359
  717MOL0     C98846   0.681   7.229   7.909 -0.3164  0.6643 -0.0736
  717MOL0     C98847   0.552   7.188   7.849  0.4540  0.9055 -0.2414
  717MOL0     C98848   0.473   7.307   7.785  0.4608  0.6307 -0.5004
  717MOL0     C98849   0.347   7.254   7.713 -0.0099 -0.7121  0.8455
  717MOL0     C98850   0.377   7.197   7.567  0.5556 -0.0832 -0.2582
  717MOL0     C98851   0.257   7.163   7.482 -0.2785  0.4923  0.1363
  717MOL0     C98852   0.190   7.289   7.431 -0.4861 -0.5319 -0.5140
  717MOL0    Cl98853   0.109   7.246   7.272  0.3896 -0.2072  0.1539
  717MOL0     C98854   0.739   6.809   7.962  0.5816 -0.7296  0.4548
  717MOL0     C98855   0.789   6.688   7.992 -0.0060 -0.4628 -0.0588
  717MOL0     O98856   0.920   6.528   8.202  0.0068  0.2717  0.3770
  717MOL0     C98857   1.135   6.302   8.024  0.3815 -1.1115  0.1120
  717MOL0     C98858   1.229   6.206   8.026  0.4034  0.3907 -0.1253
  717MOL0     N98859   1.587   5.572   7.778 -0.2299  0.0851  0.1949
  717MOL0     N98860   1.610   5.586   7.656 -0.0035  0.3862  0.3913
  717MOL0     C98861   2.155   6.262   6.963  0.1471 -0.6091  1.2765
  717MOL0     C98862   2.190   6.365   6.883 -0.4288  0.0328 -0.3211
  717MOL0     C98863   2.192   6.681   6.609 -0.3736  0.8968  0.1692
  717MOL0     C98864   2.298   6.770   6.612  0.5326 -0.0038 -0.5197
  717MOL0     C98865   2.357   6.833   6.496  0.1473  0.3499 -0.2629
  717MOL0     C98866   2.307   6.793   6.371 -0.7087 -0.0028  0.8189
  717MOL0     O98867   2.364   6.861   6.267  0.3236  0.0143  0.1553
  717MOL0     C98868   2.344   6.814   6.136  0.1287  0.7041  0.6108
  717MOL0     C98869   2.435   6.882   6.034  0.9940  0.0474  0.6029
  717MOL0     C98870   2.411   7.030   6.049 -0.8780 -0.2666  0.8492
  717MOL0     C98871   2.512   7.107   5.956  0.1086 -0.5984  0.7572
  717MOL0     C98872   2.478   7.248   5.964 -0.8261 -1.0351  0.4778
  717MOL0     C98873   2.445   7.366   5.957 -0.4420 -0.1116 -0.2038
  717MOL0     C98874   2.192   6.706   6.362 -0.6795  0.7485 -0.0090
  717MOL0     C98875   2.134   6.655   6.479 -0.2598  0.2357  0.2231
  717MOL0     C98876   2.009   6.580   6.464  0.8288 -0.4903 -0.0509
  717MOL0     H98877   2.170   6.623   7.087  0.8292 -0.0726 -1.7712
  717MOL0     H98878   2.051   6.447   7.230 -3.9322  1.9022 -2.1262
  717MOL0     H98879   2.228   6.173   7.260  0.2756  0.6679 -0.8774
  717MOL0     H98880   2.219   6.056   7.135 -0.8166 -1.2291  0.7374
  717MOL0     H98881   2.198   5.950   7.356 -1.4517 -0.1126  3.3523
  717MOL0     H98882   2.055   6.044   7.395 -0.2355 -0.4240 -0.4217
  717MOL0     H98883   1.922   5.949   7.212 -0.7966 -2.6543  0.2148
  717MOL0     H98884   2.063   5.850   7.153 -0.7244  2.3013 -1.8968
  717MOL0     H98885   2.024   5.690   7.307  3.9870  0.8792  1.7599
  717MOL0     H98886   2.038   5.803   7.432  0.7842 -0.8417 -0.0220
  717MOL0     H98887   1.829   5.677   7.437 -3.0969 -0.8892 -1.8977
  717MOL0     H98888   1.771   5.760   7.296 -1.9649  6.1645  1.3114
  717MOL0     H98889   1.826   5.868   7.580 -0.4378  3.0049  0.8367
  717MOL0     H98890   1.834   5.987   7.452 -0.3774  0.9296  0.4953
  717MOL0     H98891   1.604   5.965   7.404  1.8168  1.7097 -0.6744
  717MOL0     H98892   1.608   5.957   7.585 -1.0938 -1.7667  0.1957
  717MOL0     H98893   1.448   5.794   7.491  0.6185 -0.0365 -0.3804
  717MOL0     H98894   1.577   5.708   7.422 -3.9275  0.3961 -1.8834
  717MOL0     H98895   1.456   5.864   7.744 -0.8728  0.0255 -1.7002
  717MOL0     H98896   1.542   5.637   8.048  0.6865  0.5342  0.5370
  717MOL0     H98897   1.380   5.608   7.988 -0.6790  1.1649 -0.7077
  717MOL0     H98898   1.515   5.886   7.998 -0.4663 -1.0719 -5.1186
  717MOL0     H98899   1.346   5.848   7.950 -1.1610  2.6603  1.6745
  717MOL0     H98900   1.343   5.736   8.201  1.3639 -2.1031  0.3174
  717MOL0     H98901   1.476   5.854   8.221 -0.2626 -0.0762 -0.2385
  717MOL0     H98902   1.221   5.946   8.105  0.5755  1.1239 -0.2255
  717MOL0     H98903   1.256   5.947   8.283 -1.0179 -1.7502  0.4764
  717MOL0     H98904   1.267   6.206   8.368  0.8162 -2.4249 -0.3025
  717MOL0     H98905   1.090   6.516   8.389 -2.7611  0.4159  3.2842
  717MOL0     H98906   1.128   6.379   8.480 -0.9135  0.7152 -0.1866
  717MOL0     H98907   0.964   6.410   8.395 -1.0544 -0.1849 -0.2285
  717MOL0     H98908   1.082   6.699   7.823 -2.0518 -2.0173 -1.2283
  717MOL0     H98909   1.007   6.935   7.794 -0.0558  0.3339  0.9468
  717MOL0     H98910   0.688   7.075   8.051  1.9346  1.3153  1.6033
  717MOL0     H98911   0.844   7.136   8.017 -0.5410  0.0069  0.7354
  717MOL0     H98912   0.671   7.306   7.985 -0.4802 -0.3707  0.9856
  717MOL0     H98913   0.738   7.275   7.828 -0.2433  0.6927 -0.0064
  717MOL0     H98914   0.500   7.126   7.923 -3.0197  1.4522 -1.9983
  717MOL0     H98915   0.570   7.117   7.767 -3.0080 -2.9262  1.9338
  717MOL0     H98916   0.537   7.363   7.717  3.8730 -1.5332  0.7075
  717MOL0     H98917   0.427   7.365   7.866 -0.0950  0.2721 -0.5556
  717MOL0     H98918   0.296   7.186   7.782  1.1805 -1.7901  0.7083
  717MOL0     H98919   0.291   7.347   7.699  2.0238  0.4566 -0.1800
  717MOL0     H98920   0.453   7.118   7.576  0.0019 -0.7542 -1.2697
  717MOL0     H98921   0.432   7.272   7.510  1.6227 -1.1497 -0.6818
  717MOL0     H98922   0.175   7.107   7.529 -2.5438  3.7579  0.4690
  717MOL0     H98923   0.293   7.104   7.398 -0.6668  1.0417 -0.4180
  717MOL0     H98924   0.259   7.372   7.416 -1.5250  0.2411 -1.1339
  717MOL0     H98925   0.116   7.333   7.498 -0.7054  2.3383 -2.4569
  717MOL0     H98926   0.638   6.839   7.986  1.7401  0.7158  4.2716
  717MOL0     H98927   0.724   6.623   8.049 -1.2214 -0.5219 -1.4473
  717MOL0     H98928   1.095   6.339   7.929 -0.7710  2.0207  1.6591
  717MOL0     H98929   1.280   6.173   7.936  2.6728  3.5698 -0.1387
  717MOL0     H98930   2.163   6.156   6.943 -3.6488 -1.7111  4.2756
  717MOL0     H98931   2.213   6.338   6.780  2.2805 -4.8918  1.2963
  717MOL0     H98932   2.346   6.788   6.708 -0.0132  1.6071 -0.5178
  717MOL0     H98933   2.436   6.907   6.501 -0.3668  0.8698  0.2080
  717MOL0     H98934   2.356   6.706   6.122 -2.5403  0.0610  2.5382
  717MOL0     H98935   2.238   6.829   6.114  0.0897 -0.4898 -0.1451
  717MOL0     H98936   2.426   6.827   5.940 -2.7201  1.0657  0.2397
  717MOL0     H98937   2.535   6.862   6.076  1.4170 -1.3482 -0.9700
  717MOL0     H98938   2.311   7.047   6.008  0.3130 -1.7454 -3.1469
  717MOL0     H98939   2.423   7.069   6.150  1.3227  0.0092  0.5430
  717MOL0     H98940   2.501   7.079   5.851 -2.2329 -0.8865  1.0330
  717MOL0     H98941   2.616   7.086   5.983  0.3425 -1.3014 -0.6070
  717MOL0     H98942   2.405   7.466   5.957 -1.2894 -0.2711  4.3342
  717MOL0     H98943   2.138   6.688   6.269 -0.0658  1.3019 -0.4875
  717MOL0     H98944   2.029   6.482   6.508 -1.2748 -1.8496 -1.8615
  717MOL0     H98945   1.930   6.644   6.504  0.3077 -1.6153  0.7583
  717MOL0     H98946   1.971   6.558   6.363  1.5792 -1.5498 -0.1226
  718MOL0     O98947   4.813   9.653   1.817  0.1270 -0.5479 -0.2860
  718MOL0     C98948   4.929   9.665   1.861  0.4451 -0.7967 -0.2355
  718MOL0     O98949   5.034   9.676   1.775 -0.1750 -0.4632  0.0353
  718MOL0     C98950   5.016   9.615   1.663  0.4580  0.0705  0.4670
  718MOL0     C98951   5.016   9.691   1.542 -1.1038  0.4044  0.2770
  718MOL0     C98952   4.989   9.634   1.422 -0.6152 -0.8285  0.2622
  718MOL0     C98953   4.969   9.500   1.412  0.3219  0.3408  0.2425
  718MOL0     O98954   4.943   9.437   1.297 -0.3066  0.1814  0.4568
  718MOL0     C98955   4.813   9.447   1.243 -0.7263  0.0840 -0.4450
  718MOL0     C98956   4.799   9.352   1.119  0.4226  0.6131 -0.4339
  718MOL0     C98957   4.889   9.395   1.012  0.5983 -0.0177 -0.6071
  718MOL0     C98958   4.857   9.317   0.889  0.3002 -0.2398  0.6133
  718MOL0     C98959   4.797   9.408   0.785 -0.7872 -0.7853  0.6470
  718MOL0     C98960   4.670   9.473   0.823 -0.9602  0.2235 -0.3523
  718MOL0     C98961   4.557   9.371   0.816 -0.8265  0.4050 -0.5461
  718MOL0     C98962   4.507   9.327   0.679 -0.7684 -0.1384  0.4438
  718MOL0     N98963   4.443   9.432   0.597 -0.0689 -0.8892 -0.2022
  718MOL0     C98964   4.511   9.524   0.518  0.1565 -0.0624 -0.2679
  718MOL0     C98965   4.423   9.614   0.465 -0.6719 -0.4600 -0.2946
  718MOL0     C98966   4.451   9.715   0.361 -0.0788 -0.2143  0.8161
  718MOL0     C98967   4.504   9.853   0.419  0.0412 -0.1841  0.0616
  718MOL0     C98968   4.645   9.827   0.476  0.5070  0.5312 -0.2371
  718MOL0     C98969   4.720   9.963   0.485  0.7322  0.7224 -0.1319
  718MOL0     O98970   4.844   9.950   0.552 -0.3528 -0.9421 -0.3426
  718MOL0     C98971   4.929  10.058   0.543 -0.0198  0.0341  0.7007
  718MOL0     C98972   4.890  10.179   0.490  0.7322  0.0120  0.9292
  718MOL0     C98973   4.978  10.277   0.473  0.0084 -0.1602  0.5949
  718MOL0     C98974   4.923  10.400   0.408  0.0348 -0.2128  0.7564
  718MOL0     C98975   5.114  10.256   0.508 -0.7026  1.0130 -0.0947
  718MOL0     C98976   5.218  10.365   0.499  0.4566  0.2285 -0.0717
  718MOL0     O98977   5.348  10.334   0.519  0.3140 -0.4021 -0.7230
  718MOL0     C98978   5.449  10.419   0.477 -0.2515  0.4768 -0.0879
  718MOL0     C98979   5.493  10.513   0.564 -0.4525 -0.5204 -0.7105
  718MOL0     C98980   5.593  10.606   0.521 -0.4580  0.1221  0.9152
  718MOL0     C98981   5.662  10.584   0.403  0.7669  0.1731 -0.1662
  718MOL0     O98982   5.754  10.681   0.370  0.1221 -1.1006  0.3458
  718MOL0     C98983   5.850  10.646   0.268  0.3279 -0.3098  0.2030
  718MOL0     C98984   5.945  10.768   0.242 -0.4221 -1.3088 -1.0286
  718MOL0     C98985   6.059  10.717   0.166 -1.4748  0.3425 -0.2946
  718MOL0     C98986   6.179  10.816   0.134  0.0699 -0.2037 -0.2484
  718MOL0     C98987   6.301  10.755   0.062 -1.3463 -0.1912 -0.6301
  718MOL0     C98988   6.416  10.856   0.032 -0.2479 -0.1585 -0.6500
  718MOL0     C98989   6.458  10.923   0.171  0.5439  0.3299  0.3853
  718MOL0     C98990   6.533  10.837   0.274  0.6138  0.5357  0.1112
  718MOL0    Cl98991   6.596  10.932   0.422 -0.4218 -0.1414 -0.2424
  718MOL0     C98992   5.621  10.471   0.329 -0.2974 -1.0992  0.0415
  718MOL0     C98993   5.508  10.398   0.352 -0.3783  0.5845 -0.6884
  718MOL0     O98994   5.181  10.478   0.502  0.5098 -0.1612  0.4416
  718MOL0     C98995   5.153  10.133   0.564  0.5562 -0.5330  0.6969
  718MOL0     C98996   5.060  10.039   0.587  0.5213 -0.8069 -0.6259
  718MOL0     N98997   4.302   9.568   0.508  0.3087  0.3872  0.5589
  718MOL0     N98998   4.310   9.465   0.583 -0.2680  0.1261  0.2197
  718MOL0     C98999   4.972   9.421   1.528 -0.3662  0.3410 -0.8083
  718MOL0     C99000   4.986   9.476   1.656  0.5063 -0.2729  0.8187
  718MOL0     C99001   4.956   9.664   2.005 -0.3312 -0.0482 -0.7698
  718MOL0     C99002   4.844   9.673   2.094  0.1947  0.4246  0.0283
  718MOL0     C99003   4.870   9.695   2.225  0.5435  0.8387  0.9859
  718MOL0     C99004   4.996   9.698   2.276  0.6106  0.2424  0.0533
  718MOL0     O99005   5.004   9.717   2.416 -0.2650 -0.0563  0.3278
  718MOL0     C99006   5.130   9.740   2.467 -0.0446  1.3486 -0.5473
  718MOL0     C99007   5.121   9.781   2.622 -0.0415  0.5668 -0.1452
  718MOL0     C99008   5.071   9.664   2.697  0.1776  0.6538 -0.0558
  718MOL0     C99009   5.049   9.696   2.842  0.4041 -0.8625 -0.6110
  718MOL0     C99010   5.179   9.673   2.908 -1.1282 -0.2184  0.1684
  718MOL0     C99011   5.280   9.665   2.980  0.2269  0.2289 -0.8061
  718MOL0     C99012   5.099   9.674   2.191  0.3646  0.8265  0.3953
  718MOL0     C99013   5.085   9.657   2.058 -0.5937 -0.8277 -0.2635
  718MOL0     C99014   5.208   9.624   1.985  0.4205 -0.3302 -0.4494
  718MOL0     H99015   5.037   9.798   1.549  1.4577 -0.0671  0.7839
  718MOL0     H99016   4.986   9.699   1.335  0.6443 -0.6719  0.3101
  718MOL0     H99017   4.799   9.551   1.210  1.2041 -0.0799 -1.9358
  718MOL0     H99018   4.738   9.417   1.316  1.2363 -1.8283  0.8907
  718MOL0     H99019   4.830   9.251   1.147 -0.8995 -0.4871 -2.7004
  718MOL0     H99020   4.696   9.351   1.083  0.1611  2.2768  0.1738
  718MOL0     H99021   4.906   9.503   1.006  2.6234 -0.3303 -1.2929
  718MOL0     H99022   4.983   9.348   1.044  0.3937  1.4836  2.6444
  718MOL0     H99023   4.947   9.278   0.840 -1.0916  0.4910 -2.8692
  718MOL0     H99024   4.772   9.248   0.900 -2.7010  3.1226  0.1436
  718MOL0     H99025   4.778   9.368   0.685  0.6098  2.3669 -1.0348
  718MOL0     H99026   4.874   9.485   0.772  1.0118 -2.7291 -0.8664
  718MOL0     H99027   4.672   9.517   0.923 -4.1774  0.2078 -0.1958
  718MOL0     H99028   4.638   9.542   0.745  2.8011  0.8673 -1.5355
  718MOL0     H99029   4.470   9.417   0.865 -2.0760 -1.2028 -1.1484
  718MOL0     H99030   4.575   9.277   0.869  2.2423  1.7395  1.0297
  718MOL0     H99031   4.590   9.287   0.622  0.1897  0.6787  1.2308
  718MOL0     H99032   4.437   9.247   0.705  2.2737 -2.7838  1.1325
  718MOL0     H99033   4.615   9.513   0.488  0.4594 -1.2636  1.0681
  718MOL0     H99034   4.351   9.739   0.322 -0.3311  0.1109  1.6210
  718MOL0     H99035   4.525   9.671   0.295 -2.0648  0.2709 -1.9011
  718MOL0     H99036   4.503   9.927   0.338 -3.0956  1.0609  1.0918
  718MOL0     H99037   4.445   9.900   0.498 -0.5511 -2.3121  0.9750
  718MOL0     H99038   4.644   9.784   0.577  2.7928  0.4942 -0.1721
  718MOL0     H99039   4.703   9.764   0.409  0.9547  0.6663  0.0175
  718MOL0     H99040   4.728  10.010   0.387 -1.3271 -2.2891 -1.9141
  718MOL0     H99041   4.656  10.025   0.549 -0.1320 -1.1724  0.9485
  718MOL0     H99042   4.786  10.203   0.472 -0.0599 -1.9979  2.4312
  718MOL0     H99043   4.985  10.425   0.321 -1.0976 -2.2731 -0.7513
  718MOL0     H99044   4.905  10.487   0.471 -2.4286  0.5986 -0.9083
  718MOL0     H99045   4.830  10.378   0.356  0.4650 -0.1790 -0.0548
  718MOL0     H99046   5.456  10.530   0.665  1.2808 -0.3026 -0.0831
  718MOL0     H99047   5.619  10.686   0.590  3.5469  1.2757 -1.6338
  718MOL0     H99048   5.901  10.562   0.317  1.4735  0.5746  0.5818
  718MOL0     H99049   5.802  10.618   0.175 -2.0169  1.6108  0.7144
  718MOL0     H99050   5.912  10.857   0.188  1.9184  0.6040  0.5045
  718MOL0     H99051   5.976  10.804   0.340 -1.0148  3.2207 -2.2714
  718MOL0     H99052   6.024  10.676   0.070 -1.7650 -0.8651  0.3018
  718MOL0     H99053   6.101  10.634   0.224 -0.9765  0.2738 -0.7419
  718MOL0     H99054   6.197  10.868   0.229  3.1013  0.5670 -1.1355
  718MOL0     H99055   6.147  10.901   0.074  1.2842  1.9527  1.9470
  718MOL0     H99056   6.325  10.670   0.126  1.1144  1.3253  0.6265
  718MOL0     H99057   6.275  10.716  -0.037 -1.9899  0.5187 -0.7485
  718MOL0     H99058   6.382  10.938  -0.031  0.9618 -0.4567 -1.7370
  718MOL0     H99059   6.504  10.810  -0.014  2.4489  3.2702  0.6188
  718MOL0     H99060   6.374  10.978   0.214  1.9230  1.5931  1.5270
  718MOL0     H99061   6.532  11.001   0.153 -0.8480  2.1712  2.2471
  718MOL0     H99062   6.612  10.775   0.229  2.1412  1.1886  1.7669
  718MOL0     H99063   6.458  10.764   0.307 -0.5794  0.9223 -1.6277
  718MOL0     H99064   5.677  10.460   0.237 -3.9176 -1.4085 -2.3352
  718MOL0     H99065   5.466  10.318   0.292  0.8203 -0.8726  0.3416
  718MOL0     H99066   5.249  10.102   0.604 -1.2226 -5.4455  1.8838
  718MOL0     H99067   5.098   9.951   0.638 -1.7967 -2.2083 -1.1701
  718MOL0     H99068   4.963   9.315   1.509  3.6765 -0.1399 -0.8624
  718MOL0     H99069   4.983   9.411   1.743 -3.2039 -2.3280 -0.5976
  718MOL0     H99070   4.742   9.665   2.058  0.4549 -0.3565 -0.5714
  718MOL0     H99071   4.791   9.715   2.296  1.0139 -0.3316  1.8848
  718MOL0     H99072   5.177   9.643   2.454  1.0478  0.9385  4.4367
  718MOL0     H99073   5.185   9.820   2.417  1.8603 -0.1723 -0.9721
  718MOL0     H99074   5.066   9.874   2.639  0.1479  0.5347  0.6752
  718MOL0     H99075   5.220   9.801   2.666 -0.9454  2.0405  1.3378
  718MOL0     H99076   4.977   9.640   2.647  1.3095 -0.8662 -1.5761
  718MOL0     H99077   5.132   9.573   2.694 -0.0128  0.4034  1.9407
  718MOL0     H99078   4.987   9.630   2.904 -0.0613 -0.1159 -0.2540
  718MOL0     H99079   5.023   9.800   2.865 -0.5142 -1.6456  2.3969
  718MOL0     H99080   5.359   9.674   3.052 -1.8211 -1.4591  1.8646
  718MOL0     H99081   5.197   9.672   2.237 -0.3601  2.1137  2.0724
  718MOL0     H99082   5.266   9.709   1.947  2.5379 -0.9636  1.2032
  718MOL0     H99083   5.267   9.563   2.053 -0.3651  1.0728  1.5925
  718MOL0     H99084   5.186   9.562   1.898  0.4098  1.9431 -2.1740
  719MOL0     O99085   1.256   3.278   0.121 -0.4016  0.1078  0.7098
  719MOL0     C99086   1.314   3.210   0.038  0.1458 -0.8955  0.0311
  719MOL0     O99087   1.287   3.219  -0.094  0.4323  0.5156 -0.3416
  719MOL0     C99088   1.195   3.316  -0.139 -0.4159 -0.9848 -0.4556
  719MOL0     C99089   1.079   3.275  -0.202  0.7388 -0.7112  1.0601
  719MOL0     C99090   0.987   3.364  -0.256  0.5228  0.7007  0.2783
  719MOL0     C99091   1.013   3.501  -0.244  0.1946  0.2471 -0.2194
  719MOL0     O99092   0.922   3.595  -0.273 -0.4009 -0.4010 -0.6302
  719MOL0     C99093   0.789   3.572  -0.316 -0.2716  0.1859  0.4208
  719MOL0     C99094   0.695   3.688  -0.308  0.3580  0.0222 -0.6745
  719MOL0     C99095   0.550   3.664  -0.353  0.0704 -0.1560  0.1829
  719MOL0     C99096   0.475   3.805  -0.332 -0.5848 -0.4311 -0.6394
  719MOL0     C99097   0.328   3.801  -0.371  0.4454 -0.8506  0.3430
  719MOL0     C99098   0.293   3.784  -0.523 -0.1260 -0.0014  0.0560
  719MOL0     C99099   0.143   3.807  -0.552 -1.5807  0.4031  0.9025
  719MOL0     C99100   0.050   3.688  -0.559  0.8327  0.3691 -0.0833
  719MOL0     N99101   0.037   3.619  -0.428 -0.0734 -1.2254  0.8462
  719MOL0     C99102  -0.031   3.660  -0.312 -0.2948 -0.8116  0.2855
  719MOL0     C99103  -0.004   3.573  -0.216 -0.5470  0.2237 -0.0800
  719MOL0     C99104  -0.056   3.593  -0.074 -0.6732 -0.4438 -0.5682
  719MOL0     C99105   0.006   3.498   0.030 -0.3772 -0.1650 -0.0571
  719MOL0     C99106  -0.021   3.539   0.171  0.0573 -0.4367  0.6993
  719MOL0     C99107   0.087   3.499   0.270  0.2595  0.3655  1.6940
  719MOL0     O99108   0.072   3.352   0.270  0.0523  0.6995 -0.3609
  719MOL0     C99109   0.149   3.293   0.360 -0.6936  0.5501 -0.4939
  719MOL0     C99110   0.197   3.163   0.332 -0.3424  0.0989 -0.1731
  719MOL0     C99111   0.288   3.088   0.414 -0.0440 -0.4632 -0.3759
  719MOL0     C99112   0.340   2.953   0.372  0.2587 -0.4508 -0.8191
  719MOL0     C99113   0.341   3.149   0.526  0.0642 -0.2522  0.2897
  719MOL0     C99114   0.444   3.088   0.606 -0.6969 -0.3935 -0.0887
  719MOL0     O99115   0.548   3.030   0.546  0.4820  0.3959 -0.3083
  719MOL0     C99116   0.626   2.943   0.619  0.0901  0.6515  0.2602
  719MOL0     C99117   0.749   2.996   0.644 -0.2211 -0.0083  0.0605
  719MOL0     C99118   0.845   2.936   0.727  0.3085  0.8008 -0.6448
  719MOL0     C99119   0.813   2.805   0.783  0.4889  0.5772 -0.2751
  719MOL0     O99120   0.898   2.740   0.861  0.0821  0.1556 -0.6315
  719MOL0     C99121   0.874   2.605   0.897 -0.7484 -0.6716 -0.1581
  719MOL0     C99122   1.004   2.527   0.883  0.4502  0.2454 -0.3059
  719MOL0     C99123   1.100   2.552   1.004  0.4172  0.5414 -1.1395
  719MOL0     C99124   1.157   2.419   1.049  0.9863  0.0268  0.9606
  719MOL0     C99125   1.245   2.447   1.177  1.2218 -0.8450  0.8179
  719MOL0     C99126   1.314   2.332   1.255  1.1874  0.5911 -0.1503
  719MOL0     C99127   1.233   2.201   1.253 -0.4559  0.3824  0.4829
  719MOL0     C99128   1.309   2.102   1.338 -0.5837  0.4105  0.6289
  719MOL0    Cl99129   1.191   1.990   1.397 -0.1272 -0.3749 -0.2115
  719MOL0     C99130   0.683   2.757   0.763  0.1080 -0.4133 -1.0701
  719MOL0     C99131   0.592   2.820   0.680  0.4055 -0.1668 -0.4030
  719MOL0     O99132   0.447   3.133   0.718 -0.3793 -0.4304  0.8398
  719MOL0     C99133   0.278   3.272   0.566  0.0152  0.5951 -0.3392
  719MOL0     C99134   0.201   3.348   0.482  0.0580 -0.2152  0.7363
  719MOL0     N99135   0.090   3.487  -0.263 -0.3538 -0.0758 -0.4711
  719MOL0     N99136   0.111   3.511  -0.389  1.6210 -0.0930  0.5147
  719MOL0     C99137   1.134   3.544  -0.185 -0.3006  0.1366  0.4803
  719MOL0     C99138   1.222   3.455  -0.133 -0.7122 -0.1527  0.4675
  719MOL0     C99139   1.412   3.108   0.091 -0.2534  0.8317 -0.3207
  719MOL0     C99140   1.439   3.086   0.228 -0.4899  0.0963 -0.3216
  719MOL0     C99141   1.522   2.989   0.285  0.4779 -0.6253 -0.0211
  719MOL0     C99142   1.608   2.914   0.202  1.0416 -0.3295  0.7501
  719MOL0     O99143   1.700   2.834   0.259 -0.4425 -0.0217 -0.2843
  719MOL0     C99144   1.766   2.732   0.185  1.1693  0.1446 -0.1122
  719MOL0     C99145   1.684   2.605   0.146  0.4265  0.5724 -0.6490
  719MOL0     C99146   1.768   2.502   0.054 -0.2674 -0.5450 -0.6685
  719MOL0     C99147   1.850   2.412   0.141 -0.5385 -0.4443 -0.6314
  719MOL0     C99148   1.769   2.312   0.210  1.0669 -0.0623 -0.0671
  719MOL0     C99149   1.693   2.248   0.273 -0.4979 -0.5866 -0.1551
  719MOL0     C99150   1.588   2.936   0.064 -0.5569 -0.0180  0.1318
  719MOL0     C99151   1.492   3.018   0.007 -0.3462 -0.4920 -0.5672
  719MOL0     C99152   1.494   3.030  -0.144 -0.7376  0.4213  0.3323
  719MOL0     H99153   1.056   3.169  -0.203  1.0556 -0.8898 -2.8005
  719MOL0     H99154   0.895   3.325  -0.297  0.8186 -0.7316  0.9077
  719MOL0     H99155   0.754   3.493  -0.250 -1.4110 -1.1196 -1.6539
  719MOL0     H99156   0.798   3.542  -0.421  1.5451 -0.8025  0.8247
  719MOL0     H99157   0.695   3.724  -0.205 -1.0304 -1.3552 -0.1454
  719MOL0     H99158   0.736   3.773  -0.364  0.2116  1.0761  0.7677
  719MOL0     H99159   0.545   3.638  -0.459  1.2050  1.6335 -0.3464
  719MOL0     H99160   0.491   3.596  -0.290  0.8895  0.5103  1.7195
  719MOL0     H99161   0.484   3.830  -0.226 -0.0413  0.5812 -0.9074
  719MOL0     H99162   0.527   3.883  -0.388  0.3970 -0.9807 -0.5223
  719MOL0     H99163   0.278   3.892  -0.338 -0.0195 -1.7536  2.2565
  719MOL0     H99164   0.280   3.718  -0.319 -0.7336 -1.7245 -2.0190
  719MOL0     H99165   0.343   3.853  -0.593 -0.1251 -1.4560 -1.4327
  719MOL0     H99166   0.324   3.684  -0.553 -0.6398  0.5524 -2.6349
  719MOL0     H99167   0.138   3.854  -0.651 -1.5687 -0.1282  0.6485
  719MOL0     H99168   0.108   3.887  -0.486  0.6829  0.3879  2.2308
  719MOL0     H99169  -0.053   3.716  -0.584  0.6704  0.2479  0.4457
  719MOL0     H99170   0.091   3.619  -0.634  1.7685 -1.6727  2.1572
  719MOL0     H99171  -0.099   3.743  -0.293  1.7408  0.7268  1.2898
  719MOL0     H99172  -0.160   3.566  -0.095  0.0022 -0.4473 -5.0055
  719MOL0     H99173  -0.067   3.697  -0.045  1.4724 -1.0446  3.0789
  719MOL0     H99174  -0.032   3.401  -0.003 -1.5712  1.1822 -2.9982
  719MOL0     H99175   0.114   3.511   0.015 -0.3459  0.5186  0.7214
  719MOL0     H99176  -0.028   3.649   0.169 -2.3708 -0.5512 -0.6415
  719MOL0     H99177  -0.116   3.500   0.209 -2.3042  5.3857  1.8494
  719MOL0     H99178   0.187   3.534   0.243  0.0418 -1.2685 -1.6504
  719MOL0     H99179   0.061   3.539   0.369 -2.7682 -0.8318  1.4686
  719MOL0     H99180   0.175   3.110   0.239  3.2064 -1.3758 -0.3000
  719MOL0     H99181   0.253   2.901   0.329 -1.2646  0.2710  1.2126
  719MOL0     H99182   0.365   2.894   0.461 -1.9949 -1.3135 -0.6949
  719MOL0     H99183   0.412   2.948   0.290 -0.1061 -0.4685 -1.1432
  719MOL0     H99184   0.776   3.097   0.614 -4.0913  1.1490 -0.1309
  719MOL0     H99185   0.946   2.975   0.729 -0.0008  2.5318 -5.4746
  719MOL0     H99186   0.838   2.600   1.000 -2.3182 -0.8691 -0.6913
  719MOL0     H99187   0.800   2.553   0.835  0.4547 -2.9888  0.2465
  719MOL0     H99188   0.965   2.425   0.871 -2.0734  1.2387 -1.3230
  719MOL0     H99189   1.057   2.550   0.790  1.3753  0.7296  0.3323
  719MOL0     H99190   1.044   2.591   1.090  2.7695  2.2515 -0.2624
  719MOL0     H99191   1.178   2.626   0.981  0.1489  2.2051  2.5428
  719MOL0     H99192   1.232   2.376   0.982  1.1532  1.4242  0.2055
  719MOL0     H99193   1.079   2.343   1.060  0.5770  0.1853 -0.5422
  719MOL0     H99194   1.322   2.517   1.143 -0.3239  0.4032 -0.2890
  719MOL0     H99195   1.187   2.505   1.250  1.0511  1.8508 -1.2715
  719MOL0     H99196   1.348   2.360   1.355  2.2633  1.9890 -0.8675
  719MOL0     H99197   1.403   2.316   1.194  0.5562 -1.8603 -0.5307
  719MOL0     H99198   1.219   2.158   1.153 -2.4182  1.5617  0.1996
  719MOL0     H99199   1.135   2.222   1.296 -0.1486  2.2519  0.3359
  719MOL0     H99200   1.361   2.146   1.423  0.3355 -1.1950  0.9510
  719MOL0     H99201   1.366   2.045   1.263 -1.4534 -2.9122  2.2959
  719MOL0     H99202   0.639   2.668   0.807 -2.2188  0.3508 -1.6860
  719MOL0     H99203   0.499   2.764   0.675  0.5044 -1.1241  4.0858
  719MOL0     H99204   0.307   3.317   0.661  1.0224  0.1303 -0.4109
  719MOL0     H99205   0.157   3.445   0.500 -3.6584 -1.2158 -1.8263
  719MOL0     H99206   1.134   3.651  -0.170  1.2950  0.3747 -0.9769
  719MOL0     H99207   1.312   3.484  -0.079  1.2470 -2.6410 -1.2414
  719MOL0     H99208   1.376   3.147   0.292 -0.0324  0.2189  0.0167
  719MOL0     H99209   1.529   2.982   0.393 -2.8082 -3.2354  0.1687
  719MOL0     H99210   1.802   2.765   0.087  3.1884 -1.0063  0.1669
  719MOL0     H99211   1.860   2.706   0.235  0.3728  1.5916  2.3265
  719MOL0     H99212   1.590   2.644   0.106 -0.9277 -0.7985  1.0496
  719MOL0     H99213   1.649   2.553   0.236  1.9147  0.1288 -0.3084
  719MOL0     H99214   1.703   2.456  -0.021 -1.3478 -0.5956  0.2688
  719MOL0     H99215   1.837   2.554  -0.013 -1.0552 -0.4688 -1.4441
  719MOL0     H99216   1.895   2.472   0.221 -0.4017  0.1449 -1.1439
  719MOL0     H99217   1.932   2.367   0.085  1.4564 -0.0120  1.7287
  719MOL0     H99218   1.622   2.203   0.339  0.5642 -0.8431  0.8674
  719MOL0     H99219   1.658   2.886  -0.002  3.0021  0.5357  3.1886
  719MOL0     H99220   1.580   3.090  -0.174 -0.0049 -0.0377  1.4483
  719MOL0     H99221   1.514   2.930  -0.185 -1.8859  0.9606 -1.6529
  719MOL0     H99222   1.399   3.060  -0.189 -1.5556 -0.3756  1.4685
  720MOL0     O99223   8.446   7.758   7.084 -0.3709 -0.0909  0.3881
  720MOL0     C99224   8.338   7.796   7.042 -0.5470 -0.1025 -0.3725
  720MOL0     O99225   8.286   7.921   7.044 -0.3915 -0.1545  0.3539
  720MOL0     C99226   8.360   8.022   7.095  0.5429 -0.0061  0.6320
  720MOL0     C99227   8.339   8.145   7.032  0.3223  0.4151  0.5161
  720MOL0     C99228   8.404   8.254   7.076 -0.2256 -0.2004 -0.1797
  720MOL0     C99229   8.480   8.248   7.196 -0.3818  0.2010 -0.1021
  720MOL0     O99230   8.538   8.354   7.258 -0.1083  0.4518 -0.1375
  720MOL0     C99231   8.519   8.484   7.214  1.0510  0.0914  0.7631
  720MOL0     C99232   8.598   8.571   7.311 -0.1182  0.4422 -0.3339
  720MOL0     C99233   8.635   8.705   7.244  0.7844  0.4282  0.2403
  720MOL0     C99234   8.709   8.815   7.324  0.2866 -0.1300  0.0178
  720MOL0     C99235   8.705   8.952   7.262 -0.9877 -0.1942 -0.5634
  720MOL0     C99236   8.779   9.050   7.353 -0.6011  0.2500 -0.2665
  720MOL0     C99237   8.791   9.185   7.292 -0.8520 -1.2528  0.6408
  720MOL0     C99238   8.849   9.284   7.401  0.0031  0.1783 -0.0667
  720MOL0     N99239   8.743   9.318   7.495 -0.5194 -0.6970 -0.0892
  720MOL0     C99240   8.734   9.438   7.553  0.1968 -0.3700  0.2275
  720MOL0     C99241   8.665   9.427   7.667  0.3550  0.0973  0.5398
  720MOL0     C99242   8.621   9.517   7.774  0.3764  0.7023  0.4402
  720MOL0     C99243   8.470   9.523   7.765  0.4125 -0.6036  0.1455
  720MOL0     C99244   8.397   9.530   7.633 -0.6880  0.5456  0.3843
  720MOL0     C99245   8.252   9.498   7.664 -0.3900 -0.6226 -0.9414
  720MOL0     O99246   8.170   9.506   7.544 -0.1971  0.5692  0.2998
  720MOL0     C99247   8.165   9.397   7.457 -0.8653  0.1592  1.1593
  720MOL0     C99248   8.074   9.426   7.345  1.0795  0.1425 -0.3791
  720MOL0     C99249   8.044   9.324   7.253  0.0615  0.7186 -0.4748
  720MOL0     C99250   7.933   9.353   7.155  0.9490 -0.0692 -0.4490
  720MOL0     C99251   8.112   9.199   7.272 -0.7815 -0.1232  0.5532
  720MOL0     C99252   8.079   9.068   7.195  0.2570 -0.1725  0.5112
  720MOL0     O99253   8.123   8.953   7.235 -0.6675  0.2932 -1.2213
  720MOL0     C99254   8.078   8.833   7.194 -0.5119 -0.6235  0.3728
  720MOL0     C99255   8.164   8.724   7.189  0.1714  1.2178 -0.0701
  720MOL0     C99256   8.112   8.598   7.159 -1.1855 -0.6594 -0.4705
  720MOL0     C99257   7.980   8.580   7.120 -0.0433 -1.1662 -0.0530
  720MOL0     O99258   7.928   8.464   7.073 -0.4568 -0.1689  0.2476
  720MOL0     C99259   8.000   8.345   7.053  0.8651 -0.1591 -0.3505
  720MOL0     C99260   7.904   8.233   7.008 -0.3355  0.1852 -0.5682
  720MOL0     C99261   7.970   8.092   7.019  0.0778 -0.0810 -0.3086
  720MOL0     C99262   7.856   7.984   7.008 -0.5862 -0.0277 -0.0090
  720MOL0     C99263   7.916   7.852   7.031 -0.1523 -0.3732 -0.7851
  720MOL0     C99264   7.804   7.752   7.064  0.5545 -0.4107  0.3477
  720MOL0     C99265   7.747   7.763   7.213  0.2197 -0.1527 -0.1013
  720MOL0     C99266   7.669   7.632   7.259 -1.0033  1.0292 -0.0153
  720MOL0    Cl99267   7.755   7.487   7.262 -0.2186 -0.7790  0.2072
  720MOL0     C99268   7.894   8.687   7.118 -0.1162  0.3219 -0.5316
  720MOL0     C99269   7.942   8.816   7.160 -0.7145 -0.4268 -0.1378
  720MOL0     O99270   8.034   9.093   7.082 -0.0187  0.4029 -0.4187
  720MOL0     C99271   8.214   9.181   7.366  0.6435  0.3702 -0.4082
  720MOL0     C99272   8.232   9.282   7.461  0.2639 -0.4662  0.4249
  720MOL0     N99273   8.638   9.290   7.690  0.3665  0.2393  1.1611
  720MOL0     N99274   8.674   9.237   7.579 -0.4536  1.3490  0.4797
  720MOL0     C99275   8.504   8.130   7.253 -0.1946 -0.5428  0.9295
  720MOL0     C99276   8.438   8.022   7.206  1.5773 -0.3346 -0.5523
  720MOL0     C99277   8.251   7.698   6.974  0.1679  0.1161 -1.5349
  720MOL0     C99278   8.205   7.726   6.850  0.0609  0.0215  0.7414
  720MOL0     C99279   8.133   7.637   6.770  0.2700 -0.1914 -0.0423
  720MOL0     C99280   8.088   7.513   6.821 -0.1724 -0.1094 -0.2369
  720MOL0     O99281   8.042   7.413   6.737  0.2297 -0.2023  0.5745
  720MOL0     C99282   7.923   7.439   6.664  0.2113 -0.0013  0.4484
  720MOL0     C99283   7.924   7.339   6.539 -0.6889  0.0365 -0.5640
  720MOL0     C99284   8.064   7.342   6.483 -0.3475  0.2006  0.7586
  720MOL0     C99285   8.078   7.270   6.347 -0.8758 -0.8820  0.5485
  720MOL0     C99286   8.100   7.353   6.219 -0.4325 -0.3497  0.3125
  720MOL0     C99287   8.107   7.428   6.123 -1.0679 -0.1789  0.8502
  720MOL0     C99288   8.117   7.497   6.960  0.4096 -1.0359 -0.3480
  720MOL0     C99289   8.202   7.579   7.036 -0.1007 -0.0869 -0.3664
  720MOL0     C99290   8.244   7.542   7.180 -0.4826  0.4568  0.1204
  720MOL0     H99291   8.294   8.152   6.933  1.5603 -0.6036 -0.1603
  720MOL0     H99292   8.380   8.349   7.030  0.0366  0.7673  1.5660
  720MOL0     H99293   8.412   8.503   7.220  0.5328 -1.2559 -2.2963
  720MOL0     H99294   8.554   8.494   7.110  0.2436  1.2967  0.5907
  720MOL0     H99295   8.544   8.603   7.401 -1.4376  1.1180 -1.3359
  720MOL0     H99296   8.688   8.518   7.345 -0.3456  0.1254 -0.2182
  720MOL0     H99297   8.693   8.674   7.156 -1.0939 -0.5963 -0.6874
  720MOL0     H99298   8.537   8.748   7.219 -0.2609 -0.5296  2.4839
  720MOL0     H99299   8.676   8.825   7.428  2.7111  1.5447  0.7122
  720MOL0     H99300   8.810   8.780   7.345  0.4085 -0.0793 -0.4708
  720MOL0     H99301   8.604   8.993   7.258 -1.0699 -0.4744 -3.4926
  720MOL0     H99302   8.746   8.957   7.161 -2.7903 -1.6361 -1.4215
  720MOL0     H99303   8.723   9.058   7.447  1.4875  2.1578  0.9192
  720MOL0     H99304   8.879   9.014   7.377 -1.7581 -4.4939 -1.4677
  720MOL0     H99305   8.695   9.223   7.257 -0.4353  0.1824  1.0127
  720MOL0     H99306   8.858   9.173   7.206 -3.0084 -0.6285 -1.1943
  720MOL0     H99307   8.920   9.235   7.469  1.5391  2.0786 -0.2338
  720MOL0     H99308   8.886   9.377   7.358 -0.6039  1.1236  1.3853
  720MOL0     H99309   8.773   9.538   7.536 -0.3014  0.6062  3.8679
  720MOL0     H99310   8.677   9.609   7.757 -0.2097  1.1392  0.8390
  720MOL0     H99311   8.653   9.467   7.867  2.2641 -0.5729 -0.8158
  720MOL0     H99312   8.422   9.453   7.833 -2.9693  1.5694  0.1940
  720MOL0     H99313   8.458   9.617   7.819 -2.1750  0.0867 -1.4497
  720MOL0     H99314   8.410   9.632   7.596  0.3757  1.0087  1.9224
  720MOL0     H99315   8.439   9.452   7.568 -2.0107 -0.7930  1.0838
  720MOL0     H99316   8.251   9.398   7.707  2.7410 -0.7037 -0.7947
  720MOL0     H99317   8.214   9.565   7.741  0.2991 -1.3649  0.0782
  720MOL0     H99318   8.028   9.525   7.345  1.0311  0.1323  0.8574
  720MOL0     H99319   7.841   9.301   7.182  1.5601 -1.3342 -0.6910
  720MOL0     H99320   7.953   9.327   7.051  0.3741  1.1954 -0.8952
  720MOL0     H99321   7.906   9.459   7.159  1.8124  0.1260  1.1253
  720MOL0     H99322   8.268   8.745   7.214  0.8439 -2.4471  0.7130
  720MOL0     H99323   8.180   8.514   7.169  0.9811  1.2608  2.2851
  720MOL0     H99324   8.067   8.356   6.968  2.1164 -1.4351  0.4264
  720MOL0     H99325   8.068   8.321   7.135  1.5971  1.1038 -0.5630
  720MOL0     H99326   7.810   8.255   7.060 -1.5548 -0.6168 -2.3459
  720MOL0     H99327   7.885   8.256   6.903 -2.4893 -0.7833 -0.4555
  720MOL0     H99328   8.018   8.083   7.118 -0.6153 -0.9839 -0.0391
  720MOL0     H99329   8.044   8.070   6.941  2.3644 -0.9589  1.9552
  720MOL0     H99330   7.824   7.993   6.904  0.3087  1.7319 -0.1738
  720MOL0     H99331   7.771   8.001   7.075 -0.5460 -1.2394  0.3680
  720MOL0     H99332   7.991   7.835   6.953  2.6635  4.2341  0.5013
  720MOL0     H99333   7.980   7.850   7.119 -0.3827 -1.1430 -0.6237
  720MOL0     H99334   7.844   7.654   7.038 -0.4594 -0.8797  0.4888
  720MOL0     H99335   7.724   7.773   6.993  1.0074 -3.6448 -1.3104
  720MOL0     H99336   7.681   7.850   7.218  0.8555  0.4626 -1.6740
  720MOL0     H99337   7.833   7.780   7.279 -0.3426 -0.2822  0.6746
  720MOL0     H99338   7.599   7.620   7.175  1.8931 -3.1257 -2.2437
  720MOL0     H99339   7.625   7.660   7.355  2.2904 -0.7274  2.2119
  720MOL0     H99340   7.791   8.669   7.088 -0.6743 -0.4771  1.6562
  720MOL0     H99341   7.877   8.903   7.150  0.0073  0.0639 -0.7054
  720MOL0     H99342   8.262   9.085   7.353 -0.1123 -0.4032  2.0257
  720MOL0     H99343   8.294   9.262   7.547 -0.6593  0.2839  1.2868
  720MOL0     H99344   8.576   8.126   7.334  1.4320 -2.0451 -0.5096
  720MOL0     H99345   8.426   7.930   7.262 -3.4064  0.0083 -0.5929
  720MOL0     H99346   8.224   7.822   6.805  0.3051 -1.3431 -2.2782
  720MOL0     H99347   8.112   7.653   6.665  3.4059 -2.1124 -1.0906
  720MOL0     H99348   7.841   7.429   6.736 -0.2035  4.2897  0.8724
  720MOL0     H99349   7.919   7.545   6.635 -1.0627  0.6489  2.7181
  720MOL0     H99350   7.858   7.367   6.457 -1.8461 -1.7061 -0.2688
  720MOL0     H99351   7.883   7.247   6.582  3.1805 -0.5900  2.3674
  720MOL0     H99352   8.083   7.447   6.460 -0.2580 -0.1090 -0.6567
  720MOL0     H99353   8.132   7.292   6.553  0.7233  1.1513  0.4225
  720MOL0     H99354   7.990   7.210   6.321 -2.0693  0.5331  1.1335
  720MOL0     H99355   8.163   7.202   6.356  0.8534  1.3644  2.5069
  720MOL0     H99356   8.120   7.494   6.040  3.1454 -3.2900 -1.3363
  720MOL0     H99357   8.071   7.406   6.997  0.4486 -1.4421 -1.2482
  720MOL0     H99358   8.344   7.502   7.160 -0.2472  1.3510 -0.6100
  720MOL0     H99359   8.275   7.627   7.242  3.3683 -0.5117 -0.1982
  720MOL0     H99360   8.175   7.472   7.227 -0.8785  0.9074  0.2251
  721MOL0     O99361  11.057   8.562   0.735  0.0605  0.2629  0.7362
  721MOL0     C99362  11.038   8.508   0.625  0.0377 -0.5768 -0.5115
  721MOL0     O99363  10.974   8.572   0.524  0.0308 -0.0206 -0.6972
  721MOL0     C99364  10.955   8.707   0.526 -0.5422 -0.4685 -0.2488
  721MOL0     C99365  11.042   8.814   0.512 -0.2815  0.1642  1.3751
  721MOL0     C99366  11.002   8.954   0.494 -0.1287  0.1227  0.3960
  721MOL0     C99367  10.870   8.982   0.489  0.4225 -0.6624 -0.1876
  721MOL0     O99368  10.818   9.112   0.475 -0.2554 -0.4209  0.2253
  721MOL0     C99369  10.864   9.201   0.578  0.3696  0.3211 -0.5845
  721MOL0     C99370  10.753   9.236   0.666 -0.3374  0.4448  0.1519
  721MOL0     C99371  10.661   9.318   0.599  0.3677 -0.0700 -1.0400
  721MOL0     C99372  10.546   9.361   0.699  0.2574 -0.3728 -0.2458
  721MOL0     C99373  10.483   9.501   0.663 -0.1042 -0.1260  0.5211
  721MOL0     C99374  10.341   9.513   0.703 -0.1147 -0.7908 -0.8745
  721MOL0     C99375  10.298   9.648   0.757 -0.6063  0.3898  0.5353
  721MOL0     C99376  10.328   9.754   0.643  0.7861  0.4525 -0.2960
  721MOL0     N99377  10.260   9.879   0.673  0.1226  0.2461 -0.4143
  721MOL0     C99378  10.259   9.955   0.794 -0.6086  0.2965  0.1198
  721MOL0     C99379  10.191  10.069   0.760  0.9104 -0.0999  0.4331
  721MOL0     C99380  10.152  10.194   0.843 -0.9025 -0.5059 -0.2688
  721MOL0     C99381  10.283  10.253   0.898  0.0012  0.6976 -0.5821
  721MOL0     C99382  10.251  10.390   0.959 -0.4013  0.4432  0.7316
  721MOL0     C99383  10.373  10.467   1.021 -0.4210 -0.3047 -0.1244
  721MOL0     O99384  10.338  10.583   1.097 -0.5141 -0.7681 -0.4302
  721MOL0     C99385  10.428  10.607   1.201  0.6588 -0.5794  0.4567
  721MOL0     C99386  10.445  10.518   1.306 -0.2531 -0.2933  0.9452
  721MOL0     C99387  10.541  10.554   1.412 -0.2240  0.3761  0.7199
  721MOL0     C99388  10.548  10.452   1.521  0.5709 -0.2268  0.6739
  721MOL0     C99389  10.616  10.678   1.414 -0.4074  0.5838 -0.3528
  721MOL0     C99390  10.729  10.715   1.511  0.6045  0.9141  0.2491
  721MOL0     O99391  10.787  10.614   1.586 -0.1588 -0.4535  0.8068
  721MOL0     C99392  10.837  10.643   1.711  0.6651  0.7976 -0.3561
  721MOL0     C99393  10.759  10.633   1.824  0.6646  0.1449 -1.0237
  721MOL0     C99394  10.820  10.658   1.953 -0.1136 -0.2846 -0.0514
  721MOL0     C99395  10.949  10.714   1.960 -0.0202  0.2742  0.9438
  721MOL0     O99396  11.012  10.719   2.081  0.4622  0.1315  0.5543
  721MOL0     C99397  11.146  10.763   2.088 -0.1435  0.2125  1.2272
  721MOL0     C99398  11.199  10.795   2.220  0.1327 -0.3879 -0.1778
  721MOL0     C99399  11.345  10.831   2.211  0.6039  0.0430 -0.4584
  721MOL0     C99400  11.366  10.977   2.170  0.4509 -1.0701 -0.3828
  721MOL0     C99401  11.519  10.998   2.200 -0.2476 -0.7724 -0.3735
  721MOL0     C99402  11.576  11.134   2.169  0.5038  0.7503 -0.2255
  721MOL0     C99403  11.586  11.137   2.020  0.7897  0.1900  0.2046
  721MOL0     C99404  11.651  11.260   1.958 -0.0898 -0.4917 -0.2582
  721MOL0    Cl99405  11.562  11.402   2.035 -0.2618  0.2497  0.4502
  721MOL0     C99406  11.025  10.731   1.838 -0.0102 -0.3514  0.4614
  721MOL0     C99407  10.967  10.700   1.710 -0.4627  0.1541  0.0195
  721MOL0     O99408  10.749  10.830   1.532  0.0864 -0.2815 -0.3277
  721MOL0     C99409  10.586  10.759   1.311 -0.6917 -0.3920  0.4366
  721MOL0     C99410  10.493  10.723   1.213  0.2316  0.2653 -0.1439
  721MOL0     N99411  10.144  10.067   0.626 -0.1964  0.5558 -0.9222
  721MOL0     N99412  10.189   9.953   0.586  0.3127  0.4517  0.9244
  721MOL0     C99413  10.785   8.876   0.506  0.3012  0.2933 -0.5358
  721MOL0     C99414  10.825   8.748   0.541  0.2205 -0.8081 -0.4233
  721MOL0     C99415  11.075   8.369   0.590 -0.4309 -0.3108 -0.1257
  721MOL0     C99416  11.111   8.338   0.455 -0.1529  0.1629 -0.7389
  721MOL0     C99417  11.185   8.221   0.426 -0.2502  0.4535  0.2647
  721MOL0     C99418  11.230   8.132   0.522 -0.8213  0.0589  0.9453
  721MOL0     O99419  11.289   8.008   0.488  0.6971  0.6550  0.1850
  721MOL0     C99420  11.288   7.974   0.351 -0.0082  0.1234 -0.0156
  721MOL0     C99421  11.390   7.859   0.332 -0.3336 -0.8265 -0.5465
  721MOL0     C99422  11.356   7.739   0.429  0.6320  0.2819  0.2875
  721MOL0     C99423  11.426   7.602   0.398 -0.2092 -0.6253 -0.5770
  721MOL0     C99424  11.420   7.561   0.263 -0.2383 -0.1160  0.5443
  721MOL0     C99425  11.420   7.523   0.149 -0.0787  0.4360  0.3902
  721MOL0     C99426  11.191   8.162   0.654 -0.4884  0.0449 -0.7647
  721MOL0     C99427  11.108   8.271   0.692  0.5975  0.3597  0.7602
  721MOL0     C99428  11.073   8.271   0.837  0.1251 -1.2022 -0.2289
  721MOL0     H99429  11.149   8.800   0.499 -0.0079  1.9318  1.5067
  721MOL0     H99430  11.076   9.033   0.484 -1.2122  0.9852 -1.1949
  721MOL0     H99431  10.907   9.292   0.534 -0.2350  2.1059  2.2958
  721MOL0     H99432  10.941   9.157   0.641  0.0005 -1.5359 -1.3535
  721MOL0     H99433  10.702   9.141   0.685 -1.6925  0.1907 -3.6926
  721MOL0     H99434  10.787   9.288   0.756 -1.3380  2.9934 -0.8515
  721MOL0     H99435  10.719   9.405   0.568  3.7562 -1.9313 -0.4533
  721MOL0     H99436  10.625   9.276   0.505  2.7785 -1.5741 -1.3928
  721MOL0     H99437  10.480   9.277   0.721 -0.5518  0.1319 -0.7178
  721MOL0     H99438  10.582   9.390   0.799  0.6351  5.8569 -1.8094
  721MOL0     H99439  10.487   9.513   0.555  0.0981 -1.4440  0.3668
  721MOL0     H99440  10.547   9.580   0.701 -0.1224  0.7222 -1.1348
  721MOL0     H99441  10.277   9.487   0.619 -2.3275  3.4682 -0.7863
  721MOL0     H99442  10.313   9.442   0.782 -0.7967  0.0631 -0.3272
  721MOL0     H99443  10.361   9.663   0.845 -0.9341 -1.9914  1.2425
  721MOL0     H99444  10.192   9.636   0.784 -0.5217 -1.4424  0.1771
  721MOL0     H99445  10.435   9.759   0.623  0.4228 -2.3398 -4.3649
  721MOL0     H99446  10.284   9.727   0.546  0.9154 -0.2061 -0.1730
  721MOL0     H99447  10.293   9.923   0.892  0.7561 -3.3408 -1.3796
  721MOL0     H99448  10.090  10.177   0.931 -1.2363 -0.0795 -0.4157
  721MOL0     H99449  10.101  10.257   0.769 -0.9428 -0.5315 -0.2618
  721MOL0     H99450  10.328  10.188   0.974  3.1819  3.0183 -0.2892
  721MOL0     H99451  10.368  10.257   0.829  2.4174  2.2380  2.2351
  721MOL0     H99452  10.209  10.459   0.886  0.5669  3.0585  2.5087
  721MOL0     H99453  10.193  10.377   1.052 -1.6253  0.5874  0.0114
  721MOL0     H99454  10.405  10.393   1.095 -6.7228 -3.7594 -0.1406
  721MOL0     H99455  10.455  10.484   0.950 -0.0408 -2.2720 -0.2345
  721MOL0     H99456  10.403  10.417   1.303 -1.0386  0.0409 -1.4813
  721MOL0     H99457  10.650  10.427   1.552  1.5202  1.8891 -0.5473
  721MOL0     H99458  10.513  10.354   1.485  1.2231 -0.4140  0.5433
  721MOL0     H99459  10.483  10.481   1.604  1.5606 -0.8083  1.6717
  721MOL0     H99460  10.654  10.605   1.815  0.2491  0.9392  0.8088
  721MOL0     H99461  10.774  10.643   2.050  2.2133 -2.2980  0.8553
  721MOL0     H99462  11.205  10.687   2.036  1.5798  2.4528 -0.2970
  721MOL0     H99463  11.149  10.854   2.027  0.3137 -1.3318 -1.1780
  721MOL0     H99464  11.143  10.877   2.266 -1.0705 -2.9120  3.2507
  721MOL0     H99465  11.189  10.710   2.288  0.5832 -0.1057  0.2405
  721MOL0     H99466  11.399  10.763   2.145 -0.8062 -1.8926  0.2763
  721MOL0     H99467  11.385  10.826   2.313  0.3944 -0.3645 -0.3955
  721MOL0     H99468  11.300  11.037   2.233 -0.1088  0.0018 -1.9280
  721MOL0     H99469  11.349  10.993   2.063  2.8641  0.7393 -0.5916
  721MOL0     H99470  11.532  10.984   2.308  1.6294  0.1680 -0.4563
  721MOL0     H99471  11.571  10.920   2.143 -0.6475 -1.2542 -0.0927
  721MOL0     H99472  11.676  11.111   2.207 -0.6229 -0.7474  2.1036
  721MOL0     H99473  11.531  11.215   2.227 -1.1440 -0.7712  0.7463
  721MOL0     H99474  11.500  11.131   1.952 -0.1336  1.9981  1.1168
  721MOL0     H99475  11.639  11.048   1.986 -1.6459 -0.4916 -2.1933
  721MOL0     H99476  11.640  11.259   1.849 -2.4003 -0.4415 -0.0777
  721MOL0     H99477  11.757  11.251   1.984  0.0184 -1.4083 -0.9660
  721MOL0     H99478  11.131  10.751   1.837 -0.2259  1.3343  3.0700
  721MOL0     H99479  11.012  10.708   1.612 -3.5295 -0.4245 -1.5798
  721MOL0     H99480  10.634  10.856   1.302  1.0378 -1.2359  0.1214
  721MOL0     H99481  10.464  10.800   1.142  0.0764 -2.6109 -3.4768
  721MOL0     H99482  10.677   8.884   0.505 -0.0321 -2.1749  2.0427
  721MOL0     H99483  10.752   8.667   0.543  1.7351 -2.2119  0.6586
  721MOL0     H99484  11.102   8.411   0.374 -0.7683  2.2534  1.1273
  721MOL0     H99485  11.214   8.210   0.322  0.6840 -2.2062  0.7553
  721MOL0     H99486  11.194   7.926   0.322 -0.1407 -0.6000  1.5546
  721MOL0     H99487  11.308   8.054   0.279  3.9863 -0.9340 -0.2941
  721MOL0     H99488  11.486   7.910   0.343 -1.2901  1.1348 -0.6500
  721MOL0     H99489  11.402   7.821   0.230  1.4638 -3.4520  0.5645
  721MOL0     H99490  11.392   7.780   0.524  1.3306  1.8710 -0.6170
  721MOL0     H99491  11.250   7.715   0.421  0.8604 -1.1528  1.1740
  721MOL0     H99492  11.363   7.530   0.452 -0.6604  0.8900  0.9987
  721MOL0     H99493  11.528   7.598   0.437 -1.4070 -0.0833  2.9930
  721MOL0     H99494  11.417   7.491   0.047  1.2725  4.2580 -0.9991
  721MOL0     H99495  11.220   8.080   0.719 -2.2129  1.1565  1.5632
  721MOL0     H99496  11.111   8.366   0.875 -1.0420 -0.0816 -1.7104
  721MOL0     H99497  10.964   8.273   0.847  0.1581 -4.4281  2.5178
  721MOL0     H99498  11.112   8.186   0.894 -0.6917 -0.7114  1.0981
  722MOL0     O99499  11.354   0.322   9.139 -0.0844  0.9464  0.8861
  722MOL0     C99500  11.454   0.290   9.080  0.1909  0.1171 -0.4754
  722MOL0     O99501  11.486   0.153   9.046 -0.5932  0.4779  0.3693
  722MOL0     C99502  11.374   0.070   9.043 -0.0729 -0.1421  0.6701
  722MOL0     C99503  11.395  -0.061   9.090 -0.1310 -0.5446  0.4286
  722MOL0     C99504  11.299  -0.171   9.062 -0.3118 -0.5136  0.1411
  722MOL0     C99505  11.179  -0.131   8.990 -0.4666 -0.7590  0.4069
  722MOL0     O99506  11.076  -0.218   8.949 -0.5851 -0.3468 -0.6319
  722MOL0     C99507  11.069  -0.342   9.010  0.2315  0.2513 -0.3152
  722MOL0     C99508  10.961  -0.409   8.933 -0.2217 -0.6877 -0.6208
  722MOL0     C99509  11.006  -0.450   8.790  0.5088 -0.2685  0.4807
  722MOL0     C99510  10.883  -0.544   8.731  0.4068  0.9176  0.3413
  722MOL0     C99511  10.877  -0.560   8.580 -0.4172 -0.7766  0.5268
  722MOL0     C99512  10.762  -0.666   8.533 -0.7789  0.6083 -0.6136
  722MOL0     C99513  10.801  -0.815   8.566  0.0064 -0.0250 -0.4066
  722MOL0     C99514  10.717  -0.918   8.483  0.4138  0.2929 -0.1041
  722MOL0     N99515  10.730  -1.050   8.557 -0.2634  0.1247  0.1366
  722MOL0     C99516  10.812  -1.159   8.517  0.0264 -0.0606 -0.8933
  722MOL0     C99517  10.771  -1.275   8.581  0.6327  0.3884  1.0026
  722MOL0     C99518  10.823  -1.420   8.556 -0.0107 -0.2657  0.3116
  722MOL0     C99519  10.965  -1.423   8.591  0.5909  0.7959 -0.2257
  722MOL0     C99520  11.021  -1.563   8.574  0.6919 -0.2427 -0.0385
  722MOL0     C99521  10.925  -1.679   8.594 -0.6405  0.1416 -0.1739
  722MOL0     O99522  10.892  -1.692   8.732  0.5207 -0.1168  0.1440
  722MOL0     C99523  10.842  -1.818   8.760  0.5202  1.2109 -0.9687
  722MOL0     C99524  10.844  -1.844   8.894 -0.2525 -0.0683 -0.4072
  722MOL0     C99525  10.805  -1.970   8.950  0.6400 -0.6924  1.2279
  722MOL0     C99526  10.802  -1.993   9.096  0.3494  0.4943 -0.1307
  722MOL0     C99527  10.770  -2.073   8.859  0.4855 -0.9705 -0.6521
  722MOL0     C99528  10.749  -2.218   8.900  0.5584  0.1560  1.1272
  722MOL0     O99529  10.654  -2.298   8.836  0.5556 -0.4842 -0.3287
  722MOL0     C99530  10.647  -2.434   8.871 -0.5926 -0.5405 -0.4090
  722MOL0     C99531  10.533  -2.499   8.903  0.3014  0.3528 -0.0355
  722MOL0     C99532  10.523  -2.629   8.906  0.7340 -0.3803  0.1614
  722MOL0     C99533  10.631  -2.716   8.882  0.4462 -0.7393  0.4902
  722MOL0     O99534  10.617  -2.853   8.887  0.8479  1.0852 -0.2379
  722MOL0     C99535  10.712  -2.953   8.844  0.1933  0.2168  0.1649
  722MOL0     C99536  10.689  -2.979   8.697 -0.2443 -0.3689  0.1203
  722MOL0     C99537  10.790  -3.095   8.645 -0.4818  0.5155 -0.6895
  722MOL0     C99538  10.754  -3.152   8.508  0.0155  0.7155 -0.2307
  722MOL0     C99539  10.795  -3.061   8.391  0.5340 -0.2088 -0.8743
  722MOL0     C99540  10.737  -3.134   8.270  0.3486 -0.0653  0.2570
  722MOL0     C99541  10.793  -3.062   8.148  0.1316  0.5413  0.1411
  722MOL0     C99542  10.713  -3.127   8.039 -0.3075  0.3509  0.5122
  722MOL0    Cl99543  10.744  -3.029   7.897  0.0727  0.3138 -0.5180
  722MOL0     C99544  10.752  -2.655   8.844 -0.1493 -0.2377  0.6357
  722MOL0     C99545  10.760  -2.512   8.842  0.4705 -0.3149  0.5535
  722MOL0     O99546  10.824  -2.266   8.989  0.5697 -0.3907  0.1525
  722MOL0     C99547  10.769  -2.037   8.719 -0.1924  0.1629 -1.0593
  722MOL0     C99548  10.796  -1.912   8.668  0.2655 -0.8812 -1.0954
  722MOL0     N99549  10.668  -1.237   8.661 -0.4551  0.5049 -0.6061
  722MOL0     N99550  10.647  -1.110   8.653 -0.1319 -0.0411 -0.3009
  722MOL0     C99551  11.163   0.000   8.950 -0.5609 -0.2047  0.7199
  722MOL0     C99552  11.263   0.094   8.962  0.3770 -0.1074  0.5713
  722MOL0     C99553  11.546   0.399   9.037  0.2387 -0.3161  0.9392
  722MOL0     C99554  11.678   0.391   9.088 -0.0637 -0.1238  0.6310
  722MOL0     C99555  11.772   0.490   9.058  0.3917  0.1175  0.1835
  722MOL0     C99556  11.745   0.589   8.967  0.4093 -0.1628 -0.5266
  722MOL0     O99557  11.837   0.678   8.936 -0.6422  0.4137  0.0123
  722MOL0     C99558  11.926   0.637   8.836  0.5266 -0.4994  0.3565
  722MOL0     C99559  12.071   0.681   8.876 -0.9350 -0.0271 -0.3588
  722MOL0     C99560  12.111   0.821   8.897  0.3424 -0.1143 -1.0925
  722MOL0     C99561  12.094   0.914   8.769 -0.9190  0.5557 -1.0467
  722MOL0     C99562  12.162   0.857   8.663 -0.2083 -0.4105  0.9253
  722MOL0     C99563  12.224   0.811   8.571 -1.3613  0.7319 -0.1637
  722MOL0     C99564  11.614   0.600   8.915  0.3549  0.2923 -0.0948
  722MOL0     C99565  11.509   0.513   8.955 -0.2171 -0.7819  0.0499
  722MOL0     C99566  11.371   0.519   8.900  0.4485  0.4628 -0.2961
  722MOL0     H99567  11.491  -0.091   9.131  1.0456  0.4158 -1.4485
  722MOL0     H99568  11.326  -0.271   9.095  2.2217 -0.1022 -0.4914
  722MOL0     H99569  11.036  -0.336   9.114  0.0838 -0.2434 -0.3310
  722MOL0     H99570  11.166  -0.390   8.995 -0.4704 -1.1523 -0.5213
  722MOL0     H99571  10.932  -0.499   8.989 -4.4195  1.8601  1.8969
  722MOL0     H99572  10.869  -0.351   8.924 -0.2158 -0.7825 -1.3003
  722MOL0     H99573  11.030  -0.363   8.728 -2.4256 -1.2798 -2.3478
  722MOL0     H99574  11.095  -0.512   8.804  1.0035  0.3121 -0.0584
  722MOL0     H99575  10.895  -0.643   8.777 -0.3700 -0.4678 -2.2218
  722MOL0     H99576  10.785  -0.499   8.749 -1.1559 -1.9137 -0.4853
  722MOL0     H99577  10.981  -0.585   8.557 -0.6740  0.2750 -2.1133
  722MOL0     H99578  10.862  -0.459   8.540  1.8707 -0.2498  0.8436
  722MOL0     H99579  10.673  -0.640   8.591 -0.5630  0.2560 -0.1183
  722MOL0     H99580  10.737  -0.647   8.428 -3.6109 -1.8627 -0.5133
  722MOL0     H99581  10.784  -0.830   8.673 -1.5258  0.6088 -0.5223
  722MOL0     H99582  10.909  -0.821   8.548  1.0035  5.7767  1.3481
  722MOL0     H99583  10.611  -0.895   8.472  0.3792 -0.0986 -0.6236
  722MOL0     H99584  10.747  -0.920   8.378 -3.9029 -4.9118 -1.6360
  722MOL0     H99585  10.880  -1.160   8.432 -1.2516  2.0351 -2.0141
  722MOL0     H99586  10.812  -1.437   8.448  1.9760  2.7395 -0.5043
  722MOL0     H99587  10.755  -1.490   8.605  0.4039 -3.5331 -3.2726
  722MOL0     H99588  11.029  -1.359   8.528  0.9817  1.1578  0.5238
  722MOL0     H99589  10.967  -1.387   8.694 -2.0293 -0.3907  0.3246
  722MOL0     H99590  11.056  -1.560   8.470 -2.6441  1.8175 -1.2596
  722MOL0     H99591  11.109  -1.585   8.636 -1.1006 -4.8838  1.2438
  722MOL0     H99592  10.836  -1.670   8.531 -2.0067  1.6824  1.8585
  722MOL0     H99593  10.982  -1.766   8.560 -0.8951 -0.3273  0.5723
  722MOL0     H99594  10.882  -1.769   8.963 -0.2162 -1.1922  0.8254
  722MOL0     H99595  10.876  -2.072   9.113 -0.7955 -2.0417 -4.9438
  722MOL0     H99596  10.705  -2.032   9.126  0.6764  0.9854  1.6676
  722MOL0     H99597  10.827  -1.902   9.152  0.5196  1.3336 -1.5242
  722MOL0     H99598  10.442  -2.445   8.926  0.1271 -0.5374  1.5426
  722MOL0     H99599  10.420  -2.660   8.920  0.5643  0.6642  1.5069
  722MOL0     H99600  10.817  -2.930   8.860  1.5190 -4.5265 -0.2580
  722MOL0     H99601  10.692  -3.041   8.906  0.0703 -0.4978 -0.8666
  722MOL0     H99602  10.589  -3.023   8.694  0.2047 -1.3836 -2.8516
  722MOL0     H99603  10.711  -2.887   8.642  3.1408 -0.4949  0.9961
  722MOL0     H99604  10.785  -3.179   8.715 -3.3453  0.2430 -1.1134
  722MOL0     H99605  10.890  -3.051   8.650 -0.8201  1.1519  1.1336
  722MOL0     H99606  10.647  -3.172   8.519 -0.2000  2.3764  1.1768
  722MOL0     H99607  10.818  -3.240   8.494 -1.1683 -0.1075 -0.5940
  722MOL0     H99608  10.735  -2.969   8.395 -3.2480 -2.5249  0.9331
  722MOL0     H99609  10.902  -3.038   8.388  0.2116  1.9337  1.0351
  722MOL0     H99610  10.630  -3.121   8.286  0.2646 -1.6187  1.1797
  722MOL0     H99611  10.766  -3.239   8.262 -3.2397 -1.1808  0.1922
  722MOL0     H99612  10.899  -3.083   8.135  1.0335  2.9970  2.5075
  722MOL0     H99613  10.777  -2.954   8.156 -1.8563  0.4431 -1.6346
  722MOL0     H99614  10.603  -3.132   8.043 -0.3074 -3.2124 -0.3148
  722MOL0     H99615  10.743  -3.232   8.028 -2.5250 -0.2709 -0.1035
  722MOL0     H99616  10.841  -2.713   8.824 -0.2317  0.3441 -1.6444
  722MOL0     H99617  10.856  -2.475   8.809 -0.0424 -0.4757 -1.2322
  722MOL0     H99618  10.758  -2.123   8.654 -0.6768 -0.8136  0.2767
  722MOL0     H99619  10.789  -1.891   8.562  3.4182  3.7646 -0.6800
  722MOL0     H99620  11.065   0.019   8.906  1.0120 -0.4532 -3.3947
  722MOL0     H99621  11.251   0.183   8.901  0.0984  0.9733  2.1493
  722MOL0     H99622  11.715   0.303   9.140 -0.1711 -1.4416 -1.3688
  722MOL0     H99623  11.873   0.471   9.093 -0.5534 -2.8280  1.6227
  722MOL0     H99624  11.933   0.529   8.819  1.4981 -0.4073  0.1271
  722MOL0     H99625  11.907   0.677   8.736 -0.2411 -3.1157 -0.6402
  722MOL0     H99626  12.141   0.635   8.805 -1.0375  1.6864 -1.6356
  722MOL0     H99627  12.090   0.628   8.970 -3.2841 -1.3394 -0.5455
  722MOL0     H99628  12.047   0.858   8.978 -0.2140 -0.2989 -1.4430
  722MOL0     H99629  12.216   0.834   8.923 -0.6280  1.1959  3.0196
  722MOL0     H99630  12.134   1.014   8.786  1.3996 -0.4780 -0.0590
  722MOL0     H99631  11.987   0.919   8.745 -1.0818 -0.9695 -0.7579
  722MOL0     H99632  12.286   0.798   8.485 -1.2217  0.7294 -0.0642
  722MOL0     H99633  11.586   0.683   8.851  1.5121  0.6311 -0.1889
  722MOL0     H99634  11.346   0.615   8.853 -1.8079  0.3532  0.5145
  722MOL0     H99635  11.364   0.436   8.828 -0.7608 -1.0943  1.5192
  722MOL0     H99636  11.294   0.490   8.972 -0.9575 -2.7385 -2.8313
  723MOL0     O99637   5.448   7.386  10.565 -0.4068  0.6689  0.1639
  723MOL0     C99638   5.513   7.473  10.625 -0.1351  0.5233 -0.0237
  723MOL0     O99639   5.459   7.567  10.714  0.2559 -0.0429 -0.3648
  723MOL0     C99640   5.319   7.579  10.721 -0.5085 -0.3077  0.1925
  723MOL0     C99641   5.238   7.606  10.617  0.2360 -0.7811 -0.5741
  723MOL0     C99642   5.100   7.612  10.631 -0.3765 -0.1195 -0.6213
  723MOL0     C99643   5.044   7.601  10.757  0.4112 -0.0070  0.1633
  723MOL0     O99644   4.906   7.620  10.777 -0.4398  0.5923 -0.9653
  723MOL0     C99645   4.848   7.536  10.881 -0.5681  0.3873 -0.1122
  723MOL0     C99646   4.868   7.386  10.872 -0.1467  0.6868 -0.3016
  723MOL0     C99647   4.772   7.312  10.971  0.1400  0.8339 -0.5492
  723MOL0     C99648   4.822   7.172  10.993  0.5819  0.1960 -0.3457
  723MOL0     C99649   4.726   7.099  11.091  0.2455  1.1993  0.0817
  723MOL0     C99650   4.727   6.951  11.051  0.0137  0.2997 -0.9566
  723MOL0     C99651   4.637   6.877  11.154 -0.2593 -0.2955 -1.3712
  723MOL0     C99652   4.649   6.902  11.304  0.4365 -0.0500  0.0466
  723MOL0     N99653   4.584   6.794  11.382  0.2265 -0.2234 -0.1192
  723MOL0     C99654   4.455   6.768  11.407  0.6870 -0.9542  0.0509
  723MOL0     C99655   4.456   6.649  11.473  1.2029  0.1033  0.1210
  723MOL0     C99656   4.356   6.580  11.556  0.2737 -0.4600 -0.0700
  723MOL0     C99657   4.361   6.423  11.564  0.0756  0.4779 -0.6132
  723MOL0     C99658   4.317   6.363  11.696 -0.7516  0.5979  0.4656
  723MOL0     C99659   4.177   6.395  11.755 -0.4249  0.5149 -0.7705
  723MOL0     O99660   4.074   6.334  11.680 -0.2660 -0.0556  0.3401
  723MOL0     C99661   3.947   6.377  11.698 -0.0026  0.0539 -0.1686
  723MOL0     C99662   3.885   6.434  11.813  0.1963 -0.2724 -0.5301
  723MOL0     C99663   3.758   6.495  11.799 -0.0909 -0.4606  0.1908
  723MOL0     C99664   3.691   6.562  11.921 -1.0237 -0.8124 -1.1319
  723MOL0     C99665   3.693   6.502  11.675 -0.1320  0.5473 -0.5597
  723MOL0     C99666   3.561   6.571  11.659  0.0308 -1.1527  0.3439
  723MOL0     O99667   3.528   6.699  11.713  0.2980 -0.3324 -0.3149
  723MOL0     C99668   3.392   6.747  11.702  0.3393 -0.9827 -0.3616
  723MOL0     C99669   3.377   6.886  11.683  0.8367  0.2219 -0.7984
  723MOL0     C99670   3.244   6.928  11.663  0.4532  0.1289 -0.0144
  723MOL0     C99671   3.130   6.846  11.647  0.3267 -0.0455 -1.0111
  723MOL0     O99672   3.023   6.908  11.600  0.2335 -0.1092  0.2431
  723MOL0     C99673   2.921   6.826  11.536  0.0284 -0.5421  0.1049
  723MOL0     C99674   2.808   6.918  11.491  0.0340  0.3479 -1.1081
  723MOL0     C99675   2.672   6.843  11.481 -0.1477  0.3933 -1.1340
  723MOL0     C99676   2.569   6.907  11.393 -0.2027  0.6967  0.7705
  723MOL0     C99677   2.429   6.843  11.406  0.0395 -0.5344 -0.7285
  723MOL0     C99678   2.419   6.690  11.351 -0.6786 -0.0417 -0.8509
  723MOL0     C99679   2.452   6.683  11.199 -1.0231  0.0184  0.3297
  723MOL0     C99680   2.421   6.542  11.151 -0.0975 -0.1792 -0.4953
  723MOL0    Cl99681   2.244   6.510  11.184 -0.0481  0.1169  0.2300
  723MOL0     C99682   3.148   6.709  11.673  0.3061  0.1702 -0.9541
  723MOL0     C99683   3.281   6.666  11.702  0.6039 -0.7939  0.3215
  723MOL0     O99684   3.478   6.505  11.597  0.0970  0.6581  0.5533
  723MOL0     C99685   3.749   6.421  11.572  0.7661 -0.5013 -0.0877
  723MOL0     C99686   3.872   6.365  11.582  0.1751  0.0631  0.2199
  723MOL0     N99687   4.581   6.604  11.465  0.0078  0.8158  0.0907
  723MOL0     N99688   4.649   6.677  11.400  0.0521 -0.3652 -0.0246
  723MOL0     C99689   5.128   7.578  10.866 -0.4855  0.5274 -0.0333
  723MOL0     C99690   5.260   7.563  10.846  0.1908 -0.3463 -0.8016
  723MOL0     C99691   5.659   7.466  10.644 -0.5232 -0.7019  0.4288
  723MOL0     C99692   5.713   7.480  10.773 -0.2996 -0.0088  0.3962
  723MOL0     C99693   5.855   7.468  10.788 -0.2145  0.6513 -0.3532
  723MOL0     C99694   5.940   7.430  10.679 -0.5276 -0.0454  0.9521
  723MOL0     O99695   6.070   7.420  10.726  0.3417  0.4726  0.5711
  723MOL0     C99696   6.173   7.421  10.624 -0.4475  0.1371 -0.5445
  723MOL0     C99697   6.297   7.344  10.673 -0.1332 -0.7801  0.3482
  723MOL0     C99698   6.405   7.311  10.569 -0.2628 -0.9380 -0.6929
  723MOL0     C99699   6.522   7.228  10.621 -1.3319 -0.0875  0.5049
  723MOL0     C99700   6.619   7.295  10.709  0.6848  0.1373 -0.4948
  723MOL0     C99701   6.690   7.347  10.790  0.1826 -0.2313 -1.5602
  723MOL0     C99702   5.885   7.407  10.553 -0.1253 -1.0254  0.0815
  723MOL0     C99703   5.747   7.427  10.533  0.5272  0.4789 -0.3199
  723MOL0     C99704   5.692   7.440  10.391 -0.6488 -0.0572 -0.2057
  723MOL0     H99705   5.277   7.618  10.516  1.3996  1.9139  0.1177
  723MOL0     H99706   5.043   7.623  10.540  1.7621  2.9483 -1.7453
  723MOL0     H99707   4.745   7.556  10.852 -0.5732  0.5319  0.0089
  723MOL0     H99708   4.867   7.569  10.983  2.7069 -1.0330 -0.1239
  723MOL0     H99709   4.850   7.357  10.768 -1.3831 -1.1071  0.3787
  723MOL0     H99710   4.968   7.343  10.888 -1.0277 -0.9216  1.1681
  723MOL0     H99711   4.777   7.353  11.072  1.3241  2.0951 -1.0849
  723MOL0     H99712   4.673   7.304  10.926  0.6134  0.5793 -1.5653
  723MOL0     H99713   4.820   7.124  10.895 -0.1366 -1.2942  0.3668
  723MOL0     H99714   4.922   7.169  11.038  1.5362  2.1534 -2.1587
  723MOL0     H99715   4.625   7.136  11.071 -1.0676 -1.7369  0.7956
  723MOL0     H99716   4.762   7.124  11.192  0.1716  0.4454  0.3027
  723MOL0     H99717   4.685   6.930  10.952 -1.8753  1.7185 -0.5170
  723MOL0     H99718   4.832   6.921  11.054 -0.0796 -0.0353 -1.0112
  723MOL0     H99719   4.659   6.770  11.143 -0.0489 -0.2726 -1.1793
  723MOL0     H99720   4.530   6.891  11.138 -0.4352  0.1525  0.0772
  723MOL0     H99721   4.756   6.913  11.326  0.2743  3.9338 -0.4052
  723MOL0     H99722   4.604   6.997  11.334  0.5425  0.2978 -0.8819
  723MOL0     H99723   4.377   6.842  11.389  2.8774  1.1360 -1.5819
  723MOL0     H99724   4.264   6.606  11.503 -1.5603 -2.0438  2.1640
  723MOL0     H99725   4.348   6.615  11.659 -3.2326  1.4547 -0.8170
  723MOL0     H99726   4.305   6.377  11.482  1.0874  0.8895 -1.5581
  723MOL0     H99727   4.469   6.409  11.555 -0.0773 -1.7433  0.2158
  723MOL0     H99728   4.322   6.254  11.679  1.7412  0.7598 -0.2075
  723MOL0     H99729   4.391   6.384  11.773 -2.0716  1.9280  1.4219
  723MOL0     H99730   4.179   6.355  11.856 -0.0919  0.6326 -0.7274
  723MOL0     H99731   4.162   6.503  11.765  1.3460  0.5845  2.5899
  723MOL0     H99732   3.932   6.426  11.910 -2.0706 -1.9935  0.5288
  723MOL0     H99733   3.609   6.501  11.962 -0.6280 -1.4691 -1.2919
  723MOL0     H99734   3.651   6.660  11.893 -0.1748 -0.3538 -0.7568
  723MOL0     H99735   3.769   6.577  11.995 -0.6291 -3.2187 -0.9552
  723MOL0     H99736   3.444   6.972  11.686 -0.1820  1.1393  4.0087
  723MOL0     H99737   3.227   7.033  11.639 -1.9022  0.1698  1.4821
  723MOL0     H99738   2.951   6.783  11.440  0.9622  2.2573 -0.9702
  723MOL0     H99739   2.889   6.749  11.607  0.2409 -0.1023  0.6848
  723MOL0     H99740   2.795   7.007  11.554  0.7461  1.2693 -2.2063
  723MOL0     H99741   2.829   6.966  11.395  2.5238 -1.3229 -1.4919
  723MOL0     H99742   2.636   6.838  11.584  3.7040 -1.1321  0.3185
  723MOL0     H99743   2.698   6.741  11.450  2.1484  0.7619 -0.6290
  723MOL0     H99744   2.607   6.895  11.291  0.9425 -1.5054  1.4127
  723MOL0     H99745   2.569   7.015  11.411 -0.6276  0.9732 -0.7330
  723MOL0     H99746   2.396   6.841  11.510  1.4441  0.6310 -0.2167
  723MOL0     H99747   2.346   6.902  11.365 -1.3519 -0.2681  2.2176
  723MOL0     H99748   2.314   6.662  11.365 -1.0462  2.2134  1.9093
  723MOL0     H99749   2.484   6.624  11.409 -1.7601  0.3465  0.8802
  723MOL0     H99750   2.555   6.705  11.168 -0.1525 -0.8771  2.4226
  723MOL0     H99751   2.384   6.756  11.155  1.3270  1.1689 -1.6867
  723MOL0     H99752   2.487   6.472  11.203  1.6179 -0.1796 -2.5397
  723MOL0     H99753   2.433   6.537  11.043  3.4261  0.1883 -0.2211
  723MOL0     H99754   3.061   6.644  11.666  0.1107  0.4915 -1.6044
  723MOL0     H99755   3.306   6.567  11.738 -0.5074 -1.2562 -0.1257
  723MOL0     H99756   3.692   6.415  11.481 -0.2540 -1.2865  0.5845
  723MOL0     H99757   3.916   6.305  11.503 -0.4438  0.3739 -0.3706
  723MOL0     H99758   5.093   7.562  10.967 -0.1344 -4.7461 -0.4807
  723MOL0     H99759   5.326   7.530  10.926 -0.2548 -2.6214 -1.3129
  723MOL0     H99760   5.655   7.501  10.862  1.5513  2.5461  1.1224
  723MOL0     H99761   5.893   7.490  10.887 -0.5251  2.6504 -0.6194
  723MOL0     H99762   6.157   7.353  10.540  1.8560 -0.0245 -0.9411
  723MOL0     H99763   6.191   7.526  10.597 -1.0245  0.7274  1.2313
  723MOL0     H99764   6.276   7.249  10.723  1.7341 -1.3659  0.1158
  723MOL0     H99765   6.337   7.412  10.750 -0.4943 -0.1615 -0.0003
  723MOL0     H99766   6.351   7.251  10.496 -0.2454 -0.9231 -0.7187
  723MOL0     H99767   6.433   7.400  10.511 -3.0710  0.3126 -0.3123
  723MOL0     H99768   6.582   7.194  10.537 -1.5571 -0.7005  0.5879
  723MOL0     H99769   6.492   7.132  10.663 -0.2113 -0.7705 -0.2079
  723MOL0     H99770   6.751   7.395  10.864  0.5693 -1.1748 -1.2581
  723MOL0     H99771   5.951   7.366  10.477  0.4040 -0.0012 -0.0164
  723MOL0     H99772   5.616   7.363  10.371 -0.2957 -0.1744 -1.1302
  723MOL0     H99773   5.649   7.539  10.372 -1.0163 -0.4049 -1.2252
  723MOL0     H99774   5.772   7.424  10.319  0.7624  1.0254  1.0630
  724MOL0     O99775   9.777   7.810   4.385 -0.6440 -0.0440  0.7343
  724MOL0     C99776   9.761   7.862   4.497 -0.5404  0.1022  0.3869
  724MOL0     O99777   9.841   7.958   4.549  0.0576  0.8520  0.4124
  724MOL0     C99778   9.931   8.000   4.451  0.8364  1.1916 -0.4156
  724MOL0     C99779  10.053   7.934   4.453  0.3134  0.2635  0.4945
  724MOL0     C99780  10.153   7.964   4.358 -0.0876 -0.5873 -1.4258
  724MOL0     C99781  10.128   8.077   4.279 -0.0368 -0.1671  1.0656
  724MOL0     O99782  10.221   8.119   4.184  0.7788 -0.6577  0.5088
  724MOL0     C99783  10.347   8.064   4.167  0.2494  0.0003 -0.0194
  724MOL0     C99784  10.433   8.147   4.067  0.1700  0.2768 -0.5928
  724MOL0     C99785  10.513   8.048   3.974  0.4247 -0.2623 -0.1688
  724MOL0     C99786  10.574   8.133   3.863  0.2513 -0.1972  0.4491
  724MOL0     C99787  10.628   8.059   3.742  0.9733 -0.8298  0.5191
  724MOL0     C99788  10.667   8.135   3.615  0.1821  0.1081  0.8520
  724MOL0     C99789  10.806   8.195   3.634 -1.6148  1.1438 -0.1947
  724MOL0     C99790  10.875   8.239   3.504 -0.4159 -0.8427 -0.1576
  724MOL0     N99791  11.004   8.310   3.525  0.0204  0.0522 -0.6775
  724MOL0     C99792  11.110   8.265   3.598 -0.2959  0.5110  0.7531
  724MOL0     C99793  11.219   8.340   3.560  0.3041 -0.0838 -0.3192
  724MOL0     C99794  11.363   8.344   3.583  0.0734  0.3767  0.1158
  724MOL0     C99795  11.398   8.443   3.690 -0.9809 -1.0512  0.1147
  724MOL0     C99796  11.545   8.438   3.739  0.7240  0.6096  0.0435
  724MOL0     C99797  11.645   8.405   3.628  0.4791 -0.0217 -0.2374
  724MOL0     O99798  11.647   8.496   3.527 -0.9950  0.3477  1.1147
  724MOL0     C99799  11.652   8.627   3.556 -0.9326  0.7871 -0.1901
  724MOL0     C99800  11.547   8.696   3.513  0.6128 -0.2962  0.4453
  724MOL0     C99801  11.545   8.829   3.546 -1.0229 -0.0977  0.9969
  724MOL0     C99802  11.426   8.913   3.494 -0.3467  0.4131 -0.7113
  724MOL0     C99803  11.653   8.896   3.623  0.1684 -0.1432  0.6032
  724MOL0     C99804  11.652   9.036   3.662  1.0216 -0.4095  0.5722
  724MOL0     O99805  11.771   9.099   3.695 -0.2592 -0.6252  0.1504
  724MOL0     C99806  11.775   9.241   3.693  0.3977  0.7991  0.5608
  724MOL0     C99807  11.863   9.307   3.606 -1.2504 -0.8957  0.0941
  724MOL0     C99808  11.877   9.447   3.610 -0.0215 -0.1547  0.5065
  724MOL0     C99809  11.805   9.523   3.703 -0.2689 -0.0258 -0.4738
  724MOL0     O99810  11.827   9.658   3.711 -0.0887 -0.1381 -0.1573
  724MOL0     C99811  11.719   9.744   3.694  0.6155  0.5319 -0.3271
  724MOL0     C99812  11.768   9.846   3.598 -0.2213 -0.7591  0.2980
  724MOL0     C99813  11.642   9.925   3.535  0.3260 -0.1093  0.8654
  724MOL0     C99814  11.678   9.974   3.395  0.3340 -0.4578  0.4338
  724MOL0     C99815  11.560  10.029   3.322 -0.3177 -0.6188 -0.1048
  724MOL0     C99816  11.548  10.184   3.322  0.3013  0.4595 -0.7928
  724MOL0     C99817  11.475  10.238   3.443  0.2764  0.1810 -1.1823
  724MOL0     C99818  11.462  10.390   3.439  0.0167  0.3742 -0.3232
  724MOL0    Cl99819  11.370  10.447   3.300  0.1668  0.2082  0.2119
  724MOL0     C99820  11.714   9.464   3.790  0.2195 -0.4549  0.2397
  724MOL0     C99821  11.701   9.320   3.780  0.3080 -0.7617 -0.0624
  724MOL0     O99822  11.539   9.088   3.685  0.4610  0.4988  0.4040
  724MOL0     C99823  11.760   8.816   3.662 -0.1630 -0.5780 -0.2268
  724MOL0     C99824  11.767   8.678   3.622 -0.4396  0.4941 -0.0060
  724MOL0     N99825  11.173   8.438   3.477  0.2762 -0.4381 -0.0065
  724MOL0     N99826  11.045   8.427   3.461 -0.2276 -0.2438 -0.8291
  724MOL0     C99827  10.006   8.148   4.284  0.2914  0.6215  0.0290
  724MOL0     C99828   9.908   8.103   4.366 -0.2409  0.2742 -0.5980
  724MOL0     C99829   9.648   7.823   4.591 -0.2009  0.3241 -0.5646
  724MOL0     C99830   9.647   7.868   4.726  0.3887  0.5537  0.2650
  724MOL0     C99831   9.544   7.828   4.816  0.1362 -0.9135 -0.3237
  724MOL0     C99832   9.439   7.750   4.773  0.6763  1.4545 -0.0959
  724MOL0     O99833   9.344   7.717   4.871  0.4436 -0.9238  0.0839
  724MOL0     C99834   9.230   7.811   4.872  0.1658  0.2805  0.3567
  724MOL0     C99835   9.117   7.765   4.967  0.5499 -0.4241  1.4725
  724MOL0     C99836   9.021   7.882   4.992  1.1405  0.2435  0.1370
  724MOL0     C99837   8.881   7.845   5.053  0.3458 -0.1605 -0.3182
  724MOL0     C99838   8.904   7.743   5.156  0.3027 -0.2731  0.2783
  724MOL0     C99839   8.923   7.663   5.240 -0.3000 -0.0025 -0.4212
  724MOL0     C99840   9.430   7.713   4.645  0.8949  0.6963 -0.3622
  724MOL0     C99841   9.530   7.739   4.549 -0.1357  0.1153  0.0254
  724MOL0     C99842   9.504   7.684   4.404  0.1782 -0.3551 -0.0547
  724MOL0     H99843  10.082   7.856   4.522  2.0681 -2.6781 -3.1784
  724MOL0     H99844  10.246   7.909   4.365 -0.4675 -1.1807 -0.8868
  724MOL0     H99845  10.351   7.959   4.137  0.2170  0.5539 -2.1881
  724MOL0     H99846  10.397   8.066   4.264  3.0429 -0.6093 -1.3490
  724MOL0     H99847  10.370   8.215   4.008  0.3557  2.5161  1.6122
  724MOL0     H99848  10.492   8.218   4.126 -2.3342  3.1693 -1.2810
  724MOL0     H99849  10.591   7.995   4.030 -0.1904  0.3758  1.3473
  724MOL0     H99850  10.432   7.982   3.938  1.2947 -0.8497 -1.0990
  724MOL0     H99851  10.502   8.211   3.836  2.0195  0.7510 -1.8286
  724MOL0     H99852  10.662   8.186   3.901  0.1388  1.4775 -1.4595
  724MOL0     H99853  10.547   7.996   3.704  1.3351 -1.1053  0.1902
  724MOL0     H99854  10.707   7.989   3.771  1.5673  0.2206  1.4784
  724MOL0     H99855  10.671   8.063   3.533  0.0272 -0.1496  1.0708
  724MOL0     H99856  10.597   8.215   3.588 -1.2952 -1.8121 -1.3157
  724MOL0     H99857  10.864   8.115   3.681 -0.1570  1.1232 -1.8872
  724MOL0     H99858  10.807   8.278   3.705  0.9601  1.3120 -0.3116
  724MOL0     H99859  10.885   8.156   3.433  1.3438 -1.2777  0.5418
  724MOL0     H99860  10.803   8.315   3.471 -1.0275  0.3058  3.3733
  724MOL0     H99861  11.108   8.177   3.661  2.3668 -0.4733 -0.3980
  724MOL0     H99862  11.414   8.374   3.491  0.7932 -2.3059 -0.4512
  724MOL0     H99863  11.401   8.245   3.611  1.6788  0.6940 -0.8404
  724MOL0     H99864  11.382   8.545   3.654  1.0403 -0.0778  1.7461
  724MOL0     H99865  11.333   8.426   3.776  0.2055 -4.1165  0.5343
  724MOL0     H99866  11.559   8.536   3.787  0.0611  3.1416 -4.4062
  724MOL0     H99867  11.548   8.368   3.824 -1.4904  3.6634  2.9257
  724MOL0     H99868  11.741   8.401   3.681 -0.0863  4.8115  1.7011
  724MOL0     H99869  11.626   8.313   3.572 -3.0110 -0.0328  0.7228
  724MOL0     H99870  11.465   8.642   3.468  1.3427 -0.3739 -0.8401
  724MOL0     H99871  11.346   8.913   3.568 -0.5315 -0.8204 -0.8879
  724MOL0     H99872  11.386   8.869   3.402 -1.0223  1.6786 -1.0490
  724MOL0     H99873  11.460   9.013   3.467  0.7730 -0.3509 -2.2345
  724MOL0     H99874  11.928   9.243   3.547 -1.1114  0.2655 -1.0561
  724MOL0     H99875  11.929   9.504   3.534  1.3529  0.0561  1.5645
  724MOL0     H99876  11.629   9.694   3.657 -1.8002  3.3108  1.3622
  724MOL0     H99877  11.692   9.779   3.794  3.9301 -2.3334  1.8291
  724MOL0     H99878  11.836   9.919   3.642 -1.9981  2.1085 -1.3558
  724MOL0     H99879  11.822   9.785   3.526  0.7265  0.3651  0.0288
  724MOL0     H99880  11.623  10.011   3.600  1.7386  1.4430 -0.6662
  724MOL0     H99881  11.554   9.861   3.525  0.6150 -0.2018 -1.6204
  724MOL0     H99882  11.717   9.889   3.338  2.3420  0.2597  0.6821
  724MOL0     H99883  11.758  10.048   3.396  0.7596 -0.7025 -3.0012
  724MOL0     H99884  11.549   9.996   3.218 -1.5688 -0.9305  0.1125
  724MOL0     H99885  11.476   9.981   3.373  1.1867 -2.4166  0.7978
  724MOL0     H99886  11.497  10.218   3.231  0.3070 -0.3030 -1.0848
  724MOL0     H99887  11.645  10.234   3.329 -0.7728  2.5185  0.4888
  724MOL0     H99888  11.526  10.196   3.530  1.5470 -1.7014 -2.7263
  724MOL0     H99889  11.379  10.187   3.448  1.4733 -2.1801  3.7062
  724MOL0     H99890  11.560  10.438   3.434  2.9823 -4.8423 -0.4135
  724MOL0     H99891  11.413  10.406   3.535  0.4039 -3.6954  0.7577
  724MOL0     H99892  11.658   9.524   3.861 -0.4449 -0.5337 -0.2078
  724MOL0     H99893  11.631   9.269   3.846  2.2277  1.7943  4.4174
  724MOL0     H99894  11.841   8.861   3.719 -0.6945 -2.4103  2.1259
  724MOL0     H99895  11.837   8.604   3.659  1.0747  1.7199 -0.3544
  724MOL0     H99896   9.986   8.224   4.209  1.2289 -3.2079 -4.5657
  724MOL0     H99897   9.804   8.133   4.373 -0.4586 -0.6166  0.1512
  724MOL0     H99898   9.714   7.945   4.764  0.5543 -0.1503  1.4675
  724MOL0     H99899   9.548   7.847   4.923 -0.7168 -1.3520 -0.2078
  724MOL0     H99900   9.277   7.904   4.906  0.1971  0.7546 -0.9227
  724MOL0     H99901   9.185   7.830   4.774 -2.8639  2.4536  1.9928
  724MOL0     H99902   9.156   7.737   5.066  2.5343 -1.9036  0.3322
  724MOL0     H99903   9.052   7.695   4.913 -0.2593  2.4284 -1.5427
  724MOL0     H99904   9.058   7.951   5.068 -1.5339 -1.5375  3.2870
  724MOL0     H99905   8.998   7.937   4.900 -0.2007 -1.1721 -0.4114
  724MOL0     H99906   8.807   7.806   4.983 -3.0867  1.0120  2.3443
  724MOL0     H99907   8.839   7.939   5.091 -0.5312 -1.8654  3.3954
  724MOL0     H99908   8.965   7.593   5.309  3.1009  2.3417  0.1351
  724MOL0     H99909   9.346   7.654   4.610  2.9593 -2.3706 -0.5547
  724MOL0     H99910   9.593   7.638   4.360  1.3544  1.4817  0.2943
  724MOL0     H99911   9.413   7.627   4.384 -1.4059  2.5288 -1.6995
  724MOL0     H99912   9.480   7.782   4.361 -1.0334  0.3446  2.0755
  725MOL0     O99913   0.637   2.806   4.954 -0.5218 -0.1310 -0.0102
  725MOL0     C99914   0.539   2.745   4.938 -0.1153 -0.5523 -0.2635
  725MOL0     O99915   0.442   2.719   5.032  0.0803  1.7181  0.4090
  725MOL0     C99916   0.463   2.750   5.165  1.0218 -0.3078 -0.1626
  725MOL0     C99917   0.364   2.816   5.240  0.5263 -0.5832  0.0838
  725MOL0     C99918   0.392   2.847   5.374 -0.1113  0.7536  0.2453
  725MOL0     C99919   0.510   2.791   5.432 -0.2333 -0.6693  0.5577
  725MOL0     O99920   0.515   2.809   5.572  0.6568 -0.6404  0.4364
  725MOL0     C99921   0.646   2.803   5.628 -0.3259 -0.1976 -0.7968
  725MOL0     C99922   0.623   2.837   5.772  0.2750  0.4654  0.3370
  725MOL0     C99923   0.555   2.976   5.791  1.0694 -0.0108 -0.6488
  725MOL0     C99924   0.583   3.038   5.928 -0.2055  0.2041 -0.0381
  725MOL0     C99925   0.495   3.156   5.946  0.1573 -0.1025 -0.8644
  725MOL0     C99926   0.502   3.234   6.083  0.6017  0.5442  0.0111
  725MOL0     C99927   0.395   3.345   6.089 -0.0137  0.0607 -0.5221
  725MOL0     C99928   0.266   3.314   6.163  0.6010 -0.9761 -0.2943
  725MOL0     N99929   0.184   3.442   6.172  0.8919 -0.1285 -0.0947
  725MOL0     C99930   0.205   3.561   6.233 -0.1553 -0.2389 -0.0076
  725MOL0     C99931   0.095   3.643   6.212  0.5297 -0.6900 -0.6564
  725MOL0     C99932   0.071   3.780   6.254 -0.1959 -0.5008  1.3159
  725MOL0     C99933   0.124   3.875   6.143  1.0978 -0.7450  0.1408
  725MOL0     C99934   0.059   4.013   6.154 -0.1080 -0.5713  1.0847
  725MOL0     C99935   0.096   4.102   6.036 -0.0224  0.4762  1.0253
  725MOL0     O99936   0.008   4.216   6.061  0.1228 -0.5268 -0.4307
  725MOL0     C99937   0.024   4.326   5.989 -0.5032  0.3952 -0.0382
  725MOL0     C99938   0.130   4.352   5.894  1.2700  0.5926 -0.1277
  725MOL0     C99939   0.120   4.456   5.814 -1.1407 -0.4529  0.2460
  725MOL0     C99940   0.236   4.483   5.710 -0.0347 -0.0483 -0.4559
  725MOL0     C99941   0.007   4.543   5.810  0.9542  0.7729 -0.0868
  725MOL0     C99942  -0.011   4.673   5.726  0.3439  0.1798 -1.1401
  725MOL0     O99943  -0.136   4.730   5.731 -0.4855 -0.1206 -0.5981
  725MOL0     C99944  -0.176   4.847   5.668  0.6024  0.3044 -0.2112
  725MOL0     C99945  -0.133   4.895   5.545 -0.8412 -0.1439 -0.3897
  725MOL0     C99946  -0.180   5.019   5.495 -0.1105  0.8055  0.1076
  725MOL0     C99947  -0.273   5.101   5.560 -0.5203  0.1951 -0.0647
  725MOL0     O99948  -0.316   5.206   5.492  0.0711 -0.0760 -0.8493
  725MOL0     C99949  -0.383   5.302   5.579  0.2857 -0.5732  0.3045
  725MOL0     C99950  -0.421   5.427   5.511  0.2207 -0.6585  0.1046
  725MOL0     C99951  -0.503   5.429   5.380 -0.0611 -0.1785 -0.0024
  725MOL0     C99952  -0.640   5.358   5.404 -0.3072  0.3130 -0.2698
  725MOL0     C99953  -0.740   5.353   5.282 -0.5188  0.3138 -0.2800
  725MOL0     C99954  -0.884   5.324   5.310  0.5039 -0.0983 -0.2379
  725MOL0     C99955  -0.978   5.367   5.194  1.5165 -1.2747 -0.4840
  725MOL0     C99956  -1.123   5.304   5.190 -0.1391  0.4757  0.6362
  725MOL0    Cl99957  -1.222   5.377   5.320  0.0308  0.1262  0.1078
  725MOL0     C99958  -0.323   5.048   5.676 -0.3411  1.1498 -0.3089
  725MOL0     C99959  -0.279   4.920   5.726  0.5447  0.4193 -0.9385
  725MOL0     O99960   0.076   4.709   5.647 -0.2753 -0.8288  0.4113
  725MOL0     C99961  -0.097   4.516   5.901  0.2079  0.4785  0.0355
  725MOL0     C99962  -0.085   4.401   5.990 -0.2156 -0.9873 -0.2646
  725MOL0     N99963   0.015   3.578   6.126  0.2214  0.0667  0.5970
  725MOL0     N99964   0.062   3.459   6.109  0.0520 -0.1954  1.3526
  725MOL0     C99965   0.608   2.722   5.351  0.2812  1.2815  0.1156
  725MOL0     C99966   0.578   2.695   5.220 -0.1049 -0.8483  1.2960
  725MOL0     C99967   0.506   2.697   4.803  1.1789  0.0619  0.0060
  725MOL0     C99968   0.401   2.602   4.793 -0.1029 -0.6709  0.3157
  725MOL0     C99969   0.342   2.571   4.674 -0.1193  0.0705 -0.4117
  725MOL0     C99970   0.395   2.619   4.551  0.6608  0.6587 -0.2907
  725MOL0     O99971   0.353   2.569   4.423  0.4907 -1.1242  0.5268
  725MOL0     C99972   0.449   2.505   4.353 -0.5854  1.1504  0.2347
  725MOL0     C99973   0.398   2.363   4.305 -0.2011  1.0653  1.5179
  725MOL0     C99974   0.292   2.370   4.201 -0.0006 -0.9158 -0.5445
  725MOL0     C99975   0.330   2.455   4.079  0.4243 -0.4803  0.5198
  725MOL0     C99976   0.312   2.377   3.954 -0.8116 -0.0180  0.3883
  725MOL0     C99977   0.299   2.305   3.864  0.0964  1.1211 -0.6177
  725MOL0     C99978   0.500   2.706   4.556  0.5132 -0.8695 -0.1792
  725MOL0     C99979   0.556   2.741   4.685  0.8001 -0.5216  0.1858
  725MOL0     C99980   0.666   2.833   4.677 -0.1708 -0.2433 -0.0417
  725MOL0     H99981   0.279   2.849   5.181  0.9752  1.9517  0.7103
  725MOL0     H99982   0.335   2.916   5.435  0.1782  2.0505 -0.9138
  725MOL0     H99983   0.721   2.873   5.589  1.1205 -0.7101  0.9084
  725MOL0     H99984   0.688   2.702   5.619 -2.2522 -0.9426 -1.8664
  725MOL0     H99985   0.571   2.752   5.819  0.0756  1.1261  1.3359
  725MOL0     H99986   0.718   2.838   5.827 -0.9258 -1.0080  2.6354
  725MOL0     H99987   0.588   3.035   5.705 -0.0644 -0.4563 -1.4043
  725MOL0     H99988   0.446   2.975   5.787  1.0778 -2.0425 -2.0266
  725MOL0     H99989   0.554   2.976   6.014 -0.9092  0.6455  0.0560
  725MOL0     H99990   0.689   3.059   5.941  0.3148 -2.1141  0.0088
  725MOL0     H99991   0.391   3.122   5.945  0.5163 -1.5529  1.6187
  725MOL0     H99992   0.493   3.230   5.866 -3.1736  0.3852 -0.4561
  725MOL0     H99993   0.498   3.155   6.159  2.8570  0.4554  0.0962
  725MOL0     H99994   0.597   3.286   6.097 -0.3825  3.4534 -2.8411
  725MOL0     H99995   0.358   3.371   5.990 -0.9188 -0.5891 -0.3756
  725MOL0     H99996   0.442   3.434   6.130 -0.5822 -0.1182  0.5593
  725MOL0     H99997   0.199   3.238   6.122 -0.6064 -0.0591 -0.0629
  725MOL0     H99998   0.295   3.279   6.263 -0.5446  0.7968  0.7221
  725MOL0     H99999   0.290   3.576   6.300 -2.8435 -1.1334  3.9148
  725MOL0     H    0   0.120   3.808   6.348  1.8423  5.0522 -0.9910
  725MOL0     H    1  -0.037   3.796   6.266 -0.5261 -1.5430 -0.0875
  725MOL0     H    2   0.232   3.886   6.160  0.6052 -0.9830  4.7151
  725MOL0     H    3   0.099   3.835   6.045 -0.5863  1.1992 -0.2881
  725MOL0     H    4  -0.049   3.998   6.146  0.0001 -0.7826 -0.2216
  725MOL0     H    5   0.077   4.054   6.253  1.5430 -0.9757  0.9709
  725MOL0     H    6   0.205   4.115   6.035  0.0461  0.1177 -1.0353
  725MOL0     H    7   0.070   4.051   5.943  0.8283 -0.9392  1.5335
  725MOL0     H    8   0.214   4.287   5.871  0.3523 -0.8021  0.3360
  725MOL0     H    9   0.291   4.572   5.743  1.5190 -1.7476  1.9516
  725MOL0     H   10   0.199   4.486   5.607 -0.9573 -0.4612 -0.1509
  725MOL0     H   11   0.309   4.402   5.718  0.5918  0.5449 -0.0855
  725MOL0     H   12  -0.063   4.836   5.487  0.5853  0.9709  0.1612
  725MOL0     H   13  -0.143   5.072   5.409  3.4030 -0.2838  0.7655
  725MOL0     H   14  -0.476   5.252   5.609 -0.5186 -0.4533 -1.8193
  725MOL0     H   15  -0.325   5.324   5.669  0.9834 -1.2035  0.0219
  725MOL0     H   16  -0.484   5.486   5.578 -5.5950 -1.1075 -4.1745
  725MOL0     H   17  -0.328   5.484   5.494  0.6001 -1.6059 -1.1306
  725MOL0     H   18  -0.444   5.392   5.295  0.9526 -1.9667  1.4262
  725MOL0     H   19  -0.543   5.530   5.364  1.5524  0.3124 -1.2745
  725MOL0     H   20  -0.682   5.408   5.492 -0.8947 -1.3725  0.4521
  725MOL0     H   21  -0.622   5.252   5.420 -0.2710  0.4268  0.4895
  725MOL0     H   22  -0.745   5.458   5.254 -0.7079  0.3686 -0.0406
  725MOL0     H   23  -0.705   5.299   5.193  1.5269  1.1522 -0.0498
  725MOL0     H   24  -0.910   5.375   5.403  1.5369 -1.5960  0.9310
  725MOL0     H   25  -0.905   5.218   5.329 -3.4354  0.8256  1.6434
  725MOL0     H   26  -0.922   5.360   5.100  0.9293  1.0163 -1.0794
  725MOL0     H   27  -1.017   5.469   5.193 -2.0128 -2.4681 -3.1073
  725MOL0     H   28  -1.112   5.197   5.210  0.5317  0.8604  2.5088
  725MOL0     H   29  -1.169   5.320   5.092  2.5475  1.1915 -0.6210
  725MOL0     H   30  -0.399   5.097   5.736 -0.4102 -0.4749  1.0030
  725MOL0     H   31  -0.299   4.902   5.831  3.5498  1.3720 -0.1062
  725MOL0     H   32  -0.181   4.584   5.909  1.7350  2.2995  1.5230
  725MOL0     H   33  -0.174   4.373   6.044 -0.2754  1.7937  1.2621
  725MOL0     H   34   0.698   2.676   5.391 -1.4463 -2.3747  0.1362
  725MOL0     H   35   0.644   2.638   5.155 -0.2069  0.3661  0.0779
  725MOL0     H   36   0.344   2.565   4.877 -0.5913 -2.4761 -0.7453
  725MOL0     H   37   0.255   2.506   4.669 -0.1816 -0.0078  1.2289
  725MOL0     H   38   0.494   2.566   4.274  3.6047  0.9199  2.1607
  725MOL0     H   39   0.537   2.481   4.413 -0.5109 -0.3678 -0.4422
  725MOL0     H   40   0.365   2.306   4.392 -0.6440  2.4533  2.2863
  725MOL0     H   41   0.481   2.308   4.258 -2.9255 -1.5991 -0.6356
  725MOL0     H   42   0.259   2.269   4.176 -0.4122 -0.3662 -2.3940
  725MOL0     H   43   0.218   2.426   4.259  0.1025  1.6467 -2.6906
  725MOL0     H   44   0.435   2.480   4.099  0.4261 -1.1863  1.4611
  725MOL0     H   45   0.274   2.547   4.066 -1.4078 -1.0256  3.5610
  725MOL0     H   46   0.289   2.229   3.788  0.8093 -0.0802  0.4571
  725MOL0     H   47   0.524   2.754   4.462 -0.8759 -3.4563 -1.9971
  725MOL0     H   48   0.682   2.855   4.572 -0.6383  1.7680  0.2661
  725MOL0     H   49   0.640   2.927   4.728 -0.0873 -0.6353  0.7346
  725MOL0     H   50   0.756   2.782   4.713 -0.4604 -2.8878 -2.7059
  726MOL0     O   51   0.556  11.284   7.594  0.4559 -0.0008  0.9294
  726MOL0     C   52   0.561  11.343   7.702  0.4772 -0.1883 -0.4788
  726MOL0     O   53   0.569  11.272   7.828  1.1195  0.4204  0.0910
  726MOL0     C   54   0.556  11.143   7.826  0.4706  0.2450 -0.3052
  726MOL0     C   55   0.437  11.087   7.880 -0.3184 -1.0740 -0.0394
  726MOL0     C   56   0.422  10.952   7.872  0.4333  0.5446 -0.1815
  726MOL0     C   57   0.515  10.874   7.816 -0.2211 -0.1480  0.4505
  726MOL0     O   58   0.510  10.741   7.830 -0.0439 -0.3943 -0.3532
  726MOL0     C   59   0.386  10.691   7.760 -0.7870  0.6997  0.3978
  726MOL0     C   60   0.433  10.557   7.699 -0.0600  0.0775 -0.2667
  726MOL0     C   61   0.352  10.512   7.583  0.7867  0.5353 -0.3844
  726MOL0     C   62   0.374  10.364   7.555  0.2798  0.4220 -0.2779
  726MOL0     C   63   0.503  10.352   7.479 -0.0767 -0.2235 -0.0007
  726MOL0     C   64   0.573  10.220   7.479  0.9058  0.4321 -0.3625
  726MOL0     C   65   0.660  10.193   7.352 -0.8222 -0.3282  0.1720
  726MOL0     C   66   0.741  10.066   7.363  0.6672  0.1299 -0.1483
  726MOL0     N   67   0.795  10.001   7.241  0.0798 -0.0575  0.1227
  726MOL0     C   68   0.735   9.972   7.117 -0.0176  0.0859 -0.0620
  726MOL0     C   69   0.820   9.885   7.052 -0.2521  0.0705 -0.5667
  726MOL0     C   70   0.786   9.816   6.924 -0.2008  0.0822 -1.3903
  726MOL0     C   71   0.762   9.899   6.794 -0.3818  1.0725  0.6055
  726MOL0     C   72   0.888   9.929   6.713 -0.7993 -0.0337  0.3144
  726MOL0     C   73   1.007   9.972   6.802 -0.2757 -1.1348 -0.2215
  726MOL0     O   74   0.959  10.088   6.864  0.2100 -0.5073  0.7324
  726MOL0     C   75   1.046  10.151   6.951 -0.6496 -0.0192  0.5781
  726MOL0     C   76   1.187  10.132   6.958 -0.0541 -0.4226 -0.3605
  726MOL0     C   77   1.256  10.196   7.063  0.7579 -0.6650  0.2319
  726MOL0     C   78   1.410  10.201   7.058 -0.3122  0.1800 -1.0859
  726MOL0     C   79   1.185  10.280   7.159 -0.7954  0.2784  0.5647
  726MOL0     C   80   1.249  10.356   7.270 -0.0131  0.4923  0.9669
  726MOL0     O   81   1.376  10.324   7.309 -0.0606  0.5447  0.1112
  726MOL0     C   82   1.420  10.381   7.423 -0.5124 -0.0612 -0.7468
  726MOL0     C   83   1.409  10.517   7.462 -0.1455  0.3261 -0.7592
  726MOL0     C   84   1.460  10.560   7.590  0.5638 -0.8550  0.3961
  726MOL0     C   85   1.520  10.479   7.682  0.8727  0.5646  0.2963
  726MOL0     O   86   1.587  10.531   7.789  0.3024 -0.0791 -0.9607
  726MOL0     C   87   1.617  10.444   7.900 -0.6371  0.6982  0.8071
  726MOL0     C   88   1.644  10.519   8.034 -0.3466 -0.1563 -0.5138
  726MOL0     C   89   1.523  10.597   8.096 -0.3378  0.9009 -0.3269
  726MOL0     C   90   1.570  10.681   8.222  0.1698  1.2162  0.5644
  726MOL0     C   91   1.628  10.597   8.345 -0.5564  0.2476  0.3053
  726MOL0     C   92   1.686  10.683   8.468 -0.6865 -0.2211  0.2245
  726MOL0     C   93   1.600  10.798   8.514 -0.4956 -0.0327 -0.1867
  726MOL0     C   94   1.662  10.932   8.473 -0.9095 -0.0738 -0.3593
  726MOL0    Cl   95   1.623  11.063   8.590 -0.1334 -0.1431 -0.2957
  726MOL0     C   96   1.516  10.340   7.652 -0.0280  0.9740  0.2992
  726MOL0     C   97   1.456  10.293   7.528 -0.1256  0.6937  0.5834
  726MOL0     O   98   1.179  10.443   7.327 -0.1675  0.8371 -0.1199
  726MOL0     C   99   1.052  10.301   7.140  0.3379 -0.3022  0.4969
  726MOL0     C  100   0.980  10.235   7.043  0.0914  1.0481  0.1997
  726MOL0     N  101   0.925   9.863   7.130  0.6501  0.5557 -0.4305
  726MOL0     N  102   0.905   9.936   7.244 -0.7392  0.7474  0.1277
  726MOL0     C  103   0.628  10.930   7.761 -0.2936  0.1997  0.0612
  726MOL0     C  104   0.654  11.067   7.772  0.2529  0.4664 -0.1499
  726MOL0     C  105   0.560  11.493   7.704  0.2079 -0.6610  0.2292
  726MOL0     C  106   0.583  11.562   7.580  0.9837 -0.4572  0.6701
  726MOL0     C  107   0.606  11.704   7.570  0.3693  0.0293  0.4489
  726MOL0     C  108   0.574  11.785   7.684 -0.6640 -0.1810  0.3755
  726MOL0     O  109   0.587  11.922   7.674  0.0749  0.0990 -0.4098
  726MOL0     C  110   0.497  11.985   7.589 -0.8350 -0.1447  0.4413
  726MOL0     C  111   0.546  12.123   7.555 -0.1187 -0.8192  0.1807
  726MOL0     C  112   0.578  12.199   7.685 -0.0194 -0.4929  0.3255
  726MOL0     C  113   0.568  12.352   7.646 -0.9255  0.9756 -0.2079
  726MOL0     C  114   0.650  12.393   7.530  0.1017 -0.9884  0.5567
  726MOL0     C  115   0.717  12.410   7.428  0.3322  0.3921 -0.0562
  726MOL0     C  116   0.528  11.719   7.800 -0.1196  0.8633 -0.9079
  726MOL0     C  117   0.534  11.575   7.816  0.1418  0.4278 -0.6054
  726MOL0     C  118   0.484  11.523   7.950 -1.0097 -0.1201 -0.4741
  726MOL0     H  119   0.368  11.152   7.932  0.7645 -1.5455  2.1287
  726MOL0     H  120   0.333  10.916   7.922  0.1538  1.3463 -0.0906
  726MOL0     H  121   0.356  10.761   7.682 -0.4528  0.7262  0.2888
  726MOL0     H  122   0.308  10.669   7.833  0.0354  0.1144  1.1323
  726MOL0     H  123   0.537  10.572   7.668  0.3078  0.1053  0.9609
  726MOL0     H  124   0.434  10.476   7.773 -1.4871 -0.0618 -0.3789
  726MOL0     H  125   0.246  10.525   7.608  0.8077 -1.4252  0.9087
  726MOL0     H  126   0.350  10.582   7.498 -4.4218  2.7329  1.1617
  726MOL0     H  127   0.364  10.305   7.647 -4.0489  0.6258 -0.4059
  726MOL0     H  128   0.299  10.320   7.490 -0.2733 -0.6067  1.0114
  726MOL0     H  129   0.582  10.426   7.494 -1.3337  1.4292 -1.1498
  726MOL0     H  130   0.466  10.371   7.377 -0.9402 -0.5768  0.2389
  726MOL0     H  131   0.617  10.203   7.578 -0.5321 -1.5553  0.0157
  726MOL0     H  132   0.490  10.148   7.475  1.6907 -0.4293 -1.8029
  726MOL0     H  133   0.732  10.274   7.339 -1.8327  0.8959  1.8322
  726MOL0     H  134   0.589  10.182   7.270 -0.2942 -1.0946 -0.1978
  726MOL0     H  135   0.816  10.084   7.440  2.6412  1.3018 -2.2525
  726MOL0     H  136   0.669   9.993   7.401  0.3900  0.6919  0.4277
  726MOL0     H  137   0.636   9.999   7.084 -0.5166  1.1066  2.0867
  726MOL0     H  138   0.691   9.766   6.944 -0.9531  1.8174 -0.4165
  726MOL0     H  139   0.867   9.744   6.910  1.9897  2.3446 -0.9927
  726MOL0     H  140   0.690   9.844   6.732 -1.2811 -0.4020  2.8064
  726MOL0     H  141   0.706   9.991   6.817 -0.1882  1.8375 -1.6986
  726MOL0     H  142   0.921   9.845   6.652 -1.2591 -0.3164  0.4496
  726MOL0     H  143   0.878  10.003   6.633  0.5814  0.4375  0.5580
  726MOL0     H  144   1.057   9.908   6.875  3.7887  1.0171 -0.8285
  726MOL0     H  145   1.079  10.006   6.727  0.4360  0.8570  1.2656
  726MOL0     H  146   1.235  10.066   6.886  0.5418  0.5022 -0.8330
  726MOL0     H  147   1.452  10.141   7.140  0.3211  0.0470 -1.4974
  726MOL0     H  148   1.462  10.297   7.066  3.6905 -1.8250  0.1181
  726MOL0     H  149   1.448  10.150   6.969 -0.8684 -1.7290 -0.2736
  726MOL0     H  150   1.359  10.590   7.398 -0.2219  2.4920  1.6249
  726MOL0     H  151   1.470  10.666   7.612  0.4261 -0.5013 -1.1395
  726MOL0     H  152   1.552  10.360   7.924  1.4967 -1.5203 -0.6179
  726MOL0     H  153   1.714  10.400   7.872 -0.1125  2.3769 -0.1510
  726MOL0     H  154   1.685  10.445   8.103  1.1912 -0.0677 -1.2834
  726MOL0     H  155   1.722  10.591   8.010  0.7231 -1.0970  0.0332
  726MOL0     H  156   1.446  10.519   8.105  2.6892 -2.1152  3.3698
  726MOL0     H  157   1.497  10.680   8.030  1.7452  1.0585 -1.0313
  726MOL0     H  158   1.485  10.736   8.264 -0.6768 -2.3571  4.1304
  726MOL0     H  159   1.645  10.758   8.198  1.0535  0.0973 -0.3783
  726MOL0     H  160   1.566  10.516   8.385 -0.8518  0.6567  0.6907
  726MOL0     H  161   1.717  10.539   8.319 -1.4250 -0.8843 -0.2358
  726MOL0     H  162   1.789  10.711   8.441 -0.5317  1.2575  2.1210
  726MOL0     H  163   1.701  10.617   8.554 -0.0976  0.0698  0.3575
  726MOL0     H  164   1.620  10.798   8.622  3.8096 -3.6823 -0.7022
  726MOL0     H  165   1.493  10.777   8.507  0.0482 -3.7137  0.3312
  726MOL0     H  166   1.645  10.968   8.371  0.2892  2.0568  0.1156
  726MOL0     H  167   1.771  10.929   8.482 -0.5549  1.2718 -3.0192
  726MOL0     H  168   1.554  10.263   7.718  0.8029 -0.5557 -1.8436
  726MOL0     H  169   1.460  10.186   7.508  0.2845  0.4290  1.9458
  726MOL0     H  170   0.992  10.363   7.206  0.3464 -0.1489  0.3629
  726MOL0     H  171   0.872  10.241   7.054  0.3602  1.2310  4.5378
  726MOL0     H  172   0.712  10.873   7.722 -1.9977 -0.3058 -3.2159
  726MOL0     H  173   0.749  11.113   7.746  1.1566 -0.8507  0.6877
  726MOL0     H  174   0.608  11.510   7.488 -0.8193  1.4601 -1.0383
  726MOL0     H  175   0.640  11.736   7.472 -0.9104 -3.4143 -1.2946
  726MOL0     H  176   0.494  11.927   7.496 -0.1677 -1.8502  1.4506
  726MOL0     H  177   0.396  11.983   7.629 -1.5354  0.5261 -1.1937
  726MOL0     H  178   0.472  12.174   7.494  0.9401  0.7280  0.1258
  726MOL0     H  179   0.636  12.120   7.493 -1.3166 -1.1563 -1.6020
  726MOL0     H  180   0.516  12.176   7.772 -0.7010  0.3883  0.0886
  726MOL0     H  181   0.681  12.176   7.714  0.4896  1.2325 -0.0056
  726MOL0     H  182   0.602  12.413   7.730  1.1660 -1.9187  1.1913
  726MOL0     H  183   0.466  12.389   7.629 -1.4278 -0.2737 -0.0019
  726MOL0     H  184   0.778  12.422   7.341  2.1823  5.9988  1.5652
  726MOL0     H  185   0.509  11.770   7.893  0.7421 -1.2111  0.4691
  726MOL0     H  186   0.394  11.462   7.936 -1.7134  0.4101  1.3190
  726MOL0     H  187   0.557  11.467   8.008 -1.4292  1.3053  1.5651
  726MOL0     H  188   0.456  11.611   8.009 -2.5993 -0.0593 -1.2647
  727MOL0     O  189  10.710   6.694   9.420  0.2080  0.0114  0.1428
  727MOL0     C  190  10.653   6.707   9.530  0.7595  0.2808 -0.6482
  727MOL0     O  191  10.588   6.819   9.568  0.0292  0.1966 -0.1568
  727MOL0     C  192  10.602   6.923   9.488  0.0974  0.8115 -1.1650
  727MOL0     C  193  10.726   6.991   9.493  0.1080 -0.9351  0.0316
  727MOL0     C  194  10.748   7.106   9.418 -0.3871  1.1086 -0.6760
  727MOL0     C  195  10.636   7.162   9.356  0.0102 -0.5642 -0.9060
  727MOL0     O  196  10.647   7.284   9.277  0.0443 -0.3282 -1.2805
  727MOL0     C  197  10.774   7.335   9.259 -0.0112  0.2481  0.5930
  727MOL0     C  198  10.753   7.447   9.161  0.1501  0.6256 -0.8152
  727MOL0     C  199  10.869   7.537   9.139 -0.3897 -0.0511  0.2806
  727MOL0     C  200  10.830   7.645   9.038 -0.2072  0.0763  0.2694
  727MOL0     C  201  10.950   7.734   9.001  1.0285  0.7674 -0.4998
  727MOL0     C  202  10.905   7.858   8.915 -0.6425  0.6181 -1.3726
  727MOL0     C  203  10.792   7.838   8.810 -0.3165 -0.1384 -0.7609
  727MOL0     C  204  10.772   7.975   8.738 -0.1816  0.4738  0.0782
  727MOL0     N  205  10.700   8.074   8.815  0.2092  0.2269  0.2330
  727MOL0     C  206  10.563   8.086   8.825  0.4748  0.0682 -0.6265
  727MOL0     C  207  10.538   8.194   8.900 -0.1465 -0.2857 -0.4856
  727MOL0     C  208  10.403   8.256   8.941  0.0516 -0.1036  0.4693
  727MOL0     C  209  10.423   8.418   8.947 -0.7054 -0.1409  0.9224
  727MOL0     C  210  10.301   8.475   9.012  0.7916  0.0933 -0.0898
  727MOL0     C  211  10.292   8.632   8.981  0.7623 -0.0136 -0.5482
  727MOL0     O  212  10.185   8.713   9.033 -0.3894 -0.5162  0.8020
  727MOL0     C  213  10.167   8.696   9.171  1.3043  0.1892 -0.0238
  727MOL0     C  214  10.230   8.773   9.261 -0.1651  0.1205 -0.1667
  727MOL0     C  215  10.216   8.758   9.401  0.3779 -1.1711  0.9133
  727MOL0     C  216  10.311   8.849   9.487 -0.0880 -0.2290 -0.3811
  727MOL0     C  217  10.115   8.676   9.456  0.4580  0.3715  0.0099
  727MOL0     C  218  10.066   8.654   9.594  0.2525 -0.5161 -0.0640
  727MOL0     O  219  10.118   8.743   9.681  0.5013 -0.3337  0.0962
  727MOL0     C  220  10.104   8.712   9.812 -0.1759 -0.5809  0.4061
  727MOL0     C  221  10.182   8.610   9.867 -0.2097 -0.0287 -0.0542
  727MOL0     C  222  10.167   8.579  10.003  1.0041  0.1517 -0.2136
  727MOL0     C  223  10.076   8.654  10.084 -0.4145  0.5714 -0.6839
  727MOL0     O  224  10.055   8.643  10.224  0.0982 -0.4087 -0.1250
  727MOL0     C  225  10.086   8.519  10.289 -0.0694  0.2248  0.2448
  727MOL0     C  226   9.981   8.474  10.385 -0.3170 -0.8526  0.1796
  727MOL0     C  227   9.844   8.495  10.327 -0.0213 -0.3445 -0.1910
  727MOL0     C  228   9.741   8.448  10.431 -0.3270  1.1299 -0.4834
  727MOL0     C  229   9.601   8.413  10.390 -0.7733  0.6139 -0.1622
  727MOL0     C  230   9.517   8.540  10.365 -0.5058 -0.2417 -0.6346
  727MOL0     C  231   9.373   8.503  10.371  0.2115 -0.6873  0.1333
  727MOL0     C  232   9.316   8.502  10.513 -0.1750  0.1185 -0.3230
  727MOL0    Cl  233   9.144   8.497  10.501 -0.2089  0.3237  0.0528
  727MOL0     C  234   9.995   8.751  10.019 -0.1842  0.3418 -0.4191
  727MOL0     C  235  10.006   8.783   9.883  0.0252 -0.3857  1.4901
  727MOL0     O  236   9.984   8.571   9.626  0.3487 -0.3567  0.8100
  727MOL0     C  237  10.054   8.590   9.362  0.4037  0.8326 -0.6495
  727MOL0     C  238  10.083   8.600   9.226 -0.6743  0.8179  0.0378
  727MOL0     N  239  10.662   8.256   8.931  0.8913  0.8545 -0.2813
  727MOL0     N  240  10.752   8.184   8.882  0.1896  0.5850  0.1699
  727MOL0     C  241  10.512   7.114   9.378  0.9572  0.7156 -0.4286
  727MOL0     C  242  10.488   6.988   9.442 -0.0701 -0.4836  0.1830
  727MOL0     C  243  10.623   6.589   9.610 -0.4047 -0.0328 -0.2887
  727MOL0     C  244  10.523   6.600   9.710 -0.4121 -0.5410  0.2939
  727MOL0     C  245  10.485   6.492   9.794  0.1207 -0.3038 -0.0388
  727MOL0     C  246  10.534   6.365   9.769 -1.0437 -0.1175 -0.1752
  727MOL0     O  247  10.481   6.245   9.843  0.4394 -0.0291 -0.1781
  727MOL0     C  248  10.548   6.129   9.848 -0.2381 -0.5855 -0.3900
  727MOL0     C  249  10.454   6.019   9.889  0.5163  0.0827 -0.9478
  727MOL0     C  250  10.395   6.043  10.030  0.5374 -0.0755  0.1312
  727MOL0     C  251  10.492   6.010  10.153  0.0627 -0.5947  0.2299
  727MOL0     C  252  10.440   6.014  10.287 -0.7915 -0.3030  0.0509
  727MOL0     C  253  10.412   6.037  10.404  0.1760 -0.2545 -0.5443
  727MOL0     C  254  10.644   6.353   9.682  0.4015 -0.1444  0.2863
  727MOL0     C  255  10.689   6.465   9.600  1.2645 -0.4145 -0.1800
  727MOL0     C  256  10.801   6.425   9.509  0.3853 -0.5017 -0.5384
  727MOL0     H  257  10.819   6.956   9.537  0.3066 -1.8418 -1.0534
  727MOL0     H  258  10.840   7.161   9.439  0.8972 -0.6372 -1.4582
  727MOL0     H  259  10.845   7.262   9.217 -0.6593  0.5137 -1.0329
  727MOL0     H  260  10.820   7.375   9.350 -2.9912  0.2787  2.1985
  727MOL0     H  261  10.727   7.402   9.065  0.6201 -0.8654 -0.2716
  727MOL0     H  262  10.670   7.510   9.195  0.2180 -0.0895  0.7656
  727MOL0     H  263  10.881   7.598   9.229 -3.5234  2.2358 -0.6596
  727MOL0     H  264  10.963   7.486   9.115 -1.4916 -1.6506 -0.9077
  727MOL0     H  265  10.800   7.602   8.943  4.0283  1.9255 -2.2202
  727MOL0     H  266  10.746   7.703   9.075 -1.1231 -0.1360 -1.4113
  727MOL0     H  267  11.014   7.668   8.941 -0.1542  0.1097 -1.0690
  727MOL0     H  268  10.999   7.764   9.094 -2.8029 -1.6916  2.6607
  727MOL0     H  269  10.869   7.933   8.986 -0.7208 -1.0280  0.4262
  727MOL0     H  270  10.997   7.895   8.870  0.8990 -1.6354 -0.2557
  727MOL0     H  271  10.705   7.802   8.867  0.0617  1.3062  0.7991
  727MOL0     H  272  10.826   7.754   8.748  1.3915 -0.1692  0.1582
  727MOL0     H  273  10.874   8.015   8.729  2.1992 -4.6607  0.9374
  727MOL0     H  274  10.738   7.951   8.637  1.9708 -1.6621 -0.2219
  727MOL0     H  275  10.493   8.034   8.761  1.7728 -0.7641 -1.4227
  727MOL0     H  276  10.368   8.201   9.029  1.5244  2.4046  2.7648
  727MOL0     H  277  10.334   8.243   8.857  1.2129  1.4982 -0.8033
  727MOL0     H  278  10.511   8.438   9.008 -1.0503 -2.4315  2.2991
  727MOL0     H  279  10.433   8.465   8.849 -3.0973 -1.9741 -0.3250
  727MOL0     H  280  10.207   8.432   8.976  0.3885 -3.1801  3.9941
  727MOL0     H  281  10.310   8.453   9.119  0.7321 -1.7443 -0.4236
  727MOL0     H  282  10.390   8.670   9.013 -0.2689  0.1407  2.8397
  727MOL0     H  283  10.289   8.648   8.873  2.0707 -2.3922 -1.0026
  727MOL0     H  284  10.309   8.843   9.235 -2.6014  4.0304  1.9051
  727MOL0     H  285  10.275   8.952   9.483 -1.4244 -0.7184 -3.1748
  727MOL0     H  286  10.411   8.843   9.443 -0.4028 -1.6664 -0.9371
  727MOL0     H  287  10.318   8.809   9.588 -0.8297 -4.3662 -1.7861
  727MOL0     H  288  10.258   8.566   9.803 -3.1641 -4.8816 -0.7232
  727MOL0     H  289  10.236   8.511  10.053  0.6854 -0.5219 -0.6810
  727MOL0     H  290  10.089   8.442  10.210  0.9086 -2.7459  2.9486
  727MOL0     H  291  10.188   8.521  10.328  1.1890  0.7553 -2.7970
  727MOL0     H  292   9.992   8.366  10.399 -2.0185 -1.5792 -3.1639
  727MOL0     H  293   9.998   8.525  10.481 -4.5106  2.1573 -0.3822
  727MOL0     H  294   9.845   8.432  10.237  0.1327 -0.1395 -0.3320
  727MOL0     H  295   9.826   8.602  10.316  4.8277  0.7510  0.3842
  727MOL0     H  296   9.735   8.521  10.512  1.3925 -2.4368  3.2640
  727MOL0     H  297   9.793   8.360  10.472  2.7446  2.0121 -2.1740
  727MOL0     H  298   9.599   8.327  10.322  2.4149 -1.5853  2.1761
  727MOL0     H  299   9.564   8.359  10.478  0.8700  1.1523  0.9246
  727MOL0     H  300   9.539   8.567  10.261 -1.2310 -1.8185 -1.2410
  727MOL0     H  301   9.552   8.607  10.444 -2.1954 -1.4146  1.2045
  727MOL0     H  302   9.355   8.405  10.325 -0.2117 -1.2266  1.4248
  727MOL0     H  303   9.310   8.568  10.309 -0.7303 -2.4921 -0.8973
  727MOL0     H  304   9.345   8.595  10.563 -2.8477  0.5860  0.5257
  727MOL0     H  305   9.362   8.426  10.577 -2.5370 -1.5065 -0.4124
  727MOL0     H  306   9.921   8.793  10.086 -0.1811  1.2423 -0.9627
  727MOL0     H  307   9.933   8.838   9.825  1.6609 -0.3591 -0.6735
  727MOL0     H  308   9.992   8.506   9.392  0.8044  0.3071 -1.2526
  727MOL0     H  309  10.025   8.541   9.155 -1.3690  1.8314 -0.2699
  727MOL0     H  310  10.414   7.150   9.348 -0.6534 -3.4012 -0.7151
  727MOL0     H  311  10.389   6.944   9.452 -0.1413 -0.3518  0.0686
  727MOL0     H  312  10.475   6.696   9.728 -2.1496 -1.0542 -1.3045
  727MOL0     H  313  10.408   6.509   9.869 -0.3164  3.2039 -1.1081
  727MOL0     H  314  10.588   6.090   9.754  1.1092  0.3311 -0.2276
  727MOL0     H  315  10.628   6.151   9.920 -0.4116 -1.9873  0.2743
  727MOL0     H  316  10.514   5.928   9.891 -0.7934 -0.8002 -0.9910
  727MOL0     H  317  10.370   6.014   9.819  0.5510 -0.0911 -0.9757
  727MOL0     H  318  10.369   6.149  10.021  1.0914  0.3047  2.3023
  727MOL0     H  319  10.301   5.987  10.030  0.4734 -0.0305 -1.8320
  727MOL0     H  320  10.556   6.099  10.158 -0.6334 -0.1493  2.1136
  727MOL0     H  321  10.541   5.914  10.133 -0.0953 -0.3216 -1.6404
  727MOL0     H  322  10.390   6.042  10.509 -0.4984 -1.6536 -0.5980
  727MOL0     H  323  10.680   6.255   9.655  1.2566 -0.4263  2.2613
  727MOL0     H  324  10.835   6.323   9.528 -0.4422 -0.4417  1.4867
  727MOL0     H  325  10.774   6.435   9.403  1.1206 -0.1325 -0.7028
  727MOL0     H  326  10.880   6.500   9.523  1.0782 -1.2388 -0.4749
  728MOL0     O  327   8.221   3.443   5.056 -0.8922  0.2849 -0.0167
  728MOL0     C  328   8.118   3.476   5.119  0.1987  0.7114  0.3971
  728MOL0     O  329   8.081   3.601   5.154  0.7579  1.0166  0.0501
  728MOL0     C  330   8.153   3.698   5.097 -0.6273  0.2755 -0.7124
  728MOL0     C  331   8.252   3.765   5.183  0.7977  0.6719  1.1080
  728MOL0     C  332   8.332   3.873   5.140 -0.7956 -0.5324  0.3082
  728MOL0     C  333   8.321   3.910   5.008  0.0721 -0.8713  0.5580
  728MOL0     O  334   8.393   4.014   4.955 -0.0905  0.1141  0.4955
  728MOL0     C  335   8.540   3.986   4.938  0.2638 -0.1851 -0.0444
  728MOL0     C  336   8.620   4.121   4.948  0.2093  0.0949  0.7487
  728MOL0     C  337   8.606   4.185   5.083 -0.6329  1.2464  0.5792
  728MOL0     C  338   8.694   4.312   5.094 -0.4215 -0.4728 -0.1601
  728MOL0     C  339   8.669   4.368   5.238  0.2911  0.4223 -0.0428
  728MOL0     C  340   8.762   4.488   5.267 -0.3596 -1.2681 -0.5496
  728MOL0     C  341   8.804   4.509   5.421 -0.7705  0.0596  1.4584
  728MOL0     C  342   8.692   4.559   5.507 -0.5049 -1.4790 -0.3068
  728MOL0     N  343   8.650   4.684   5.441 -0.0195  0.7119 -0.7359
  728MOL0     C  344   8.703   4.807   5.445  0.3742 -0.2075 -0.5020
  728MOL0     C  345   8.620   4.880   5.367  0.3931  0.4342  0.4391
  728MOL0     C  346   8.651   5.023   5.345 -0.0187  0.4999 -0.3090
  728MOL0     C  347   8.602   5.053   5.199  0.7154 -0.0452 -0.0437
  728MOL0     C  348   8.590   5.203   5.169  0.5445 -0.9279 -0.2561
  728MOL0     C  349   8.470   5.266   5.250 -0.3690  0.1634  0.6051
  728MOL0     O  350   8.441   5.398   5.208  0.0924  0.1476  0.0092
  728MOL0     C  351   8.358   5.425   5.099  0.2377 -0.5632 -0.5360
  728MOL0     C  352   8.295   5.335   5.009 -0.1131 -0.7203 -0.2538
  728MOL0     C  353   8.220   5.382   4.904 -0.4319 -0.5352 -0.3672
  728MOL0     C  354   8.153   5.280   4.813 -0.0396  0.0794 -0.4299
  728MOL0     C  355   8.194   5.529   4.877  0.1009  0.6592 -0.2447
  728MOL0     C  356   8.107   5.584   4.768 -0.5477 -0.4149  0.5462
  728MOL0     O  357   8.062   5.714   4.793 -0.3686  0.6759  0.4220
  728MOL0     C  358   8.045   5.810   4.686  1.4072  0.1513 -0.2354
  728MOL0     C  359   7.929   5.877   4.674  0.5915  0.4239  0.4258
  728MOL0     C  360   7.925   5.980   4.573  0.6100  0.0520  0.5048
  728MOL0     C  361   8.038   6.023   4.501  0.1742 -0.3166  0.5989
  728MOL0     O  362   8.003   6.130   4.425 -0.4547 -0.0337 -0.0960
  728MOL0     C  363   8.102   6.173   4.333 -0.8226 -0.6856  0.2739
  728MOL0     C  364   8.057   6.277   4.240 -0.1102  0.0158  0.5819
  728MOL0     C  365   8.130   6.406   4.267 -0.2572  0.0809 -0.7446
  728MOL0     C  366   8.125   6.507   4.162  1.1308  0.2142 -0.1924
  728MOL0     C  367   8.227   6.471   4.058  0.0413 -0.6693 -0.5538
  728MOL0     C  368   8.232   6.574   3.945  1.0573 -0.2247  0.3543
  728MOL0     C  369   8.338   6.679   3.962 -0.1175  0.4660 -0.2055
  728MOL0     C  370   8.339   6.795   3.872 -0.9936 -0.4546 -1.0405
  728MOL0    Cl  371   8.221   6.924   3.935 -0.2559 -0.3939 -0.2835
  728MOL0     C  372   8.161   5.953   4.519 -0.0965 -0.4726 -0.2428
  728MOL0     C  373   8.157   5.843   4.611 -0.3221 -0.6080 -0.2300
  728MOL0     O  374   8.085   5.519   4.662 -0.2446  0.0248 -0.3857
  728MOL0     C  375   8.276   5.612   4.956  0.2837 -0.8044  0.0322
  728MOL0     C  376   8.349   5.560   5.069  0.7132 -0.4955  0.1465
  728MOL0     N  377   8.508   4.795   5.337 -0.2777  0.0555 -0.2002
  728MOL0     N  378   8.539   4.680   5.377  0.6484  0.9719  0.6694
  728MOL0     C  379   8.238   3.840   4.922  0.3085 -0.4733 -0.4636
  728MOL0     C  380   8.155   3.735   4.964  0.2801  0.4659  0.0704
  728MOL0     C  381   8.002   3.379   5.135  0.6492  0.6994  0.2116
  728MOL0     C  382   7.923   3.333   5.027 -0.1830  0.1468  0.1423
  728MOL0     C  383   7.802   3.260   5.060 -0.6854  0.2974  0.0878
  728MOL0     C  384   7.767   3.230   5.190  0.6572 -0.5272 -0.3873
  728MOL0     O  385   7.644   3.188   5.228 -0.0302  0.7555  0.4680
  728MOL0     C  386   7.580   3.076   5.150 -0.6592 -1.3319 -0.2513
  728MOL0     C  387   7.543   2.974   5.261  0.3938 -0.9001  0.3464
  728MOL0     C  388   7.666   2.911   5.326  0.4257  0.3204 -0.0348
  728MOL0     C  389   7.652   2.795   5.435 -0.0466 -0.1453 -0.4583
  728MOL0     C  390   7.541   2.700   5.411 -1.2018  0.0458  0.5190
  728MOL0     C  391   7.443   2.639   5.400 -0.2255  1.9025  0.0065
  728MOL0     C  392   7.850   3.266   5.292  0.8870 -0.4368 -0.3111
  728MOL0     C  393   7.960   3.343   5.271  0.1404 -0.3656  0.4306
  728MOL0     C  394   8.055   3.375   5.389 -0.6382  0.6642  0.1707
  728MOL0     H  395   8.265   3.733   5.286 -0.0556 -0.2995  0.9407
  728MOL0     H  396   8.405   3.916   5.206  0.1141  0.1572 -1.0948
  728MOL0     H  397   8.549   3.937   4.841  1.8800 -0.5043  0.2352
  728MOL0     H  398   8.570   3.910   5.011  0.5388 -1.1649 -1.1494
  728MOL0     H  399   8.726   4.097   4.932 -0.2922 -1.6032 -0.2740
  728MOL0     H  400   8.588   4.198   4.877 -1.7997 -0.1042  1.3608
  728MOL0     H  401   8.500   4.211   5.089 -0.7633  0.3954  2.7024
  728MOL0     H  402   8.624   4.119   5.168 -0.1005  0.8842  0.1902
  728MOL0     H  403   8.799   4.286   5.076 -0.2718 -0.6522  0.9079
  728MOL0     H  404   8.659   4.386   5.020 -1.0079 -0.0673  0.5129
  728MOL0     H  405   8.686   4.299   5.321 -0.7737  1.5125  1.1229
  728MOL0     H  406   8.562   4.383   5.249  0.2676 -0.6036  1.4757
  728MOL0     H  407   8.859   4.477   5.217 -1.0606 -1.6782 -1.8834
  728MOL0     H  408   8.705   4.569   5.220 -2.2779 -0.6818  2.5419
  728MOL0     H  409   8.887   4.580   5.424  1.1588 -1.8740 -1.1321
  728MOL0     H  410   8.848   4.412   5.442 -1.7247 -0.5642  0.6735
  728MOL0     H  411   8.608   4.490   5.515 -3.0079  1.0429 -2.8215
  728MOL0     H  412   8.720   4.582   5.611  0.0782  2.1470 -1.1300
  728MOL0     H  413   8.789   4.839   5.503  0.9907 -2.1145 -0.2906
  728MOL0     H  414   8.756   5.049   5.354 -0.3895  4.2396 -4.0535
  728MOL0     H  415   8.601   5.095   5.411  0.1031  2.3574 -2.1707
  728MOL0     H  416   8.665   5.012   5.119  0.8599 -2.6087  1.2823
  728MOL0     H  417   8.501   5.013   5.190 -0.9397  2.0263  5.3520
  728MOL0     H  418   8.686   5.250   5.189 -0.3103  0.5426  0.4859
  728MOL0     H  419   8.559   5.213   5.064 -3.3289 -1.2049  0.7152
  728MOL0     H  420   8.380   5.207   5.229 -0.3017  0.6872 -1.3740
  728MOL0     H  421   8.509   5.277   5.352  2.6292  2.1566 -0.6246
  728MOL0     H  422   8.303   5.229   5.031  2.3669 -0.4024  0.7421
  728MOL0     H  423   8.045   5.284   4.822 -0.2828 -2.7325 -1.0371
  728MOL0     H  424   8.176   5.176   4.838 -0.2937 -0.2367 -1.4669
  728MOL0     H  425   8.184   5.293   4.709  3.5512  5.9054  0.9159
  728MOL0     H  426   7.845   5.866   4.742 -0.9276 -1.2923 -1.5621
  728MOL0     H  427   7.843   6.048   4.556  0.9303  0.5397  0.8761
  728MOL0     H  428   8.192   6.203   4.387  1.6734  0.2895 -3.9266
  728MOL0     H  429   8.136   6.091   4.268 -0.9156 -1.5929  1.3414
  728MOL0     H  430   8.068   6.253   4.134 -1.3099 -0.1363  0.4740
  728MOL0     H  431   7.955   6.310   4.265 -0.0957  1.4105 -0.9806
  728MOL0     H  432   8.238   6.391   4.271 -0.0042  1.2496 -2.2310
  728MOL0     H  433   8.101   6.450   4.363  1.3547 -0.9985  0.2723
  728MOL0     H  434   8.147   6.599   4.218 -4.2316  0.0645  2.8665
  728MOL0     H  435   8.022   6.520   4.125  1.5251  1.1415 -1.0256
  728MOL0     H  436   8.329   6.452   4.091 -0.1594 -0.1619  0.3881
  728MOL0     H  437   8.190   6.375   4.021 -1.6155 -0.1293 -0.3861
  728MOL0     H  438   8.134   6.620   3.956  0.9541  1.0338 -4.1342
  728MOL0     H  439   8.228   6.531   3.845 -1.8167  0.6696  0.0182
  728MOL0     H  440   8.436   6.631   3.953 -1.5729 -2.6082 -1.2405
  728MOL0     H  441   8.323   6.733   4.056  0.7611  3.7959 -1.8297
  728MOL0     H  442   8.318   6.770   3.767 -0.5578 -3.8198 -0.4314
  728MOL0     H  443   8.440   6.837   3.863 -0.0019 -2.7446 -1.4551
  728MOL0     H  444   8.248   5.981   4.460 -0.2704  2.8319  0.8458
  728MOL0     H  445   8.250   5.789   4.624 -0.9284 -1.1623  2.5156
  728MOL0     H  446   8.272   5.720   4.948  1.4665 -0.6944  0.7044
  728MOL0     H  447   8.389   5.636   5.136 -1.5264  0.5421  0.4309
  728MOL0     H  448   8.235   3.851   4.814 -0.2026  1.4279 -0.2877
  728MOL0     H  449   8.075   3.690   4.907  0.4368 -1.4141  1.2448
  728MOL0     H  450   7.942   3.369   4.926 -0.4641  0.5299  0.2190
  728MOL0     H  451   7.737   3.230   4.978 -1.4658  1.1977  0.3631
  728MOL0     H  452   7.482   3.110   5.115 -0.6462 -2.3728 -1.3762
  728MOL0     H  453   7.634   3.028   5.067 -0.0868 -0.6120 -0.3011
  728MOL0     H  454   7.472   2.905   5.215 -0.2098  1.4390 -2.5848
  728MOL0     H  455   7.478   3.018   5.337 -0.3966 -2.5173  0.6457
  728MOL0     H  456   7.720   2.886   5.234 -0.9637 -0.2800 -0.7297
  728MOL0     H  457   7.730   2.988   5.367  1.4478  0.0891 -1.1281
  728MOL0     H  458   7.634   2.825   5.539  0.0643  0.2801 -0.5617
  728MOL0     H  459   7.744   2.736   5.430 -0.9198 -1.5230 -0.7587
  728MOL0     H  460   7.357   2.575   5.406  1.5008 -1.1525 -3.5199
  728MOL0     H  461   7.821   3.247   5.395  2.5916  0.3422  0.3455
  728MOL0     H  462   8.152   3.327   5.384 -0.8100  0.3536 -0.2168
  728MOL0     H  463   8.064   3.484   5.387 -2.6666  0.8572 -0.7501
  728MOL0     H  464   8.008   3.341   5.482 -0.7047 -1.1774 -0.5020
  729MOL0     O  465   7.003   1.590   1.093 -0.3759  0.1541 -0.2232
  729MOL0     C  466   6.993   1.574   0.972  0.0065 -0.1808  0.0547
  729MOL0     O  467   7.095   1.576   0.881  0.2686  0.0175 -0.7235
  729MOL0     C  468   7.221   1.604   0.927  0.6139  0.4126 -0.6859
  729MOL0     C  469   7.313   1.698   0.871  0.3726 -0.6858  0.8869
  729MOL0     C  470   7.445   1.726   0.921  0.7679 -0.4259  0.4547
  729MOL0     C  471   7.492   1.649   1.030  0.6221 -0.3932  0.6891
  729MOL0     O  472   7.618   1.654   1.090  0.1230 -0.8073  0.0049
  729MOL0     C  473   7.670   1.539   1.152  0.0916  0.1269  0.0984
  729MOL0     C  474   7.825   1.559   1.185  0.1065  0.6788 -0.5641
  729MOL0     C  475   7.903   1.572   1.052 -0.3465 -0.2608 -0.5887
  729MOL0     C  476   8.049   1.643   1.073  0.5378 -0.3308  0.2601
  729MOL0     C  477   8.153   1.535   1.104  0.3248  1.3672  0.4910
  729MOL0     C  478   8.218   1.480   0.980  0.8892  0.8203  0.4685
  729MOL0     C  479   8.329   1.381   1.011  0.0956  0.5942  0.7214
  729MOL0     C  480   8.436   1.434   1.090 -0.8532  0.2736  0.2576
  729MOL0     N  481   8.521   1.536   1.023 -0.1278  1.5429 -0.4707
  729MOL0     C  482   8.598   1.498   0.913 -1.4049  0.1709  0.0645
  729MOL0     C  483   8.666   1.610   0.878  0.4227  0.4054 -0.0635
  729MOL0     C  484   8.781   1.629   0.790 -0.0290  0.1932 -0.5316
  729MOL0     C  485   8.740   1.615   0.644  0.5890 -0.7771 -0.1317
  729MOL0     C  486   8.745   1.464   0.584  0.2448 -0.3945 -0.5726
  729MOL0     C  487   8.662   1.459   0.452 -0.2390  0.3084  0.0596
  729MOL0     O  488   8.699   1.565   0.357 -0.0067  0.0693 -0.3367
  729MOL0     C  489   8.653   1.557   0.233  0.6416 -0.4902  0.8249
  729MOL0     C  490   8.588   1.447   0.172 -0.0379  0.0881 -0.3927
  729MOL0     C  491   8.540   1.451   0.040  0.1496  0.2382  0.1050
  729MOL0     C  492   8.448   1.338  -0.002 -0.4315  0.2807  0.0848
  729MOL0     C  493   8.566   1.566  -0.046  0.9786 -0.3248 -0.8172
  729MOL0     C  494   8.540   1.587  -0.190  0.4225  0.2472  0.6017
  729MOL0     O  495   8.615   1.674  -0.263  0.6329  0.4655  0.2973
  729MOL0     C  496   8.569   1.706  -0.388  0.5816  0.0501  0.8719
  729MOL0     C  497   8.617   1.647  -0.514  0.1932  1.1875  0.3285
  729MOL0     C  498   8.589   1.698  -0.639  0.2550 -1.0225  0.0448
  729MOL0     C  499   8.484   1.789  -0.649 -0.5233  0.4602  0.7754
  729MOL0     O  500   8.442   1.847  -0.763 -0.3131 -0.8943 -0.1511
  729MOL0     C  501   8.425   1.768  -0.882 -0.3388 -0.5264 -0.0845
  729MOL0     C  502   8.364   1.859  -0.992 -0.1639  0.0189  0.1159
  729MOL0     C  503   8.426   1.996  -1.019  1.6827  0.4890  0.9226
  729MOL0     C  504   8.332   2.069  -1.122  0.5871 -0.2732  0.1349
  729MOL0     C  505   8.269   1.988  -1.241  0.5027 -0.1322  0.1777
  729MOL0     C  506   8.209   2.071  -1.342  0.0100  0.1998 -0.4269
  729MOL0     C  507   8.070   2.023  -1.395  0.7777  0.5863  0.7004
  729MOL0     C  508   8.060   2.033  -1.544  0.5797 -0.0157  0.6177
  729MOL0    Cl  509   8.138   1.879  -1.623  0.3413 -0.5030 -0.4301
  729MOL0     C  510   8.424   1.845  -0.528 -0.6855 -0.4188 -0.5884
  729MOL0     C  511   8.473   1.808  -0.401 -0.4331 -0.0227  0.9596
  729MOL0     O  512   8.464   1.500  -0.244 -0.0268  0.6120  0.3603
  729MOL0     C  513   8.640   1.661   0.014  0.1237  0.0432 -0.4438
  729MOL0     C  514   8.677   1.661   0.151 -0.9928  0.2619  0.0397
  729MOL0     N  515   8.620   1.706   0.966 -0.9367 -0.1436  0.1905
  729MOL0     N  516   8.532   1.669   1.045  0.5918  0.0150 -0.6434
  729MOL0     C  517   7.403   1.545   1.075 -1.0658  0.4129 -0.3299
  729MOL0     C  518   7.275   1.522   1.026  1.1967 -0.0656 -0.9796
  729MOL0     C  519   6.858   1.568   0.906 -0.1176  0.4799 -0.1560
  729MOL0     C  520   6.849   1.544   0.762 -0.6734  0.3415  0.8093
  729MOL0     C  521   6.728   1.537   0.701 -0.5352  0.4214 -0.3229
  729MOL0     C  522   6.615   1.550   0.775  1.1390 -0.2572 -0.0559
  729MOL0     O  523   6.495   1.554   0.710  0.5147 -0.3470 -0.3098
  729MOL0     C  524   6.406   1.445   0.746  0.2915 -0.2971 -0.5052
  729MOL0     C  525   6.351   1.379   0.622  0.0705 -0.1008 -0.1304
  729MOL0     C  526   6.462   1.330   0.516  0.7073 -0.4055  0.0035
  729MOL0     C  527   6.578   1.256   0.566 -0.0327 -0.1731 -0.3922
  729MOL0     C  528   6.536   1.136   0.627  0.0384 -0.2127  0.1379
  729MOL0     C  529   6.498   1.050   0.692  1.0181  0.3918 -0.9323
  729MOL0     C  530   6.619   1.555   0.915 -0.5378 -0.7309 -0.0193
  729MOL0     C  531   6.740   1.576   0.984  0.0898  0.2597  0.1395
  729MOL0     C  532   6.726   1.613   1.134  0.6051  0.1721  0.4071
  729MOL0     H  533   7.258   1.745   0.791  0.0954  1.7380  2.4158
  729MOL0     H  534   7.505   1.807   0.881 -1.1585  0.9741  0.2954
  729MOL0     H  535   7.660   1.454   1.084  1.1947  0.7326 -0.8562
  729MOL0     H  536   7.622   1.527   1.249 -1.5645 -0.3003 -0.7282
  729MOL0     H  537   7.830   1.646   1.251 -0.6987  0.2464  0.0927
  729MOL0     H  538   7.870   1.471   1.232  1.0286 -0.4342 -3.3319
  729MOL0     H  539   7.915   1.472   1.009  2.1329  0.4840 -1.8131
  729MOL0     H  540   7.842   1.634   0.985  1.6406  1.7892 -0.6125
  729MOL0     H  541   8.074   1.700   0.983  1.6089 -3.5238 -1.6656
  729MOL0     H  542   8.045   1.718   1.152 -1.9706 -0.9193  0.7884
  729MOL0     H  543   8.111   1.452   1.161  1.0243  1.1705  0.7335
  729MOL0     H  544   8.226   1.596   1.157 -0.7674  2.8391  0.3536
  729MOL0     H  545   8.147   1.416   0.928  1.8990 -3.6590  4.0545
  729MOL0     H  546   8.253   1.563   0.917  1.1022  0.6546  0.3639
  729MOL0     H  547   8.370   1.349   0.914 -0.1117 -1.0710  1.1506
  729MOL0     H  548   8.302   1.281   1.045 -0.6089  1.2546  2.2047
  729MOL0     H  549   8.404   1.473   1.187 -2.2673 -0.6254  0.1896
  729MOL0     H  550   8.503   1.348   1.096 -1.0053  0.1949  0.9299
  729MOL0     H  551   8.596   1.393   0.885  1.9413 -0.3551  1.4098
  729MOL0     H  552   8.858   1.554   0.811  0.2543  0.6602  0.1001
  729MOL0     H  553   8.825   1.728   0.800 -0.9484  0.4819  0.9150
  729MOL0     H  554   8.640   1.658   0.628 -0.0666 -1.6194  1.4992
  729MOL0     H  555   8.816   1.676   0.594  0.2805  0.1574  0.5034
  729MOL0     H  556   8.842   1.414   0.574  0.3631 -0.4001  0.4444
  729MOL0     H  557   8.688   1.408   0.658  0.8984  1.0644  1.0981
  729MOL0     H  558   8.693   1.358   0.422  0.8335 -0.4077  3.2175
  729MOL0     H  559   8.557   1.460   0.481  0.3471 -1.7405  2.6102
  729MOL0     H  560   8.576   1.354   0.226  2.1884  0.0104  0.0547
  729MOL0     H  561   8.475   1.305  -0.103 -1.0935 -0.9585  0.2895
  729MOL0     H  562   8.344   1.370   0.011 -1.2758 -2.0360 -0.4389
  729MOL0     H  563   8.459   1.251   0.064  0.8665  0.6488  0.3968
  729MOL0     H  564   8.683   1.563  -0.501 -1.2205  0.2663  2.0082
  729MOL0     H  565   8.638   1.652  -0.725 -3.6288  1.1280 -3.7290
  729MOL0     H  566   8.521   1.730  -0.918  0.2440 -0.2980  1.1784
  729MOL0     H  567   8.345   1.697  -0.862 -2.0206  1.2323 -0.2041
  729MOL0     H  568   8.347   1.814  -1.091  0.4116  0.6398 -0.2713
  729MOL0     H  569   8.261   1.864  -0.955 -0.4033 -3.2242  0.2042
  729MOL0     H  570   8.525   1.979  -1.062  2.4101  1.9171  1.9704
  729MOL0     H  571   8.440   2.052  -0.927  2.8632 -0.9383  1.6401
  729MOL0     H  572   8.389   2.152  -1.166 -1.1133  0.4154 -0.8507
  729MOL0     H  573   8.248   2.114  -1.069  0.4595 -0.3665  0.0110
  729MOL0     H  574   8.346   1.920  -1.279  2.1978  2.0852 -0.5789
  729MOL0     H  575   8.192   1.927  -1.193 -2.5866  0.0495 -3.9611
  729MOL0     H  576   8.285   2.092  -1.418 -2.0018 -2.1069 -3.3169
  729MOL0     H  577   8.193   2.167  -1.293 -2.0025  0.0177 -0.6496
  729MOL0     H  578   7.992   2.090  -1.357  2.5027  3.0762  0.1506
  729MOL0     H  579   8.046   1.921  -1.366 -2.1211  1.2388  0.8764
  729MOL0     H  580   8.107   2.126  -1.579 -0.8853  0.7051  0.5272
  729MOL0     H  581   7.954   2.048  -1.564  0.8502  0.8343 -0.2838
  729MOL0     H  582   8.341   1.915  -0.533 -0.3306 -0.0440 -1.3326
  729MOL0     H  583   8.460   1.876  -0.317  2.7271 -0.6757  2.1078
  729MOL0     H  584   8.656   1.755  -0.038  2.4133  0.1910  0.3950
  729MOL0     H  585   8.728   1.744   0.200  0.1830  0.1985 -1.0128
  729MOL0     H  586   7.427   1.478   1.157 -2.0382 -1.0129 -1.1644
  729MOL0     H  587   7.214   1.443   1.069 -0.9123  1.1015 -1.6841
  729MOL0     H  588   6.932   1.554   0.693 -2.0990 -2.6034 -1.5127
  729MOL0     H  589   6.715   1.530   0.593 -1.8459 -1.4528 -0.0912
  729MOL0     H  590   6.463   1.366   0.797  0.3368 -0.0585 -0.1875
  729MOL0     H  591   6.325   1.494   0.800  0.6198  0.0784 -0.3449
  729MOL0     H  592   6.276   1.438   0.568  2.5524  0.3007 -3.4277
  729MOL0     H  593   6.292   1.293   0.656  0.2141  0.3238  1.2555
  729MOL0     H  594   6.417   1.283   0.428  0.3082 -3.1342  1.5611
  729MOL0     H  595   6.502   1.425   0.480 -0.1991 -0.1181 -0.2497
  729MOL0     H  596   6.646   1.305   0.636  1.1920 -1.6958 -0.4477
  729MOL0     H  597   6.647   1.224   0.486  1.5722 -2.9757  1.9178
  729MOL0     H  598   6.474   0.958   0.741 -1.5089  0.7247 -1.4011
  729MOL0     H  599   6.528   1.556   0.974 -1.9642 -1.3558 -2.0766
  729MOL0     H  600   6.630   1.579   1.173  1.6271 -2.2182  1.0360
  729MOL0     H  601   6.799   1.562   1.198  0.7196  2.7425  2.4723
  729MOL0     H  602   6.737   1.721   1.131 -3.2306  0.6757 -0.7609
  730MOL0     O  603   9.208   8.897   9.967  0.9611  0.3138  0.3126
  730MOL0     C  604   9.314   8.920  10.015 -0.3358 -0.9253  0.3290
  730MOL0     O  605   9.429   8.840  10.014 -0.3453  0.4186 -1.1646
  730MOL0     C  606   9.423   8.707   9.976 -0.8501 -0.1587  0.0490
  730MOL0     C  607   9.513   8.655   9.880  0.6632 -0.3663  0.0191
  730MOL0     C  608   9.484   8.530   9.818  0.2878  0.1914 -0.0510
  730MOL0     C  609   9.370   8.457   9.849 -0.3723  0.3167 -0.4743
  730MOL0     O  610   9.352   8.345   9.771  0.2192 -0.7105 -0.2730
  730MOL0     C  611   9.214   8.307   9.743  0.1200 -0.7942  0.2798
  730MOL0     C  612   9.217   8.190   9.647 -0.7850  0.6066  0.1870
  730MOL0     C  613   9.246   8.231   9.502 -0.4192  0.5103 -0.1381
  730MOL0     C  614   9.292   8.105   9.421  0.4458 -0.7842 -0.3312
  730MOL0     C  615   9.265   8.134   9.271  0.0719 -1.1209  0.1056
  730MOL0     C  616   9.328   8.029   9.177 -0.2423 -0.4812 -0.6747
  730MOL0     C  617   9.304   8.049   9.025  0.5534 -0.2703  0.5278
  730MOL0     C  618   9.383   7.951   8.934  0.3131  0.4985 -0.3725
  730MOL0     N  619   9.531   7.969   8.924  0.3478 -0.8462  0.5574
  730MOL0     C  620   9.612   7.898   9.006 -0.9549 -0.6208 -0.0371
  730MOL0     C  621   9.735   7.938   8.980 -0.3723  0.9588 -0.2450
  730MOL0     C  622   9.862   7.877   9.033 -0.5993 -1.4453 -0.6004
  730MOL0     C  623   9.933   7.961   9.138  0.8014  0.8954 -0.7020
  730MOL0     C  624   9.973   8.104   9.096 -1.0211 -0.6000 -0.9952
  730MOL0     C  625  10.053   8.106   8.963 -0.6628 -0.0190 -0.3963
  730MOL0     O  626  10.177   8.046   9.007  1.3469 -0.3472 -0.4467
  730MOL0     C  627  10.237   7.953   8.930 -0.3770  0.7877  0.3871
  730MOL0     C  628  10.231   7.936   8.788 -0.1565  0.4930  0.8131
  730MOL0     C  629  10.295   7.830   8.717  0.1232  0.9029 -0.7211
  730MOL0     C  630  10.288   7.826   8.569  0.1659  0.3097  0.3039
  730MOL0     C  631  10.353   7.724   8.798 -0.0125 -0.0823  0.3341
  730MOL0     C  632  10.430   7.614   8.732  0.4645  0.5807  1.1128
  730MOL0     O  633  10.382   7.554   8.614  0.1745  0.8396  0.3717
  730MOL0     C  634  10.463   7.467   8.539 -0.3266  0.3884 -0.4631
  730MOL0     C  635  10.406   7.358   8.472 -0.3392 -0.9149 -0.2751
  730MOL0     C  636  10.480   7.268   8.393 -0.6633  0.4536 -0.1919
  730MOL0     C  637  10.612   7.303   8.361 -0.4949  0.3148 -0.4535
  730MOL0     O  638  10.688   7.231   8.279 -1.2801  0.3657  0.2617
  730MOL0     C  639  10.634   7.203   8.147 -0.2208  0.8068  0.2800
  730MOL0     C  640  10.604   7.338   8.067 -0.0132  1.2873 -0.2663
  730MOL0     C  641  10.737   7.418   8.049 -0.3129  0.8692 -0.4484
  730MOL0     C  642  10.847   7.351   7.963 -0.2182 -0.1690  0.4325
  730MOL0     C  643  10.959   7.451   7.941  0.7298  0.7250 -1.3076
  730MOL0     C  644  11.075   7.395   7.874  0.0520  1.2811 -0.3047
  730MOL0     C  645  11.038   7.331   7.741  0.2252  0.0243  0.2651
  730MOL0     C  646  11.158   7.307   7.646  0.1730 -0.1610  0.2695
  730MOL0    Cl  647  11.076   7.212   7.520  0.0969 -0.2705  0.1328
  730MOL0     C  648  10.667   7.420   8.421  0.4731 -1.0748  0.9317
  730MOL0     C  649  10.589   7.503   8.496  0.1042 -0.6189  0.0068
  730MOL0     O  650  10.545   7.593   8.780  0.0172 -0.5628  0.5881
  730MOL0     C  651  10.353   7.731   8.937 -0.0974 -0.0390 -0.8636
  730MOL0     C  652  10.308   7.849   8.999 -0.3568  1.3855  0.2018
  730MOL0     N  653   9.723   8.024   8.875 -0.6960 -0.9981 -1.0171
  730MOL0     N  654   9.606   8.042   8.841 -0.2407 -0.1639  0.4682
  730MOL0     C  655   9.296   8.502   9.959  0.1143 -0.7256 -0.4812
  730MOL0     C  656   9.323   8.628  10.020  0.1533  1.0498  0.5755
  730MOL0     C  657   9.325   9.046  10.089 -0.1201  0.2826  0.4454
  730MOL0     C  658   9.276   9.155  10.033 -0.3522 -0.9159  0.5447
  730MOL0     C  659   9.286   9.284  10.091 -0.5790 -0.5920  0.5394
  730MOL0     C  660   9.335   9.291  10.219  0.1182 -1.2312 -0.2999
  730MOL0     O  661   9.352   9.422  10.253  0.4307 -0.4431 -0.1579
  730MOL0     C  662   9.403   9.460  10.385 -0.0125 -0.7872  0.1597
  730MOL0     C  663   9.294   9.454  10.486  0.1736 -0.7910 -0.6680
  730MOL0     C  664   9.344   9.433  10.630 -0.6901  0.0016  0.7117
  730MOL0     C  665   9.235   9.412  10.735 -0.4667 -0.1891  0.2079
  730MOL0     C  666   9.157   9.282  10.724 -0.3214  0.4331  0.1606
  730MOL0     C  667   9.109   9.174  10.685 -0.2203 -0.6084 -1.0542
  730MOL0     C  668   9.369   9.178  10.285 -0.3762  0.2835  0.1957
  730MOL0     C  669   9.376   9.050  10.217  0.3145 -0.0260 -0.2462
  730MOL0     C  670   9.420   8.928  10.291  1.1570  0.0590  0.3630
  730MOL0     H  671   9.588   8.714   9.828 -2.0690  2.3619 -1.1600
  730MOL0     H  672   9.536   8.501   9.727  3.4519  3.2496  0.5847
  730MOL0     H  673   9.139   8.379   9.708  1.8426  0.6331 -0.6572
  730MOL0     H  674   9.179   8.279   9.843 -2.3545  0.0005 -0.2898
  730MOL0     H  675   9.300   8.124   9.674 -0.5857  1.5716  2.0855
  730MOL0     H  676   9.120   8.140   9.647  0.1207 -1.2483  0.4253
  730MOL0     H  677   9.164   8.283   9.452  0.7014  1.6185 -0.8760
  730MOL0     H  678   9.331   8.298   9.491  0.5397 -0.6633 -0.0944
  730MOL0     H  679   9.400   8.109   9.433  0.7148  0.4817 -2.6008
  730MOL0     H  680   9.259   8.006   9.456 -2.6168 -0.1708 -1.1430
  730MOL0     H  681   9.304   8.233   9.244 -3.6338  1.0213  1.7516
  730MOL0     H  682   9.157   8.136   9.252 -0.3175 -3.0482  1.8595
  730MOL0     H  683   9.437   8.024   9.182  0.1891  1.5815 -4.4203
  730MOL0     H  684   9.286   7.933   9.210 -2.7373  0.5910 -0.5334
  730MOL0     H  685   9.331   8.152   9.001 -4.6686  1.7326  2.0223
  730MOL0     H  686   9.196   8.043   9.006  0.9009 -1.6027 -1.3968
  730MOL0     H  687   9.368   7.853   8.980  1.2578  0.1367 -0.8089
  730MOL0     H  688   9.333   7.947   8.837 -1.8511 -2.6442  0.6952
  730MOL0     H  689   9.587   7.829   9.085  1.4692 -2.3866 -0.6792
  730MOL0     H  690   9.925   7.861   8.945  1.4593  4.0301 -0.5207
  730MOL0     H  691   9.834   7.775   9.060 -5.2149 -1.0303 -2.9205
  730MOL0     H  692   9.863   7.967   9.222 -0.5602 -2.0471 -1.4949
  730MOL0     H  693  10.025   7.919   9.178  0.2533  0.2731 -0.0614
  730MOL0     H  694   9.894   8.180   9.097  1.5828  2.3425 -2.0111
  730MOL0     H  695  10.046   8.138   9.170 -0.6410 -0.5785 -1.3734
  730MOL0     H  696  10.010   8.045   8.884 -0.0357  1.3301 -1.8254
  730MOL0     H  697  10.067   8.209   8.930  1.8393 -0.4285 -0.8465
  730MOL0     H  698  10.175   8.011   8.734  0.8870  0.8639  0.2175
  730MOL0     H  699  10.393   7.826   8.538 -0.3358 -1.3462 -1.6123
  730MOL0     H  700  10.248   7.912   8.514 -2.5029  1.1851  3.3248
  730MOL0     H  701  10.229   7.738   8.542 -1.4610  0.4025  3.2316
  730MOL0     H  702  10.300   7.338   8.485 -0.3405 -0.6970  0.0927
  730MOL0     H  703  10.437   7.184   8.340  0.0260 -0.0382  0.0152
  730MOL0     H  704  10.713   7.160   8.085  0.4211  1.5030  0.5983
  730MOL0     H  705  10.559   7.124   8.154  0.2515  0.4009  0.7720
  730MOL0     H  706  10.556   7.329   7.969 -1.1474 -1.2403  0.4402
  730MOL0     H  707  10.530   7.397   8.121 -0.7761  0.0041  0.1243
  730MOL0     H  708  10.768   7.436   8.152 -1.0572 -0.2965 -0.0065
  730MOL0     H  709  10.717   7.515   8.002 -3.2107 -1.3636 -4.4765
  730MOL0     H  710  10.806   7.330   7.864  2.2354  2.0961 -1.1996
  730MOL0     H  711  10.890   7.258   7.999  0.6708 -0.8777 -2.2480
  730MOL0     H  712  10.913   7.544   7.906 -2.2759 -0.0091  0.2895
  730MOL0     H  713  10.997   7.487   8.037 -0.0529 -0.5315 -0.4920
  730MOL0     H  714  11.137   7.327   7.933 -0.7171  1.6579  0.9681
  730MOL0     H  715  11.134   7.482   7.845  1.4328 -0.3803 -2.9862
  730MOL0     H  716  10.966   7.398   7.692  2.4105  3.1965  1.0923
  730MOL0     H  717  10.985   7.238   7.764  1.3246 -0.4270  1.0696
  730MOL0     H  718  11.236   7.241   7.686 -0.0400  1.6045  4.0229
  730MOL0     H  719  11.193   7.400   7.598 -0.6639  0.5941  1.0819
  730MOL0     H  720  10.767   7.452   8.394 -0.0956  0.2817  0.3191
  730MOL0     H  721  10.640   7.596   8.520 -0.6448  0.5321 -2.4800
  730MOL0     H  722  10.393   7.644   8.988 -2.2580 -1.1598 -0.9694
  730MOL0     H  723  10.318   7.844   9.107 -0.7421 -0.9426  0.1793
  730MOL0     H  724   9.210   8.444   9.990 -0.1477 -0.6992 -1.1525
  730MOL0     H  725   9.270   8.678  10.101  1.2156  0.6960  1.5132
  730MOL0     H  726   9.252   9.148   9.927 -0.6153  1.9731  0.3274
  730MOL0     H  727   9.277   9.372  10.029  4.2581  0.7632  1.3297
  730MOL0     H  728   9.493   9.409  10.419 -0.6009 -1.7381  0.3429
  730MOL0     H  729   9.422   9.566  10.370 -0.7097 -0.8170 -1.0493
  730MOL0     H  730   9.224   9.372  10.466 -1.1052 -0.1144  0.8123
  730MOL0     H  731   9.240   9.548  10.469  1.1990 -0.2251 -0.9256
  730MOL0     H  732   9.400   9.339  10.616  0.1240  0.6656 -0.6785
  730MOL0     H  733   9.414   9.507  10.669  0.0633 -1.8393  3.1746
  730MOL0     H  734   9.173   9.502  10.727  0.9097  0.7661  0.0802
  730MOL0     H  735   9.289   9.406  10.830 -0.7979 -2.5093  0.3214
  730MOL0     H  736   9.077   9.083  10.640 -2.8439 -1.5893  2.3877
  730MOL0     H  737   9.396   9.183  10.390 -0.9684 -0.2717  0.3864
  730MOL0     H  738   9.528   8.927  10.311  1.3946 -0.4830 -0.8389
  730MOL0     H  739   9.367   8.935  10.386 -1.2322  2.9657 -1.0161
  730MOL0     H  740   9.383   8.835  10.246  0.9137 -0.6453  1.9247
  731MOL0     O  741   6.705   3.565   9.486 -1.8309 -0.4697 -1.0166
  731MOL0     C  742   6.709   3.679   9.531 -0.2301 -0.8458 -0.3090
  731MOL0     O  743   6.604   3.749   9.582  0.1658  0.1756 -0.1965
  731MOL0     C  744   6.498   3.675   9.638 -0.9674  0.0390 -0.8365
  731MOL0     C  745   6.384   3.747   9.674 -0.4438  0.0154 -0.3057
  731MOL0     C  746   6.265   3.676   9.713 -0.7611 -0.6038  0.1953
  731MOL0     C  747   6.274   3.544   9.732 -0.1472  0.4572  0.2308
  731MOL0     O  748   6.166   3.476   9.789  0.5522  0.5172 -0.0643
  731MOL0     C  749   6.147   3.483   9.929  0.4468  0.4050  0.6860
  731MOL0     C  750   6.062   3.362   9.969  0.0946 -0.0810  0.3172
  731MOL0     C  751   6.157   3.253  10.027  0.1044  0.4835  1.3893
  731MOL0     C  752   6.082   3.134  10.019  0.2077 -0.7470  0.5406
  731MOL0     C  753   6.164   3.008  10.043 -0.5555 -0.6849 -0.4635
  731MOL0     C  754   6.081   2.887  10.099  0.6341 -0.2878 -0.3621
  731MOL0     C  755   6.035   2.916  10.249 -0.1982  1.3077 -0.1187
  731MOL0     C  756   5.976   2.787  10.311 -0.0841 -0.0440 -0.0171
  731MOL0     N  757   5.931   2.784  10.454 -0.1481 -0.5629  0.2656
  731MOL0     C  758   5.853   2.691  10.525  0.3722  0.3387 -1.0581
  731MOL0     C  759   5.835   2.749  10.644 -0.5620 -0.0362  0.5567
  731MOL0     C  760   5.753   2.704  10.759 -0.8321 -0.4312 -0.7724
  731MOL0     C  761   5.828   2.612  10.848 -0.9322 -0.8029 -0.2181
  731MOL0     C  762   5.751   2.577  10.975 -0.3382 -0.2127  0.4516
  731MOL0     C  763   5.844   2.499  11.082  0.4384 -0.0840 -0.6945
  731MOL0     O  764   5.877   2.588  11.194 -0.3509 -0.0493  0.1936
  731MOL0     C  765   5.807   2.564  11.308  0.5124  0.1303  0.3705
  731MOL0     C  766   5.674   2.623  11.322 -0.8454  0.4742  0.2927
  731MOL0     C  767   5.602   2.595  11.442 -0.5269  0.2550 -1.0929
  731MOL0     C  768   5.466   2.667  11.435 -0.5160  0.8301  0.6441
  731MOL0     C  769   5.667   2.528  11.552 -0.5127 -0.4430 -0.3618
  731MOL0     C  770   5.589   2.479  11.669 -0.2506  0.1562 -0.4738
  731MOL0     O  771   5.479   2.552  11.715 -0.1510  0.0378  0.6200
  731MOL0     C  772   5.408   2.491  11.817 -0.3423 -0.3261  0.0719
  731MOL0     C  773   5.439   2.521  11.949  0.9179 -0.6725 -0.2528
  731MOL0     C  774   5.366   2.466  12.051 -0.0732  1.8288  0.3680
  731MOL0     C  775   5.246   2.391  12.030  0.1068  0.1730 -0.0860
  731MOL0     O  776   5.200   2.316  12.142  0.6330 -0.4923  0.4179
  731MOL0     C  777   5.141   2.187  12.109  0.3681 -0.8656 -0.2155
  731MOL0     C  778   5.113   2.107  12.235  0.1481 -0.3654 -0.0386
  731MOL0     C  779   5.021   1.979  12.225  0.2017 -0.1981 -0.4736
  731MOL0     C  780   5.067   1.866  12.315 -0.4575 -0.1686 -0.1595
  731MOL0     C  781   5.081   1.893  12.464 -1.0593  0.6120 -0.3851
  731MOL0     C  782   4.949   1.931  12.531 -0.2653  0.1780 -0.4937
  731MOL0     C  783   4.967   1.986  12.685  0.0136  0.3847 -0.4576
  731MOL0     C  784   4.841   1.931  12.752  0.2132 -0.2243 -0.9385
  731MOL0    Cl  785   4.845   1.972  12.923  0.2132  0.1690  0.4114
  731MOL0     C  786   5.227   2.348  11.896 -0.0043 -1.3450  1.1822
  731MOL0     C  787   5.314   2.396  11.792  1.1713  0.3203  0.0868
  731MOL0     O  788   5.631   2.376  11.720  0.5343  0.2226 -0.5406
  731MOL0     C  789   5.800   2.484  11.537  0.1087 -0.3142 -0.6718
  731MOL0     C  790   5.872   2.505  11.419  0.0991  0.8395 -0.0726
  731MOL0     N  791   5.913   2.864  10.655 -0.6112 -0.5534  0.5615
  731MOL0     N  792   5.970   2.885  10.539 -0.2093  0.7542  0.0960
  731MOL0     C  793   6.390   3.474   9.709 -0.5670  0.5087  0.3530
  731MOL0     C  794   6.509   3.539   9.671  0.0263  0.3674 -0.7480
  731MOL0     C  795   6.817   3.773   9.490 -0.0551  0.4411 -0.1672
  731MOL0     C  796   6.985   3.705   9.375  0.1539 -1.3058 -0.8413
  731MOL0     C  797   7.136   3.851   9.324 -1.1887 -0.4605  0.7020
  731MOL0     C  798   7.120   4.047   9.382 -0.5797 -0.3891 -0.3621
  731MOL0     O  799   7.229   4.131   9.348  0.5594 -0.6066 -0.5206
  731MOL0     C  800   7.205   4.270   9.348 -0.2321  0.4686  0.4589
  731MOL0     C  801   7.324   4.353   9.293  0.5389  0.7272  0.1879
  731MOL0     C  802   7.387   4.311   9.153  0.6293  0.6646  0.1578
  731MOL0     C  803   7.286   4.320   9.035  0.6695  0.3347 -0.4061
  731MOL0     C  804   7.224   4.454   9.019 -0.0126 -0.4624  0.3716
  731MOL0     C  805   7.169   4.554   9.014  0.7195 -0.2316  0.4224
  731MOL0     C  806   6.956   4.114   9.495  1.3490 -0.2292  0.3207
  731MOL0     C  807   6.807   3.971   9.553 -0.2610 -0.4407  0.0880
  731MOL0     C  808   6.694   4.028   9.630  0.0488  0.2838  0.4837
  731MOL0     H  809   6.386   3.854   9.662  2.3897  0.3677  2.1255
  731MOL0     H  810   6.175   3.728   9.743 -1.0097 -1.1785  0.4538
  731MOL0     H  811   6.090   3.575   9.943 -0.4247  0.4398 -2.4359
  731MOL0     H  812   6.237   3.501   9.989  0.0636  1.2036  1.0401
  731MOL0     H  813   5.989   3.394  10.044  1.1700  1.0705  0.8947
  731MOL0     H  814   6.024   3.317   9.877 -0.9628  2.2082 -0.4331
  731MOL0     H  815   6.240   3.253   9.956 -2.9927  1.4914 -2.5389
  731MOL0     H  816   6.197   3.269  10.128  3.8214  3.8995 -0.3219
  731MOL0     H  817   5.991   3.142  10.079 -0.6390 -0.6313 -0.7251
  731MOL0     H  818   6.056   3.137   9.913  4.6331  1.5972 -0.7131
  731MOL0     H  819   6.249   3.026  10.110 -1.0242  0.2633 -0.1021
  731MOL0     H  820   6.198   2.993   9.940 -1.4233 -2.5935 -0.5272
  731MOL0     H  821   5.993   2.878  10.035  1.8070  1.6117 -2.3991
  731MOL0     H  822   6.151   2.804  10.081  0.7651  0.0567 -1.5187
  731MOL0     H  823   5.970   3.003  10.258  1.4801  2.8040 -1.5834
  731MOL0     H  824   6.128   2.918  10.307  0.7887 -0.6860 -1.4937
  731MOL0     H  825   5.884   2.773  10.252 -0.4491  2.3113 -0.0946
  731MOL0     H  826   6.045   2.705  10.288  0.4362  0.6902 -1.1410
  731MOL0     H  827   5.799   2.600  10.499 -0.3842 -1.0948  4.2718
  731MOL0     H  828   5.675   2.633  10.730 -0.4583 -0.6005 -1.3828
  731MOL0     H  829   5.710   2.788  10.814  0.8064  0.0961 -0.2323
  731MOL0     H  830   5.871   2.524  10.800  1.7148  0.2806 -0.0222
  731MOL0     H  831   5.917   2.665  10.884 -0.2446 -1.0598 -1.4551
  731MOL0     H  832   5.727   2.670  11.026  0.0673  0.7345 -1.0309
  731MOL0     H  833   5.648   2.540  10.964 -1.6715  2.4100  2.8352
  731MOL0     H  834   5.793   2.408  11.116  1.9713 -1.5133 -2.0443
  731MOL0     H  835   5.934   2.466  11.030 -1.5379 -1.0953 -3.7020
  731MOL0     H  836   5.641   2.683  11.237 -1.1082  0.7977  0.6178
  731MOL0     H  837   5.468   2.743  11.357 -0.6868  1.2011  0.9955
  731MOL0     H  838   5.432   2.714  11.528 -1.9605  0.7516  0.1839
  731MOL0     H  839   5.406   2.579  11.410  0.3508  0.0404  1.2752
  731MOL0     H  840   5.527   2.583  11.962  0.3650  0.1736 -0.4738
  731MOL0     H  841   5.406   2.493  12.147  0.9394  1.7361 -0.0174
  731MOL0     H  842   5.048   2.204  12.055  0.7295  0.1733 -0.5233
  731MOL0     H  843   5.211   2.135  12.043  0.9129 -4.1028  2.5899
  731MOL0     H  844   5.203   2.087  12.294  0.7589 -1.1449 -1.1965
  731MOL0     H  845   5.058   2.182  12.292  0.9996  3.0264 -3.2866
  731MOL0     H  846   5.032   1.944  12.122  2.6649 -1.6478  0.1800
  731MOL0     H  847   4.918   2.009  12.245  0.0711 -2.6239  3.4920
  731MOL0     H  848   5.166   1.830  12.285 -0.1818  2.0346 -2.1458
  731MOL0     H  849   4.996   1.786  12.291 -1.4816  0.9269 -0.9080
  731MOL0     H  850   5.123   1.803  12.508  2.4608  1.2858 -1.9599
  731MOL0     H  851   5.144   1.981  12.481 -1.6376  0.7585  1.1644
  731MOL0     H  852   4.877   1.849  12.523  0.7897 -0.6987 -1.2014
  731MOL0     H  853   4.898   2.012  12.477 -2.9500 -1.0847 -0.0487
  731MOL0     H  854   4.977   2.095  12.686  2.7512  0.2552 -2.3355
  731MOL0     H  855   5.061   1.948  12.728 -0.4500  1.1546  1.3198
  731MOL0     H  856   4.833   1.823  12.737 -1.1727 -0.4543  1.1178
  731MOL0     H  857   4.750   1.978  12.712  1.6875 -1.0422 -5.9887
  731MOL0     H  858   5.163   2.261  11.884  1.1996 -2.2001  0.8230
  731MOL0     H  859   5.290   2.366  11.690 -4.5881  2.5812  0.3871
  731MOL0     H  860   5.845   2.419  11.611 -2.4952  1.8971  3.1714
  731MOL0     H  861   5.973   2.466  11.416 -0.3534 -0.4345 -3.3961
  731MOL0     H  862   6.391   3.367   9.724 -0.4169  0.2789 -1.0915
  731MOL0     H  863   6.591   3.467   9.672 -0.2235 -0.1030  3.2041
  731MOL0     H  864   6.995   3.606   9.332  3.1633 -1.5179  0.1268
  731MOL0     H  865   7.218   3.819   9.261 -1.0337  0.1477  0.5950
  731MOL0     H  866   7.122   4.276   9.278  1.6044 -0.4036 -1.9270
  731MOL0     H  867   7.176   4.287   9.452 -0.5286  0.4270  0.3828
  731MOL0     H  868   7.401   4.332   9.367  0.8862 -2.2885 -0.8753
  731MOL0     H  869   7.296   4.458   9.290 -1.9031  0.1372 -1.5125
  731MOL0     H  870   7.471   4.380   9.144 -0.8341  2.7079  1.3472
  731MOL0     H  871   7.441   4.216   9.154  2.4486  1.6359  0.6904
  731MOL0     H  872   7.215   4.239   9.050  1.1422 -0.4303 -2.0671
  731MOL0     H  873   7.336   4.304   8.939 -0.1594  0.9726 -0.9530
  731MOL0     H  874   7.106   4.635   8.982  1.7906 -0.4145 -2.5361
  731MOL0     H  875   6.952   4.221   9.515  0.9712  0.3409 -2.4107
  731MOL0     H  876   6.729   4.117   9.682  1.8664  0.0618 -0.2747
  731MOL0     H  877   6.614   4.054   9.560  1.5514  0.6766 -1.1611
  731MOL0     H  878   6.659   3.961   9.708  0.2683 -0.3780  0.0208
  732MOL0     O  879   3.862   9.316   5.815 -0.3086  0.3472  0.0209
  732MOL0     C  880   3.968   9.332   5.753  0.7382 -0.4180  1.1000
  732MOL0     O  881   4.018   9.239   5.664 -0.3216  0.4902  0.4537
  732MOL0     C  882   3.948   9.123   5.624 -0.7126  0.3315  1.5746
  732MOL0     C  883   4.023   9.005   5.591 -0.4006  0.4826  0.7979
  732MOL0     C  884   3.956   8.885   5.552 -0.3733 -0.0939  0.4820
  732MOL0     C  885   3.819   8.891   5.529  0.5950  0.3102 -0.1150
  732MOL0     O  886   3.745   8.776   5.503  0.2778 -0.6447  0.2093
  732MOL0     C  887   3.703   8.723   5.633 -0.1614 -0.7964  1.0262
  732MOL0     C  888   3.588   8.642   5.601  0.3244  1.3492  0.3390
  732MOL0     C  889   3.463   8.716   5.543  0.2258 -0.4511  0.0759
  732MOL0     C  890   3.326   8.640   5.514 -0.7729 -0.1421 -0.4000
  732MOL0     C  891   3.349   8.547   5.401  0.8163  1.0732 -0.2902
  732MOL0     C  892   3.215   8.491   5.342  0.2844  0.0762 -0.3025
  732MOL0     C  893   3.238   8.358   5.270 -0.8845  0.3179  0.2058
  732MOL0     C  894   3.303   8.391   5.136 -0.1649 -1.7976  0.5500
  732MOL0     N  895   3.378   8.284   5.084 -0.0796 -0.2897  0.0219
  732MOL0     C  896   3.340   8.212   4.978 -0.0746  0.2558  0.7121
  732MOL0     C  897   3.447   8.141   4.957 -0.4749  0.2689  0.7847
  732MOL0     C  898   3.478   8.066   4.827  0.2485 -0.3595 -1.3900
  732MOL0     C  899   3.364   7.973   4.774  0.2100  0.4552 -0.1062
  732MOL0     C  900   3.334   7.843   4.845  0.2807 -0.4180  0.0031
  732MOL0     C  901   3.222   7.764   4.775 -0.3144  0.6230  0.6695
  732MOL0     O  902   3.270   7.650   4.701 -0.2215 -0.2365 -0.2138
  732MOL0     C  903   3.308   7.528   4.754 -0.2708 -0.2358  1.0118
  732MOL0     C  904   3.331   7.505   4.889 -0.0857 -0.9287  0.3873
  732MOL0     C  905   3.355   7.377   4.933  0.3105  0.0354  0.3472
  732MOL0     C  906   3.388   7.369   5.076  0.0488 -0.6795  0.4350
  732MOL0     C  907   3.336   7.258   4.851  0.0777 -0.7726 -0.1731
  732MOL0     C  908   3.325   7.117   4.896  0.4261  0.1142 -0.7745
  732MOL0     O  909   3.330   7.020   4.799 -0.2869 -0.4600 -0.3366
  732MOL0     C  910   3.322   6.883   4.820 -0.0933  0.8588 -0.4075
  732MOL0     C  911   3.343   6.818   4.705 -0.4465 -0.3072  0.6062
  732MOL0     C  912   3.355   6.679   4.701  1.0671 -0.6257 -0.5505
  732MOL0     C  913   3.341   6.599   4.818 -0.0667 -0.9260 -0.9731
  732MOL0     O  914   3.354   6.464   4.808  0.0895  0.5052 -0.0040
  732MOL0     C  915   3.292   6.373   4.901 -0.1936 -0.8361  0.6679
  732MOL0     C  916   3.138   6.381   4.910  0.6511  0.0003 -1.2643
  732MOL0     C  917   3.066   6.269   4.984 -1.5528  0.1332  0.1404
  732MOL0     C  918   3.136   6.208   5.106  0.6626 -0.0748 -0.4599
  732MOL0     C  919   3.040   6.100   5.169 -0.3407 -1.1793 -0.1646
  732MOL0     C  920   3.070   6.060   5.313  0.0063  0.2941  0.4352
  732MOL0     C  921   3.037   6.169   5.407 -0.2470  0.1940 -0.3874
  732MOL0     C  922   3.052   6.114   5.553 -0.1635 -0.4327 -0.4103
  732MOL0    Cl  923   3.063   6.246   5.657 -0.1834  0.1919  0.2021
  732MOL0     C  924   3.312   6.669   4.944  0.4937 -0.1072 -0.0175
  732MOL0     C  925   3.311   6.811   4.937  0.1678 -0.3122 -0.1014
  732MOL0     O  926   3.295   7.101   5.014 -0.3984  0.5450  0.4296
  732MOL0     C  927   3.308   7.285   4.714 -0.4302 -0.8386  0.0933
  732MOL0     C  928   3.300   7.422   4.666  0.2958  0.0799 -0.3341
  732MOL0     N  929   3.529   8.141   5.065 -0.6772  0.3449 -0.0979
  732MOL0     N  930   3.494   8.235   5.135  0.6006 -0.1920 -0.4698
  732MOL0     C  931   3.743   9.013   5.553  0.4681  0.1984  0.1945
  732MOL0     C  932   3.813   9.130   5.596  0.1801  0.6342  0.3125
  732MOL0     C  933   4.039   9.466   5.753 -0.3606 -0.0377 -0.9928
  732MOL0     C  934   4.140   9.480   5.660  0.2705  0.1344 -0.1750
  732MOL0     C  935   4.191   9.606   5.641  0.4614 -0.0647  0.1117
  732MOL0     C  936   4.152   9.722   5.718 -0.4259 -0.2059 -0.7217
  732MOL0     O  937   4.193   9.849   5.699 -0.0164  0.2938 -0.0321
  732MOL0     C  938   4.306   9.865   5.618 -0.4403 -1.0546 -0.1480
  732MOL0     C  939   4.366  10.009   5.641  0.8222  1.2224 -0.3487
  732MOL0     C  940   4.483  10.025   5.551  0.0628  0.2640 -0.1765
  732MOL0     C  941   4.554  10.158   5.578 -0.3891  0.3397  0.0104
  732MOL0     C  942   4.456  10.270   5.566 -0.6591 -0.5484  0.6487
  732MOL0     C  943   4.372  10.364   5.558 -0.3559 -0.8253 -0.0217
  732MOL0     C  944   4.042   9.698   5.801 -1.0728 -0.1328 -1.4688
  732MOL0     C  945   3.984   9.576   5.822  0.4454 -0.9482  0.0568
  732MOL0     C  946   3.875   9.572   5.926 -0.8277  0.1815 -0.2702
  732MOL0     H  947   4.130   9.016   5.597 -0.0463 -0.2900 -2.2766
  732MOL0     H  948   4.020   8.797   5.544  1.2254  0.5651  4.1362
  732MOL0     H  949   3.676   8.795   5.710 -1.6038 -0.4474  0.2347
  732MOL0     H  950   3.790   8.673   5.676 -0.6187 -1.8934  0.7161
  732MOL0     H  951   3.610   8.554   5.540 -1.1561  0.2898  1.2581
  732MOL0     H  952   3.573   8.607   5.704  1.2291  1.0316  0.3685
  732MOL0     H  953   3.438   8.807   5.599 -3.9004 -0.4984 -1.3662
  732MOL0     H  954   3.489   8.757   5.445 -0.6344 -2.4257 -1.0191
  732MOL0     H  955   3.286   8.594   5.605 -3.2498  3.3332  0.4489
  732MOL0     H  956   3.247   8.712   5.491 -1.4962 -0.5894  0.5721
  732MOL0     H  957   3.401   8.460   5.444 -2.3348 -1.4587 -1.1996
  732MOL0     H  958   3.414   8.598   5.330 -0.0701  3.0924  0.2928
  732MOL0     H  959   3.150   8.469   5.428 -1.3565  3.3182 -0.5821
  732MOL0     H  960   3.160   8.564   5.283  1.2161  1.1953  0.1767
  732MOL0     H  961   3.142   8.311   5.245 -0.5442 -0.4064  0.2501
  732MOL0     H  962   3.306   8.300   5.333 -0.4016  2.9013  2.2014
  732MOL0     H  963   3.217   8.408   5.071 -0.2200 -1.9244  0.5905
  732MOL0     H  964   3.359   8.484   5.150 -1.2008 -0.6719 -2.0251
  732MOL0     H  965   3.256   8.226   4.910  0.0107 -0.4323  0.4518
  732MOL0     H  966   3.569   8.009   4.850 -0.7146 -1.2863  0.4052
  732MOL0     H  967   3.503   8.130   4.743 -2.3905  1.6615 -0.7701
  732MOL0     H  968   3.273   8.034   4.777  0.5910  1.0391 -0.3509
  732MOL0     H  969   3.392   7.953   4.670 -0.7335 -0.3334 -0.2233
  732MOL0     H  970   3.413   7.768   4.839 -2.3340 -3.3355 -3.7028
  732MOL0     H  971   3.303   7.865   4.947  1.9171 -2.9926  1.1529
  732MOL0     H  972   3.160   7.731   4.859 -1.5589 -0.3113 -0.5786
  732MOL0     H  973   3.160   7.832   4.715  1.6167  0.3744 -1.7982
  732MOL0     H  974   3.327   7.585   4.962  0.4409  2.1562 -2.6984
  732MOL0     H  975   3.431   7.464   5.110 -2.2081  0.5469  0.0244
  732MOL0     H  976   3.473   7.300   5.083  1.9264  1.6556  2.6020
  732MOL0     H  977   3.308   7.335   5.143 -1.0287  2.9843  1.2003
  732MOL0     H  978   3.344   6.880   4.616  0.4224  1.3884  1.7543
  732MOL0     H  979   3.360   6.635   4.602  0.3475  0.5753 -1.1330
  732MOL0     H  980   3.323   6.272   4.871  0.5221 -0.3633 -0.2344
  732MOL0     H  981   3.343   6.394   4.996 -0.4181  2.6324  0.1518
  732MOL0     H  982   3.109   6.471   4.965  1.4622  0.0499 -0.9055
  732MOL0     H  983   3.099   6.382   4.808  0.0186  0.0829 -1.0283
  732MOL0     H  984   3.044   6.192   4.908  2.5356  0.0309 -1.2497
  732MOL0     H  985   2.971   6.314   5.010 -0.5312  0.7762  3.0942
  732MOL0     H  986   3.136   6.289   5.180  0.1922  0.8533 -1.4576
  732MOL0     H  987   3.238   6.171   5.090  1.1448 -0.9732  3.4406
  732MOL0     H  988   2.938   6.139   5.163 -0.7613 -2.4437 -2.7576
  732MOL0     H  989   3.049   6.007   5.112  0.7553 -1.1113 -0.1175
  732MOL0     H  990   3.175   6.031   5.306 -0.2385 -0.2508 -3.4408
  732MOL0     H  991   3.007   5.980   5.351 -3.3850  2.3029 -0.5061
  732MOL0     H  992   2.942   6.217   5.383 -0.9136 -1.1556 -0.5516
  732MOL0     H  993   3.111   6.247   5.387  0.7500 -0.6255 -0.0046
  732MOL0     H  994   3.143   6.055   5.569  0.6764  1.0763  0.6562
  732MOL0     H  995   2.962   6.052   5.567 -1.5929  0.2885 -4.8299
  732MOL0     H  996   3.318   6.605   5.031  3.5764  0.8866  0.5983
  732MOL0     H  997   3.315   6.866   5.030 -1.6493  0.3676 -0.3922
  732MOL0     H  998   3.287   7.210   4.638  0.7422 -0.7627 -0.3181
  732MOL0     H  999   3.282   7.428   4.559 -1.4809  1.0029 -0.0144
  732MOL0     H 1000   3.639   9.035   5.530  0.8528  0.7147 -1.1770
  732MOL0     H 1001   3.764   9.225   5.618  2.1445  2.2592 -1.8345
  732MOL0     H 1002   4.179   9.402   5.594  2.8246  2.1755 -1.2429
  732MOL0     H 1003   4.242   9.626   5.546 -0.0514 -0.5531 -0.2659
  732MOL0     H 1004   4.377   9.790   5.653  1.1144  0.6422  0.5122
  732MOL0     H 1005   4.283   9.838   5.514 -1.2923  0.0203 -0.2533
  732MOL0     H 1006   4.391  10.025   5.747  1.8371  2.2170 -0.7192
  732MOL0     H 1007   4.292  10.087   5.625 -0.3961  0.5063  1.4329
  732MOL0     H 1008   4.563   9.953   5.568  2.5916  2.4819 -2.0603
  732MOL0     H 1009   4.459  10.007   5.446  0.3770 -2.1943  0.1160
  732MOL0     H 1010   4.635  10.172   5.506  0.7814 -2.7250  0.6000
  732MOL0     H 1011   4.594  10.167   5.679  0.7235 -3.0239 -0.0054
  732MOL0     H 1012   4.303  10.439   5.527  0.1001 -0.5753 -0.4463
  732MOL0     H 1013   3.998   9.789   5.842  2.0872  0.4983  0.9963
  732MOL0     H 1014   3.913   9.522   6.015  2.7085  2.7698 -0.1325
  732MOL0     H 1015   3.852   9.673   5.963 -0.1584  0.1363  0.3011
  732MOL0     H 1016   3.779   9.519   5.917 -0.7488 -0.6150  2.6554
  733MOL0     O 1017   4.575   3.954  10.526 -0.1403  0.3216 -0.2718
  733MOL0     C 1018   4.563   4.074  10.495 -0.3613 -0.8042  0.1694
  733MOL0     O 1019   4.575   4.133  10.377 -0.1980  0.4512  0.3254
  733MOL0     C 1020   4.628   4.069  10.270  0.5820  0.0183  0.2802
  733MOL0     C 1021   4.692   3.948  10.246  0.6285  1.2207 -1.5707
  733MOL0     C 1022   4.720   3.895  10.119 -0.2131 -0.2721  0.6165
  733MOL0     C 1023   4.697   3.976  10.006  0.9326  0.1142  1.0051
  733MOL0     O 1024   4.741   3.939   9.882 -0.8856 -0.0278 -0.0978
  733MOL0     C 1025   4.797   3.807   9.863 -0.0214  0.2937  0.0746
  733MOL0     C 1026   4.801   3.786   9.709 -0.0729  1.2968 -0.9509
  733MOL0     C 1027   4.666   3.798   9.623  0.1955  0.8340 -0.6389
  733MOL0     C 1028   4.628   3.662   9.564 -0.9405 -0.6192 -0.6354
  733MOL0     C 1029   4.503   3.670   9.472  0.5352  0.4834 -0.1775
  733MOL0     C 1030   4.378   3.750   9.529 -0.0626  0.4820 -0.3127
  733MOL0     C 1031   4.314   3.688   9.650  0.2540  1.1098 -0.8739
  733MOL0     C 1032   4.194   3.763   9.691  0.2649 -0.3591  0.5458
  733MOL0     N 1033   4.222   3.889   9.774  0.2348  0.4192  0.2762
  733MOL0     C 1034   4.203   3.880   9.914 -0.1877 -0.3583  0.5294
  733MOL0     C 1035   4.269   3.984   9.963 -0.9257  0.8135 -0.4266
  733MOL0     C 1036   4.299   4.012  10.102  0.3712  0.1709  0.2687
  733MOL0     C 1037   4.185   3.971  10.201  0.3937 -0.5977  0.5341
  733MOL0     C 1038   4.217   4.030  10.335 -0.4404  0.4381  0.2596
  733MOL0     C 1039   4.098   4.003  10.421 -1.1524 -0.3464  1.0489
  733MOL0     O 1040   4.127   4.084  10.548  0.0674 -0.0461  0.4364
  733MOL0     C 1041   4.053   4.068  10.657  1.2820  0.3339 -0.6946
  733MOL0     C 1042   3.972   3.957  10.682 -0.5218  0.2045  0.1828
  733MOL0     C 1043   3.883   3.942  10.796 -0.2767 -0.7256 -0.1428
  733MOL0     C 1044   3.775   3.823  10.790  0.6612 -0.3057 -0.4085
  733MOL0     C 1045   3.893   4.037  10.893  0.3907 -0.5080 -0.6322
  733MOL0     C 1046   3.820   4.033  11.027 -0.6317  0.1443 -0.0480
  733MOL0     O 1047   3.876   4.104  11.133 -0.8263  0.6806  0.2758
  733MOL0     C 1048   3.853   4.067  11.261  0.7442 -0.2166 -0.6014
  733MOL0     C 1049   3.878   3.947  11.312 -0.4677  0.4947 -0.2264
  733MOL0     C 1050   3.862   3.914  11.447  0.3773  0.0091 -0.6567
  733MOL0     C 1051   3.823   4.013  11.532  0.2528 -0.3471 -0.5881
  733MOL0     O 1052   3.787   3.986  11.660  0.4483  0.5673  0.1819
  733MOL0     C 1053   3.901   3.990  11.744 -0.1897  0.0731 -0.3474
  733MOL0     C 1054   3.869   3.999  11.894 -0.8944  0.5643  0.6821
  733MOL0     C 1055   3.774   4.111  11.923  0.0812  0.0057 -0.1376
  733MOL0     C 1056   3.781   4.147  12.074 -0.1161 -0.1083  0.1166
  733MOL0     C 1057   3.675   4.255  12.092 -1.2265  0.8545 -0.3858
  733MOL0     C 1058   3.662   4.289  12.246  0.3632  0.3026 -1.1189
  733MOL0     C 1059   3.785   4.353  12.298 -0.0715 -0.1869 -1.0124
  733MOL0     C 1060   3.766   4.410  12.446  0.5590 -0.4782  0.3324
  733MOL0    Cl 1061   3.918   4.500  12.504  0.2673  0.1232  0.4169
  733MOL0     C 1062   3.811   4.144  11.492 -0.0549 -0.2568  0.3523
  733MOL0     C 1063   3.821   4.171  11.355  0.7689  0.0358 -0.4244
  733MOL0     O 1064   3.721   3.964  11.034 -0.5450 -0.4021 -0.2939
  733MOL0     C 1065   4.003   4.124  10.893 -0.9152 -0.4099  0.2108
  733MOL0     C 1066   4.062   4.146  10.772  0.0032 -0.3166  0.1507
  733MOL0     N 1067   4.317   4.051   9.852  0.3696  0.1802  0.4300
  733MOL0     N 1068   4.294   3.998   9.739 -0.2895  0.0872 -0.3486
  733MOL0     C 1069   4.636   4.104  10.022 -0.3262 -0.1825 -0.5542
  733MOL0     C 1070   4.606   4.148  10.149 -0.6305  0.3722 -1.0045
  733MOL0     C 1071   4.522   4.168  10.601 -0.2096 -0.5593 -0.0192
  733MOL0     C 1072   4.405   4.254  10.585  0.1904  0.3235  0.2452
  733MOL0     C 1073   4.374   4.359  10.663  0.0430  0.1013 -0.1648
  733MOL0     C 1074   4.440   4.353  10.784 -0.3766 -0.4377 -0.2510
  733MOL0     O 1075   4.406   4.450  10.881 -0.2238  0.2117 -0.6693
  733MOL0     C 1076   4.272   4.509  10.907 -0.1474 -0.2705 -0.2138
  733MOL0     C 1077   4.253   4.546  11.046 -0.3448  1.2538 -0.9240
  733MOL0     C 1078   4.132   4.637  11.068  0.2211  0.5248 -0.0096
  733MOL0     C 1079   4.069   4.605  11.209 -1.3020  0.3139 -0.1356
  733MOL0     C 1080   3.938   4.653  11.227 -0.2682  0.1776 -0.4101
  733MOL0     C 1081   3.821   4.697  11.237  0.4589 -0.5035 -0.3185
  733MOL0     C 1082   4.541   4.264  10.816 -1.1737 -0.2016 -0.6203
  733MOL0     C 1083   4.589   4.173  10.721 -0.6774 -0.2027 -0.7886
  733MOL0     C 1084   4.707   4.085  10.751  1.1850 -0.3149 -0.2572
  733MOL0     H 1085   4.700   3.868  10.319  0.2872  0.6240 -2.1711
  733MOL0     H 1086   4.770   3.798  10.121  1.4743  0.5685  1.6780
  733MOL0     H 1087   4.727   3.739   9.912 -0.6689 -1.2460 -2.7804
  733MOL0     H 1088   4.896   3.796   9.907 -0.3638 -0.9200  0.5834
  733MOL0     H 1089   4.869   3.864   9.676 -0.1297  2.0827  0.6734
  733MOL0     H 1090   4.855   3.694   9.685  2.0013  2.5043 -1.1453
  733MOL0     H 1091   4.586   3.839   9.685 -0.4353  0.7749 -1.4040
  733MOL0     H 1092   4.669   3.875   9.545 -1.1645  1.0747 -0.4791
  733MOL0     H 1093   4.711   3.634   9.498 -0.8069 -1.6888 -0.0313
  733MOL0     H 1094   4.633   3.591   9.647  2.2134  0.3993  0.1914
  733MOL0     H 1095   4.461   3.571   9.454 -0.9751  1.4471 -2.3901
  733MOL0     H 1096   4.532   3.706   9.373 -2.1501  4.8199  0.3728
  733MOL0     H 1097   4.407   3.854   9.545 -0.8734  0.4034  1.9335
  733MOL0     H 1098   4.307   3.768   9.448  2.5668  1.0213 -2.6750
  733MOL0     H 1099   4.380   3.676   9.736 -0.2500  0.7246 -0.5364
  733MOL0     H 1100   4.271   3.588   9.633  0.8344  0.2371  2.2787
  733MOL0     H 1101   4.140   3.785   9.599  2.2908 -2.9269 -1.3985
  733MOL0     H 1102   4.133   3.693   9.749 -0.1138  0.4168  1.1006
  733MOL0     H 1103   4.171   3.796   9.975  3.5441 -1.2644  1.4662
  733MOL0     H 1104   4.306   4.120  10.113 -2.5482  0.4026  0.8879
  733MOL0     H 1105   4.388   3.956  10.130  2.7038  2.4794 -2.0261
  733MOL0     H 1106   4.090   4.016  10.169 -0.3170 -0.6964  2.4105
  733MOL0     H 1107   4.147   3.869  10.190 -1.1540  0.2015 -4.0320
  733MOL0     H 1108   4.310   3.989  10.374 -0.2089  2.5320  2.1098
  733MOL0     H 1109   4.240   4.137  10.334  2.5026 -0.0586  1.9865
  733MOL0     H 1110   4.001   4.034  10.380 -1.1916 -2.8376 -1.0151
  733MOL0     H 1111   4.078   3.895  10.426  0.1674 -0.7755 -1.3737
  733MOL0     H 1112   3.953   3.883  10.605 -0.9491 -0.3216  0.7854
  733MOL0     H 1113   3.803   3.751  10.712 -0.5586  0.2429 -1.3863
  733MOL0     H 1114   3.678   3.862  10.759  2.1399  3.5226 -0.7125
  733MOL0     H 1115   3.765   3.766  10.883 -2.9913  0.0820 -0.4358
  733MOL0     H 1116   3.894   3.861  11.249 -5.7059 -1.8381  1.0513
  733MOL0     H 1117   3.878   3.814  11.488 -0.1551  0.0202 -0.4155
  733MOL0     H 1118   3.969   3.910  11.711 -0.5702 -0.2493 -0.3570
  733MOL0     H 1119   3.950   4.087  11.735  1.7013 -0.5602  2.0389
  733MOL0     H 1120   3.826   3.904  11.925 -0.2850 -0.1678 -0.6325
  733MOL0     H 1121   3.969   4.016  11.933 -0.7399 -0.2517  0.6532
  733MOL0     H 1122   3.671   4.087  11.894 -0.4090  0.4798  1.1652
  733MOL0     H 1123   3.807   4.189  11.854 -1.2557  1.8429  1.2073
  733MOL0     H 1124   3.882   4.186  12.090  0.6845 -1.6529 -0.9274
  733MOL0     H 1125   3.767   4.052  12.127  1.9018 -1.0019 -0.8450
  733MOL0     H 1126   3.708   4.346  12.041  1.3322  0.5502  0.5280
  733MOL0     H 1127   3.584   4.217  12.045 -0.4566  1.0139 -2.0625
  733MOL0     H 1128   3.625   4.199  12.295  1.9920 -0.7702 -1.7597
  733MOL0     H 1129   3.588   4.368  12.261 -1.9062 -2.0705  1.0453
  733MOL0     H 1130   3.800   4.435  12.227 -3.5362  0.6056 -1.0463
  733MOL0     H 1131   3.861   4.275  12.300 -1.4162 -1.6016  2.2877
  733MOL0     H 1132   3.721   4.329  12.502 -0.3571 -0.9496 -1.0387
  733MOL0     H 1133   3.682   4.479  12.440  0.9794  0.1407  1.2394
  733MOL0     H 1134   3.783   4.226  11.557 -0.9645  1.0215 -1.5776
  733MOL0     H 1135   3.798   4.273  11.326 -3.6605 -0.4683  0.6178
  733MOL0     H 1136   4.043   4.187  10.972  0.4300 -3.1690  1.9098
  733MOL0     H 1137   4.131   4.230  10.764 -1.4318  1.0548  1.5395
  733MOL0     H 1138   4.620   4.164   9.934  1.2997 -0.6425 -1.2077
  733MOL0     H 1139   4.559   4.241  10.180  0.5085  2.4084 -4.7912
  733MOL0     H 1140   4.359   4.235  10.489  4.1069 -3.6019 -1.2024
  733MOL0     H 1141   4.285   4.414  10.633 -0.4436  0.0014  1.0224
  733MOL0     H 1142   4.281   4.602  10.850  1.2268 -0.0642  0.2939
  733MOL0     H 1143   4.184   4.450  10.880 -1.0399  0.6213  0.6916
  733MOL0     H 1144   4.342   4.596  11.085 -1.2174  1.6517  0.6205
  733MOL0     H 1145   4.247   4.455  11.107 -0.6783  0.0916 -2.6252
  733MOL0     H 1146   4.149   4.743  11.047 -0.6097  0.6947  0.1629
  733MOL0     H 1147   4.058   4.596  10.998  2.4701 -1.2725 -1.5018
  733MOL0     H 1148   4.135   4.651  11.282  0.1749  2.0401 -2.3959
  733MOL0     H 1149   4.061   4.496  11.215 -2.7571  0.4558  1.0223
  733MOL0     H 1150   3.719   4.729  11.238  0.9127  1.1261 -1.2946
  733MOL0     H 1151   4.585   4.259  10.916 -0.8110  1.1321 -0.6997
  733MOL0     H 1152   4.763   4.072  10.658  3.1991  0.7570  0.7507
  733MOL0     H 1153   4.787   4.137  10.804  2.4076 -1.1524 -1.1991
  733MOL0     H 1154   4.676   3.985  10.784 -0.2029  0.3977  0.6602
  734MOL0     O 1155   4.424   2.987   3.783  0.4760 -0.4749 -0.0121
  734MOL0     C 1156   4.491   3.067   3.721  0.7153 -0.7321  0.9096
  734MOL0     O 1157   4.520   3.197   3.758  0.6631  0.2440  0.0144
  734MOL0     C 1158   4.439   3.261   3.850 -1.1472 -0.3060 -0.1662
  734MOL0     C 1159   4.299   3.271   3.845 -0.6546  1.3204 -0.9826
  734MOL0     C 1160   4.233   3.337   3.950  0.3652 -1.5233 -0.7975
  734MOL0     C 1161   4.305   3.400   4.053 -0.3251 -0.0157  0.0661
  734MOL0     O 1162   4.250   3.449   4.165  0.7486 -0.4469  0.7503
  734MOL0     C 1163   4.134   3.528   4.151 -0.4121 -0.4757 -0.9380
  734MOL0     C 1164   4.171   3.641   4.064  0.5213  0.0650  0.1724
  734MOL0     C 1165   4.044   3.740   4.057 -1.0997 -0.3856  0.5852
  734MOL0     C 1166   3.987   3.764   3.912  1.3561  0.2129 -0.1144
  734MOL0     C 1167   3.852   3.849   3.908  0.1173 -0.0562  0.6034
  734MOL0     C 1168   3.744   3.765   3.985 -0.6763 -0.7128  0.4134
  734MOL0     C 1169   3.609   3.840   3.965 -0.2148  0.8700  0.6883
  734MOL0     C 1170   3.492   3.762   4.020  0.0450  0.2110  0.1222
  734MOL0     N 1171   3.439   3.657   3.922  0.0483 -0.0445 -0.4266
  734MOL0     C 1172   3.379   3.685   3.800  0.3915  0.2310 -0.3011
  734MOL0     C 1173   3.332   3.562   3.762  0.1803 -0.6575  1.0636
  734MOL0     C 1174   3.264   3.550   3.630  0.1789 -0.7874  0.2357
  734MOL0     C 1175   3.199   3.409   3.599  0.3053 -0.2989  0.1861
  734MOL0     C 1176   3.286   3.307   3.546 -0.9978  0.3215  0.2989
  734MOL0     C 1177   3.336   3.318   3.398  0.0809 -0.8769  0.5373
  734MOL0     O 1178   3.407   3.192   3.343  0.2166  0.2206 -0.5874
  734MOL0     C 1179   3.328   3.086   3.304  1.1995 -0.0255 -0.2445
  734MOL0     C 1180   3.195   3.063   3.322  0.2004 -0.7296 -0.4850
  734MOL0     C 1181   3.132   2.969   3.245  0.2408  0.8112  1.0597
  734MOL0     C 1182   2.981   2.962   3.258 -0.5926  0.0179  0.4676
  734MOL0     C 1183   3.195   2.861   3.180  0.8204  0.7761 -0.3411
  734MOL0     C 1184   3.141   2.738   3.115  0.0121  0.7158  0.6815
  734MOL0     O 1185   3.239   2.652   3.080  0.8401  0.9539  0.7529
  734MOL0     C 1186   3.204   2.548   2.993 -0.1438 -0.0774 -0.0924
  734MOL0     C 1187   3.219   2.418   3.028 -0.9323 -0.3799 -0.0253
  734MOL0     C 1188   3.180   2.310   2.953 -0.6333 -0.6166  0.7434
  734MOL0     C 1189   3.141   2.333   2.824 -0.2140 -0.2183  0.2754
  734MOL0     O 1190   3.104   2.224   2.755  0.7018  0.2951  0.4293
  734MOL0     C 1191   3.070   2.241   2.620 -0.5902  0.6919 -0.3646
  734MOL0     C 1192   2.998   2.111   2.577 -0.3984 -0.4635 -0.2571
  734MOL0     C 1193   2.870   2.082   2.675 -0.3083  0.3570  0.0937
  734MOL0     C 1194   2.781   1.979   2.611  0.8787 -0.6561  0.4580
  734MOL0     C 1195   2.649   1.952   2.678  0.2870  0.0868  0.0100
  734MOL0     C 1196   2.545   1.860   2.596 -0.7274  0.2091  0.6493
  734MOL0     C 1197   2.437   1.802   2.692  0.4309 -0.2160  0.0472
  734MOL0     C 1198   2.338   1.714   2.618 -0.7592  0.2873 -0.3588
  734MOL0    Cl 1199   2.414   1.595   2.496  0.3539  0.2464  0.4955
  734MOL0     C 1200   3.124   2.466   2.775 -0.5661  0.2679  0.0058
  734MOL0     C 1201   3.161   2.569   2.862  0.7325  0.1569  0.2429
  734MOL0     O 1202   3.017   2.726   3.100  0.2196  0.1940  0.3494
  734MOL0     C 1203   3.331   2.870   3.171  0.4229  0.1960 -0.7967
  734MOL0     C 1204   3.388   2.983   3.228 -0.3791 -0.4414  0.0514
  734MOL0     N 1205   3.380   3.458   3.834  0.1829 -0.2446 -0.4456
  734MOL0     N 1206   3.446   3.520   3.926 -0.9155 -0.3294  0.4431
  734MOL0     C 1207   4.443   3.390   4.054  0.2249 -0.0602 -0.4930
  734MOL0     C 1208   4.506   3.323   3.952 -0.2603  0.0347 -0.4510
  734MOL0     C 1209   4.556   3.001   3.605  0.4239  0.2221  0.1070
  734MOL0     C 1210   4.483   2.908   3.534  0.1832  0.0678  1.2510
  734MOL0     C 1211   4.537   2.832   3.435 -0.2722 -0.6176 -0.7540
  734MOL0     C 1212   4.671   2.854   3.378  0.8811  0.5036 -0.4756
  734MOL0     O 1213   4.746   2.776   3.298 -0.0520 -0.4516  0.1741
  734MOL0     C 1214   4.712   2.635   3.271 -0.2856 -0.8841  0.7262
  734MOL0     C 1215   4.740   2.551   3.403 -0.7273 -0.0169  0.4145
  734MOL0     C 1216   4.887   2.573   3.443 -0.2576  0.4431  0.5855
  734MOL0     C 1217   4.927   2.555   3.594 -0.1560 -0.6554  0.5757
  734MOL0     C 1218   4.927   2.424   3.645  0.1941 -0.3744 -0.2857
  734MOL0     C 1219   4.918   2.325   3.710 -0.4473 -0.6350  0.6429
  734MOL0     C 1220   4.742   2.944   3.455 -0.7283 -0.8046 -0.0283
  734MOL0     C 1221   4.686   3.024   3.557  0.0997  0.4164 -0.4915
  734MOL0     C 1222   4.782   3.091   3.640 -0.7041  0.3380 -0.9108
  734MOL0     H 1223   4.250   3.207   3.772  0.9109  1.2158 -1.9839
  734MOL0     H 1224   4.124   3.339   3.956  0.3477  3.0766  1.9737
  734MOL0     H 1225   4.085   3.566   4.242  0.8717  2.1467 -1.2351
  734MOL0     H 1226   4.062   3.459   4.106 -0.6747 -1.0119  0.2658
  734MOL0     H 1227   4.251   3.698   4.113  1.8174 -1.4800 -0.0828
  734MOL0     H 1228   4.197   3.614   3.961  0.4214  0.2044  0.1097
  734MOL0     H 1229   3.960   3.696   4.111 -1.2717 -0.0970  0.5535
  734MOL0     H 1230   4.070   3.830   4.113 -1.3016 -0.8736  1.4692
  734MOL0     H 1231   4.067   3.810   3.855  1.5928  0.2276  0.2238
  734MOL0     H 1232   3.965   3.671   3.859  1.1342  1.6874 -2.7503
  734MOL0     H 1233   3.813   3.842   3.806  0.3070 -0.3837  0.5519
  734MOL0     H 1234   3.844   3.955   3.934 -2.0719  0.8286 -3.0535
  734MOL0     H 1235   3.740   3.666   3.939 -0.1924 -0.1361 -0.9248
  734MOL0     H 1236   3.766   3.751   4.091  1.8750 -0.7177 -0.0358
  734MOL0     H 1237   3.591   3.850   3.858 -1.5636  0.4350  0.8497
  734MOL0     H 1238   3.620   3.939   4.009  0.1189 -0.0454  2.7845
  734MOL0     H 1239   3.514   3.699   4.107 -1.6987 -1.2330 -0.4311
  734MOL0     H 1240   3.416   3.837   4.043 -1.9629 -0.4112 -3.6620
  734MOL0     H 1241   3.370   3.778   3.745 -2.6129 -0.9154 -1.9558
  734MOL0     H 1242   3.331   3.592   3.555  1.6237 -1.6586  0.9838
  734MOL0     H 1243   3.191   3.631   3.636 -1.8485 -2.5434  0.5806
  734MOL0     H 1244   3.174   3.366   3.696  3.4064 -0.6085  0.9349
  734MOL0     H 1245   3.108   3.415   3.537 -0.7642 -1.3476  1.5968
  734MOL0     H 1246   3.381   3.306   3.601 -0.2708  1.7729 -0.8420
  734MOL0     H 1247   3.234   3.211   3.547  1.8574 -1.3322  0.7586
  734MOL0     H 1248   3.246   3.340   3.339 -1.4295 -3.1347  1.8495
  734MOL0     H 1249   3.406   3.399   3.376  1.7047 -2.4085 -0.2783
  734MOL0     H 1250   3.134   3.133   3.378 -0.1939 -1.0880 -0.4595
  734MOL0     H 1251   2.933   2.942   3.162 -1.4617 -2.0261  1.2675
  734MOL0     H 1252   2.949   3.056   3.306  1.1838  1.0859 -0.3779
  734MOL0     H 1253   2.952   2.886   3.332  0.1487  1.0909  1.9019
  734MOL0     H 1254   3.250   2.410   3.132  1.2596  0.0816 -0.6127
  734MOL0     H 1255   3.189   2.214   3.002 -2.9027  0.0666  2.7215
  734MOL0     H 1256   2.996   2.321   2.611 -2.2024 -0.4757  1.6335
  734MOL0     H 1257   3.162   2.252   2.561 -0.0990 -2.9144 -0.4955
  734MOL0     H 1258   2.963   2.117   2.473 -1.1942 -4.5333 -0.4198
  734MOL0     H 1259   3.066   2.025   2.580 -0.5151 -0.5771  3.4991
  734MOL0     H 1260   2.807   2.170   2.679 -0.8992 -0.0662  0.1833
  734MOL0     H 1261   2.899   2.049   2.776 -1.6796 -0.0185  0.3813
  734MOL0     H 1262   2.831   1.883   2.597  3.4216  0.4299  1.3436
  734MOL0     H 1263   2.766   2.014   2.508 -0.8105  2.6416  1.6819
  734MOL0     H 1264   2.667   1.907   2.776  0.0944  3.4785  1.7437
  734MOL0     H 1265   2.595   2.045   2.700  0.0679  0.0327 -0.2882
  734MOL0     H 1266   2.598   1.775   2.553 -4.2981 -1.2546 -1.2609
  734MOL0     H 1267   2.503   1.920   2.515 -3.3385  1.6300  2.8995
  734MOL0     H 1268   2.396   1.885   2.749  1.2701  0.2453 -0.0031
  734MOL0     H 1269   2.484   1.735   2.765  2.2935  2.3821  1.3689
  734MOL0     H 1270   2.271   1.784   2.567 -0.0916  2.0000  1.0257
  734MOL0     H 1271   2.277   1.659   2.690 -1.3749 -0.5246 -1.4651
  734MOL0     H 1272   3.084   2.494   2.678 -0.6758 -0.5443 -0.1881
  734MOL0     H 1273   3.137   2.667   2.821 -0.9070 -0.5494 -0.5639
  734MOL0     H 1274   3.397   2.796   3.128  1.4418  1.6646 -1.8372
  734MOL0     H 1275   3.494   2.994   3.207  0.1025 -2.1492  1.3740
  734MOL0     H 1276   4.486   3.455   4.129  1.0619  0.4457 -1.3863
  734MOL0     H 1277   4.614   3.331   3.940  0.3178 -1.3430  2.7377
  734MOL0     H 1278   4.376   2.899   3.555  0.1809  0.1122  1.2566
  734MOL0     H 1279   4.472   2.752   3.400 -2.4732  0.7351  0.0251
  734MOL0     H 1280   4.609   2.627   3.234  0.2241  1.6656 -1.6444
  734MOL0     H 1281   4.775   2.610   3.185 -2.0822 -0.6380 -0.7169
  734MOL0     H 1282   4.718   2.454   3.357 -3.0568  1.7012 -2.4573
  734MOL0     H 1283   4.667   2.579   3.480 -3.3787  1.8268 -2.5419
  734MOL0     H 1284   4.948   2.508   3.380 -3.0302 -0.7863 -1.0331
  734MOL0     H 1285   4.913   2.678   3.427  0.4706  0.4137  1.4987
  734MOL0     H 1286   4.859   2.611   3.659  1.0940  0.9575  0.5530
  734MOL0     H 1287   5.025   2.598   3.613  0.2193 -1.4536  0.4932
  734MOL0     H 1288   4.904   2.227   3.751 -1.3895 -0.5607  0.5272
  734MOL0     H 1289   4.849   2.949   3.437 -0.5001  0.8517  1.4482
  734MOL0     H 1290   4.748   3.192   3.665 -1.6289 -0.0581 -0.5435
  734MOL0     H 1291   4.788   3.028   3.729  0.9930  2.3509  0.5138
  734MOL0     H 1292   4.885   3.094   3.603  0.5725  0.4108  2.2845
  735MOL0     O 1293   6.348   1.764   2.736  0.0203 -0.7077  0.2371
  735MOL0     C 1294   6.384   1.860   2.795 -0.2588  0.1307  0.3963
  735MOL0     O 1295   6.506   1.891   2.831 -0.4257 -0.3308 -0.9993
  735MOL0     C 1296   6.596   1.789   2.816 -0.9153  0.3226 -0.5132
  735MOL0     C 1297   6.639   1.706   2.930 -0.3468  0.0986 -0.3264
  735MOL0     C 1298   6.730   1.599   2.909  0.3915  0.7650  0.2019
  735MOL0     C 1299   6.791   1.566   2.789  0.1659 -1.1476  0.1210
  735MOL0     O 1300   6.862   1.455   2.769 -0.8008 -0.4746 -0.0412
  735MOL0     C 1301   6.873   1.405   2.633 -0.0236  0.9301 -0.0350
  735MOL0     C 1302   6.910   1.246   2.633  0.1654  0.8783 -0.1363
  735MOL0     C 1303   7.040   1.215   2.717  0.4777 -0.4118  0.4755
  735MOL0     C 1304   7.120   1.092   2.688  0.0696 -0.1910 -0.1462
  735MOL0     C 1305   7.258   1.106   2.747  0.0498  0.5242  0.0405
  735MOL0     C 1306   7.254   1.110   2.902 -0.5354  0.1338  0.0744
  735MOL0     C 1307   7.394   1.091   2.957 -0.6049  0.1370  0.6249
  735MOL0     C 1308   7.389   1.118   3.102  0.6482  0.2054 -0.1409
  735MOL0     N 1309   7.364   1.266   3.128 -0.8519  0.2666  0.7822
  735MOL0     C 1310   7.407   1.377   3.048  0.2323 -0.2359 -0.3358
  735MOL0     C 1311   7.347   1.485   3.106  0.0966 -0.6124 -0.1755
  735MOL0     C 1312   7.339   1.630   3.055  0.1554  0.0586  0.4658
  735MOL0     C 1313   7.232   1.638   2.952  0.5542  0.2246  0.2101
  735MOL0     C 1314   7.249   1.768   2.877  0.2180 -0.5718  0.5892
  735MOL0     C 1315   7.131   1.826   2.804 -0.7932  0.3139 -1.5678
  735MOL0     O 1316   7.077   1.749   2.701 -0.2390 -0.3577  0.2770
  735MOL0     C 1317   7.016   1.809   2.596 -0.2072 -0.3578 -0.8345
  735MOL0     C 1318   6.926   1.918   2.608 -0.4737  0.3090 -0.1377
  735MOL0     C 1319   6.860   1.976   2.493 -0.5088 -0.1256 -0.4965
  735MOL0     C 1320   6.790   2.100   2.514 -0.4061  0.0196 -0.0401
  735MOL0     C 1321   6.877   1.906   2.366  0.4880 -0.0645 -0.0727
  735MOL0     C 1322   6.824   1.954   2.232 -0.3045 -0.5090  0.6274
  735MOL0     O 1323   6.870   1.879   2.122  0.1068 -0.2613 -0.3407
  735MOL0     C 1324   6.817   1.895   1.994 -1.7044  0.0393 -0.3772
  735MOL0     C 1325   6.897   1.855   1.890  0.3519 -0.2743  0.1303
  735MOL0     C 1326   6.855   1.860   1.762  0.2102  0.2376 -1.0253
  735MOL0     C 1327   6.718   1.886   1.731  0.1686  0.2800 -0.6716
  735MOL0     O 1328   6.661   1.872   1.610  0.0742 -0.5810 -0.8135
  735MOL0     C 1329   6.739   1.914   1.499 -0.5422  0.0431  1.0515
  735MOL0     C 1330   6.647   1.956   1.385 -0.9055 -0.1376 -0.3347
  735MOL0     C 1331   6.574   2.093   1.422  0.2873 -0.1440 -0.6138
  735MOL0     C 1332   6.494   2.140   1.294 -0.3363 -0.5952 -0.9541
  735MOL0     C 1333   6.585   2.228   1.207 -0.5028  0.1841 -0.4809
  735MOL0     C 1334   6.507   2.295   1.094  0.0374  0.0297  0.2302
  735MOL0     C 1335   6.604   2.403   1.044  0.6917 -0.4030  0.5928
  735MOL0     C 1336   6.532   2.484   0.932 -0.4202 -0.7425 -0.3444
  735MOL0    Cl 1337   6.640   2.628   0.914 -0.0409  0.0607  0.0783
  735MOL0     C 1338   6.629   1.918   1.836 -0.1635  0.6231  0.1689
  735MOL0     C 1339   6.684   1.930   1.970  0.0952  0.0443  0.0513
  735MOL0     O 1340   6.774   2.062   2.217  0.6678 -0.4873 -0.7076
  735MOL0     C 1341   6.959   1.790   2.364 -0.3625  0.1556 -0.7789
  735MOL0     C 1342   7.033   1.749   2.470  0.8794 -0.2140 -0.5574
  735MOL0     N 1343   7.267   1.428   3.210 -0.0584 -0.3385  0.5772
  735MOL0     N 1344   7.290   1.305   3.234 -0.2907  0.2441 -0.3956
  735MOL0     C 1345   6.744   1.642   2.680  0.5575  0.1237  0.4907
  735MOL0     C 1346   6.659   1.751   2.692 -0.2218  0.3183 -0.0258
  735MOL0     C 1347   6.296   1.975   2.795  0.5535  0.1641 -0.0877
  735MOL0     C 1348   6.332   2.084   2.719  0.8473  0.0378 -0.8245
  735MOL0     C 1349   6.257   2.205   2.730 -0.0947 -0.3896  0.5677
  735MOL0     C 1350   6.132   2.207   2.802  0.1913  0.3375  0.2621
  735MOL0     O 1351   6.051   2.314   2.828 -0.0262  0.2370 -0.0085
  735MOL0     C 1352   6.087   2.436   2.780  0.4322 -0.7239 -0.0214
  735MOL0     C 1353   6.197   2.504   2.855 -0.7073  0.1939 -0.7195
  735MOL0     C 1354   6.200   2.661   2.832 -0.3808  0.6636  0.2476
  735MOL0     C 1355   6.321   2.719   2.902 -0.3153  0.1280 -0.1152
  735MOL0     C 1356   6.309   2.742   3.051  0.2397 -0.0889  0.6394
  735MOL0     C 1357   6.307   2.753   3.170  0.0829  0.4006 -0.3814
  735MOL0     C 1358   6.092   2.083   2.859 -0.2552 -0.5159 -0.6364
  735MOL0     C 1359   6.170   1.967   2.855  0.0356  0.7017  0.1172
  735MOL0     C 1360   6.109   1.841   2.939 -0.1184 -0.0428 -0.3318
  735MOL0     H 1361   6.606   1.741   3.027 -0.6666  0.5150 -0.5823
  735MOL0     H 1362   6.760   1.560   3.006 -0.2778  2.3188  1.0709
  735MOL0     H 1363   6.944   1.456   2.568 -0.2285 -3.1800 -4.0444
  735MOL0     H 1364   6.773   1.421   2.591 -0.7601  0.9171  1.6314
  735MOL0     H 1365   6.826   1.181   2.659  0.7016  0.0847 -0.3447
  735MOL0     H 1366   6.942   1.222   2.531  1.2148  1.7849 -0.0415
  735MOL0     H 1367   7.106   1.299   2.695  0.5358  0.3176  3.1477
  735MOL0     H 1368   7.014   1.220   2.823 -0.5928 -0.2766  0.2242
  735MOL0     H 1369   7.062   1.005   2.720 -0.2239  1.1953  3.6297
  735MOL0     H 1370   7.128   1.069   2.581  0.7474  0.2018 -0.1915
  735MOL0     H 1371   7.308   1.196   2.710 -0.9929  0.3044 -2.0476
  735MOL0     H 1372   7.316   1.026   2.700  0.7501  1.9329 -1.6101
  735MOL0     H 1373   7.224   1.212   2.928 -1.6412 -0.2436  0.3654
  735MOL0     H 1374   7.176   1.047   2.948 -0.6802 -0.4484 -0.9490
  735MOL0     H 1375   7.463   1.146   2.893 -2.3798  1.5125 -0.1923
  735MOL0     H 1376   7.411   0.985   2.935 -0.9162  0.1959  0.0862
  735MOL0     H 1377   7.321   1.053   3.158  0.6914  0.0449 -0.2752
  735MOL0     H 1378   7.492   1.095   3.131  0.5705  0.9745  0.8250
  735MOL0     H 1379   7.466   1.380   2.958  1.5387 -1.8199  0.4248
  735MOL0     H 1380   7.442   1.651   3.025 -0.4159  0.8316 -1.0727
  735MOL0     H 1381   7.315   1.698   3.137 -3.2165  1.4920 -1.5259
  735MOL0     H 1382   7.236   1.558   2.878  0.2963  2.1401 -1.9700
  735MOL0     H 1383   7.132   1.641   2.997  0.7408 -1.5711  0.8188
  735MOL0     H 1384   7.274   1.846   2.950 -2.1925  1.8109 -0.9501
  735MOL0     H 1385   7.333   1.763   2.808  0.8548 -0.0374  1.2982
  735MOL0     H 1386   7.044   1.833   2.870  0.3236  0.2487 -0.0455
  735MOL0     H 1387   7.160   1.926   2.771 -2.5201  1.0244 -1.0381
  735MOL0     H 1388   6.910   1.966   2.704 -1.5519  0.6296 -0.4700
  735MOL0     H 1389   6.747   2.101   2.615 -0.7713  2.9948 -0.1514
  735MOL0     H 1390   6.710   2.124   2.444  0.3055  2.2725 -0.1574
  735MOL0     H 1391   6.858   2.185   2.504  0.0542 -0.5198 -1.6722
  735MOL0     H 1392   6.999   1.830   1.918  0.7024  3.1109  2.5358
  735MOL0     H 1393   6.926   1.820   1.689  0.8246 -2.1993  0.7723
  735MOL0     H 1394   6.805   1.999   1.521  0.1855 -0.3082  0.2803
  735MOL0     H 1395   6.809   1.838   1.462 -1.3812  0.2043 -0.9808
  735MOL0     H 1396   6.702   1.977   1.292 -2.5481 -1.4634 -1.6692
  735MOL0     H 1397   6.582   1.870   1.366 -0.2079 -0.9454  0.8178
  735MOL0     H 1398   6.632   2.172   1.469 -0.0982 -0.0528 -0.2810
  735MOL0     H 1399   6.503   2.073   1.503 -1.4542  1.1009 -1.7627
  735MOL0     H 1400   6.408   2.199   1.327 -0.3317 -2.1551  2.2133
  735MOL0     H 1401   6.454   2.062   1.228 -2.4204  0.4634 -1.0378
  735MOL0     H 1402   6.639   2.297   1.273  0.4990  1.0999 -2.1723
  735MOL0     H 1403   6.661   2.162   1.164 -1.3398 -0.8473 -0.3988
  735MOL0     H 1404   6.411   2.344   1.113  0.1227  2.2595 -3.9095
  735MOL0     H 1405   6.493   2.214   1.022  0.1897  0.2145 -0.0078
  735MOL0     H 1406   6.703   2.372   1.009  1.5615  0.5163  2.1266
  735MOL0     H 1407   6.623   2.469   1.129  1.4340 -1.4265  1.2323
  735MOL0     H 1408   6.436   2.521   0.971  0.1572 -2.5336  3.1667
  735MOL0     H 1409   6.526   2.430   0.837 -0.0114  3.0500 -2.7490
  735MOL0     H 1410   6.530   1.957   1.814  0.0220  0.4644 -1.0264
  735MOL0     H 1411   6.609   1.958   2.044 -3.6167 -3.2540 -2.0846
  735MOL0     H 1412   6.960   1.726   2.276  1.4625 -1.7875  0.5490
  735MOL0     H 1413   7.081   1.653   2.457 -2.0278 -1.8595  0.1470
  735MOL0     H 1414   6.768   1.636   2.574 -0.8380 -1.1368  0.2005
  735MOL0     H 1415   6.625   1.812   2.608 -0.7593 -0.0571 -0.0889
  735MOL0     H 1416   6.422   2.077   2.657  1.4856  2.7021 -0.3280
  735MOL0     H 1417   6.295   2.288   2.671 -0.6886 -0.5129  0.0004
  735MOL0     H 1418   6.105   2.436   2.672 -2.1135 -0.0872 -0.5126
  735MOL0     H 1419   5.999   2.500   2.785  1.6338  0.9752  0.3777
  735MOL0     H 1420   6.297   2.460   2.854  0.2154  2.0667  0.9026
  735MOL0     H 1421   6.174   2.485   2.960  2.9060  1.4302  0.4603
  735MOL0     H 1422   6.230   2.689   2.730 -0.9103  0.4788  0.0414
  735MOL0     H 1423   6.099   2.700   2.846  0.3998  1.7540  4.0057
  735MOL0     H 1424   6.338   2.825   2.880  0.3032  0.6471  2.4891
  735MOL0     H 1425   6.420   2.682   2.875 -0.0199  2.3366 -2.4788
  735MOL0     H 1426   6.312   2.757   3.277  1.6223  0.9144 -0.4534
  735MOL0     H 1427   5.999   2.094   2.914 -0.3331 -3.7281  0.1012
  735MOL0     H 1428   6.141   1.745   2.898 -1.5196 -0.9232  0.5359
  735MOL0     H 1429   6.134   1.852   3.045 -0.7808  1.7434 -0.3253
  735MOL0     H 1430   5.999   1.843   2.939 -0.1457 -1.2310 -0.0887
  736MOL0     O 1431   6.859   6.813  10.492  0.4591  0.4099 -0.1504
  736MOL0     C 1432   6.825   6.834  10.611  0.7480  0.4664  0.4912
  736MOL0     O 1433   6.705   6.792  10.663  1.1302  0.0770 -0.5825
  736MOL0     C 1434   6.611   6.726  10.588  0.6157  0.5594  0.5877
  736MOL0     C 1435   6.483   6.788  10.556 -0.1268  0.3475 -1.4788
  736MOL0     C 1436   6.399   6.726  10.461  0.1458  0.7249  0.1474
  736MOL0     C 1437   6.435   6.607  10.408  0.2112  0.0893  0.2646
  736MOL0     O 1438   6.338   6.551  10.319 -0.3549 -0.4754  0.6771
  736MOL0     C 1439   6.381   6.445  10.232  0.6803  0.4776  0.1501
  736MOL0     C 1440   6.250   6.389  10.185  0.1817 -0.2085 -0.0930
  736MOL0     C 1441   6.270   6.282  10.083  1.0495  0.5191 -0.5486
  736MOL0     C 1442   6.154   6.195  10.058 -0.0449 -0.2732  0.5722
  736MOL0     C 1443   6.154   6.125   9.927 -0.1441 -0.5099 -0.4360
  736MOL0     C 1444   6.022   6.028   9.943 -0.1732 -0.2442 -0.2768
  736MOL0     C 1445   5.963   5.966   9.819  0.2292 -0.4700  0.1953
  736MOL0     C 1446   5.804   5.973   9.823 -1.1961 -0.0786  0.2954
  736MOL0     N 1447   5.740   5.913   9.708  0.0930  1.1710 -0.3974
  736MOL0     C 1448   5.771   5.944   9.582  0.8224 -0.4133 -0.2080
  736MOL0     C 1449   5.703   5.860   9.500 -0.0789 -0.2306  0.0471
  736MOL0     C 1450   5.685   5.862   9.351  0.0463 -1.2571  0.1460
  736MOL0     C 1451   5.817   5.858   9.283 -0.6685 -1.2016  0.6009
  736MOL0     C 1452   5.860   6.001   9.231 -0.3298  0.8652 -0.1654
  736MOL0     C 1453   5.954   5.990   9.104  0.2659  0.6737 -0.3645
  736MOL0     O 1454   6.049   6.094   9.095 -0.0403  0.6239  0.4616
  736MOL0     C 1455   6.155   6.110   9.005 -0.0539 -0.4130  0.3726
  736MOL0     C 1456   6.175   6.022   8.903 -0.6058  0.2587  0.8949
  736MOL0     C 1457   6.277   6.039   8.811 -0.2602 -0.1985  0.2044
  736MOL0     C 1458   6.273   5.936   8.698 -0.4616  0.2346 -0.6612
  736MOL0     C 1459   6.370   6.151   8.813  0.0356 -0.3929 -0.5052
  736MOL0     C 1460   6.496   6.160   8.739  0.6921  0.2927 -0.0934
  736MOL0     O 1461   6.573   6.040   8.761  0.3950 -0.1476 -0.0205
  736MOL0     C 1462   6.706   6.017   8.723 -0.0724 -0.6203  0.1943
  736MOL0     C 1463   6.809   6.117   8.743  0.2624  0.3492  0.1043
  736MOL0     C 1464   6.937   6.094   8.717  0.0826  0.7646  0.0165
  736MOL0     C 1465   6.984   5.972   8.662 -1.0680 -0.4348  0.2207
  736MOL0     O 1466   7.118   5.953   8.646 -0.5441  0.7479  0.3607
  736MOL0     C 1467   7.155   5.821   8.594  0.4269  0.2164 -0.5667
  736MOL0     C 1468   7.312   5.821   8.593  0.4772 -0.4250  0.4853
  736MOL0     C 1469   7.374   5.831   8.733  0.1269  1.2423  0.3881
  736MOL0     C 1470   7.521   5.792   8.727 -0.0021  0.8839  0.5767
  736MOL0     C 1471   7.615   5.898   8.666  0.0456  0.0795 -0.1322
  736MOL0     C 1472   7.628   6.029   8.755  0.0163 -0.1564 -0.1024
  736MOL0     C 1473   7.704   6.149   8.701 -0.6925 -0.5039  0.9923
  736MOL0     C 1474   7.860   6.143   8.682  0.3585  0.1188  0.5056
  736MOL0    Cl 1475   7.931   6.116   8.836 -0.3621 -0.3708  0.1574
  736MOL0     C 1476   6.886   5.869   8.645 -1.2269 -0.5976  0.2240
  736MOL0     C 1477   6.748   5.888   8.678  0.6084  0.8461 -1.0146
  736MOL0     O 1478   6.534   6.260   8.680  0.0626  0.6965  0.3728
  736MOL0     C 1479   6.350   6.242   8.923  0.3495  0.2711  0.5151
  736MOL0     C 1480   6.244   6.226   9.012 -0.2763  0.3250 -0.3795
  736MOL0     N 1481   5.631   5.774   9.583 -0.1361  0.4474 -0.7226
  736MOL0     N 1482   5.664   5.799   9.711 -0.1410  1.0510  0.4690
  736MOL0     C 1483   6.553   6.541  10.454 -0.6608  0.1693 -0.0671
  736MOL0     C 1484   6.647   6.606  10.535 -0.2119 -0.2144 -0.3904
  736MOL0     C 1485   6.917   6.904  10.694  0.4219 -0.3034  0.2342
  736MOL0     C 1486   6.852   6.944  10.813  0.6125  1.0878 -0.3367
  736MOL0     C 1487   6.926   7.008  10.919 -0.1980 -0.4854 -0.2822
  736MOL0     C 1488   7.063   7.027  10.898  0.5927  0.8702 -0.3070
  736MOL0     O 1489   7.145   7.088  10.984 -0.0667  0.0204  0.4575
  736MOL0     C 1490   7.107   7.114  11.116  0.0209  0.4740 -0.0813
  736MOL0     C 1491   7.230   7.108  11.206 -0.9667  0.4511 -0.4566
  736MOL0     C 1492   7.271   6.957  11.205  0.3569 -0.5917  0.7784
  736MOL0     C 1493   7.379   6.929  11.306  0.4605  0.6502 -0.9682
  736MOL0     C 1494   7.316   6.890  11.437  0.2385  0.3065 -0.2606
  736MOL0     C 1495   7.277   6.861  11.553 -0.5927 -0.2108 -0.2955
  736MOL0     C 1496   7.127   6.987  10.783  0.2793  0.3578  0.2630
  736MOL0     C 1497   7.056   6.929  10.674 -0.4316  0.4726  0.6271
  736MOL0     C 1498   7.130   6.877  10.553  0.4174 -0.0139  0.4841
  736MOL0     H 1499   6.471   6.888  10.597  1.6843 -0.1145  0.3282
  736MOL0     H 1500   6.297   6.760  10.445 -0.5998 -2.1220 -1.9966
  736MOL0     H 1501   6.445   6.372  10.282 -3.3473 -2.3363  1.7832
  736MOL0     H 1502   6.431   6.478  10.141  0.6199 -1.1392 -0.5039
  736MOL0     H 1503   6.205   6.340  10.272  1.2205 -1.1149 -0.0486
  736MOL0     H 1504   6.192   6.474  10.149  0.3442  0.6916  1.6741
  736MOL0     H 1505   6.285   6.328   9.985 -1.4894  1.5267 -0.5448
  736MOL0     H 1506   6.360   6.222  10.097  0.7843  0.8084  3.4817
  736MOL0     H 1507   6.144   6.123  10.140  0.2600  0.6785  1.4785
  736MOL0     H 1508   6.060   6.250  10.056 -0.5863 -1.1698 -1.8718
  736MOL0     H 1509   6.250   6.074   9.913  0.2264 -0.1034  0.5361
  736MOL0     H 1510   6.137   6.200   9.849  0.6122  0.9473  0.7468
  736MOL0     H 1511   6.038   5.938  10.004 -5.6359 -1.6808 -0.4568
  736MOL0     H 1512   5.945   6.088   9.990  0.5988  0.5568 -0.0096
  736MOL0     H 1513   5.997   5.863   9.808 -1.1327 -0.9922  0.7477
  736MOL0     H 1514   6.002   6.027   9.737 -2.9332  1.5144  0.0099
  736MOL0     H 1515   5.781   5.920   9.917  0.5844 -1.9567 -0.2670
  736MOL0     H 1516   5.780   6.080   9.822  1.0626  0.5185 -2.5991
  736MOL0     H 1517   5.829   6.031   9.553  0.2292 -0.0699 -0.3729
  736MOL0     H 1518   5.618   5.944   9.323  3.1293  2.2311  2.1044
  736MOL0     H 1519   5.627   5.772   9.326  1.3843 -1.4540 -2.7044
  736MOL0     H 1520   5.895   5.818   9.350  0.1234  0.3996  0.6973
  736MOL0     H 1521   5.810   5.799   9.191  3.2360  0.0997 -0.7494
  736MOL0     H 1522   5.770   6.061   9.217 -2.0962 -0.9466  2.4697
  736MOL0     H 1523   5.921   6.056   9.304 -0.2744  1.6377 -0.7784
  736MOL0     H 1524   5.990   5.890   9.129 -2.3531 -0.1720  0.4347
  736MOL0     H 1525   5.880   5.995   9.023 -0.0457  4.2060 -0.0279
  736MOL0     H 1526   6.113   5.934   8.891  0.1181 -0.0655 -0.7587
  736MOL0     H 1527   6.181   5.958   8.643 -0.4936 -0.4931 -0.9189
  736MOL0     H 1528   6.260   5.835   8.739  2.3895 -1.3287 -3.1439
  736MOL0     H 1529   6.363   5.949   8.636 -0.3384  1.9482 -0.1642
  736MOL0     H 1530   6.777   6.209   8.791 -0.9815 -0.8999  1.7325
  736MOL0     H 1531   7.008   6.175   8.727  0.1915  0.7094 -0.2917
  736MOL0     H 1532   7.128   5.747   8.671  0.7731  1.1360  0.4693
  736MOL0     H 1533   7.120   5.789   8.496  2.5416 -0.8835 -1.0155
  736MOL0     H 1534   7.338   5.728   8.542 -1.3002  1.5084 -4.7008
  736MOL0     H 1535   7.356   5.903   8.534 -0.4723 -0.9146 -0.9564
  736MOL0     H 1536   7.309   5.769   8.795 -1.6828  1.6955 -0.9779
  736MOL0     H 1537   7.360   5.936   8.762 -3.9745  1.0675 -0.3329
  736MOL0     H 1538   7.530   5.708   8.658 -2.7242 -0.5188  1.7600
  736MOL0     H 1539   7.547   5.764   8.830 -1.6139  0.1396  0.8145
  736MOL0     H 1540   7.711   5.847   8.653 -0.5568 -1.0980 -0.1532
  736MOL0     H 1541   7.580   5.922   8.565  0.8330  0.3444 -0.3417
  736MOL0     H 1542   7.664   5.998   8.854 -4.2571  1.6161  2.2846
  736MOL0     H 1543   7.527   6.067   8.774 -0.4701 -1.0993 -0.7178
  736MOL0     H 1544   7.686   6.219   8.784  0.0540  1.0822 -0.1388
  736MOL0     H 1545   7.655   6.186   8.611  2.3924 -1.6496 -1.3244
  736MOL0     H 1546   7.893   6.236   8.633 -3.2162  2.5466  2.2525
  736MOL0     H 1547   7.881   6.063   8.611  0.2233  1.7732 -1.5236
  736MOL0     H 1548   6.916   5.766   8.624 -1.5637 -0.0888 -3.4325
  736MOL0     H 1549   6.678   5.806   8.681 -0.3142  1.6538  0.0530
  736MOL0     H 1550   6.418   6.324   8.946  1.7881 -0.3838 -1.1148
  736MOL0     H 1551   6.230   6.295   9.095 -1.8466  1.0704 -1.2107
  736MOL0     H 1552   6.590   6.453  10.402 -0.0058  1.3911 -1.7421
  736MOL0     H 1553   6.746   6.563  10.546  0.7817  2.3512  2.0499
  736MOL0     H 1554   6.749   6.921  10.840  0.9420 -1.2757 -0.8174
  736MOL0     H 1555   6.876   7.041  11.009 -0.9502  1.9852 -1.5056
  736MOL0     H 1556   7.057   7.211  11.126 -1.3675 -0.0856 -1.2642
  736MOL0     H 1557   7.036   7.037  11.150  0.1356  0.2292 -0.3991
  736MOL0     H 1558   7.202   7.143  11.306 -1.6142  0.3841 -0.6120
  736MOL0     H 1559   7.308   7.178  11.175 -0.3568  0.0732  0.1759
  736MOL0     H 1560   7.182   6.895  11.214 -0.3575  0.5412  1.8129
  736MOL0     H 1561   7.321   6.963  11.107  0.0560  3.2748  0.6846
  736MOL0     H 1562   7.452   7.007  11.327  1.9521 -1.2053  1.2728
  736MOL0     H 1563   7.442   6.846  11.273  0.1657  0.4621 -1.0644
  736MOL0     H 1564   7.258   6.850  11.658 -0.5748 -0.0835 -0.2789
  736MOL0     H 1565   7.235   7.002  10.786  0.0263  2.3919  0.9082
  736MOL0     H 1566   7.116   6.944  10.467 -2.7996  0.6271  1.3818
  736MOL0     H 1567   7.238   6.871  10.572  0.7291 -1.5136 -1.4610
  736MOL0     H 1568   7.105   6.772  10.539  0.0328 -0.3003  2.8853
  737MOL0     O 1569   8.109  10.405   0.609 -0.0921 -1.3303  1.1549
  737MOL0     C 1570   8.033  10.489   0.566  0.7720  0.6059 -0.0584
  737MOL0     O 1571   7.898  10.483   0.585 -0.0460 -0.7017  0.0327
  737MOL0     C 1572   7.869  10.419   0.702  0.1827 -1.0954 -0.0258
  737MOL0     C 1573   7.866  10.277   0.704 -0.4689 -0.2182  0.5903
  737MOL0     C 1574   7.831  10.208   0.816  0.0980 -0.6348  1.4515
  737MOL0     C 1575   7.795  10.271   0.931  0.8549 -0.4101 -0.3541
  737MOL0     O 1576   7.777  10.206   1.045 -0.1031  0.5936 -1.1831
  737MOL0     C 1577   7.723  10.072   1.059 -0.2365 -0.3124  0.7860
  737MOL0     C 1578   7.580  10.072   1.123 -0.5065 -0.5325 -0.3896
  737MOL0     C 1579   7.490   9.954   1.090  0.1112  0.2496  0.2723
  737MOL0     C 1580   7.344   9.995   1.082  0.3157  0.6607 -0.3688
  737MOL0     C 1581   7.284   9.977   1.218  0.4200 -0.2751  0.3794
  737MOL0     C 1582   7.142  10.040   1.222 -0.1372  0.8222 -1.5990
  737MOL0     C 1583   7.088  10.019   1.366  0.4495  0.3351  0.8212
  737MOL0     C 1584   6.934  10.059   1.370 -0.7140  0.3822 -0.5143
  737MOL0     N 1585   6.877  10.074   1.502 -0.1298 -0.4377 -0.5672
  737MOL0     C 1586   6.880  10.185   1.578 -0.6450  0.4217  0.3568
  737MOL0     C 1587   6.843  10.151   1.700  0.0653  0.6132  0.1844
  737MOL0     C 1588   6.842  10.227   1.826  0.0126 -0.7757 -0.4177
  737MOL0     C 1589   6.717  10.321   1.842 -1.0839  0.0557  0.2457
  737MOL0     C 1590   6.707  10.412   1.712 -0.2263 -0.2189  0.0776
  737MOL0     C 1591   6.618  10.538   1.736 -0.3819  0.0491 -0.8495
  737MOL0     O 1592   6.526  10.504   1.845 -0.0837 -0.8510 -0.8750
  737MOL0     C 1593   6.453  10.610   1.896  0.0810  0.4604 -0.3228
  737MOL0     C 1594   6.364  10.595   2.004  0.1614 -0.0367 -0.2246
  737MOL0     C 1595   6.273  10.692   2.045  0.8344 -0.0219 -0.3897
  737MOL0     C 1596   6.188  10.657   2.161 -0.4177 -0.7034  0.2482
  737MOL0     C 1597   6.286  10.824   1.995  0.0089 -0.0158 -0.6736
  737MOL0     C 1598   6.209  10.936   2.038 -0.7037 -0.4920  1.2724
  737MOL0     O 1599   6.256  11.038   2.106 -0.0273  0.1104  0.2403
  737MOL0     C 1600   6.174  11.144   2.132  0.1603 -0.3717 -0.3794
  737MOL0     C 1601   6.114  11.159   2.258  1.0595  0.1909 -0.1350
  737MOL0     C 1602   6.040  11.275   2.287  1.0571  0.3476  0.3719
  737MOL0     C 1603   6.034  11.372   2.194  1.5479  0.4288  0.0353
  737MOL0     O 1604   5.961  11.482   2.237  0.4753  0.3010  0.1329
  737MOL0     C 1605   5.899  11.569   2.136  0.1815  0.0197  0.0497
  737MOL0     C 1606   5.801  11.659   2.217  1.0990  0.3779  0.2387
  737MOL0     C 1607   5.676  11.578   2.264 -0.0430 -0.1704 -0.5051
  737MOL0     C 1608   5.579  11.669   2.351  0.7724 -0.7586  0.3252
  737MOL0     C 1609   5.464  11.601   2.419 -0.3113  0.5541  0.0283
  737MOL0     C 1610   5.375  11.705   2.476  1.1443 -0.2306  0.1837
  737MOL0     C 1611   5.258  11.644   2.550 -1.0558  0.1610  1.0742
  737MOL0     C 1612   5.273  11.621   2.703  0.8401 -0.0257  0.7966
  737MOL0    Cl 1613   5.113  11.570   2.772  0.1573  0.1639 -0.4697
  737MOL0     C 1614   6.092  11.357   2.069  0.4007 -0.6164  0.2118
  737MOL0     C 1615   6.156  11.242   2.037  1.1322 -0.0275 -0.6077
  737MOL0     O 1616   6.091  10.921   2.019 -0.6893 -0.4553  1.2277
  737MOL0     C 1617   6.378  10.843   1.885  0.8657  0.8635 -0.0380
  737MOL0     C 1618   6.456  10.742   1.840  0.0030  0.7609 -0.0366
  737MOL0     N 1619   6.788  10.020   1.697 -0.1531 -0.9990 -0.3584
  737MOL0     N 1620   6.825   9.976   1.580  0.3154 -0.0380  0.0936
  737MOL0     C 1621   7.818  10.412   0.942 -0.0243  0.5300  0.6446
  737MOL0     C 1622   7.856  10.489   0.822  0.2637 -0.2915 -0.3680
  737MOL0     C 1623   8.095  10.603   0.488  0.0543  0.6009  0.7587
  737MOL0     C 1624   8.009  10.698   0.443  0.5623  1.5531 -0.6434
  737MOL0     C 1625   8.042  10.823   0.378 -0.0816 -0.5036 -0.4003
  737MOL0     C 1626   8.171  10.837   0.341 -0.4538 -0.0745  1.1929
  737MOL0     O 1627   8.226  10.943   0.271  0.1068 -0.3138 -0.3347
  737MOL0     C 1628   8.153  11.037   0.193  0.0266  0.4543  0.2839
  737MOL0     C 1629   8.113  11.148   0.272  0.8129  0.2984  0.2986
  737MOL0     C 1630   8.208  11.272   0.253 -0.4427  0.6201  0.0870
  737MOL0     C 1631   8.162  11.389   0.344  0.2513  0.3307 -0.2147
  737MOL0     C 1632   8.263  11.504   0.334  0.0762  0.0124 -0.7455
  737MOL0     C 1633   8.329  11.606   0.330  0.1911 -0.1264 -0.4892
  737MOL0     C 1634   8.265  10.737   0.370  0.9802  0.1456  0.1973
  737MOL0     C 1635   8.226  10.624   0.450 -1.0873 -0.5108 -0.4367
  737MOL0     C 1636   8.331  10.518   0.471  0.4693  1.0162  0.1445
  737MOL0     H 1637   7.893  10.236   0.608 -1.1134 -0.0299  0.3229
  737MOL0     H 1638   7.846  10.100   0.808  1.0178 -0.4391  0.1458
  737MOL0     H 1639   7.791  10.021   1.128 -2.9241  0.1479  4.0605
  737MOL0     H 1640   7.729  10.015   0.967 -1.2731 -1.2070  1.2502
  737MOL0     H 1641   7.598  10.084   1.230 -1.6074 -0.4085 -0.2082
  737MOL0     H 1642   7.536  10.165   1.086  2.3954  0.8879 -0.5156
  737MOL0     H 1643   7.523   9.917   0.993  0.3380  1.6604 -0.2100
  737MOL0     H 1644   7.494   9.880   1.171 -3.2648  0.1878  0.5082
  737MOL0     H 1645   7.355  10.095   1.040  5.6159  0.0794 -1.0895
  737MOL0     H 1646   7.304   9.932   1.002 -0.1905 -0.9123  1.0548
  737MOL0     H 1647   7.355  10.031   1.281  0.2071  1.5360 -0.8558
  737MOL0     H 1648   7.294   9.870   1.238 -1.7485 -0.5284  0.2557
  737MOL0     H 1649   7.149  10.144   1.191  0.6164  0.2374 -3.5569
  737MOL0     H 1650   7.090   9.986   1.142  2.8510 -3.7210 -0.8229
  737MOL0     H 1651   7.134  10.080   1.445 -1.4673  1.6768  0.9608
  737MOL0     H 1652   7.094   9.912   1.387 -0.6170  0.2431  0.6931
  737MOL0     H 1653   6.913  10.149   1.312 -3.2142 -0.0819 -0.4649
  737MOL0     H 1654   6.902   9.971   1.313 -1.0187  0.1528  0.0023
  737MOL0     H 1655   6.932  10.276   1.553  0.3248  0.1712  1.3744
  737MOL0     H 1656   6.933  10.287   1.835 -1.8294  2.4526 -1.5843
  737MOL0     H 1657   6.848  10.153   1.906  0.7780  1.6379  1.9265
  737MOL0     H 1658   6.624  10.266   1.861 -1.4754  0.3668 -0.6915
  737MOL0     H 1659   6.733  10.385   1.929  0.0265  1.8432 -1.1885
  737MOL0     H 1660   6.806  10.436   1.673 -1.3339  0.1856 -2.7528
  737MOL0     H 1661   6.660  10.357   1.630 -0.6505 -1.0927  0.8807
  737MOL0     H 1662   6.679  10.618   1.779 -2.3010  1.2233 -0.1841
  737MOL0     H 1663   6.573  10.559   1.638  1.5320  0.5187 -1.6740
  737MOL0     H 1664   6.363  10.503   2.062 -0.6533  0.1744  0.1146
  737MOL0     H 1665   6.226  10.708   2.251  3.1829  3.8012 -3.3121
  737MOL0     H 1666   6.193  10.551   2.187  3.2931 -0.4373  1.2742
  737MOL0     H 1667   6.083  10.680   2.144  0.4819  1.1708 -3.9499
  737MOL0     H 1668   6.139  11.088   2.336  3.6083  2.4528  1.2716
  737MOL0     H 1669   5.990  11.285   2.383 -0.8066  2.7951 -0.7162
  737MOL0     H 1670   5.969  11.628   2.077  3.2564 -4.3784 -1.1763
  737MOL0     H 1671   5.847  11.499   2.070 -1.3976  0.6391  0.5757
  737MOL0     H 1672   5.841  11.697   2.312  2.3497  1.9897 -0.8633
  737MOL0     H 1673   5.757  11.744   2.163  1.5887  1.0994  0.9426
  737MOL0     H 1674   5.698  11.491   2.326  2.8444  0.6739 -0.2024
  737MOL0     H 1675   5.626  11.545   2.173  0.2460  0.4964 -0.9151
  737MOL0     H 1676   5.532  11.741   2.284  2.3538  0.2451  0.2453
  737MOL0     H 1677   5.636  11.717   2.431  1.7480 -1.8883  0.3303
  737MOL0     H 1678   5.406  11.529   2.361  1.6114 -2.3356  1.4425
  737MOL0     H 1679   5.508  11.546   2.503  2.4007  0.2138 -1.4810
  737MOL0     H 1680   5.337  11.762   2.391  0.4099 -1.0085 -0.0295
  737MOL0     H 1681   5.430  11.770   2.543 -0.8970 -1.7561  3.6263
  737MOL0     H 1682   5.209  11.565   2.493 -1.7692  0.6825  0.9414
  737MOL0     H 1683   5.187  11.728   2.546 -1.5382 -0.2910 -1.1637
  737MOL0     H 1684   5.296  11.723   2.734 -2.2373  2.0027 -2.7025
  737MOL0     H 1685   5.352  11.549   2.729  0.5737 -1.7508 -2.5693
  737MOL0     H 1686   6.084  11.447   2.009 -2.4775 -1.7095 -1.2631
  737MOL0     H 1687   6.189  11.237   1.934 -1.0659 -0.6913 -1.3502
  737MOL0     H 1688   6.393  10.941   1.841 -0.6630  2.1598  2.1551
  737MOL0     H 1689   6.504  10.767   1.746 -1.4384 -2.9165 -1.9909
  737MOL0     H 1690   7.811  10.454   1.042 -0.6807 -0.5184  1.0650
  737MOL0     H 1691   7.872  10.596   0.825  1.4717 -0.4527 -0.5014
  737MOL0     H 1692   7.904  10.681   0.460  0.6363 -1.1360 -2.3243
  737MOL0     H 1693   7.971  10.902   0.357 -0.5049 -0.5771  0.7060
  737MOL0     H 1694   8.216  11.069   0.109  1.5092 -0.3073  1.0661
  737MOL0     H 1695   8.065  10.988   0.151 -2.0205  0.7928  3.7447
  737MOL0     H 1696   8.115  11.116   0.376  1.6828  0.2494  0.2722
  737MOL0     H 1697   8.015  11.193   0.249 -0.3605 -1.8793  0.8205
  737MOL0     H 1698   8.309  11.241   0.281  0.3832  3.0102 -0.0504
  737MOL0     H 1699   8.206  11.308   0.150  1.5518  0.6461  0.0268
  737MOL0     H 1700   8.147  11.346   0.443 -1.9209 -0.8933 -0.9978
  737MOL0     H 1701   8.058  11.418   0.325 -0.0226 -0.5711 -0.1580
  737MOL0     H 1702   8.382  11.699   0.332 -2.2068  1.3198 -0.4716
  737MOL0     H 1703   8.365  10.737   0.330  1.2934  1.0331  0.9527
  737MOL0     H 1704   8.337  10.501   0.579 -1.2200 -0.0618  0.0975
  737MOL0     H 1705   8.310  10.419   0.430 -3.9001  2.3048 -1.1773
  737MOL0     H 1706   8.431  10.547   0.436  1.6096 -1.9162  0.6950
  738MOL0     O 1707   8.437   0.756   2.942 -0.2847 -1.1119  0.2288
  738MOL0     C 1708   8.385   0.729   3.049  1.1561 -0.1113 -0.8834
  738MOL0     O 1709   8.252   0.750   3.081 -0.6563 -0.0267 -0.2549
  738MOL0     C 1710   8.213   0.708   3.205 -0.9741 -0.2841 -0.0543
  738MOL0     C 1711   8.223   0.793   3.308  0.0780 -0.5270 -0.6424
  738MOL0     C 1712   8.198   0.754   3.439 -0.2154  0.1266 -0.1996
  738MOL0     C 1713   8.162   0.624   3.474 -0.0819 -0.2984 -0.7487
  738MOL0     O 1714   8.140   0.595   3.609 -0.7940  0.0708  0.0048
  738MOL0     C 1715   8.124   0.452   3.648 -0.9691 -0.0642  0.4709
  738MOL0     C 1716   8.125   0.447   3.799 -0.0941  1.0285 -0.1355
  738MOL0     C 1717   8.256   0.491   3.870  0.0957 -0.6576  0.1798
  738MOL0     C 1718   8.251   0.496   4.024  0.2684  0.3331 -0.0189
  738MOL0     C 1719   8.373   0.568   4.096 -0.1928  0.2400  0.4249
  738MOL0     C 1720   8.365   0.568   4.242 -0.3101 -0.0408  0.4276
  738MOL0     C 1721   8.494   0.628   4.314  1.0470  0.3779 -0.5253
  738MOL0     C 1722   8.476   0.617   4.463 -0.4089  0.1425  0.0295
  738MOL0     N 1723   8.523   0.492   4.529  0.3710  0.2033  0.8738
  738MOL0     C 1724   8.647   0.451   4.527  0.0783 -0.4176 -0.2601
  738MOL0     C 1725   8.646   0.333   4.595  0.6066  0.0303  0.3314
  738MOL0     C 1726   8.760   0.264   4.664 -0.7015 -0.6051  1.4723
  738MOL0     C 1727   8.769   0.115   4.631  0.4285  1.1449  0.2032
  738MOL0     C 1728   8.906   0.057   4.645  0.1700  0.2915  0.3983
  738MOL0     C 1729   8.965   0.033   4.789  0.4180 -0.5010  0.4152
  738MOL0     O 1730   8.874  -0.012   4.883  0.6337 -0.7102 -0.0974
  738MOL0     C 1731   8.896   0.007   5.021  0.4769 -0.4304  0.9458
  738MOL0     C 1732   8.904  -0.097   5.112 -0.1048  0.0855 -0.1623
  738MOL0     C 1733   8.939  -0.078   5.250  0.1052  0.9736  0.1254
  738MOL0     C 1734   8.952  -0.201   5.339  0.3992  0.7184  1.1551
  738MOL0     C 1735   8.956   0.055   5.299 -0.4107 -0.7952  0.4233
  738MOL0     C 1736   8.965   0.094   5.438 -0.2448 -0.3177 -0.2963
  738MOL0     O 1737   8.967   0.228   5.458  0.1898  0.0465 -0.2330
  738MOL0     C 1738   9.016   0.290   5.572  0.6390 -0.2490 -1.3446
  738MOL0     C 1739   9.033   0.433   5.573 -0.2403  0.6944 -0.9489
  738MOL0     C 1740   9.068   0.504   5.681  0.6332  0.3939  0.3032
  738MOL0     C 1741   9.090   0.445   5.802  0.0832  0.3318 -0.6206
  738MOL0     O 1742   9.112   0.518   5.914 -0.4719  0.1634 -0.1552
  738MOL0     C 1743   9.003   0.608   5.958 -0.2472  0.0623 -0.2176
  738MOL0     C 1744   9.034   0.645   6.107 -0.1165 -0.9095  0.0846
  738MOL0     C 1745   8.912   0.725   6.161 -1.1870  0.4939  1.1089
  738MOL0     C 1746   8.866   0.841   6.072  0.3326  0.2036 -0.2617
  738MOL0     C 1747   8.747   0.899   6.143 -0.6888 -0.7401  0.0604
  738MOL0     C 1748   8.691   1.025   6.070 -0.5140  1.0723  0.1897
  738MOL0     C 1749   8.552   1.054   6.114 -1.0104 -0.8245 -0.2375
  738MOL0     C 1750   8.504   1.191   6.055 -0.1048 -1.1571 -0.1252
  738MOL0    Cl 1751   8.591   1.337   6.112  0.2161  0.0784  0.2140
  738MOL0     C 1752   9.097   0.308   5.802 -0.7002  0.8751 -0.5931
  738MOL0     C 1753   9.064   0.224   5.696  0.6326 -0.1970 -0.6740
  738MOL0     O 1754   8.991   0.013   5.525  0.0319  0.0893 -0.0261
  738MOL0     C 1755   8.961   0.159   5.200  0.3791 -0.4142 -0.3637
  738MOL0     C 1756   8.926   0.142   5.070  0.5264  0.2192 -0.0007
  738MOL0     N 1757   8.511   0.308   4.634 -0.7206 -0.3435  0.5554
  738MOL0     N 1758   8.442   0.406   4.593  0.1463 -1.4413 -0.2639
  738MOL0     C 1759   8.143   0.541   3.369  0.4811 -0.3512  0.1512
  738MOL0     C 1760   8.169   0.580   3.233  1.1087  1.4711  0.6435
  738MOL0     C 1761   8.475   0.655   3.139 -0.2557 -0.0961 -0.3388
  738MOL0     C 1762   8.525   0.724   3.255  0.4703  0.4112  0.4547
  738MOL0     C 1763   8.626   0.667   3.331 -0.4795 -0.0457  0.4307
  738MOL0     C 1764   8.671   0.543   3.304  0.4329  0.4445 -0.2163
  738MOL0     O 1765   8.770   0.503   3.388  0.1839  0.5243 -0.8132
  738MOL0     C 1766   8.843   0.385   3.357  0.8591  0.5496 -0.2541
  738MOL0     C 1767   8.962   0.359   3.448 -0.1034  0.6817  0.1532
  738MOL0     C 1768   9.032   0.488   3.481  0.5972 -0.2721  0.1222
  738MOL0     C 1769   9.115   0.551   3.373  0.9623 -0.1743 -0.3595
  738MOL0     C 1770   9.202   0.465   3.292 -0.4933  0.0881 -0.0139
  738MOL0     C 1771   9.258   0.393   3.215 -0.7688  0.3511  0.8499
  738MOL0     C 1772   8.612   0.466   3.203  0.7373 -0.7711  0.2645
  738MOL0     C 1773   8.517   0.524   3.112  0.3578  0.3026  0.3002
  738MOL0     C 1774   8.465   0.446   2.993  0.1343  0.7078 -0.6854
  738MOL0     H 1775   8.242   0.896   3.284  1.2054 -0.7780 -0.8554
  738MOL0     H 1776   8.214   0.825   3.519  1.2448  1.3814 -1.5355
  738MOL0     H 1777   8.216   0.413   3.604 -0.7338 -0.6269  1.4404
  738MOL0     H 1778   8.038   0.404   3.601  0.0647 -1.1040 -0.4270
  738MOL0     H 1779   8.039   0.497   3.843 -3.2923 -4.4395  0.7655
  738MOL0     H 1780   8.112   0.344   3.834  1.0360  0.7755 -0.4093
  738MOL0     H 1781   8.342   0.432   3.837 -0.4047 -2.1973  1.4947
  738MOL0     H 1782   8.270   0.593   3.834 -3.1288  0.3945  1.4845
  738MOL0     H 1783   8.159   0.546   4.057  0.9856  2.2815 -0.7880
  738MOL0     H 1784   8.250   0.392   4.056  4.0343 -0.4672 -1.8762
  738MOL0     H 1785   8.364   0.674   4.073 -1.7060 -0.0773 -0.6019
  738MOL0     H 1786   8.467   0.529   4.057 -0.3665  0.4959 -0.2640
  738MOL0     H 1787   8.274   0.623   4.267  0.0645  0.1081  1.4985
  738MOL0     H 1788   8.363   0.465   4.279 -0.8122 -0.6464 -1.1862
  738MOL0     H 1789   8.500   0.734   4.286  0.1606  0.5933  0.0799
  738MOL0     H 1790   8.585   0.576   4.283  0.3775  0.1961 -2.3313
  738MOL0     H 1791   8.541   0.692   4.510  0.4464 -1.1413  0.9430
  738MOL0     H 1792   8.375   0.645   4.494  0.1926 -1.6682  4.3228
  738MOL0     H 1793   8.732   0.506   4.488 -1.3900  1.9044 -0.3466
  738MOL0     H 1794   8.756   0.266   4.773  2.5467 -1.7344  1.7264
  738MOL0     H 1795   8.852   0.316   4.635  0.6498 -2.6384  1.9544
  738MOL0     H 1796   8.713   0.052   4.701  0.5369  0.2045 -0.5270
  738MOL0     H 1797   8.733   0.105   4.528  0.5292  1.9883  0.0826
  738MOL0     H 1798   8.911  -0.038   4.591  1.3207  1.7333 -2.2479
  738MOL0     H 1799   8.974   0.117   4.583 -0.6917  0.3333 -0.5288
  738MOL0     H 1800   9.049  -0.037   4.793  2.3554  1.6052 -0.8369
  738MOL0     H 1801   9.017   0.126   4.813 -0.2073  0.0625 -0.3440
  738MOL0     H 1802   8.898  -0.199   5.075 -1.5435  0.3316 -0.6389
  738MOL0     H 1803   8.859  -0.218   5.394 -0.7448 -0.4479 -1.0116
  738MOL0     H 1804   9.042  -0.202   5.401  0.5092 -0.5273  0.9904
  738MOL0     H 1805   8.955  -0.282   5.266  0.7761  2.4199 -0.8175
  738MOL0     H 1806   9.016   0.481   5.477  1.2838  2.1888 -0.5051
  738MOL0     H 1807   9.093   0.610   5.674 -0.3885  1.3665  6.1030
  738MOL0     H 1808   9.022   0.697   5.896  1.0037  1.2301  1.7320
  738MOL0     H 1809   8.902   0.570   5.943 -0.1221 -0.5268  0.3935
  738MOL0     H 1810   9.039   0.552   6.165 -4.3810  0.1698  2.6480
  738MOL0     H 1811   9.131   0.694   6.115 -1.4025  2.8497 -3.7314
  738MOL0     H 1812   8.954   0.757   6.257 -1.7374 -2.7707  2.5821
  738MOL0     H 1813   8.829   0.655   6.180 -0.2872 -1.2734 -1.0502
  738MOL0     H 1814   8.839   0.805   5.972 -1.0378 -0.5939  0.3473
  738MOL0     H 1815   8.948   0.912   6.059  3.0576 -2.7069 -0.2237
  738MOL0     H 1816   8.663   0.829   6.142 -2.1070  0.9203  0.3362
  738MOL0     H 1817   8.763   0.927   6.247 -4.0486  4.4310 -0.4666
  738MOL0     H 1818   8.696   1.012   5.962 -0.7558  2.3715  0.0106
  738MOL0     H 1819   8.752   1.114   6.088  0.2606  0.5791  0.0453
  738MOL0     H 1820   8.539   1.060   6.222  0.1729 -0.0537 -0.1182
  738MOL0     H 1821   8.492   0.971   6.076  0.7818 -1.2256 -2.4820
  738MOL0     H 1822   8.398   1.203   6.081  0.4417  0.2055  1.6803
  738MOL0     H 1823   8.502   1.184   5.946 -2.4538  4.9970 -0.8657
  738MOL0     H 1824   9.104   0.258   5.898 -0.4011  2.2025  0.1071
  738MOL0     H 1825   9.076   0.120   5.724  4.2292  0.0790 -0.6391
  738MOL0     H 1826   8.976   0.263   5.229 -2.6422 -0.7136  3.0835
  738MOL0     H 1827   8.952   0.227   5.007 -0.3462  1.3498  1.0885
  738MOL0     H 1828   8.098   0.444   3.387  0.2320  0.0960  2.1266
  738MOL0     H 1829   8.179   0.501   3.159 -0.1656  2.4310 -0.6093
  738MOL0     H 1830   8.501   0.827   3.276  1.6517  0.9327 -0.6049
  738MOL0     H 1831   8.669   0.716   3.418  1.2029  1.5606 -1.2084
  738MOL0     H 1832   8.767   0.307   3.354  0.4434  0.7377  2.6763
  738MOL0     H 1833   8.880   0.388   3.254 -1.0208  0.2214 -0.9804
  738MOL0     H 1834   9.025   0.280   3.409 -1.0400  0.2911 -0.6187
  738MOL0     H 1835   8.916   0.324   3.541 -0.2442 -2.1349 -0.8783
  738MOL0     H 1836   8.964   0.558   3.530 -1.2314 -0.8959 -1.4306
  738MOL0     H 1837   9.100   0.460   3.562  0.1521 -0.6855  0.3524
  738MOL0     H 1838   9.179   0.633   3.407  2.0788 -0.2081 -2.2358
  738MOL0     H 1839   9.040   0.593   3.305 -0.7348 -1.3616  0.6943
  738MOL0     H 1840   9.297   0.325   3.142 -0.2615  1.6622 -0.1591
  738MOL0     H 1841   8.648   0.367   3.177  0.9337 -0.5390 -0.3777
  738MOL0     H 1842   8.380   0.388   3.028  1.1399  0.1622  0.9844
  738MOL0     H 1843   8.459   0.518   2.910 -0.1162  3.3944  1.5045
  738MOL0     H 1844   8.548   0.381   2.964  1.9296  2.7018 -0.3258
  739MOL0     O 1845   4.076   1.350   3.296  0.5681 -0.8399  0.5224
  739MOL0     C 1846   4.159   1.388   3.218 -0.7931  0.6814  1.4346
  739MOL0     O 1847   4.281   1.431   3.250  0.0862 -0.2365 -0.1007
  739MOL0     C 1848   4.333   1.476   3.368  0.7904 -0.4274  0.4325
  739MOL0     C 1849   4.467   1.527   3.372  0.2924  0.7540  0.5992
  739MOL0     C 1850   4.516   1.593   3.492 -0.8899  0.1666 -0.5460
  739MOL0     C 1851   4.438   1.602   3.601  0.4881  0.1983 -0.2434
  739MOL0     O 1852   4.478   1.664   3.713 -0.3257 -0.1662  0.1952
  739MOL0     C 1853   4.581   1.758   3.715 -0.3830 -0.6752  0.5608
  739MOL0     C 1854   4.611   1.813   3.851  0.1444 -0.0371  0.8577
  739MOL0     C 1855   4.661   1.713   3.944  0.1118 -0.2461 -0.2566
  739MOL0     C 1856   4.681   1.783   4.083  0.4348  0.9233 -1.2529
  739MOL0     C 1857   4.712   1.692   4.202  0.4486  0.8843 -0.0893
  739MOL0     C 1858   4.840   1.622   4.193 -0.4739  0.1123  0.5135
  739MOL0     C 1859   4.902   1.577   4.325  0.2494 -0.0870  0.2510
  739MOL0     C 1860   4.803   1.486   4.399  0.1005 -1.1164 -0.0025
  739MOL0     N 1861   4.843   1.483   4.538  0.2240 -0.0577  0.5715
  739MOL0     C 1862   4.902   1.382   4.599 -0.0770 -0.7041 -0.0002
  739MOL0     C 1863   4.895   1.411   4.735 -0.7831 -0.4794  0.2751
  739MOL0     C 1864   4.924   1.337   4.855  0.1636 -0.3051 -0.4939
  739MOL0     C 1865   5.083   1.320   4.875  0.3664 -0.8163  0.7271
  739MOL0     C 1866   5.113   1.212   4.971 -0.2157  0.3439 -0.8443
  739MOL0     C 1867   5.257   1.189   4.984 -0.7739  0.3977  0.1055
  739MOL0     O 1868   5.319   1.293   5.064 -1.1608 -0.4237  0.3898
  739MOL0     C 1869   5.444   1.333   5.032 -0.6654  0.3357 -0.5832
  739MOL0     C 1870   5.469   1.461   4.969  1.2422 -0.8662 -0.5468
  739MOL0     C 1871   5.597   1.502   4.934 -0.1971  0.3308 -0.0938
  739MOL0     C 1872   5.627   1.645   4.888  0.2979  0.0615  1.1270
  739MOL0     C 1873   5.699   1.401   4.945 -0.3151  0.1021 -0.1564
  739MOL0     C 1874   5.835   1.439   4.910 -0.7875  0.1628  0.0655
  739MOL0     O 1875   5.926   1.371   4.981  0.8186  0.0997  0.9773
  739MOL0     C 1876   6.059   1.397   4.984 -0.3567  0.0889 -0.6287
  739MOL0     C 1877   6.145   1.412   4.868 -0.3332  0.1938  0.6445
  739MOL0     C 1878   6.286   1.440   4.881 -0.6057 -1.0006  1.4235
  739MOL0     C 1879   6.344   1.451   5.005  0.2691 -0.2822 -0.4108
  739MOL0     O 1880   6.478   1.472   5.011 -0.1024 -0.3898 -0.3442
  739MOL0     C 1881   6.529   1.527   5.135  0.1382 -0.8390  0.5418
  739MOL0     C 1882   6.686   1.530   5.118 -0.3769 -0.3261 -0.1566
  739MOL0     C 1883   6.751   1.630   5.216 -0.0516 -1.2035  0.3279
  739MOL0     C 1884   6.899   1.613   5.217  0.5395  0.2085 -0.9808
  739MOL0     C 1885   6.952   1.625   5.080 -0.4958 -0.1932  0.2896
  739MOL0     C 1886   7.091   1.685   5.076 -0.2018 -0.4598 -0.4029
  739MOL0     C 1887   7.146   1.703   4.933  0.0974 -0.2773  0.3894
  739MOL0     C 1888   7.285   1.778   4.936 -1.2727  0.1440  0.2714
  739MOL0    Cl 1889   7.409   1.664   4.996 -0.3774  0.5047 -0.0970
  739MOL0     C 1890   6.264   1.423   5.123 -0.8513 -1.1711  0.0376
  739MOL0     C 1891   6.127   1.411   5.111  0.2933  0.8607 -0.1278
  739MOL0     O 1892   5.862   1.503   4.811 -0.1986  0.9302 -0.0089
  739MOL0     C 1893   5.675   1.273   4.998  0.6201 -0.8106 -0.1894
  739MOL0     C 1894   5.550   1.243   5.048  0.3802  0.0473  0.0925
  739MOL0     N 1895   4.809   1.512   4.745 -0.6648 -0.1454 -0.4367
  739MOL0     N 1896   4.785   1.566   4.627  0.2648 -0.0825  0.7936
  739MOL0     C 1897   4.323   1.535   3.598 -0.7332  0.8750  0.2539
  739MOL0     C 1898   4.261   1.480   3.488 -0.1888  0.3795  0.1441
  739MOL0     C 1899   4.113   1.392   3.081 -0.5628 -0.9204  0.5613
  739MOL0     C 1900   4.095   1.267   3.021  0.2960 -0.2810  0.1676
  739MOL0     C 1901   4.029   1.267   2.892  0.0772  0.3799  0.2384
  739MOL0     C 1902   3.986   1.384   2.830 -1.4537  0.2467 -0.1888
  739MOL0     O 1903   3.931   1.367   2.702  0.0679 -0.4201 -0.6940
  739MOL0     C 1904   3.918   1.476   2.614  0.7165 -0.5214  0.9884
  739MOL0     C 1905   3.832   1.447   2.494  1.1191  0.3418  0.4427
  739MOL0     C 1906   3.787   1.578   2.428  0.3742 -0.2303  0.4685
  739MOL0     C 1907   3.701   1.548   2.301  0.0970 -0.2287 -0.4304
  739MOL0     C 1908   3.671   1.678   2.246  0.2881  0.2767 -0.5521
  739MOL0     C 1909   3.632   1.787   2.218 -0.2476 -0.7159  0.1970
  739MOL0     C 1910   4.018   1.506   2.889 -0.2343  0.4179 -0.5788
  739MOL0     C 1911   4.076   1.509   3.016  0.4161 -0.6745 -0.1265
  739MOL0     C 1912   4.084   1.654   3.085  0.4317  0.1721 -0.3214
  739MOL0     H 1913   4.529   1.547   3.286 -0.2793  1.3166  0.3131
  739MOL0     H 1914   4.617   1.635   3.488 -1.3922  1.3206 -3.0550
  739MOL0     H 1915   4.560   1.844   3.651  0.9168 -1.1421 -0.5518
  739MOL0     H 1916   4.683   1.725   3.693  0.0580  0.8611  0.1550
  739MOL0     H 1917   4.681   1.893   3.824  0.4624 -0.4059  0.5679
  739MOL0     H 1918   4.526   1.865   3.896  2.8115  3.2950  2.5025
  739MOL0     H 1919   4.594   1.626   3.949  0.9942 -0.9742 -0.8228
  739MOL0     H 1920   4.754   1.673   3.901 -0.8914  0.0953 -2.9598
  739MOL0     H 1921   4.749   1.868   4.071 -0.0171  1.4658 -0.0744
  739MOL0     H 1922   4.584   1.814   4.124 -0.8695 -3.5023 -0.5063
  739MOL0     H 1923   4.631   1.621   4.220  0.3872  0.6809 -1.1185
  739MOL0     H 1924   4.721   1.758   4.289  2.1628  2.9436 -1.7358
  739MOL0     H 1925   4.833   1.530   4.135 -0.0382 -0.7130  1.7384
  739MOL0     H 1926   4.907   1.692   4.142 -1.3548 -1.1607 -2.6553
  739MOL0     H 1927   4.930   1.667   4.381  2.2291  0.8293 -2.0799
  739MOL0     H 1928   4.993   1.520   4.308  0.5122 -0.6863  3.1211
  739MOL0     H 1929   4.705   1.536   4.400  0.4164 -0.4369  2.1726
  739MOL0     H 1930   4.790   1.386   4.358 -0.4643 -1.2718  0.5379
  739MOL0     H 1931   4.950   1.291   4.564 -0.5060 -0.4999 -1.1751
  739MOL0     H 1932   4.876   1.239   4.859  0.6763 -0.5608 -0.4813
  739MOL0     H 1933   4.888   1.398   4.937 -0.6301 -0.7628 -0.4943
  739MOL0     H 1934   5.142   1.308   4.784 -2.3607  2.0679 -1.6214
  739MOL0     H 1935   5.128   1.415   4.905  2.4274 -0.9585 -1.6317
  739MOL0     H 1936   5.058   1.237   5.062 -1.0281 -0.8300 -0.9805
  739MOL0     H 1937   5.071   1.123   4.922 -1.1044  2.1615 -3.6536
  739MOL0     H 1938   5.273   1.093   5.033  1.5674  2.1044  3.0561
  739MOL0     H 1939   5.304   1.187   4.885 -1.1480 -2.3301 -0.0745
  739MOL0     H 1940   5.388   1.534   4.964  2.9210  1.4612  2.6692
  739MOL0     H 1941   5.715   1.686   4.938  1.5075 -1.3854  0.2741
  739MOL0     H 1942   5.555   1.725   4.910  0.8794  0.7865  0.4496
  739MOL0     H 1943   5.657   1.644   4.783 -4.0395 -0.6615 -0.3334
  739MOL0     H 1944   6.101   1.426   4.769 -0.4212  0.8642  0.7767
  739MOL0     H 1945   6.336   1.432   4.785 -0.1328 -0.5448  1.6273
  739MOL0     H 1946   6.493   1.627   5.159 -1.6073 -0.7706 -1.9116
  739MOL0     H 1947   6.496   1.468   5.221 -0.6828 -0.7952  0.2658
  739MOL0     H 1948   6.730   1.431   5.134  0.6065  0.0986 -0.1619
  739MOL0     H 1949   6.703   1.573   5.019 -0.2056  1.7579  0.7247
  739MOL0     H 1950   6.710   1.618   5.316 -2.4454 -0.5929 -0.5117
  739MOL0     H 1951   6.729   1.731   5.180 -4.0479 -1.8107  0.5841
  739MOL0     H 1952   6.941   1.524   5.265  3.3418  2.3803  0.9659
  739MOL0     H 1953   6.949   1.692   5.274  2.9088 -0.3382 -2.1517
  739MOL0     H 1954   6.962   1.530   5.027  0.8191  0.2704 -0.3514
  739MOL0     H 1955   6.887   1.690   5.020  0.9782  1.3068  0.2504
  739MOL0     H 1956   7.150   1.617   5.138 -1.9942  1.0840  3.3105
  739MOL0     H 1957   7.098   1.782   5.126 -0.9879  2.4336 -5.2566
  739MOL0     H 1958   7.084   1.764   4.866 -0.2430 -1.6644 -0.5997
  739MOL0     H 1959   7.166   1.605   4.891 -0.3483 -0.4929  0.6721
  739MOL0     H 1960   7.292   1.877   4.983  1.9613  1.3093 -2.2548
  739MOL0     H 1961   7.295   1.808   4.831 -1.1560  2.1436  0.8022
  739MOL0     H 1962   6.300   1.431   5.225  1.2948  0.6836 -0.7694
  739MOL0     H 1963   6.062   1.395   5.196 -1.3772  2.7968 -0.9633
  739MOL0     H 1964   5.753   1.198   5.008  2.5354  0.8935 -1.7487
  739MOL0     H 1965   5.533   1.144   5.090  0.2477  1.1417  2.8197
  739MOL0     H 1966   4.271   1.543   3.693  0.7842  2.1831  1.0290
  739MOL0     H 1967   4.163   1.441   3.514  0.5733 -0.1506  2.5156
  739MOL0     H 1968   4.118   1.174   3.072  0.1433 -0.8791 -0.8334
  739MOL0     H 1969   4.014   1.168   2.850 -0.2243  1.1660 -1.5993
  739MOL0     H 1970   3.880   1.568   2.658 -1.6556  0.5885 -2.8603
  739MOL0     H 1971   4.012   1.506   2.567 -0.0795 -0.0001 -0.3105
  739MOL0     H 1972   3.731   1.413   2.519  1.4697 -0.8867  0.2150
  739MOL0     H 1973   3.874   1.378   2.420  0.3943  0.8966 -0.5145
  739MOL0     H 1974   3.734   1.649   2.492  0.0058  1.7689 -1.8862
  739MOL0     H 1975   3.883   1.622   2.396 -0.8267  3.4309  1.3710
  739MOL0     H 1976   3.613   1.489   2.331 -0.7333  1.4828  0.6892
  739MOL0     H 1977   3.757   1.492   2.226  1.4993  0.3533  0.1453
  739MOL0     H 1978   3.589   1.880   2.186 -0.2285 -1.3580 -1.8107
  739MOL0     H 1979   3.990   1.599   2.840  0.2675  1.4445  0.9879
  739MOL0     H 1980   4.153   1.669   3.168 -0.5488 -2.3770  1.0685
  739MOL0     H 1981   4.120   1.724   3.009 -0.7643  1.1774  0.0023
  739MOL0     H 1982   3.986   1.686   3.123  0.1034  1.0731 -1.8459
  740MOL0     O 1983  10.189   2.265  10.250 -0.4004  0.1388 -0.3616
  740MOL0     C 1984  10.260   2.345  10.316  0.4044  0.9871 -0.2649
  740MOL0     O 1985  10.386   2.378  10.287 -0.4167  0.0600  0.5192
  740MOL0     C 1986  10.445   2.323  10.172  0.5860 -0.8079  0.7213
  740MOL0     C 1987  10.387   2.380  10.059  0.4005 -0.7413  0.5761
  740MOL0     C 1988  10.423   2.349   9.927  0.3948  0.2081 -0.0263
  740MOL0     C 1989  10.507   2.244   9.899 -0.5245 -1.3601 -0.4813
  740MOL0     O 1990  10.502   2.195   9.767 -0.3390  0.3882 -0.4951
  740MOL0     C 1991  10.615   2.118   9.720  0.2890 -0.2444 -0.6738
  740MOL0     C 1992  10.574   2.060   9.582  0.3489  0.1558 -0.4912
  740MOL0     C 1993  10.674   1.958   9.508 -0.4813  0.8577  0.1859
  740MOL0     C 1994  10.646   1.957   9.353  0.1076 -0.1711 -0.0735
  740MOL0     C 1995  10.713   1.837   9.285 -0.3106  0.1671  0.6634
  740MOL0     C 1996  10.743   1.853   9.135 -0.0916  1.0304  0.1733
  740MOL0     C 1997  10.785   1.719   9.071 -0.3589  0.0028  0.0525
  740MOL0     C 1998  10.934   1.683   9.106 -0.0550 -0.0067 -0.3599
  740MOL0     N 1999  10.958   1.544   9.062  0.0849  0.3787 -0.5379
  740MOL0     C 2000  10.938   1.440   9.139  0.0168 -0.4218  0.1866
  740MOL0     C 2001  10.974   1.335   9.077 -0.3036 -0.1402  1.0457
  740MOL0     C 2002  10.973   1.184   9.118 -0.1202 -0.4664 -0.0133
  740MOL0     C 2003  11.112   1.146   9.186  0.1052 -0.3880 -0.9682
  740MOL0     C 2004  11.175   1.227   9.302  0.8921 -0.5336 -0.9174
  740MOL0     C 2005  11.320   1.252   9.288  0.0690  0.9457  0.0266
  740MOL0     O 2006  11.360   1.313   9.414  0.2452 -0.6533  0.2255
  740MOL0     C 2007  11.369   1.252   9.537 -0.7119 -1.2594 -0.0033
  740MOL0     C 2008  11.344   1.118   9.558  0.6213 -0.3619 -0.3723
  740MOL0     C 2009  11.348   1.069   9.691  1.2029  0.4915  0.8638
  740MOL0     C 2010  11.338   0.910   9.701  0.1434 -0.3900  0.2390
  740MOL0     C 2011  11.377   1.156   9.799  0.5955 -0.2268 -0.6806
  740MOL0     C 2012  11.409   1.110   9.930 -0.1848 -0.4809 -0.1561
  740MOL0     O 2013  11.424   1.209  10.024 -0.2308 -0.1485  0.7279
  740MOL0     C 2014  11.441   1.179  10.156 -0.3427  0.2049  0.0522
  740MOL0     C 2015  11.547   1.102  10.194  0.5953  1.0053 -0.4504
  740MOL0     C 2016  11.566   1.075  10.332  0.6175 -0.1722  0.4059
  740MOL0     C 2017  11.498   1.143  10.432  0.6136 -0.5773 -0.3707
  740MOL0     O 2018  11.506   1.114  10.563 -0.0021  0.0827  0.1167
  740MOL0     C 2019  11.460   0.973  10.583  0.2545 -0.0721  0.4802
  740MOL0     C 2020  11.462   0.943  10.731  0.8132 -0.7506  0.0586
  740MOL0     C 2021  11.603   0.923  10.791 -0.0723 -0.1204 -1.0093
  740MOL0     C 2022  11.653   0.796  10.736  0.1577  0.6881  0.9308
  740MOL0     C 2023  11.787   0.744  10.799  0.4871 -0.3549 -0.1617
  740MOL0     C 2024  11.902   0.833  10.755 -0.6964  0.4896 -0.0936
  740MOL0     C 2025  12.020   0.744  10.768  0.2928  0.7280 -0.4770
  740MOL0     C 2026  12.146   0.823  10.735 -0.4133 -0.1667  1.0479
  740MOL0    Cl 2027  12.281   0.721  10.683  0.0934 -0.3546 -0.5340
  740MOL0     C 2028  11.399   1.232  10.385  0.1642  0.1150 -0.6838
  740MOL0     C 2029  11.368   1.251  10.246  0.2682  0.6146  0.0521
  740MOL0     O 2030  11.389   0.994   9.960  0.0703 -0.1967  0.0407
  740MOL0     C 2031  11.393   1.299   9.767  0.1597 -0.3253 -0.8186
  740MOL0     C 2032  11.389   1.341   9.638  0.4225  0.5326  1.8369
  740MOL0     N 2033  11.024   1.372   8.955 -0.5401 -0.7370 -0.4079
  740MOL0     N 2034  11.014   1.504   8.938  0.3772  0.4529  0.6732
  740MOL0     C 2035  10.566   2.184  10.020 -0.2243  0.6970  1.0008
  740MOL0     C 2036  10.538   2.220  10.153  1.2456  0.7190 -1.2475
  740MOL0     C 2037  10.206   2.396  10.453 -0.5798  0.0052 -0.0016
  740MOL0     C 2038  10.083   2.337  10.502 -0.9454 -0.1106  0.2185
  740MOL0     C 2039  10.019   2.384  10.622  0.5688  0.6529  0.1501
  740MOL0     C 2040  10.074   2.490  10.696 -0.3111 -0.0462 -0.9371
  740MOL0     O 2041  10.005   2.532  10.811  0.6603  0.0820 -0.0620
  740MOL0     C 2042  10.057   2.480  10.933 -0.5182 -0.5098 -1.2339
  740MOL0     C 2043   9.997   2.563  11.051  0.4307 -0.1557  0.2209
  740MOL0     C 2044  10.060   2.526  11.181  0.9135  0.5045 -0.1828
  740MOL0     C 2045  10.002   2.597  11.297 -0.2809  0.2756  0.1701
  740MOL0     C 2046   9.862   2.550  11.319  0.3650  0.2457 -0.3278
  740MOL0     C 2047   9.753   2.500  11.335 -0.3407  0.0639 -0.5565
  740MOL0     C 2048  10.182   2.551  10.648  0.3946 -0.4940 -0.9863
  740MOL0     C 2049  10.249   2.506  10.528 -0.2605  0.0028  0.5895
  740MOL0     C 2050  10.358   2.594  10.476 -0.7674  0.5832 -0.2330
  740MOL0     H 2051  10.315   2.461  10.054  1.3649  0.0699 -1.6914
  740MOL0     H 2052  10.377   2.407   9.848  1.6872  2.2216  0.6148
  740MOL0     H 2053  10.628   2.037   9.792  0.4792  0.9077  0.6286
  740MOL0     H 2054  10.706   2.180   9.720  0.5478 -0.4460  2.6802
  740MOL0     H 2055  10.476   2.012   9.585 -1.1207  2.9302 -1.1030
  740MOL0     H 2056  10.567   2.149   9.519  1.7035  1.2084  0.7501
  740MOL0     H 2057  10.779   1.986   9.517 -0.2244  0.1415 -0.4818
  740MOL0     H 2058  10.651   1.863   9.556 -1.8294  1.6024  1.0779
  740MOL0     H 2059  10.538   1.959   9.338  0.4334 -0.0099 -2.8791
  740MOL0     H 2060  10.672   2.051   9.304 -0.3301  0.4740  0.8998
  740MOL0     H 2061  10.653   1.749   9.312  2.3670 -1.6055  1.1489
  740MOL0     H 2062  10.806   1.820   9.340  0.2115  3.3405  0.9402
  740MOL0     H 2063  10.658   1.894   9.080 -0.1632  1.5802  0.6849
  740MOL0     H 2064  10.821   1.929   9.139 -1.1522  2.1215  0.6242
  740MOL0     H 2065  10.795   1.740   8.965 -1.0418  0.9881  0.1634
  740MOL0     H 2066  10.709   1.643   9.092  0.7098 -0.3942  2.9245
  740MOL0     H 2067  10.999   1.758   9.060 -0.0219 -0.1022 -0.4685
  740MOL0     H 2068  10.937   1.692   9.215 -2.5435 -1.4623 -0.0791
  740MOL0     H 2069  10.900   1.440   9.241 -0.6066 -2.4122 -0.0100
  740MOL0     H 2070  10.940   1.107   9.047 -1.0183  0.0515 -0.1695
  740MOL0     H 2071  10.899   1.175   9.198  1.9473 -2.3140  1.8266
  740MOL0     H 2072  11.109   1.041   9.216  0.2648 -0.1873 -0.2387
  740MOL0     H 2073  11.192   1.140   9.111  2.8836  0.1337  1.7259
  740MOL0     H 2074  11.113   1.317   9.294 -1.6542 -1.9789  1.0399
  740MOL0     H 2075  11.144   1.180   9.396  1.0852  0.7518 -0.1773
  740MOL0     H 2076  11.372   1.156   9.275 -1.3346  0.4059 -1.9868
  740MOL0     H 2077  11.338   1.322   9.206  1.2810 -2.6461 -3.0828
  740MOL0     H 2078  11.315   1.056   9.473  0.2336 -0.3343 -0.2642
  740MOL0     H 2079  11.262   0.885   9.776 -1.9800 -1.3489 -2.0895
  740MOL0     H 2080  11.430   0.859   9.730  2.7209  3.3725 -0.6320
  740MOL0     H 2081  11.293   0.865   9.612 -1.2904 -0.8586  1.1553
  740MOL0     H 2082  11.614   1.048  10.127 -0.5118  0.8741 -1.4746
  740MOL0     H 2083  11.643   1.000  10.345  0.2846 -0.7584 -0.8357
  740MOL0     H 2084  11.357   0.950  10.553  1.6621 -4.5789 -1.8867
  740MOL0     H 2085  11.530   0.906  10.532  1.2618  0.0709  1.6492
  740MOL0     H 2086  11.406   1.025  10.775 -0.0369  0.1023 -2.4260
  740MOL0     H 2087  11.398   0.856  10.750 -0.7555  0.7574  2.2393
  740MOL0     H 2088  11.604   0.911  10.899 -1.3177  0.8767 -0.8500
  740MOL0     H 2089  11.671   1.008  10.780  0.5036  0.1713  3.2601
  740MOL0     H 2090  11.658   0.802  10.627 -0.4560 -1.4018  0.7441
  740MOL0     H 2091  11.583   0.714  10.754 -0.7026  1.2683  0.2777
  740MOL0     H 2092  11.792   0.740  10.908  2.0278  0.2135 -0.1865
  740MOL0     H 2093  11.813   0.645  10.762  2.4203  0.0190  0.1119
  740MOL0     H 2094  11.915   0.917  10.824 -2.6933  1.7583 -1.1645
  740MOL0     H 2095  11.903   0.861  10.650  1.6079 -1.2683 -0.6174
  740MOL0     H 2096  12.018   0.659  10.699 -1.1965  0.9484 -0.7467
  740MOL0     H 2097  12.033   0.717  10.873 -1.4143  1.7892  0.0581
  740MOL0     H 2098  12.192   0.882  10.814  3.4197 -1.1045 -0.2878
  740MOL0     H 2099  12.125   0.896  10.656  0.9535 -0.3321  0.5065
  740MOL0     H 2100  11.340   1.283  10.461  2.1705 -1.0747  1.8628
  740MOL0     H 2101  11.297   1.322  10.206 -1.4507 -0.9187  0.2281
  740MOL0     H 2102  11.417   1.376   9.839 -2.7110 -0.1607  0.0705
  740MOL0     H 2103  11.379   1.446   9.614 -0.0283 -0.0890 -1.0778
  740MOL0     H 2104  10.643   2.111   9.995  1.1340  3.4643 -4.3804
  740MOL0     H 2105  10.595   2.179  10.235 -0.8166 -0.9094 -0.5606
  740MOL0     H 2106  10.046   2.248  10.453 -0.4054 -1.6991  2.5364
  740MOL0     H 2107   9.926   2.336  10.651  0.3121  0.1380 -1.4259
  740MOL0     H 2108  10.035   2.373  10.942 -2.1004 -0.0150  2.4966
  740MOL0     H 2109  10.166   2.479  10.943 -0.6489 -0.8353  0.4308
  740MOL0     H 2110   9.888   2.550  11.048  0.3941 -0.4210  1.6724
  740MOL0     H 2111  10.017   2.668  11.028 -1.0425  0.2889  0.8573
  740MOL0     H 2112  10.088   2.422  11.202  0.1033 -0.4606 -3.3209
  740MOL0     H 2113  10.153   2.583  11.178  1.9436 -1.0957  0.3208
  740MOL0     H 2114  10.012   2.706  11.286 -1.6789  0.1656 -3.6694
  740MOL0     H 2115  10.066   2.565  11.379 -1.0535  0.5451  0.8870
  740MOL0     H 2116   9.656   2.455  11.339 -1.3200  2.0878  2.0952
  740MOL0     H 2117  10.218   2.639  10.701  0.0155 -1.7292  1.5038
  740MOL0     H 2118  10.454   2.544  10.490 -0.9507 -0.0140 -1.0185
  740MOL0     H 2119  10.341   2.604  10.368 -0.1849  1.3967 -0.2519
  740MOL0     H 2120  10.354   2.693  10.521  0.4719  1.2107 -1.4169
  741MOL0     O 2121  10.572   5.902   8.256  0.0426  0.1248 -0.0727
  741MOL0     C 2122  10.501   5.883   8.357 -0.2580 -0.2068  0.7208
  741MOL0     O 2123  10.455   5.987   8.441  0.3244  0.3030 -0.7056
  741MOL0     C 2124  10.481   6.118   8.428  0.2482 -0.5388  0.6242
  741MOL0     C 2125  10.466   6.195   8.548 -1.1315 -1.1799  0.5081
  741MOL0     C 2126  10.490   6.334   8.549 -0.4425 -0.9417  1.2763
  741MOL0     C 2127  10.535   6.397   8.433 -0.2291  0.0530 -0.7831
  741MOL0     O 2128  10.533   6.541   8.451  0.2232  0.4538  1.7120
  741MOL0     C 2129  10.557   6.622   8.331  0.3530  0.2174 -0.2387
  741MOL0     C 2130  10.641   6.735   8.385  0.7517 -0.0733  0.0659
  741MOL0     C 2131  10.628   6.850   8.273 -0.2451  0.5195  0.0954
  741MOL0     C 2132  10.710   6.821   8.155  0.1468 -1.0820  0.7060
  741MOL0     C 2133  10.853   6.882   8.157  0.1265  0.6413 -0.6713
  741MOL0     C 2134  10.924   6.859   8.022  0.5532 -0.3103  0.1482
  741MOL0     C 2135  11.068   6.923   8.027 -0.2552  0.1578  0.0996
  741MOL0     C 2136  11.112   6.993   7.898 -0.7808  0.6022  0.5490
  741MOL0     N 2137  11.267   7.001   7.891  1.5269  0.6677  0.7934
  741MOL0     C 2138  11.351   6.925   7.814 -0.4851  0.7237  0.3497
  741MOL0     C 2139  11.474   6.978   7.820  0.3756 -0.8076  0.4562
  741MOL0     C 2140  11.591   6.941   7.727  0.1731 -0.8320  0.0527
  741MOL0     C 2141  11.727   6.935   7.808  0.1865 -0.2379  0.1172
  741MOL0     C 2142  11.775   6.790   7.858  0.7648  0.2894 -0.3040
  741MOL0     C 2143  11.921   6.786   7.899 -0.9935 -0.1701  0.2898
  741MOL0     O 2144  12.008   6.854   7.806  0.5413  0.0434 -0.5285
  741MOL0     C 2145  12.049   6.771   7.698  0.1591  0.3674 -0.5205
  741MOL0     C 2146  12.022   6.636   7.670  0.3629  0.4864  0.7745
  741MOL0     C 2147  12.083   6.564   7.568 -0.3037 -0.2230  0.2218
  741MOL0     C 2148  12.044   6.427   7.545 -0.1909  0.5916 -0.8887
  741MOL0     C 2149  12.164   6.636   7.468 -0.0046  0.2379 -0.4640
  741MOL0     C 2150  12.232   6.563   7.340  0.3789  0.8683 -0.9817
  741MOL0     O 2151  12.329   6.638   7.273 -0.1356  0.0797 -0.2011
  741MOL0     C 2152  12.377   6.608   7.145  0.6355 -1.0717  0.3060
  741MOL0     C 2153  12.499   6.660   7.105 -0.1788 -0.0274  0.2252
  741MOL0     C 2154  12.545   6.638   6.976 -0.7014 -0.1978  0.1600
  741MOL0     C 2155  12.466   6.576   6.883 -0.7568 -0.2312  0.0416
  741MOL0     O 2156  12.519   6.586   6.760  0.5561  0.3027  0.6768
  741MOL0     C 2157  12.536   6.461   6.694 -0.6821 -0.1301  0.1873
  741MOL0     C 2158  12.657   6.484   6.593 -0.0891 -0.1186  0.5199
  741MOL0     C 2159  12.783   6.556   6.644  0.2501  0.6179 -0.4021
  741MOL0     C 2160  12.913   6.536   6.569 -0.4135  0.2705 -0.8282
  741MOL0     C 2161  12.901   6.573   6.421  0.0675 -0.2095  0.2501
  741MOL0     C 2162  13.031   6.542   6.343 -0.1043 -0.0200 -0.3552
  741MOL0     C 2163  13.142   6.644   6.357 -0.6805  0.1830  0.8592
  741MOL0     C 2164  13.214   6.682   6.228  0.0887  0.2840  0.1634
  741MOL0    Cl 2165  13.308   6.551   6.135  0.0011  0.3092 -0.3584
  741MOL0     C 2166  12.352   6.513   6.922 -0.1309 -0.7454 -0.3839
  741MOL0     C 2167  12.303   6.526   7.050 -1.1891  0.4206  0.0055
  741MOL0     O 2168  12.189   6.453   7.309  0.5955 -0.2015  0.3891
  741MOL0     C 2169  12.199   6.766   7.500 -0.2484 -0.9101 -0.4253
  741MOL0     C 2170  12.156   6.830   7.622 -0.1856  0.0620  0.1601
  741MOL0     N 2171  11.468   7.087   7.908 -0.1646 -0.0272  1.0771
  741MOL0     N 2172  11.340   7.103   7.944  0.6806 -0.2436 -0.4176
  741MOL0     C 2173  10.552   6.323   8.315  0.2226  0.4078 -0.6555
  741MOL0     C 2174  10.526   6.185   8.314 -0.4563 -0.3156 -0.7881
  741MOL0     C 2175  10.457   5.745   8.389 -0.1469  0.2119 -0.0388
  741MOL0     C 2176  10.384   5.730   8.499 -0.3683 -0.5976  0.2068
  741MOL0     C 2177  10.324   5.607   8.526 -0.6422  0.2757 -0.2422
  741MOL0     C 2178  10.347   5.496   8.449 -0.4795  0.9872 -0.2764
  741MOL0     O 2179  10.284   5.374   8.462 -0.4159 -0.0160 -0.1122
  741MOL0     C 2180  10.308   5.318   8.594 -0.3927 -0.6491  0.2090
  741MOL0     C 2181  10.438   5.242   8.613 -0.6337  0.2122  0.6514
  741MOL0     C 2182  10.431   5.154   8.733  0.4716  0.5919  0.2618
  741MOL0     C 2183  10.568   5.135   8.775 -0.6604 -0.2903  0.5460
  741MOL0     C 2184  10.626   5.024   8.697 -0.0180  0.2650 -0.5769
  741MOL0     C 2185  10.689   4.934   8.651  0.0567  0.2462 -0.1389
  741MOL0     C 2186  10.429   5.508   8.338  0.3124  0.0984  0.1644
  741MOL0     C 2187  10.475   5.632   8.303 -0.2731 -0.2428 -0.0251
  741MOL0     C 2188  10.556   5.624   8.173  0.2064  0.5137 -0.3681
  741MOL0     H 2189  10.420   6.162   8.640 -2.1770  1.1823  0.9041
  741MOL0     H 2190  10.483   6.400   8.635 -0.0847  0.4823  0.2556
  741MOL0     H 2191  10.458   6.654   8.297 -0.3428 -1.7957 -0.2311
  741MOL0     H 2192  10.618   6.561   8.264  0.0387 -0.5719  0.1882
  741MOL0     H 2193  10.606   6.789   8.474 -1.1382 -1.4562  0.2251
  741MOL0     H 2194  10.745   6.705   8.399  0.3647 -1.2844  0.4200
  741MOL0     H 2195  10.526   6.841   8.235 -1.2639  0.7307  2.5736
  741MOL0     H 2196  10.645   6.949   8.315 -3.1206  1.4671 -0.7941
  741MOL0     H 2197  10.720   6.715   8.130  3.6335 -0.3790 -1.6387
  741MOL0     H 2198  10.653   6.865   8.073  1.2670 -0.0826  0.4288
  741MOL0     H 2199  10.901   6.827   8.239 -1.0601  0.4844 -0.0532
  741MOL0     H 2200  10.850   6.989   8.180 -0.1731  0.7043 -1.0060
  741MOL0     H 2201  10.944   6.752   8.029 -3.6858 -1.1749  2.7002
  741MOL0     H 2202  10.858   6.880   7.937 -1.9735 -0.2783  2.0035
  741MOL0     H 2203  11.140   6.842   8.038  0.2860  0.8404  1.9313
  741MOL0     H 2204  11.071   7.000   8.105 -5.6735 -0.4366  1.2839
  741MOL0     H 2205  11.062   6.942   7.816 -0.4765  1.5614 -0.2539
  741MOL0     H 2206  11.078   7.097   7.890  1.8247  1.6460  1.9230
  741MOL0     H 2207  11.317   6.843   7.753  1.0137 -0.1901  0.6984
  741MOL0     H 2208  11.608   7.021   7.655 -0.7451  0.7070  1.4605
  741MOL0     H 2209  11.572   6.852   7.666  0.9592  0.0998 -1.5926
  741MOL0     H 2210  11.808   6.982   7.751 -1.3760  0.6961 -1.4398
  741MOL0     H 2211  11.718   7.004   7.892  1.6586  0.3658 -0.1869
  741MOL0     H 2212  11.704   6.770   7.939  0.4110 -0.2043 -0.7304
  741MOL0     H 2213  11.764   6.717   7.777 -1.2055 -0.6069  0.6932
  741MOL0     H 2214  11.932   6.832   7.998 -1.3136 -2.5619  1.5029
  741MOL0     H 2215  11.940   6.680   7.916 -0.9420 -0.7722 -2.9627
  741MOL0     H 2216  11.957   6.590   7.745 -1.3147  2.8744  0.9003
  741MOL0     H 2217  11.977   6.442   7.460  1.7156 -0.2227 -2.6157
  741MOL0     H 2218  11.990   6.385   7.631 -2.3135  0.3232 -2.2889
  741MOL0     H 2219  12.125   6.355   7.530 -1.3215 -0.7952 -0.5549
  741MOL0     H 2220  12.562   6.711   7.178  2.0954 -0.3598 -1.3810
  741MOL0     H 2221  12.648   6.663   6.952 -0.3515 -1.1645  0.5923
  741MOL0     H 2222  12.562   6.379   6.761  0.0060  1.4410  1.9067
  741MOL0     H 2223  12.441   6.432   6.648 -1.9475 -0.6928  2.9322
  741MOL0     H 2224  12.694   6.394   6.541 -0.3641 -1.8368  3.1279
  741MOL0     H 2225  12.616   6.558   6.524  0.0170 -0.0054  0.5774
  741MOL0     H 2226  12.784   6.522   6.748  1.0693 -0.6712 -0.8133
  741MOL0     H 2227  12.778   6.665   6.645 -2.6752  0.5725 -0.9542
  741MOL0     H 2228  12.945   6.432   6.578 -0.2914  0.4334  1.0046
  741MOL0     H 2229  12.991   6.604   6.606 -1.0335  0.9997 -0.8193
  741MOL0     H 2230  12.828   6.505   6.377  0.1626 -0.9905  1.2839
  741MOL0     H 2231  12.871   6.679   6.422  1.8271  0.4324 -2.5050
  741MOL0     H 2232  13.002   6.526   6.239  0.3442 -1.2965 -0.2965
  741MOL0     H 2233  13.074   6.444   6.365 -0.9297 -0.6142 -1.2760
  741MOL0     H 2234  13.213   6.610   6.434 -0.3520  1.5768  1.1978
  741MOL0     H 2235  13.090   6.727   6.405 -0.2067 -1.1014  3.8519
  741MOL0     H 2236  13.288   6.755   6.263  0.6596  1.1442 -2.5820
  741MOL0     H 2237  13.127   6.722   6.175 -0.6092  0.3776  1.3312
  741MOL0     H 2238  12.293   6.455   6.851  1.2361 -1.4548 -0.9888
  741MOL0     H 2239  12.211   6.476   7.079 -1.1126  1.1274  1.5473
  741MOL0     H 2240  12.273   6.820   7.443 -1.2294  0.4847 -0.4074
  741MOL0     H 2241  12.198   6.921   7.663  0.6588 -0.8938  1.5167
  741MOL0     H 2242  10.587   6.370   8.224 -0.7205 -1.9531 -2.3356
  741MOL0     H 2243  10.538   6.138   8.217  1.0252  1.5826 -1.5941
  741MOL0     H 2244  10.364   5.806   8.574 -1.0281  0.2907 -0.8563
  741MOL0     H 2245  10.243   5.596   8.598 -2.0794 -0.7379 -1.9552
  741MOL0     H 2246  10.304   5.392   8.675  3.1058 -1.2781  1.1065
  741MOL0     H 2247  10.222   5.251   8.605 -2.2454  1.7513  1.4127
  741MOL0     H 2248  10.508   5.325   8.628 -1.9013  1.1461  1.5601
  741MOL0     H 2249  10.459   5.190   8.519 -0.8357 -1.5288  1.5329
  741MOL0     H 2250  10.383   5.212   8.813  0.9741 -1.9140  2.5346
  741MOL0     H 2251  10.372   5.064   8.716  0.2983  1.1131 -2.2770
  741MOL0     H 2252  10.584   5.098   8.876  3.7259  1.8119  0.8743
  741MOL0     H 2253  10.625   5.228   8.765 -2.1549  0.5079 -1.2259
  741MOL0     H 2254  10.736   4.851   8.602 -0.4396  0.7509 -1.4953
  741MOL0     H 2255  10.430   5.415   8.283 -3.9348 -0.9876  1.5614
  741MOL0     H 2256  10.535   5.528   8.126 -3.9032  0.7344  0.5949
  741MOL0     H 2257  10.522   5.704   8.106 -2.1940  1.0373  1.3633
  741MOL0     H 2258  10.663   5.633   8.193  0.5924  3.2890 -2.8667
  742MOL0     O 2259   4.122   8.517   8.831 -0.3756  0.2367  0.7192
  742MOL0     C 2260   4.240   8.479   8.824 -0.2665 -0.0974  0.0996
  742MOL0     O 2261   4.309   8.424   8.932  0.0249 -0.3954  0.8026
  742MOL0     C 2262   4.241   8.370   9.033  0.5979 -0.3383 -0.2346
  742MOL0     C 2263   4.186   8.237   9.021 -0.7649  0.6279 -0.2061
  742MOL0     C 2264   4.110   8.176   9.120 -0.0490 -0.2590 -0.5213
  742MOL0     C 2265   4.063   8.263   9.234 -0.5489  0.1918 -0.2980
  742MOL0     O 2266   3.986   8.207   9.331 -0.2526 -0.4345  0.0478
  742MOL0     C 2267   3.994   8.269   9.461  0.0891 -0.1086 -0.1811
  742MOL0     C 2268   3.910   8.211   9.569  0.2339 -0.9740 -0.3255
  742MOL0     C 2269   3.950   8.255   9.706 -0.6645 -0.6495 -0.5400
  742MOL0     C 2270   4.070   8.175   9.763 -0.6459  0.3325  0.4460
  742MOL0     C 2271   4.121   8.244   9.885 -0.0730 -0.1390  0.5966
  742MOL0     C 2272   4.203   8.150   9.972 -0.1323  0.0336 -0.3881
  742MOL0     C 2273   4.254   8.224  10.093  0.1136 -0.3895  0.0284
  742MOL0     C 2274   4.307   8.119  10.193  0.6777  0.0834  0.3075
  742MOL0     N 2275   4.376   8.177  10.301 -0.0803 -0.3069  1.2150
  742MOL0     C 2276   4.487   8.253  10.272  0.3472  0.8109  0.2162
  742MOL0     C 2277   4.523   8.312  10.388  0.3001 -0.9652 -0.3677
  742MOL0     C 2278   4.627   8.411  10.408  0.4671 -0.3149 -0.3028
  742MOL0     C 2279   4.757   8.384  10.341 -0.5583 -0.3910  0.0606
  742MOL0     C 2280   4.872   8.461  10.412  1.8270  0.7546  0.0641
  742MOL0     C 2281   5.016   8.393  10.385  0.8371 -0.5202  0.4670
  742MOL0     O 2282   5.017   8.262  10.442  0.3411 -1.0978  1.0009
  742MOL0     C 2283   5.121   8.182  10.426  0.3017 -0.3774  0.4469
  742MOL0     C 2284   5.106   8.054  10.387 -0.5652  0.6766  1.0750
  742MOL0     C 2285   5.206   7.959  10.368 -0.7669 -1.3903  0.0066
  742MOL0     C 2286   5.170   7.826  10.308 -0.5958 -0.2245 -0.5605
  742MOL0     C 2287   5.345   8.004  10.384  0.8542 -0.1196 -0.8769
  742MOL0     C 2288   5.460   7.923  10.342  0.6928 -0.0024 -0.6090
  742MOL0     O 2289   5.561   7.986  10.282 -0.2029 -0.5271  0.1624
  742MOL0     C 2290   5.682   7.928  10.273 -0.6116  0.8812  0.4094
  742MOL0     C 2291   5.761   7.968  10.166 -0.5641  0.4107 -0.1008
  742MOL0     C 2292   5.875   7.900  10.118 -0.3108 -0.7916 -0.5365
  742MOL0     C 2293   5.916   7.796  10.191 -0.7375 -0.0589 -0.2811
  742MOL0     O 2294   6.028   7.732  10.146 -0.4979 -0.3534  0.4542
  742MOL0     C 2295   6.020   7.593  10.107 -0.3526 -0.9238  0.7157
  742MOL0     C 2296   5.899   7.554  10.017  0.5396 -0.7358 -0.3077
  742MOL0     C 2297   5.909   7.620   9.877 -0.0167 -0.3679  0.3378
  742MOL0     C 2298   6.039   7.592   9.797  0.0261  0.1564 -0.3006
  742MOL0     C 2299   6.017   7.459   9.719  0.1890  0.5223 -1.0295
  742MOL0     C 2300   6.086   7.451   9.586  0.2767 -0.3385  0.1910
  742MOL0     C 2301   6.127   7.307   9.553 -0.2297 -0.9159 -0.5031
  742MOL0     C 2302   6.000   7.222   9.521 -0.8957 -0.2225  0.1393
  742MOL0    Cl 2303   5.903   7.307   9.395 -0.2448  0.0458 -0.1862
  742MOL0     C 2304   5.864   7.768  10.321 -0.3348 -0.5129  0.3063
  742MOL0     C 2305   5.738   7.831  10.351 -0.0333  0.2569 -0.3829
  742MOL0     O 2306   5.457   7.810  10.379 -0.2607  0.0069  0.7364
  742MOL0     C 2307   5.366   8.136  10.428  0.4885  0.7206 -0.1653
  742MOL0     C 2308   5.257   8.221  10.447  0.0636  0.8107  0.1870
  742MOL0     N 2309   4.452   8.249  10.483 -0.2653  0.2708  0.2702
  742MOL0     N 2310   4.361   8.164  10.429 -0.1653 -0.4947 -1.1465
  742MOL0     C 2311   4.116   8.395   9.238  0.6328  0.0185 -0.3879
  742MOL0     C 2312   4.192   8.448   9.137 -0.5091  0.6728 -0.8405
  742MOL0     C 2313   4.328   8.513   8.707  0.8562 -0.3410 -0.6250
  742MOL0     C 2314   4.466   8.497   8.723 -0.1352  0.0033 -0.1841
  742MOL0     C 2315   4.550   8.536   8.613  1.5592  0.6834 -0.1196
  742MOL0     C 2316   4.504   8.591   8.498  0.4452 -0.1636 -0.2781
  742MOL0     O 2317   4.594   8.652   8.423 -0.0251 -0.2675  0.6254
  742MOL0     C 2318   4.549   8.718   8.309 -0.1521 -0.2688  0.8587
  742MOL0     C 2319   4.676   8.784   8.235  0.3205  0.7613  0.3649
  742MOL0     C 2320   4.770   8.866   8.327  0.2529 -0.0368 -0.3943
  742MOL0     C 2321   4.707   8.986   8.402  0.1074 -0.5629  0.0193
  742MOL0     C 2322   4.682   9.094   8.302 -0.2221 -0.2873 -0.1479
  742MOL0     C 2323   4.658   9.169   8.211  0.0751  0.4156 -0.5653
  742MOL0     C 2324   4.366   8.591   8.483  0.2667  0.3325  0.6181
  742MOL0     C 2325   4.280   8.550   8.575  0.1124  0.3652 -1.0216
  742MOL0     C 2326   4.133   8.562   8.543 -0.6821 -0.0991  0.4903
  742MOL0     H 2327   4.208   8.185   8.928 -1.5251  0.4007 -0.2675
  742MOL0     H 2328   4.075   8.075   9.107 -1.8219  0.3671 -0.7878
  742MOL0     H 2329   3.961   8.372   9.446  2.0289  0.4686 -0.8073
  742MOL0     H 2330   4.100   8.272   9.489  1.1915 -3.3669 -3.2626
  742MOL0     H 2331   3.810   8.252   9.553  0.8901  0.3494 -1.2211
  742MOL0     H 2332   3.896   8.103   9.556  0.6746 -0.9790 -0.7917
  742MOL0     H 2333   3.979   8.360   9.711 -0.9388 -0.6189  1.3653
  742MOL0     H 2334   3.872   8.256   9.782 -0.4202  0.2702 -0.2933
  742MOL0     H 2335   4.048   8.069   9.781 -0.4114  0.2062  0.0012
  742MOL0     H 2336   4.151   8.179   9.690  0.4764 -1.8104  1.4703
  742MOL0     H 2337   4.035   8.279   9.942 -0.5042 -0.9554  0.4560
  742MOL0     H 2338   4.172   8.338   9.862 -0.3532 -0.4155 -1.2937
  742MOL0     H 2339   4.150   8.060  10.003 -0.2933 -0.8477 -2.9488
  742MOL0     H 2340   4.291   8.111   9.919  1.0663  1.6952  0.3076
  742MOL0     H 2341   4.173   8.283  10.137 -1.4191 -1.6490 -1.0002
  742MOL0     H 2342   4.335   8.291  10.062 -0.6949  1.3583  1.5559
  742MOL0     H 2343   4.214   8.080  10.237  0.0597  0.7781 -0.3417
  742MOL0     H 2344   4.366   8.041  10.145  0.3545 -0.1232  0.2427
  742MOL0     H 2345   4.521   8.279  10.172  0.8474 -0.7866 -0.0644
  742MOL0     H 2346   4.642   8.412  10.516  1.2682  0.5331 -0.4095
  742MOL0     H 2347   4.596   8.510  10.374  0.9322 -0.1575 -0.2745
  742MOL0     H 2348   4.784   8.280  10.360  0.2348  0.1566  2.3305
  742MOL0     H 2349   4.757   8.406  10.234  3.2549 -1.1258 -0.2199
  742MOL0     H 2350   4.870   8.568  10.389 -0.8408  0.7360 -0.1711
  742MOL0     H 2351   4.851   8.450  10.518  1.4841 -1.7376 -0.2056
  742MOL0     H 2352   5.037   8.388  10.278 -1.2360 -1.6469  0.0652
  742MOL0     H 2353   5.095   8.447  10.439  0.0829 -0.9266  2.0406
  742MOL0     H 2354   5.012   8.011  10.355  0.6023 -0.2368 -1.4114
  742MOL0     H 2355   5.240   7.815  10.224  0.5082 -0.9403  0.4291
  742MOL0     H 2356   5.065   7.829  10.279 -0.5423  2.6145 -0.7772
  742MOL0     H 2357   5.197   7.746  10.377 -2.5837  0.9694  1.7390
  742MOL0     H 2358   5.724   8.056  10.115  2.3900  2.4532  0.9903
  742MOL0     H 2359   5.916   7.940  10.026  0.8828  1.4223  0.8528
  742MOL0     H 2360   6.119   7.567  10.067  1.1900  2.8694  1.6514
  742MOL0     H 2361   6.019   7.537  10.200  2.0284 -0.2927  1.1928
  742MOL0     H 2362   5.900   7.445  10.008  1.7285 -0.7249 -0.5081
  742MOL0     H 2363   5.803   7.579  10.064 -0.0347 -2.8970 -0.2179
  742MOL0     H 2364   5.928   7.726   9.896 -0.2394 -0.2480 -0.1149
  742MOL0     H 2365   5.815   7.610   9.823 -1.2250 -4.8115  2.7532
  742MOL0     H 2366   6.135   7.587   9.850  0.2371  2.6746 -0.3292
  742MOL0     H 2367   6.048   7.676   9.728  1.3653  1.2233  1.0912
  742MOL0     H 2368   6.038   7.370   9.778  0.2795  0.9950 -0.3284
  742MOL0     H 2369   5.909   7.455   9.700  0.1856  1.7024 -1.3213
  742MOL0     H 2370   6.175   7.513   9.597  0.6959 -0.6772 -1.1927
  742MOL0     H 2371   6.023   7.494   9.508  0.1635 -0.1192  0.3997
  742MOL0     H 2372   6.176   7.256   9.635  0.1215 -0.6903 -0.5708
  742MOL0     H 2373   6.188   7.309   9.462 -3.2995  1.7398 -2.7287
  742MOL0     H 2374   5.941   7.198   9.610  0.7152  3.0011  2.2686
  742MOL0     H 2375   6.034   7.129   9.475 -0.4585  0.0506 -0.0992
  742MOL0     H 2376   5.915   7.699  10.387  1.9318  1.5725  0.8984
  742MOL0     H 2377   5.683   7.781  10.430  0.9656  0.9619  0.7761
  742MOL0     H 2378   5.469   8.169  10.439  1.8573 -3.7410  3.2952
  742MOL0     H 2379   5.263   8.328  10.468 -0.2813  1.8227 -3.8704
  742MOL0     H 2380   4.079   8.463   9.314 -0.4187  0.4427 -1.2559
  742MOL0     H 2381   4.220   8.553   9.136 -1.8593  1.3266  3.9507
  742MOL0     H 2382   4.522   8.472   8.812 -1.8184 -1.1981  0.5834
  742MOL0     H 2383   4.657   8.526   8.623  2.0133  2.2688 -2.5572
  742MOL0     H 2384   4.492   8.648   8.247 -4.0309  2.8377  0.5079
  742MOL0     H 2385   4.477   8.797   8.334 -1.1819 -1.2039  0.9237
  742MOL0     H 2386   4.641   8.854   8.159  0.7150  2.1636  1.4417
  742MOL0     H 2387   4.745   8.715   8.186 -0.0949 -0.8249  1.8984
  742MOL0     H 2388   4.788   8.792   8.406 -1.7342 -1.0672 -0.8447
  742MOL0     H 2389   4.864   8.902   8.285  1.1587  0.7050  2.0898
  742MOL0     H 2390   4.781   9.024   8.473  0.7136  0.0597 -0.9294
  742MOL0     H 2391   4.611   8.975   8.454 -0.5821  3.0690 -0.2729
  742MOL0     H 2392   4.620   9.233   8.135 -2.7333  0.5229  0.7905
  742MOL0     H 2393   4.319   8.636   8.396 -1.0427 -2.1897 -0.0732
  742MOL0     H 2394   4.088   8.643   8.601  3.3712  2.2460  0.7074
  742MOL0     H 2395   4.120   8.583   8.436  1.2921 -0.5819  0.1057
  742MOL0     H 2396   4.077   8.468   8.554 -0.4342 -0.0506  2.4783
  743MOL0     O 2397   1.402   4.754   0.757  0.1440  0.1296  0.0030
  743MOL0     C 2398   1.512   4.813   0.772 -0.6139  1.5248 -0.1117
  743MOL0     O 2399   1.635   4.743   0.765 -0.2150  0.4092 -0.5756
  743MOL0     C 2400   1.617   4.609   0.738 -0.6789 -0.0193 -0.6110
  743MOL0     C 2401   1.599   4.559   0.618  0.8148  0.4720 -0.8421
  743MOL0     C 2402   1.601   4.420   0.595 -0.9865  0.0625  0.3935
  743MOL0     C 2403   1.625   4.330   0.693 -0.1064 -0.3105 -0.2139
  743MOL0     O 2404   1.634   4.198   0.676 -0.1586  0.8081  0.0755
  743MOL0     C 2405   1.674   4.137   0.554  0.3021  0.7076 -0.3121
  743MOL0     C 2406   1.688   3.997   0.587 -0.4499 -0.6088  0.2022
  743MOL0     C 2407   1.573   3.918   0.527 -0.2438 -0.0835 -1.3955
  743MOL0     C 2408   1.620   3.772   0.506 -0.4547 -0.3990  0.4204
  743MOL0     C 2409   1.494   3.678   0.508  0.2173  0.3670 -0.0205
  743MOL0     C 2410   1.398   3.715   0.393 -0.2896  0.1283 -0.4017
  743MOL0     C 2411   1.333   3.585   0.340  0.2063 -0.3687 -0.6818
  743MOL0     C 2412   1.214   3.623   0.244 -0.4482  1.0054  0.0938
  743MOL0     N 2413   1.236   3.736   0.159  0.3398 -0.2066 -0.1111
  743MOL0     C 2414   1.140   3.831   0.126 -0.0580  0.2663  0.6407
  743MOL0     C 2415   1.189   3.901   0.019  0.4091 -0.3644 -0.2867
  743MOL0     C 2416   1.098   3.996  -0.063 -1.1397 -0.6690 -0.1575
  743MOL0     C 2417   1.161   4.018  -0.197 -0.5485 -0.1994  0.0246
  743MOL0     C 2418   1.072   4.113  -0.288 -0.2713  0.4690  0.4854
  743MOL0     C 2419   1.085   4.270  -0.266 -0.2945 -0.7719 -0.0855
  743MOL0     O 2420   1.049   4.349  -0.381 -0.2123 -0.0709  0.1036
  743MOL0     C 2421   1.141   4.366  -0.487 -0.9922 -0.7082  0.0623
  743MOL0     C 2422   1.253   4.285  -0.514 -0.7371  0.7316  0.5537
  743MOL0     C 2423   1.333   4.288  -0.630 -0.1513 -0.2088 -0.4387
  743MOL0     C 2424   1.442   4.184  -0.638  0.7478  0.5280  0.1743
  743MOL0     C 2425   1.296   4.373  -0.728 -0.2906 -0.1243  0.0016
  743MOL0     C 2426   1.361   4.380  -0.862 -0.1874 -0.2044 -0.3081
  743MOL0     O 2427   1.329   4.487  -0.935  0.1083 -0.0417 -0.7885
  743MOL0     C 2428   1.302   4.483  -1.073 -0.0714  0.4973 -0.3381
  743MOL0     C 2429   1.281   4.603  -1.133 -1.5115 -0.7826 -0.1710
  743MOL0     C 2430   1.256   4.613  -1.268 -0.4687 -0.0490 -0.4281
  743MOL0     C 2431   1.245   4.495  -1.350 -1.0858  0.4567  0.8730
  743MOL0     O 2432   1.202   4.493  -1.478 -0.2255  0.2627  0.1321
  743MOL0     C 2433   1.200   4.622  -1.551  0.4127 -0.2233 -0.3310
  743MOL0     C 2434   1.114   4.602  -1.670  0.9855 -0.2361 -0.1568
  743MOL0     C 2435   1.152   4.494  -1.770  0.5764  0.4244 -0.5788
  743MOL0     C 2436   1.068   4.495  -1.903  0.2934  0.5569  0.1665
  743MOL0     C 2437   1.065   4.353  -1.964  0.9095 -0.0736  0.8851
  743MOL0     C 2438   1.197   4.326  -2.037 -0.7657 -0.0696  0.6439
  743MOL0     C 2439   1.193   4.204  -2.135 -0.8323 -0.7092 -0.5690
  743MOL0     C 2440   1.084   4.234  -2.236 -0.1194 -0.1150  0.5062
  743MOL0    Cl 2441   1.101   4.131  -2.367  0.1600  0.0932 -0.3543
  743MOL0     C 2442   1.271   4.373  -1.286  0.4989  0.4790  0.1504
  743MOL0     C 2443   1.297   4.363  -1.146 -0.6742  0.3282 -0.1882
  743MOL0     O 2444   1.445   4.295  -0.892 -0.2414 -0.2257  0.6640
  743MOL0     C 2445   1.185   4.458  -0.703 -0.6694 -0.3247 -0.1924
  743MOL0     C 2446   1.110   4.453  -0.590  0.9562 -1.0821  0.0264
  743MOL0     N 2447   1.311   3.857  -0.014 -0.9481 -0.1602 -0.4733
  743MOL0     N 2448   1.339   3.762   0.073  0.3455 -0.3060  0.0176
  743MOL0     C 2449   1.644   4.382   0.822  0.3762 -0.9008  1.2091
  743MOL0     C 2450   1.643   4.519   0.840  0.4014  0.5570  0.9254
  743MOL0     C 2451   1.530   4.962   0.809 -0.2154  0.5613  0.6151
  743MOL0     C 2452   1.632   4.993   0.893  0.7257  0.0895  0.5907
  743MOL0     C 2453   1.666   5.124   0.921  0.6176  0.1956 -0.2186
  743MOL0     C 2454   1.586   5.227   0.868 -1.6194  0.5469  0.0236
  743MOL0     O 2455   1.611   5.361   0.903  0.7408 -0.3287 -0.6042
  743MOL0     C 2456   1.650   5.453   0.801 -0.0048  0.2320  0.0815
  743MOL0     C 2457   1.799   5.438   0.759  0.3347 -0.2692 -0.0025
  743MOL0     C 2458   1.888   5.516   0.858 -1.1650 -0.6040 -0.0986
  743MOL0     C 2459   2.033   5.508   0.817 -0.0458  0.4729 -0.8843
  743MOL0     C 2460   2.088   5.374   0.790 -0.4720 -0.5951  0.5157
  743MOL0     C 2461   2.143   5.266   0.773  0.1816  0.2156  0.7600
  743MOL0     C 2462   1.482   5.198   0.784  0.6644 -0.2219 -1.0122
  743MOL0     C 2463   1.447   5.065   0.753 -0.1925 -0.2883  0.3625
  743MOL0     C 2464   1.326   5.044   0.674 -0.0840  1.3749 -0.0229
  743MOL0     H 2465   1.597   4.630   0.536  2.1227 -1.4426 -2.6500
  743MOL0     H 2466   1.595   4.397   0.489 -0.8664  3.3199 -0.4367
  743MOL0     H 2467   1.770   4.176   0.518  0.4115  0.0516 -0.7367
  743MOL0     H 2468   1.593   4.163   0.484 -0.9428  0.9884  1.1655
  743MOL0     H 2469   1.784   3.959   0.550 -0.4050 -0.2656 -0.0332
  743MOL0     H 2470   1.689   3.987   0.696 -0.4073  1.7268  0.4726
  743MOL0     H 2471   1.492   3.917   0.601  1.3235  0.4582  0.3939
  743MOL0     H 2472   1.529   3.960   0.436 -2.5834  2.2243  0.6387
  743MOL0     H 2473   1.669   3.770   0.409 -1.2177  5.4651 -0.4384
  743MOL0     H 2474   1.698   3.757   0.582  0.9645  3.8584  0.0604
  743MOL0     H 2475   1.442   3.697   0.602 -3.5674 -1.8084 -1.4532
  743MOL0     H 2476   1.528   3.574   0.511  1.1660  0.6768  2.4769
  743MOL0     H 2477   1.326   3.787   0.434  1.4687 -0.0415  3.3903
  743MOL0     H 2478   1.449   3.766   0.310  0.3282  0.7595  0.3461
  743MOL0     H 2479   1.317   3.511   0.419  1.7116  0.0477  0.0540
  743MOL0     H 2480   1.409   3.539   0.277  1.8969 -1.0294  1.6953
  743MOL0     H 2481   1.191   3.531   0.191  0.2629  0.9751 -0.1743
  743MOL0     H 2482   1.126   3.636   0.308 -0.3511 -1.1182  0.7114
  743MOL0     H 2483   1.040   3.846   0.164 -0.6307 -0.5722 -0.4880
  743MOL0     H 2484   1.088   4.089  -0.007  1.2801 -1.8422  2.4987
  743MOL0     H 2485   1.004   3.940  -0.066 -0.9974 -0.9893  0.7736
  743MOL0     H 2486   1.258   4.060  -0.169 -0.9697  0.5906  0.3177
  743MOL0     H 2487   1.176   3.925  -0.252  0.3609  0.0019 -0.0889
  743MOL0     H 2488   1.091   4.094  -0.394 -2.8079 -0.7002  0.1689
  743MOL0     H 2489   0.967   4.088  -0.269 -0.1606  2.0253  3.6933
  743MOL0     H 2490   1.016   4.305  -0.188 -2.7963 -2.4474 -1.4064
  743MOL0     H 2491   1.188   4.299  -0.244 -0.3540  1.2619 -2.1404
  743MOL0     H 2492   1.288   4.204  -0.451  4.0438  0.7872 -1.5861
  743MOL0     H 2493   1.532   4.228  -0.682 -0.8091  1.7732 -1.9895
  743MOL0     H 2494   1.412   4.091  -0.689 -1.1748  2.7658 -3.1537
  743MOL0     H 2495   1.468   4.144  -0.540  0.8914  1.3069  0.4583
  743MOL0     H 2496   1.304   4.686  -1.067 -0.0101  0.4467 -2.1280
  743MOL0     H 2497   1.251   4.712  -1.311 -0.0326  0.2473  0.1850
  743MOL0     H 2498   1.156   4.707  -1.498 -0.3123 -1.7175  1.6090
  743MOL0     H 2499   1.304   4.631  -1.584  1.1498 -2.9249  0.9315
  743MOL0     H 2500   1.015   4.572  -1.634  0.8651  0.0039 -0.2901
  743MOL0     H 2501   1.108   4.690  -1.735  3.7530  0.8682  0.9179
  743MOL0     H 2502   1.133   4.393  -1.731  1.6241 -0.7949 -3.0192
  743MOL0     H 2503   1.258   4.502  -1.796  0.8011 -2.8172 -1.1738
  743MOL0     H 2504   1.103   4.568  -1.976 -0.0220 -1.0700 -1.7016
  743MOL0     H 2505   0.966   4.527  -1.885 -0.5820 -1.8558 -0.0774
  743MOL0     H 2506   1.041   4.276  -1.890  2.0621  2.0789  3.7198
  743MOL0     H 2507   0.981   4.356  -2.034  0.2694 -0.2740  1.6312
  743MOL0     H 2508   1.285   4.315  -1.972 -1.4211  0.5734  1.6596
  743MOL0     H 2509   1.229   4.407  -2.102 -2.3163  0.5379  0.5976
  743MOL0     H 2510   1.171   4.111  -2.083  1.1019 -1.6981 -1.4206
  743MOL0     H 2511   1.288   4.199  -2.188  0.5260 -3.5079  1.8485
  743MOL0     H 2512   1.077   4.336  -2.276  2.9743  1.3043  3.1692
  743MOL0     H 2513   0.983   4.207  -2.202  0.2530  0.0810  1.8049
  743MOL0     H 2514   1.264   4.277  -1.334  1.3448  0.0161  0.9113
  743MOL0     H 2515   1.316   4.270  -1.093 -3.3452  0.3108  0.9190
  743MOL0     H 2516   1.169   4.538  -0.774  4.3834 -0.0187 -1.3731
  743MOL0     H 2517   1.025   4.521  -0.591  1.6982 -0.0019 -3.6680
  743MOL0     H 2518   1.658   4.302   0.894  0.5366 -1.7212  0.2971
  743MOL0     H 2519   1.670   4.548   0.941 -0.8463  4.4015  0.3419
  743MOL0     H 2520   1.698   4.908   0.913  2.4487  0.8190 -1.5690
  743MOL0     H 2521   1.745   5.156   0.989  1.4812 -0.8706 -0.6897
  743MOL0     H 2522   1.602   5.433   0.704  2.3274 -1.1187 -0.8771
  743MOL0     H 2523   1.615   5.551   0.836 -1.4216  0.0137 -0.6372
  743MOL0     H 2524   1.812   5.462   0.653 -1.2917  0.2778 -0.1121
  743MOL0     H 2525   1.830   5.334   0.771 -0.2615 -0.6708 -1.6901
  743MOL0     H 2526   1.855   5.620   0.860 -3.0401 -1.1724  1.3582
  743MOL0     H 2527   1.886   5.461   0.953  1.9412 -0.9933 -0.1584
  743MOL0     H 2528   2.101   5.555   0.888 -1.1135  2.0561 -0.8615
  743MOL0     H 2529   2.043   5.558   0.720  0.6864  0.6161 -0.7379
  743MOL0     H 2530   2.170   5.165   0.754 -2.0561 -0.0710 -1.5556
  743MOL0     H 2531   1.411   5.271   0.745  2.4767  0.4629 -3.2300
  743MOL0     H 2532   1.351   5.065   0.569 -1.2305 -0.3595 -0.6803
  743MOL0     H 2533   1.290   4.941   0.688  1.5118  0.2692 -3.0763
  743MOL0     H 2534   1.239   5.109   0.683 -2.0211 -1.0145 -0.4141
  744MOL0     O 2535   0.567   6.457   0.864  1.3422  1.2726 -0.6144
  744MOL0     C 2536   0.514   6.355   0.901  0.2236 -0.3872 -0.2641
  744MOL0     O 2537   0.495   6.244   0.837  0.3184  0.1935  0.1005
  744MOL0     C 2538   0.571   6.215   0.723  1.5466 -1.5149  0.0391
  744MOL0     C 2539   0.504   6.183   0.602  0.4556  0.3428  0.0397
  744MOL0     C 2540   0.574   6.172   0.475 -0.5189  0.2071 -0.0389
  744MOL0     C 2541   0.713   6.190   0.477  0.9244 -0.1045 -0.5792
  744MOL0     O 2542   0.793   6.184   0.366  0.4513  0.9992  0.5213
  744MOL0     C 2543   0.753   6.093   0.250  0.0276 -0.6756 -0.6250
  744MOL0     C 2544   0.821   6.152   0.129  0.1750 -0.8282 -0.3907
  744MOL0     C 2545   0.766   6.286   0.100  0.2598  0.1702  0.8704
  744MOL0     C 2546   0.632   6.303   0.026 -0.4294 -0.2427 -0.8437
  744MOL0     C 2547   0.610   6.451  -0.024  0.0311  0.1411  0.5641
  744MOL0     C 2548   0.471   6.481  -0.082  1.1077  0.5166 -0.0466
  744MOL0     C 2549   0.404   6.416  -0.200  0.0907 -0.1335 -0.3930
  744MOL0     C 2550   0.482   6.435  -0.328  0.8784  0.0555 -0.3778
  744MOL0     N 2551   0.412   6.356  -0.427  0.2573 -0.3935 -0.4312
  744MOL0     C 2552   0.435   6.223  -0.448  0.2777 -0.4579  0.1494
  744MOL0     C 2553   0.374   6.200  -0.564 -0.1383  1.0270  0.2814
  744MOL0     C 2554   0.389   6.066  -0.633  0.0438  0.4877 -0.3715
  744MOL0     C 2555   0.421   6.063  -0.779 -0.2776  0.1606  0.0451
  744MOL0     C 2556   0.535   6.153  -0.830 -0.4612 -0.5729 -0.6123
  744MOL0     C 2557   0.668   6.118  -0.766 -0.5304 -0.3819 -0.3409
  744MOL0     O 2558   0.730   6.010  -0.834  0.1571  0.9334  0.6517
  744MOL0     C 2559   0.796   5.917  -0.751 -0.4724 -0.9526  0.6083
  744MOL0     C 2560   0.905   5.929  -0.678 -0.8493 -0.2242 -0.3332
  744MOL0     C 2561   0.949   5.834  -0.575 -0.3972 -0.2768  1.0947
  744MOL0     C 2562   1.044   5.879  -0.476 -0.1301 -0.1522 -0.7448
  744MOL0     C 2563   0.882   5.713  -0.563 -0.0297  0.4775  0.4626
  744MOL0     C 2564   0.924   5.612  -0.472  0.4258 -0.5196 -0.0958
  744MOL0     O 2565   1.059   5.577  -0.454  0.4610 -0.4016  0.1217
  744MOL0     C 2566   1.110   5.477  -0.370  0.3216  0.2254 -0.4398
  744MOL0     C 2567   1.028   5.403  -0.275  0.1906 -0.3546 -0.7718
  744MOL0     C 2568   1.087   5.310  -0.189 -0.5458 -0.0910 -0.6640
  744MOL0     C 2569   1.223   5.296  -0.183 -0.1732  1.4644  1.2668
  744MOL0     O 2570   1.278   5.207  -0.087 -0.3714  0.2432 -0.1918
  744MOL0     C 2571   1.422   5.174  -0.094  0.1835  0.1500 -0.1076
  744MOL0     C 2572   1.443   5.047  -0.174  0.3906  0.5818 -0.1820
  744MOL0     C 2573   1.372   4.920  -0.123 -0.3379 -0.1232  0.1762
  744MOL0     C 2574   1.394   4.815  -0.227 -0.0453  0.4183 -0.6735
  744MOL0     C 2575   1.328   4.683  -0.190  0.0621 -0.4903 -0.2008
  744MOL0     C 2576   1.363   4.578  -0.301  0.3035  1.1498  0.2863
  744MOL0     C 2577   1.496   4.506  -0.259  1.0910 -0.2588 -0.9707
  744MOL0     C 2578   1.518   4.380  -0.326  0.3732 -0.5678  0.4605
  744MOL0    Cl 2579   1.686   4.337  -0.343 -0.0225 -0.1900 -0.2626
  744MOL0     C 2580   1.299   5.350  -0.287 -1.4355 -0.9924  0.7311
  744MOL0     C 2581   1.245   5.448  -0.377 -0.5780  0.8188  0.8876
  744MOL0     O 2582   0.834   5.571  -0.407  0.4989 -0.3364  0.3587
  744MOL0     C 2583   0.783   5.692  -0.665  0.0701 -0.3554 -0.3660
  744MOL0     C 2584   0.736   5.789  -0.750  0.9182  0.5275 -0.6490
  744MOL0     N 2585   0.308   6.310  -0.613 -0.1334  0.1159  0.6573
  744MOL0     N 2586   0.347   6.409  -0.533 -0.7023 -0.5317 -0.6626
  744MOL0     C 2587   0.768   6.216   0.597  0.4066  1.1528 -0.8033
  744MOL0     C 2588   0.700   6.238   0.717  0.7883 -0.4456 -0.4248
  744MOL0     C 2589   0.454   6.360   1.043  0.0764 -0.2492  0.7583
  744MOL0     C 2590   0.515   6.446   1.134 -0.3968 -0.5081 -0.9385
  744MOL0     C 2591   0.478   6.443   1.265  0.2605 -0.4692 -0.7058
  744MOL0     C 2592   0.384   6.358   1.321  0.0409  0.3494 -0.7702
  744MOL0     O 2593   0.357   6.348   1.454  0.1673  0.7184 -0.3075
  744MOL0     C 2594   0.217   6.376   1.486  0.0670 -0.1301 -0.1190
  744MOL0     C 2595   0.207   6.491   1.586  0.3067 -0.8246  0.1485
  744MOL0     C 2596   0.232   6.622   1.499  0.6514  0.5629  0.6605
  744MOL0     C 2597   0.218   6.754   1.577 -0.2518 -0.1605  0.7817
  744MOL0     C 2598   0.242   6.859   1.479  0.0410  0.4209  0.4463
  744MOL0     C 2599   0.295   6.939   1.400  0.0429 -0.2754 -0.5152
  744MOL0     C 2600   0.328   6.266   1.233  0.3584 -0.5343  0.3484
  744MOL0     C 2601   0.357   6.269   1.092 -0.7193 -0.3773 -0.0227
  744MOL0     C 2602   0.282   6.168   0.999  0.2483  0.3289 -0.0324
  744MOL0     H 2603   0.397   6.189   0.588  0.6872 -0.6814 -2.9235
  744MOL0     H 2604   0.519   6.148   0.384 -0.2848  2.8396 -0.9472
  744MOL0     H 2605   0.645   6.077   0.238 -0.0130 -2.4414  1.4102
  744MOL0     H 2606   0.797   5.997   0.278  3.1587  0.6431 -0.6505
  744MOL0     H 2607   0.930   6.153   0.142  0.1290 -1.9095  0.2331
  744MOL0     H 2608   0.803   6.096   0.037 -0.6138  0.8127 -1.2653
  744MOL0     H 2609   0.752   6.350   0.188 -1.2885  0.9399  0.1144
  744MOL0     H 2610   0.847   6.333   0.044  1.1560 -0.5401  1.5520
  744MOL0     H 2611   0.632   6.238  -0.061 -1.1928 -1.7583  0.2497
  744MOL0     H 2612   0.548   6.272   0.088  0.9400  0.0612  1.2817
  744MOL0     H 2613   0.687   6.456  -0.102  3.0637 -3.7317  2.9535
  744MOL0     H 2614   0.629   6.526   0.053 -1.9660 -0.2670  1.5310
  744MOL0     H 2615   0.398   6.464  -0.002  1.5852  1.6616  0.6404
  744MOL0     H 2616   0.464   6.589  -0.096 -0.6684  0.7891  2.4074
  744MOL0     H 2617   0.300   6.451  -0.198  0.4375  0.9602  2.1115
  744MOL0     H 2618   0.398   6.308  -0.187  0.7309 -0.1185  0.0772
  744MOL0     H 2619   0.492   6.542  -0.350  1.1535 -0.2406 -1.7878
  744MOL0     H 2620   0.582   6.391  -0.327  1.3209  0.9218  2.5890
  744MOL0     H 2621   0.490   6.162  -0.377 -1.5241 -1.8795  0.4154
  744MOL0     H 2622   0.289   6.023  -0.622  0.1505  0.4451  0.5266
  744MOL0     H 2623   0.457   6.001  -0.577  0.6285  0.0981 -1.5167
  744MOL0     H 2624   0.448   5.960  -0.802  1.5749  0.7566 -0.5676
  744MOL0     H 2625   0.329   6.085  -0.836 -1.3129  0.7717  1.8641
  744MOL0     H 2626   0.543   6.150  -0.939  0.9254  2.6241 -0.7225
  744MOL0     H 2627   0.513   6.256  -0.799 -0.6119 -1.0983  1.1644
  744MOL0     H 2628   0.747   6.191  -0.783  1.8061 -2.9307 -1.2092
  744MOL0     H 2629   0.667   6.108  -0.657 -0.7350  3.7878  0.2018
  744MOL0     H 2630   0.959   6.024  -0.677 -2.8200  0.9466 -0.3156
  744MOL0     H 2631   1.026   5.827  -0.381  0.9901  0.7152 -0.0180
  744MOL0     H 2632   1.032   5.986  -0.455 -3.3717 -0.8683  1.8669
  744MOL0     H 2633   1.149   5.853  -0.492  1.0302  3.2031  0.4286
  744MOL0     H 2634   0.921   5.406  -0.253  0.4299 -0.8049  0.6028
  744MOL0     H 2635   1.044   5.258  -0.104  2.5597 -0.2292  0.9646
  744MOL0     H 2636   1.483   5.258  -0.128 -0.6953  1.1950  0.8199
  744MOL0     H 2637   1.450   5.160   0.011 -1.6899  1.4954  0.6395
  744MOL0     H 2638   1.414   5.066  -0.277 -0.1193 -0.3000 -0.2108
  744MOL0     H 2639   1.550   5.033  -0.160  0.5493  3.0240  1.7800
  744MOL0     H 2640   1.267   4.947  -0.112 -0.3686  0.7352 -1.8335
  744MOL0     H 2641   1.415   4.894  -0.026 -1.1885 -3.6736 -0.2882
  744MOL0     H 2642   1.502   4.802  -0.238 -0.0916 -0.7014  0.0856
  744MOL0     H 2643   1.354   4.844  -0.325 -1.3051 -0.8161 -0.5669
  744MOL0     H 2644   1.352   4.637  -0.094  0.2688 -3.0206 -1.3697
  744MOL0     H 2645   1.223   4.713  -0.191  0.2660  0.2558  0.1520
  744MOL0     H 2646   1.370   4.619  -0.403 -0.9523  2.0064  0.5232
  744MOL0     H 2647   1.284   4.503  -0.296  0.0358  1.5196  1.9715
  744MOL0     H 2648   1.484   4.484  -0.153 -1.1134 -0.8489 -1.2880
  744MOL0     H 2649   1.577   4.568  -0.298  1.3801 -2.1652 -3.7539
  744MOL0     H 2650   1.473   4.373  -0.425 -0.1100  1.3831  0.4927
  744MOL0     H 2651   1.476   4.297  -0.270  2.2162  0.3198  3.4172
  744MOL0     H 2652   1.402   5.324  -0.309 -1.4783 -0.7364  0.1932
  744MOL0     H 2653   1.310   5.485  -0.456  3.8389  0.4227  3.9592
  744MOL0     H 2654   0.725   5.600  -0.666  0.5528 -0.7015  1.0015
  744MOL0     H 2655   0.640   5.772  -0.798  0.9979  1.2174 -1.0719
  744MOL0     H 2656   0.877   6.216   0.590  0.3465  0.0567 -5.2221
  744MOL0     H 2657   0.747   6.272   0.808  0.0245  2.1294 -0.9142
  744MOL0     H 2658   0.591   6.521   1.114 -0.4294 -0.9656 -2.9703
  744MOL0     H 2659   0.525   6.514   1.332 -2.0461  0.0645  0.4422
  744MOL0     H 2660   0.162   6.397   1.394  2.2157  4.2463 -0.6604
  744MOL0     H 2661   0.169   6.294   1.541 -1.1983  2.0607  2.2165
  744MOL0     H 2662   0.285   6.495   1.662  1.0771  1.5303 -0.6846
  744MOL0     H 2663   0.117   6.494   1.649 -1.3354  3.0756 -2.0157
  744MOL0     H 2664   0.330   6.619   1.450  0.3389 -0.7719  0.0803
  744MOL0     H 2665   0.154   6.615   1.423  2.4783 -2.3258 -1.1316
  744MOL0     H 2666   0.301   6.754   1.648  3.8970 -2.3445 -3.4124
  744MOL0     H 2667   0.118   6.757   1.621 -0.2061 -1.0842  0.9764
  744MOL0     H 2668   0.347   7.015   1.346  0.1345 -0.0726 -0.1444
  744MOL0     H 2669   0.260   6.194   1.277 -0.7015  0.1870 -0.0607
  744MOL0     H 2670   0.192   6.140   1.054 -0.8082  1.2483 -1.2467
  744MOL0     H 2671   0.248   6.212   0.905  3.8011 -0.6191 -1.9524
  744MOL0     H 2672   0.343   6.082   0.969 -2.0574 -0.8193 -1.7652
  745MOL0     O 2673   3.621   5.399   4.317  0.6278 -0.5852  0.8009
  745MOL0     C 2674   3.549   5.495   4.290 -0.3009 -0.3319  0.3978
  745MOL0     O 2675   3.453   5.547   4.379 -0.1877 -0.6273  0.8104
  745MOL0     C 2676   3.452   5.517   4.518  0.5781 -0.5966  0.8715
  745MOL0     C 2677   3.560   5.522   4.602 -0.8866 -0.6216 -0.1621
  745MOL0     C 2678   3.543   5.495   4.734 -0.2312  0.6413  0.1740
  745MOL0     C 2679   3.425   5.459   4.788  0.8628 -0.0202  0.0550
  745MOL0     O 2680   3.400   5.457   4.926 -0.4630 -0.2419 -0.2662
  745MOL0     C 2681   3.313   5.372   4.993  0.0541 -0.9021  0.0563
  745MOL0     C 2682   3.371   5.363   5.137  0.0073  0.8259  0.7246
  745MOL0     C 2683   3.528   5.346   5.144  0.0398 -0.1311 -0.9651
  745MOL0     C 2684   3.572   5.231   5.062  0.0983 -0.1005  0.1829
  745MOL0     C 2685   3.711   5.174   5.087 -0.4112  0.1454 -0.5741
  745MOL0     C 2686   3.743   5.073   4.979 -0.0108  0.3926 -0.0270
  745MOL0     C 2687   3.874   5.001   5.028 -0.1580 -0.1703 -0.5070
  745MOL0     C 2688   3.990   5.090   4.977  0.3331 -0.9835  0.5355
  745MOL0     N 2689   4.000   5.084   4.828 -0.3518  0.2788  0.1838
  745MOL0     C 2690   3.947   5.184   4.754  0.5154 -0.4032  0.9858
  745MOL0     C 2691   3.977   5.144   4.630  1.2046 -0.6269 -0.0983
  745MOL0     C 2692   3.931   5.218   4.506 -0.3475 -0.3564 -0.0224
  745MOL0     C 2693   3.873   5.127   4.401 -0.2305  0.9034 -1.2208
  745MOL0     C 2694   3.972   5.024   4.332  0.1160 -0.9374 -0.3584
  745MOL0     C 2695   4.114   5.081   4.315 -0.7706  0.3680  0.1080
  745MOL0     O 2696   4.092   5.192   4.227 -0.6386 -0.4947 -0.2721
  745MOL0     C 2697   4.204   5.252   4.163 -0.1840  0.2981  0.4331
  745MOL0     C 2698   4.336   5.219   4.183 -0.6405  1.0380 -0.2524
  745MOL0     C 2699   4.443   5.301   4.130 -0.9585  0.6653 -0.3992
  745MOL0     C 2700   4.581   5.248   4.149  0.1156 -0.1575 -1.0404
  745MOL0     C 2701   4.417   5.417   4.063  0.0599 -0.5702  1.0988
  745MOL0     C 2702   4.507   5.524   4.012  0.3186 -0.1950  0.3287
  745MOL0     O 2703   4.449   5.613   3.919  0.1584  0.2054 -0.4355
  745MOL0     C 2704   4.533   5.696   3.847  0.1617  0.8755 -0.4909
  745MOL0     C 2705   4.482   5.817   3.796 -0.5968  0.3406  0.5063
  745MOL0     C 2706   4.546   5.878   3.687 -0.2407 -0.2563  0.3500
  745MOL0     C 2707   4.668   5.839   3.633 -0.4815 -0.5988  0.3756
  745MOL0     O 2708   4.719   5.894   3.513 -0.5795 -1.6970  0.1591
  745MOL0     C 2709   4.632   5.964   3.423  0.0772 -0.5652 -0.2949
  745MOL0     C 2710   4.653   5.896   3.286  0.1961  0.3141 -0.4902
  745MOL0     C 2711   4.602   5.756   3.288  0.0323 -1.1786 -0.0715
  745MOL0     C 2712   4.455   5.732   3.252 -0.9995  0.2185 -0.6377
  745MOL0     C 2713   4.423   5.583   3.279  0.2421 -0.1744  0.5614
  745MOL0     C 2714   4.279   5.546   3.231 -0.3549 -0.8665 -0.7825
  745MOL0     C 2715   4.253   5.398   3.232 -0.4616  0.0604  0.3634
  745MOL0     C 2716   4.099   5.374   3.244 -0.9173  0.2019 -0.6433
  745MOL0    Cl 2717   4.002   5.480   3.136  0.7019  0.1232 -0.1438
  745MOL0     C 2718   4.720   5.722   3.681  0.4157  0.1949 -1.4413
  745MOL0     C 2719   4.658   5.654   3.792  0.7054 -0.0284 -0.1011
  745MOL0     O 2720   4.624   5.519   4.044 -0.4547 -0.1321 -0.4004
  745MOL0     C 2721   4.281   5.436   4.033  0.0243 -0.3011 -0.0884
  745MOL0     C 2722   4.172   5.366   4.085 -0.1148 -0.5051 -0.7508
  745MOL0     N 2723   4.054   5.035   4.628 -0.5069  0.9692  0.3103
  745MOL0     N 2724   4.067   4.999   4.752 -0.4504  0.2074  0.1056
  745MOL0     C 2725   3.323   5.432   4.693 -0.6058  0.8987  0.1822
  745MOL0     C 2726   3.332   5.461   4.557 -1.2629 -1.0490 -0.6694
  745MOL0     C 2727   3.570   5.577   4.162  1.0717  0.0191 -1.1870
  745MOL0     C 2728   3.465   5.670   4.125 -0.0708  0.1578 -0.1517
  745MOL0     C 2729   3.462   5.733   4.000 -0.7895  0.1389  0.0371
  745MOL0     C 2730   3.563   5.702   3.902  1.0568 -0.1487 -0.8536
  745MOL0     O 2731   3.589   5.752   3.781 -0.0523 -0.3951  0.4621
  745MOL0     C 2732   3.508   5.866   3.743  0.1598  0.4739  0.3578
  745MOL0     C 2733   3.390   5.815   3.668 -0.5211 -0.0569  0.8854
  745MOL0     C 2734   3.299   5.928   3.627 -0.6777  0.3505 -0.5652
  745MOL0     C 2735   3.337   5.987   3.497  0.8216 -0.8720 -0.1503
  745MOL0     C 2736   3.301   5.903   3.389 -0.7604  1.0700 -0.2091
  745MOL0     C 2737   3.271   5.845   3.282  0.6123 -0.3917 -0.8915
  745MOL0     C 2738   3.671   5.621   3.939  1.4295 -0.1434 -0.5852
  745MOL0     C 2739   3.669   5.561   4.066 -0.7088  0.5693  0.2654
  745MOL0     C 2740   3.778   5.459   4.071  0.1415  0.0623  1.0333
  745MOL0     H 2741   3.657   5.550   4.563 -1.7505  0.1092 -1.9380
  745MOL0     H 2742   3.617   5.522   4.809 -1.1486 -1.6464  2.0652
  745MOL0     H 2743   3.302   5.268   4.961 -5.0596 -0.9668  1.2231
  745MOL0     H 2744   3.218   5.425   4.987  2.6936  4.5138 -0.5701
  745MOL0     H 2745   3.341   5.452   5.192 -1.2095 -0.4301  2.1721
  745MOL0     H 2746   3.318   5.280   5.183 -0.5172  0.2577 -0.8252
  745MOL0     H 2747   3.578   5.433   5.100 -1.0340 -0.6487 -3.3693
  745MOL0     H 2748   3.551   5.313   5.246 -3.2037 -0.1386 -0.1404
  745MOL0     H 2749   3.489   5.160   5.071 -1.3189  1.3355 -0.8590
  745MOL0     H 2750   3.578   5.262   4.958  2.9466 -0.3775  0.1943
  745MOL0     H 2751   3.711   5.140   5.191  0.7721  2.6499  0.3393
  745MOL0     H 2752   3.793   5.246   5.089 -2.3943  2.6511 -2.1492
  745MOL0     H 2753   3.666   4.996   4.970  2.7664 -2.5830  0.0725
  745MOL0     H 2754   3.760   5.114   4.879  0.9913 -2.7779 -1.2773
  745MOL0     H 2755   3.866   4.901   4.983 -1.3839 -0.5425  0.4540
  745MOL0     H 2756   3.879   4.981   5.136 -3.9340  2.3522  0.3502
  745MOL0     H 2757   3.963   5.193   5.000  2.2259 -0.0927 -1.0255
  745MOL0     H 2758   4.081   5.065   5.032  0.1557  1.0517  1.8320
  745MOL0     H 2759   3.890   5.272   4.781  0.3722 -0.3814  0.6196
  745MOL0     H 2760   4.015   5.271   4.460 -0.2571  1.7126  2.3447
  745MOL0     H 2761   3.853   5.284   4.542  0.2005 -0.9463  2.4014
  745MOL0     H 2762   3.801   5.066   4.456  1.1327  0.2924 -0.0654
  745MOL0     H 2763   3.827   5.193   4.327 -2.3449  1.2159  0.3094
  745MOL0     H 2764   3.987   4.933   4.391 -1.7388  0.1321  1.9298
  745MOL0     H 2765   3.929   5.003   4.234 -0.2585  0.4738 -0.5196
  745MOL0     H 2766   4.163   5.090   4.412  0.9929 -3.5682 -0.2371
  745MOL0     H 2767   4.180   5.010   4.264  2.1864  0.4831  3.4235
  745MOL0     H 2768   4.354   5.125   4.234 -0.7133 -0.1596 -2.3339
  745MOL0     H 2769   4.606   5.277   4.251 -1.4676 -4.3820  0.7738
  745MOL0     H 2770   4.656   5.284   4.078 -1.6138 -0.5205 -3.1404
  745MOL0     H 2771   4.583   5.139   4.139 -0.2450 -0.2013 -0.6795
  745MOL0     H 2772   4.385   5.846   3.833 -1.0341 -0.0889 -0.2758
  745MOL0     H 2773   4.490   5.963   3.648 -0.6976  0.7127  2.8712
  745MOL0     H 2774   4.525   5.955   3.447 -0.1071 -2.4570 -1.5571
  745MOL0     H 2775   4.663   6.068   3.417  1.2302 -0.8384  0.6054
  745MOL0     H 2776   4.591   5.957   3.220  0.1437 -0.3182 -1.0448
  745MOL0     H 2777   4.761   5.896   3.270  0.4366 -1.6579  0.7309
  745MOL0     H 2778   4.617   5.703   3.384  0.1963  1.2581  1.3288
  745MOL0     H 2779   4.669   5.695   3.226  0.4434  1.0276 -1.8940
  745MOL0     H 2780   4.422   5.755   3.151 -2.3259  2.8913  0.3201
  745MOL0     H 2781   4.384   5.775   3.323 -2.3323 -2.9848  0.1970
  745MOL0     H 2782   4.500   5.525   3.227  1.6941 -0.1439  2.5793
  745MOL0     H 2783   4.416   5.579   3.388 -1.5207  3.3117  0.7205
  745MOL0     H 2784   4.260   5.583   3.130  0.5809  0.6956 -0.4160
  745MOL0     H 2785   4.198   5.593   3.289  0.0299  2.8017 -2.8885
  745MOL0     H 2786   4.313   5.367   3.317 -0.9183  3.8653  2.2612
  745MOL0     H 2787   4.292   5.337   3.150 -1.4832 -3.8523  2.5286
  745MOL0     H 2788   4.058   5.396   3.342  2.9228 -0.6278  1.3607
  745MOL0     H 2789   4.080   5.269   3.217 -2.3213  0.0746  0.7176
  745MOL0     H 2790   4.800   5.682   3.619 -0.1797 -0.2933 -1.9111
  745MOL0     H 2791   4.714   5.568   3.827 -1.8460 -2.5157 -1.6755
  745MOL0     H 2792   4.246   5.518   3.970  0.3744  0.3580  0.5499
  745MOL0     H 2793   4.068   5.393   4.067 -0.3201  1.1035  2.1453
  745MOL0     H 2794   3.236   5.376   4.728  0.7600 -0.6597  1.2237
  745MOL0     H 2795   3.250   5.473   4.488 -3.3257  2.3948  2.0103
  745MOL0     H 2796   3.389   5.695   4.199 -0.3767 -1.0091 -0.0452
  745MOL0     H 2797   3.374   5.788   3.969 -0.5697 -0.2792 -1.3781
  745MOL0     H 2798   3.479   5.931   3.826  2.9825  1.4852  0.6683
  745MOL0     H 2799   3.572   5.922   3.673  2.7106 -2.0357  0.5209
  745MOL0     H 2800   3.338   5.761   3.748  1.1116 -1.2406  1.2013
  745MOL0     H 2801   3.422   5.739   3.595 -0.1421 -1.9503  2.9139
  745MOL0     H 2802   3.196   5.890   3.628 -0.3955 -1.1022  4.7446
  745MOL0     H 2803   3.298   6.006   3.704  0.4364  1.6015 -1.7767
  745MOL0     H 2804   3.440   6.023   3.487  1.0000 -1.5700 -0.9228
  745MOL0     H 2805   3.268   6.071   3.491  0.2163 -1.4349 -1.4185
  745MOL0     H 2806   3.236   5.799   3.192  2.3341 -2.4833 -0.5524
  745MOL0     H 2807   3.741   5.586   3.864  1.6322  0.4319 -0.6624
  745MOL0     H 2808   3.753   5.387   3.992 -0.3475 -0.0259  1.2633
  745MOL0     H 2809   3.871   5.514   4.060 -0.8867  1.9017  1.1687
  745MOL0     H 2810   3.792   5.422   4.173 -3.4129  1.4070  2.1598
  746MOL0     O 2811   0.254   2.795  11.475 -0.1118 -0.0896 -0.0666
  746MOL0     C 2812   0.172   2.740  11.534 -0.3109  0.2355 -0.6091
  746MOL0     O 2813   0.177   2.608  11.559 -0.7423 -0.0547 -0.1201
  746MOL0     C 2814   0.255   2.528  11.490  0.0953 -0.7611  0.3965
  746MOL0     C 2815   0.221   2.465  11.371  0.6993  0.4807 -0.0368
  746MOL0     C 2816   0.292   2.364  11.318  0.3860  0.0990 -0.0721
  746MOL0     C 2817   0.410   2.319  11.382  0.3993 -0.2056  1.0100
  746MOL0     O 2818   0.485   2.231  11.318  0.1853  0.2678 -0.4633
  746MOL0     C 2819   0.612   2.207  11.365 -0.3012  0.1387 -0.3539
  746MOL0     C 2820   0.681   2.111  11.275 -0.2789  0.8318  0.0133
  746MOL0     C 2821   0.735   2.174  11.148  0.3905 -0.5010  0.7133
  746MOL0     C 2822   0.812   2.083  11.056 -0.5213  0.5625 -0.8191
  746MOL0     C 2823   0.801   2.110  10.911  0.1987 -0.2347  0.2594
  746MOL0     C 2824   0.659   2.086  10.860 -0.2020  0.5748 -0.0996
  746MOL0     C 2825   0.660   2.140  10.711  0.2763  0.4060  0.2438
  746MOL0     C 2826   0.514   2.115  10.659 -0.7140  0.4586 -0.4611
  746MOL0     N 2827   0.518   1.983  10.592  0.4046  0.2521  0.3756
  746MOL0     C 2828   0.409   1.905  10.579  0.4275  0.4389  0.4902
  746MOL0     C 2829   0.441   1.806  10.501 -0.2351  0.1916  0.5413
  746MOL0     C 2830   0.367   1.689  10.485  0.4997  0.4807  1.1901
  746MOL0     C 2831   0.252   1.715  10.389  0.2994 -0.2074  0.2800
  746MOL0     C 2832   0.190   1.585  10.358 -0.6714  0.2307  0.2278
  746MOL0     C 2833   0.067   1.592  10.280 -0.0431  0.2296  0.1724
  746MOL0     O 2834   0.117   1.620  10.154  1.0358 -0.0332 -0.1654
  746MOL0     C 2835   0.031   1.684  10.069  0.0872  0.0218 -0.9649
  746MOL0     C 2836  -0.106   1.662  10.068 -1.7393  0.0841 -0.0635
  746MOL0     C 2837  -0.198   1.730   9.983 -0.0190 -0.2262  1.2961
  746MOL0     C 2838  -0.348   1.711   9.994 -0.7082 -0.1498  0.1293
  746MOL0     C 2839  -0.140   1.822   9.890  0.3797 -0.0982 -0.5065
  746MOL0     C 2840  -0.217   1.894   9.796  0.3069 -0.5459 -0.1798
  746MOL0     O 2841  -0.265   2.007   9.850 -0.3203 -0.1634 -0.0410
  746MOL0     C 2842  -0.304   2.112   9.767  0.4367 -0.6214 -0.4473
  746MOL0     C 2843  -0.206   2.191   9.697 -0.3129 -1.0021  0.3718
  746MOL0     C 2844  -0.237   2.315   9.635  0.1370  0.5346 -0.6048
  746MOL0     C 2845  -0.377   2.350   9.623 -1.0300 -0.0060  0.9599
  746MOL0     O 2846  -0.408   2.468   9.580 -0.0141  0.5992 -0.3107
  746MOL0     C 2847  -0.476   2.549   9.680 -0.1243  0.0500 -0.0632
  746MOL0     C 2848  -0.445   2.693   9.638  0.2980  0.1681 -0.5777
  746MOL0     C 2849  -0.531   2.735   9.523 -0.1868  0.7730 -0.0590
  746MOL0     C 2850  -0.477   2.873   9.455 -0.7065  0.1647 -0.2809
  746MOL0     C 2851  -0.548   2.906   9.324 -0.4107 -0.0990 -0.1336
  746MOL0     C 2852  -0.690   2.958   9.336 -0.6516  1.0292 -0.5972
  746MOL0     C 2853  -0.779   2.961   9.212 -0.2764 -0.5475  0.6627
  746MOL0     C 2854  -0.809   2.825   9.156 -0.8672 -0.3196  1.0038
  746MOL0    Cl 2855  -0.902   2.856   9.008 -0.0994 -0.1362  0.1786
  746MOL0     C 2856  -0.467   2.264   9.668  0.2226 -0.2003  0.9215
  746MOL0     C 2857  -0.439   2.149   9.737 -0.3316 -0.5411 -0.1225
  746MOL0     O 2858  -0.222   1.866   9.680  0.3832 -0.5784 -0.1473
  746MOL0     C 2859   0.001   1.827   9.874  0.8528 -0.0841  0.6758
  746MOL0     C 2860   0.083   1.769   9.968  0.2258  0.0217  1.5975
  746MOL0     N 2861   0.568   1.826  10.461  0.1781  0.1155 -0.3531
  746MOL0     N 2862   0.606   1.936  10.512 -0.4281 -0.5092  0.5021
  746MOL0     C 2863   0.447   2.386  11.502  1.0592 -0.2581  0.9827
  746MOL0     C 2864   0.366   2.488  11.557  0.2795  0.1101  0.0537
  746MOL0     C 2865   0.075   2.828  11.612  0.0056 -0.5047  0.0613
  746MOL0     C 2866   0.015   2.762  11.726 -0.0466  1.1821 -0.3658
  746MOL0     C 2867  -0.079   2.828  11.799 -0.4582  0.2211  0.4213
  746MOL0     C 2868  -0.111   2.958  11.769 -0.4867 -0.0189  0.8909
  746MOL0     O 2869  -0.210   3.009  11.841 -0.0721 -0.1422 -0.2183
  746MOL0     C 2870  -0.194   3.132  11.909 -0.3486  0.3414 -0.5549
  746MOL0     C 2871  -0.192   3.088  12.057 -0.4950  0.1810 -0.6617
  746MOL0     C 2872  -0.046   3.043  12.102 -0.1985  0.0638 -0.0881
  746MOL0     C 2873  -0.029   2.961  12.235 -0.2795 -0.4531 -0.9963
  746MOL0     C 2874  -0.137   2.852  12.251  0.0562 -0.0148 -0.4339
  746MOL0     C 2875  -0.213   2.760  12.269  0.3335 -0.2920  1.0141
  746MOL0     C 2876  -0.054   3.021  11.663  1.1123 -0.4605 -0.1077
  746MOL0     C 2877   0.037   2.959  11.577  0.8389  0.4934 -0.3510
  746MOL0     C 2878   0.099   3.033  11.460 -0.2033  0.5617  0.1619
  746MOL0     H 2879   0.141   2.514  11.316  1.1550  2.3624  0.8899
  746MOL0     H 2880   0.258   2.315  11.227  1.7032 -0.5849 -0.2256
  746MOL0     H 2881   0.587   2.159  11.460 -1.5380  1.5389  0.0528
  746MOL0     H 2882   0.672   2.298  11.376  0.4141 -0.1000 -1.9283
  746MOL0     H 2883   0.769   2.065  11.321 -0.1037  2.1996  1.1390
  746MOL0     H 2884   0.616   2.024  11.262  1.4706 -0.7302  1.2964
  746MOL0     H 2885   0.652   2.221  11.094  1.6352  0.3555 -0.5377
  746MOL0     H 2886   0.801   2.259  11.168 -2.8213  1.7689  2.4715
  746MOL0     H 2887   0.918   2.089  11.082 -0.0533 -1.3386 -2.1232
  746MOL0     H 2888   0.790   1.977  11.067 -0.4470 -0.0113 -4.6790
  746MOL0     H 2889   0.871   2.049  10.854 -1.4833  1.6045 -4.2204
  746MOL0     H 2890   0.831   2.214  10.897 -2.6309  0.5322 -0.8064
  746MOL0     H 2891   0.623   1.982  10.857 -0.4425  0.6229  0.8814
  746MOL0     H 2892   0.578   2.131  10.917 -1.1054 -0.5457 -0.4553
  746MOL0     H 2893   0.736   2.090  10.652  0.7358 -1.3629  2.2442
  746MOL0     H 2894   0.674   2.249  10.706 -4.5737  1.2491 -0.6393
  746MOL0     H 2895   0.438   2.129  10.735 -0.6832 -1.2112 -0.0774
  746MOL0     H 2896   0.495   2.185  10.578  0.4108 -0.4467 -1.5692
  746MOL0     H 2897   0.317   1.901  10.637 -0.8577  0.0938 -1.4807
  746MOL0     H 2898   0.333   1.662  10.585  2.1900 -1.4500  1.3080
  746MOL0     H 2899   0.432   1.606  10.457 -2.0192 -1.0145 -0.7606
  746MOL0     H 2900   0.177   1.781  10.433 -0.3001 -0.3093 -0.5643
  746MOL0     H 2901   0.291   1.760  10.297  1.0364  0.5113  0.9208
  746MOL0     H 2902   0.265   1.526  10.304  1.1291  3.5225 -1.1241
  746MOL0     H 2903   0.171   1.545  10.459  1.4793  0.6633  0.8595
  746MOL0     H 2904   0.016   1.495  10.283 -0.6396  0.5489  0.7721
  746MOL0     H 2905  -0.011   1.660  10.317 -1.8557 -1.5921 -0.0873
  746MOL0     H 2906  -0.154   1.595  10.139  0.7228 -0.3227  1.3596
  746MOL0     H 2907  -0.411   1.801   9.994 -0.0713  0.4454 -3.3915
  746MOL0     H 2908  -0.367   1.662  10.090  0.4748  0.9266  0.9617
  746MOL0     H 2909  -0.378   1.643   9.914 -1.4321  1.8654 -1.4019
  746MOL0     H 2910  -0.103   2.166   9.722 -0.0973 -1.7239 -1.1583
  746MOL0     H 2911  -0.160   2.386   9.606 -0.4812  0.9067 -1.3544
  746MOL0     H 2912  -0.582   2.523   9.682 -0.7809  2.4436  0.5073
  746MOL0     H 2913  -0.446   2.529   9.783  0.6839  3.1765  0.4100
  746MOL0     H 2914  -0.472   2.758   9.722  0.2057 -4.6713  3.6175
  746MOL0     H 2915  -0.338   2.701   9.613  0.5769  1.8675  0.9188
  746MOL0     H 2916  -0.633   2.753   9.557 -0.9052  2.5063 -2.8512
  746MOL0     H 2917  -0.522   2.668   9.437 -0.4637  2.9539 -1.8823
  746MOL0     H 2918  -0.369   2.858   9.446 -0.5374 -0.5187  2.1378
  746MOL0     H 2919  -0.480   2.947   9.536  0.7687  2.1012 -1.9014
  746MOL0     H 2920  -0.475   2.969   9.271  1.4496 -2.5318 -0.6558
  746MOL0     H 2921  -0.542   2.807   9.279 -0.9144  0.7941 -2.2700
  746MOL0     H 2922  -0.706   3.063   9.363 -5.0926  0.0597  1.2822
  746MOL0     H 2923  -0.740   2.895   9.410  0.2082  1.3458  0.2763
  746MOL0     H 2924  -0.733   3.017   9.131 -1.4176  0.1591  0.4766
  746MOL0     H 2925  -0.879   3.004   9.220 -0.7776 -1.5818  0.1878
  746MOL0     H 2926  -0.878   2.769   9.221 -1.4733 -2.8904 -1.6419
  746MOL0     H 2927  -0.723   2.765   9.125 -0.6245 -1.5637  3.7131
  746MOL0     H 2928  -0.569   2.292   9.643  0.5624  0.4883  0.2477
  746MOL0     H 2929  -0.516   2.085   9.779  1.4581 -1.4028  2.0964
  746MOL0     H 2930   0.054   1.900   9.814  1.8242 -1.0440  0.3557
  746MOL0     H 2931   0.188   1.793   9.959  0.0747 -0.0003 -1.2357
  746MOL0     H 2932   0.535   2.357  11.558  1.0568  0.5302  1.4101
  746MOL0     H 2933   0.395   2.534  11.651 -0.9375 -1.9424  1.5348
  746MOL0     H 2934   0.046   2.666  11.767 -1.0628  0.5485 -1.0360
  746MOL0     H 2935  -0.134   2.788  11.884 -3.9439  0.7730 -1.4076
  746MOL0     H 2936  -0.094   3.168  11.883  0.4907 -1.0947  0.5082
  746MOL0     H 2937  -0.272   3.203  11.880 -1.2597 -0.6096 -0.4951
  746MOL0     H 2938  -0.269   3.014  12.080 -0.0611  0.2257  1.0876
  746MOL0     H 2939  -0.218   3.171  12.123 -1.1063 -2.7911  3.2235
  746MOL0     H 2940   0.004   2.980  12.027  1.4956 -0.7828  1.6670
  746MOL0     H 2941   0.015   3.134  12.109 -2.4187  1.7623 -1.4525
  746MOL0     H 2942  -0.038   3.031  12.319 -0.4483 -2.3889  0.6498
  746MOL0     H 2943   0.072   2.922  12.241 -0.4129 -0.6231  0.2673
  746MOL0     H 2944  -0.279   2.676  12.267 -0.6391  0.4578  1.1990
  746MOL0     H 2945  -0.094   3.119  11.639 -1.2958 -1.6788 -1.4305
  746MOL0     H 2946   0.207   3.050  11.469  0.0941  0.0117 -1.7701
  746MOL0     H 2947   0.070   2.994  11.362 -1.9493 -2.0457  1.5953
  746MOL0     H 2948   0.056   3.134  11.455  0.0621  0.6409 -0.8570
  747MOL0     O 2949   4.801   9.538   5.144 -0.1765  0.0600 -0.7738
  747MOL0     C 2950   4.719   9.502   5.233  0.5785  0.1081 -0.4609
  747MOL0     O 2951   4.655   9.582   5.334  0.1330  0.8398 -0.0867
  747MOL0     C 2952   4.690   9.711   5.332  0.5667 -0.3608 -0.4705
  747MOL0     C 2953   4.792   9.760   5.413 -0.2172 -0.5893  0.1858
  747MOL0     C 2954   4.822   9.895   5.418  0.5684  0.1272 -0.5187
  747MOL0     C 2955   4.769   9.983   5.321 -0.2383  0.2342 -0.1894
  747MOL0     O 2956   4.804  10.117   5.330 -0.2974 -0.2298 -0.1419
  747MOL0     C 2957   4.717  10.211   5.269  0.0940 -0.2673 -1.1490
  747MOL0     C 2958   4.736  10.356   5.315  0.1736  0.1265 -0.5597
  747MOL0     C 2959   4.621  10.443   5.245 -0.4966 -0.3637 -0.3786
  747MOL0     C 2960   4.630  10.457   5.091  0.2202 -0.3434  0.1438
  747MOL0     C 2961   4.551  10.574   5.026 -0.4630 -0.0326 -0.1187
  747MOL0     C 2962   4.595  10.615   4.888 -0.2674  0.0313  0.9658
  747MOL0     C 2963   4.536  10.753   4.849 -0.8079  1.0562 -0.6694
  747MOL0     C 2964   4.387  10.757   4.855  0.5007  0.5251  0.5801
  747MOL0     N 2965   4.341  10.896   4.846  0.4022 -0.3735 -0.3614
  747MOL0     C 2966   4.272  10.976   4.941  0.2391 -0.2788 -0.2145
  747MOL0     C 2967   4.227  11.078   4.866  0.8731 -0.9033 -0.6974
  747MOL0     C 2968   4.140  11.186   4.928  0.0504 -0.1637 -0.7934
  747MOL0     C 2969   4.046  11.272   4.835  0.2877  0.2410  0.0096
  747MOL0     C 2970   3.956  11.164   4.758  0.0753  0.8160  0.4952
  747MOL0     C 2971   3.888  11.224   4.636 -0.2099  0.3393 -0.0383
  747MOL0     O 2972   3.809  11.132   4.559  0.3244 -0.3424 -0.4326
  747MOL0     C 2973   3.856  11.012   4.514 -0.8236  0.0403  0.0028
  747MOL0     C 2974   3.994  10.974   4.495  0.3559 -0.1605 -1.1704
  747MOL0     C 2975   4.039  10.847   4.458 -0.1144 -0.7166 -0.8238
  747MOL0     C 2976   4.185  10.828   4.474 -0.1918 -0.2728  0.2391
  747MOL0     C 2977   3.944  10.752   4.420  0.8433  0.3374  0.2827
  747MOL0     C 2978   3.977  10.615   4.375  0.3209  0.8155  0.4072
  747MOL0     O 2979   4.102  10.586   4.336  0.1263  0.0316  0.8155
  747MOL0     C 2980   4.133  10.475   4.249 -0.2055 -0.1710 -0.5476
  747MOL0     C 2981   4.243  10.391   4.276 -0.6639  0.2134 -0.0432
  747MOL0     C 2982   4.278  10.276   4.199  0.2052  0.1648  0.2644
  747MOL0     C 2983   4.187  10.237   4.099 -0.0774  0.8909  1.0237
  747MOL0     O 2984   4.210  10.134   4.012  0.6730 -0.0353  0.5713
  747MOL0     C 2985   4.292  10.028   4.063  0.3861  0.0205 -0.2619
  747MOL0     C 2986   4.232   9.940   4.178  1.0873 -1.2187 -0.1500
  747MOL0     C 2987   4.074   9.921   4.154 -0.4481  0.1214 -0.3409
  747MOL0     C 2988   4.052   9.814   4.043 -0.2417 -0.4632  0.8127
  747MOL0     C 2989   3.907   9.798   4.004  0.2289 -0.2634 -0.8326
  747MOL0     C 2990   3.831   9.714   4.099  0.1951  1.0159 -0.1147
  747MOL0     C 2991   3.680   9.715   4.053 -0.1909 -0.4711  0.4227
  747MOL0     C 2992   3.592   9.619   4.125 -0.2960  0.3265  0.8222
  747MOL0    Cl 2993   3.434   9.692   4.137 -0.0631 -0.1021  0.4137
  747MOL0     C 2994   4.073  10.319   4.069 -0.1711 -0.4317  0.1979
  747MOL0     C 2995   4.052  10.434   4.145 -1.0548  1.2030 -0.0803
  747MOL0     O 2996   3.881  10.541   4.363  0.2884 -0.0349 -0.3538
  747MOL0     C 2997   3.802  10.785   4.431 -0.0627  0.4764 -0.3012
  747MOL0     C 2998   3.767  10.913   4.480  0.3922  0.0707 -0.6635
  747MOL0     N 2999   4.279  11.078   4.744  0.0113 -0.1093 -0.0863
  747MOL0     N 3000   4.345  10.971   4.733  0.0377 -0.1901 -0.0105
  747MOL0     C 3001   4.688   9.929   5.226  0.6966  0.2396  0.3618
  747MOL0     C 3002   4.649   9.791   5.227  0.3608 -0.4483  0.6133
  747MOL0     C 3003   4.693   9.356   5.254 -0.1729 -0.0357  0.5488
  747MOL0     C 3004   4.724   9.310   5.381  0.8154  0.7040 -0.4712
  747MOL0     C 3005   4.733   9.169   5.407 -0.9328  0.2636 -0.3558
  747MOL0     C 3006   4.712   9.074   5.306 -0.7665 -1.1229  0.7260
  747MOL0     O 3007   4.727   8.940   5.312  1.0554  0.5811 -0.1521
  747MOL0     C 3008   4.849   8.883   5.247  0.5182 -0.1916  0.0682
  747MOL0     C 3009   4.861   8.725   5.257 -0.2586 -0.2573 -0.0844
  747MOL0     C 3010   4.741   8.648   5.187 -0.1322  0.5529  0.6761
  747MOL0     C 3011   4.729   8.662   5.036 -0.7873  0.7490  0.1226
  747MOL0     C 3012   4.839   8.589   4.963 -0.7967 -0.4273 -0.9434
  747MOL0     C 3013   4.938   8.545   4.905 -0.5313 -0.5268 -0.1749
  747MOL0     C 3014   4.689   9.130   5.173 -0.0079  0.8542  0.2197
  747MOL0     C 3015   4.685   9.268   5.148  0.0662 -0.4795 -0.7419
  747MOL0     C 3016   4.660   9.311   5.007  0.0038  0.0914 -0.2387
  747MOL0     H 3017   4.826   9.688   5.487 -2.3617  0.7316  2.6298
  747MOL0     H 3018   4.891   9.941   5.487 -1.5527  0.6217  1.3811
  747MOL0     H 3019   4.610  10.186   5.274 -0.4280  2.0708  1.8256
  747MOL0     H 3020   4.744  10.213   5.163 -0.4879 -0.1258 -1.3027
  747MOL0     H 3021   4.727  10.368   5.423  0.6894 -0.4186 -0.4516
  747MOL0     H 3022   4.831  10.397   5.279  0.9012 -1.4837 -0.5661
  747MOL0     H 3023   4.522  10.412   5.279 -1.1648  0.3534 -1.5766
  747MOL0     H 3024   4.634  10.538   5.297 -0.3370  0.7518 -2.3385
  747MOL0     H 3025   4.735  10.483   5.070  0.2036 -0.2820  0.1361
  747MOL0     H 3026   4.617  10.356   5.052  3.7476 -2.5188  3.7824
  747MOL0     H 3027   4.567  10.660   5.091 -2.4808  1.6579 -1.7240
  747MOL0     H 3028   4.445  10.545   5.033 -0.2784 -0.7535 -0.2393
  747MOL0     H 3029   4.705  10.616   4.892 -0.2905 -0.8976  2.5320
  747MOL0     H 3030   4.564  10.540   4.814 -0.5418  0.2284  0.8812
  747MOL0     H 3031   4.571  10.779   4.749 -1.1319 -1.6034 -1.5697
  747MOL0     H 3032   4.568  10.825   4.924 -2.5666  0.6574  0.5195
  747MOL0     H 3033   4.342  10.696   4.775  0.1986 -1.6926  2.3333
  747MOL0     H 3034   4.353  10.717   4.951 -0.2694  1.2017  0.5998
  747MOL0     H 3035   4.233  10.939   5.035  0.7841 -2.2428 -0.7028
  747MOL0     H 3036   4.211  11.257   4.974  0.1019 -1.5877  1.4819
  747MOL0     H 3037   4.087  11.140   5.012 -0.8124  2.1492  0.0160
  747MOL0     H 3038   3.976  11.334   4.893 -2.1015 -1.4498 -0.9066
  747MOL0     H 3039   4.108  11.334   4.770  1.7458  1.0831  2.1024
  747MOL0     H 3040   4.012  11.078   4.719 -1.3236  0.7586 -1.5639
  747MOL0     H 3041   3.882  11.117   4.823 -0.6781  1.2966  0.0064
  747MOL0     H 3042   3.836  11.314   4.668 -1.9551 -0.0308 -1.6580
  747MOL0     H 3043   3.967  11.256   4.567 -0.4333  0.4113 -0.2616
  747MOL0     H 3044   4.067  11.049   4.524 -1.1384  1.4523 -1.4283
  747MOL0     H 3045   4.234  10.832   4.377  0.7331 -0.0533  0.7049
  747MOL0     H 3046   4.197  10.730   4.522 -3.9444 -1.8782 -1.6499
  747MOL0     H 3047   4.231  10.908   4.532  0.9399 -0.4932 -0.3324
  747MOL0     H 3048   4.312  10.412   4.357 -1.1448 -1.9770  0.9910
  747MOL0     H 3049   4.370  10.227   4.230 -1.0606 -0.1709  3.9584
  747MOL0     H 3050   4.296   9.960   3.978  0.0849 -1.7040  1.0380
  747MOL0     H 3051   4.395  10.052   4.093  0.2501  1.6210 -0.9701
  747MOL0     H 3052   4.287   9.848   4.198  2.0661 -0.8354 -0.9494
  747MOL0     H 3053   4.251  10.008   4.261 -1.7454 -1.8182  1.1005
  747MOL0     H 3054   4.023  10.015   4.131 -0.8723 -0.4455 -1.9017
  747MOL0     H 3055   4.042   9.883   4.251  3.8514  1.2734  1.7529
  747MOL0     H 3056   4.096   9.716   4.064  3.5522  0.7546 -0.6068
  747MOL0     H 3057   4.110   9.849   3.956 -1.9354  1.5666  0.4301
  747MOL0     H 3058   3.871   9.901   3.990 -3.2076 -1.5599 -2.9323
  747MOL0     H 3059   3.901   9.761   3.901  0.8779 -2.8122 -0.0220
  747MOL0     H 3060   3.834   9.756   4.200  0.3026  1.2974 -0.2315
  747MOL0     H 3061   3.873   9.613   4.095  2.2934  1.8622 -0.6687
  747MOL0     H 3062   3.670   9.701   3.945  0.0745  0.7312  0.2238
  747MOL0     H 3063   3.651   9.820   4.053  2.8805  0.4784  0.1291
  747MOL0     H 3064   3.638   9.590   4.220  0.9221 -0.6528 -0.0269
  747MOL0     H 3065   3.590   9.523   4.072  0.3663 -0.3252  1.9311
  747MOL0     H 3066   3.991  10.299   4.001 -0.7182  2.5645 -0.1700
  747MOL0     H 3067   3.980  10.503   4.100 -1.1599  1.5585  0.6217
  747MOL0     H 3068   3.719  10.717   4.414 -1.1706  1.8051 -0.4080
  747MOL0     H 3069   3.667  10.931   4.519  0.6240 -0.0500 -0.0038
  747MOL0     H 3070   4.641   9.988   5.148 -0.9737 -0.6441  0.6407
  747MOL0     H 3071   4.583   9.748   5.152 -1.3291  1.2836  1.0226
  747MOL0     H 3072   4.748   9.377   5.463 -2.5746 -0.3885  1.6382
  747MOL0     H 3073   4.771   9.140   5.504  1.9977 -0.1381 -1.5199
  747MOL0     H 3074   4.860   8.908   5.141 -1.4951 -0.9182 -0.3635
  747MOL0     H 3075   4.935   8.927   5.299  0.3064 -0.6880  0.8623
  747MOL0     H 3076   4.859   8.701   5.363  2.8057  1.9137  0.5780
  747MOL0     H 3077   4.952   8.686   5.211 -0.8220 -0.7931 -0.7894
  747MOL0     H 3078   4.747   8.542   5.211  2.4435  0.1695 -1.1866
  747MOL0     H 3079   4.644   8.686   5.220 -0.0553  1.5051 -0.1289
  747MOL0     H 3080   4.736   8.758   4.985  0.1699 -0.7694 -2.7839
  747MOL0     H 3081   4.640   8.608   5.004 -0.0113  0.5861 -1.9113
  747MOL0     H 3082   5.024   8.506   4.855  0.4619  1.0555  0.2308
  747MOL0     H 3083   4.655   9.061   5.096 -0.4965 -0.1735  1.3152
  747MOL0     H 3084   4.629   9.223   4.950  0.6664 -2.6865  3.2612
  747MOL0     H 3085   4.573   9.377   5.002 -0.4151 -0.4865 -0.6630
  747MOL0     H 3086   4.750   9.361   4.973 -0.2102  0.2027 -0.6395
  748MOL0     O 3087   6.159   7.008  10.414 -0.1843 -0.1305  0.3642
  748MOL0     C 3088   6.070   7.093  10.422 -0.1351  0.3085  0.1615
  748MOL0     O 3089   6.047   7.191  10.336  0.4540 -0.2484 -0.6681
  748MOL0     C 3090   6.143   7.211  10.243  0.9383  0.9543  0.4039
  748MOL0     C 3091   6.229   7.326  10.245 -0.2309  0.2033 -0.6160
  748MOL0     C 3092   6.319   7.347  10.145 -0.0411 -0.2705  1.0545
  748MOL0     C 3093   6.329   7.272  10.024 -0.0991  0.1168 -0.2687
  748MOL0     O 3094   6.408   7.300   9.925 -0.0761  0.0936  0.2730
  748MOL0     C 3095   6.442   7.437   9.912  0.5104 -0.4651  0.4589
  748MOL0     C 3096   6.534   7.456   9.785  0.1087 -0.3069 -0.0683
  748MOL0     C 3097   6.489   7.378   9.657 -0.2549 -0.4880 -0.1298
  748MOL0     C 3098   6.613   7.368   9.576  0.0688  0.6764  0.5734
  748MOL0     C 3099   6.589   7.355   9.426  0.4424  0.1767 -0.3837
  748MOL0     C 3100   6.720   7.333   9.348 -0.6175  0.2990  0.0296
  748MOL0     C 3101   6.700   7.277   9.210  0.0257  0.8655  0.7804
  748MOL0     C 3102   6.641   7.374   9.107 -0.7504  0.2088 -0.3131
  748MOL0     N 3103   6.626   7.308   8.980  0.4149 -0.0193 -0.2481
  748MOL0     C 3104   6.721   7.327   8.879  0.0521  0.4703 -0.1511
  748MOL0     C 3105   6.661   7.259   8.767 -0.6224 -0.0445 -0.4013
  748MOL0     C 3106   6.727   7.240   8.629 -0.5282  0.4480 -0.7996
  748MOL0     C 3107   6.614   7.237   8.519  0.9835  1.0492 -0.4726
  748MOL0     C 3108   6.684   7.270   8.380  0.0728 -0.3050  0.1751
  748MOL0     C 3109   6.576   7.282   8.279  0.0974 -0.3936 -0.0243
  748MOL0     O 3110   6.650   7.297   8.149 -0.4816  0.4885 -0.3907
  748MOL0     C 3111   6.575   7.256   8.037 -0.3134  0.0037  0.2713
  748MOL0     C 3112   6.525   7.125   8.036 -0.1836 -0.4675 -0.5760
  748MOL0     C 3113   6.436   7.074   7.925 -0.2905 -0.3022 -0.8283
  748MOL0     C 3114   6.398   6.929   7.928 -0.5461  0.4784 -0.3166
  748MOL0     C 3115   6.398   7.173   7.830  0.1392  0.1784 -1.3112
  748MOL0     C 3116   6.280   7.156   7.741 -0.8486  0.0563  0.7953
  748MOL0     O 3117   6.300   7.202   7.612  0.4578 -0.4707  0.0791
  748MOL0     C 3118   6.193   7.180   7.528 -0.2985  0.3675 -0.1961
  748MOL0     C 3119   6.203   7.071   7.442  0.5971 -0.7871  0.0269
  748MOL0     C 3120   6.119   7.055   7.328  0.5840 -0.4639 -1.4770
  748MOL0     C 3121   6.008   7.145   7.307  0.1281 -0.6798  0.0522
  748MOL0     O 3122   5.918   7.116   7.208 -0.0851  0.3225 -0.0514
  748MOL0     C 3123   5.842   7.228   7.162 -0.0219  0.1717 -0.3124
  748MOL0     C 3124   5.757   7.175   7.047 -0.0254 -0.0927  0.1873
  748MOL0     C 3125   5.823   7.191   6.912  0.2875  0.4454 -0.0483
  748MOL0     C 3126   5.792   7.322   6.841 -0.1452 -0.1287 -0.4369
  748MOL0     C 3127   5.847   7.335   6.700  0.7718 -0.1091 -0.2651
  748MOL0     C 3128   5.998   7.320   6.688  0.2116  0.4992  0.1743
  748MOL0     C 3129   6.058   7.352   6.551  0.1104 -0.3361  0.3913
  748MOL0     C 3130   6.202   7.329   6.541 -0.0250 -0.3974 -1.4700
  748MOL0    Cl 3131   6.286   7.445   6.649  0.3227 -0.1222  0.5980
  748MOL0     C 3132   5.995   7.257   7.400 -1.2754 -0.0285 -0.0820
  748MOL0     C 3133   6.085   7.271   7.508  0.2066  0.9081 -0.4531
  748MOL0     O 3134   6.172   7.111   7.785  0.8571  0.5674 -0.3515
  748MOL0     C 3135   6.465   7.293   7.828  0.4164 -0.1145 -1.2800
  748MOL0     C 3136   6.556   7.337   7.928 -0.3725  0.2290  0.1220
  748MOL0     N 3137   6.546   7.200   8.812  0.4063 -0.3732 -0.2017
  748MOL0     N 3138   6.517   7.243   8.933  0.0303  0.0684 -0.2410
  748MOL0     C 3139   6.234   7.173  10.010  0.4406  0.5135  0.4254
  748MOL0     C 3140   6.142   7.145  10.114 -0.5790  0.0529 -0.2273
  748MOL0     C 3141   5.988   7.074  10.551  0.3762 -0.8477  0.5066
  748MOL0     C 3142   5.853   7.107  10.537 -0.2182 -0.8076 -0.5769
  748MOL0     C 3143   5.758   7.102  10.635  0.1454 -0.2741  0.2754
  748MOL0     C 3144   5.795   7.052  10.757 -0.7571 -0.1637 -0.0763
  748MOL0     O 3145   5.700   7.052  10.853 -0.2964 -0.6737  0.4401
  748MOL0     C 3146   5.594   6.957  10.827  0.3845  0.3312  1.2329
  748MOL0     C 3147   5.461   7.007  10.804 -0.0469  0.9940 -0.1963
  748MOL0     C 3148   5.424   7.092  10.930 -0.2282  0.1777  0.4999
  748MOL0     C 3149   5.293   7.165  10.905  0.4973  0.5944 -0.2705
  748MOL0     C 3150   5.252   7.246  11.015  0.4910 -0.0083 -0.0699
  748MOL0     C 3151   5.227   7.302  11.119  0.2410 -0.3724 -0.1900
  748MOL0     C 3152   5.933   7.017  10.776 -0.2290 -0.1395 -0.1722
  748MOL0     C 3153   6.031   7.019  10.671  0.3725  0.2046 -0.3121
  748MOL0     C 3154   6.177   6.982  10.704  0.4581 -0.2801 -0.0675
  748MOL0     H 3155   6.230   7.398  10.325  4.0566 -1.9982  1.6559
  748MOL0     H 3156   6.387   7.431  10.158 -1.2656  0.9654 -0.0565
  748MOL0     H 3157   6.507   7.473   9.992  2.0734  0.5301 -1.1651
  748MOL0     H 3158   6.348   7.492   9.912  0.9395  0.4315  3.0819
  748MOL0     H 3159   6.547   7.561   9.758 -0.6989 -0.4774 -1.2202
  748MOL0     H 3160   6.633   7.413   9.805  0.0588 -0.2416  0.3216
  748MOL0     H 3161   6.455   7.281   9.693 -0.8665  0.5895  2.4145
  748MOL0     H 3162   6.402   7.422   9.607  1.9953  1.9886 -2.2234
  748MOL0     H 3163   6.671   7.459   9.592  1.1677 -0.5233  4.7785
  748MOL0     H 3164   6.669   7.285   9.619 -0.3505 -0.0937 -0.3326
  748MOL0     H 3165   6.556   7.454   9.393  0.8677  1.5176  2.8227
  748MOL0     H 3166   6.512   7.280   9.407  0.8824 -0.1743 -0.7938
  748MOL0     H 3167   6.773   7.428   9.359  1.9200 -0.8402 -1.5390
  748MOL0     H 3168   6.779   7.259   9.403  0.8880  0.3681 -1.4104
  748MOL0     H 3169   6.640   7.185   9.207 -1.2764  1.7066  0.2560
  748MOL0     H 3170   6.798   7.246   9.173 -0.7179 -0.6904  0.0123
  748MOL0     H 3171   6.537   7.400   9.131 -1.0726  0.2573 -1.6538
  748MOL0     H 3172   6.710   7.457   9.090 -0.7028  0.2445  0.0573
  748MOL0     H 3173   6.819   7.374   8.884  0.9614 -1.2351 -1.1327
  748MOL0     H 3174   6.779   7.144   8.636 -1.2847  0.0746 -0.1586
  748MOL0     H 3175   6.800   7.321   8.614 -0.9647  1.0691  0.3262
  748MOL0     H 3176   6.563   7.141   8.520  4.2431 -0.8164  0.1122
  748MOL0     H 3177   6.548   7.318   8.552 -0.6124  0.0545 -1.1526
  748MOL0     H 3178   6.740   7.363   8.393 -1.2172  0.4156  0.7231
  748MOL0     H 3179   6.748   7.185   8.352 -1.4170 -1.9825  1.6071
  748MOL0     H 3180   6.523   7.187   8.276 -0.1599 -0.2352 -0.6900
  748MOL0     H 3181   6.502   7.362   8.291 -1.2760 -1.7237  0.6136
  748MOL0     H 3182   6.553   7.055   8.114  0.4289  0.4742  0.0651
  748MOL0     H 3183   6.308   6.909   7.869 -0.1930  2.1832 -1.4739
  748MOL0     H 3184   6.394   6.892   8.031  0.1529 -2.7515 -1.3248
  748MOL0     H 3185   6.480   6.868   7.890  2.0163  2.1521  2.1420
  748MOL0     H 3186   6.291   7.011   7.463  0.8525 -0.0908  1.0749
  748MOL0     H 3187   6.127   6.972   7.259 -0.6472  0.2525 -2.5167
  748MOL0     H 3188   5.768   7.262   7.235 -2.4970  1.5904 -3.2117
  748MOL0     H 3189   5.913   7.307   7.135 -1.6810  1.8703  0.1026
  748MOL0     H 3190   5.709   7.077   7.059  0.8071 -0.3235  1.8544
  748MOL0     H 3191   5.666   7.237   7.042  0.4606  0.8095  1.9122
  748MOL0     H 3192   5.792   7.112   6.843 -0.8787 -0.0679  1.0165
  748MOL0     H 3193   5.932   7.190   6.915  0.3686  2.0428 -1.1301
  748MOL0     H 3194   5.829   7.405   6.902  3.3464 -1.3963 -0.6423
  748MOL0     H 3195   5.683   7.336   6.838  0.1585  3.0954  0.2045
  748MOL0     H 3196   5.809   7.256   6.635  0.9282 -1.3447  1.0904
  748MOL0     H 3197   5.816   7.432   6.659  0.4199  1.1496  2.7142
  748MOL0     H 3198   6.012   7.213   6.708  0.4037  0.4399 -0.2698
  748MOL0     H 3199   6.040   7.384   6.766 -1.1119  2.9422 -1.0081
  748MOL0     H 3200   6.049   7.460   6.538  5.0047 -0.0665 -3.7253
  748MOL0     H 3201   5.996   7.293   6.482 -0.7181 -1.6673  2.1813
  748MOL0     H 3202   6.235   7.329   6.436  1.3492  0.0338 -1.0474
  748MOL0     H 3203   6.230   7.232   6.584  0.9977  1.3902  2.3102
  748MOL0     H 3204   5.915   7.329   7.390 -0.0977  1.6325  1.6777
  748MOL0     H 3205   6.077   7.349   7.583 -2.0695 -1.6101  2.2189
  748MOL0     H 3206   6.435   7.374   7.763 -1.6742  0.1207 -0.1122
  748MOL0     H 3207   6.602   7.435   7.932  2.0757 -0.8700  1.2724
  748MOL0     H 3208   6.233   7.128   9.911  0.5400  1.6603 -0.1062
  748MOL0     H 3209   6.064   7.070  10.105 -0.5227 -0.0738  0.2837
  748MOL0     H 3210   5.809   7.148  10.447  2.7198  1.6119 -1.0506
  748MOL0     H 3211   5.656   7.134  10.621  0.6955  1.5126  0.0871
  748MOL0     H 3212   5.617   6.904  10.733 -1.5884  0.7365  0.4867
  748MOL0     H 3213   5.606   6.894  10.916  0.5283 -0.4641  0.6672
  748MOL0     H 3214   5.388   6.925  10.810 -0.8140  1.7704  2.0059
  748MOL0     H 3215   5.456   7.076  10.719 -0.2315  0.5233 -0.5677
  748MOL0     H 3216   5.429   7.032  11.020  1.3714  0.4671  0.6343
  748MOL0     H 3217   5.504   7.163  10.952  0.2084 -0.6042  1.4833
  748MOL0     H 3218   5.209   7.099  10.880 -2.4276  3.5246  1.0461
  748MOL0     H 3219   5.303   7.242  10.829 -0.7654  2.0399  0.9540
  748MOL0     H 3220   5.208   7.355  11.211 -1.7077 -0.3662 -0.5496
  748MOL0     H 3221   5.965   6.971  10.868 -0.8127 -2.1040 -0.9025
  748MOL0     H 3222   6.177   6.985  10.814 -0.7804 -2.1814  0.0316
  748MOL0     H 3223   6.208   6.881  10.674  0.8244  1.0202 -4.8677
  748MOL0     H 3224   6.255   7.052  10.673 -0.2785  0.8160  0.5057
  749MOL0     O 3225  11.508  10.015   3.888 -0.0464  0.7147 -0.0576
  749MOL0     C 3226  11.396  10.051   3.937 -0.3656  0.8260 -0.8819
  749MOL0     O 3227  11.315   9.971   4.004  0.7302 -0.5632 -0.3862
  749MOL0     C 3228  11.318   9.832   3.984  0.6244 -0.1851  1.0631
  749MOL0     C 3229  11.302   9.756   4.101 -1.2486 -0.5384  0.5124
  749MOL0     C 3230  11.298   9.615   4.090  0.3456  0.0204  0.1129
  749MOL0     C 3231  11.295   9.543   3.967 -0.4288 -0.3852 -0.6154
  749MOL0     O 3232  11.251   9.421   3.954  0.9188  0.1927 -0.4807
  749MOL0     C 3233  11.218   9.345   4.071 -0.2116 -0.8591 -0.2404
  749MOL0     C 3234  11.183   9.202   4.029  0.0802  0.7847 -0.1009
  749MOL0     C 3235  11.246   9.158   3.893 -0.0273  0.6334  0.2915
  749MOL0     C 3236  11.222   9.017   3.837 -0.6726  0.0788 -0.7584
  749MOL0     C 3237  11.287   8.897   3.902 -0.2420 -0.4962  0.1843
  749MOL0     C 3238  11.238   8.764   3.827  0.4713 -0.4080  0.8893
  749MOL0     C 3239  11.095   8.728   3.852 -0.4925 -0.6328 -0.0667
  749MOL0     C 3240  11.062   8.589   3.796  1.1916  0.6201  0.3686
  749MOL0     N 3241  10.927   8.550   3.839 -0.4132  0.7608 -0.4524
  749MOL0     C 3242  10.803   8.593   3.794 -0.7120 -0.1613 -0.1022
  749MOL0     C 3243  10.721   8.525   3.876 -0.4110  0.1557  0.0524
  749MOL0     C 3244  10.574   8.555   3.862  0.7409 -0.1812  0.0215
  749MOL0     C 3245  10.488   8.503   3.982 -0.6517 -0.4406  0.2849
  749MOL0     C 3246  10.507   8.602   4.101 -0.4814  0.2097  0.1147
  749MOL0     C 3247  10.445   8.552   4.236  0.8716  0.3479 -0.4422
  749MOL0     O 3248  10.514   8.445   4.288 -0.0511 -0.3642  0.0067
  749MOL0     C 3249  10.473   8.410   4.413  1.0948  0.0272  0.3167
  749MOL0     C 3250  10.568   8.400   4.510  0.3890 -0.0362 -0.6241
  749MOL0     C 3251  10.553   8.343   4.642  0.1366  0.1419 -0.1830
  749MOL0     C 3252  10.671   8.352   4.741  0.2369 -0.7584 -0.1403
  749MOL0     C 3253  10.426   8.282   4.669  0.4871 -0.8584 -0.8551
  749MOL0     C 3254  10.405   8.209   4.794 -0.3393  0.3089  0.1315
  749MOL0     O 3255  10.516   8.127   4.821  0.5027  0.8827 -0.3265
  749MOL0     C 3256  10.544   8.064   4.938 -0.1080 -0.1723  1.1093
  749MOL0     C 3257  10.637   7.965   4.922 -1.2239  0.2712  0.7629
  749MOL0     C 3258  10.698   7.907   5.033 -0.3241  0.0284  0.1756
  749MOL0     C 3259  10.671   7.947   5.164  0.7428 -0.0392 -0.1026
  749MOL0     O 3260  10.758   7.895   5.262  0.2945 -0.6524 -0.1404
  749MOL0     C 3261  10.709   7.917   5.399 -0.3502 -0.0367 -0.0455
  749MOL0     C 3262  10.787   7.860   5.521  0.2644 -0.3794 -0.5409
  749MOL0     C 3263  10.871   7.727   5.510 -0.4315 -0.1517 -0.5234
  749MOL0     C 3264  10.773   7.603   5.510 -0.0078 -0.9845 -0.4722
  749MOL0     C 3265  10.865   7.480   5.511  0.2975  0.5145  0.3895
  749MOL0     C 3266  10.926   7.446   5.652  0.4029  0.4831 -0.4462
  749MOL0     C 3267  10.818   7.441   5.758  0.1446 -0.0775  0.8846
  749MOL0     C 3268  10.854   7.346   5.864  0.1421  0.6152 -0.4139
  749MOL0    Cl 3269  10.706   7.349   5.973  0.4778  0.0426  0.0023
  749MOL0     C 3270  10.562   8.044   5.179  0.1730  0.3260 -0.4149
  749MOL0     C 3271  10.507   8.099   5.069  0.3266  0.3778  0.0870
  749MOL0     O 3272  10.296   8.212   4.851 -0.4206 -0.3529 -0.6537
  749MOL0     C 3273  10.318   8.301   4.572  0.9639  0.5700  0.3078
  749MOL0     C 3274  10.343   8.364   4.447 -0.3088  1.3542  0.7054
  749MOL0     N 3275  10.787   8.429   3.956 -0.3045  0.6553 -0.5852
  749MOL0     N 3276  10.907   8.449   3.929  0.1999 -0.5206  0.3563
  749MOL0     C 3277  11.318   9.624   3.855 -0.9527 -0.1085 -0.4177
  749MOL0     C 3278  11.337   9.765   3.863 -0.6304  0.1153 -0.6521
  749MOL0     C 3279  11.359  10.188   3.926  0.4656  0.2287  0.1136
  749MOL0     C 3280  11.348  10.249   3.802 -0.8228 -1.0092  0.3756
  749MOL0     C 3281  11.316  10.386   3.791 -0.5480  0.6353  0.3223
  749MOL0     C 3282  11.293  10.464   3.904 -0.2736  0.1439 -0.1655
  749MOL0     O 3283  11.272  10.597   3.888 -0.5855 -0.6180 -0.0134
  749MOL0     C 3284  11.144  10.638   3.929 -0.4524  0.1777  0.1354
  749MOL0     C 3285  11.134  10.766   3.839  1.0693 -0.3346 -0.2959
  749MOL0     C 3286  11.005  10.852   3.871  0.2777 -0.1559  0.3070
  749MOL0     C 3287  10.993  10.996   3.813 -0.4642  0.2092 -0.4638
  749MOL0     C 3288  11.041  11.008   3.675 -0.5421 -0.3720  0.4492
  749MOL0     C 3289  11.080  11.027   3.565  0.3383  0.8212 -0.0085
  749MOL0     C 3290  11.311  10.410   4.035  0.2070 -0.6606  0.5855
  749MOL0     C 3291  11.332  10.271   4.043 -0.0972 -0.4110 -0.0870
  749MOL0     C 3292  11.370  10.218   4.186  0.0718  0.7039  1.2882
  749MOL0     H 3293  11.296   9.807   4.196  0.2244 -2.2713  1.6135
  749MOL0     H 3294  11.292   9.567   4.187  1.3039  0.4340  0.3933
  749MOL0     H 3295  11.129   9.392   4.114 -0.2695 -0.1249 -1.1382
  749MOL0     H 3296  11.296   9.341   4.148 -0.9707 -1.0502  0.5376
  749MOL0     H 3297  11.215   9.133   4.107  0.7313 -0.5745 -1.5025
  749MOL0     H 3298  11.075   9.192   4.020  0.1309  1.5051 -2.1907
  749MOL0     H 3299  11.210   9.225   3.814 -0.5132  0.0252 -0.0060
  749MOL0     H 3300  11.353   9.175   3.903  0.3179 -0.8660 -0.6111
  749MOL0     H 3301  11.116   8.999   3.818 -0.0799 -2.5613 -2.1024
  749MOL0     H 3302  11.262   9.022   3.735 -2.1863  3.2289 -1.3299
  749MOL0     H 3303  11.270   8.895   4.010  1.1717 -1.8364  0.4243
  749MOL0     H 3304  11.395   8.912   3.890 -0.5227  3.9848  1.3217
  749MOL0     H 3305  11.256   8.765   3.719 -1.2208  2.7349  0.5531
  749MOL0     H 3306  11.298   8.678   3.859  1.0898 -0.2093  0.3031
  749MOL0     H 3307  11.028   8.799   3.804  0.1328  0.1237  0.1558
  749MOL0     H 3308  11.081   8.726   3.961  1.5308 -0.5367  0.2417
  749MOL0     H 3309  11.064   8.594   3.686 -0.5671  2.2498  0.3654
  749MOL0     H 3310  11.127   8.506   3.825 -0.9837 -1.6325 -0.8260
  749MOL0     H 3311  10.792   8.679   3.728 -1.3517  2.5943  3.2445
  749MOL0     H 3312  10.548   8.503   3.769  3.6821 -1.5174 -0.1864
  749MOL0     H 3313  10.555   8.659   3.836 -3.4119 -1.6635 -4.2928
  749MOL0     H 3314  10.382   8.509   3.953 -1.1974 -2.0295  1.8254
  749MOL0     H 3315  10.524   8.405   4.014  3.0245  1.3701  2.4102
  749MOL0     H 3316  10.610   8.614   4.136 -0.4483  3.6651 -0.8026
  749MOL0     H 3317  10.473   8.703   4.078 -0.9271 -0.3186 -1.7346
  749MOL0     H 3318  10.443   8.634   4.308 -3.5952 -0.2206  0.3561
  749MOL0     H 3319  10.342   8.532   4.205 -0.2118  2.9961  1.1021
  749MOL0     H 3320  10.660   8.454   4.492 -0.7932  1.7037 -1.7886
  749MOL0     H 3321  10.751   8.283   4.712  2.3265  0.2947  2.6055
  749MOL0     H 3322  10.649   8.343   4.848  0.5059  0.1424  0.0003
  749MOL0     H 3323  10.722   8.449   4.744  0.9141 -1.1237  1.1067
  749MOL0     H 3324  10.657   7.935   4.819 -1.0455  1.4747  0.4356
  749MOL0     H 3325  10.765   7.826   5.005 -2.5066 -1.1702 -2.0063
  749MOL0     H 3326  10.695   8.025   5.409 -2.8083 -0.3389  0.2646
  749MOL0     H 3327  10.612   7.867   5.408 -1.6944  2.3316 -0.6024
  749MOL0     H 3328  10.867   7.933   5.533  0.1019 -0.1401 -0.8657
  749MOL0     H 3329  10.728   7.865   5.613  0.7803 -1.2041 -0.1599
  749MOL0     H 3330  10.933   7.714   5.600 -0.0419  0.4628 -0.7016
  749MOL0     H 3331  10.933   7.732   5.420 -2.0546  0.6856 -1.6440
  749MOL0     H 3332  10.704   7.595   5.425 -3.0924 -2.2117  1.9312
  749MOL0     H 3333  10.712   7.606   5.601  2.1284  2.1164  1.0233
  749MOL0     H 3334  10.803   7.397   5.476 -0.1251 -0.2696  2.8032
  749MOL0     H 3335  10.948   7.493   5.441 -1.9638  0.5870 -2.4401
  749MOL0     H 3336  11.011   7.513   5.665 -1.2805  3.1206 -2.0596
  749MOL0     H 3337  10.967   7.346   5.636  1.6388 -0.0285  4.3349
  749MOL0     H 3338  10.722   7.411   5.714  0.9668  1.3316 -2.1193
  749MOL0     H 3339  10.805   7.539   5.806  1.0870  0.2681  0.4433
  749MOL0     H 3340  10.941   7.380   5.922 -1.4968  2.5214  1.0721
  749MOL0     H 3341  10.859   7.246   5.820 -2.0187  1.6436 -3.2835
  749MOL0     H 3342  10.538   8.069   5.282 -0.5750  1.6630 -0.8873
  749MOL0     H 3343  10.452   8.192   5.069  2.6488  1.8387 -0.7019
  749MOL0     H 3344  10.217   8.272   4.601  0.0440  2.0721 -1.1886
  749MOL0     H 3345  10.271   8.365   4.367  1.1740  1.3683 -0.6892
  749MOL0     H 3346  11.316   9.573   3.759  4.3731  1.2279 -1.5628
  749MOL0     H 3347  11.360   9.812   3.768  2.1438 -0.7260 -0.4765
  749MOL0     H 3348  11.364  10.197   3.708  0.8311 -1.1657  0.7134
  749MOL0     H 3349  11.318  10.450   3.703 -3.8934 -1.5035 -1.5541
  749MOL0     H 3350  11.064  10.564   3.925  0.0285 -0.3003 -2.1679
  749MOL0     H 3351  11.144  10.672   4.033  2.4952 -0.2688  0.3930
  749MOL0     H 3352  11.144  10.736   3.734 -0.9904 -0.9221 -0.3627
  749MOL0     H 3353  11.215  10.836   3.860 -2.2106  2.5541  4.6614
  749MOL0     H 3354  10.928  10.794   3.819  0.9327 -0.1740 -0.6793
  749MOL0     H 3355  10.980  10.852   3.977  3.3182 -1.9382  1.1390
  749MOL0     H 3356  11.056  11.065   3.870 -2.0341 -1.9852  4.5115
  749MOL0     H 3357  10.893  11.038   3.829  0.2418  2.2074 -1.0343
  749MOL0     H 3358  11.097  11.043   3.461 -2.4462 -0.7365 -0.8077
  749MOL0     H 3359  11.310  10.486   4.112 -2.0309  1.5676 -1.4673
  749MOL0     H 3360  11.363  10.297   4.262 -2.1923  1.3913  0.4316
  749MOL0     H 3361  11.306  10.132   4.211  2.7416 -2.0146 -0.5246
  749MOL0     H 3362  11.467  10.168   4.183 -0.4436 -0.2697 -1.3983
  750MOL0     O 3363   4.943   9.492   6.655 -0.7011  0.2628  0.4026
  750MOL0     C 3364   4.863   9.564   6.594  0.5722  0.8560 -0.8903
  750MOL0     O 3365   4.744   9.522   6.536  0.2316 -0.9255  0.7283
  750MOL0     C 3366   4.723   9.391   6.522 -0.5983  0.6537  0.9523
  750MOL0     C 3367   4.607   9.335   6.581  0.1298 -0.4196  1.0046
  750MOL0     C 3368   4.589   9.195   6.578 -0.9338  0.3019 -1.0484
  750MOL0     C 3369   4.671   9.117   6.505 -0.5902 -0.4988  0.6508
  750MOL0     O 3370   4.653   8.983   6.485 -0.3497  0.2378  0.3973
  750MOL0     C 3371   4.521   8.931   6.466 -0.6754  0.0496  0.5974
  750MOL0     C 3372   4.518   8.822   6.363 -0.3682  0.2336  0.6618
  750MOL0     C 3373   4.529   8.871   6.222 -0.0974 -0.3456 -0.1635
  750MOL0     C 3374   4.505   8.757   6.111 -0.0461  0.5573  1.1450
  750MOL0     C 3375   4.537   8.614   6.162  0.3620 -0.9043  0.3841
  750MOL0     C 3376   4.537   8.512   6.053 -0.4038 -0.4959  0.1120
  750MOL0     C 3377   4.638   8.391   6.070  0.2817  0.1636  0.4755
  750MOL0     C 3378   4.581   8.272   5.989  0.4209  0.0958  0.6634
  750MOL0     N 3379   4.668   8.153   5.977 -0.4735 -0.4662 -0.4764
  750MOL0     C 3380   4.632   8.023   6.031 -0.3270  0.8919  0.2474
  750MOL0     C 3381   4.745   7.949   6.011  0.0797 -0.3515 -0.6375
  750MOL0     C 3382   4.774   7.812   6.063 -0.3270 -0.4411  0.1396
  750MOL0     C 3383   4.894   7.819   6.155 -0.2064 -0.5927 -0.3626
  750MOL0     C 3384   4.971   7.686   6.168 -0.0922  0.8689 -0.1582
  750MOL0     C 3385   5.114   7.710   6.231  0.2490  0.4117 -0.1959
  750MOL0     O 3386   5.090   7.738   6.365  0.3806  0.1974 -0.1786
  750MOL0     C 3387   5.115   7.627   6.451  0.0001  0.4905 -1.4099
  750MOL0     C 3388   5.151   7.656   6.583 -0.2301  0.0687  0.3762
  750MOL0     C 3389   5.212   7.559   6.668  0.5299  0.3422  0.5961
  750MOL0     C 3390   5.265   7.606   6.792 -0.1380 -0.6271  1.0507
  750MOL0     C 3391   5.234   7.424   6.620 -0.0913  0.4621  0.4005
  750MOL0     C 3392   5.317   7.318   6.687  0.8314 -0.8146 -0.7579
  750MOL0     O 3393   5.334   7.206   6.620 -0.3733 -0.3287 -0.6733
  750MOL0     C 3394   5.367   7.095   6.690  0.0736 -0.1035 -0.2483
  750MOL0     C 3395   5.261   7.015   6.732  0.2648 -0.7517  0.7006
  750MOL0     C 3396   5.278   6.905   6.821 -0.3065 -0.1815 -0.7118
  750MOL0     C 3397   5.407   6.874   6.878 -0.3232  0.0173  0.0463
  750MOL0     O 3398   5.440   6.768   6.953 -0.5312 -0.1173 -0.1717
  750MOL0     C 3399   5.352   6.656   6.942  0.0846 -0.1142 -0.2122
  750MOL0     C 3400   5.424   6.541   7.020 -0.2310 -0.3227 -0.1736
  750MOL0     C 3401   5.347   6.405   7.024 -0.4396  0.3086  0.5687
  750MOL0     C 3402   5.358   6.330   6.887  1.0533  0.5104  0.8845
  750MOL0     C 3403   5.261   6.213   6.881 -0.5432  0.4435  0.2162
  750MOL0     C 3404   5.308   6.086   6.798 -0.4969 -0.2601 -0.0308
  750MOL0     C 3405   5.319   6.111   6.650  0.0925  0.2340  0.1837
  750MOL0     C 3406   5.187   6.174   6.587 -0.6532 -0.5536 -0.0112
  750MOL0    Cl 3407   5.190   6.354   6.592 -0.3317  0.2960  0.0211
  750MOL0     C 3408   5.514   6.961   6.839  0.6791 -0.8677 -0.6937
  750MOL0     C 3409   5.489   7.070   6.752 -0.1234  0.3437 -0.8463
  750MOL0     O 3410   5.360   7.336   6.800  0.0480 -0.0382  0.4612
  750MOL0     C 3411   5.169   7.394   6.491 -0.1225  0.6589 -0.6607
  750MOL0     C 3412   5.117   7.490   6.409 -0.4635  0.1107 -0.3972
  750MOL0     N 3413   4.825   8.024   5.917  0.2414 -0.3079 -0.6645
  750MOL0     N 3414   4.784   8.144   5.909  0.5397 -0.0878  0.7106
  750MOL0     C 3415   4.786   9.172   6.445  1.4889  0.1774 -0.0912
  750MOL0     C 3416   4.814   9.301   6.455  0.7696 -0.3600  0.2733
  750MOL0     C 3417   4.884   9.710   6.602 -0.4594 -0.0822  0.3739
  750MOL0     C 3418   5.021   9.762   6.595 -0.5919  0.0958 -0.3560
  750MOL0     C 3419   5.042   9.901   6.580 -1.1589  0.3589  0.2571
  750MOL0     C 3420   4.936   9.991   6.586  0.5256 -0.1148  0.4576
  750MOL0     O 3421   4.965  10.126   6.589 -0.0925 -0.0460 -0.4604
  750MOL0     C 3422   4.956  10.171   6.721  0.0996  0.4551 -0.6132
  750MOL0     C 3423   5.038  10.300   6.724  0.2296  0.1097 -0.5412
  750MOL0     C 3424   4.973  10.408   6.634 -0.1099 -0.2181 -0.0158
  750MOL0     C 3425   5.034  10.410   6.488  0.0852  0.3214  0.4764
  750MOL0     C 3426   4.956  10.481   6.387  1.3911 -0.0457  0.2533
  750MOL0     C 3427   4.886  10.554   6.315 -0.8753 -0.3466 -0.6518
  750MOL0     C 3428   4.805   9.940   6.595  0.2016  0.2241 -0.6586
  750MOL0     C 3429   4.783   9.802   6.616  0.4285 -0.5331 -0.4932
  750MOL0     C 3430   4.644   9.756   6.657  0.9052 -0.3261 -0.4258
  750MOL0     H 3431   4.546   9.409   6.633  1.8958  1.3955  0.6180
  750MOL0     H 3432   4.501   9.171   6.638  0.5137  0.5870  1.3428
  750MOL0     H 3433   4.461   9.017   6.434  0.7930  1.0191  0.3454
  750MOL0     H 3434   4.481   8.902   6.564 -0.5375 -2.7310 -0.0920
  750MOL0     H 3435   4.601   8.752   6.372  0.9453  1.5383 -0.6829
  750MOL0     H 3436   4.418   8.778   6.367 -0.7253  1.0309  0.6856
  750MOL0     H 3437   4.453   8.947   6.202 -0.6308 -0.7624  0.2687
  750MOL0     H 3438   4.624   8.925   6.210 -1.9594  3.4414  0.6878
  750MOL0     H 3439   4.399   8.755   6.085 -0.1199  0.2579  1.4600
  750MOL0     H 3440   4.552   8.780   6.016  0.7765  0.1162  1.4396
  750MOL0     H 3441   4.464   8.578   6.235 -1.3577 -0.6789 -1.1329
  750MOL0     H 3442   4.634   8.625   6.209  0.4483  1.5018 -0.2209
  750MOL0     H 3443   4.437   8.471   6.037  0.5632 -1.7589 -3.5667
  750MOL0     H 3444   4.562   8.571   5.964 -0.2903 -1.2997 -0.3897
  750MOL0     H 3445   4.646   8.361   6.175  0.4962 -0.6816  0.2271
  750MOL0     H 3446   4.737   8.419   6.034  0.4223 -1.3078 -0.3532
  750MOL0     H 3447   4.482   8.254   6.033 -0.9108  4.0128 -0.3640
  750MOL0     H 3448   4.569   8.305   5.885 -1.1750 -0.0874  0.7672
  750MOL0     H 3449   4.559   8.007   6.110  1.4688  0.9281  2.0109
  750MOL0     H 3450   4.781   7.745   5.977 -0.1339  2.4825 -2.2950
  750MOL0     H 3451   4.690   7.767   6.118 -2.2040 -0.0402 -2.2184
  750MOL0     H 3452   4.966   7.885   6.105  0.4197 -0.3277  0.8701
  750MOL0     H 3453   4.857   7.860   6.249 -2.0229 -0.8318 -0.9239
  750MOL0     H 3454   4.909   7.618   6.227 -1.1797  2.6996  0.8907
  750MOL0     H 3455   4.989   7.632   6.075 -1.3074 -2.6039  1.4536
  750MOL0     H 3456   5.180   7.627   6.207  1.7802  1.5520 -0.0938
  750MOL0     H 3457   5.156   7.802   6.188  0.3394  0.0130 -0.9770
  750MOL0     H 3458   5.144   7.755   6.627 -0.2677 -0.3465  1.3344
  750MOL0     H 3459   5.374   7.612   6.798  0.1469  1.2946 -2.7406
  750MOL0     H 3460   5.234   7.538   6.871  2.8996 -0.4723  2.5306
  750MOL0     H 3461   5.221   7.704   6.813  0.5525  0.3942 -1.8255
  750MOL0     H 3462   5.161   7.039   6.700 -0.3603 -1.0984  2.3114
  750MOL0     H 3463   5.186   6.851   6.841 -2.8471  3.2877 -2.0315
  750MOL0     H 3464   5.264   6.695   6.995  0.3717  0.5483 -0.2174
  750MOL0     H 3465   5.340   6.611   6.843  1.4996 -2.8755  0.7824
  750MOL0     H 3466   5.516   6.521   6.964 -0.1242  1.3896 -0.6502
  750MOL0     H 3467   5.443   6.588   7.117 -1.2637  0.8516 -0.5072
  750MOL0     H 3468   5.241   6.429   7.038 -0.4942  0.9078 -0.7526
  750MOL0     H 3469   5.390   6.330   7.092  0.8775  0.0557 -0.5071
  750MOL0     H 3470   5.463   6.299   6.874  0.8427  0.2887 -0.3900
  750MOL0     H 3471   5.344   6.392   6.798 -1.1463 -0.1920  0.6817
  750MOL0     H 3472   5.234   6.183   6.983 -2.2114  4.9305  1.2933
  750MOL0     H 3473   5.166   6.247   6.840 -0.0528  2.0726  0.3665
  750MOL0     H 3474   5.237   6.006   6.819 -1.9227  1.2117  1.1186
  750MOL0     H 3475   5.403   6.050   6.837  0.3025  2.3071  0.5759
  750MOL0     H 3476   5.328   6.009   6.612 -2.1796  0.3218 -0.7562
  750MOL0     H 3477   5.416   6.161   6.637  1.1973 -1.8626 -0.1355
  750MOL0     H 3478   5.095   6.127   6.623 -0.8841 -0.7912 -0.8877
  750MOL0     H 3479   5.216   6.148   6.485  3.2075 -1.4985  1.1290
  750MOL0     H 3480   5.615   6.940   6.873  0.0402 -1.0238  1.2608
  750MOL0     H 3481   5.573   7.136   6.731  3.4577 -3.0919  1.0976
  750MOL0     H 3482   5.164   7.288   6.470  2.8101  0.3651 -0.3438
  750MOL0     H 3483   5.091   7.448   6.312 -0.7560  0.8856 -0.6627
  750MOL0     H 3484   4.856   9.103   6.398  0.6902  0.5479 -1.9000
  750MOL0     H 3485   4.905   9.328   6.402  0.8393 -0.3377  0.4043
  750MOL0     H 3486   5.088   9.677   6.603 -1.3859 -1.2808 -5.1338
  750MOL0     H 3487   5.142   9.944   6.583 -2.2811  3.1275  1.8364
  750MOL0     H 3488   4.850  10.182   6.744 -0.5046 -1.5136 -2.1538
  750MOL0     H 3489   4.999  10.096   6.787  0.8146  0.6378 -0.8553
  750MOL0     H 3490   5.140  10.283   6.687 -0.6118 -3.4533 -1.6653
  750MOL0     H 3491   5.028  10.348   6.821 -1.0242  1.1910 -1.1873
  750MOL0     H 3492   4.865  10.392   6.642 -0.5025  2.1156  0.0040
  750MOL0     H 3493   5.004  10.503   6.677 -0.1362  0.3151 -1.1286
  750MOL0     H 3494   5.056  10.311   6.448  0.6693  1.2216 -1.6099
  750MOL0     H 3495   5.130  10.462   6.486  0.2537 -0.0154 -0.7329
  750MOL0     H 3496   4.824  10.608   6.246 -0.2088  0.6307 -0.5195
  750MOL0     H 3497   4.725  10.011   6.613  0.8713  0.6194  1.0197
  750MOL0     H 3498   4.653   9.668   6.721 -0.0780 -2.5569 -3.1602
  750MOL0     H 3499   4.595   9.836   6.714  0.2288 -0.5066 -0.7369
  750MOL0     H 3500   4.586   9.719   6.572 -1.0904 -0.2632  0.8429
  751MOL0     O 3501  11.044   0.215   0.051  1.0270 -0.4619  0.2287
  751MOL0     C 3502  11.117   0.292   0.109  0.5183  0.2676 -0.0341
  751MOL0     O 3503  11.111   0.321   0.246  0.5002 -0.2010  0.5824
  751MOL0     C 3504  10.999   0.285   0.322 -0.3560 -0.7666 -0.2279
  751MOL0     C 3505  10.878   0.348   0.290 -0.2462 -0.0058  0.5583
  751MOL0     C 3506  10.767   0.313   0.369 -0.3997  1.4697  0.0172
  751MOL0     C 3507  10.773   0.225   0.477 -0.5437 -0.5325 -0.1947
  751MOL0     O 3508  10.660   0.196   0.542  0.2396 -0.5025 -0.7823
  751MOL0     C 3509  10.653   0.087   0.643 -0.5786 -0.0374  0.8794
  751MOL0     C 3510  10.514   0.035   0.636 -0.0767 -0.1729  0.3095
  751MOL0     C 3511  10.399   0.143   0.650 -0.2065  0.2224 -0.9196
  751MOL0     C 3512  10.263   0.080   0.634  0.4641  0.1168  0.1975
  751MOL0     C 3513  10.146   0.186   0.666 -1.1124 -0.6426  0.3631
  751MOL0     C 3514  10.021   0.104   0.696 -1.2611  0.2200  0.9532
  751MOL0     C 3515   9.899   0.192   0.726  0.9511 -0.2480 -1.3983
  751MOL0     C 3516   9.834   0.290   0.619  0.5299  0.3348 -0.5476
  751MOL0     N 3517   9.741   0.217   0.520 -0.1582  0.3042 -0.5359
  751MOL0     C 3518   9.625   0.156   0.552  0.0869 -0.1205 -0.7172
  751MOL0     C 3519   9.589   0.084   0.448  1.3857  0.7474 -0.7873
  751MOL0     C 3520   9.465  -0.015   0.452 -0.8797 -1.0795  0.4258
  751MOL0     C 3521   9.510  -0.160   0.450  0.4480 -0.7186 -0.2892
  751MOL0     C 3522   9.414  -0.260   0.495 -0.3702 -0.0636  0.1274
  751MOL0     C 3523   9.305  -0.307   0.397  0.5896  0.2951 -0.2893
  751MOL0     O 3524   9.361  -0.343   0.269 -0.0237 -0.5537 -0.4138
  751MOL0     C 3525   9.270  -0.388   0.182  0.0444 -0.9789  0.2597
  751MOL0     C 3526   9.228  -0.304   0.082  0.1872 -0.1588 -0.2603
  751MOL0     C 3527   9.148  -0.351  -0.026  0.1377 -0.9356  1.5978
  751MOL0     C 3528   9.107  -0.245  -0.124  0.3165 -0.0463  0.6059
  751MOL0     C 3529   9.106  -0.480  -0.028  0.1747  0.3211 -0.1494
  751MOL0     C 3530   9.001  -0.524  -0.134 -0.7816 -0.0067 -0.0302
  751MOL0     O 3531   9.011  -0.465  -0.258 -0.1249 -0.4172  0.3976
  751MOL0     C 3532   8.906  -0.477  -0.345  0.2202  0.1669 -0.8837
  751MOL0     C 3533   8.763  -0.466  -0.321  0.2164  0.5459 -0.3082
  751MOL0     C 3534   8.668  -0.440  -0.424  0.0863 -1.0298 -0.2189
  751MOL0     C 3535   8.713  -0.441  -0.557 -0.0157  0.0113 -0.6503
  751MOL0     O 3536   8.625  -0.446  -0.660 -0.3951  0.2384  1.1497
  751MOL0     C 3537   8.652  -0.545  -0.762  0.0357 -0.3779  0.4422
  751MOL0     C 3538   8.665  -0.480  -0.902 -0.5819 -0.3594 -0.0399
  751MOL0     C 3539   8.798  -0.396  -0.927 -0.3039 -0.7111  0.5320
  751MOL0     C 3540   8.778  -0.334  -1.068  0.3377 -0.6442 -0.5775
  751MOL0     C 3541   8.898  -0.252  -1.116  0.1850 -0.1837 -1.2526
  751MOL0     C 3542   8.880  -0.229  -1.262 -0.2756 -0.0624  0.8093
  751MOL0     C 3543   8.968  -0.110  -1.312  0.5237 -0.6600  0.2154
  751MOL0     C 3544   9.124  -0.115  -1.287  0.7997  0.2592 -0.0240
  751MOL0    Cl 3545   9.190  -0.277  -1.324  0.0146  0.3713 -0.6455
  751MOL0     C 3546   8.855  -0.437  -0.574  0.6080 -0.6013  0.5830
  751MOL0     C 3547   8.947  -0.450  -0.473  0.2423  0.0056 -0.2725
  751MOL0     O 3548   8.911  -0.603  -0.104 -0.5233  0.1390 -0.1568
  751MOL0     C 3549   9.142  -0.568   0.071 -0.6077  0.4419 -0.7808
  751MOL0     C 3550   9.221  -0.522   0.173  0.5840 -1.1599  0.0892
  751MOL0     N 3551   9.687   0.097   0.356 -0.9712 -0.1969  0.4967
  751MOL0     N 3552   9.772   0.178   0.391 -0.0116  0.5463 -0.8127
  751MOL0     C 3553  10.898   0.175   0.512  0.5707 -0.4059 -0.0851
  751MOL0     C 3554  11.012   0.212   0.438  1.4373  0.2402 -1.4961
  751MOL0     C 3555  11.214   0.365   0.027  0.0829 -0.1291 -0.1612
  751MOL0     C 3556  11.345   0.380   0.070  0.9227  0.6822 -0.0753
  751MOL0     C 3557  11.440   0.455   0.007  0.3406  0.0280  0.4810
  751MOL0     C 3558  11.405   0.508  -0.123 -0.1232 -0.1431  0.6507
  751MOL0     O 3559  11.481   0.594  -0.198 -0.7780  0.2969 -0.7119
  751MOL0     C 3560  11.610   0.548  -0.215 -0.3874  0.1363  0.0885
  751MOL0     C 3561  11.699   0.614  -0.112  0.6225  0.1921 -0.0075
  751MOL0     C 3562  11.756   0.748  -0.153  0.0664  0.5956  0.3273
  751MOL0     C 3563  11.870   0.790  -0.072  0.8231  0.5810  0.5111
  751MOL0     C 3564  11.870   0.752   0.074 -0.4446  0.4485  0.8389
  751MOL0     C 3565  11.877   0.732   0.191  0.7128  0.3568 -0.5541
  751MOL0     C 3566  11.271   0.495  -0.168 -0.8393 -0.1800  1.2178
  751MOL0     C 3567  11.177   0.428  -0.095 -0.4180  0.0327  0.3533
  751MOL0     C 3568  11.029   0.443  -0.134 -1.0627 -0.9423 -1.0507
  751MOL0     H 3569  10.867   0.414   0.204  0.9810 -1.9325 -1.1686
  751MOL0     H 3570  10.662   0.334   0.349 -1.1774 -2.0034 -0.2156
  751MOL0     H 3571  10.663   0.121   0.747  3.4289 -1.8972  1.2735
  751MOL0     H 3572  10.721   0.004   0.629  0.2306  0.7590 -0.0699
  751MOL0     H 3573  10.512  -0.010   0.537  0.7876 -0.5142  0.4394
  751MOL0     H 3574  10.508  -0.050   0.705  1.1229 -2.8091 -2.6119
  751MOL0     H 3575  10.404   0.180   0.753  1.2665  0.0400 -0.8985
  751MOL0     H 3576  10.420   0.232   0.590 -0.3057 -0.0864 -1.4104
  751MOL0     H 3577  10.253   0.039   0.533  2.6693  1.9734 -0.8524
  751MOL0     H 3578  10.258  -0.009   0.697 -0.5884 -0.2546 -0.3804
  751MOL0     H 3579  10.122   0.250   0.580  2.1893  0.0926 -0.1313
  751MOL0     H 3580  10.171   0.259   0.743 -1.7261 -0.4243  0.3616
  751MOL0     H 3581   9.998   0.039   0.612  1.5071  3.3808 -2.6041
  751MOL0     H 3582  10.042   0.050   0.789 -0.3665 -1.1158  0.0123
  751MOL0     H 3583   9.921   0.246   0.820  0.1185 -2.4323  0.1274
  751MOL0     H 3584   9.820   0.121   0.750  2.8207 -1.5841  1.5297
  751MOL0     H 3585   9.769   0.351   0.681 -1.0671 -2.5133  0.7617
  751MOL0     H 3586   9.912   0.345   0.565  1.4172  0.6712  1.0058
  751MOL0     H 3587   9.582   0.149   0.652  1.5140  0.2131 -0.0598
  751MOL0     H 3588   9.392   0.022   0.379 -2.4898  0.5712  2.7074
  751MOL0     H 3589   9.422   0.001   0.551 -3.1443 -0.3063 -0.6226
  751MOL0     H 3590   9.556  -0.193   0.356 -1.7213 -2.1211 -0.9092
  751MOL0     H 3591   9.586  -0.174   0.527  0.2926 -1.0551 -0.1987
  751MOL0     H 3592   9.457  -0.358   0.520 -2.9935 -0.5210  3.6907
  751MOL0     H 3593   9.371  -0.221   0.588  0.2188  0.3442  0.2335
  751MOL0     H 3594   9.247  -0.392   0.436  2.9994 -0.9402  0.8107
  751MOL0     H 3595   9.243  -0.218   0.381  1.3477  0.6031 -1.6846
  751MOL0     H 3596   9.254  -0.199   0.083  1.9103 -0.4641  3.3147
  751MOL0     H 3597   9.172  -0.242  -0.212 -1.0782 -3.8777 -0.7593
  751MOL0     H 3598   9.098  -0.149  -0.073 -3.9732  0.2286 -0.3189
  751MOL0     H 3599   9.004  -0.259  -0.158  0.6032  2.0322 -1.2716
  751MOL0     H 3600   8.731  -0.491  -0.220 -3.1867 -1.3045 -1.6877
  751MOL0     H 3601   8.564  -0.427  -0.395  0.5637  0.5638  0.9504
  751MOL0     H 3602   8.743  -0.600  -0.740  1.5973  1.8067 -0.2491
  751MOL0     H 3603   8.567  -0.614  -0.762 -0.7066  0.5041 -0.0553
  751MOL0     H 3604   8.646  -0.552  -0.982 -0.2537 -2.1984  1.4632
  751MOL0     H 3605   8.586  -0.406  -0.920  1.1234  1.7736  0.7059
  751MOL0     H 3606   8.878  -0.470  -0.916  0.1956 -0.4704 -1.1176
  751MOL0     H 3607   8.813  -0.311  -0.860 -1.9258 -0.2189  0.3251
  751MOL0     H 3608   8.693  -0.267  -1.078  0.4884 -0.3959 -0.2245
  751MOL0     H 3609   8.759  -0.408  -1.146 -1.5911 -0.8865  0.0790
  751MOL0     H 3610   8.904  -0.168  -1.047  2.1256 -3.2096  2.6138
  751MOL0     H 3611   8.989  -0.312  -1.104  2.6551  3.3083 -1.2264
  751MOL0     H 3612   8.772  -0.215  -1.271 -0.4402 -1.3626  0.6423
  751MOL0     H 3613   8.910  -0.317  -1.319  1.5796  0.6029  0.6853
  751MOL0     H 3614   8.940  -0.008  -1.284  3.4576  0.4357 -0.4186
  751MOL0     H 3615   8.959  -0.105  -1.421  1.5995 -2.9920 -0.0435
  751MOL0     H 3616   9.156  -0.097  -1.184  0.5900  0.6512 -0.0287
  751MOL0     H 3617   9.180  -0.049  -1.354  1.2096 -2.0071 -2.0571
  751MOL0     H 3618   8.895  -0.429  -0.675  2.6478 -2.0231  1.2205
  751MOL0     H 3619   9.050  -0.417  -0.484  0.6784  0.5043  3.7679
  751MOL0     H 3620   9.117  -0.673   0.070  2.2422 -0.3355 -0.1440
  751MOL0     H 3621   9.268  -0.596   0.237 -2.3252 -0.5449  3.2413
  751MOL0     H 3622  10.922   0.121   0.603  1.3601  0.9683  0.5595
  751MOL0     H 3623  11.108   0.175   0.473 -0.0520  0.1217  2.9934
  751MOL0     H 3624  11.366   0.358   0.174  1.4152  3.1091  0.3983
  751MOL0     H 3625  11.538   0.466   0.052  1.2043  0.1870 -1.3786
  751MOL0     H 3626  11.617   0.440  -0.206 -0.4075 -0.0817 -2.0224
  751MOL0     H 3627  11.645   0.565  -0.317  2.3971 -1.1723  0.7317
  751MOL0     H 3628  11.779   0.547  -0.079 -0.8899 -1.5987  0.1809
  751MOL0     H 3629  11.625   0.642  -0.036 -0.3337 -0.0857 -0.8156
  751MOL0     H 3630  11.789   0.725  -0.255  0.9395 -1.7042  1.0589
  751MOL0     H 3631  11.680   0.826  -0.151 -1.7014 -0.8007 -3.1474
  751MOL0     H 3632  11.884   0.897  -0.087 -0.9428  0.6483 -1.0092
  751MOL0     H 3633  11.953   0.731  -0.111  0.4475 -1.6363  2.7571
  751MOL0     H 3634  11.884   0.723   0.298 -3.8440 -0.3181 -0.1108
  751MOL0     H 3635  11.238   0.538  -0.262  1.5898  0.1434  0.4554
  751MOL0     H 3636  11.029   0.471  -0.240  1.3901 -1.3437 -1.2039
  751MOL0     H 3637  10.964   0.355  -0.125 -1.6044 -0.4685 -0.1669
  751MOL0     H 3638  10.979   0.522  -0.076  1.2296 -0.6838  0.7035
  752MOL0     O 3639   5.060   4.889   7.880 -0.2059 -0.1515 -0.0241
  752MOL0     C 3640   5.051   4.768   7.851  0.9562  0.1182  0.3709
  752MOL0     O 3641   5.006   4.727   7.736 -0.4517 -0.6062  1.3411
  752MOL0     C 3642   5.038   4.795   7.618  0.1548 -0.0709 -0.2157
  752MOL0     C 3643   5.132   4.908   7.599 -0.1408  0.7321  0.6384
  752MOL0     C 3644   5.160   4.960   7.469  0.9290  0.6009 -0.6141
  752MOL0     C 3645   5.099   4.897   7.361 -0.0871  0.0698  1.1713
  752MOL0     O 3646   5.116   4.955   7.240  0.5973  0.4112  0.3829
  752MOL0     C 3647   5.171   4.864   7.144 -0.8957  0.0277 -0.3653
  752MOL0     C 3648   5.259   4.932   7.038 -0.9023  1.1288  0.2426
  752MOL0     C 3649   5.343   4.830   6.959  0.6622  0.3182  0.4809
  752MOL0     C 3650   5.451   4.778   7.046 -0.7436  0.5484  1.3841
  752MOL0     C 3651   5.566   4.727   6.955 -0.4312  0.1007  0.6076
  752MOL0     C 3652   5.518   4.592   6.908 -1.1372  0.3287 -0.1768
  752MOL0     C 3653   5.543   4.578   6.756 -0.4345 -0.3668  0.5732
  752MOL0     C 3654   5.542   4.446   6.700 -0.1382  0.3604  0.4221
  752MOL0     N 3655   5.420   4.368   6.717  0.0804  0.3971  0.0668
  752MOL0     C 3656   5.298   4.391   6.654 -0.2351  0.4231  0.1342
  752MOL0     C 3657   5.223   4.285   6.696  0.0099 -0.1435  0.0024
  752MOL0     C 3658   5.076   4.254   6.656  0.1370  0.3956  0.4697
  752MOL0     C 3659   4.988   4.382   6.661 -0.8350 -0.0988 -0.2411
  752MOL0     C 3660   4.840   4.353   6.617 -0.1090  0.4211 -1.0717
  752MOL0     C 3661   4.841   4.312   6.473  0.0434 -0.5348  1.4288
  752MOL0     O 3662   4.835   4.167   6.452  0.2114 -0.0694  0.2363
  752MOL0     C 3663   4.789   4.121   6.331 -0.5049  0.0886  0.1010
  752MOL0     C 3664   4.749   3.987   6.329  0.7924  0.5242 -0.0119
  752MOL0     C 3665   4.692   3.933   6.211  0.5284 -0.0154 -0.3968
  752MOL0     C 3666   4.665   3.789   6.232 -0.1399  0.0612  0.3929
  752MOL0     C 3667   4.690   4.010   6.082  0.6342  0.6141  0.1754
  752MOL0     C 3668   4.641   3.953   5.957  0.7103 -0.6613  1.3961
  752MOL0     O 3669   4.651   4.036   5.851  0.0586 -0.7792 -0.4892
  752MOL0     C 3670   4.609   3.994   5.727  0.3216  0.1626 -0.1634
  752MOL0     C 3671   4.705   3.993   5.621  1.0084  0.4647  0.2373
  752MOL0     C 3672   4.673   3.932   5.499  0.1521 -0.9343  0.8911
  752MOL0     C 3673   4.540   3.890   5.471  0.7930  0.1000 -0.0119
  752MOL0     O 3674   4.515   3.837   5.344 -0.1814 -0.2322 -0.2964
  752MOL0     C 3675   4.400   3.748   5.323 -1.1200  0.1309 -0.6602
  752MOL0     C 3676   4.440   3.621   5.243  0.1818  0.1872 -1.0990
  752MOL0     C 3677   4.494   3.643   5.101 -0.6580 -0.3656 -0.5369
  752MOL0     C 3678   4.482   3.513   5.022  0.1532 -0.5045  0.3163
  752MOL0     C 3679   4.551   3.393   5.073 -0.3671 -0.4576 -0.1273
  752MOL0     C 3680   4.696   3.381   5.024 -0.5874  1.0592 -0.1920
  752MOL0     C 3681   4.764   3.251   5.059 -0.0703 -0.1450 -0.4432
  752MOL0     C 3682   4.913   3.234   5.021  0.9479  0.7216  0.1130
  752MOL0    Cl 3683   4.912   3.160   4.852  0.1257  0.2556 -0.4082
  752MOL0     C 3684   4.441   3.917   5.568 -0.4299  0.2070  0.3861
  752MOL0     C 3685   4.468   3.962   5.703 -0.2163  0.1769  1.2902
  752MOL0     O 3686   4.610   3.830   5.945 -0.6405  0.0165  0.0508
  752MOL0     C 3687   4.747   4.135   6.089 -0.7400  0.0152  0.7266
  752MOL0     C 3688   4.797   4.187   6.207  0.1157  0.6945  0.0492
  752MOL0     N 3689   5.291   4.213   6.798  0.7375 -0.0636 -0.1443
  752MOL0     N 3690   5.408   4.262   6.807 -0.3337  0.0419 -0.5176
  752MOL0     C 3691   5.011   4.793   7.377  0.8893  0.3353 -0.8786
  752MOL0     C 3692   4.968   4.748   7.507 -0.1653  0.6685  0.7081
  752MOL0     C 3693   5.100   4.655   7.935  0.3802 -0.5004  0.1541
  752MOL0     C 3694   5.185   4.558   7.879 -0.1417  0.0732 -0.5030
  752MOL0     C 3695   5.229   4.447   7.948 -1.4149 -0.4139 -0.1057
  752MOL0     C 3696   5.190   4.428   8.084  0.3090 -0.3291  0.4988
  752MOL0     O 3697   5.226   4.318   8.159  0.3904 -0.2184  1.5234
  752MOL0     C 3698   5.360   4.315   8.210 -0.1217 -0.1246 -0.1927
  752MOL0     C 3699   5.454   4.235   8.114  0.5617 -0.3140 -0.0496
  752MOL0     C 3700   5.417   4.091   8.086 -0.0761  0.1188  0.8299
  752MOL0     C 3701   5.510   4.037   7.969  0.0676 -0.5631 -0.0993
  752MOL0     C 3702   5.635   3.979   8.025 -0.4396 -1.0880  0.5342
  752MOL0     C 3703   5.733   3.932   8.069 -0.1160  0.1241  0.6181
  752MOL0     C 3704   5.111   4.532   8.148  0.4518  0.9762  0.2621
  752MOL0     C 3705   5.064   4.644   8.077 -0.0404 -0.2381 -0.4155
  752MOL0     C 3706   4.990   4.749   8.160 -0.2472 -0.6155  0.2612
  752MOL0     H 3707   5.162   4.961   7.688 -1.9152 -0.2734  1.8874
  752MOL0     H 3708   5.222   5.046   7.445  2.5914 -0.2072  0.5841
  752MOL0     H 3709   5.099   4.816   7.077  2.2438 -0.5289 -3.6499
  752MOL0     H 3710   5.224   4.778   7.188  2.8703  0.1786 -4.0422
  752MOL0     H 3711   5.195   4.978   6.962 -2.6682 -1.9985 -0.3560
  752MOL0     H 3712   5.331   5.005   7.077  0.9298 -1.1468  1.4152
  752MOL0     H 3713   5.280   4.755   6.911  2.0142  0.4742 -1.6743
  752MOL0     H 3714   5.392   4.876   6.873  1.7626 -1.2616  0.2183
  752MOL0     H 3715   5.498   4.857   7.105  6.0675 -2.1476  0.5279
  752MOL0     H 3716   5.415   4.706   7.120 -1.0733 -0.0160  0.6936
  752MOL0     H 3717   5.652   4.722   7.023 -1.6664 -0.4763  2.2153
  752MOL0     H 3718   5.591   4.795   6.873  0.1824 -1.6936 -0.7489
  752MOL0     H 3719   5.560   4.508   6.965 -0.7912  1.2736  1.0057
  752MOL0     H 3720   5.411   4.574   6.924 -1.6307 -1.1958 -4.2034
  752MOL0     H 3721   5.644   4.617   6.740 -0.6479  0.5477  1.3896
  752MOL0     H 3722   5.474   4.634   6.693 -1.5417 -0.8356  1.3257
  752MOL0     H 3723   5.554   4.453   6.591  2.5810 -4.6757  0.0937
  752MOL0     H 3724   5.626   4.388   6.739  0.0017  0.1206 -0.2220
  752MOL0     H 3725   5.281   4.470   6.581  1.2622 -1.9878 -3.1095
  752MOL0     H 3726   5.020   4.180   6.714 -2.7235  0.7942 -1.5684
  752MOL0     H 3727   5.090   4.207   6.559  0.4543  0.0139  0.6958
  752MOL0     H 3728   4.977   4.412   6.765  0.5297  0.2990 -0.1924
  752MOL0     H 3729   5.038   4.453   6.594  0.9488 -2.7368 -1.9362
  752MOL0     H 3730   4.784   4.284   6.681  0.9302  2.9741  2.9999
  752MOL0     H 3731   4.788   4.447   6.633  1.7627  1.2941  0.3493
  752MOL0     H 3732   4.764   4.360   6.413  1.8053 -0.2430 -0.7207
  752MOL0     H 3733   4.930   4.357   6.428 -2.4182  2.0658 -1.1567
  752MOL0     H 3734   4.770   3.934   6.421  2.9240  3.1347  1.1120
  752MOL0     H 3735   4.706   3.742   6.322  1.9670 -3.6996 -2.2258
  752MOL0     H 3736   4.715   3.736   6.150 -1.9500  2.4137 -2.4390
  752MOL0     H 3737   4.560   3.761   6.217  0.5780 -1.2532 -3.4590
  752MOL0     H 3738   4.805   4.030   5.644  1.0929  1.0197 -0.9486
  752MOL0     H 3739   4.751   3.947   5.425 -3.6310 -0.3391 -3.4235
  752MOL0     H 3740   4.342   3.718   5.411  0.2291 -0.8546 -0.0694
  752MOL0     H 3741   4.330   3.803   5.259  0.1317  1.3307 -1.0430
  752MOL0     H 3742   4.522   3.576   5.300  1.5133 -0.0645 -3.1128
  752MOL0     H 3743   4.354   3.554   5.248 -0.7646  1.4085 -0.5346
  752MOL0     H 3744   4.597   3.678   5.109 -0.6650 -0.3695 -0.4304
  752MOL0     H 3745   4.440   3.727   5.056  0.6427 -0.7243 -2.9263
  752MOL0     H 3746   4.503   3.528   4.915 -4.0152 -0.2972 -0.6487
  752MOL0     H 3747   4.375   3.491   5.022  0.3980 -1.7835  1.2876
  752MOL0     H 3748   4.544   3.368   5.179 -1.2667 -0.2081 -0.1196
  752MOL0     H 3749   4.490   3.315   5.026 -1.7907  0.6000 -0.1192
  752MOL0     H 3750   4.759   3.461   5.063 -0.0794 -0.2833  1.8602
  752MOL0     H 3751   4.694   3.399   4.916  0.3056 -3.0251 -1.0509
  752MOL0     H 3752   4.716   3.162   5.019  3.6128 -1.8627 -1.5287
  752MOL0     H 3753   4.749   3.269   5.166 -0.2949  0.8373 -0.6249
  752MOL0     H 3754   4.944   3.158   5.094 -3.4949  0.4209  1.9796
  752MOL0     H 3755   4.974   3.323   5.044  0.7009  1.2097 -1.0555
  752MOL0     H 3756   4.340   3.878   5.560  0.7783 -3.3481  0.5780
  752MOL0     H 3757   4.402   3.994   5.783 -2.0446 -0.7339  0.2036
  752MOL0     H 3758   4.755   4.202   6.004 -1.0183  0.5958  1.1507
  752MOL0     H 3759   4.827   4.290   6.222  0.4413  0.5261  0.5695
  752MOL0     H 3760   4.953   4.757   7.292 -1.9616  2.4445  0.0176
  752MOL0     H 3761   4.896   4.669   7.526 -0.6151  1.2551  1.5089
  752MOL0     H 3762   5.217   4.561   7.775  3.8179  2.9464  0.5701
  752MOL0     H 3763   5.282   4.365   7.901 -2.9707 -1.7528  0.3277
  752MOL0     H 3764   5.391   4.420   8.215 -1.1576  0.1393  1.5211
  752MOL0     H 3765   5.351   4.281   8.313 -2.2330 -1.9729 -0.8979
  752MOL0     H 3766   5.556   4.237   8.153  0.2785 -0.0659  0.6949
  752MOL0     H 3767   5.459   4.287   8.018  1.2209 -2.3267 -1.1612
  752MOL0     H 3768   5.421   4.036   8.181 -2.7291  0.4193  1.1939
  752MOL0     H 3769   5.314   4.088   8.049  1.0508 -2.7597 -2.6651
  752MOL0     H 3770   5.523   4.121   7.901 -0.2108 -0.8860 -0.5621
  752MOL0     H 3771   5.467   3.957   7.909  0.7858 -0.1081 -1.2443
  752MOL0     H 3772   5.820   3.875   8.092  1.2476  0.7720 -2.3859
  752MOL0     H 3773   5.096   4.519   8.254  1.2509 -1.2638  0.1620
  752MOL0     H 3774   5.029   4.758   8.262 -2.7336  2.3139  1.0944
  752MOL0     H 3775   4.994   4.852   8.123 -2.0736 -0.5902  0.0147
  752MOL0     H 3776   4.888   4.717   8.186 -0.3756  0.2786  0.8983
  753MOL0     O 3777  11.545   6.092   9.003  0.0370 -0.2608  0.2947
  753MOL0     C 3778  11.579   6.170   9.096  0.0964 -0.8591 -0.4210
  753MOL0     O 3779  11.504   6.272   9.157  0.0747  1.1184  0.2065
  753MOL0     C 3780  11.380   6.317   9.110 -0.5901 -0.7261  0.7063
  753MOL0     C 3781  11.279   6.225   9.061  0.6782  0.1592 -0.3081
  753MOL0     C 3782  11.152   6.257   9.023 -0.2398  0.2072  0.1341
  753MOL0     C 3783  11.120   6.395   9.043  0.9988  0.7967  0.0619
  753MOL0     O 3784  10.994   6.438   9.013 -0.3829  0.4438  0.2660
  753MOL0     C 3785  10.987   6.540   8.908  0.0445 -0.0006 -0.8383
  753MOL0     C 3786  10.899   6.480   8.805 -0.4502  0.2832  1.1250
  753MOL0     C 3787  10.846   6.565   8.686 -0.4402 -0.0689  0.2889
  753MOL0     C 3788  10.968   6.595   8.593 -0.3116 -0.0574 -0.0264
  753MOL0     C 3789  11.019   6.475   8.509 -0.1339 -0.0069  0.2038
  753MOL0     C 3790  10.918   6.413   8.419 -0.1549  0.0265  0.6502
  753MOL0     C 3791  10.970   6.290   8.357  0.1686 -0.5495  0.2736
  753MOL0     C 3792  10.900   6.224   8.233  0.1230  0.5785 -0.1780
  753MOL0     N 3793  10.903   6.299   8.106  0.0834 -0.1327 -1.0682
  753MOL0     C 3794  10.843   6.259   7.989  0.1471  0.3844 -0.1901
  753MOL0     C 3795  10.875   6.350   7.891  0.8567  0.4910  0.4520
  753MOL0     C 3796  10.835   6.348   7.738 -0.8083  0.1968  0.2143
  753MOL0     C 3797  10.830   6.206   7.665  0.1737 -1.3787  0.2382
  753MOL0     C 3798  10.787   6.235   7.517  1.2381  0.3335 -0.1449
  753MOL0     C 3799  10.774   6.109   7.429  0.1927  0.5980 -0.5745
  753MOL0     O 3800  10.770   6.154   7.295  0.3031 -0.2968 -0.9315
  753MOL0     C 3801  10.745   6.067   7.195 -0.4792 -0.0875 -0.3169
  753MOL0     C 3802  10.722   5.931   7.200 -0.5174 -0.6372  0.9007
  753MOL0     C 3803  10.695   5.858   7.082  0.3321 -0.7799 -1.0781
  753MOL0     C 3804  10.631   5.716   7.086 -0.4072 -0.4509  0.2943
  753MOL0     C 3805  10.715   5.917   6.960  0.0890  0.2860  0.0421
  753MOL0     C 3806  10.681   5.845   6.831  0.4841 -0.8714  0.6549
  753MOL0     O 3807  10.555   5.776   6.824  0.2001  0.4665 -1.1693
  753MOL0     C 3808  10.507   5.731   6.711 -0.3779  0.7162  0.5104
  753MOL0     C 3809  10.467   5.594   6.696  0.1489 -0.5663 -0.4366
  753MOL0     C 3810  10.412   5.562   6.570 -0.0986 -0.2260  0.5423
  753MOL0     C 3811  10.432   5.634   6.448 -0.4768  0.0420 -0.2939
  753MOL0     O 3812  10.412   5.577   6.317 -0.2444 -0.2592 -0.4864
  753MOL0     C 3813  10.277   5.540   6.308  0.4552 -0.0603 -0.4225
  753MOL0     C 3814  10.239   5.490   6.169  0.3042 -0.9976 -0.1128
  753MOL0     C 3815  10.114   5.399   6.171  0.2278 -0.2567 -0.7895
  753MOL0     C 3816  10.159   5.261   6.198 -0.3275  0.0708  0.4899
  753MOL0     C 3817  10.045   5.161   6.192  0.2551 -0.3351  0.0672
  753MOL0     C 3818   9.932   5.179   6.287  0.7400 -0.7487 -1.0639
  753MOL0     C 3819   9.984   5.181   6.435 -0.1840  0.1015  1.1483
  753MOL0     C 3820   9.871   5.235   6.528  0.4126 -0.2301  0.9321
  753MOL0    Cl 3821   9.832   5.407   6.498 -0.1913 -0.4233  0.0336
  753MOL0     C 3822  10.483   5.763   6.467  0.3646 -0.5190 -0.8443
  753MOL0     C 3823  10.508   5.815   6.595  0.5750 -0.1223 -0.0392
  753MOL0     O 3824  10.763   5.842   6.743 -0.6287  0.5877  0.9184
  753MOL0     C 3825  10.747   6.049   6.956 -0.0622  0.5724 -0.1964
  753MOL0     C 3826  10.760   6.130   7.066  0.8545 -0.1050  0.5374
  753MOL0     N 3827  10.955   6.449   7.952 -0.0845  0.2180 -1.4026
  753MOL0     N 3828  10.953   6.428   8.078  0.6617  0.2710 -0.5871
  753MOL0     C 3829  11.207   6.487   9.105  0.2233 -0.5342 -0.5216
  753MOL0     C 3830  11.340   6.445   9.138  0.2427 -0.2131  0.1421
  753MOL0     C 3831  11.702   6.139   9.170 -1.2968  0.0570 -0.6812
  753MOL0     C 3832  11.738   6.210   9.286  0.4894 -0.2025 -0.0613
  753MOL0     C 3833  11.859   6.194   9.351  0.1267  0.5655  0.0420
  753MOL0     C 3834  11.962   6.100   9.310 -0.1985 -0.2801 -0.7999
  753MOL0     O 3835  12.081   6.067   9.375  0.5707  0.3872 -0.5528
  753MOL0     C 3836  12.136   6.159   9.477 -0.0110  0.2128  0.3794
  753MOL0     C 3837  12.203   6.286   9.420 -0.2373 -0.1435  0.2506
  753MOL0     C 3838  12.290   6.353   9.528  1.0741 -1.2539  0.1249
  753MOL0     C 3839  12.373   6.465   9.462  0.5755  0.5891 -0.0215
  753MOL0     C 3840  12.482   6.531   9.544  0.2315 -0.0707  0.5601
  753MOL0     C 3841  12.566   6.576   9.618 -0.2285  0.0113  0.3686
  753MOL0     C 3842  11.908   6.018   9.208  0.1493 -0.4988  0.1540
  753MOL0     C 3843  11.791   6.038   9.137 -0.1922 -0.5961 -0.0861
  753MOL0     C 3844  11.786   5.952   9.012 -0.1567 -0.6478  0.3056
  753MOL0     H 3845  11.308   6.121   9.047 -0.3649 -0.0198 -1.2563
  753MOL0     H 3846  11.092   6.184   8.970 -2.6756 -0.2198  3.2046
  753MOL0     H 3847  11.087   6.569   8.873 -0.3139  0.9496 -1.1296
  753MOL0     H 3848  10.944   6.633   8.946  2.4283  2.3555 -3.3292
  753MOL0     H 3849  10.951   6.392   8.767 -2.7344 -0.8700  0.4775
  753MOL0     H 3850  10.815   6.440   8.862  1.1482 -0.7743  2.8669
  753MOL0     H 3851  10.761   6.516   8.637 -1.9074  2.9458 -0.4239
  753MOL0     H 3852  10.806   6.657   8.732 -0.5503 -0.3423  0.7491
  753MOL0     H 3853  10.935   6.672   8.522 -0.3870  1.5031  1.6033
  753MOL0     H 3854  11.051   6.638   8.650 -0.8100  0.6901  0.1617
  753MOL0     H 3855  11.067   6.404   8.577 -0.9411  0.1537  0.9616
  753MOL0     H 3856  11.095   6.522   8.446 -0.9856  2.6436  1.0135
  753MOL0     H 3857  10.819   6.399   8.462 -0.8497  0.2275 -0.8333
  753MOL0     H 3858  10.905   6.476   8.331  1.6042 -0.6293 -0.1401
  753MOL0     H 3859  10.970   6.217   8.438 -0.3826 -0.1361  0.6484
  753MOL0     H 3860  11.074   6.307   8.325 -1.1813  0.8127 -4.1741
  753MOL0     H 3861  10.947   6.126   8.218 -1.1309 -0.1486  0.4567
  753MOL0     H 3862  10.794   6.208   8.255 -0.7775  0.5863 -3.8146
  753MOL0     H 3863  10.775   6.175   7.990 -0.6131  0.9116 -2.4809
  753MOL0     H 3864  10.904   6.416   7.688 -0.6464  1.1508  1.6709
  753MOL0     H 3865  10.742   6.405   7.725  1.2108  3.8485  0.3882
  753MOL0     H 3866  10.928   6.159   7.659  1.5570  0.5644  3.9366
  753MOL0     H 3867  10.752   6.147   7.714  0.4249 -2.7273 -0.9295
  753MOL0     H 3868  10.689   6.285   7.516  1.7547  1.5324 -3.4028
  753MOL0     H 3869  10.844   6.315   7.468  1.6222  1.5453  2.1540
  753MOL0     H 3870  10.853   6.036   7.449  0.4217  1.2205  0.9346
  753MOL0     H 3871  10.682   6.054   7.448  0.2739  0.8432  0.6567
  753MOL0     H 3872  10.704   5.882   7.295  1.9677  0.0990  1.8347
  753MOL0     H 3873  10.685   5.652   7.016  2.0660  1.9771 -0.1917
  753MOL0     H 3874  10.527   5.727   7.054  0.0035  0.3020 -0.8297
  753MOL0     H 3875  10.630   5.677   7.188 -0.9267  0.0609  0.4932
  753MOL0     H 3876  10.470   5.525   6.780  1.0490  2.1383  1.9089
  753MOL0     H 3877  10.347   5.475   6.564 -2.0202  1.2482 -3.1877
  753MOL0     H 3878  10.267   5.453   6.373  2.4342  0.3400  0.4843
  753MOL0     H 3879  10.214   5.621   6.347  0.8448  0.6220 -1.1623
  753MOL0     H 3880  10.229   5.578   6.104  0.5975 -2.3365 -2.0746
  753MOL0     H 3881  10.318   5.435   6.117 -0.8529 -0.1936 -2.9585
  753MOL0     H 3882  10.062   5.414   6.076 -0.4679 -2.1546 -0.7496
  753MOL0     H 3883  10.039   5.419   6.248  1.1578 -2.0524  0.6570
  753MOL0     H 3884  10.214   5.254   6.292  2.2925  2.6067 -0.7125
  753MOL0     H 3885  10.227   5.225   6.121  0.2289 -1.1650  1.5194
  753MOL0     H 3886  10.001   5.151   6.092 -2.7238  0.1061  1.2145
  753MOL0     H 3887  10.085   5.063   6.221 -0.0160 -0.4189  0.1638
  753MOL0     H 3888   9.852   5.110   6.261 -1.1844  1.0371 -0.1656
  753MOL0     H 3889   9.882   5.275   6.269  1.5598 -0.3989 -1.5706
  753MOL0     H 3890  10.079   5.235   6.447  1.4171 -1.7434 -2.0471
  753MOL0     H 3891  10.007   5.080   6.472 -2.1342 -0.8862 -0.1873
  753MOL0     H 3892   9.887   5.210   6.634  1.2094 -4.6042 -0.0234
  753MOL0     H 3893   9.786   5.169   6.511  1.4226 -1.9636  2.1742
  753MOL0     H 3894  10.508   5.821   6.379  1.3802 -2.7662 -2.1298
  753MOL0     H 3895  10.551   5.914   6.604  1.0755 -0.4090  0.7981
  753MOL0     H 3896  10.746   6.101   6.860 -0.1769 -1.0965 -1.1330
  753MOL0     H 3897  10.803   6.229   7.063 -0.3110  0.5056  2.2708
  753MOL0     H 3898  11.179   6.589   9.132 -1.5431 -0.6992 -1.6263
  753MOL0     H 3899  11.408   6.513   9.188 -0.4444  1.0825 -0.6326
  753MOL0     H 3900  11.666   6.275   9.335  0.1994 -0.9173  0.4694
  753MOL0     H 3901  11.875   6.257   9.438  0.9694  1.8616 -1.0191
  753MOL0     H 3902  12.061   6.192   9.550 -2.4023 -0.4833 -1.6213
  753MOL0     H 3903  12.216   6.096   9.519 -1.0945 -1.7271 -0.3407
  753MOL0     H 3904  12.127   6.345   9.368 -1.0166 -2.6350 -1.6298
  753MOL0     H 3905  12.270   6.267   9.336  0.9916  2.8646  0.4242
  753MOL0     H 3906  12.232   6.394   9.611  1.1778 -1.7127  0.4289
  753MOL0     H 3907  12.359   6.281   9.575  1.0215  0.4353  3.0535
  753MOL0     H 3908  12.309   6.549   9.434  0.9648  0.9317  0.1054
  753MOL0     H 3909  12.430   6.436   9.373  2.7906  1.6491  0.9438
  753MOL0     H 3910  12.622   6.606   9.705  1.2700 -0.2014 -0.4927
  753MOL0     H 3911  11.970   5.929   9.203  1.5748 -0.1169  5.3389
  753MOL0     H 3912  11.697   5.889   9.001 -0.1385 -0.7514  0.7397
  753MOL0     H 3913  11.792   6.014   8.922  1.6681  0.5173  1.1739
  753MOL0     H 3914  11.875   5.890   9.019  2.5491  2.9812  0.7951
  754MOL0     O 3915   2.227   5.327  11.393 -0.4936 -0.4913  0.6161
  754MOL0     C 3916   2.130   5.387  11.345  0.2905  0.8475  0.1179
  754MOL0     O 3917   2.073   5.359  11.224 -0.7223  0.9234 -0.0685
  754MOL0     C 3918   2.127   5.265  11.137 -0.1372 -0.1792 -0.0559
  754MOL0     C 3919   2.179   5.138  11.184  0.4861 -0.3310  0.1705
  754MOL0     C 3920   2.236   5.064  11.081 -0.4482 -0.4367 -0.3448
  754MOL0     C 3921   2.260   5.105  10.948 -0.0867 -0.7411 -0.7122
  754MOL0     O 3922   2.343   5.024  10.875  0.4615  0.5934  0.2415
  754MOL0     C 3923   2.415   5.077  10.766 -0.4525  0.0034  0.6776
  754MOL0     C 3924   2.526   4.972  10.745 -0.5981 -0.2508  0.4133
  754MOL0     C 3925   2.606   5.011  10.611 -0.1045  0.4862 -0.4773
  754MOL0     C 3926   2.708   4.906  10.583  0.1388 -1.2313  0.0201
  754MOL0     C 3927   2.647   4.766  10.532  0.7298  0.0134  0.6755
  754MOL0     C 3928   2.748   4.648  10.537  0.9233 -0.8728  0.6772
  754MOL0     C 3929   2.784   4.598  10.686 -0.2566 -0.3519  0.0074
  754MOL0     C 3930   2.733   4.457  10.714 -0.1731 -0.2971  0.1650
  754MOL0     N 3931   2.788   4.390  10.835 -0.6337  0.3754  0.0060
  754MOL0     C 3932   2.923   4.365  10.850  0.9160 -0.3432  0.4632
  754MOL0     C 3933   2.927   4.293  10.961 -0.2327 -0.6411  0.0929
  754MOL0     C 3934   3.058   4.236  11.015  1.2766 -0.2982 -0.4474
  754MOL0     C 3935   3.070   4.089  11.054 -1.5272 -0.1790  0.3661
  754MOL0     C 3936   3.204   4.022  11.105 -0.2665  0.7544  1.1403
  754MOL0     C 3937   3.330   4.094  11.055  0.2134 -0.6786  0.5639
  754MOL0     O 3938   3.339   4.088  10.911  0.6056 -0.0474  0.2479
  754MOL0     C 3939   3.447   4.163  10.857  0.0959  1.0233 -0.9240
  754MOL0     C 3940   3.546   4.233  10.934  0.1041 -0.0431 -0.4758
  754MOL0     C 3941   3.655   4.303  10.880  0.4729 -0.0114  0.0857
  754MOL0     C 3942   3.750   4.374  10.973 -0.1341  0.1989  0.3022
  754MOL0     C 3943   3.675   4.282  10.740  0.4658 -0.1315 -0.2227
  754MOL0     C 3944   3.782   4.347  10.654  0.5965  0.6140 -0.0759
  754MOL0     O 3945   3.842   4.271  10.565 -0.1439  1.2601  0.9388
  754MOL0     C 3946   3.922   4.339  10.471  0.8755  0.0957 -0.4482
  754MOL0     C 3947   4.038   4.417  10.502 -0.1004  0.6523  0.2395
  754MOL0     C 3948   4.131   4.449  10.398 -0.2769 -0.5130 -1.3174
  754MOL0     C 3949   4.105   4.417  10.263  0.2399 -0.1267  1.1562
  754MOL0     O 3950   4.198   4.429  10.170 -0.3527 -0.8304 -0.3838
  754MOL0     C 3951   4.191   4.402  10.033  0.5614  0.1679 -0.4503
  754MOL0     C 3952   4.334   4.411   9.985  0.9148  0.3231  0.1652
  754MOL0     C 3953   4.426   4.536  10.015  0.0588  0.8323  0.1032
  754MOL0     C 3954   4.561   4.549   9.940  0.3168  0.7097 -0.0051
  754MOL0     C 3955   4.577   4.673   9.840  0.1965  0.0150 -0.2937
  754MOL0     C 3956   4.490   4.660   9.717  1.0628  0.2033  0.3710
  754MOL0     C 3957   4.509   4.766   9.615  0.3952  0.3398 -0.0534
  754MOL0     C 3958   4.469   4.910   9.658 -0.7073  0.0375 -0.0446
  754MOL0    Cl 3959   4.528   5.025   9.533  0.2244 -0.0948  0.2671
  754MOL0     C 3960   3.976   4.363  10.235 -0.8490 -0.2695 -0.0386
  754MOL0     C 3961   3.890   4.324  10.336 -0.1367 -0.4352  0.2720
  754MOL0     O 3962   3.832   4.452  10.695 -0.7280  0.2965  0.4718
  754MOL0     C 3963   3.574   4.208  10.671 -0.2866 -0.4525  0.0507
  754MOL0     C 3964   3.461   4.147  10.723 -0.2126  0.9137  0.3242
  754MOL0     N 3965   2.799   4.287  11.018 -0.2956  0.3341 -0.4238
  754MOL0     N 3966   2.721   4.351  10.941  0.5980 -0.6685  0.3902
  754MOL0     C 3967   2.211   5.228  10.908 -1.0740  0.3317 -0.2184
  754MOL0     C 3968   2.142   5.306  10.999  0.5864 -0.6251  0.1067
  754MOL0     C 3969   2.067   5.493  11.417 -1.1260  0.2293 -0.1458
  754MOL0     C 3970   1.932   5.511  11.404 -0.0430 -0.3659  0.2064
  754MOL0     C 3971   1.859   5.620  11.461 -1.0665 -0.1989 -0.0788
  754MOL0     C 3972   1.929   5.715  11.541  0.4822  0.2550  0.8950
  754MOL0     O 3973   1.857   5.819  11.605 -0.5511 -0.0336 -0.1875
  754MOL0     C 3974   1.721   5.813  11.623  0.1941  1.2050  0.0216
  754MOL0     C 3975   1.686   5.887  11.748  0.2025 -0.1603 -0.8426
  754MOL0     C 3976   1.681   6.043  11.726  0.2421 -0.0377 -0.4470
  754MOL0     C 3977   1.811   6.101  11.665 -0.3070 -0.2532 -0.4243
  754MOL0     C 3978   1.796   6.246  11.668 -0.4164 -0.3661  0.5042
  754MOL0     C 3979   1.775   6.361  11.659  0.1101 -0.6411  0.5244
  754MOL0     C 3980   2.059   5.708  11.556  0.2683  0.1176  0.3740
  754MOL0     C 3981   2.127   5.595  11.505 -0.0647  0.1850  0.6344
  754MOL0     C 3982   2.277   5.596  11.530 -0.8118 -0.4542  0.1230
  754MOL0     H 3983   2.165   5.098  11.283 -3.7970  1.0212  0.2925
  754MOL0     H 3984   2.273   4.967  11.110  2.8621  0.5263 -0.8907
  754MOL0     H 3985   2.463   5.174  10.780  0.7789 -0.7463  1.9525
  754MOL0     H 3986   2.358   5.075  10.673  0.3585  1.4310  0.1253
  754MOL0     H 3987   2.585   4.962  10.836 -2.7358 -4.0903  1.6146
  754MOL0     H 3988   2.486   4.871  10.732  1.0522 -0.9826  0.8201
  754MOL0     H 3989   2.542   5.023  10.523  1.7841 -1.0229 -2.1315
  754MOL0     H 3990   2.665   5.103  10.614  2.7620 -1.2495  0.6779
  754MOL0     H 3991   2.775   4.944  10.506  0.6763  0.9435  1.4638
  754MOL0     H 3992   2.764   4.888  10.676 -0.5606 -0.8307  0.5307
  754MOL0     H 3993   2.597   4.763  10.435 -1.2302 -1.5394  1.6549
  754MOL0     H 3994   2.567   4.734  10.599 -0.2705  1.1983  0.0949
  754MOL0     H 3995   2.709   4.570  10.471 -0.7149  1.5823 -1.4820
  754MOL0     H 3996   2.839   4.688  10.491 -1.0070  2.9078 -0.2908
  754MOL0     H 3997   2.750   4.663  10.767  3.6377  0.5211  1.1106
  754MOL0     H 3998   2.892   4.598  10.702 -0.5103 -1.2185  1.9114
  754MOL0     H 3999   2.626   4.458  10.736 -0.8393  0.8437 -2.6909
  754MOL0     H 4000   2.749   4.386  10.632 -0.0381 -2.2480  1.8012
  754MOL0     H 4001   3.005   4.378  10.780  1.0889 -0.8549  0.5733
  754MOL0     H 4002   3.086   4.293  11.104  1.7882 -3.2374  1.4311
  754MOL0     H 4003   3.131   4.255  10.936  0.0843  2.7466 -0.9468
  754MOL0     H 4004   2.991   4.066  11.126 -3.2118  1.3284 -0.9291
  754MOL0     H 4005   3.047   4.036  10.961 -0.9485 -0.9074  0.6245
  754MOL0     H 4006   3.196   4.025  11.215 -0.5353  3.5978  1.1069
  754MOL0     H 4007   3.194   3.922  11.063 -1.3303  0.8932  1.0484
  754MOL0     H 4008   3.326   4.195  11.096  0.4189  0.1096 -1.2272
  754MOL0     H 4009   3.417   4.036  11.088  0.1347 -0.9365  0.3279
  754MOL0     H 4010   3.543   4.234  11.043  2.1889  0.0881 -0.3693
  754MOL0     H 4011   3.761   4.332  11.074 -0.4197  1.3231  0.8188
  754MOL0     H 4012   3.719   4.478  10.985 -1.9767  0.4856 -4.6814
  754MOL0     H 4013   3.853   4.376  10.936  0.7508  0.5426  2.6123
  754MOL0     H 4014   4.061   4.433  10.607 -0.5941 -0.8921  0.6115
  754MOL0     H 4015   4.231   4.482  10.424 -0.6840 -0.5604  0.3778
  754MOL0     H 4016   4.148   4.306  10.002  0.6257  0.5167 -1.6339
  754MOL0     H 4017   4.111   4.469  10.002 -0.8042 -0.3184  1.7503
  754MOL0     H 4018   4.378   4.317  10.019 -0.1316 -0.3816 -0.4051
  754MOL0     H 4019   4.331   4.400   9.876 -2.6399 -1.0328  0.2977
  754MOL0     H 4020   4.434   4.542  10.124  0.9664 -2.1854  0.2889
  754MOL0     H 4021   4.373   4.630   9.994  0.5455  0.9576 -0.5867
  754MOL0     H 4022   4.556   4.461   9.876  0.2895  2.7847 -3.0939
  754MOL0     H 4023   4.644   4.529  10.009 -0.6487  0.0843  0.9911
  754MOL0     H 4024   4.561   4.762   9.901  1.3696 -1.5223  2.4478
  754MOL0     H 4025   4.683   4.678   9.814  1.2685  1.7862  3.6354
  754MOL0     H 4026   4.386   4.669   9.749  0.6203  3.3943 -1.5107
  754MOL0     H 4027   4.501   4.561   9.672 -1.0825  0.0400  0.0901
  754MOL0     H 4028   4.442   4.740   9.533 -1.0193  1.6249  0.6520
  754MOL0     H 4029   4.609   4.773   9.570  0.1546 -0.6601 -0.7681
  754MOL0     H 4030   4.523   4.920   9.752 -0.0256 -4.8672  0.3649
  754MOL0     H 4031   4.362   4.929   9.675 -0.3180  2.6498 -0.0457
  754MOL0     H 4032   3.941   4.346  10.134  0.1613  0.1022 -0.4555
  754MOL0     H 4033   3.793   4.281  10.315 -0.7458  1.4801 -1.0919
  754MOL0     H 4034   3.587   4.195  10.564  1.7416 -2.3335  0.4627
  754MOL0     H 4035   3.399   4.086  10.658 -0.0631  1.0929  0.0105
  754MOL0     H 4036   2.228   5.250  10.803  3.9372 -2.5775 -0.2932
  754MOL0     H 4037   2.115   5.406  10.968 -2.5729 -0.2478  3.3650
  754MOL0     H 4038   1.874   5.444  11.340 -2.4073  2.1252 -0.4909
  754MOL0     H 4039   1.751   5.610  11.455 -1.5828  2.7348  2.0015
  754MOL0     H 4040   1.665   5.858  11.540  1.2226  1.6860 -0.4284
  754MOL0     H 4041   1.691   5.708  11.627  1.1664  0.8685 -0.9147
  754MOL0     H 4042   1.754   5.865  11.831  3.0520 -0.2866 -3.0284
  754MOL0     H 4043   1.583   5.866  11.777  1.0888 -2.6296  0.9059
  754MOL0     H 4044   1.593   6.061  11.663 -0.1797  0.9949  0.4097
  754MOL0     H 4045   1.658   6.079  11.827  2.3243 -2.0542  0.8429
  754MOL0     H 4046   1.826   6.069  11.561 -2.1495  0.1170 -0.8455
  754MOL0     H 4047   1.893   6.071  11.731 -1.2157  1.7574  1.7803
  754MOL0     H 4048   1.767   6.466  11.640  1.1690 -0.5521  0.4824
  754MOL0     H 4049   2.106   5.788  11.613 -0.3368  1.7888 -1.3557
  754MOL0     H 4050   2.309   5.605  11.635 -3.8072  0.8109  1.0394
  754MOL0     H 4051   2.330   5.519  11.474  0.6015 -0.0477  0.8203
  754MOL0     H 4052   2.298   5.691  11.480  2.3654 -1.1137 -0.0491
  755MOL0     O 4053   5.345   4.629   3.501  0.6286  0.6943 -0.0292
  755MOL0     C 4054   5.240   4.574   3.475 -0.1223 -0.5138  0.3781
  755MOL0     O 4055   5.127   4.630   3.413 -0.7566 -0.0297  0.3478
  755MOL0     C 4056   5.139   4.755   3.349  0.3832 -0.1923  0.2526
  755MOL0     C 4057   5.156   4.872   3.424  0.4676 -0.1707  0.0857
  755MOL0     C 4058   5.172   4.999   3.355  1.5740  0.8433  0.2877
  755MOL0     C 4059   5.158   5.002   3.223  0.9728 -0.9856 -0.0409
  755MOL0     O 4060   5.178   5.125   3.164  0.5630  0.1880 -0.2952
  755MOL0     C 4061   5.128   5.136   3.032  0.2002  0.1041  0.4652
  755MOL0     C 4062   5.156   5.278   2.977 -0.8267 -0.0564  0.1529
  755MOL0     C 4063   5.161   5.275   2.824 -0.5426 -0.1843 -0.2216
  755MOL0     C 4064   5.235   5.397   2.777  0.3419  0.6175 -0.0814
  755MOL0     C 4065   5.234   5.406   2.626 -0.3194 -0.5259  1.0766
  755MOL0     C 4066   5.371   5.457   2.575  0.4241  1.0107 -0.0450
  755MOL0     C 4067   5.386   5.594   2.619 -0.1329 -0.0359  0.6664
  755MOL0     C 4068   5.514   5.652   2.557  0.0843 -0.0786 -0.3537
  755MOL0     N 4069   5.482   5.676   2.415 -0.5222 -0.9058 -0.6218
  755MOL0     C 4070   5.508   5.595   2.310 -0.6222 -0.1255  0.5189
  755MOL0     C 4071   5.445   5.655   2.202 -0.9958  0.1632  0.3842
  755MOL0     C 4072   5.446   5.604   2.059 -0.1287  0.4035 -0.3228
  755MOL0     C 4073   5.323   5.526   2.031  0.1746  0.0766  0.0311
  755MOL0     C 4074   5.313   5.389   2.091 -0.2339 -0.2528 -0.1821
  755MOL0     C 4075   5.434   5.309   2.073 -0.3471  0.0902  0.6046
  755MOL0     O 4076   5.421   5.175   2.123 -0.4301 -0.5946  0.2779
  755MOL0     C 4077   5.475   5.163   2.248  0.8422  0.9486 -0.1213
  755MOL0     C 4078   5.608   5.170   2.271 -1.1555  1.0166  0.1445
  755MOL0     C 4079   5.663   5.165   2.404 -0.6544  0.5998  0.5944
  755MOL0     C 4080   5.815   5.167   2.428  0.0137 -0.7532  0.3940
  755MOL0     C 4081   5.571   5.135   2.513 -0.2753  1.0044  0.3714
  755MOL0     C 4082   5.615   5.127   2.663  0.9660 -0.1503  0.4087
  755MOL0     O 4083   5.540   5.036   2.745 -0.3577  0.0350  0.1894
  755MOL0     C 4084   5.556   5.065   2.882 -0.4205  0.0662  0.5638
  755MOL0     C 4085   5.596   4.955   2.966  0.1258 -0.3688 -0.5372
  755MOL0     C 4086   5.601   4.975   3.104  0.0847  0.8723  0.0512
  755MOL0     C 4087   5.560   5.097   3.162  0.2057 -1.0691  0.1636
  755MOL0     O 4088   5.565   5.114   3.298 -0.4485 -0.2518  0.5451
  755MOL0     C 4089   5.650   5.028   3.375  0.3701  0.2694 -0.1769
  755MOL0     C 4090   5.656   5.084   3.517 -0.0553 -0.3434 -0.5398
  755MOL0     C 4091   5.507   5.090   3.580  0.4353  0.2426 -0.5261
  755MOL0     C 4092   5.513   5.106   3.725  0.4099 -0.2542  0.2082
  755MOL0     C 4093   5.368   5.088   3.777 -1.2573 -0.3208  0.4784
  755MOL0     C 4094   5.351   5.111   3.935  0.6645  0.0322 -0.7642
  755MOL0     C 4095   5.205   5.120   3.994 -1.0131  0.2753 -0.0267
  755MOL0     C 4096   5.187   5.097   4.146  0.0250 -0.0888 -0.0901
  755MOL0    Cl 4097   5.225   4.925   4.194  0.1571  0.3230 -0.1406
  755MOL0     C 4098   5.524   5.198   3.079 -0.5625 -0.7646  0.8909
  755MOL0     C 4099   5.523   5.192   2.933 -0.1131  0.3167 -0.2059
  755MOL0     O 4100   5.709   5.189   2.701 -0.4405 -0.3074  0.4426
  755MOL0     C 4101   5.438   5.103   2.481  1.1459  0.5253 -0.1149
  755MOL0     C 4102   5.386   5.124   2.355  0.6118  0.7790  1.3278
  755MOL0     N 4103   5.393   5.773   2.248  0.4757  0.8699 -0.0110
  755MOL0     N 4104   5.416   5.785   2.380 -0.5412 -0.7023  0.6106
  755MOL0     C 4105   5.130   4.884   3.147  0.5864 -0.2560 -0.0729
  755MOL0     C 4106   5.125   4.763   3.209 -0.1623  0.2749 -0.9378
  755MOL0     C 4107   5.220   4.423   3.511  0.8853 -0.8705 -0.1184
  755MOL0     C 4108   5.091   4.365   3.500 -0.9585 -0.3682 -1.1767
  755MOL0     C 4109   5.061   4.237   3.523 -0.5524 -0.0910  0.2047
  755MOL0     C 4110   5.158   4.144   3.559  0.3618  0.6541 -0.2945
  755MOL0     O 4111   5.112   4.013   3.562  0.7432  0.9158  0.0736
  755MOL0     C 4112   5.192   3.920   3.627  0.0289 -0.3041  0.3185
  755MOL0     C 4113   5.107   3.808   3.664 -0.4955 -0.0651  0.3172
  755MOL0     C 4114   4.979   3.857   3.740  0.1350  0.1665 -0.0061
  755MOL0     C 4115   4.899   3.730   3.779  0.3193 -1.0439  0.3429
  755MOL0     C 4116   4.759   3.774   3.823 -0.1405  0.6671 -1.0383
  755MOL0     C 4117   4.646   3.805   3.862 -0.6521 -0.4940  0.1008
  755MOL0     C 4118   5.281   4.202   3.578 -0.1986 -0.1572 -0.0071
  755MOL0     C 4119   5.314   4.339   3.560 -0.0041  0.9126  0.1026
  755MOL0     C 4120   5.466   4.370   3.597  0.0769 -0.5067  1.5309
  755MOL0     H 4121   5.163   4.878   3.532  0.8911  0.2068  0.0400
  755MOL0     H 4122   5.197   5.095   3.397  1.8695  0.7694  0.2818
  755MOL0     H 4123   5.021   5.118   3.017  0.1649 -0.2230  1.0818
  755MOL0     H 4124   5.180   5.069   2.962 -3.0575 -0.1688 -1.9625
  755MOL0     H 4125   5.070   5.336   3.012 -0.4723  0.7637 -0.2943
  755MOL0     H 4126   5.246   5.326   3.016 -0.4551  0.5037 -1.3031
  755MOL0     H 4127   5.222   5.194   2.784 -0.0180 -0.8689  1.8055
  755MOL0     H 4128   5.057   5.276   2.788 -0.8021  1.8368  0.4513
  755MOL0     H 4129   5.191   5.486   2.822 -0.8186 -0.6659  1.4498
  755MOL0     H 4130   5.336   5.371   2.812  0.6587  1.9726  0.0460
  755MOL0     H 4131   5.153   5.475   2.599  0.3944 -0.0018  0.2141
  755MOL0     H 4132   5.214   5.311   2.576  0.6772  0.3038 -1.0377
  755MOL0     H 4133   5.444   5.387   2.617 -2.8743 -3.1871 -0.6426
  755MOL0     H 4134   5.363   5.447   2.466 -2.0817 -2.1241  0.2876
  755MOL0     H 4135   5.403   5.599   2.727  1.9865  0.1379  0.3563
  755MOL0     H 4136   5.294   5.643   2.586  0.0009 -1.5657 -2.3478
  755MOL0     H 4137   5.549   5.748   2.599  2.8090 -1.2991  0.4212
  755MOL0     H 4138   5.598   5.582   2.564  0.3760  0.2105 -0.8426
  755MOL0     H 4139   5.557   5.498   2.309 -0.1121  0.1331  0.2919
  755MOL0     H 4140   5.534   5.547   2.028 -0.8544 -0.0116 -1.7096
  755MOL0     H 4141   5.431   5.694   1.999 -1.2365 -1.4556 -3.0239
  755MOL0     H 4142   5.237   5.590   2.053 -0.5329 -0.6355 -0.5676
  755MOL0     H 4143   5.319   5.511   1.922 -2.4432 -1.7148  0.2826
  755MOL0     H 4144   5.292   5.400   2.198  1.6573 -2.8491  0.5478
  755MOL0     H 4145   5.221   5.343   2.053 -1.7031  1.3654  1.2083
  755MOL0     H 4146   5.445   5.297   1.965 -2.1108  3.9339 -0.1610
  755MOL0     H 4147   5.525   5.362   2.104  0.5169 -1.6626  1.2127
  755MOL0     H 4148   5.678   5.184   2.188 -1.9639  2.1379 -0.3817
  755MOL0     H 4149   5.860   5.088   2.489 -3.3912 -1.9345  1.6410
  755MOL0     H 4150   5.852   5.265   2.459  2.6354 -1.8161  0.9353
  755MOL0     H 4151   5.866   5.138   2.336 -0.7219 -2.2536  0.4345
  755MOL0     H 4152   5.626   4.858   2.926 -1.5230 -1.1208 -0.0102
  755MOL0     H 4153   5.628   4.889   3.165  2.0588  1.2425 -0.2539
  755MOL0     H 4154   5.599   4.933   3.393  3.7537 -1.3439  1.7189
  755MOL0     H 4155   5.750   5.009   3.336  1.7576  1.9126  2.2510
  755MOL0     H 4156   5.727   5.021   3.572 -0.4317 -3.1024 -2.9891
  755MOL0     H 4157   5.689   5.188   3.521 -2.0516  0.3055  1.2726
  755MOL0     H 4158   5.464   4.993   3.556 -0.9563  0.1756  1.9729
  755MOL0     H 4159   5.443   5.174   3.549 -1.8038 -1.2227 -0.0288
  755MOL0     H 4160   5.542   5.210   3.746 -0.2894 -0.5062  2.8624
  755MOL0     H 4161   5.571   5.019   3.757 -1.5396 -1.7138 -0.0563
  755MOL0     H 4162   5.298   5.165   3.743 -2.3510  0.0023  3.1818
  755MOL0     H 4163   5.319   4.996   3.743 -2.6165 -0.0011  1.4557
  755MOL0     H 4164   5.405   5.204   3.957 -0.8272  1.9982 -4.6022
  755MOL0     H 4165   5.407   5.026   3.976  0.6107  1.0255  1.5499
  755MOL0     H 4166   5.143   5.046   3.943 -0.1527 -0.1791 -0.4436
  755MOL0     H 4167   5.173   5.218   3.958  1.1489  1.2636  0.5390
  755MOL0     H 4168   5.085   5.125   4.173  1.0299  2.6623  1.2320
  755MOL0     H 4169   5.250   5.170   4.198 -1.9008  2.0504 -0.5756
  755MOL0     H 4170   5.500   5.296   3.119  1.3578  1.0255 -1.9666
  755MOL0     H 4171   5.490   5.271   2.867 -1.4511 -0.0785 -0.0414
  755MOL0     H 4172   5.383   5.063   2.566  3.3508 -0.5945  0.8923
  755MOL0     H 4173   5.281   5.104   2.335  0.2743  2.1447  1.6309
  755MOL0     H 4174   5.123   4.884   3.038  0.8577  0.1027 -0.0918
  755MOL0     H 4175   5.104   4.676   3.147 -0.9387 -0.0062 -0.2959
  755MOL0     H 4176   5.013   4.435   3.473 -0.4336  0.6185 -0.2204
  755MOL0     H 4177   4.957   4.209   3.533 -0.5553 -0.1178  0.1005
  755MOL0     H 4178   5.276   3.885   3.567 -0.2125  1.2225 -0.9775
  755MOL0     H 4179   5.243   3.972   3.709  1.1509  1.1208 -1.2238
  755MOL0     H 4180   5.156   3.735   3.729  1.1845  1.9599  1.4749
  755MOL0     H 4181   5.077   3.764   3.569  1.3727 -2.9926  0.9447
  755MOL0     H 4182   5.005   3.907   3.834  0.9565 -4.2269  2.3857
  755MOL0     H 4183   4.905   3.906   3.676 -0.5524 -0.2501  0.4568
  755MOL0     H 4184   4.937   3.680   3.868 -3.4773 -0.5708  2.4640
  755MOL0     H 4185   4.880   3.662   3.695 -0.5569  1.1780 -1.3537
  755MOL0     H 4186   4.542   3.829   3.878 -1.1217 -3.1420  1.7320
  755MOL0     H 4187   5.361   4.141   3.617 -0.7892 -1.3198 -0.5386
  755MOL0     H 4188   5.536   4.312   3.537 -2.2599 -2.6798  0.7058
  755MOL0     H 4189   5.489   4.476   3.584 -1.6088 -0.1323  1.2537
  755MOL0     H 4190   5.483   4.345   3.702 -0.2046 -1.7051  1.3084
  756MOL0     O 4191   4.249   7.049   2.350  0.3404  0.0847  0.5465
  756MOL0     C 4192   4.181   7.142   2.313  1.0080 -0.1428 -0.2126
  756MOL0     O 4193   4.210   7.279   2.324 -0.3672 -0.0799 -0.2305
  756MOL0     C 4194   4.337   7.324   2.349  0.4006  0.3233  0.3328
  756MOL0     C 4195   4.370   7.443   2.279  0.2580  0.5218 -1.2316
  756MOL0     C 4196   4.493   7.502   2.294  0.8196 -0.0813 -0.4823
  756MOL0     C 4197   4.586   7.450   2.387 -0.7169 -0.2154 -0.4410
  756MOL0     O 4198   4.710   7.505   2.404 -0.0662  0.4656 -0.0578
  756MOL0     C 4199   4.740   7.629   2.346 -0.2308 -0.5423  0.3185
  756MOL0     C 4200   4.885   7.667   2.378 -0.6351 -0.0898  0.7987
  756MOL0     C 4201   4.924   7.816   2.333 -0.7918  0.9162  0.0132
  756MOL0     C 4202   5.079   7.843   2.345  0.3565 -0.9135  0.2521
  756MOL0     C 4203   5.103   7.988   2.324 -0.2334 -1.0849  0.0914
  756MOL0     C 4204   5.251   8.020   2.296  0.9021  0.1164  0.1809
  756MOL0     C 4205   5.317   7.938   2.176 -0.5309 -0.3901 -0.0059
  756MOL0     C 4206   5.400   7.809   2.206 -0.1829  1.0586  1.2037
  756MOL0     N 4207   5.444   7.738   2.082  0.4365  0.8175 -0.1806
  756MOL0     C 4208   5.544   7.783   1.996  0.9149  0.5084  0.0869
  756MOL0     C 4209   5.547   7.695   1.895  0.4207  1.0253  1.2945
  756MOL0     C 4210   5.633   7.697   1.771  0.8574  0.3426 -0.9550
  756MOL0     C 4211   5.746   7.605   1.776 -0.3057 -0.5061 -0.3497
  756MOL0     C 4212   5.840   7.624   1.896 -0.2103  0.3332  0.7104
  756MOL0     C 4213   5.923   7.757   1.907 -0.0186  0.6218  0.1422
  756MOL0     O 4214   5.992   7.760   2.029  0.1415 -0.0327 -0.0567
  756MOL0     C 4215   5.919   7.818   2.136 -0.0646  1.0820  1.4915
  756MOL0     C 4216   5.838   7.922   2.132  0.4735  0.4461  0.2453
  756MOL0     C 4217   5.754   7.955   2.242 -0.1462  0.6337 -1.3026
  756MOL0     C 4218   5.676   8.077   2.240  0.4127  0.4939 -0.0497
  756MOL0     C 4219   5.756   7.889   2.367  0.5191  1.3209 -0.6227
  756MOL0     C 4220   5.690   7.939   2.499  0.1357 -0.7045  0.5045
  756MOL0     O 4221   5.563   7.991   2.499 -0.3471 -0.4817  0.1009
  756MOL0     C 4222   5.515   8.040   2.621 -0.1589  0.2976 -0.1407
  756MOL0     C 4223   5.404   7.978   2.675 -0.4113 -0.9015 -0.8659
  756MOL0     C 4224   5.352   8.030   2.793  0.1319  0.1794 -0.6472
  756MOL0     C 4225   5.408   8.143   2.853  0.5334 -0.9896  0.3227
  756MOL0     O 4226   5.343   8.189   2.964 -0.1237 -0.8301 -0.1718
  756MOL0     C 4227   5.327   8.333   2.970  0.3654  1.3051  0.1419
  756MOL0     C 4228   5.204   8.376   3.057  0.1657 -0.5524 -0.5640
  756MOL0     C 4229   5.178   8.526   3.045 -0.4225  0.9020  0.2101
  756MOL0     C 4230   5.064   8.577   3.141 -0.0538  0.5168  0.1503
  756MOL0     C 4231   4.923   8.549   3.087 -0.4899 -0.1410  0.3466
  756MOL0     C 4232   4.904   8.620   2.946  0.5834  0.3310  0.7660
  756MOL0     C 4233   4.755   8.653   2.928 -0.7422  0.3883 -0.2363
  756MOL0     C 4234   4.729   8.702   2.790  0.0036 -0.1237  0.0952
  756MOL0    Cl 4235   4.780   8.877   2.761  0.4203 -0.1953  0.4361
  756MOL0     C 4236   5.526   8.202   2.805  0.6946  0.2518 -0.0555
  756MOL0     C 4237   5.574   8.148   2.690 -0.7325 -0.2394  0.8543
  756MOL0     O 4238   5.769   7.943   2.594  0.2917  0.7439 -0.3618
  756MOL0     C 4239   5.851   7.782   2.366  0.2260 -0.7154  0.2218
  756MOL0     C 4240   5.924   7.742   2.251 -0.2532 -0.1583 -0.4180
  756MOL0     N 4241   5.458   7.593   1.924  0.6622 -0.0941  0.3338
  756MOL0     N 4242   5.382   7.635   2.020  0.0295  1.0418 -0.2403
  756MOL0     C 4243   4.550   7.339   2.458  0.9496  0.4750  0.2033
  756MOL0     C 4244   4.427   7.271   2.435 -0.1632 -0.1179 -0.5322
  756MOL0     C 4245   4.040   7.100   2.249 -0.2493 -1.3255 -1.2279
  756MOL0     C 4246   3.956   7.211   2.233  0.4690  0.4698  0.0209
  756MOL0     C 4247   3.837   7.192   2.166 -0.5430  0.2786  0.4738
  756MOL0     C 4248   3.799   7.070   2.119  0.5566  0.7247 -0.3954
  756MOL0     O 4249   3.678   7.064   2.057 -0.1669  1.3294 -0.5126
  756MOL0     C 4250   3.621   6.940   2.012 -0.9230  0.2303 -0.5522
  756MOL0     C 4251   3.696   6.913   1.873 -0.2600  0.3107  0.2099
  756MOL0     C 4252   3.676   7.019   1.761 -0.1345  0.1220  0.6033
  756MOL0     C 4253   3.526   7.045   1.731  0.6708 -0.7882 -0.3687
  756MOL0     C 4254   3.446   6.936   1.688  0.7286  0.4521  0.5104
  756MOL0     C 4255   3.382   6.837   1.659  0.4285  0.4735 -1.0535
  756MOL0     C 4256   3.882   6.953   2.145 -0.8577  0.1282 -0.5393
  756MOL0     C 4257   4.004   6.971   2.204 -0.0816  0.0860  0.1270
  756MOL0     C 4258   4.090   6.844   2.223  0.0725  0.1646 -0.0190
  756MOL0     H 4259   4.311   7.514   2.222  0.7757  2.7112  0.8065
  756MOL0     H 4260   4.504   7.595   2.239 -0.0724  1.2442  1.4791
  756MOL0     H 4261   4.680   7.709   2.391 -0.1361  0.3584 -1.1139
  756MOL0     H 4262   4.730   7.618   2.238  1.7968 -4.3637  0.3523
  756MOL0     H 4263   4.899   7.654   2.486 -2.1392 -1.5670  0.8531
  756MOL0     H 4264   4.953   7.590   2.340 -1.1294 -0.5734  0.8934
  756MOL0     H 4265   4.900   7.830   2.227 -0.9576  2.0457  0.1930
  756MOL0     H 4266   4.864   7.882   2.396 -1.1464 -0.0990  0.7615
  756MOL0     H 4267   5.127   7.813   2.439 -1.1487 -2.0748  0.6986
  756MOL0     H 4268   5.131   7.782   2.271  1.2019 -1.3330  1.1720
  756MOL0     H 4269   5.078   8.047   2.413 -0.1456  1.9912 -1.7732
  756MOL0     H 4270   5.043   8.031   2.243  1.6300  0.4379 -0.5922
  756MOL0     H 4271   5.247   8.125   2.268 -1.3983 -0.2334 -1.0640
  756MOL0     H 4272   5.308   8.006   2.389 -2.1082  1.0235  2.3050
  756MOL0     H 4273   5.392   8.006   2.135  1.0214 -1.3101  1.1706
  756MOL0     H 4274   5.247   7.921   2.094  0.6309  0.3096 -1.1771
  756MOL0     H 4275   5.483   7.833   2.272 -0.3649 -1.2747  2.3642
  756MOL0     H 4276   5.342   7.744   2.272  0.7339 -1.6429 -0.4875
  756MOL0     H 4277   5.618   7.858   2.021  1.7153 -0.8266  2.0093
  756MOL0     H 4278   5.685   7.791   1.757  1.7814  0.0384  0.3007
  756MOL0     H 4279   5.567   7.667   1.688  1.8067 -0.9182 -1.2874
  756MOL0     H 4280   5.717   7.500   1.786  0.5140 -0.9081 -1.9708
  756MOL0     H 4281   5.808   7.598   1.686 -0.9713  1.2001 -0.9661
  756MOL0     H 4282   5.792   7.609   1.994  2.5068 -2.8999  1.7607
  756MOL0     H 4283   5.903   7.536   1.881 -2.0352 -0.5329 -3.0533
  756MOL0     H 4284   5.986   7.750   1.817 -0.5207 -2.3383 -0.0798
  756MOL0     H 4285   5.857   7.842   1.889 -1.9531 -1.1681 -1.8433
  756MOL0     H 4286   5.836   7.985   2.044  1.9845 -0.6974 -0.6804
  756MOL0     H 4287   5.570   8.066   2.264  0.3160 -1.6464 -1.2131
  756MOL0     H 4288   5.694   8.135   2.149 -0.1553  2.5656  1.0944
  756MOL0     H 4289   5.723   8.142   2.314  1.5589  1.9360 -1.9449
  756MOL0     H 4290   5.366   7.892   2.622  2.0303 -0.6743 -3.1776
  756MOL0     H 4291   5.272   7.968   2.831  0.4555  0.0240 -0.1963
  756MOL0     H 4292   5.414   8.382   3.017  0.4203  0.1154  1.3496
  756MOL0     H 4293   5.307   8.373   2.871 -1.5226  0.7420  0.2606
  756MOL0     H 4294   5.120   8.310   3.033  0.6334 -1.9578  1.4104
  756MOL0     H 4295   5.247   8.348   3.154 -0.0457 -1.5489 -0.7450
  756MOL0     H 4296   5.146   8.549   2.943  0.6764 -2.4903 -1.0370
  756MOL0     H 4297   5.270   8.577   3.075  1.4383 -2.6100  1.0548
  756MOL0     H 4298   5.065   8.683   3.169 -1.6253 -0.0707  2.8591
  756MOL0     H 4299   5.071   8.519   3.234  2.7477  0.1452 -0.2361
  756MOL0     H 4300   4.899   8.444   3.069 -0.5715 -0.0280 -0.2315
  756MOL0     H 4301   4.853   8.580   3.165 -0.8928  0.2897 -0.1743
  756MOL0     H 4302   4.937   8.558   2.862  1.9736  1.3606  0.5122
  756MOL0     H 4303   4.958   8.715   2.942 -2.3403  2.0702 -2.5549
  756MOL0     H 4304   4.724   8.725   3.004 -0.0433 -0.3839  0.8209
  756MOL0     H 4305   4.691   8.564   2.935 -3.0465  1.9866 -0.2321
  756MOL0     H 4306   4.620   8.694   2.780  0.0626 -2.3515  0.8550
  756MOL0     H 4307   4.770   8.629   2.721  2.0934 -0.1137  1.2516
  756MOL0     H 4308   5.566   8.293   2.847 -2.8606  1.5477  0.8752
  756MOL0     H 4309   5.663   8.183   2.639 -1.1862  0.2867  0.4124
  756MOL0     H 4310   5.867   7.733   2.462  0.5191  2.9445  2.2356
  756MOL0     H 4311   5.971   7.646   2.236 -0.4984 -0.4785  0.7774
  756MOL0     H 4312   4.606   7.292   2.538 -1.5348  0.4918  2.0754
  756MOL0     H 4313   4.405   7.180   2.490  1.3935  1.1084  2.3478
  756MOL0     H 4314   3.979   7.312   2.265  2.5396  0.6630 -1.8589
  756MOL0     H 4315   3.777   7.282   2.170  0.6201  1.0390  1.8606
  756MOL0     H 4316   3.643   6.855   2.078 -0.6100  0.7543  0.0328
  756MOL0     H 4317   3.513   6.946   2.002 -1.1337 -1.4240  0.3291
  756MOL0     H 4318   3.648   6.820   1.840 -2.7546  0.4421  2.9845
  756MOL0     H 4319   3.801   6.882   1.879 -0.9187 -2.5051 -0.8119
  756MOL0     H 4320   3.728   7.112   1.785  1.3474 -0.2195 -1.0630
  756MOL0     H 4321   3.728   6.981   1.673 -2.8998 -1.0358 -0.6670
  756MOL0     H 4322   3.529   7.124   1.656  2.2833 -1.6568 -1.2579
  756MOL0     H 4323   3.484   7.091   1.821  0.8101 -0.3477 -0.5262
  756MOL0     H 4324   3.313   6.756   1.649 -0.4992  0.6047  2.7357
  756MOL0     H 4325   3.857   6.856   2.102  2.8894  0.1491 -3.1888
  756MOL0     H 4326   4.186   6.867   2.176 -1.0920  0.7658 -2.2257
  756MOL0     H 4327   4.104   6.825   2.330  3.3854  0.7045 -0.2652
  756MOL0     H 4328   4.058   6.750   2.175  1.4068  0.2851 -1.2229
  757MOL0     O 4329   1.901   3.851   9.237  0.6141 -0.6389 -0.0807
  757MOL0     C 4330   1.964   3.921   9.157 -0.5432 -0.8014  0.7874
  757MOL0     O 4331   1.959   4.054   9.158  0.2103  0.6210  0.3741
  757MOL0     C 4332   1.878   4.121   9.241 -0.0642  0.1146 -0.0590
  757MOL0     C 4333   1.931   4.201   9.337  0.3326  0.7857 -0.2438
  757MOL0     C 4334   1.838   4.273   9.413  0.3583 -0.4690 -0.3188
  757MOL0     C 4335   1.697   4.269   9.388  0.0652 -0.0136 -0.0793
  757MOL0     O 4336   1.607   4.329   9.478 -0.3527 -0.2477  0.0019
  757MOL0     C 4337   1.659   4.444   9.552 -0.1966  0.0252 -0.6236
  757MOL0     C 4338   1.554   4.530   9.621 -0.7535 -0.1533  0.3004
  757MOL0     C 4339   1.471   4.595   9.507 -0.1285  0.4460  0.1651
  757MOL0     C 4340   1.533   4.723   9.457  0.6773  0.4416  0.3655
  757MOL0     C 4341   1.427   4.797   9.370 -0.4545 -0.7342  0.4602
  757MOL0     C 4342   1.494   4.918   9.290  0.5820  0.9254  0.1097
  757MOL0     C 4343   1.393   5.022   9.224 -0.5831 -0.2618 -1.0906
  757MOL0     C 4344   1.473   5.148   9.185 -0.4405 -0.5112  0.5714
  757MOL0     N 4345   1.419   5.203   9.070  0.1574  0.9342  0.3550
  757MOL0     C 4346   1.439   5.150   8.949 -0.3487 -0.2836 -0.1503
  757MOL0     C 4347   1.375   5.231   8.865  0.5247  0.3465 -0.3519
  757MOL0     C 4348   1.358   5.199   8.720 -0.1252 -0.3201  0.0827
  757MOL0     C 4349   1.487   5.236   8.639  0.0220 -0.1175  0.5839
  757MOL0     C 4350   1.570   5.103   8.609  0.4599 -0.4323 -0.0370
  757MOL0     C 4351   1.707   5.141   8.534  0.8713 -0.1156 -0.1020
  757MOL0     O 4352   1.683   5.221   8.418 -0.2177  0.6236 -0.0948
  757MOL0     C 4353   1.627   5.163   8.311  0.3737 -0.6487 -0.5604
  757MOL0     C 4354   1.592   5.246   8.200  0.2631 -0.6372  0.3528
  757MOL0     C 4355   1.526   5.196   8.091 -0.2365 -0.1684 -0.0858
  757MOL0     C 4356   1.491   5.297   7.977 -0.2107  1.4599  0.4721
  757MOL0     C 4357   1.491   5.058   8.084 -0.7759  0.5151  0.6558
  757MOL0     C 4358   1.409   4.998   7.979 -1.2953 -0.0201  0.1961
  757MOL0     O 4359   1.398   5.069   7.872  0.6335 -0.0664 -0.3681
  757MOL0     C 4360   1.328   5.036   7.763 -0.2276  0.0512 -0.0994
  757MOL0     C 4361   1.388   4.989   7.645  0.0368  0.2086 -0.0559
  757MOL0     C 4362   1.310   4.943   7.539 -0.6287 -0.7629  0.3037
  757MOL0     C 4363   1.168   4.944   7.547  0.7258 -0.1070  0.3520
  757MOL0     O 4364   1.071   4.910   7.453 -0.0137  0.6868 -0.0280
  757MOL0     C 4365   1.117   4.849   7.331  0.7262 -0.2306  0.2868
  757MOL0     C 4366   1.138   4.700   7.358 -0.6207  0.4350  0.7934
  757MOL0     C 4367   1.003   4.635   7.405 -0.4145 -0.3818  0.0693
  757MOL0     C 4368   1.013   4.542   7.522  0.3090 -0.6595 -0.4821
  757MOL0     C 4369   1.018   4.613   7.658 -0.1192  0.3804  0.5983
  757MOL0     C 4370   1.153   4.626   7.732 -0.8926 -0.0019 -0.9646
  757MOL0     C 4371   1.223   4.494   7.780  0.3972 -0.3008  0.4857
  757MOL0     C 4372   1.370   4.505   7.806 -0.1364 -0.2394 -0.4620
  757MOL0    Cl 4373   1.419   4.331   7.816  0.0926  0.0694  0.1584
  757MOL0     C 4374   1.110   5.004   7.661  0.2067  0.4648 -0.4912
  757MOL0     C 4375   1.188   5.048   7.772  0.3158 -0.0103 -0.4722
  757MOL0     O 4376   1.335   4.908   8.011 -0.0764 -0.5334  0.7248
  757MOL0     C 4377   1.546   4.971   8.181 -0.2043 -0.0741 -0.4045
  757MOL0     C 4378   1.611   5.024   8.292  1.1321 -0.4621  0.4232
  757MOL0     N 4379   1.306   5.326   8.938  0.0326  0.8654  0.0971
  757MOL0     N 4380   1.346   5.315   9.056  0.1705  0.3136  0.3149
  757MOL0     C 4381   1.651   4.189   9.287 -0.1837 -0.0043 -0.2270
  757MOL0     C 4382   1.744   4.115   9.214 -0.5984 -0.8134  0.1921
  757MOL0     C 4383   2.070   3.858   9.076  0.3597 -0.2163  0.1198
  757MOL0     C 4384   2.134   3.947   8.987  0.3072  0.3111 -0.3803
  757MOL0     C 4385   2.238   3.911   8.908  0.0780 -0.2158 -0.4146
  757MOL0     C 4386   2.297   3.781   8.911  0.2380  0.5728 -0.4415
  757MOL0     O 4387   2.413   3.741   8.841 -0.7447  0.4597  0.2715
  757MOL0     C 4388   2.519   3.843   8.830  0.3142  0.2600  0.2186
  757MOL0     C 4389   2.665   3.782   8.822 -0.1535 -0.0584 -0.3212
  757MOL0     C 4390   2.693   3.706   8.683  0.7811 -0.0274  0.1350
  757MOL0     C 4391   2.839   3.671   8.672 -0.3749 -0.5076 -1.2148
  757MOL0     C 4392   2.879   3.581   8.782  0.0592 -0.1919  0.7555
  757MOL0     C 4393   2.916   3.507   8.863  0.0843 -0.1335 -0.0218
  757MOL0     C 4394   2.220   3.682   8.975  0.2717  0.2143 -0.8423
  757MOL0     C 4395   2.107   3.718   9.058 -0.3279 -0.5204 -0.5042
  757MOL0     C 4396   2.052   3.612   9.153 -0.4389  0.3254 -0.3680
  757MOL0     H 4397   2.032   4.221   9.369  1.3406  0.1921 -2.7977
  757MOL0     H 4398   1.879   4.317   9.504 -0.3412 -1.0474  0.2882
  757MOL0     H 4399   1.716   4.513   9.488 -1.2833  3.4322  1.8203
  757MOL0     H 4400   1.729   4.402   9.625 -3.5402 -0.7713  2.3836
  757MOL0     H 4401   1.498   4.463   9.687  1.0022 -1.6320  0.3523
  757MOL0     H 4402   1.599   4.605   9.687 -3.8892  0.1898  2.2644
  757MOL0     H 4403   1.463   4.529   9.420 -1.4046 -0.0111  0.6049
  757MOL0     H 4404   1.370   4.611   9.545 -0.4553 -2.5787  0.8239
  757MOL0     H 4405   1.574   4.787   9.536  3.8928  2.3696 -2.6083
  757MOL0     H 4406   1.622   4.700   9.398  2.6200 -0.4976  3.4202
  757MOL0     H 4407   1.349   4.835   9.436 -1.6831  1.2945 -1.9682
  757MOL0     H 4408   1.383   4.731   9.295  2.1895 -3.4802  1.1187
  757MOL0     H 4409   1.548   4.972   9.369 -0.6423  0.3153  1.4119
  757MOL0     H 4410   1.566   4.879   9.218 -2.1150 -0.8258 -1.8677
  757MOL0     H 4411   1.302   5.045   9.280  0.5548  0.3341  0.5923
  757MOL0     H 4412   1.355   4.971   9.135 -2.5681 -1.1555  0.2245
  757MOL0     H 4413   1.455   5.231   9.255 -0.5865  0.2182 -0.3083
  757MOL0     H 4414   1.581   5.138   9.193 -0.6121 -1.4405  2.1035
  757MOL0     H 4415   1.508   5.071   8.924 -0.0728  0.0807 -0.5405
  757MOL0     H 4416   1.267   5.250   8.687  1.9930  2.0206 -2.6459
  757MOL0     H 4417   1.339   5.091   8.711 -2.1779  0.0989 -1.3906
  757MOL0     H 4418   1.449   5.285   8.549 -0.7540 -2.8139 -0.6857
  757MOL0     H 4419   1.554   5.312   8.681  1.9640  0.6861 -3.4023
  757MOL0     H 4420   1.602   5.055   8.702  0.3785 -1.6392 -0.6149
  757MOL0     H 4421   1.504   5.042   8.546 -1.0518  2.2207 -1.1968
  757MOL0     H 4422   1.761   5.212   8.598 -0.0843  1.0625 -0.5556
  757MOL0     H 4423   1.770   5.055   8.512  0.8264  0.1142 -1.2012
  757MOL0     H 4424   1.611   5.352   8.205  1.0448 -0.7542 -0.0332
  757MOL0     H 4425   1.530   5.265   7.880  1.6298  2.8312  0.6994
  757MOL0     H 4426   1.545   5.391   7.994 -0.8466  2.3732 -2.0977
  757MOL0     H 4427   1.384   5.319   7.976 -0.1609  1.7367 -0.9279
  757MOL0     H 4428   1.497   4.980   7.646  0.1043  0.2109  3.2097
  757MOL0     H 4429   1.357   4.897   7.453 -3.1060 -1.9540 -0.5101
  757MOL0     H 4430   1.038   4.851   7.255  1.5282 -0.8254 -0.5626
  757MOL0     H 4431   1.209   4.893   7.291  0.0257  1.5584  0.5022
  757MOL0     H 4432   1.186   4.642   7.279 -2.6636 -0.3651  0.0788
  757MOL0     H 4433   1.207   4.697   7.442 -1.0519  0.7454  1.1671
  757MOL0     H 4434   0.975   4.575   7.318  0.1602 -0.7143  0.1177
  757MOL0     H 4435   0.930   4.714   7.428  2.6341  2.0301  2.3625
  757MOL0     H 4436   1.106   4.488   7.504  0.2125 -0.8954 -0.2841
  757MOL0     H 4437   0.931   4.470   7.514  0.7080 -1.2358  0.4526
  757MOL0     H 4438   0.961   4.707   7.655  0.0070  0.4652 -2.4224
  757MOL0     H 4439   0.953   4.551   7.721 -0.0455 -1.3283 -0.9205
  757MOL0     H 4440   1.131   4.693   7.816  2.4394  0.0051  0.0351
  757MOL0     H 4441   1.221   4.682   7.667 -0.4883 -0.8393 -1.2732
  757MOL0     H 4442   1.220   4.429   7.693  1.3273 -0.5221  0.6073
  757MOL0     H 4443   1.161   4.445   7.855 -2.2865  0.6701 -0.9557
  757MOL0     H 4444   1.397   4.562   7.896 -0.0631  4.0151 -2.9143
  757MOL0     H 4445   1.422   4.556   7.724  0.2650  0.6023  0.2962
  757MOL0     H 4446   1.002   5.006   7.676  0.4533 -1.1179  2.3514
  757MOL0     H 4447   1.150   5.099   7.860 -1.4765  0.2375 -1.3472
  757MOL0     H 4448   1.537   4.863   8.169  1.7414 -0.6429  2.2635
  757MOL0     H 4449   1.650   4.951   8.363  4.1015  1.4625  0.9329
  757MOL0     H 4450   1.546   4.163   9.275 -0.2133  0.0221 -0.0238
  757MOL0     H 4451   1.708   4.046   9.139  1.2323 -0.5836 -0.9564
  757MOL0     H 4452   2.112   4.053   8.983 -0.6821  0.2264  1.6807
  757MOL0     H 4453   2.281   3.974   8.830  2.3698 -2.0711 -0.7615
  757MOL0     H 4454   2.495   3.910   8.747  0.6968 -1.1565 -1.0935
  757MOL0     H 4455   2.509   3.906   8.918  0.1728 -0.2599  0.5776
  757MOL0     H 4456   2.676   3.717   8.910 -4.1230 -0.8634 -0.1981
  757MOL0     H 4457   2.740   3.861   8.824 -0.4557  0.2260  1.2899
  757MOL0     H 4458   2.625   3.622   8.664  0.9261  0.2639 -1.8729
  757MOL0     H 4459   2.670   3.781   8.607 -0.4383 -1.2414 -0.7308
  757MOL0     H 4460   2.912   3.753   8.674  3.2282 -3.4520 -0.9841
  757MOL0     H 4461   2.858   3.623   8.576  1.6232 -0.4599 -0.8924
  757MOL0     H 4462   2.942   3.441   8.944 -1.9495 -0.9465  0.0088
  757MOL0     H 4463   2.253   3.579   8.962  1.5623  0.2661  1.4269
  757MOL0     H 4464   1.943   3.612   9.152 -0.4967 -2.3447 -1.2060
  757MOL0     H 4465   2.097   3.515   9.130  0.9610  0.7005  0.6443
  757MOL0     H 4466   2.096   3.625   9.253  2.2967 -2.1447 -1.0888
  758MOL0     O 4467   0.647   0.958   6.569 -0.8778 -0.3581 -0.1741
  758MOL0     C 4468   0.531   0.932   6.541 -0.1536 -0.3696  0.2177
  758MOL0     O 4469   0.415   0.985   6.603  0.2102  1.0341 -0.7234
  758MOL0     C 4470   0.436   1.097   6.686 -0.6470  0.2973  1.0203
  758MOL0     C 4471   0.376   1.096   6.810  0.5102 -0.4772 -0.7464
  758MOL0     C 4472   0.397   1.200   6.896 -0.1128  0.7768 -0.2929
  758MOL0     C 4473   0.468   1.318   6.852 -0.3264 -0.6276 -0.1383
  758MOL0     O 4474   0.459   1.429   6.924 -0.2876  0.0511  0.2723
  758MOL0     C 4475   0.594   1.472   6.974  0.6830  0.4824 -0.3444
  758MOL0     C 4476   0.671   1.558   6.873  0.0137 -0.7008  0.9050
  758MOL0     C 4477   0.761   1.662   6.944 -0.7173  0.3568  0.3565
  758MOL0     C 4478   0.821   1.768   6.846  0.8814 -0.9771 -0.8473
  758MOL0     C 4479   0.907   1.861   6.937  0.1851 -0.2765 -0.1470
  758MOL0     C 4480   1.022   1.798   7.013 -0.3165 -0.4111 -0.5413
  758MOL0     C 4481   1.139   1.904   7.039  0.1706  0.6463  0.8398
  758MOL0     C 4482   1.247   1.863   7.134  0.2724 -0.2496 -0.2211
  758MOL0     N 4483   1.372   1.936   7.110 -0.6816 -0.0819 -0.1353
  758MOL0     C 4484   1.457   1.896   7.007 -0.3853 -0.2310 -0.0805
  758MOL0     C 4485   1.570   1.965   7.030  0.4128  0.3410 -0.1173
  758MOL0     C 4486   1.687   1.941   6.937  0.4648 -0.2128 -0.6241
  758MOL0     C 4487   1.816   1.911   7.027  0.0513  0.0640  0.6702
  758MOL0     C 4488   1.868   1.773   6.997  0.5737 -0.3138  0.6788
  758MOL0     C 4489   1.979   1.773   6.891 -1.1112  0.6999 -0.1990
  758MOL0     O 4490   1.982   1.643   6.836  0.0348 -0.3703 -0.1740
  758MOL0     C 4491   2.075   1.555   6.898  0.1943  0.3453 -0.2835
  758MOL0     C 4492   2.106   1.447   6.814  0.7796  0.2806 -0.0706
  758MOL0     C 4493   2.185   1.343   6.849 -0.0823 -0.4491  1.1034
  758MOL0     C 4494   2.201   1.223   6.758  0.0371  0.3768 -0.6579
  758MOL0     C 4495   2.240   1.336   6.980  0.6905 -0.0078 -0.5090
  758MOL0     C 4496   2.316   1.225   7.037 -0.6159  0.2609  0.1641
  758MOL0     O 4497   2.322   1.220   7.171 -0.4480 -0.8044 -0.3204
  758MOL0     C 4498   2.384   1.112   7.229  1.1126  0.0354 -0.3443
  758MOL0     C 4499   2.320   1.058   7.337 -0.0681  0.1508  0.1321
  758MOL0     C 4500   2.382   0.946   7.397 -0.2375 -1.4034  0.2176
  758MOL0     C 4501   2.512   0.916   7.359  0.0592 -0.2206  0.2656
  758MOL0     O 4502   2.573   0.808   7.417 -0.3393 -0.1849 -0.2211
  758MOL0     C 4503   2.499   0.709   7.494  0.7528 -0.5639 -0.1317
  758MOL0     C 4504   2.584   0.587   7.529  0.2730 -0.7091 -0.1623
  758MOL0     C 4505   2.685   0.599   7.649 -0.3818 -0.4347 -0.8682
  758MOL0     C 4506   2.783   0.708   7.622 -0.4627 -0.6865  0.7895
  758MOL0     C 4507   2.898   0.696   7.720  0.7198  0.0140 -0.3154
  758MOL0     C 4508   3.034   0.730   7.653  1.0470  0.2782  0.7637
  758MOL0     C 4509   3.146   0.667   7.740 -0.1772 -0.1227 -0.0521
  758MOL0     C 4510   3.158   0.718   7.887  0.2208 -1.0563  0.0264
  758MOL0    Cl 4511   3.288   0.649   7.990  0.1567  0.3258  0.1420
  758MOL0     C 4512   2.580   0.992   7.274 -0.3625 -0.8360 -1.0283
  758MOL0     C 4513   2.523   1.096   7.203 -0.9013 -0.3708 -0.4768
  758MOL0     O 4514   2.354   1.135   6.967 -0.0254  0.1383 -0.2905
  758MOL0     C 4515   2.224   1.449   7.062  0.4981  0.2644 -0.9335
  758MOL0     C 4516   2.139   1.556   7.027 -0.3417 -0.1410  0.4900
  758MOL0     N 4517   1.554   2.024   7.164 -0.3442 -0.6568 -0.3342
  758MOL0     N 4518   1.431   2.011   7.201 -0.1357 -0.0251 -0.4715
  758MOL0     C 4519   0.524   1.314   6.727 -0.7684 -0.8738 -0.3638
  758MOL0     C 4520   0.515   1.207   6.652 -0.6981 -0.0345 -0.0780
  758MOL0     C 4521   0.501   0.839   6.426  0.6084  0.2616  0.4522
  758MOL0     C 4522   0.387   0.860   6.341 -0.2332 -0.4906 -0.0329
  758MOL0     C 4523   0.365   0.783   6.224 -0.7279  0.2392 -0.5168
  758MOL0     C 4524   0.454   0.682   6.189 -0.0040  0.6604 -0.1255
  758MOL0     O 4525   0.449   0.605   6.074  0.3262  0.3493  0.0198
  758MOL0     C 4526   0.357   0.648   5.964  0.1681 -0.0920 -0.4992
  758MOL0     C 4527   0.356   0.550   5.849  0.5942  0.4393  0.5536
  758MOL0     C 4528   0.468   0.565   5.751 -0.6692  0.1662 -0.1753
  758MOL0     C 4529   0.490   0.706   5.695 -0.0500 -0.4408  1.8178
  758MOL0     C 4530   0.386   0.750   5.593 -0.5846 -0.3200  0.2161
  758MOL0     C 4531   0.303   0.784   5.512 -0.0213 -0.4013 -0.5107
  758MOL0     C 4532   0.559   0.653   6.270 -0.0981  0.1056 -1.2810
  758MOL0     C 4533   0.588   0.732   6.384 -0.3831  0.4485  0.3659
  758MOL0     C 4534   0.714   0.691   6.461 -0.9478  0.6388 -0.6250
  758MOL0     H 4535   0.319   1.007   6.836 -1.0608  0.9641  1.0236
  758MOL0     H 4536   0.345   1.191   6.990  0.4216 -1.3209 -0.1590
  758MOL0     H 4537   0.675   1.400   6.993  1.9355  1.7403 -0.7143
  758MOL0     H 4538   0.573   1.527   7.067  5.2638 -1.3622  2.1168
  758MOL0     H 4539   0.728   1.487   6.812 -1.7281 -1.0275 -0.3992
  758MOL0     H 4540   0.601   1.603   6.803  0.5998 -0.6036  0.3666
  758MOL0     H 4541   0.706   1.710   7.026 -1.4275  0.7293 -0.3192
  758MOL0     H 4542   0.852   1.620   6.986  1.1072  2.9636 -0.7270
  758MOL0     H 4543   0.880   1.711   6.773  3.0474 -0.4253  0.3651
  758MOL0     H 4544   0.750   1.834   6.795  1.1935  2.1331  2.3504
  758MOL0     H 4545   0.838   1.898   7.014 -1.3313 -2.4140 -0.3719
  758MOL0     H 4546   0.950   1.940   6.875 -0.0687 -0.3710 -0.4465
  758MOL0     H 4547   0.983   1.744   7.099 -0.2527 -0.6392 -0.6529
  758MOL0     H 4548   1.063   1.717   6.950 -1.8491 -0.9376 -0.8974
  758MOL0     H 4549   1.103   2.002   7.070 -5.1192 -0.6104 -0.4654
  758MOL0     H 4550   1.179   1.915   6.937 -0.7887  0.0308  0.3845
  758MOL0     H 4551   1.206   1.884   7.234  0.7349 -0.6709  0.0646
  758MOL0     H 4552   1.264   1.755   7.122  1.6457  0.0985 -1.6604
  758MOL0     H 4553   1.428   1.828   6.928 -2.2871 -1.7751  1.8363
  758MOL0     H 4554   1.697   2.039   6.891 -3.7585  1.7305  1.9608
  758MOL0     H 4555   1.662   1.859   6.868 -0.4507  0.6915 -1.3943
  758MOL0     H 4556   1.892   1.987   7.004 -0.7058 -0.2657 -4.0178
  758MOL0     H 4557   1.800   1.915   7.135 -2.5554  0.8411  0.3311
  758MOL0     H 4558   1.899   1.727   7.092  1.6947  0.2561  0.6083
  758MOL0     H 4559   1.788   1.705   6.967 -0.8564  0.6580  2.1333
  758MOL0     H 4560   1.944   1.832   6.805  0.1133 -0.5745 -1.6280
  758MOL0     H 4561   2.072   1.817   6.925 -0.1643  0.2033 -2.0078
  758MOL0     H 4562   2.059   1.431   6.718  0.6927  0.7245 -0.1049
  758MOL0     H 4563   2.173   1.127   6.802 -0.9602  1.1669  0.4888
  758MOL0     H 4564   2.307   1.221   6.735  0.2841 -1.3637  0.4279
  758MOL0     H 4565   2.154   1.237   6.660  1.7516  1.1377 -1.4129
  758MOL0     H 4566   2.216   1.079   7.362 -0.8062 -2.6492 -0.3007
  758MOL0     H 4567   2.337   0.902   7.485 -2.7589  3.3482  1.6171
  758MOL0     H 4568   2.464   0.756   7.587  4.4563 -3.7148  3.2600
  758MOL0     H 4569   2.413   0.673   7.438  0.4246 -1.6881  1.0352
  758MOL0     H 4570   2.532   0.491   7.535 -2.2748  0.6500  1.9852
  758MOL0     H 4571   2.640   0.562   7.438 -1.2775 -0.1199 -1.3190
  758MOL0     H 4572   2.734   0.503   7.670  0.4038  0.6463  3.2391
  758MOL0     H 4573   2.641   0.621   7.747  0.7223  0.9577 -0.6478
  758MOL0     H 4574   2.733   0.805   7.629 -1.4471 -0.7120 -3.2207
  758MOL0     H 4575   2.816   0.688   7.519  0.0211 -3.4080  1.4032
  758MOL0     H 4576   2.883   0.765   7.804 -2.3052 -0.2538 -0.5241
  758MOL0     H 4577   2.889   0.599   7.769 -4.0329  1.2627  1.9006
  758MOL0     H 4578   3.039   0.837   7.629 -0.4361  1.3240  4.2954
  758MOL0     H 4579   3.035   0.684   7.554 -0.5601  3.4119 -0.8682
  758MOL0     H 4580   3.248   0.688   7.706 -0.4015 -1.3475 -1.6214
  758MOL0     H 4581   3.127   0.559   7.741 -2.2927  0.0483 -3.2784
  758MOL0     H 4582   3.059   0.703   7.931 -0.8495  0.8315 -1.5444
  758MOL0     H 4583   3.175   0.826   7.884 -0.3683 -0.9669 -0.3812
  758MOL0     H 4584   2.684   0.968   7.252 -0.1356 -0.4650 -0.3783
  758MOL0     H 4585   2.573   1.166   7.137 -1.2876  0.8110  0.4475
  758MOL0     H 4586   2.275   1.457   7.157 -0.5413 -2.3547 -0.0784
  758MOL0     H 4587   2.129   1.634   7.101  0.3582 -0.1400  0.5953
  758MOL0     H 4588   0.565   1.409   6.694  1.6331 -1.4140  0.7676
  758MOL0     H 4589   0.558   1.220   6.553  0.8790  0.7841  0.6713
  758MOL0     H 4590   0.326   0.944   6.373  1.1309 -0.1319  1.8407
  758MOL0     H 4591   0.278   0.800   6.161 -3.4777 -0.1006  2.8242
  758MOL0     H 4592   0.254   0.642   6.000  0.2358  0.0012 -0.2931
  758MOL0     H 4593   0.367   0.754   5.937 -2.3000  0.3319  0.0294
  758MOL0     H 4594   0.266   0.567   5.789 -1.7349 -2.0339  3.0497
  758MOL0     H 4595   0.338   0.446   5.875 -2.3140  1.2426  2.2724
  758MOL0     H 4596   0.558   0.531   5.804 -1.3316  0.7764  1.4221
  758MOL0     H 4597   0.443   0.491   5.675 -2.1065 -0.9015  1.2690
  758MOL0     H 4598   0.587   0.718   5.647 -0.9389  1.0223  0.2824
  758MOL0     H 4599   0.508   0.779   5.774  2.1015 -0.3977  1.3405
  758MOL0     H 4600   0.222   0.809   5.446  0.5987 -0.2282 -1.2139
  758MOL0     H 4601   0.621   0.572   6.233  0.7776 -0.3717  1.0408
  758MOL0     H 4602   0.686   0.661   6.562  1.0507  0.8999  0.0492
  758MOL0     H 4603   0.760   0.604   6.414  0.8147  0.9606  0.4069
  758MOL0     H 4604   0.793   0.766   6.466  0.0178 -0.2048 -2.3376
  759MOL0     O 4605   2.276   5.953   0.233  0.5585  0.6742  0.2189
  759MOL0     C 4606   2.373   5.964   0.302 -0.6272 -0.2434 -0.2538
  759MOL0     O 4607   2.431   6.083   0.339 -0.3125 -0.5293 -0.4161
  759MOL0     C 4608   2.372   6.203   0.321 -1.1914 -0.0111 -0.4245
  759MOL0     C 4609   2.358   6.278   0.438 -0.2115 -1.0457  0.4431
  759MOL0     C 4610   2.290   6.403   0.430 -0.8864  0.6663 -0.0705
  759MOL0     C 4611   2.245   6.447   0.304 -0.6155 -0.6871 -0.3533
  759MOL0     O 4612   2.173   6.561   0.307 -0.2162 -0.2649  0.0749
  759MOL0     C 4613   2.065   6.590   0.216 -0.3455 -0.1690 -0.7642
  759MOL0     C 4614   2.051   6.745   0.199 -0.4558  0.2296  0.1818
  759MOL0     C 4615   2.173   6.797   0.117  0.7092 -0.3931  1.0322
  759MOL0     C 4616   2.155   6.946   0.079 -0.2129  0.9846 -0.3249
  759MOL0     C 4617   2.178   7.038   0.187  0.3941 -0.0295  0.9648
  759MOL0     C 4618   2.133   7.181   0.153  0.5355  1.8726 -0.4643
  759MOL0     C 4619   2.163   7.291   0.254 -0.4890 -0.2090 -0.0002
  759MOL0     C 4620   2.120   7.278   0.398  0.6812  0.1669  0.8736
  759MOL0     N 4621   1.963   7.273   0.408 -0.7986  0.1149 -0.5081
  759MOL0     C 4622   1.883   7.378   0.389 -0.4443 -0.1271 -1.0092
  759MOL0     C 4623   1.763   7.332   0.422  0.0309  0.9041 -0.2306
  759MOL0     C 4624   1.650   7.433   0.403  0.5548  0.1906  0.2286
  759MOL0     C 4625   1.573   7.445   0.539 -0.5699  0.1865 -0.0544
  759MOL0     C 4626   1.671   7.503   0.643 -0.0321 -0.8683 -0.2393
  759MOL0     C 4627   1.582   7.545   0.766 -0.1028 -0.5855 -0.3871
  759MOL0     O 4628   1.517   7.426   0.829  0.0473 -0.0626  0.3595
  759MOL0     C 4629   1.419   7.453   0.920  0.5416 -0.2392  0.3812
  759MOL0     C 4630   1.422   7.547   1.021  0.0949 -0.0112  0.2460
  759MOL0     C 4631   1.315   7.557   1.108 -0.0343  0.0361 -0.0193
  759MOL0     C 4632   1.315   7.662   1.213 -0.6426  0.1491 -0.6515
  759MOL0     C 4633   1.209   7.460   1.108  0.3099  0.3824 -0.6476
  759MOL0     C 4634   1.082   7.466   1.188 -0.0261 -0.0203 -0.2107
  759MOL0     O 4635   0.993   7.357   1.182 -0.3292 -0.2020 -0.3463
  759MOL0     C 4636   0.898   7.339   1.279  0.5812  0.8395 -0.1604
  759MOL0     C 4637   0.805   7.436   1.314  0.2964 -0.5696  0.1987
  759MOL0     C 4638   0.707   7.415   1.411  0.4555 -0.3569  0.2809
  759MOL0     C 4639   0.694   7.295   1.481  0.4940  0.0816  0.2530
  759MOL0     O 4640   0.597   7.286   1.578  0.5438  0.0010  0.0973
  759MOL0     C 4641   0.627   7.195   1.682  0.2186 -0.2408 -0.4842
  759MOL0     C 4642   0.534   7.242   1.801  0.7390 -0.9342 -0.7161
  759MOL0     C 4643   0.380   7.255   1.772 -1.3333 -0.9126 -0.8206
  759MOL0     C 4644   0.320   7.112   1.787 -0.1889 -0.4810 -0.5492
  759MOL0     C 4645   0.173   7.117   1.838 -0.1924 -0.3573 -0.1364
  759MOL0     C 4646   0.102   6.979   1.844 -0.1184  0.2036  0.5464
  759MOL0     C 4647  -0.013   6.989   1.952  0.3353  0.3319  0.7125
  759MOL0     C 4648  -0.074   6.856   2.006 -0.0262 -0.4757 -0.2306
  759MOL0    Cl 4649  -0.026   6.830   2.185 -0.2551 -0.2057  0.2522
  759MOL0     C 4650   0.797   7.204   1.453  0.8647  0.3154  0.4873
  759MOL0     C 4651   0.902   7.229   1.354 -0.1987 -0.7101 -0.3035
  759MOL0     O 4652   1.057   7.569   1.254  0.0228 -0.2496 -0.5429
  759MOL0     C 4653   1.206   7.369   1.005 -0.9404 -0.5368 -0.8980
  759MOL0     C 4654   1.307   7.369   0.912  0.4177 -1.4693 -0.1664
  759MOL0     N 4655   1.769   7.193   0.444  0.5735  0.2722  0.1601
  759MOL0     N 4656   1.889   7.155   0.422  0.3678 -1.1426  0.2791
  759MOL0     C 4657   2.288   6.384   0.183  0.7824  0.0671 -0.3054
  759MOL0     C 4658   2.343   6.256   0.189  0.5619 -0.2256 -0.9177
  759MOL0     C 4659   2.450   5.838   0.339 -0.2715 -0.7145  0.4648
  759MOL0     C 4660   2.473   5.812   0.477 -0.4948  0.6143 -0.3276
  759MOL0     C 4661   2.554   5.706   0.511 -0.4470  0.3058 -0.4631
  759MOL0     C 4662   2.614   5.624   0.428 -0.3185 -0.2053 -0.5726
  759MOL0     O 4663   2.698   5.529   0.471  0.2690  0.3178  1.0286
  759MOL0     C 4664   2.715   5.405   0.403  1.0392  0.5822 -0.1795
  759MOL0     C 4665   2.780   5.311   0.499  0.0002  0.2099 -0.7278
  759MOL0     C 4666   2.698   5.280   0.631  0.4733  0.4409  0.4569
  759MOL0     C 4667   2.568   5.192   0.599  0.3358 -0.4139  0.3202
  759MOL0     C 4668   2.521   5.118   0.714  0.2005  0.0880  0.2239
  759MOL0     C 4669   2.488   5.058   0.809  0.1168  0.5315  0.1401
  759MOL0     C 4670   2.597   5.648   0.292 -0.0577  0.2719 -1.1029
  759MOL0     C 4671   2.514   5.752   0.245 -0.3389 -0.5362  0.6863
  759MOL0     C 4672   2.506   5.776   0.096  0.0317 -1.0390  0.1218
  759MOL0     H 4673   2.386   6.232   0.531  1.3547 -1.8504 -0.3923
  759MOL0     H 4674   2.253   6.458   0.515 -1.8324  0.8809 -0.6047
  759MOL0     H 4675   1.984   6.543   0.273 -0.5704  3.0007  1.8652
  759MOL0     H 4676   2.078   6.544   0.118  2.4789  0.1100 -0.5931
  759MOL0     H 4677   1.961   6.764   0.141  1.0592  1.2655 -1.9193
  759MOL0     H 4678   2.045   6.789   0.299 -1.8019  2.2876 -0.7444
  759MOL0     H 4679   2.269   6.776   0.167  1.8163 -2.0747 -1.6095
  759MOL0     H 4680   2.167   6.740   0.024 -0.0690  2.8835 -1.0717
  759MOL0     H 4681   2.221   6.962  -0.006 -1.8132  2.0506 -1.4165
  759MOL0     H 4682   2.052   6.958   0.046  0.1783  0.6530 -1.7376
  759MOL0     H 4683   2.285   7.042   0.213  0.5528 -0.5758  0.4255
  759MOL0     H 4684   2.133   7.012   0.283 -1.0068  1.9734  0.8967
  759MOL0     H 4685   2.187   7.217   0.065  1.7053  2.7174  0.5650
  759MOL0     H 4686   2.024   7.183   0.142 -0.1826 -1.7907  3.4271
  759MOL0     H 4687   2.125   7.390   0.226  0.3590  0.0497 -0.2490
  759MOL0     H 4688   2.270   7.312   0.257 -0.2746 -1.1880 -0.6344
  759MOL0     H 4689   2.161   7.184   0.435 -2.1723 -1.6650 -0.2392
  759MOL0     H 4690   2.145   7.374   0.442 -1.1794  1.1136 -0.0020
  759MOL0     H 4691   1.905   7.474   0.342 -0.0203  0.6685  0.7276
  759MOL0     H 4692   1.595   7.412   0.311  1.8913 -0.7429 -0.3870
  759MOL0     H 4693   1.693   7.533   0.391 -0.9407  0.8016 -0.2550
  759MOL0     H 4694   1.484   7.509   0.532 -1.9345 -1.4422  1.6206
  759MOL0     H 4695   1.546   7.342   0.564 -0.7435  0.0099 -0.9179
  759MOL0     H 4696   1.751   7.433   0.670  1.4032  0.7016 -0.2886
  759MOL0     H 4697   1.710   7.598   0.608 -1.8181 -0.0835 -0.1914
  759MOL0     H 4698   1.636   7.616   0.829 -2.0343  2.5117 -1.9570
  759MOL0     H 4699   1.508   7.612   0.722  1.1137 -0.3706 -2.1703
  759MOL0     H 4700   1.509   7.612   1.015 -0.9072  1.2334 -1.7111
  759MOL0     H 4701   1.412   7.710   1.225  0.5982 -2.1436 -0.9998
  759MOL0     H 4702   1.289   7.619   1.310 -2.3584 -1.6057 -1.8166
  759MOL0     H 4703   1.242   7.738   1.184 -1.7279  0.1535  1.7798
  759MOL0     H 4704   0.811   7.540   1.284  0.5572 -0.4726  0.5680
  759MOL0     H 4705   0.649   7.505   1.431  0.2142 -0.5870  0.6337
  759MOL0     H 4706   0.600   7.092   1.659  1.7973 -0.6037 -0.8567
  759MOL0     H 4707   0.732   7.202   1.712  0.1757 -2.4332  0.3672
  759MOL0     H 4708   0.543   7.180   1.890 -0.3292  0.7171  0.5911
  759MOL0     H 4709   0.565   7.341   1.836 -3.3269  0.1037  0.4091
  759MOL0     H 4710   0.372   7.305   1.675  2.2508  2.3858  0.3227
  759MOL0     H 4711   0.348   7.318   1.856  2.6595 -0.3524  0.4868
  759MOL0     H 4712   0.374   7.052   1.861  0.3429  0.5817 -0.0457
  759MOL0     H 4713   0.324   7.063   1.689 -1.2124 -1.7646  0.0180
  759MOL0     H 4714   0.189   7.170   1.932  1.8361  0.8995 -1.1237
  759MOL0     H 4715   0.115   7.190   1.780  1.4728  0.4307 -0.8871
  759MOL0     H 4716   0.184   6.914   1.876 -0.0716  0.2961  0.6163
  759MOL0     H 4717   0.068   6.948   1.745  2.4268 -0.5858 -0.1689
  759MOL0     H 4718  -0.100   7.032   1.901  2.5832  4.3207 -0.1485
  759MOL0     H 4719   0.006   7.056   2.036 -0.1978  1.2465  0.1165
  759MOL0     H 4720  -0.041   6.778   1.938 -0.4355 -0.2555 -0.6876
  759MOL0     H 4721  -0.183   6.862   1.993  0.1836  1.0916 -1.5252
  759MOL0     H 4722   0.803   7.109   1.505 -0.3028  0.9032  1.7786
  759MOL0     H 4723   0.973   7.152   1.325 -1.8128 -1.2751 -3.1418
  759MOL0     H 4724   1.127   7.297   0.986 -2.7773  1.5852 -1.7916
  759MOL0     H 4725   1.307   7.293   0.835 -0.1790 -0.6577 -0.9885
  759MOL0     H 4726   2.256   6.414   0.083 -0.1203  3.0445  0.7744
  759MOL0     H 4727   2.372   6.206   0.097  0.8254  1.7890 -1.9744
  759MOL0     H 4728   2.442   5.869   0.564  2.2153  1.2250  0.3240
  759MOL0     H 4729   2.571   5.703   0.619  1.5259  0.1952 -0.7400
  759MOL0     H 4730   2.628   5.353   0.363  1.7875 -1.5613  0.8090
  759MOL0     H 4731   2.786   5.423   0.322  0.6247  0.1532 -0.6515
  759MOL0     H 4732   2.883   5.339   0.524  0.2964 -0.0760 -1.5847
  759MOL0     H 4733   2.797   5.214   0.451 -0.0996 -0.2040  0.0608
  759MOL0     H 4734   2.765   5.212   0.683  2.7668  1.4026 -1.0856
  759MOL0     H 4735   2.692   5.362   0.702  0.3745  1.2108 -0.4217
  759MOL0     H 4736   2.576   5.123   0.515  1.0393  0.8889 -0.7052
  759MOL0     H 4737   2.489   5.261   0.570  0.4504 -1.7454 -3.7217
  759MOL0     H 4738   2.449   4.983   0.876  0.0681 -3.1813 -3.6480
  759MOL0     H 4739   2.643   5.587   0.214  2.2720  1.5190 -0.8033
  759MOL0     H 4740   2.424   5.836   0.057  0.7747  1.2003  1.8356
  759MOL0     H 4741   2.585   5.850   0.081 -3.0980  2.2877 -1.5052
  759MOL0     H 4742   2.528   5.688   0.033  2.1749 -0.7931  0.4521
  760MOL0     O 4743   5.017   7.261  11.566 -0.4714  0.3888  0.0335
  760MOL0     C 4744   4.961   7.151  11.544  0.1981 -0.3044  0.5663
  760MOL0     O 4745   5.023   7.031  11.495  0.5296 -0.2224 -0.3482
  760MOL0     C 4746   5.152   7.032  11.455 -0.4123  0.6834 -0.4640
  760MOL0     C 4747   5.193   6.947  11.360 -0.3761 -0.7485  0.0912
  760MOL0     C 4748   5.327   6.944  11.313  0.3465  0.0808  0.0484
  760MOL0     C 4749   5.428   7.020  11.377  0.4192 -0.2589  0.2914
  760MOL0     O 4750   5.562   7.005  11.332  0.0962  0.3032 -0.9129
  760MOL0     C 4751   5.620   7.131  11.292 -0.0902 -0.5450  0.6116
  760MOL0     C 4752   5.769   7.092  11.265  0.1565 -0.0815 -0.5838
  760MOL0     C 4753   5.837   7.218  11.211 -0.7114 -0.2692  0.4036
  760MOL0     C 4754   5.971   7.177  11.146 -0.2132  0.7674  0.9737
  760MOL0     C 4755   6.071   7.290  11.149  0.1761 -0.5096 -0.4539
  760MOL0     C 4756   6.192   7.264  11.064 -0.6172  0.2770  0.3278
  760MOL0     C 4757   6.291   7.159  11.127 -0.5715 -0.5441 -1.1739
  760MOL0     C 4758   6.429   7.157  11.045 -0.2780 -0.6506 -0.1168
  760MOL0     N 4759   6.521   7.052  11.086  0.9963  1.4185  0.4238
  760MOL0     C 4760   6.580   7.036  11.214  0.6726 -0.6583  0.3438
  760MOL0     C 4761   6.618   6.906  11.229  0.3622 -0.5400 -0.1503
  760MOL0     C 4762   6.660   6.844  11.352  0.3221  0.4381  0.8735
  760MOL0     C 4763   6.741   6.925  11.458 -0.4007 -0.1771  0.9108
  760MOL0     C 4764   6.869   6.970  11.390 -0.5264 -0.2971 -0.9357
  760MOL0     C 4765   6.972   7.007  11.510  0.3897  0.3921 -0.2293
  760MOL0     O 4766   6.918   7.111  11.599  0.3737  0.4615 -0.7092
  760MOL0     C 4767   7.009   7.214  11.611 -0.6841 -0.6119  0.6742
  760MOL0     C 4768   6.988   7.328  11.535  0.1727 -0.4234  0.1093
  760MOL0     C 4769   7.074   7.438  11.531  0.9672  0.9067 -0.2119
  760MOL0     C 4770   7.017   7.558  11.441 -0.4977 -0.5549 -0.3731
  760MOL0     C 4771   7.185   7.428  11.613 -0.2870  0.0661 -0.3322
  760MOL0     C 4772   7.276   7.540  11.626 -0.2346  0.0231  0.2352
  760MOL0     O 4773   7.393   7.516  11.695  1.0073  0.4683  0.9015
  760MOL0     C 4774   7.475   7.615  11.734  0.1619 -0.6407  1.1901
  760MOL0     C 4775   7.611   7.589  11.742 -0.2151 -0.1292  0.3280
  760MOL0     C 4776   7.709   7.680  11.786  0.0912 -0.7267  0.7362
  760MOL0     C 4777   7.674   7.807  11.814 -0.0153 -0.1241  0.9605
  760MOL0     O 4778   7.771   7.896  11.859  0.2607 -0.0573  0.2567
  760MOL0     C 4779   7.731   7.977  11.974 -0.8015  0.2689  0.9638
  760MOL0     C 4780   7.795   8.113  11.978  0.0820 -0.0436  0.8394
  760MOL0     C 4781   7.939   8.119  12.044  1.3663  0.1730 -0.0454
  760MOL0     C 4782   7.976   8.271  12.024 -1.5820  0.3113 -0.3262
  760MOL0     C 4783   8.123   8.301  12.048  0.1098 -0.0368  0.4681
  760MOL0     C 4784   8.151   8.289  12.194  0.1639  0.7219 -0.6458
  760MOL0     C 4785   8.297   8.330  12.232  0.1534  0.7973 -0.2432
  760MOL0     C 4786   8.336   8.313  12.379  0.1658  0.6192  0.3759
  760MOL0    Cl 4787   8.511   8.280  12.385  0.4400  0.3127 -0.0703
  760MOL0     C 4788   7.536   7.846  11.805  0.4317 -0.4695 -0.8432
  760MOL0     C 4789   7.437   7.749  11.774 -0.4097  0.8294  0.0873
  760MOL0     O 4790   7.249   7.646  11.571 -0.0097 -0.4954 -0.5629
  760MOL0     C 4791   7.204   7.316  11.694 -0.2043 -0.6740 -0.2033
  760MOL0     C 4792   7.122   7.207  11.695 -0.7314 -0.5587  0.0655
  760MOL0     N 4793   6.589   6.838  11.109  0.0766  0.2772 -1.1777
  760MOL0     N 4794   6.540   6.929  11.023 -0.4886 -0.0377  0.3414
  760MOL0     C 4795   5.386   7.108  11.473  0.9185 -0.5106 -0.7897
  760MOL0     C 4796   5.254   7.117  11.514  0.4980  0.0891 -0.1649
  760MOL0     C 4797   4.818   7.139  11.573  0.1439 -0.3360 -0.0969
  760MOL0     C 4798   4.772   7.044  11.659 -0.4035  0.0156 -0.2518
  760MOL0     C 4799   4.633   7.028  11.676  0.1947  0.5261  0.5092
  760MOL0     C 4800   4.541   7.111  11.614 -0.0936 -0.7275 -0.2079
  760MOL0     O 4801   4.413   7.092  11.651 -0.2197  0.1061  0.0097
  760MOL0     C 4802   4.313   7.162  11.575  0.3961  0.3487 -0.0309
  760MOL0     C 4803   4.187   7.076  11.571  0.3761 -0.1517 -0.3108
  760MOL0     C 4804   4.116   7.053  11.703  0.1513  0.8337  0.2014
  760MOL0     C 4805   3.980   6.990  11.702 -0.9252 -0.0471 -0.0362
  760MOL0     C 4806   3.991   6.858  11.650 -0.7622 -0.5841  0.5481
  760MOL0     C 4807   4.006   6.744  11.618 -0.2251  0.0886  0.6372
  760MOL0     C 4808   4.592   7.219  11.536 -0.8984 -0.2707 -0.4703
  760MOL0     C 4809   4.724   7.231  11.514 -0.3874  0.3735  0.1454
  760MOL0     C 4810   4.765   7.343  11.420  1.5556  0.1149  0.9824
  760MOL0     H 4811   5.110   6.891  11.317  0.6505 -1.3282 -1.2303
  760MOL0     H 4812   5.340   6.868  11.236 -2.0844 -1.7490  1.3257
  760MOL0     H 4813   5.607   7.210  11.367 -0.1100  0.9407 -0.9064
  760MOL0     H 4814   5.581   7.154  11.193  0.5344 -0.6084  0.3417
  760MOL0     H 4815   5.812   7.060  11.360 -1.4591 -2.5312 -0.5888
  760MOL0     H 4816   5.778   7.013  11.190 -1.6388  0.6307 -1.6124
  760MOL0     H 4817   5.781   7.272  11.134 -2.2141  0.3627  1.8503
  760MOL0     H 4818   5.870   7.289  11.288 -1.1462 -1.6499  1.9091
  760MOL0     H 4819   6.016   7.091  11.198 -0.1927 -0.2914 -0.7168
  760MOL0     H 4820   5.941   7.141  11.047 -1.0648  1.1294  1.0932
  760MOL0     H 4821   6.094   7.323  11.251 -2.3607  1.2520 -0.3623
  760MOL0     H 4822   6.019   7.374  11.102 -1.7721  0.3145  2.8006
  760MOL0     H 4823   6.165   7.243  10.960  1.1039 -0.6013  0.0349
  760MOL0     H 4824   6.248   7.358  11.053  1.0339 -0.9376 -3.0315
  760MOL0     H 4825   6.246   7.062  11.103 -4.7150  1.1176 -1.0069
  760MOL0     H 4826   6.303   7.176  11.235 -1.4242  3.0880 -1.5146
  760MOL0     H 4827   6.398   7.126  10.944  1.9581 -0.7018 -0.8493
  760MOL0     H 4828   6.489   7.249  11.043  3.3562 -2.7234  2.2925
  760MOL0     H 4829   6.578   7.108  11.295  0.5970 -1.6672  1.2680
  760MOL0     H 4830   6.715   6.758  11.313  1.6881  2.8028 -2.8015
  760MOL0     H 4831   6.579   6.798  11.411  2.2262 -0.6130  2.8499
  760MOL0     H 4832   6.682   7.009  11.496  0.7969  0.8102  0.6387
  760MOL0     H 4833   6.761   6.857  11.541 -4.4632 -2.9311 -0.0477
  760MOL0     H 4834   6.912   6.885  11.339  0.6093  0.6346 -1.5766
  760MOL0     H 4835   6.853   7.055  11.323  3.6420  1.0827 -0.4658
  760MOL0     H 4836   6.999   6.915  11.562  0.1466  0.7595  0.5596
  760MOL0     H 4837   7.063   7.046  11.463  1.3684 -1.8994 -0.3819
  760MOL0     H 4838   6.899   7.342  11.474 -0.9294 -0.6234  1.6122
  760MOL0     H 4839   6.925   7.535  11.386 -0.6230 -1.7290  0.2988
  760MOL0     H 4840   7.090   7.582  11.362 -0.2493 -1.5142 -0.4497
  760MOL0     H 4841   7.003   7.651  11.496  2.1938  1.7673 -3.2219
  760MOL0     H 4842   7.627   7.486  11.709 -2.9577 -0.0440 -1.5850
  760MOL0     H 4843   7.816   7.662  11.791  0.0935 -1.4268 -0.9440
  760MOL0     H 4844   7.622   7.988  11.973 -1.1533 -2.4745  1.7352
  760MOL0     H 4845   7.738   7.924  12.069  0.3758 -1.5989 -0.0951
  760MOL0     H 4846   7.801   8.145  11.874  0.7520 -1.8821  0.2615
  760MOL0     H 4847   7.739   8.184  12.039  0.7173  1.3853 -0.1744
  760MOL0     H 4848   8.021   8.066  11.995  1.6221  1.6592 -1.3154
  760MOL0     H 4849   7.934   8.090  12.150  2.1666 -4.3738 -1.0304
  760MOL0     H 4850   7.912   8.334  12.087 -1.7360 -2.2208  2.2791
  760MOL0     H 4851   7.962   8.296  11.919 -2.2566  1.1792 -0.0371
  760MOL0     H 4852   8.188   8.229  11.997 -1.1657 -1.4154  0.7120
  760MOL0     H 4853   8.140   8.404  12.016 -2.5617  0.6924  1.1664
  760MOL0     H 4854   8.133   8.184  12.220 -3.0239  0.6366 -2.5991
  760MOL0     H 4855   8.076   8.346  12.250 -0.0091  1.4500 -1.5942
  760MOL0     H 4856   8.312   8.433  12.198  4.4918  0.4072  0.0244
  760MOL0     H 4857   8.369   8.267  12.180  1.3636 -0.9982  3.2763
  760MOL0     H 4858   8.282   8.232  12.428 -1.1248 -0.0398 -1.9638
  760MOL0     H 4859   8.322   8.411  12.425  3.0042  0.3494  2.0441
  760MOL0     H 4860   7.510   7.948  11.831  0.6944 -1.1831  2.6902
  760MOL0     H 4861   7.333   7.780  11.773 -1.4336 -2.1936  1.3359
  760MOL0     H 4862   7.284   7.305  11.766  1.0500  0.0998 -1.4327
  760MOL0     H 4863   7.151   7.130  11.765  0.5044 -0.6888 -0.5696
  760MOL0     H 4864   5.455   7.163  11.536 -2.0189  0.3342  1.9914
  760MOL0     H 4865   5.242   7.193  11.591 -5.6351 -2.3829  1.9663
  760MOL0     H 4866   4.827   6.983  11.730 -3.1626 -0.0248  2.0260
  760MOL0     H 4867   4.598   6.952  11.745 -1.3341  0.3870 -0.3837
  760MOL0     H 4868   4.294   7.254  11.632 -0.4927  0.2078 -0.0902
  760MOL0     H 4869   4.325   7.189  11.470  1.6132  4.5092  0.9924
  760MOL0     H 4870   4.213   6.981  11.525 -1.5325 -1.4904  1.2014
  760MOL0     H 4871   4.115   7.125  11.504  0.6445  1.4960  0.5414
  760MOL0     H 4872   4.182   6.999  11.772 -2.1956 -1.3710  0.8879
  760MOL0     H 4873   4.105   7.156  11.738  3.0788  0.7332  1.7107
  760MOL0     H 4874   3.917   7.060  11.646  1.9882  1.5962 -1.4950
  760MOL0     H 4875   3.948   6.994  11.807  0.0790 -0.5484  0.3068
  760MOL0     H 4876   4.032   6.641  11.604 -1.1066 -0.1738  0.8700
  760MOL0     H 4877   4.533   7.289  11.478  2.0057  0.6232 -2.5839
  760MOL0     H 4878   4.707   7.346  11.327  2.4315  4.9257  0.3311
  760MOL0     H 4879   4.754   7.438  11.472  0.7023  0.1506  0.7486
  760MOL0     H 4880   4.865   7.332  11.378  0.5711 -1.3145 -1.2106
  761MOL0     O 4881   3.074   6.216   4.354 -0.4715 -1.0365  0.0848
  761MOL0     C 4882   3.116   6.315   4.411 -0.3528 -0.2051 -0.6586
  761MOL0     O 4883   3.239   6.376   4.391  0.0748  0.5607  0.5666
  761MOL0     C 4884   3.331   6.318   4.301 -0.2119 -0.0393  0.8980
  761MOL0     C 4885   3.335   6.183   4.247  0.1057  0.5204 -0.2079
  761MOL0     C 4886   3.422   6.157   4.151 -0.2618 -0.7361 -0.1964
  761MOL0     C 4887   3.525   6.246   4.103  0.0074  0.1918 -0.4547
  761MOL0     O 4888   3.618   6.203   4.015  0.0243 -0.3791  0.1055
  761MOL0     C 4889   3.745   6.175   4.073  0.4372 -0.4864  0.0071
  761MOL0     C 4890   3.793   6.033   4.039  0.1105  0.1831 -0.7143
  761MOL0     C 4891   3.946   6.028   4.077  0.3442  0.0050 -0.9072
  761MOL0     C 4892   4.022   5.896   4.049  0.2330 -0.2948  0.6680
  761MOL0     C 4893   4.131   5.853   4.154 -0.1269  0.0795 -0.7725
  761MOL0     C 4894   4.230   5.967   4.156  0.1905  0.0891 -0.1281
  761MOL0     C 4895   4.355   5.951   4.248  0.7288  0.5431 -0.9702
  761MOL0     C 4896   4.434   6.085   4.245 -0.7845 -0.1678  0.0581
  761MOL0     N 4897   4.544   6.060   4.336  0.4482 -0.4733  0.2871
  761MOL0     C 4898   4.650   5.982   4.318  0.0243 -0.2211 -0.2250
  761MOL0     C 4899   4.730   6.004   4.433  0.0803  0.1995  0.1100
  761MOL0     C 4900   4.855   5.931   4.466  0.2134  0.7573 -0.1373
  761MOL0     C 4901   4.833   5.814   4.570  0.7101 -0.1535  0.1171
  761MOL0     C 4902   4.757   5.842   4.698  0.9327 -0.2801 -0.1255
  761MOL0     C 4903   4.815   5.966   4.775 -0.1522  0.2978  0.7917
  761MOL0     O 4904   4.951   5.958   4.808 -0.0906  0.1636 -0.2726
  761MOL0     C 4905   4.972   5.980   4.944 -1.1391 -0.3624 -0.1741
  761MOL0     C 4906   5.028   6.102   4.995  0.1569  0.3972 -0.0497
  761MOL0     C 4907   5.046   6.119   5.133  0.8024 -0.1902  0.0262
  761MOL0     C 4908   5.084   6.263   5.171 -0.4203  0.2646 -1.3519
  761MOL0     C 4909   5.032   6.010   5.226  0.0740 -0.2152  0.3759
  761MOL0     C 4910   5.081   6.014   5.371 -0.4851  0.3391  0.1271
  761MOL0     O 4911   5.010   5.932   5.455  0.0165 -1.1522  0.4173
  761MOL0     C 4912   5.016   5.934   5.597 -0.3975  0.0834 -0.0072
  761MOL0     C 4913   5.096   6.014   5.676  0.1949 -0.3782 -0.1734
  761MOL0     C 4914   5.086   6.003   5.815  0.8554  0.1227 -1.1821
  761MOL0     C 4915   4.993   5.912   5.874 -0.6777  0.4512  0.3736
  761MOL0     O 4916   4.964   5.907   6.003 -0.0556 -0.0973 -0.8226
  761MOL0     C 4917   5.048   5.964   6.102  0.1469 -0.2979 -0.8235
  761MOL0     C 4918   5.021   5.900   6.237 -0.4304  0.6170 -1.2467
  761MOL0     C 4919   5.039   5.746   6.248 -0.6065 -0.0927  0.2520
  761MOL0     C 4920   5.189   5.706   6.220  0.6718  0.7626  0.0107
  761MOL0     C 4921   5.201   5.557   6.262 -0.2662 -0.9073 -0.6342
  761MOL0     C 4922   5.331   5.494   6.213  0.8368  0.1256  0.5606
  761MOL0     C 4923   5.458   5.542   6.270 -0.0478 -1.1903 -0.1808
  761MOL0     C 4924   5.472   5.536   6.429 -0.7723 -0.1513  0.6025
  761MOL0    Cl 4925   5.409   5.692   6.509 -0.1258  0.0592 -0.3115
  761MOL0     C 4926   4.923   5.831   5.791  0.2061 -0.7676  0.0142
  761MOL0     C 4927   4.928   5.840   5.653  0.9127  0.0270  0.1053
  761MOL0     O 4928   5.166   6.090   5.408  0.9609  0.0001  0.3333
  761MOL0     C 4929   4.979   5.888   5.171  0.0745 -0.6764 -0.9035
  761MOL0     C 4930   4.952   5.873   5.036 -0.4515  0.0187  1.2365
  761MOL0     N 4931   4.667   6.095   4.515  0.4756 -0.1910 -0.2721
  761MOL0     N 4932   4.559   6.122   4.457  0.0023  0.6246  0.6889
  761MOL0     C 4933   3.531   6.375   4.159  0.5809 -0.6554 -0.1311
  761MOL0     C 4934   3.431   6.409   4.252  0.3982  0.2628 -0.5282
  761MOL0     C 4935   3.026   6.394   4.503  1.2340  0.7390  0.7125
  761MOL0     C 4936   3.054   6.528   4.533 -0.3061 -0.1273  0.6787
  761MOL0     C 4937   2.975   6.612   4.615  0.2860  0.5368 -0.5130
  761MOL0     C 4938   2.871   6.554   4.691  1.0598  0.3671 -0.1767
  761MOL0     O 4939   2.806   6.613   4.796  0.0869  0.1767 -0.2252
  761MOL0     C 4940   2.887   6.697   4.883  0.1952  0.7074  0.6293
  761MOL0     C 4941   2.828   6.711   5.027 -0.2837  0.2697  0.3180
  761MOL0     C 4942   2.826   6.578   5.117  0.7232 -0.4990  0.8784
  761MOL0     C 4943   2.812   6.600   5.267 -0.6460 -0.6431 -0.1626
  761MOL0     C 4944   2.709   6.693   5.309 -0.2626  0.2708  0.4069
  761MOL0     C 4945   2.627   6.767   5.359  0.6058  0.9722  0.0733
  761MOL0     C 4946   2.849   6.413   4.667 -0.8396 -0.8973  0.9912
  761MOL0     C 4947   2.922   6.334   4.573 -0.5386  0.4001 -0.4245
  761MOL0     C 4948   2.906   6.181   4.581  0.4007  0.8172  0.3702
  761MOL0     H 4949   3.262   6.105   4.265 -1.4047  1.3646 -2.2454
  761MOL0     H 4950   3.427   6.055   4.113 -2.6967 -0.9751 -0.0088
  761MOL0     H 4951   3.745   6.186   4.182  0.9100 -0.0117 -0.0341
  761MOL0     H 4952   3.811   6.253   4.032  2.1090 -0.3616  2.6803
  761MOL0     H 4953   3.743   5.957   4.099 -1.1521  1.3469 -0.2236
  761MOL0     H 4954   3.776   6.029   3.931 -1.1641  1.5266 -0.5927
  761MOL0     H 4955   3.997   6.114   4.031  0.5895  0.0335 -0.5852
  761MOL0     H 4956   3.953   6.046   4.184  1.6984 -1.4625 -0.7267
  761MOL0     H 4957   3.944   5.820   4.034 -0.4985  1.0811 -3.9332
  761MOL0     H 4958   4.077   5.890   3.955 -0.8973 -3.4086  0.0725
  761MOL0     H 4959   4.177   5.755   4.137 -2.9075 -1.2789 -1.0870
  761MOL0     H 4960   4.088   5.842   4.254  0.6453  2.2119 -0.1685
  761MOL0     H 4961   4.256   5.976   4.050 -1.5934  1.7017 -0.4779
  761MOL0     H 4962   4.181   6.058   4.189  0.7684  0.3257  0.1008
  761MOL0     H 4963   4.414   5.863   4.220 -1.8387 -1.6768  0.1209
  761MOL0     H 4964   4.324   5.934   4.351  0.1183  2.9509 -0.6998
  761MOL0     H 4965   4.471   6.114   4.146 -0.3323 -0.6629  0.0814
  761MOL0     H 4966   4.382   6.174   4.282  0.7600  2.5782 -3.7431
  761MOL0     H 4967   4.668   5.913   4.236  0.2494 -2.4180  1.5943
  761MOL0     H 4968   4.938   5.987   4.509  0.9708 -1.3199  1.2868
  761MOL0     H 4969   4.888   5.890   4.370 -0.8694  0.9080 -0.5832
  761MOL0     H 4970   4.759   5.749   4.523  1.0016 -0.8222  0.5725
  761MOL0     H 4971   4.921   5.755   4.599 -0.8705 -1.6866  2.1147
  761MOL0     H 4972   4.654   5.867   4.669  0.7625 -3.7921 -3.2358
  761MOL0     H 4973   4.754   5.749   4.755  1.6950 -1.0620 -1.3112
  761MOL0     H 4974   4.785   6.063   4.734 -3.0317 -1.0593 -0.5876
  761MOL0     H 4975   4.764   5.955   4.872  2.0879 -0.8071  1.9215
  761MOL0     H 4976   5.048   6.189   4.934  0.0124  1.7737  1.7872
  761MOL0     H 4977   5.190   6.265   5.200 -0.7532  1.0952 -0.1089
  761MOL0     H 4978   5.023   6.304   5.251  1.0327  1.1242 -0.6311
  761MOL0     H 4979   5.081   6.330   5.085  0.1267  0.1047 -1.5050
  761MOL0     H 4980   5.157   6.097   5.642  3.6032 -1.6927  2.1772
  761MOL0     H 4981   5.135   6.071   5.885 -1.0137 -0.7130  1.1079
  761MOL0     H 4982   5.154   5.953   6.080  0.2944 -0.3618 -0.1024
  761MOL0     H 4983   5.031   6.070   6.118  0.1695  0.0793 -3.0072
  761MOL0     H 4984   5.071   5.954   6.318 -3.1179  1.8500 -0.2663
  761MOL0     H 4985   4.913   5.905   6.256 -0.1902  0.7050  0.2563
  761MOL0     H 4986   4.963   5.699   6.185 -1.2499 -0.6205  1.3928
  761MOL0     H 4987   5.016   5.725   6.353 -2.4875  1.0491  0.1090
  761MOL0     H 4988   5.253   5.775   6.276 -1.7249  3.6666 -0.5511
  761MOL0     H 4989   5.209   5.714   6.113  0.8269 -1.0357 -0.1303
  761MOL0     H 4990   5.201   5.551   6.371 -0.1132 -0.7415 -0.6245
  761MOL0     H 4991   5.111   5.507   6.225 -1.6199  0.5637  0.4923
  761MOL0     H 4992   5.339   5.469   6.107  0.2315  2.6904 -0.1587
  761MOL0     H 4993   5.320   5.390   6.245  1.5193  0.6459  2.6189
  761MOL0     H 4994   5.464   5.643   6.229  1.2978 -0.3666  1.8706
  761MOL0     H 4995   5.537   5.487   6.219  0.0398 -1.0526 -0.1955
  761MOL0     H 4996   5.576   5.522   6.461 -0.9960 -2.8244  0.4050
  761MOL0     H 4997   5.422   5.443   6.457  3.1816 -3.5793 -2.4379
  761MOL0     H 4998   4.845   5.766   5.830  1.3532 -2.3410 -0.2092
  761MOL0     H 4999   4.863   5.779   5.590 -0.3526  0.8773  0.5486
  761MOL0     H 5000   4.970   5.797   5.230  0.1487  0.0200  0.2169
  761MOL0     H 5001   4.924   5.773   5.006  2.0327 -0.0060 -1.4667
  761MOL0     H 5002   3.596   6.455   4.124 -3.9165  2.5461 -2.0947
  761MOL0     H 5003   3.422   6.511   4.287  2.5286  0.7312 -1.2388
  761MOL0     H 5004   3.136   6.582   4.487 -0.5601  1.4365  1.9863
  761MOL0     H 5005   3.015   6.713   4.622 -1.2946  1.1647 -0.2838
  761MOL0     H 5006   2.981   6.645   4.905 -1.4314 -2.7069  0.2541
  761MOL0     H 5007   2.908   6.793   4.836  0.1463 -0.5637 -2.2448
  761MOL0     H 5008   2.727   6.754   5.022  1.0985  3.8245  0.5633
  761MOL0     H 5009   2.886   6.775   5.094 -0.6079  0.0142  0.8578
  761MOL0     H 5010   2.746   6.511   5.087  1.5265 -2.0133  1.9779
  761MOL0     H 5011   2.924   6.530   5.123 -0.2908 -2.4922  5.1193
  761MOL0     H 5012   2.907   6.633   5.311 -1.6516 -1.1607  2.6115
  761MOL0     H 5013   2.808   6.501   5.313  0.0139  0.2289  1.8980
  761MOL0     H 5014   2.553   6.830   5.405 -0.0991  1.1345 -1.2148
  761MOL0     H 5015   2.779   6.369   4.737 -0.0562 -3.0943  0.4720
  761MOL0     H 5016   2.849   6.149   4.493 -2.4069  1.2454  1.9214
  761MOL0     H 5017   3.004   6.134   4.594 -0.3450 -0.5680  1.2599
  761MOL0     H 5018   2.837   6.163   4.665  0.3883  1.9292  0.6059
  762MOL0     O 5019  10.351   5.205   7.328  0.4342  0.2461  0.4646
  762MOL0     C 5020  10.246   5.146   7.313 -0.7371 -0.7477 -1.2516
  762MOL0     O 5021  10.172   5.128   7.200 -0.2497  0.8422 -0.0802
  762MOL0     C 5022  10.215   5.148   7.072  0.8307  0.2745 -0.6719
  762MOL0     C 5023  10.208   5.271   7.022  0.4832  0.0274  0.8708
  762MOL0     C 5024  10.246   5.308   6.890 -0.5232  0.3100  0.0356
  762MOL0     C 5025  10.293   5.205   6.809 -0.3268  1.0464  0.1148
  762MOL0     O 5026  10.338   5.234   6.687 -0.1763 -0.1008  0.3487
  762MOL0     C 5027  10.423   5.141   6.618 -0.5508  0.0163  0.6579
  762MOL0     C 5028  10.457   5.219   6.493  0.1745 -1.3216  0.6344
  762MOL0     C 5029  10.542   5.139   6.399 -1.0726 -0.0684  0.2062
  762MOL0     C 5030  10.564   5.213   6.258 -0.2763  0.7599 -0.5855
  762MOL0     C 5031  10.654   5.339   6.267 -0.3145 -0.6553  0.2853
  762MOL0     C 5032  10.671   5.405   6.127  0.7882 -0.3562 -0.0115
  762MOL0     C 5033  10.705   5.557   6.131 -0.4685 -0.0225 -0.5275
  762MOL0     C 5034  10.846   5.582   6.199 -1.0658  0.0408 -0.3072
  762MOL0     N 5035  10.869   5.723   6.232  0.4399 -0.2017 -0.4029
  762MOL0     C 5036  10.813   5.784   6.341 -0.5060 -0.2281  0.3931
  762MOL0     C 5037  10.870   5.903   6.341  0.0250 -0.1242  0.8874
  762MOL0     C 5038  10.881   6.010   6.441 -0.1524  0.7325  1.2531
  762MOL0     C 5039  10.978   5.978   6.548 -0.4546  0.1918 -0.7093
  762MOL0     C 5040  10.989   6.090   6.667 -0.0551  0.0010  0.0610
  762MOL0     C 5041  11.079   6.044   6.785  0.3384 -0.1966 -0.5060
  762MOL0     O 5042  11.049   5.916   6.839 -0.4085  0.4719  0.5809
  762MOL0     C 5043  11.123   5.893   6.949 -0.2392  0.5463 -0.4812
  762MOL0     C 5044  11.099   5.936   7.088  0.7282  0.8416  0.6060
  762MOL0     C 5045  11.173   5.901   7.200  0.1348 -0.4544  0.3012
  762MOL0     C 5046  11.146   5.934   7.353 -0.1275 -0.2160  0.7917
  762MOL0     C 5047  11.288   5.827   7.167 -0.0659  0.0125  0.2349
  762MOL0     C 5048  11.385   5.793   7.268 -0.9291  0.0625  0.1886
  762MOL0     O 5049  11.426   5.668   7.285  0.0394  0.5156 -0.1620
  762MOL0     C 5050  11.376   5.555   7.219  0.0631 -0.3299  0.8436
  762MOL0     C 5051  11.476   5.459   7.195 -1.0639  0.4538  0.0226
  762MOL0     C 5052  11.456   5.338   7.143 -0.0275 -0.1296 -0.9981
  762MOL0     C 5053  11.330   5.299   7.108 -0.0936 -0.1875 -0.1515
  762MOL0     O 5054  11.296   5.173   7.065 -0.7566 -0.3597  0.1940
  762MOL0     C 5055  11.359   5.074   7.140  0.1731 -0.4842 -0.2639
  762MOL0     C 5056  11.307   4.932   7.112 -0.6360  0.3508 -0.2503
  762MOL0     C 5057  11.307   4.885   6.968 -0.4602  0.2591  0.0742
  762MOL0     C 5058  11.436   4.912   6.888 -0.5359 -0.6012 -0.9928
  762MOL0     C 5059  11.417   4.884   6.739  0.0104  0.2262  0.1675
  762MOL0     C 5060  11.380   4.727   6.722 -0.5630 -0.2047  0.3330
  762MOL0     C 5061  11.362   4.695   6.576  0.6495 -0.7462  0.3996
  762MOL0     C 5062  11.424   4.558   6.543  0.5742 -1.2593 -0.3814
  762MOL0    Cl 5063  11.375   4.489   6.390 -0.1007 -0.1141 -0.6905
  762MOL0     C 5064  11.221   5.389   7.115  1.3412 -0.0914  0.0718
  762MOL0     C 5065  11.250   5.522   7.166  0.1232  0.2873 -0.3117
  762MOL0     O 5066  11.442   5.895   7.319  0.0801  0.1769  0.3740
  762MOL0     C 5067  11.319   5.780   7.034  0.4079 -0.0639  0.5890
  762MOL0     C 5068  11.235   5.809   6.928 -0.1053 -0.6385 -0.5975
  762MOL0     N 5069  10.954   5.922   6.233 -1.0861  0.4321 -0.4426
  762MOL0     N 5070  10.954   5.810   6.174 -1.0087 -0.8679  0.1671
  762MOL0     C 5071  10.307   5.079   6.864 -0.4651 -0.0622 -0.2497
  762MOL0     C 5072  10.259   5.047   6.988 -0.6333  0.0437 -0.2149
  762MOL0     C 5073  10.210   5.069   7.436 -0.1864 -0.0338 -0.6745
  762MOL0     C 5074  10.076   5.086   7.487 -0.1708 -0.1699  0.0156
  762MOL0     C 5075  10.047   5.030   7.610 -0.1572 -0.5798 -0.0980
  762MOL0     C 5076  10.136   4.956   7.680 -0.5221 -0.5108  0.1998
  762MOL0     O 5077  10.119   4.916   7.807  0.2526  0.4413  0.0804
  762MOL0     C 5078   9.986   4.932   7.858 -0.2399 -0.7437  0.9104
  762MOL0     C 5079   9.974   4.868   7.991 -0.2117 -0.0180  0.1677
  762MOL0     C 5080  10.065   4.912   8.105 -0.2108 -0.5924  0.2670
  762MOL0     C 5081  10.068   4.797   8.208  0.5211 -0.3111 -0.1729
  762MOL0     C 5082  10.167   4.838   8.315  0.9292  0.3955  0.4148
  762MOL0     C 5083  10.215   4.894   8.407  0.4962  0.8925 -1.3221
  762MOL0     C 5084  10.263   4.937   7.629  0.2387  0.1914 -0.9849
  762MOL0     C 5085  10.300   4.982   7.505 -0.2574 -0.2191  0.1806
  762MOL0     C 5086  10.429   4.927   7.444 -0.4165  0.8034 -0.1203
  762MOL0     H 5087  10.156   5.358   7.061 -2.5561 -1.0004 -0.5773
  762MOL0     H 5088  10.243   5.406   6.842  0.3333  0.4032  0.1633
  762MOL0     H 5089  10.362   5.051   6.604 -4.9739  2.6349  0.8730
  762MOL0     H 5090  10.517   5.116   6.667 -0.9884 -3.2803  0.0304
  762MOL0     H 5091  10.369   5.256   6.441  0.2223 -1.4287  0.4776
  762MOL0     H 5092  10.508   5.308   6.531 -2.0565 -0.1307  1.0132
  762MOL0     H 5093  10.642   5.118   6.437 -0.5369 -3.8248 -2.6875
  762MOL0     H 5094  10.500   5.039   6.388  3.3185 -2.4173  2.3912
  762MOL0     H 5095  10.611   5.134   6.198  2.5336 -1.5647  4.0604
  762MOL0     H 5096  10.473   5.236   6.203 -0.4679 -0.4328 -0.7901
  762MOL0     H 5097  10.754   5.320   6.308  1.5196 -0.2097 -3.5414
  762MOL0     H 5098  10.604   5.408   6.336  2.0963 -0.2191  1.7319
  762MOL0     H 5099  10.742   5.347   6.068  0.5725  0.6216 -1.2996
  762MOL0     H 5100  10.577   5.385   6.076  1.2784  1.0110 -1.5647
  762MOL0     H 5101  10.632   5.606   6.195 -2.3344 -2.2185 -0.8655
  762MOL0     H 5102  10.707   5.598   6.029  2.7627 -0.6193 -0.8262
  762MOL0     H 5103  10.852   5.518   6.288 -0.6431 -5.0119 -3.5875
  762MOL0     H 5104  10.935   5.556   6.141 -1.4048  0.5996 -1.0971
  762MOL0     H 5105  10.753   5.743   6.422  1.2106  1.0759  2.4332
  762MOL0     H 5106  10.779   6.017   6.480 -1.1682  1.2897 -1.2933
  762MOL0     H 5107  10.894   6.111   6.401 -3.2188  1.3051  1.4238
  762MOL0     H 5108  10.941   5.885   6.591 -0.5231 -2.2299 -5.3652
  762MOL0     H 5109  11.079   5.958   6.509 -0.3984 -1.7862  0.3248
  762MOL0     H 5110  11.042   6.177   6.626 -0.9225 -0.1082 -1.3795
  762MOL0     H 5111  10.889   6.120   6.697 -1.0653 -0.8228 -2.1941
  762MOL0     H 5112  11.183   6.046   6.753  0.9208  4.1775  1.0789
  762MOL0     H 5113  11.062   6.129   6.852 -0.3788  0.5671 -1.6400
  762MOL0     H 5114  11.018   6.004   7.110  0.7615  0.7508  1.0138
  762MOL0     H 5115  11.217   6.014   7.374 -0.0273 -0.7348  2.5951
  762MOL0     H 5116  11.180   5.861   7.426 -1.2319  0.1574  1.7089
  762MOL0     H 5117  11.040   5.961   7.368  0.5401  1.8163  2.3065
  762MOL0     H 5118  11.578   5.485   7.222 -1.3147  3.9239 -1.7592
  762MOL0     H 5119  11.540   5.274   7.115 -1.1499 -1.9585 -0.3779
  762MOL0     H 5120  11.467   5.087   7.135 -0.0380  0.9264 -1.9073
  762MOL0     H 5121  11.326   5.101   7.241  0.6533  2.4054 -0.8062
  762MOL0     H 5122  11.374   4.867   7.170  1.6445  2.4184 -0.3947
  762MOL0     H 5123  11.203   4.923   7.144 -0.1570  0.9891  1.6420
  762MOL0     H 5124  11.227   4.943   6.921 -0.9661 -0.7806 -0.3726
  762MOL0     H 5125  11.282   4.779   6.976  2.1579 -0.3549  1.4656
  762MOL0     H 5126  11.527   4.855   6.914  0.5273  0.6564 -1.8397
  762MOL0     H 5127  11.461   5.018   6.897  0.4590 -0.8363 -0.8526
  762MOL0     H 5128  11.334   4.943   6.699 -0.5078 -0.6871 -0.1289
  762MOL0     H 5129  11.506   4.911   6.682  0.4600 -0.3133  0.6089
  762MOL0     H 5130  11.300   4.690   6.786 -0.2055 -3.1239 -0.7366
  762MOL0     H 5131  11.470   4.679   6.763 -0.3071  1.0507  1.2909
  762MOL0     H 5132  11.412   4.770   6.515  0.3025 -0.6700  0.2049
  762MOL0     H 5133  11.256   4.701   6.550 -0.4123 -2.0019  3.8787
  762MOL0     H 5134  11.399   4.489   6.623 -0.7652  2.8690  3.1461
  762MOL0     H 5135  11.532   4.571   6.540  0.4799  0.7649  2.0875
  762MOL0     H 5136  11.118   5.370   7.088  1.2125 -1.4610  1.3972
  762MOL0     H 5137  11.167   5.590   7.177 -0.6890 -1.0583  2.8045
  762MOL0     H 5138  11.405   5.719   7.009  2.0036  3.0279 -2.2333
  762MOL0     H 5139  11.241   5.766   6.828 -0.0316  1.8058 -1.7166
  762MOL0     H 5140  10.368   5.005   6.813 -0.0027  0.7070 -0.8442
  762MOL0     H 5141  10.282   4.951   7.034  1.0318  2.1642  3.9476
  762MOL0     H 5142  10.020   5.158   7.428  4.0743  2.7908 -0.8442
  762MOL0     H 5143   9.946   5.052   7.644  0.0051  1.5886 -0.8424
  762MOL0     H 5144   9.946   5.034   7.853  2.2349  0.2341 -0.3812
  762MOL0     H 5145   9.923   4.884   7.783  0.8354  3.1455 -2.8592
  762MOL0     H 5146  10.012   4.769   7.968  4.2088  2.0666 -2.9271
  762MOL0     H 5147   9.870   4.875   8.024  0.9348  0.2361  4.2540
  762MOL0     H 5148  10.162   4.936   8.061 -0.1881  1.8079  1.4605
  762MOL0     H 5149  10.031   5.008   8.145  0.5203 -0.8240  1.5017
  762MOL0     H 5150  10.110   4.713   8.153 -2.6441 -1.5043 -1.0032
  762MOL0     H 5151   9.970   4.781   8.254  0.1109  1.6657 -0.2478
  762MOL0     H 5152  10.267   4.936   8.491 -1.5909  0.0763  0.4772
  762MOL0     H 5153  10.334   4.876   7.684  1.0249  1.6263 -0.3570
  762MOL0     H 5154  10.511   4.995   7.469 -0.3517  0.7359 -0.1532
  762MOL0     H 5155  10.449   4.830   7.489 -4.1099  0.6196  1.4463
  762MOL0     H 5156  10.410   4.915   7.337 -3.9232  1.9844  0.2476
  763MOL0     O 5157   2.471   8.644   3.553  0.6143  0.7935  0.0238
  763MOL0     C 5158   2.355   8.683   3.592 -0.0563  0.1158 -0.1494
  763MOL0     O 5159   2.305   8.673   3.722 -0.4633 -0.4045  0.0204
  763MOL0     C 5160   2.398   8.632   3.817  0.3532  0.7728  0.6498
  763MOL0     C 5161   2.423   8.494   3.832  0.0303 -0.2954 -0.7602
  763MOL0     C 5162   2.507   8.452   3.931 -0.2414 -0.6274  0.7408
  763MOL0     C 5163   2.586   8.538   4.006 -0.6020  0.1399  0.3950
  763MOL0     O 5164   2.685   8.492   4.087 -0.7095 -0.1226 -0.7250
  763MOL0     C 5165   2.739   8.573   4.196 -0.2709  0.2416  0.4167
  763MOL0     C 5166   2.872   8.499   4.257 -0.1632 -0.7177  0.0757
  763MOL0     C 5167   2.978   8.479   4.142  0.5651 -0.0946 -0.5546
  763MOL0     C 5168   3.128   8.471   4.193  0.1479 -0.1718 -0.1544
  763MOL0     C 5169   3.221   8.445   4.081 -0.3470 -0.0702 -0.0122
  763MOL0     C 5170   3.368   8.423   4.126  0.7145 -0.1073 -0.5940
  763MOL0     C 5171   3.435   8.555   4.190 -0.3500  0.0672 -0.3730
  763MOL0     C 5172   3.408   8.685   4.116  0.4486  0.0767  0.8016
  763MOL0     N 5173   3.470   8.803   4.179 -0.3836  0.6303 -0.0359
  763MOL0     C 5174   3.408   8.901   4.251  0.6571 -0.5054  0.7466
  763MOL0     C 5175   3.497   9.003   4.250 -0.2816  0.2205  1.0205
  763MOL0     C 5176   3.489   9.146   4.285 -0.6244 -0.4593  0.8887
  763MOL0     C 5177   3.404   9.192   4.401 -0.8655 -0.5251  0.3867
  763MOL0     C 5178   3.256   9.207   4.388  0.1262  0.1847 -0.4342
  763MOL0     C 5179   3.190   9.225   4.529  1.0597 -0.8961  0.1542
  763MOL0     O 5180   3.208   9.356   4.577 -0.1422 -0.6855  0.3311
  763MOL0     C 5181   3.195   9.394   4.709  0.1642 -0.1509 -0.2841
  763MOL0     C 5182   3.132   9.319   4.811  1.1968  0.0064 -0.3091
  763MOL0     C 5183   3.109   9.383   4.937 -0.8016 -0.8219 -0.3538
  763MOL0     C 5184   3.057   9.278   5.036  0.0033  0.2248  0.4254
  763MOL0     C 5185   3.136   9.516   4.965 -1.0441  0.0769 -0.9260
  763MOL0     C 5186   3.123   9.590   5.087  0.3202 -0.3616 -0.5899
  763MOL0     O 5187   3.027   9.549   5.183  0.2533 -0.2194 -0.6512
  763MOL0     C 5188   3.037   9.584   5.317  0.5459  0.2899  0.4618
  763MOL0     C 5189   3.032   9.485   5.397 -0.6371  1.2393  0.3986
  763MOL0     C 5190   3.022   9.508   5.534  0.3485 -0.6195 -0.2948
  763MOL0     C 5191   3.028   9.638   5.586  0.0232  0.6560  0.8501
  763MOL0     O 5192   3.027   9.652   5.726  0.0427  0.3628 -0.6239
  763MOL0     C 5193   3.019   9.785   5.774  0.2983  0.6006 -0.0975
  763MOL0     C 5194   3.025   9.780   5.926  0.1091  0.4969  0.0342
  763MOL0     C 5195   2.899   9.711   5.980  0.0912 -0.4748 -0.0395
  763MOL0     C 5196   2.883   9.716   6.138 -0.9082  1.0323 -0.2749
  763MOL0     C 5197   3.008   9.659   6.206 -0.1092 -0.2071  0.1338
  763MOL0     C 5198   3.041   9.522   6.178  0.0542 -0.3118  0.0505
  763MOL0     C 5199   3.160   9.470   6.255 -0.1958  0.7553  0.1793
  763MOL0     C 5200   3.231   9.344   6.187 -0.2817 -0.2012 -0.2988
  763MOL0    Cl 5201   3.331   9.261   6.310  0.2227  0.0215  0.4383
  763MOL0     C 5202   3.039   9.757   5.499 -0.5337 -0.3254 -0.1435
  763MOL0     C 5203   3.046   9.722   5.358  0.0073 -0.0996 -0.1929
  763MOL0     O 5204   3.210   9.678   5.106 -0.5817  0.6271  0.0162
  763MOL0     C 5205   3.191   9.590   4.853 -0.4142 -0.0379  0.0496
  763MOL0     C 5206   3.219   9.533   4.728  0.8414 -0.5742 -0.2026
  763MOL0     N 5207   3.622   8.960   4.197  1.0039 -0.6164  0.1703
  763MOL0     N 5208   3.595   8.845   4.146 -0.5105  0.1290  0.2530
  763MOL0     C 5209   2.575   8.676   3.989  0.8297  0.0269 -0.6221
  763MOL0     C 5210   2.477   8.719   3.896 -0.2153  0.4379 -0.2258
  763MOL0     C 5211   2.284   8.762   3.505 -0.0056  0.6345 -0.0829
  763MOL0     C 5212   2.340   8.877   3.449  0.1696  0.5270 -0.6182
  763MOL0     C 5213   2.264   8.957   3.358  0.2144 -0.2389 -0.6865
  763MOL0     C 5214   2.131   8.920   3.317 -0.1335  0.0088 -0.2160
  763MOL0     O 5215   2.080   8.998   3.217  0.6186  0.5331 -0.2570
  763MOL0     C 5216   1.942   8.999   3.180 -1.1270  0.2936 -0.5670
  763MOL0     C 5217   1.844   9.057   3.274 -0.0126 -0.1116 -0.1232
  763MOL0     C 5218   1.863   9.209   3.295 -0.0282  0.3250  0.2377
  763MOL0     C 5219   1.780   9.267   3.399 -0.4672 -0.6146  0.2072
  763MOL0     C 5220   1.822   9.412   3.432  0.3747 -0.0786 -0.4224
  763MOL0     C 5221   1.863   9.523   3.466 -0.8356 -0.4971 -0.8255
  763MOL0     C 5222   2.079   8.803   3.374  0.1225  0.5020  0.0418
  763MOL0     C 5223   2.153   8.724   3.464  0.6017  0.4946 -0.1827
  763MOL0     C 5224   2.092   8.582   3.492 -0.9511 -0.2302 -0.4413
  763MOL0     H 5225   2.355   8.423   3.784  0.7662 -2.1147  0.7538
  763MOL0     H 5226   2.533   8.347   3.938 -2.1519 -1.0955  1.4063
  763MOL0     H 5227   2.665   8.573   4.276 -0.7500  0.1018 -0.0182
  763MOL0     H 5228   2.776   8.670   4.163  2.4029 -1.2336 -1.2895
  763MOL0     H 5229   2.920   8.562   4.333 -3.4720  0.2723  1.5715
  763MOL0     H 5230   2.837   8.406   4.302 -1.0123 -0.8840 -0.8966
  763MOL0     H 5231   2.948   8.378   4.113  1.5760 -0.8076  0.7721
  763MOL0     H 5232   2.960   8.550   4.061 -0.6908 -1.5174 -1.5861
  763MOL0     H 5233   3.144   8.568   4.241  0.0966 -0.0340 -0.4143
  763MOL0     H 5234   3.136   8.406   4.281  1.3107  0.2565  0.0623
  763MOL0     H 5235   3.213   8.527   4.010  4.3268  0.4642 -0.2451
  763MOL0     H 5236   3.199   8.360   4.015  3.1821 -1.5035  0.4227
  763MOL0     H 5237   3.369   8.343   4.201 -2.9587 -0.9460 -1.2419
  763MOL0     H 5238   3.434   8.400   4.042  1.5910  0.0053  0.0449
  763MOL0     H 5239   3.542   8.533   4.191 -0.8444 -2.6752  0.0396
  763MOL0     H 5240   3.393   8.570   4.290 -0.9310  2.6755 -0.9453
  763MOL0     H 5241   3.459   8.697   4.020 -0.6919  0.5083  0.2307
  763MOL0     H 5242   3.300   8.697   4.102  0.4990  1.5039  1.3796
  763MOL0     H 5243   3.300   8.907   4.263  0.4948 -3.0244  1.0467
  763MOL0     H 5244   3.455   9.203   4.198  0.3593 -1.5696 -0.2581
  763MOL0     H 5245   3.589   9.187   4.304 -0.0279 -1.6696  0.4352
  763MOL0     H 5246   3.431   9.124   4.482  1.2115 -0.8207 -0.4852
  763MOL0     H 5247   3.441   9.291   4.431  0.2158 -0.9728  0.5961
  763MOL0     H 5248   3.220   9.279   4.314 -0.7613 -1.1104 -1.2928
  763MOL0     H 5249   3.216   9.112   4.353 -1.2362  0.2009  0.9470
  763MOL0     H 5250   3.081   9.213   4.522  0.5217  1.0626  3.2838
  763MOL0     H 5251   3.216   9.146   4.600 -0.9687 -1.2400  0.5845
  763MOL0     H 5252   3.108   9.215   4.795 -1.6025  0.2548  1.6357
  763MOL0     H 5253   3.135   9.274   5.113  1.5257 -0.9010 -1.1133
  763MOL0     H 5254   3.058   9.178   4.992 -0.6413 -0.2349  1.4111
  763MOL0     H 5255   2.958   9.314   5.065 -1.2267 -2.6712  0.1093
  763MOL0     H 5256   3.029   9.382   5.364  1.6281  1.6483 -1.2737
  763MOL0     H 5257   3.034   9.426   5.604 -1.1340  0.5974  1.4888
  763MOL0     H 5258   3.115   9.822   5.735  1.6685 -1.6656  0.8722
  763MOL0     H 5259   2.928   9.828   5.733  0.0899 -1.6939 -2.3130
  763MOL0     H 5260   3.112   9.719   5.952  0.5258  1.0339 -0.0621
  763MOL0     H 5261   3.026   9.884   5.960 -5.4835  1.0925 -0.6739
  763MOL0     H 5262   2.900   9.610   5.938  1.5204 -0.3434 -0.3746
  763MOL0     H 5263   2.812   9.770   5.949  0.7702  0.4806 -0.1637
  763MOL0     H 5264   2.801   9.648   6.160  1.0555 -1.3228  0.2834
  763MOL0     H 5265   2.867   9.818   6.174  0.1809  1.0831  0.1260
  763MOL0     H 5266   3.096   9.718   6.179  1.9064 -2.3574  1.5990
  763MOL0     H 5267   2.987   9.666   6.313 -2.7179  2.1962 -0.4399
  763MOL0     H 5268   3.077   9.526   6.075  1.5444  1.1711  0.5855
  763MOL0     H 5269   2.947   9.466   6.181 -0.1905  0.1441  1.3286
  763MOL0     H 5270   3.136   9.428   6.354  1.0082 -2.4840 -0.7583
  763MOL0     H 5271   3.230   9.552   6.269  2.4858 -1.0312 -1.7993
  763MOL0     H 5272   3.290   9.378   6.101  1.4180  2.5942  1.7881
  763MOL0     H 5273   3.148   9.282   6.152 -1.5005  2.3252 -2.1708
  763MOL0     H 5274   3.042   9.861   5.530 -2.0819  0.3983 -2.1497
  763MOL0     H 5275   3.044   9.798   5.280 -1.6749  1.9308  1.6665
  763MOL0     H 5276   3.221   9.694   4.856  0.7050 -0.3624  0.5251
  763MOL0     H 5277   3.242   9.597   4.643  2.5367  1.9910  2.0041
  763MOL0     H 5278   2.636   8.753   4.037 -3.5557  2.0494  2.3965
  763MOL0     H 5279   2.447   8.820   3.870 -1.0460  0.4585  0.7171
  763MOL0     H 5280   2.442   8.907   3.469  0.5320 -0.4261 -0.9670
  763MOL0     H 5281   2.309   9.053   3.335 -0.8320  0.3016 -0.5390
  763MOL0     H 5282   1.932   9.046   3.082  2.0202  1.7432 -0.3101
  763MOL0     H 5283   1.912   8.898   3.150 -1.6041 -0.5499  2.3714
  763MOL0     H 5284   1.847   9.011   3.374 -0.6709  1.4390  0.6495
  763MOL0     H 5285   1.747   9.032   3.230  1.0557 -2.8122 -1.1474
  763MOL0     H 5286   1.966   9.231   3.323  0.8524  0.4404 -2.7409
  763MOL0     H 5287   1.845   9.256   3.198  1.7970  0.5002 -0.0488
  763MOL0     H 5288   1.795   9.208   3.490  0.5695 -0.6796  0.0151
  763MOL0     H 5289   1.675   9.275   3.371  0.1049  3.7833 -1.5643
  763MOL0     H 5290   1.912   9.617   3.485  0.0358 -1.0977 -0.0455
  763MOL0     H 5291   1.977   8.775   3.350  0.1379  0.4657  0.0196
  763MOL0     H 5292   2.133   8.499   3.434 -0.8636  0.2515 -1.0859
  763MOL0     H 5293   2.104   8.550   3.595 -1.1110  3.9555  1.0529
  763MOL0     H 5294   1.985   8.589   3.470 -2.2762 -2.1529  4.2993
  764MOL0     O 5295   4.926  11.145  10.842  0.3053 -0.1522  0.3897
  764MOL0     C 5296   4.873  11.180  10.941  0.7041  0.0374  0.1754
  764MOL0     O 5297   4.837  11.311  10.966 -0.8748 -0.0603  0.0646
  764MOL0     C 5298   4.826  11.399  10.861 -0.2902  0.8014  0.1344
  764MOL0     C 5299   4.884  11.530  10.871  0.4086  0.5337  0.3281
  764MOL0     C 5300   4.892  11.615  10.763 -0.7317  1.1585  0.9868
  764MOL0     C 5301   4.825  11.583  10.653  0.2485  0.7675 -0.7484
  764MOL0     O 5302   4.843  11.668  10.543  0.6278  0.3375 -0.1120
  764MOL0     C 5303   4.948  11.627  10.456 -0.6700  0.7435 -0.6780
  764MOL0     C 5304   5.087  11.661  10.506 -0.4211  0.1155 -0.3320
  764MOL0     C 5305   5.205  11.645  10.414 -0.3770  0.2454  0.4028
  764MOL0     C 5306   5.186  11.740  10.291 -0.3683  0.3436 -0.4078
  764MOL0     C 5307   5.297  11.720  10.189  0.3606 -0.2975 -0.1422
  764MOL0     C 5308   5.276  11.838  10.090  0.8345  0.3970  0.0199
  764MOL0     C 5309   5.404  11.843  10.009  0.0774  0.3972  0.4218
  764MOL0     C 5310   5.404  11.953   9.898 -0.2369 -0.3377 -1.1632
  764MOL0     N 5311   5.405  11.912   9.760 -1.2643 -0.0411  0.3933
  764MOL0     C 5312   5.293  11.922   9.677  0.0820  0.0894 -0.8891
  764MOL0     C 5313   5.341  11.891   9.552 -0.2179 -0.6478 -0.3029
  764MOL0     C 5314   5.262  11.920   9.423  0.9286 -0.0319  1.0626
  764MOL0     C 5315   5.200  11.773   9.376  0.1934 -0.5176 -0.0857
  764MOL0     C 5316   5.314  11.674   9.346  0.0566 -0.9552  0.3921
  764MOL0     C 5317   5.262  11.557   9.250  0.0818  0.4331  0.0045
  764MOL0     O 5318   5.153  11.485   9.302  0.6014 -0.5125  0.0730
  764MOL0     C 5319   5.028  11.522   9.254 -0.1194 -0.8430 -1.6977
  764MOL0     C 5320   4.941  11.545   9.358  0.3941 -0.2367 -0.8467
  764MOL0     C 5321   4.807  11.566   9.326  0.2890 -0.0475 -1.1031
  764MOL0     C 5322   4.718  11.598   9.443  0.2015  0.5695  1.0950
  764MOL0     C 5323   4.767  11.574   9.199  0.4770 -0.1521  0.5577
  764MOL0     C 5324   4.630  11.612   9.155  0.9108  0.2408  0.7139
  764MOL0     O 5325   4.600  11.572   9.030  0.4345 -0.1669 -0.0337
  764MOL0     C 5326   4.466  11.542   9.005 -0.7598 -0.9357  0.0776
  764MOL0     C 5327   4.371  11.480   9.097 -1.2955 -0.7991 -0.2169
  764MOL0     C 5328   4.251  11.418   9.054 -0.3587  1.3532  0.2009
  764MOL0     C 5329   4.217  11.413   8.915 -0.4004  0.1516  0.3937
  764MOL0     O 5330   4.107  11.348   8.860  0.4694 -0.5754  0.0322
  764MOL0     C 5331   4.034  11.260   8.938 -0.5021  0.8349 -0.7365
  764MOL0     C 5332   3.907  11.227   8.869  0.5617  0.2155  0.3446
  764MOL0     C 5333   3.948  11.136   8.750  0.7462 -0.5378  0.8231
  764MOL0     C 5334   3.829  11.136   8.649 -1.4461 -0.8898  0.3703
  764MOL0     C 5335   3.869  11.061   8.524 -0.3510  0.6869 -0.2381
  764MOL0     C 5336   3.964  11.142   8.433 -0.3000  0.2992  0.8367
  764MOL0     C 5337   3.945  11.087   8.289 -0.4955 -0.5247  0.3879
  764MOL0     C 5338   4.014  10.954   8.258 -0.2844 -1.0924 -0.6527
  764MOL0    Cl 5339   3.946  10.898   8.108 -0.2193  0.2218  0.1097
  764MOL0     C 5340   4.303  11.489   8.831  0.3834  0.4472 -0.2764
  764MOL0     C 5341   4.432  11.539   8.871  0.6129 -0.4493 -0.9120
  764MOL0     O 5342   4.557  11.680   9.222 -0.0162 -0.4080 -0.3632
  764MOL0     C 5343   4.857  11.554   9.090  0.2972  0.2007  0.0589
  764MOL0     C 5344   4.986  11.523   9.124 -0.9394 -0.2041  0.4904
  764MOL0     N 5345   5.481  11.874   9.559 -0.8998 -0.4525  0.5741
  764MOL0     N 5346   5.508  11.861   9.682  0.8728  0.4308  0.0985
  764MOL0     C 5347   4.761  11.461  10.639 -0.0805 -0.1672 -0.5166
  764MOL0     C 5348   4.752  11.375  10.745  0.3114 -0.1268  0.2185
  764MOL0     C 5349   4.870  11.097  11.060  0.3760  0.3160  0.3895
  764MOL0     C 5350   4.896  11.162  11.182 -0.2647  0.7130  0.1567
  764MOL0     C 5351   4.929  11.083  11.287  0.6502 -0.1661  0.2875
  764MOL0     C 5352   4.918  10.937  11.290 -0.4035  0.0144  0.0567
  764MOL0     O 5353   4.908  10.856  11.403  0.4066 -0.8847  0.3243
  764MOL0     C 5354   4.949  10.916  11.525  0.0016  0.5733 -0.2632
  764MOL0     C 5355   4.962  10.805  11.624  0.7528 -0.1392  0.3833
  764MOL0     C 5356   5.062  10.694  11.572 -0.2269 -0.8473  0.3978
  764MOL0     C 5357   5.133  10.635  11.693 -0.7760 -0.0192  0.4685
  764MOL0     C 5358   5.195  10.503  11.658  0.2602  0.4987 -0.2127
  764MOL0     C 5359   5.262  10.405  11.632 -0.5370  0.0712 -1.1557
  764MOL0     C 5360   4.876  10.874  11.169 -0.2504 -0.4561 -0.2980
  764MOL0     C 5361   4.860  10.949  11.050  1.2391 -0.5705 -0.9393
  764MOL0     C 5362   4.825  10.876  10.922  0.0885 -0.4563 -0.9023
  764MOL0     H 5363   4.924  11.552  10.969 -2.0799 -0.1656  1.5974
  764MOL0     H 5364   4.938  11.713  10.759 -2.3264  1.9364  0.6985
  764MOL0     H 5365   4.942  11.669  10.355 -0.0784 -0.8249 -1.3930
  764MOL0     H 5366   4.955  11.519  10.442 -2.7020  0.2956  1.2980
  764MOL0     H 5367   5.092  11.767  10.532  0.6798 -0.1494  0.6032
  764MOL0     H 5368   5.111  11.604  10.596  2.1723  0.3977 -0.7699
  764MOL0     H 5369   5.296  11.681  10.464 -1.3201 -0.2504  2.5678
  764MOL0     H 5370   5.225  11.539  10.392 -1.9547 -0.4008  1.8497
  764MOL0     H 5371   5.095  11.721  10.234  0.6226  0.2780 -2.0135
  764MOL0     H 5372   5.183  11.844  10.324  0.6937  0.9414 -2.0761
  764MOL0     H 5373   5.286  11.622  10.141 -3.4890  0.0614 -0.3313
  764MOL0     H 5374   5.392  11.734  10.242  0.4105  2.0900 -0.7628
  764MOL0     H 5375   5.186  11.825  10.029 -0.4400 -1.3715  2.1355
  764MOL0     H 5376   5.262  11.935  10.139 -0.7112  0.4004 -0.3928
  764MOL0     H 5377   5.417  11.741   9.970 -1.3336  0.2403  0.3318
  764MOL0     H 5378   5.495  11.853  10.069  0.5105 -1.8700  0.2312
  764MOL0     H 5379   5.311  12.011   9.908  0.1745  0.3197 -1.0894
  764MOL0     H 5380   5.478  12.031   9.916  0.9842 -2.0877  2.3380
  764MOL0     H 5381   5.191  11.953   9.698 -0.1293 -0.6294 -0.7995
  764MOL0     H 5382   5.320  11.961   9.340 -0.2870 -4.5592 -2.4476
  764MOL0     H 5383   5.184  11.994   9.444 -0.2745 -1.5313  2.1005
  764MOL0     H 5384   5.124  11.748   9.450 -1.3595  2.8178 -0.3574
  764MOL0     H 5385   5.146  11.792   9.283 -0.0352  0.2624  0.1973
  764MOL0     H 5386   5.400  11.726   9.303 -0.7571 -0.0205 -0.1325
  764MOL0     H 5387   5.347  11.636   9.443  0.8321  3.8608  2.2839
  764MOL0     H 5388   5.238  11.603   9.154 -0.9666 -3.7923 -1.9841
  764MOL0     H 5389   5.343  11.486   9.232  0.1462  0.4009  0.4164
  764MOL0     H 5390   4.983  11.530   9.457  1.6485 -0.3642 -1.3709
  764MOL0     H 5391   4.781  11.586   9.531 -2.6013  0.4203  3.2318
  764MOL0     H 5392   4.630  11.532   9.447  0.5362  0.1648  2.0355
  764MOL0     H 5393   4.692  11.704   9.447  1.5035  1.1956 -2.8000
  764MOL0     H 5394   4.396  11.480   9.203  3.1977 -0.9890 -1.0747
  764MOL0     H 5395   4.177  11.369   9.117 -0.0348 -1.5074 -1.4540
  764MOL0     H 5396   4.079  11.163   8.963 -1.6799  0.1682 -1.1213
  764MOL0     H 5397   3.992  11.298   9.032 -0.7468  0.2423 -0.6049
  764MOL0     H 5398   3.830  11.176   8.927 -0.6162  1.8347  0.2803
  764MOL0     H 5399   3.870  11.320   8.824  1.3586 -1.7166 -5.0455
  764MOL0     H 5400   3.957  11.030   8.774 -3.5880 -2.3602 -3.8606
  764MOL0     H 5401   4.043  11.172   8.710  0.5593  0.9213  1.6342
  764MOL0     H 5402   3.794  11.237   8.626  4.2194  1.8197  1.8071
  764MOL0     H 5403   3.749  11.083   8.701  0.8143 -1.0379  4.1225
  764MOL0     H 5404   3.896  10.957   8.541 -2.7540  0.4424  3.0136
  764MOL0     H 5405   3.771  11.046   8.477 -2.5356  1.5274  3.6416
  764MOL0     H 5406   4.067  11.136   8.468 -0.1884  0.6549  0.5820
  764MOL0     H 5407   3.940  11.249   8.427 -0.1469  0.2535 -1.9525
  764MOL0     H 5408   3.977  11.152   8.208  1.4703 -0.5694  1.0823
  764MOL0     H 5409   3.839  11.063   8.272 -0.9681  1.8790 -0.4427
  764MOL0     H 5410   3.993  10.884   8.340  1.1647 -1.4984 -0.6045
  764MOL0     H 5411   4.121  10.971   8.250 -0.3264 -1.6232 -2.7356
  764MOL0     H 5412   4.276  11.501   8.727 -2.2020 -0.9815  0.1501
  764MOL0     H 5413   4.503  11.590   8.807  1.1339  0.9530  0.6897
  764MOL0     H 5414   4.831  11.560   8.985  0.7798 -1.4755 -0.1878
  764MOL0     H 5415   5.058  11.506   9.044 -0.8048  1.8877  0.1042
  764MOL0     H 5416   4.708  11.440  10.547 -1.9001 -2.9115  0.9909
  764MOL0     H 5417   4.693  11.284  10.743  4.0425 -2.8263  0.2928
  764MOL0     H 5418   4.903  11.270  11.184  1.6109  0.6553 -0.7721
  764MOL0     H 5419   4.954  11.132  11.380 -1.6820 -1.4063  1.6565
  764MOL0     H 5420   5.050  10.956  11.512 -0.9355  3.4811  0.5252
  764MOL0     H 5421   4.876  10.990  11.560 -2.9387 -1.6444 -1.3153
  764MOL0     H 5422   4.861  10.764  11.634  0.8068 -0.0219  1.4629
  764MOL0     H 5423   4.999  10.850  11.716 -2.9897  2.4604  0.8409
  764MOL0     H 5424   5.009  10.623  11.509  0.4179 -1.8143  0.9291
  764MOL0     H 5425   5.131  10.751  11.509 -1.4933  2.0153  1.4257
  764MOL0     H 5426   5.053  10.623  11.767 -0.6225  0.9769  0.8084
  764MOL0     H 5427   5.210  10.702  11.733  1.0520 -1.1939 -0.8802
  764MOL0     H 5428   5.331  10.329  11.602  1.5459  1.8053 -1.0631
  764MOL0     H 5429   4.840  10.771  11.171 -1.1260 -0.1558  0.3682
  764MOL0     H 5430   4.919  10.846  10.873  1.9758  4.2398 -0.6835
  764MOL0     H 5431   4.762  10.791  10.950  2.3435 -1.8774  0.1303
  764MOL0     H 5432   4.768  10.940  10.853  0.0419 -0.0369 -0.4759
  765MOL0     O 5433   4.821   8.850   1.564 -0.2040 -0.7560  0.7337
  765MOL0     C 5434   4.887   8.903   1.469  0.5409 -0.7987  1.5388
  765MOL0     O 5435   4.834   8.927   1.347  0.0538  0.4544  0.6656
  765MOL0     C 5436   4.714   8.878   1.304  0.0267 -0.3803 -1.7188
  765MOL0     C 5437   4.646   8.967   1.223  0.4442 -0.1467  0.1283
  765MOL0     C 5438   4.530   8.928   1.152 -0.6025 -0.0951  0.0577
  765MOL0     C 5439   4.467   8.805   1.169 -0.1447 -0.8424  0.1467
  765MOL0     O 5440   4.369   8.777   1.076 -0.5258  0.3192  0.1282
  765MOL0     C 5441   4.263   8.683   1.106 -0.2857  0.7502 -0.4615
  765MOL0     C 5442   4.179   8.715   1.235  0.1036  0.7465  1.2487
  765MOL0     C 5443   4.080   8.603   1.268 -0.3339 -0.9358  0.3062
  765MOL0     C 5444   3.983   8.563   1.157 -0.6641  0.3506  0.8644
  765MOL0     C 5445   3.872   8.470   1.197 -0.2958 -0.7686 -0.0137
  765MOL0     C 5446   3.733   8.509   1.140 -0.5900  0.2389  0.7070
  765MOL0     C 5447   3.620   8.420   1.173 -0.0583 -0.2466  0.8673
  765MOL0     C 5448   3.577   8.422   1.328 -0.1214 -1.0442 -0.0590
  765MOL0     N 5449   3.438   8.378   1.348  0.5378  0.2309  0.2992
  765MOL0     C 5450   3.385   8.254   1.352  0.6025 -0.4430  0.3609
  765MOL0     C 5451   3.261   8.276   1.389  1.3574 -0.3911 -0.3311
  765MOL0     C 5452   3.170   8.163   1.427  0.1161 -0.8758 -0.1661
  765MOL0     C 5453   3.134   8.063   1.306 -0.1165 -0.0014  0.7005
  765MOL0     C 5454   3.070   8.139   1.186 -0.5408 -0.2859  0.3817
  765MOL0     C 5455   2.938   8.212   1.226  0.9174 -0.4765  0.7368
  765MOL0     O 5456   2.858   8.232   1.101 -0.2412 -0.4312 -0.1004
  765MOL0     C 5457   2.743   8.300   1.099  0.9365  0.3097 -0.4396
  765MOL0     C 5458   2.641   8.253   1.020  1.0356 -0.3791  0.1803
  765MOL0     C 5459   2.504   8.298   1.025 -0.5434  0.7611  0.4702
  765MOL0     C 5460   2.410   8.254   0.918 -0.2753 -0.2838  0.0631
  765MOL0     C 5461   2.466   8.393   1.129 -0.2358 -0.0885  1.0516
  765MOL0     C 5462   2.332   8.462   1.154 -0.5927  0.9231 -0.1852
  765MOL0     O 5463   2.297   8.516   1.278 -0.5717  0.1482  0.1265
  765MOL0     C 5464   2.178   8.579   1.293 -0.1064  0.5795 -0.4968
  765MOL0     C 5465   2.190   8.695   1.371  0.1662 -0.2374  0.0491
  765MOL0     C 5466   2.075   8.771   1.400 -0.4495  0.1610  0.3064
  765MOL0     C 5467   1.953   8.718   1.375 -0.0828  0.1334 -0.5202
  765MOL0     O 5468   1.832   8.783   1.395 -0.0041  0.1597 -0.1056
  765MOL0     C 5469   1.825   8.907   1.465 -0.6417 -0.0142 -0.0597
  765MOL0     C 5470   1.682   8.947   1.450 -0.1299  1.6962  0.6565
  765MOL0     C 5471   1.663   9.094   1.519 -0.3201 -0.0838  0.3648
  765MOL0     C 5472   1.519   9.137   1.509  0.0889  0.6013  0.7171
  765MOL0     C 5473   1.494   9.258   1.594  0.4076 -0.4124  0.8483
  765MOL0     C 5474   1.339   9.305   1.582 -1.0633 -0.2581  0.0225
  765MOL0     C 5475   1.326   9.439   1.652 -0.5486 -0.0748  0.2298
  765MOL0     C 5476   1.177   9.472   1.693  0.6044 -0.7071 -0.2328
  765MOL0    Cl 5477   1.096   9.478   1.541  0.3793  0.3428  0.4069
  765MOL0     C 5478   1.939   8.600   1.304 -0.0514 -0.2813  0.1877
  765MOL0     C 5479   2.053   8.529   1.262  0.1820 -0.2561 -0.9102
  765MOL0     O 5480   2.267   8.474   1.052 -0.2490 -0.0727  0.8633
  765MOL0     C 5481   2.566   8.431   1.221 -0.8300 -0.2297  0.8190
  765MOL0     C 5482   2.697   8.387   1.202  0.0706 -0.2924 -0.3418
  765MOL0     N 5483   3.240   8.407   1.398 -0.2636  0.2052  1.5872
  765MOL0     N 5484   3.347   8.467   1.381 -0.3387 -0.4552  0.8073
  765MOL0     C 5485   4.526   8.725   1.268 -0.7238  0.3497 -0.4082
  765MOL0     C 5486   4.646   8.753   1.331  0.1763 -0.9519 -0.3719
  765MOL0     C 5487   5.029   8.956   1.489  0.0798 -0.0942  0.5170
  765MOL0     C 5488   5.085   9.026   1.381 -0.3537 -0.3688 -0.9280
  765MOL0     C 5489   5.218   9.060   1.397 -0.6306  0.6172 -0.1239
  765MOL0     C 5490   5.296   9.037   1.506 -0.2369  0.3737 -0.0933
  765MOL0     O 5491   5.423   9.074   1.534 -0.1944  0.6523  0.6756
  765MOL0     C 5492   5.489   9.163   1.448  0.1023 -0.8789 -0.2087
  765MOL0     C 5493   5.636   9.169   1.474 -0.1436 -0.0610  0.5556
  765MOL0     C 5494   5.708   9.263   1.384 -0.1733 -0.5456  1.9055
  765MOL0     C 5495   5.860   9.284   1.416 -0.3591 -0.1259  0.7483
  765MOL0     C 5496   5.956   9.167   1.406  0.4193 -0.6020 -0.0265
  765MOL0     C 5497   6.012   9.065   1.369  0.2224 -1.0818  0.5756
  765MOL0     C 5498   5.234   8.972   1.611  0.1250 -0.9558  0.1305
  765MOL0     C 5499   5.103   8.933   1.604  0.6892 -0.6798 -0.4530
  765MOL0     C 5500   5.067   8.845   1.716 -0.3069  0.3249 -0.1615
  765MOL0     H 5501   4.690   9.063   1.198 -0.7879  0.2806 -0.4787
  765MOL0     H 5502   4.503   8.991   1.067  0.5870 -1.9667 -1.7845
  765MOL0     H 5503   4.317   8.588   1.110  0.4779  0.9784 -3.2420
  765MOL0     H 5504   4.200   8.667   1.018  0.9323  2.6661 -1.7722
  765MOL0     H 5505   4.246   8.732   1.320  1.3336  1.7414  0.1134
  765MOL0     H 5506   4.128   8.810   1.218  1.0083  0.7130 -2.2168
  765MOL0     H 5507   4.129   8.505   1.279 -3.3051 -2.3413  2.7754
  765MOL0     H 5508   4.021   8.621   1.358 -1.5524  0.8612 -0.7893
  765MOL0     H 5509   3.934   8.658   1.133 -1.9715 -0.5928 -0.4001
  765MOL0     H 5510   4.050   8.525   1.079  0.1339 -0.0104  1.7136
  765MOL0     H 5511   3.854   8.455   1.304 -0.6660 -1.5094 -0.1755
  765MOL0     H 5512   3.896   8.367   1.170 -1.3721 -0.6122 -1.7543
  765MOL0     H 5513   3.698   8.608   1.171  0.3633  0.9431 -0.4374
  765MOL0     H 5514   3.741   8.512   1.031 -2.9037 -3.1346  0.2612
  765MOL0     H 5515   3.630   8.320   1.130 -0.0824  0.3908 -0.6535
  765MOL0     H 5516   3.536   8.472   1.126  0.2221  2.6921  3.2852
  765MOL0     H 5517   3.640   8.355   1.388  2.0283  0.9863  0.1303
  765MOL0     H 5518   3.586   8.524   1.368 -1.6383 -1.4850  1.5410
  765MOL0     H 5519   3.434   8.157   1.346  2.4623  0.4982 -0.5458
  765MOL0     H 5520   3.080   8.213   1.464  1.8036  1.5664  0.9599
  765MOL0     H 5521   3.223   8.107   1.505  0.8248  2.3042  1.8274
  765MOL0     H 5522   3.220   8.019   1.255 -0.6973  0.5541 -0.8448
  765MOL0     H 5523   3.074   7.976   1.332 -2.8230  1.2792 -0.8391
  765MOL0     H 5524   3.133   8.210   1.132 -2.1326  1.2095  0.3849
  765MOL0     H 5525   3.043   8.061   1.113  2.1646  0.9000 -2.1117
  765MOL0     H 5526   2.877   8.158   1.299  0.3844 -0.1511  0.5438
  765MOL0     H 5527   2.971   8.307   1.269  0.8499  2.0345 -4.0610
  765MOL0     H 5528   2.675   8.175   0.953  2.3151  0.3784 -0.0668
  765MOL0     H 5529   2.346   8.186   0.975  0.4307 -1.9518 -1.0590
  765MOL0     H 5530   2.462   8.198   0.840  0.7656 -0.4166  0.8293
  765MOL0     H 5531   2.357   8.339   0.872  0.9976  2.9415  3.9739
  765MOL0     H 5532   2.289   8.727   1.400 -0.1469 -0.9136  1.9681
  765MOL0     H 5533   2.086   8.866   1.450 -3.4426  1.0672 -0.5821
  765MOL0     H 5534   1.849   8.901   1.572 -0.6272 -0.8350 -0.0983
  765MOL0     H 5535   1.892   8.979   1.419  1.2148 -0.9602  1.0382
  765MOL0     H 5536   1.649   8.947   1.346  0.5995  1.4118  0.4224
  765MOL0     H 5537   1.616   8.869   1.489  1.4061 -2.5315 -4.0956
  765MOL0     H 5538   1.742   9.154   1.473  0.9007 -2.2187 -0.4803
  765MOL0     H 5539   1.686   9.086   1.626  1.2796 -0.7292  0.0041
  765MOL0     H 5540   1.445   9.069   1.552 -0.3508 -0.8218 -2.0829
  765MOL0     H 5541   1.479   9.161   1.410 -3.6007  0.0977  1.9428
  765MOL0     H 5542   1.524   9.230   1.695  1.7994 -0.0516  0.5579
  765MOL0     H 5543   1.564   9.337   1.565  0.6821 -0.6838  0.7702
  765MOL0     H 5544   1.285   9.225   1.635  0.3163 -0.2790  1.4629
  765MOL0     H 5545   1.302   9.308   1.479  2.1079  1.0899 -1.1749
  765MOL0     H 5546   1.358   9.519   1.584 -0.2063  0.9159  1.5206
  765MOL0     H 5547   1.372   9.440   1.751 -2.4578  3.2219  1.2406
  765MOL0     H 5548   1.161   9.570   1.738 -2.3091  0.0345 -2.6052
  765MOL0     H 5549   1.128   9.395   1.752 -3.7553  2.8944  1.4111
  765MOL0     H 5550   1.837   8.571   1.284 -1.6997  3.5845  1.7779
  765MOL0     H 5551   2.041   8.430   1.219  0.1760  0.2260 -2.0449
  765MOL0     H 5552   2.559   8.499   1.306 -0.8311  1.3123 -0.3735
  765MOL0     H 5553   2.774   8.414   1.274 -3.3037  1.3832  3.0004
  765MOL0     H 5554   4.496   8.621   1.277 -0.8798  0.5628  2.9597
  765MOL0     H 5555   4.690   8.681   1.399 -1.4012 -4.4619 -2.7750
  765MOL0     H 5556   5.040   9.052   1.286 -0.9581 -0.5725 -0.7052
  765MOL0     H 5557   5.266   9.117   1.319 -1.7979 -0.2394 -1.5134
  765MOL0     H 5558   5.473   9.141   1.342  0.9046  2.3900 -1.1343
  765MOL0     H 5559   5.441   9.259   1.467 -0.1993 -1.1085  0.2178
  765MOL0     H 5560   5.680   9.070   1.465 -0.1928 -0.4919  3.9517
  765MOL0     H 5561   5.669   9.213   1.569 -1.1210  2.6055 -0.2405
  765MOL0     H 5562   5.705   9.233   1.279 -0.9896 -2.7469  2.5097
  765MOL0     H 5563   5.656   9.357   1.403  0.4087 -0.6399  4.4349
  765MOL0     H 5564   5.861   9.312   1.522  1.4211  0.5512  0.5938
  765MOL0     H 5565   5.884   9.372   1.356 -0.3669  0.6834  1.9028
  765MOL0     H 5566   6.050   8.978   1.319  1.6989 -1.0266  1.5154
  765MOL0     H 5567   5.291   8.965   1.703  1.1820  0.7745 -0.3568
  765MOL0     H 5568   5.147   8.834   1.789 -0.0423 -0.7598 -0.5943
  765MOL0     H 5569   4.982   8.881   1.775 -0.2640 -0.4012  0.3442
  765MOL0     H 5570   5.053   8.742   1.683  2.1296 -0.5266  1.2492
  766MOL0     O 5571   6.941   6.206  11.110 -0.2587 -0.2799 -0.0840
  766MOL0     C 5572   6.855   6.141  11.052  1.1537  0.6435 -0.3939
  766MOL0     O 5573   6.770   6.057  11.112  0.5872 -1.2577 -0.0484
  766MOL0     C 5574   6.717   6.080  11.238 -0.3654 -0.2092  0.2433
  766MOL0     C 5575   6.801   6.051  11.345  1.4946  0.6775 -0.2750
  766MOL0     C 5576   6.753   6.040  11.475  0.8469 -0.8735 -0.5957
  766MOL0     C 5577   6.615   6.058  11.499  0.0472  0.3840  0.0445
  766MOL0     O 5578   6.575   6.045  11.634 -0.4663 -0.4207 -0.4357
  766MOL0     C 5579   6.443   5.994  11.673 -0.6500  0.1045  0.7264
  766MOL0     C 5580   6.446   5.928  11.813  0.7505 -0.7607 -0.4389
  766MOL0     C 5581   6.512   5.787  11.817 -0.1089  0.0688 -0.0992
  766MOL0     C 5582   6.402   5.685  11.766  0.9492 -0.1878  0.0851
  766MOL0     C 5583   6.446   5.533  11.798  0.5919  0.1074 -0.2458
  766MOL0     C 5584   6.573   5.487  11.721  0.4137 -0.6002  0.1292
  766MOL0     C 5585   6.569   5.514  11.564 -0.7308 -1.2380 -0.2523
  766MOL0     C 5586   6.696   5.442  11.500  0.8364  0.5264 -0.6125
  766MOL0     N 5587   6.672   5.301  11.465  0.7082  0.5490 -0.1326
  766MOL0     C 5588   6.582   5.254  11.371 -0.0122 -0.6753 -0.3249
  766MOL0     C 5589   6.613   5.119  11.373  0.4250 -0.6652  0.6389
  766MOL0     C 5590   6.533   5.025  11.298 -0.3119  0.6287  0.6142
  766MOL0     C 5591   6.411   4.958  11.371  0.3376  0.1561  0.3024
  766MOL0     C 5592   6.439   4.830  11.440 -0.0156  0.2729 -0.0080
  766MOL0     C 5593   6.436   4.713  11.340 -0.4728  0.0395  0.2531
  766MOL0     O 5594   6.528   4.623  11.405 -0.0817 -0.8634  0.3685
  766MOL0     C 5595   6.506   4.483  11.383  0.3051 -0.4514  0.0559
  766MOL0     C 5596   6.484   4.402  11.498  0.0626  0.6011  0.8290
  766MOL0     C 5597   6.488   4.267  11.478 -0.3061 -0.0404  0.5331
  766MOL0     C 5598   6.466   4.175  11.608  0.2105  0.3552 -0.0548
  766MOL0     C 5599   6.503   4.210  11.350  0.4972  0.6576 -0.5350
  766MOL0     C 5600   6.492   4.068  11.317 -0.7148 -0.0105  0.2710
  766MOL0     O 5601   6.445   4.039  11.193 -0.4829  0.0552  0.6554
  766MOL0     C 5602   6.441   3.913  11.149 -0.5584 -0.4836  0.2740
  766MOL0     C 5603   6.339   3.825  11.195  0.4723 -0.6063  0.1491
  766MOL0     C 5604   6.325   3.704  11.157  0.8658  0.3617 -0.7092
  766MOL0     C 5605   6.414   3.644  11.069 -0.9260 -0.3930 -0.7256
  766MOL0     O 5606   6.378   3.534  11.006 -0.1550  0.0370 -0.8880
  766MOL0     C 5607   6.283   3.554  10.906  0.7717  0.2563 -0.5791
  766MOL0     C 5608   6.240   3.433  10.834 -0.2758 -0.8692  0.6328
  766MOL0     C 5609   6.148   3.463  10.713 -0.9315  0.9628  0.1760
  766MOL0     C 5610   6.115   3.343  10.625  0.2287  0.7869  0.0012
  766MOL0     C 5611   6.049   3.369  10.484 -0.7173  0.2570 -0.6094
  766MOL0     C 5612   5.907   3.431  10.485 -0.0506 -0.3869  1.2454
  766MOL0     C 5613   5.838   3.470  10.352 -0.7100 -0.2842  0.2938
  766MOL0     C 5614   5.715   3.559  10.357 -0.3933 -0.4855 -0.5232
  766MOL0    Cl 5615   5.679   3.619  10.191  0.2847  0.0792  0.2162
  766MOL0     C 5616   6.515   3.727  11.017 -0.8985 -0.8941 -0.4995
  766MOL0     C 5617   6.539   3.861  11.062  0.3803  0.5097  1.2918
  766MOL0     O 5618   6.524   3.985  11.394 -0.0335 -0.0786 -0.0812
  766MOL0     C 5619   6.505   4.297  11.245 -0.8936  0.1173  0.2687
  766MOL0     C 5620   6.512   4.437  11.256 -0.0955 -0.2787  0.3334
  766MOL0     N 5621   6.722   5.097  11.454 -0.3867 -0.5527  0.4697
  766MOL0     N 5622   6.742   5.201  11.514 -1.2207 -0.0476 -0.0352
  766MOL0     C 5623   6.525   6.074  11.393 -0.1617 -0.3853 -0.9180
  766MOL0     C 5624   6.579   6.098  11.265 -0.1813  0.0065  0.1321
  766MOL0     C 5625   6.829   6.159  10.906  0.2183  0.1921 -0.0514
  766MOL0     C 5626   6.814   6.032  10.840 -0.1664 -1.0347 -0.5017
  766MOL0     C 5627   6.797   6.034  10.700 -0.2449 -0.0060 -0.1628
  766MOL0     C 5628   6.775   6.153  10.629  0.1746  0.8063 -0.6148
  766MOL0     O 5629   6.746   6.173  10.494  0.0813  0.0359  0.1490
  766MOL0     C 5630   6.716   6.060  10.417 -0.2395  0.4205  0.7658
  766MOL0     C 5631   6.732   6.096  10.265  0.6619  1.0736  0.2971
  766MOL0     C 5632   6.690   5.976  10.175  0.0242 -0.1566 -0.6165
  766MOL0     C 5633   6.541   5.957  10.169 -0.2230  0.2131  0.0161
  766MOL0     C 5634   6.500   5.858  10.078 -0.7861 -0.6387 -0.1739
  766MOL0     C 5635   6.476   5.759  10.003  0.0941 -0.4477 -0.3714
  766MOL0     C 5636   6.786   6.270  10.705  0.2724  0.2156 -0.0637
  766MOL0     C 5637   6.814   6.282  10.844  0.8258 -0.0580 -0.1991
  766MOL0     C 5638   6.836   6.416  10.911  1.0826 -0.1732  0.2018
  766MOL0     H 5639   6.905   6.062  11.316  2.3320  1.3326  2.7099
  766MOL0     H 5640   6.818   6.018  11.558 -1.4126 -0.9603  1.2628
  766MOL0     H 5641   6.414   5.919  11.600  1.7405  0.4816 -0.7236
  766MOL0     H 5642   6.368   6.073  11.669  0.7100  1.3949 -2.6515
  766MOL0     H 5643   6.495   5.999  11.880  0.1837 -1.2984  0.5908
  766MOL0     H 5644   6.343   5.919  11.852  0.8470 -0.6938 -0.1641
  766MOL0     H 5645   6.612   5.777  11.773 -0.9308 -0.0590 -2.0466
  766MOL0     H 5646   6.541   5.766  11.920 -2.6270  0.7123  0.8247
  766MOL0     H 5647   6.305   5.706  11.811  0.7240  1.9506 -1.2930
  766MOL0     H 5648   6.384   5.695  11.658 -4.8266 -1.7260  0.5643
  766MOL0     H 5649   6.361   5.478  11.755  0.6647 -0.3835  0.2283
  766MOL0     H 5650   6.450   5.510  11.905 -0.0232 -1.6280 -0.5505
  766MOL0     H 5651   6.658   5.540  11.765  1.5030 -3.1552  1.3413
  766MOL0     H 5652   6.596   5.381  11.737  3.6781 -0.0161  0.1461
  766MOL0     H 5653   6.576   5.618  11.532  1.9620 -1.7520 -1.6500
  766MOL0     H 5654   6.475   5.498  11.509 -1.7056 -0.8135  1.2326
  766MOL0     H 5655   6.729   5.495  11.411  3.2103  0.5988  0.2278
  766MOL0     H 5656   6.773   5.451  11.578 -0.1998  1.5645  0.3264
  766MOL0     H 5657   6.505   5.305  11.315  0.2629 -1.7662 -1.7454
  766MOL0     H 5658   6.608   4.955  11.259 -0.3227  0.4259  0.9517
  766MOL0     H 5659   6.496   5.078  11.210  0.6087 -0.2033 -0.2971
  766MOL0     H 5660   6.375   5.031  11.445  1.4550  0.4762  0.5527
  766MOL0     H 5661   6.339   4.954  11.289  0.7801 -1.0626 -0.0413
  766MOL0     H 5662   6.533   4.842  11.493 -0.2619  1.9133  0.0956
  766MOL0     H 5663   6.352   4.800  11.500 -0.0565 -2.8567 -1.4252
  766MOL0     H 5664   6.338   4.673  11.313  0.2498  0.0331 -2.7755
  766MOL0     H 5665   6.485   4.738  11.245  0.1703  3.7858  1.3765
  766MOL0     H 5666   6.475   4.445  11.597 -3.6757 -1.9345  1.8021
  766MOL0     H 5667   6.363   4.140  11.602  1.0128 -2.5590  1.3952
  766MOL0     H 5668   6.480   4.233  11.700  1.7091 -2.0065  1.3257
  766MOL0     H 5669   6.532   4.088  11.610  1.5349  1.3294  0.6622
  766MOL0     H 5670   6.283   3.869  11.277  4.3161  2.6065  1.3980
  766MOL0     H 5671   6.250   3.635  11.194 -1.1281  2.2657 -0.9343
  766MOL0     H 5672   6.187   3.595  10.940  0.7325  1.4587 -2.0369
  766MOL0     H 5673   6.329   3.626  10.838 -0.5364  3.5646  1.7413
  766MOL0     H 5674   6.327   3.380  10.795 -1.3747 -1.5752 -1.0316
  766MOL0     H 5675   6.192   3.366  10.905 -1.8937  1.4858  1.9004
  766MOL0     H 5676   6.199   3.543  10.660 -0.3743 -0.2877 -1.2431
  766MOL0     H 5677   6.050   3.495  10.750 -1.9342  0.1951 -1.6941
  766MOL0     H 5678   6.057   3.268  10.680  1.8767  0.7631  1.8423
  766MOL0     H 5679   6.207   3.285  10.612 -0.5111 -0.9304  1.7752
  766MOL0     H 5680   6.115   3.429  10.422 -1.7232  2.3412  0.2448
  766MOL0     H 5681   6.037   3.278  10.424  0.0602  0.4924 -1.1302
  766MOL0     H 5682   5.920   3.524  10.541  2.6773 -0.1791  0.4162
  766MOL0     H 5683   5.839   3.361  10.534 -0.3098  0.1225  1.6139
  766MOL0     H 5684   5.808   3.372  10.313 -1.2712  0.5239 -1.3889
  766MOL0     H 5685   5.914   3.526  10.296  0.3367 -1.2730  0.6823
  766MOL0     H 5686   5.723   3.648  10.421  2.8373 -1.4393  0.5853
  766MOL0     H 5687   5.626   3.505  10.392 -2.4737  1.2576 -2.8237
  766MOL0     H 5688   6.573   3.672  10.944 -0.2555  0.3993 -0.9884
  766MOL0     H 5689   6.624   3.920  11.028  1.8443 -1.7366  0.8404
  766MOL0     H 5690   6.506   4.261  11.143  0.3345  3.8148 -1.2209
  766MOL0     H 5691   6.519   4.509  11.175 -2.9519  1.1427  1.2122
  766MOL0     H 5692   6.420   6.095  11.411  0.1409 -0.0168  0.5578
  766MOL0     H 5693   6.504   6.110  11.187  1.9288  0.5128 -1.9207
  766MOL0     H 5694   6.831   5.935  10.884  1.0251 -0.2470  0.8844
  766MOL0     H 5695   6.813   5.937  10.653  1.9754  0.5333 -0.6467
  766MOL0     H 5696   6.789   5.982  10.445  0.7443  1.1371  0.2401
  766MOL0     H 5697   6.614   6.027  10.439  0.3186 -1.6707  0.4791
  766MOL0     H 5698   6.836   6.105  10.233  0.7758 -1.5402 -0.3078
  766MOL0     H 5699   6.685   6.189  10.232  2.1563  1.1650 -1.7332
  766MOL0     H 5700   6.722   5.995  10.072 -1.5489 -0.7968 -1.2533
  766MOL0     H 5701   6.724   5.885  10.225  0.2419  0.6167  0.6997
  766MOL0     H 5702   6.515   6.060  10.141  2.0094  0.0920 -3.1146
  766MOL0     H 5703   6.514   5.943  10.274  0.8665 -0.1838  0.2540
  766MOL0     H 5704   6.437   5.684   9.936  0.2142 -1.9998  1.2256
  766MOL0     H 5705   6.785   6.360  10.645 -0.8141  1.0496  1.1364
  766MOL0     H 5706   6.774   6.493  10.864 -1.2635 -0.4751  2.5999
  766MOL0     H 5707   6.798   6.415  11.013  1.4303 -1.0388  0.3302
  766MOL0     H 5708   6.940   6.451  10.904  0.0249  2.9920 -3.5379
  767MOL0     O 5709   1.967  11.088   2.065  0.0680 -0.7629  0.0382
  767MOL0     C 5710   2.048  11.171   2.030 -0.1258  0.3390 -0.6164
  767MOL0     O 5711   2.028  11.259   1.933  0.4352 -0.2504  0.3670
  767MOL0     C 5712   2.039  11.215   1.803 -0.9480  0.5112  1.2118
  767MOL0     C 5713   1.984  11.301   1.702 -0.2246 -0.0108  0.1595
  767MOL0     C 5714   2.013  11.274   1.568  0.4633 -0.1226 -0.7829
  767MOL0     C 5715   2.102  11.168   1.532 -0.0215 -0.4729  0.1576
  767MOL0     O 5716   2.129  11.137   1.407 -0.1961 -0.3373  0.2019
  767MOL0     C 5717   2.161  11.239   1.320  0.3842  0.1865  1.1848
  767MOL0     C 5718   2.258  11.183   1.206 -0.2524 -1.2026  0.9381
  767MOL0     C 5719   2.183  11.089   1.108  0.0235 -0.7555  0.7017
  767MOL0     C 5720   2.213  11.142   0.961 -0.2889  0.3074 -0.3311
  767MOL0     C 5721   2.208  11.025   0.862  0.0020 -0.2565  0.5823
  767MOL0     C 5722   2.260  11.070   0.718  0.0559  0.3223 -0.6474
  767MOL0     C 5723   2.159  11.153   0.639 -1.0663 -0.8834  0.9486
  767MOL0     C 5724   2.216  11.213   0.510  0.7011 -0.1247 -0.8800
  767MOL0     N 5725   2.271  11.360   0.513  1.2623  0.2168  1.1271
  767MOL0     C 5726   2.208  11.470   0.557 -0.7175  0.4528  0.3429
  767MOL0     C 5727   2.298  11.572   0.537 -0.7789  1.0366  0.1265
  767MOL0     C 5728   2.258  11.717   0.545  0.0305 -0.1662  0.1840
  767MOL0     C 5729   2.264  11.786   0.693  0.9536  0.3579  0.4958
  767MOL0     C 5730   2.402  11.752   0.753 -0.1513 -0.4321  0.2262
  767MOL0     C 5731   2.443  11.815   0.887  0.1408  0.6539 -0.3853
  767MOL0     O 5732   2.474  11.949   0.873  0.3228 -0.5703 -0.0720
  767MOL0     C 5733   2.382  12.046   0.926  0.2963 -0.3569  0.1650
  767MOL0     C 5734   2.290  12.020   1.031  0.2409 -0.2079 -0.7465
  767MOL0     C 5735   2.187  12.113   1.074 -0.8090 -0.2530  0.1146
  767MOL0     C 5736   2.079  12.064   1.178  0.5726  0.4894  0.1333
  767MOL0     C 5737   2.187  12.240   1.018 -0.6424 -0.1704  0.7636
  767MOL0     C 5738   2.089  12.341   1.070  1.4572 -0.2599 -0.0071
  767MOL0     O 5739   2.016  12.411   0.980  0.3382  0.0685  0.4283
  767MOL0     C 5740   1.918  12.506   1.023 -0.6191  0.2941  1.3272
  767MOL0     C 5741   1.854  12.583   0.920 -0.4626 -0.9789 -0.0018
  767MOL0     C 5742   1.749  12.671   0.947  0.0308 -0.5872  0.6061
  767MOL0     C 5743   1.712  12.696   1.079  0.1307 -0.3241  0.4249
  767MOL0     O 5744   1.606  12.782   1.119 -0.6433 -0.3345  0.5337
  767MOL0     C 5745   1.581  12.894   1.030  0.6481 -1.0325  0.0534
  767MOL0     C 5746   1.478  12.977   1.098 -0.0248  0.5148  0.4121
  767MOL0     C 5747   1.446  13.106   1.024 -0.3783 -0.5004 -0.5504
  767MOL0     C 5748   1.308  13.166   1.062  0.4174  0.8076  0.1875
  767MOL0     C 5749   1.275  13.180   1.212  0.3506 -0.4618  0.4827
  767MOL0     C 5750   1.121  13.212   1.213  0.2320  0.4444  0.3226
  767MOL0     C 5751   1.074  13.222   1.357 -0.5927  0.8488 -0.2736
  767MOL0     C 5752   0.938  13.297   1.368 -0.4047 -0.0136  0.7180
  767MOL0    Cl 5753   0.892  13.314   1.537  0.3063  0.0343 -0.0349
  767MOL0     C 5754   1.772  12.620   1.175 -0.4827 -0.1763  0.4461
  767MOL0     C 5755   1.864  12.527   1.147  0.3255  0.0475 -0.3769
  767MOL0     O 5756   2.103  12.366   1.186 -0.7582 -0.9035  0.6603
  767MOL0     C 5757   2.273  12.267   0.914 -0.3661  0.5852 -0.9386
  767MOL0     C 5758   2.376  12.176   0.870 -0.2184 -0.1538  0.3238
  767MOL0     N 5759   2.421  11.524   0.495 -0.1894 -0.2390 -0.3602
  767MOL0     N 5760   2.400  11.397   0.482  0.2700  0.5650 -0.2875
  767MOL0     C 5761   2.134  11.075   1.631  0.2649 -1.0120  0.9941
  767MOL0     C 5762   2.103  11.096   1.762 -0.3441  0.1284 -0.9496
  767MOL0     C 5763   2.169  11.186   2.123  1.1376 -0.3282 -0.1050
  767MOL0     C 5764   2.268  11.269   2.065 -0.4797  0.3834  0.0310
  767MOL0     C 5765   2.395  11.293   2.128  0.8518  0.1178  0.5426
  767MOL0     C 5766   2.424  11.233   2.255  0.1542 -1.3450  0.2287
  767MOL0     O 5767   2.539  11.242   2.324 -0.8496  0.0011  0.0227
  767MOL0     C 5768   2.639  11.315   2.259  0.0634 -0.8737  0.2613
  767MOL0     C 5769   2.766  11.317   2.343  0.1229 -0.5699  0.0814
  767MOL0     C 5770   2.854  11.195   2.297  0.2803 -1.0484  0.9783
  767MOL0     C 5771   2.899  11.110   2.413 -0.4470 -0.1761  0.0265
  767MOL0     C 5772   2.972  11.180   2.522  0.5620 -0.5733 -0.6224
  767MOL0     C 5773   3.032  11.225   2.621 -0.4987  0.6040 -0.6813
  767MOL0     C 5774   2.320  11.155   2.305 -0.1406  0.2156  0.9439
  767MOL0     C 5775   2.202  11.125   2.245  0.4860  0.0421  0.6960
  767MOL0     C 5776   2.112  11.031   2.323 -0.2571 -0.4556  0.2065
  767MOL0     H 5777   1.930  11.388   1.738  1.1601 -0.2854  3.2160
  767MOL0     H 5778   1.974  11.339   1.490  0.6690 -1.4035 -1.9980
  767MOL0     H 5779   2.216  11.321   1.367  0.0594  0.4578  1.0984
  767MOL0     H 5780   2.069  11.281   1.280  1.8040  0.9940 -1.4465
  767MOL0     H 5781   2.296  11.268   1.148 -1.7862  0.1932  1.8810
  767MOL0     H 5782   2.342  11.132   1.253  0.5290 -0.4130  0.4355
  767MOL0     H 5783   2.220  10.988   1.125  0.4600 -0.6747  0.2336
  767MOL0     H 5784   2.074  11.095   1.105  0.0640  0.8738  1.1511
  767MOL0     H 5785   2.137  11.215   0.933  0.2496  1.4004  0.9644
  767MOL0     H 5786   2.310  11.189   0.943  1.0710 -2.3627 -0.5353
  767MOL0     H 5787   2.107  10.985   0.849  0.2924 -0.4066 -1.5011
  767MOL0     H 5788   2.279  10.953   0.905  0.9808  1.4042  1.8738
  767MOL0     H 5789   2.347  11.133   0.738  0.0393 -0.4841  2.4093
  767MOL0     H 5790   2.291  10.984   0.656 -1.7519 -1.3626  0.6821
  767MOL0     H 5791   2.137  11.247   0.691  0.1021  1.0510 -1.7988
  767MOL0     H 5792   2.068  11.092   0.628 -1.1746 -0.9214  1.9759
  767MOL0     H 5793   2.277  11.138   0.460 -2.2917 -1.0341 -3.5170
  767MOL0     H 5794   2.126  11.224   0.449 -0.1094 -0.2666  0.2527
  767MOL0     H 5795   2.109  11.478   0.600 -0.2215  2.7128  1.1656
  767MOL0     H 5796   2.164  11.736   0.492  0.4127  0.7059 -0.2166
  767MOL0     H 5797   2.335  11.761   0.482  0.5179 -0.9954  0.1959
  767MOL0     H 5798   2.244  11.892   0.683 -1.1028 -0.0157  0.3266
  767MOL0     H 5799   2.192  11.735   0.758  0.8098 -1.5586 -1.0402
  767MOL0     H 5800   2.394  11.643   0.764  0.4631 -0.3652  1.4585
  767MOL0     H 5801   2.469  11.765   0.668 -2.5754 -3.5731 -2.4845
  767MOL0     H 5802   2.356  11.793   0.949  0.1038  2.6191  0.3140
  767MOL0     H 5803   2.522  11.758   0.937  1.8451  3.9688  0.9915
  767MOL0     H 5804   2.295  11.934   1.098 -0.1614  2.6722  3.3200
  767MOL0     H 5805   2.072  11.956   1.163  3.4071  0.5629 -3.1307
  767MOL0     H 5806   1.974  12.092   1.167  0.1595 -0.9087  0.2736
  767MOL0     H 5807   2.131  12.085   1.272 -0.4582 -0.4018  0.9342
  767MOL0     H 5808   1.889  12.589   0.817  0.6089  1.4568  0.4458
  767MOL0     H 5809   1.707  12.732   0.868  0.8422 -0.0531  0.5666
  767MOL0     H 5810   1.670  12.956   1.023 -1.3204  1.8943 -0.7450
  767MOL0     H 5811   1.550  12.864   0.929  0.7713  1.8858 -0.9349
  767MOL0     H 5812   1.384  12.921   1.110  0.5287 -0.8907 -1.3723
  767MOL0     H 5813   1.523  12.995   1.196  1.0991  0.4917 -0.0866
  767MOL0     H 5814   1.455  13.109   0.915  1.6050  3.5641 -0.4752
  767MOL0     H 5815   1.522  13.176   1.060 -2.5259  0.5133  2.4327
  767MOL0     H 5816   1.243  13.093   1.013 -2.4530  0.8394  3.5490
  767MOL0     H 5817   1.297  13.258   1.003 -0.2145  1.0686  0.6932
  767MOL0     H 5818   1.299  13.094   1.276 -2.8304 -0.3482  2.0367
  767MOL0     H 5819   1.331  13.269   1.243  0.0978  0.0675 -0.5476
  767MOL0     H 5820   1.054  13.143   1.160  1.3753 -1.2783  1.0320
  767MOL0     H 5821   1.108  13.307   1.160  0.5279  0.1948 -0.2030
  767MOL0     H 5822   1.148  13.267   1.424 -2.0613  0.2332  1.8629
  767MOL0     H 5823   1.049  13.126   1.402 -1.1165  1.5817  1.0597
  767MOL0     H 5824   0.860  13.236   1.323 -2.5876  0.2068  3.8371
  767MOL0     H 5825   0.948  13.393   1.317 -2.6999 -0.9895 -1.8076
  767MOL0     H 5826   1.742  12.631   1.278  1.8173 -1.0384  1.2717
  767MOL0     H 5827   1.884  12.471   1.238 -0.9472  0.4821  0.1925
  767MOL0     H 5828   2.274  12.364   0.865 -0.3220  1.3414  0.5138
  767MOL0     H 5829   2.438  12.192   0.783 -2.1200  1.6057 -0.7971
  767MOL0     H 5830   2.178  10.982   1.597 -0.5405 -1.6262  1.6045
  767MOL0     H 5831   2.138  11.023   1.833  1.9159  0.8088 -1.2873
  767MOL0     H 5832   2.254  11.326   1.973 -0.8676  0.5533  0.1930
  767MOL0     H 5833   2.453  11.371   2.080  0.4488  0.1506  0.1049
  767MOL0     H 5834   2.668  11.275   2.161 -0.6451 -0.0281 -0.3061
  767MOL0     H 5835   2.604  11.416   2.239 -0.7468 -1.4085 -1.1809
  767MOL0     H 5836   2.752  11.320   2.452 -0.1404 -0.6434  0.0486
  767MOL0     H 5837   2.811  11.413   2.320 -0.7672  0.5198  2.5080
  767MOL0     H 5838   2.807  11.137   2.216  0.0883  1.1156 -0.5538
  767MOL0     H 5839   2.942  11.238   2.250  0.1175 -2.8429 -1.1455
  767MOL0     H 5840   2.981  11.047   2.377 -0.4837 -0.6197  0.6938
  767MOL0     H 5841   2.823  11.053   2.468  1.7152 -3.1666  0.1845
  767MOL0     H 5842   3.089  11.268   2.701  1.9342 -3.4404  0.0180
  767MOL0     H 5843   2.331  11.113   2.405 -2.4716  0.8804  1.5410
  767MOL0     H 5844   2.132  11.009   2.428  0.8859  2.2434  0.6340
  767MOL0     H 5845   2.007  11.062   2.313 -0.7713 -1.8942  0.8356
  767MOL0     H 5846   2.124  10.934   2.274 -0.5438 -0.3295 -0.1200
  768MOL0     O 5847   4.246   9.713  10.409 -0.4913 -0.0761 -0.3138
  768MOL0     C 5848   4.143   9.654  10.372  0.9093  0.9147  0.0887
  768MOL0     O 5849   4.128   9.582  10.252  0.5877 -0.3486 -0.2008
  768MOL0     C 5850   4.212   9.581  10.151 -0.3391  0.6757 -0.7498
  768MOL0     C 5851   4.149   9.522  10.037  0.5348  0.2112  0.2728
  768MOL0     C 5852   4.220   9.520   9.913  1.3215 -0.0890 -0.5417
  768MOL0     C 5853   4.353   9.578   9.905  0.4991  0.7128  0.1449
  768MOL0     O 5854   4.448   9.569   9.807  0.1510  0.9365 -0.6133
  768MOL0     C 5855   4.417   9.516   9.673 -0.0806  0.1977  0.1550
  768MOL0     C 5856   4.536   9.536   9.576  0.3801  0.2012  0.3313
  768MOL0     C 5857   4.508   9.461   9.448 -0.4631 -0.5690  0.1710
  768MOL0     C 5858   4.637   9.458   9.355 -0.1272  0.3599 -0.8878
  768MOL0     C 5859   4.685   9.602   9.309 -1.1277 -0.0364  0.0398
  768MOL0     C 5860   4.820   9.591   9.230  0.0844 -0.2490  0.0849
  768MOL0     C 5861   4.857   9.714   9.145 -0.7987  0.3427 -0.1381
  768MOL0     C 5862   4.978   9.668   9.054 -0.1927 -0.0371  0.1608
  768MOL0     N 5863   5.040   9.779   8.981  0.1488 -1.2743  0.4396
  768MOL0     C 5864   5.156   9.853   8.999  0.4108 -0.4903 -0.6021
  768MOL0     C 5865   5.172   9.943   8.896  0.7711 -0.7237  0.1944
  768MOL0     C 5866   5.289  10.038   8.891  0.1743  0.6285  0.6040
  768MOL0     C 5867   5.285  10.122   8.765  0.5225  0.3460 -0.1375
  768MOL0     C 5868   5.426  10.174   8.732 -0.6694  0.0646 -0.5308
  768MOL0     C 5869   5.423  10.241   8.600  0.5992  0.2346 -0.9941
  768MOL0     O 5870   5.473  10.368   8.616 -0.5808  0.2591 -0.4775
  768MOL0     C 5871   5.566  10.407   8.519 -0.0290 -0.9258  0.4036
  768MOL0     C 5872   5.529  10.421   8.390 -0.2233 -0.3922 -0.4575
  768MOL0     C 5873   5.619  10.481   8.300 -0.7140 -0.0047 -0.2603
  768MOL0     C 5874   5.565  10.510   8.162 -0.0710 -0.0091  0.1971
  768MOL0     C 5875   5.745  10.525   8.334 -0.4939 -0.8032 -0.0712
  768MOL0     C 5876   5.844  10.586   8.248 -0.0026 -0.8374  0.0585
  768MOL0     O 5877   5.966  10.591   8.304 -0.6339 -0.7946  0.4364
  768MOL0     C 5878   6.073  10.666   8.271 -0.3498 -0.2816 -0.2312
  768MOL0     C 5879   6.092  10.744   8.159  0.5229  0.4420 -0.7339
  768MOL0     C 5880   6.191  10.834   8.146 -0.3483 -1.2032 -0.8788
  768MOL0     C 5881   6.281  10.863   8.249 -0.1028 -0.4600  0.6749
  768MOL0     O 5882   6.382  10.964   8.228  0.5394 -0.3358  0.0603
  768MOL0     C 5883   6.465  10.992   8.337 -1.1553 -0.0769 -0.2229
  768MOL0     C 5884   6.598  10.912   8.319  0.3338 -0.0347  0.5009
  768MOL0     C 5885   6.715  10.956   8.398  0.5391 -0.8594  0.8160
  768MOL0     C 5886   6.787  11.081   8.332  0.4315 -0.4512  0.2053
  768MOL0     C 5887   6.912  11.126   8.410  0.9604 -0.0281 -0.2010
  768MOL0     C 5888   7.004  11.183   8.310 -0.8744  0.5262 -0.5873
  768MOL0     C 5889   7.124  11.241   8.388 -0.6108  0.6330 -0.7547
  768MOL0     C 5890   7.218  11.318   8.293 -0.2048  0.3615  0.8314
  768MOL0    Cl 5891   7.315  11.444   8.378  0.2983  0.1913 -0.1554
  768MOL0     C 5892   6.265  10.787   8.366  0.3363  0.0886  0.1791
  768MOL0     C 5893   6.170  10.689   8.376 -0.0437 -0.0110 -0.1135
  768MOL0     O 5894   5.810  10.643   8.145 -0.7829  0.2437  0.3517
  768MOL0     C 5895   5.782  10.493   8.471 -0.8104 -0.3725  1.5205
  768MOL0     C 5896   5.689  10.453   8.562 -0.3047  0.2166 -0.1258
  768MOL0     N 5897   5.053   9.934   8.819 -0.5470  0.6639  0.5478
  768MOL0     N 5898   4.982   9.837   8.868  0.2399  0.1526 -0.3990
  768MOL0     C 5899   4.405   9.627  10.017  0.3379 -0.2990  0.3941
  768MOL0     C 5900   4.337   9.643  10.139  0.1898  0.3701 -0.0104
  768MOL0     C 5901   4.025   9.665  10.468  0.3175  0.3461  0.2546
  768MOL0     C 5902   4.021   9.783  10.551  0.3649  1.0258  0.5088
  768MOL0     C 5903   3.902   9.809  10.630  0.4952  0.4485  0.1077
  768MOL0     C 5904   3.804   9.708  10.644 -0.6615 -0.5622  1.1480
  768MOL0     O 5905   3.699   9.726  10.722 -0.1635  0.8378  0.0753
  768MOL0     C 5906   3.649   9.608  10.789  0.2136  0.1549 -0.1784
  768MOL0     C 5907   3.553   9.650  10.901  0.2793  0.1953  0.4185
  768MOL0     C 5908   3.419   9.659  10.841  0.5238 -0.2070 -0.3366
  768MOL0     C 5909   3.350   9.527  10.809 -0.3672  0.1853 -0.6187
  768MOL0     C 5910   3.221   9.560  10.736 -0.1947 -0.5112 -0.4353
  768MOL0     C 5911   3.110   9.579  10.681 -0.2910 -0.2026 -0.5067
  768MOL0     C 5912   3.814   9.600  10.562  0.5470  0.7788 -0.2232
  768MOL0     C 5913   3.914   9.576  10.476 -1.6301  0.3944  0.7959
  768MOL0     C 5914   3.916   9.446  10.391 -0.7007 -0.5898 -0.5728
  768MOL0     H 5915   4.052   9.474  10.044  0.4062  0.4727  0.3057
  768MOL0     H 5916   4.174   9.472   9.828  2.1066 -1.2424 -0.3403
  768MOL0     H 5917   4.326   9.565   9.639 -0.5224 -0.8087 -0.1623
  768MOL0     H 5918   4.406   9.407   9.672  2.8671 -0.2353 -3.0030
  768MOL0     H 5919   4.546   9.643   9.559  1.3691  0.2224  0.9454
  768MOL0     H 5920   4.628   9.497   9.623  1.9037  2.0733 -0.9360
  768MOL0     H 5921   4.470   9.360   9.460  0.8469 -1.0068  0.8097
  768MOL0     H 5922   4.437   9.515   9.384  1.0639  1.2793 -0.0512
  768MOL0     H 5923   4.718   9.403   9.404  1.1768  1.6488 -1.5356
  768MOL0     H 5924   4.607   9.404   9.265 -3.3738 -0.0491  0.3058
  768MOL0     H 5925   4.707   9.653   9.404 -0.6618 -0.2868  0.0715
  768MOL0     H 5926   4.604   9.658   9.262  0.6502  3.3188  0.6329
  768MOL0     H 5927   4.906   9.570   9.295  2.9050  2.3179 -2.5167
  768MOL0     H 5928   4.805   9.503   9.167  1.0330  0.9027 -1.8402
  768MOL0     H 5929   4.881   9.802   9.205 -1.0597  0.0661  0.3836
  768MOL0     H 5930   4.774   9.740   9.079  0.1685  0.5143 -1.3222
  768MOL0     H 5931   5.058   9.623   9.113  1.9881  0.2094 -2.4099
  768MOL0     H 5932   4.941   9.582   8.996  0.9120 -1.2585  1.1954
  768MOL0     H 5933   5.222   9.841   9.085 -1.4046  1.3985  1.1550
  768MOL0     H 5934   5.385   9.987   8.895 -0.5565 -0.7435  1.5432
  768MOL0     H 5935   5.282  10.106   8.976  2.2958 -1.8267  2.8895
  768MOL0     H 5936   5.246  10.063   8.681  0.5045  2.2332 -1.5245
  768MOL0     H 5937   5.222  10.210   8.781 -0.3241 -0.5748  1.9837
  768MOL0     H 5938   5.463  10.237   8.813  1.4143 -0.0150 -1.3572
  768MOL0     H 5939   5.486  10.084   8.714 -2.1474 -0.7991 -1.2580
  768MOL0     H 5940   5.488  10.186   8.531 -0.3029  0.2133 -1.8516
  768MOL0     H 5941   5.324  10.244   8.554  0.7999  0.3166 -1.4196
  768MOL0     H 5942   5.426  10.391   8.375 -0.8972  1.8786 -0.7466
  768MOL0     H 5943   5.624  10.494   8.071 -1.4348  2.5944 -1.2488
  768MOL0     H 5944   5.551  10.618   8.168  0.3370  0.0727 -0.2445
  768MOL0     H 5945   5.475  10.450   8.148 -0.9846  1.1366  1.0092
  768MOL0     H 5946   6.026  10.729   8.074  0.5304 -1.6836 -0.4259
  768MOL0     H 5947   6.216  10.883   8.053  2.9561 -1.6189 -0.3285
  768MOL0     H 5948   6.490  11.098   8.351 -1.4774 -0.2345  1.8616
  768MOL0     H 5949   6.442  10.957   8.438  2.8540  1.6197  1.5252
  768MOL0     H 5950   6.574  10.807   8.340  0.7499 -0.6958 -1.9839
  768MOL0     H 5951   6.634  10.920   8.217  0.7660  1.8834  0.7668
  768MOL0     H 5952   6.789  10.877   8.412  2.5994  1.1452  1.8165
  768MOL0     H 5953   6.668  10.988   8.491 -1.0209 -0.0165 -0.2002
  768MOL0     H 5954   6.718  11.166   8.341 -1.2586 -1.9929  3.5572
  768MOL0     H 5955   6.799  11.078   8.224 -0.6134 -1.3022  0.1021
  768MOL0     H 5956   6.882  11.210   8.473  0.6210  0.0240 -0.4308
  768MOL0     H 5957   6.953  11.034   8.453 -0.1241 -2.1056 -3.2731
  768MOL0     H 5958   6.965  11.270   8.256  1.4985  2.4115  0.5510
  768MOL0     H 5959   7.041  11.107   8.240  0.8455 -1.0382  1.8380
  768MOL0     H 5960   7.173  11.167   8.450 -0.1113  0.6619 -1.1078
  768MOL0     H 5961   7.080  11.312   8.459 -0.5711 -2.6846  2.9340
  768MOL0     H 5962   7.152  11.365   8.219  0.8097  0.1409 -0.2458
  768MOL0     H 5963   7.280  11.242   8.245 -0.3522 -0.2777  1.6199
  768MOL0     H 5964   6.323  10.797   8.457  1.7043  1.4980 -0.7969
  768MOL0     H 5965   6.179  10.629   8.466  0.4581  1.4744  0.8509
  768MOL0     H 5966   5.885  10.506   8.505 -0.2463  3.4149 -1.0413
  768MOL0     H 5967   5.711  10.425   8.665  3.1036  1.4532 -0.3999
  768MOL0     H 5968   4.500   9.678  10.015  0.2847 -0.1409  1.3503
  768MOL0     H 5969   4.386   9.711  10.209 -0.5867  1.9268 -0.9216
  768MOL0     H 5970   4.092   9.863  10.531  0.3091  1.0013  0.2020
  768MOL0     H 5971   3.899   9.904  10.682  0.8682 -0.7239  2.4117
  768MOL0     H 5972   3.603   9.529  10.729 -0.2416  0.5362 -0.3398
  768MOL0     H 5973   3.736   9.557  10.832  0.7504  0.7173 -0.5933
  768MOL0     H 5974   3.583   9.742  10.951  0.7367 -0.0709  0.6425
  768MOL0     H 5975   3.559   9.570  10.975  1.6288  0.8886  1.0824
  768MOL0     H 5976   3.357   9.722  10.906 -1.0718 -0.3720 -1.6448
  768MOL0     H 5977   3.424   9.716  10.748  1.7330  2.9321  1.4773
  768MOL0     H 5978   3.317   9.483  10.904  2.9752  1.6422  1.4280
  768MOL0     H 5979   3.408   9.454  10.753  0.9180 -1.7730  2.9197
  768MOL0     H 5980   3.004   9.578  10.665 -0.7480 -4.2223  1.4548
  768MOL0     H 5981   3.731   9.531  10.575  1.5541 -0.4319  0.0747
  768MOL0     H 5982   3.923   9.469  10.284 -1.8413  3.1454  0.0245
  768MOL0     H 5983   3.991   9.379  10.434 -1.2915 -0.0586  1.3780
  768MOL0     H 5984   3.821   9.394  10.406 -0.3846 -1.5169 -1.7052
  769MOL0     O 5985  10.075   6.112   1.974 -0.2416 -0.9163 -0.1649
  769MOL0     C 5986   9.984   6.186   2.011 -0.3668 -0.4719  1.3543
  769MOL0     O 5987   9.987   6.318   1.995  0.2328 -0.7316  0.0255
  769MOL0     C 5988  10.098   6.386   1.947  0.1519 -0.0908  0.0012
  769MOL0     C 5989  10.235   6.351   1.942  0.7240  0.7316 -0.1567
  769MOL0     C 5990  10.333   6.428   1.897  0.4798  0.4017 -0.2440
  769MOL0     C 5991  10.315   6.556   1.850 -0.1019 -0.3409  0.6518
  769MOL0     O 5992  10.426   6.628   1.815 -0.3788  0.1911  0.6102
  769MOL0     C 5993  10.416   6.723   1.714  0.6799 -0.8549 -0.6069
  769MOL0     C 5994  10.559   6.771   1.669  0.4305 -0.1901 -0.8975
  769MOL0     C 5995  10.638   6.804   1.799  0.0358  0.7427 -0.1252
  769MOL0     C 5996  10.771   6.872   1.774 -0.3049 -0.3544  0.2202
  769MOL0     C 5997  10.738   7.027   1.766 -0.1055 -0.3351  0.7032
  769MOL0     C 5998  10.875   7.104   1.818  0.4593  0.1799 -0.0988
  769MOL0     C 5999  10.845   7.257   1.831  0.6809  1.0818  0.0281
  769MOL0     C 6000  10.836   7.312   1.685  0.2178 -0.3945  0.7150
  769MOL0     N 6001  10.706   7.308   1.609 -0.8578 -0.3563 -0.9856
  769MOL0     C 6002  10.606   7.379   1.663  0.6913 -0.1671 -0.7709
  769MOL0     C 6003  10.503   7.394   1.577  0.2238  0.7732 -0.3846
  769MOL0     C 6004  10.371   7.460   1.609  0.1882  1.3920  0.4091
  769MOL0     C 6005  10.248   7.377   1.540  0.4230 -0.7329  0.7220
  769MOL0     C 6006  10.101   7.429   1.587 -0.6321  0.3541 -0.4174
  769MOL0     C 6007  10.083   7.581   1.557  0.8397  0.0959 -0.5263
  769MOL0     O 6008  10.092   7.605   1.417  0.2204  0.7602 -0.0673
  769MOL0     C 6009   9.997   7.566   1.330 -0.6666  0.1298 -0.3413
  769MOL0     C 6010  10.045   7.566   1.197  0.2867  0.1103 -0.9144
  769MOL0     C 6011   9.970   7.524   1.091 -0.3940  0.5982  0.7349
  769MOL0     C 6012  10.026   7.539   0.956 -0.3163  0.0747 -0.3555
  769MOL0     C 6013   9.839   7.487   1.120  1.3415 -0.1816  0.0451
  769MOL0     C 6014   9.754   7.426   1.019  0.2884  0.4887  0.3314
  769MOL0     O 6015   9.619   7.453   1.014  1.2302 -0.0627  0.3644
  769MOL0     C 6016   9.537   7.390   0.920 -0.7384 -0.2688 -0.0111
  769MOL0     C 6017   9.490   7.468   0.813 -0.9726 -0.4638  0.2187
  769MOL0     C 6018   9.418   7.418   0.706 -0.1675  0.0134 -0.7571
  769MOL0     C 6019   9.382   7.287   0.715  0.2647 -0.0166 -0.3602
  769MOL0     O 6020   9.287   7.249   0.616 -0.4819  0.2328 -0.3080
  769MOL0     C 6021   9.255   7.114   0.609 -0.6419  1.2750 -0.1457
  769MOL0     C 6022   9.175   7.085   0.483 -0.4096 -0.2717 -0.0933
  769MOL0     C 6023   9.260   7.081   0.352 -0.9252 -0.6994 -0.4834
  769MOL0     C 6024   9.179   7.019   0.240 -0.4836  0.0068 -0.2095
  769MOL0     C 6025   9.259   7.001   0.106  0.2125 -0.4031  0.4953
  769MOL0     C 6026   9.322   6.865   0.072  0.2990 -0.0552 -0.8775
  769MOL0     C 6027   9.383   6.849  -0.061  0.1598 -0.8122  0.0429
  769MOL0     C 6028   9.283   6.803  -0.166  0.2569 -0.5526  0.5853
  769MOL0    Cl 6029   9.371   6.755  -0.313 -0.1117  0.0730 -0.0156
  769MOL0     C 6030   9.420   7.201   0.829 -0.3743  0.0310 -0.0539
  769MOL0     C 6031   9.497   7.256   0.928  0.2006  0.3947 -0.4773
  769MOL0     O 6032   9.814   7.345   0.947 -0.1564 -0.7811  0.2613
  769MOL0     C 6033   9.784   7.497   1.251  0.1998 -0.1532 -0.2538
  769MOL0     C 6034   9.866   7.537   1.358  0.0067  0.5180  0.0625
  769MOL0     N 6035  10.559   7.347   1.454 -0.1217  0.0530 -0.2069
  769MOL0     N 6036  10.679   7.297   1.469 -0.0900 -0.8830  0.1222
  769MOL0     C 6037  10.176   6.601   1.858  0.1377 -0.3618  0.2597
  769MOL0     C 6038  10.075   6.517   1.899  0.6815 -0.5563  0.0106
  769MOL0     C 6039   9.868   6.144   2.082 -0.2084 -0.2035  0.3640
  769MOL0     C 6040   9.749   6.220   2.076  0.1211 -0.0322  0.3529
  769MOL0     C 6041   9.624   6.177   2.132  0.7876  0.1694 -0.1642
  769MOL0     C 6042   9.622   6.056   2.194 -0.0857 -0.8266  1.3914
  769MOL0     O 6043   9.504   6.021   2.252 -0.2954 -0.2473 -0.5749
  769MOL0     C 6044   9.387   6.040   2.170  0.5278 -0.1872  0.1467
  769MOL0     C 6045   9.271   6.087   2.265 -0.6435 -0.3050 -0.6080
  769MOL0     C 6046   9.212   5.993   2.369  0.3543  0.2804  0.2974
  769MOL0     C 6047   9.057   6.024   2.404  0.5510  0.3825  0.7233
  769MOL0     C 6048   9.047   6.152   2.459 -0.8556 -0.4176  0.6617
  769MOL0     C 6049   9.025   6.259   2.515 -1.4567  0.1113  0.1620
  769MOL0     C 6050   9.748   5.989   2.219 -0.1718  0.1341 -0.8989
  769MOL0     C 6051   9.867   6.033   2.162  0.1015  0.7338 -0.8284
  769MOL0     C 6052   9.996   5.950   2.209  0.1939  0.4625 -0.8619
  769MOL0     H 6053  10.273   6.250   1.960 -0.7806 -0.3707 -2.6277
  769MOL0     H 6054  10.436   6.393   1.895  0.7016  0.5226  3.3440
  769MOL0     H 6055  10.356   6.805   1.755  1.8864 -0.6714  0.8641
  769MOL0     H 6056  10.359   6.677   1.632  3.4208  0.1690 -3.2982
  769MOL0     H 6057  10.619   6.691   1.624  1.4541 -1.7635  2.9329
  769MOL0     H 6058  10.544   6.862   1.611 -0.3799  1.8050  2.2560
  769MOL0     H 6059  10.573   6.871   1.855 -2.0336 -0.1877 -1.2750
  769MOL0     H 6060  10.656   6.707   1.847  1.6438 -0.4877 -2.9299
  769MOL0     H 6061  10.839   6.868   1.859  0.2449  4.2085  0.2308
  769MOL0     H 6062  10.820   6.839   1.682 -0.2732 -1.5998  0.6731
  769MOL0     H 6063  10.652   7.063   1.823 -3.0154 -0.9595 -2.8654
  769MOL0     H 6064  10.727   7.038   1.657  2.4925 -1.6224  0.2335
  769MOL0     H 6065  10.898   7.072   1.920 -2.6127  3.1872  1.7621
  769MOL0     H 6066  10.962   7.070   1.761 -0.2546 -0.2669 -0.9554
  769MOL0     H 6067  10.926   7.304   1.887  0.6171  0.1761  0.8987
  769MOL0     H 6068  10.750   7.271   1.883  0.3916 -3.4307  1.1308
  769MOL0     H 6069  10.854   7.420   1.696 -2.9358  0.3507 -0.5299
  769MOL0     H 6070  10.904   7.262   1.616 -1.7803 -1.4000 -0.5908
  769MOL0     H 6071  10.594   7.392   1.770 -2.9776 -1.9623 -0.8284
  769MOL0     H 6072  10.389   7.564   1.583  2.3807  1.3803  1.6695
  769MOL0     H 6073  10.362   7.455   1.718  1.8112 -0.8256  0.5053
  769MOL0     H 6074  10.262   7.400   1.435  1.4228  0.0302  1.0070
  769MOL0     H 6075  10.249   7.269   1.557  1.1087 -0.9591 -0.6391
  769MOL0     H 6076  10.026   7.363   1.542 -2.9487  1.6557  1.3392
  769MOL0     H 6077  10.094   7.415   1.695  1.8464 -3.5922 -0.5738
  769MOL0     H 6078   9.990   7.611   1.605  2.1310 -0.4588  2.6081
  769MOL0     H 6079  10.148   7.640   1.623  0.2289  0.4186 -0.2088
  769MOL0     H 6080  10.149   7.595   1.184 -0.2295  1.9611 -1.2701
  769MOL0     H 6081  10.087   7.630   0.964 -0.9191  0.3554  1.8312
  769MOL0     H 6082   9.949   7.543   0.879  1.5948 -2.9125 -2.6521
  769MOL0     H 6083  10.096   7.463   0.919  0.8553  1.2783 -0.7228
  769MOL0     H 6084   9.520   7.572   0.809 -1.4557 -0.3622 -1.9935
  769MOL0     H 6085   9.390   7.490   0.630  0.0441  3.7922  2.4286
  769MOL0     H 6086   9.351   7.062   0.604 -0.4941  1.1009  2.7022
  769MOL0     H 6087   9.199   7.076   0.696 -0.7516 -0.1701 -0.8197
  769MOL0     H 6088   9.129   6.989   0.508  3.3727 -1.6214  2.4747
  769MOL0     H 6089   9.104   7.167   0.464  0.7896  0.6710 -0.6658
  769MOL0     H 6090   9.347   7.018   0.374  0.3564  0.7047 -1.3528
  769MOL0     H 6091   9.305   7.178   0.331  1.1068 -1.7480 -1.3369
  769MOL0     H 6092   9.096   7.084   0.209 -2.4643 -1.2846  2.0709
  769MOL0     H 6093   9.126   6.929   0.272 -0.3880  0.7782  2.3500
  769MOL0     H 6094   9.198   7.037   0.023 -0.3723 -0.4503  0.8982
  769MOL0     H 6095   9.334   7.080   0.102 -0.9819  0.7283 -2.7679
  769MOL0     H 6096   9.240   6.793   0.073 -0.0530  0.3538  0.3601
  769MOL0     H 6097   9.393   6.842   0.152  3.4780  4.5130 -1.9846
  769MOL0     H 6098   9.460   6.773  -0.053 -1.5280 -2.7029 -0.8362
  769MOL0     H 6099   9.420   6.944  -0.101  1.0530 -1.6434 -1.1862
  769MOL0     H 6100   9.218   6.883  -0.203 -0.5756 -0.9936  1.0484
  769MOL0     H 6101   9.210   6.733  -0.123  1.2222 -0.8007  1.8695
  769MOL0     H 6102   9.372   7.104   0.835 -2.3433  0.7250 -2.8186
  769MOL0     H 6103   9.523   7.211   1.023 -1.0041  0.3662 -0.1450
  769MOL0     H 6104   9.683   7.468   1.279  0.0894 -0.0357 -0.5217
  769MOL0     H 6105   9.820   7.539   1.456 -1.8358  0.0936 -0.7469
  769MOL0     H 6106  10.141   6.693   1.812  2.0754 -0.5868 -1.8268
  769MOL0     H 6107   9.979   6.567   1.906  1.7946  1.9261 -1.2848
  769MOL0     H 6108   9.748   6.313   2.021  1.0963  0.0905  0.5213
  769MOL0     H 6109   9.539   6.243   2.149  2.6022  2.3320  1.0710
  769MOL0     H 6110   9.383   6.108   2.085  1.5712  0.9787  1.0004
  769MOL0     H 6111   9.367   5.941   2.129 -0.1789 -0.3772  0.9156
  769MOL0     H 6112   9.200   6.115   2.187  1.1064  4.5455 -0.8278
  769MOL0     H 6113   9.291   6.189   2.299 -4.8563  0.5451 -0.1214
  769MOL0     H 6114   9.224   5.887   2.343  1.5527  0.3389  0.5729
  769MOL0     H 6115   9.264   6.001   2.465 -3.9120 -0.3352  2.9151
  769MOL0     H 6116   9.017   5.942   2.465 -0.2002  0.9932  1.0685
  769MOL0     H 6117   9.003   6.004   2.311  1.6298 -1.1544  0.3840
  769MOL0     H 6118   9.019   6.350   2.571  0.5027  0.2962  0.1655
  769MOL0     H 6119   9.728   5.906   2.287 -1.2961 -1.0560 -2.5874
  769MOL0     H 6120  10.055   5.905   2.129  0.0373 -1.9053  0.2811
  769MOL0     H 6121  10.067   6.019   2.255  1.7995 -1.0691 -0.9620
  769MOL0     H 6122   9.976   5.874   2.284 -0.6483  0.3463 -1.1918
  770MOL0     O 6123   9.400   3.322   0.247  0.1483 -0.1599  0.4137
  770MOL0     C 6124   9.305   3.285   0.178 -0.0270 -0.0015 -0.4464
  770MOL0     O 6125   9.177   3.268   0.223  0.7321  0.3312  1.2458
  770MOL0     C 6126   9.151   3.288   0.351  0.5794 -1.0407  0.7400
  770MOL0     C 6127   9.160   3.417   0.410  0.5561 -0.0023  0.0784
  770MOL0     C 6128   9.120   3.425   0.555 -0.5285  0.3028  0.6424
  770MOL0     C 6129   9.091   3.311   0.626  0.4720 -0.3012 -0.2714
  770MOL0     O 6130   9.076   3.327   0.761  0.1417 -0.1683 -0.3071
  770MOL0     C 6131   9.060   3.206   0.846  0.1691 -0.8938  0.8868
  770MOL0     C 6132   9.046   3.246   0.989  0.1242 -0.4252 -0.0366
  770MOL0     C 6133   8.921   3.338   1.004 -0.1435 -0.4301  0.0372
  770MOL0     C 6134   8.792   3.249   1.008 -0.9086  0.4977  0.4577
  770MOL0     C 6135   8.665   3.344   1.008 -0.1719  0.0646  0.1948
  770MOL0     C 6136   8.537   3.265   0.976 -0.6152  0.5638 -0.2794
  770MOL0     C 6137   8.413   3.356   0.997  0.2342  0.1342 -0.5185
  770MOL0     C 6138   8.290   3.298   0.929  0.2497  0.1902  0.2682
  770MOL0     N 6139   8.302   3.298   0.783 -0.2735 -0.4044  0.2976
  770MOL0     C 6140   8.265   3.187   0.704  0.1970  0.0468 -0.2723
  770MOL0     C 6141   8.238   3.248   0.577 -0.4712 -0.5057 -0.2646
  770MOL0     C 6142   8.190   3.193   0.448 -0.2013  0.5488  0.5002
  770MOL0     C 6143   8.095   3.278   0.367  0.2068  0.1124 -0.5280
  770MOL0     C 6144   7.951   3.314   0.423  0.2998  0.0792 -0.8652
  770MOL0     C 6145   7.878   3.430   0.363  0.3431  1.5361  0.7310
  770MOL0     O 6146   7.948   3.558   0.372  0.1446  0.0320  0.6653
  770MOL0     C 6147   7.884   3.674   0.349 -0.1174 -0.5623 -0.3900
  770MOL0     C 6148   7.752   3.692   0.319  0.0809  0.4838  0.6091
  770MOL0     C 6149   7.696   3.821   0.292 -0.3622  0.2196 -0.7431
  770MOL0     C 6150   7.545   3.814   0.253  0.0946 -0.2638  0.0263
  770MOL0     C 6151   7.775   3.939   0.301  0.1908 -1.1056 -0.2165
  770MOL0     C 6152   7.728   4.068   0.247 -0.0391  1.0105 -0.1048
  770MOL0     O 6153   7.595   4.084   0.204 -0.3375 -0.1089  0.3567
  770MOL0     C 6154   7.554   4.197   0.149  0.1940 -0.5982 -0.6486
  770MOL0     C 6155   7.442   4.258   0.201 -0.8518  0.5324 -0.5407
  770MOL0     C 6156   7.393   4.380   0.150  0.2142 -0.3902 -0.1145
  770MOL0     C 6157   7.444   4.439   0.036  0.0069 -0.5827 -0.2287
  770MOL0     O 6158   7.376   4.546  -0.022 -0.0806  0.2836 -0.5108
  770MOL0     C 6159   7.382   4.556  -0.166  0.0965  0.3075  0.1195
  770MOL0     C 6160   7.268   4.643  -0.212  0.1429  0.4261  0.2147
  770MOL0     C 6161   7.127   4.567  -0.203 -0.2129  0.2405  0.0562
  770MOL0     C 6162   7.059   4.592  -0.072  0.6676  0.1388  0.2738
  770MOL0     C 6163   6.975   4.728  -0.060  0.6330 -0.0824  0.5804
  770MOL0     C 6164   6.966   4.769   0.093 -0.8827  0.1203 -0.0928
  770MOL0     C 6165   6.876   4.887   0.106 -0.0010  0.2720 -0.7298
  770MOL0     C 6166   6.895   4.952   0.244 -0.0582 -0.6524 -0.4971
  770MOL0    Cl 6167   6.848   4.858   0.396  0.1806 -0.0850 -0.3439
  770MOL0     C 6168   7.560   4.377  -0.012  0.0138 -0.5707 -0.4015
  770MOL0     C 6169   7.625   4.262   0.042  0.7831  0.0195 -0.3071
  770MOL0     O 6170   7.811   4.160   0.261  0.9183  0.0555  0.0572
  770MOL0     C 6171   7.905   3.914   0.356 -0.2148 -0.6686 -0.9807
  770MOL0     C 6172   7.962   3.786   0.375 -0.6141 -0.9584  0.8390
  770MOL0     N 6173   8.269   3.379   0.577  0.5480 -0.1167 -0.7208
  770MOL0     N 6174   8.307   3.409   0.701  0.7430  1.1840  0.9349
  770MOL0     C 6175   9.095   3.188   0.564  0.0875  1.3921  0.3984
  770MOL0     C 6176   9.112   3.176   0.431  0.4396 -0.5223  0.2593
  770MOL0     C 6177   9.319   3.253   0.034 -0.2636  0.5111  0.4384
  770MOL0     C 6178   9.215   3.192  -0.034 -0.0504  0.7029  0.6139
  770MOL0     C 6179   9.220   3.155  -0.175 -0.6226  0.2826 -0.2106
  770MOL0     C 6180   9.336   3.172  -0.240 -0.5264 -0.9248 -0.3284
  770MOL0     O 6181   9.358   3.126  -0.364 -0.4463 -0.2330  0.3608
  770MOL0     C 6182   9.482   3.042  -0.383  0.3480 -0.2353 -0.2263
  770MOL0     C 6183   9.454   2.909  -0.471  0.4347 -0.6704 -0.3219
  770MOL0     C 6184   9.579   2.839  -0.507 -0.0007  0.5774 -0.9795
  770MOL0     C 6185   9.697   2.919  -0.563  0.4798 -0.4153  0.3611
  770MOL0     C 6186   9.672   3.018  -0.670  0.8562 -0.2728 -0.2636
  770MOL0     C 6187   9.633   3.097  -0.755  0.4034 -0.1327  0.4127
  770MOL0     C 6188   9.440   3.239  -0.185 -0.1450 -0.8143  1.1039
  770MOL0     C 6189   9.434   3.282  -0.051 -0.2959 -0.8625 -0.9046
  770MOL0     C 6190   9.563   3.354   0.006  0.2280 -0.1278 -0.3930
  770MOL0     H 6191   9.204   3.497   0.351  1.0595  0.9005  1.6130
  770MOL0     H 6192   9.124   3.517   0.612 -3.2738  2.0353 -1.6835
  770MOL0     H 6193   9.142   3.134   0.846  1.1055 -0.1674  5.6393
  770MOL0     H 6194   8.964   3.175   0.806 -0.6459  2.7410 -0.3541
  770MOL0     H 6195   9.038   3.158   1.053  1.4828 -0.6987 -0.2195
  770MOL0     H 6196   9.132   3.305   1.023  0.3869  0.3329 -1.9255
  770MOL0     H 6197   8.928   3.388   1.101 -0.6262 -0.1074 -0.0925
  770MOL0     H 6198   8.917   3.414   0.926 -0.6535  0.7030  1.1531
  770MOL0     H 6199   8.787   3.181   0.922 -0.9141  1.2994 -0.1835
  770MOL0     H 6200   8.795   3.188   1.099  1.4872  2.7489  1.9959
  770MOL0     H 6201   8.663   3.421   0.930 -3.2343  0.2588  0.3394
  770MOL0     H 6202   8.653   3.396   1.103 -0.5854  0.9041 -0.3032
  770MOL0     H 6203   8.551   3.228   0.874  0.6861 -0.2618  0.1700
  770MOL0     H 6204   8.518   3.183   1.046 -0.6250 -0.1301 -1.0691
  770MOL0     H 6205   8.436   3.456   0.960  0.6908  0.0081 -0.5730
  770MOL0     H 6206   8.388   3.367   1.103  0.7664 -1.6138 -0.1945
  770MOL0     H 6207   8.279   3.195   0.965  0.9834 -0.3436 -0.9912
  770MOL0     H 6208   8.194   3.346   0.950  0.0006 -0.2413  0.1139
  770MOL0     H 6209   8.273   3.084   0.737  1.4797  0.3492  0.4243
  770MOL0     H 6210   8.158   3.089   0.453 -2.4642  1.1406 -0.5678
  770MOL0     H 6211   8.279   3.186   0.385  0.2598  1.2083  1.0593
  770MOL0     H 6212   8.145   3.372   0.342 -1.0308  0.7404 -0.7567
  770MOL0     H 6213   8.076   3.231   0.270 -1.1424  1.0258 -0.7481
  770MOL0     H 6214   7.883   3.231   0.406 -0.4280 -0.1134  2.2812
  770MOL0     H 6215   7.949   3.338   0.530  1.5879 -0.8698 -0.5866
  770MOL0     H 6216   7.852   3.424   0.257  0.2827  3.8232  0.5508
  770MOL0     H 6217   7.786   3.421   0.421  0.1175 -0.7744  0.1256
  770MOL0     H 6218   7.681   3.611   0.306 -0.8196  1.6426 -2.9992
  770MOL0     H 6219   7.498   3.719   0.282  2.4811 -1.0724  1.5436
  770MOL0     H 6220   7.539   3.824   0.144 -0.3042 -1.5937 -0.0980
  770MOL0     H 6221   7.491   3.895   0.301 -0.8084  0.0463 -1.4486
  770MOL0     H 6222   7.397   4.213   0.289 -2.7685  2.3173 -0.5221
  770MOL0     H 6223   7.309   4.413   0.210 -0.8473  1.5774 -2.5036
  770MOL0     H 6224   7.472   4.616  -0.181 -0.4235  0.6779 -1.7655
  770MOL0     H 6225   7.384   4.458  -0.214  1.3790  1.0051 -1.3243
  770MOL0     H 6226   7.270   4.732  -0.147  0.6511 -1.7833  3.4398
  770MOL0     H 6227   7.295   4.674  -0.313 -2.8167  2.4498 -0.0985
  770MOL0     H 6228   7.141   4.460  -0.219 -2.7191 -0.0630 -0.4891
  770MOL0     H 6229   7.067   4.593  -0.290  2.1733 -1.0144 -2.0839
  770MOL0     H 6230   7.136   4.585   0.006 -0.6494  0.3158  1.6388
  770MOL0     H 6231   6.987   4.511  -0.056 -0.2538  0.9836  0.5168
  770MOL0     H 6232   7.024   4.813  -0.108 -1.1466  0.6799  0.0225
  770MOL0     H 6233   6.875   4.734  -0.104  0.7149  0.4872  0.4685
  770MOL0     H 6234   7.066   4.798   0.128 -0.3082 -0.3442 -1.2811
  770MOL0     H 6235   6.928   4.694   0.163  0.1281 -1.6052 -1.3149
  770MOL0     H 6236   6.769   4.866   0.090 -0.1867  1.4892 -1.1614
  770MOL0     H 6237   6.895   4.963   0.030 -0.9684 -2.1694 -3.6405
  770MOL0     H 6238   6.853   5.052   0.243  1.9555  0.3539  2.4462
  770MOL0     H 6239   6.998   4.987   0.259 -1.5515  3.2814  1.9089
  770MOL0     H 6240   7.608   4.418  -0.101 -1.8655 -1.1605 -1.7388
  770MOL0     H 6241   7.723   4.228   0.009  1.2514  0.3043  0.7294
  770MOL0     H 6242   7.971   4.000   0.357 -0.8700 -0.1037 -2.6435
  770MOL0     H 6243   8.070   3.773   0.375 -0.7941 -2.9115 -0.6306
  770MOL0     H 6244   9.077   3.095   0.617  1.4458  2.1956  2.3546
  770MOL0     H 6245   9.098   3.079   0.384  2.1196 -0.6071 -0.1109
  770MOL0     H 6246   9.117   3.162  -0.000  0.1082 -1.1556 -0.4015
  770MOL0     H 6247   9.138   3.105  -0.226  1.6277 -1.8367 -2.0324
  770MOL0     H 6248   9.558   3.094  -0.442 -1.9415  1.0734 -2.2478
  770MOL0     H 6249   9.523   3.004  -0.289 -1.6744 -0.3513  0.6637
  770MOL0     H 6250   9.404   2.943  -0.562  0.8735 -1.1498 -0.7504
  770MOL0     H 6251   9.383   2.842  -0.422  0.5314 -0.5395 -0.0031
  770MOL0     H 6252   9.619   2.801  -0.413 -0.7153  1.7547 -0.1891
  770MOL0     H 6253   9.545   2.759  -0.575  0.9849 -1.0509  0.3591
  770MOL0     H 6254   9.772   2.856  -0.611 -0.3070 -0.1435 -1.2901
  770MOL0     H 6255   9.740   2.972  -0.477  0.6508  0.0265  0.0089
  770MOL0     H 6256   9.594   3.162  -0.831  0.6971  0.0780  0.4429
  770MOL0     H 6257   9.523   3.264  -0.250 -0.2799  2.8370  2.1530
  770MOL0     H 6258   9.536   3.439   0.070  1.3367 -0.5346  0.6442
  770MOL0     H 6259   9.610   3.276   0.067  1.7772  0.5687 -0.6627
  770MOL0     H 6260   9.630   3.380  -0.076 -0.7708  1.5217 -0.7369
  771MOL0     O 6261   8.217   5.447  10.618  0.4053  0.0031 -0.9318
  771MOL0     C 6262   8.165   5.408  10.513  0.0390 -0.3241 -0.2062
  771MOL0     O 6263   8.197   5.291  10.446  0.2423 -0.6989  0.4367
  771MOL0     C 6264   8.298   5.222  10.508 -0.0951  0.2021 -0.0497
  771MOL0     C 6265   8.427   5.241  10.477 -0.4550  0.2608 -0.5982
  771MOL0     C 6266   8.527   5.142  10.512 -0.2375 -0.6631 -0.2781
  771MOL0     C 6267   8.495   5.031  10.593 -0.2092  0.8322  1.1003
  771MOL0     O 6268   8.578   4.932  10.646  0.5230 -0.2716 -0.3623
  771MOL0     C 6269   8.720   4.951  10.611  0.4871  0.0571  0.1725
  771MOL0     C 6270   8.785   4.833  10.673 -0.3232 -0.1312 -0.1006
  771MOL0     C 6271   8.937   4.833  10.644 -0.0397 -0.2386 -0.0509
  771MOL0     C 6272   9.004   4.736  10.752  0.0960 -0.0161 -0.4747
  771MOL0     C 6273   9.154   4.747  10.744  0.9416 -0.6739  1.1646
  771MOL0     C 6274   9.209   4.684  10.613  1.1988  0.2328 -0.7341
  771MOL0     C 6275   9.361   4.718  10.609 -0.4141  0.8060 -0.5132
  771MOL0     C 6276   9.442   4.630  10.700  0.5901  0.1303  0.2175
  771MOL0     N 6277   9.584   4.671  10.711  0.6014 -0.0338 -0.0680
  771MOL0     C 6278   9.630   4.751  10.816  0.5139 -0.2378  0.3379
  771MOL0     C 6279   9.758   4.766  10.776  0.3898  0.2010 -0.1525
  771MOL0     C 6280   9.842   4.865  10.853  0.3286 -0.2224  0.2580
  771MOL0     C 6281   9.977   4.812  10.906 -0.1829 -0.0910  1.3939
  771MOL0     C 6282   9.969   4.682  10.997 -0.2303  0.0957 -0.6936
  771MOL0     C 6283   9.987   4.705  11.153 -0.0896  1.2746  1.1197
  771MOL0     O 6284   9.866   4.737  11.224  0.3417  0.5433  0.6005
  771MOL0     C 6285   9.847   4.694  11.355 -0.8428 -0.2348  0.6158
  771MOL0     C 6286   9.738   4.603  11.378 -0.0260  0.3514  0.6003
  771MOL0     C 6287   9.710   4.553  11.500 -0.1197 -0.0122 -0.7550
  771MOL0     C 6288   9.589   4.462  11.512  1.1636 -0.1834 -0.7574
  771MOL0     C 6289   9.791   4.596  11.613 -0.5646  0.2193 -0.0278
  771MOL0     C 6290   9.794   4.539  11.747  0.3511  0.1345 -0.8846
  771MOL0     O 6291   9.893   4.583  11.833 -0.1112  0.1306 -0.0437
  771MOL0     C 6292   9.881   4.548  11.962 -0.1646  0.0030  1.0548
  771MOL0     C 6293   9.946   4.427  11.994 -0.2255 -0.2028  0.1872
  771MOL0     C 6294   9.982   4.401  12.129 -0.0221  0.4458  0.0099
  771MOL0     C 6295   9.954   4.490  12.232  0.2370 -0.4798 -0.6679
  771MOL0     O 6296   9.985   4.453  12.364 -0.0834  0.1083  0.3839
  771MOL0     C 6297   9.912   4.510  12.469 -0.3303  0.7152 -0.2146
  771MOL0     C 6298   9.947   4.430  12.601 -0.1852  0.1585 -0.6126
  771MOL0     C 6299   9.912   4.277  12.584 -0.1936 -0.4366  0.0574
  771MOL0     C 6300   9.922   4.196  12.710  0.3230  0.1914 -0.3587
  771MOL0     C 6301  10.049   4.111  12.717  0.4195 -0.0489 -0.1732
  771MOL0     C 6302  10.174   4.198  12.729 -0.4668  0.3460 -0.1237
  771MOL0     C 6303  10.291   4.120  12.655  0.1730 -0.3316  0.8766
  771MOL0     C 6304  10.295   4.148  12.500  0.6951 -0.2847 -0.4174
  771MOL0    Cl 6305  10.338   4.313  12.451  0.2181 -0.1569  0.2705
  771MOL0     C 6306   9.891   4.615  12.191 -0.2688  0.1539  0.5837
  771MOL0     C 6307   9.857   4.642  12.061 -0.8880  0.7250 -0.5891
  771MOL0     O 6308   9.712   4.449  11.775  1.2350 -0.1266  0.5560
  771MOL0     C 6309   9.894   4.699  11.589  0.5439 -0.1094  1.4372
  771MOL0     C 6310   9.923   4.739  11.456 -0.4880  0.5864 -0.0097
  771MOL0     N 6311   9.786   4.705  10.650  0.2318  0.3241 -0.8838
  771MOL0     N 6312   9.675   4.648  10.614 -0.1117  0.1059  0.9093
  771MOL0     C 6313   8.361   5.008  10.618  0.1478  0.2327  0.6737
  771MOL0     C 6314   8.270   5.104  10.584 -1.1653 -0.2297  0.2759
  771MOL0     C 6315   8.068   5.502  10.452 -0.1750 -0.0683  0.4260
  771MOL0     C 6316   7.968   5.556  10.533  0.3626 -1.2047  0.0020
  771MOL0     C 6317   7.879   5.664  10.492  0.8184  0.5063  0.4429
  771MOL0     C 6318   7.903   5.706  10.356 -0.2237 -0.2404 -0.8449
  771MOL0     O 6319   7.825   5.813  10.311 -0.3222  0.4254  0.1861
  771MOL0     C 6320   7.866   5.943  10.328 -0.0370 -0.7576 -0.1079
  771MOL0     C 6321   7.862   6.013  10.190 -0.7607 -0.3607 -0.2276
  771MOL0     C 6322   7.724   6.065  10.152  0.4058 -0.1487  0.0772
  771MOL0     C 6323   7.716   6.130  10.020  1.1123  0.0000 -0.1142
  771MOL0     C 6324   7.573   6.143   9.990 -0.3441  0.8606  0.1674
  771MOL0     C 6325   7.454   6.183   9.975  0.2050  0.0967 -1.0566
  771MOL0     C 6326   7.989   5.647  10.276 -0.4839  0.4155 -0.2568
  771MOL0     C 6327   8.080   5.538  10.312 -0.1893 -0.1662 -0.6543
  771MOL0     C 6328   8.164   5.469  10.209  0.5574 -0.1069  1.0883
  771MOL0     H 6329   8.440   5.318  10.402 -1.7324  1.8784  0.7730
  771MOL0     H 6330   8.631   5.142  10.481 -0.3764 -1.1680 -0.7681
  771MOL0     H 6331   8.757   5.047  10.649 -1.7899  0.4503  1.6315
  771MOL0     H 6332   8.729   4.940  10.503 -2.9940  0.2568 -0.2477
  771MOL0     H 6333   8.776   4.839  10.781 -0.5045 -0.9201 -0.0705
  771MOL0     H 6334   8.742   4.737  10.644 -2.8512  0.5846  0.9807
  771MOL0     H 6335   8.955   4.789  10.546 -1.1313  1.2053 -0.9394
  771MOL0     H 6336   8.985   4.930  10.654 -1.0707  0.1870  1.0248
  771MOL0     H 6337   8.977   4.766  10.854 -1.7181  0.9578 -1.1919
  771MOL0     H 6338   8.968   4.635  10.730  0.3093  0.1153 -1.4913
  771MOL0     H 6339   9.207   4.709  10.832  0.1678 -2.0114  1.0702
  771MOL0     H 6340   9.169   4.855  10.748  4.7886 -1.0457  0.6433
  771MOL0     H 6341   9.183   4.578  10.622  1.6240 -0.0801 -2.7053
  771MOL0     H 6342   9.166   4.738  10.528  2.1010 -1.4345 -2.3236
  771MOL0     H 6343   9.379   4.820  10.644  1.9322  1.2656 -2.7590
  771MOL0     H 6344   9.411   4.696  10.514  1.0999 -1.4086  0.7107
  771MOL0     H 6345   9.400   4.623  10.800  1.9641  0.6239  0.8617
  771MOL0     H 6346   9.424   4.535  10.650 -4.1372  0.5363  0.7527
  771MOL0     H 6347   9.592   4.776  10.915  2.6443  0.6855  0.9852
  771MOL0     H 6348   9.783   4.920  10.926 -0.4133 -0.0990 -0.4148
  771MOL0     H 6349   9.862   4.955  10.794 -2.7803  1.6461  1.7999
  771MOL0     H 6350  10.032   4.783  10.816 -1.5183  1.0850  0.1504
  771MOL0     H 6351  10.036   4.884  10.962  2.5382 -1.2510  0.1643
  771MOL0     H 6352   9.877   4.630  10.968  0.9394 -1.2294 -2.2700
  771MOL0     H 6353  10.058   4.621  10.978  0.3211 -0.4557  3.0057
  771MOL0     H 6354  10.027   4.617  11.205 -4.8242 -1.3878  0.8189
  771MOL0     H 6355  10.054   4.791  11.163 -0.0955  1.3721  0.3562
  771MOL0     H 6356   9.679   4.572  11.292 -1.4418 -0.1459  1.7059
  771MOL0     H 6357   9.524   4.487  11.596 -0.5868  1.0906 -2.4009
  771MOL0     H 6358   9.613   4.355  11.505  2.2642  0.0862 -1.4039
  771MOL0     H 6359   9.527   4.484  11.424 -0.2281  2.4640  0.7703
  771MOL0     H 6360   9.985   4.356  11.923 -0.5267  0.8344 -1.0550
  771MOL0     H 6361  10.025   4.306  12.158 -1.2945 -0.1038  0.1892
  771MOL0     H 6362   9.941   4.614  12.485  0.4341 -0.1532  7.6023
  771MOL0     H 6363   9.803   4.505  12.464 -0.5578 -2.6523  3.2523
  771MOL0     H 6364  10.051   4.452  12.627 -0.0911  0.8244 -1.5216
  771MOL0     H 6365   9.883   4.473  12.679 -0.7667 -1.1196 -0.3585
  771MOL0     H 6366   9.982   4.237  12.510  0.9088 -1.3076  1.5113
  771MOL0     H 6367   9.811   4.263  12.543 -0.7138 -0.2678  1.2421
  771MOL0     H 6368   9.837   4.127  12.705 -1.8008  2.4608  1.5622
  771MOL0     H 6369   9.925   4.258  12.800  0.9299 -1.8149  1.0772
  771MOL0     H 6370  10.037   4.050  12.807  3.0035 -0.7216 -0.2188
  771MOL0     H 6371  10.053   4.052  12.624 -0.1389  1.6553 -1.3288
  771MOL0     H 6372  10.196   4.221  12.834  0.5722 -1.3858  0.0712
  771MOL0     H 6373  10.157   4.291  12.675  1.9367 -1.7780 -5.1542
  771MOL0     H 6374  10.285   4.011  12.665  0.1320 -1.3762 -6.1009
  771MOL0     H 6375  10.387   4.155  12.696  0.2125 -0.3857  0.8303
  771MOL0     H 6376  10.195   4.136  12.458  1.0077 -1.6853 -0.7888
  771MOL0     H 6377  10.352   4.072  12.447 -0.7347 -1.3772 -0.4592
  771MOL0     H 6378   9.868   4.683  12.273 -2.7499 -2.2226  2.0202
  771MOL0     H 6379   9.817   4.742  12.049  1.4464  1.8258  0.2428
  771MOL0     H 6380   9.951   4.748  11.667 -0.0694  2.0960  0.5717
  771MOL0     H 6381  10.013   4.798  11.444 -0.6613  0.7511 -0.5090
  771MOL0     H 6382   8.327   4.921  10.673  1.1631 -0.6117  0.0061
  771MOL0     H 6383   8.169   5.091  10.620 -0.7909  1.1000  1.9352
  771MOL0     H 6384   7.968   5.529  10.638 -0.4888 -0.6874  0.1486
  771MOL0     H 6385   7.800   5.715  10.546  0.0073 -0.2776  0.0149
  771MOL0     H 6386   7.781   5.985  10.383 -2.4514 -1.2002 -3.1855
  771MOL0     H 6387   7.961   5.948  10.381 -0.6518 -0.9836  1.0692
  771MOL0     H 6388   7.889   5.938  10.115  1.1914  0.1881 -0.1167
  771MOL0     H 6389   7.935   6.095  10.192 -0.3886 -0.6069 -1.9138
  771MOL0     H 6390   7.651   5.984  10.141 -2.0535  2.0974 -1.1143
  771MOL0     H 6391   7.680   6.133  10.225 -0.8722  0.2667 -1.0435
  771MOL0     H 6392   7.767   6.068   9.946 -0.2676 -0.8892 -0.3667
  771MOL0     H 6393   7.759   6.230  10.008 -0.4163  0.4977 -2.1276
  771MOL0     H 6394   7.357   6.225   9.960  0.2968 -0.4203 -3.3234
  771MOL0     H 6395   7.987   5.689  10.176  1.3576  1.6413  0.1726
  771MOL0     H 6396   8.165   5.360  10.199 -0.7515  0.0568 -1.6650
  771MOL0     H 6397   8.127   5.495  10.109  3.2296 -0.7558 -0.1588
  771MOL0     H 6398   8.266   5.500  10.232  1.3531 -1.2806 -0.6735
  772MOL0     O 6399   8.506   7.307   3.061  0.9286 -0.4863 -0.1998
  772MOL0     C 6400   8.467   7.368   2.963  0.6453 -0.0952  0.0331
  772MOL0     O 6401   8.367   7.458   2.969  0.0099  0.0998 -0.4633
  772MOL0     C 6402   8.307   7.509   3.094 -0.2308  0.2828  1.0494
  772MOL0     C 6403   8.388   7.589   3.172 -0.1879 -0.1869  1.1994
  772MOL0     C 6404   8.343   7.651   3.285  0.1066  0.2821  0.2635
  772MOL0     C 6405   8.210   7.646   3.319 -0.5681  0.1029  0.2676
  772MOL0     O 6406   8.147   7.713   3.416  0.3968 -0.1637  0.0460
  772MOL0     C 6407   8.159   7.856   3.419  0.8158  0.1109  0.8674
  772MOL0     C 6408   8.027   7.915   3.474  0.2274  0.4913 -0.4439
  772MOL0     C 6409   7.998   8.062   3.414  0.1174 -0.0103 -0.0145
  772MOL0     C 6410   8.083   8.164   3.492 -0.5363 -1.2686  0.0127
  772MOL0     C 6411   8.041   8.302   3.441 -1.1656 -0.2312 -0.1565
  772MOL0     C 6412   8.103   8.419   3.527 -0.2802  0.3142 -0.5279
  772MOL0     C 6413   8.032   8.545   3.480  0.6171 -1.0455  0.2613
  772MOL0     C 6414   8.119   8.673   3.496 -0.4183  0.6153 -0.8915
  772MOL0     N 6415   8.258   8.654   3.465 -0.3063 -0.5237  0.8757
  772MOL0     C 6416   8.327   8.610   3.345 -0.4765 -0.0197 -0.2291
  772MOL0     C 6417   8.455   8.607   3.380 -0.1663 -0.6807 -0.9362
  772MOL0     C 6418   8.579   8.553   3.313  0.3097  0.8980  0.1940
  772MOL0     C 6419   8.576   8.582   3.164  0.7824  0.7113  0.0865
  772MOL0     C 6420   8.693   8.497   3.117 -0.5907 -0.0258 -0.1845
  772MOL0     C 6421   8.704   8.507   2.969 -0.4106  0.0722  0.0097
  772MOL0     O 6422   8.806   8.418   2.918  0.2342  0.2530 -0.4205
  772MOL0     C 6423   8.808   8.381   2.785  0.6034  0.4391 -0.8963
  772MOL0     C 6424   8.925   8.383   2.720 -1.1475  0.2798  0.6260
  772MOL0     C 6425   8.940   8.355   2.586  0.7482  1.0949 -0.2229
  772MOL0     C 6426   9.072   8.331   2.538  0.5054  1.0463 -0.3587
  772MOL0     C 6427   8.824   8.339   2.501 -0.0807  0.7473  0.0453
  772MOL0     C 6428   8.822   8.311   2.353  0.4417  0.2577  0.0130
  772MOL0     O 6429   8.938   8.314   2.288 -0.7342 -0.5462  0.7259
  772MOL0     C 6430   8.940   8.309   2.148  0.3708 -0.0865  0.6267
  772MOL0     C 6431   9.043   8.236   2.097 -0.3924 -0.6053 -0.8347
  772MOL0     C 6432   9.037   8.208   1.959 -0.2104 -0.1619  0.2675
  772MOL0     C 6433   8.951   8.266   1.869  0.5255 -0.1707 -0.2254
  772MOL0     O 6434   8.922   8.243   1.739  0.1776 -0.0611 -0.2012
  772MOL0     C 6435   9.026   8.194   1.647  0.4333  0.9283  0.6539
  772MOL0     C 6436   8.970   8.160   1.510 -0.3424 -0.1033  0.9400
  772MOL0     C 6437   8.942   8.294   1.431  0.2278  0.9488  0.9349
  772MOL0     C 6438   8.851   8.266   1.308 -0.3918  0.3788  0.0100
  772MOL0     C 6439   8.832   8.392   1.226  0.6198  0.5254 -0.1169
  772MOL0     C 6440   8.706   8.376   1.148  0.1945  0.1715  0.6795
  772MOL0     C 6441   8.688   8.479   1.042  0.1629 -0.0360 -0.3848
  772MOL0     C 6442   8.688   8.630   1.085  0.2073 -0.1053 -0.0945
  772MOL0    Cl 6443   8.568   8.645   1.224  0.3930 -0.3930  0.3226
  772MOL0     C 6444   8.860   8.358   1.919 -0.2024 -0.2374  0.4469
  772MOL0     C 6445   8.857   8.381   2.059 -0.0676 -0.1236  0.3861
  772MOL0     O 6446   8.711   8.296   2.298  0.0273 -0.0580  0.2883
  772MOL0     C 6447   8.702   8.336   2.572  0.6909 -0.7300 -0.0699
  772MOL0     C 6448   8.694   8.364   2.712 -0.8953 -0.8062  0.3998
  772MOL0     N 6449   8.465   8.658   3.511  0.7669  0.4981 -0.2760
  772MOL0     N 6450   8.348   8.689   3.551 -0.2702 -0.9501 -0.2739
  772MOL0     C 6451   8.125   7.557   3.247 -0.3384  0.4097  0.2240
  772MOL0     C 6452   8.176   7.487   3.141 -0.8279  0.8609 -0.1494
  772MOL0     C 6453   8.528   7.359   2.821 -0.2293 -0.0179 -1.2347
  772MOL0     C 6454   8.526   7.481   2.741 -0.1005  0.0998  0.7716
  772MOL0     C 6455   8.597   7.501   2.619  0.4807 -0.3068 -0.4600
  772MOL0     C 6456   8.681   7.402   2.571  1.0198 -0.2494 -0.1177
  772MOL0     O 6457   8.761   7.410   2.465  1.0911  0.1057  0.3279
  772MOL0     C 6458   8.711   7.493   2.362  0.3055 -0.1044  0.1109
  772MOL0     C 6459   8.769   7.440   2.226 -0.4858 -0.3844 -0.0738
  772MOL0     C 6460   8.671   7.441   2.113  0.5114 -0.4469  0.2021
  772MOL0     C 6461   8.727   7.381   1.988 -0.7938 -1.4815  0.0834
  772MOL0     C 6462   8.764   7.238   2.004 -0.1728  0.4837 -0.3205
  772MOL0     C 6463   8.795   7.117   2.022 -0.0740  0.1985  0.3268
  772MOL0     C 6464   8.685   7.280   2.644 -0.0988  0.0947 -0.0754
  772MOL0     C 6465   8.614   7.260   2.766  0.4145  0.1673 -0.0635
  772MOL0     C 6466   8.655   7.127   2.839 -0.8369  0.3739  1.4682
  772MOL0     H 6467   8.495   7.595   3.152 -0.2445  0.4912  1.0957
  772MOL0     H 6468   8.415   7.702   3.349  1.0031  0.8740 -1.1685
  772MOL0     H 6469   8.184   7.893   3.319  1.2427  1.4995  1.4541
  772MOL0     H 6470   8.246   7.878   3.482  0.3277  0.2048  1.5253
  772MOL0     H 6471   7.936   7.857   3.460 -0.4947  1.5158 -0.1749
  772MOL0     H 6472   8.056   7.922   3.580  1.7520  2.1481 -0.9197
  772MOL0     H 6473   8.028   8.059   3.309  0.0902 -0.6064 -0.0049
  772MOL0     H 6474   7.893   8.094   3.415 -0.4262 -1.6708 -0.3863
  772MOL0     H 6475   8.074   8.159   3.601 -0.1326 -0.8570  0.0672
  772MOL0     H 6476   8.187   8.144   3.464 -1.0063 -0.2594 -2.7066
  772MOL0     H 6477   7.932   8.313   3.449 -1.4528 -2.4539 -0.3940
  772MOL0     H 6478   8.082   8.315   3.341 -1.5170  0.7180 -0.1876
  772MOL0     H 6479   8.087   8.400   3.634  4.3580 -1.4802  0.0741
  772MOL0     H 6480   8.208   8.430   3.500 -1.2502  1.5623 -4.3340
  772MOL0     H 6481   7.939   8.558   3.537  0.3100 -2.1281  0.0405
  772MOL0     H 6482   8.009   8.534   3.374 -0.4827  1.2023  0.2079
  772MOL0     H 6483   8.074   8.761   3.449 -2.9772  1.0287  2.0174
  772MOL0     H 6484   8.110   8.694   3.603 -0.4957 -1.2668 -0.4900
  772MOL0     H 6485   8.274   8.565   3.261 -2.0484 -0.2445  0.8481
  772MOL0     H 6486   8.563   8.447   3.335 -0.3195  0.7118 -1.0912
  772MOL0     H 6487   8.669   8.596   3.358  1.5270 -2.0955  0.8413
  772MOL0     H 6488   8.482   8.552   3.117  0.4043  2.5733 -0.4261
  772MOL0     H 6489   8.586   8.689   3.143 -3.4370  1.6510  1.8558
  772MOL0     H 6490   8.796   8.519   3.147 -0.1813  0.8990 -2.1501
  772MOL0     H 6491   8.660   8.393   3.131  0.2507 -0.0737  1.8916
  772MOL0     H 6492   8.608   8.492   2.918 -1.2080  3.1197  0.3518
  772MOL0     H 6493   8.735   8.611   2.952  2.9199 -0.6808  0.8621
  772MOL0     H 6494   9.017   8.409   2.770 -0.0708 -1.0493 -0.5815
  772MOL0     H 6495   9.071   8.224   2.517  0.0499  0.7316  1.1336
  772MOL0     H 6496   9.153   8.359   2.605  1.1835 -0.3971 -0.5451
  772MOL0     H 6497   9.084   8.384   2.442 -0.9724  1.0653 -0.5530
  772MOL0     H 6498   9.120   8.188   2.157 -0.4527  0.3463  0.0464
  772MOL0     H 6499   9.102   8.136   1.910 -2.4323 -0.0303 -3.3221
  772MOL0     H 6500   9.111   8.263   1.639  1.0438  0.2004  0.7981
  772MOL0     H 6501   9.070   8.099   1.677  0.2578  0.9067  0.8476
  772MOL0     H 6502   9.050   8.098   1.468 -1.0015 -0.9203  0.8480
  772MOL0     H 6503   8.879   8.100   1.521 -0.8296  0.5173  0.4000
  772MOL0     H 6504   9.036   8.334   1.392  1.2337 -2.3618 -0.4066
  772MOL0     H 6505   8.883   8.352   1.502 -2.3610 -0.9999  0.5238
  772MOL0     H 6506   8.753   8.228   1.338 -0.7211  0.8358 -0.4735
  772MOL0     H 6507   8.903   8.189   1.251  3.8024  1.3334  2.1131
  772MOL0     H 6508   8.823   8.477   1.295 -0.2768 -0.0206  0.4540
  772MOL0     H 6509   8.923   8.402   1.166  0.1359 -1.2834 -1.2307
  772MOL0     H 6510   8.618   8.370   1.212  0.9122 -1.9332  1.5581
  772MOL0     H 6511   8.717   8.282   1.093  0.4515 -0.3728  1.6380
  772MOL0     H 6512   8.600   8.459   0.980 -0.4486 -0.8480  0.7222
  772MOL0     H 6513   8.771   8.469   0.971 -1.4616 -1.4361 -2.2075
  772MOL0     H 6514   8.654   8.687   0.997  0.9653  0.3281 -0.1146
  772MOL0     H 6515   8.783   8.680   1.105 -0.7460  1.0185  1.9602
  772MOL0     H 6516   8.785   8.409   1.860 -1.4278 -2.4942 -0.0738
  772MOL0     H 6517   8.775   8.448   2.086  3.5283  4.9604  0.1199
  772MOL0     H 6518   8.611   8.323   2.515  0.6568  4.1588 -1.6465
  772MOL0     H 6519   8.599   8.376   2.764 -0.8277  1.1324  0.1498
  772MOL0     H 6520   8.020   7.537   3.268  0.0955 -2.7929 -0.1850
  772MOL0     H 6521   8.107   7.426   3.084 -0.9976 -1.9946  2.8110
  772MOL0     H 6522   8.467   7.568   2.769 -0.0349  0.8570 -1.2740
  772MOL0     H 6523   8.585   7.596   2.569 -4.3887  0.4976  1.6111
  772MOL0     H 6524   8.603   7.489   2.347  0.3700 -0.1247 -0.3736
  772MOL0     H 6525   8.739   7.598   2.369 -2.7206  0.8611 -0.6406
  772MOL0     H 6526   8.797   7.336   2.246 -2.3989 -0.5032  2.3222
  772MOL0     H 6527   8.865   7.488   2.201  1.2233 -2.0987  2.6714
  772MOL0     H 6528   8.580   7.382   2.127  0.4051 -0.0028  1.5664
  772MOL0     H 6529   8.629   7.540   2.097 -1.1774 -1.2308 -0.4992
  772MOL0     H 6530   8.817   7.441   1.971 -0.6985 -0.8940  2.2853
  772MOL0     H 6531   8.659   7.389   1.903  2.0849  2.1361 -2.1763
  772MOL0     H 6532   8.839   7.022   2.042  0.9459  0.8345  1.2221
  772MOL0     H 6533   8.756   7.204   2.616  0.4808  0.2679  0.8740
  772MOL0     H 6534   8.641   7.137   2.947  0.5711 -1.0816  1.8393
  772MOL0     H 6535   8.601   7.036   2.811 -1.1798 -0.0575  3.3450
  772MOL0     H 6536   8.762   7.110   2.824 -0.9292  0.7565  0.2991
  773MOL0     O 6537   0.021   1.084   4.272 -0.8996 -0.1706 -1.3591
  773MOL0     C 6538   0.071   0.987   4.208  0.3546 -0.3755 -0.2757
  773MOL0     O 6539   0.161   0.903   4.256  0.2846 -0.5696  0.0894
  773MOL0     C 6540   0.255   0.936   4.353  0.0022  0.3122  0.1745
  773MOL0     C 6541   0.223   1.004   4.473  0.9652 -1.2505 -1.3485
  773MOL0     C 6542   0.310   1.046   4.570 -0.8153  0.1641  0.1043
  773MOL0     C 6543   0.445   0.996   4.560 -0.0999 -0.8458  0.3879
  773MOL0     O 6544   0.533   1.032   4.655 -0.0698 -0.6298  0.8093
  773MOL0     C 6545   0.660   1.075   4.606 -0.3500 -0.2791  0.1543
  773MOL0     C 6546   0.675   1.220   4.646 -0.7716 -0.1887 -0.4051
  773MOL0     C 6547   0.803   1.276   4.587  0.3382  1.3674 -0.9849
  773MOL0     C 6548   0.830   1.413   4.643  0.1181  0.4241 -1.5637
  773MOL0     C 6549   0.956   1.478   4.590 -0.5966 -0.1200  0.1988
  773MOL0     C 6550   1.004   1.597   4.680  1.1951  0.7180 -0.3950
  773MOL0     C 6551   1.143   1.642   4.647 -0.8564  2.0437 -0.1432
  773MOL0     C 6552   1.171   1.686   4.508  0.3110  0.5007 -0.1656
  773MOL0     N 6553   1.293   1.761   4.484 -0.0658 -0.1163  0.0949
  773MOL0     C 6554   1.326   1.869   4.559  0.3399 -0.6673 -0.3223
  773MOL0     C 6555   1.455   1.885   4.528 -0.2183 -1.7506 -0.7324
  773MOL0     C 6556   1.547   1.983   4.597 -0.6526  0.8855 -0.1815
  773MOL0     C 6557   1.649   1.904   4.690 -0.9666 -0.0297 -0.2750
  773MOL0     C 6558   1.580   1.840   4.811 -0.8107 -0.2181 -1.2070
  773MOL0     C 6559   1.507   1.950   4.893 -0.3648 -0.2989  0.9029
  773MOL0     O 6560   1.508   1.923   5.039 -0.4668 -0.1738 -0.3126
  773MOL0     C 6561   1.629   1.918   5.104 -0.3300  0.4305 -0.5899
  773MOL0     C 6562   1.751   1.980   5.063  0.7205 -0.6285  0.1680
  773MOL0     C 6563   1.862   1.963   5.141  0.3727 -0.2482 -0.4717
  773MOL0     C 6564   1.988   2.013   5.076 -0.1365  0.7307  0.4350
  773MOL0     C 6565   1.860   1.882   5.264 -0.5592 -0.9369 -0.2924
  773MOL0     C 6566   1.969   1.862   5.352 -0.5314  0.0139 -0.5342
  773MOL0     O 6567   1.974   1.745   5.416  0.3700  0.2846 -0.2103
  773MOL0     C 6568   2.059   1.742   5.517  0.5894 -0.6342  0.8674
  773MOL0     C 6569   2.170   1.660   5.506  0.4882 -0.8154  0.8607
  773MOL0     C 6570   2.273   1.652   5.595 -0.7784 -0.5955 -0.2689
  773MOL0     C 6571   2.253   1.720   5.721 -0.1354  0.6797 -0.6175
  773MOL0     O 6572   2.348   1.715   5.818  0.5076 -0.3176  0.6500
  773MOL0     C 6573   2.391   1.586   5.860 -0.5901 -0.2281 -0.3058
  773MOL0     C 6574   2.454   1.585   5.995  1.0026  0.0178 -0.3092
  773MOL0     C 6575   2.597   1.645   5.998 -0.0215 -0.4536 -0.3196
  773MOL0     C 6576   2.634   1.652   6.150 -1.2116 -0.8255  0.2304
  773MOL0     C 6577   2.770   1.728   6.194 -0.1385 -0.3708 -0.0400
  773MOL0     C 6578   2.892   1.650   6.146  0.0408  0.0588  0.8957
  773MOL0     C 6579   2.960   1.702   6.017 -0.6219  0.0034 -0.4295
  773MOL0     C 6580   3.025   1.840   6.027  0.5417 -0.3803  0.6774
  773MOL0    Cl 6581   3.103   1.907   5.869  0.6866  0.0194 -0.4900
  773MOL0     C 6582   2.129   1.786   5.745  0.5048 -1.0916  0.2418
  773MOL0     C 6583   2.036   1.801   5.641  0.3447  0.3407 -0.3089
  773MOL0     O 6584   2.031   1.964   5.383  1.1773 -0.1089  0.0074
  773MOL0     C 6585   1.740   1.835   5.302 -0.2918 -0.6604  0.6872
  773MOL0     C 6586   1.626   1.850   5.223  0.5636  0.3811 -0.2325
  773MOL0     N 6587   1.497   1.795   4.439 -0.5148  0.1161 -0.8438
  773MOL0     N 6588   1.403   1.715   4.417 -0.3764 -0.1120 -0.3510
  773MOL0     C 6589   0.476   0.907   4.456  0.0272 -0.2691  0.3077
  773MOL0     C 6590   0.385   0.889   4.349  0.9592 -0.9428  0.0593
  773MOL0     C 6591   0.006   0.950   4.085  0.2570 -0.4662  0.2576
  773MOL0     C 6592  -0.113   0.871   4.087  0.1688  0.2701  0.2674
  773MOL0     C 6593  -0.187   0.853   3.974 -0.4592 -0.0773 -0.2245
  773MOL0     C 6594  -0.159   0.907   3.847 -0.7410 -0.0485  0.6168
  773MOL0     O 6595  -0.227   0.913   3.732  0.3899  0.3205  0.0470
  773MOL0     C 6596  -0.353   0.849   3.725  0.1071 -0.7094 -0.3006
  773MOL0     C 6597  -0.409   0.873   3.584  0.1272 -0.0700  0.6136
  773MOL0     C 6598  -0.321   0.855   3.454  1.1150  0.0103  0.0731
  773MOL0     C 6599  -0.405   0.837   3.329 -0.0044 -0.9086  0.7728
  773MOL0     C 6600  -0.486   0.716   3.334  0.2924  0.5905  1.1796
  773MOL0     C 6601  -0.573   0.638   3.336  0.7341  0.0452 -0.2118
  773MOL0     C 6602  -0.039   0.988   3.844 -0.4767 -0.2700  0.5037
  773MOL0     C 6603   0.032   1.014   3.961 -0.2063  0.1408 -0.2381
  773MOL0     C 6604   0.139   1.115   3.954 -0.8225  0.8396  0.0008
  773MOL0     H 6605   0.124   1.046   4.487  1.3933 -0.4934 -0.4444
  773MOL0     H 6606   0.277   1.115   4.647  0.8621 -0.4211  1.3975
  773MOL0     H 6607   0.676   1.065   4.498  0.6913 -2.7710  0.4862
  773MOL0     H 6608   0.734   1.009   4.653 -0.4288  1.8179  3.5789
  773MOL0     H 6609   0.598   1.287   4.606 -1.1303  0.9365  1.9874
  773MOL0     H 6610   0.658   1.234   4.753 -0.6986 -0.4904 -0.3544
  773MOL0     H 6611   0.882   1.208   4.620 -0.7869  0.0445 -0.9421
  773MOL0     H 6612   0.791   1.272   4.479 -2.0534  0.3326 -0.7308
  773MOL0     H 6613   0.746   1.482   4.631 -0.5019 -0.4354 -2.3549
  773MOL0     H 6614   0.857   1.384   4.745  0.0920  0.8857 -1.4234
  773MOL0     H 6615   0.959   1.509   4.485  0.9128 -2.2076 -0.4318
  773MOL0     H 6616   1.034   1.402   4.588 -2.2368 -1.8839  0.7474
  773MOL0     H 6617   0.933   1.679   4.666 -0.6302 -0.8015 -0.4784
  773MOL0     H 6618   1.008   1.560   4.784 -2.5558  2.8528  0.7024
  773MOL0     H 6619   1.211   1.558   4.667 -3.0756  0.4146  1.1095
  773MOL0     H 6620   1.167   1.712   4.728 -1.1742  1.3776  0.5509
  773MOL0     H 6621   1.178   1.604   4.436  1.0500 -2.7441  3.3004
  773MOL0     H 6622   1.089   1.756   4.488  2.3642  2.5142 -2.1751
  773MOL0     H 6623   1.262   1.929   4.623  0.7878  0.1673 -0.6483
  773MOL0     H 6624   1.499   2.056   4.662  0.7972  1.1945  0.5670
  773MOL0     H 6625   1.609   2.031   4.521  0.2502 -1.7575 -1.2603
  773MOL0     H 6626   1.686   1.818   4.633 -1.6348 -1.2855  1.1138
  773MOL0     H 6627   1.738   1.964   4.712  0.4593 -1.3182 -2.2076
  773MOL0     H 6628   1.520   1.752   4.789 -0.9955 -0.0949 -1.1972
  773MOL0     H 6629   1.658   1.798   4.875  0.6082  0.6262 -2.2962
  773MOL0     H 6630   1.555   2.048   4.888 -1.8469  0.3731 -1.0410
  773MOL0     H 6631   1.407   1.962   4.853  0.2188  1.6729 -0.0797
  773MOL0     H 6632   1.753   2.034   4.969 -2.0368 -0.7248 -0.0315
  773MOL0     H 6633   2.077   1.963   5.115 -0.9460  0.4490  1.9622
  773MOL0     H 6634   1.990   2.122   5.092  0.9370  0.3376  3.5823
  773MOL0     H 6635   1.968   1.986   4.972 -0.7711 -1.7199  1.1363
  773MOL0     H 6636   2.203   1.610   5.415 -2.0479 -2.2829  0.6537
  773MOL0     H 6637   2.364   1.594   5.585 -0.4782 -0.0420 -0.8346
  773MOL0     H 6638   2.303   1.523   5.877  0.7002 -1.2825  3.3639
  773MOL0     H 6639   2.451   1.525   5.791  1.0427  1.5138 -0.5014
  773MOL0     H 6640   2.381   1.648   6.046 -0.1906  0.8616 -2.8803
  773MOL0     H 6641   2.453   1.486   6.041 -3.3362 -0.2633 -0.6179
  773MOL0     H 6642   2.598   1.745   5.954  0.5872 -0.0280  0.6298
  773MOL0     H 6643   2.673   1.581   5.953 -0.2587 -0.0948 -1.2381
  773MOL0     H 6644   2.646   1.551   6.191  3.7710 -0.5412  0.1124
  773MOL0     H 6645   2.554   1.703   6.204 -0.5698  0.8791 -0.3692
  773MOL0     H 6646   2.776   1.831   6.159  2.2720  0.8304  3.3101
  773MOL0     H 6647   2.777   1.724   6.303 -0.4655 -3.0705 -0.0456
  773MOL0     H 6648   2.845   1.552   6.137 -0.3320  0.1608  1.6485
  773MOL0     H 6649   2.969   1.636   6.223  0.1768  1.5649  1.0712
  773MOL0     H 6650   2.888   1.696   5.934 -1.4760 -2.1580  0.3976
  773MOL0     H 6651   3.043   1.634   5.994 -0.5831  0.5440 -2.0552
  773MOL0     H 6652   3.108   1.832   6.097  1.8727 -0.6001 -0.8776
  773MOL0     H 6653   2.946   1.904   6.067  0.5660 -1.4361  2.5669
  773MOL0     H 6654   2.115   1.845   5.835 -1.4573 -0.4789 -0.4209
  773MOL0     H 6655   1.955   1.872   5.649  0.3232  0.2677  0.1911
  773MOL0     H 6656   1.740   1.782   5.397  2.3932 -3.0808 -0.5046
  773MOL0     H 6657   1.527   1.816   5.250  0.3308 -0.9444 -2.5124
  773MOL0     H 6658   0.568   0.850   4.447  1.0213  1.6310 -3.2306
  773MOL0     H 6659   0.413   0.821   4.270  0.2163 -0.3366 -0.7359
  773MOL0     H 6660  -0.156   0.823   4.175 -1.9194 -0.0933 -0.8859
  773MOL0     H 6661  -0.278   0.800   3.999  1.2083 -1.4183  3.8178
  773MOL0     H 6662  -0.350   0.741   3.743  0.7776 -0.3622  2.1090
  773MOL0     H 6663  -0.422   0.879   3.805 -0.6897 -3.3620  0.1215
  773MOL0     H 6664  -0.466   0.966   3.576 -0.3900 -0.5279 -2.3026
  773MOL0     H 6665  -0.487   0.797   3.578  0.1620 -0.0006 -1.7325
  773MOL0     H 6666  -0.247   0.933   3.437  0.1347  0.6851 -1.2962
  773MOL0     H 6667  -0.277   0.757   3.475  1.6019 -0.2439 -1.8765
  773MOL0     H 6668  -0.336   0.830   3.245  0.8597 -0.3440  1.4172
  773MOL0     H 6669  -0.472   0.924   3.328  0.2825 -0.6833  1.0236
  773MOL0     H 6670  -0.642   0.556   3.332 -1.9919  2.0785  1.5828
  773MOL0     H 6671  -0.023   1.045   3.754 -4.6562  0.8442  0.2610
  773MOL0     H 6672   0.237   1.072   3.978 -0.8352  0.9538  0.2591
  773MOL0     H 6673   0.143   1.158   3.854 -2.7590  1.9274  0.3266
  773MOL0     H 6674   0.120   1.194   4.027  4.0631  0.3525  2.1429
  774MOL0     O 6675   9.041   4.712   2.145  0.0124  0.0455  0.6921
  774MOL0     C 6676   9.143   4.751   2.198  0.8103  0.3479 -0.3540
  774MOL0     O 6677   9.170   4.892   2.217  0.5084 -0.4522  0.3372
  774MOL0     C 6678   9.079   4.984   2.174 -0.8389  0.4228  0.4580
  774MOL0     C 6679   9.048   5.080   2.263 -0.1643  0.6210 -0.7977
  774MOL0     C 6680   8.957   5.178   2.236 -0.0963 -0.2039  0.2443
  774MOL0     C 6681   8.902   5.200   2.108 -0.7900 -0.2789  0.4929
  774MOL0     O 6682   8.807   5.298   2.086 -0.2375  0.3671 -0.2588
  774MOL0     C 6683   8.720   5.286   1.966 -0.5008 -0.9203  0.5313
  774MOL0     C 6684   8.593   5.377   1.968  0.1593  0.1717 -0.3296
  774MOL0     C 6685   8.492   5.322   1.853  0.2947 -0.6047 -0.6498
  774MOL0     C 6686   8.360   5.394   1.874  1.0547 -0.2899 -0.8235
  774MOL0     C 6687   8.263   5.356   1.764 -0.0956 -0.4255 -0.3007
  774MOL0     C 6688   8.136   5.428   1.791  0.1163  0.8345 -0.2092
  774MOL0     C 6689   8.023   5.404   1.686  0.1727  0.2452 -1.3207
  774MOL0     C 6690   7.910   5.503   1.704  0.5104 -0.2825  0.3124
  774MOL0     N 6691   7.783   5.448   1.646 -0.0352  0.8939 -0.5800
  774MOL0     C 6692   7.746   5.317   1.604 -0.4574  0.0865  0.0440
  774MOL0     C 6693   7.632   5.325   1.535  0.3239 -0.2473 -0.0284
  774MOL0     C 6694   7.551   5.218   1.470 -0.0481 -0.1611  0.5117
  774MOL0     C 6695   7.473   5.282   1.347 -0.1186  1.1851  0.0579
  774MOL0     C 6696   7.338   5.343   1.399 -0.3943  0.4346 -0.3374
  774MOL0     C 6697   7.283   5.441   1.298 -0.0013  0.4473  0.3217
  774MOL0     O 6698   7.258   5.375   1.170  0.3800 -0.2939  0.5163
  774MOL0     C 6699   7.180   5.438   1.074  0.0648  0.5993 -0.2425
  774MOL0     C 6700   7.138   5.569   1.089  0.1532 -0.6486  0.5809
  774MOL0     C 6701   7.023   5.624   1.027  0.8858  0.1225  0.3532
  774MOL0     C 6702   6.979   5.757   1.079 -0.0321  0.3572 -0.2872
  774MOL0     C 6703   6.963   5.547   0.930 -0.1636  0.0604  0.7331
  774MOL0     C 6704   6.851   5.593   0.845 -0.4294  0.2314  0.0010
  774MOL0     O 6705   6.749   5.511   0.827  0.3102 -0.1743 -0.8598
  774MOL0     C 6706   6.631   5.562   0.788 -0.2009  0.1623 -0.6046
  774MOL0     C 6707   6.520   5.553   0.870  0.4985  0.1172 -0.0662
  774MOL0     C 6708   6.393   5.606   0.833 -0.7484  0.2658 -0.2375
  774MOL0     C 6709   6.369   5.663   0.710 -0.7946 -0.4487 -0.0890
  774MOL0     O 6710   6.248   5.700   0.675  0.3677  0.1065  0.4427
  774MOL0     C 6711   6.223   5.741   0.536  0.4776 -0.2125  0.5472
  774MOL0     C 6712   6.068   5.784   0.527 -0.7602  0.4560  0.2783
  774MOL0     C 6713   6.029   5.790   0.379  0.2537 -0.6246  0.6901
  774MOL0     C 6714   6.022   5.946   0.335 -0.4129 -0.1658 -0.1914
  774MOL0     C 6715   5.939   5.971   0.212  0.6897 -0.0607  0.4584
  774MOL0     C 6716   5.904   6.118   0.200 -0.2930  0.3344  0.1594
  774MOL0     C 6717   5.844   6.149   0.058 -0.0209  0.4850  0.4470
  774MOL0     C 6718   5.789   6.286   0.046 -0.5259 -0.1197 -0.5584
  774MOL0    Cl 6719   5.877   6.420   0.137 -0.1674 -0.1587 -0.0641
  774MOL0     C 6720   6.483   5.661   0.627 -0.5296 -0.5184 -0.9845
  774MOL0     C 6721   6.606   5.613   0.665 -0.1133 -0.0973 -0.0257
  774MOL0     O 6722   6.859   5.709   0.801 -0.6375  0.0710 -0.5002
  774MOL0     C 6723   7.014   5.412   0.902  0.1725 -0.5168 -0.1487
  774MOL0     C 6724   7.121   5.356   0.984  0.4060 -0.5624  0.6190
  774MOL0     N 6725   7.584   5.453   1.569  0.1534  0.3176  0.5387
  774MOL0     N 6726   7.678   5.532   1.614  0.3808 -0.0176  0.0339
  774MOL0     C 6727   8.934   5.105   2.010 -0.0060 -0.9633 -1.0336
  774MOL0     C 6728   9.026   4.996   2.044 -0.3174  0.1068  1.0535
  774MOL0     C 6729   9.257   4.658   2.221  0.2510  0.1559  0.2252
  774MOL0     C 6730   9.279   4.552   2.136 -0.3462 -0.6002 -0.7226
  774MOL0     C 6731   9.397   4.477   2.139 -0.2497 -1.1004 -0.8473
  774MOL0     C 6732   9.494   4.514   2.241  0.7736  0.0080 -1.7803
  774MOL0     O 6733   9.593   4.419   2.250 -0.6624 -0.5026  0.5039
  774MOL0     C 6734   9.704   4.460   2.331 -0.1527 -0.0037 -0.6341
  774MOL0     C 6735   9.795   4.559   2.261 -0.0740 -1.1774  0.1699
  774MOL0     C 6736   9.845   4.511   2.124 -0.2157  0.4399  0.0293
  774MOL0     C 6737   9.974   4.575   2.077 -0.0373 -0.8078 -0.0567
  774MOL0     C 6738   9.994   4.719   2.101 -1.3467  0.6535 -0.4453
  774MOL0     C 6739  10.021   4.838   2.110 -0.5344 -0.1771 -0.0117
  774MOL0     C 6740   9.466   4.616   2.330  1.1931 -0.5776  0.3995
  774MOL0     C 6741   9.346   4.686   2.325  0.3472 -0.4494  0.5949
  774MOL0     C 6742   9.317   4.773   2.445 -0.9129  0.0721 -0.1844
  774MOL0     H 6743   9.107   5.066   2.352  0.0455  1.6333 -0.7670
  774MOL0     H 6744   8.927   5.246   2.315  0.5005  0.7072 -0.2972
  774MOL0     H 6745   8.689   5.181   1.961  0.4737 -1.1506 -1.4532
  774MOL0     H 6746   8.782   5.305   1.878 -2.5485  1.2469 -0.5632
  774MOL0     H 6747   8.543   5.365   2.064 -3.3078 -0.6566 -2.0713
  774MOL0     H 6748   8.619   5.483   1.958 -3.5616  1.6121  2.5106
  774MOL0     H 6749   8.531   5.354   1.756  3.0535 -0.8774  0.2938
  774MOL0     H 6750   8.496   5.213   1.846  0.9852 -0.5443 -1.3957
  774MOL0     H 6751   8.321   5.362   1.971 -1.9170  0.1600 -1.7467
  774MOL0     H 6752   8.370   5.503   1.872 -1.7519  0.0791  0.1889
  774MOL0     H 6753   8.247   5.247   1.765  4.2075 -1.2465 -0.8684
  774MOL0     H 6754   8.307   5.373   1.665 -2.1827  1.5214 -0.9753
  774MOL0     H 6755   8.100   5.386   1.885 -2.4451 -1.9732 -2.2361
  774MOL0     H 6756   8.151   5.536   1.799  1.9832  0.5853  0.0126
  774MOL0     H 6757   7.989   5.303   1.709  2.0234  0.2312  1.8228
  774MOL0     H 6758   8.065   5.408   1.585 -0.0511  2.0173 -1.3808
  774MOL0     H 6759   7.897   5.493   1.812 -0.5078  0.6674  0.2947
  774MOL0     H 6760   7.925   5.605   1.668 -0.8508 -0.8121 -1.9373
  774MOL0     H 6761   7.804   5.224   1.606  0.7042  0.7401 -1.5489
  774MOL0     H 6762   7.484   5.160   1.534 -3.4902  0.2597 -2.3367
  774MOL0     H 6763   7.616   5.142   1.424  2.3957  2.2347 -0.2245
  774MOL0     H 6764   7.540   5.358   1.307  0.9315 -0.7127 -2.0000
  774MOL0     H 6765   7.461   5.217   1.260  3.2421  0.9402 -0.3430
  774MOL0     H 6766   7.279   5.255   1.426  0.1692  0.6095  1.6675
  774MOL0     H 6767   7.344   5.386   1.500  1.9220 -2.2708  0.8236
  774MOL0     H 6768   7.184   5.478   1.327  0.4036  0.9324  1.1283
  774MOL0     H 6769   7.355   5.519   1.270 -1.9621  2.3643  0.3146
  774MOL0     H 6770   7.185   5.629   1.165 -1.2862 -1.6041  2.3099
  774MOL0     H 6771   7.042   5.832   1.029  0.5804  1.5351  2.0928
  774MOL0     H 6772   7.012   5.766   1.183  0.3761 -2.1969 -0.1385
  774MOL0     H 6773   6.871   5.770   1.067  0.1464  1.7571 -0.5359
  774MOL0     H 6774   6.533   5.499   0.963  1.5304  2.9205  1.5564
  774MOL0     H 6775   6.324   5.592   0.915  1.3422  0.7393  1.6804
  774MOL0     H 6776   6.295   5.817   0.503  1.4158 -1.2425  0.1452
  774MOL0     H 6777   6.242   5.658   0.467  1.3768  0.3328  0.1133
  774MOL0     H 6778   6.002   5.712   0.575 -2.6423  0.9638 -1.4124
  774MOL0     H 6779   6.056   5.880   0.578  0.5442  1.6205 -1.4775
  774MOL0     H 6780   5.936   5.732   0.373  0.2191 -0.8969  2.8956
  774MOL0     H 6781   6.100   5.741   0.313 -0.9065  2.4447 -3.2489
  774MOL0     H 6782   6.124   5.983   0.325 -0.0965 -0.1314  2.6164
  774MOL0     H 6783   5.971   6.002   0.413 -1.6879  0.9151 -1.7250
  774MOL0     H 6784   6.002   5.945   0.126  4.1243 -1.3264  3.1141
  774MOL0     H 6785   5.856   5.900   0.214 -0.2915  0.9423 -1.5352
  774MOL0     H 6786   5.985   6.186   0.229 -0.2792  0.7827 -0.8804
  774MOL0     H 6787   5.829   6.135   0.279  0.6511 -0.2612  1.2152
  774MOL0     H 6788   5.771   6.070   0.041  0.2819  0.6069 -1.6838
  774MOL0     H 6789   5.907   6.124  -0.028 -1.5641 -1.0741 -0.2810
  774MOL0     H 6790   5.689   6.288   0.090 -1.7021  0.1501 -3.0621
  774MOL0     H 6791   5.779   6.323  -0.057 -0.5852  3.9417  0.7179
  774MOL0     H 6792   6.476   5.704   0.528 -0.5028 -1.9192 -1.6299
  774MOL0     H 6793   6.685   5.626   0.592 -1.8736 -1.4739 -2.2976
  774MOL0     H 6794   6.966   5.349   0.827 -0.2734 -1.2673  0.7423
  774MOL0     H 6795   7.167   5.258   0.977 -0.0481 -0.6849 -0.9383
  774MOL0     H 6796   8.891   5.100   1.910 -0.1876 -2.0238 -0.9083
  774MOL0     H 6797   9.047   4.929   1.961  0.2645  0.0148  1.2698
  774MOL0     H 6798   9.205   4.531   2.059 -1.9203  3.2183 -0.4784
  774MOL0     H 6799   9.415   4.402   2.062 -3.6249 -1.5571 -1.3350
  774MOL0     H 6800   9.663   4.506   2.421 -0.9106  0.0502 -0.9975
  774MOL0     H 6801   9.768   4.375   2.359 -0.1691 -0.6150 -2.3079
  774MOL0     H 6802   9.884   4.592   2.316 -1.0337  1.8153  0.0723
  774MOL0     H 6803   9.732   4.647   2.247 -1.1433 -1.5330  2.4205
  774MOL0     H 6804   9.891   4.412   2.121  2.4619  1.6162 -0.7201
  774MOL0     H 6805   9.769   4.523   2.047 -1.4563 -1.4490  0.8946
  774MOL0     H 6806   9.995   4.559   1.971  2.4266  0.0412  0.2273
  774MOL0     H 6807  10.052   4.526   2.137  0.3607  0.8286  0.8273
  774MOL0     H 6808  10.059   4.938   2.117  3.2062 -1.5758  2.2622
  774MOL0     H 6809   9.535   4.640   2.410  2.1962 -1.8651 -0.0329
  774MOL0     H 6810   9.345   4.720   2.537  1.5974  1.2339 -0.1949
  774MOL0     H 6811   9.375   4.866   2.447 -2.8480  1.3288  0.3516
  774MOL0     H 6812   9.215   4.812   2.449 -0.1276  2.3994 -1.4159
  775MOL0     O 6813   7.473   5.871  10.416 -0.3148  0.3132 -0.6986
  775MOL0     C 6814   7.439   5.982  10.414  0.2618  0.1289  0.3415
  775MOL0     O 6815   7.320   6.030  10.366  0.0356  0.4560  0.1744
  775MOL0     C 6816   7.237   5.958  10.275 -0.2482  0.3477 -1.8619
  775MOL0     C 6817   7.236   5.819  10.248 -0.6274  0.1360  0.7625
  775MOL0     C 6818   7.143   5.759  10.160  0.8474  0.1323  1.0840
  775MOL0     C 6819   7.040   5.829  10.111  0.1578  0.6950 -0.3832
  775MOL0     O 6820   6.934   5.770  10.045 -0.0811 -0.1272 -0.6188
  775MOL0     C 6821   6.975   5.678   9.940  0.2850 -0.7649  0.8252
  775MOL0     C 6822   6.851   5.616   9.891  0.0954  0.7413  0.6294
  775MOL0     C 6823   6.876   5.528   9.775 -0.2943  0.5037 -0.8848
  775MOL0     C 6824   6.957   5.411   9.823  0.3169 -0.4289  0.6715
  775MOL0     C 6825   6.955   5.299   9.724  0.1570  0.0616 -0.1692
  775MOL0     C 6826   7.059   5.317   9.610 -0.3510 -0.9105  0.5794
  775MOL0     C 6827   7.091   5.182   9.544  0.6437  0.1108  1.1838
  775MOL0     C 6828   7.184   5.095   9.630 -0.4462  0.0637 -0.3231
  775MOL0     N 6829   7.170   4.966   9.571  0.1577 -0.0543  0.4248
  775MOL0     C 6830   7.067   4.872   9.583 -0.2456  0.5082  0.3164
  775MOL0     C 6831   7.077   4.789   9.483 -0.0727  0.5420 -0.3245
  775MOL0     C 6832   6.980   4.668   9.450 -0.0609  0.0720 -0.0952
  775MOL0     C 6833   6.892   4.687   9.324 -0.3343 -0.3989 -0.6596
  775MOL0     C 6834   6.822   4.556   9.317  0.3141  1.2237  1.1990
  775MOL0     C 6835   6.745   4.535   9.193  0.7951 -0.2783 -0.0164
  775MOL0     O 6836   6.824   4.551   9.071  0.2382  0.1044  0.6565
  775MOL0     C 6837   6.755   4.525   8.953  0.4459 -1.0842 -0.4103
  775MOL0     C 6838   6.829   4.538   8.836 -0.0115 -0.4886 -0.6224
  775MOL0     C 6839   6.780   4.504   8.710 -0.0338  0.6852  0.2540
  775MOL0     C 6840   6.883   4.503   8.603 -0.1708  1.1180 -0.8195
  775MOL0     C 6841   6.635   4.476   8.700 -0.3559  0.2865  0.2709
  775MOL0     C 6842   6.562   4.472   8.573 -0.5057 -0.3144  0.3574
  775MOL0     O 6843   6.637   4.498   8.468  0.4883 -0.4491  0.0119
  775MOL0     C 6844   6.583   4.496   8.343 -0.8109 -0.5051 -0.8949
  775MOL0     C 6845   6.548   4.620   8.285  1.1225 -0.7149 -0.1408
  775MOL0     C 6846   6.508   4.637   8.156 -0.7855  0.3057  0.6798
  775MOL0     C 6847   6.523   4.516   8.076  0.2669 -0.1424 -0.1186
  775MOL0     O 6848   6.518   4.521   7.937  0.2256 -0.6949 -0.1815
  775MOL0     C 6849   6.433   4.625   7.886  0.0144 -0.2782  1.0681
  775MOL0     C 6850   6.429   4.592   7.737  1.0608  0.6222 -0.6555
  775MOL0     C 6851   6.512   4.687   7.656 -0.1120 -1.1586 -0.4876
  775MOL0     C 6852   6.513   4.692   7.505 -0.3944  0.3987 -0.3697
  775MOL0     C 6853   6.639   4.763   7.460  0.5010 -0.1925 -0.2093
  775MOL0     C 6854   6.642   4.914   7.494  0.8302 -0.1084 -0.3870
  775MOL0     C 6855   6.760   4.975   7.409 -0.4064 -0.1964 -0.2419
  775MOL0     C 6856   6.780   5.129   7.421  0.7468  0.6115  1.3053
  775MOL0    Cl 6857   6.838   5.152   7.586  0.1334  0.0243  0.0340
  775MOL0     C 6858   6.574   4.394   8.130  0.4137 -0.4079  0.8018
  775MOL0     C 6859   6.598   4.383   8.263 -0.0863 -0.2404  0.6745
  775MOL0     O 6860   6.446   4.434   8.565 -0.3664 -0.5896  0.1520
  775MOL0     C 6861   6.562   4.484   8.817  0.3342  0.5235  0.0234
  775MOL0     C 6862   6.618   4.504   8.939  0.2510 -0.8782 -0.0904
  775MOL0     N 6863   7.187   4.830   9.418  0.6489 -0.2751  0.6003
  775MOL0     N 6864   7.243   4.930   9.460  0.4241 -0.1973 -0.0598
  775MOL0     C 6865   7.030   5.964  10.134  0.3167 -0.8616  0.2992
  775MOL0     C 6866   7.117   6.023  10.225  0.0960  0.1495  0.3300
  775MOL0     C 6867   7.540   6.076  10.491 -0.2931  0.3198  0.2258
  775MOL0     C 6868   7.615   6.019  10.597 -0.2293 -0.1980  0.6152
  775MOL0     C 6869   7.703   6.104  10.673  0.1041 -1.3272  0.2359
  775MOL0     C 6870   7.705   6.245  10.653 -0.0265  0.0777 -0.0793
  775MOL0     O 6871   7.792   6.326  10.722 -0.1368  0.9623  0.1346
  775MOL0     C 6872   7.838   6.278  10.856  0.8020 -0.3189  0.2868
  775MOL0     C 6873   7.914   6.391  10.916 -0.1400 -0.4290 -0.4819
  775MOL0     C 6874   7.813   6.493  10.983 -0.3762 -0.0487  0.1162
  775MOL0     C 6875   7.765   6.452  11.120 -0.4861  0.2232  0.0253
  775MOL0     C 6876   7.707   6.577  11.170 -0.3094  0.0674 -0.6010
  775MOL0     C 6877   7.677   6.689  11.200  0.5312 -0.8897  0.7827
  775MOL0     C 6878   7.644   6.290  10.544 -0.5549 -0.2895 -0.2588
  775MOL0     C 6879   7.558   6.213  10.464 -1.0010  0.5786  0.2968
  775MOL0     C 6880   7.494   6.283  10.347 -0.1207  0.2555 -0.0608
  775MOL0     H 6881   7.316   5.756  10.283  0.5849  1.1490 -0.1071
  775MOL0     H 6882   7.157   5.656  10.132 -1.6622 -0.1853  0.7322
  775MOL0     H 6883   7.038   5.598   9.979  0.7479  0.6853  3.2560
  775MOL0     H 6884   7.017   5.741   9.861 -3.9291  1.1375 -0.1959
  775MOL0     H 6885   6.811   5.564   9.979 -3.1658  3.5798  1.0223
  775MOL0     H 6886   6.782   5.694   9.858 -0.0253  1.4474  2.3992
  775MOL0     H 6887   6.775   5.493   9.751 -1.5325  1.3493  2.4498
  775MOL0     H 6888   6.930   5.572   9.691 -1.5497 -1.9485 -3.1388
  775MOL0     H 6889   7.061   5.445   9.832  0.3371 -0.1205 -0.5560
  775MOL0     H 6890   6.925   5.371   9.920 -0.3315  0.4511  0.8398
  775MOL0     H 6891   6.856   5.298   9.676  0.0528 -0.6883  0.0559
  775MOL0     H 6892   6.961   5.200   9.770  1.1792  0.8089  1.3623
  775MOL0     H 6893   7.019   5.390   9.539 -2.9636 -0.6826  2.1445
  775MOL0     H 6894   7.143   5.357   9.666 -2.2276  0.5541  2.5130
  775MOL0     H 6895   7.123   5.193   9.440 -1.6517  0.3469  0.4440
  775MOL0     H 6896   6.998   5.125   9.536  1.9822 -2.3559  2.2913
  775MOL0     H 6897   7.285   5.136   9.636 -0.2211 -0.6975  2.3376
  775MOL0     H 6898   7.146   5.102   9.733 -2.6932  0.4903 -1.1187
  775MOL0     H 6899   6.984   4.878   9.653  1.1128  2.8443  1.8876
  775MOL0     H 6900   6.918   4.638   9.536 -1.6179 -3.7882 -2.2918
  775MOL0     H 6901   7.042   4.578   9.456  0.9290  0.7787  0.5976
  775MOL0     H 6902   6.819   4.767   9.345  1.0772  0.3157  1.9628
  775MOL0     H 6903   6.952   4.710   9.236 -0.9283  1.3918 -0.6376
  775MOL0     H 6904   6.895   4.475   9.330 -3.8131 -3.1869 -0.2395
  775MOL0     H 6905   6.746   4.567   9.395 -3.1687  3.8774 -2.1994
  775MOL0     H 6906   6.685   4.443   9.192  0.9226 -0.3881  1.0902
  775MOL0     H 6907   6.676   4.619   9.181  0.3346 -0.5411  0.7388
  775MOL0     H 6908   6.933   4.568   8.850 -0.3690 -0.0963  1.5897
  775MOL0     H 6909   6.875   4.411   8.544 -1.7636 -0.0090  1.0417
  775MOL0     H 6910   6.984   4.513   8.645 -1.3145 -1.6711  3.1345
  775MOL0     H 6911   6.882   4.584   8.529 -0.2263  1.3324 -0.5847
  775MOL0     H 6912   6.532   4.710   8.344 -1.1531 -0.3619 -1.2006
  775MOL0     H 6913   6.474   4.732   8.116 -0.1526  0.4308  0.4344
  775MOL0     H 6914   6.334   4.616   7.930 -1.3749  1.0581 -1.5268
  775MOL0     H 6915   6.473   4.724   7.909 -1.9384  0.3884  1.8242
  775MOL0     H 6916   6.461   4.491   7.714  0.5106  0.6653 -1.6720
  775MOL0     H 6917   6.320   4.596   7.724  0.8255  3.1831  1.0950
  775MOL0     H 6918   6.618   4.674   7.681 -0.3017 -1.5416  0.1238
  775MOL0     H 6919   6.487   4.791   7.680 -2.0114 -1.5122 -0.7716
  775MOL0     H 6920   6.417   4.734   7.477 -0.6650  0.7982  1.1032
  775MOL0     H 6921   6.516   4.588   7.471  0.0010  0.4782 -0.5894
  775MOL0     H 6922   6.722   4.714   7.513 -0.3015 -1.2006  0.1378
  775MOL0     H 6923   6.656   4.730   7.357 -3.6297 -2.9956 -0.2201
  775MOL0     H 6924   6.642   4.930   7.602 -0.3698 -0.5094 -0.3051
  775MOL0     H 6925   6.552   4.966   7.461  0.1170 -3.3515 -4.4095
  775MOL0     H 6926   6.744   4.958   7.302  1.6272  0.9711 -0.7945
  775MOL0     H 6927   6.855   4.923   7.431 -1.1971 -1.3445  0.6005
  775MOL0     H 6928   6.686   5.184   7.414  2.0888  3.1489  1.7035
  775MOL0     H 6929   6.854   5.162   7.348  1.6267 -1.9584  0.9399
  775MOL0     H 6930   6.601   4.314   8.062 -0.9502 -1.5851  1.5904
  775MOL0     H 6931   6.626   4.292   8.315 -0.7818  0.7788  2.9950
  775MOL0     H 6932   6.454   4.474   8.813  0.2613  0.9700  0.6447
  775MOL0     H 6933   6.554   4.508   9.027  1.2447  1.2816  0.6133
  775MOL0     H 6934   6.959   6.018  10.072  1.2399  0.5553  0.4404
  775MOL0     H 6935   7.089   6.123  10.257  0.2142  0.1974  0.2870
  775MOL0     H 6936   7.602   5.914  10.620 -0.0133  0.2736  3.1923
  775MOL0     H 6937   7.759   6.058  10.754  0.9656  1.7209  1.5266
  775MOL0     H 6938   7.757   6.246  10.921  3.2969 -3.8093  2.0099
  775MOL0     H 6939   7.906   6.193  10.848  3.5338  1.7761 -0.1324
  775MOL0     H 6940   7.963   6.447  10.836  2.6665  1.8863  2.5851
  775MOL0     H 6941   7.988   6.343  10.981 -0.4585 -0.7761 -0.3706
  775MOL0     H 6942   7.849   6.596  10.980 -2.9728  0.9444 -0.3774
  775MOL0     H 6943   7.725   6.491  10.918  0.9916  1.6651 -1.9116
  775MOL0     H 6944   7.841   6.423  11.193 -1.6920 -3.2932  0.0879
  775MOL0     H 6945   7.697   6.367  11.108  2.7072 -2.1231 -3.4383
  775MOL0     H 6946   7.637   6.784  11.226 -0.6635 -1.4517  1.0732
  775MOL0     H 6947   7.650   6.394  10.517 -0.0270 -0.4479 -0.7669
  775MOL0     H 6948   7.572   6.317  10.279  0.2787  0.7770  0.6435
  775MOL0     H 6949   7.429   6.219  10.287  0.0900 -1.2115  1.2084
  775MOL0     H 6950   7.446   6.378  10.374  3.6352  2.1913  0.4551
  776MOL0     O 6951   3.452   8.333   2.988 -0.0895  0.2458  0.4428
  776MOL0     C 6952   3.567   8.327   2.947 -0.2867 -0.2659 -0.3352
  776MOL0     O 6953   3.627   8.419   2.875 -0.4713 -0.2048 -0.5767
  776MOL0     C 6954   3.558   8.539   2.848  0.0087  0.4270  0.2356
  776MOL0     C 6955   3.519   8.629   2.944  0.6354 -0.1058 -0.0572
  776MOL0     C 6956   3.465   8.751   2.914  1.0992 -0.1260  0.8349
  776MOL0     C 6957   3.443   8.787   2.780  0.2894 -0.9783 -0.2378
  776MOL0     O 6958   3.364   8.901   2.768 -0.0578  0.3191  0.3456
  776MOL0     C 6959   3.278   8.900   2.652  0.6382  0.5330 -0.0749
  776MOL0     C 6960   3.144   8.969   2.686  1.0743  0.0027  0.6207
  776MOL0     C 6961   3.159   9.112   2.694 -0.3535 -0.0403 -0.2914
  776MOL0     C 6962   3.027   9.180   2.736 -0.2589  0.5203  0.2299
  776MOL0     C 6963   2.965   9.273   2.636  0.3066 -0.6611 -0.8880
  776MOL0     C 6964   3.065   9.394   2.605 -0.1239  0.0613 -0.3656
  776MOL0     C 6965   3.008   9.493   2.500  0.2601  0.2035 -0.0541
  776MOL0     C 6966   2.962   9.433   2.368  0.5251 -0.0970  0.3406
  776MOL0     N 6967   3.065   9.356   2.307  0.4414  0.6033 -0.3096
  776MOL0     C 6968   3.075   9.216   2.297  0.4546 -1.0949  0.2716
  776MOL0     C 6969   3.159   9.188   2.194 -0.3950 -0.7929 -0.3522
  776MOL0     C 6970   3.203   9.058   2.143  0.1124 -0.0796 -0.1350
  776MOL0     C 6971   3.081   8.961   2.129 -0.1451  0.0701  0.0276
  776MOL0     C 6972   2.977   8.985   2.027  0.5028  0.8646 -1.3500
  776MOL0     C 6973   2.913   9.124   2.026  0.5188  0.5145 -0.2789
  776MOL0     O 6974   2.793   9.114   1.954  0.4044 -0.7465 -0.1415
  776MOL0     C 6975   2.796   9.085   1.822  0.2919 -0.5574 -0.2549
  776MOL0     C 6976   2.872   9.165   1.741  0.6944 -0.4711  0.0773
  776MOL0     C 6977   2.888   9.148   1.601  0.5132  1.2542 -0.0638
  776MOL0     C 6978   3.003   9.217   1.544  0.2608  0.9362 -0.0747
  776MOL0     C 6979   2.814   9.042   1.541 -0.0215 -0.8564  0.7812
  776MOL0     C 6980   2.816   9.024   1.391 -0.9725 -0.3430  0.7257
  776MOL0     O 6981   2.804   8.894   1.345  0.1900 -0.3453 -0.3292
  776MOL0     C 6982   2.851   8.838   1.235 -1.0493  0.4881 -0.0290
  776MOL0     C 6983   2.890   8.902   1.121 -0.8964  0.3775  0.1028
  776MOL0     C 6984   2.942   8.835   1.010  0.0262  0.2943  0.3856
  776MOL0     C 6985   2.970   8.690   1.027  0.2570 -0.1912 -0.2100
  776MOL0     O 6986   3.033   8.634   0.921  0.0630  0.0177  0.5220
  776MOL0     C 6987   3.028   8.491   0.894  0.3166  0.6230  0.2025
  776MOL0     C 6988   3.162   8.420   0.925 -0.3694  0.1304  0.0685
  776MOL0     C 6989   3.277   8.454   0.833 -0.2186 -0.2752  0.1084
  776MOL0     C 6990   3.388   8.350   0.847  0.0537  0.0589  0.5527
  776MOL0     C 6991   3.476   8.375   0.725 -0.0691 -0.5717 -0.6441
  776MOL0     C 6992   3.562   8.256   0.697  0.7678 -0.8050  0.6275
  776MOL0     C 6993   3.635   8.273   0.569 -0.3396  0.9909  0.7091
  776MOL0     C 6994   3.751   8.172   0.563 -0.0809  0.3534  0.3262
  776MOL0    Cl 6995   3.858   8.211   0.696 -0.3313 -0.2213  0.4084
  776MOL0     C 6996   2.923   8.626   1.140  0.2511  0.4176 -0.0651
  776MOL0     C 6997   2.872   8.697   1.243 -0.2213  0.3294 -0.0785
  776MOL0     O 6998   2.829   9.126   1.321 -0.0612  0.5271 -0.1369
  776MOL0     C 6999   2.740   8.943   1.621 -0.0925 -0.6090  0.4468
  776MOL0     C 7000   2.737   8.970   1.754  0.7972 -0.6553 -0.9001
  776MOL0     N 7001   3.217   9.308   2.157  0.0472  0.5950  0.6312
  776MOL0     N 7002   3.156   9.407   2.223 -0.6562  0.9435  0.5912
  776MOL0     C 7003   3.488   8.696   2.683  0.7502  0.0401  0.0815
  776MOL0     C 7004   3.552   8.579   2.714  0.2074  0.2862 -0.5284
  776MOL0     C 7005   3.643   8.195   2.969  0.0073  0.4348  0.4126
  776MOL0     C 7006   3.761   8.181   2.892 -0.6209  0.3299 -0.2760
  776MOL0     C 7007   3.829   8.058   2.899 -0.5214 -0.1202 -0.0696
  776MOL0     C 7008   3.782   7.951   2.978 -0.2619  0.6525  0.0922
  776MOL0     O 7009   3.840   7.827   2.974  0.2755 -0.1144 -0.1431
  776MOL0     C 7010   3.935   7.798   2.871 -0.6107  0.0950  0.2784
  776MOL0     C 7011   3.986   7.665   2.867 -0.2131  0.9560  0.0961
  776MOL0     C 7012   4.030   7.614   3.004 -0.6994  0.1332  0.2734
  776MOL0     C 7013   4.085   7.477   2.992  0.2675 -0.0245  0.3042
  776MOL0     C 7014   3.990   7.371   3.030  0.1110  0.4039 -0.6740
  776MOL0     C 7015   3.920   7.272   3.061 -0.3155 -0.1908  0.3942
  776MOL0     C 7016   3.664   7.964   3.048 -0.2331  0.5600 -0.3370
  776MOL0     C 7017   3.596   8.083   3.048  0.3365  0.7169 -0.2819
  776MOL0     C 7018   3.471   8.096   3.133 -0.1251 -0.0242  0.4574
  776MOL0     H 7019   3.530   8.598   3.047 -1.3817 -0.8615 -0.0274
  776MOL0     H 7020   3.434   8.817   2.994  1.5339 -1.1945  1.9277
  776MOL0     H 7021   3.251   8.801   2.616 -2.0673  0.8727  0.7810
  776MOL0     H 7022   3.334   8.953   2.574 -0.6806  0.9095 -0.7905
  776MOL0     H 7023   3.075   8.943   2.605 -0.5921  3.6405  0.6615
  776MOL0     H 7024   3.101   8.927   2.777  0.8090  0.0445  0.5181
  776MOL0     H 7025   3.222   9.130   2.782  1.9189 -2.5218 -1.2795
  776MOL0     H 7026   3.192   9.148   2.597 -3.4498 -3.0877 -2.7440
  776MOL0     H 7027   2.957   9.099   2.757 -0.7590  1.4285  2.3377
  776MOL0     H 7028   3.044   9.243   2.823 -1.4065  0.2757  0.6492
  776MOL0     H 7029   2.874   9.308   2.687  0.2464 -0.1223 -1.3527
  776MOL0     H 7030   2.933   9.225   2.543 -1.2148  0.2372 -0.8656
  776MOL0     H 7031   3.069   9.439   2.705 -1.5234 -2.5404  0.9822
  776MOL0     H 7032   3.163   9.360   2.574 -0.5972 -3.2265  1.2960
  776MOL0     H 7033   3.082   9.573   2.490  0.5164 -0.1680 -1.2102
  776MOL0     H 7034   2.920   9.541   2.544 -0.6674 -1.5026  0.0770
  776MOL0     H 7035   2.874   9.375   2.397 -0.1487  2.0111  2.9494
  776MOL0     H 7036   2.921   9.506   2.297 -0.2471 -0.8946 -0.0391
  776MOL0     H 7037   3.000   9.153   2.343  0.6548 -1.3754  0.2114
  776MOL0     H 7038   3.254   9.004   2.224 -0.3608  1.5883  1.3227
  776MOL0     H 7039   3.265   9.060   2.053  3.2544  3.6785  1.8299
  776MOL0     H 7040   3.128   8.864   2.108  0.1880  0.1353  0.4608
  776MOL0     H 7041   3.032   8.955   2.226 -3.0603  1.7516 -1.2229
  776MOL0     H 7042   3.017   8.975   1.926  1.1028  2.7158 -1.3319
  776MOL0     H 7043   2.908   8.901   2.036  0.5194  0.8285 -1.5604
  776MOL0     H 7044   2.887   9.162   2.125  0.0692 -0.3107 -0.0702
  776MOL0     H 7045   2.982   9.197   1.983  0.4593  0.6119 -0.2090
  776MOL0     H 7046   2.926   9.253   1.775 -3.2797  3.6755 -3.0221
  776MOL0     H 7047   3.071   9.160   1.479  0.0059 -1.2665  1.4743
  776MOL0     H 7048   3.076   9.248   1.619 -1.1429  1.9311  0.9161
  776MOL0     H 7049   2.967   9.306   1.493 -5.2465  1.1199  3.4138
  776MOL0     H 7050   2.875   9.008   1.104 -2.9180  0.1018 -0.0602
  776MOL0     H 7051   2.975   8.889   0.922  1.9152  1.4179  1.7124
  776MOL0     H 7052   2.942   8.439   0.936 -0.0178  0.6064 -0.4754
  776MOL0     H 7053   3.005   8.489   0.787 -1.6773  4.8032  0.3563
  776MOL0     H 7054   3.177   8.431   1.033 -2.4250  0.3018  0.3711
  776MOL0     H 7055   3.134   8.315   0.910 -1.2461 -0.1112  2.8928
  776MOL0     H 7056   3.322   8.548   0.867  0.5363 -0.4317 -0.4266
  776MOL0     H 7057   3.236   8.471   0.733 -0.1287  2.4554  0.4804
  776MOL0     H 7058   3.337   8.253   0.843  0.3350 -0.0674 -0.0178
  776MOL0     H 7059   3.442   8.361   0.942 -2.5379  1.8121  1.9376
  776MOL0     H 7060   3.422   8.391   0.631  0.6415 -1.0486 -1.1392
  776MOL0     H 7061   3.533   8.466   0.747 -0.6585 -0.9348  2.9598
  776MOL0     H 7062   3.506   8.162   0.705  0.7543 -0.6464  3.1443
  776MOL0     H 7063   3.629   8.258   0.783  2.2587  0.2862 -0.4995
  776MOL0     H 7064   3.688   8.368   0.578  1.5418 -0.1678  4.0453
  776MOL0     H 7065   3.572   8.264   0.481  0.2058 -0.8064  0.4582
  776MOL0     H 7066   3.796   8.170   0.463 -1.2229 -1.4352 -0.2064
  776MOL0     H 7067   3.710   8.071   0.573  0.9250 -1.2500 -6.5290
  776MOL0     H 7068   2.928   8.518   1.146  1.3091  0.4722  0.2880
  776MOL0     H 7069   2.850   8.635   1.329 -0.1879 -2.2541 -1.7928
  776MOL0     H 7070   2.704   8.851   1.576  0.9213 -0.2299 -1.2219
  776MOL0     H 7071   2.686   8.903   1.822  0.3680 -1.9550 -2.4503
  776MOL0     H 7072   3.480   8.713   2.576 -1.6959 -4.4678 -0.7254
  776MOL0     H 7073   3.607   8.518   2.643 -0.1238  0.3893 -0.8817
  776MOL0     H 7074   3.794   8.263   2.829 -2.9528  1.5818  0.0493
  776MOL0     H 7075   3.917   8.054   2.836 -0.4584  0.5119 -0.0279
  776MOL0     H 7076   3.881   7.811   2.777 -4.0480 -1.1332  1.9165
  776MOL0     H 7077   4.021   7.865   2.883  0.5371 -0.9543 -1.5484
  776MOL0     H 7078   4.072   7.661   2.800 -0.3908  2.3221 -0.2566
  776MOL0     H 7079   3.911   7.592   2.834  1.1957 -0.4572 -0.0789
  776MOL0     H 7080   4.110   7.684   3.028  1.5632 -2.4753  0.7475
  776MOL0     H 7081   3.941   7.611   3.069 -0.7985 -2.1988  0.0873
  776MOL0     H 7082   4.176   7.470   3.052 -0.3989  0.0695  1.3539
  776MOL0     H 7083   4.114   7.464   2.888  1.2614 -2.4304  0.8131
  776MOL0     H 7084   3.859   7.186   3.080 -0.3513 -0.6057 -1.4242
  776MOL0     H 7085   3.607   7.881   3.088 -2.0415  0.4915 -2.7685
  776MOL0     H 7086   3.381   8.114   3.072 -0.9217 -0.3999  1.4843
  776MOL0     H 7087   3.456   8.003   3.188  0.8353 -0.2722  0.3076
  776MOL0     H 7088   3.474   8.183   3.200 -2.0574 -1.1648  2.1363
  777MOL0     O 7089   9.954  10.697   6.240 -0.2790 -0.5331  0.0264
  777MOL0     C 7090  10.052  10.673   6.320  0.0043  0.7715  0.9392
  777MOL0     O 7091  10.051  10.592   6.425  0.1106 -0.2458 -0.5905
  777MOL0     C 7092   9.949  10.506   6.433 -1.0370  0.2128  0.3239
  777MOL0     C 7093   9.971  10.365   6.465  0.0350  0.4649  0.2108
  777MOL0     C 7094   9.856  10.282   6.495 -0.3995  0.2182  1.2401
  777MOL0     C 7095   9.725  10.338   6.502 -0.9097 -0.3241 -0.8073
  777MOL0     O 7096   9.622  10.252   6.522  0.9339  1.4784 -0.0497
  777MOL0     C 7097   9.511  10.292   6.605  0.0920  0.2822 -0.3896
  777MOL0     C 7098   9.414  10.179   6.641 -1.1680  0.0258 -1.0239
  777MOL0     C 7099   9.279  10.225   6.703  0.2425 -0.3408  0.0674
  777MOL0     C 7100   9.182  10.117   6.723 -0.1361 -0.1123 -0.1637
  777MOL0     C 7101   9.074  10.146   6.826 -0.0684 -0.3906 -0.8689
  777MOL0     C 7102   8.989  10.023   6.855 -0.6721  0.4275  0.0361
  777MOL0     C 7103   8.843  10.059   6.874  0.3654 -0.1480  0.7714
  777MOL0     C 7104   8.762   9.937   6.896  0.3383 -0.3550  0.2912
  777MOL0     N 7105   8.630   9.955   6.964  0.1554 -1.0323 -0.6280
  777MOL0     C 7106   8.506   9.910   6.923  0.5731 -0.2259  0.2701
  777MOL0     C 7107   8.417   9.963   7.012  0.1014 -0.7280  0.2694
  777MOL0     C 7108   8.270   9.933   7.025  0.1636 -0.3478  0.1888
  777MOL0     C 7109   8.250   9.816   7.116 -0.0379 -0.2638 -0.3354
  777MOL0     C 7110   8.095   9.778   7.119  0.6053 -0.0088 -0.0683
  777MOL0     C 7111   8.055   9.679   7.015  0.7883  0.4408  0.8101
  777MOL0     O 7112   8.093   9.722   6.879 -0.6078  0.2546 -0.1491
  777MOL0     C 7113   8.132   9.610   6.806 -0.1556  0.6166 -0.3448
  777MOL0     C 7114   8.050   9.493   6.810  0.7491 -0.0298 -0.0219
  777MOL0     C 7115   8.078   9.375   6.738 -0.1936 -0.0747 -1.1471
  777MOL0     C 7116   7.983   9.256   6.742  0.1215 -0.0581  0.3663
  777MOL0     C 7117   8.200   9.372   6.660 -0.3652  0.1291  0.4523
  777MOL0     C 7118   8.238   9.245   6.580  0.4299  0.0899  0.5889
  777MOL0     O 7119   8.199   9.122   6.612  0.5422  0.0282 -0.0167
  777MOL0     C 7120   8.253   9.019   6.539 -0.0987  0.4050  0.3275
  777MOL0     C 7121   8.384   8.975   6.570 -1.0791 -0.2543 -0.3758
  777MOL0     C 7122   8.444   8.863   6.517 -0.6323 -0.3378  0.7747
  777MOL0     C 7123   8.364   8.786   6.427 -0.5073 -0.0944  0.8633
  777MOL0     O 7124   8.409   8.668   6.371  0.1541  0.5642 -0.5430
  777MOL0     C 7125   8.543   8.665   6.333 -0.6617  0.4586 -0.0792
  777MOL0     C 7126   8.577   8.545   6.248  0.1503  0.2607 -0.0762
  777MOL0     C 7127   8.729   8.536   6.219 -0.4144  0.0785  0.0689
  777MOL0     C 7128   8.767   8.484   6.084  0.0370 -0.3990  0.4430
  777MOL0     C 7129   8.704   8.557   5.968  1.1279 -0.0312 -0.0310
  777MOL0     C 7130   8.755   8.703   5.942  0.1499 -0.3447  0.5382
  777MOL0     C 7131   8.887   8.712   5.869  0.6424 -0.2522 -0.8429
  777MOL0     C 7132   8.876   8.721   5.710  0.1316  0.1260  0.1591
  777MOL0    Cl 7133   8.789   8.857   5.637  0.3557 -0.1348  0.0680
  777MOL0     C 7134   8.236   8.825   6.398  0.4564 -0.3037 -0.2740
  777MOL0     C 7135   8.185   8.947   6.444  0.1457  0.2943  0.1263
  777MOL0     O 7136   8.316   9.266   6.490  0.2876 -0.5100 -0.6505
  777MOL0     C 7137   8.287   9.483   6.662 -0.5987  0.5536  0.1202
  777MOL0     C 7138   8.249   9.599   6.727 -0.3812 -0.4374 -0.6157
  777MOL0     N 7139   8.475  10.031   7.106  0.0906  0.1389  0.0184
  777MOL0     N 7140   8.601  10.025   7.077  0.6130  0.3519  0.4019
  777MOL0     C 7141   9.709  10.471   6.468  0.2628  0.4530 -0.6472
  777MOL0     C 7142   9.814  10.552   6.431 -0.8518 -0.3669  0.1467
  777MOL0     C 7143  10.174  10.748   6.302 -1.0083 -0.1521 -0.0904
  777MOL0     C 7144  10.297  10.674   6.286  0.1115  0.0255  0.0663
  777MOL0     C 7145  10.418  10.744   6.288  0.1783 -0.7084  0.1110
  777MOL0     C 7146  10.430  10.884   6.285  0.2650 -0.8412  0.5950
  777MOL0     O 7147  10.557  10.923   6.272 -0.3899 -0.7565  0.2229
  777MOL0     C 7148  10.590  11.062   6.274 -0.9172  0.3533  0.1920
  777MOL0     C 7149  10.743  11.097   6.281  1.2329 -0.6940 -0.3374
  777MOL0     C 7150  10.832  11.046   6.163 -0.8606 -0.5288 -0.2476
  777MOL0     C 7151  10.888  10.899   6.187 -1.0688 -0.6325  0.1152
  777MOL0     C 7152  10.945  10.843   6.065  0.5457 -0.5433 -0.3590
  777MOL0     C 7153  10.996  10.783   5.969  0.3275 -0.7062 -0.1488
  777MOL0     C 7154  10.312  10.958   6.296  0.6813 -0.3193 -0.1006
  777MOL0     C 7155  10.188  10.890   6.313 -0.0587  0.4884 -0.0572
  777MOL0     C 7156  10.066  10.972   6.336 -0.3872 -1.0167 -1.0032
  777MOL0     H 7157  10.069  10.320   6.473  0.3899  0.8920 -1.4464
  777MOL0     H 7158   9.881  10.178   6.518  4.0297  0.4885 -1.1990
  777MOL0     H 7159   9.457  10.372   6.552  0.4089  0.7634  0.0007
  777MOL0     H 7160   9.544  10.331   6.702 -2.0160 -2.6081  1.6668
  777MOL0     H 7161   9.401  10.111   6.556 -1.3599 -0.5600 -0.5374
  777MOL0     H 7162   9.471  10.130   6.721 -1.1966  3.3200  1.2171
  777MOL0     H 7163   9.300  10.271   6.800  1.2160  2.1400 -1.2187
  777MOL0     H 7164   9.233  10.297   6.635  0.2858  1.7699  2.1460
  777MOL0     H 7165   9.125  10.112   6.630  1.1902  1.9013 -1.1582
  777MOL0     H 7166   9.241  10.028   6.749  1.7106  1.1773  0.2126
  777MOL0     H 7167   9.019  10.232   6.787 -0.0005  0.8307  1.5442
  777MOL0     H 7168   9.113  10.172   6.925 -0.8735 -2.1050 -0.0458
  777MOL0     H 7169   8.986   9.959   6.766 -0.3819  1.7609 -0.9636
  777MOL0     H 7170   9.028   9.957   6.933  0.3514  2.2210  1.1049
  777MOL0     H 7171   8.801  10.115   6.790 -1.0802 -3.1140 -0.6283
  777MOL0     H 7172   8.833  10.110   6.971  0.3220  0.9396  0.2105
  777MOL0     H 7173   8.747   9.891   6.798  0.7499 -0.2475  0.1734
  777MOL0     H 7174   8.822   9.867   6.956  1.4470  1.8859  1.9259
  777MOL0     H 7175   8.485   9.841   6.842  0.0486 -2.0437  1.8880
  777MOL0     H 7176   8.242   9.907   6.922  1.1162 -1.2549  0.1426
  777MOL0     H 7177   8.214  10.020   7.058  2.4550  0.7595  1.3621
  777MOL0     H 7178   8.303   9.728   7.079  0.9687 -0.4126  1.3583
  777MOL0     H 7179   8.284   9.843   7.216 -1.8109  0.9404 -0.0269
  777MOL0     H 7180   8.065   9.736   7.216  0.0335  1.0221  0.2133
  777MOL0     H 7181   8.036   9.869   7.108 -0.8939 -1.2305 -3.3113
  777MOL0     H 7182   8.113   9.589   7.040  2.2563  1.4097  1.0280
  777MOL0     H 7183   7.946   9.677   7.027  0.6154 -1.2916 -0.6829
  777MOL0     H 7184   7.951   9.497   6.856  1.3012  2.8702  1.0759
  777MOL0     H 7185   7.948   9.218   6.645 -0.5261 -1.2726  1.0468
  777MOL0     H 7186   7.888   9.279   6.792  0.0519  2.8286 -0.8617
  777MOL0     H 7187   8.035   9.170   6.785 -0.1981 -0.2910  0.2932
  777MOL0     H 7188   8.459   9.026   6.630 -0.5240 -3.2940  1.7614
  777MOL0     H 7189   8.541   8.827   6.548 -1.4764 -1.0824  2.6706
  777MOL0     H 7190   8.569   8.755   6.276  1.5488  2.2132  3.3802
  777MOL0     H 7191   8.620   8.670   6.411  0.2521 -1.1477 -0.8170
  777MOL0     H 7192   8.554   8.456   6.307  3.7479 -0.8028 -0.0324
  777MOL0     H 7193   8.512   8.542   6.161  1.4179 -0.9840 -1.0118
  777MOL0     H 7194   8.781   8.486   6.301 -1.2094  2.0362  1.8438
  777MOL0     H 7195   8.774   8.635   6.231  1.0578 -0.6876  1.1790
  777MOL0     H 7196   8.766   8.374   6.080  2.0006 -0.4289 -1.3807
  777MOL0     H 7197   8.873   8.506   6.070 -0.8056  3.0349 -1.7376
  777MOL0     H 7198   8.715   8.489   5.882 -0.2676 -0.2946 -0.0290
  777MOL0     H 7199   8.595   8.556   5.978  0.9216 -1.3615 -1.6867
  777MOL0     H 7200   8.766   8.748   6.041 -1.0340  0.4119  0.3343
  777MOL0     H 7201   8.683   8.758   5.883  3.0244  1.3668 -1.6477
  777MOL0     H 7202   8.951   8.636   5.915 -2.9697 -1.3287  3.0532
  777MOL0     H 7203   8.921   8.809   5.906  1.6651 -1.2513  0.9705
  777MOL0     H 7204   8.835   8.630   5.664 -3.4914  0.5006  2.2592
  777MOL0     H 7205   8.981   8.735   5.683 -0.0373  0.1523 -0.4924
  777MOL0     H 7206   8.173   8.771   6.328 -1.4006  0.9015  0.4030
  777MOL0     H 7207   8.079   8.961   6.428 -0.2935 -1.3917  1.3780
  777MOL0     H 7208   8.385   9.475   6.617 -0.9090 -1.5848 -0.3022
  777MOL0     H 7209   8.309   9.689   6.736 -0.0593 -0.7880  1.4351
  777MOL0     H 7210   9.607  10.505   6.455 -0.3671 -0.7778  0.7609
  777MOL0     H 7211   9.798  10.658   6.420 -0.4740 -0.3501 -0.2429
  777MOL0     H 7212  10.303  10.566   6.286  1.6904  0.0908 -0.8485
  777MOL0     H 7213  10.515  10.694   6.292  1.3386  1.4632  1.0190
  777MOL0     H 7214  10.550  11.111   6.185 -0.9111 -0.9183 -0.5274
  777MOL0     H 7215  10.548  11.095   6.370 -0.2969 -3.0657  1.7946
  777MOL0     H 7216  10.790  11.061   6.373  1.9842  0.4321 -0.2678
  777MOL0     H 7217  10.740  11.206   6.293 -0.5115 -0.6359 -0.9462
  777MOL0     H 7218  10.774  11.055   6.070 -2.0546  2.5451  0.6833
  777MOL0     H 7219  10.925  11.104   6.159 -0.7648 -0.6937 -0.4630
  777MOL0     H 7220  10.810  10.832   6.224  0.9193 -2.2846  1.4461
  777MOL0     H 7221  10.967  10.893   6.262 -1.1284 -4.4469  0.0527
  777MOL0     H 7222  11.025  10.726   5.884  1.2627  0.5540 -0.7041
  777MOL0     H 7223  10.323  11.066   6.300 -1.0998 -0.1103  0.2835
  777MOL0     H 7224   9.993  10.963   6.256 -1.9363  0.9721  0.0899
  777MOL0     H 7225  10.015  10.947   6.430 -2.6345  2.2398 -1.2057
  777MOL0     H 7226  10.092  11.078   6.344 -2.5022 -0.5472  0.7146
  778MOL0     O 7227   9.250   7.770   7.172  0.3398  0.5190 -0.2695
  778MOL0     C 7228   9.342   7.842   7.207 -0.0772  0.5575  0.7722
  778MOL0     O 7229   9.421   7.925   7.125  0.3570 -0.2506  0.4967
  778MOL0     C 7230   9.384   7.938   6.992 -0.2043 -0.5464  0.4454
  778MOL0     C 7231   9.412   7.841   6.896 -0.8419 -0.4593  0.6272
  778MOL0     C 7232   9.390   7.862   6.757  0.5689 -0.4671 -0.0500
  778MOL0     C 7233   9.318   7.971   6.716  1.0189  0.2547 -1.2311
  778MOL0     O 7234   9.286   7.996   6.583 -0.7148 -0.3035 -0.4342
  778MOL0     C 7235   9.327   7.898   6.483  0.6371 -0.2266  0.7028
  778MOL0     C 7236   9.285   7.938   6.343  0.0827  0.0432 -0.4822
  778MOL0     C 7237   9.368   8.049   6.282 -0.0413  0.1388 -0.7514
  778MOL0     C 7238   9.338   8.076   6.127 -0.3011  0.9526  0.3351
  778MOL0     C 7239   9.446   8.009   6.042  0.4485 -0.2714  0.2941
  778MOL0     C 7240   9.381   7.998   5.901  0.5191  0.3689 -1.1620
  778MOL0     C 7241   9.473   7.943   5.799 -0.1443  0.5923  0.3465
  778MOL0     C 7242   9.552   8.066   5.744 -0.0119 -0.0072 -0.6163
  778MOL0     N 7243   9.648   8.016   5.642  0.3033  0.5108 -0.0462
  778MOL0     C 7244   9.620   7.941   5.536 -0.3634 -0.7415  0.1288
  778MOL0     C 7245   9.742   7.906   5.479  0.0631 -0.0054 -0.9926
  778MOL0     C 7246   9.772   7.806   5.378 -0.5882  0.5295  0.1833
  778MOL0     C 7247   9.680   7.688   5.371 -0.1939 -0.0397  0.9467
  778MOL0     C 7248   9.685   7.604   5.511  0.0989 -0.4185  0.9823
  778MOL0     C 7249   9.577   7.492   5.513 -0.3462 -0.7640 -0.8910
  778MOL0     O 7250   9.608   7.399   5.616 -0.3047 -0.2627 -0.3563
  778MOL0     C 7251   9.581   7.432   5.750 -0.4028 -0.3120 -0.0058
  778MOL0     C 7252   9.645   7.355   5.845 -1.0004  0.8230 -0.6519
  778MOL0     C 7253   9.640   7.383   5.982 -0.7254 -0.0125  0.4545
  778MOL0     C 7254   9.736   7.304   6.069  0.6009 -0.4608  1.0329
  778MOL0     C 7255   9.562   7.493   6.032  0.6429  0.1782 -0.4410
  778MOL0     C 7256   9.553   7.526   6.178 -0.4805 -0.9495  0.2566
  778MOL0     O 7257   9.606   7.436   6.263  0.5376  0.3292  0.5110
  778MOL0     C 7258   9.592   7.446   6.397  0.5229 -0.1350 -0.4982
  778MOL0     C 7259   9.679   7.530   6.480 -0.8494 -0.9006 -0.1651
  778MOL0     C 7260   9.671   7.548   6.615  0.1710 -0.3854 -0.6300
  778MOL0     C 7261   9.582   7.464   6.683  0.2517 -0.0312 -0.7109
  778MOL0     O 7262   9.564   7.473   6.824 -0.6583 -0.0699  0.3525
  778MOL0     C 7263   9.676   7.524   6.906  0.3642 -0.1683  0.4319
  778MOL0     C 7264   9.673   7.487   7.046 -0.5115 -0.5458  0.1139
  778MOL0     C 7265   9.806   7.511   7.120  0.2483 -0.0825  0.7314
  778MOL0     C 7266   9.805   7.474   7.267  1.4024 -0.3665 -0.3408
  778MOL0     C 7267   9.863   7.578   7.358 -0.3740 -0.4636 -0.3562
  778MOL0     C 7268   9.838   7.547   7.507 -0.2407 -0.3518  0.4257
  778MOL0     C 7269   9.920   7.623   7.605  0.4579 -0.5371 -0.0562
  778MOL0     C 7270   9.899   7.548   7.745  0.4754  0.1436 -0.6062
  778MOL0    Cl 7271   9.985   7.638   7.870  0.0113 -0.1485  0.1456
  778MOL0     C 7272   9.498   7.378   6.622  0.7017  0.2730  0.1322
  778MOL0     C 7273   9.508   7.363   6.477 -1.0481  0.4473  0.1362
  778MOL0     O 7274   9.482   7.623   6.213 -0.1306  0.1356  0.5005
  778MOL0     C 7275   9.491   7.574   5.932 -0.4961  0.0000  0.9696
  778MOL0     C 7276   9.500   7.538   5.794  0.2108  0.3523 -0.3327
  778MOL0     N 7277   9.837   7.981   5.545 -0.7150 -0.4652 -0.3467
  778MOL0     N 7278   9.779   8.042   5.641 -0.6780  0.3914 -0.1201
  778MOL0     C 7279   9.262   8.056   6.823 -0.6603  0.0765 -0.0727
  778MOL0     C 7280   9.295   8.039   6.949 -1.0011  0.0829 -0.3720
  778MOL0     C 7281   9.385   7.822   7.346  0.4259  0.1553  0.5379
  778MOL0     C 7282   9.523   7.827   7.380 -0.1269  0.2178  0.7963
  778MOL0     C 7283   9.578   7.804   7.509  0.0340 -0.9011  0.3690
  778MOL0     C 7284   9.490   7.766   7.608 -0.5027 -0.4452 -0.0085
  778MOL0     O 7285   9.538   7.738   7.736  0.6779 -0.5163 -0.8678
  778MOL0     C 7286   9.464   7.770   7.856  0.3847  0.3484  0.4174
  778MOL0     C 7287   9.568   7.771   7.970  0.9037  0.3519 -0.5448
  778MOL0     C 7288   9.492   7.808   8.110 -0.5781  0.4051 -0.2237
  778MOL0     C 7289   9.610   7.823   8.218  0.3889 -0.8002  1.5590
  778MOL0     C 7290   9.533   7.835   8.341  0.4692  0.2754  0.9187
  778MOL0     C 7291   9.469   7.838   8.441  0.3211  0.2311  1.0197
  778MOL0     C 7292   9.347   7.765   7.578 -0.3020  1.0420 -0.6995
  778MOL0     C 7293   9.292   7.800   7.455 -0.5984  0.1889  1.5212
  778MOL0     C 7294   9.143   7.802   7.424  0.5186  0.4766  0.7239
  778MOL0     H 7295   9.476   7.762   6.935  1.1474  0.9983  0.4833
  778MOL0     H 7296   9.426   7.785   6.690 -0.7919 -0.5520 -0.7174
  778MOL0     H 7297   9.277   7.804   6.509 -1.5912  0.4178 -0.8912
  778MOL0     H 7298   9.431   7.867   6.469  0.2271 -1.1186 -0.5121
  778MOL0     H 7299   9.298   7.854   6.274 -0.9830  1.0394 -1.9586
  778MOL0     H 7300   9.180   7.969   6.339  0.0097 -0.2930 -1.7220
  778MOL0     H 7301   9.337   8.134   6.344  1.5076 -0.7154  1.3045
  778MOL0     H 7302   9.473   8.023   6.296 -0.5459 -1.4528  0.3521
  778MOL0     H 7303   9.233   8.049   6.109  0.2186  0.7340 -2.8585
  778MOL0     H 7304   9.351   8.183   6.110  0.8711  0.3000 -3.8028
  778MOL0     H 7305   9.482   7.911   6.075  1.0410  0.4731  1.9485
  778MOL0     H 7306   9.528   8.081   6.045  0.4840 -0.3251  0.7392
  778MOL0     H 7307   9.287   7.943   5.912 -1.4150  3.8063  1.4247
  778MOL0     H 7308   9.344   8.099   5.880  0.4740  0.6587  0.2428
  778MOL0     H 7309   9.424   7.903   5.709  0.3347  2.0818 -0.6151
  778MOL0     H 7310   9.539   7.865   5.837 -3.4099 -2.0094  1.0952
  778MOL0     H 7311   9.483   8.137   5.697 -1.0452 -0.5327  0.0704
  778MOL0     H 7312   9.608   8.114   5.825 -0.7181 -1.0322  0.5133
  778MOL0     H 7313   9.519   7.907   5.512 -0.9142  0.1239  1.1489
  778MOL0     H 7314   9.866   7.767   5.418 -0.7838  2.7584  3.2351
  778MOL0     H 7315   9.779   7.863   5.284  3.0427 -0.6456 -0.3938
  778MOL0     H 7316   9.579   7.718   5.345 -0.1335  1.0184  1.8582
  778MOL0     H 7317   9.713   7.619   5.292 -0.6354  0.0465  0.6876
  778MOL0     H 7318   9.787   7.566   5.515 -0.2336 -1.8274 -1.6682
  778MOL0     H 7319   9.670   7.674   5.594  0.6448  1.2450 -0.2554
  778MOL0     H 7320   9.471   7.519   5.516 -0.7142 -2.1328  1.4374
  778MOL0     H 7321   9.582   7.442   5.415 -0.7016 -1.4504 -0.5692
  778MOL0     H 7322   9.714   7.276   5.819  1.6635  2.5730  0.6970
  778MOL0     H 7323   9.806   7.375   6.114  0.8086  1.1107 -1.5721
  778MOL0     H 7324   9.774   7.223   6.006 -0.6890 -2.1718  2.3497
  778MOL0     H 7325   9.678   7.251   6.146 -3.7156  0.4420 -1.2937
  778MOL0     H 7326   9.742   7.600   6.427  0.6055 -1.9160  0.1598
  778MOL0     H 7327   9.744   7.606   6.670 -0.1218 -1.8275  1.3836
  778MOL0     H 7328   9.768   7.489   6.859 -1.1980  0.0947 -3.1343
  778MOL0     H 7329   9.663   7.632   6.898 -0.4518 -0.3987 -3.0650
  778MOL0     H 7330   9.599   7.559   7.081 -0.9436 -0.3123 -1.2234
  778MOL0     H 7331   9.648   7.380   7.049  2.0334 -1.3551 -2.5373
  778MOL0     H 7332   9.826   7.618   7.111 -3.7042  0.7039 -1.0654
  778MOL0     H 7333   9.885   7.452   7.073 -2.9865 -1.4131 -3.7264
  778MOL0     H 7334   9.857   7.380   7.282 -0.7462 -1.9145 -1.8548
  778MOL0     H 7335   9.705   7.463   7.311  1.5447  1.0932  0.4255
  778MOL0     H 7336   9.971   7.585   7.346 -0.0196 -0.1302  2.3920
  778MOL0     H 7337   9.813   7.675   7.345 -3.8654 -1.8815  1.1399
  778MOL0     H 7338   9.854   7.439   7.514  1.6551 -0.1606 -0.4073
  778MOL0     H 7339   9.732   7.559   7.532 -0.2323 -0.4805  0.5241
  778MOL0     H 7340   9.889   7.728   7.605  3.3985  0.4971  2.7840
  778MOL0     H 7341  10.026   7.629   7.578  0.0760  0.4457 -1.4406
  778MOL0     H 7342   9.942   7.448   7.741 -0.1646 -0.1297 -0.8792
  778MOL0     H 7343   9.792   7.540   7.769  0.8987  2.3327  2.8396
  778MOL0     H 7344   9.423   7.323   6.677  1.1009 -0.7717 -0.3468
  778MOL0     H 7345   9.454   7.287   6.421 -1.3557  1.0082 -0.3308
  778MOL0     H 7346   9.438   7.664   5.962  2.7414  1.6491  2.2312
  778MOL0     H 7347   9.457   7.608   5.722  0.4893 -0.2149 -1.0611
  778MOL0     H 7348   9.201   8.144   6.803  0.7350  0.9013 -0.8799
  778MOL0     H 7349   9.248   8.111   7.016 -1.0210 -2.3692  2.4624
  778MOL0     H 7350   9.606   7.838   7.311  0.5344 -0.5828  1.4350
  778MOL0     H 7351   9.685   7.810   7.526 -0.3651 -0.4757  3.3656
  778MOL0     H 7352   9.418   7.868   7.840  1.5773  0.6068 -1.8211
  778MOL0     H 7353   9.386   7.693   7.866  0.5992  0.2889  1.9281
  778MOL0     H 7354   9.650   7.839   7.949  0.4392  1.4532  1.0036
  778MOL0     H 7355   9.619   7.676   7.989 -4.8437 -2.7206  2.4349
  778MOL0     H 7356   9.430   7.898   8.104 -1.7893 -0.4744 -2.1413
  778MOL0     H 7357   9.428   7.727   8.146 -1.8342  2.3652  2.2428
  778MOL0     H 7358   9.669   7.913   8.202 -0.7286  0.1025  2.3650
  778MOL0     H 7359   9.665   7.728   8.214 -0.0485 -1.0050 -0.4530
  778MOL0     H 7360   9.415   7.865   8.530 -0.1423  2.0084  0.2354
  778MOL0     H 7361   9.273   7.732   7.651 -2.1154  0.5304 -2.6762
  778MOL0     H 7362   9.088   7.832   7.513  1.0941 -1.8880  1.9718
  778MOL0     H 7363   9.112   7.864   7.340 -0.5089  0.3818  1.0161
  778MOL0     H 7364   9.098   7.707   7.394 -1.8143  1.6347  0.3335
  779MOL0     O 7365   9.230   8.578   5.597  0.5772  0.0017 -0.1637
  779MOL0     C 7366   9.249   8.510   5.502 -0.1715  1.0469 -0.1203
  779MOL0     O 7367   9.205   8.377   5.499  0.0207 -0.1838 -0.4510
  779MOL0     C 7368   9.114   8.330   5.590 -0.3156  0.4464 -0.0153
  779MOL0     C 7369   8.977   8.378   5.585 -0.4018  0.6497  0.6766
  779MOL0     C 7370   8.888   8.338   5.681 -0.2698 -0.1746  0.0376
  779MOL0     C 7371   8.930   8.253   5.782  1.3289 -0.3005 -0.0229
  779MOL0     O 7372   8.833   8.206   5.882 -0.5244 -0.1801  0.7969
  779MOL0     C 7373   8.829   8.065   5.885 -0.2255  0.0545  0.1024
  779MOL0     C 7374   8.730   7.999   5.983  0.7180 -0.1574  0.0072
  779MOL0     C 7375   8.739   8.056   6.121  0.3054 -0.1390 -0.0264
  779MOL0     C 7376   8.867   8.013   6.183 -0.0019  0.1157 -1.2197
  779MOL0     C 7377   8.883   8.071   6.332  0.4448  0.5982 -0.5993
  779MOL0     C 7378   8.926   8.223   6.337 -0.5806 -0.6129  0.5682
  779MOL0     C 7379   8.981   8.259   6.471 -0.0482 -0.2008 -0.0748
  779MOL0     C 7380   9.053   8.387   6.481  0.7604 -0.2968  0.5565
  779MOL0     N 7381   9.100   8.397   6.618 -0.0447  0.0610  0.9083
  779MOL0     C 7382   9.017   8.412   6.729 -0.0293  0.5255  0.6359
  779MOL0     C 7383   9.118   8.415   6.823  0.1597  0.4442 -1.1220
  779MOL0     C 7384   9.095   8.399   6.974  0.4489  0.8142 -0.5375
  779MOL0     C 7385   8.949   8.382   7.021  0.0353  0.4544  0.4133
  779MOL0     C 7386   8.933   8.375   7.172  0.1214 -0.8383  1.1317
  779MOL0     C 7387   9.021   8.271   7.238  0.8781  0.0487  0.7572
  779MOL0     O 7388   9.008   8.150   7.153  1.2158 -0.7641  0.3398
  779MOL0     C 7389   8.929   8.044   7.195  0.3298  0.1849 -0.8519
  779MOL0     C 7390   8.935   7.921   7.130  0.1677  0.2071 -0.8655
  779MOL0     C 7391   8.856   7.808   7.166  0.2546 -0.0982  0.9549
  779MOL0     C 7392   8.874   7.689   7.077 -0.4676  0.1512  0.1545
  779MOL0     C 7393   8.781   7.812   7.286  0.2019  0.3900 -0.6000
  779MOL0     C 7394   8.713   7.695   7.342  0.1038 -0.3764  0.2494
  779MOL0     O 7395   8.631   7.732   7.446 -0.2609 -0.5095  0.7903
  779MOL0     C 7396   8.554   7.639   7.509  0.6085  0.3385 -0.9393
  779MOL0     C 7397   8.475   7.539   7.444 -0.2664 -0.5621  0.2665
  779MOL0     C 7398   8.401   7.444   7.508 -0.2734 -0.0968  0.8343
  779MOL0     C 7399   8.396   7.438   7.647 -0.7916  0.1317  0.1745
  779MOL0     O 7400   8.323   7.338   7.698  0.4624  0.3833 -0.0341
  779MOL0     C 7401   8.287   7.332   7.837 -0.1636 -1.1508 -0.1246
  779MOL0     C 7402   8.397   7.272   7.929  0.2202 -0.4619 -1.1045
  779MOL0     C 7403   8.340   7.268   8.072 -0.2726 -0.5528 -1.3218
  779MOL0     C 7404   8.446   7.198   8.164  0.6025  0.4323 -0.5459
  779MOL0     C 7405   8.418   7.233   8.307 -0.1813  0.5456  0.8318
  779MOL0     C 7406   8.288   7.163   8.368 -1.6044 -0.9194  0.5236
  779MOL0     C 7407   8.305   7.018   8.379 -0.1419  0.5571  0.5539
  779MOL0     C 7408   8.178   6.949   8.424 -0.1314 -0.1840  0.4199
  779MOL0    Cl 7409   8.217   6.778   8.457  0.4080 -0.8467 -0.0751
  779MOL0     C 7410   8.463   7.541   7.715 -0.0624 -0.1277  0.5966
  779MOL0     C 7411   8.548   7.634   7.646  0.4963  0.6401 -0.3423
  779MOL0     O 7412   8.732   7.587   7.286 -0.0203  0.0450 -0.0663
  779MOL0     C 7413   8.768   7.939   7.352  1.8961  0.6253  0.5105
  779MOL0     C 7414   8.845   8.049   7.312  0.5866  0.4433  0.4420
  779MOL0     N 7415   9.239   8.414   6.766  0.7503 -1.0095 -0.5322
  779MOL0     N 7416   9.237   8.400   6.641 -0.3125 -0.1733  1.2941
  779MOL0     C 7417   9.069   8.218   5.801  0.9646 -0.6313  0.3569
  779MOL0     C 7418   9.154   8.255   5.699 -0.4073 -0.1484 -0.8499
  779MOL0     C 7419   9.308   8.567   5.374  0.3864 -0.8655  0.5315
  779MOL0     C 7420   9.330   8.478   5.265 -0.8892  0.6879  0.6164
  779MOL0     C 7421   9.373   8.522   5.144 -0.8230 -0.7211 -0.6851
  779MOL0     C 7422   9.391   8.666   5.120 -0.9055 -0.2074  0.1352
  779MOL0     O 7423   9.451   8.720   5.007  0.0351 -0.4023  0.5999
  779MOL0     C 7424   9.538   8.636   4.931 -0.7440  0.9197  0.3401
  779MOL0     C 7425   9.680   8.627   5.001  0.3008  0.1922  0.6949
  779MOL0     C 7426   9.742   8.762   5.030 -0.0630  0.6956 -0.1098
  779MOL0     C 7427   9.863   8.789   4.938  0.0486 -0.0115 -0.1941
  779MOL0     C 7428   9.914   8.924   4.954 -0.1821 -0.3629 -0.5318
  779MOL0     C 7429   9.964   9.034   4.979  0.6941 -0.6029 -0.2062
  779MOL0     C 7430   9.371   8.755   5.228  0.1513 -0.3017 -0.1518
  779MOL0     C 7431   9.330   8.708   5.352  1.4275 -0.3046  0.8119
  779MOL0     C 7432   9.288   8.822   5.440 -0.2896 -0.0638  0.3797
  779MOL0     H 7433   8.949   8.453   5.512  0.6215  1.6162  1.2478
  779MOL0     H 7434   8.786   8.366   5.705  0.1813 -1.0913  3.4276
  779MOL0     H 7435   8.927   8.024   5.912 -1.1957 -1.2475  1.8459
  779MOL0     H 7436   8.805   8.035   5.783  0.4717  1.7697 -0.6096
  779MOL0     H 7437   8.626   8.015   5.954  0.5972 -0.5525  0.2195
  779MOL0     H 7438   8.751   7.892   5.986  1.3935 -0.0580 -0.8433
  779MOL0     H 7439   8.743   8.165   6.123 -0.5639 -0.0784 -0.8386
  779MOL0     H 7440   8.651   8.017   6.172  2.8054 -2.7662  2.6663
  779MOL0     H 7441   8.888   7.906   6.191  0.5580  0.3504  0.9772
  779MOL0     H 7442   8.951   8.057   6.129  1.1136  4.1797  3.1613
  779MOL0     H 7443   8.952   8.005   6.386  1.9763  1.2605 -1.6739
  779MOL0     H 7444   8.781   8.062   6.372 -0.1561  0.9026 -2.0011
  779MOL0     H 7445   8.990   8.260   6.257  0.4836  3.4770  2.9965
  779MOL0     H 7446   8.839   8.285   6.317 -1.6805 -2.0640  0.7250
  779MOL0     H 7447   9.053   8.183   6.502 -0.2854 -0.5088 -0.2705
  779MOL0     H 7448   8.901   8.246   6.545 -0.9636 -1.0750 -1.1704
  779MOL0     H 7449   9.145   8.386   6.423  0.6895 -2.1174  0.4244
  779MOL0     H 7450   8.992   8.473   6.451 -0.3558 -0.9090  1.0253
  779MOL0     H 7451   8.909   8.407   6.734 -0.2759  0.0642 -2.6768
  779MOL0     H 7452   9.129   8.493   7.017 -3.4007  2.2615 -0.3437
  779MOL0     H 7453   9.157   8.323   7.022 -2.1367  1.0022  3.5630
  779MOL0     H 7454   8.900   8.476   6.991  2.2201  0.6940 -2.9790
  779MOL0     H 7455   8.908   8.302   6.958  1.8261  1.1835 -1.8270
  779MOL0     H 7456   8.959   8.469   7.220 -3.5541 -0.7485  3.3766
  779MOL0     H 7457   8.826   8.352   7.185 -0.6055 -1.0397 -3.5908
  779MOL0     H 7458   9.123   8.308   7.244  0.7651  0.3624  0.7914
  779MOL0     H 7459   8.995   8.260   7.343  0.0510  0.6140  0.6234
  779MOL0     H 7460   9.002   7.909   7.045  1.2644 -2.0498  0.2313
  779MOL0     H 7461   8.781   7.632   7.062  1.3208 -2.0130 -5.7480
  779MOL0     H 7462   8.946   7.615   7.113 -0.3445  0.5131  0.6548
  779MOL0     H 7463   8.909   7.715   6.977 -0.8514  3.0975  0.6924
  779MOL0     H 7464   8.492   7.542   7.336  2.6591  1.5308  0.6587
  779MOL0     H 7465   8.337   7.369   7.463 -1.5404  0.8247  1.0619
  779MOL0     H 7466   8.250   7.427   7.877  0.4488 -2.0605  2.8284
  779MOL0     H 7467   8.204   7.261   7.842  1.6649 -3.3707  0.4523
  779MOL0     H 7468   8.427   7.173   7.892  0.3901 -0.3516 -1.2657
  779MOL0     H 7469   8.479   7.344   7.921 -0.3737  0.2493 -0.9008
  779MOL0     H 7470   8.252   7.204   8.071 -1.0984  0.5580 -0.8641
  779MOL0     H 7471   8.310   7.369   8.102  0.3213 -0.5166 -0.8355
  779MOL0     H 7472   8.539   7.244   8.127  0.9374  1.1535  1.1010
  779MOL0     H 7473   8.452   7.089   8.158  1.2783  0.2647  2.0263
  779MOL0     H 7474   8.499   7.190   8.367  0.6443 -2.0831 -1.8891
  779MOL0     H 7475   8.412   7.342   8.317  1.2339  1.0894 -2.7509
  779MOL0     H 7476   8.211   7.183   8.293 -1.2467 -2.0333 -0.1800
  779MOL0     H 7477   8.259   7.213   8.461  0.0872 -2.1587  1.7864
  779MOL0     H 7478   8.377   6.986   8.455  1.1887  0.3489 -0.7687
  779MOL0     H 7479   8.331   6.974   8.282 -0.8843  0.6104  0.3217
  779MOL0     H 7480   8.105   6.945   8.342 -1.3564 -1.0234  1.5242
  779MOL0     H 7481   8.128   7.000   8.507 -1.2505  0.1496 -0.4349
  779MOL0     H 7482   8.452   7.567   7.820  1.6552  0.2354  0.7035
  779MOL0     H 7483   8.607   7.701   7.708 -0.6562  2.6897 -1.3739
  779MOL0     H 7484   8.704   7.945   7.440 -0.4828 -3.6527 -0.6585
  779MOL0     H 7485   8.819   8.137   7.371  2.9240  0.9254  0.8854
  779MOL0     H 7486   9.097   8.186   5.901  0.8669  1.9180  1.2764
  779MOL0     H 7487   9.258   8.227   5.713 -1.1433 -1.4566  3.3122
  779MOL0     H 7488   9.329   8.372   5.287  0.7187  0.4567 -0.3089
  779MOL0     H 7489   9.389   8.444   5.071 -2.6288 -2.1032  0.3394
  779MOL0     H 7490   9.505   8.532   4.937  0.1067  0.7022  1.7086
  779MOL0     H 7491   9.559   8.668   4.829  0.1655  2.9926  1.1134
  779MOL0     H 7492   9.753   8.572   4.941 -1.5282 -2.7091  0.9183
  779MOL0     H 7493   9.667   8.568   5.093  0.7818 -1.1519 -0.0702
  779MOL0     H 7494   9.672   8.845   5.025 -0.4190  0.4662  0.7390
  779MOL0     H 7495   9.770   8.775   5.135  4.3328  2.0223 -1.2378
  779MOL0     H 7496   9.813   8.798   4.842 -3.5431  3.6930  1.6728
  779MOL0     H 7497   9.940   8.712   4.934  1.1638  1.0825 -0.3454
  779MOL0     H 7498  10.009   9.129   4.998 -0.3015 -0.1187 -0.2267
  779MOL0     H 7499   9.383   8.863   5.220  0.2304 -0.1418  1.6846
  779MOL0     H 7500   9.179   8.815   5.433 -0.2612  0.6330 -0.9693
  779MOL0     H 7501   9.333   8.812   5.539 -0.1227  0.7246  0.3911
  779MOL0     H 7502   9.321   8.920   5.404  0.6400 -0.2346  0.7525
  780MOL0     O 7503   6.925   3.264   8.306 -0.5846 -0.0430 -0.7567
  780MOL0     C 7504   6.945   3.384   8.299 -0.2980  0.7963 -0.6008
  780MOL0     O 7505   6.877   3.474   8.212 -0.4772  0.6621  0.4068
  780MOL0     C 7506   6.852   3.436   8.081 -0.3699 -0.6962  0.9500
  780MOL0     C 7507   6.762   3.521   8.021  0.2757  0.1463 -0.4078
  780MOL0     C 7508   6.729   3.517   7.884 -0.2631 -0.9633 -0.0165
  780MOL0     C 7509   6.778   3.423   7.794  0.3795 -1.3708 -0.0816
  780MOL0     O 7510   6.745   3.426   7.661  0.6882 -0.0557  0.4016
  780MOL0     C 7511   6.669   3.309   7.614 -0.3288  0.3024 -0.2514
  780MOL0     C 7512   6.522   3.346   7.609  0.6850  0.4314  0.8615
  780MOL0     C 7513   6.455   3.357   7.742 -0.3172  0.8551  0.0882
  780MOL0     C 7514   6.309   3.304   7.727 -0.1724  0.4256  0.5840
  780MOL0     C 7515   6.231   3.294   7.856  0.2578 -0.2415 -0.3722
  780MOL0     C 7516   6.089   3.249   7.833 -0.5353 -0.1533 -0.5051
  780MOL0     C 7517   6.014   3.223   7.972  0.8070  0.1233  0.3351
  780MOL0     C 7518   5.868   3.179   7.948 -0.8973 -0.4158 -0.4687
  780MOL0     N 7519   5.854   3.038   7.911 -0.1420 -0.6918 -0.2631
  780MOL0     C 7520   5.864   2.944   8.011 -0.0740  0.1421 -0.3670
  780MOL0     C 7521   5.850   2.820   7.956  1.1678  0.3436  0.3674
  780MOL0     C 7522   5.838   2.687   8.028 -0.1687  0.1877  0.4627
  780MOL0     C 7523   5.959   2.669   8.114  0.0661 -1.1466 -0.5344
  780MOL0     C 7524   6.089   2.649   8.030  0.1855  0.4421  0.7085
  780MOL0     C 7525   6.209   2.656   8.121 -0.4830  0.1346 -0.5846
  780MOL0     O 7526   6.209   2.541   8.210 -0.1652 -0.5887 -0.6539
  780MOL0     C 7527   6.252   2.416   8.167  1.3310  0.2293  0.0517
  780MOL0     C 7528   6.266   2.310   8.256  0.1516  0.6780 -0.7531
  780MOL0     C 7529   6.310   2.188   8.219 -0.3781  0.0144  0.5359
  780MOL0     C 7530   6.310   2.063   8.316 -0.3394 -0.6794 -1.1275
  780MOL0     C 7531   6.331   2.161   8.081  0.6565  1.2090 -1.5576
  780MOL0     C 7532   6.369   2.022   8.023 -0.2398 -0.0183  0.9519
  780MOL0     O 7533   6.315   1.912   8.077 -0.0178 -0.8066 -0.4735
  780MOL0     C 7534   6.387   1.795   8.056 -0.2033 -0.4618 -0.2069
  780MOL0     C 7535   6.475   1.737   8.146  0.4473  0.1781  0.0472
  780MOL0     C 7536   6.514   1.605   8.133  0.1810 -0.0328 -0.4025
  780MOL0     C 7537   6.448   1.522   8.038 -0.8326  0.0645 -0.1221
  780MOL0     O 7538   6.464   1.388   8.064  0.5585  0.2313 -0.3001
  780MOL0     C 7539   6.376   1.295   7.980  1.1002 -1.1726  0.4040
  780MOL0     C 7540   6.418   1.157   8.008 -0.5260 -0.2903  0.0442
  780MOL0     C 7541   6.416   1.130   8.158  0.5102  0.5938 -0.2529
  780MOL0     C 7542   6.440   0.982   8.200  0.6688 -0.8379  0.1110
  780MOL0     C 7543   6.446   0.975   8.355  0.4584 -0.3775 -0.2795
  780MOL0     C 7544   6.526   0.853   8.396 -0.4794 -0.9190 -0.2280
  780MOL0     C 7545   6.507   0.829   8.543 -0.3428  0.4677 -0.7211
  780MOL0     C 7546   6.586   0.697   8.583  0.1836  0.1358 -0.2847
  780MOL0    Cl 7547   6.562   0.656   8.767  0.5668  0.2708  0.0881
  780MOL0     C 7548   6.369   1.581   7.938 -1.1406 -0.4240 -0.5697
  780MOL0     C 7549   6.341   1.720   7.943  0.7541 -0.1702 -0.2488
  780MOL0     O 7550   6.455   2.018   7.929 -0.3176 -0.7763  0.7049
  780MOL0     C 7551   6.306   2.266   7.992 -0.8278  0.2813 -0.3176
  780MOL0     C 7552   6.285   2.390   8.038 -0.6818 -0.3733  0.3159
  780MOL0     N 7553   5.839   2.838   7.821 -0.4967 -0.5005  0.5242
  780MOL0     N 7554   5.859   2.964   7.793  0.5284 -0.2749  0.4178
  780MOL0     C 7555   6.872   3.338   7.862  0.9690 -0.1680 -0.4201
  780MOL0     C 7556   6.908   3.342   8.000  0.4713 -0.8007 -0.1606
  780MOL0     C 7557   7.008   3.433   8.426  0.0709 -0.2213  0.6635
  780MOL0     C 7558   6.988   3.567   8.453  0.6187  0.4281 -0.0680
  780MOL0     C 7559   7.018   3.626   8.579 -0.5956  0.3931 -1.0276
  780MOL0     C 7560   7.088   3.550   8.679  0.1120 -0.2875 -0.3208
  780MOL0     O 7561   7.126   3.601   8.800 -0.3344  0.6844  0.0119
  780MOL0     C 7562   7.078   3.718   8.861  1.4347 -0.4724 -0.8597
  780MOL0     C 7563   7.205   3.769   8.949 -0.0996 -0.2004 -1.5936
  780MOL0     C 7564   7.307   3.848   8.870  0.0900 -0.0793 -0.1884
  780MOL0     C 7565   7.371   3.974   8.948  0.1734  0.2223 -0.1874
  780MOL0     C 7566   7.470   3.914   9.042  0.5701  0.4321  0.6308
  780MOL0     C 7567   7.550   3.858   9.125 -0.7102  0.3046 -0.0420
  780MOL0     C 7568   7.132   3.422   8.642 -0.0380 -0.3915 -0.0795
  780MOL0     C 7569   7.076   3.355   8.526  0.4163  0.1056 -0.3936
  780MOL0     C 7570   7.105   3.204   8.506 -0.5779  0.1136  0.1669
  780MOL0     H 7571   6.716   3.591   8.090  2.3159  0.9228  0.2077
  780MOL0     H 7572   6.662   3.596   7.852  1.5326 -0.3100 -2.4808
  780MOL0     H 7573   6.680   3.215   7.669 -0.8783  0.7380  0.6190
  780MOL0     H 7574   6.708   3.297   7.513 -1.5697 -0.7269 -0.6286
  780MOL0     H 7575   6.523   3.443   7.560 -0.9740 -0.4090 -0.9868
  780MOL0     H 7576   6.469   3.281   7.539 -0.8139 -0.5068  2.7495
  780MOL0     H 7577   6.514   3.290   7.805 -0.1428 -0.3330 -1.2841
  780MOL0     H 7578   6.463   3.462   7.769  0.4102  0.4931  1.3563
  780MOL0     H 7579   6.248   3.358   7.653  1.1850  0.6897 -0.3688
  780MOL0     H 7580   6.324   3.202   7.692 -0.9576 -0.2471  2.1202
  780MOL0     H 7581   6.218   3.393   7.900  3.8219 -0.6532  2.0349
  780MOL0     H 7582   6.279   3.225   7.926 -0.3714 -1.0682 -0.7372
  780MOL0     H 7583   6.033   3.321   7.774 -0.7494  0.0739 -0.0319
  780MOL0     H 7584   6.099   3.161   7.769  1.4676 -0.0684 -0.3746
  780MOL0     H 7585   6.018   3.302   8.048  2.6353  0.6441 -0.2456
  780MOL0     H 7586   6.065   3.144   8.030 -0.2000  0.1246  1.2616
  780MOL0     H 7587   5.808   3.194   8.039  0.4606 -2.3564  0.8298
  780MOL0     H 7588   5.842   3.234   7.858  5.1291 -0.3164 -2.6256
  780MOL0     H 7589   5.882   2.956   8.118 -3.2052 -0.1866  0.2930
  780MOL0     H 7590   5.826   2.605   7.957  0.5610 -1.2225  1.9020
  780MOL0     H 7591   5.745   2.688   8.085  0.4397 -1.0248  1.5204
  780MOL0     H 7592   5.962   2.761   8.173 -3.5829 -1.3193  0.2053
  780MOL0     H 7593   5.931   2.602   8.196 -2.5579  3.2403  2.5668
  780MOL0     H 7594   6.083   2.555   7.974 -0.1182  1.7753 -1.6298
  780MOL0     H 7595   6.090   2.734   7.961 -3.5694  1.1549  1.3188
  780MOL0     H 7596   6.304   2.655   8.068 -0.8640 -1.0330 -1.2768
  780MOL0     H 7597   6.214   2.741   8.190 -0.3225 -1.5213  1.5603
  780MOL0     H 7598   6.233   2.341   8.354 -1.0977 -0.8452 -0.6448
  780MOL0     H 7599   6.214   2.012   8.302 -0.4374 -1.4896  1.7840
  780MOL0     H 7600   6.314   2.084   8.423  1.9042 -4.9171 -0.1825
  780MOL0     H 7601   6.391   1.993   8.293 -0.9809 -0.9436 -2.7278
  780MOL0     H 7602   6.486   1.804   8.231  0.0711 -0.0817  0.3100
  780MOL0     H 7603   6.575   1.555   8.207  0.2054  2.8200  1.6457
  780MOL0     H 7604   6.273   1.305   8.017  1.9036  2.7739  2.1946
  780MOL0     H 7605   6.393   1.323   7.876  2.5574  0.1150  0.9455
  780MOL0     H 7606   6.355   1.085   7.956  0.4951 -0.3881 -1.0886
  780MOL0     H 7607   6.524   1.139   7.991 -0.0666  1.1559  1.1011
  780MOL0     H 7608   6.321   1.166   8.199 -0.5503 -2.3337  0.1081
  780MOL0     H 7609   6.482   1.201   8.208  0.8929  1.3338 -1.7192
  780MOL0     H 7610   6.541   0.957   8.165  1.4510 -0.3031  1.9145
  780MOL0     H 7611   6.369   0.914   8.151  0.3708 -0.8040  0.4984
  780MOL0     H 7612   6.494   1.065   8.396 -0.2186 -1.0164  2.0785
  780MOL0     H 7613   6.344   0.982   8.394 -0.2460  0.9283 -2.2125
  780MOL0     H 7614   6.632   0.848   8.367 -0.7134 -3.0329 -0.9218
  780MOL0     H 7615   6.477   0.766   8.351  0.8611 -1.5587 -0.5309
  780MOL0     H 7616   6.401   0.806   8.559 -0.2350 -1.0153 -1.9092
  780MOL0     H 7617   6.542   0.918   8.596 -1.4957 -0.3126  1.4720
  780MOL0     H 7618   6.695   0.702   8.573  0.5761 -0.5079  2.7278
  780MOL0     H 7619   6.553   0.614   8.519  2.3146 -2.9049  2.2313
  780MOL0     H 7620   6.313   1.519   7.870 -1.7599  0.1043 -0.5548
  780MOL0     H 7621   6.280   1.760   7.862 -1.9905 -1.6186  0.9564
  780MOL0     H 7622   6.329   2.255   7.886  0.6719  0.0927  0.0076
  780MOL0     H 7623   6.285   2.461   7.956 -0.8699 -1.0736 -0.3099
  780MOL0     H 7624   6.936   3.268   7.810  2.4880  0.2829  0.7620
  780MOL0     H 7625   6.995   3.291   8.040  0.2727  0.0881  1.4686
  780MOL0     H 7626   6.926   3.626   8.386 -3.7635 -0.1202  3.0736
  780MOL0     H 7627   6.997   3.733   8.578 -2.6539  0.0484 -3.2998
  780MOL0     H 7628   7.060   3.797   8.787 -2.2167  0.5851  0.8980
  780MOL0     H 7629   6.990   3.698   8.923  2.5782 -2.5145  0.2084
  780MOL0     H 7630   7.255   3.689   9.003 -2.6408 -1.7732 -1.4073
  780MOL0     H 7631   7.170   3.828   9.034 -0.8273  0.3241 -2.2320
  780MOL0     H 7632   7.391   3.789   8.833 -0.4090 -2.1175  1.6886
  780MOL0     H 7633   7.259   3.889   8.780 -0.9330 -3.1168 -1.1356
  780MOL0     H 7634   7.295   4.018   9.014 -2.2442 -2.0109 -1.2910
  780MOL0     H 7635   7.414   4.049   8.881  0.7708 -0.3873 -0.5028
  780MOL0     H 7636   7.605   3.804   9.200  0.1839 -0.5210 -1.2533
  780MOL0     H 7637   7.196   3.360   8.704 -0.8492 -1.6718 -0.4907
  780MOL0     H 7638   7.164   3.175   8.418 -1.5036  2.1441 -1.2066
  780MOL0     H 7639   7.157   3.158   8.590  0.5127 -0.9147 -1.0253
  780MOL0     H 7640   7.020   3.135   8.511  0.1589 -0.8370 -0.1310
  781MOL0     O 7641   7.415   8.790   5.887 -0.0628 -0.3319  0.3304
  781MOL0     C 7642   7.415   8.795   5.765  0.0755 -0.2713  0.4938
  781MOL0     O 7643   7.527   8.759   5.687 -0.0199 -0.2875 -0.0501
  781MOL0     C 7644   7.645   8.768   5.751  0.4602  0.6528  0.6699
  781MOL0     C 7645   7.722   8.652   5.770 -0.5940  0.0533 -0.0364
  781MOL0     C 7646   7.847   8.655   5.832 -0.0767 -0.5970 -1.1572
  781MOL0     C 7647   7.910   8.779   5.878  0.6621  0.4761 -0.9797
  781MOL0     O 7648   8.036   8.762   5.930  0.1526 -1.1064 -0.8173
  781MOL0     C 7649   8.113   8.885   5.930 -0.6648  0.3941  0.5515
  781MOL0     C 7650   8.261   8.839   5.972 -0.9016 -0.5678 -0.3828
  781MOL0     C 7651   8.339   8.970   5.984  0.0956  1.2217 -0.2384
  781MOL0     C 7652   8.476   8.935   6.004 -0.0714 -0.4207 -0.5289
  781MOL0     C 7653   8.564   9.057   6.035  1.0860  0.6333 -0.1242
  781MOL0     C 7654   8.710   9.022   6.067  0.5172 -0.3097  0.2003
  781MOL0     C 7655   8.805   9.148   6.100  0.2718  0.7312  0.1273
  781MOL0     C 7656   8.950   9.108   6.141 -0.6647  0.2191 -0.3915
  781MOL0     N 7657   8.962   8.998   6.235 -0.2516  0.7464  0.0862
  781MOL0     C 7658   8.926   9.008   6.365 -0.4188 -0.6875  0.2200
  781MOL0     C 7659   8.928   8.889   6.421  0.1613  0.4786  0.4161
  781MOL0     C 7660   8.875   8.846   6.554 -0.2133 -0.6321  0.4514
  781MOL0     C 7661   8.985   8.767   6.630 -0.3002  0.0816 -0.0622
  781MOL0     C 7662   9.120   8.838   6.660 -0.4227  0.3029  1.1327
  781MOL0     C 7663   9.239   8.751   6.710  1.1273  0.8400  0.0025
  781MOL0     O 7664   9.334   8.831   6.777  0.7052  0.3609  0.1414
  781MOL0     C 7665   9.343   8.849   6.915 -0.6504  1.3202  0.3270
  781MOL0     C 7666   9.239   8.798   6.994 -0.3382 -0.2720  0.0622
  781MOL0     C 7667   9.251   8.786   7.132 -0.2850 -0.1786  0.9553
  781MOL0     C 7668   9.138   8.742   7.214  1.0702 -0.2927  0.3895
  781MOL0     C 7669   9.367   8.839   7.199  0.6188 -0.9645 -0.2433
  781MOL0     C 7670   9.400   8.844   7.344  0.1395  0.5086 -0.8004
  781MOL0     O 7671   9.345   8.744   7.415  0.2409  0.2778 -0.7326
  781MOL0     C 7672   9.408   8.696   7.529 -0.0134 -0.3437 -0.4447
  781MOL0     C 7673   9.329   8.652   7.635 -0.1216 -0.0852 -0.9442
  781MOL0     C 7674   9.388   8.586   7.741 -0.4776 -0.0035  0.1884
  781MOL0     C 7675   9.529   8.566   7.737  0.3204 -0.2960  0.0648
  781MOL0     O 7676   9.589   8.477   7.830 -0.3492  0.2716 -0.1383
  781MOL0     C 7677   9.516   8.390   7.904  0.3150  0.1321  0.0033
  781MOL0     C 7678   9.598   8.335   8.010 -0.8756 -0.1086 -0.4346
  781MOL0     C 7679   9.540   8.260   8.131  0.4161  0.4002  0.6084
  781MOL0     C 7680   9.478   8.343   8.237  0.3073  0.2669  0.1263
  781MOL0     C 7681   9.365   8.270   8.314 -0.1362 -0.8555 -0.0816
  781MOL0     C 7682   9.292   8.358   8.417 -0.8476 -0.0960  0.6867
  781MOL0     C 7683   9.379   8.405   8.535  0.2869 -0.2961  0.0475
  781MOL0     C 7684   9.451   8.288   8.619  0.9038 -0.4971 -0.1816
  781MOL0    Cl 7685   9.316   8.188   8.683  0.1384 -0.1598  0.1501
  781MOL0     C 7686   9.612   8.627   7.638 -0.9500  0.0238 -0.1767
  781MOL0     C 7687   9.552   8.693   7.535  0.2492 -0.8166  0.4110
  781MOL0     O 7688   9.477   8.930   7.386 -0.7169 -0.6538 -0.4062
  781MOL0     C 7689   9.464   8.901   7.117 -0.9178  0.1712  0.8165
  781MOL0     C 7690   9.462   8.886   6.979  0.3786 -1.0851  0.1912
  781MOL0     N 7691   8.971   8.803   6.329 -0.2605  0.3648 -0.4182
  781MOL0     N 7692   8.979   8.861   6.214 -0.7839 -0.2519 -0.0897
  781MOL0     C 7693   7.836   8.896   5.854 -0.0044  0.1214 -0.6607
  781MOL0     C 7694   7.703   8.884   5.796 -0.1112 -0.7083  0.0177
  781MOL0     C 7695   7.291   8.869   5.709  0.5690 -1.1276 -0.0709
  781MOL0     C 7696   7.223   8.962   5.787  0.2921  0.0174  0.5729
  781MOL0     C 7697   7.107   9.033   5.746 -0.6078  1.2893  0.3988
  781MOL0     C 7698   7.062   9.007   5.616  1.0890  0.1443 -0.1859
  781MOL0     O 7699   6.945   9.061   5.565 -0.1892  0.2752 -0.2506
  781MOL0     C 7700   6.873   9.150   5.651  0.8884 -0.2790 -0.4223
  781MOL0     C 7701   6.741   9.185   5.568 -0.9062  0.1837 -0.3516
  781MOL0     C 7702   6.643   9.061   5.556 -1.2265 -0.2246 -0.7819
  781MOL0     C 7703   6.504   9.100   5.537  0.6331 -0.6123  0.1806
  781MOL0     C 7704   6.425   8.977   5.532 -0.7295  0.3154 -0.2869
  781MOL0     C 7705   6.379   8.862   5.553  0.3351  0.3501  0.2235
  781MOL0     C 7706   7.137   8.928   5.530 -0.2970  0.6376  0.0913
  781MOL0     C 7707   7.252   8.853   5.576 -0.2530  0.4029  1.1251
  781MOL0     C 7708   7.323   8.767   5.468 -0.7059  0.7728 -0.8552
  781MOL0     H 7709   7.678   8.556   5.746  2.5684 -1.0443 -2.2275
  781MOL0     H 7710   7.897   8.559   5.836  2.1777  0.4440 -2.4256
  781MOL0     H 7711   8.083   8.949   6.014 -0.1296  2.9319 -1.0827
  781MOL0     H 7712   8.110   8.943   5.838  0.1784 -1.3189 -0.6036
  781MOL0     H 7713   8.259   8.781   6.064 -2.7279  1.2737  0.8395
  781MOL0     H 7714   8.298   8.786   5.884 -0.7956  1.6812 -1.7736
  781MOL0     H 7715   8.337   9.018   5.886  0.5890  2.5787  0.3875
  781MOL0     H 7716   8.298   9.030   6.066  2.3231  1.1924  0.9703
  781MOL0     H 7717   8.465   8.872   6.093 -0.4010  0.2932 -0.0515
  781MOL0     H 7718   8.513   8.888   5.912 -1.2572  0.9068 -1.7237
  781MOL0     H 7719   8.515   9.107   6.119 -1.2730 -1.8914  0.1293
  781MOL0     H 7720   8.567   9.136   5.959 -0.9084  2.5066  1.5834
  781MOL0     H 7721   8.717   8.950   6.149 -1.8651 -0.8152  0.0519
  781MOL0     H 7722   8.758   8.973   5.982 -0.0404  2.0382 -1.5690
  781MOL0     H 7723   8.761   9.209   6.179 -0.8027 -2.8278  2.5123
  781MOL0     H 7724   8.813   9.212   6.012 -0.0652 -0.2508 -0.6464
  781MOL0     H 7725   9.000   9.082   6.047 -1.2806 -0.5515 -0.5219
  781MOL0     H 7726   8.996   9.200   6.179 -0.4909 -1.2415  3.4240
  781MOL0     H 7727   8.888   9.097   6.415  2.8181 -0.3202  2.3578
  781MOL0     H 7728   8.786   8.784   6.540 -1.0392  0.3838  1.1536
  781MOL0     H 7729   8.833   8.929   6.610  1.4098 -0.1739  1.0406
  781MOL0     H 7730   8.944   8.732   6.725  3.2363  2.3904  2.5851
  781MOL0     H 7731   9.012   8.676   6.576  1.3508  0.9562 -0.7978
  781MOL0     H 7732   9.161   8.896   6.576  0.2847  0.9701  1.9241
  781MOL0     H 7733   9.106   8.900   6.749 -1.5737 -2.8872  3.3724
  781MOL0     H 7734   9.200   8.674   6.776 -2.4515  0.5935 -2.1349
  781MOL0     H 7735   9.288   8.683   6.639  1.7435 -0.0141  1.2093
  781MOL0     H 7736   9.148   8.768   6.943  0.8921  0.1441 -2.5431
  781MOL0     H 7737   9.147   8.648   7.270 -0.7967 -2.6257 -2.8781
  781MOL0     H 7738   9.051   8.750   7.148  1.4248  3.3009  0.1668
  781MOL0     H 7739   9.125   8.823   7.287 -0.3326  0.3358 -0.5194
  781MOL0     H 7740   9.223   8.676   7.640  0.3743  2.0194  1.4017
  781MOL0     H 7741   9.329   8.544   7.821 -0.2818 -2.0023 -0.6756
  781MOL0     H 7742   9.427   8.434   7.951  0.2393  1.1010 -1.0207
  781MOL0     H 7743   9.483   8.317   7.830  0.4443  0.8370 -0.7558
  781MOL0     H 7744   9.674   8.268   7.970  0.2802 -0.1162  1.6786
  781MOL0     H 7745   9.662   8.409   8.059  2.0875 -1.9683 -1.2820
  781MOL0     H 7746   9.609   8.188   8.177 -0.6700 -1.2115 -0.1855
  781MOL0     H 7747   9.460   8.200   8.087  0.2867  1.7811 -1.1421
  781MOL0     H 7748   9.415   8.422   8.194  1.5984  0.7002 -1.0628
  781MOL0     H 7749   9.565   8.379   8.293 -2.0068  2.1885  2.7975
  781MOL0     H 7750   9.285   8.229   8.252  2.3687 -2.2960 -2.5419
  781MOL0     H 7751   9.401   8.191   8.381 -2.6850 -2.4005 -0.4215
  781MOL0     H 7752   9.195   8.315   8.446 -1.5450 -0.1521 -1.5392
  781MOL0     H 7753   9.251   8.440   8.357 -0.7619 -1.2691 -1.0574
  781MOL0     H 7754   9.329   8.465   8.611  1.0190 -0.0080  0.3160
  781MOL0     H 7755   9.456   8.461   8.481 -0.2384  0.3588 -0.0345
  781MOL0     H 7756   9.517   8.318   8.700 -0.0501  0.5768  0.2327
  781MOL0     H 7757   9.516   8.222   8.560  3.7878  2.3710 -0.4849
  781MOL0     H 7758   9.715   8.593   7.629 -1.2225 -1.6013  2.0796
  781MOL0     H 7759   9.611   8.731   7.452  2.1915  0.0815  2.1131
  781MOL0     H 7760   9.551   8.949   7.161 -1.9190  1.9267  1.0009
  781MOL0     H 7761   9.544   8.912   6.912 -0.9189 -0.8226 -1.3642
  781MOL0     H 7762   7.875   8.992   5.886  0.4402 -1.4464  4.3488
  781MOL0     H 7763   7.644   8.972   5.774 -1.4873 -1.0906  1.9504
  781MOL0     H 7764   7.264   8.981   5.886  0.2269  0.8315  0.4535
  781MOL0     H 7765   7.069   9.106   5.817 -2.4092  2.1951 -1.4275
  781MOL0     H 7766   6.861   9.108   5.752  3.1082  0.5854  0.2693
  781MOL0     H 7767   6.933   9.241   5.657  1.2156 -0.5338  0.2709
  781MOL0     H 7768   6.765   9.209   5.463 -1.4512 -0.4294 -0.6251
  781MOL0     H 7769   6.700   9.274   5.615  2.3796  2.3330 -1.1788
  781MOL0     H 7770   6.687   8.990   5.485  3.8715 -0.3154  1.9998
  781MOL0     H 7771   6.642   9.013   5.654 -2.4923 -1.1948 -1.2340
  781MOL0     H 7772   6.486   9.141   5.437  0.3196 -2.5932 -0.6039
  781MOL0     H 7773   6.469   9.170   5.614  1.1451 -0.4954  0.3074
  781MOL0     H 7774   6.325   8.770   5.563 -0.6331  1.1629  3.7287
  781MOL0     H 7775   7.118   8.927   5.423  2.9895  4.2229 -0.7583
  781MOL0     H 7776   7.410   8.820   5.426 -1.3784  2.1467 -0.5912
  781MOL0     H 7777   7.353   8.672   5.512  0.0719  0.9412 -1.0093
  781MOL0     H 7778   7.253   8.737   5.389 -0.6312 -0.6335 -0.4110
  782MOL0     O 7779   1.080   4.373   5.158  0.2560  0.7943 -0.1807
  782MOL0     C 7780   0.996   4.327   5.232 -0.0931  0.5061 -0.0720
  782MOL0     O 7781   0.873   4.384   5.256  1.1642  0.3174 -0.3531
  782MOL0     C 7782   0.823   4.496   5.183  0.5604 -0.2911  0.0477
  782MOL0     C 7783   0.851   4.619   5.231 -0.8638  0.2306 -0.0815
  782MOL0     C 7784   0.800   4.730   5.173 -0.3199  0.0121 -0.7656
  782MOL0     C 7785   0.713   4.721   5.060  0.1822  1.0820  0.0696
  782MOL0     O 7786   0.650   4.828   5.010  0.1431 -0.1290  1.1936
  782MOL0     C 7787   0.711   4.963   5.025  0.7882  0.6830  0.1406
  782MOL0     C 7788   0.660   5.075   4.934  0.6167  0.1874 -0.4040
  782MOL0     C 7789   0.525   5.126   4.986 -0.4244  0.1619  0.5673
  782MOL0     C 7790   0.449   5.240   4.915  0.0512 -0.0669  0.3556
  782MOL0     C 7791   0.368   5.325   5.018 -0.5834  0.1520  0.5313
  782MOL0     C 7792   0.463   5.422   5.102  0.3982  0.4662  0.4872
  782MOL0     C 7793   0.534   5.537   5.029  0.2716  0.1733 -0.5508
  782MOL0     C 7794   0.451   5.653   4.979  0.2123  0.1466 -0.2239
  782MOL0     N 7795   0.413   5.752   5.076 -1.0487 -0.8864 -0.1922
  782MOL0     C 7796   0.479   5.779   5.198 -0.6075 -0.2236 -0.2581
  782MOL0     C 7797   0.404   5.889   5.251 -0.1804  0.8575 -0.0014
  782MOL0     C 7798   0.436   5.964   5.378 -0.1408  0.1952  1.1716
  782MOL0     C 7799   0.381   5.892   5.510 -0.4016  0.1063  0.1242
  782MOL0     C 7800   0.368   5.988   5.630  0.0695  0.8175 -0.1868
  782MOL0     C 7801   0.292   6.118   5.624 -0.1678  0.4964 -0.3731
  782MOL0     O 7802   0.183   6.136   5.718 -0.5649 -0.6247 -0.3731
  782MOL0     C 7803   0.065   6.054   5.702  0.6042 -0.2060  0.0268
  782MOL0     C 7804   0.031   5.961   5.603  0.3017  0.3159  0.1475
  782MOL0     C 7805  -0.102   5.903   5.604  0.5469  0.2934  0.4293
  782MOL0     C 7806  -0.133   5.810   5.487  0.4001 -0.4809 -0.5617
  782MOL0     C 7807  -0.201   5.946   5.702  0.7929 -0.6972  0.0895
  782MOL0     C 7808  -0.341   5.906   5.710  0.0495  0.1891 -0.2646
  782MOL0     O 7809  -0.375   5.779   5.665  0.1848 -0.8850 -1.0006
  782MOL0     C 7810  -0.512   5.759   5.646 -0.7930 -0.2288 -0.1402
  782MOL0     C 7811  -0.569   5.765   5.522 -0.9319  1.0595 -0.3580
  782MOL0     C 7812  -0.701   5.731   5.508 -1.3890 -0.3067 -0.2842
  782MOL0     C 7813  -0.776   5.696   5.619 -0.6344  1.6843 -0.7435
  782MOL0     O 7814  -0.906   5.666   5.594 -0.1473  0.2868 -0.8876
  782MOL0     C 7815  -0.977   5.596   5.695 -0.3104 -1.3854  0.6689
  782MOL0     C 7816  -1.093   5.528   5.628 -0.6996  0.4287  0.9503
  782MOL0     C 7817  -1.179   5.448   5.730  0.0761  0.5926  0.3721
  782MOL0     C 7818  -1.273   5.543   5.808  0.9103 -0.5851 -0.6130
  782MOL0     C 7819  -1.416   5.478   5.791 -0.3403 -0.3204  0.0287
  782MOL0     C 7820  -1.495   5.555   5.685 -0.0732  0.4190 -0.8114
  782MOL0     C 7821  -1.637   5.486   5.685  0.8099 -1.0497  0.2104
  782MOL0     C 7822  -1.718   5.516   5.559  0.0954 -0.2482 -0.4829
  782MOL0    Cl 7823  -1.880   5.479   5.578  0.1591  0.0399  0.3386
  782MOL0     C 7824  -0.718   5.698   5.746  1.3866  0.0527  0.1756
  782MOL0     C 7825  -0.581   5.731   5.764 -0.2419 -0.1561 -0.1784
  782MOL0     O 7826  -0.422   5.992   5.743 -0.5367  0.7079  0.4496
  782MOL0     C 7827  -0.160   6.036   5.798  1.0097 -0.0303  0.3648
  782MOL0     C 7828  -0.032   6.087   5.796 -0.0997  0.3361 -0.7627
  782MOL0     N 7829   0.295   5.902   5.167  0.6106  0.3363  0.3396
  782MOL0     N 7830   0.303   5.833   5.064  0.7770 -0.5961  0.8965
  782MOL0     C 7831   0.682   4.593   5.007  0.4394 -0.8860  0.0020
  782MOL0     C 7832   0.731   4.476   5.074  0.2156 -0.4530 -0.8528
  782MOL0     C 7833   1.022   4.204   5.312 -0.1744 -0.3467 -0.0840
  782MOL0     C 7834   0.917   4.129   5.368 -0.2679  0.0965 -0.3005
  782MOL0     C 7835   0.943   4.003   5.431  0.6512 -0.2380  0.1288
  782MOL0     C 7836   1.061   3.939   5.441 -0.0623  0.2559 -0.9930
  782MOL0     O 7837   1.068   3.812   5.499  0.5594 -0.1744  0.2384
  782MOL0     C 7838   1.182   3.762   5.547 -0.6647  0.9658 -0.6261
  782MOL0     C 7839   1.158   3.631   5.617 -0.0292  0.1542  0.6934
  782MOL0     C 7840   1.141   3.499   5.525  0.8847 -0.3431  0.2646
  782MOL0     C 7841   1.265   3.475   5.433 -1.5281  0.0175 -0.3109
  782MOL0     C 7842   1.238   3.414   5.297  0.3382 -0.4369 -0.0055
  782MOL0     C 7843   1.229   3.368   5.186  0.0298 -0.1248 -0.3975
  782MOL0     C 7844   1.168   4.008   5.381  0.4187 -0.9524 -0.3109
  782MOL0     C 7845   1.144   4.139   5.324 -0.3060  0.1106 -0.3614
  782MOL0     C 7846   1.281   4.202   5.275  0.7439  0.6407 -0.3333
  782MOL0     H 7847   0.923   4.623   5.313  0.2765 -2.7782 -0.8165
  782MOL0     H 7848   0.808   4.822   5.230  0.4860 -1.3019  1.3714
  782MOL0     H 7849   0.818   4.944   5.013  0.3471 -2.9010  0.9978
  782MOL0     H 7850   0.699   5.009   5.123  0.2590  0.9876 -0.0579
  782MOL0     H 7851   0.737   5.152   4.921  0.5624  0.0041 -1.9455
  782MOL0     H 7852   0.643   5.031   4.835  2.0693 -2.7508  0.5005
  782MOL0     H 7853   0.458   5.040   4.996 -0.8634  0.6399  2.0606
  782MOL0     H 7854   0.543   5.162   5.087 -1.3715 -0.4742  0.9824
  782MOL0     H 7855   0.525   5.309   4.876  0.8427  1.3148  3.8973
  782MOL0     H 7856   0.387   5.203   4.834  1.3612 -1.1866 -0.1677
  782MOL0     H 7857   0.309   5.259   5.083 -0.6279 -0.4308 -0.0830
  782MOL0     H 7858   0.297   5.390   4.965  0.2139  1.3002  0.8385
  782MOL0     H 7859   0.411   5.464   5.188  1.6623 -0.8300  1.9381
  782MOL0     H 7860   0.542   5.356   5.140  0.1234  1.6611  3.3788
  782MOL0     H 7861   0.588   5.495   4.944 -2.9008 -1.9818 -1.6695
  782MOL0     H 7862   0.615   5.569   5.095  0.4179 -2.9527  0.9563
  782MOL0     H 7863   0.516   5.704   4.907  1.2802  1.0491  1.3186
  782MOL0     H 7864   0.368   5.610   4.922 -0.3208  2.0351 -0.9519
  782MOL0     H 7865   0.558   5.719   5.240 -3.0095 -0.7117  4.0629
  782MOL0     H 7866   0.391   6.063   5.367  0.8609  0.3782 -3.2003
  782MOL0     H 7867   0.545   5.976   5.388  0.0108 -2.3874  3.9510
  782MOL0     H 7868   0.279   5.857   5.493 -0.1062 -1.6492  1.5750
  782MOL0     H 7869   0.446   5.805   5.513  0.7403  0.9027 -0.8129
  782MOL0     H 7870   0.335   5.930   5.717  1.0635 -0.7419 -0.8060
  782MOL0     H 7871   0.465   6.019   5.670  0.7101 -0.0970 -0.9899
  782MOL0     H 7872   0.350   6.194   5.677 -2.4975  0.9603  1.7138
  782MOL0     H 7873   0.264   6.145   5.522 -1.4739  1.2374  0.1596
  782MOL0     H 7874   0.092   5.943   5.515  2.1672  0.7597  1.2857
  782MOL0     H 7875  -0.051   5.811   5.413  0.0322  0.5812 -0.9794
  782MOL0     H 7876  -0.232   5.825   5.443  0.6808 -0.2490 -1.1278
  782MOL0     H 7877  -0.128   5.706   5.521 -1.9408  0.3308  2.6943
  782MOL0     H 7878  -0.509   5.794   5.437 -1.0314 -2.3914 -1.7630
  782MOL0     H 7879  -0.742   5.737   5.407 -0.1292  2.5786 -0.7369
  782MOL0     H 7880  -0.922   5.514   5.742  1.0345 -1.6619 -1.2587
  782MOL0     H 7881  -1.015   5.673   5.762 -3.1004 -0.4967 -1.6974
  782MOL0     H 7882  -1.159   5.595   5.573  0.2928  0.0313 -0.8161
  782MOL0     H 7883  -1.057   5.453   5.556 -0.2505  0.0700  1.5406
  782MOL0     H 7884  -1.128   5.381   5.800 -0.9956 -3.0735 -2.0703
  782MOL0     H 7885  -1.237   5.383   5.663 -0.6942  2.0537 -0.4223
  782MOL0     H 7886  -1.278   5.646   5.772  1.7952 -0.5479 -0.6617
  782MOL0     H 7887  -1.232   5.549   5.910  3.3898  0.3057 -1.5830
  782MOL0     H 7888  -1.408   5.375   5.756 -0.1814 -0.1112 -0.5524
  782MOL0     H 7889  -1.467   5.485   5.888  0.9679 -0.4647  0.7646
  782MOL0     H 7890  -1.456   5.555   5.583 -2.6937  0.1963 -1.8657
  782MOL0     H 7891  -1.498   5.659   5.717  2.8985  0.7219 -1.1939
  782MOL0     H 7892  -1.698   5.507   5.773  0.9827 -4.2334  1.2024
  782MOL0     H 7893  -1.627   5.380   5.708  0.8727 -0.8622  1.0950
  782MOL0     H 7894  -1.682   5.449   5.481 -0.3631 -1.4961  0.3605
  782MOL0     H 7895  -1.691   5.619   5.533  0.8732  0.1685  1.7507
  782MOL0     H 7896  -0.784   5.682   5.831 -2.0110  2.0927 -1.8581
  782MOL0     H 7897  -0.530   5.742   5.859  0.5512  0.1226 -0.6293
  782MOL0     H 7898  -0.234   6.086   5.861  2.1968  1.5314  0.5990
  782MOL0     H 7899  -0.007   6.156   5.875  1.2057 -2.2444  1.2118
  782MOL0     H 7900   0.614   4.606   4.923  1.3755  2.5151 -0.3957
  782MOL0     H 7901   0.703   4.375   5.045 -3.2914  0.0020  0.4446
  782MOL0     H 7902   0.812   4.148   5.350 -0.2455  0.3398 -0.1681
  782MOL0     H 7903   0.860   3.954   5.480  0.2775 -0.5283 -0.7726
  782MOL0     H 7904   1.261   3.762   5.472 -1.6891 -1.6774 -1.8212
  782MOL0     H 7905   1.223   3.832   5.621  0.5665  0.6599 -1.0139
  782MOL0     H 7906   1.074   3.630   5.687 -2.8871 -0.4911 -2.4647
  782MOL0     H 7907   1.254   3.603   5.660  1.8423  2.7857 -1.4735
  782MOL0     H 7908   1.115   3.412   5.586  0.2425 -0.1167  0.3301
  782MOL0     H 7909   1.052   3.512   5.462  0.0246 -0.0980  1.4899
  782MOL0     H 7910   1.334   3.409   5.485  1.8413  2.0698 -1.8361
  782MOL0     H 7911   1.313   3.572   5.416  0.7151 -1.1948 -1.2334
  782MOL0     H 7912   1.229   3.342   5.082  2.5418  0.5366 -0.6431
  782MOL0     H 7913   1.265   3.959   5.380  0.5647 -0.7393 -2.8488
  782MOL0     H 7914   1.300   4.182   5.169  1.7655 -2.2362  0.3154
  782MOL0     H 7915   1.268   4.309   5.298  1.3403  0.1014  2.9857
  782MOL0     H 7916   1.356   4.160   5.341 -1.2871  1.0489  2.4406
  783MOL0     O 7917   4.658   1.912   7.196 -0.0328  0.2749  0.1981
  783MOL0     C 7918   4.591   1.995   7.132 -0.5411  0.3726 -0.4232
  783MOL0     O 7919   4.642   2.107   7.093 -0.6311 -0.8489 -0.1612
  783MOL0     C 7920   4.777   2.125   7.093  0.7550  0.5441 -0.7877
  783MOL0     C 7921   4.840   2.135   6.972  0.8696  0.3982 -1.2209
  783MOL0     C 7922   4.971   2.165   6.976  0.4882 -0.9751  0.2618
  783MOL0     C 7923   5.043   2.187   7.087 -0.1678  0.0313  0.8939
  783MOL0     O 7924   5.169   2.230   7.051 -0.7600 -0.3808 -0.3737
  783MOL0     C 7925   5.260   2.260   7.153  0.7379  0.2200 -0.0657
  783MOL0     C 7926   5.371   2.329   7.079 -0.0306 -0.0490 -0.3386
  783MOL0     C 7927   5.493   2.346   7.175 -0.6114 -0.4719  0.1619
  783MOL0     C 7928   5.559   2.473   7.127 -0.4873  0.2105 -0.3076
  783MOL0     C 7929   5.683   2.515   7.201  0.3584 -0.3929  0.4908
  783MOL0     C 7930   5.754   2.620   7.119  0.0002 -0.4436  0.1384
  783MOL0     C 7931   5.894   2.654   7.172  0.5814 -0.2483 -0.2818
  783MOL0     C 7932   5.989   2.545   7.129  0.2664 -0.6998 -0.1169
  783MOL0     N 7933   6.096   2.528   7.227  0.0825 -0.0212  0.3604
  783MOL0     C 7934   6.176   2.622   7.275  0.8733 -0.0892  0.4546
  783MOL0     C 7935   6.249   2.554   7.371  0.9321 -0.9593 -0.4824
  783MOL0     C 7936   6.346   2.628   7.467  1.0557 -0.1322 -0.0003
  783MOL0     C 7937   6.488   2.615   7.413  0.6903  0.2096 -0.6241
  783MOL0     C 7938   6.588   2.681   7.510 -0.3538 -0.5976 -0.5208
  783MOL0     C 7939   6.625   2.595   7.629  0.1746  0.3778  0.6864
  783MOL0     O 7940   6.713   2.490   7.590 -0.1522  0.1100 -0.8877
  783MOL0     C 7941   6.751   2.402   7.692  0.6002  0.5268  0.9925
  783MOL0     C 7942   6.875   2.408   7.753 -0.3393  0.5346  0.8791
  783MOL0     C 7943   6.917   2.341   7.865 -0.1635  0.2802 -0.2401
  783MOL0     C 7944   7.060   2.364   7.908 -0.0974  0.1275 -0.1114
  783MOL0     C 7945   6.830   2.250   7.924 -0.0967  0.5324  0.1146
  783MOL0     C 7946   6.862   2.184   8.058 -0.7815  0.8535  0.3595
  783MOL0     O 7947   6.759   2.120   8.128  0.0489  0.1018  0.4208
  783MOL0     C 7948   6.780   2.018   8.222 -0.3101 -0.5533  0.0797
  783MOL0     C 7949   6.688   2.006   8.324 -0.7357  1.1575  0.9968
  783MOL0     C 7950   6.690   1.911   8.424 -0.7192  0.2595 -1.4967
  783MOL0     C 7951   6.798   1.828   8.420 -0.5583 -0.3084 -0.5761
  783MOL0     O 7952   6.789   1.718   8.504 -0.1892 -0.6693  0.0956
  783MOL0     C 7953   6.880   1.610   8.502  0.5845  0.3093 -0.3273
  783MOL0     C 7954   6.825   1.476   8.438  0.7610 -0.6917 -0.0753
  783MOL0     C 7955   6.672   1.457   8.466  1.0513 -0.3689 -0.2437
  783MOL0     C 7956   6.653   1.412   8.616  0.4641  0.1300 -0.7353
  783MOL0     C 7957   6.518   1.337   8.629  0.8013 -0.2878 -1.0047
  783MOL0     C 7958   6.484   1.312   8.780 -0.1038 -0.1852  0.5708
  783MOL0     C 7959   6.349   1.248   8.824 -0.8002 -0.3365  0.1952
  783MOL0     C 7960   6.315   1.291   8.969 -0.3071  0.2722  0.5014
  783MOL0    Cl 7961   6.460   1.271   9.088 -0.2221 -0.3071 -0.1298
  783MOL0     C 7962   6.897   1.837   8.325 -0.4702 -0.5375 -0.2135
  783MOL0     C 7963   6.883   1.923   8.216  0.7192  0.7487 -0.4989
  783MOL0     O 7964   6.981   2.190   8.104  0.2662 -0.6584 -0.6772
  783MOL0     C 7965   6.693   2.239   7.870 -0.0447 -0.1241  0.0832
  783MOL0     C 7966   6.658   2.315   7.752  0.0778 -0.3923 -0.7061
  783MOL0     N 7967   6.218   2.424   7.371  0.1673  0.8249  0.5119
  783MOL0     N 7968   6.130   2.410   7.278 -0.2904  0.5118 -0.1218
  783MOL0     C 7969   4.984   2.167   7.210 -0.7132  0.2062 -0.7552
  783MOL0     C 7970   4.847   2.143   7.218 -0.7280  0.4111 -0.0189
  783MOL0     C 7971   4.444   1.997   7.129  0.2643 -0.0967 -0.0352
  783MOL0     C 7972   4.373   2.124   7.130 -0.3459  0.1082  0.3234
  783MOL0     C 7973   4.236   2.128   7.134 -0.3598  0.3310  0.3998
  783MOL0     C 7974   4.164   2.013   7.118  0.1990 -0.3832  0.0866
  783MOL0     O 7975   4.029   2.038   7.137 -0.2237  0.2767 -0.2635
  783MOL0     C 7976   3.960   1.938   7.214 -0.3370  0.9461  0.5768
  783MOL0     C 7977   3.884   1.843   7.121 -0.2689  0.1108 -0.4508
  783MOL0     C 7978   3.786   1.920   7.041 -0.5888  0.7853  0.0723
  783MOL0     C 7979   3.691   1.835   6.948 -1.0130 -0.5090  0.0852
  783MOL0     C 7980   3.636   1.925   6.851  0.6476 -0.5449  0.2388
  783MOL0     C 7981   3.612   1.999   6.760 -0.4040 -0.1408 -0.1824
  783MOL0     C 7982   4.226   1.894   7.101  0.8818 -0.3639  0.3609
  783MOL0     C 7983   4.367   1.876   7.112  0.1612 -0.0164 -0.4735
  783MOL0     C 7984   4.435   1.734   7.098  0.1164 -1.1627  0.2557
  783MOL0     H 7985   4.779   2.134   6.882 -1.8370 -2.6212  0.4358
  783MOL0     H 7986   5.022   2.169   6.880 -2.3575 -1.1736 -1.3751
  783MOL0     H 7987   5.295   2.168   7.201 -3.1149 -0.2245  2.3545
  783MOL0     H 7988   5.211   2.317   7.233  0.5604 -0.4228  0.2948
  783MOL0     H 7989   5.397   2.276   6.987 -1.7771 -1.4615 -0.0736
  783MOL0     H 7990   5.338   2.433   7.066  2.8094  0.9723 -0.1208
  783MOL0     H 7991   5.458   2.358   7.278 -0.7766 -1.5524  0.2429
  783MOL0     H 7992   5.548   2.252   7.169  3.6116  1.7327  0.8489
  783MOL0     H 7993   5.575   2.446   7.022 -0.5257 -2.0424  0.2200
  783MOL0     H 7994   5.498   2.563   7.126  0.6445  1.0065 -1.3583
  783MOL0     H 7995   5.739   2.425   7.230  0.9759  0.0641  0.7343
  783MOL0     H 7996   5.655   2.570   7.292 -0.3455 -0.6926  0.4634
  783MOL0     H 7997   5.770   2.585   7.017  5.5015  0.5388  0.3518
  783MOL0     H 7998   5.692   2.710   7.123 -0.2566 -0.5990 -0.3030
  783MOL0     H 7999   5.883   2.663   7.280 -2.7167  2.0888 -0.6622
  783MOL0     H 8000   5.931   2.748   7.131 -2.0128  0.0189 -2.2523
  783MOL0     H 8001   5.935   2.452   7.111 -1.6094 -0.3513  2.9341
  783MOL0     H 8002   6.041   2.571   7.037  2.9431 -0.0490  1.4671
  783MOL0     H 8003   6.176   2.725   7.240 -0.5324 -0.6260 -1.2427
  783MOL0     H 8004   6.331   2.569   7.558 -1.9228 -3.6450 -2.4130
  783MOL0     H 8005   6.313   2.731   7.483 -0.1578 -0.7485  1.7223
  783MOL0     H 8006   6.508   2.507   7.411  1.1712  0.2825 -0.0422
  783MOL0     H 8007   6.497   2.657   7.312 -1.1010  0.8249 -0.5623
  783MOL0     H 8008   6.680   2.692   7.452 -0.8970 -0.6414 -1.4187
  783MOL0     H 8009   6.566   2.786   7.532  2.1383  0.4318 -2.4698
  783MOL0     H 8010   6.674   2.659   7.703  0.1701 -0.9447  1.8876
  783MOL0     H 8011   6.533   2.559   7.676 -1.6488  3.3075 -0.3634
  783MOL0     H 8012   6.953   2.463   7.702 -1.1368  0.3535 -0.6127
  783MOL0     H 8013   7.122   2.274   7.897  3.8714  2.2791  2.2342
  783MOL0     H 8014   7.062   2.401   8.011 -0.2742 -0.9128  0.2739
  783MOL0     H 8015   7.097   2.453   7.856 -0.7595  0.9137  0.7159
  783MOL0     H 8016   6.607   2.078   8.323 -0.5267  1.4403  2.3541
  783MOL0     H 8017   6.609   1.903   8.496  0.4631  0.1034 -0.1350
  783MOL0     H 8018   6.978   1.632   8.459 -0.0564 -2.3870 -3.5913
  783MOL0     H 8019   6.909   1.589   8.606  0.2312 -2.8880 -0.7710
  783MOL0     H 8020   6.826   1.487   8.329 -0.4730  0.8488  0.0338
  783MOL0     H 8021   6.893   1.395   8.464  1.6982  0.7782  2.3743
  783MOL0     H 8022   6.630   1.372   8.411 -1.0556  0.3625  0.1635
  783MOL0     H 8023   6.617   1.548   8.441 -0.1824 -1.7733 -3.0369
  783MOL0     H 8024   6.643   1.506   8.670 -2.7873  0.3494 -1.5181
  783MOL0     H 8025   6.737   1.354   8.655 -1.9329 -2.2267  1.2875
  783MOL0     H 8026   6.451   1.400   8.571 -1.9307 -2.8281 -0.8723
  783MOL0     H 8027   6.516   1.252   8.561  2.3009 -1.5772  0.4591
  783MOL0     H 8028   6.460   1.413   8.816 -1.0621 -0.3761  0.5006
  783MOL0     H 8029   6.575   1.269   8.824  1.7086  0.5903 -2.1880
  783MOL0     H 8030   6.355   1.140   8.812 -4.3608 -1.0105  2.8241
  783MOL0     H 8031   6.268   1.274   8.754 -1.6027 -4.8902 -0.8970
  783MOL0     H 8032   6.229   1.229   8.997  0.0122 -0.0332  0.8167
  783MOL0     H 8033   6.299   1.399   8.965  5.3227  1.3694 -1.3032
  783MOL0     H 8034   6.978   1.766   8.319 -1.5563 -1.6594 -2.7512
  783MOL0     H 8035   6.954   1.929   8.133  0.1481  0.7609 -0.9939
  783MOL0     H 8036   6.627   2.177   7.930 -1.4132  2.9224  1.9873
  783MOL0     H 8037   6.558   2.299   7.714 -1.3270  2.4392  1.4507
  783MOL0     H 8038   5.053   2.183   7.291 -2.4494 -2.0518  1.3249
  783MOL0     H 8039   4.799   2.156   7.314  0.3930  0.8440  0.4985
  783MOL0     H 8040   4.436   2.212   7.136  2.0713 -1.6036  1.4640
  783MOL0     H 8041   4.189   2.225   7.136 -2.2085 -0.5006 -0.2886
  783MOL0     H 8042   4.026   1.880   7.280 -0.6122  1.4283  1.2862
  783MOL0     H 8043   3.893   1.986   7.286  1.2180  0.3883  2.5134
  783MOL0     H 8044   3.839   1.760   7.175 -0.3152  2.4111  3.4184
  783MOL0     H 8045   3.951   1.799   7.046 -0.7410  1.2130 -1.5669
  783MOL0     H 8046   3.724   1.987   7.103  0.1836 -0.0924  1.8770
  783MOL0     H 8047   3.835   1.984   6.967 -0.2778  0.3566 -0.0925
  783MOL0     H 8048   3.626   1.768   7.005  1.2226  1.9161  6.3815
  783MOL0     H 8049   3.758   1.762   6.901  1.2314  0.5548  1.4376
  783MOL0     H 8050   3.614   2.070   6.680  2.3633  1.6583  1.3499
  783MOL0     H 8051   4.163   1.808   7.081 -1.0340  0.6962  1.5929
  783MOL0     H 8052   4.486   1.701   7.188  1.7970 -1.2847 -0.7081
  783MOL0     H 8053   4.366   1.651   7.082  0.1286 -0.7797 -2.2135
  783MOL0     H 8054   4.501   1.739   7.011 -1.9328 -2.0873 -1.4595
  784MOL0     O 8055   0.000   5.806   2.357 -0.9457 -0.7962  0.4533
  784MOL0     C 8056   0.007   5.772   2.469 -0.1196  0.1912 -0.1187
  784MOL0     O 8057   0.118   5.711   2.518  0.1276 -0.5036 -0.4909
  784MOL0     C 8058   0.222   5.682   2.436 -0.4768 -0.1403 -0.2552
  784MOL0     C 8059   0.255   5.547   2.416  0.5044  0.5408  0.6278
  784MOL0     C 8060   0.359   5.495   2.337  0.7148  0.8030 -0.1903
  784MOL0     C 8061   0.432   5.592   2.266 -0.2681 -1.0279 -0.3964
  784MOL0     O 8062   0.524   5.568   2.169 -0.1638  0.1835  0.6901
  784MOL0     C 8063   0.558   5.432   2.128  0.6339 -0.0005 -0.9439
  784MOL0     C 8064   0.448   5.371   2.048  0.0730 -0.0266 -0.6195
  784MOL0     C 8065   0.461   5.224   2.004  0.1296 -0.6227 -0.5269
  784MOL0     C 8066   0.498   5.126   2.122  1.2133  0.0774  0.5126
  784MOL0     C 8067   0.470   4.982   2.092 -0.0050  0.0936 -0.0729
  784MOL0     C 8068   0.551   4.886   2.186  0.3435  0.5226  0.2200
  784MOL0     C 8069   0.547   4.735   2.153  0.0448  0.6545  0.2163
  784MOL0     C 8070   0.403   4.680   2.141  0.0709  0.3182 -1.0261
  784MOL0     N 8071   0.326   4.690   2.267  0.4489  0.3542 -0.3848
  784MOL0     C 8072   0.195   4.653   2.269  0.3960  0.4447  0.0950
  784MOL0     C 8073   0.167   4.643   2.395  1.2636  1.3931 -0.3303
  784MOL0     C 8074   0.029   4.597   2.448 -0.2094  0.6169 -0.2429
  784MOL0     C 8075  -0.071   4.683   2.517  0.3288 -0.5677 -0.4660
  784MOL0     C 8076  -0.121   4.640   2.651  0.7783 -0.7991  0.4036
  784MOL0     C 8077  -0.226   4.748   2.691 -0.2750 -0.0164  0.6599
  784MOL0     O 8078  -0.349   4.738   2.608 -0.1193 -0.7222 -0.2720
  784MOL0     C 8079  -0.429   4.847   2.582  0.3410 -0.4127 -0.1909
  784MOL0     C 8080  -0.550   4.804   2.534  0.5536  0.0122 -0.4017
  784MOL0     C 8081  -0.662   4.881   2.502 -0.5154 -0.1317 -0.9843
  784MOL0     C 8082  -0.784   4.822   2.443 -0.4526 -0.4541  0.1657
  784MOL0     C 8083  -0.645   5.014   2.535  0.0456 -0.2888  0.1540
  784MOL0     C 8084  -0.765   5.109   2.530 -0.0075 -0.1588  0.5109
  784MOL0     O 8085  -0.835   5.131   2.411  0.2297  0.3139  0.0319
  784MOL0     C 8086  -0.918   5.241   2.414 -0.2797  0.5292 -0.8501
  784MOL0     C 8087  -0.881   5.361   2.353 -0.0740 -0.5968 -0.3423
  784MOL0     C 8088  -0.975   5.466   2.340  0.0193  1.1684 -0.3129
  784MOL0     C 8089  -1.104   5.454   2.403 -0.4414  0.3888 -0.3149
  784MOL0     O 8090  -1.188   5.560   2.401  0.1516  0.2491  0.5229
  784MOL0     C 8091  -1.319   5.534   2.366 -0.6015  0.1755  0.4827
  784MOL0     C 8092  -1.321   5.508   2.209 -0.6430 -0.1784  0.5612
  784MOL0     C 8093  -1.349   5.365   2.176  0.4476 -1.0767 -0.1023
  784MOL0     C 8094  -1.337   5.352   2.016  0.1601  0.5869 -0.2011
  784MOL0     C 8095  -1.230   5.260   1.974  0.1922 -0.1614 -1.5953
  784MOL0     C 8096  -1.178   5.289   1.829  0.6907  0.0788 -0.2602
  784MOL0     C 8097  -1.079   5.400   1.820  0.1892 -0.2717 -0.3132
  784MOL0     C 8098  -0.955   5.369   1.898 -0.4413 -0.0805  0.0393
  784MOL0    Cl 8099  -0.882   5.204   1.895 -0.2005  0.0019  0.0555
  784MOL0     C 8100  -1.139   5.337   2.475  0.0057  1.0475 -0.0110
  784MOL0     C 8101  -1.040   5.232   2.476 -0.4927  0.4200  0.4371
  784MOL0     O 8102  -0.780   5.166   2.636  0.5727  0.1738  0.2169
  784MOL0     C 8103  -0.522   5.063   2.594  0.4968 -0.3260  0.2977
  784MOL0     C 8104  -0.417   4.978   2.620 -0.6069  0.5393  0.2567
  784MOL0     N 8105   0.279   4.671   2.475  1.1040 -0.1563  0.2906
  784MOL0     N 8106   0.377   4.692   2.390  0.2485 -0.3101 -0.2610
  784MOL0     C 8107   0.398   5.727   2.286  0.1984 -0.3245 -0.4779
  784MOL0     C 8108   0.301   5.776   2.372  0.5431 -0.6068  0.2174
  784MOL0     C 8109  -0.111   5.796   2.561 -0.2594  0.8819 -0.7803
  784MOL0     C 8110  -0.098   5.755   2.695 -0.4075 -1.3188  0.0236
  784MOL0     C 8111  -0.202   5.782   2.791 -0.5623 -0.0472 -0.2239
  784MOL0     C 8112  -0.322   5.834   2.753  0.7548  0.3299 -0.3877
  784MOL0     O 8113  -0.426   5.857   2.845 -0.4592 -0.3066 -0.1827
  784MOL0     C 8114  -0.401   5.954   2.942  0.6116  0.1547 -0.1027
  784MOL0     C 8115  -0.447   5.901   3.080 -0.8250  0.4941 -0.7079
  784MOL0     C 8116  -0.363   5.790   3.130 -0.6303  0.2215 -0.1833
  784MOL0     C 8117  -0.222   5.830   3.164  0.3917 -0.0511 -0.0749
  784MOL0     C 8118  -0.124   5.724   3.178  0.9114 -0.7505 -0.2159
  784MOL0     C 8119  -0.051   5.632   3.214 -0.6908  0.0749  0.3738
  784MOL0     C 8120  -0.339   5.858   2.626 -0.5554 -0.3403 -0.1890
  784MOL0     C 8121  -0.240   5.842   2.531 -0.3129 -0.3617  0.1679
  784MOL0     C 8122  -0.264   5.887   2.390  0.0736 -0.8504 -0.4929
  784MOL0     H 8123   0.200   5.476   2.477 -1.9292  0.4550 -1.5214
  784MOL0     H 8124   0.380   5.389   2.339  1.5782  0.9804  1.1020
  784MOL0     H 8125   0.593   5.364   2.206  1.4497 -1.1229 -2.2500
  784MOL0     H 8126   0.646   5.438   2.064  0.8058  2.3271 -0.5798
  784MOL0     H 8127   0.346   5.379   2.087  0.4523  0.0311  0.3851
  784MOL0     H 8128   0.464   5.435   1.961  1.3298 -0.1154 -0.4661
  784MOL0     H 8129   0.375   5.194   1.943  0.4023  1.6563 -2.1860
  784MOL0     H 8130   0.547   5.226   1.936  2.3821 -0.1163  2.1453
  784MOL0     H 8131   0.598   5.133   2.165  1.2953  2.2477  0.0544
  784MOL0     H 8132   0.432   5.154   2.205 -0.0704 -0.0114 -0.4470
  784MOL0     H 8133   0.498   4.960   1.989 -0.3036  0.5876 -0.2614
  784MOL0     H 8134   0.367   4.950   2.112  0.5268 -0.2272  2.5061
  784MOL0     H 8135   0.658   4.908   2.189  0.9674 -1.7809 -1.7228
  784MOL0     H 8136   0.494   4.903   2.277 -0.0352 -0.2750  0.1406
  784MOL0     H 8137   0.607   4.678   2.225  2.5511  1.2158 -1.2786
  784MOL0     H 8138   0.588   4.730   2.051  0.8297  1.6403  0.4642
  784MOL0     H 8139   0.344   4.736   2.067 -0.7459  1.2571  0.2678
  784MOL0     H 8140   0.413   4.578   2.104  2.8345  1.2052 -3.0354
  784MOL0     H 8141   0.129   4.625   2.187  1.2648 -3.1591  0.4675
  784MOL0     H 8142   0.065   4.512   2.506 -1.2599  0.0565 -0.4004
  784MOL0     H 8143  -0.025   4.551   2.365  1.2473 -5.0595  1.5147
  784MOL0     H 8144  -0.020   4.780   2.519 -1.0640  0.2098 -1.3756
  784MOL0     H 8145  -0.154   4.691   2.447 -0.6929 -1.8519  0.5455
  784MOL0     H 8146  -0.174   4.544   2.653  0.8499 -0.8823 -0.8854
  784MOL0     H 8147  -0.034   4.642   2.716  3.4355 -2.0309 -2.8239
  784MOL0     H 8148  -0.256   4.726   2.794 -1.5502 -0.6007  0.1923
  784MOL0     H 8149  -0.176   4.844   2.680 -0.0088  0.0515  2.2414
  784MOL0     H 8150  -0.562   4.698   2.511 -4.5009  0.5935 -1.6396
  784MOL0     H 8151  -0.791   4.713   2.454 -0.8658 -0.6677 -1.8903
  784MOL0     H 8152  -0.793   4.853   2.338 -2.9769  7.0642  1.9394
  784MOL0     H 8153  -0.877   4.863   2.483 -1.8402 -1.8568 -1.4886
  784MOL0     H 8154  -0.780   5.388   2.323 -0.4675  0.8524 -0.4352
  784MOL0     H 8155  -0.953   5.563   2.299 -1.5147  1.3193 -0.8306
  784MOL0     H 8156  -1.362   5.446   2.414  1.0756 -1.4132 -0.8186
  784MOL0     H 8157  -1.378   5.624   2.384 -1.6764 -0.2010 -0.9031
  784MOL0     H 8158  -1.393   5.570   2.154 -0.2714 -0.0665  0.1976
  784MOL0     H 8159  -1.226   5.549   2.174 -1.4763  0.7689 -0.6705
  784MOL0     H 8160  -1.454   5.346   2.202 -0.1595  2.6875  0.8011
  784MOL0     H 8161  -1.274   5.308   2.233  1.1488  0.5185  0.6144
  784MOL0     H 8162  -1.341   5.448   1.964  0.9465  1.8127  1.8625
  784MOL0     H 8163  -1.431   5.306   1.985  1.0729  0.3449 -2.8595
  784MOL0     H 8164  -1.143   5.243   2.038  1.6129  3.1580 -2.4744
  784MOL0     H 8165  -1.282   5.163   1.977  0.7374 -0.5374 -3.2528
  784MOL0     H 8166  -1.264   5.306   1.763 -1.0808  1.3105  2.2003
  784MOL0     H 8167  -1.132   5.199   1.788  0.7686  0.5261 -1.1768
  784MOL0     H 8168  -1.116   5.499   1.844 -0.1967  0.0001 -1.9003
  784MOL0     H 8169  -1.044   5.411   1.717  0.3212 -2.3884 -0.5485
  784MOL0     H 8170  -0.973   5.395   2.003  2.0826  2.7063 -0.0688
  784MOL0     H 8171  -0.875   5.437   1.866  3.3099 -3.5504  1.1716
  784MOL0     H 8172  -1.228   5.324   2.535  0.6191 -0.9028  0.5475
  784MOL0     H 8173  -1.062   5.136   2.521  1.1919  0.3069  1.0965
  784MOL0     H 8174  -0.518   5.162   2.637  0.5304  0.2098 -0.8989
  784MOL0     H 8175  -0.330   5.013   2.675 -0.3531 -0.6237  0.6158
  784MOL0     H 8176   0.471   5.795   2.244  0.9503 -0.1218  1.0848
  784MOL0     H 8177   0.285   5.882   2.391 -0.3703 -1.1477  2.8506
  784MOL0     H 8178  -0.013   5.699   2.734  0.3310  0.3194  0.8464
  784MOL0     H 8179  -0.183   5.737   2.888  1.3830  1.3824  0.1158
  784MOL0     H 8180  -0.300   5.993   2.958 -1.0293  3.4758  4.2789
  784MOL0     H 8181  -0.455   6.042   2.908  1.9725  1.1430  0.1884
  784MOL0     H 8182  -0.552   5.869   3.074 -0.4998 -0.4096 -1.7889
  784MOL0     H 8183  -0.444   5.985   3.150  1.2220 -0.1038 -0.0233
  784MOL0     H 8184  -0.416   5.751   3.217  2.1997 -1.7871  0.7746
  784MOL0     H 8185  -0.363   5.710   3.056  0.0354 -0.4174  0.4905
  784MOL0     H 8186  -0.218   5.899   3.249  0.2200  2.5316 -2.0440
  784MOL0     H 8187  -0.175   5.884   3.082  1.1766  0.7542  0.8845
  784MOL0     H 8188   0.012   5.552   3.247 -2.3087 -1.1520  0.5709
  784MOL0     H 8189  -0.437   5.892   2.594 -0.3123  1.4399  0.8008
  784MOL0     H 8190  -0.354   5.949   2.392  0.4615 -0.1565 -2.2624
  784MOL0     H 8191  -0.185   5.949   2.347  0.9465 -0.6722  1.2873
  784MOL0     H 8192  -0.296   5.798   2.335  1.8964 -0.8794 -1.5813
  785MOL0     O 8193   1.176   0.394   9.987 -1.2314 -0.5563 -0.6946
  785MOL0     C 8194   1.124   0.407   9.876  0.3931 -0.2393  0.3135
  785MOL0     O 8195   1.068   0.304   9.812  0.2231  0.1022  0.6194
  785MOL0     C 8196   1.109   0.180   9.857  0.4596 -0.1130  0.2555
  785MOL0     C 8197   1.033   0.111   9.947  0.1156 -0.0189  0.2968
  785MOL0     C 8198   1.063  -0.019   9.989  0.9188 -0.2217  0.4609
  785MOL0     C 8199   1.169  -0.086   9.940  0.4925 -1.4810  0.5280
  785MOL0     O 8200   1.210  -0.207   9.981  0.3801  0.6334 -0.1741
  785MOL0     C 8201   1.128  -0.313   9.933 -0.8344  0.4718  0.1652
  785MOL0     C 8202   1.121  -0.331   9.783  0.5448 -1.3362 -0.0490
  785MOL0     C 8203   1.253  -0.351   9.709 -0.6736 -0.2804 -0.6884
  785MOL0     C 8204   1.237  -0.377   9.565 -0.2978  0.5429 -0.0988
  785MOL0     C 8205   1.176  -0.518   9.527  0.3628  0.6094  0.7013
  785MOL0     C 8206   1.173  -0.527   9.374  0.4199  0.6658 -0.4077
  785MOL0     C 8207   1.087  -0.643   9.324 -0.3800 -0.4575 -0.4411
  785MOL0     C 8208   1.110  -0.765   9.411  0.2951  0.6967  0.2143
  785MOL0     N 8209   1.067  -0.899   9.355 -0.0331  0.0253  0.7273
  785MOL0     C 8210   1.117  -0.959   9.243  0.3847  0.1253 -0.1563
  785MOL0     C 8211   1.107  -1.100   9.264 -0.5356 -1.3408 -0.2699
  785MOL0     C 8212   1.157  -1.203   9.170 -0.4607  0.3331  0.4910
  785MOL0     C 8213   1.283  -1.265   9.220 -1.1725  0.1579  1.1437
  785MOL0     C 8214   1.359  -1.371   9.132 -0.1119 -0.1741  0.1633
  785MOL0     C 8215   1.327  -1.512   9.155  0.4177  0.7214 -0.9456
  785MOL0     O 8216   1.447  -1.574   9.200  0.5055 -0.3297 -0.2991
  785MOL0     C 8217   1.464  -1.705   9.171  0.4166  0.0946  0.0783
  785MOL0     C 8218   1.359  -1.796   9.142  0.1671 -0.3074 -0.4303
  785MOL0     C 8219   1.381  -1.924   9.102 -0.0005  0.3775  0.9494
  785MOL0     C 8220   1.261  -2.009   9.079 -0.4020  0.2837 -0.7910
  785MOL0     C 8221   1.521  -1.961   9.084 -0.0556  0.2322  0.0096
  785MOL0     C 8222   1.553  -2.095   9.032  1.5099  0.2281  0.0047
  785MOL0     O 8223   1.669  -2.108   8.965  0.2907 -0.2745  0.2258
  785MOL0     C 8224   1.691  -2.206   8.872 -0.1736 -0.0146 -0.2361
  785MOL0     C 8225   1.597  -2.305   8.826  0.8895  0.3313  0.8453
  785MOL0     C 8226   1.649  -2.403   8.735  0.4456 -0.1633  0.4510
  785MOL0     C 8227   1.780  -2.391   8.686  0.6620 -0.4253 -0.1052
  785MOL0     O 8228   1.844  -2.474   8.605 -0.4674 -0.1437  0.3543
  785MOL0     C 8229   1.774  -2.580   8.546 -0.1804  1.0757  0.0042
  785MOL0     C 8230   1.783  -2.700   8.631  0.2585 -0.5516  0.2930
  785MOL0     C 8231   1.919  -2.770   8.630 -0.4663 -0.9032  0.5312
  785MOL0     C 8232   1.928  -2.905   8.696  0.9209  1.6410  0.2051
  785MOL0     C 8233   2.063  -2.978   8.671 -0.9625 -0.4500 -0.1895
  785MOL0     C 8234   2.078  -3.122   8.715 -0.4640  0.6683 -0.2146
  785MOL0     C 8235   2.036  -3.154   8.860  0.5997  0.0541 -0.4058
  785MOL0     C 8236   2.154  -3.145   8.961  0.3585 -0.9291 -0.1956
  785MOL0    Cl 8237   2.152  -3.310   9.035 -0.3847 -0.1443 -0.0771
  785MOL0     C 8238   1.866  -2.300   8.747  0.7573  0.2253  1.8269
  785MOL0     C 8239   1.821  -2.217   8.836  0.0383 -0.1485  0.0992
  785MOL0     O 8240   1.480  -2.190   9.062  0.0131 -0.4286 -0.6504
  785MOL0     C 8241   1.626  -1.869   9.113  0.7391  0.2083  0.2628
  785MOL0     C 8242   1.595  -1.739   9.159 -0.3195  0.3561  0.8231
  785MOL0     N 8243   1.054  -1.113   9.393  0.7799 -0.5803  0.5389
  785MOL0     N 8244   1.016  -0.994   9.431  0.2732 -0.4222  0.2432
  785MOL0     C 8245   1.250  -0.008   9.854  0.0963 -0.1532  0.8496
  785MOL0     C 8246   1.219   0.116   9.802 -0.1305 -0.7428  0.5135
  785MOL0     C 8247   1.106   0.544   9.807 -0.3305 -1.0859 -0.4902
  785MOL0     C 8248   1.011   0.561   9.710 -0.9672  0.8533  0.3030
  785MOL0     C 8249   0.998   0.674   9.630 -0.1690  1.0092 -1.1361
  785MOL0     C 8250   1.077   0.788   9.663 -0.5339 -0.0236  0.4792
  785MOL0     O 8251   1.075   0.902   9.583  0.7097  0.4020 -0.3271
  785MOL0     C 8252   0.994   0.912   9.465 -0.1333  0.8803  0.9070
  785MOL0     C 8253   1.000   1.056   9.412  0.6281  0.5626 -0.4685
  785MOL0     C 8254   1.069   1.073   9.275 -0.0015 -0.5929  0.6698
  785MOL0     C 8255   0.957   1.057   9.163 -0.2246  1.3627  0.9818
  785MOL0     C 8256   1.021   1.061   9.032 -0.1066 -0.4344 -0.0036
  785MOL0     C 8257   1.089   1.047   8.930  0.0956 -0.0924 -0.0192
  785MOL0     C 8258   1.172   0.781   9.760  0.2809 -0.7727 -0.6277
  785MOL0     C 8259   1.184   0.662   9.842 -0.3470 -1.1349 -0.1980
  785MOL0     C 8260   1.289   0.667   9.950 -0.8618 -0.2127  0.1207
  785MOL0     H 8261   0.942   0.153   9.988  1.4240  1.9739  1.3076
  785MOL0     H 8262   0.986  -0.062  10.053 -1.3209  0.2985 -1.7325
  785MOL0     H 8263   1.024  -0.298   9.966 -2.0531 -0.4559 -2.9535
  785MOL0     H 8264   1.166  -0.401   9.985 -0.6228  1.0396  0.9887
  785MOL0     H 8265   1.052  -0.412   9.760 -0.2041 -0.6017 -0.4569
  785MOL0     H 8266   1.075  -0.238   9.749 -0.2022 -1.6088  0.1803
  785MOL0     H 8267   1.305  -0.255   9.709  0.8223 -1.0005  2.1633
  785MOL0     H 8268   1.310  -0.427   9.763  2.1929  2.3222  0.2114
  785MOL0     H 8269   1.159  -0.308   9.532  0.0572 -1.4337 -6.1498
  785MOL0     H 8270   1.327  -0.375   9.502  0.0120 -0.9722  0.2691
  785MOL0     H 8271   1.083  -0.543   9.579 -0.3440 -1.5734 -1.4383
  785MOL0     H 8272   1.252  -0.586   9.567  1.6618  1.0509 -0.9363
  785MOL0     H 8273   1.140  -0.431   9.335 -2.7510 -0.1260  0.0484
  785MOL0     H 8274   1.277  -0.528   9.339  1.3262  1.9312  2.0504
  785MOL0     H 8275   1.127  -0.661   9.223 -0.6775  0.3699 -0.7165
  785MOL0     H 8276   0.982  -0.613   9.319 -0.2887  0.5014  1.9587
  785MOL0     H 8277   1.215  -0.769   9.439  1.0445 -3.6386 -2.2773
  785MOL0     H 8278   1.055  -0.755   9.505  2.4689  1.3573  1.4804
  785MOL0     H 8279   1.160  -0.916   9.154 -2.0705  2.0345 -0.5456
  785MOL0     H 8280   1.176  -1.164   9.070 -0.0393  0.9364  0.7994
  785MOL0     H 8281   1.082  -1.283   9.169  2.2630 -2.4471 -1.2071
  785MOL0     H 8282   1.355  -1.183   9.216 -0.5838 -0.3990 -1.8277
  785MOL0     H 8283   1.273  -1.302   9.322 -1.1957 -0.5207  0.8960
  785MOL0     H 8284   1.341  -1.352   9.026  1.6076  0.3509 -0.0570
  785MOL0     H 8285   1.467  -1.359   9.147  0.0583 -2.3825  1.0064
  785MOL0     H 8286   1.256  -1.534   9.235 -3.0633  4.5630 -2.6284
  785MOL0     H 8287   1.278  -1.550   9.065  1.5278 -0.7159 -0.9771
  785MOL0     H 8288   1.255  -1.764   9.137  0.1870 -0.1769  0.0227
  785MOL0     H 8289   1.272  -2.068   8.988 -0.7594  0.2499 -0.8132
  785MOL0     H 8290   1.178  -1.939   9.065 -0.6758  0.4918  1.4644
  785MOL0     H 8291   1.255  -2.080   9.162 -1.5457  1.4494  0.1741
  785MOL0     H 8292   1.490  -2.297   8.840  1.0040 -0.1617  2.0983
  785MOL0     H 8293   1.576  -2.478   8.708  2.8999 -3.0152  1.2503
  785MOL0     H 8294   1.669  -2.565   8.519 -1.1678 -1.0060  2.3122
  785MOL0     H 8295   1.811  -2.591   8.443 -1.1159 -2.7438 -0.0953
  785MOL0     H 8296   1.763  -2.671   8.735  3.0017 -0.3117  0.8413
  785MOL0     H 8297   1.706  -2.768   8.595 -2.3725  2.2200  0.3145
  785MOL0     H 8298   1.987  -2.708   8.688  0.3329 -1.8450  0.6414
  785MOL0     H 8299   1.960  -2.781   8.529  3.1394 -0.8504  1.8242
  785MOL0     H 8300   1.853  -2.973   8.654  0.7639  2.1907 -0.4226
  785MOL0     H 8301   1.893  -2.895   8.799  3.1396  0.8158  1.1079
  785MOL0     H 8302   2.085  -2.972   8.564  0.5069  2.2073  0.1878
  785MOL0     H 8303   2.135  -2.919   8.728  1.2003 -1.9465 -1.2242
  785MOL0     H 8304   2.186  -3.140   8.712 -0.2130  1.0293  2.8686
  785MOL0     H 8305   2.022  -3.196   8.658 -2.7730  1.7714  0.4902
  785MOL0     H 8306   1.982  -3.249   8.868 -0.0357  0.1366 -2.8478
  785MOL0     H 8307   1.960  -3.080   8.884  0.4539  1.4218 -4.3529
  785MOL0     H 8308   2.141  -3.068   9.037 -1.7522  1.4902 -2.8076
  785MOL0     H 8309   2.249  -3.138   8.907  0.9029 -4.5980  0.0012
  785MOL0     H 8310   1.971  -2.308   8.722  0.1678  0.1839 -0.9070
  785MOL0     H 8311   1.892  -2.142   8.872  1.0815 -1.9813  2.0657
  785MOL0     H 8312   1.730  -1.900   9.110  0.7575  0.2588  0.3930
  785MOL0     H 8313   1.682  -1.683   9.191 -0.3627  0.5506  0.6008
  785MOL0     H 8314   1.341  -0.044   9.807  0.1773  3.0638 -1.7661
  785MOL0     H 8315   1.284   0.169   9.733 -0.2776  0.9047  1.5766
  785MOL0     H 8316   0.945   0.478   9.689 -1.8765  1.5396  0.3740
  785MOL0     H 8317   0.937   0.669   9.541  1.6063 -1.1082 -2.3432
  785MOL0     H 8318   1.024   0.839   9.389 -2.3137  1.7653 -0.9310
  785MOL0     H 8319   0.890   0.888   9.488 -0.3383  1.3668  0.5015
  785MOL0     H 8320   1.075   1.109   9.472  3.5189 -1.6855 -1.8266
  785MOL0     H 8321   0.900   1.099   9.412 -0.0057 -0.8331  1.0231
  785MOL0     H 8322   1.110   1.175   9.273 -1.2270 -0.0937 -0.0831
  785MOL0     H 8323   1.154   1.005   9.266  1.0679  0.7429  0.4139
  785MOL0     H 8324   0.868   1.119   9.168 -1.1964  0.1408 -0.2804
  785MOL0     H 8325   0.926   0.952   9.163  1.9137  0.6553 -0.0656
  785MOL0     H 8326   1.131   1.044   8.831 -1.9685 -1.3081 -0.9263
  785MOL0     H 8327   1.241   0.865   9.764  3.5277 -3.2674  1.4601
  785MOL0     H 8328   1.257   0.692  10.052  1.3803  1.7012  0.4255
  785MOL0     H 8329   1.328   0.565   9.957 -0.6783 -0.1949 -0.5852
  785MOL0     H 8330   1.369   0.733   9.917 -0.0637 -1.9965 -1.7507
  786MOL0     O 8331   6.286  11.457   8.134  0.6372 -0.6927  0.7878
  786MOL0     C 8332   6.246  11.386   8.226 -0.5253 -0.5582  0.7157
  786MOL0     O 8333   6.314  11.356   8.337 -0.0867 -0.5932 -0.0774
  786MOL0     C 8334   6.435  11.415   8.358 -1.1126 -0.2999  0.3287
  786MOL0     C 8335   6.460  11.531   8.435  0.1349  0.4800  0.1161
  786MOL0     C 8336   6.587  11.586   8.443  0.4991 -0.2113 -0.6688
  786MOL0     C 8337   6.697  11.544   8.378  0.8092  1.0112  0.0637
  786MOL0     O 8338   6.819  11.608   8.385 -0.1526  0.1919  0.0668
  786MOL0     C 8339   6.877  11.649   8.513 -0.2543  0.2421 -0.3880
  786MOL0     C 8340   7.028  11.671   8.487  0.5078 -0.6605  0.1963
  786MOL0     C 8341   7.118  11.705   8.610  0.4414 -0.2904  0.8728
  786MOL0     C 8342   7.265  11.731   8.575 -0.2752  0.1370  0.3535
  786MOL0     C 8343   7.304  11.879   8.532  0.4450  1.1922  0.3031
  786MOL0     C 8344   7.310  11.979   8.647 -0.2411  0.6555  0.3473
  786MOL0     C 8345   7.453  12.034   8.657  0.6018  0.9736  0.0607
  786MOL0     C 8346   7.537  11.922   8.724 -0.1615 -0.1821 -0.0945
  786MOL0     N 8347   7.683  11.952   8.747  0.9058  1.0355 -0.9777
  786MOL0     C 8348   7.723  12.086   8.755  0.1294  0.2527  0.5996
  786MOL0     C 8349   7.852  12.074   8.795  0.1065 -0.3295  0.1345
  786MOL0     C 8350   7.956  12.184   8.784  0.5813 -0.1035  0.5357
  786MOL0     C 8351   8.077  12.151   8.699  0.3469 -0.2455 -0.1914
  786MOL0     C 8352   8.143  12.279   8.660  0.3645 -0.6507  0.1206
  786MOL0     C 8353   8.271  12.280   8.564  0.1391 -0.4525  0.5406
  786MOL0     O 8354   8.312  12.415   8.534  0.2600  0.2068 -0.1339
  786MOL0     C 8355   8.366  12.482   8.637  0.7880  0.7240  1.0795
  786MOL0     C 8356   8.288  12.581   8.704  0.6242  0.6051 -0.3022
  786MOL0     C 8357   8.355  12.663   8.795  0.7367 -0.9335 -0.1111
  786MOL0     C 8358   8.277  12.774   8.859 -0.0874 -0.2522 -0.4947
  786MOL0     C 8359   8.489  12.640   8.833  0.0333 -0.0678  1.1717
  786MOL0     C 8360   8.564  12.727   8.933  0.5459 -0.6615 -0.4531
  786MOL0     O 8361   8.665  12.665   8.996  0.0863  0.9482  0.3478
  786MOL0     C 8362   8.763  12.757   9.023  0.4251 -0.3779 -0.1913
  786MOL0     C 8363   8.851  12.807   8.923  0.0762  0.2628 -0.6268
  786MOL0     C 8364   8.955  12.896   8.960 -0.2817 -0.4623  0.1049
  786MOL0     C 8365   8.960  12.938   9.092 -0.1603 -0.3408  0.2772
  786MOL0     O 8366   9.043  13.044   9.112  0.5195 -0.7443  0.2305
  786MOL0     C 8367   9.160  13.013   9.181 -0.9972  0.1257 -0.7217
  786MOL0     C 8368   9.207  13.142   9.255 -0.4908  0.5873  0.5241
  786MOL0     C 8369   9.097  13.228   9.325 -0.1096  0.9991  0.1080
  786MOL0     C 8370   9.145  13.363   9.350 -0.0567 -0.1040 -0.6003
  786MOL0     C 8371   9.066  13.454   9.454 -0.1826 -0.0922 -0.3997
  786MOL0     C 8372   9.087  13.612   9.430  0.7673  0.6757 -0.1281
  786MOL0     C 8373   9.233  13.658   9.424 -0.0256 -0.1726 -0.1950
  786MOL0     C 8374   9.299  13.666   9.560  0.8327 -0.2374 -0.3672
  786MOL0    Cl 8375   9.466  13.733   9.531  0.4627  0.1057  0.3006
  786MOL0     C 8376   8.874  12.898   9.195 -0.3474  0.0687 -0.4814
  786MOL0     C 8377   8.771  12.805   9.158  0.3463  0.3139  0.2897
  786MOL0     O 8378   8.538  12.850   8.936  0.3897  0.4255 -0.2537
  786MOL0     C 8379   8.559  12.531   8.769  0.2495  0.3773  0.6382
  786MOL0     C 8380   8.493  12.457   8.674 -0.5794  0.0631  0.1760
  786MOL0     N 8381   7.873  11.943   8.831 -0.2317 -0.9414  0.7201
  786MOL0     N 8382   7.773  11.866   8.806 -0.1873 -1.0648  0.1679
  786MOL0     C 8383   6.673  11.432   8.292 -0.2423  0.3999 -0.0073
  786MOL0     C 8384   6.547  11.369   8.290  0.8478  0.1969  1.2614
  786MOL0     C 8385   6.129  11.298   8.216  0.8258 -1.1734 -0.3665
  786MOL0     C 8386   6.123  11.176   8.286  0.5022  0.3180 -0.0763
  786MOL0     C 8387   6.006  11.105   8.303  1.0608 -0.6668  0.4010
  786MOL0     C 8388   5.897  11.152   8.229 -0.0274  0.4734  0.4741
  786MOL0     O 8389   5.770  11.095   8.239 -0.3144  0.2713  0.8519
  786MOL0     C 8390   5.755  10.965   8.292 -0.0582 -1.4857 -0.4059
  786MOL0     C 8391   5.692  10.973   8.434 -0.8021  0.4040 -0.0915
  786MOL0     C 8392   5.685  10.824   8.485 -0.0553 -0.1510  0.0447
  786MOL0     C 8393   5.615  10.805   8.632  0.2418 -0.3286  0.4105
  786MOL0     C 8394   5.657  10.886   8.748 -0.6913  0.0924  0.7822
  786MOL0     C 8395   5.679  10.961   8.842  0.5216 -0.0909 -0.4987
  786MOL0     C 8396   5.906  11.256   8.146  0.7951 -0.0979  1.1937
  786MOL0     C 8397   6.019  11.340   8.144  0.9734 -0.5793  0.3801
  786MOL0     C 8398   6.007  11.474   8.060 -1.0244  0.7138 -0.0696
  786MOL0     H 8399   6.380  11.580   8.490  1.6076 -0.2839  3.1826
  786MOL0     H 8400   6.593  11.678   8.500 -2.7522  0.1136 -0.6381
  786MOL0     H 8401   6.875  11.564   8.582  3.1662  1.3369  1.3183
  786MOL0     H 8402   6.824  11.728   8.566  2.4049  0.8401  1.5896
  786MOL0     H 8403   7.066  11.581   8.438  3.0352  0.9400 -0.9908
  786MOL0     H 8404   7.039  11.758   8.421  2.2691  0.2561  1.6202
  786MOL0     H 8405   7.085  11.803   8.644  1.6967  1.1470 -1.7782
  786MOL0     H 8406   7.101  11.628   8.686 -2.6579  0.6341  1.2318
  786MOL0     H 8407   7.321  11.701   8.664 -0.6971 -0.9284  0.2764
  786MOL0     H 8408   7.293  11.660   8.497  3.6863  2.2666 -0.4482
  786MOL0     H 8409   7.221  11.906   8.465 -2.0854  0.5557  2.9628
  786MOL0     H 8410   7.395  11.870   8.472 -0.5332  2.5869 -1.4910
  786MOL0     H 8411   7.237  12.055   8.617  0.6293  1.1809 -0.4960
  786MOL0     H 8412   7.279  11.944   8.746  2.0891  1.1922  1.3265
  786MOL0     H 8413   7.450  12.123   8.721  3.0635  0.8473  0.4433
  786MOL0     H 8414   7.498  12.073   8.565  3.2065 -1.2658  0.2629
  786MOL0     H 8415   7.491  11.889   8.818 -0.9835 -2.4867 -1.2309
  786MOL0     H 8416   7.548  11.827   8.671 -2.6446 -0.6965  0.1935
  786MOL0     H 8417   7.662  12.170   8.722  2.5490  1.2247 -1.7336
  786MOL0     H 8418   7.998  12.210   8.882  1.0629 -0.7262  0.5005
  786MOL0     H 8419   7.907  12.275   8.747  1.8886 -0.8015 -3.3338
  786MOL0     H 8420   8.156  12.101   8.756  1.6448  0.9779 -0.8620
  786MOL0     H 8421   8.038  12.104   8.609 -0.7333 -0.8288  0.5602
  786MOL0     H 8422   8.067  12.342   8.613  1.4801  3.5157  3.2244
  786MOL0     H 8423   8.150  12.338   8.752 -0.6367 -2.0196  1.1148
  786MOL0     H 8424   8.353  12.225   8.611 -0.0300  0.0280  1.4138
  786MOL0     H 8425   8.237  12.242   8.467 -2.3254  0.1885  1.1017
  786MOL0     H 8426   8.182  12.590   8.682  0.7482 -1.2141 -1.8944
  786MOL0     H 8427   8.277  12.759   8.968 -3.0216  1.7013 -0.1052
  786MOL0     H 8428   8.174  12.768   8.822 -0.5235  1.8589  0.2104
  786MOL0     H 8429   8.310  12.871   8.823 -1.7006 -1.0681 -4.7239
  786MOL0     H 8430   8.818  12.802   8.820  1.4280 -1.7566 -1.0058
  786MOL0     H 8431   9.010  12.963   8.895  0.4058  2.8414  3.7398
  786MOL0     H 8432   9.156  12.936   9.258  0.2977 -0.9535 -1.6996
  786MOL0     H 8433   9.240  12.993   9.110 -2.3555  4.1692 -3.8014
  786MOL0     H 8434   9.277  13.105   9.330  1.8058 -1.6447 -2.4821
  786MOL0     H 8435   9.268  13.192   9.180  0.4832 -1.1184  0.1395
  786MOL0     H 8436   9.050  13.178   9.411 -1.0136 -1.3361 -1.6499
  786MOL0     H 8437   9.007  13.237   9.264  0.1548 -1.1358 -0.6781
  786MOL0     H 8438   9.155  13.417   9.256 -1.7463 -2.7368 -2.4322
  786MOL0     H 8439   9.248  13.345   9.383  0.5923  2.0589 -1.3150
  786MOL0     H 8440   8.959  13.439   9.438 -0.3713 -0.8532  1.3778
  786MOL0     H 8441   9.091  13.434   9.558  0.5075 -5.3892 -1.3365
  786MOL0     H 8442   9.033  13.674   9.502  2.9190  0.1666  2.0473
  786MOL0     H 8443   9.037  13.628   9.334 -1.0256  1.1268  0.8253
  786MOL0     H 8444   9.232  13.761   9.388  3.5177  0.2830  0.6251
  786MOL0     H 8445   9.292  13.600   9.352  0.4220  2.0555 -1.7436
  786MOL0     H 8446   9.308  13.566   9.604 -0.7982  0.9005  2.9111
  786MOL0     H 8447   9.237  13.729   9.625 -2.2896 -0.8135 -2.5553
  786MOL0     H 8448   8.905  12.937   9.292  0.1159 -1.2047 -0.0888
  786MOL0     H 8449   8.715  12.756   9.238 -1.5254 -0.6773 -1.5363
  786MOL0     H 8450   8.662  12.504   8.790  1.0038  2.5691  0.0159
  786MOL0     H 8451   8.560  12.378   8.642 -0.6869 -0.0233  0.1663
  786MOL0     H 8452   6.761  11.410   8.234  0.0686  2.4090 -0.3543
  786MOL0     H 8453   6.535  11.288   8.219  2.4373  2.3331 -1.6701
  786MOL0     H 8454   6.213  11.131   8.327  0.8465 -0.8655 -2.0148
  786MOL0     H 8455   6.014  11.014   8.362  3.2031 -0.4922  0.4704
  786MOL0     H 8456   5.689  10.920   8.217 -1.5344 -1.7479  0.9942
  786MOL0     H 8457   5.844  10.901   8.289  2.4489  1.7964 -2.2742
  786MOL0     H 8458   5.597  11.023   8.452  0.0220  0.9450  3.4085
  786MOL0     H 8459   5.769  11.026   8.491  1.7503 -1.1796 -1.8635
  786MOL0     H 8460   5.623  10.769   8.414 -0.0049  0.6735 -0.6507
  786MOL0     H 8461   5.786  10.781   8.490  0.0398 -0.1311 -1.3208
  786MOL0     H 8462   5.637  10.702   8.661  1.1728 -0.5867 -1.1154
  786MOL0     H 8463   5.507  10.822   8.626  0.3972  0.7821  0.5796
  786MOL0     H 8464   5.685  11.005   8.939  1.3265  2.5072 -1.6519
  786MOL0     H 8465   5.816  11.292   8.097  1.2473  0.6713  0.9243
  786MOL0     H 8466   6.053  11.453   7.963 -1.5723 -2.6654  0.2851
  786MOL0     H 8467   5.902  11.499   8.044 -2.4667 -3.5287  1.6149
  786MOL0     H 8468   6.062  11.557   8.106 -0.7524 -0.5245  1.9277
  787MOL0     O 8469   1.360   5.820   0.376 -0.4559  0.2547  0.3155
  787MOL0     C 8470   1.397   5.710   0.419  0.5634 -0.6959 -0.2465
  787MOL0     O 8471   1.477   5.702   0.525  0.5141 -0.1094  0.1860
  787MOL0     C 8472   1.512   5.807   0.605 -0.5109  0.2577  0.6754
  787MOL0     C 8473   1.590   5.919   0.555 -0.3002  0.2948  0.8665
  787MOL0     C 8474   1.617   6.018   0.642 -0.5933  0.2414  0.3618
  787MOL0     C 8475   1.582   6.011   0.781  0.0848 -1.1106  0.2749
  787MOL0     O 8476   1.608   6.103   0.877  0.2524 -0.4864  0.0424
  787MOL0     C 8477   1.687   6.213   0.837 -0.0204  1.3863 -0.0533
  787MOL0     C 8478   1.687   6.338   0.931  0.3643 -0.4391  0.5233
  787MOL0     C 8479   1.750   6.297   1.065  0.1571  0.0749  1.7900
  787MOL0     C 8480   1.757   6.423   1.163  0.2100  0.0438  1.0130
  787MOL0     C 8481   1.795   6.391   1.307 -0.7374  0.4716  0.0697
  787MOL0     C 8482   1.803   6.516   1.400  0.5917 -1.0202  0.0124
  787MOL0     C 8483   1.763   6.478   1.546  0.9729  0.1618  0.2208
  787MOL0     C 8484   1.821   6.573   1.646 -0.3418 -0.3010 -0.5453
  787MOL0     N 8485   1.758   6.710   1.630  0.3815  0.2279  0.8237
  787MOL0     C 8486   1.800   6.817   1.552 -0.5195 -1.3271  0.4613
  787MOL0     C 8487   1.726   6.927   1.573  0.8066 -0.3687 -0.0870
  787MOL0     C 8488   1.735   7.062   1.508  0.2208 -0.0281  0.3582
  787MOL0     C 8489   1.643   7.100   1.392 -0.0551 -0.1741  0.8613
  787MOL0     C 8490   1.683   7.243   1.346  0.7441 -0.9169 -1.1816
  787MOL0     C 8491   1.592   7.289   1.228  0.3329 -0.2662 -0.1964
  787MOL0     O 8492   1.641   7.245   1.097  0.0115 -0.0373 -0.2382
  787MOL0     C 8493   1.752   7.315   1.049  0.2925 -0.3706 -0.0582
  787MOL0     C 8494   1.816   7.259   0.947 -0.4699  0.7833 -0.7509
  787MOL0     C 8495   1.934   7.314   0.891  0.1499  0.5863 -0.6341
  787MOL0     C 8496   1.979   7.255   0.756 -0.1096  0.4486 -0.1107
  787MOL0     C 8497   1.990   7.430   0.942  0.4613 -0.5880 -1.2169
  787MOL0     C 8498   2.121   7.475   0.894  0.5793 -0.1286 -0.5927
  787MOL0     O 8499   2.158   7.601   0.945  0.6598  0.3290  0.4360
  787MOL0     C 8500   2.283   7.654   0.927  0.3595  0.9294  0.3074
  787MOL0     C 8501   2.284   7.792   0.925  0.0501 -0.5722 -0.5583
  787MOL0     C 8502   2.401   7.869   0.891 -0.5023  1.4440  0.6671
  787MOL0     C 8503   2.519   7.805   0.876  0.2200 -0.8992 -0.2183
  787MOL0     O 8504   2.617   7.900   0.845 -0.5123  0.1697 -0.0873
  787MOL0     C 8505   2.746   7.855   0.792 -0.6084  0.3527  0.0698
  787MOL0     C 8506   2.839   7.984   0.778  1.5128 -0.5005 -0.7180
  787MOL0     C 8507   2.966   7.947   0.720  0.0498 -0.0376 -0.3994
  787MOL0     C 8508   3.042   8.068   0.671 -0.2185 -0.5507  0.4654
  787MOL0     C 8509   3.189   8.043   0.617 -1.6235 -0.1046  0.7624
  787MOL0     C 8510   3.187   7.929   0.518  0.5055  0.0081 -0.4192
  787MOL0     C 8511   3.314   7.891   0.439  0.1798  0.4462  0.3090
  787MOL0     C 8512   3.443   7.885   0.532 -0.1056  0.4121 -0.5365
  787MOL0    Cl 8513   3.563   7.755   0.477  0.1309  0.0090 -0.1193
  787MOL0     C 8514   2.526   7.673   0.883  0.1393 -0.3529 -0.4094
  787MOL0     C 8515   2.404   7.588   0.902  0.6530  0.9701 -0.1243
  787MOL0     O 8516   2.193   7.406   0.821 -0.1686 -0.2947 -0.1634
  787MOL0     C 8517   1.902   7.498   1.032 -0.7758  0.6566  0.1355
  787MOL0     C 8518   1.784   7.438   1.085 -0.5886 -0.1578  0.5911
  787MOL0     N 8519   1.642   6.885   1.670  0.1259 -0.2363  0.0556
  787MOL0     N 8520   1.654   6.759   1.697 -0.9053  0.4484  0.2885
  787MOL0     C 8521   1.511   5.901   0.825 -0.7260  0.2488 -0.3213
  787MOL0     C 8522   1.480   5.802   0.738  0.4004 -0.2947 -0.2968
  787MOL0     C 8523   1.320   5.592   0.383  0.1794 -0.9713 -0.6616
  787MOL0     C 8524   1.240   5.541   0.490 -0.4023 -0.8120 -0.0160
  787MOL0     C 8525   1.166   5.416   0.470 -0.1361 -1.0106 -0.0155
  787MOL0     C 8526   1.187   5.340   0.351 -0.0856  0.5159  0.0432
  787MOL0     O 8527   1.117   5.221   0.337 -0.2909  0.7043 -0.3222
  787MOL0     C 8528   1.103   5.168   0.200 -0.6298 -0.4060 -0.4493
  787MOL0     C 8529   0.996   5.063   0.210  0.7115 -0.1484  0.9882
  787MOL0     C 8530   1.010   4.972   0.086 -0.0281  0.2859  0.2657
  787MOL0     C 8531   0.897   4.867   0.078  0.2336  0.1489  0.7129
  787MOL0     C 8532   0.933   4.741   0.147 -0.1834 -0.8272 -0.7358
  787MOL0     C 8533   0.988   4.646   0.195  0.5537  0.4146 -0.0821
  787MOL0     C 8534   1.264   5.399   0.251  0.0066  0.0133 -0.1951
  787MOL0     C 8535   1.335   5.519   0.262 -0.3919 -0.4571  0.2651
  787MOL0     C 8536   1.423   5.555   0.143  0.0826  0.1085  0.0063
  787MOL0     H 8537   1.619   5.903   0.452  0.7203 -2.5192  1.4869
  787MOL0     H 8538   1.673   6.099   0.596  1.1125 -0.1638  1.6344
  787MOL0     H 8539   1.653   6.262   0.745 -0.4243  0.5197 -0.3721
  787MOL0     H 8540   1.790   6.178   0.828 -0.4044  0.2854 -0.3025
  787MOL0     H 8541   1.748   6.419   0.891 -1.7003  2.4537  2.8298
  787MOL0     H 8542   1.587   6.380   0.940 -0.0615 -0.2716 -3.2087
  787MOL0     H 8543   1.689   6.220   1.112 -2.2038 -0.8896 -2.2967
  787MOL0     H 8544   1.853   6.262   1.058 -0.9684 -3.5933  1.5778
  787MOL0     H 8545   1.819   6.498   1.112 -0.6706 -0.3052 -0.6656
  787MOL0     H 8546   1.654   6.460   1.159  0.0568 -0.1213  2.8303
  787MOL0     H 8547   1.897   6.356   1.287 -0.1197  3.3733 -2.6762
  787MOL0     H 8548   1.731   6.310   1.343 -0.7940  0.1436 -0.7508
  787MOL0     H 8549   1.897   6.572   1.387  0.3636 -0.9696 -1.7140
  787MOL0     H 8550   1.721   6.580   1.366  1.8398 -0.1659 -1.5216
  787MOL0     H 8551   1.792   6.374   1.565 -0.9673 -0.6454 -0.9497
  787MOL0     H 8552   1.654   6.478   1.554  0.3305 -0.8336 -5.1888
  787MOL0     H 8553   1.796   6.533   1.745 -0.4202 -0.3653 -0.5903
  787MOL0     H 8554   1.929   6.571   1.630 -0.2167  0.4378  0.1428
  787MOL0     H 8555   1.892   6.812   1.494 -0.6187 -1.5946  0.3242
  787MOL0     H 8556   1.839   7.069   1.475 -0.2850 -1.4991 -1.7644
  787MOL0     H 8557   1.732   7.141   1.584 -2.5723  1.7932 -1.4583
  787MOL0     H 8558   1.659   7.021   1.317  2.7377 -0.3727  1.5671
  787MOL0     H 8559   1.541   7.095   1.431 -1.2065 -0.6767 -1.9738
  787MOL0     H 8560   1.666   7.313   1.428 -0.6407 -0.0699 -2.1385
  787MOL0     H 8561   1.788   7.257   1.320  2.3627 -4.1459  2.5069
  787MOL0     H 8562   1.486   7.264   1.240 -0.1248  0.7132 -1.8522
  787MOL0     H 8563   1.573   7.397   1.234 -0.8315 -0.5084  0.8458
  787MOL0     H 8564   1.777   7.170   0.898 -1.2688 -1.5831  3.6747
  787MOL0     H 8565   1.987   7.333   0.679  0.2997 -1.0115 -1.6230
  787MOL0     H 8566   1.912   7.171   0.733 -0.5944  0.9777 -0.6687
  787MOL0     H 8567   2.074   7.205   0.775 -1.0214 -0.6280  1.8979
  787MOL0     H 8568   2.185   7.836   0.935 -0.7748 -1.8672 -2.3757
  787MOL0     H 8569   2.379   7.975   0.884 -1.3926  1.2972  1.0031
  787MOL0     H 8570   2.791   7.786   0.864  0.0509 -0.5941 -1.2076
  787MOL0     H 8571   2.725   7.815   0.693 -2.0488  0.3747  0.3353
  787MOL0     H 8572   2.780   8.059   0.725 -0.7340 -2.2974 -0.9327
  787MOL0     H 8573   2.851   8.022   0.880  3.4711 -0.4014 -0.9559
  787MOL0     H 8574   2.944   7.879   0.636  0.0327  2.0166 -2.1471
  787MOL0     H 8575   3.022   7.885   0.791  2.2979  0.4668 -1.6181
  787MOL0     H 8576   3.050   8.146   0.749  0.7980  0.6860 -0.8229
  787MOL0     H 8577   2.993   8.115   0.586  0.9272 -1.8047 -0.9341
  787MOL0     H 8578   3.222   8.135   0.568  2.6785 -0.9065  1.7489
  787MOL0     H 8579   3.267   8.024   0.692  0.9973  0.4940 -1.6422
  787MOL0     H 8580   3.097   7.951   0.459  0.3509  3.8550  0.9287
  787MOL0     H 8581   3.157   7.840   0.573 -1.0668 -0.2984 -1.6668
  787MOL0     H 8582   3.339   7.969   0.367  2.0104 -2.5684 -2.5959
  787MOL0     H 8583   3.296   7.796   0.388 -1.8187  1.3401 -0.7401
  787MOL0     H 8584   3.414   7.845   0.630  1.0144 -0.0710 -0.3848
  787MOL0     H 8585   3.494   7.980   0.549  3.0320 -0.9224 -1.6851
  787MOL0     H 8586   2.618   7.618   0.868 -0.9343 -1.6887 -2.8200
  787MOL0     H 8587   2.421   7.481   0.904 -2.1415  0.4447  2.0624
  787MOL0     H 8588   1.924   7.596   1.073  3.5663 -0.9246  2.2916
  787MOL0     H 8589   1.720   7.508   1.138 -3.9582 -1.0000 -1.9540
  787MOL0     H 8590   1.476   5.899   0.928 -0.5986 -2.3014 -0.2535
  787MOL0     H 8591   1.421   5.721   0.778  0.5344 -0.1408  0.2228
  787MOL0     H 8592   1.244   5.593   0.585 -0.8813  1.4836 -1.1842
  787MOL0     H 8593   1.112   5.380   0.557  0.3290  0.6137  0.9904
  787MOL0     H 8594   1.063   5.242   0.129  0.5182  0.0944 -0.5929
  787MOL0     H 8595   1.198   5.130   0.163  0.4842  2.2061 -0.4656
  787MOL0     H 8596   0.900   5.112   0.195 -0.2759 -2.2490  0.0726
  787MOL0     H 8597   0.984   5.011   0.306 -1.7622 -2.7897 -0.6212
  787MOL0     H 8598   0.999   5.041   0.002  0.2511 -1.5063 -1.3110
  787MOL0     H 8599   1.108   4.929   0.062  0.4695 -0.8234  3.7598
  787MOL0     H 8600   0.876   4.832  -0.023  0.8619 -0.1182  0.6685
  787MOL0     H 8601   0.800   4.906   0.110  2.0285  3.1288  3.0676
  787MOL0     H 8602   1.039   4.557   0.223  0.0570 -0.5292 -1.9918
  787MOL0     H 8603   1.259   5.347   0.156  0.1350  0.7224 -0.5976
  787MOL0     H 8604   1.394   5.512   0.047  1.8095 -2.1792  0.4512
  787MOL0     H 8605   1.417   5.661   0.115  1.4782 -0.4494 -2.7600
  787MOL0     H 8606   1.526   5.531   0.168  0.3769 -0.8670 -1.9510
  788MOL0     O 8607   6.043   1.872   7.837  0.2594  0.3893 -1.0249
  788MOL0     C 8608   6.008   1.956   7.920  0.8825  0.3059 -1.2129
  788MOL0     O 8609   5.941   1.927   8.037  0.6246 -0.2928 -0.7746
  788MOL0     C 8610   5.908   1.799   8.061  0.1322  0.6317  0.8584
  788MOL0     C 8611   6.009   1.720   8.127 -0.1056  0.3995  0.3495
  788MOL0     C 8612   5.998   1.582   8.134 -0.2523  0.5019 -0.2447
  788MOL0     C 8613   5.881   1.520   8.073 -0.0244 -0.2639 -0.2387
  788MOL0     O 8614   5.890   1.382   8.081 -0.0564 -0.5711 -0.2293
  788MOL0     C 8615   5.821   1.314   7.981  0.5251 -0.5077  0.0578
  788MOL0     C 8616   5.875   1.173   7.976 -0.0513 -0.5683  0.0835
  788MOL0     C 8617   6.027   1.152   7.979  0.4930  0.8735  0.7610
  788MOL0     C 8618   6.065   1.004   7.963 -0.5360  0.7479  0.7556
  788MOL0     C 8619   6.087   0.924   8.089  0.2768  0.2852 -0.7737
  788MOL0     C 8620   6.129   0.775   8.054  0.5267  0.0434  0.8970
  788MOL0     C 8621   6.198   0.710   8.173 -0.3827 -0.8018  0.2467
  788MOL0     C 8622   6.318   0.632   8.140  0.8681 -0.6546 -0.8684
  788MOL0     N 8623   6.280   0.543   8.035 -0.1716 -0.3445  0.3508
  788MOL0     C 8624   6.184   0.440   8.039 -0.0769  0.7528  1.4064
  788MOL0     C 8625   6.147   0.409   7.911  0.2211 -0.5408  0.0764
  788MOL0     C 8626   6.076   0.289   7.861  0.5877  0.3901 -0.4504
  788MOL0     C 8627   5.923   0.292   7.873 -0.2985  0.8688  0.2431
  788MOL0     C 8628   5.882   0.288   8.027 -0.4460 -0.7106  0.0062
  788MOL0     C 8629   5.739   0.214   8.046  0.3731  0.0035  0.6701
  788MOL0     O 8630   5.635   0.263   7.962 -0.1844  0.3566  0.0836
  788MOL0     C 8631   5.511   0.209   7.969 -0.3129 -0.0431 -0.5322
  788MOL0     C 8632   5.447   0.200   7.850 -0.4227  0.6405  0.4688
  788MOL0     C 8633   5.323   0.141   7.839 -0.1976  0.8035 -0.0871
  788MOL0     C 8634   5.268   0.124   7.699  0.2044  1.2493  0.2672
  788MOL0     C 8635   5.246   0.118   7.960 -0.2064  0.7385 -0.0233
  788MOL0     C 8636   5.107   0.071   7.964 -0.1434  0.1001 -0.1543
  788MOL0     O 8637   5.091  -0.056   8.004  0.5265  0.2946  0.0837
  788MOL0     C 8638   4.961  -0.101   8.009  1.1623  1.1233 -1.0343
  788MOL0     C 8639   4.895  -0.126   7.889 -0.5512  0.5855 -0.4266
  788MOL0     C 8640   4.761  -0.167   7.884 -0.0635  0.2020  0.9132
  788MOL0     C 8641   4.689  -0.182   7.998  0.1881  0.6742  0.1596
  788MOL0     O 8642   4.552  -0.180   7.999 -0.5866  0.2819  0.0821
  788MOL0     C 8643   4.466  -0.212   7.877  0.3004 -0.5558 -0.5819
  788MOL0     C 8644   4.473  -0.357   7.844  1.1114 -0.9123 -0.3767
  788MOL0     C 8645   4.371  -0.407   7.744  0.0051  0.7506  0.0661
  788MOL0     C 8646   4.248  -0.464   7.815  0.0289 -0.3424  0.1305
  788MOL0     C 8647   4.163  -0.512   7.700  0.1661  1.5105  1.3242
  788MOL0     C 8648   4.049  -0.600   7.759  0.7070 -0.4936  0.4005
  788MOL0     C 8649   3.957  -0.663   7.654 -0.0705 -0.1546  0.7511
  788MOL0     C 8650   3.811  -0.630   7.682  0.0341  0.7097 -0.0918
  788MOL0    Cl 8651   3.758  -0.458   7.635  0.0964  0.0552  0.4434
  788MOL0     C 8652   4.751  -0.159   8.119 -0.6287 -0.2029 -1.3081
  788MOL0     C 8653   4.887  -0.124   8.129  0.3103  0.4510 -0.4243
  788MOL0     O 8654   5.028   0.157   7.935  0.3160  0.1696  0.0245
  788MOL0     C 8655   5.306   0.127   8.081  0.0685 -0.6619 -0.6811
  788MOL0     C 8656   5.434   0.175   8.086  0.5573  0.3911  0.4666
  788MOL0     N 8657   6.225   0.487   7.825 -0.4741  1.0345 -0.3369
  788MOL0     N 8658   6.306   0.563   7.897  1.0636 -0.7783  0.1862
  788MOL0     C 8659   5.776   1.599   8.025 -0.0334  0.8067 -0.7654
  788MOL0     C 8660   5.794   1.737   8.009 -1.6563  0.3249 -0.4538
  788MOL0     C 8661   6.004   2.096   7.875 -0.4416  0.1435 -0.6560
  788MOL0     C 8662   5.932   2.189   7.958 -0.6016  0.2826 -0.5136
  788MOL0     C 8663   5.911   2.326   7.919  0.0515 -0.1390 -0.4909
  788MOL0     C 8664   5.961   2.373   7.799 -0.5083  0.2647  0.0219
  788MOL0     O 8665   5.927   2.502   7.768 -0.2982  0.6726 -0.5769
  788MOL0     C 8666   5.876   2.538   7.640 -0.8643 -0.2665 -0.8083
  788MOL0     C 8667   5.729   2.545   7.661  0.5627  0.3166 -0.0623
  788MOL0     C 8668   5.657   2.412   7.620 -0.3040 -0.3303 -0.8464
  788MOL0     C 8669   5.513   2.403   7.673  0.3118 -0.4288  0.3326
  788MOL0     C 8670   5.445   2.288   7.615 -0.0808 -0.0251  0.2627
  788MOL0     C 8671   5.394   2.184   7.605  0.2757  0.5684 -0.3556
  788MOL0     C 8672   6.042   2.290   7.721 -0.2084  0.7691 -0.3115
  788MOL0     C 8673   6.074   2.150   7.761 -0.0781  0.4791 -0.0629
  788MOL0     C 8674   6.186   2.079   7.687  0.6410  0.5519 -0.8035
  788MOL0     H 8675   6.101   1.753   8.174  1.5956 -2.2935 -0.8078
  788MOL0     H 8676   6.082   1.538   8.187  2.3360  4.6788 -0.4302
  788MOL0     H 8677   5.840   1.359   7.883  2.0979  0.2277  0.6710
  788MOL0     H 8678   5.713   1.307   8.000  0.5509 -0.9239  0.0661
  788MOL0     H 8679   5.830   1.121   8.061  0.3404 -0.6192  0.2596
  788MOL0     H 8680   5.839   1.123   7.886 -2.4151 -0.6130  0.9857
  788MOL0     H 8681   6.078   1.214   7.905 -0.9452  0.2792 -0.7789
  788MOL0     H 8682   6.068   1.180   8.077 -2.2714 -0.8427  2.5496
  788MOL0     H 8683   5.986   0.956   7.904 -0.8704  0.6607  1.2729
  788MOL0     H 8684   6.153   0.992   7.898  0.7551  1.2502  2.3527
  788MOL0     H 8685   5.995   0.910   8.145 -0.6731 -1.3183 -2.6380
  788MOL0     H 8686   6.171   0.968   8.146 -0.5151 -1.4959  1.9934
  788MOL0     H 8687   6.034   0.725   8.029 -0.6581  2.4551  0.3008
  788MOL0     H 8688   6.207   0.780   7.978  0.1530 -3.9237  0.0298
  788MOL0     H 8689   6.127   0.648   8.229  0.7733 -0.6322  1.9988
  788MOL0     H 8690   6.226   0.790   8.242  1.4553 -0.2077 -1.1158
  788MOL0     H 8691   6.397   0.697   8.100 -1.4215  2.2129 -1.0155
  788MOL0     H 8692   6.355   0.586   8.233  0.2598  2.5361  1.1282
  788MOL0     H 8693   6.161   0.375   8.123 -2.5212 -1.0933 -0.5257
  788MOL0     H 8694   6.117   0.202   7.914  1.4199  0.9689 -0.1247
  788MOL0     H 8695   6.112   0.268   7.760  1.3471  2.5027 -0.6577
  788MOL0     H 8696   5.887   0.375   7.811  0.0930 -0.6964 -2.2372
  788MOL0     H 8697   5.882   0.212   7.811  1.0539  0.0438  0.3660
  788MOL0     H 8698   5.948   0.227   8.089 -1.7174  1.0733  3.3847
  788MOL0     H 8699   5.872   0.388   8.071 -5.2647 -1.2855  0.8039
  788MOL0     H 8700   5.753   0.111   8.010 -0.6741  0.6158 -1.7078
  788MOL0     H 8701   5.705   0.213   8.150 -0.8727  1.7819  0.3324
  788MOL0     H 8702   5.502   0.219   7.758 -1.4988 -3.3288 -1.2213
  788MOL0     H 8703   5.197   0.041   7.686  2.8009 -1.6664  3.0645
  788MOL0     H 8704   5.355   0.097   7.639  1.6573  1.4425  2.1801
  788MOL0     H 8705   5.221   0.221   7.679 -3.8212 -0.3294  1.0392
  788MOL0     H 8706   4.945  -0.112   7.794  0.6959 -0.9370 -0.0440
  788MOL0     H 8707   4.697  -0.160   7.797  0.9572  2.3176  0.2414
  788MOL0     H 8708   4.362  -0.189   7.903  0.3536  0.4519 -1.1833
  788MOL0     H 8709   4.490  -0.150   7.790  0.2407  1.2960  0.6466
  788MOL0     H 8710   4.576  -0.370   7.811  1.1665  1.3531 -1.2327
  788MOL0     H 8711   4.461  -0.409   7.940 -1.0803  0.6921  0.3183
  788MOL0     H 8712   4.425  -0.487   7.693 -1.9864 -2.8254  3.0651
  788MOL0     H 8713   4.350  -0.324   7.677  0.4647 -1.1165 -2.5316
  788MOL0     H 8714   4.193  -0.394   7.879 -1.6870 -1.9900  0.5594
  788MOL0     H 8715   4.280  -0.551   7.873  0.0418 -1.5762 -1.6636
  788MOL0     H 8716   4.122  -0.430   7.640 -0.2254  0.0743 -0.4430
  788MOL0     H 8717   4.226  -0.576   7.639 -1.3049  0.6428  0.6534
  788MOL0     H 8718   3.988  -0.527   7.814  0.4544  2.9712 -3.8707
  788MOL0     H 8719   4.088  -0.680   7.822  2.5986 -0.4804 -0.6619
  788MOL0     H 8720   3.966  -0.772   7.646 -1.6280 -0.2081 -0.5904
  788MOL0     H 8721   3.977  -0.625   7.553  0.8299 -0.4172  0.8183
  788MOL0     H 8722   3.794  -0.660   7.785 -3.5880 -1.3999 -1.1096
  788MOL0     H 8723   3.743  -0.690   7.620 -2.4323  4.5175 -1.4452
  788MOL0     H 8724   4.688  -0.154   8.208 -0.4215  1.3999 -1.2185
  788MOL0     H 8725   4.937  -0.104   8.223 -0.1320 -0.1831 -0.0465
  788MOL0     H 8726   5.259   0.080   8.167  2.0811 -0.1434  0.7865
  788MOL0     H 8727   5.487   0.172   8.181  0.6159 -2.5236  0.4479
  788MOL0     H 8728   5.689   1.551   7.981 -0.1807  1.9326 -1.7232
  788MOL0     H 8729   5.715   1.782   7.949 -0.8542  0.3810 -1.4809
  788MOL0     H 8730   5.893   2.160   8.054  0.8679 -2.3567 -0.6333
  788MOL0     H 8731   5.845   2.397   7.966  1.1122  0.0584  0.7556
  788MOL0     H 8732   5.917   2.639   7.631  1.6577 -0.9648  1.4542
  788MOL0     H 8733   5.897   2.467   7.559 -1.5833 -1.1481 -0.2414
  788MOL0     H 8734   5.688   2.634   7.611  1.7347  0.9784  0.1149
  788MOL0     H 8735   5.705   2.573   7.763  1.6073  4.4171 -0.7462
  788MOL0     H 8736   5.663   2.408   7.511 -3.5482 -0.2702 -1.1152
  788MOL0     H 8737   5.715   2.330   7.662  0.8531  1.3933  1.1619
  788MOL0     H 8738   5.467   2.494   7.635 -0.7830 -0.7118  0.9303
  788MOL0     H 8739   5.490   2.407   7.780  1.8913  2.8619  0.6691
  788MOL0     H 8740   5.353   2.088   7.581  2.4400 -0.4593 -0.0909
  788MOL0     H 8741   6.079   2.325   7.625  3.2499 -0.9946  0.2070
  788MOL0     H 8742   6.270   2.046   7.748  0.3997  1.8819  0.2859
  788MOL0     H 8743   6.136   1.994   7.638 -0.4721 -0.2584  1.5928
  788MOL0     H 8744   6.226   2.140   7.606 -1.9103  2.5966 -0.6397
  789MOL0     O 8745   9.149   0.666   7.487 -0.2959  0.2189 -0.1340
  789MOL0     C 8746   9.249   0.735   7.496 -0.7397 -0.6873 -0.2326
  789MOL0     O 8747   9.265   0.840   7.583 -0.5368  0.4912  0.2740
  789MOL0     C 8748   9.157   0.855   7.665  0.1582 -0.7677 -1.1645
  789MOL0     C 8749   9.175   0.825   7.802 -0.3301  0.0616  0.3291
  789MOL0     C 8750   9.071   0.850   7.890 -0.9623 -0.3436 -1.1339
  789MOL0     C 8751   8.947   0.886   7.845 -0.0808  0.4955  0.0648
  789MOL0     O 8752   8.844   0.909   7.941  0.4382 -0.1468 -0.1501
  789MOL0     C 8753   8.709   0.922   7.890  0.3454 -0.1525  0.5113
  789MOL0     C 8754   8.608   0.958   8.004  0.4212 -1.2824  0.6715
  789MOL0     C 8755   8.453   0.965   7.973 -0.2314 -0.7467 -0.1393
  789MOL0     C 8756   8.417   1.079   7.875 -0.8701  0.0167 -0.0066
  789MOL0     C 8757   8.422   1.222   7.944 -0.3068 -0.5204 -0.2247
  789MOL0     C 8758   8.361   1.319   7.840  0.2579 -0.3497  0.1715
  789MOL0     C 8759   8.373   1.459   7.897 -0.3769  0.6086 -0.8879
  789MOL0     C 8760   8.510   1.513   7.928  0.5313 -0.1384  0.0105
  789MOL0     N 8761   8.602   1.499   7.815  0.1521  0.3109  0.7226
  789MOL0     C 8762   8.742   1.502   7.841  0.2868  0.2929  0.1686
  789MOL0     C 8763   8.791   1.522   7.720 -0.3703  0.6526 -0.3347
  789MOL0     C 8764   8.941   1.537   7.688  0.3691  0.2846 -0.1031
  789MOL0     C 8765   9.005   1.403   7.643  0.2249  0.3712 -0.5574
  789MOL0     C 8766   9.148   1.431   7.575 -0.5975 -0.7100 -1.4192
  789MOL0     C 8767   9.266   1.432   7.666  0.4011  0.9350  0.3890
  789MOL0     O 8768   9.297   1.301   7.713  0.5131 -0.2324  0.1185
  789MOL0     C 8769   9.422   1.263   7.747 -0.0197  0.2486 -0.2357
  789MOL0     C 8770   9.506   1.351   7.823 -0.3390  0.0530 -0.2370
  789MOL0     C 8771   9.640   1.308   7.854  1.0085  0.5399 -0.4574
  789MOL0     C 8772   9.734   1.414   7.916  0.1663  1.2452 -1.5088
  789MOL0     C 8773   9.672   1.161   7.848 -0.2846 -0.1137 -0.8103
  789MOL0     C 8774   9.796   1.097   7.893 -0.3900 -0.5438  0.2630
  789MOL0     O 8775   9.792   0.965   7.910 -0.9593  0.3365  0.2902
  789MOL0     C 8776   9.886   0.893   7.987  0.7005 -0.5505 -0.4468
  789MOL0     C 8777  10.020   0.926   8.019  0.1744 -0.2996 -0.6021
  789MOL0     C 8778  10.094   0.839   8.111 -0.1277  0.1862  1.5158
  789MOL0     C 8779  10.037   0.720   8.154  0.4050  0.2592 -0.1935
  789MOL0     O 8780  10.103   0.626   8.232  0.6575  0.6177  0.4734
  789MOL0     C 8781  10.134   0.508   8.159 -0.4126 -0.3441 -0.0886
  789MOL0     C 8782  10.237   0.421   8.246 -0.0967  0.1663 -0.0380
  789MOL0     C 8783  10.318   0.325   8.152  0.0766  0.6823 -0.6784
  789MOL0     C 8784  10.375   0.225   8.249 -0.2796  0.4119 -0.5820
  789MOL0     C 8785  10.468   0.126   8.187 -0.3213  0.3054  0.3837
  789MOL0     C 8786  10.511   0.015   8.290  1.1793 -0.1282 -0.1443
  789MOL0     C 8787  10.611  -0.083   8.228  0.6568  0.1862  0.0112
  789MOL0     C 8788  10.668  -0.188   8.321  0.1435  1.0979 -0.6547
  789MOL0    Cl 8789  10.567  -0.339   8.344 -0.3186 -0.0310  0.2293
  789MOL0     C 8790   9.909   0.677   8.103 -0.4130  0.4256  0.0197
  789MOL0     C 8791   9.836   0.766   8.023 -0.1826  0.2052  0.6255
  789MOL0     O 8792   9.899   1.176   7.909 -0.2623  0.1430 -0.2086
  789MOL0     C 8793   9.574   1.071   7.795  0.0177 -0.4631  0.0586
  789MOL0     C 8794   9.449   1.125   7.748 -0.5294  0.0746  0.9211
  789MOL0     N 8795   8.695   1.507   7.624  0.0865  0.7728 -0.7826
  789MOL0     N 8796   8.582   1.486   7.680 -0.0519  0.0477  0.2269
  789MOL0     C 8797   8.919   0.899   7.705  0.2438  0.6817 -0.3704
  789MOL0     C 8798   9.024   0.895   7.614  0.6845  1.3892 -0.5407
  789MOL0     C 8799   9.372   0.707   7.415  0.7354 -0.0948  0.1344
  789MOL0     C 8800   9.487   0.780   7.448 -1.0580  0.0036  0.2547
  789MOL0     C 8801   9.610   0.768   7.376 -0.4333  0.6135 -0.1901
  789MOL0     C 8802   9.623   0.670   7.278 -0.8062 -0.1712  0.6104
  789MOL0     O 8803   9.744   0.665   7.196  0.3290  0.6460 -0.9085
  789MOL0     C 8804   9.865   0.676   7.280  0.7786 -0.0481 -0.5815
  789MOL0     C 8805   9.966   0.592   7.200  1.2251 -0.0989 -0.1112
  789MOL0     C 8806  10.011   0.665   7.070  0.6112  0.8796 -0.5735
  789MOL0     C 8807  10.148   0.726   7.084  0.4293  0.3638  0.7926
  789MOL0     C 8808  10.245   0.624   7.075 -0.0431  0.6784 -0.8369
  789MOL0     C 8809  10.325   0.530   7.070 -0.1879  0.1839  0.4175
  789MOL0     C 8810   9.509   0.608   7.233 -1.1648 -0.7244 -0.8603
  789MOL0     C 8811   9.387   0.617   7.307  0.1448  0.7006  0.2389
  789MOL0     C 8812   9.289   0.512   7.276  0.4123 -0.4857  1.0542
  789MOL0     H 8813   9.264   0.784   7.848  0.4313  0.5833 -0.6443
  789MOL0     H 8814   9.066   0.846   7.998  0.3369  2.7518 -0.8572
  789MOL0     H 8815   8.678   0.833   7.834  0.6629  0.6186 -0.9472
  789MOL0     H 8816   8.703   1.000   7.814  1.9941 -1.6524 -1.2642
  789MOL0     H 8817   8.631   0.887   8.084  2.3233  0.6811  1.9847
  789MOL0     H 8818   8.636   1.058   8.038  1.2735 -0.8257 -1.2358
  789MOL0     H 8819   8.438   0.860   7.949  0.5339 -1.5854  2.6331
  789MOL0     H 8820   8.398   0.968   8.068 -0.2683 -1.2957 -0.1420
  789MOL0     H 8821   8.486   1.074   7.790 -0.7977  1.0937 -0.0250
  789MOL0     H 8822   8.322   1.057   7.825 -0.2870 -0.3508 -0.9755
  789MOL0     H 8823   8.529   1.236   7.959 -0.3521 -1.4053  1.0228
  789MOL0     H 8824   8.367   1.239   8.037 -1.4247  1.2640 -1.1400
  789MOL0     H 8825   8.416   1.301   7.748  3.2968 -1.2037  2.0079
  789MOL0     H 8826   8.254   1.295   7.833  0.1590 -0.5190  1.8728
  789MOL0     H 8827   8.307   1.463   7.984  0.8686  1.1708  0.0741
  789MOL0     H 8828   8.326   1.522   7.821 -3.1305  1.3484  1.2782
  789MOL0     H 8829   8.500   1.620   7.946  0.9205 -0.0370 -0.3674
  789MOL0     H 8830   8.563   1.473   8.015 -0.2127 -1.3599 -0.0676
  789MOL0     H 8831   8.793   1.527   7.933 -3.6379 -2.2197  3.3894
  789MOL0     H 8832   8.995   1.564   7.779  1.1537 -0.1399 -0.4303
  789MOL0     H 8833   8.943   1.618   7.614 -0.7128 -1.5110 -2.2051
  789MOL0     H 8834   9.037   1.338   7.725  3.2552  1.2676 -0.8890
  789MOL0     H 8835   8.923   1.353   7.591 -2.7930  1.2753  2.9247
  789MOL0     H 8836   9.176   1.363   7.495 -0.8272  0.2406 -2.3252
  789MOL0     H 8837   9.138   1.531   7.531  0.4787  0.0821  0.0429
  789MOL0     H 8838   9.350   1.481   7.616  0.9514  2.5077  2.7192
  789MOL0     H 8839   9.244   1.490   7.756 -2.0658  0.6739  0.0217
  789MOL0     H 8840   9.471   1.442   7.870  0.6916 -1.4201  3.7385
  789MOL0     H 8841   9.728   1.400   8.025  0.2791  1.0454 -1.5276
  789MOL0     H 8842   9.692   1.514   7.898 -2.5747  0.2744 -1.0495
  789MOL0     H 8843   9.832   1.426   7.870  1.6645  0.1971  1.1590
  789MOL0     H 8844  10.072   1.015   7.985 -0.1586 -0.6907 -2.2273
  789MOL0     H 8845  10.192   0.870   8.147 -1.2720  2.1402  3.1616
  789MOL0     H 8846  10.048   0.449   8.125  0.5114 -0.6404 -2.0362
  789MOL0     H 8847  10.191   0.526   8.067 -0.5478 -0.2726 -0.1591
  789MOL0     H 8848  10.298   0.494   8.300  0.7013  1.5854 -2.6853
  789MOL0     H 8849  10.180   0.357   8.314  1.0673 -1.3124 -0.3809
  789MOL0     H 8850  10.387   0.377   8.085  1.0694 -0.2612 -0.4220
  789MOL0     H 8851  10.253   0.267   8.086  0.2160 -1.9548  1.3216
  789MOL0     H 8852  10.296   0.180   8.310 -0.7734  1.9826 -0.0186
  789MOL0     H 8853  10.424   0.292   8.321 -1.7531 -0.7244  1.5783
  789MOL0     H 8854  10.409   0.080   8.107 -1.0050  1.1646  0.3755
  789MOL0     H 8855  10.555   0.170   8.139 -0.7280 -1.5261 -2.2982
  789MOL0     H 8856  10.423  -0.042   8.320  1.5091 -0.0547  1.0227
  789MOL0     H 8857  10.540   0.070   8.381 -1.2405  0.1993  0.5053
  789MOL0     H 8858  10.694  -0.019   8.198  1.6345 -0.7762  0.5887
  789MOL0     H 8859  10.557  -0.136   8.149  0.3842 -1.1457  1.0356
  789MOL0     H 8860  10.695  -0.141   8.416  1.9307  0.7024 -0.9279
  789MOL0     H 8861  10.764  -0.217   8.278 -0.3200  1.2304 -1.8071
  789MOL0     H 8862   9.867   0.583   8.140 -2.3624  1.5440  0.8044
  789MOL0     H 8863   9.739   0.742   7.979  2.0219  0.2377 -5.0720
  789MOL0     H 8864   9.593   0.964   7.787  0.3646 -0.2772 -2.5676
  789MOL0     H 8865   9.388   1.054   7.693  1.9886  2.0750 -5.3578
  789MOL0     H 8866   8.821   0.922   7.666  0.4233  1.6067 -0.2925
  789MOL0     H 8867   8.997   0.896   7.509 -3.3130 -1.3491  0.2157
  789MOL0     H 8868   9.489   0.852   7.528  1.9927 -3.0933  3.2996
  789MOL0     H 8869   9.694   0.828   7.410  1.7708 -2.5555  0.3325
  789MOL0     H 8870   9.887   0.783   7.292 -0.8152  0.0603  2.4918
  789MOL0     H 8871   9.842   0.630   7.377 -1.6169  0.5926 -0.7860
  789MOL0     H 8872   9.921   0.496   7.173 -0.1970  0.9094 -1.5731
  789MOL0     H 8873  10.050   0.574   7.267 -1.4495 -1.8615  3.0944
  789MOL0     H 8874   9.997   0.600   6.983 -1.3712  1.6838 -0.9045
  789MOL0     H 8875   9.936   0.743   7.055  0.3023  1.0279  1.4439
  789MOL0     H 8876  10.159   0.771   7.183 -0.5146 -0.7744  1.4482
  789MOL0     H 8877  10.158   0.804   7.008 -0.8590  0.2641  0.4897
  789MOL0     H 8878  10.379   0.439   7.052 -1.6858 -0.9647  1.4809
  789MOL0     H 8879   9.524   0.524   7.166 -0.3980 -2.1531  1.0079
  789MOL0     H 8880   9.262   0.456   7.366  0.9694 -0.6570  1.1206
  789MOL0     H 8881   9.199   0.555   7.230  0.1017 -1.2700  0.9063
  789MOL0     H 8882   9.341   0.445   7.206 -2.7347 -0.9883 -1.0005
  790MOL0     O 8883  10.881   9.121   7.873 -0.4154 -0.0674 -0.7138
  790MOL0     C 8884  10.950   9.133   7.777 -0.7177 -0.2575  0.2056
  790MOL0     O 8885  10.922   9.220   7.678  0.3840 -0.7060  1.0822
  790MOL0     C 8886  10.809   9.304   7.691  0.7084 -0.6786  0.1813
  790MOL0     C 8887  10.784   9.378   7.805 -0.2391  0.2751 -0.1487
  790MOL0     C 8888  10.683   9.471   7.806 -0.1755 -0.6484  0.8320
  790MOL0     C 8889  10.587   9.487   7.700 -1.3257  0.2318 -0.1859
  790MOL0     O 8890  10.478   9.569   7.704  0.6722  0.7935  0.5116
  790MOL0     C 8891  10.436   9.628   7.582  0.5210 -0.4222 -0.2338
  790MOL0     C 8892  10.310   9.721   7.631 -1.0091  0.5314  0.1680
  790MOL0     C 8893  10.229   9.752   7.504 -0.3381 -0.7427 -0.1934
  790MOL0     C 8894  10.119   9.859   7.532 -0.0244  0.4027 -0.0923
  790MOL0     C 8895   9.989   9.801   7.597 -0.0985  0.4222 -0.0634
  790MOL0     C 8896   9.880   9.913   7.611 -0.2758 -0.4777  0.8977
  790MOL0     C 8897   9.779   9.875   7.723 -0.6007  0.3350 -1.2964
  790MOL0     C 8898   9.716   9.740   7.697  0.0420  0.1402  0.2478
  790MOL0     N 8899   9.604   9.708   7.795 -0.0595  0.3209 -0.2365
  790MOL0     C 8900   9.553   9.594   7.831  0.8834 -0.0374  0.2371
  790MOL0     C 8901   9.445   9.616   7.906  0.4633  0.2874 -0.3332
  790MOL0     C 8902   9.361   9.512   7.985 -0.6039 -0.5109 -0.1634
  790MOL0     C 8903   9.450   9.418   8.075  0.3148 -0.1753  0.8404
  790MOL0     C 8904   9.382   9.384   8.203 -0.2004  0.1805  0.2501
  790MOL0     C 8905   9.467   9.270   8.266  0.0439 -0.3803 -0.6888
  790MOL0     O 8906   9.438   9.258   8.402 -0.1891  0.5408 -0.5511
  790MOL0     C 8907   9.502   9.151   8.464 -0.1357  0.3702  0.1720
  790MOL0     C 8908   9.624   9.093   8.430  1.1834 -0.5207 -1.0029
  790MOL0     C 8909   9.671   8.982   8.505 -0.0960 -0.7970 -0.5274
  790MOL0     C 8910   9.806   8.952   8.467  0.0997 -0.8443 -0.6866
  790MOL0     C 8911   9.606   8.941   8.622 -0.4052 -0.6794  0.7341
  790MOL0     C 8912   9.660   8.853   8.730 -0.2907  0.3611  0.1554
  790MOL0     O 8913   9.570   8.807   8.823 -0.0886  0.5372  0.2980
  790MOL0     C 8914   9.620   8.715   8.914 -0.3445  0.0849  0.0464
  790MOL0     C 8915   9.688   8.754   9.025  0.4888 -0.0986  0.3632
  790MOL0     C 8916   9.725   8.664   9.129 -0.8750 -0.4182  0.3291
  790MOL0     C 8917   9.682   8.533   9.115  0.1231  0.1746  0.3418
  790MOL0     O 8918   9.716   8.447   9.212 -0.1011  0.1053  0.0484
  790MOL0     C 8919   9.639   8.325   9.236 -0.5963  1.0107  1.1887
  790MOL0     C 8920   9.708   8.229   9.348  0.1139 -0.0652  0.1470
  790MOL0     C 8921   9.686   8.267   9.492 -0.2536 -0.0596  0.0900
  790MOL0     C 8922   9.708   8.153   9.595 -1.1597 -0.2104 -0.4751
  790MOL0     C 8923   9.681   8.185   9.735 -0.2324 -0.3529 -0.2968
  790MOL0     C 8924   9.786   8.114   9.838 -0.6293  0.1834  0.6371
  790MOL0     C 8925   9.918   8.196   9.868 -0.5067 -0.4222 -1.2981
  790MOL0     C 8926   9.901   8.290   9.988  0.7442  0.4421 -0.1755
  790MOL0    Cl 8927   9.867   8.209  10.148 -0.0723  0.5044 -0.2152
  790MOL0     C 8928   9.614   8.495   9.000  0.8226 -0.4469  0.1421
  790MOL0     C 8929   9.583   8.579   8.900 -0.4378 -0.7411  0.0124
  790MOL0     O 8930   9.779   8.841   8.734 -0.6186 -0.1375  0.2931
  790MOL0     C 8931   9.481   9.001   8.651 -0.8786  0.7411  1.4028
  790MOL0     C 8932   9.436   9.107   8.570  0.5612 -0.2219 -0.3158
  790MOL0     N 8933   9.443   9.750   7.935 -0.3376 -1.1846 -0.4916
  790MOL0     N 8934   9.528   9.806   7.850  0.2033 -0.1547  0.0574
  790MOL0     C 8935  10.616   9.406   7.588 -0.0092 -0.0504 -0.5926
  790MOL0     C 8936  10.723   9.321   7.581 -0.0802  0.5509  0.1329
  790MOL0     C 8937  11.046   9.036   7.747  0.1754  0.6024 -0.0243
  790MOL0     C 8938  11.031   8.964   7.625  0.0115 -0.1662  0.3049
  790MOL0     C 8939  11.126   8.866   7.582 -0.1420  0.2310 -0.4147
  790MOL0     C 8940  11.249   8.858   7.659 -0.0634 -0.5292 -0.1162
  790MOL0     O 8941  11.338   8.763   7.603  0.1401 -0.0350 -0.3597
  790MOL0     C 8942  11.454   8.726   7.683 -0.3910 -0.5380 -0.9911
  790MOL0     C 8943  11.511   8.594   7.625 -0.0713 -0.3035 -0.5499
  790MOL0     C 8944  11.590   8.620   7.492  0.5978  0.3339  0.7839
  790MOL0     C 8945  11.740   8.616   7.506 -0.6436 -0.9392  0.1768
  790MOL0     C 8946  11.820   8.606   7.376  0.0862 -0.1843 -0.3185
  790MOL0     C 8947  11.926   8.600   7.209 -0.0420 -0.1335 -0.2929
  790MOL0     C 8948  11.254   8.931   7.780  0.1513 -0.8578  0.7445
  790MOL0     C 8949  11.156   9.016   7.833 -0.5681 -0.0701  0.2403
  790MOL0     C 8950  11.183   9.083   7.969  0.4508  1.0798 -0.3223
  790MOL0     H 8951  10.843   9.367   7.895  1.4277  2.1441 -0.9489
  790MOL0     H 8952  10.666   9.521   7.901 -1.7827 -0.7148  0.6055
  790MOL0     H 8953  10.399   9.558   7.507 -0.2432  0.4629 -0.7118
  790MOL0     H 8954  10.507   9.700   7.541 -1.2065  2.4275  1.3629
  790MOL0     H 8955  10.255   9.662   7.706  0.4174 -0.1830  0.7165
  790MOL0     H 8956  10.355   9.800   7.693 -0.5063 -0.0152  0.5194
  790MOL0     H 8957  10.294   9.798   7.429 -1.1333  0.4652 -0.1636
  790MOL0     H 8958  10.182   9.658   7.476  0.6042 -1.6656  1.2203
  790MOL0     H 8959  10.147   9.939   7.601  0.0885 -3.0601  4.2804
  790MOL0     H 8960  10.095   9.898   7.432  3.7216  1.4335 -0.7708
  790MOL0     H 8961  10.020   9.746   7.686 -1.7671 -0.9762 -0.2935
  790MOL0     H 8962   9.939   9.729   7.531 -2.6791 -0.9452  3.1649
  790MOL0     H 8963   9.930  10.008   7.636  1.1561 -0.2692 -2.2353
  790MOL0     H 8964   9.832   9.937   7.516  2.4692 -1.2339 -0.8088
  790MOL0     H 8965   9.711   9.954   7.755 -2.6237 -2.1798  1.0532
  790MOL0     H 8966   9.829   9.854   7.818 -1.1975 -1.4003 -1.3309
  790MOL0     H 8967   9.675   9.734   7.596  1.8679 -1.9950 -0.4453
  790MOL0     H 8968   9.789   9.659   7.705 -1.5784 -1.7504 -2.5606
  790MOL0     H 8969   9.575   9.495   7.792 -2.1933 -0.2501 -1.2240
  790MOL0     H 8970   9.302   9.449   7.918 -4.5276  2.7469 -0.1314
  790MOL0     H 8971   9.279   9.572   8.025 -3.4956 -3.6562 -0.8844
  790MOL0     H 8972   9.468   9.323   8.023 -2.7287  0.9044 -2.5909
  790MOL0     H 8973   9.544   9.469   8.100  0.2036 -0.8809  2.8952
  790MOL0     H 8974   9.383   9.479   8.257  1.8072  0.7474 -0.6936
  790MOL0     H 8975   9.281   9.343   8.196 -0.8697  1.5937  1.1142
  790MOL0     H 8976   9.436   9.175   8.221 -0.7618 -0.7593  0.6042
  790MOL0     H 8977   9.570   9.293   8.238  0.4345  0.0145  0.9559
  790MOL0     H 8978   9.676   9.139   8.347 -2.0176  0.9409 -2.3717
  790MOL0     H 8979   9.833   8.983   8.365  0.0931  0.8764 -0.2026
  790MOL0     H 8980   9.823   8.844   8.465  2.2613 -0.5472 -1.7465
  790MOL0     H 8981   9.875   8.985   8.546 -0.3352 -1.8535  0.1357
  790MOL0     H 8982   9.705   8.862   9.020 -2.6583  0.5922  1.8672
  790MOL0     H 8983   9.777   8.701   9.217  0.7008 -2.9729  0.5553
  790MOL0     H 8984   9.535   8.347   9.262 -1.3798 -0.8914 -0.0758
  790MOL0     H 8985   9.652   8.263   9.147  2.0687  0.5619  1.8298
  790MOL0     H 8986   9.676   8.126   9.335 -1.5291  0.2507  1.4429
  790MOL0     H 8987   9.815   8.241   9.326  1.2452  0.2931  4.8894
  790MOL0     H 8988   9.578   8.286   9.497 -1.3384 -5.1287  2.5523
  790MOL0     H 8989   9.744   8.355   9.521  1.0852 -0.7065 -0.5384
  790MOL0     H 8990   9.813   8.123   9.584 -1.4144 -1.1944 -0.3508
  790MOL0     H 8991   9.652   8.060   9.579 -1.5066  0.0579 -0.8467
  790MOL0     H 8992   9.675   8.291   9.762 -0.9469  0.7972 -4.2422
  790MOL0     H 8993   9.579   8.152   9.755  0.5747 -1.8532  1.6460
  790MOL0     H 8994   9.808   8.012   9.804 -3.6183 -1.0109  1.9331
  790MOL0     H 8995   9.735   8.103   9.933 -0.4859 -0.3677  0.6522
  790MOL0     H 8996   9.954   8.242   9.776  0.4139 -1.0003 -1.2401
  790MOL0     H 8997   9.998   8.123   9.888 -2.6845 -3.1237 -1.8664
  790MOL0     H 8998   9.813   8.352   9.968 -0.0921 -0.9539 -1.0418
  790MOL0     H 8999   9.986   8.358   9.995  1.7260 -0.4262 -2.6387
  790MOL0     H 9000   9.589   8.392   8.980 -0.9522  0.1739 -1.0042
  790MOL0     H 9001   9.521   8.561   8.813  0.4588 -0.1457 -0.7643
  790MOL0     H 9002   9.412   8.969   8.729 -2.7331  0.7561 -0.1424
  790MOL0     H 9003   9.336   9.142   8.593  0.1350 -1.5065 -0.0870
  790MOL0     H 9004  10.554   9.406   7.499  2.5070  1.9376 -2.4633
  790MOL0     H 9005  10.741   9.272   7.485  0.1946  1.6066 -0.3794
  790MOL0     H 9006  10.942   8.975   7.563  0.3300 -1.2893 -0.3915
  790MOL0     H 9007  11.130   8.791   7.503  0.2884  0.4210 -0.5742
  790MOL0     H 9008  11.528   8.806   7.692 -0.2992 -0.7048 -0.2118
  790MOL0     H 9009  11.429   8.706   7.787 -1.2791  2.5828 -0.4910
  790MOL0     H 9010  11.428   8.523   7.615 -0.3732 -0.0466  0.0337
  790MOL0     H 9011  11.582   8.553   7.697  1.2325  3.3539  0.4908
  790MOL0     H 9012  11.562   8.532   7.433  1.4106 -1.6097  3.1361
  790MOL0     H 9013  11.549   8.704   7.435  1.3286  0.5058  0.5048
  790MOL0     H 9014  11.782   8.544   7.578  2.1037 -0.3367 -0.7049
  790MOL0     H 9015  11.763   8.715   7.546 -1.4333  0.0457 -1.6610
  790MOL0     H 9016  11.965   8.610   7.109 -0.7639 -0.8199 -0.6575
  790MOL0     H 9017  11.341   8.912   7.842 -0.4216 -2.0554  1.2078
  790MOL0     H 9018  11.156   9.018   8.053 -0.8784  0.9574 -0.8247
  790MOL0     H 9019  11.289   9.104   7.988  0.4018 -1.1004  3.3171
  790MOL0     H 9020  11.126   9.176   7.981 -0.7585  0.1443  1.7170
  791MOL0     O 9021   5.478   9.238  10.540  0.0861  0.0885  0.2101
  791MOL0     C 9022   5.391   9.309  10.590  0.6369 -0.5554  0.4394
  791MOL0     O 9023   5.378   9.436  10.551 -0.1978  0.3103  0.0049
  791MOL0     C 9024   5.440   9.486  10.443 -0.1248 -1.3224 -0.3075
  791MOL0     C 9025   5.496   9.620  10.460  0.0115  0.6973  0.2265
  791MOL0     C 9026   5.568   9.685  10.357 -0.0393 -0.3989  0.0535
  791MOL0     C 9027   5.595   9.617  10.234 -0.9325  0.5750  1.0971
  791MOL0     O 9028   5.677   9.654  10.122 -0.0473 -0.2290 -0.0523
  791MOL0     C 9029   5.713   9.794  10.106  0.4515 -0.1085  0.6833
  791MOL0     C 9030   5.839   9.797  10.025 -0.3332  0.0797  0.4400
  791MOL0     C 9031   5.878   9.937   9.995  0.2064 -0.2648 -0.7743
  791MOL0     C 9032   6.000   9.955   9.902  0.6453 -0.3507  1.0213
  791MOL0     C 9033   6.127   9.970   9.975 -0.4226  0.0002  0.3318
  791MOL0     C 9034   6.268   9.944   9.901  0.8630  0.0079  0.0708
  791MOL0     C 9035   6.385  10.017   9.971 -0.5754  0.6028 -0.5348
  791MOL0     C 9036   6.416   9.954  10.106 -0.0911 -0.2028 -0.6885
  791MOL0     N 9037   6.511  10.031  10.183  0.5891 -0.7009 -0.1390
  791MOL0     C 9038   6.607   9.984  10.259 -0.3897  0.2368  0.4013
  791MOL0     C 9039   6.665  10.085  10.323 -1.1425  0.4529  0.1028
  791MOL0     C 9040   6.772  10.088  10.428 -0.0420  0.8573  0.5869
  791MOL0     C 9041   6.776   9.979  10.531  1.3893 -0.0193  0.2199
  791MOL0     C 9042   6.868  10.019  10.646 -0.6128  0.5317 -0.4911
  791MOL0     C 9043   6.796  10.107  10.752 -0.5528 -0.0080 -0.4346
  791MOL0     O 9044   6.682  10.054  10.806  0.0019  0.2209  0.3481
  791MOL0     C 9045   6.635  10.117  10.924  0.5029  0.4827  0.6517
  791MOL0     C 9046   6.682  10.234  10.978 -0.1185 -0.1416 -0.7000
  791MOL0     C 9047   6.618  10.280  11.085 -0.0857  1.0811  0.3554
  791MOL0     C 9048   6.652  10.427  11.115 -0.0210 -1.0048  0.7199
  791MOL0     C 9049   6.515  10.214  11.160 -0.0446 -0.7530 -0.0848
  791MOL0     C 9050   6.445  10.276  11.272 -0.3566 -0.2402 -0.2450
  791MOL0     O 9051   6.320  10.226  11.298  0.1040  0.2301 -0.2136
  791MOL0     C 9052   6.259  10.257  11.417  0.0972  0.4886  0.3698
  791MOL0     C 9053   6.156  10.349  11.413 -0.1028  0.5494  0.6041
  791MOL0     C 9054   6.105  10.391  11.538  0.1840 -0.1433  0.3683
  791MOL0     C 9055   6.146  10.339  11.661 -0.4305 -0.6640  0.2302
  791MOL0     O 9056   6.081  10.372  11.783  0.2991  0.0383 -0.5609
  791MOL0     C 9057   6.098  10.271  11.888  0.0280 -0.0596 -1.7532
  791MOL0     C 9058   6.021  10.310  12.006 -0.4129  0.3836  0.7139
  791MOL0     C 9059   5.948  10.204  12.079  0.4317  0.5774 -0.4106
  791MOL0     C 9060   5.859  10.264  12.193  0.3040  0.5991  0.0446
  791MOL0     C 9061   5.794  10.162  12.275 -0.4164  0.4347 -0.2540
  791MOL0     C 9062   5.904  10.057  12.331 -0.2652  0.4993  1.0420
  791MOL0     C 9063   5.837   9.966  12.428 -0.8110  0.1851 -0.8825
  791MOL0     C 9064   5.932   9.844  12.446  0.8419 -0.8863  0.1647
  791MOL0    Cl 9065   5.869   9.735  12.579 -0.2947  0.1242  0.2574
  791MOL0     C 9066   6.254  10.250  11.659  0.0829  0.6308 -0.8342
  791MOL0     C 9067   6.307  10.209  11.538 -0.4179  0.1723 -0.4405
  791MOL0     O 9068   6.514  10.347  11.347  0.4820  0.6162  1.2935
  791MOL0     C 9069   6.473  10.091  11.104 -1.0450 -0.4798 -0.2192
  791MOL0     C 9070   6.534  10.050  10.986 -0.1519  0.1203  0.1163
  791MOL0     N 9071   6.609  10.201  10.265 -0.4935  0.2168 -0.1467
  791MOL0     N 9072   6.520  10.162  10.178 -0.1112 -0.4317  0.0315
  791MOL0     C 9073   5.539   9.485  10.218  0.7503  0.0853 -0.4180
  791MOL0     C 9074   5.468   9.428  10.326  0.3711 -0.2410 -0.8159
  791MOL0     C 9075   5.299   9.246  10.689  0.4274  0.6324 -0.3904
  791MOL0     C 9076   5.219   9.332  10.765  0.1372  0.6035 -0.4534
  791MOL0     C 9077   5.139   9.276  10.867  0.3175 -0.1697  0.3108
  791MOL0     C 9078   5.126   9.138  10.896 -0.0516 -0.4708  0.0060
  791MOL0     O 9079   5.045   9.072  10.985  0.7852  0.2612 -0.8951
  791MOL0     C 9080   4.983   9.159  11.091  0.5412 -0.3060  0.2117
  791MOL0     C 9081   4.939   9.067  11.208 -0.7153 -0.8223  0.8609
  791MOL0     C 9082   4.842   9.142  11.296  0.2599  0.2800 -0.9581
  791MOL0     C 9083   4.830   9.056  11.428  1.0575 -0.7508  0.5950
  791MOL0     C 9084   4.699   8.992  11.448  0.7109  0.4992 -0.5006
  791MOL0     C 9085   4.584   8.950  11.438 -0.5932  0.0964  0.4399
  791MOL0     C 9086   5.204   9.056  10.819  0.6834  0.0805  0.9375
  791MOL0     C 9087   5.287   9.106  10.705  0.2298  0.3561  0.9099
  791MOL0     C 9088   5.362   8.999  10.622  0.4053 -0.4647  0.9217
  791MOL0     H 9089   5.469   9.678  10.548 -0.3123  2.5950 -1.0539
  791MOL0     H 9090   5.595   9.787  10.381 -0.9331 -0.7493  2.9392
  791MOL0     H 9091   5.729   9.843  10.202 -1.7971 -0.1851  1.1442
  791MOL0     H 9092   5.625   9.835  10.057  1.5415  0.5429 -0.7908
  791MOL0     H 9093   5.918   9.748  10.082  1.1597  1.9409  0.0819
  791MOL0     H 9094   5.821   9.742   9.932 -5.2355  0.9760  0.5940
  791MOL0     H 9095   5.791   9.987   9.953  1.2972  4.1833  1.6570
  791MOL0     H 9096   5.892   9.989  10.090 -4.6840  0.3352 -0.1373
  791MOL0     H 9097   5.994   9.881   9.822  1.5887  0.6509 -0.0209
  791MOL0     H 9098   5.996  10.054   9.854  1.4959 -1.7560 -2.2321
  791MOL0     H 9099   6.122   9.918  10.071  4.0187 -2.4985 -0.5289
  791MOL0     H 9100   6.134  10.076  10.000  1.4699 -0.1291  0.5145
  791MOL0     H 9101   6.296   9.839   9.891 -1.2523 -0.6189  0.3920
  791MOL0     H 9102   6.258   9.967   9.794 -3.4320 -2.6544 -0.3177
  791MOL0     H 9103   6.346  10.119   9.979 -2.0525 -0.0920  2.9997
  791MOL0     H 9104   6.479  10.015   9.915 -0.5801 -0.1545 -0.5323
  791MOL0     H 9105   6.332   9.950  10.175  1.8824 -0.9515  1.8551
  791MOL0     H 9106   6.449   9.850  10.098 -0.4193 -0.5742  1.9403
  791MOL0     H 9107   6.628   9.879  10.273  0.8118 -0.2540 -3.8935
  791MOL0     H 9108   6.785  10.186  10.473  1.4926  0.5163  0.9560
  791MOL0     H 9109   6.869  10.077  10.378  0.0670  1.7405  0.5889
  791MOL0     H 9110   6.674   9.963  10.567 -0.1365 -0.9908 -3.8500
  791MOL0     H 9111   6.816   9.882  10.497  0.8665  0.3591 -1.5785
  791MOL0     H 9112   6.909   9.933  10.700  0.5176  1.5234  0.2765
  791MOL0     H 9113   6.962  10.068  10.616 -0.1447  0.9474  1.5021
  791MOL0     H 9114   6.875  10.130  10.824  0.1614  3.6543 -2.1022
  791MOL0     H 9115   6.765  10.201  10.703 -1.3493 -0.1310 -0.1775
  791MOL0     H 9116   6.759  10.292  10.929  1.2461 -1.0790  0.2340
  791MOL0     H 9117   6.567  10.477  11.163  2.6808  3.4224  1.4689
  791MOL0     H 9118   6.676  10.487  11.027 -0.7750  2.7494  2.8441
  791MOL0     H 9119   6.725  10.435  11.196  0.9194 -1.3545 -0.0708
  791MOL0     H 9120   6.130  10.386  11.315  3.9768  1.0079 -0.5235
  791MOL0     H 9121   6.030  10.468  11.526  0.1983  0.0648  1.4817
  791MOL0     H 9122   6.059  10.173  11.857 -1.6228  0.5296 -1.6498
  791MOL0     H 9123   6.199  10.267  11.929 -0.4598  0.2207 -0.4688
  791MOL0     H 9124   6.095  10.344  12.078 -2.4261 -0.4398  3.3146
  791MOL0     H 9125   5.963  10.397  11.976  1.1994  1.8712  1.6850
  791MOL0     H 9126   6.027  10.138  12.115 -0.7761 -0.1959  0.9713
  791MOL0     H 9127   5.878  10.155  12.010 -4.6105  3.3298  2.1491
  791MOL0     H 9128   5.782  10.328  12.150  1.2667  1.0899 -0.9896
  791MOL0     H 9129   5.922  10.317  12.266  2.0418 -1.4041  0.1088
  791MOL0     H 9130   5.741  10.202  12.362  1.7729  0.5456  1.1066
  791MOL0     H 9131   5.716  10.111  12.218  1.0117  1.0722 -2.9463
  791MOL0     H 9132   5.989  10.109  12.376  0.7996 -0.9914  0.8282
  791MOL0     H 9133   5.934   9.995  12.245 -3.7685 -2.0174  1.4371
  791MOL0     H 9134   5.733   9.947  12.399 -1.0726  4.2719 -3.4447
  791MOL0     H 9135   5.828   9.998  12.532  0.4488 -1.6497 -0.1483
  791MOL0     H 9136   6.033   9.879  12.468  0.6671  1.9547 -2.8030
  791MOL0     H 9137   5.923   9.781  12.357 -0.3064  1.0689 -1.1694
  791MOL0     H 9138   6.293  10.201  11.747  1.0491 -1.4286 -2.3201
  791MOL0     H 9139   6.396  10.147  11.525  1.7214  2.8165  0.6705
  791MOL0     H 9140   6.397  10.027  11.148  0.4480  0.7257  4.6132
  791MOL0     H 9141   6.501   9.956  10.943  2.0906 -0.3752 -0.7156
  791MOL0     H 9142   5.546   9.429  10.125 -1.3702  2.2077 -1.9875
  791MOL0     H 9143   5.426   9.331  10.306 -0.7969  0.4157 -1.6864
  791MOL0     H 9144   5.236   9.438  10.751  2.4670  0.3962  0.2327
  791MOL0     H 9145   5.077   9.356  10.906  1.0163  2.5605 -3.6422
  791MOL0     H 9146   5.052   9.230  11.138 -1.6202  0.3617  2.5508
  791MOL0     H 9147   4.896   9.211  11.051 -1.4307 -1.3704  2.8344
  791MOL0     H 9148   5.028   9.045  11.268 -0.4927 -1.8918  0.1511
  791MOL0     H 9149   4.897   8.975  11.167  3.2523 -0.7157 -4.4233
  791MOL0     H 9150   4.893   9.236  11.317  0.4843  0.1960 -1.1151
  791MOL0     H 9151   4.747   9.163  11.247 -1.0006 -1.3157  0.6656
  791MOL0     H 9152   4.847   9.120  11.515  0.0039 -2.1422  1.8713
  791MOL0     H 9153   4.904   8.977  11.441 -0.9192 -2.8520 -0.2466
  791MOL0     H 9154   4.480   8.925  11.449  0.2945 -3.0977  3.1136
  791MOL0     H 9155   5.195   8.953  10.851 -1.3177  0.1926  0.8611
  791MOL0     H 9156   5.337   9.020  10.518  0.3289  2.0695  1.4006
  791MOL0     H 9157   5.470   9.013  10.633  0.4450  0.4652 -0.4211
  791MOL0     H 9158   5.341   8.894  10.647  2.6537 -1.8089 -2.0660
  792MOL0     O 9159   6.517   7.934   2.760 -0.3817  0.7790  0.0955
  792MOL0     C 9160   6.423   7.997   2.801  1.1459 -0.2593 -0.0837
  792MOL0     O 9161   6.289   7.984   2.762 -0.0759 -0.1290 -0.4166
  792MOL0     C 9162   6.255   7.890   2.666 -0.5118  0.3986  0.0821
  792MOL0     C 9163   6.287   7.910   2.533  0.2398 -0.1870  0.4510
  792MOL0     C 9164   6.257   7.808   2.436 -0.0593  0.1685  0.3999
  792MOL0     C 9165   6.188   7.692   2.475 -0.1219 -0.1080 -0.3388
  792MOL0     O 9166   6.148   7.589   2.391 -0.0279 -0.5447 -0.7602
  792MOL0     C 9167   6.234   7.479   2.415  0.4574  0.2066 -0.6306
  792MOL0     C 9168   6.232   7.372   2.310 -0.3522  0.5558 -0.5565
  792MOL0     C 9169   6.103   7.299   2.283 -0.1380  0.4218  0.3124
  792MOL0     C 9170   6.127   7.199   2.172  0.0280  0.3926  0.8332
  792MOL0     C 9171   6.015   7.101   2.144 -0.4260  0.9473  0.7485
  792MOL0     C 9172   6.053   7.004   2.038  0.4635 -0.6161  0.4510
  792MOL0     C 9173   6.062   7.065   1.897 -0.5339 -0.2774  1.4426
  792MOL0     C 9174   6.003   6.970   1.791  0.7048  0.5279 -0.7441
  792MOL0     N 9175   6.057   6.835   1.791 -0.7944  0.3784  0.0097
  792MOL0     C 9176   6.184   6.803   1.749  0.1722  0.1691  0.5068
  792MOL0     C 9177   6.182   6.661   1.769  0.1557  0.2190  0.4485
  792MOL0     C 9178   6.291   6.561   1.763 -0.2991  1.0842  0.2526
  792MOL0     C 9179   6.264   6.423   1.831 -0.3315 -0.2746  0.6869
  792MOL0     C 9180   6.161   6.341   1.758 -0.2486  1.2027 -0.4766
  792MOL0     C 9181   6.143   6.200   1.828 -0.4806 -0.1456  0.0363
  792MOL0     O 9182   6.271   6.132   1.849  0.3306 -0.8481  0.4507
  792MOL0     C 9183   6.262   5.996   1.854  0.3084 -0.3953  0.0005
  792MOL0     C 9184   6.282   5.936   1.733 -0.6405  0.7172  0.6348
  792MOL0     C 9185   6.289   5.796   1.714 -0.3773 -0.5364 -0.0274
  792MOL0     C 9186   6.302   5.730   1.582  0.9558 -0.6127 -0.6121
  792MOL0     C 9187   6.261   5.716   1.832 -0.4682  0.8885 -0.7159
  792MOL0     C 9188   6.262   5.563   1.840 -0.0123 -0.6405 -0.2149
  792MOL0     O 9189   6.298   5.478   1.734 -0.0668  0.3472 -0.2888
  792MOL0     C 9190   6.319   5.347   1.766  0.5594 -0.4076 -0.9700
  792MOL0     C 9191   6.450   5.302   1.792 -0.1272 -0.4137 -0.4246
  792MOL0     C 9192   6.458   5.174   1.844  0.2374  1.2088 -0.6253
  792MOL0     C 9193   6.340   5.095   1.876 -0.1394  0.5760  0.6109
  792MOL0     O 9194   6.355   4.965   1.906  0.9764 -0.0554 -0.1406
  792MOL0     C 9195   6.343   4.951   2.049 -0.5690 -0.3209  0.1830
  792MOL0     C 9196   6.308   4.809   2.073 -0.1208 -0.5213 -0.4553
  792MOL0     C 9197   6.201   4.753   1.996  0.2592 -0.3483  0.8404
  792MOL0     C 9198   6.165   4.615   2.057  0.3196  0.0177 -0.7526
  792MOL0     C 9199   6.110   4.618   2.199  0.5073  0.4026 -0.5808
  792MOL0     C 9200   6.209   4.572   2.306 -0.2566  0.1126 -0.2660
  792MOL0     C 9201   6.169   4.617   2.448 -0.6140  0.1899  0.2794
  792MOL0     C 9202   6.275   4.576   2.546  0.2201 -0.3613  0.4464
  792MOL0    Cl 9203   6.192   4.483   2.684  0.3228  0.1397 -0.1645
  792MOL0     C 9204   6.218   5.144   1.850 -1.5016 -0.4885  0.0783
  792MOL0     C 9205   6.208   5.270   1.794  0.0546 -0.2224  0.0577
  792MOL0     O 9206   6.251   5.523   1.955 -0.1985  0.5368  0.1524
  792MOL0     C 9207   6.230   5.782   1.956  0.2893  0.1618  0.5832
  792MOL0     C 9208   6.242   5.919   1.966  1.0725  0.1458 -0.8956
  792MOL0     N 9209   6.051   6.624   1.808 -0.4404  0.3816 -1.0585
  792MOL0     N 9210   5.975   6.725   1.807 -0.4176 -0.6139 -0.9421
  792MOL0     C 9211   6.166   7.680   2.613  1.0480 -0.1672 -0.2976
  792MOL0     C 9212   6.203   7.768   2.707  0.8170 -0.0567 -0.0549
  792MOL0     C 9213   6.432   8.081   2.921  1.2677  0.1404  0.5559
  792MOL0     C 9214   6.313   8.161   2.958  0.2937  0.3664  0.6779
  792MOL0     C 9215   6.317   8.255   3.065  0.1735 -0.1874  0.0405
  792MOL0     C 9216   6.426   8.271   3.148  0.6235 -0.0969 -0.3774
  792MOL0     O 9217   6.431   8.373   3.246  0.9223 -0.1697  0.1473
  792MOL0     C 9218   6.476   8.340   3.375 -0.1676  0.1764  0.1992
  792MOL0     C 9219   6.356   8.299   3.466 -0.6617  0.3336  0.7970
  792MOL0     C 9220   6.400   8.216   3.585  0.1788 -0.1372 -0.8455
  792MOL0     C 9221   6.278   8.193   3.678  0.0759  0.2491  0.1990
  792MOL0     C 9222   6.226   8.057   3.648 -0.7507  0.0299  0.7191
  792MOL0     C 9223   6.195   7.938   3.628 -0.0114 -0.6112 -0.6633
  792MOL0     C 9224   6.531   8.188   3.115  0.5979 -0.5864 -0.5586
  792MOL0     C 9225   6.541   8.101   3.000  0.0930  0.6778 -0.6405
  792MOL0     C 9226   6.676   8.038   2.978 -0.4485  0.3911  0.7153
  792MOL0     H 9227   6.349   7.995   2.508 -0.0981  0.5558  1.9952
  792MOL0     H 9228   6.294   7.825   2.335  2.2070  0.3941  1.2055
  792MOL0     H 9229   6.201   7.433   2.509 -1.6454  0.2525 -1.3139
  792MOL0     H 9230   6.342   7.499   2.425  0.8451 -1.7568 -0.4647
  792MOL0     H 9231   6.270   7.422   2.220  2.2701  1.0716  0.7377
  792MOL0     H 9232   6.310   7.309   2.354  0.6233  2.1963  0.1742
  792MOL0     H 9233   6.070   7.249   2.374  1.8463  0.1217  0.9093
  792MOL0     H 9234   6.034   7.381   2.259  0.1584  0.7760  0.6519
  792MOL0     H 9235   6.121   7.269   2.088 -3.7132  1.6476  1.9499
  792MOL0     H 9236   6.221   7.145   2.191 -1.2506 -2.1375  0.4133
  792MOL0     H 9237   5.927   7.154   2.106  0.1521  0.4382 -1.4192
  792MOL0     H 9238   5.983   7.040   2.229  0.4092  0.5044  0.7514
  792MOL0     H 9239   6.142   6.946   2.062  0.7104 -0.0660  0.9047
  792MOL0     H 9240   5.967   6.936   2.039 -0.2279  0.1134  4.0187
  792MOL0     H 9241   6.168   7.075   1.875 -1.3589  0.9145 -2.9316
  792MOL0     H 9242   6.021   7.164   1.874 -1.0674 -0.4850  1.4827
  792MOL0     H 9243   5.895   6.955   1.791  0.6594  0.5639 -2.6339
  792MOL0     H 9244   6.014   7.011   1.690 -1.1926  2.8887 -0.0858
  792MOL0     H 9245   6.274   6.859   1.725 -0.1825  1.1194  1.3304
  792MOL0     H 9246   6.387   6.599   1.799  0.8649  0.0253 -1.5870
  792MOL0     H 9247   6.324   6.539   1.662  2.1629  2.5947  0.6510
  792MOL0     H 9248   6.359   6.371   1.848 -0.4725 -0.7343  0.1184
  792MOL0     H 9249   6.233   6.441   1.934  0.7047 -0.2470  1.0038
  792MOL0     H 9250   6.062   6.387   1.767 -0.3688  0.6927  1.2364
  792MOL0     H 9251   6.196   6.326   1.655  0.8570 -0.5266  0.1094
  792MOL0     H 9252   6.090   6.220   1.922 -1.3796  2.2939 -0.9011
  792MOL0     H 9253   6.078   6.134   1.770  1.4834 -1.2852 -0.9654
  792MOL0     H 9254   6.284   5.995   1.642  0.0831 -1.6791 -0.9987
  792MOL0     H 9255   6.325   5.805   1.506 -0.2880  0.8421  0.3965
  792MOL0     H 9256   6.199   5.698   1.565 -0.0866  0.5106  2.7778
  792MOL0     H 9257   6.376   5.649   1.580 -1.0581 -2.5543 -3.1819
  792MOL0     H 9258   6.539   5.358   1.766  0.1964 -1.3097 -1.3105
  792MOL0     H 9259   6.550   5.122   1.867  0.3785  1.3455 -0.8771
  792MOL0     H 9260   6.443   4.966   2.090 -0.4966 -2.1335  0.7555
  792MOL0     H 9261   6.274   5.017   2.101  0.0241  1.4828 -1.2328
  792MOL0     H 9262   6.399   4.749   2.059 -1.0097 -1.6200 -1.7110
  792MOL0     H 9263   6.285   4.806   2.180 -1.6183 -3.4276 -0.7722
  792MOL0     H 9264   6.244   4.732   1.898  0.0746  0.2325  0.6277
  792MOL0     H 9265   6.115   4.820   1.993 -0.7962 -1.6903 -0.4323
  792MOL0     H 9266   6.263   4.568   2.044 -0.3126 -1.1654 -1.4737
  792MOL0     H 9267   6.091   4.559   1.999 -2.0268  0.2719  1.7617
  792MOL0     H 9268   6.074   4.720   2.214  1.3401  0.7830 -1.0336
  792MOL0     H 9269   6.024   4.551   2.207 -0.7000  1.6747 -2.2680
  792MOL0     H 9270   6.308   4.612   2.283  0.9303 -3.4146 -2.1094
  792MOL0     H 9271   6.217   4.464   2.295 -0.7131  0.2414 -2.4286
  792MOL0     H 9272   6.080   4.570   2.489 -0.1246 -0.6443  0.4047
  792MOL0     H 9273   6.152   4.725   2.452 -0.4480  0.4089 -2.7376
  792MOL0     H 9274   6.332   4.661   2.585  0.0034 -1.1109  2.4590
  792MOL0     H 9275   6.340   4.504   2.496  1.2035  0.5371  0.3779
  792MOL0     H 9276   6.140   5.069   1.866 -0.7838 -1.6361 -1.5628
  792MOL0     H 9277   6.109   5.301   1.763  0.1464 -1.9820 -2.2792
  792MOL0     H 9278   6.202   5.731   2.048 -1.8619 -1.3791 -0.8468
  792MOL0     H 9279   6.227   5.968   2.062  0.1237 -0.7682 -0.5594
  792MOL0     H 9280   6.116   7.593   2.654  0.0479  0.1445 -0.8081
  792MOL0     H 9281   6.165   7.753   2.808  0.7105  1.0811  0.0936
  792MOL0     H 9282   6.219   8.150   2.905  1.8960 -1.1038 -2.0697
  792MOL0     H 9283   6.229   8.313   3.088 -0.1514 -0.6856  0.0800
  792MOL0     H 9284   6.527   8.244   3.368  0.8914  0.7846 -0.6242
  792MOL0     H 9285   6.548   8.413   3.411 -1.0074  0.5335  1.2123
  792MOL0     H 9286   6.290   8.252   3.393  2.7615 -0.9480 -1.7277
  792MOL0     H 9287   6.298   8.382   3.507 -1.1310  0.0308  0.7594
  792MOL0     H 9288   6.456   8.132   3.544 -0.3887  0.2195 -2.4075
  792MOL0     H 9289   6.467   8.284   3.640 -1.0604 -1.1066  2.0568
  792MOL0     H 9290   6.198   8.267   3.675  0.9865  1.5827  3.8796
  792MOL0     H 9291   6.311   8.183   3.782 -0.7420 -0.3696  0.4124
  792MOL0     H 9292   6.157   7.842   3.599  1.6332 -1.0778 -1.3606
  792MOL0     H 9293   6.614   8.214   3.180 -0.4686  0.3733  0.4553
  792MOL0     H 9294   6.681   7.933   2.946 -2.9303  0.8335 -1.5316
  792MOL0     H 9295   6.728   8.092   2.899  3.5444 -1.8557  1.5097
  792MOL0     H 9296   6.736   8.038   3.069 -1.9368  2.3786  1.7691
  793MOL0     O 9297   4.173   9.044   1.060  0.1106 -1.1006 -0.3355
  793MOL0     C 9298   4.053   9.023   1.029 -0.9597 -0.2376  0.9085
  793MOL0     O 9299   4.012   8.927   0.955 -0.5683 -0.3480 -0.5025
  793MOL0     C 9300   4.090   8.875   0.849 -0.2078 -0.0152  0.7700
  793MOL0     C 9301   4.226   8.897   0.824  0.4954 -0.5967 -0.4381
  793MOL0     C 9302   4.285   8.836   0.716 -0.5121  0.4720 -0.2775
  793MOL0     C 9303   4.220   8.756   0.635  0.8963  1.1951 -0.3707
  793MOL0     O 9304   4.277   8.707   0.521 -0.3293  0.3448 -0.1869
  793MOL0     C 9305   4.291   8.569   0.506  0.3755  1.2475 -1.1132
  793MOL0     C 9306   4.307   8.531   0.353  0.0698 -0.5678 -0.2459
  793MOL0     C 9307   4.426   8.605   0.291 -0.5159 -0.0494  0.3931
  793MOL0     C 9308   4.463   8.551   0.149  0.4413  0.1507 -0.6265
  793MOL0     C 9309   4.553   8.648   0.079  0.0750  0.7130  0.1779
  793MOL0     C 9310   4.618   8.583  -0.037 -0.0400 -0.1405 -0.2010
  793MOL0     C 9311   4.516   8.549  -0.143 -0.0283 -0.2835 -0.7151
  793MOL0     C 9312   4.588   8.462  -0.248  0.1693  0.0661  0.4897
  793MOL0     N 9313   4.512   8.449  -0.370 -0.0778 -0.2778 -0.4209
  793MOL0     C 9314   4.390   8.396  -0.377  0.0640 -0.7805  0.1871
  793MOL0     C 9315   4.352   8.408  -0.510  0.6094  1.2159  0.2499
  793MOL0     C 9316   4.224   8.375  -0.572  0.4859  0.5952 -0.0200
  793MOL0     C 9317   4.102   8.390  -0.472 -0.2388 -0.3478 -0.4266
  793MOL0     C 9318   4.075   8.534  -0.442  0.1250  0.6762 -0.7102
  793MOL0     C 9319   3.975   8.572  -0.339 -0.2168 -0.4389  0.2839
  793MOL0     O 9320   4.045   8.561  -0.210  0.2580  1.1976  0.4028
  793MOL0     C 9321   4.018   8.637  -0.106  0.0626 -0.1474 -0.3182
  793MOL0     C 9322   3.888   8.686  -0.084 -0.0371  0.4341 -0.2409
  793MOL0     C 9323   3.861   8.758   0.029 -0.1544  0.2341  0.3991
  793MOL0     C 9324   3.715   8.811   0.031 -0.5868  0.5297 -0.4801
  793MOL0     C 9325   3.960   8.798   0.114  0.1618 -0.3802  0.3651
  793MOL0     C 9326   3.939   8.888   0.222  0.5484 -0.5197 -0.3653
  793MOL0     O 9327   3.921   8.852   0.353  0.3767  0.3424 -0.0092
  793MOL0     C 9328   3.911   8.951   0.443  0.8344 -0.0780  0.3541
  793MOL0     C 9329   4.019   9.018   0.491 -0.3351  0.3732  0.4905
  793MOL0     C 9330   3.997   9.113   0.582  0.2644 -0.2426 -0.0971
  793MOL0     C 9331   3.867   9.160   0.612  0.8278  0.4671  0.2250
  793MOL0     O 9332   3.834   9.261   0.700  0.1777  0.3450  0.1786
  793MOL0     C 9333   3.941   9.351   0.739 -0.5537 -0.2155 -0.1309
  793MOL0     C 9334   3.900   9.455   0.856  0.5829  0.0207  0.1447
  793MOL0     C 9335   3.780   9.547   0.825 -0.4583  0.4789  0.3186
  793MOL0     C 9336   3.836   9.658   0.723 -0.6208  0.3908 -0.6699
  793MOL0     C 9337   3.715   9.719   0.643 -0.2087  0.4242  0.6498
  793MOL0     C 9338   3.644   9.827   0.722 -0.1664 -1.3882  1.0012
  793MOL0     C 9339   3.531   9.901   0.643 -1.0536 -0.3440 -0.1864
  793MOL0     C 9340   3.447   9.800   0.572  1.0367  0.3545 -0.1395
  793MOL0    Cl 9341   3.297   9.882   0.532  0.1294  0.1426  0.5901
  793MOL0     C 9342   3.754   9.095   0.553 -0.4453  0.4937 -0.4362
  793MOL0     C 9343   3.777   8.986   0.468  0.1476  0.1289 -0.1075
  793MOL0     O 9344   3.947   9.004   0.193  0.6093  0.5197 -0.0412
  793MOL0     C 9345   4.087   8.741   0.103  0.2251 -0.5912 -2.1639
  793MOL0     C 9346   4.118   8.666  -0.009  0.1143  0.0168 -0.3499
  793MOL0     N 9347   4.449   8.481  -0.572  0.8862  0.1493 -0.7551
  793MOL0     N 9348   4.542   8.513  -0.489  0.6173 -0.2367 -0.0205
  793MOL0     C 9349   4.089   8.714   0.664 -0.1178 -1.0833  0.6395
  793MOL0     C 9350   4.036   8.774   0.774 -0.1117 -0.7009  0.9921
  793MOL0     C 9351   3.954   9.114   1.096 -0.1043 -0.0746  0.2388
  793MOL0     C 9352   3.996   9.232   1.165 -0.1581 -0.5918  0.6035
  793MOL0     C 9353   3.914   9.316   1.243 -0.0065 -0.6220  0.0728
  793MOL0     C 9354   3.770   9.305   1.245 -0.5970 -0.5369 -0.6996
  793MOL0     O 9355   3.687   9.390   1.310 -0.2720  0.6010  0.2338
  793MOL0     C 9356   3.737   9.515   1.329 -0.6883 -0.2558  0.0566
  793MOL0     C 9357   3.631   9.600   1.388 -0.0263 -0.6685  0.0552
  793MOL0     C 9358   3.594   9.563   1.530  0.0099 -0.1773  0.2153
  793MOL0     C 9359   3.706   9.565   1.629 -0.9310  0.3701 -0.7345
  793MOL0     C 9360   3.754   9.698   1.637  0.0480 -1.2616  0.7027
  793MOL0     C 9361   3.794   9.815   1.642 -0.0451 -1.0941 -0.2283
  793MOL0     C 9362   3.730   9.191   1.180  0.7428 -0.1602  0.0343
  793MOL0     C 9363   3.816   9.094   1.101 -0.1943 -0.4164  0.5935
  793MOL0     C 9364   3.741   8.978   1.047 -0.4381  0.0251  0.1792
  793MOL0     H 9365   4.300   8.961   0.873  1.6268  0.2877 -3.0657
  793MOL0     H 9366   4.392   8.849   0.701 -0.2114 -1.6480 -0.2288
  793MOL0     H 9367   4.210   8.513   0.554  1.3150 -1.2976 -2.2933
  793MOL0     H 9368   4.377   8.537   0.565 -2.1493  1.3047  3.0050
  793MOL0     H 9369   4.325   8.423   0.350  0.8317 -0.4688  0.2533
  793MOL0     H 9370   4.223   8.557   0.289  0.5231 -2.1134 -1.5118
  793MOL0     H 9371   4.393   8.708   0.273 -2.2919 -0.6313  0.2103
  793MOL0     H 9372   4.516   8.597   0.353  0.8579  2.4019 -1.1405
  793MOL0     H 9373   4.503   8.450   0.156 -2.0170 -0.9304 -0.9435
  793MOL0     H 9374   4.372   8.551   0.087  0.4083  2.2078 -0.6733
  793MOL0     H 9375   4.625   8.694   0.147  0.2196  1.6645 -0.6006
  793MOL0     H 9376   4.487   8.731   0.051  0.0877 -0.0462 -2.3710
  793MOL0     H 9377   4.688   8.655  -0.081  1.2790 -2.2055 -1.6803
  793MOL0     H 9378   4.689   8.506  -0.006 -1.7780 -1.8371 -0.2910
  793MOL0     H 9379   4.467   8.638  -0.183  0.8318  0.3820 -0.2937
  793MOL0     H 9380   4.439   8.491  -0.092 -0.9720 -0.8790 -2.6821
  793MOL0     H 9381   4.685   8.499  -0.281  0.7989 -1.0974  0.9588
  793MOL0     H 9382   4.600   8.357  -0.217 -0.7036 -0.8325 -1.9656
  793MOL0     H 9383   4.342   8.339  -0.298 -0.6014  1.2648  1.3178
  793MOL0     H 9384   4.230   8.269  -0.601  1.4892  0.1988  1.5290
  793MOL0     H 9385   4.203   8.444  -0.654  1.3149  1.8916  0.8323
  793MOL0     H 9386   4.016   8.340  -0.517 -1.4218  0.6955  0.6005
  793MOL0     H 9387   4.119   8.343  -0.375  2.1838  1.0999 -0.0643
  793MOL0     H 9388   4.163   8.584  -0.400 -0.3529  1.0467 -0.1283
  793MOL0     H 9389   4.054   8.576  -0.540  0.4701  1.4556 -0.4589
  793MOL0     H 9390   3.935   8.673  -0.349 -1.8319 -1.1663 -1.1027
  793MOL0     H 9391   3.887   8.507  -0.331 -0.1509 -0.3802  1.9618
  793MOL0     H 9392   3.806   8.660  -0.149 -2.5214 -2.1437  3.5380
  793MOL0     H 9393   3.707   8.892   0.103 -0.5771 -0.7688  1.0460
  793MOL0     H 9394   3.655   8.724   0.058 -0.1219 -0.5013 -2.5422
  793MOL0     H 9395   3.677   8.865  -0.056 -0.2803  1.8473  0.1916
  793MOL0     H 9396   4.122   8.990   0.470  0.1542  2.5856 -0.3355
  793MOL0     H 9397   4.090   9.143   0.630  0.5270 -1.2782  0.0654
  793MOL0     H 9398   4.029   9.299   0.777  0.0349  1.0146  0.2206
  793MOL0     H 9399   3.979   9.413   0.657 -0.8516  1.2798  0.8306
  793MOL0     H 9400   3.888   9.388   0.942 -1.4036 -0.5833 -0.5372
  793MOL0     H 9401   3.984   9.521   0.876  0.3092 -0.1868  2.2569
  793MOL0     H 9402   3.750   9.577   0.926 -1.9103 -6.0888  2.3245
  793MOL0     H 9403   3.700   9.495   0.771 -0.9167  1.9781 -0.5029
  793MOL0     H 9404   3.903   9.612   0.650  0.6541  2.7335 -1.0744
  793MOL0     H 9405   3.905   9.729   0.768 -0.0061 -1.6891  1.9064
  793MOL0     H 9406   3.747   9.756   0.545  2.7694 -0.6819  1.0946
  793MOL0     H 9407   3.644   9.637   0.629 -0.5792  1.1549 -2.5861
  793MOL0     H 9408   3.713   9.906   0.754 -1.6649 -1.0269  3.6327
  793MOL0     H 9409   3.606   9.796   0.820  1.2075 -2.5675  1.1901
  793MOL0     H 9410   3.567   9.970   0.567  0.1917 -0.9379 -0.1596
  793MOL0     H 9411   3.479   9.963   0.717  1.0670  0.3248  0.8166
  793MOL0     H 9412   3.423   9.704   0.619  1.1868 -0.9488 -2.5572
  793MOL0     H 9413   3.503   9.783   0.480  0.0339  2.9784 -1.3343
  793MOL0     H 9414   3.653   9.123   0.581 -1.0959 -2.1957  0.2099
  793MOL0     H 9415   3.693   8.938   0.419  2.2285 -3.5836 -0.4179
  793MOL0     H 9416   4.162   8.765   0.178 -1.1043 -3.1128  0.1604
  793MOL0     H 9417   4.220   8.643  -0.039 -0.4169 -0.0599 -2.1991
  793MOL0     H 9418   4.038   8.642   0.602  0.6304  0.2265 -1.6313
  793MOL0     H 9419   3.935   8.740   0.794  0.6568 -4.4128 -0.6383
  793MOL0     H 9420   4.100   9.264   1.170  0.1509 -1.5440  0.5213
  793MOL0     H 9421   3.973   9.386   1.302 -1.7332 -0.2074  1.4170
  793MOL0     H 9422   3.813   9.519   1.408 -1.4679 -0.2013  0.8213
  793MOL0     H 9423   3.775   9.564   1.239 -1.8507 -0.4015 -0.5217
  793MOL0     H 9424   3.540   9.610   1.329  1.6842  1.3220 -2.4789
  793MOL0     H 9425   3.664   9.703   1.370 -2.0368 -0.1855 -1.2038
  793MOL0     H 9426   3.509   9.620   1.569 -0.5702 -0.1630 -1.0162
  793MOL0     H 9427   3.562   9.458   1.529  0.0944 -0.2140  0.8343
  793MOL0     H 9428   3.778   9.486   1.605  0.3031  0.5980  1.9101
  793MOL0     H 9429   3.682   9.538   1.732  2.5706 -0.5781 -0.0314
  793MOL0     H 9430   3.849   9.908   1.647  0.2194 -1.2609  0.0418
  793MOL0     H 9431   3.622   9.188   1.196  0.8145  0.0779  0.5920
  793MOL0     H 9432   3.635   8.971   1.073 -0.1896 -0.3802  1.1137
  793MOL0     H 9433   3.767   8.981   0.941  1.9830  1.5998  0.7361
  793MOL0     H 9434   3.781   8.885   1.087  0.0719 -0.6919 -1.8474
  794MOL0     O 9435   8.162   6.275   7.538 -0.1989 -0.2178  0.2662
  794MOL0     C 9436   8.246   6.290   7.454  0.0572 -0.3627  0.3748
  794MOL0     O 9437   8.235   6.364   7.347  0.7114 -0.3327 -0.3278
  794MOL0     C 9438   8.110   6.439   7.348 -1.0022  0.3313 -0.5753
  794MOL0     C 9439   8.098   6.556   7.422  0.2367 -0.5591 -0.0169
  794MOL0     C 9440   7.981   6.632   7.408  0.0169 -0.3569  0.1253
  794MOL0     C 9441   7.873   6.573   7.329  0.0200 -0.3259 -0.1681
  794MOL0     O 9442   7.754   6.642   7.337 -0.4547  0.2293 -0.2477
  794MOL0     C 9443   7.641   6.559   7.335  0.3794 -0.1727 -0.6724
  794MOL0     C 9444   7.515   6.642   7.372  0.3829 -0.4117 -0.6527
  794MOL0     C 9445   7.393   6.586   7.301  0.4094  0.2586 -0.7859
  794MOL0     C 9446   7.257   6.652   7.328  0.0483 -0.4328  0.0386
  794MOL0     C 9447   7.203   6.635   7.476 -0.0518  0.0494  0.4566
  794MOL0     C 9448   7.061   6.683   7.498  0.8760 -0.2945 -0.4110
  794MOL0     C 9449   6.946   6.595   7.441 -1.8145 -1.5532 -1.0012
  794MOL0     C 9450   6.810   6.667   7.459  0.1942 -0.8663  1.2476
  794MOL0     N 9451   6.720   6.641   7.348 -0.1266 -0.8825  1.1487
  794MOL0     C 9452   6.637   6.533   7.321  0.6538  0.2059 -0.0531
  794MOL0     C 9453   6.594   6.534   7.199  0.8727  1.0346 -0.1313
  794MOL0     C 9454   6.513   6.424   7.130  0.0961  0.4318  0.7273
  794MOL0     C 9455   6.607   6.308   7.094 -1.0986 -0.2941 -0.3303
  794MOL0     C 9456   6.696   6.346   6.970  1.2041  0.0682  0.4022
  794MOL0     C 9457   6.769   6.225   6.921  0.7685 -0.0306 -0.3215
  794MOL0     O 9458   6.795   6.233   6.778  0.2019 -1.1660  0.3861
  794MOL0     C 9459   6.697   6.211   6.676 -0.6495 -0.6823  0.2344
  794MOL0     C 9460   6.567   6.155   6.699  0.4587 -0.0593 -0.5009
  794MOL0     C 9461   6.471   6.145   6.599  0.0688  0.2580 -1.0668
  794MOL0     C 9462   6.324   6.096   6.642 -0.8794 -0.3747  0.6471
  794MOL0     C 9463   6.496   6.188   6.463 -0.4486  0.4831 -0.3718
  794MOL0     C 9464   6.402   6.196   6.335  0.4147  0.2357 -0.2343
  794MOL0     O 9465   6.455   6.255   6.226  0.0135 -0.2631 -0.5953
  794MOL0     C 9466   6.381   6.270   6.109  0.3653 -0.7428  0.1390
  794MOL0     C 9467   6.385   6.180   6.011  0.7388 -0.1925  0.4206
  794MOL0     C 9468   6.283   6.180   5.913  0.3955 -0.3360 -0.2433
  794MOL0     C 9469   6.186   6.288   5.912 -0.3287  0.4336  0.3251
  794MOL0     O 9470   6.093   6.307   5.816  0.8320  0.3567  0.8795
  794MOL0     C 9471   6.106   6.228   5.693  1.0269  0.1109 -0.9556
  794MOL0     C 9472   6.000   6.241   5.587  0.7509  1.0206  1.1596
  794MOL0     C 9473   5.863   6.184   5.614  0.4029  0.3571 -0.9520
  794MOL0     C 9474   5.767   6.211   5.496  0.0527 -1.0890  0.0410
  794MOL0     C 9475   5.628   6.174   5.538  0.3469 -0.7383  0.2979
  794MOL0     C 9476   5.566   6.279   5.625 -0.2023 -0.5177  0.1702
  794MOL0     C 9477   5.418   6.254   5.625  0.5809 -0.1506 -0.9414
  794MOL0     C 9478   5.347   6.360   5.714  0.4862  0.4470  0.4309
  794MOL0    Cl 9479   5.175   6.349   5.724 -0.1657 -0.0722  0.1554
  794MOL0     C 9480   6.212   6.399   5.995 -0.4898  0.0762 -0.2137
  794MOL0     C 9481   6.303   6.380   6.099  0.1628  0.2057  0.5113
  794MOL0     O 9482   6.286   6.144   6.343 -0.8273  0.2404 -0.3131
  794MOL0     C 9483   6.624   6.250   6.439 -0.2644  0.3129 -0.9620
  794MOL0     C 9484   6.716   6.252   6.544  0.6687  0.3829  0.1209
  794MOL0     N 9485   6.656   6.641   7.139 -0.0619 -1.3562  0.1898
  794MOL0     N 9486   6.731   6.702   7.221 -0.0587 -0.0099  0.3343
  794MOL0     C 9487   7.896   6.460   7.248 -0.3718 -0.1251 -0.0785
  794MOL0     C 9488   8.018   6.392   7.257 -0.0096 -0.5802 -0.2949
  794MOL0     C 9489   8.380   6.242   7.489  0.2064 -0.5161 -0.4093
  794MOL0     C 9490   8.386   6.122   7.564  0.0572 -0.0073 -0.1677
  794MOL0     C 9491   8.511   6.068   7.602  0.5405 -0.1211  1.1539
  794MOL0     C 9492   8.636   6.128   7.567  0.9049  0.5858 -0.1693
  794MOL0     O 9493   8.743   6.062   7.618 -0.8521 -0.3951  0.2270
  794MOL0     C 9494   8.868   6.131   7.601 -0.2323 -0.2517 -0.6967
  794MOL0     C 9495   8.970   6.074   7.701  0.1099  0.7045  0.0689
  794MOL0     C 9496   9.116   6.125   7.673  0.1622 -1.3394  0.1292
  794MOL0     C 9497   9.223   6.079   7.774  0.3517 -0.4271 -1.1761
  794MOL0     C 9498   9.203   6.140   7.905  0.4751 -0.5475 -0.7830
  794MOL0     C 9499   9.182   6.183   8.025 -0.5694  0.1979  0.5313
  794MOL0     C 9500   8.628   6.246   7.491 -1.2755  0.0897  0.9394
  794MOL0     C 9501   8.504   6.312   7.463  0.3334  0.7142  0.5192
  794MOL0     C 9502   8.500   6.452   7.410 -0.4921 -0.0132  0.5563
  794MOL0     H 9503   8.168   6.596   7.495 -0.4482 -0.3313  0.5421
  794MOL0     H 9504   7.967   6.727   7.458  3.5547  0.1709  0.4011
  794MOL0     H 9505   7.642   6.482   7.412 -1.9462 -0.5920 -0.9638
  794MOL0     H 9506   7.631   6.507   7.239 -0.7294  0.2447 -0.8096
  794MOL0     H 9507   7.494   6.650   7.479  4.6100  0.9385  0.2938
  794MOL0     H 9508   7.528   6.748   7.347  0.2358  0.2615  1.8926
  794MOL0     H 9509   7.401   6.591   7.192 -1.3193 -1.8084 -1.0818
  794MOL0     H 9510   7.399   6.480   7.329  0.5649  0.3524 -0.4506
  794MOL0     H 9511   7.277   6.759   7.315  1.7866 -0.4700  1.9282
  794MOL0     H 9512   7.181   6.633   7.251  1.7950 -0.2780 -1.7916
  794MOL0     H 9513   7.269   6.689   7.545 -1.1027  1.9554  0.0212
  794MOL0     H 9514   7.195   6.528   7.498  0.9070  0.2160  1.7334
  794MOL0     H 9515   7.039   6.676   7.604 -1.1724  1.3786 -0.6485
  794MOL0     H 9516   7.041   6.785   7.463 -5.8355 -1.7042 -2.2156
  794MOL0     H 9517   6.960   6.499   7.493  1.2080 -1.4347 -1.4270
  794MOL0     H 9518   6.967   6.572   7.336 -1.8155  1.1998 -1.6796
  794MOL0     H 9519   6.760   6.622   7.546 -4.2016  0.7459 -0.1597
  794MOL0     H 9520   6.820   6.774   7.480 -1.1692 -0.2908 -0.7958
  794MOL0     H 9521   6.621   6.464   7.404  0.9389 -0.4046 -0.4963
  794MOL0     H 9522   6.453   6.459   7.046 -1.6874 -0.7353  1.4451
  794MOL0     H 9523   6.437   6.397   7.204 -0.6861 -0.6952 -0.4318
  794MOL0     H 9524   6.679   6.300   7.176 -2.1696  3.1822  1.1470
  794MOL0     H 9525   6.560   6.209   7.088  3.2022 -2.8429  2.5199
  794MOL0     H 9526   6.627   6.375   6.889  3.4580  0.0922 -1.6278
  794MOL0     H 9527   6.759   6.432   6.995 -0.5854  1.1853  1.2868
  794MOL0     H 9528   6.865   6.209   6.970  1.8381 -0.0841 -2.3202
  794MOL0     H 9529   6.708   6.135   6.929 -0.2753  0.3066 -3.0870
  794MOL0     H 9530   6.535   6.127   6.799 -0.0969  2.3796  0.0710
  794MOL0     H 9531   6.322   6.082   6.751  0.2429  1.2446  0.9125
  794MOL0     H 9532   6.293   6.004   6.593 -2.8010  1.0151 -0.9270
  794MOL0     H 9533   6.248   6.169   6.613 -0.4843 -0.8466 -1.7582
  794MOL0     H 9534   6.463   6.105   6.017  0.5428 -0.3863  0.5354
  794MOL0     H 9535   6.280   6.102   5.837 -1.1947  0.4206 -1.0227
  794MOL0     H 9536   6.194   6.269   5.644  0.8278  0.1448 -1.2866
  794MOL0     H 9537   6.112   6.122   5.720 -1.0816  0.5190  1.5961
  794MOL0     H 9538   5.981   6.348   5.575  2.0028  1.0666 -0.9329
  794MOL0     H 9539   6.039   6.191   5.498  1.4604  3.0257  0.2887
  794MOL0     H 9540   5.830   6.235   5.704  1.3289 -0.6489 -0.0163
  794MOL0     H 9541   5.884   6.078   5.632  0.0913  0.7062  1.9042
  794MOL0     H 9542   5.801   6.146   5.414  0.0703 -0.2517 -0.6393
  794MOL0     H 9543   5.780   6.317   5.471 -2.5579 -0.1451  2.1980
  794MOL0     H 9544   5.574   6.164   5.443  1.2872  0.3520 -0.3719
  794MOL0     H 9545   5.629   6.075   5.585  2.3860  0.4467  2.9963
  794MOL0     H 9546   5.581   6.379   5.582  2.9145 -2.0848 -2.8218
  794MOL0     H 9547   5.604   6.273   5.728  0.1226 -1.3382  0.0047
  794MOL0     H 9548   5.384   6.156   5.658 -1.3484  0.7794 -0.0125
  794MOL0     H 9549   5.372   6.265   5.527 -0.9169 -1.3990 -0.4243
  794MOL0     H 9550   5.363   6.455   5.662 -2.2696  0.2010 -1.1049
  794MOL0     H 9551   5.389   6.364   5.815  1.8421  1.5023 -0.1494
  794MOL0     H 9552   6.148   6.482   5.967  0.8807  1.2559  0.0452
  794MOL0     H 9553   6.311   6.466   6.166  0.8116  2.7710 -2.6161
  794MOL0     H 9554   6.659   6.294   6.346 -1.9436  0.3769 -1.6011
  794MOL0     H 9555   6.805   6.311   6.526  0.2244  1.0903  0.2120
  794MOL0     H 9556   7.820   6.426   7.178  0.4264 -2.9134  0.3092
  794MOL0     H 9557   8.050   6.311   7.192  0.0412 -0.0435 -0.9541
  794MOL0     H 9558   8.298   6.062   7.585 -0.2011  0.1281 -0.8492
  794MOL0     H 9559   8.526   5.975   7.657 -3.0115 -1.9424 -0.5679
  794MOL0     H 9560   8.914   6.119   7.502  3.3681  0.2088  0.7789
  794MOL0     H 9561   8.859   6.239   7.619 -1.2454 -0.1387 -1.7738
  794MOL0     H 9562   8.971   5.965   7.697  1.5545  0.5725  2.2476
  794MOL0     H 9563   8.941   6.109   7.801 -0.9096 -3.1576  1.2776
  794MOL0     H 9564   9.147   6.100   7.572  3.0885  2.3016 -0.0801
  794MOL0     H 9565   9.118   6.234   7.664  2.3729 -1.4171 -0.8073
  794MOL0     H 9566   9.328   6.097   7.749  0.2254  0.9963 -0.7605
  794MOL0     H 9567   9.238   5.972   7.789  3.8311 -0.1072 -1.6634
  794MOL0     H 9568   9.160   6.217   8.124  0.6780 -1.1035  1.3037
  794MOL0     H 9569   8.717   6.296   7.452 -1.3070 -1.0170 -0.6730
  794MOL0     H 9570   8.593   6.497   7.444 -1.2759  1.3105  0.9911
  794MOL0     H 9571   8.512   6.467   7.302  1.3558 -0.1750  0.7095
  794MOL0     H 9572   8.412   6.507   7.443  0.8713  2.1833  0.7389
  795MOL0     O 9573   9.143   9.752  10.824 -0.2744  0.1054 -0.3111
  795MOL0     C 9574   9.053   9.818  10.769  1.0187 -0.9943  0.5411
  795MOL0     O 9575   9.057   9.872  10.634  0.2346  0.2838  0.4022
  795MOL0     C 9576   9.175   9.873  10.556  0.6283 -0.6304 -0.1432
  795MOL0     C 9577   9.167   9.911  10.423  0.2201 -0.5284 -0.9608
  795MOL0     C 9578   9.272   9.920  10.341  0.4814  0.0273  0.4772
  795MOL0     C 9579   9.400   9.900  10.386 -0.3014 -0.3683  0.0522
  795MOL0     O 9580   9.498   9.904  10.288  0.9299  0.1805 -0.1369
  795MOL0     C 9581   9.633   9.916  10.342 -0.4932  0.2991  0.7089
  795MOL0     C 9582   9.743   9.919  10.231  0.0001 -0.8282  0.2107
  795MOL0     C 9583   9.707  10.016  10.111 -0.0074  0.1158  0.0876
  795MOL0     C 9584   9.664  10.151  10.156  0.5375  0.3504  1.2832
  795MOL0     C 9585   9.632  10.229  10.030 -0.8561  0.3250 -0.1931
  795MOL0     C 9586   9.585  10.369  10.062 -1.4243  0.1925  0.0536
  795MOL0     C 9587   9.553  10.429   9.926  0.3058  1.1812  0.4331
  795MOL0     C 9588   9.534  10.581   9.934 -0.4208  0.5552  0.5398
  795MOL0     N 9589   9.403  10.605  10.007 -0.8635  0.8246  0.2121
  795MOL0     C 9590   9.278  10.608   9.949  0.2513  0.7339 -0.7281
  795MOL0     C 9591   9.202  10.640  10.054  1.3604  0.2243  0.1208
  795MOL0     C 9592   9.047  10.645  10.040  1.0801  0.1504  0.6322
  795MOL0     C 9593   9.004  10.760   9.946  0.6951  0.3418  0.1884
  795MOL0     C 9594   9.057  10.906   9.984 -0.5548  0.4361 -0.2938
  795MOL0     C 9595   9.019  10.951  10.122  0.6880  0.4652 -0.5285
  795MOL0     O 9596   8.880  10.986  10.147 -0.0605  0.4286  0.2728
  795MOL0     C 9597   8.824  11.097  10.087  0.6474  0.5826  0.2979
  795MOL0     C 9598   8.896  11.195  10.012  1.1151  0.4101  0.0379
  795MOL0     C 9599   8.829  11.281   9.937 -0.0059 -1.0231 -0.6765
  795MOL0     C 9600   8.912  11.381   9.860  0.2769  0.1673 -0.7576
  795MOL0     C 9601   8.689  11.278   9.929  0.5036 -0.1744  0.1483
  795MOL0     C 9602   8.613  11.381   9.845  0.9011  0.1616 -0.3021
  795MOL0     O 9603   8.495  11.432   9.896  0.0463 -0.0825 -0.1764
  795MOL0     C 9604   8.477  11.456  10.034 -0.1511 -0.2945 -0.0621
  795MOL0     C 9605   8.362  11.416  10.102 -0.6231  0.4819 -0.2556
  795MOL0     C 9606   8.358  11.448  10.240 -0.5163 -0.1732  0.2168
  795MOL0     C 9607   8.468  11.509  10.312 -0.8539 -0.7432  0.5321
  795MOL0     O 9608   8.452  11.524  10.451  0.5266  1.3670  0.2851
  795MOL0     C 9609   8.550  11.606  10.511  0.5483  0.2927 -0.8098
  795MOL0     C 9610   8.498  11.614  10.659  0.4942 -0.8095  0.1204
  795MOL0     C 9611   8.589  11.722  10.723  0.1765 -0.0709  0.3352
  795MOL0     C 9612   8.525  11.738  10.873  0.1212 -1.2476  0.4736
  795MOL0     C 9613   8.545  11.629  10.977  0.4906  0.1425  0.0492
  795MOL0     C 9614   8.696  11.619  11.017 -0.1362  0.6483  1.2905
  795MOL0     C 9615   8.712  11.517  11.124  1.1438  0.1941 -0.3201
  795MOL0     C 9616   8.851  11.533  11.210  0.5904 -0.5954 -0.6221
  795MOL0    Cl 9617   9.004  11.493  11.105  0.0963  0.5448 -0.4209
  795MOL0     C 9618   8.580  11.566  10.238  0.3179 -0.1278  1.0713
  795MOL0     C 9619   8.581  11.532  10.094 -1.4169 -0.3954  0.5207
  795MOL0     O 9620   8.657  11.412   9.734  1.9398  0.3298  0.2554
  795MOL0     C 9621   8.620  11.169   9.996 -0.3664 -0.7433 -0.3681
  795MOL0     C 9622   8.691  11.077  10.075 -0.0204  0.0668 -0.5295
  795MOL0     N 9623   9.276  10.648  10.167 -0.2210 -0.1685 -0.8284
  795MOL0     N 9624   9.398  10.652  10.136  0.5807 -0.5959  0.8631
  795MOL0     C 9625   9.419   9.870  10.521  0.3776  0.3229  0.4334
  795MOL0     C 9626   9.309   9.850  10.601 -0.3096  0.4276 -0.4122
  795MOL0     C 9627   8.942   9.851  10.854  0.1051 -0.2696  0.2007
  795MOL0     C 9628   8.944   9.979  10.910  0.6756 -0.5531 -0.5150
  795MOL0     C 9629   8.838  10.022  10.987 -1.0001  0.3022  0.3295
  795MOL0     C 9630   8.728   9.945  11.017 -0.0001 -0.2696 -0.3286
  795MOL0     O 9631   8.619   9.972  11.086 -0.1857 -0.2727 -0.7095
  795MOL0     C 9632   8.581  10.108  11.092 -0.5013 -0.0279 -0.1216
  795MOL0     C 9633   8.554  10.184  10.960 -1.2228  0.0038  0.2083
  795MOL0     C 9634   8.473  10.092  10.860 -0.8800  0.3975 -1.2134
  795MOL0     C 9635   8.353  10.034  10.919 -0.4975  1.1665 -0.1861
  795MOL0     C 9636   8.264  10.126  10.984  0.6950  0.1487 -0.7976
  795MOL0     C 9637   8.184  10.198  11.030  0.5021 -0.5759  0.1306
  795MOL0     C 9638   8.728   9.816  10.969  1.3089 -0.6805 -0.3569
  795MOL0     C 9639   8.828   9.774  10.884 -0.0058  0.2029  0.6892
  795MOL0     C 9640   8.812   9.631  10.832 -0.3263  0.8436 -1.2250
  795MOL0     H 9641   9.070   9.932  10.379 -1.0610 -4.5617 -0.4837
  795MOL0     H 9642   9.252   9.933  10.235  0.1159  1.1306  0.6746
  795MOL0     H 9643   9.650   9.820  10.391 -2.1450 -0.8929 -0.9295
  795MOL0     H 9644   9.649  10.001  10.409 -2.0930  0.4228  0.9653
  795MOL0     H 9645   9.844   9.942  10.265  1.0684 -0.9444 -2.6495
  795MOL0     H 9646   9.755   9.817  10.192 -2.2253 -0.7502 -0.8386
  795MOL0     H 9647   9.789  10.013  10.039 -1.8994 -2.0457 -2.1732
  795MOL0     H 9648   9.622   9.966  10.065 -1.9191  0.2997  3.1548
  795MOL0     H 9649   9.574  10.150  10.218 -1.2097 -0.5641 -1.1093
  795MOL0     H 9650   9.749  10.194  10.209 -0.5215  4.2076  0.1912
  795MOL0     H 9651   9.547  10.177   9.984 -4.2718  2.6761  2.8743
  795MOL0     H 9652   9.720  10.235   9.965  0.0059 -1.4784  0.7597
  795MOL0     H 9653   9.496  10.364  10.125 -2.4558  0.8216 -1.2829
  795MOL0     H 9654   9.662  10.422  10.119 -1.2952  2.5198 -2.0774
  795MOL0     H 9655   9.465  10.378   9.883 -0.3213 -0.9731  3.8688
  795MOL0     H 9656   9.647  10.419   9.871  2.6982  2.1679  4.0659
  795MOL0     H 9657   9.605  10.636   9.997 -1.1792 -1.1304  3.0133
  795MOL0     H 9658   9.541  10.629   9.836 -0.4685  1.1008  0.7964
  795MOL0     H 9659   9.240  10.570   9.855  1.3595 -1.9965 -0.1770
  795MOL0     H 9660   8.992  10.662  10.133 -2.1644  5.4666 -1.7490
  795MOL0     H 9661   8.990  10.568   9.986 -2.8950  2.1750  1.5878
  795MOL0     H 9662   9.035  10.736   9.844  1.3816 -0.2603  0.5328
  795MOL0     H 9663   8.896  10.770   9.935  1.0217  2.1641 -2.1903
  795MOL0     H 9664   9.167  10.912   9.982 -0.4228 -0.4749  1.9946
  795MOL0     H 9665   9.007  10.970   9.911  1.8898  2.6624 -0.1660
  795MOL0     H 9666   9.050  10.885  10.203  0.3404  2.1726  1.0782
  795MOL0     H 9667   9.061  11.052  10.124  0.4487  0.8128 -4.5244
  795MOL0     H 9668   9.005  11.199  10.011  1.2291 -1.2982 -1.8082
  795MOL0     H 9669   8.905  11.357   9.753  0.8112  2.6123 -1.4018
  795MOL0     H 9670   9.019  11.368   9.882 -0.2697 -1.5568  1.2011
  795MOL0     H 9671   8.877  11.478   9.896 -3.9106 -0.1459 -3.3906
  795MOL0     H 9672   8.279  11.363  10.058 -1.4245  0.1943  1.5131
  795MOL0     H 9673   8.272  11.425  10.302 -2.2794  3.4413 -0.6310
  795MOL0     H 9674   8.647  11.556  10.513  1.2413  1.5625 -1.4711
  795MOL0     H 9675   8.556  11.704  10.463 -2.2867  1.0919  0.3002
  795MOL0     H 9676   8.396  11.650  10.642  0.9577 -0.6119 -2.6163
  795MOL0     H 9677   8.510  11.520  10.714 -1.4550 -0.6341  0.9376
  795MOL0     H 9678   8.591  11.812  10.661 -1.6665 -1.4524 -1.8783
  795MOL0     H 9679   8.692  11.686  10.734  0.1649 -0.1286  0.2598
  795MOL0     H 9680   8.419  11.760  10.859  0.7377  2.5466  0.5715
  795MOL0     H 9681   8.569  11.828  10.917  1.0515 -2.6203  2.5551
  795MOL0     H 9682   8.483  11.659  11.062  0.9760  0.3241  0.3383
  795MOL0     H 9683   8.513  11.533  10.934  2.5618 -0.8752  0.6881
  795MOL0     H 9684   8.725  11.718  11.054 -1.7545  1.5962  0.1655
  795MOL0     H 9685   8.747  11.582  10.927  2.2447  0.1752  2.7417
  795MOL0     H 9686   8.713  11.420  11.072  0.0599  1.5585 -3.0825
  795MOL0     H 9687   8.624  11.509  11.188  0.6786  0.1996 -0.9513
  795MOL0     H 9688   8.851  11.458  11.288 -1.0096  2.2844  2.4066
  795MOL0     H 9689   8.852  11.634  11.254  2.1466 -1.1365  0.6627
  795MOL0     H 9690   8.664  11.620  10.281  0.6472  0.3733 -0.1530
  795MOL0     H 9691   8.671  11.566  10.045  0.6351  3.4809  5.9264
  795MOL0     H 9692   8.513  11.166   9.974 -1.3250  2.3693  2.9484
  795MOL0     H 9693   8.637  10.996  10.123  3.8202 -3.5147 -1.6361
  795MOL0     H 9694   9.515   9.854  10.568 -0.2241  1.0842  2.0086
  795MOL0     H 9695   9.337   9.820  10.701  1.1830 -0.5944 -1.1039
  795MOL0     H 9696   9.027  10.048  10.896 -1.3428  1.8673 -1.4523
  795MOL0     H 9697   8.867  10.119  11.027  2.1295  0.1631 -1.2927
  795MOL0     H 9698   8.494  10.120  11.157 -2.1414 -1.7048 -1.8835
  795MOL0     H 9699   8.661  10.169  11.135 -0.4839  0.5836 -1.0003
  795MOL0     H 9700   8.648  10.224  10.919 -1.1295  1.3138  1.6066
  795MOL0     H 9701   8.500  10.276  10.984  2.8098  2.2626  1.5735
  795MOL0     H 9702   8.441  10.159  10.780 -1.6445  2.0229  0.3915
  795MOL0     H 9703   8.544  10.018  10.820  0.7078  0.5657  1.1421
  795MOL0     H 9704   8.387   9.964  10.996  1.1920  0.9906 -1.0587
  795MOL0     H 9705   8.307   9.977  10.838  2.3944  0.0246 -1.1686
  795MOL0     H 9706   8.121  10.259  11.091  0.0590 -2.3663  1.5839
  795MOL0     H 9707   8.646   9.753  11.000  2.0789 -0.1991  3.1352
  795MOL0     H 9708   8.733   9.576  10.884  2.1433 -1.2600  0.5260
  795MOL0     H 9709   8.797   9.648  10.725  0.5600  1.1392 -1.3127
  795MOL0     H 9710   8.900   9.568  10.841 -0.3872  0.9863  0.8651
  796MOL0     O 9711   2.680   8.212   7.520 -0.3750  0.2486 -0.8318
  796MOL0     C 9712   2.603   8.128   7.482  0.9395 -1.0427  0.3348
  796MOL0     O 9713   2.470   8.132   7.501  0.5681 -0.3584  0.0337
  796MOL0     C 9714   2.416   8.237   7.586 -0.1048 -0.5471 -0.1649
  796MOL0     C 9715   2.352   8.354   7.535 -0.9925 -0.0141  0.3001
  796MOL0     C 9716   2.307   8.459   7.613  0.9826  0.1564 -0.5713
  796MOL0     C 9717   2.303   8.437   7.749  0.2864  0.2307 -1.1041
  796MOL0     O 9718   2.240   8.527   7.826 -0.3715  0.9984 -0.5116
  796MOL0     C 9719   2.318   8.591   7.932 -0.1825 -0.3341 -0.5995
  796MOL0     C 9720   2.215   8.694   8.000  0.3408 -0.6691  0.1339
  796MOL0     C 9721   2.264   8.745   8.135  0.0235  1.3080 -0.6418
  796MOL0     C 9722   2.185   8.869   8.167 -0.4210  0.5628 -0.4685
  796MOL0     C 9723   2.226   8.924   8.293 -0.9226  0.8959  0.4020
  796MOL0     C 9724   2.160   9.057   8.326  0.0838  0.2595 -0.5328
  796MOL0     C 9725   2.230   9.129   8.436  1.6319  0.6968 -0.0236
  796MOL0     C 9726   2.149   9.241   8.505  0.0003  1.0798  0.1536
  796MOL0     N 9727   2.244   9.312   8.601  0.2025 -0.6209  0.9344
  796MOL0     C 9728   2.337   9.400   8.558 -0.2796 -0.9451  0.0673
  796MOL0     C 9729   2.396   9.439   8.674 -0.1942 -0.3038  0.3529
  796MOL0     C 9730   2.483   9.556   8.702 -0.2859 -0.1437 -0.1398
  796MOL0     C 9731   2.407   9.682   8.727  0.7528 -0.3296 -0.1534
  796MOL0     C 9732   2.501   9.800   8.737 -0.0996  0.9101  0.0216
  796MOL0     C 9733   2.439   9.929   8.783 -0.6807  0.9340  0.4894
  796MOL0     O 9734   2.385   9.996   8.676 -0.3099 -0.1759 -1.0252
  796MOL0     C 9735   2.300  10.103   8.700  0.1733 -0.3282 -0.3548
  796MOL0     C 9736   2.256  10.152   8.821  0.0832 -0.6468 -0.9039
  796MOL0     C 9737   2.150  10.243   8.845 -0.1581  0.0124  0.1864
  796MOL0     C 9738   2.115  10.276   8.987 -0.4543 -0.0602  0.0486
  796MOL0     C 9739   2.092  10.303   8.729 -1.5663  0.0184 -0.1288
  796MOL0     C 9740   1.982  10.396   8.735  0.0494 -0.6463  0.8332
  796MOL0     O 9741   1.873  10.378   8.827 -1.5147  0.5202 -0.0286
  796MOL0     C 9742   1.777  10.470   8.847 -0.4421  0.3739  1.0381
  796MOL0     C 9743   1.786  10.608   8.839  0.0359 -0.7463 -0.4268
  796MOL0     C 9744   1.667  10.686   8.849  0.0236 -0.0276 -0.0340
  796MOL0     C 9745   1.544  10.623   8.889 -0.6385  0.2252  0.2788
  796MOL0     O 9746   1.446  10.700   8.912  0.2264 -0.2107 -0.6375
  796MOL0     C 9747   1.320  10.657   8.880  0.6558 -0.0803  0.9517
  796MOL0     C 9748   1.237  10.788   8.877  0.3349  0.9872 -0.0248
  796MOL0     C 9749   1.276  10.889   8.769  0.3580 -1.5684  0.1551
  796MOL0     C 9750   1.199  11.028   8.799 -0.5848  0.9999  0.7296
  796MOL0     C 9751   1.255  11.157   8.734 -0.9986  0.1848 -0.1977
  796MOL0     C 9752   1.266  11.156   8.579 -0.2074  0.6648 -0.4960
  796MOL0     C 9753   1.345  11.271   8.516  0.1191  0.6323  0.3126
  796MOL0     C 9754   1.259  11.400   8.524  0.3362  0.2442  0.5669
  796MOL0    Cl 9755   1.312  11.529   8.417  0.4126 -0.0328 -0.1191
  796MOL0     C 9756   1.541  10.479   8.910 -0.9971 -0.8914  0.6641
  796MOL0     C 9757   1.657  10.413   8.883  0.4345  0.5962  0.2494
  796MOL0     O 9758   1.985  10.482   8.642 -0.0529 -0.1270 -0.9569
  796MOL0     C 9759   2.150  10.266   8.607  0.1540  0.7421  0.4970
  796MOL0     C 9760   2.247  10.165   8.592  0.9706 -0.3203  0.4167
  796MOL0     N 9761   2.344   9.373   8.778  0.0467  0.1631 -0.2413
  796MOL0     N 9762   2.248   9.300   8.737  0.0504 -0.0508  1.0418
  796MOL0     C 9763   2.359   8.321   7.806  0.1927 -0.4114  0.6627
  796MOL0     C 9764   2.422   8.223   7.726 -0.7341 -0.5995  0.6709
  796MOL0     C 9765   2.660   7.999   7.423  0.0791  0.3882  0.8884
  796MOL0     C 9766   2.761   8.016   7.323 -0.1960 -0.7969 -0.4430
  796MOL0     C 9767   2.830   7.917   7.261  0.0928  0.0035  0.2057
  796MOL0     C 9768   2.789   7.793   7.294  0.0581  1.3753  1.4961
  796MOL0     O 9769   2.850   7.673   7.241  0.3621  0.0041 -0.0510
  796MOL0     C 9770   2.985   7.692   7.187 -0.7624 -0.4621 -0.3282
  796MOL0     C 9771   3.050   7.558   7.151  0.1674  0.2178  0.4492
  796MOL0     C 9772   3.139   7.512   7.259 -1.0998 -0.4587  0.3889
  796MOL0     C 9773   3.230   7.389   7.233  0.3706  0.1677 -0.4933
  796MOL0     C 9774   3.144   7.274   7.196 -0.3868  0.3502  0.0458
  796MOL0     C 9775   3.071   7.187   7.163 -0.0444  0.8372  0.3678
  796MOL0     C 9776   2.685   7.759   7.377  0.6139  0.3248 -0.2336
  796MOL0     C 9777   2.620   7.864   7.447  0.2932 -0.2341 -0.4493
  796MOL0     C 9778   2.516   7.812   7.546  0.4070 -0.8480 -0.2938
  796MOL0     H 9779   2.340   8.354   7.428 -0.8009  2.1705  0.2385
  796MOL0     H 9780   2.278   8.554   7.567  1.1734  0.3142 -0.3689
  796MOL0     H 9781   2.394   8.653   7.883  1.0928 -0.0745  1.5573
  796MOL0     H 9782   2.374   8.536   8.008  2.2088  0.6629 -1.5153
  796MOL0     H 9783   2.186   8.774   7.931 -1.5143 -0.7326  0.7862
  796MOL0     H 9784   2.123   8.638   8.019  0.9290 -1.5049  0.5537
  796MOL0     H 9785   2.245   8.662   8.204 -3.7177  1.9738 -0.6413
  796MOL0     H 9786   2.368   8.777   8.129  0.4349  0.0742 -0.4704
  796MOL0     H 9787   2.213   8.938   8.086  0.8294  1.9101  1.0416
  796MOL0     H 9788   2.080   8.842   8.167  0.3765 -3.0916  1.4056
  796MOL0     H 9789   2.333   8.941   8.278 -0.5103 -0.9159  0.9644
  796MOL0     H 9790   2.205   8.859   8.379 -0.8049 -0.8537 -0.8232
  796MOL0     H 9791   2.160   9.127   8.242  3.2210  1.2321  0.1513
  796MOL0     H 9792   2.054   9.036   8.343  0.0067 -2.2334 -3.2007
  796MOL0     H 9793   2.326   9.163   8.397  2.3417 -1.2267 -0.0665
  796MOL0     H 9794   2.252   9.053   8.511 -2.0077 -0.8746 -0.3533
  796MOL0     H 9795   2.114   9.319   8.436  1.5377  1.7158  0.0571
  796MOL0     H 9796   2.060   9.196   8.551 -0.4112  1.2192 -0.5040
  796MOL0     H 9797   2.351   9.455   8.466 -0.7332 -1.2041 -0.1623
  796MOL0     H 9798   2.555   9.565   8.620  0.1545 -1.5880  0.0566
  796MOL0     H 9799   2.539   9.537   8.794 -2.2136 -2.4463  0.6952
  796MOL0     H 9800   2.347   9.705   8.639  1.8255  3.5245 -0.0630
  796MOL0     H 9801   2.344   9.681   8.816  1.9842  3.6134  0.9649
  796MOL0     H 9802   2.584   9.779   8.805 -1.0607  2.8193  1.9065
  796MOL0     H 9803   2.533   9.810   8.633 -2.1453  0.9604 -0.6418
  796MOL0     H 9804   2.358   9.910   8.854 -0.9311  0.9867  0.2191
  796MOL0     H 9805   2.526   9.976   8.830  0.3091 -2.9675  3.0371
  796MOL0     H 9806   2.307  10.121   8.911 -2.2665  0.1050  0.7736
  796MOL0     H 9807   2.018  10.237   9.018 -0.7268  1.9820  2.0549
  796MOL0     H 9808   2.122  10.383   9.008  1.7709 -0.2632  0.5687
  796MOL0     H 9809   2.189  10.242   9.059  0.5404  2.5640  0.3803
  796MOL0     H 9810   1.887  10.641   8.817 -0.1736  1.4888  1.6925
  796MOL0     H 9811   1.669  10.793   8.836  0.3270  0.0646  0.7321
  796MOL0     H 9812   1.327  10.619   8.778 -1.3887  1.9223 -0.0131
  796MOL0     H 9813   1.273  10.592   8.954  3.0430 -3.9068 -0.5848
  796MOL0     H 9814   1.132  10.765   8.859 -0.2332  2.0977  1.6623
  796MOL0     H 9815   1.248  10.831   8.977  0.2607 -0.3952  0.6037
  796MOL0     H 9816   1.252  10.853   8.668 -1.5419 -0.9859  0.3577
  796MOL0     H 9817   1.384  10.907   8.776 -0.0859  1.5041  0.3391
  796MOL0     H 9818   1.214  11.034   8.908  2.6247 -2.2491  0.6440
  796MOL0     H 9819   1.099  11.036   8.756 -0.5427  0.4255  0.5257
  796MOL0     H 9820   1.188  11.239   8.763 -2.0227 -1.8668  4.1576
  796MOL0     H 9821   1.350  11.183   8.782 -0.2503 -3.0395  0.3144
  796MOL0     H 9822   1.168  11.152   8.531  0.6810  1.5027 -2.4901
  796MOL0     H 9823   1.321  11.066   8.549  0.6988  1.3388 -0.8996
  796MOL0     H 9824   1.365  11.237   8.414  1.7983 -1.9002  1.3473
  796MOL0     H 9825   1.438  11.287   8.571  0.2547 -5.2338  2.6201
  796MOL0     H 9826   1.279  11.438   8.624  2.9352  0.4383  0.0625
  796MOL0     H 9827   1.154  11.380   8.501  1.4125 -2.1075 -3.2388
  796MOL0     H 9828   1.446  10.445   8.950 -0.1148 -3.9480  0.4567
  796MOL0     H 9829   1.650  10.306   8.898  2.5879  0.4675  0.6881
  796MOL0     H 9830   2.101  10.304   8.517  0.4120 -3.4483 -1.7001
  796MOL0     H 9831   2.283  10.127   8.496  2.6735 -0.0945  0.9314
  796MOL0     H 9832   2.377   8.320   7.913  1.8709 -0.0889  0.4174
  796MOL0     H 9833   2.465   8.137   7.778 -2.5447 -0.7146  2.0891
  796MOL0     H 9834   2.804   8.108   7.286  1.6791 -2.0566 -1.6075
  796MOL0     H 9835   2.914   7.938   7.196 -0.1157  1.0397  0.2585
  796MOL0     H 9836   2.972   7.751   7.096  2.6398  3.1855  1.2884
  796MOL0     H 9837   3.052   7.745   7.255 -0.3744  1.9310 -2.4286
  796MOL0     H 9838   3.110   7.563   7.060 -0.2237 -1.1769  0.0914
  796MOL0     H 9839   2.980   7.475   7.138  1.1285 -0.4354 -0.7554
  796MOL0     H 9840   3.206   7.597   7.275 -1.7992 -0.1314  1.7027
  796MOL0     H 9841   3.079   7.491   7.348 -1.6620 -0.4377  0.0209
  796MOL0     H 9842   3.290   7.372   7.323  0.9177  1.3146 -0.6208
  796MOL0     H 9843   3.297   7.407   7.148 -0.1669  0.7415 -0.8030
  796MOL0     H 9844   2.998   7.115   7.132 -1.8736  2.2893  1.1116
  796MOL0     H 9845   2.668   7.654   7.394 -1.3825  0.5379 -0.6979
  796MOL0     H 9846   2.426   7.875   7.553  1.3825  0.3583  2.6839
  796MOL0     H 9847   2.473   7.717   7.512 -2.0244  0.4432 -1.0954
  796MOL0     H 9848   2.551   7.813   7.649 -0.1584 -0.4609 -0.0973
  797MOL0     O 9849   6.747   3.252   2.394  0.5302 -0.3045  0.5905
  797MOL0     C 9850   6.743   3.175   2.490 -0.3063  0.6439 -0.3956
  797MOL0     O 9851   6.854   3.145   2.576 -0.0564  0.4585  0.4002
  797MOL0     C 9852   6.977   3.170   2.519  0.9232 -0.0484 -0.3092
  797MOL0     C 9853   7.021   3.297   2.494  0.3795  0.1083  1.2740
  797MOL0     C 9854   7.139   3.318   2.421 -0.3227  0.2410 -0.3570
  797MOL0     C 9855   7.224   3.209   2.392 -0.1755 -0.9776 -0.3571
  797MOL0     O 9856   7.352   3.228   2.356 -0.6842 -0.4570  0.7829
  797MOL0     C 9857   7.414   3.364   2.341  0.4708  1.0708  0.1702
  797MOL0     C 9858   7.567   3.336   2.316  0.1119 -0.8038 -0.9864
  797MOL0     C 9859   7.660   3.448   2.371  0.2298  0.0139 -0.1128
  797MOL0     C 9860   7.674   3.435   2.529  0.0221  0.4071 -0.9938
  797MOL0     C 9861   7.786   3.329   2.568 -0.2952 -0.5508 -0.7019
  797MOL0     C 9862   7.797   3.297   2.723 -0.2217 -0.1773 -0.2575
  797MOL0     C 9863   7.916   3.208   2.736  0.1180 -0.0795 -0.0520
  797MOL0     C 9864   7.939   3.173   2.885 -1.2703  0.3473 -0.0257
  797MOL0     N 9865   7.841   3.077   2.939 -0.6307  0.1419 -0.2042
  797MOL0     C 9866   7.725   3.121   3.012  0.1135 -0.8232 -0.5119
  797MOL0     C 9867   7.667   2.998   3.046 -0.5769 -0.1025 -0.4318
  797MOL0     C 9868   7.537   3.004   3.113  1.0781  0.4547 -0.1924
  797MOL0     C 9869   7.519   2.879   3.210 -0.0741 -1.4706 -0.0699
  797MOL0     C 9870   7.381   2.898   3.292  0.2595 -0.5913  0.5230
  797MOL0     C 9871   7.390   2.847   3.440  0.5765 -0.4179 -0.6966
  797MOL0     O 9872   7.411   2.703   3.450 -0.2933 -0.5132 -0.3313
  797MOL0     C 9873   7.478   2.653   3.548 -0.8588  0.4565  0.7968
  797MOL0     C 9874   7.495   2.708   3.674  0.1230 -1.1602  0.4502
  797MOL0     C 9875   7.567   2.645   3.779 -0.3280 -0.1656  0.4471
  797MOL0     C 9876   7.580   2.723   3.918  0.4163 -0.0696  0.7730
  797MOL0     C 9877   7.616   2.512   3.760  0.5401 -0.6297  0.2388
  797MOL0     C 9878   7.672   2.427   3.861 -0.0537  0.3133 -0.1951
  797MOL0     O 9879   7.718   2.311   3.815  0.2628  0.4757  0.0366
  797MOL0     C 9880   7.753   2.217   3.906  0.8814 -0.0512 -0.2272
  797MOL0     C 9881   7.664   2.138   3.990  0.0407  0.4349  0.1415
  797MOL0     C 9882   7.703   2.025   4.065  0.2365 -0.8456 -0.5288
  797MOL0     C 9883   7.840   1.991   4.062  0.5031  0.6154 -0.3868
  797MOL0     O 9884   7.891   1.886   4.134  0.3087 -0.4101  0.0721
  797MOL0     C 9885   7.827   1.865   4.259 -0.7850 -0.0125  0.5232
  797MOL0     C 9886   7.888   1.748   4.332 -0.3524 -0.0991  0.7636
  797MOL0     C 9887   7.845   1.620   4.270  1.0142 -0.2703  0.4459
  797MOL0     C 9888   7.902   1.486   4.337 -0.4148 -0.3888 -0.5646
  797MOL0     C 9889   7.945   1.371   4.233 -0.0254  0.0942  0.8041
  797MOL0     C 9890   7.823   1.289   4.188  0.1986 -0.6719  0.3319
  797MOL0     C 9891   7.757   1.212   4.306 -0.7398  0.8242 -0.2317
  797MOL0     C 9892   7.639   1.136   4.230  0.1437 -1.4312  0.4811
  797MOL0    Cl 9893   7.512   1.247   4.145 -0.5202  0.2144 -0.1312
  797MOL0     C 9894   7.931   2.069   3.987 -0.2100  0.6255 -0.4465
  797MOL0     C 9895   7.884   2.169   3.908 -0.9918  0.2325  0.9134
  797MOL0     O 9896   7.674   2.466   3.975  0.0850  0.1444 -0.5610
  797MOL0     C 9897   7.586   2.454   3.630 -1.0679 -0.2220  0.1622
  797MOL0     C 9898   7.525   2.522   3.526  0.2138 -0.0948  0.2352
  797MOL0     N 9899   7.732   2.894   2.983 -0.1873  1.0669 -1.2309
  797MOL0     N 9900   7.840   2.941   2.932 -0.4592  0.2629 -0.5937
  797MOL0     C 9901   7.178   3.082   2.406 -0.1737 -0.8979 -0.2505
  797MOL0     C 9902   7.050   3.062   2.458 -0.3813 -0.5846  0.1021
  797MOL0     C 9903   6.612   3.092   2.502 -0.4012  0.1983  0.5770
  797MOL0     C 9904   6.603   2.993   2.601  0.3324 -0.3426  0.7942
  797MOL0     C 9905   6.498   2.905   2.614 -0.3286 -0.1764 -0.2653
  797MOL0     C 9906   6.393   2.904   2.523  0.3433 -0.4205 -0.0941
  797MOL0     O 9907   6.301   2.805   2.532 -0.6390  0.6155  0.1562
  797MOL0     C 9908   6.187   2.816   2.442  0.3873 -0.0073 -0.3905
  797MOL0     C 9909   6.123   2.681   2.431  0.2064 -0.6520 -0.4725
  797MOL0     C 9910   5.985   2.698   2.360 -0.9916  0.4377  0.5824
  797MOL0     C 9911   5.916   2.567   2.316 -0.1808  0.0818 -0.5186
  797MOL0     C 9912   5.885   2.478   2.430 -0.0775 -0.1815 -1.4389
  797MOL0     C 9913   5.870   2.417   2.538  0.0720  0.5819  0.1631
  797MOL0     C 9914   6.378   3.029   2.440 -0.5324  0.3697 -0.5792
  797MOL0     C 9915   6.488   3.119   2.423 -0.5281 -0.3307 -0.7271
  797MOL0     C 9916   6.456   3.233   2.329 -0.4408 -0.3492 -0.4603
  797MOL0     H 9917   6.958   3.384   2.510  1.7525  0.8359  2.9349
  797MOL0     H 9918   7.151   3.425   2.405 -0.2700  0.2005 -0.5891
  797MOL0     H 9919   7.394   3.419   2.433  0.5032 -0.6512  1.2436
  797MOL0     H 9920   7.370   3.428   2.264 -2.2502  2.4977  2.6916
  797MOL0     H 9921   7.591   3.235   2.350 -2.7221 -1.6784 -1.3153
  797MOL0     H 9922   7.586   3.345   2.209 -1.5941  0.8312 -1.2077
  797MOL0     H 9923   7.759   3.441   2.326 -1.2149  1.3583 -3.8789
  797MOL0     H 9924   7.631   3.545   2.330  2.4869  0.2960 -1.1918
  797MOL0     H 9925   7.706   3.532   2.567 -0.1049  0.0042  0.1623
  797MOL0     H 9926   7.585   3.402   2.583  0.9865 -1.2116 -0.3228
  797MOL0     H 9927   7.881   3.373   2.535 -1.7342  2.0224 -1.7116
  797MOL0     H 9928   7.769   3.240   2.507  0.1443  0.5334 -2.4696
  797MOL0     H 9929   7.808   3.389   2.781  0.4620  2.3867 -4.0901
  797MOL0     H 9930   7.710   3.241   2.756  0.9366 -1.0482  1.4947
  797MOL0     H 9931   8.010   3.252   2.702 -0.0621 -1.4920 -2.6958
  797MOL0     H 9932   7.904   3.122   2.670  0.7229  1.2189 -1.9540
  797MOL0     H 9933   8.034   3.118   2.891 -1.0820  0.7324  0.5386
  797MOL0     H 9934   7.956   3.260   2.949 -0.2600  0.8648 -0.9657
  797MOL0     H 9935   7.691   3.221   3.037  0.0359 -0.4466 -2.0316
  797MOL0     H 9936   7.453   3.010   3.042 -1.2967  0.5633  2.4555
  797MOL0     H 9937   7.533   3.091   3.178 -0.6471  0.9011 -0.8417
  797MOL0     H 9938   7.511   2.786   3.153 -1.6390  0.2104 -2.7506
  797MOL0     H 9939   7.605   2.867   3.277  1.1708 -0.9897 -1.5243
  797MOL0     H 9940   7.360   3.005   3.298  2.6016 -0.0169 -0.2763
  797MOL0     H 9941   7.302   2.851   3.232  0.4712 -0.2519 -0.0337
  797MOL0     H 9942   7.462   2.907   3.496 -2.3314  1.9378  0.7874
  797MOL0     H 9943   7.293   2.865   3.486  0.9281  1.0816 -0.4973
  797MOL0     H 9944   7.460   2.806   3.705 -1.9805 -2.0479  0.9831
  797MOL0     H 9945   7.682   2.732   3.957  1.0955 -2.8037 -0.1886
  797MOL0     H 9946   7.522   2.673   3.996  1.7245 -2.3393  0.3645
  797MOL0     H 9947   7.547   2.827   3.911 -0.7875 -0.3517  1.9578
  797MOL0     H 9948   7.557   2.145   3.975 -0.2095 -1.0390  0.9643
  797MOL0     H 9949   7.618   1.993   4.124 -0.1310  3.9770  2.0422
  797MOL0     H 9950   7.841   1.959   4.313 -0.9170  0.4301 -0.1887
  797MOL0     H 9951   7.720   1.845   4.264 -0.9171  0.7755  0.8634
  797MOL0     H 9952   7.998   1.744   4.339 -0.4383  0.2077  3.4757
  797MOL0     H 9953   7.861   1.751   4.438 -0.1073  1.0938  0.8104
  797MOL0     H 9954   7.881   1.621   4.166 -0.7136  0.3227 -0.1870
  797MOL0     H 9955   7.735   1.615   4.265  1.0532 -5.1693 -0.3358
  797MOL0     H 9956   7.837   1.462   4.422  0.7592  1.5864  1.0013
  797MOL0     H 9957   8.002   1.508   4.377  0.3890 -1.1556 -2.0549
  797MOL0     H 9958   7.984   1.415   4.140  0.4164 -4.7763 -1.6006
  797MOL0     H 9959   8.024   1.312   4.280  0.2964 -1.4764 -1.5447
  797MOL0     H 9960   7.863   1.212   4.122 -0.7135 -0.6058 -0.3245
  797MOL0     H 9961   7.744   1.346   4.138  1.2084 -0.7075 -1.3629
  797MOL0     H 9962   7.708   1.281   4.375  0.6730 -0.6701  2.4125
  797MOL0     H 9963   7.815   1.140   4.364  0.1224 -0.2342 -2.2962
  797MOL0     H 9964   7.589   1.074   4.305  0.6819 -2.1839  0.2379
  797MOL0     H 9965   7.673   1.069   4.150 -0.1180  0.0499 -0.9231
  797MOL0     H 9966   8.034   2.035   3.992 -0.6404 -1.2787 -2.4963
  797MOL0     H 9967   7.954   2.214   3.838  1.2519  0.1334  2.9284
  797MOL0     H 9968   7.622   2.355   3.604  3.3587  1.1537  0.1851
  797MOL0     H 9969   7.495   2.489   3.427 -0.8829 -1.2603  0.9209
  797MOL0     H 9970   7.229   2.993   2.370 -0.2383 -0.4944 -1.3930
  797MOL0     H 9971   7.017   2.958   2.460  1.6563 -1.2580  1.6143
  797MOL0     H 9972   6.682   2.980   2.674 -1.2266 -0.7221  2.4739
  797MOL0     H 9973   6.501   2.822   2.684  1.5091 -0.2485 -0.3967
  797MOL0     H 9974   6.116   2.890   2.479  0.8458  1.4508 -2.2412
  797MOL0     H 9975   6.212   2.841   2.338 -0.0168  1.7321 -0.0886
  797MOL0     H 9976   6.099   2.645   2.532  0.4641 -2.7646 -1.1135
  797MOL0     H 9977   6.189   2.607   2.386  0.4457 -0.0752 -1.0837
  797MOL0     H 9978   5.925   2.767   2.419 -2.6836 -1.3678  1.0880
  797MOL0     H 9979   6.016   2.736   2.262 -1.3950 -0.9159 -0.1045
  797MOL0     H 9980   5.982   2.518   2.243  3.3002  4.6701 -0.8733
  797MOL0     H 9981   5.822   2.592   2.267 -1.0439 -0.9734  0.5342
  797MOL0     H 9982   5.835   2.365   2.625 -1.1864 -0.6109 -1.0109
  797MOL0     H 9983   6.286   3.051   2.387 -0.8465  0.7613  0.1070
  797MOL0     H 9984   6.544   3.259   2.270 -1.3176 -0.0471 -1.6930
  797MOL0     H 9985   6.396   3.196   2.245  0.5617 -3.1171 -0.0610
  797MOL0     H 9986   6.415   3.324   2.373  0.8143  0.4722 -0.9329
  798MOL0     O 9987   8.694   0.215   7.581 -0.0036 -0.0170 -0.2624
  798MOL0     C 9988   8.803   0.249   7.604 -0.0895 -0.2748 -0.1719
  798MOL0     O 9989   8.903   0.276   7.512 -0.2340 -0.7058  0.8919
  798MOL0     C 9990   8.912   0.223   7.376 -0.9858  0.3209 -0.4607
  798MOL0     C 9991   8.858   0.102   7.329 -0.6055 -0.6158 -0.4972
  798MOL0     C 9992   8.902   0.058   7.201  0.4956  0.3269  0.3236
  798MOL0     C 9993   8.990   0.135   7.116 -0.0785 -0.9321 -0.8363
  798MOL0     O 9994   9.020   0.080   6.992  0.5123 -0.0921  0.1379
  798MOL0     C 9995   9.118   0.156   6.914 -0.8740  0.6029 -0.7058
  798MOL0     C 9996   9.164   0.058   6.813 -0.1188 -0.4586  0.0434
  798MOL0     C 9997   9.286   0.104   6.744 -0.5770  0.2568 -0.7444
  798MOL0     C 9998   9.334   0.001   6.640 -0.5202 -0.2829 -0.7185
  798MOL0     C 9999   9.454   0.058   6.570 -0.5543 -0.6481  0.5164
  798MOL0     C10000   9.548  -0.057   6.517  0.1177 -0.6605 -1.3812
  798MOL0     C10001   9.679  -0.029   6.448  0.4833  0.3771 -0.5925
  798MOL0     C10002   9.686   0.094   6.374  0.3209 -0.8439 -0.2953
  798MOL0     N10003   9.823   0.128   6.329  0.0184 -0.2014  0.1469
  798MOL0     C10004   9.909   0.216   6.382  0.3581 -0.3721  0.4219
  798MOL0     C10005  10.005   0.227   6.280  0.7196  0.2798 -0.2936
  798MOL0     C10006  10.135   0.303   6.291  0.9027 -0.6446  0.3943
  798MOL0     C10007  10.255   0.216   6.279  0.2634  0.0072  1.2187
  798MOL0     C10008  10.369   0.291   6.343  0.8679 -0.0568  0.3337
  798MOL0     C10009  10.491   0.198   6.356 -0.2757  0.2226  0.5033
  798MOL0     O10010  10.560   0.198   6.227 -0.0512  0.0753  0.6388
  798MOL0     C10011  10.658   0.104   6.211 -0.4635  0.3809 -0.1195
  798MOL0     C10012  10.688   0.073   6.077 -0.4501 -0.0808 -0.2025
  798MOL0     C10013  10.797  -0.003   6.042  0.1410  0.2803  0.1070
  798MOL0     C10014  10.821  -0.017   5.896  0.3709 -0.4861  0.0671
  798MOL0     C10015  10.863  -0.082   6.144  0.0631 -0.5380  0.6399
  798MOL0     C10016  10.974  -0.181   6.123 -0.3685  0.2381  0.6342
  798MOL0     O10017  11.005  -0.218   5.990 -0.6191  0.0844  0.1671
  798MOL0     C10018  11.104  -0.312   5.963 -0.8012  0.3839  0.3394
  798MOL0     C10019  11.062  -0.386   5.860  0.7509 -1.6786  1.3188
  798MOL0     C10020  11.126  -0.498   5.812  0.3712 -0.8341 -0.1217
  798MOL0     C10021  11.244  -0.525   5.875  0.3326  0.2477 -1.4352
  798MOL0     O10022  11.319  -0.628   5.822  0.4270 -0.2466 -0.7238
  798MOL0     C10023  11.399  -0.716   5.905 -0.6354  0.1193 -0.0346
  798MOL0     C10024  11.544  -0.675   5.920 -0.8261 -1.3756 -0.5391
  798MOL0     C10025  11.607  -0.648   5.776  0.4179  0.0475  0.8750
  798MOL0     C10026  11.745  -0.580   5.751 -0.0732  0.0651  0.4596
  798MOL0     C10027  11.755  -0.544   5.605 -0.2690  0.3354 -0.0462
  798MOL0     C10028  11.884  -0.466   5.563 -0.0178  0.1090  0.1198
  798MOL0     C10029  12.011  -0.547   5.595 -1.5087  0.3083  0.8785
  798MOL0     C10030  12.137  -0.465   5.574  0.5740  0.3621 -1.0010
  798MOL0    Cl10031  12.269  -0.578   5.609  0.1777  0.2120  0.0303
  798MOL0     C10032  11.289  -0.461   5.997  0.7203 -0.5689 -0.0128
  798MOL0     C10033  11.218  -0.347   6.027 -0.8525  0.9370 -0.5445
  798MOL0     O10034  11.035  -0.215   6.225 -0.7278 -0.1813 -0.0150
  798MOL0     C10035  10.829  -0.054   6.273  0.9193  0.9790 -1.4778
  798MOL0     C10036  10.727   0.037   6.310 -0.2460  0.2748 -0.9681
  798MOL0     N10037   9.976   0.142   6.172 -0.9519 -0.6562 -0.7130
  798MOL0     N10038   9.864   0.090   6.198 -0.1661 -0.8886 -0.9388
  798MOL0     C10039   9.040   0.253   7.171  1.2326 -0.4122  0.2564
  798MOL0     C10040   9.002   0.303   7.299 -0.7668  0.3156 -0.3725
  798MOL0     C10041   8.836   0.285   7.750 -0.7185  0.6296  0.5820
  798MOL0     C10042   8.942   0.368   7.770 -0.4114 -0.2551  0.1471
  798MOL0     C10043   8.977   0.408   7.901 -0.0593  0.4198  0.1130
  798MOL0     C10044   8.912   0.372   8.015  1.0510  0.2692  0.7735
  798MOL0     O10045   8.951   0.415   8.136 -0.2233 -0.3983 -0.5191
  798MOL0     C10046   8.854   0.465   8.227  0.2159 -0.2817  1.0354
  798MOL0     C10047   8.825   0.613   8.201  0.4989 -0.9830  0.2734
  798MOL0     C10048   8.761   0.659   8.335  0.5753  0.6350  0.1483
  798MOL0     C10049   8.732   0.816   8.337  0.1758  0.6846 -0.4470
  798MOL0     C10050   8.769   0.868   8.471 -0.2895 -0.8506 -0.5024
  798MOL0     C10051   8.812   0.931   8.567  0.9126  0.9499 -0.0263
  798MOL0     C10052   8.802   0.282   7.994 -0.6551 -0.1244  0.8642
  798MOL0     C10053   8.760   0.235   7.864 -1.0707  0.4077  0.1503
  798MOL0     C10054   8.657   0.128   7.858 -0.1546 -0.3842  0.1340
  798MOL0     H10055   8.785   0.046   7.385 -0.2253 -0.2426  0.3949
  798MOL0     H10056   8.850  -0.036   7.189 -2.5158  1.7370  1.2917
  798MOL0     H10057   9.204   0.199   6.966  1.2152 -0.7653 -2.8566
  798MOL0     H10058   9.068   0.237   6.860 -2.2805 -0.4257 -0.9941
  798MOL0     H10059   9.173  -0.037   6.866  3.4048  0.2741  1.0327
  798MOL0     H10060   9.087   0.053   6.735 -0.4060  1.0486  0.1842
  798MOL0     H10061   9.256   0.198   6.698  0.2433  1.0484  0.2728
  798MOL0     H10062   9.368   0.114   6.816 -0.4913 -0.2121 -0.7728
  798MOL0     H10063   9.367  -0.087   6.696  1.2994  0.6471 -0.2542
  798MOL0     H10064   9.256  -0.022   6.567  1.4173  0.2698 -3.1170
  798MOL0     H10065   9.513   0.116   6.641 -0.7565  0.5372 -0.2596
  798MOL0     H10066   9.426   0.132   6.494 -0.3421 -1.5035 -0.4084
  798MOL0     H10067   9.574  -0.116   6.605  0.6167  2.2654  0.5690
  798MOL0     H10068   9.483  -0.111   6.446 -0.4231  0.4027 -1.7146
  798MOL0     H10069   9.692  -0.110   6.376  0.1914 -0.2840  0.0878
  798MOL0     H10070   9.750  -0.026   6.531 -1.1133  2.6469  0.8048
  798MOL0     H10071   9.620   0.085   6.288  0.5501  1.8986 -0.8651
  798MOL0     H10072   9.640   0.173   6.434 -0.3664 -0.7991 -0.8748
  798MOL0     H10073   9.902   0.267   6.478  3.3281 -1.5842  1.4233
  798MOL0     H10074  10.130   0.345   6.392  1.2816  1.3771 -0.3759
  798MOL0     H10075  10.136   0.392   6.228 -0.5286  0.7717  2.2425
  798MOL0     H10076  10.248   0.118   6.327  2.8466 -0.0718  1.5271
  798MOL0     H10077  10.274   0.203   6.172  1.5743  1.9425  1.1763
  798MOL0     H10078  10.394   0.371   6.273  1.4417  1.3985  2.1327
  798MOL0     H10079  10.336   0.346   6.431 -0.3420  1.5005 -1.0286
  798MOL0     H10080  10.550   0.230   6.442 -1.6610  1.1845  1.1424
  798MOL0     H10081  10.462   0.095   6.380  1.4617  0.1568  2.6245
  798MOL0     H10082  10.623   0.119   6.003 -0.8535 -1.8292 -0.9881
  798MOL0     H10083  10.924  -0.040   5.867  0.2198  0.1331 -1.0362
  798MOL0     H10084  10.791   0.074   5.843  2.0125 -0.6459 -1.2230
  798MOL0     H10085  10.759  -0.102   5.865  2.1281 -0.9584 -2.4300
  798MOL0     H10086  10.972  -0.341   5.819  1.3644 -1.2280  0.4254
  798MOL0     H10087  11.092  -0.557   5.727 -0.7662  0.7215 -0.7997
  798MOL0     H10088  11.343  -0.737   5.996  0.2960 -1.1796  0.2592
  798MOL0     H10089  11.403  -0.813   5.855 -0.3190 -0.5212  1.1835
  798MOL0     H10090  11.547  -0.585   5.983 -0.1522 -1.1933 -0.8205
  798MOL0     H10091  11.611  -0.741   5.975  3.5659  2.3759 -0.7790
  798MOL0     H10092  11.535  -0.578   5.734  0.4253 -0.3082  0.2427
  798MOL0     H10093  11.599  -0.741   5.718 -0.3734  1.5941 -1.6545
  798MOL0     H10094  11.825  -0.649   5.779 -1.6146 -1.6921  0.7891
  798MOL0     H10095  11.763  -0.486   5.803  1.3176  0.8339 -1.2979
  798MOL0     H10096  11.751  -0.637   5.547  1.1070 -0.3932  0.9630
  798MOL0     H10097  11.667  -0.490   5.570 -0.8486 -1.8019 -2.2232
  798MOL0     H10098  11.889  -0.368   5.612 -0.4034 -1.0856  2.7428
  798MOL0     H10099  11.887  -0.437   5.458 -0.1373  1.3737  0.4500
  798MOL0     H10100  12.013  -0.640   5.537 -0.6794 -0.2583  1.7919
  798MOL0     H10101  12.012  -0.571   5.701  0.9472  3.5464  1.7475
  798MOL0     H10102  12.135  -0.384   5.648 -2.3787  0.3184 -0.9354
  798MOL0     H10103  12.130  -0.423   5.473  1.1878  3.6639  0.1863
  798MOL0     H10104  11.373  -0.482   6.061 -0.2954  0.3727  1.7078
  798MOL0     H10105  11.253  -0.290   6.112 -1.4397 -1.7638  1.6477
  798MOL0     H10106  10.878  -0.106   6.355 -0.3617  0.6889 -0.8707
  798MOL0     H10107  10.692   0.048   6.412 -0.1180  2.8532 -1.1349
  798MOL0     H10108   9.111   0.314   7.115  1.1722 -0.8332 -0.2847
  798MOL0     H10109   9.056   0.390   7.333 -1.6498 -0.1423  2.4724
  798MOL0     H10110   9.006   0.399   7.688 -0.3593 -0.2570  0.1873
  798MOL0     H10111   9.071   0.462   7.912  0.7161 -0.7245 -0.6093
  798MOL0     H10112   8.762   0.409   8.243 -2.2738  3.4930  1.2755
  798MOL0     H10113   8.885   0.451   8.331 -0.5915  3.0285  1.8710
  798MOL0     H10114   8.758   0.628   8.115 -0.9489  0.0165  1.5142
  798MOL0     H10115   8.917   0.666   8.174 -0.6937  0.5589 -0.9688
  798MOL0     H10116   8.670   0.604   8.361 -0.4677  2.1881 -0.0520
  798MOL0     H10117   8.828   0.642   8.420 -1.9769 -0.5960  2.0744
  798MOL0     H10118   8.623   0.807   8.325 -0.1647 -3.4769  3.1373
  798MOL0     H10119   8.778   0.882   8.263 -1.9839  3.1854  0.2644
  798MOL0     H10120   8.845   0.989   8.651 -2.0744  2.7625  0.0397
  798MOL0     H10121   8.754   0.240   8.082 -0.1729 -1.0906  0.6786
  798MOL0     H10122   8.575   0.178   7.804 -0.0395  4.1063  3.5278
  798MOL0     H10123   8.697   0.046   7.798  1.1176  0.0344  0.3928
  798MOL0     H10124   8.616   0.094   7.954 -0.3116 -1.3252 -0.2611
  799MOL0     O10125   6.492   3.814   7.043 -0.1966  0.1161  0.6972
  799MOL0     C10126   6.458   3.709   6.994 -0.4241  0.0138  0.6604
  799MOL0     O10127   6.371   3.699   6.892  0.2010 -0.0252 -0.7842
  799MOL0     C10128   6.365   3.811   6.814 -0.2259  0.0571  0.6259
  799MOL0     C10129   6.293   3.930   6.845 -0.1424  1.0991 -0.8063
  799MOL0     C10130   6.286   4.038   6.757 -0.8294  0.1826  0.0170
  799MOL0     C10131   6.349   4.028   6.623  0.7103 -0.7307 -1.5340
  799MOL0     O10132   6.346   4.152   6.558 -0.8593 -1.0344 -0.1065
  799MOL0     C10133   6.322   4.160   6.417  0.0227  0.4813 -0.1423
  799MOL0     C10134   6.295   4.307   6.371  0.4457  0.7257  0.5707
  799MOL0     C10135   6.263   4.308   6.223 -1.1428  0.2972 -0.4058
  799MOL0     C10136   6.273   4.455   6.176  0.5290  0.2457  0.2576
  799MOL0     C10137   6.180   4.469   6.053  0.1295 -0.6074 -0.6671
  799MOL0     C10138   6.256   4.428   5.921  0.5851  0.5616 -0.1316
  799MOL0     C10139   6.326   4.560   5.869 -0.5100  0.4632  0.3286
  799MOL0     C10140   6.401   4.529   5.731  0.0203 -0.4928  0.3025
  799MOL0     N10141   6.314   4.546   5.617  1.3712  0.1191 -0.1764
  799MOL0     C10142   6.300   4.649   5.529 -0.2181  0.3150  0.1374
  799MOL0     C10143   6.221   4.594   5.424 -0.4003  0.0469 -0.4374
  799MOL0     C10144   6.188   4.669   5.297  0.0370 -0.2237 -0.1439
  799MOL0     C10145   6.246   4.608   5.174  0.3254  0.3198 -1.1292
  799MOL0     C10146   6.388   4.652   5.146 -0.3454 -0.9489 -0.1062
  799MOL0     C10147   6.398   4.776   5.056 -0.2542  0.4785 -0.7312
  799MOL0     O10148   6.311   4.749   4.950  0.1431  0.2030  0.5750
  799MOL0     C10149   6.367   4.676   4.841 -0.0251 -0.3504 -0.0096
  799MOL0     C10150   6.499   4.648   4.821 -0.1772  0.0353  0.0084
  799MOL0     C10151   6.550   4.597   4.697 -0.4328  0.5531 -0.6022
  799MOL0     C10152   6.700   4.561   4.688 -0.0430  0.1921 -0.4141
  799MOL0     C10153   6.464   4.588   4.584 -0.2416 -0.0932 -1.3241
  799MOL0     C10154   6.510   4.552   4.451  0.8758  0.2608  0.0806
  799MOL0     O10155   6.435   4.592   4.348 -0.0132 -0.1149  0.2088
  799MOL0     C10156   6.483   4.561   4.225 -0.7676 -0.7177 -0.4124
  799MOL0     C10157   6.569   4.634   4.138 -0.7380  0.1531 -0.8878
  799MOL0     C10158   6.581   4.597   4.002 -0.1145  0.8182 -0.4582
  799MOL0     C10159   6.542   4.471   3.953  0.1219 -0.3643 -0.4390
  799MOL0     O10160   6.579   4.445   3.824  0.7362  0.2067 -0.1684
  799MOL0     C10161   6.522   4.331   3.746 -0.1390  0.3693 -0.9089
  799MOL0     C10162   6.596   4.309   3.614 -0.5049 -0.5850 -0.4355
  799MOL0     C10163   6.584   4.175   3.539  0.9672 -0.2882  0.0704
  799MOL0     C10164   6.427   4.143   3.510 -1.0781  0.0015  0.3839
  799MOL0     C10165   6.404   4.028   3.405 -0.0255 -0.3303  0.3179
  799MOL0     C10166   6.441   3.885   3.453 -0.1620 -0.6580 -0.4602
  799MOL0     C10167   6.389   3.789   3.339  0.2779  0.1963 -0.3425
  799MOL0     C10168   6.426   3.822   3.199 -0.1055  1.2719 -0.2345
  799MOL0    Cl10169   6.397   3.683   3.101  0.4984  0.2757  0.3706
  799MOL0     C10170   6.470   4.389   4.042 -0.2025 -0.5902 -0.4952
  799MOL0     C10171   6.437   4.439   4.169  0.0569  0.3015  0.1378
  799MOL0     O10172   6.574   4.445   4.454  0.2210 -0.6623 -0.6483
  799MOL0     C10173   6.331   4.635   4.607  0.6275  1.4620  0.2342
  799MOL0     C10174   6.286   4.671   4.729 -0.6773  0.0304  0.2713
  799MOL0     N10175   6.183   4.466   5.459  0.1141 -0.1936 -0.3443
  799MOL0     N10176   6.250   4.435   5.563  0.4907 -0.9984 -0.5398
  799MOL0     C10177   6.417   3.909   6.589  0.8869 -0.1237 -0.2740
  799MOL0     C10178   6.428   3.804   6.687 -0.8715 -0.0874 -0.0544
  799MOL0     C10179   6.485   3.585   7.068 -1.4730 -0.2789 -0.0341
  799MOL0     C10180   6.387   3.485   7.055  0.7107  0.7517 -0.4434
  799MOL0     C10181   6.393   3.366   7.126  0.7014 -0.4032  0.4349
  799MOL0     C10182   6.505   3.338   7.198 -1.7238 -0.0561  1.2084
  799MOL0     O10183   6.532   3.222   7.267 -0.1581  0.3045 -0.1913
  799MOL0     C10184   6.590   3.123   7.173 -0.0936 -0.3135 -0.1748
  799MOL0     C10185   6.558   2.991   7.241  0.3951  0.4101 -0.2545
  799MOL0     C10186   6.416   2.930   7.183 -0.5408 -0.0091 -0.8047
  799MOL0     C10187   6.431   2.836   7.061  0.6212  0.6476  0.6404
  799MOL0     C10188   6.510   2.909   6.954  0.1620 -0.5589 -0.2587
  799MOL0     C10189   6.591   2.957   6.874  0.0812 -0.4523 -0.1355
  799MOL0     C10190   6.608   3.431   7.199  1.2667 -0.7558  0.1641
  799MOL0     C10191   6.605   3.560   7.136  0.3748  0.9713 -0.2967
  799MOL0     C10192   6.711   3.654   7.171 -0.0856 -0.0736 -0.3676
  799MOL0     H10193   6.239   3.935   6.939 -1.8647  1.3811 -1.7620
  799MOL0     H10194   6.231   4.127   6.786 -1.4660  0.0550 -0.7439
  799MOL0     H10195   6.237   4.095   6.401  0.7520 -0.0606 -2.0094
  799MOL0     H10196   6.407   4.113   6.366  0.0616 -2.3582  2.2370
  799MOL0     H10197   6.213   4.334   6.438  1.0902 -3.6501  3.5574
  799MOL0     H10198   6.386   4.367   6.383  0.7785  0.1219  1.1655
  799MOL0     H10199   6.332   4.250   6.161 -0.4507  3.5569 -3.0503
  799MOL0     H10200   6.169   4.254   6.219  0.2684 -2.4886  1.1196
  799MOL0     H10201   6.251   4.530   6.253 -2.3517  0.3627 -0.5719
  799MOL0     H10202   6.374   4.479   6.143  1.2735 -4.0889 -1.2154
  799MOL0     H10203   6.153   4.575   6.049  2.1342  0.3517  3.8753
  799MOL0     H10204   6.097   4.401   6.071  0.1716 -0.1472  1.6630
  799MOL0     H10205   6.328   4.351   5.951  0.2708 -0.3151 -1.5378
  799MOL0     H10206   6.183   4.387   5.851 -2.1065 -0.7964  3.2383
  799MOL0     H10207   6.399   4.596   5.942 -0.4781  3.6451 -1.0724
  799MOL0     H10208   6.250   4.639   5.866 -0.3789  0.6091  0.7322
  799MOL0     H10209   6.488   4.593   5.714 -1.8476  2.5993  1.5103
  799MOL0     H10210   6.440   4.427   5.734  1.2713 -0.0368 -0.0363
  799MOL0     H10211   6.358   4.741   5.537 -0.1183  0.2963 -0.3294
  799MOL0     H10212   6.219   4.772   5.318 -1.0062  0.0992 -0.1209
  799MOL0     H10213   6.080   4.683   5.291  0.1186  1.7586  1.6180
  799MOL0     H10214   6.250   4.499   5.184  1.0437  0.3180 -1.3877
  799MOL0     H10215   6.185   4.625   5.086 -0.9218  3.3418  0.1625
  799MOL0     H10216   6.446   4.673   5.237  2.7848 -1.0448 -1.9277
  799MOL0     H10217   6.434   4.561   5.108  1.4456 -0.2597  0.2988
  799MOL0     H10218   6.362   4.861   5.115 -3.6440 -1.0064 -0.4114
  799MOL0     H10219   6.502   4.799   5.032  0.4409 -0.8999  0.7920
  799MOL0     H10220   6.577   4.640   4.896  1.8662  2.9117 -1.6069
  799MOL0     H10221   6.758   4.601   4.771  0.1378  1.6824 -1.2119
  799MOL0     H10222   6.748   4.595   4.595 -0.2529 -1.8727 -1.3253
  799MOL0     H10223   6.699   4.453   4.675  2.1894  0.4140 -3.5071
  799MOL0     H10224   6.625   4.715   4.183 -1.1921  0.4090 -0.7799
  799MOL0     H10225   6.627   4.667   3.933  4.1978 -2.8143 -1.7522
  799MOL0     H10226   6.523   4.236   3.800  0.4313  1.3423  0.8695
  799MOL0     H10227   6.416   4.355   3.738 -0.4376  0.3442  1.9005
  799MOL0     H10228   6.544   4.387   3.559 -3.5398  0.1336  3.0537
  799MOL0     H10229   6.703   4.329   3.631 -0.7951 -1.0805  2.5719
  799MOL0     H10230   6.620   4.094   3.603 -2.3711 -1.1948  1.0329
  799MOL0     H10231   6.634   4.194   3.444 -0.6355 -0.3123 -0.8112
  799MOL0     H10232   6.368   4.234   3.494 -1.9598 -0.9032 -1.8797
  799MOL0     H10233   6.394   4.100   3.606  1.3434 -2.0101  0.4176
  799MOL0     H10234   6.299   4.038   3.379  0.1375  0.8148  0.0267
  799MOL0     H10235   6.466   4.049   3.317 -0.6140 -3.0127 -0.8155
  799MOL0     H10236   6.381   3.869   3.544 -0.4855  0.0423 -0.5431
  799MOL0     H10237   6.549   3.875   3.465 -0.3144 -0.6809  1.2836
  799MOL0     H10238   6.281   3.803   3.344  0.4156  0.9519  1.3102
  799MOL0     H10239   6.419   3.685   3.357  0.0297 -1.3110 -6.4604
  799MOL0     H10240   6.533   3.847   3.204 -0.5809  3.2811  1.7712
  799MOL0     H10241   6.392   3.915   3.150  2.1128  1.1025 -2.3174
  799MOL0     H10242   6.428   4.295   4.009 -1.2830  0.2894 -1.7177
  799MOL0     H10243   6.355   4.391   4.221 -1.1253 -0.1693 -2.0385
  799MOL0     H10244   6.259   4.641   4.526  1.4903 -0.0559 -0.6955
  799MOL0     H10245   6.181   4.698   4.737 -1.0431 -1.6251  1.8100
  799MOL0     H10246   6.473   3.909   6.496  0.3130 -0.5750 -0.6203
  799MOL0     H10247   6.480   3.715   6.653  1.5814  1.5674 -0.9146
  799MOL0     H10248   6.288   3.499   7.011  0.5377  1.8941  0.2800
  799MOL0     H10249   6.305   3.304   7.139  0.9045 -0.4634  1.6478
  799MOL0     H10250   6.540   3.123   7.076 -1.2015 -2.1952  0.3391
  799MOL0     H10251   6.697   3.128   7.152  0.0254  0.7825  0.6128
  799MOL0     H10252   6.556   2.995   7.351  0.1188 -0.6755 -0.2096
  799MOL0     H10253   6.630   2.918   7.204 -1.1815 -1.4796  0.2079
  799MOL0     H10254   6.361   2.880   7.263 -0.8125  0.5950 -0.6104
  799MOL0     H10255   6.354   3.014   7.148  0.3527  1.3306  0.7097
  799MOL0     H10256   6.341   2.794   7.013  2.7472 -3.7862  0.0240
  799MOL0     H10257   6.493   2.750   7.089  1.9919  0.9203 -1.3276
  799MOL0     H10258   6.661   3.012   6.814 -0.2919 -0.4829 -0.6037
  799MOL0     H10259   6.692   3.430   7.267  2.5697  1.6990 -1.2707
  799MOL0     H10260   6.809   3.607   7.161 -1.0062 -1.9115 -1.3176
  799MOL0     H10261   6.707   3.744   7.109  1.6773  2.8063  3.3461
  799MOL0     H10262   6.687   3.676   7.275 -1.0344 -1.7225 -0.1929
  800MOL0     O10263   8.191   0.351   8.292 -1.0257  0.1352 -0.5278
  800MOL0     C10264   8.277   0.394   8.372  0.5461 -0.2529 -0.0066
  800MOL0     O10265   8.355   0.498   8.344 -0.1890  0.3553 -0.2687
  800MOL0     C10266   8.372   0.523   8.209  0.4291 -1.3111 -0.1661
  800MOL0     C10267   8.289   0.613   8.129 -0.5570  0.4163 -0.4830
  800MOL0     C10268   8.307   0.619   7.987  0.0172  0.1367 -0.3450
  800MOL0     C10269   8.427   0.574   7.936  0.1057 -0.3785 -0.3560
  800MOL0     O10270   8.448   0.598   7.799  0.0880 -0.0093  0.3795
  800MOL0     C10271   8.580   0.561   7.742  1.1814  0.0463 -0.4422
  800MOL0     C10272   8.597   0.638   7.613 -0.4094 -0.4443 -0.6346
  800MOL0     C10273   8.731   0.621   7.537  0.2516  0.3012 -0.1743
  800MOL0     C10274   8.744   0.714   7.417  0.7046  0.3915 -0.2434
  800MOL0     C10275   8.828   0.660   7.306 -0.8229  0.0948 -0.3974
  800MOL0     C10276   8.833   0.769   7.200 -0.2069 -0.2231  0.0074
  800MOL0     C10277   8.947   0.754   7.099 -0.6623  0.3674 -0.0072
  800MOL0     C10278   8.914   0.637   7.004 -0.4652 -0.7415  0.1283
  800MOL0     N10279   9.027   0.600   6.921  0.7442 -0.4306  0.4094
  800MOL0     C10280   9.035   0.605   6.788  0.2614  0.0504 -0.9987
  800MOL0     C10281   9.138   0.529   6.751 -0.0351 -0.4054 -0.3162
  800MOL0     C10282   9.181   0.505   6.612  0.7291  0.1783 -0.2793
  800MOL0     C10283   9.327   0.477   6.578 -0.2029  0.3038 -0.0518
  800MOL0     C10284   9.357   0.402   6.438  0.1772 -0.9542  0.2987
  800MOL0     C10285   9.378   0.504   6.324 -0.4418 -0.5853 -0.1221
  800MOL0     O10286   9.471   0.611   6.365  0.4109  0.3849  0.4331
  800MOL0     C10287   9.605   0.611   6.323  0.4780  0.6441 -0.6615
  800MOL0     C10288   9.662   0.521   6.230 -0.1330  0.9321  0.5402
  800MOL0     C10289   9.794   0.534   6.180  0.7376  0.3939 -0.2980
  800MOL0     C10290   9.840   0.456   6.060  0.3898 -0.0438 -0.8737
  800MOL0     C10291   9.872   0.643   6.224  0.1261  1.6322  0.5630
  800MOL0     C10292  10.002   0.676   6.183 -0.3042  0.2934 -0.6566
  800MOL0     O10293  10.092   0.704   6.287  0.2493 -0.1218 -0.4725
  800MOL0     C10294  10.226   0.728   6.260  0.7714  0.2494 -1.0255
  800MOL0     C10295  10.294   0.818   6.342 -0.6378 -0.0853  0.2133
  800MOL0     C10296  10.436   0.844   6.327  0.0719  0.5469  0.4429
  800MOL0     C10297  10.505   0.763   6.231 -0.3230 -0.1738 -0.2918
  800MOL0     O10298  10.641   0.768   6.241  0.3185 -0.6264  0.3973
  800MOL0     C10299  10.728   0.658   6.218 -0.2017 -0.1699 -0.2364
  800MOL0     C10300  10.865   0.706   6.250  0.1446  0.7576 -0.4877
  800MOL0     C10301  10.966   0.608   6.224  0.5122 -0.5238  0.4570
  800MOL0     C10302  10.932   0.471   6.275  0.4177  1.3258 -0.7553
  800MOL0     C10303  11.060   0.378   6.251  0.0876  1.1836  0.4705
  800MOL0     C10304  11.025   0.231   6.283  0.2754 -0.3848  0.3499
  800MOL0     C10305  11.151   0.155   6.305 -0.9675  0.0028  1.0202
  800MOL0     C10306  11.193   0.167   6.450  0.5805  0.9068 -1.5163
  800MOL0    Cl10307  11.090   0.057   6.550 -0.1121 -0.2655  0.0979
  800MOL0     C10308  10.436   0.666   6.158 -0.3928 -0.5835  0.3079
  800MOL0     C10309  10.299   0.650   6.174  0.7962 -0.5604 -0.2452
  800MOL0     O10310  10.024   0.684   6.058  0.6770 -0.0981 -0.3643
  800MOL0     C10311   9.813   0.723   6.318  0.3101 -0.6404  0.3212
  800MOL0     C10312   9.681   0.724   6.360  0.2741  0.2678 -0.0055
  800MOL0     N10313   9.190   0.462   6.864  0.0601  0.0152  0.7318
  800MOL0     N10314   9.120   0.507   6.960  0.5154  0.6538  0.1214
  800MOL0     C10315   8.523   0.495   8.013  0.3331 -0.1484  1.1595
  800MOL0     C10316   8.491   0.474   8.148 -0.1254 -0.0818  0.2343
  800MOL0     C10317   8.289   0.327   8.503 -0.0824 -0.4009 -0.9429
  800MOL0     C10318   8.165   0.279   8.561 -0.2157  0.1767 -0.0943
  800MOL0     C10319   8.154   0.229   8.690 -0.4486 -0.7054 -0.4558
  800MOL0     C10320   8.268   0.208   8.771 -0.6691 -0.1048  0.7232
  800MOL0     O10321   8.268   0.160   8.897 -0.0658  0.1192  0.1700
  800MOL0     C10322   8.144   0.137   8.972 -1.0709  0.2270 -0.0044
  800MOL0     C10323   8.086   0.003   8.941  0.3245 -0.5441 -0.3824
  800MOL0     C10324   7.938  -0.020   8.988 -0.2329  0.3351  0.6493
  800MOL0     C10325   7.895  -0.166   9.019 -0.0591 -0.3406 -0.6222
  800MOL0     C10326   7.935  -0.236   8.896  0.1473 -0.8518 -0.8909
  800MOL0     C10327   7.982  -0.290   8.800  0.0087 -0.1655 -0.5964
  800MOL0     C10328   8.392   0.237   8.715 -0.8055  1.2458  0.4091
  800MOL0     C10329   8.406   0.302   8.584 -1.3102  0.4152  0.2976
  800MOL0     C10330   8.542   0.339   8.530 -1.0113 -0.1301  0.6994
  800MOL0     H10331   8.201   0.663   8.170 -0.9912  2.0345 -3.1295
  800MOL0     H10332   8.233   0.665   7.923  1.0491  2.5482  0.1028
  800MOL0     H10333   8.574   0.456   7.713  3.0806 -0.3935  0.6197
  800MOL0     H10334   8.667   0.582   7.805  3.2325 -3.6122 -1.7664
  800MOL0     H10335   8.512   0.621   7.547 -1.0567  4.3296 -1.3702
  800MOL0     H10336   8.592   0.741   7.648  1.2705 -0.0717 -1.3624
  800MOL0     H10337   8.815   0.620   7.607 -0.7691  1.6777  1.1367
  800MOL0     H10338   8.725   0.523   7.490  0.3738  1.5448 -2.9520
  800MOL0     H10339   8.646   0.736   7.373  0.7753  0.0797 -0.5699
  800MOL0     H10340   8.787   0.807   7.455 -1.0949  1.7106 -1.2600
  800MOL0     H10341   8.788   0.568   7.261 -0.9992 -0.2483  0.4501
  800MOL0     H10342   8.931   0.644   7.341 -1.2001  0.5872  0.9929
  800MOL0     H10343   8.733   0.777   7.156 -0.8499  1.1026  1.5860
  800MOL0     H10344   8.848   0.868   7.245  1.5575 -0.7302  0.6051
  800MOL0     H10345   9.038   0.726   7.153 -1.8898 -1.3694  1.2491
  800MOL0     H10346   8.968   0.846   7.043 -1.2772  0.7512  0.3793
  800MOL0     H10347   8.885   0.549   7.062 -2.2592  0.5577  1.3360
  800MOL0     H10348   8.825   0.660   6.944 -2.4168  3.2579  3.9336
  800MOL0     H10349   8.977   0.666   6.719 -0.5495 -0.0084 -0.3800
  800MOL0     H10350   9.164   0.585   6.539 -1.6061 -3.6501 -4.4543
  800MOL0     H10351   9.117   0.424   6.575  0.4711  1.1842 -2.1757
  800MOL0     H10352   9.398   0.561   6.580  1.9199 -1.3910 -0.7460
  800MOL0     H10353   9.351   0.396   6.648 -0.5297  0.1613 -0.1022
  800MOL0     H10354   9.440   0.331   6.433 -1.2327 -2.6668 -0.0794
  800MOL0     H10355   9.268   0.343   6.412 -1.1852  2.1725 -3.1205
  800MOL0     H10356   9.397   0.462   6.225  1.1395  1.9044 -0.9627
  800MOL0     H10357   9.278   0.548   6.330 -0.2878 -0.3676  4.6601
  800MOL0     H10358   9.603   0.441   6.186 -0.1394  1.3874 -0.3144
  800MOL0     H10359   9.785   0.362   6.055  1.6542 -0.8737  0.1541
  800MOL0     H10360   9.945   0.428   6.070  0.6201  0.5322 -1.5698
  800MOL0     H10361   9.838   0.505   5.962  0.0866  3.1021  0.5646
  800MOL0     H10362  10.225   0.876   6.402 -0.0839 -1.0557  1.8417
  800MOL0     H10363  10.494   0.899   6.400 -0.9386 -0.5440  2.1562
  800MOL0     H10364  10.708   0.579   6.290  1.0712 -0.8544 -0.6156
  800MOL0     H10365  10.726   0.613   6.118 -0.4881 -1.6367  0.4063
  800MOL0     H10366  10.876   0.795   6.187  4.3272 -0.4878 -1.8575
  800MOL0     H10367  10.876   0.732   6.356 -0.9760  0.7988 -0.3655
  800MOL0     H10368  11.059   0.640   6.271 -0.5778  1.8006  1.2134
  800MOL0     H10369  10.982   0.612   6.116  0.0985 -1.4183  0.3571
  800MOL0     H10370  10.853   0.417   6.221  0.7702 -1.3641  1.2198
  800MOL0     H10371  10.917   0.467   6.383 -1.4226 -1.6423 -0.9947
  800MOL0     H10372  11.105   0.387   6.152 -1.0284  0.9961 -0.0716
  800MOL0     H10373  11.136   0.420   6.317  0.9114 -0.1494  0.4049
  800MOL0     H10374  10.968   0.192   6.199  1.5858  2.2613 -1.9192
  800MOL0     H10375  10.967   0.241   6.375 -0.4190 -2.9422  0.2349
  800MOL0     H10376  11.235   0.201   6.251 -1.6671 -0.0168 -0.1210
  800MOL0     H10377  11.145   0.050   6.275  0.5426 -0.5654  2.5513
  800MOL0     H10378  11.182   0.273   6.477  3.7695  0.9230  0.3213
  800MOL0     H10379  11.294   0.125   6.453 -1.2705 -4.1766 -1.2731
  800MOL0     H10380  10.492   0.596   6.096  0.8016  0.7216 -0.1221
  800MOL0     H10381  10.255   0.567   6.120 -0.3431 -0.4652  0.5004
  800MOL0     H10382   9.880   0.800   6.354 -1.9528  0.3478  2.7905
  800MOL0     H10383   9.641   0.802   6.424  0.2521  1.5798 -1.5533
  800MOL0     H10384   8.616   0.452   7.976 -0.1988 -0.0312 -0.3650
  800MOL0     H10385   8.548   0.402   8.206 -0.5247 -2.3490 -1.9888
  800MOL0     H10386   8.074   0.300   8.507 -1.1951 -2.2930  0.4840
  800MOL0     H10387   8.054   0.209   8.727 -1.1563  3.1831  0.2550
  800MOL0     H10388   8.174   0.140   9.077 -2.2015 -1.4033  0.4085
  800MOL0     H10389   8.067   0.213   8.955 -2.1665 -0.7769  0.3212
  800MOL0     H10390   8.138  -0.074   8.999 -2.2270 -2.2391 -0.1540
  800MOL0     H10391   8.089  -0.026   8.835 -1.0169  0.9344 -0.8638
  800MOL0     H10392   7.925   0.042   9.077  3.1946  0.0305  1.5287
  800MOL0     H10393   7.884   0.020   8.902  3.0629  0.6091 -1.5074
  800MOL0     H10394   7.789  -0.180   9.043 -0.1010 -0.6920 -1.0050
  800MOL0     H10395   7.945  -0.198   9.111 -2.6544  1.5189  1.6000
  800MOL0     H10396   8.003  -0.332   8.703  0.0829 -0.3366 -0.5064
  800MOL0     H10397   8.478   0.232   8.781 -1.7332  3.5341  1.9595
  800MOL0     H10398   8.595   0.409   8.596  1.6007 -2.0022  0.7240
  800MOL0     H10399   8.606   0.251   8.533  1.4594  1.2327 -3.5542
  800MOL0     H10400   8.534   0.369   8.425 -0.3301  1.0715  0.9667
  801MOL0     O10401   4.837   7.258   3.329  0.0198  0.3794 -0.1703
  801MOL0     C10402   4.936   7.264   3.266  0.1436  0.4758  0.4544
  801MOL0     O10403   4.982   7.161   3.193  0.0990 -0.9810  0.3527
  801MOL0     C10404   4.940   7.039   3.218 -0.6346 -0.0282 -0.2463
  801MOL0     C10405   4.928   6.969   3.345 -0.4173  0.5000  0.3155
  801MOL0     C10406   4.903   6.828   3.357  0.5227  1.3841 -0.6418
  801MOL0     C10407   4.888   6.747   3.244 -1.4269 -1.0499  0.8602
  801MOL0     O10408   4.873   6.615   3.250  0.7619  0.3780  0.1436
  801MOL0     C10409   4.779   6.559   3.161  0.3214  0.0492 -0.4704
  801MOL0     C10410   4.712   6.437   3.226 -0.1565 -0.3612  0.0114
  801MOL0     C10411   4.637   6.497   3.350  0.7605 -0.2867  0.2738
  801MOL0     C10412   4.542   6.401   3.433  0.4222 -1.4339 -0.2366
  801MOL0     C10413   4.479   6.458   3.561  0.0075  0.2370 -0.1347
  801MOL0     C10414   4.385   6.363   3.634  0.6389  0.6028  0.9102
  801MOL0     C10415   4.447   6.237   3.694  0.2219  0.5205 -0.1549
  801MOL0     C10416   4.521   6.258   3.831  0.3919  0.1675  0.0286
  801MOL0     N10417   4.617   6.147   3.850 -0.0759 -0.2805 -0.7953
  801MOL0     C10418   4.733   6.111   3.790 -1.0643 -1.1789 -0.9645
  801MOL0     C10419   4.803   6.020   3.862  0.3996  0.7277 -0.1367
  801MOL0     C10420   4.943   5.956   3.848  0.2476 -0.2806  0.2418
  801MOL0     C10421   5.065   6.058   3.873  0.3529 -0.2427 -0.6198
  801MOL0     C10422   5.051   6.147   3.999 -0.4598  1.0506  0.2678
  801MOL0     C10423   5.038   6.080   4.134 -0.8414 -0.8659 -0.3197
  801MOL0     O10424   5.013   6.179   4.243  0.0553  0.5942  0.5173
  801MOL0     C10425   5.123   6.252   4.283  0.2549 -0.5405 -0.4347
  801MOL0     C10426   5.159   6.375   4.216 -0.9305  0.7999 -0.4887
  801MOL0     C10427   5.290   6.426   4.232  0.8081 -0.5266  0.6015
  801MOL0     C10428   5.324   6.541   4.135  0.0708  0.0470  0.5364
  801MOL0     C10429   5.366   6.381   4.339  0.0203  0.1491 -0.5694
  801MOL0     C10430   5.507   6.426   4.362  0.2714  0.5409 -0.1044
  801MOL0     O10431   5.575   6.455   4.243 -0.1078  0.4014  0.5884
  801MOL0     C10432   5.711   6.488   4.242 -0.7394  0.6873 -0.1967
  801MOL0     C10433   5.809   6.436   4.333  0.1470 -0.3918  0.5718
  801MOL0     C10434   5.948   6.466   4.319  1.1050 -0.5771  0.5876
  801MOL0     C10435   5.992   6.560   4.222 -0.6304 -0.9600  0.4929
  801MOL0     O10436   6.120   6.590   4.187  0.2290  0.0121 -0.2488
  801MOL0     C10437   6.229   6.546   4.282 -0.6034 -0.6672 -0.7713
  801MOL0     C10438   6.385   6.590   4.255  0.0042 -0.4075  0.5507
  801MOL0     C10439   6.479   6.526   4.361 -0.0259 -0.8393  1.5328
  801MOL0     C10440   6.625   6.588   4.331 -0.1267  0.2819  0.2274
  801MOL0     C10441   6.740   6.550   4.425 -0.4213 -0.4621 -0.1996
  801MOL0     C10442   6.713   6.543   4.581 -0.5831  0.3023  0.1064
  801MOL0     C10443   6.655   6.405   4.623  0.2570 -0.5935  0.9838
  801MOL0     C10444   6.674   6.383   4.774  0.1498  0.4296  0.3682
  801MOL0    Cl10445   6.590   6.216   4.796 -0.0101 -0.6902  0.2703
  801MOL0     C10446   5.891   6.626   4.151  0.7829 -0.4776  0.4851
  801MOL0     C10447   5.751   6.590   4.158  0.6753  0.5053 -0.5897
  801MOL0     O10448   5.553   6.443   4.473  0.3445  0.3195 -0.1768
  801MOL0     C10449   5.310   6.289   4.426 -0.1306  0.7644 -0.6382
  801MOL0     C10450   5.202   6.208   4.391  0.2462 -0.0533 -0.6792
  801MOL0     N10451   4.717   5.999   3.970  0.0412  0.6963 -0.5170
  801MOL0     N10452   4.608   6.061   3.964 -0.1890 -0.3299  0.6626
  801MOL0     C10453   4.903   6.818   3.118 -0.1225  0.7894 -1.1951
  801MOL0     C10454   4.933   6.954   3.110  1.3072 -0.8044  0.7979
  801MOL0     C10455   4.981   7.402   3.243 -0.2709  1.3868  0.3668
  801MOL0     C10456   4.918   7.505   3.311 -0.1586 -0.4660 -0.9624
  801MOL0     C10457   4.945   7.642   3.293 -0.8710 -0.1999  0.3993
  801MOL0     C10458   5.059   7.674   3.210 -0.4377  0.2110  0.0882
  801MOL0     O10459   5.102   7.805   3.214 -0.8171  0.4253  0.7475
  801MOL0     C10460   5.198   7.860   3.116 -0.7274  0.5976 -0.5348
  801MOL0     C10461   5.345   7.852   3.160 -0.0345  0.1904 -0.5645
  801MOL0     C10462   5.418   7.731   3.087 -0.8236 -0.5191 -0.8898
  801MOL0     C10463   5.572   7.739   3.132  0.4798  0.1919  0.1579
  801MOL0     C10464   5.606   7.683   3.268  0.6734 -0.1741 -0.7111
  801MOL0     C10465   5.636   7.615   3.365 -0.4564 -0.3053  0.2901
  801MOL0     C10466   5.122   7.576   3.138  0.4464  0.0573 -0.8987
  801MOL0     C10467   5.085   7.443   3.149 -1.4363  0.9842 -1.1341
  801MOL0     C10468   5.167   7.334   3.062 -0.5778 -0.4900  0.0112
  801MOL0     H10469   4.923   7.036   3.430 -2.1238  0.8615 -0.0415
  801MOL0     H10470   4.885   6.787   3.456 -0.6419  0.7139 -1.1103
  801MOL0     H10471   4.833   6.522   3.073  0.3937 -1.1545  0.0724
  801MOL0     H10472   4.697   6.621   3.121  1.3552 -1.0088 -4.7659
  801MOL0     H10473   4.636   6.394   3.161 -0.9229  0.3617  0.4124
  801MOL0     H10474   4.780   6.356   3.254 -2.3572 -1.6970  1.8392
  801MOL0     H10475   4.709   6.531   3.426  1.2836 -0.4551 -0.1450
  801MOL0     H10476   4.575   6.586   3.333 -0.9692 -1.3775  0.6449
  801MOL0     H10477   4.460   6.366   3.370 -0.9331 -1.8595  1.6469
  801MOL0     H10478   4.608   6.315   3.447 -0.2624 -2.0296 -0.5950
  801MOL0     H10479   4.427   6.551   3.536 -0.3636  0.7256  2.2847
  801MOL0     H10480   4.566   6.481   3.623  1.3574 -0.7290 -1.6035
  801MOL0     H10481   4.319   6.414   3.706  1.0080  0.8602  1.0670
  801MOL0     H10482   4.311   6.333   3.559 -0.4348  1.0602  1.7584
  801MOL0     H10483   4.513   6.194   3.617  1.3603 -0.3367  1.2584
  801MOL0     H10484   4.365   6.169   3.719  0.0561 -0.4379 -2.9272
  801MOL0     H10485   4.576   6.351   3.846  0.4032 -0.1375  2.2140
  801MOL0     H10486   4.441   6.261   3.906  0.5803 -1.4152  0.3278
  801MOL0     H10487   4.765   6.174   3.708  3.0842  2.0285  2.6239
  801MOL0     H10488   4.952   5.919   3.746 -3.2364  0.0505 -0.2867
  801MOL0     H10489   4.946   5.870   3.916 -0.3744  0.6941  1.5518
  801MOL0     H10490   5.154   5.995   3.869 -0.2264 -1.0416 -1.2593
  801MOL0     H10491   5.062   6.137   3.797 -3.2397  0.1572 -0.2322
  801MOL0     H10492   5.143   6.205   3.986 -0.1260  0.3843 -0.4615
  801MOL0     H10493   4.955   6.195   3.980 -2.0562 -1.3849  1.6859
  801MOL0     H10494   4.947   6.019   4.142 -2.4628  1.4019 -0.3198
  801MOL0     H10495   5.124   6.014   4.147  0.4042  0.8537  0.5779
  801MOL0     H10496   5.096   6.405   4.133 -0.1146 -2.7529 -2.5808
  801MOL0     H10497   5.235   6.589   4.094 -2.5367 -4.0082  0.9445
  801MOL0     H10498   5.368   6.493   4.047 -2.4855 -0.6113 -0.4528
  801MOL0     H10499   5.406   6.608   4.165  1.4436 -0.9061 -0.9019
  801MOL0     H10500   5.768   6.370   4.410 -4.0720  1.7297  0.4632
  801MOL0     H10501   6.009   6.392   4.370 -1.3501 -2.3509  1.1475
  801MOL0     H10502   6.195   6.584   4.379  0.3683  0.5277 -0.8669
  801MOL0     H10503   6.244   6.438   4.288  2.1165 -0.2561  2.6820
  801MOL0     H10504   6.425   6.558   4.158  1.3471  2.4010  0.0872
  801MOL0     H10505   6.393   6.699   4.261 -1.4182 -0.3307  1.4912
  801MOL0     H10506   6.477   6.417   4.349 -0.0119 -0.7514  0.6696
  801MOL0     H10507   6.450   6.557   4.462  2.2032  1.7346  1.5005
  801MOL0     H10508   6.615   6.696   4.344 -0.9876  0.2131  0.2113
  801MOL0     H10509   6.652   6.565   4.228 -0.1197  0.1091  0.2674
  801MOL0     H10510   6.787   6.458   4.390  1.6760  0.4254  0.1073
  801MOL0     H10511   6.816   6.627   4.413  0.2011 -0.8274  1.2377
  801MOL0     H10512   6.638   6.621   4.597 -0.2754  1.1181 -2.0986
  801MOL0     H10513   6.808   6.563   4.631 -0.4922  0.2564 -0.0451
  801MOL0     H10514   6.714   6.325   4.577 -0.4000  0.6242 -2.1537
  801MOL0     H10515   6.555   6.393   4.581  1.3140 -4.3125 -0.8726
  801MOL0     H10516   6.615   6.458   4.827 -1.9617 -0.7964 -0.1296
  801MOL0     H10517   6.780   6.382   4.801 -0.2149 -3.6642  2.3655
  801MOL0     H10518   5.911   6.699   4.074  1.5129 -2.7759 -1.6614
  801MOL0     H10519   5.675   6.655   4.116  1.6712  1.4970 -0.9130
  801MOL0     H10520   5.377   6.252   4.502  0.9679  2.3688 -0.7768
  801MOL0     H10521   5.161   6.128   4.451  1.8782  0.4090  1.1911
  801MOL0     H10522   4.891   6.774   3.019 -5.7697 -1.4232  0.1081
  801MOL0     H10523   4.956   6.992   3.011  3.8865 -1.7729  0.9615
  801MOL0     H10524   4.837   7.489   3.382 -1.4798  2.8800 -1.5071
  801MOL0     H10525   4.894   7.713   3.357  0.1224 -0.4000  1.4603
  801MOL0     H10526   5.191   7.816   3.016  0.2996  2.4118 -1.4666
  801MOL0     H10527   5.176   7.967   3.106 -0.9236  0.5391 -0.7318
  801MOL0     H10528   5.349   7.837   3.268  1.6500  1.8753 -0.3478
  801MOL0     H10529   5.394   7.942   3.124  0.2283 -0.1475 -1.0648
  801MOL0     H10530   5.391   7.633   3.129  0.3683  0.4905  2.6074
  801MOL0     H10531   5.410   7.741   2.979  0.0998 -2.2865 -1.1577
  801MOL0     H10532   5.615   7.839   3.120  0.3401  0.7943  3.7388
  801MOL0     H10533   5.631   7.670   3.071 -0.6736  1.2534 -2.3330
  801MOL0     H10534   5.671   7.557   3.448 -1.6581  0.8483  1.6521
  801MOL0     H10535   5.207   7.616   3.084  0.1719  0.4813 -1.0184
  801MOL0     H10536   5.263   7.380   3.037 -0.3504 -0.4352  0.9202
  801MOL0     H10537   5.177   7.238   3.113  0.2157 -0.3355  0.1761
  801MOL0     H10538   5.113   7.321   2.969  0.6963 -0.5726 -0.7419
  802MOL0     O10539   4.610   1.974   9.571  0.1643  0.1008 -0.3810
  802MOL0     C10540   4.501   1.987   9.615  0.0103  0.1569  0.3166
  802MOL0     O10541   4.398   2.056   9.552 -0.1980  0.2635 -0.0960
  802MOL0     C10542   4.438   2.123   9.436 -0.6727  0.6146  0.3973
  802MOL0     C10543   4.422   2.062   9.314  0.0137 -0.3694 -0.2788
  802MOL0     C10544   4.445   2.127   9.197  0.0719  0.2174 -0.5240
  802MOL0     C10545   4.500   2.254   9.204  0.5173 -0.5761  0.0446
  802MOL0     O10546   4.539   2.309   9.079 -0.4962  0.4214  0.8139
  802MOL0     C10547   4.514   2.247   8.948 -0.0393 -0.1515 -0.3159
  802MOL0     C10548   4.551   2.328   8.824 -0.3826 -1.1318  0.1613
  802MOL0     C10549   4.442   2.432   8.781  0.5910 -0.0734 -0.2977
  802MOL0     C10550   4.457   2.571   8.854 -0.3251  0.8417 -0.3666
  802MOL0     C10551   4.431   2.681   8.757  0.6375  0.2735  0.4550
  802MOL0     C10552   4.437   2.825   8.819  0.3985  0.6077  0.1204
  802MOL0     C10553   4.392   2.926   8.724  0.3859  0.5282 -0.9441
  802MOL0     C10554   4.383   3.064   8.795 -0.2762 -1.0548  0.6168
  802MOL0     N10555   4.305   3.160   8.720  0.1044  0.0635  1.0215
  802MOL0     C10556   4.269   3.159   8.577 -0.3636  0.1426 -0.2653
  802MOL0     C10557   4.222   3.282   8.550  0.0417  0.8078 -0.2515
  802MOL0     C10558   4.165   3.319   8.416 -0.3304  0.0653 -0.4370
  802MOL0     C10559   4.229   3.462   8.383  0.3033  0.2997  0.5882
  802MOL0     C10560   4.167   3.514   8.253  0.5549 -0.4560 -0.1877
  802MOL0     C10561   4.214   3.444   8.126 -0.5096 -0.3364  0.1930
  802MOL0     O10562   4.122   3.338   8.093 -0.3520  0.2707 -0.6863
  802MOL0     C10563   4.149   3.282   7.967  0.7771 -0.2017 -0.3352
  802MOL0     C10564   4.114   3.357   7.864  0.6945 -0.5317  0.6714
  802MOL0     C10565   4.137   3.323   7.730  0.8590  0.8846  0.7649
  802MOL0     C10566   4.080   3.412   7.628 -0.4134 -0.4601  0.3681
  802MOL0     C10567   4.210   3.208   7.706 -0.1999 -0.9635  0.0353
  802MOL0     C10568   4.277   3.169   7.571  0.3625  0.5013  0.1788
  802MOL0     O10569   4.341   3.047   7.571  0.0900  0.1144  0.5116
  802MOL0     C10570   4.395   3.015   7.450 -0.6996  0.5092  0.0682
  802MOL0     C10571   4.307   2.978   7.347 -0.4036  0.2981 -0.0119
  802MOL0     C10572   4.360   2.956   7.222  0.1241 -0.6495  0.6342
  802MOL0     C10573   4.496   2.930   7.204 -0.5288  0.3530  0.5146
  802MOL0     O10574   4.542   2.874   7.088  0.7688  0.1361  0.1714
  802MOL0     C10575   4.624   2.955   7.013  0.4983  0.1158  0.9973
  802MOL0     C10576   4.630   2.910   6.865 -0.3377 -0.4351  0.2035
  802MOL0     C10577   4.721   3.001   6.793  0.9935  0.2388 -0.1534
  802MOL0     C10578   4.747   2.939   6.648  0.4041 -1.1079  0.6723
  802MOL0     C10579   4.793   3.063   6.571  0.2757  0.4786 -1.1712
  802MOL0     C10580   4.853   3.022   6.436  0.9701 -0.4997  0.1219
  802MOL0     C10581   5.007   3.043   6.430 -0.2180 -0.6601 -0.2136
  802MOL0     C10582   5.084   2.945   6.518  0.7260 -0.4921  0.1967
  802MOL0    Cl10583   5.062   2.771   6.468 -0.1410  0.3154 -0.3261
  802MOL0     C10584   4.591   2.967   7.307  0.4227  0.5999  0.3975
  802MOL0     C10585   4.531   3.014   7.423  0.3179 -0.7209  0.6587
  802MOL0     O10586   4.281   3.258   7.486  0.5692 -0.3415  0.8063
  802MOL0     C10587   4.240   3.120   7.812  0.3955  0.1027 -0.1378
  802MOL0     C10588   4.207   3.156   7.941 -0.6177 -0.8699 -0.4723
  802MOL0     N10589   4.221   3.360   8.659 -0.1715  0.0357 -0.9131
  802MOL0     N10590   4.279   3.290   8.756  0.7058  0.1095 -0.0450
  802MOL0     C10591   4.514   2.322   9.319  0.0454 -0.7386 -0.1678
  802MOL0     C10592   4.486   2.255   9.441  0.2571  0.1847 -0.1869
  802MOL0     C10593   4.479   1.922   9.750  0.2541 -1.0594 -0.4950
  802MOL0     C10594   4.371   1.966   9.819 -0.6091 -0.6729 -0.6870
  802MOL0     C10595   4.340   1.920   9.952  0.1276  0.6740 -0.0908
  802MOL0     C10596   4.425   1.822  10.016 -1.0397  0.4141 -0.0368
  802MOL0     O10597   4.395   1.784  10.146  0.2273  0.3302 -0.3561
  802MOL0     C10598   4.497   1.702  10.212  0.2647 -0.4743 -0.1944
  802MOL0     C10599   4.447   1.693  10.357 -0.2737 -0.0627 -0.7392
  802MOL0     C10600   4.513   1.567  10.421  0.0057 -0.2216  0.6310
  802MOL0     C10601   4.477   1.558  10.576  0.1518 -0.6511  1.0305
  802MOL0     C10602   4.540   1.670  10.644 -0.4840  0.6817 -0.3984
  802MOL0     C10603   4.616   1.753  10.696 -0.1318  0.5191  1.1164
  802MOL0     C10604   4.527   1.770   9.940 -0.0221  0.2281  0.0306
  802MOL0     C10605   4.551   1.809   9.807  0.0336  0.6904 -1.2493
  802MOL0     C10606   4.670   1.746   9.737  0.1477  0.0651 -0.2873
  802MOL0     H10607   4.386   1.959   9.317  2.1848 -1.1495  0.8739
  802MOL0     H10608   4.440   2.062   9.109  1.3986 -0.5398 -0.0583
  802MOL0     H10609   4.406   2.229   8.942 -0.3442  1.3453  0.2681
  802MOL0     H10610   4.568   2.152   8.942  0.0255 -0.1541  0.2514
  802MOL0     H10611   4.654   2.362   8.827 -0.1626 -0.6338 -4.8902
  802MOL0     H10612   4.557   2.258   8.741 -0.2772  0.8766 -1.5972
  802MOL0     H10613   4.431   2.441   8.672 -0.8600  1.0811 -0.0895
  802MOL0     H10614   4.347   2.385   8.810  0.9037 -2.6696 -2.9976
  802MOL0     H10615   4.390   2.582   8.941 -1.8443 -3.2849 -0.8097
  802MOL0     H10616   4.561   2.581   8.885 -0.2913 -1.1169  0.2857
  802MOL0     H10617   4.331   2.654   8.722  1.9253 -2.0012 -1.9259
  802MOL0     H10618   4.497   2.665   8.670 -0.6755 -0.7028 -0.3987
  802MOL0     H10619   4.362   2.828   8.899  0.8544 -0.1671  0.6004
  802MOL0     H10620   4.537   2.846   8.859 -0.2589  0.0742  2.1702
  802MOL0     H10621   4.290   2.898   8.698 -0.1524  0.0934  1.4881
  802MOL0     H10622   4.462   2.914   8.640 -1.5464 -0.9062 -2.4283
  802MOL0     H10623   4.340   3.068   8.896  0.8120  1.0859  1.0342
  802MOL0     H10624   4.482   3.108   8.809 -0.6614  1.7047 -3.6289
  802MOL0     H10625   4.276   3.078   8.504 -0.8708 -1.9382  1.8520
  802MOL0     H10626   4.056   3.329   8.424 -0.2139  1.7068 -0.5644
  802MOL0     H10627   4.187   3.241   8.343  5.2117  1.6260 -0.8650
  802MOL0     H10628   4.212   3.531   8.466  0.9390  0.5741  0.4964
  802MOL0     H10629   4.337   3.458   8.369  0.8276  1.9750  3.4076
  802MOL0     H10630   4.060   3.497   8.268  0.8794 -2.0578  0.5558
  802MOL0     H10631   4.184   3.622   8.250  2.4536 -0.5298  2.8542
  802MOL0     H10632   4.220   3.524   8.051 -1.2932 -0.2415  0.2251
  802MOL0     H10633   4.309   3.393   8.146 -1.4511 -2.0182  0.5390
  802MOL0     H10634   4.062   3.451   7.882 -4.4436 -2.4160 -2.2664
  802MOL0     H10635   3.996   3.465   7.676 -0.3786 -0.6603  0.6485
  802MOL0     H10636   4.055   3.357   7.537 -0.2333 -0.9975  0.6441
  802MOL0     H10637   4.166   3.474   7.603  0.7980 -1.3173  2.1732
  802MOL0     H10638   4.198   2.981   7.347 -0.4162  0.4715 -1.1071
  802MOL0     H10639   4.293   2.937   7.139  0.5768 -0.2541  0.1664
  802MOL0     H10640   4.588   3.059   7.010  3.0641  1.0737 -2.3152
  802MOL0     H10641   4.722   2.959   7.061  0.0322 -2.2983  2.2928
  802MOL0     H10642   4.671   2.809   6.869  3.4660  0.9426 -0.3718
  802MOL0     H10643   4.532   2.901   6.817  0.5762 -0.8521 -1.6475
  802MOL0     H10644   4.816   3.026   6.840  0.4269 -2.2561  2.6395
  802MOL0     H10645   4.667   3.096   6.791 -2.9664 -1.7648  0.3675
  802MOL0     H10646   4.658   2.903   6.596 -0.3193  1.3403  0.1101
  802MOL0     H10647   4.824   2.861   6.650  0.0140 -1.5723 -0.9476
  802MOL0     H10648   4.704   3.125   6.558 -0.9647 -1.0185 -0.2189
  802MOL0     H10649   4.863   3.121   6.632  2.3651  2.6813 -5.2565
  802MOL0     H10650   4.814   3.102   6.373 -1.9918 -1.3271  0.7568
  802MOL0     H10651   4.827   2.925   6.392 -2.0080 -0.3668  1.3855
  802MOL0     H10652   5.044   3.140   6.465  0.5570 -1.5490  1.5528
  802MOL0     H10653   5.040   3.028   6.327 -1.6864 -0.1049 -0.7884
  802MOL0     H10654   5.043   2.958   6.618  0.1658 -1.1184  0.0548
  802MOL0     H10655   5.188   2.978   6.524 -0.4766  3.5734  1.8995
  802MOL0     H10656   4.698   2.974   7.291  0.0303  3.3118 -1.6456
  802MOL0     H10657   4.591   3.043   7.508  0.8205 -1.2016  0.4724
  802MOL0     H10658   4.293   3.027   7.799  0.8209  0.3195  0.0409
  802MOL0     H10659   4.226   3.098   8.031  1.1744  2.9253  1.8537
  802MOL0     H10660   4.555   2.422   9.322  2.4259 -1.6616  2.3091
  802MOL0     H10661   4.495   2.303   9.538  2.0183 -1.8673  0.7328
  802MOL0     H10662   4.309   2.046   9.780 -1.4275 -1.2864 -0.6760
  802MOL0     H10663   4.270   1.977  10.013 -0.6191  1.8448 -1.9455
  802MOL0     H10664   4.492   1.603  10.167 -0.5814 -1.1832  1.3648
  802MOL0     H10665   4.599   1.742  10.216  0.7791 -1.7360 -0.4892
  802MOL0     H10666   4.339   1.678  10.358 -0.4839  0.5225  3.6832
  802MOL0     H10667   4.481   1.777  10.419  3.9833 -1.1117 -1.3431
  802MOL0     H10668   4.464   1.485  10.367 -0.8386 -0.4095  1.6545
  802MOL0     H10669   4.622   1.560  10.407 -0.2465 -4.2410 -0.6799
  802MOL0     H10670   4.500   1.460  10.619  1.1117 -2.0946 -2.4915
  802MOL0     H10671   4.368   1.568  10.573  0.2207 -0.1211 -1.1180
  802MOL0     H10672   4.663   1.840  10.737  1.1626 -0.1421  1.1107
  802MOL0     H10673   4.602   1.710   9.991 -0.1253 -1.0686 -1.2669
  802MOL0     H10674   4.730   1.693   9.811 -0.9664  0.7520  1.1738
  802MOL0     H10675   4.620   1.685   9.661 -1.1880  2.3829 -1.3812
  802MOL0     H10676   4.732   1.821   9.687 -1.5827  3.9007  2.7532
  803MOL0     O10677   5.580   6.868   3.916 -0.5845  0.2504 -0.2468
  803MOL0     C10678   5.577   6.765   3.852 -0.0439 -0.2511 -0.4385
  803MOL0     O10679   5.460   6.709   3.804  0.1266  0.5311 -0.0416
  803MOL0     C10680   5.336   6.785   3.806 -0.2250  0.0517  0.3643
  803MOL0     C10681   5.298   6.834   3.921  0.0015 -0.3128 -0.4264
  803MOL0     C10682   5.191   6.923   3.931 -0.3924 -0.2851 -0.2560
  803MOL0     C10683   5.108   6.942   3.820 -0.2233  0.3560  0.7849
  803MOL0     O10684   4.988   7.003   3.827  0.5123 -1.0153  0.0951
  803MOL0     C10685   4.915   7.010   3.954  0.6689 -0.5643 -0.1998
  803MOL0     C10686   4.766   7.015   3.935 -0.5578 -0.1910  0.7355
  803MOL0     C10687   4.690   7.045   4.062 -1.0987  0.7586 -0.1010
  803MOL0     C10688   4.723   6.936   4.166 -0.3428 -0.4648 -0.3824
  803MOL0     C10689   4.627   6.944   4.291 -0.7204 -0.0352 -0.7601
  803MOL0     C10690   4.566   7.077   4.339 -0.8837 -0.0666 -0.3109
  803MOL0     C10691   4.469   7.066   4.455 -0.9337 -0.2595  1.0024
  803MOL0     C10692   4.320   7.036   4.404 -0.0933  0.3085  0.4621
  803MOL0     N10693   4.235   6.989   4.516  0.3060 -0.7821 -0.4713
  803MOL0     C10694   4.169   7.078   4.602  0.0377 -0.0028 -0.5860
  803MOL0     C10695   4.088   6.996   4.680 -0.0509 -0.6208 -0.0784
  803MOL0     C10696   3.993   7.028   4.797  0.3213  0.0367 -1.1772
  803MOL0     C10697   3.893   7.129   4.758 -0.5930 -0.6185  0.6098
  803MOL0     C10698   3.759   7.077   4.696 -0.1503 -0.4587 -0.3712
  803MOL0     C10699   3.785   7.013   4.560  0.1515  0.2799  0.3465
  803MOL0     O10700   3.668   6.963   4.525  0.8521  0.6783 -0.3482
  803MOL0     C10701   3.584   7.046   4.448  0.4657  0.4107  0.3161
  803MOL0     C10702   3.463   6.998   4.403  1.3846 -0.7569 -1.1052
  803MOL0     C10703   3.366   7.078   4.340  0.1277 -0.9797 -0.7991
  803MOL0     C10704   3.244   7.001   4.288  0.3412 -0.0224 -0.3671
  803MOL0     C10705   3.388   7.216   4.308 -0.0057 -0.5554 -0.1096
  803MOL0     C10706   3.294   7.308   4.228  0.0190 -0.2447 -0.3809
  803MOL0     O10707   3.186   7.248   4.159  0.5044 -1.1411  0.2067
  803MOL0     C10708   3.100   7.317   4.073  0.1400 -0.1964  0.4173
  803MOL0     C10709   3.107   7.456   4.035  0.2932 -0.0588  1.1022
  803MOL0     C10710   2.996   7.510   3.968 -1.0251 -0.3148  0.6292
  803MOL0     C10711   2.892   7.428   3.922 -0.7074 -1.3003  0.1483
  803MOL0     O10712   2.780   7.458   3.847 -0.0317  0.3509  0.2924
  803MOL0     C10713   2.762   7.589   3.785 -1.2273 -0.7450  0.0778
  803MOL0     C10714   2.627   7.598   3.714 -0.2519  0.0385 -0.3821
  803MOL0     C10715   2.590   7.717   3.638  0.3691 -0.7329  0.6290
  803MOL0     C10716   2.604   7.853   3.713  0.3907 -0.1178  0.7536
  803MOL0     C10717   2.554   7.970   3.613 -0.5620 -0.6642  0.6824
  803MOL0     C10718   2.405   7.986   3.607  0.0562 -0.3890 -0.1959
  803MOL0     C10719   2.368   8.101   3.512  0.3159  0.2200  0.8370
  803MOL0     C10720   2.222   8.132   3.517  0.1335 -0.3046 -1.4087
  803MOL0    Cl10721   2.194   8.238   3.374 -0.4277 -0.5999 -0.6429
  803MOL0     C10722   2.893   7.292   3.957  0.4172  0.5396 -0.9097
  803MOL0     C10723   2.992   7.235   4.031 -0.3836  0.0890  0.4482
  803MOL0     O10724   3.323   7.426   4.223 -0.0532  0.4082  0.1595
  803MOL0     C10725   3.515   7.265   4.356 -0.3259 -0.7193 -0.0598
  803MOL0     C10726   3.609   7.184   4.426 -0.1974  0.1357 -0.2931
  803MOL0     N10727   4.102   6.870   4.637  0.4652  0.2699  0.6498
  803MOL0     N10728   4.191   6.856   4.546  0.2160 -0.3849  0.1430
  803MOL0     C10729   5.154   6.892   3.690  0.9013 -0.1214 -0.2059
  803MOL0     C10730   5.266   6.817   3.685 -0.1302  0.7795  0.1612
  803MOL0     C10731   5.709   6.722   3.802  0.7348  0.2609 -0.6393
  803MOL0     C10732   5.805   6.822   3.760  0.1362 -0.7332  0.6003
  803MOL0     C10733   5.934   6.792   3.710 -0.2639  0.3597 -0.3309
  803MOL0     C10734   5.970   6.661   3.707 -0.2593 -0.2877  0.6757
  803MOL0     O10735   6.089   6.625   3.648  0.0541  0.2112  0.6162
  803MOL0     C10736   6.196   6.589   3.741  0.2858  0.2346  0.2123
  803MOL0     C10737   6.259   6.695   3.833  0.0385  0.9250 -0.3009
  803MOL0     C10738   6.316   6.806   3.747  0.8457  0.4971  0.3739
  803MOL0     C10739   6.353   6.919   3.843  0.5063  0.1244 -0.1253
  803MOL0     C10740   6.466   6.890   3.932 -0.7833  0.2870 -0.2665
  803MOL0     C10741   6.555   6.868   4.013  0.3160  1.3488  0.6073
  803MOL0     C10742   5.879   6.562   3.752 -0.1649  0.2600  0.6054
  803MOL0     C10743   5.757   6.594   3.808  0.8028  0.2508 -0.3068
  803MOL0     C10744   5.664   6.478   3.832 -0.4223  0.6423  0.1393
  803MOL0     H10745   5.355   6.811   4.009 -0.5242 -0.8016 -0.2050
  803MOL0     H10746   5.178   6.980   4.023 -0.2526  0.4937 -0.7054
  803MOL0     H10747   4.945   7.093   4.018 -2.7669 -0.2419  1.2183
  803MOL0     H10748   4.934   6.916   4.008  1.0189 -0.2949  0.1470
  803MOL0     H10749   4.742   7.103   3.874 -0.9818 -1.1861 -0.5964
  803MOL0     H10750   4.719   6.928   3.888  2.1855 -0.6083 -1.4916
  803MOL0     H10751   4.715   7.149   4.088  2.7202  0.1934 -0.8756
  803MOL0     H10752   4.583   7.050   4.040 -0.6644 -0.3208 -2.8741
  803MOL0     H10753   4.690   6.842   4.121  0.6318 -1.8778  1.6862
  803MOL0     H10754   4.826   6.940   4.202 -0.4450 -1.6450  0.0624
  803MOL0     H10755   4.686   6.898   4.371  0.1199  1.4960 -0.4455
  803MOL0     H10756   4.539   6.885   4.264 -2.8642  2.3363  0.5845
  803MOL0     H10757   4.652   7.138   4.367  0.7665 -1.9953 -0.8595
  803MOL0     H10758   4.513   7.113   4.251  0.3968  0.9409 -0.6992
  803MOL0     H10759   4.477   7.168   4.493  0.1312 -0.0188  0.1849
  803MOL0     H10760   4.506   6.991   4.526  1.7938 -2.0594 -2.0397
  803MOL0     H10761   4.261   7.120   4.365 -0.5614 -0.0208  0.4468
  803MOL0     H10762   4.318   6.969   4.317 -1.5360  2.5699 -1.4010
  803MOL0     H10763   4.175   7.185   4.592 -0.5168 -0.0359 -1.3569
  803MOL0     H10764   4.049   7.070   4.881  1.8502 -0.4044 -1.9350
  803MOL0     H10765   3.955   6.930   4.827  1.2040 -0.0553 -0.3113
  803MOL0     H10766   3.872   7.176   4.854 -2.1805 -0.0376  0.0108
  803MOL0     H10767   3.944   7.200   4.692 -3.9632  1.8443  0.3688
  803MOL0     H10768   3.716   7.004   4.765  0.2504 -2.1937 -1.8960
  803MOL0     H10769   3.687   7.160   4.695  0.4489  0.0806 -1.5160
  803MOL0     H10770   3.831   7.073   4.480 -0.1895  0.8659  0.5802
  803MOL0     H10771   3.852   6.928   4.567 -0.2356 -0.0112  0.5465
  803MOL0     H10772   3.442   6.898   4.438 -0.5031  0.0281  0.2016
  803MOL0     H10773   3.149   7.051   4.306  0.1087 -0.7374  0.4307
  803MOL0     H10774   3.245   6.904   4.338 -3.3501  1.1811  2.4638
  803MOL0     H10775   3.252   6.978   4.182  1.2523  2.9071 -1.0168
  803MOL0     H10776   3.187   7.526   4.052  0.5724 -0.5298  1.7619
  803MOL0     H10777   3.000   7.616   3.948  1.8035 -0.1736  1.4094
  803MOL0     H10778   2.759   7.668   3.860 -0.4112  0.9384 -1.5824
  803MOL0     H10779   2.846   7.602   3.716 -1.4654  0.9754  0.0899
  803MOL0     H10780   2.610   7.508   3.655 -0.4626  1.1896 -2.1447
  803MOL0     H10781   2.555   7.609   3.796 -0.1081  1.9544 -0.4607
  803MOL0     H10782   2.483   7.715   3.616  0.8833 -1.7992 -2.2222
  803MOL0     H10783   2.638   7.716   3.540 -2.5263  1.1127 -0.9476
  803MOL0     H10784   2.708   7.864   3.747  0.1795  0.7979  1.1200
  803MOL0     H10785   2.538   7.842   3.799 -1.6764 -3.5402 -1.0382
  803MOL0     H10786   2.591   8.065   3.653  0.3180 -1.2703  1.3438
  803MOL0     H10787   2.592   7.959   3.512 -2.5320  0.3336 -0.2265
  803MOL0     H10788   2.364   8.003   3.707  0.7425 -1.4626  0.2934
  803MOL0     H10789   2.351   7.895   3.577  1.0379 -1.1306  0.2247
  803MOL0     H10790   2.394   8.076   3.409 -1.0800  3.0861 -0.3157
  803MOL0     H10791   2.427   8.190   3.536  2.0298 -0.1201 -1.7362
  803MOL0     H10792   2.214   8.179   3.616 -1.3570 -2.0074 -0.6541
  803MOL0     H10793   2.175   8.033   3.515  0.9470 -0.6981 -1.5864
  803MOL0     H10794   2.800   7.238   3.943  0.5866 -0.5772  1.7317
  803MOL0     H10795   2.995   7.130   4.055  0.9196 -0.7334 -2.8050
  803MOL0     H10796   3.540   7.367   4.327 -2.4157 -1.0368 -3.4421
  803MOL0     H10797   3.697   7.237   4.460  0.0116  0.8950 -1.9049
  803MOL0     H10798   5.098   6.923   3.603 -0.7783 -1.7727  0.2022
  803MOL0     H10799   5.288   6.767   3.592 -0.9382  0.2762  0.2255
  803MOL0     H10800   5.780   6.927   3.745  0.7919 -1.0821 -4.9936
  803MOL0     H10801   6.003   6.863   3.664  0.0024 -0.5009 -1.3030
  803MOL0     H10802   6.167   6.512   3.814 -2.6927  1.9393  0.9940
  803MOL0     H10803   6.286   6.557   3.687  0.4938  1.3678 -0.1246
  803MOL0     H10804   6.335   6.645   3.895 -0.4701  0.4918 -0.0200
  803MOL0     H10805   6.184   6.732   3.903  1.4164  0.4237  1.5189
  803MOL0     H10806   6.409   6.761   3.710  1.6985 -1.1737  4.1137
  803MOL0     H10807   6.248   6.842   3.669  1.0285  3.3858  1.4265
  803MOL0     H10808   6.259   6.952   3.889 -1.1166 -1.0883 -2.3586
  803MOL0     H10809   6.382   7.005   3.782 -2.6007  1.5045  0.1523
  803MOL0     H10810   6.646   6.837   4.061  0.9056 -1.6139 -2.0399
  803MOL0     H10811   5.911   6.459   3.767  2.3466  0.3848 -2.7791
  803MOL0     H10812   5.714   6.381   3.825 -1.2699  0.2350 -0.4984
  803MOL0     H10813   5.610   6.488   3.927  1.5602  2.3635  1.1519
  803MOL0     H10814   5.598   6.478   3.745  0.6445  1.3370 -0.6974
  804MOL0     O10815   5.394   2.521  11.060  0.2082  0.1463  0.2440
  804MOL0     C10816   5.327   2.463  11.147 -0.0862 -0.3944  0.5214
  804MOL0     O10817   5.370   2.367  11.229  0.4336  0.4582 -0.3119
  804MOL0     C10818   5.468   2.293  11.173  0.2329  0.3058  0.3761
  804MOL0     C10819   5.588   2.274  11.244 -0.3275 -0.2618 -0.7310
  804MOL0     C10820   5.680   2.181  11.198  0.0457  0.0421 -0.5199
  804MOL0     C10821   5.654   2.112  11.083 -0.9247 -0.8653  0.9167
  804MOL0     O10822   5.761   2.044  11.033  0.2167  0.2157 -0.1032
  804MOL0     C10823   5.771   2.047  10.892 -1.0844 -0.3689  1.1748
  804MOL0     C10824   5.916   2.032  10.854 -0.7550  0.0533  0.0967
  804MOL0     C10825   6.006   2.130  10.933 -0.4739 -0.9601  0.5496
  804MOL0     C10826   6.140   2.135  10.851 -0.2504  0.8811  0.6735
  804MOL0     C10827   6.246   2.209  10.941  1.0032  0.5763 -0.4316
  804MOL0     C10828   6.374   2.226  10.863 -0.4992  0.5995 -0.9256
  804MOL0     C10829   6.502   2.284  10.928  0.8458  0.0595 -0.1104
  804MOL0     C10830   6.566   2.202  11.042 -0.3293 -0.4672  0.6918
  804MOL0     N10831   6.487   2.194  11.168 -0.0760  0.6992  0.7133
  804MOL0     C10832   6.468   2.080  11.239 -0.3947 -0.2547 -0.1557
  804MOL0     C10833   6.425   2.110  11.361  0.0906 -0.1633  0.0656
  804MOL0     C10834   6.390   2.024  11.475  0.7830  0.9292  0.2126
  804MOL0     C10835   6.251   1.966  11.471  0.0271  0.7575  1.2993
  804MOL0     C10836   6.137   2.053  11.510  0.1120  0.5280  0.1207
  804MOL0     C10837   6.006   1.977  11.492 -0.4223 -0.5394  0.2353
  804MOL0     O10838   5.896   2.061  11.527  0.0493  0.2654  0.7390
  804MOL0     C10839   5.775   2.017  11.468  0.0196 -0.0263 -0.1497
  804MOL0     C10840   5.664   2.076  11.538 -0.2076 -0.2480  0.7248
  804MOL0     C10841   5.526   2.037  11.508  0.5509  0.2214 -0.1952
  804MOL0     C10842   5.416   2.118  11.577  0.5377  0.3720 -0.4532
  804MOL0     C10843   5.499   1.937  11.411 -0.0738  0.6431  0.9407
  804MOL0     C10844   5.366   1.882  11.368 -0.4589  0.3732 -0.2786
  804MOL0     O10845   5.257   1.948  11.408  0.7532 -0.9213  0.4374
  804MOL0     C10846   5.138   1.876  11.420 -0.3002 -0.4236 -0.3497
  804MOL0     C10847   5.125   1.762  11.507 -0.4257  1.0954 -1.1497
  804MOL0     C10848   5.003   1.718  11.557  0.1071 -0.8955  0.0964
  804MOL0     C10849   4.888   1.793  11.534 -0.6999 -0.6268  0.7237
  804MOL0     O10850   4.777   1.774  11.612  0.5915 -0.0335 -0.3664
  804MOL0     C10851   4.754   1.671  11.713 -0.1687 -0.6768 -0.7663
  804MOL0     C10852   4.619   1.694  11.781 -0.0885 -0.4071 -0.7089
  804MOL0     C10853   4.633   1.811  11.891  0.1851  0.8899 -1.0148
  804MOL0     C10854   4.499   1.845  11.961  0.5031 -0.3623  0.2926
  804MOL0     C10855   4.505   1.928  12.092 -0.4780 -0.1186 -0.3280
  804MOL0     C10856   4.368   1.963  12.144  0.4085 -0.1212  0.5599
  804MOL0     C10857   4.363   2.042  12.275 -0.7930  0.4322 -0.5240
  804MOL0     C10858   4.372   1.958  12.405  1.0995  0.9012  0.2523
  804MOL0    Cl10859   4.525   1.867  12.428  0.4604 -0.2313  0.4507
  804MOL0     C10860   4.887   1.897  11.436 -1.0085  0.0782 -0.1593
  804MOL0     C10861   5.017   1.927  11.386 -0.0081 -0.1568  0.2439
  804MOL0     O10862   5.360   1.768  11.322 -0.8459  0.1776 -0.6986
  804MOL0     C10863   5.608   1.880  11.345 -0.4394  0.2956  0.0700
  804MOL0     C10864   5.742   1.924  11.363  0.0959  0.5866  0.1917
  804MOL0     N10865   6.400   2.253  11.362  0.6349  1.0348  0.5258
  804MOL0     N10866   6.441   2.296  11.243 -0.2270 -1.2501  0.1385
  804MOL0     C10867   5.527   2.113  11.022  0.6631 -0.9564  0.1864
  804MOL0     C10868   5.435   2.206  11.067 -0.1583 -0.0273 -0.0432
  804MOL0     C10869   5.185   2.509  11.156 -0.1050 -0.1357 -1.0054
  804MOL0     C10870   5.139   2.612  11.070 -0.8444 -1.0587  0.7304
  804MOL0     C10871   5.018   2.667  11.084  0.7951  0.2449 -0.6817
  804MOL0     C10872   4.931   2.623  11.192 -0.0470  0.0488 -0.4942
  804MOL0     O10873   4.812   2.694  11.219 -0.2203  0.4947 -0.1118
  804MOL0     C10874   4.785   2.831  11.193 -0.2877 -0.2586 -0.0315
  804MOL0     C10875   4.645   2.848  11.136 -0.7463  0.2996 -0.0563
  804MOL0     C10876   4.524   2.813  11.228  0.0346 -0.3561  0.6490
  804MOL0     C10877   4.476   2.920  11.321  0.3180  0.1992  0.0490
  804MOL0     C10878   4.379   2.866  11.408 -0.3346  0.6156 -0.9621
  804MOL0     C10879   4.301   2.822  11.490  0.5884  0.0262  0.0275
  804MOL0     C10880   4.964   2.513  11.262  0.6365  1.3018 -0.3170
  804MOL0     C10881   5.094   2.468  11.258  0.0708  1.7844  0.7822
  804MOL0     C10882   5.118   2.356  11.358  0.0512  0.0691  0.2036
  804MOL0     H10883   5.614   2.341  11.325  0.9697  0.2320 -1.5338
  804MOL0     H10884   5.784   2.169  11.226  1.1208 -1.0231 -4.4491
  804MOL0     H10885   5.732   2.147  10.870 -0.4834 -0.2190  0.7579
  804MOL0     H10886   5.708   1.972  10.844  0.2704 -0.5576 -0.3764
  804MOL0     H10887   5.947   1.930  10.878 -0.1767  0.4469  1.0927
  804MOL0     H10888   5.930   2.065  10.751 -0.0765 -1.7374 -0.4128
  804MOL0     H10889   5.978   2.235  10.938  2.1305 -0.2308  3.1311
  804MOL0     H10890   6.031   2.097  11.035  2.6093  2.9987  1.3764
  804MOL0     H10891   6.180   2.034  10.835 -1.5959  0.4805 -0.2317
  804MOL0     H10892   6.120   2.175  10.752 -2.3434 -0.6082  0.4430
  804MOL0     H10893   6.261   2.158  11.036  1.0955  4.7860  2.0559
  804MOL0     H10894   6.204   2.305  10.972 -0.3628  0.0335 -0.4903
  804MOL0     H10895   6.411   2.125  10.844  0.8026  1.0007 -0.6368
  804MOL0     H10896   6.344   2.267  10.767 -1.0219  1.3724 -0.4427
  804MOL0     H10897   6.461   2.379  10.964 -1.0734 -1.5882  2.4000
  804MOL0     H10898   6.583   2.304  10.857  0.2351  0.6607 -0.6594
  804MOL0     H10899   6.593   2.101  11.014 -1.5656 -0.6807  0.1829
  804MOL0     H10900   6.658   2.258  11.060  0.6717 -1.4863 -1.0025
  804MOL0     H10901   6.478   1.975  11.216 -1.2055 -0.1530 -1.0323
  804MOL0     H10902   6.392   2.089  11.563  4.9904  2.1554 -0.5743
  804MOL0     H10903   6.468   1.949  11.487  0.5352  0.4170 -1.2116
  804MOL0     H10904   6.233   1.938  11.367  1.0430  0.6010  1.1496
  804MOL0     H10905   6.261   1.880  11.538  1.4051  0.5793  0.9094
  804MOL0     H10906   6.142   2.081  11.615  0.4455  1.4698 -0.1403
  804MOL0     H10907   6.143   2.138  11.442  2.9847  2.9422  3.1267
  804MOL0     H10908   6.003   1.961  11.383 -1.0228  0.1114  0.1543
  804MOL0     H10909   6.009   1.881  11.544 -1.3985 -1.0319 -0.5778
  804MOL0     H10910   5.698   2.149  11.612  2.6327  0.3090 -0.9800
  804MOL0     H10911   5.470   2.190  11.638 -0.4033  0.3885  0.4002
  804MOL0     H10912   5.362   2.053  11.647 -0.8629  1.4559 -0.4976
  804MOL0     H10913   5.344   2.150  11.501  3.5858  1.1139 -3.2110
  804MOL0     H10914   5.221   1.723  11.539 -0.9279 -1.6270 -2.6385
  804MOL0     H10915   5.013   1.638  11.630 -0.1496 -0.8751  0.1584
  804MOL0     H10916   4.735   1.578  11.659 -3.2365  0.6777 -2.2220
  804MOL0     H10917   4.831   1.654  11.790  0.5511  2.6733 -0.5991
  804MOL0     H10918   4.554   1.735  11.703  0.2582  1.5712 -0.0105
  804MOL0     H10919   4.581   1.597  11.816  0.8612 -1.6686 -2.9424
  804MOL0     H10920   4.684   1.886  11.830  1.6842 -0.0388 -0.9654
  804MOL0     H10921   4.701   1.781  11.972  2.0688 -0.1731 -2.8866
  804MOL0     H10922   4.452   1.750  11.989 -0.4419 -0.0848 -0.3390
  804MOL0     H10923   4.424   1.884  11.892 -0.4972 -1.1268  0.9175
  804MOL0     H10924   4.572   1.876  12.162 -3.4171 -0.0822  2.7913
  804MOL0     H10925   4.560   2.021  12.075 -1.5613  0.2782 -1.8531
  804MOL0     H10926   4.313   1.869  12.158  2.7207 -1.4259  1.5994
  804MOL0     H10927   4.317   2.030  12.075  1.2787  0.4772  0.4751
  804MOL0     H10928   4.263   2.088  12.278  0.8823  4.6225 -2.0836
  804MOL0     H10929   4.431   2.127  12.284 -0.2042 -0.2500  2.5978
  804MOL0     H10930   4.283   1.896  12.411  0.7909  1.1283 -1.3351
  804MOL0     H10931   4.361   2.026  12.489  0.7816 -1.5133  2.2644
  804MOL0     H10932   4.795   1.947  11.410 -0.0141  1.9654 -0.2639
  804MOL0     H10933   5.018   2.011  11.316  1.3529  1.1889  1.7860
  804MOL0     H10934   5.597   1.819  11.256 -1.3088 -0.1880  0.5012
  804MOL0     H10935   5.816   1.868  11.307  0.4857  0.4628  0.8157
  804MOL0     H10936   5.508   2.039  10.945  2.3675 -0.8392 -0.3968
  804MOL0     H10937   5.338   2.213  11.018 -0.6931  1.5502  1.1150
  804MOL0     H10938   5.204   2.648  10.991  0.7022  1.7549  3.0557
  804MOL0     H10939   4.993   2.748  11.016  1.6334  0.2432 -0.9937
  804MOL0     H10940   4.798   2.887  11.286 -1.7430  4.5040 -2.3597
  804MOL0     H10941   4.855   2.874  11.120 -1.3207  0.6719 -0.4987
  804MOL0     H10942   4.642   2.780  11.051 -0.6669 -2.6866  2.1719
  804MOL0     H10943   4.643   2.953  11.104  1.7298  0.8622  1.3698
  804MOL0     H10944   4.443   2.776  11.164 -1.5357  2.1797  1.0252
  804MOL0     H10945   4.565   2.727  11.283 -0.1899 -2.0895 -1.7270
  804MOL0     H10946   4.426   3.007  11.276 -1.3487 -1.2203 -1.0120
  804MOL0     H10947   4.555   2.961  11.384  0.2804  1.5562 -0.7332
  804MOL0     H10948   4.250   2.765  11.566 -0.9014 -3.2074 -3.0660
  804MOL0     H10949   4.890   2.463  11.323  1.9167  0.2413  0.4243
  804MOL0     H10950   5.026   2.328  11.409  0.5958  1.9074  2.3666
  804MOL0     H10951   5.132   2.264  11.301 -2.9984 -0.7713  0.6602
  804MOL0     H10952   5.192   2.376  11.437 -2.6322  2.6587  2.2562
  805MOL0     O10953   8.375   3.922   1.219 -0.3274  0.3346 -0.6854
  805MOL0     C10954   8.384   4.040   1.184  0.8829 -0.1528  0.5976
  805MOL0     O10955   8.460   4.128   1.245 -0.3894 -0.0086  0.3346
  805MOL0     C10956   8.501   4.107   1.371  0.5776 -0.4034 -0.2067
  805MOL0     C10957   8.431   4.150   1.478 -0.0202  0.0063  0.4674
  805MOL0     C10958   8.485   4.137   1.613  0.6530 -0.2233  0.5466
  805MOL0     C10959   8.610   4.078   1.630  0.0485 -0.1443  0.1004
  805MOL0     O10960   8.660   4.050   1.759  0.3927  0.7248  0.2908
  805MOL0     C10961   8.796   4.069   1.799 -0.4015 -0.4621  0.2762
  805MOL0     C10962   8.809   4.224   1.811 -0.4771  1.0172  0.1990
  805MOL0     C10963   8.688   4.273   1.884  0.0782  0.2206 -0.4431
  805MOL0     C10964   8.712   4.405   1.961  1.2404 -0.1609  0.3718
  805MOL0     C10965   8.584   4.482   1.989 -0.0219 -0.0053 -0.6764
  805MOL0     C10966   8.595   4.587   2.095  0.1228  0.4645  0.3317
  805MOL0     C10967   8.697   4.684   2.070 -0.8550  0.4514 -0.6461
  805MOL0     C10968   8.683   4.804   2.165  0.8492  0.4798 -0.5313
  805MOL0     N10969   8.562   4.887   2.140 -0.4177  0.2110  0.4554
  805MOL0     C10970   8.431   4.859   2.187 -0.5513 -0.4746 -0.6170
  805MOL0     C10971   8.349   4.963   2.143 -0.2823 -0.2477 -0.5555
  805MOL0     C10972   8.202   4.975   2.182 -0.3248  0.3754  0.2265
  805MOL0     C10973   8.141   5.108   2.166 -0.5290  0.2011  0.2679
  805MOL0     C10974   8.200   5.230   2.233 -0.0839  0.2462 -1.0329
  805MOL0     C10975   8.234   5.217   2.379  0.5291  0.0567  0.5084
  805MOL0     O10976   8.364   5.157   2.387  0.1995 -0.4234  0.2996
  805MOL0     C10977   8.450   5.214   2.477  0.1795 -0.4232  0.2353
  805MOL0     C10978   8.430   5.284   2.601 -0.5839  0.1936 -0.0122
  805MOL0     C10979   8.537   5.340   2.679  0.6649  0.2401 -0.2477
  805MOL0     C10980   8.508   5.398   2.816 -0.1267  0.6904 -0.4705
  805MOL0     C10981   8.664   5.321   2.623 -0.0400 -0.0899  0.0641
  805MOL0     C10982   8.787   5.358   2.700 -0.0445 -0.3993 -1.0287
  805MOL0     O10983   8.892   5.276   2.710  0.0526  0.1425  0.2392
  805MOL0     C10984   8.877   5.143   2.707  0.5211  0.0584  1.4125
  805MOL0     C10985   8.772   5.069   2.767  0.9314 -0.0055  0.3566
  805MOL0     C10986   8.763   4.931   2.765 -0.1578 -0.0577 -1.0613
  805MOL0     C10987   8.860   4.863   2.702 -0.6534 -0.1006  0.8221
  805MOL0     O10988   8.868   4.732   2.702 -0.2157  0.5006  0.2090
  805MOL0     C10989   8.743   4.672   2.684 -0.2108  0.7713 -0.1427
  805MOL0     C10990   8.747   4.532   2.626 -0.4106  0.9340  0.3157
  805MOL0     C10991   8.825   4.547   2.496 -0.9910 -0.9753 -1.0491
  805MOL0     C10992   8.872   4.407   2.443 -0.8833  0.2559 -0.0601
  805MOL0     C10993   8.971   4.420   2.329  0.1871 -0.0187  1.0471
  805MOL0     C10994   9.045   4.299   2.288 -0.9801 -0.3864  0.9231
  805MOL0     C10995   8.975   4.168   2.304  0.7695  1.0834  0.5855
  805MOL0     C10996   9.060   4.050   2.250 -0.0622  0.4291  1.1916
  805MOL0    Cl10997   9.068   4.020   2.072  0.0638 -0.2050  0.3820
  805MOL0     C10998   8.967   4.925   2.640 -0.7462 -0.7668 -0.2408
  805MOL0     C10999   8.978   5.070   2.645 -0.1480  0.6009 -0.4673
  805MOL0     O11000   8.793   5.474   2.739 -1.0053  0.2063  0.2502
  805MOL0     C11001   8.688   5.251   2.503 -0.7949 -1.0791 -0.2313
  805MOL0     C11002   8.584   5.199   2.428 -0.3753  0.0113  0.4360
  805MOL0     N11003   8.429   5.043   2.065 -0.3036  0.7059  0.7073
  805MOL0     N11004   8.550   5.002   2.058  0.3286  0.7146 -0.1139
  805MOL0     C11005   8.683   4.032   1.512 -0.8294 -0.8241  0.7254
  805MOL0     C11006   8.630   4.053   1.389 -0.2317 -1.1998 -0.3734
  805MOL0     C11007   8.298   4.082   1.075  0.1965  0.1239  0.1773
  805MOL0     C11008   8.172   4.022   1.066 -0.3982  0.1858  0.6776
  805MOL0     C11009   8.087   4.050   0.958 -1.0084  0.1180 -0.7876
  805MOL0     C11010   8.109   4.148   0.867 -0.2764 -1.0379  0.1793
  805MOL0     O11011   8.023   4.181   0.771  0.0802 -0.3813 -0.3068
  805MOL0     C11012   7.905   4.240   0.820 -0.6117  0.1891 -0.5723
  805MOL0     C11013   7.879   4.370   0.735  0.6421  0.9135  0.3102
  805MOL0     C11014   7.911   4.348   0.585  0.3464  0.0380  0.0283
  805MOL0     C11015   7.842   4.449   0.484 -0.3227  0.7803 -0.7780
  805MOL0     C11016   7.702   4.418   0.478  0.1954 -0.3414  0.0531
  805MOL0     C11017   7.587   4.388   0.485  0.4660  0.3593  0.1764
  805MOL0     C11018   8.243   4.204   0.869 -0.3173  0.0216  0.7141
  805MOL0     C11019   8.336   4.165   0.963 -0.0764 -0.0731 -0.3124
  805MOL0     C11020   8.470   4.237   0.944 -0.8270  0.0613  0.3912
  805MOL0     H11021   8.344   4.213   1.470 -0.8191 -0.8293  2.1779
  805MOL0     H11022   8.432   4.167   1.703  1.7051  0.7817  0.8496
  805MOL0     H11023   8.859   4.047   1.712  0.7197  2.6953  0.1360
  805MOL0     H11024   8.820   4.023   1.895 -1.9545  0.4173  1.1320
  805MOL0     H11025   8.901   4.242   1.868 -0.7196 -2.0845  1.7699
  805MOL0     H11026   8.820   4.271   1.713 -3.4120  0.7873 -0.3304
  805MOL0     H11027   8.599   4.277   1.822 -0.6775  1.7391  0.6957
  805MOL0     H11028   8.669   4.204   1.967  5.2313 -0.4849  0.5118
  805MOL0     H11029   8.765   4.397   2.056  1.1684  1.4171  0.5630
  805MOL0     H11030   8.771   4.477   1.903  1.9539 -0.1208  1.1253
  805MOL0     H11031   8.508   4.412   2.024  1.0547  0.2523  2.4825
  805MOL0     H11032   8.551   4.530   1.896 -0.2755 -0.3423 -0.7641
  805MOL0     H11033   8.495   4.633   2.099 -1.6379 -2.7323 -1.9548
  805MOL0     H11034   8.615   4.539   2.191 -0.8786 -1.6196 -0.4459
  805MOL0     H11035   8.684   4.737   1.975  1.7853  2.1048 -0.1827
  805MOL0     H11036   8.800   4.647   2.080 -0.5028  1.2954 -1.0147
  805MOL0     H11037   8.670   4.763   2.266 -1.2877 -1.0443 -1.3514
  805MOL0     H11038   8.774   4.864   2.154  0.2692  1.5814  0.4222
  805MOL0     H11039   8.398   4.779   2.252  1.2713 -1.7562 -1.1788
  805MOL0     H11040   8.185   4.950   2.287 -2.3307 -2.1042 -0.5692
  805MOL0     H11041   8.154   4.895   2.124  0.1469  1.2200 -1.3980
  805MOL0     H11042   8.141   5.124   2.058  0.2241 -2.1161 -0.1313
  805MOL0     H11043   8.032   5.110   2.178 -0.6686 -0.8005 -0.6592
  805MOL0     H11044   8.290   5.260   2.177  1.6795 -3.1641 -0.2943
  805MOL0     H11045   8.129   5.313   2.236  1.8209  1.9617  1.9364
  805MOL0     H11046   8.235   5.319   2.419 -0.6904  0.7640 -1.1163
  805MOL0     H11047   8.155   5.158   2.426 -2.1060  2.1468 -0.9756
  805MOL0     H11048   8.325   5.296   2.629 -0.3309 -1.9561  2.1502
  805MOL0     H11049   8.531   5.504   2.829 -0.4364  0.5791  1.1794
  805MOL0     H11050   8.568   5.342   2.889 -0.6016  1.6579  0.6987
  805MOL0     H11051   8.400   5.387   2.833 -0.4290  2.6190 -0.9871
  805MOL0     H11052   8.687   5.115   2.816 -1.3401 -0.1387 -3.1474
  805MOL0     H11053   8.698   4.873   2.829 -1.1453  1.7912 -0.2862
  805MOL0     H11054   8.696   4.666   2.783  1.7030  0.0514  0.7813
  805MOL0     H11055   8.677   4.730   2.619 -0.9062 -0.5535 -0.6459
  805MOL0     H11056   8.796   4.456   2.689 -0.5668  0.4331 -0.1589
  805MOL0     H11057   8.645   4.503   2.599 -0.2688  0.7265 -0.0012
  805MOL0     H11058   8.912   4.613   2.507 -1.2720 -0.9105  1.1402
  805MOL0     H11059   8.756   4.589   2.422  0.4555  2.7994 -0.4946
  805MOL0     H11060   8.787   4.351   2.402  1.1015 -1.5169 -1.9979
  805MOL0     H11061   8.920   4.346   2.521 -1.2028  1.3893  1.0678
  805MOL0     H11062   8.918   4.443   2.236 -0.9139  0.5815  1.8088
  805MOL0     H11063   9.045   4.499   2.346 -0.4230  0.8689 -0.2583
  805MOL0     H11064   9.142   4.300   2.338 -1.0464  0.2271  1.0544
  805MOL0     H11065   9.073   4.300   2.183  0.0302  0.6183  1.1827
  805MOL0     H11066   8.885   4.168   2.242  0.0810  1.0334  1.5556
  805MOL0     H11067   8.954   4.153   2.410 -1.5175  1.6771  0.2774
  805MOL0     H11068   9.032   3.960   2.305 -3.2104 -0.0163 -0.8401
  805MOL0     H11069   9.163   4.073   2.278  0.3407 -0.3949  0.4594
  805MOL0     H11070   9.049   4.873   2.591  1.2846  0.5593  1.5581
  805MOL0     H11071   9.054   5.125   2.590 -2.1616  4.5621  0.3214
  805MOL0     H11072   8.788   5.234   2.466 -1.1678 -0.4084 -1.6356
  805MOL0     H11073   8.598   5.158   2.328 -3.8504  1.7662 -0.9347
  805MOL0     H11074   8.789   4.015   1.525  0.1596  2.9426 -1.0371
  805MOL0     H11075   8.707   4.040   1.313  1.4279 -0.1505  1.0439
  805MOL0     H11076   8.127   3.954   1.138  0.9568 -3.3544 -1.5159
  805MOL0     H11077   7.990   4.002   0.952 -0.5850 -0.5607 -3.1515
  805MOL0     H11078   7.823   4.169   0.810 -0.4365  0.1622 -2.1401
  805MOL0     H11079   7.911   4.270   0.925 -0.6905 -0.4064 -0.3970
  805MOL0     H11080   7.941   4.451   0.772  3.1034 -1.2630  1.3034
  805MOL0     H11081   7.774   4.400   0.739 -0.3339 -2.1810  1.0848
  805MOL0     H11082   8.020   4.341   0.576  0.2942 -1.5186  0.2496
  805MOL0     H11083   7.868   4.249   0.567  0.6341 -0.4836  2.0611
  805MOL0     H11084   7.877   4.434   0.382  2.1245 -0.7670  0.2096
  805MOL0     H11085   7.848   4.553   0.518 -0.7369  1.1447 -1.7915
  805MOL0     H11086   7.484   4.358   0.489 -0.2175  2.3124 -1.1640
  805MOL0     H11087   8.278   4.269   0.790 -1.6466 -1.6184 -1.3632
  805MOL0     H11088   8.546   4.159   0.952  1.2663  1.8413 -0.8343
  805MOL0     H11089   8.491   4.290   0.850  3.7784 -1.4735  0.3122
  805MOL0     H11090   8.489   4.292   1.037 -1.4078 -2.5256  2.1362
  806MOL0     O11091   6.128   8.190   6.735 -0.6942  0.4607  0.2801
  806MOL0     C11092   6.059   8.173   6.634  0.7766  1.3687  0.4399
  806MOL0     O11093   6.102   8.179   6.509 -0.1261  0.3583 -0.0556
  806MOL0     C11094   6.229   8.220   6.480  0.0291 -0.4931 -0.4332
  806MOL0     C11095   6.253   8.333   6.412 -0.9526  0.9466 -0.3261
  806MOL0     C11096   6.386   8.380   6.386 -0.8041  0.8312  0.0557
  806MOL0     C11097   6.492   8.310   6.452 -0.6008 -0.5564 -0.7336
  806MOL0     O11098   6.615   8.352   6.415 -0.0177 -0.0645  0.6303
  806MOL0     C11099   6.728   8.271   6.454  0.0967 -0.3685 -0.2295
  806MOL0     C11100   6.850   8.310   6.365 -0.7148 -0.2527  0.8819
  806MOL0     C11101   6.985   8.232   6.384  0.5948 -0.1535  0.3289
  806MOL0     C11102   6.984   8.087   6.334  0.0841  0.7724  0.3382
  806MOL0     C11103   7.125   8.022   6.337 -0.1726  0.2314  0.1927
  806MOL0     C11104   7.179   8.020   6.482  0.9423  0.6144 -0.2706
  806MOL0     C11105   7.086   7.969   6.589 -0.3812 -0.0285 -0.9709
  806MOL0     C11106   7.158   7.996   6.727  0.0373  0.5069  0.4391
  806MOL0     N11107   7.151   8.140   6.762  0.7329  0.7059  0.0176
  806MOL0     C11108   7.042   8.213   6.796 -0.5658  1.0505  0.9467
  806MOL0     C11109   7.090   8.333   6.831  0.0171  0.2081 -0.5765
  806MOL0     C11110   7.003   8.458   6.876  0.2395 -0.0148 -0.0346
  806MOL0     C11111   7.086   8.562   6.952  0.2706 -0.3662  0.3538
  806MOL0     C11112   7.206   8.618   6.868 -0.2649 -0.4376 -0.3840
  806MOL0     C11113   7.237   8.771   6.883  0.0701 -0.0981  1.2665
  806MOL0     O11114   7.129   8.859   6.833  0.3032  0.1276  0.7069
  806MOL0     C11115   7.162   8.990   6.808 -0.3502 -0.0971  0.3212
  806MOL0     C11116   7.151   9.042   6.680  0.0357 -0.8839 -0.0951
  806MOL0     C11117   7.164   9.180   6.661 -0.2513 -0.3186 -0.4647
  806MOL0     C11118   7.159   9.246   6.527  0.3901  0.2144 -0.9404
  806MOL0     C11119   7.198   9.266   6.773 -0.1736 -0.5474 -0.5331
  806MOL0     C11120   7.210   9.415   6.782  0.3617 -0.5262 -0.8819
  806MOL0     O11121   7.170   9.468   6.899 -0.8199 -0.1994 -0.7555
  806MOL0     C11122   7.169   9.602   6.917 -0.3576  0.1795  0.0499
  806MOL0     C11123   7.060   9.683   6.912 -0.6915 -0.0923 -0.7301
  806MOL0     C11124   7.065   9.810   6.970 -0.8654  0.4230 -0.1951
  806MOL0     C11125   7.188   9.869   7.015 -0.6293  0.0837 -1.0052
  806MOL0     O11126   7.192   9.990   7.076  0.4567 -0.2019  0.1127
  806MOL0     C11127   7.306  10.082   7.068 -0.6116 -0.3685  0.5779
  806MOL0     C11128   7.353  10.129   6.925 -0.8852 -0.1645 -0.4721
  806MOL0     C11129   7.482  10.186   6.902 -0.2034  0.2443 -0.1561
  806MOL0     C11130   7.601  10.102   6.949  0.1110 -0.1688  0.4791
  806MOL0     C11131   7.714  10.196   6.974 -0.1956 -0.4838 -0.8024
  806MOL0     C11132   7.720  10.316   6.872  0.5143 -0.1019  0.4650
  806MOL0     C11133   7.847  10.403   6.895  0.3950  0.4244  1.1442
  806MOL0     C11134   7.836  10.541   6.825 -0.1481  0.4475 -0.5939
  806MOL0    Cl11135   7.840  10.528   6.649 -0.1370 -0.0194  0.1213
  806MOL0     C11136   7.302   9.797   7.004  0.3329  1.3446  0.0665
  806MOL0     C11137   7.291   9.667   6.948 -0.4549  0.3107 -0.9240
  806MOL0     O11138   7.267   9.482   6.692  0.1551 -0.0460  1.4036
  806MOL0     C11139   7.213   9.202   6.901 -0.3330 -0.9152  0.4499
  806MOL0     C11140   7.202   9.066   6.917  0.2053  0.2494  0.0862
  806MOL0     N11141   7.222   8.321   6.837 -0.4227 -0.1616  0.0911
  806MOL0     N11142   7.260   8.206   6.799  0.1575 -0.6707  0.2174
  806MOL0     C11143   6.463   8.198   6.538 -0.0036 -0.0003 -0.0807
  806MOL0     C11144   6.330   8.154   6.549  0.0466  0.4734  0.1610
  806MOL0     C11145   5.911   8.187   6.643  0.2501  0.8738 -0.8422
  806MOL0     C11146   5.862   8.275   6.738 -0.3898 -0.1383 -0.6708
  806MOL0     C11147   5.726   8.295   6.746  0.1412  0.1061  0.2673
  806MOL0     C11148   5.628   8.237   6.667 -0.0830 -1.1088  0.2500
  806MOL0     O11149   5.494   8.249   6.687 -0.6705 -0.5706  0.2681
  806MOL0     C11150   5.395   8.252   6.594  0.7032 -0.1719  0.1432
  806MOL0     C11151   5.248   8.257   6.648  0.2914 -0.2174  0.7968
  806MOL0     C11152   5.129   8.224   6.559  0.3335 -0.8368 -0.0518
  806MOL0     C11153   5.113   8.090   6.503 -0.5303  0.3624 -0.4029
  806MOL0     C11154   5.010   8.103   6.404  0.9603  0.6466 -0.5201
  806MOL0     C11155   4.919   8.112   6.320  0.5060 -0.4954  0.0262
  806MOL0     C11156   5.681   8.150   6.567 -0.7540  0.1855  0.3110
  806MOL0     C11157   5.826   8.128   6.557 -0.0158  0.1667  0.9574
  806MOL0     C11158   5.877   8.025   6.459 -0.3134  0.9055  0.7769
  806MOL0     H11159   6.180   8.393   6.358 -1.0149  0.4786 -0.7776
  806MOL0     H11160   6.414   8.465   6.326  1.1472  2.0346  2.5169
  806MOL0     H11161   6.719   8.165   6.430  1.3373 -0.1066 -1.9669
  806MOL0     H11162   6.752   8.277   6.561 -0.3115  1.0142 -0.2057
  806MOL0     H11163   6.818   8.304   6.260 -1.1239 -0.6328  1.0262
  806MOL0     H11164   6.859   8.419   6.373 -0.1606 -0.4331  4.0999
  806MOL0     H11165   7.049   8.292   6.318  1.9810 -0.1221  1.6264
  806MOL0     H11166   7.022   8.246   6.486 -0.1136  1.6955  0.3717
  806MOL0     H11167   6.908   8.030   6.389 -0.0884  2.2227  1.6752
  806MOL0     H11168   6.945   8.081   6.232 -0.7318 -2.4905  0.7007
  806MOL0     H11169   7.193   8.078   6.272 -0.3856  2.3171  1.6667
  806MOL0     H11170   7.119   7.921   6.297  1.3097 -0.1573  0.8812
  806MOL0     H11171   7.263   7.949   6.480 -0.7509 -1.4792 -0.7337
  806MOL0     H11172   7.216   8.118   6.515  1.5266  1.2803 -2.6461
  806MOL0     H11173   7.064   7.862   6.579 -0.7657  0.1332 -1.8971
  806MOL0     H11174   6.987   8.016   6.585 -1.2840 -1.8104 -0.7484
  806MOL0     H11175   7.112   7.932   6.802 -2.9226  2.2425  0.2543
  806MOL0     H11176   7.264   7.977   6.709  0.2971  2.0264  0.1599
  806MOL0     H11177   6.937   8.187   6.813 -0.0724 -0.9207  1.2241
  806MOL0     H11178   6.929   8.427   6.950  3.5448 -1.5849  2.9124
  806MOL0     H11179   6.964   8.510   6.788  1.2774 -1.6670 -1.5475
  806MOL0     H11180   7.019   8.645   6.975  2.7876  1.5584  1.2953
  806MOL0     H11181   7.129   8.524   7.045  1.0476  0.8686  0.5288
  806MOL0     H11182   7.299   8.564   6.890  0.5937  0.3882 -1.8331
  806MOL0     H11183   7.173   8.598   6.766 -0.0434  2.8430 -1.2034
  806MOL0     H11184   7.250   8.804   6.987 -2.6767  0.6763  1.4387
  806MOL0     H11185   7.325   8.770   6.818 -0.8381 -4.3686 -0.2278
  806MOL0     H11186   7.136   8.977   6.594  3.6073 -0.5212 -1.1654
  806MOL0     H11187   7.147   9.173   6.446 -0.2614  2.1403 -2.6591
  806MOL0     H11188   7.251   9.303   6.510  0.6313  0.1255  0.0200
  806MOL0     H11189   7.078   9.320   6.530 -0.9167 -1.2072  0.9297
  806MOL0     H11190   6.964   9.649   6.877  0.3051 -1.2333 -2.4663
  806MOL0     H11191   6.985   9.882   6.980 -0.4636  0.7591  0.6322
  806MOL0     H11192   7.289  10.171   7.129 -0.5813 -2.1566  3.3809
  806MOL0     H11193   7.395  10.055   7.126 -0.2663 -2.0449 -0.6745
  806MOL0     H11194   7.356  10.035   6.869 -1.3795 -0.9873  0.8529
  806MOL0     H11195   7.277  10.190   6.876 -0.3841 -0.0240 -1.0853
  806MOL0     H11196   7.482  10.281   6.957  0.8573 -0.0444  0.3615
  806MOL0     H11197   7.475  10.207   6.795 -3.7994  0.3251 -0.0229
  806MOL0     H11198   7.632  10.031   6.872  3.5589  1.0604  0.5663
  806MOL0     H11199   7.572  10.048   7.040 -0.0588  0.5560  0.8630
  806MOL0     H11200   7.690  10.247   7.068 -2.5697  2.7356 -2.9516
  806MOL0     H11201   7.805  10.135   6.973 -1.0689 -1.8485 -0.9226
  806MOL0     H11202   7.644  10.391   6.894  0.9818  0.6449 -0.3754
  806MOL0     H11203   7.706  10.279   6.770  2.3421 -1.0724  0.5147
  806MOL0     H11204   7.936  10.348   6.862  1.1061  1.2909  1.5573
  806MOL0     H11205   7.854  10.407   7.004 -0.9258  0.1700  1.2519
  806MOL0     H11206   7.932  10.588   6.849  1.4665 -1.5585 -2.6956
  806MOL0     H11207   7.745  10.595   6.854 -1.6026 -0.3676 -3.3162
  806MOL0     H11208   7.396   9.833   7.045  1.3238  1.3256 -2.0767
  806MOL0     H11209   7.373   9.597   6.937 -1.2121 -0.3844 -2.5366
  806MOL0     H11210   7.249   9.254   6.989  0.1080 -4.0142  2.2436
  806MOL0     H11211   7.229   9.022   7.012 -1.6721 -0.2678  0.4116
  806MOL0     H11212   6.540   8.128   6.572  1.9319  1.4769 -1.2432
  806MOL0     H11213   6.314   8.062   6.604 -2.8182 -0.1399 -1.4617
  806MOL0     H11214   5.935   8.319   6.804  0.7544 -0.5737 -1.5918
  806MOL0     H11215   5.685   8.349   6.831 -0.6769 -0.5092  0.2841
  806MOL0     H11216   5.407   8.333   6.521 -1.6805  0.6560  0.5866
  806MOL0     H11217   5.408   8.157   6.542 -0.6609 -0.5440  0.4402
  806MOL0     H11218   5.226   8.357   6.688  1.7789 -0.3398  2.0278
  806MOL0     H11219   5.252   8.193   6.737 -0.1166 -1.2896  0.0599
  806MOL0     H11220   5.040   8.236   6.621  0.3061 -0.7221 -0.1125
  806MOL0     H11221   5.126   8.305   6.485  1.8777  0.4013  1.1571
  806MOL0     H11222   5.096   8.019   6.585  0.1469  2.0494  1.2515
  806MOL0     H11223   5.192   8.059   6.434 -1.6437  0.6425 -1.8698
  806MOL0     H11224   4.837   8.130   6.254 -0.7511  2.7107  2.2110
  806MOL0     H11225   5.611   8.092   6.508  2.6582 -1.8448 -2.1316
  806MOL0     H11226   5.919   8.072   6.370  0.6940  1.5509  1.5684
  806MOL0     H11227   5.955   7.959   6.499 -0.9853 -0.6653 -0.3900
  806MOL0     H11228   5.795   7.959   6.432  1.1488 -2.1124  3.0991
  807MOL0     O11229   0.707   9.811   4.081 -0.0732  0.5519  0.5959
  807MOL0     C11230   0.606   9.810   4.148  0.6929 -0.0003 -0.0159
  807MOL0     O11231   0.517   9.706   4.158  0.3205 -1.4274 -0.0025
  807MOL0     C11232   0.545   9.591   4.079  0.0283 -0.4304 -0.5735
  807MOL0     C11233   0.662   9.515   4.110 -0.8005 -0.1448  0.5230
  807MOL0     C11234   0.697   9.394   4.048 -0.3164  0.4699  0.3162
  807MOL0     C11235   0.615   9.347   3.951 -0.0230 -0.0316  1.0820
  807MOL0     O11236   0.643   9.225   3.890  0.3398 -0.0956  0.3253
  807MOL0     C11237   0.544   9.180   3.798 -0.5430 -0.2598  0.5766
  807MOL0     C11238   0.566   9.039   3.760 -0.0471 -0.0639  0.5569
  807MOL0     C11239   0.596   8.934   3.867 -0.2863 -0.4395 -0.1565
  807MOL0     C11240   0.478   8.920   3.963 -0.2732  0.0262 -0.6771
  807MOL0     C11241   0.501   8.793   4.044  0.3825  1.6444  0.2348
  807MOL0     C11242   0.469   8.657   3.983 -0.3570  0.0334  0.0412
  807MOL0     C11243   0.507   8.528   4.068  0.3905 -1.5002 -0.5964
  807MOL0     C11244   0.426   8.503   4.200  0.1486  0.4838  0.7492
  807MOL0     N11245   0.281   8.494   4.165  0.4792 -0.5094 -0.4955
  807MOL0     C11246   0.190   8.586   4.210 -0.5004  0.1409 -1.2199
  807MOL0     C11247   0.080   8.559   4.142 -0.2431  0.1875 -0.6688
  807MOL0     C11248  -0.038   8.639   4.122  1.6811  0.3646 -0.1418
  807MOL0     C11249  -0.022   8.791   4.132 -0.4987 -0.8611  0.6084
  807MOL0     C11250   0.066   8.860   4.023  0.4487  0.7662 -0.8727
  807MOL0     C11251   0.069   9.009   4.050 -0.4216  0.2500  0.4313
  807MOL0     O11252   0.158   9.047   4.168  0.6654 -0.1391  0.5352
  807MOL0     C11253   0.160   9.180   4.198  0.3114  0.2248 -0.2728
  807MOL0     C11254   0.273   9.212   4.276  0.4043  0.0044  1.0150
  807MOL0     C11255   0.285   9.340   4.327 -0.4629 -1.0680  0.0420
  807MOL0     C11256   0.403   9.362   4.422  0.3042 -0.7218 -0.1474
  807MOL0     C11257   0.201   9.452   4.287  0.3272  0.4014  0.2149
  807MOL0     C11258   0.217   9.594   4.327 -0.1791 -0.6446 -0.1735
  807MOL0     O11259   0.172   9.684   4.230 -0.4647  0.4160  0.4568
  807MOL0     C11260   0.162   9.821   4.263  0.4876 -0.6843  0.9978
  807MOL0     C11261   0.135   9.877   4.392 -0.4330 -0.7191 -0.4297
  807MOL0     C11262   0.142  10.021   4.407 -0.2459  0.2298  0.5270
  807MOL0     C11263   0.139  10.113   4.291  0.4245  0.6986 -0.0891
  807MOL0     O11264   0.115  10.242   4.325 -0.9689  0.2084  0.4758
  807MOL0     C11265   0.164  10.332   4.227  0.7797  0.2645  0.1052
  807MOL0     C11266   0.193  10.473   4.295  0.3744  0.9637 -0.0731
  807MOL0     C11267   0.076  10.513   4.387  0.0983  0.1341 -0.0114
  807MOL0     C11268   0.100  10.655   4.439  0.5529  0.0697 -1.0231
  807MOL0     C11269   0.007  10.684   4.543 -0.2461 -1.1074  0.4473
  807MOL0     C11270   0.031  10.818   4.617  1.2428 -0.2903  0.6940
  807MOL0     C11271  -0.083  10.857   4.708  0.0084  0.0868  0.4840
  807MOL0     C11272  -0.049  10.967   4.797 -0.2333 -0.3254 -0.6357
  807MOL0    Cl11273   0.051  10.906   4.928  0.2100 -0.2923  0.2344
  807MOL0     C11274   0.127  10.052   4.165  0.0653 -0.5857  0.0517
  807MOL0     C11275   0.147   9.909   4.153 -0.3795 -0.3599  1.5733
  807MOL0     O11276   0.277   9.622   4.431 -0.2944  0.2859  0.7339
  807MOL0     C11277   0.111   9.416   4.185  1.3696  0.9602 -0.1435
  807MOL0     C11278   0.075   9.281   4.151 -0.1932  0.4653  0.4755
  807MOL0     N11279   0.105   8.449   4.069 -0.2359  0.8421  0.1656
  807MOL0     N11280   0.226   8.413   4.079 -0.0422  0.0884 -0.4359
  807MOL0     C11281   0.508   9.432   3.905 -1.6788  0.3961  0.5499
  807MOL0     C11282   0.476   9.560   3.962 -1.0267 -0.0134  0.3337
  807MOL0     C11283   0.581   9.926   4.244  0.1490 -0.4337  0.0939
  807MOL0     C11284   0.490   9.916   4.352  0.4307 -0.4710 -0.6849
  807MOL0     C11285   0.460  10.021   4.453 -0.7558 -0.8146  0.2971
  807MOL0     C11286   0.546  10.132   4.446 -0.1491 -0.6799 -0.0179
  807MOL0     O11287   0.522  10.249   4.513 -0.1839 -0.1002 -0.2242
  807MOL0     C11288   0.408  10.265   4.597  0.5240  0.0778  0.3518
  807MOL0     C11289   0.402  10.421   4.619 -0.9258 -0.6240  0.3730
  807MOL0     C11290   0.536  10.474   4.690  0.4084 -0.0666  0.0576
  807MOL0     C11291   0.532  10.623   4.690 -0.5246 -0.5724  0.4840
  807MOL0     C11292   0.630  10.689   4.778 -0.2398  0.3211  0.0164
  807MOL0     C11293   0.703  10.766   4.839  0.5452  0.0957  0.4007
  807MOL0     C11294   0.639  10.141   4.336  0.4606 -0.5198  0.3465
  807MOL0     C11295   0.661  10.041   4.247 -0.4542 -0.7666  0.1568
  807MOL0     C11296   0.767  10.079   4.145 -0.1957  0.8677  0.5386
  807MOL0     H11297   0.725   9.554   4.190  0.3702 -1.1649  0.1181
  807MOL0     H11298   0.785   9.336   4.075  1.9555  4.1722  1.6430
  807MOL0     H11299   0.543   9.233   3.702  0.4909 -2.9458 -1.0326
  807MOL0     H11300   0.455   9.172   3.861  0.4220 -2.8794  1.7407
  807MOL0     H11301   0.483   9.003   3.698 -0.1504  0.5095  0.3551
  807MOL0     H11302   0.650   9.031   3.690 -1.9255 -0.3083 -1.8007
  807MOL0     H11303   0.611   8.839   3.816  1.1145 -0.9816  1.1944
  807MOL0     H11304   0.692   8.937   3.920  0.7768 -2.0274 -1.8659
  807MOL0     H11305   0.477   9.008   4.028 -1.0839  0.4299 -1.2157
  807MOL0     H11306   0.382   8.929   3.910 -0.0883  1.4897 -0.8090
  807MOL0     H11307   0.464   8.811   4.145  0.5112  1.0812  0.3833
  807MOL0     H11308   0.609   8.803   4.057  0.6380  2.2612 -1.9425
  807MOL0     H11309   0.361   8.650   3.970 -0.3375  1.3651 -1.0819
  807MOL0     H11310   0.514   8.646   3.883  0.4862 -3.3925  0.6603
  807MOL0     H11311   0.615   8.524   4.085  0.1598 -1.7813  0.9685
  807MOL0     H11312   0.484   8.443   4.004 -0.3813  0.5993 -3.3162
  807MOL0     H11313   0.460   8.407   4.239 -0.6078  0.1802  0.6851
  807MOL0     H11314   0.430   8.582   4.275  0.5538  3.2165 -1.9196
  807MOL0     H11315   0.201   8.665   4.284  0.0503 -1.8690  0.9727
  807MOL0     H11316  -0.114   8.614   4.197  0.1883  3.7552 -0.3413
  807MOL0     H11317  -0.081   8.630   4.022  0.5727  2.1394  0.1205
  807MOL0     H11318  -0.122   8.834   4.147 -0.1952 -0.4572  1.5448
  807MOL0     H11319   0.021   8.819   4.229 -1.7146 -0.1306  0.9629
  807MOL0     H11320   0.168   8.821   4.021  0.5153  0.9341 -2.3198
  807MOL0     H11321   0.022   8.848   3.924  0.2316  0.7263 -0.7710
  807MOL0     H11322   0.101   9.059   3.958 -0.4541  0.4315  0.5179
  807MOL0     H11323  -0.034   9.046   4.058 -1.2919 -1.4165 -1.7572
  807MOL0     H11324   0.346   9.132   4.264  1.1334  0.9050 -1.1486
  807MOL0     H11325   0.471   9.440   4.386  0.4537 -1.3237 -1.2259
  807MOL0     H11326   0.460   9.271   4.443  1.0452 -0.1616  0.3203
  807MOL0     H11327   0.368   9.398   4.519  1.0078  0.4916 -0.3155
  807MOL0     H11328   0.114   9.808   4.473  1.1212 -1.9777 -1.0451
  807MOL0     H11329   0.133  10.066   4.505  3.1580  0.7109  0.7432
  807MOL0     H11330   0.250  10.296   4.170 -1.3949 -0.2909 -3.1039
  807MOL0     H11331   0.085  10.339   4.152  0.0244  0.8692  0.9311
  807MOL0     H11332   0.275  10.450   4.364 -1.1130 -1.8854  0.9097
  807MOL0     H11333   0.217  10.546   4.217 -2.4140  0.0004 -1.9670
  807MOL0     H11334   0.074  10.434   4.463 -1.4770  0.3366  0.1896
  807MOL0     H11335  -0.021  10.501   4.337  0.4136 -0.1253 -0.5706
  807MOL0     H11336   0.094  10.731   4.361  0.2212  0.5765 -0.5132
  807MOL0     H11337   0.200  10.657   4.482  1.1956 -0.4596 -2.4530
  807MOL0     H11338  -0.096  10.682   4.507  0.2455 -0.6916 -1.0680
  807MOL0     H11339   0.025  10.600   4.611  0.8885  0.7137  2.5288
  807MOL0     H11340   0.058  10.894   4.543  0.0217 -0.5509 -0.0427
  807MOL0     H11341   0.122  10.810   4.677  1.3823  1.3562  0.7579
  807MOL0     H11342  -0.116  10.767   4.762  0.2795 -1.6167 -1.9995
  807MOL0     H11343  -0.170  10.881   4.645 -2.3267 -2.2311  2.5473
  807MOL0     H11344  -0.144  11.003   4.836 -0.4095 -2.3394  0.9672
  807MOL0     H11345   0.009  11.046   4.747  0.5614 -1.2464 -1.2053
  807MOL0     H11346   0.110  10.100   4.069 -3.6865 -1.0604  0.3217
  807MOL0     H11347   0.144   9.864   4.055  0.1453  2.7850 -0.0006
  807MOL0     H11348   0.050   9.491   4.136  0.4505 -1.4325 -2.9606
  807MOL0     H11349  -0.001   9.252   4.079  1.2806 -2.9314  0.1116
  807MOL0     H11350   0.451   9.411   3.815 -0.1758 -0.5998 -0.1950
  807MOL0     H11351   0.389   9.611   3.923 -1.8561 -2.6123 -1.4594
  807MOL0     H11352   0.417   9.835   4.350  0.5554 -0.5710 -2.0396
  807MOL0     H11353   0.374  10.001   4.516  0.1194 -1.6436  1.2899
  807MOL0     H11354   0.317  10.226   4.549  2.2834 -1.1105 -2.2700
  807MOL0     H11355   0.415  10.199   4.685 -0.3839 -2.2371 -1.1974
  807MOL0     H11356   0.312  10.451   4.674 -1.1644  0.3840 -0.5304
  807MOL0     H11357   0.395  10.475   4.524 -0.6367  0.5222  0.9759
  807MOL0     H11358   0.541  10.432   4.791  1.4910 -4.9476 -1.7388
  807MOL0     H11359   0.626  10.440   4.638  0.5646  0.4406 -0.0086
  807MOL0     H11360   0.433  10.663   4.714 -1.7380 -2.7001 -0.6557
  807MOL0     H11361   0.558  10.651   4.588 -1.0187  0.6794  0.6832
  807MOL0     H11362   0.781  10.822   4.887  1.9404 -2.0506  0.8034
  807MOL0     H11363   0.698  10.231   4.318 -2.9416  1.0533 -6.2736
  807MOL0     H11364   0.801  10.183   4.143  1.9904  0.2206 -1.8358
  807MOL0     H11365   0.855  10.016   4.162 -1.1842 -0.0969  2.3463
  807MOL0     H11366   0.718  10.062   4.048  1.2939 -0.7863  0.0136
  808MOL0     O11367   6.918   9.056   2.165 -0.1491  0.4926 -0.4913
  808MOL0     C11368   6.867   8.996   2.250  0.5636  0.4184 -0.3779
  808MOL0     O11369   6.756   8.922   2.226  0.5186  0.5059  0.2421
  808MOL0     C11370   6.673   8.958   2.120 -0.9776  0.7828 -0.7213
  808MOL0     C11371   6.624   8.864   2.023 -0.7316  0.9443 -0.1524
  808MOL0     C11372   6.532   8.918   1.935 -0.8382  0.3547 -0.4031
  808MOL0     C11373   6.468   9.039   1.951 -0.2176 -0.3446 -0.2437
  808MOL0     O11374   6.371   9.103   1.882  0.7086  0.0981  0.3315
  808MOL0     C11375   6.277   9.034   1.800  0.2313 -0.2911 -1.4716
  808MOL0     C11376   6.291   9.061   1.644  0.0085  0.3380  0.2123
  808MOL0     C11377   6.406   8.975   1.590 -0.1289 -0.4211  0.2462
  808MOL0     C11378   6.396   8.967   1.436  0.1792  0.3858  0.2246
  808MOL0     C11379   6.480   8.852   1.388 -0.5236  0.6465 -0.6449
  808MOL0     C11380   6.480   8.812   1.238 -0.0576  0.3879  0.5448
  808MOL0     C11381   6.561   8.681   1.203  0.7158 -1.1644  0.4077
  808MOL0     C11382   6.500   8.627   1.068 -0.5672 -0.4723 -0.5639
  808MOL0     N11383   6.502   8.704   0.941  0.0156  0.4755  0.2967
  808MOL0     C11384   6.552   8.662   0.821 -0.2444  0.8033  0.1729
  808MOL0     C11385   6.498   8.741   0.730  0.3005  0.2196  0.1828
  808MOL0     C11386   6.531   8.723   0.590  0.2336 -0.0378  0.2300
  808MOL0     C11387   6.416   8.764   0.491  0.0328  0.1867 -0.2770
  808MOL0     C11388   6.463   8.771   0.343 -0.1183 -0.3354 -0.5562
  808MOL0     C11389   6.534   8.647   0.286  1.3110  0.3979 -0.5221
  808MOL0     O11390   6.572   8.691   0.154  0.6695 -0.3409 -0.6756
  808MOL0     C11391   6.483   8.677   0.049  1.0404 -0.8700 -1.2686
  808MOL0     C11392   6.542   8.709  -0.076  0.1923  0.1757 -0.2568
  808MOL0     C11393   6.456   8.718  -0.181  1.2621 -0.1911  0.0380
  808MOL0     C11394   6.514   8.801  -0.301  0.8267 -0.3324  0.4926
  808MOL0     C11395   6.320   8.664  -0.179  0.6591  0.7780 -0.3882
  808MOL0     C11396   6.232   8.653  -0.296  0.4668  1.1917  0.0306
  808MOL0     O11397   6.093   8.649  -0.264 -0.2093 -0.7026 -0.3411
  808MOL0     C11398   6.016   8.578  -0.350 -0.4919  0.2982  0.0509
  808MOL0     C11399   5.911   8.641  -0.410  0.5021 -0.4460 -0.2340
  808MOL0     C11400   5.813   8.569  -0.485  0.3658 -0.7320  0.2687
  808MOL0     C11401   5.842   8.440  -0.522  0.1779 -0.1985  0.4842
  808MOL0     O11402   5.751   8.358  -0.587  0.4903 -0.6258  0.5955
  808MOL0     C11403   5.730   8.393  -0.729 -1.0263 -0.5519 -0.2469
  808MOL0     C11404   5.696   8.264  -0.801  0.4011  0.2589  0.1591
  808MOL0     C11405   5.572   8.199  -0.743  0.3360 -0.1083  0.0901
  808MOL0     C11406   5.535   8.064  -0.807 -0.1282  0.0683  0.5843
  808MOL0     C11407   5.441   7.974  -0.727  0.3318 -0.6890  0.3099
  808MOL0     C11408   5.308   8.050  -0.691  0.1442 -1.0089  0.2078
  808MOL0     C11409   5.198   7.953  -0.654 -0.7161  0.7872  0.6195
  808MOL0     C11410   5.061   8.012  -0.634 -0.4278  1.1715  0.7872
  808MOL0    Cl11411   5.052   8.078  -0.470  0.2807  0.4375  0.2329
  808MOL0     C11412   5.951   8.382  -0.464  0.8392 -0.1674 -0.2847
  808MOL0     C11413   6.041   8.444  -0.384  0.1684 -0.0766  0.4184
  808MOL0     O11414   6.284   8.635  -0.408  0.5224  0.1572 -0.0301
  808MOL0     C11415   6.268   8.641  -0.057 -0.0832  0.1248 -0.3560
  808MOL0     C11416   6.349   8.638   0.056  1.0118 -0.3958  0.2576
  808MOL0     N11417   6.411   8.825   0.797 -0.4518 -1.6075  1.5986
  808MOL0     N11418   6.411   8.796   0.918  0.3500 -0.1746 -0.8942
  808MOL0     C11419   6.512   9.125   2.047 -0.4512  0.0160  0.0705
  808MOL0     C11420   6.614   9.084   2.131 -0.1454  0.1072 -0.0343
  808MOL0     C11421   6.917   9.005   2.393 -0.5490 -0.9436 -0.2562
  808MOL0     C11422   6.825   8.972   2.494 -0.3197  0.0151 -0.2061
  808MOL0     C11423   6.858   8.995   2.630 -0.2299 -0.4063  0.1054
  808MOL0     C11424   6.990   9.028   2.667  0.2521  0.0837 -0.3889
  808MOL0     O11425   7.027   9.050   2.790 -0.6224 -1.0279 -0.3869
  808MOL0     C11426   6.998   8.947   2.886 -0.3554  0.2918  0.9574
  808MOL0     C11427   6.940   9.008   3.006 -0.8522  0.1322 -0.2505
  808MOL0     C11428   6.795   9.053   2.985  0.0880  1.2053  0.1960
  808MOL0     C11429   6.732   9.114   3.113 -0.3806 -0.3083 -0.4371
  808MOL0     C11430   6.598   9.151   3.086  0.5115  0.2922  0.2662
  808MOL0     C11431   6.490   9.204   3.088  0.4473 -1.0147  0.5628
  808MOL0     C11432   7.074   9.067   2.563 -0.2938 -0.1959  0.1440
  808MOL0     C11433   7.048   9.054   2.428  0.2686 -0.4361 -0.9560
  808MOL0     C11434   7.148   9.091   2.324 -0.5287  0.3838 -0.2212
  808MOL0     H11435   6.665   8.763   2.025 -3.3397 -0.1790  1.6333
  808MOL0     H11436   6.486   8.853   1.862 -1.9951  0.4763  0.1954
  808MOL0     H11437   6.180   9.073   1.834  1.4226 -0.5573  2.7829
  808MOL0     H11438   6.277   8.927   1.825  2.2715  0.6914  4.2305
  808MOL0     H11439   6.197   9.032   1.597  0.3548  0.9398 -0.8660
  808MOL0     H11440   6.316   9.168   1.640  2.4016 -0.0712  2.0439
  808MOL0     H11441   6.501   9.005   1.633 -0.1745  1.7349 -1.0039
  808MOL0     H11442   6.389   8.873   1.626  1.8493  0.0622  2.8225
  808MOL0     H11443   6.292   8.961   1.404  0.7493  3.6737 -2.8620
  808MOL0     H11444   6.425   9.056   1.380  0.8823  0.5471  0.8292
  808MOL0     H11445   6.437   8.770   1.446 -1.1109  0.2110 -1.6780
  808MOL0     H11446   6.579   8.864   1.434 -1.9294  1.7541  2.4149
  808MOL0     H11447   6.376   8.798   1.210  0.0010  0.6155  0.2101
  808MOL0     H11448   6.524   8.896   1.183 -0.9632  0.2790 -0.3649
  808MOL0     H11449   6.532   8.611   1.282  2.3764 -1.1193  1.0921
  808MOL0     H11450   6.670   8.680   1.197  0.6945 -2.4051 -5.5273
  808MOL0     H11451   6.549   8.531   1.047 -2.2729 -1.5959  0.3698
  808MOL0     H11452   6.394   8.605   1.078 -0.5193 -1.3194 -1.7325
  808MOL0     H11453   6.614   8.575   0.801 -0.1824  0.6645  0.9450
  808MOL0     H11454   6.567   8.621   0.570 -1.5184 -0.9867  1.6674
  808MOL0     H11455   6.612   8.789   0.559  0.6366 -1.9114 -3.2510
  808MOL0     H11456   6.338   8.688   0.498  1.8906 -1.7030  1.6564
  808MOL0     H11457   6.382   8.863   0.524 -0.9175  0.2242 -1.3136
  808MOL0     H11458   6.379   8.796   0.277 -2.1745  0.9426  2.3385
  808MOL0     H11459   6.537   8.851   0.332  0.3547 -0.9693 -2.5624
  808MOL0     H11460   6.612   8.614   0.355 -1.8393 -1.0056  2.7337
  808MOL0     H11461   6.462   8.564   0.283  2.4121 -0.6383  0.6624
  808MOL0     H11462   6.646   8.739  -0.079  0.0443  0.5800 -2.1793
  808MOL0     H11463   6.600   8.858  -0.268 -1.4479  3.2972  0.7308
  808MOL0     H11464   6.441   8.878  -0.331  2.2671  0.0969 -2.2200
  808MOL0     H11465   6.544   8.739  -0.386  0.8499  0.0060  0.2486
  808MOL0     H11466   5.881   8.740  -0.377  2.5772  0.2834 -0.3938
  808MOL0     H11467   5.731   8.622  -0.533  2.1872  1.4498 -0.6624
  808MOL0     H11468   5.648   8.465  -0.736 -2.0936 -1.8001 -0.9710
  808MOL0     H11469   5.821   8.423  -0.782 -1.9794 -1.5276 -2.5918
  808MOL0     H11470   5.662   8.285  -0.903 -1.9937  2.3371  1.2744
  808MOL0     H11471   5.784   8.199  -0.797 -1.9936 -3.1985  1.5187
  808MOL0     H11472   5.485   8.266  -0.748 -0.1659 -0.2433  3.8777
  808MOL0     H11473   5.582   8.193  -0.634 -0.8054  1.2623  0.3000
  808MOL0     H11474   5.627   8.007  -0.823  1.4045  1.7626  2.7402
  808MOL0     H11475   5.504   8.081  -0.910 -1.0709 -1.1822  0.6428
  808MOL0     H11476   5.409   7.884  -0.782  1.9867 -1.1726  0.0946
  808MOL0     H11477   5.478   7.945  -0.628  2.0909 -0.3994 -0.2252
  808MOL0     H11478   5.270   8.111  -0.774  1.1945  1.7219  1.6346
  808MOL0     H11479   5.321   8.121  -0.610  2.7732 -2.1909  0.9205
  808MOL0     H11480   5.223   7.887  -0.570 -1.9401  1.0269  1.1897
  808MOL0     H11481   5.191   7.885  -0.740 -3.0004  1.6564  0.0708
  808MOL0     H11482   4.977   7.941  -0.633  0.3253  0.2336 -0.0601
  808MOL0     H11483   5.049   8.080  -0.719  1.2399  1.0704  0.4320
  808MOL0     H11484   5.960   8.274  -0.473  1.6182 -0.1022 -0.3234
  808MOL0     H11485   6.130   8.392  -0.348  0.6640 -1.6002 -2.6774
  808MOL0     H11486   6.165   8.610  -0.039  0.8930 -3.1111  0.3575
  808MOL0     H11487   6.307   8.609   0.152 -0.1643  0.7634  0.1251
  808MOL0     H11488   6.468   9.225   2.045  0.1796  0.3680  2.0906
  808MOL0     H11489   6.657   9.152   2.204 -0.3907 -0.0113  0.2202
  808MOL0     H11490   6.724   8.937   2.478  0.1118 -1.6317  0.4207
  808MOL0     H11491   6.779   8.987   2.703 -1.8017  1.0698 -1.3446
  808MOL0     H11492   6.931   8.871   2.845  1.2414 -0.2334 -0.8084
  808MOL0     H11493   7.084   8.882   2.902 -0.6079 -1.0776 -2.4066
  808MOL0     H11494   7.001   9.093   3.035  2.3090 -1.5059 -1.6057
  808MOL0     H11495   6.948   8.942   3.092  0.2906  3.1671  2.1636
  808MOL0     H11496   6.795   9.132   2.910 -1.0566  1.2207  0.1985
  808MOL0     H11497   6.737   8.966   2.954  0.9721 -0.6872  3.4076
  808MOL0     H11498   6.782   9.200   3.158  0.0286 -0.6203 -0.2962
  808MOL0     H11499   6.738   9.035   3.188  1.8949 -0.5626 -0.8210
  808MOL0     H11500   6.400   9.263   3.086 -1.4367 -3.5764  2.4527
  808MOL0     H11501   7.163   9.126   2.585 -0.6941 -0.2715  2.1042
  808MOL0     H11502   7.105   9.182   2.282  0.3762  0.3307 -1.3123
  808MOL0     H11503   7.249   9.103   2.366 -1.2552  1.2516  1.3485
  808MOL0     H11504   7.150   9.013   2.247 -2.0853 -0.5817  0.6610
  809MOL0     O11505   8.660  10.688   0.574  0.6109 -0.4256  0.2055
  809MOL0     C11506   8.770  10.742   0.551  0.2804 -0.1163  1.1112
  809MOL0     O11507   8.816  10.843   0.625 -0.3663 -0.0448 -0.2483
  809MOL0     C11508   8.747  10.884   0.739 -0.7697 -0.2992  0.0151
  809MOL0     C11509   8.737  10.797   0.840 -0.1665  0.2235  0.5687
  809MOL0     C11510   8.659  10.819   0.948 -0.3093  0.3461 -0.7721
  809MOL0     C11511   8.588  10.940   0.955  0.9964  0.2142 -1.0870
  809MOL0     O11512   8.510  10.968   1.071 -0.1447 -0.9173  0.4863
  809MOL0     C11513   8.526  10.931   1.202 -0.3146 -0.8193 -0.4027
  809MOL0     C11514   8.409  10.975   1.293 -0.4194 -0.3830  0.1910
  809MOL0     C11515   8.422  10.927   1.446 -0.0633 -0.2563  0.8072
  809MOL0     C11516   8.284  10.939   1.509 -0.2928  0.0173  0.2615
  809MOL0     C11517   8.296  10.889   1.652  0.2128 -0.3669 -1.0235
  809MOL0     C11518   8.166  10.916   1.720  0.5932  0.0925 -0.8913
  809MOL0     C11519   8.174  10.889   1.876 -0.1062 -0.4889  0.1353
  809MOL0     C11520   8.192  10.749   1.935  0.5134 -1.0074  0.1953
  809MOL0     N11521   8.065  10.674   1.924  0.4562  0.4505  0.3034
  809MOL0     C11522   7.978  10.637   2.023  0.6240  0.5511 -0.0413
  809MOL0     C11523   7.906  10.531   1.981 -0.4898 -1.2235 -1.1287
  809MOL0     C11524   7.816  10.456   2.056  0.3797  1.4174  0.1482
  809MOL0     C11525   7.700  10.542   2.121  0.2695  0.4516  0.4986
  809MOL0     C11526   7.565  10.465   2.094 -1.1274  0.3037  0.4985
  809MOL0     C11527   7.445  10.545   2.145  0.6962  0.0922  0.6219
  809MOL0     O11528   7.426  10.659   2.063  0.2719  0.7101  0.3290
  809MOL0     C11529   7.333  10.757   2.091 -0.9187 -0.1337  0.4118
  809MOL0     C11530   7.326  10.864   2.004 -0.3903 -0.5421  0.6996
  809MOL0     C11531   7.225  10.964   2.018 -0.2393  0.7521  0.2423
  809MOL0     C11532   7.217  11.066   1.909  0.4242 -0.3620 -0.0243
  809MOL0     C11533   7.132  10.959   2.131 -0.9563  0.1277  0.2607
  809MOL0     C11534   7.021  11.057   2.154  0.0810 -0.1898  0.2743
  809MOL0     O11535   6.907  11.014   2.226 -0.4752 -0.3657  0.4619
  809MOL0     C11536   6.825  11.112   2.277 -0.2701  0.1440  0.2752
  809MOL0     C11537   6.868  11.233   2.337 -0.6499  0.1013  0.2924
  809MOL0     C11538   6.777  11.317   2.401  0.3060  0.5296  0.2854
  809MOL0     C11539   6.639  11.290   2.394  0.2613  0.0950 -0.9477
  809MOL0     O11540   6.561  11.382   2.453 -0.2410  0.1684  0.3997
  809MOL0     C11541   6.421  11.372   2.451  0.0372 -0.0942 -0.5544
  809MOL0     C11542   6.358  11.490   2.521 -0.2244 -0.3320  1.2102
  809MOL0     C11543   6.375  11.494   2.675 -0.3499  0.5730 -0.5751
  809MOL0     C11544   6.400  11.638   2.727  0.1814 -0.4616 -0.4603
  809MOL0     C11545   6.367  11.673   2.874 -0.0570  0.2544 -1.0864
  809MOL0     C11546   6.350  11.817   2.888 -0.0131 -1.1120  1.0205
  809MOL0     C11547   6.367  11.861   3.037  0.1997 -0.1374  0.3066
  809MOL0     C11548   6.336  12.012   3.066 -0.3028  0.1709  1.0266
  809MOL0    Cl11549   6.169  12.054   3.014 -0.6726 -0.5298  0.1023
  809MOL0     C11550   6.594  11.171   2.332  0.4767  0.6943 -0.5611
  809MOL0     C11551   6.683  11.090   2.278 -1.7356  0.1551  0.6282
  809MOL0     O11552   7.037  11.169   2.118 -0.0465 -0.3690  0.4404
  809MOL0     C11553   7.142  10.851   2.216 -0.5717 -0.2583  0.7099
  809MOL0     C11554   7.241  10.747   2.191  0.5093  0.1336  0.3787
  809MOL0     N11555   7.954  10.505   1.844  0.2568 -0.2111  0.0491
  809MOL0     N11556   8.046  10.594   1.818  1.0559 -0.0275 -0.1592
  809MOL0     C11557   8.587  11.025   0.847  0.5119  1.0070 -0.7094
  809MOL0     C11558   8.675  11.001   0.743 -0.0208 -0.6998 -0.5853
  809MOL0     C11559   8.860  10.690   0.443 -0.4576  0.0880 -0.5645
  809MOL0     C11560   8.980  10.755   0.420  0.5562 -0.3013 -0.4730
  809MOL0     C11561   9.061  10.723   0.311  1.1917  0.1160 -0.0451
  809MOL0     C11562   9.033  10.612   0.227  0.1506 -0.3245  0.8359
  809MOL0     O11563   9.118  10.593   0.123  0.1619 -1.0197  1.1799
  809MOL0     C11564   9.087  10.486   0.031 -1.0644  0.3457 -0.2404
  809MOL0     C11565   9.176  10.510  -0.079 -0.1797 -0.0545 -0.6081
  809MOL0     C11566   9.181  10.387  -0.166 -0.4807  0.6437 -0.6392
  809MOL0     C11567   9.261  10.411  -0.295 -0.5865  0.0880 -0.2576
  809MOL0     C11568   9.396  10.435  -0.246 -0.0427 -0.1406 -0.4648
  809MOL0     C11569   9.498  10.481  -0.201  0.3346 -0.1187  0.2479
  809MOL0     C11570   8.921  10.537   0.258 -0.1528  0.0557  1.1982
  809MOL0     C11571   8.837  10.575   0.363  0.9162 -0.1073 -0.2839
  809MOL0     C11572   8.721  10.481   0.391 -0.5562  0.4101  0.5379
  809MOL0     H11573   8.791  10.703   0.827  0.5152  0.9449 -2.8563
  809MOL0     H11574   8.652  10.746   1.029 -2.6609  1.9067  0.5535
  809MOL0     H11575   8.626  10.958   1.239 -1.4457 -0.4998  2.7134
  809MOL0     H11576   8.516  10.823   1.218  0.3608 -0.4804  3.2947
  809MOL0     H11577   8.389  11.082   1.289  0.6652 -0.1903 -1.0901
  809MOL0     H11578   8.320  10.919   1.262  0.0434 -1.1250  0.1731
  809MOL0     H11579   8.445  10.820   1.438  2.5134  0.3752 -2.3116
  809MOL0     H11580   8.506  10.977   1.495 -1.8395  3.1296  0.6950
  809MOL0     H11581   8.240  11.039   1.501 -1.6311 -0.6346 -1.3959
  809MOL0     H11582   8.206  10.879   1.460 -0.3643  0.2544  0.0825
  809MOL0     H11583   8.382  10.927   1.708  0.6459  0.4691 -2.2295
  809MOL0     H11584   8.306  10.780   1.643 -0.9269 -0.4947 -0.8777
  809MOL0     H11585   8.135  11.020   1.705  0.5089 -0.0009 -1.3912
  809MOL0     H11586   8.092  10.854   1.669 -1.1701 -0.8015  2.4751
  809MOL0     H11587   8.077  10.925   1.912 -0.9922 -2.3302 -0.3322
  809MOL0     H11588   8.245  10.960   1.920  1.1422 -0.4988 -1.7095
  809MOL0     H11589   8.274  10.685   1.901  0.8926 -0.3801 -0.0706
  809MOL0     H11590   8.218  10.767   2.040 -0.4888  1.6287  0.0577
  809MOL0     H11591   7.960  10.681   2.120 -0.2533  1.0093 -0.4030
  809MOL0     H11592   7.865  10.397   2.133 -0.8153 -1.0485 -0.8864
  809MOL0     H11593   7.774  10.381   1.988  1.5387  1.3325 -0.4960
  809MOL0     H11594   7.729  10.560   2.225  1.4931 -1.2583  0.4927
  809MOL0     H11595   7.693  10.639   2.071 -2.1333  0.7206  1.2442
  809MOL0     H11596   7.554  10.435   1.989  0.3632 -1.8948  0.9045
  809MOL0     H11597   7.573  10.369   2.146  0.6851 -0.8381 -1.6987
  809MOL0     H11598   7.373  10.464   2.135  3.7188 -2.7726  0.2489
  809MOL0     H11599   7.451  10.578   2.250 -0.0100 -0.0558  0.7116
  809MOL0     H11600   7.387  10.863   1.914 -1.5613  1.8735 -0.2083
  809MOL0     H11601   7.114  11.102   1.910  0.5391 -0.0367  0.2801
  809MOL0     H11602   7.237  11.019   1.811  0.3040 -1.0335  0.2656
  809MOL0     H11603   7.298  11.139   1.920 -0.7599  0.8197  1.1160
  809MOL0     H11604   6.971  11.268   2.340 -0.4913 -0.3783  0.5349
  809MOL0     H11605   6.794  11.397   2.472 -1.9664  2.3400 -1.0612
  809MOL0     H11606   6.390  11.369   2.347 -0.2707 -0.5774 -0.4498
  809MOL0     H11607   6.400  11.275   2.497 -1.2092  0.7045  0.6383
  809MOL0     H11608   6.392  11.581   2.470 -1.1614 -0.4247  0.4007
  809MOL0     H11609   6.254  11.478   2.489  0.4146 -2.4886 -0.3393
  809MOL0     H11610   6.458  11.429   2.702 -1.2275 -0.6362 -0.7180
  809MOL0     H11611   6.288  11.443   2.717  1.3540 -1.7744  0.3095
  809MOL0     H11612   6.329  11.694   2.666  0.3971  0.2756 -0.0569
  809MOL0     H11613   6.499  11.680   2.704 -0.2005 -0.3345 -1.9608
  809MOL0     H11614   6.277  11.620   2.907  0.5363  1.0426  2.0179
  809MOL0     H11615   6.448  11.640   2.938  0.1056  0.6848 -1.0711
  809MOL0     H11616   6.254  11.842   2.841  0.7313  2.0056  0.9752
  809MOL0     H11617   6.417  11.881   2.830 -0.7637 -0.1113  1.2265
  809MOL0     H11618   6.469  11.845   3.071  1.1497 -0.9214 -2.6472
  809MOL0     H11619   6.300  11.805   3.104  1.6832 -3.7973 -1.0241
  809MOL0     H11620   6.398  12.074   3.002 -1.1086  1.3451  1.3490
  809MOL0     H11621   6.352  12.052   3.167 -0.1741  1.4402  0.5214
  809MOL0     H11622   6.489  11.150   2.317  0.4243 -1.0092  1.7564
  809MOL0     H11623   6.645  11.002   2.226 -0.3824 -1.6271  2.4775
  809MOL0     H11624   7.104  10.865   2.316  3.1968 -2.3183  2.6489
  809MOL0     H11625   7.228  10.664   2.261 -0.6505 -1.0763 -1.2099
  809MOL0     H11626   8.521  11.111   0.843  0.5791  1.2394  1.8404
  809MOL0     H11627   8.684  11.072   0.661 -0.4952  1.0225  0.7981
  809MOL0     H11628   9.031  10.826   0.485  2.7834 -2.8822  0.7644
  809MOL0     H11629   9.152  10.780   0.294  0.4980  1.1415 -0.3555
  809MOL0     H11630   9.108  10.393   0.084  0.3275 -0.4738 -2.1029
  809MOL0     H11631   8.980  10.492   0.010 -0.4723 -0.9715 -4.8526
  809MOL0     H11632   9.278  10.541  -0.053  0.1660 -1.9132  0.4380
  809MOL0     H11633   9.124  10.588  -0.135  1.3974  2.0088  0.6122
  809MOL0     H11634   9.228  10.313  -0.101  1.7791  2.2582 -0.3267
  809MOL0     H11635   9.080  10.351  -0.188 -0.8165  1.2348 -0.0811
  809MOL0     H11636   9.216  10.486  -0.361 -1.5453 -0.8755 -0.7467
  809MOL0     H11637   9.263  10.328  -0.366  0.7010  0.7164 -0.9883
  809MOL0     H11638   9.583  10.533  -0.163 -1.0063  1.0736  1.7879
  809MOL0     H11639   8.905  10.460   0.184  1.0075  3.6517 -3.2303
  809MOL0     H11640   8.628  10.526   0.356  1.5001  2.1361 -3.3552
  809MOL0     H11641   8.732  10.386   0.338 -0.0332  0.8124 -0.0936
  809MOL0     H11642   8.723  10.440   0.493  1.2546 -0.6231  0.1322
  810MOL0     O11643  10.036   8.333   5.181 -0.6768  0.6074 -0.6337
  810MOL0     C11644   9.932   8.361   5.243  0.2662 -0.4103  0.4522
  810MOL0     O11645   9.928   8.465   5.333  0.0310 -1.3809 -0.2178
  810MOL0     C11646  10.045   8.530   5.364  0.2486 -0.7929 -0.1546
  810MOL0     C11647  10.120   8.615   5.272  0.0340  0.1649  0.2524
  810MOL0     C11648  10.236   8.684   5.319 -0.4632  0.1756  0.0553
  810MOL0     C11649  10.281   8.661   5.444 -0.4012 -0.1055 -0.2844
  810MOL0     O11650  10.397   8.719   5.498  0.4485  0.3460  0.2817
  810MOL0     C11651  10.416   8.852   5.462  0.1842 -0.3171  0.5967
  810MOL0     C11652  10.497   8.918   5.574 -0.3439  0.8392  0.3724
  810MOL0     C11653  10.505   9.073   5.556  0.0789 -0.2442 -0.0275
  810MOL0     C11654  10.563   9.147   5.686 -0.7839 -0.1215  0.0500
  810MOL0     C11655  10.577   9.299   5.657  0.9365  0.3174  0.2448
  810MOL0     C11656  10.614   9.363   5.789 -0.0387  1.3424  0.4479
  810MOL0     C11657  10.604   9.521   5.787 -0.9086  0.2382 -0.6177
  810MOL0     C11658  10.738   9.595   5.739  0.5839  0.5359  1.1882
  810MOL0     N11659  10.849   9.562   5.832 -0.0785 -0.1392  0.3408
  810MOL0     C11660  10.965   9.494   5.802 -0.1188  0.1125  0.1863
  810MOL0     C11661  11.017   9.474   5.925 -0.6740  0.1861  1.0224
  810MOL0     C11662  11.147   9.400   5.940 -0.7087  0.0912  0.1295
  810MOL0     C11663  11.129   9.252   5.973  0.1541 -0.0939  0.5930
  810MOL0     C11664  11.067   9.229   6.110  0.1017  0.4201 -0.1490
  810MOL0     C11665  10.938   9.141   6.081 -0.1565 -0.6997 -0.0296
  810MOL0     O11666  10.948   9.017   6.014  0.2268  0.6407  0.7025
  810MOL0     C11667  10.829   8.962   5.983  1.1943  0.2774 -0.1063
  810MOL0     C11668  10.700   9.017   6.027  1.0809 -0.5327  0.0798
  810MOL0     C11669  10.580   8.941   6.003 -0.6117  0.4628 -0.0422
  810MOL0     C11670  10.455   8.991   6.063  0.0380 -0.8705 -0.7749
  810MOL0     C11671  10.586   8.813   5.932 -0.7531  0.9746  0.5805
  810MOL0     C11672  10.469   8.733   5.895  0.4874  0.2631 -0.1713
  810MOL0     O11673  10.375   8.731   5.995 -0.0426 -0.5739 -0.3865
  810MOL0     C11674  10.257   8.676   5.958 -0.0244  0.2717  0.8218
  810MOL0     C11675  10.246   8.545   5.932  0.0585 -0.6489  1.1116
  810MOL0     C11676  10.129   8.482   5.899  0.1334  0.1018 -0.1616
  810MOL0     C11677  10.018   8.567   5.862 -0.2583 -0.0096 -0.1955
  810MOL0     O11678   9.889   8.516   5.828 -0.2108  0.5349  0.0096
  810MOL0     C11679   9.863   8.375   5.840  0.6079  0.1793  0.5146
  810MOL0     C11680   9.864   8.328   5.989  0.3252 -0.2611 -0.3769
  810MOL0     C11681   9.783   8.426   6.077  0.7314 -0.1350 -1.1333
  810MOL0     C11682   9.700   8.344   6.186  0.5943  0.1749  0.1937
  810MOL0     C11683   9.789   8.271   6.288  0.6842  0.1246 -0.5787
  810MOL0     C11684   9.712   8.174   6.383  0.3815  0.4520  0.0735
  810MOL0     C11685   9.800   8.142   6.500  0.6126 -0.8843  0.3127
  810MOL0     C11686   9.733   8.065   6.615 -0.6709 -0.2664  0.4708
  810MOL0    Cl11687   9.689   7.893   6.586  0.2356 -0.1645  0.1806
  810MOL0     C11688  10.028   8.712   5.889 -0.3011 -0.0239 -0.3629
  810MOL0     C11689  10.149   8.759   5.940  0.1628  0.1229 -0.2177
  810MOL0     O11690  10.469   8.671   5.788 -0.1267  0.1103  0.0097
  810MOL0     C11691  10.716   8.774   5.892 -0.5176 -0.6435 -0.0731
  810MOL0     C11692  10.838   8.842   5.915  0.3017 -0.1611 -0.1078
  810MOL0     N11693  10.950   9.549   6.022 -0.0141 -0.5711 -0.3897
  810MOL0     N11694  10.849   9.604   5.960  0.8072  0.6609  0.3325
  810MOL0     C11695  10.219   8.574   5.532  0.2686 -0.3211  0.1605
  810MOL0     C11696  10.092   8.506   5.490 -1.1869 -0.4548 -0.8014
  810MOL0     C11697   9.811   8.287   5.212  0.9841  0.3859  1.0671
  810MOL0     C11698   9.805   8.226   5.089 -0.0470 -0.6082 -0.1280
  810MOL0     C11699   9.694   8.151   5.055 -0.5484  0.2958 -0.8454
  810MOL0     C11700   9.588   8.136   5.139 -0.3132  0.2757  0.3597
  810MOL0     O11701   9.486   8.055   5.101  0.4702  1.1081  0.0585
  810MOL0     C11702   9.353   8.072   5.171 -0.9990 -0.6029 -0.5037
  810MOL0     C11703   9.324   7.947   5.267 -1.0607 -0.6183 -0.1894
  810MOL0     C11704   9.197   7.962   5.344  1.3275 -0.1934  0.0882
  810MOL0     C11705   9.192   7.894   5.471 -0.0425 -0.1084 -0.5004
  810MOL0     C11706   9.211   7.747   5.452 -0.3218 -0.1698 -0.8136
  810MOL0     C11707   9.228   7.626   5.442  1.0025  0.3114 -0.7282
  810MOL0     C11708   9.592   8.190   5.265 -0.4625 -0.2847 -0.2934
  810MOL0     C11709   9.704   8.266   5.297  0.2868 -0.0338 -0.4372
  810MOL0     C11710   9.714   8.311   5.438 -0.0401  0.3655  0.9369
  810MOL0     H11711  10.083   8.647   5.175  1.8362  3.5984  0.5531
  810MOL0     H11712  10.280   8.758   5.253 -0.3949 -1.1638 -1.4318
  810MOL0     H11713  10.326   8.905   5.428  1.1015  1.2464  0.5414
  810MOL0     H11714  10.481   8.838   5.375  0.7267 -0.0374  0.9534
  810MOL0     H11715  10.455   8.895   5.672 -0.1048  0.2556  0.3432
  810MOL0     H11716  10.598   8.878   5.583 -0.7974 -0.4299  0.0838
  810MOL0     H11717  10.575   9.094   5.474 -1.0471  2.0668 -0.4791
  810MOL0     H11718  10.410   9.122   5.534 -0.2150 -1.0390 -0.5826
  810MOL0     H11719  10.490   9.144   5.768  0.7875  0.6352  1.5326
  810MOL0     H11720  10.649   9.102   5.735 -0.5946  0.1719 -0.0114
  810MOL0     H11721  10.492   9.342   5.604  1.2472 -0.2375 -0.7203
  810MOL0     H11722  10.656   9.317   5.583  0.0725 -1.0280 -1.0446
  810MOL0     H11723  10.547   9.325   5.866 -2.0719  0.4065 -1.6579
  810MOL0     H11724  10.716   9.329   5.810 -1.1147 -2.3491  0.3266
  810MOL0     H11725  10.584   9.553   5.890 -0.5094 -1.3149 -0.0267
  810MOL0     H11726  10.520   9.557   5.728  1.0954  2.6074 -2.2422
  810MOL0     H11727  10.776   9.549   5.647 -1.0271 -0.0866  0.8038
  810MOL0     H11728  10.714   9.702   5.740  2.1976  1.0015  4.8553
  810MOL0     H11729  10.999   9.461   5.704 -1.0158  1.0280 -0.4546
  810MOL0     H11730  11.208   9.445   6.019  0.4736  1.2676 -1.3893
  810MOL0     H11731  11.206   9.411   5.849  0.6506  1.1546  1.0891
  810MOL0     H11732  11.093   9.196   5.887  0.0598  0.0746  0.5230
  810MOL0     H11733  11.231   9.215   5.992 -0.6179 -2.3964  0.5359
  810MOL0     H11734  11.131   9.166   6.172  2.6169  1.6288 -1.3150
  810MOL0     H11735  11.062   9.327   6.158  0.5468  0.7702 -0.7836
  810MOL0     H11736  10.894   9.116   6.178 -0.1412 -2.3381 -0.4088
  810MOL0     H11737  10.870   9.201   6.020 -0.0163 -2.0166 -1.5273
  810MOL0     H11738  10.699   9.103   6.092 -1.9641 -2.3286  2.7009
  810MOL0     H11739  10.412   8.916   6.131  2.3107 -0.4877  1.2353
  810MOL0     H11740  10.372   9.014   5.996  1.4638 -1.8408 -2.9697
  810MOL0     H11741  10.483   9.084   6.114  0.5949 -1.9469  0.9965
  810MOL0     H11742  10.333   8.481   5.942  0.3366 -0.3112  0.9186
  810MOL0     H11743  10.125   8.374   5.892  2.4526 -0.0918  0.6734
  810MOL0     H11744   9.762   8.343   5.814 -0.2848  0.9797  2.7693
  810MOL0     H11745   9.927   8.312   5.776 -3.1282 -0.3739 -3.1524
  810MOL0     H11746   9.822   8.227   5.987 -0.7064  0.0289 -5.2751
  810MOL0     H11747   9.962   8.322   6.038 -0.3623 -1.0196  0.9639
  810MOL0     H11748   9.718   8.478   6.006  2.1505  1.8851 -1.0213
  810MOL0     H11749   9.843   8.496   6.135 -1.1143  1.4860 -1.0554
  810MOL0     H11750   9.628   8.281   6.133  2.2930 -2.3915  0.7766
  810MOL0     H11751   9.635   8.411   6.244 -0.1248 -2.4892  2.7155
  810MOL0     H11752   9.846   8.193   6.237 -0.4065 -2.7340  2.2544
  810MOL0     H11753   9.868   8.334   6.330 -2.1379  2.5967  1.4355
  810MOL0     H11754   9.687   8.084   6.327 -2.7837  0.7702  0.7702
  810MOL0     H11755   9.617   8.217   6.417 -0.2275  0.3571 -1.4168
  810MOL0     H11756   9.840   8.231   6.550  0.9588 -2.2573  2.6840
  810MOL0     H11757   9.890   8.092   6.462 -0.4480 -1.9343 -0.9007
  810MOL0     H11758   9.641   8.123   6.628 -2.4615 -2.5866 -1.0319
  810MOL0     H11759   9.805   8.062   6.697 -0.5562  1.1525  0.4551
  810MOL0     H11760   9.946   8.783   5.884  1.6607  2.3666 -0.5487
  810MOL0     H11761  10.162   8.862   5.971 -1.3535 -0.4568  2.7309
  810MOL0     H11762  10.738   8.682   5.840  4.3594 -0.7737  1.7131
  810MOL0     H11763  10.931   8.794   5.885  0.0787 -1.2573  0.8537
  810MOL0     H11764  10.262   8.559   5.631 -2.7787 -0.5614  1.5379
  810MOL0     H11765  10.030   8.454   5.563  1.5600 -1.0448  1.2963
  810MOL0     H11766   9.883   8.244   5.016 -0.5001  2.8752  0.0615
  810MOL0     H11767   9.676   8.089   4.968 -1.3550  0.1373 -0.5774
  810MOL0     H11768   9.335   8.158   5.236 -0.2481 -0.9956  0.2383
  810MOL0     H11769   9.271   8.063   5.099 -0.5470 -0.7523 -1.0007
  810MOL0     H11770   9.406   7.926   5.337 -1.0000 -1.1042 -0.3994
  810MOL0     H11771   9.317   7.860   5.200 -0.8251 -0.8210  0.0447
  810MOL0     H11772   9.172   8.067   5.362  2.6299  0.2886 -0.8438
  810MOL0     H11773   9.123   7.925   5.272  1.7973 -2.7730  0.8442
  810MOL0     H11774   9.089   7.913   5.501 -1.2093 -0.2286 -3.9278
  810MOL0     H11775   9.254   7.943   5.546  0.3061 -0.6018 -0.4636
  810MOL0     H11776   9.241   7.521   5.432  2.1563  0.2164  1.2847
  810MOL0     H11777   9.517   8.158   5.337  0.6861 -1.0101  0.6031
  810MOL0     H11778   9.663   8.231   5.492  1.0460 -1.2637 -0.3764
  810MOL0     H11779   9.813   8.317   5.484  0.2136  3.8918  0.2256
  810MOL0     H11780   9.668   8.409   5.455  2.1218  1.9025 -1.3013
  811MOL0     O11781   5.923  10.124   3.768 -0.1042 -0.0161 -0.3559
  811MOL0     C11782   6.009  10.177   3.695  0.0229 -0.0366  0.3128
  811MOL0     O11783   6.146  10.171   3.728  0.3235  0.5622 -0.3741
  811MOL0     C11784   6.196  10.067   3.808  0.4874 -0.0757 -0.4594
  811MOL0     C11785   6.315  10.083   3.881 -0.3055 -0.7521 -0.2118
  811MOL0     C11786   6.367   9.981   3.957 -0.8135 -0.3014 -0.0156
  811MOL0     C11787   6.303   9.859   3.972  0.1990 -0.6784  0.5453
  811MOL0     O11788   6.328   9.745   4.052  0.0932 -0.3035 -0.2477
  811MOL0     C11789   6.448   9.752   4.136 -0.1553  1.0556 -0.7025
  811MOL0     C11790   6.478   9.612   4.197 -0.1351  0.1144 -1.0095
  811MOL0     C11791   6.356   9.550   4.263 -0.3186  0.5456  0.0505
  811MOL0     C11792   6.319   9.611   4.397 -0.1040 -0.3171  0.3494
  811MOL0     C11793   6.199   9.545   4.453  0.9186  0.1893  0.1265
  811MOL0     C11794   6.197   9.387   4.445  0.2763  0.4542  0.3384
  811MOL0     C11795   6.082   9.323   4.523  1.6083  1.4217 -0.0264
  811MOL0     C11796   6.000   9.234   4.419  1.0438  0.4065  0.3198
  811MOL0     N11797   6.072   9.101   4.397 -0.1446 -0.0492  0.5419
  811MOL0     C11798   6.072   9.010   4.493 -0.1596  1.2930  0.3529
  811MOL0     C11799   6.132   8.897   4.451 -0.0650 -0.2832 -0.3578
  811MOL0     C11800   6.146   8.764   4.521 -0.0506 -0.2552 -0.6738
  811MOL0     C11801   6.264   8.748   4.603  0.2132 -0.4459 -0.7046
  811MOL0     C11802   6.400   8.759   4.533 -0.2343 -0.6919 -0.7670
  811MOL0     C11803   6.419   8.663   4.416  0.2710  0.2247  0.2098
  811MOL0     O11804   6.554   8.657   4.371  0.4946 -0.1543  0.0100
  811MOL0     C11805   6.594   8.590   4.262 -1.5212  0.4691 -0.9156
  811MOL0     C11806   6.734   8.574   4.248 -0.5389 -0.6922 -0.5811
  811MOL0     C11807   6.799   8.496   4.158 -0.4923 -0.0140  0.7091
  811MOL0     C11808   6.943   8.519   4.132 -0.0710  0.0991  0.6291
  811MOL0     C11809   6.708   8.422   4.076 -0.0880 -0.5470  1.1175
  811MOL0     C11810   6.754   8.324   3.967  0.3570  0.1456 -0.2824
  811MOL0     O11811   6.647   8.270   3.902  0.0169  0.1948 -0.2943
  811MOL0     C11812   6.691   8.197   3.797  0.5312  0.8775  0.7379
  811MOL0     C11813   6.667   8.061   3.805  0.5479  0.3394  0.7727
  811MOL0     C11814   6.676   7.984   3.689 -0.5019 -0.1982  0.0846
  811MOL0     C11815   6.717   8.051   3.565  0.7410  1.0462  1.1521
  811MOL0     O11816   6.701   7.974   3.450  0.2360 -0.1106 -0.2747
  811MOL0     C11817   6.623   7.855   3.446  0.0064  0.0959 -0.4663
  811MOL0     C11818   6.584   7.831   3.295  0.0457  0.7188 -0.8313
  811MOL0     C11819   6.437   7.876   3.258  0.2299  0.1456 -0.1035
  811MOL0     C11820   6.335   7.773   3.299 -0.8034  0.0393  0.3916
  811MOL0     C11821   6.193   7.795   3.241 -0.1666 -0.9251 -0.0182
  811MOL0     C11822   6.146   7.659   3.187  0.7627  0.4179 -0.1322
  811MOL0     C11823   5.992   7.683   3.190 -0.4664 -0.2771  0.4210
  811MOL0     C11824   5.915   7.566   3.142 -0.1361  0.1564 -0.6383
  811MOL0    Cl11825   5.937   7.409   3.239 -0.1572 -0.3928 -0.0170
  811MOL0     C11826   6.754   8.186   3.568  0.1830 -0.2234 -0.3867
  811MOL0     C11827   6.735   8.260   3.686 -0.2404 -0.0050  1.0588
  811MOL0     O11828   6.872   8.286   3.961  0.3014 -1.1816  0.0552
  811MOL0     C11829   6.566   8.444   4.083  1.1889  0.3208  0.1870
  811MOL0     C11830   6.511   8.526   4.174 -0.2949 -0.7110  0.1699
  811MOL0     N11831   6.171   8.936   4.325 -0.1067  0.3056  0.6671
  811MOL0     N11832   6.139   9.052   4.289  0.0891  0.7446  0.1822
  811MOL0     C11833   6.186   9.839   3.892 -1.0713  0.3425  0.1486
  811MOL0     C11834   6.136   9.942   3.810  0.9079 -1.0432 -0.8758
  811MOL0     C11835   5.983  10.287   3.598  0.3332 -0.0636 -0.2564
  811MOL0     C11836   6.078  10.393   3.574 -1.0269  0.3453  0.0291
  811MOL0     C11837   6.043  10.509   3.497 -0.6536  0.4228 -0.2775
  811MOL0     C11838   5.923  10.519   3.434 -0.4304 -0.3782  0.6614
  811MOL0     O11839   5.882  10.634   3.374 -0.4333  0.4139  0.7442
  811MOL0     C11840   5.738  10.656   3.373  0.7326 -0.7603  0.1643
  811MOL0     C11841   5.711  10.800   3.342 -0.4949  0.7242  0.8233
  811MOL0     C11842   5.607  10.864   3.442 -0.0825 -0.3748 -0.8656
  811MOL0     C11843   5.568  11.005   3.392  0.6369 -0.4133 -0.9553
  811MOL0     C11844   5.676  11.099   3.381  0.4610  0.3085  0.9959
  811MOL0     C11845   5.761  11.180   3.368  0.2239 -0.0669  0.0387
  811MOL0     C11846   5.837  10.407   3.439 -0.0660 -0.3729 -1.2973
  811MOL0     C11847   5.860  10.291   3.526  0.5451  0.6142 -0.0369
  811MOL0     C11848   5.736  10.205   3.542  0.3511 -0.1649  0.0369
  811MOL0     H11849   6.355  10.181   3.905 -0.6933 -0.9994  1.6028
  811MOL0     H11850   6.456   9.993   4.018 -1.8424  2.1089  1.1714
  811MOL0     H11851   6.429   9.831   4.209 -2.7427  1.5869 -1.7906
  811MOL0     H11852   6.538   9.782   4.082  3.1622 -0.0718  3.7044
  811MOL0     H11853   6.509   9.546   4.116  1.1593 -1.0557  0.3865
  811MOL0     H11854   6.560   9.609   4.269 -0.7043 -2.9038 -0.3419
  811MOL0     H11855   6.269   9.561   4.198 -2.4477 -0.9545  2.4609
  811MOL0     H11856   6.384   9.445   4.277 -0.3409  0.6660  1.1526
  811MOL0     H11857   6.405   9.604   4.466  0.4103  1.1429 -0.1033
  811MOL0     H11858   6.296   9.717   4.386  0.7823  0.1172  2.1293
  811MOL0     H11859   6.109   9.577   4.400 -0.0462 -2.7245 -0.1498
  811MOL0     H11860   6.170   9.585   4.551  0.6748  1.6901 -0.5198
  811MOL0     H11861   6.196   9.363   4.338 -1.6983  0.0448  0.4130
  811MOL0     H11862   6.297   9.362   4.483  0.7002  0.7292 -0.5639
  811MOL0     H11863   6.018   9.403   4.563 -0.3788  0.3775 -0.9326
  811MOL0     H11864   6.115   9.257   4.603  0.9883 -0.8527 -1.5484
  811MOL0     H11865   5.900   9.198   4.447  1.1918  0.2352  0.6353
  811MOL0     H11866   5.998   9.293   4.327 -0.1124 -0.0327  0.0467
  811MOL0     H11867   6.040   9.025   4.595  2.0191  1.2554  1.0989
  811MOL0     H11868   6.136   8.682   4.449  0.8936 -2.9015  2.0077
  811MOL0     H11869   6.058   8.758   4.585 -0.6417  3.7612 -0.8969
  811MOL0     H11870   6.273   8.830   4.675  1.3168 -0.1160 -1.1964
  811MOL0     H11871   6.269   8.655   4.661 -0.7194  1.1610  2.1504
  811MOL0     H11872   6.410   8.860   4.494 -2.7969  0.1281  0.4768
  811MOL0     H11873   6.478   8.753   4.610 -1.8767  1.8178  1.2570
  811MOL0     H11874   6.395   8.563   4.453 -2.6022  0.9672  0.5533
  811MOL0     H11875   6.361   8.691   4.328  2.9635  3.1468 -0.8156
  811MOL0     H11876   6.802   8.636   4.307  0.1040  0.5142 -2.5198
  811MOL0     H11877   7.007   8.454   4.192  2.6388 -0.3375 -2.4473
  811MOL0     H11878   6.954   8.623   4.167 -1.2127  0.5049 -0.1606
  811MOL0     H11879   6.979   8.520   4.029 -0.4587  2.2692  0.4509
  811MOL0     H11880   6.626   8.025   3.899 -2.4758  3.1570  0.7375
  811MOL0     H11881   6.651   7.878   3.694  1.9025 -0.8371 -0.0664
  811MOL0     H11882   6.693   7.777   3.477  1.8837  1.9540  0.1645
  811MOL0     H11883   6.533   7.854   3.508 -0.7762 -0.7171 -1.5626
  811MOL0     H11884   6.666   7.877   3.238  2.5866  1.0084  2.7615
  811MOL0     H11885   6.603   7.727   3.267 -0.8817  0.7374 -1.5772
  811MOL0     H11886   6.427   7.892   3.151  2.8146 -4.0238 -1.2077
  811MOL0     H11887   6.421   7.971   3.310  0.3094  0.4470 -0.6195
  811MOL0     H11888   6.327   7.780   3.408 -1.0018 -2.3551  0.5804
  811MOL0     H11889   6.361   7.669   3.281 -4.0406 -1.3125  2.6062
  811MOL0     H11890   6.135   7.837   3.324 -0.6019  0.4447 -0.9745
  811MOL0     H11891   6.192   7.875   3.167  1.3998 -1.3731 -0.5694
  811MOL0     H11892   6.167   7.577   3.256 -2.5672 -0.1996  0.3115
  811MOL0     H11893   6.188   7.645   3.087 -3.0617  1.9035 -2.1793
  811MOL0     H11894   5.959   7.773   3.138 -4.3426 -1.1337  1.0800
  811MOL0     H11895   5.967   7.704   3.295 -2.8773  1.6211 -0.4431
  811MOL0     H11896   5.938   7.549   3.037 -0.4881  3.7577 -1.4127
  811MOL0     H11897   5.810   7.594   3.155 -1.1284 -3.9309  2.4303
  811MOL0     H11898   6.773   8.231   3.471  3.2250  0.8077  0.5785
  811MOL0     H11899   6.746   8.367   3.672  0.0533 -0.0789  0.7298
  811MOL0     H11900   6.492   8.396   4.020 -1.1167 -0.0964  2.9742
  811MOL0     H11901   6.403   8.541   4.178 -0.1939  0.3681 -0.6559
  811MOL0     H11902   6.151   9.736   3.894 -1.0126  0.3214  1.6264
  811MOL0     H11903   6.051   9.902   3.757  0.7576 -1.0903 -0.5990
  811MOL0     H11904   6.178  10.373   3.611 -0.9594 -2.9504 -1.5909
  811MOL0     H11905   6.115  10.580   3.457 -1.7569  1.3514 -0.6594
  811MOL0     H11906   5.688  10.588   3.305  2.2900 -0.5263 -1.2806
  811MOL0     H11907   5.706  10.650   3.478  1.1129  4.3499  0.8623
  811MOL0     H11908   5.670  10.806   3.241 -0.9537  2.7646  1.0925
  811MOL0     H11909   5.796  10.868   3.350 -1.3542  1.8817  0.3912
  811MOL0     H11910   5.520  10.798   3.451  2.0823 -3.3394 -0.1024
  811MOL0     H11911   5.646  10.883   3.543 -1.2789  3.3688 -0.9461
  811MOL0     H11912   5.491  11.046   3.458 -0.2761 -3.4633  0.0248
  811MOL0     H11913   5.506  10.990   3.303 -3.0732 -1.6310  1.5965
  811MOL0     H11914   5.821  11.268   3.355  0.6681 -0.2289  0.8752
  811MOL0     H11915   5.736  10.415   3.400 -0.4108  1.9873 -0.1052
  811MOL0     H11916   5.698  10.217   3.644  2.1783 -0.0535  0.7332
  811MOL0     H11917   5.661  10.238   3.469  0.8027 -0.7762 -0.7223
  811MOL0     H11918   5.751  10.097   3.534 -0.1378 -0.1167 -2.1390
  812MOL0     O11919   5.824   4.343   4.839  0.0276 -0.8098  0.5267
  812MOL0     C11920   5.906   4.434   4.851  0.1590 -0.0468 -0.0180
  812MOL0     O11921   6.005   4.440   4.941  0.3204  0.4838  0.4049
  812MOL0     C11922   6.027   4.327   5.007  0.1762  0.7773 -0.0399
  812MOL0     C11923   6.071   4.211   4.939 -0.4166  0.0901  1.0256
  812MOL0     C11924   6.129   4.113   5.009 -0.5584 -0.3143 -0.3130
  812MOL0     C11925   6.115   4.103   5.148 -0.0719  0.0622 -0.1316
  812MOL0     O11926   6.161   3.984   5.211  0.7910  0.5386 -0.1536
  812MOL0     C11927   6.177   3.976   5.356  0.3777 -0.2937  0.2771
  812MOL0     C11928   6.245   3.850   5.399 -0.6889 -0.0746  0.9878
  812MOL0     C11929   6.302   3.848   5.542 -0.2055  0.4929  0.0504
  812MOL0     C11930   6.301   3.710   5.607  0.4141 -0.8378  0.4438
  812MOL0     C11931   6.346   3.700   5.755  0.3128 -0.7613  0.1197
  812MOL0     C11932   6.380   3.555   5.792 -0.5549 -0.3987  0.0501
  812MOL0     C11933   6.383   3.531   5.945 -0.1092  0.1893 -0.3616
  812MOL0     C11934   6.421   3.396   5.989 -0.2164  0.6632 -0.0463
  812MOL0     N11935   6.566   3.364   5.974 -0.6842 -0.5068 -0.2618
  812MOL0     C11936   6.672   3.394   6.049  0.1256 -1.0868 -0.1367
  812MOL0     C11937   6.775   3.350   5.977 -0.1938 -0.2132 -0.7419
  812MOL0     C11938   6.912   3.339   6.041  0.1770 -0.8686  0.0956
  812MOL0     C11939   7.032   3.337   5.952 -0.1850  0.4914 -0.1568
  812MOL0     C11940   7.160   3.304   6.028 -0.5427  0.7133  0.5093
  812MOL0     C11941   7.150   3.164   6.104 -0.0290  0.0740  0.5025
  812MOL0     O11942   7.125   3.057   6.014  0.8252  0.4753  0.8873
  812MOL0     C11943   7.058   2.945   6.056 -0.0984  0.0177  0.3048
  812MOL0     C11944   7.104   2.855   6.156  0.5635 -0.6217  0.6425
  812MOL0     C11945   7.036   2.733   6.175  0.1735  0.1012  0.2845
  812MOL0     C11946   7.099   2.638   6.283 -0.2152  0.0203  1.5392
  812MOL0     C11947   6.911   2.704   6.110 -1.1409 -0.6791  1.5132
  812MOL0     C11948   6.843   2.565   6.109 -0.3324  0.4017  0.3797
  812MOL0     O11949   6.759   2.546   5.998 -0.0860  0.0541 -0.6978
  812MOL0     C11950   6.693   2.422   5.980  0.9567  0.0811 -0.2503
  812MOL0     C11951   6.750   2.298   5.977  0.0210 -0.2397 -0.8195
  812MOL0     C11952   6.688   2.181   5.947 -1.0351  0.2223 -0.0817
  812MOL0     C11953   6.555   2.170   5.937  0.4830  0.5570 -0.0682
  812MOL0     O11954   6.476   2.060   5.919  0.7882  1.0949  0.3938
  812MOL0     C11955   6.524   1.937   5.984 -0.1229  0.0911  0.4569
  812MOL0     C11956   6.415   1.834   6.006  0.2649  1.2080 -0.1606
  812MOL0     C11957   6.287   1.903   6.063  0.7808  0.0604 -1.1968
  812MOL0     C11958   6.181   1.800   6.091 -0.1332 -0.1151 -0.0812
  812MOL0     C11959   6.051   1.865   6.145  0.4967 -1.1070 -0.0754
  812MOL0     C11960   5.943   1.756   6.176  0.1350  0.6839 -0.2511
  812MOL0     C11961   5.810   1.828   6.210 -0.9628 -0.3656  0.7196
  812MOL0     C11962   5.702   1.721   6.197 -0.0839  0.3793 -0.3014
  812MOL0    Cl11963   5.739   1.607   6.313 -0.3412  0.5096 -0.0170
  812MOL0     C11964   6.487   2.294   5.936 -0.2885  0.3291  0.4632
  812MOL0     C11965   6.551   2.418   5.956 -1.4156 -0.6328  0.6305
  812MOL0     O11966   6.871   2.473   6.184 -0.1950  0.6606 -0.4437
  812MOL0     C11967   6.868   2.802   6.015  0.5056 -0.0486  0.0778
  812MOL0     C11968   6.938   2.924   6.001 -0.0813 -0.4360 -0.8382
  812MOL0     N11969   6.734   3.294   5.858 -0.1507  0.5127 -0.0387
  812MOL0     N11970   6.608   3.292   5.871 -0.6005  0.4442  0.2971
  812MOL0     C11971   6.052   4.210   5.215  0.4392 -0.6233  0.2220
  812MOL0     C11972   6.011   4.317   5.142 -0.2090  0.4564  0.2285
  812MOL0     C11973   5.897   4.547   4.762 -0.1839  0.3658  0.1873
  812MOL0     C11974   5.881   4.674   4.814 -0.6065 -0.7414  0.0707
  812MOL0     C11975   5.871   4.787   4.737 -0.4300  0.8211 -0.0505
  812MOL0     C11976   5.903   4.776   4.603  0.2800 -0.8379 -0.1816
  812MOL0     O11977   5.902   4.894   4.538  0.9413 -0.1593  0.2390
  812MOL0     C11978   6.027   4.961   4.522  0.4129  0.2500  0.6120
  812MOL0     C11979   6.052   5.055   4.640  0.3815 -0.1490 -0.2567
  812MOL0     C11980   6.129   5.186   4.613  0.1196 -0.3069  0.0799
  812MOL0     C11981   6.232   5.161   4.508 -0.4439  0.4705  0.7788
  812MOL0     C11982   6.335   5.072   4.569 -1.3415  0.8345  0.2633
  812MOL0     C11983   6.415   4.992   4.624 -0.3586  0.8162  0.1508
  812MOL0     C11984   5.933   4.652   4.549  0.3318  0.5975  0.8206
  812MOL0     C11985   5.924   4.530   4.622 -0.4769  0.1021  0.1937
  812MOL0     C11986   5.952   4.402   4.545  0.1143 -0.4872  0.1707
  812MOL0     H11987   6.079   4.200   4.831 -1.0635 -3.0099  1.2051
  812MOL0     H11988   6.189   4.037   4.960  0.0705 -1.5778  2.2476
  812MOL0     H11989   6.084   3.990   5.411  1.0218  0.5154  1.1952
  812MOL0     H11990   6.237   4.063   5.387 -0.4416  0.8822 -1.3022
  812MOL0     H11991   6.182   3.761   5.384  3.9933 -3.5858 -0.3877
  812MOL0     H11992   6.339   3.832   5.346  0.6248 -3.2027  3.9335
  812MOL0     H11993   6.402   3.891   5.536 -0.9531  2.1272 -1.6736
  812MOL0     H11994   6.241   3.912   5.607 -0.4310 -0.8853  1.2473
  812MOL0     H11995   6.198   3.673   5.605 -0.5117  1.5706 -0.2982
  812MOL0     H11996   6.349   3.639   5.538 -2.5781 -0.5591 -2.1635
  812MOL0     H11997   6.274   3.752   5.818 -0.1622  0.5369 -1.4227
  812MOL0     H11998   6.430   3.768   5.773 -0.3796  0.3099 -0.5523
  812MOL0     H11999   6.297   3.496   5.752 -1.9342  0.1115  1.9947
  812MOL0     H12000   6.473   3.516   5.750  1.4445  1.7249  2.1682
  812MOL0     H12001   6.292   3.563   5.997  0.5989  0.3521  0.7974
  812MOL0     H12002   6.458   3.595   5.990  1.5189 -1.1836 -1.0135
  812MOL0     H12003   6.392   3.380   6.093 -0.2976  1.7417  0.1019
  812MOL0     H12004   6.367   3.327   5.923  0.3651  0.5840 -0.4462
  812MOL0     H12005   6.681   3.428   6.151 -0.5895  2.7340 -1.1949
  812MOL0     H12006   6.908   3.254   6.109 -1.0717 -1.4529 -0.6582
  812MOL0     H12007   6.917   3.431   6.099  0.0437 -1.1330  0.5308
  812MOL0     H12008   7.010   3.260   5.878 -0.0603  2.8389 -2.8001
  812MOL0     H12009   7.043   3.430   5.895  1.5682 -0.9700 -2.3462
  812MOL0     H12010   7.249   3.294   5.966 -0.2520  0.9645  0.8844
  812MOL0     H12011   7.186   3.378   6.104  1.6516  0.7157 -0.1889
  812MOL0     H12012   7.239   3.128   6.156  0.6527  0.2316 -0.5178
  812MOL0     H12013   7.078   3.179   6.185  0.0381  5.4786 -0.0974
  812MOL0     H12014   7.198   2.870   6.209  1.3585  2.4293 -1.3675
  812MOL0     H12015   7.178   2.680   6.347  0.3766 -1.6742  1.9808
  812MOL0     H12016   7.147   2.556   6.229  2.6337  2.6580 -0.3390
  812MOL0     H12017   7.016   2.610   6.349 -1.2559  1.3091  0.8146
  812MOL0     H12018   6.857   2.297   5.996  0.4210  3.2558 -2.2093
  812MOL0     H12019   6.747   2.090   5.935 -1.2501  0.1074 -0.2739
  812MOL0     H12020   6.602   1.886   5.926 -1.5531 -1.7109  0.0562
  812MOL0     H12021   6.575   1.962   6.079  0.8081 -0.3872  0.0984
  812MOL0     H12022   6.402   1.767   5.920 -0.5396 -0.1989  1.0029
  812MOL0     H12023   6.459   1.769   6.083 -0.4502  0.1963 -0.5862
  812MOL0     H12024   6.253   1.974   5.987 -0.9748 -0.6490 -1.1221
  812MOL0     H12025   6.307   1.964   6.152 -1.4533 -1.5596  0.5424
  812MOL0     H12026   6.217   1.722   6.160  0.0357  0.1124  0.0881
  812MOL0     H12027   6.157   1.741   6.002  1.2339  1.5464 -1.6282
  812MOL0     H12028   6.063   1.917   6.241  1.1003 -1.7645  0.2182
  812MOL0     H12029   6.010   1.929   6.067 -2.8974 -0.2861  2.1435
  812MOL0     H12030   5.988   1.689   6.251  0.7584 -1.5731 -2.4836
  812MOL0     H12031   5.924   1.694   6.088 -3.1602 -0.4577  1.1028
  812MOL0     H12032   5.780   1.907   6.141 -0.5720  0.9645  2.0267
  812MOL0     H12033   5.818   1.875   6.308  0.6918  3.1692 -0.9320
  812MOL0     H12034   5.704   1.683   6.094  0.9680 -2.7866  0.7523
  812MOL0     H12035   5.602   1.757   6.219 -0.2898 -0.5661  0.3757
  812MOL0     H12036   6.383   2.306   5.909  0.2440 -2.8803 -4.3425
  812MOL0     H12037   6.497   2.511   5.941 -2.3058 -1.4927 -2.0706
  812MOL0     H12038   6.782   2.797   5.950 -0.6300  4.2931  0.9094
  812MOL0     H12039   6.909   3.001   5.931 -1.2596  1.6248  1.7416
  812MOL0     H12040   6.031   4.211   5.321 -0.7876  0.3823 -0.0127
  812MOL0     H12041   5.981   4.408   5.192 -0.5799  0.8843 -0.7636
  812MOL0     H12042   5.877   4.669   4.922 -2.4843 -0.0811  0.0687
  812MOL0     H12043   5.854   4.884   4.783 -1.2860  0.9787 -0.6843
  812MOL0     H12044   6.114   4.896   4.507  1.5537  1.0044  3.2744
  812MOL0     H12045   6.019   5.021   4.431 -0.4015  1.7479  1.6339
  812MOL0     H12046   6.106   4.999   4.717 -0.2026  2.2180  2.0146
  812MOL0     H12047   5.953   5.082   4.679  1.5139  4.6760 -0.2191
  812MOL0     H12048   6.072   5.273   4.579 -0.3073 -1.5711 -2.6886
  812MOL0     H12049   6.185   5.209   4.704 -0.2693  0.8691  0.0375
  812MOL0     H12050   6.275   5.258   4.482 -1.6697  0.5559 -1.1398
  812MOL0     H12051   6.182   5.120   4.420  1.1076 -0.1448  0.1588
  812MOL0     H12052   6.484   4.920   4.664  2.3426  2.5583 -1.0859
  812MOL0     H12053   5.943   4.642   4.442 -0.8597 -0.1688  0.7627
  812MOL0     H12054   6.011   4.339   4.613  0.8693 -1.4166 -1.2853
  812MOL0     H12055   5.862   4.341   4.529 -1.2459  0.3824  3.5647
  812MOL0     H12056   6.016   4.403   4.456  3.4525 -0.9482  2.3867
  813MOL0     O12057   3.142   5.994   2.833 -0.2204 -0.0154 -0.1539
  813MOL0     C12058   3.113   5.976   2.949  0.3264 -1.1402  0.6612
  813MOL0     O12059   3.128   6.074   3.051 -0.1020 -0.2461 -0.2213
  813MOL0     C12060   3.193   6.192   3.023 -0.3078 -0.2997  0.6001
  813MOL0     C12061   3.137   6.322   3.001  0.4936 -0.3169  0.6855
  813MOL0     C12062   3.215   6.430   2.980 -0.5353 -0.7706 -0.5508
  813MOL0     C12063   3.353   6.417   2.977 -0.7103 -0.1581  1.0289
  813MOL0     O12064   3.437   6.527   2.956  1.1804 -0.3757 -0.2471
  813MOL0     C12065   3.409   6.603   2.840  0.9822 -2.1978 -0.3990
  813MOL0     C12066   3.399   6.755   2.881 -0.9283 -0.5171  0.3080
  813MOL0     C12067   3.320   6.839   2.782  0.3838 -0.0920 -0.8608
  813MOL0     C12068   3.270   6.967   2.848  0.0656  0.0927  0.0203
  813MOL0     C12069   3.195   7.051   2.751 -0.5741 -0.3312  0.0653
  813MOL0     C12070   3.157   7.177   2.830  0.6458 -0.4401  0.1467
  813MOL0     C12071   3.056   7.262   2.742  0.5245 -0.7984  0.0568
  813MOL0     C12072   2.906   7.205   2.737 -0.5898  0.1213 -0.0109
  813MOL0     N12073   2.828   7.296   2.811 -0.2343  0.4494  0.3350
  813MOL0     C12074   2.842   7.329   2.938 -0.8208 -0.2550  0.9235
  813MOL0     C12075   2.745   7.421   2.967  0.1796  0.3190  0.1699
  813MOL0     C12076   2.718   7.477   3.107 -0.2740 -0.3700 -1.0080
  813MOL0     C12077   2.710   7.632   3.105 -0.0516  0.0457 -1.1623
  813MOL0     C12078   2.714   7.704   3.250  0.3977 -0.3253  0.2392
  813MOL0     C12079   2.851   7.719   3.309 -0.0685  0.0572  0.1439
  813MOL0     O12080   2.898   7.594   3.360  0.2936 -0.0860  0.2283
  813MOL0     C12081   3.007   7.589   3.446 -0.0019  0.4011  0.2298
  813MOL0     C12082   3.103   7.691   3.453  0.2703 -0.2545  0.0561
  813MOL0     C12083   3.225   7.683   3.531 -0.3412 -0.6415 -0.5435
  813MOL0     C12084   3.334   7.782   3.514  0.3321 -0.6712 -0.3303
  813MOL0     C12085   3.260   7.554   3.580  0.3378 -0.3679 -0.3210
  813MOL0     C12086   3.390   7.520   3.646  0.1941  0.5043 -0.7131
  813MOL0     O12087   3.414   7.600   3.753 -0.3147 -0.4151  0.3963
  813MOL0     C12088   3.518   7.550   3.832  0.6970  0.6355  0.1473
  813MOL0     C12089   3.650   7.579   3.797  0.1207  0.6273 -0.1793
  813MOL0     C12090   3.759   7.537   3.870  0.0757 -1.0626  0.1528
  813MOL0     C12091   3.742   7.455   3.984 -0.2985  0.2249  0.0851
  813MOL0     O12092   3.848   7.412   4.063 -0.5046  0.4780  0.1163
  813MOL0     C12093   3.980   7.455   4.030 -0.3244  0.2683 -0.7261
  813MOL0     C12094   4.073   7.393   4.131 -0.4470 -0.6087 -0.5963
  813MOL0     C12095   4.140   7.262   4.090 -0.1088 -0.5299 -0.3392
  813MOL0     C12096   4.020   7.158   4.080 -0.4391 -0.3624  1.1384
  813MOL0     C12097   4.079   7.013   4.068 -0.4103  0.6202  0.2552
  813MOL0     C12098   4.163   6.982   3.938 -0.2801 -0.5183 -0.1698
  813MOL0     C12099   4.090   7.016   3.802  0.6473  0.9348 -0.0863
  813MOL0     C12100   4.167   6.943   3.686  0.2361 -0.7890 -0.5340
  813MOL0    Cl12101   4.214   6.769   3.725  0.4961 -0.5834  0.2815
  813MOL0     C12102   3.619   7.402   4.008  0.8944 -0.8962  0.0873
  813MOL0     C12103   3.506   7.444   3.927  0.6455  0.2440 -0.9808
  813MOL0     O12104   3.450   7.417   3.609 -0.5647 -0.1971  0.2956
  813MOL0     C12105   3.164   7.452   3.575 -0.3252 -0.4897 -0.8676
  813MOL0     C12106   3.038   7.477   3.521  0.7397  0.2121 -1.4400
  813MOL0     N12107   2.686   7.458   2.844 -0.5079 -0.4795  0.3342
  813MOL0     N12108   2.740   7.384   2.752 -0.5739  0.6223  0.3733
  813MOL0     C12109   3.412   6.296   2.998  0.1115 -0.3988 -0.4526
  813MOL0     C12110   3.335   6.185   3.020  0.1066 -0.4392  0.8382
  813MOL0     C12111   3.047   5.844   2.988  0.2926  0.5810  0.7558
  813MOL0     C12112   2.974   5.834   3.107 -0.0730  0.4254 -0.6563
  813MOL0     C12113   2.914   5.715   3.139 -0.0686 -0.5105  0.1455
  813MOL0     C12114   2.903   5.604   3.055 -0.7416  0.1986  0.2495
  813MOL0     O12115   2.821   5.497   3.082 -0.9402  0.0556  0.5191
  813MOL0     C12116   2.706   5.490   3.153 -0.4093  0.0872 -0.6261
  813MOL0     C12117   2.740   5.452   3.301  0.3422 -1.0223  0.2571
  813MOL0     C12118   2.635   5.374   3.375  0.8006  0.8417  0.5123
  813MOL0     C12119   2.627   5.228   3.327  0.0256  0.6111 -0.2704
  813MOL0     C12120   2.515   5.165   3.394  0.5527 -0.2015 -0.4710
  813MOL0     C12121   2.415   5.132   3.451 -0.5228 -1.4117 -0.8420
  813MOL0     C12122   2.996   5.616   2.945  0.4108  0.6725  0.5631
  813MOL0     C12123   3.056   5.725   2.907 -0.1772 -0.6534  0.1483
  813MOL0     C12124   3.139   5.709   2.785  0.0023 -0.4225 -1.0463
  813MOL0     H12125   3.033   6.344   2.981  0.4296 -0.8974  0.3531
  813MOL0     H12126   3.167   6.523   2.952  2.0310  0.8261 -0.0002
  813MOL0     H12127   3.314   6.578   2.792 -0.7696 -0.2035  1.7795
  813MOL0     H12128   3.502   6.595   2.783  1.9056 -1.8939  1.0043
  813MOL0     H12129   3.356   6.762   2.981  0.9296 -0.2716  1.1344
  813MOL0     H12130   3.496   6.805   2.893 -0.6095 -0.2822 -2.4471
  813MOL0     H12131   3.392   6.865   2.704 -0.6872  4.1702 -0.6979
  813MOL0     H12132   3.233   6.782   2.747 -1.7536  1.4145  1.6056
  813MOL0     H12133   3.197   6.940   2.924  1.2881  1.7199  1.8698
  813MOL0     H12134   3.351   7.026   2.891  1.4003 -1.9166  0.4064
  813MOL0     H12135   3.106   7.000   2.714 -0.2653 -1.2953  0.6087
  813MOL0     H12136   3.257   7.074   2.664  0.5103  2.2403  1.4008
  813MOL0     H12137   3.108   7.150   2.924  1.1011  0.0496  0.5286
  813MOL0     H12138   3.249   7.228   2.860  3.1007 -0.6287 -5.7319
  813MOL0     H12139   3.095   7.272   2.640 -0.8977 -1.7347 -0.6153
  813MOL0     H12140   3.047   7.363   2.782  0.5087 -1.0079  0.5849
  813MOL0     H12141   2.883   7.208   2.630 -0.3434  0.8078 -0.0475
  813MOL0     H12142   2.890   7.102   2.772  1.0344 -0.7118 -1.5834
  813MOL0     H12143   2.916   7.295   3.010 -0.8417 -2.1198  0.1197
  813MOL0     H12144   2.801   7.439   3.167  1.3032  0.6386 -2.4551
  813MOL0     H12145   2.621   7.438   3.142 -0.9575  3.0179  1.4156
  813MOL0     H12146   2.804   7.662   3.058 -0.0292  1.9640  0.0039
  813MOL0     H12147   2.619   7.663   3.053  0.9022 -4.7197 -6.6621
  813MOL0     H12148   2.655   7.795   3.233 -4.0115 -2.5422  2.0409
  813MOL0     H12149   2.647   7.648   3.315 -0.6291 -1.3137 -1.5967
  813MOL0     H12150   2.923   7.756   3.236 -1.0252  1.3588 -0.1630
  813MOL0     H12151   2.859   7.795   3.386  1.4422  1.1036 -0.9836
  813MOL0     H12152   3.087   7.777   3.389  0.8554  0.8487  1.3485
  813MOL0     H12153   3.290   7.881   3.532 -1.6570 -1.5145 -0.2728
  813MOL0     H12154   3.376   7.773   3.413 -1.0917  0.4699 -1.0673
  813MOL0     H12155   3.414   7.770   3.587 -0.5662 -4.9041  0.2189
  813MOL0     H12156   3.659   7.640   3.708 -1.3280 -1.4114 -1.8153
  813MOL0     H12157   3.856   7.568   3.833 -0.6011  1.6597  0.3966
  813MOL0     H12158   4.006   7.425   3.928  1.4439 -1.8166  0.2761
  813MOL0     H12159   4.003   7.561   4.046 -0.6924  0.0299  1.7521
  813MOL0     H12160   4.160   7.455   4.154 -0.4739 -0.5755 -0.5853
  813MOL0     H12161   4.021   7.384   4.227 -1.6681  1.2150 -1.0404
  813MOL0     H12162   4.217   7.223   4.159 -0.5707  0.0274  0.5052
  813MOL0     H12163   4.179   7.280   3.990 -0.7227  3.1472 -0.0436
  813MOL0     H12164   3.947   7.176   4.001  0.4612 -2.1749 -0.1830
  813MOL0     H12165   3.961   7.161   4.172 -0.2665  0.8090  1.2318
  813MOL0     H12166   4.152   6.994   4.147  1.2955  1.4171 -1.0645
  813MOL0     H12167   3.995   6.945   4.083  0.5063 -0.6831 -0.3098
  813MOL0     H12168   4.195   6.879   3.956  0.3089  0.1129  3.1154
  813MOL0     H12169   4.251   7.048   3.940  0.8975 -1.9448 -1.7146
  813MOL0     H12170   4.080   7.121   3.772 -1.4190  0.2915 -1.9233
  813MOL0     H12171   3.987   6.979   3.812  0.7476  0.7377  0.2530
  813MOL0     H12172   4.257   7.002   3.666  0.5104  0.0352  2.6328
  813MOL0     H12173   4.108   6.940   3.594 -1.5694  0.4673  0.5322
  813MOL0     H12174   3.615   7.326   4.085  4.5061  0.3130  1.6696
  813MOL0     H12175   3.411   7.392   3.929  0.1960  1.0302 -1.4664
  813MOL0     H12176   3.189   7.352   3.607  1.9366  0.2174 -0.2773
  813MOL0     H12177   2.954   7.409   3.520  0.5371  0.3602 -4.5435
  813MOL0     H12178   3.520   6.289   2.996  0.1692 -0.3380  1.1020
  813MOL0     H12179   3.377   6.086   3.039 -1.3671 -0.5841  3.9933
  813MOL0     H12180   2.966   5.921   3.171 -1.7606  1.1839 -1.8279
  813MOL0     H12181   2.848   5.706   3.225 -0.6614  0.9108 -0.1304
  813MOL0     H12182   2.649   5.582   3.134  0.2685 -0.0575 -3.7948
  813MOL0     H12183   2.650   5.410   3.104 -1.2007 -1.7219  2.8537
  813MOL0     H12184   2.753   5.547   3.353 -3.3868 -0.1180 -0.1656
  813MOL0     H12185   2.832   5.394   3.313  1.2827  0.3403 -0.1615
  813MOL0     H12186   2.632   5.377   3.484  1.2246 -2.3377  0.7128
  813MOL0     H12187   2.537   5.419   3.358 -0.2153 -1.9767 -2.2831
  813MOL0     H12188   2.720   5.179   3.357 -1.6399 -0.7060  3.2873
  813MOL0     H12189   2.624   5.229   3.218  3.5901 -1.6255 -0.5367
  813MOL0     H12190   2.335   5.089   3.507 -2.2235  2.5346  0.1498
  813MOL0     H12191   3.015   5.526   2.886  1.8481  0.6994  0.9491
  813MOL0     H12192   3.242   5.741   2.805 -0.3284  0.0548 -0.0651
  813MOL0     H12193   3.147   5.609   2.742 -3.5558 -1.0653 -0.4591
  813MOL0     H12194   3.081   5.766   2.712  0.0504 -1.6809 -2.0885
  814MOL0     O12195   2.530   0.200   8.335  0.9255  0.2023 -0.3168
  814MOL0     C12196   2.439   0.225   8.415 -0.1165  0.3484  0.1002
  814MOL0     O12197   2.404   0.345   8.472  0.8193 -0.0404 -0.2152
  814MOL0     C12198   2.465   0.457   8.429  0.0347 -0.8597 -1.1549
  814MOL0     C12199   2.542   0.522   8.529 -0.2536 -0.0640  0.2966
  814MOL0     C12200   2.593   0.644   8.496 -0.1998 -0.3697  0.1668
  814MOL0     C12201   2.576   0.707   8.373 -1.0173  0.3804  0.7820
  814MOL0     O12202   2.637   0.825   8.343 -0.4828 -0.2410  0.4541
  814MOL0     C12203   2.673   0.907   8.453 -0.1677  0.0373 -0.0125
  814MOL0     C12204   2.725   1.038   8.391 -0.1780 -0.8774 -0.4906
  814MOL0     C12205   2.770   1.133   8.509  1.0309  0.2115 -0.1293
  814MOL0     C12206   2.824   1.257   8.447 -0.0648 -0.0549 -0.3410
  814MOL0     C12207   2.889   1.359   8.535  0.2163 -0.4400 -0.2484
  814MOL0     C12208   2.942   1.477   8.458 -0.5850  0.1404  0.4068
  814MOL0     C12209   2.975   1.588   8.560 -0.6527  0.2042 -0.3688
  814MOL0     C12210   3.015   1.724   8.504  0.2094 -0.1429 -1.8884
  814MOL0     N12211   3.008   1.823   8.610  0.2611  0.7221 -0.1025
  814MOL0     C12212   3.081   1.859   8.716  0.7718  0.4226 -0.9926
  814MOL0     C12213   3.012   1.945   8.795  0.1612  0.2871  0.1079
  814MOL0     C12214   3.056   1.994   8.928 -0.4544  0.0580  0.5451
  814MOL0     C12215   2.946   2.069   9.010  0.0317  0.8512  0.9679
  814MOL0     C12216   2.936   2.211   8.965 -0.4249 -0.1464 -0.8112
  814MOL0     C12217   2.850   2.288   9.061  0.0708  0.4652 -0.3223
  814MOL0     O12218   2.927   2.326   9.179  0.3753 -0.0689  0.0995
  814MOL0     C12219   2.876   2.349   9.304 -0.0959  0.7690  0.0683
  814MOL0     C12220   2.784   2.268   9.369 -0.0895  0.3204  0.5278
  814MOL0     C12221   2.742   2.286   9.503 -0.7945  0.5219 -0.1595
  814MOL0     C12222   2.657   2.181   9.568 -0.3253  0.8719  0.1469
  814MOL0     C12223   2.801   2.396   9.579 -0.0214  0.1224  0.9610
  814MOL0     C12224   2.750   2.428   9.722  0.1659 -0.4081 -0.1863
  814MOL0     O12225   2.842   2.509   9.782 -0.5205  0.4842  0.7741
  814MOL0     C12226   2.814   2.559   9.901 -0.0601 -0.7462 -0.0769
  814MOL0     C12227   2.815   2.477  10.019 -0.4983 -0.4893  1.1827
  814MOL0     C12228   2.833   2.552  10.135  0.7882 -0.1175 -0.2496
  814MOL0     C12229   2.836   2.691  10.142  0.4044  0.5408  0.2445
  814MOL0     O12230   2.861   2.739  10.267 -0.1330 -0.0399  0.4581
  814MOL0     C12231   2.898   2.879  10.280 -0.1554 -0.2482 -0.0716
  814MOL0     C12232   2.920   2.933  10.422  0.4285 -0.0550 -0.5755
  814MOL0     C12233   2.978   3.083  10.424  0.4989 -0.2693 -0.7332
  814MOL0     C12234   2.904   3.159  10.536  0.8750 -0.0765 -0.2060
  814MOL0     C12235   2.769   3.211  10.482  0.3913  0.0730  0.5546
  814MOL0     C12236   2.723   3.342  10.547 -0.0990 -0.1957  0.1629
  814MOL0     C12237   2.587   3.381  10.491  0.5961  0.3402  0.1719
  814MOL0     C12238   2.552   3.528  10.532  0.5787 -0.0075 -0.8024
  814MOL0    Cl12239   2.558   3.520  10.709 -0.6170  0.4103 -0.2607
  814MOL0     C12240   2.821   2.773  10.031  0.4014  0.3555  0.2076
  814MOL0     C12241   2.809   2.703   9.909 -0.5145  0.2198  0.2782
  814MOL0     O12242   2.645   2.396   9.768 -0.0940 -0.4331 -0.4640
  814MOL0     C12243   2.893   2.476   9.514  0.3251  0.1697  0.3217
  814MOL0     C12244   2.922   2.456   9.378 -0.4777  1.0565 -0.4298
  814MOL0     N12245   2.893   1.972   8.734  0.4300  0.2658  0.6202
  814MOL0     N12246   2.894   1.899   8.624 -0.3961 -0.4975  0.0281
  814MOL0     C12247   2.500   0.649   8.272 -0.1383 -0.3484 -0.2052
  814MOL0     C12248   2.443   0.520   8.303  0.3888  0.4176  1.1971
  814MOL0     C12249   2.358   0.110   8.464 -0.2717 -0.5076  1.0566
  814MOL0     C12250   2.217   0.108   8.435  0.3912  0.3758 -0.0963
  814MOL0     C12251   2.125   0.020   8.497 -0.1458  0.3930 -0.3043
  814MOL0     C12252   2.179  -0.081   8.569  0.7485 -0.3466 -0.1316
  814MOL0     O12253   2.088  -0.180   8.595 -0.6598 -0.7153 -0.3895
  814MOL0     C12254   2.135  -0.316   8.612  0.6726 -0.2733  0.1663
  814MOL0     C12255   2.006  -0.399   8.621  0.8130 -0.5249  0.4287
  814MOL0     C12256   2.040  -0.541   8.649  0.7251  0.0928 -1.3216
  814MOL0     C12257   2.038  -0.572   8.802  0.8179  1.5311  1.5222
  814MOL0     C12258   1.907  -0.552   8.870 -0.3762 -0.1746  0.6566
  814MOL0     C12259   1.808  -0.559   8.934 -0.0211 -0.2253  0.4930
  814MOL0     C12260   2.316  -0.086   8.593 -0.8837  0.1719 -0.9183
  814MOL0     C12261   2.409  -0.004   8.535  0.0246 -0.9670  0.0909
  814MOL0     C12262   2.550  -0.017   8.565  0.4993  0.6575 -0.1826
  814MOL0     H12263   2.556   0.474   8.625 -0.2166  4.0465  2.5809
  814MOL0     H12264   2.657   0.691   8.570  0.3455  0.9907 -1.1237
  814MOL0     H12265   2.748   0.880   8.528 -0.1848  3.4725  1.4394
  814MOL0     H12266   2.581   0.937   8.503  0.6974  3.1212 -0.0765
  814MOL0     H12267   2.819   1.029   8.335  1.9289  2.7159  2.0453
  814MOL0     H12268   2.651   1.090   8.329  0.0368 -2.0346 -1.7817
  814MOL0     H12269   2.686   1.166   8.571 -0.1975 -0.6189 -1.3127
  814MOL0     H12270   2.843   1.081   8.572  2.1596 -1.0045 -2.3413
  814MOL0     H12271   2.901   1.226   8.376 -0.6532 -2.6002  0.0422
  814MOL0     H12272   2.737   1.293   8.392 -0.0478 -2.6911 -2.2376
  814MOL0     H12273   2.975   1.317   8.589  1.9196  2.8728 -0.1116
  814MOL0     H12274   2.829   1.388   8.622  1.2938  2.5432 -0.3831
  814MOL0     H12275   3.027   1.462   8.391 -1.3981 -0.4099 -0.5251
  814MOL0     H12276   2.857   1.508   8.395 -0.2621  1.1657  0.4540
  814MOL0     H12277   3.044   1.536   8.628 -2.3953 -0.8829  0.6442
  814MOL0     H12278   2.881   1.593   8.617 -0.0975 -5.6855  1.7301
  814MOL0     H12279   3.117   1.718   8.467  0.8460 -3.0761 -0.0494
  814MOL0     H12280   2.947   1.757   8.425 -0.7264 -1.4140 -1.6553
  814MOL0     H12281   3.163   1.793   8.742 -0.9893 -2.3878 -1.9833
  814MOL0     H12282   3.137   2.065   8.909 -0.7744  0.0311 -1.0691
  814MOL0     H12283   3.095   1.910   8.985  1.1670 -0.2898 -0.9878
  814MOL0     H12284   2.853   2.012   8.998  2.1480 -2.5157 -1.2951
  814MOL0     H12285   2.984   2.069   9.113  2.9343  1.3663 -0.0156
  814MOL0     H12286   3.030   2.262   8.984 -1.8844  2.1492  0.8123
  814MOL0     H12287   2.898   2.211   8.862 -2.7501  1.3265 -0.0266
  814MOL0     H12288   2.809   2.384   9.026 -1.6639 -0.2917 -0.4831
  814MOL0     H12289   2.760   2.230   9.082 -0.6359  1.3502 -0.8266
  814MOL0     H12290   2.737   2.190   9.311  0.9241  1.6087 -2.1915
  814MOL0     H12291   2.646   2.193   9.676  0.3366 -3.0237  0.8036
  814MOL0     H12292   2.702   2.081   9.570  0.1457  1.0644  2.6976
  814MOL0     H12293   2.559   2.181   9.519 -1.5390  0.5509  2.4302
  814MOL0     H12294   2.814   2.369  10.013 -1.8377 -0.4112 -1.0123
  814MOL0     H12295   2.831   2.502  10.232 -0.9213 -0.0604 -0.2260
  814MOL0     H12296   2.991   2.892  10.224 -0.0832 -1.4550 -0.2524
  814MOL0     H12297   2.816   2.942  10.244 -0.2093  0.4063  1.1301
  814MOL0     H12298   2.831   2.927  10.485  0.0903 -0.4554 -1.0812
  814MOL0     H12299   2.996   2.866  10.465 -0.1463 -1.4091 -1.5707
  814MOL0     H12300   2.982   3.139  10.329  1.9061  1.6249  0.3637
  814MOL0     H12301   3.078   3.083  10.468 -0.4627 -0.7682  1.6094
  814MOL0     H12302   2.963   3.234  10.588  3.8749 -1.5983 -1.1725
  814MOL0     H12303   2.880   3.092  10.618 -1.2769 -0.7444 -1.2891
  814MOL0     H12304   2.771   3.234  10.375  0.4606 -0.6441  0.3926
  814MOL0     H12305   2.697   3.130  10.494  0.5425 -0.1194  0.2078
  814MOL0     H12306   2.792   3.426  10.530 -0.3769 -0.4495 -2.6776
  814MOL0     H12307   2.716   3.335  10.656  1.1201  0.3912  0.2983
  814MOL0     H12308   2.517   3.311  10.539  0.4487 -0.5655 -1.3247
  814MOL0     H12309   2.590   3.369  10.383  4.7090 -0.0146  0.1543
  814MOL0     H12310   2.460   3.576  10.498 -0.0932  1.4959  2.6453
  814MOL0     H12311   2.626   3.603  10.502  0.7459 -0.4144 -1.4197
  814MOL0     H12312   2.792   2.877  10.041  0.0622  0.3048 -0.2171
  814MOL0     H12313   2.807   2.757   9.815  0.8246 -0.8718 -0.4024
  814MOL0     H12314   2.941   2.562   9.560  1.6292  0.6742 -1.8523
  814MOL0     H12315   3.005   2.510   9.334 -0.8629  2.3122  0.3371
  814MOL0     H12316   2.485   0.704   8.180 -2.8657 -1.1814 -0.3529
  814MOL0     H12317   2.373   0.485   8.228  1.1899  1.6573 -0.1818
  814MOL0     H12318   2.178   0.190   8.376  1.6333  1.2613  0.2639
  814MOL0     H12319   2.020   0.028   8.471 -0.1697 -0.3554 -0.4722
  814MOL0     H12320   2.192  -0.352   8.526  2.4389  0.2500  1.0607
  814MOL0     H12321   2.203  -0.333   8.696  0.5576 -1.2601  0.0731
  814MOL0     H12322   1.950  -0.404   8.527  2.2191  0.6574 -0.5140
  814MOL0     H12323   1.945  -0.357   8.702  0.1327 -0.1107 -0.2782
  814MOL0     H12324   1.964  -0.611   8.612  1.0732 -0.1572 -1.5758
  814MOL0     H12325   2.128  -0.576   8.595  1.1435  3.1872 -2.8580
  814MOL0     H12326   2.115  -0.514   8.853  2.7625  1.5287 -1.1551
  814MOL0     H12327   2.069  -0.674   8.825 -0.6142  0.9048  0.8425
  814MOL0     H12328   1.720  -0.558   8.994  0.6319  0.0373  1.4690
  814MOL0     H12329   2.361  -0.169   8.646  0.0147 -0.8758 -3.1641
  814MOL0     H12330   2.581   0.085   8.587 -0.4013  1.1240 -0.9845
  814MOL0     H12331   2.570  -0.089   8.645  2.0463  1.0033 -0.2297
  814MOL0     H12332   2.604  -0.041   8.472 -0.9660  4.4531 -2.2466
  815MOL0     O12333   4.910   4.612   7.069 -0.2897 -0.0459  0.1105
  815MOL0     C12334   4.848   4.511   7.062 -0.6193  0.7636 -1.1076
  815MOL0     O12335   4.713   4.493   7.048  0.7518  0.5312  0.1831
  815MOL0     C12336   4.633   4.603   7.073 -0.6991  0.3207 -0.2062
  815MOL0     C12337   4.585   4.671   6.956 -0.5512 -0.1778 -0.0550
  815MOL0     C12338   4.488   4.772   6.975 -1.2195 -0.5554 -0.4016
  815MOL0     C12339   4.451   4.806   7.106  0.5392 -0.2180  0.7101
  815MOL0     O12340   4.360   4.905   7.137 -0.5088  0.5158 -0.2343
  815MOL0     C12341   4.282   4.981   7.045 -0.0895 -0.7278  0.2220
  815MOL0     C12342   4.204   5.079   7.144 -0.0150  0.8886  0.4877
  815MOL0     C12343   4.307   5.168   7.206 -0.0402  0.1495 -0.0187
  815MOL0     C12344   4.243   5.305   7.251 -1.1928 -0.5528  0.4093
  815MOL0     C12345   4.248   5.348   7.397  0.3994 -0.2776  0.4064
  815MOL0     C12346   4.141   5.264   7.473 -0.1163 -0.4667  0.1202
  815MOL0     C12347   4.145   5.294   7.625 -0.6541  0.5980  0.0360
  815MOL0     C12348   4.005   5.283   7.672  1.1064  0.7988  0.9578
  815MOL0     N12349   3.980   5.347   7.800 -0.4844  0.3256 -0.1004
  815MOL0     C12350   3.921   5.469   7.808 -0.3588 -0.6840  0.2984
  815MOL0     C12351   3.904   5.484   7.944 -0.3991 -0.0838 -0.1677
  815MOL0     C12352   3.817   5.585   8.000 -0.2430  0.1633  1.0091
  815MOL0     C12353   3.888   5.702   8.080  1.0150  0.1458  0.8865
  815MOL0     C12354   3.932   5.812   7.973 -0.6545 -0.2207  0.9381
  815MOL0     C12355   3.819   5.902   7.910  0.0059  0.5906 -0.7906
  815MOL0     O12356   3.717   5.927   8.000 -0.1622  0.0722  0.8424
  815MOL0     C12357   3.721   6.020   8.103  0.0861  0.0411  0.4146
  815MOL0     C12358   3.832   6.102   8.114  1.1073  0.7200 -0.5849
  815MOL0     C12359   3.847   6.187   8.225 -0.8812  0.2665 -0.9701
  815MOL0     C12360   3.986   6.263   8.241  1.0201  0.3818 -0.5360
  815MOL0     C12361   3.759   6.184   8.334  1.0812  1.0113 -0.0335
  815MOL0     C12362   3.786   6.238   8.464  0.1697  0.6309 -0.6095
  815MOL0     O12363   3.781   6.372   8.485 -0.4476 -0.3269  0.2770
  815MOL0     C12364   3.830   6.433   8.592 -0.0889 -0.1337 -0.3325
  815MOL0     C12365   3.949   6.504   8.585 -0.3887  0.0651  0.0250
  815MOL0     C12366   4.012   6.558   8.700 -0.2666 -1.7034 -0.7533
  815MOL0     C12367   3.959   6.544   8.830  0.1419 -0.1396  0.1285
  815MOL0     O12368   4.012   6.615   8.931 -0.5828  0.3288 -0.4421
  815MOL0     C12369   3.965   6.572   9.069  1.2431  0.1815  0.7621
  815MOL0     C12370   4.039   6.641   9.182  0.0130  0.2371  0.1890
  815MOL0     C12371   3.983   6.781   9.223  0.4994  0.0336  0.7265
  815MOL0     C12372   4.063   6.854   9.333 -0.1275 -0.0890  0.5901
  815MOL0     C12373   4.003   6.995   9.354  0.0321  0.2710  0.0685
  815MOL0     C12374   4.102   7.083   9.437  0.1977 -0.7207 -0.2926
  815MOL0     C12375   4.057   7.221   9.461 -0.2077 -0.2329 -0.0368
  815MOL0     C12376   4.176   7.308   9.504  0.7891 -0.2932 -0.2443
  815MOL0    Cl12377   4.226   7.254   9.682  0.0363 -0.2106 -0.2386
  815MOL0     C12378   3.848   6.470   8.831 -0.0085  0.0407 -0.2919
  815MOL0     C12379   3.782   6.413   8.714 -0.9186 -0.2055 -0.9244
  815MOL0     O12380   3.817   6.159   8.550 -0.5556  0.6659 -0.5095
  815MOL0     C12381   3.636   6.114   8.308  0.0546  0.3280  0.0141
  815MOL0     C12382   3.619   6.033   8.195 -0.3827 -0.2202 -0.4742
  815MOL0     N12383   3.970   5.385   8.016  0.4211 -0.3387 -0.0065
  815MOL0     N12384   4.001   5.292   7.925 -0.1787 -0.9573  0.1060
  815MOL0     C12385   4.504   4.740   7.222 -0.0990  0.4498  0.2109
  815MOL0     C12386   4.593   4.633   7.204 -0.6565 -0.2399  0.1972
  815MOL0     C12387   4.919   4.372   7.075 -0.6010 -0.2173 -0.0886
  815MOL0     C12388   4.844   4.259   7.051 -0.1474  0.8865 -0.0903
  815MOL0     C12389   4.883   4.125   7.057  0.6437 -0.5380 -0.2847
  815MOL0     C12390   5.016   4.096   7.071 -0.5528 -1.0720  0.5615
  815MOL0     O12391   5.068   3.963   7.065  0.3912 -0.5059  0.4094
  815MOL0     C12392   5.169   3.954   6.971 -0.0155  0.2317  0.8094
  815MOL0     C12393   5.212   3.809   6.966 -0.5133  0.8265  0.4208
  815MOL0     C12394   5.308   3.782   6.851  0.4885 -0.1788 -0.7484
  815MOL0     C12395   5.425   3.881   6.815  0.3343  0.1194  0.3568
  815MOL0     C12396   5.497   3.930   6.937  1.7290  0.0749 -0.0142
  815MOL0     C12397   5.538   3.966   7.048  0.1998  0.0967  0.1385
  815MOL0     C12398   5.108   4.207   7.101  0.2767 -0.7581  0.2865
  815MOL0     C12399   5.059   4.344   7.097  0.4617 -0.2173  0.1050
  815MOL0     C12400   5.171   4.456   7.100 -0.4012  0.6302  0.5314
  815MOL0     H12401   4.599   4.636   6.854 -2.4994 -1.3836  0.0478
  815MOL0     H12402   4.452   4.829   6.890  4.1365  2.4258 -1.1478
  815MOL0     H12403   4.217   4.917   6.985  1.5273  0.2041 -2.7340
  815MOL0     H12404   4.341   5.037   6.971  0.3043  0.7825  1.6185
  815MOL0     H12405   4.125   5.141   7.101  0.1812  1.2279  0.6116
  815MOL0     H12406   4.165   5.014   7.223 -0.6225  1.2248  0.4667
  815MOL0     H12407   4.351   5.116   7.292  0.4126  3.1215  1.6812
  815MOL0     H12408   4.383   5.188   7.131  1.0424 -3.8791 -0.2490
  815MOL0     H12409   4.309   5.369   7.191 -0.4484 -1.8028 -0.1525
  815MOL0     H12410   4.144   5.328   7.210 -0.9721  0.3210  0.3280
  815MOL0     H12411   4.235   5.456   7.408 -0.6540 -0.2231 -1.1309
  815MOL0     H12412   4.348   5.327   7.438  0.0870 -3.3007 -0.1339
  815MOL0     H12413   4.043   5.289   7.432 -1.0667 -0.5179  2.2517
  815MOL0     H12414   4.162   5.157   7.458  1.8231 -0.0832 -0.2296
  815MOL0     H12415   4.170   5.398   7.647 -2.2017  0.0398  6.1737
  815MOL0     H12416   4.212   5.240   7.693 -0.4457  2.1186  1.0962
  815MOL0     H12417   3.938   5.325   7.597  0.8334 -3.4841 -1.5049
  815MOL0     H12418   3.973   5.179   7.683  1.6614  0.5605  0.4257
  815MOL0     H12419   3.894   5.536   7.727 -2.3238 -2.0554 -0.2411
  815MOL0     H12420   3.757   5.520   8.064 -2.2460  0.6539 -0.2697
  815MOL0     H12421   3.751   5.640   7.932  1.1055  0.8525  0.2040
  815MOL0     H12422   3.827   5.736   8.164  2.4177  1.1842  1.5214
  815MOL0     H12423   3.972   5.649   8.126  0.4348 -1.5123  0.1109
  815MOL0     H12424   4.009   5.877   8.015  3.3815 -2.8901 -1.5625
  815MOL0     H12425   3.986   5.770   7.887 -2.7233 -0.8922 -0.0983
  815MOL0     H12426   3.868   5.989   7.864 -1.7015  2.0528  0.0825
  815MOL0     H12427   3.777   5.838   7.831  0.2374  1.9641 -2.0847
  815MOL0     H12428   3.916   6.104   8.046 -1.4712 -0.0889 -4.0682
  815MOL0     H12429   4.061   6.204   8.187 -1.1877 -1.4850 -1.7171
  815MOL0     H12430   4.014   6.288   8.344  0.3337  2.9848 -0.9167
  815MOL0     H12431   3.965   6.358   8.192 -3.2150 -1.1742 -2.1460
  815MOL0     H12432   3.987   6.528   8.486 -3.1041 -1.1228 -1.4153
  815MOL0     H12433   4.099   6.618   8.677  0.9731 -1.2404  3.9916
  815MOL0     H12434   3.863   6.612   9.081  1.0171 -0.6128  1.6276
  815MOL0     H12435   3.963   6.466   9.098 -0.8908 -0.2164 -0.5920
  815MOL0     H12436   4.031   6.573   9.267  3.6872  1.9074  2.0831
  815MOL0     H12437   4.145   6.659   9.161  0.0989 -0.2835  0.1752
  815MOL0     H12438   3.878   6.781   9.255 -0.2497 -2.4502 -1.4009
  815MOL0     H12439   3.983   6.840   9.131  0.4090 -0.3473  0.4799
  815MOL0     H12440   4.167   6.852   9.300  0.1403 -2.6656  1.4196
  815MOL0     H12441   4.061   6.812   9.433  3.4028  1.0014  1.2391
  815MOL0     H12442   3.985   7.039   9.255 -0.2433  0.2169  0.0940
  815MOL0     H12443   3.909   6.977   9.408  1.9353 -1.9171  2.8904
  815MOL0     H12444   4.198   7.092   9.384  0.8583  1.7263  1.1509
  815MOL0     H12445   4.133   7.022   9.522  1.3289 -1.1880 -1.0090
  815MOL0     H12446   3.979   7.234   9.536  0.3240  0.5352  0.3999
  815MOL0     H12447   4.021   7.255   9.363 -0.4876 -0.6525 -0.0819
  815MOL0     H12448   4.134   7.408   9.522 -0.6441 -1.1225  1.2638
  815MOL0     H12449   4.253   7.315   9.427  0.5563  0.0751 -0.4488
  815MOL0     H12450   3.808   6.445   8.929 -0.2164  4.3287  0.9218
  815MOL0     H12451   3.695   6.349   8.721  0.8978 -2.6590  4.3518
  815MOL0     H12452   3.554   6.107   8.379  0.1179 -2.4756 -0.1091
  815MOL0     H12453   3.531   5.970   8.187 -1.1551  0.5086  1.5652
  815MOL0     H12454   4.463   4.767   7.319  2.5593 -0.2852  1.6257
  815MOL0     H12455   4.617   4.569   7.288  0.2125  1.6456  1.4760
  815MOL0     H12456   4.738   4.262   7.030 -0.2237 -0.8561 -0.0745
  815MOL0     H12457   4.807   4.048   7.051 -1.3569  1.3891 -1.5639
  815MOL0     H12458   5.153   3.988   6.868  1.0946 -0.0804  0.5140
  815MOL0     H12459   5.250   4.020   7.004 -1.7582  2.2048  1.3518
  815MOL0     H12460   5.127   3.743   6.951  1.4456 -2.0762  1.2069
  815MOL0     H12461   5.256   3.791   7.065 -1.1974  3.0093  1.1765
  815MOL0     H12462   5.351   3.684   6.870 -1.4359 -1.8435 -4.1245
  815MOL0     H12463   5.243   3.766   6.765  0.2798 -0.2460 -0.5795
  815MOL0     H12464   5.383   3.958   6.749 -1.2923  0.2183  1.4489
  815MOL0     H12465   5.503   3.826   6.762 -1.4616 -1.5258 -0.7407
  815MOL0     H12466   5.563   4.006   7.144  2.7021 -0.5417 -0.1782
  815MOL0     H12467   5.214   4.190   7.115  0.7667 -0.4707 -2.5155
  815MOL0     H12468   5.271   4.419   7.072  0.4650  3.4454 -0.3451
  815MOL0     H12469   5.153   4.532   7.024 -0.1117 -0.5215 -0.7266
  815MOL0     H12470   5.180   4.493   7.203  1.4272  0.6732  0.3909
  816MOL0     O12471   8.517   7.039   1.361 -1.6121  0.5097  0.2275
  816MOL0     C12472   8.438   7.130   1.352  0.4167 -0.8173 -1.1490
  816MOL0     O12473   8.316   7.138   1.428  0.1526 -0.6466 -0.8594
  816MOL0     C12474   8.306   7.051   1.540  0.7257 -0.5777  0.2505
  816MOL0     C12475   8.265   7.116   1.656 -0.6249  0.4454  0.7830
  816MOL0     C12476   8.261   7.047   1.777 -0.5110  0.2927 -0.6789
  816MOL0     C12477   8.288   6.904   1.782 -0.1410 -0.5661  0.1345
  816MOL0     O12478   8.284   6.856   1.912  0.0394 -0.6457 -0.2859
  816MOL0     C12479   8.371   6.753   1.949  0.5200 -0.2372  0.7987
  816MOL0     C12480   8.525   6.762   1.927 -0.2710 -0.4022 -0.4210
  816MOL0     C12481   8.585   6.674   2.036  0.5168  0.0465 -0.0179
  816MOL0     C12482   8.733   6.645   2.004 -0.1076  0.7621 -1.3015
  816MOL0     C12483   8.805   6.608   2.127  0.4643 -0.5672 -1.6622
  816MOL0     C12484   8.942   6.538   2.108  0.4141 -0.1996  0.0588
  816MOL0     C12485   8.930   6.426   2.010  0.1295 -0.1642 -0.0228
  816MOL0     C12486   9.027   6.311   2.036  0.4435 -1.2522  0.5566
  816MOL0     N12487   9.164   6.324   1.982 -0.3669 -1.3741  0.3107
  816MOL0     C12488   9.201   6.341   1.852  1.1147 -1.2809 -0.4168
  816MOL0     C12489   9.331   6.362   1.856  0.5234 -0.0822  0.2229
  816MOL0     C12490   9.404   6.409   1.740 -0.0898 -0.2771  0.4449
  816MOL0     C12491   9.551   6.402   1.749 -0.4113  0.2771 -0.8398
  816MOL0     C12492   9.611   6.544   1.774  0.4745  0.8900  0.1065
  816MOL0     C12493   9.566   6.610   1.910 -0.9301  0.4438 -0.7834
  816MOL0     O12494   9.640   6.724   1.942  0.4400 -0.4051  0.2297
  816MOL0     C12495   9.632   6.788   2.067  0.6739  0.0944 -0.5413
  816MOL0     C12496   9.750   6.861   2.113  0.0126  0.3870  0.0681
  816MOL0     C12497   9.758   6.907   2.244  0.4272  0.1782 -0.3352
  816MOL0     C12498   9.873   6.998   2.267 -0.1927  0.0925  0.2945
  816MOL0     C12499   9.655   6.876   2.332  0.2277 -0.9041  0.1532
  816MOL0     C12500   9.653   6.939   2.472  0.0553 -0.7812 -0.1966
  816MOL0     O12501   9.532   6.942   2.545 -0.3177 -0.2408  0.7541
  816MOL0     C12502   9.533   6.986   2.673 -0.0598  0.5471 -1.2329
  816MOL0     C12503   9.485   6.907   2.778 -0.5487  0.2865 -0.0159
  816MOL0     C12504   9.464   6.954   2.912  0.2347  0.5207  0.7188
  816MOL0     C12505   9.502   7.084   2.944 -0.0463 -0.8393  0.6209
  816MOL0     O12506   9.488   7.145   3.064 -0.1165 -0.8275  0.6214
  816MOL0     C12507   9.462   7.078   3.184 -0.4102  0.6636 -0.9533
  816MOL0     C12508   9.327   7.119   3.228 -0.0919 -0.9526  0.4345
  816MOL0     C12509   9.271   7.036   3.343  0.7456  0.2225  0.0109
  816MOL0     C12510   9.128   7.085   3.400  0.0936 -0.7726  1.0169
  816MOL0     C12511   9.019   7.111   3.299 -0.8348  0.4502  0.3734
  816MOL0     C12512   8.998   6.975   3.224 -0.1722  0.1343 -0.8141
  816MOL0     C12513   8.882   6.987   3.130 -0.0934 -0.8469  0.1118
  816MOL0     C12514   8.874   6.858   3.042 -0.0186  0.0120 -0.6217
  816MOL0    Cl12515   9.039   6.830   2.961 -0.0314 -0.2673  0.3769
  816MOL0     C12516   9.559   7.160   2.842  0.3939 -0.8492 -0.1553
  816MOL0     C12517   9.568   7.114   2.711 -0.0660 -0.0298 -0.4664
  816MOL0     O12518   9.761   6.983   2.508 -0.5783  0.0994 -0.6215
  816MOL0     C12519   9.532   6.833   2.284  0.6347 -0.3123 -0.2290
  816MOL0     C12520   9.523   6.780   2.155  0.2059  0.2382  0.1441
  816MOL0     N12521   9.368   6.362   1.987 -0.2564 -0.1414  0.3729
  816MOL0     N12522   9.266   6.342   2.062 -0.7729  0.5315 -0.3182
  816MOL0     C12523   8.332   6.840   1.668  0.0009  0.1027  0.6932
  816MOL0     C12524   8.341   6.910   1.544 -1.2529 -1.2373  0.2170
  816MOL0     C12525   8.452   7.240   1.256 -0.2336  1.0184 -0.4344
  816MOL0     C12526   8.335   7.313   1.227 -0.6717  0.2625 -0.6825
  816MOL0     C12527   8.326   7.409   1.126 -0.3638 -0.6710 -0.1428
  816MOL0     C12528   8.444   7.457   1.069  0.5540 -0.7118 -0.6325
  816MOL0     O12529   8.452   7.568   0.990 -0.5946  0.1374 -0.0846
  816MOL0     C12530   8.398   7.562   0.860 -0.2635 -0.7810  0.1803
  816MOL0     C12531   8.349   7.698   0.810  0.2857 -0.3380 -0.0105
  816MOL0     C12532   8.226   7.747   0.884 -0.4562  0.1055  0.0426
  816MOL0     C12533   8.146   7.860   0.810  0.5304 -0.7806  0.8391
  816MOL0     C12534   8.132   7.845   0.662  0.7211  0.9185  0.2246
  816MOL0     C12535   8.090   7.816   0.552  0.7940 -1.0842  0.0685
  816MOL0     C12536   8.562   7.389   1.094 -0.8091 -0.0903 -0.7691
  816MOL0     C12537   8.567   7.280   1.184 -0.5108 -0.4302 -0.5031
  816MOL0     C12538   8.699   7.217   1.199  0.4131 -0.0901  0.0138
  816MOL0     H12539   8.246   7.222   1.642  2.1942  0.8175 -1.0399
  816MOL0     H12540   8.235   7.089   1.873  5.6846 -1.5005  2.3003
  816MOL0     H12541   8.338   6.667   1.891 -1.6144  0.3740  1.0034
  816MOL0     H12542   8.350   6.714   2.049 -0.4431 -2.8130 -0.3275
  816MOL0     H12543   8.564   6.733   1.829  0.9896  1.1391 -0.4147
  816MOL0     H12544   8.546   6.868   1.944 -2.9704 -0.0429  1.3780
  816MOL0     H12545   8.577   6.730   2.130 -0.0100 -2.5360  1.5867
  816MOL0     H12546   8.530   6.582   2.058 -0.2267  0.1159 -1.4933
  816MOL0     H12547   8.738   6.567   1.928 -4.8235 -0.3474 -0.7514
  816MOL0     H12548   8.779   6.737   1.966  2.0068  1.2908  2.0683
  816MOL0     H12549   8.749   6.537   2.188  0.3795  0.8436 -0.0104
  816MOL0     H12550   8.819   6.707   2.172 -0.1702 -0.2551 -2.1212
  816MOL0     H12551   9.017   6.607   2.068  0.7663  0.7554  2.2365
  816MOL0     H12552   8.980   6.502   2.204 -1.5936 -3.1914 -0.1383
  816MOL0     H12553   8.944   6.456   1.905 -2.5276 -2.1421 -1.0520
  816MOL0     H12554   8.837   6.371   2.025 -0.2833  0.7174  0.7595
  816MOL0     H12555   9.028   6.299   2.144  1.5451 -1.8378  0.4941
  816MOL0     H12556   8.984   6.218   1.997 -2.5120 -0.1235  0.8163
  816MOL0     H12557   9.137   6.355   1.766  2.7712  3.0083 -1.2082
  816MOL0     H12558   9.371   6.508   1.707  0.4887 -0.6229 -1.2957
  816MOL0     H12559   9.375   6.353   1.651 -0.0500 -0.0579  0.2922
  816MOL0     H12560   9.572   6.337   1.834  0.0819  0.3951 -0.8639
  816MOL0     H12561   9.598   6.345   1.668 -1.9032 -3.4817  0.7380
  816MOL0     H12562   9.718   6.532   1.758  0.5256 -0.2690  1.1705
  816MOL0     H12563   9.594   6.615   1.693  1.8007  0.3392 -0.6795
  816MOL0     H12564   9.458   6.626   1.900 -0.9883  2.3393  1.6770
  816MOL0     H12565   9.567   6.535   1.990 -3.2555  1.0663 -0.0982
  816MOL0     H12566   9.840   6.864   2.053  0.4300 -1.1432  0.5695
  816MOL0     H12567   9.837   7.098   2.294  1.0835  0.6228  0.1117
  816MOL0     H12568   9.945   7.018   2.187 -1.5046  0.0554 -0.9514
  816MOL0     H12569   9.933   6.967   2.353 -2.9519  0.5750  2.5467
  816MOL0     H12570   9.469   6.801   2.762  2.0146 -0.3521  1.2237
  816MOL0     H12571   9.425   6.874   2.975  0.7539 -0.2848  0.0357
  816MOL0     H12572   9.447   6.970   3.172 -2.0473  0.9412 -1.7084
  816MOL0     H12573   9.546   7.096   3.252  2.4416 -0.5960 -3.8493
  816MOL0     H12574   9.340   7.224   3.252  1.3061 -1.2848  1.2750
  816MOL0     H12575   9.261   7.117   3.141 -0.5475 -0.0594  0.7568
  816MOL0     H12576   9.334   7.018   3.431 -0.8318  0.3715  1.2188
  816MOL0     H12577   9.257   6.935   3.305  1.5187 -0.7719  2.2099
  816MOL0     H12578   9.153   7.170   3.464  0.1230  0.0964 -0.1160
  816MOL0     H12579   9.090   6.996   3.451 -3.0887 -2.2294 -3.2837
  816MOL0     H12580   8.925   7.135   3.349 -0.9971 -1.9200  1.3404
  816MOL0     H12581   9.054   7.178   3.220  1.8453 -0.9758  0.2505
  816MOL0     H12582   8.974   6.911   3.309  0.7979  1.5282  0.5671
  816MOL0     H12583   9.095   6.951   3.178  2.7755  0.3450  4.4502
  816MOL0     H12584   8.886   7.080   3.072  0.7050 -0.9238  0.0283
  816MOL0     H12585   8.795   7.004   3.194  1.2620  3.7626  1.1502
  816MOL0     H12586   8.793   6.887   2.973  0.9071  2.0823 -0.9072
  816MOL0     H12587   8.850   6.767   3.097 -0.9015  2.7329  4.0576
  816MOL0     H12588   9.606   7.253   2.876 -0.3135 -0.4604 -0.2246
  816MOL0     H12589   9.608   7.172   2.629  4.9344 -3.3816 -0.8412
  816MOL0     H12590   9.444   6.831   2.348 -1.8821 -0.0287 -3.4033
  816MOL0     H12591   9.423   6.750   2.124  0.7033  2.4892 -4.4266
  816MOL0     H12592   8.360   6.735   1.672 -3.4443 -0.9931 -0.3810
  816MOL0     H12593   8.365   6.868   1.448  0.9326  0.4979 -0.0708
  816MOL0     H12594   8.245   7.306   1.286 -1.7180  0.3750 -2.1936
  816MOL0     H12595   8.231   7.461   1.113 -0.6969 -1.1122  0.4488
  816MOL0     H12596   8.479   7.528   0.794 -0.1791 -3.3393  1.4706
  816MOL0     H12597   8.314   7.492   0.851 -0.4523 -0.4609 -0.6134
  816MOL0     H12598   8.337   7.687   0.702  1.5872 -0.2455 -0.1724
  816MOL0     H12599   8.429   7.767   0.838  1.6849 -1.2426 -1.6850
  816MOL0     H12600   8.159   7.662   0.894  2.6320 -2.5937 -0.6022
  816MOL0     H12601   8.252   7.791   0.981  2.1281  2.2443 -1.4677
  816MOL0     H12602   8.187   7.961   0.820 -0.9019 -0.2883  2.3825
  816MOL0     H12603   8.046   7.866   0.855 -0.8761 -6.0564 -0.8591
  816MOL0     H12604   8.057   7.794   0.453 -1.8864 -0.1744  0.6709
  816MOL0     H12605   8.656   7.423   1.052 -0.5270 -1.9499 -1.7602
  816MOL0     H12606   8.730   7.254   1.298 -2.1509 -2.8194  1.9969
  816MOL0     H12607   8.679   7.110   1.201  1.6792 -0.3298  0.6673
  816MOL0     H12608   8.773   7.240   1.122  1.0761  0.8144  0.8960
  817MOL0     O12609   9.623   2.552   7.445 -0.0091  0.3456 -0.6948
  817MOL0     C12610   9.592   2.532   7.327  0.5404  0.2550  0.3595
  817MOL0     O12611   9.670   2.468   7.227 -0.3714  0.5224 -0.0299
  817MOL0     C12612   9.799   2.436   7.270  0.0299  0.6012  1.2603
  817MOL0     C12613   9.902   2.518   7.220 -0.4237  0.6905  0.8507
  817MOL0     C12614  10.031   2.502   7.272 -1.0423  0.2847 -0.0639
  817MOL0     C12615  10.059   2.411   7.369 -1.2504 -0.5486 -0.9948
  817MOL0     O12616  10.181   2.399   7.429  0.5182 -0.1837 -0.7804
  817MOL0     C12617  10.300   2.391   7.343 -0.0863  0.2828  0.6293
  817MOL0     C12618  10.388   2.507   7.329  0.5590  0.2084  0.7984
  817MOL0     C12619  10.468   2.521   7.463  0.5674  0.2968  0.3975
  817MOL0     C12620  10.531   2.655   7.478  0.9542 -0.4197 -0.2586
  817MOL0     C12621  10.613   2.698   7.354  1.2363 -0.1542 -0.0238
  817MOL0     C12622  10.694   2.824   7.389 -0.1987 -0.9857  0.5352
  817MOL0     C12623  10.811   2.845   7.294 -0.5384 -0.5534  0.6742
  817MOL0     C12624  10.786   2.910   7.165 -0.5693  0.5004 -0.5748
  817MOL0     N12625  10.726   2.831   7.053  0.0274  0.2920 -0.3706
  817MOL0     C12626  10.762   2.706   7.011  0.3491  0.3397 -0.0620
  817MOL0     C12627  10.659   2.667   6.935  0.9137 -0.2301  0.3312
  817MOL0     C12628  10.642   2.531   6.871  0.0645 -0.9123  0.1651
  817MOL0     C12629  10.568   2.540   6.736  0.0371  0.2293  0.2409
  817MOL0     C12630  10.552   2.411   6.670  0.0669  0.4630  0.4081
  817MOL0     C12631  10.586   2.419   6.520  0.5759  0.0266  1.1660
  817MOL0     O12632  10.610   2.290   6.465  0.2000 -0.2041  0.2334
  817MOL0     C12633  10.595   2.265   6.328 -0.2700 -0.3834 -0.0603
  817MOL0     C12634  10.500   2.169   6.284  0.3688 -0.1524  0.8292
  817MOL0     C12635  10.493   2.152   6.140 -0.2408  0.0365  0.3136
  817MOL0     C12636  10.421   2.030   6.080  1.1740 -0.1728  0.4234
  817MOL0     C12637  10.546   2.241   6.046 -0.8382 -0.5791 -0.3489
  817MOL0     C12638  10.556   2.232   5.896  0.2290  0.3311 -0.4886
  817MOL0     O12639  10.569   2.349   5.817  0.6739  0.7482  0.3746
  817MOL0     C12640  10.572   2.327   5.683  0.7513  0.3424 -0.4116
  817MOL0     C12641  10.689   2.280   5.627 -0.3625  0.3125  1.0389
  817MOL0     C12642  10.692   2.239   5.499 -0.4041  0.2130  0.6872
  817MOL0     C12643  10.582   2.236   5.419  0.3374 -0.6469 -0.1252
  817MOL0     O12644  10.591   2.201   5.288  0.4641 -0.0369  0.3860
  817MOL0     C12645  10.521   2.070   5.268  0.4993 -0.4128  0.7883
  817MOL0     C12646  10.624   1.960   5.243  0.1212  0.1913  0.5219
  817MOL0     C12647  10.570   1.838   5.177 -0.5607 -0.9945  0.4342
  817MOL0     C12648  10.687   1.765   5.119 -0.2602 -0.1282 -0.3952
  817MOL0     C12649  10.649   1.621   5.054  0.7198 -0.8094 -0.0270
  817MOL0     C12650  10.715   1.590   4.924 -1.0364  0.0446  0.7374
  817MOL0     C12651  10.869   1.584   4.931 -0.0305  0.1129  0.2632
  817MOL0     C12652  10.949   1.613   4.814  0.1650 -0.8505 -0.4521
  817MOL0    Cl12653  11.119   1.608   4.849 -0.1551 -0.1706  0.3700
  817MOL0     C12654  10.460   2.274   5.479  0.1454  0.2713 -0.4605
  817MOL0     C12655  10.454   2.320   5.613  0.7052  0.4797 -0.2787
  817MOL0     O12656  10.550   2.116   5.850  0.4938 -0.1688  1.0808
  817MOL0     C12657  10.634   2.339   6.098 -0.0539  0.4177  0.2354
  817MOL0     C12658  10.666   2.339   6.234  0.6963 -0.8645  0.1336
  817MOL0     N12659  10.575   2.772   6.910  0.1967  0.2800  0.0622
  817MOL0     N12660  10.606   2.868   6.996 -0.3131  0.0644 -0.0941
  817MOL0     C12661   9.963   2.313   7.396  0.9090  0.3979 -0.0169
  817MOL0     C12662   9.827   2.335   7.356 -0.4192 -0.3218 -0.9747
  817MOL0     C12663   9.462   2.595   7.290 -0.2929  0.4493 -0.4457
  817MOL0     C12664   9.351   2.589   7.374  0.4448 -0.1062 -0.2704
  817MOL0     C12665   9.226   2.654   7.345  0.5568 -0.1871  1.3485
  817MOL0     C12666   9.227   2.727   7.223  0.5839  0.1359 -0.9220
  817MOL0     O12667   9.104   2.781   7.186 -1.1485  0.4627  0.1340
  817MOL0     C12668   9.080   2.795   7.045  0.6500 -0.3273 -0.1390
  817MOL0     C12669   8.932   2.816   7.022  0.3051 -0.2605 -0.5334
  817MOL0     C12670   8.886   2.786   6.882  0.7042  0.0774  0.6312
  817MOL0     C12671   8.741   2.798   6.861  0.1526 -0.0347 -0.0035
  817MOL0     C12672   8.688   2.726   6.742 -0.1619  0.0943 -0.7131
  817MOL0     C12673   8.661   2.669   6.640  0.4894  0.1805  0.7893
  817MOL0     C12674   9.341   2.738   7.146 -0.1229 -1.7032 -0.5821
  817MOL0     C12675   9.450   2.668   7.172 -0.7845  0.7756  0.0552
  817MOL0     C12676   9.574   2.690   7.079 -0.1263 -1.2090 -0.1704
  817MOL0     H12677   9.872   2.594   7.148 -1.4207  1.2480  1.8337
  817MOL0     H12678  10.116   2.565   7.247 -0.4361 -0.5692 -0.1753
  817MOL0     H12679  10.257   2.374   7.243 -1.7626  0.3680  1.3016
  817MOL0     H12680  10.357   2.300   7.366 -1.2319 -1.0999 -1.5832
  817MOL0     H12681  10.462   2.496   7.249 -0.2205 -1.2275  0.2348
  817MOL0     H12682  10.328   2.597   7.311  4.2956  2.8956  0.6753
  817MOL0     H12683  10.387   2.527   7.537  1.1983  4.2175  1.0022
  817MOL0     H12684  10.536   2.439   7.485 -1.8538 -1.7085  0.9553
  817MOL0     H12685  10.449   2.726   7.482  1.5032  0.3033 -1.1903
  817MOL0     H12686  10.591   2.661   7.569  1.4889  1.6326 -0.6840
  817MOL0     H12687  10.555   2.731   7.267  1.5638  1.9336  0.4908
  817MOL0     H12688  10.684   2.619   7.330  0.3056 -0.1596 -3.2629
  817MOL0     H12689  10.631   2.913   7.392 -1.2145 -1.6049 -0.9458
  817MOL0     H12690  10.729   2.809   7.491 -2.6826  1.8475  1.9517
  817MOL0     H12691  10.858   2.746   7.289  0.9159  0.1572 -0.6541
  817MOL0     H12692  10.884   2.909   7.343  0.5077 -2.2696  1.4681
  817MOL0     H12693  10.728   3.002   7.178 -0.6646  0.2557  0.7755
  817MOL0     H12694  10.888   2.942   7.140  0.3441 -0.0273  2.1551
  817MOL0     H12695  10.840   2.637   7.042 -0.7057 -0.5626  0.6646
  817MOL0     H12696  10.598   2.467   6.948 -2.5644  1.0859  0.4750
  817MOL0     H12697  10.744   2.495   6.855 -0.2399 -1.7087 -0.0380
  817MOL0     H12698  10.466   2.578   6.748 -0.1585  0.5306 -1.9330
  817MOL0     H12699  10.620   2.613   6.674 -1.9027  0.4996 -1.1543
  817MOL0     H12700  10.631   2.343   6.701  2.4456  1.5145 -2.7572
  817MOL0     H12701  10.452   2.371   6.690  0.6841 -1.2974  0.1010
  817MOL0     H12702  10.508   2.476   6.467 -1.1135 -1.3951  1.9894
  817MOL0     H12703  10.683   2.468   6.509 -0.5848  1.8406 -2.5315
  817MOL0     H12704  10.462   2.109   6.366  1.4166 -0.0415  1.4194
  817MOL0     H12705  10.331   2.058   6.024  1.0124 -1.7502 -0.1643
  817MOL0     H12706  10.375   1.972   6.161  0.7710  0.8201  0.9162
  817MOL0     H12707  10.474   1.958   6.017  1.5760  0.2064  0.3211
  817MOL0     H12708  10.778   2.300   5.685 -0.0453  3.7472 -0.4108
  817MOL0     H12709  10.792   2.214   5.466 -0.9477 -1.9630  0.5154
  817MOL0     H12710  10.440   2.042   5.336 -0.6553 -0.3858 -0.5298
  817MOL0     H12711  10.468   2.077   5.172  0.3512  1.2035  0.9629
  817MOL0     H12712  10.696   2.010   5.177 -2.9346  1.6481 -1.9497
  817MOL0     H12713  10.689   1.952   5.331  2.8898 -2.6279 -1.5339
  817MOL0     H12714  10.492   1.867   5.106 -2.4239 -2.8278  1.5999
  817MOL0     H12715  10.514   1.762   5.234 -2.0890  0.7820  1.4113
  817MOL0     H12716  10.759   1.753   5.200 -0.7010 -4.6310 -0.3962
  817MOL0     H12717  10.733   1.819   5.036  0.3423  0.2235  0.1582
  817MOL0     H12718  10.683   1.545   5.125  1.2933 -1.8790 -1.4148
  817MOL0     H12719  10.540   1.617   5.040  0.4611  1.7976  0.7710
  817MOL0     H12720  10.697   1.667   4.849  0.1474  0.2388  0.6324
  817MOL0     H12721  10.665   1.496   4.899  1.5961 -0.7566 -2.1323
  817MOL0     H12722  10.888   1.482   4.966 -0.0870 -0.1929 -0.5612
  817MOL0     H12723  10.908   1.639   5.017 -0.8543 -1.8635  1.9895
  817MOL0     H12724  10.927   1.718   4.792 -0.1140  0.3987  4.6594
  817MOL0     H12725  10.909   1.548   4.735 -0.7187  1.1316 -1.7245
  817MOL0     H12726  10.370   2.275   5.419 -1.3917 -0.9460  1.6780
  817MOL0     H12727  10.355   2.340   5.652 -0.4869  0.7680 -3.1796
  817MOL0     H12728  10.678   2.410   6.029 -2.8897 -0.8905 -3.1895
  817MOL0     H12729  10.741   2.412   6.262  1.0283 -1.2210  0.1956
  817MOL0     H12730   9.979   2.230   7.464 -4.4082  0.1475  1.3712
  817MOL0     H12731   9.761   2.281   7.424  3.0813 -2.8134  0.7606
  817MOL0     H12732   9.340   2.526   7.462  1.7154  0.3088  0.2023
  817MOL0     H12733   9.130   2.658   7.395  0.2750  1.2858  0.7433
  817MOL0     H12734   9.138   2.871   6.990 -2.9179  0.9231 -2.5517
  817MOL0     H12735   9.098   2.695   7.003  0.8973  1.4874 -5.0828
  817MOL0     H12736   8.903   2.919   7.043  0.2439 -0.0337 -1.6787
  817MOL0     H12737   8.865   2.758   7.087 -1.3499 -1.4122 -3.1114
  817MOL0     H12738   8.937   2.855   6.813  1.2709 -0.3606  0.6022
  817MOL0     H12739   8.912   2.688   6.840  1.6739 -0.0805  1.5663
  817MOL0     H12740   8.717   2.905   6.855  0.8496  0.2713  1.7969
  817MOL0     H12741   8.699   2.760   6.955  0.0687 -2.0559 -0.8016
  817MOL0     H12742   8.642   2.629   6.543 -0.8904 -0.2387  1.2163
  817MOL0     H12743   9.338   2.793   7.052  1.0668  1.2296  0.9801
  817MOL0     H12744   9.670   2.697   7.132 -0.7004  1.7555  0.6089
  817MOL0     H12745   9.590   2.620   6.996  1.7079 -0.3306 -0.6091
  817MOL0     H12746   9.562   2.788   7.033 -0.2192 -1.4144 -0.5868
  818MOL0     O12747   4.650   0.086   4.959  0.8425  0.4583 -0.1061
  818MOL0     C12748   4.531   0.089   4.996 -0.2102 -1.2732 -0.1289
  818MOL0     O12749   4.456  -0.027   5.016  0.6471 -0.7634 -0.4710
  818MOL0     C12750   4.533  -0.132   5.047  0.3795 -0.1695  0.7144
  818MOL0     C12751   4.506  -0.242   4.960  0.1485  0.0220 -0.6829
  818MOL0     C12752   4.564  -0.367   4.990 -0.2465 -0.6037 -0.9054
  818MOL0     C12753   4.608  -0.391   5.122 -0.8588  0.2629 -0.3491
  818MOL0     O12754   4.631  -0.526   5.156 -0.7776 -0.6774 -0.9156
  818MOL0     C12755   4.767  -0.549   5.213 -0.7786 -0.1943 -0.5609
  818MOL0     C12756   4.800  -0.700   5.193  0.7617  0.3020  0.0689
  818MOL0     C12757   4.888  -0.758   5.313  0.6140 -0.3131  0.0613
  818MOL0     C12758   5.024  -0.802   5.256  0.3087 -0.4653 -0.0560
  818MOL0     C12759   5.101  -0.688   5.180  0.2705 -0.0772 -0.3420
  818MOL0     C12760   5.182  -0.583   5.261  0.1412  0.2583  0.0142
  818MOL0     C12761   5.248  -0.469   5.175  0.0151 -0.2731  1.1289
  818MOL0     C12762   5.317  -0.520   5.053  0.7367 -0.9143 -0.7173
  818MOL0     N12763   5.451  -0.590   5.087  0.4174 -0.0798  0.1051
  818MOL0     C12764   5.461  -0.722   5.117  0.2040 -0.7966  1.0556
  818MOL0     C12765   5.586  -0.728   5.169 -0.1265  0.2607 -0.2788
  818MOL0     C12766   5.623  -0.871   5.210 -0.8304 -0.0814  0.4907
  818MOL0     C12767   5.750  -0.864   5.296 -0.2096  0.3233 -0.0498
  818MOL0     C12768   5.813  -1.004   5.306  0.1114 -0.6361  0.0188
  818MOL0     C12769   5.950  -1.014   5.367  0.0917 -0.9995 -0.1346
  818MOL0     O12770   5.979  -1.156   5.385 -0.1393 -0.7266 -0.2333
  818MOL0     C12771   6.098  -1.197   5.433 -0.2088  0.1260  0.8107
  818MOL0     C12772   6.183  -1.132   5.518  0.5273  0.7201 -0.4927
  818MOL0     C12773   6.294  -1.199   5.584  0.6325  0.4728 -0.5913
  818MOL0     C12774   6.391  -1.115   5.665 -0.2398 -0.3871 -0.9466
  818MOL0     C12775   6.305  -1.341   5.560  0.2596  0.8081  0.1067
  818MOL0     C12776   6.414  -1.426   5.625  0.9379 -0.3932  0.2713
  818MOL0     O12777   6.409  -1.425   5.760  0.6717  0.3555  0.0451
  818MOL0     C12778   6.509  -1.485   5.830 -0.0462  0.4159 -0.1154
  818MOL0     C12779   6.514  -1.621   5.836  0.0172 -0.8655 -0.0942
  818MOL0     C12780   6.602  -1.695   5.915  0.0300  0.3695  0.8931
  818MOL0     C12781   6.696  -1.623   5.990  1.2923  0.2393 -0.9201
  818MOL0     O12782   6.794  -1.692   6.060  0.3920 -0.1068 -0.1726
  818MOL0     C12783   6.910  -1.705   5.985  0.4458 -0.1902 -0.8680
  818MOL0     C12784   7.016  -1.797   6.046  0.4791 -0.3986 -0.3396
  818MOL0     C12785   7.088  -1.739   6.175 -0.0373 -0.1345  0.1259
  818MOL0     C12786   7.043  -1.808   6.304  1.2026  0.2409  0.5951
  818MOL0     C12787   7.092  -1.740   6.424  0.6314 -0.6206  0.7767
  818MOL0     C12788   7.248  -1.763   6.443  0.2560  0.5401  0.1004
  818MOL0     C12789   7.279  -1.702   6.582 -0.9067  0.6120 -0.1065
  818MOL0     C12790   7.422  -1.745   6.620 -0.7754  0.4611 -0.1370
  818MOL0    Cl12791   7.549  -1.659   6.528  0.1192 -0.5164 -0.6881
  818MOL0     C12792   6.696  -1.489   5.983 -0.1262 -0.4637  0.0072
  818MOL0     C12793   6.609  -1.421   5.900  0.0634  0.2781 -0.1718
  818MOL0     O12794   6.473  -1.500   5.549  0.5514 -0.4400 -0.8383
  818MOL0     C12795   6.219  -1.403   5.462 -1.3320 -0.6297 -0.6588
  818MOL0     C12796   6.129  -1.327   5.394  0.4046  0.8268 -0.0401
  818MOL0     N12797   5.639  -0.599   5.170  0.1133  0.0465  0.4314
  818MOL0     N12798   5.563  -0.521   5.108  0.2660  0.2071  0.4728
  818MOL0     C12799   4.625  -0.282   5.216  0.1313 -0.7719 -1.3137
  818MOL0     C12800   4.590  -0.154   5.172  0.4964  0.2683  0.2085
  818MOL0     C12801   4.467   0.215   5.031 -0.0030  0.5290  0.6668
  818MOL0     C12802   4.379   0.217   5.142 -0.5128 -0.0723  0.1269
  818MOL0     C12803   4.311   0.332   5.181  0.3531  1.0559 -0.5838
  818MOL0     C12804   4.319   0.452   5.106 -0.7204  0.1188  0.6220
  818MOL0     O12805   4.242   0.544   5.163  0.3453  0.0128 -0.0279
  818MOL0     C12806   4.254   0.671   5.110 -0.3081 -0.6972  0.2287
  818MOL0     C12807   4.184   0.789   5.199  0.5839  0.3032  0.6495
  818MOL0     C12808   4.070   0.747   5.298  0.4479 -0.6604 -0.3858
  818MOL0     C12809   3.974   0.867   5.314  0.5434 -0.0264  0.3967
  818MOL0     C12810   3.876   0.874   5.210 -0.7405 -0.4232 -0.9071
  818MOL0     C12811   3.794   0.887   5.123  0.1913 -0.0403  0.4247
  818MOL0     C12812   4.406   0.453   4.995 -0.5868  1.0868 -0.4577
  818MOL0     C12813   4.486   0.340   4.961 -0.9866 -1.0919 -0.0406
  818MOL0     C12814   4.574   0.353   4.832 -0.1501  0.0033  1.0466
  818MOL0     H12815   4.458  -0.232   4.864 -3.1425  2.9085  1.0339
  818MOL0     H12816   4.546  -0.455   4.929 -1.5541 -1.0448  0.0767
  818MOL0     H12817   4.762  -0.519   5.318 -4.6434  0.8724 -0.8789
  818MOL0     H12818   4.845  -0.494   5.161 -2.3051  3.9801  1.1451
  818MOL0     H12819   4.709  -0.758   5.206  0.4801 -0.4000 -3.8048
  818MOL0     H12820   4.844  -0.717   5.094  2.5182  0.2982  0.8029
  818MOL0     H12821   4.908  -0.696   5.400  2.4269  0.2465 -0.7142
  818MOL0     H12822   4.834  -0.848   5.344  1.7002 -0.4616  1.6154
  818MOL0     H12823   5.085  -0.829   5.342 -1.7020  0.1783  1.6769
  818MOL0     H12824   5.011  -0.890   5.192 -0.4107 -1.7313  1.7561
  818MOL0     H12825   5.025  -0.629   5.128 -1.7171 -1.0882  1.2809
  818MOL0     H12826   5.173  -0.737   5.114  0.8966 -0.0159  0.2805
  818MOL0     H12827   5.115  -0.525   5.324  0.4525 -1.0164  1.5753
  818MOL0     H12828   5.263  -0.629   5.318 -0.3425  2.5437  2.7804
  818MOL0     H12829   5.316  -0.400   5.227  2.5291  0.9451 -3.2070
  818MOL0     H12830   5.170  -0.410   5.127  0.7312 -1.5740 -1.8933
  818MOL0     H12831   5.254  -0.592   5.001  1.9841 -3.6026  1.2723
  818MOL0     H12832   5.338  -0.433   4.990 -5.0183 -0.3447 -2.3545
  818MOL0     H12833   5.386  -0.797   5.095 -1.9689  1.6940 -0.6080
  818MOL0     H12834   5.641  -0.933   5.122  2.0505  2.0432 -0.5540
  818MOL0     H12835   5.536  -0.921   5.255 -2.0307  0.1190 -1.4830
  818MOL0     H12836   5.821  -0.800   5.245  1.8307  0.2289  2.4695
  818MOL0     H12837   5.732  -0.818   5.394  1.6428 -1.5019  1.2582
  818MOL0     H12838   5.736  -1.071   5.347 -1.3129  0.9241  0.0207
  818MOL0     H12839   5.837  -1.039   5.205  1.7523  1.2584 -0.3014
  818MOL0     H12840   6.018  -0.973   5.292 -0.8476 -1.8816 -1.5141
  818MOL0     H12841   5.967  -0.957   5.459  6.7594 -3.9768  1.1081
  818MOL0     H12842   6.161  -1.030   5.549  0.4893  0.4463  0.3963
  818MOL0     H12843   6.433  -1.173   5.749 -1.2584 -3.1526 -2.2182
  818MOL0     H12844   6.334  -1.030   5.703  2.0728  1.8807 -2.2409
  818MOL0     H12845   6.477  -1.088   5.604  1.2849 -5.7238 -1.6984
  818MOL0     H12846   6.435  -1.672   5.780  0.1258 -1.1110 -0.0246
  818MOL0     H12847   6.591  -1.802   5.928 -1.5510  0.1102 -1.6875
  818MOL0     H12848   6.872  -1.744   5.890  1.6235 -1.5411 -0.8137
  818MOL0     H12849   6.955  -1.606   5.971 -0.1885  0.3186  0.4741
  818MOL0     H12850   6.977  -1.892   6.082  1.1096 -1.2717 -1.8564
  818MOL0     H12851   7.087  -1.817   5.965  2.6938  2.9233  0.5794
  818MOL0     H12852   7.095  -1.630   6.186  1.6760 -0.2836  0.8215
  818MOL0     H12853   7.194  -1.760   6.159  0.0682  0.3924  0.0969
  818MOL0     H12854   7.062  -1.915   6.307  0.8989  0.1549 -0.3644
  818MOL0     H12855   6.935  -1.794   6.295  1.0994 -0.5116  0.6461
  818MOL0     H12856   7.061  -1.636   6.425  1.0156 -0.2836 -3.1968
  818MOL0     H12857   7.051  -1.793   6.510  2.3371 -0.3678  1.7820
  818MOL0     H12858   7.309  -1.737   6.356 -0.6183 -0.4221 -0.8275
  818MOL0     H12859   7.256  -1.872   6.447 -0.5463  0.5050  0.9224
  818MOL0     H12860   7.221  -1.748   6.663  1.8138  0.8668  2.1495
  818MOL0     H12861   7.272  -1.593   6.581 -1.3540  0.5808 -0.6855
  818MOL0     H12862   7.435  -1.852   6.602 -1.5992  0.6871 -2.3544
  818MOL0     H12863   7.422  -1.722   6.727 -0.7238 -2.4170  0.5660
  818MOL0     H12864   6.778  -1.446   6.041  0.3299 -3.5659  1.9100
  818MOL0     H12865   6.623  -1.314   5.906  2.4833  0.1071 -1.5995
  818MOL0     H12866   6.235  -1.510   5.451 -1.7045 -1.1158  2.5549
  818MOL0     H12867   6.070  -1.379   5.320 -0.3329  1.3138  0.1982
  818MOL0     H12868   4.656  -0.301   5.318  0.7015 -3.3793 -1.8977
  818MOL0     H12869   4.617  -0.064   5.226  0.7054 -0.0991  0.7301
  818MOL0     H12870   4.367   0.126   5.200  1.7378 -0.2773  0.3559
  818MOL0     H12871   4.233   0.322   5.255  2.0842 -0.6275  1.1142
  818MOL0     H12872   4.358   0.706   5.111 -1.4340  3.0901  1.6480
  818MOL0     H12873   4.204   0.672   5.013  0.0879  1.2021  0.0016
  818MOL0     H12874   4.143   0.869   5.137  1.2691  0.1349 -0.0388
  818MOL0     H12875   4.262   0.829   5.265 -0.9858 -1.6716  3.9627
  818MOL0     H12876   4.016   0.657   5.267 -0.0870 -1.7576  3.2765
  818MOL0     H12877   4.117   0.722   5.393 -0.4528  0.3343  0.3470
  818MOL0     H12878   4.018   0.966   5.334 -1.4400  0.5660  2.0839
  818MOL0     H12879   3.917   0.853   5.406 -1.0358 -0.6620 -0.6434
  818MOL0     H12880   3.727   0.899   5.040 -0.7376 -0.9874  1.0148
  818MOL0     H12881   4.429   0.547   4.944  2.5008  1.6399  1.6783
  818MOL0     H12882   4.676   0.330   4.865  0.7920 -3.8557 -3.4506
  818MOL0     H12883   4.554   0.277   4.755 -1.2328 -0.7065  1.9863
  818MOL0     H12884   4.580   0.453   4.788  2.6059 -1.8606 -3.5079
  819MOL0     O12885   9.946   2.609   9.006 -0.5700 -0.7483 -0.0288
  819MOL0     C12886  10.061   2.648   9.034  0.2590  0.3257 -1.0087
  819MOL0     O12887  10.089   2.772   9.096 -0.1187 -0.5484  0.0987
  819MOL0     C12888   9.982   2.854   9.078 -0.3849  0.2639  0.0714
  819MOL0     C12889   9.911   2.892   9.186  0.3102 -0.5366  0.0360
  819MOL0     C12890   9.789   2.952   9.175  0.3678 -0.8891  0.4395
  819MOL0     C12891   9.739   2.980   9.049 -0.2858 -0.5052  0.6364
  819MOL0     O12892   9.620   3.043   9.038  0.2789 -0.5512 -0.7334
  819MOL0     C12893   9.501   2.973   9.077  0.5119 -0.3699 -0.5535
  819MOL0     C12894   9.491   2.820   9.060 -0.2118  0.1996 -0.3634
  819MOL0     C12895   9.482   2.771   8.918 -0.0149  0.2249  0.0400
  819MOL0     C12896   9.370   2.830   8.822  0.6236 -0.4095  0.1767
  819MOL0     C12897   9.338   2.720   8.723  0.7212 -0.7127  0.4700
  819MOL0     C12898   9.236   2.755   8.624  0.2472 -0.0632 -0.6507
  819MOL0     C12899   9.196   2.641   8.529  0.3209 -0.3391 -0.1261
  819MOL0     C12900   9.127   2.697   8.399 -0.2717 -0.1930  0.2989
  819MOL0     N12901   9.123   2.593   8.292 -0.0040 -1.1552 -0.3995
  819MOL0     C12902   9.076   2.466   8.315  0.3089 -0.2616 -0.8674
  819MOL0     C12903   9.077   2.419   8.185 -0.3377  0.3379 -0.1799
  819MOL0     C12904   9.018   2.293   8.144  0.1555 -0.1993 -0.6741
  819MOL0     C12905   8.864   2.290   8.155  0.4087  0.1181  0.1542
  819MOL0     C12906   8.817   2.357   8.018  0.1450 -0.5092 -0.5007
  819MOL0     C12907   8.671   2.373   8.020 -0.0055 -0.6324 -0.5453
  819MOL0     O12908   8.608   2.258   7.973 -0.3449 -0.6224  0.3432
  819MOL0     C12909   8.483   2.284   7.918 -0.6048  0.5012 -0.7364
  819MOL0     C12910   8.448   2.225   7.794  0.4796 -0.9666  0.5221
  819MOL0     C12911   8.318   2.233   7.748 -0.5023  0.8817  0.5893
  819MOL0     C12912   8.296   2.181   7.609  0.3573  0.6468 -0.2028
  819MOL0     C12913   8.221   2.295   7.825 -0.4438  0.3019 -0.5134
  819MOL0     C12914   8.079   2.303   7.779 -0.5769  0.0208 -0.5091
  819MOL0     O12915   8.029   2.189   7.732  1.1614  0.9438 -0.9761
  819MOL0     C12916   7.894   2.194   7.697 -0.6824 -0.7066  0.5050
  819MOL0     C12917   7.799   2.122   7.764  0.2044 -0.6385  1.0734
  819MOL0     C12918   7.659   2.124   7.722  0.1002  0.7271  0.2794
  819MOL0     C12919   7.618   2.206   7.614 -1.1899  1.5596 -0.0192
  819MOL0     O12920   7.488   2.215   7.565 -0.2004 -0.3975  0.1448
  819MOL0     C12921   7.372   2.160   7.639 -0.1796 -0.4388  0.3244
  819MOL0     C12922   7.263   2.199   7.538  0.4670  0.2453  0.8306
  819MOL0     C12923   7.120   2.173   7.593  0.0624  0.0116 -0.9984
  819MOL0     C12924   7.064   2.029   7.569 -0.3045  0.5343 -0.6382
  819MOL0     C12925   6.903   2.027   7.558 -0.0598  0.1127 -0.2410
  819MOL0     C12926   6.842   2.101   7.437  0.6948  0.1665  0.2492
  819MOL0     C12927   6.690   2.118   7.467  0.0814  0.5514 -0.9148
  819MOL0     C12928   6.615   2.219   7.377  0.0701  0.1125  0.9234
  819MOL0    Cl12929   6.450   2.229   7.450  0.1297  0.1350 -0.3393
  819MOL0     C12930   7.722   2.271   7.544  0.2950  0.9388 -1.2518
  819MOL0     C12931   7.861   2.264   7.578 -0.5801  0.3836 -0.4385
  819MOL0     O12932   8.027   2.415   7.767 -0.7641 -0.0279 -0.6113
  819MOL0     C12933   8.250   2.371   7.938 -0.6299 -0.2156 -0.3324
  819MOL0     C12934   8.385   2.364   7.990 -0.5590  0.9951 -0.4062
  819MOL0     N12935   9.132   2.510   8.099  0.0921 -0.3748 -0.2930
  819MOL0     N12936   9.158   2.614   8.162 -0.0067 -0.4138  0.3315
  819MOL0     C12937   9.820   2.969   8.933 -0.1345  0.0981 -0.4625
  819MOL0     C12938   9.943   2.906   8.947 -0.0248  0.2333 -0.1612
  819MOL0     C12939  10.184   2.582   8.978  0.1631  0.6889 -0.5681
  819MOL0     C12940  10.270   2.666   8.907 -0.1323  0.1147  0.5385
  819MOL0     C12941  10.382   2.616   8.849 -0.4570 -0.1063 -1.4242
  819MOL0     C12942  10.414   2.476   8.870  0.1970 -0.0731 -0.6083
  819MOL0     O12943  10.531   2.419   8.827  0.3629 -0.4127  0.4018
  819MOL0     C12944  10.645   2.505   8.789  0.2379  0.0304  0.6676
  819MOL0     C12945  10.714   2.574   8.902 -0.4193  0.1905 -0.0956
  819MOL0     C12946  10.811   2.491   8.991 -0.3490 -0.9831  0.0744
  819MOL0     C12947  10.937   2.462   8.913  0.3786 -0.3048  0.1955
  819MOL0     C12948  11.047   2.547   8.946 -1.2129  0.8409  1.0854
  819MOL0     C12949  11.130   2.617   9.007 -0.4939  0.3677  0.2458
  819MOL0     C12950  10.335   2.390   8.951  1.3536  0.4968  0.1092
  819MOL0     C12951  10.213   2.442   8.998 -0.2914  1.1894  0.0849
  819MOL0     C12952  10.127   2.335   9.059 -0.1077  0.0194 -0.5004
  819MOL0     H12953   9.954   2.852   9.278  1.1268 -0.1414 -0.1579
  819MOL0     H12954   9.730   2.968   9.265  0.3095 -2.1867  0.6505
  819MOL0     H12955   9.419   3.028   9.030 -0.2345  1.1817  2.3081
  819MOL0     H12956   9.498   2.993   9.185  0.5016 -1.7515 -0.2776
  819MOL0     H12957   9.575   2.778   9.116  1.2515  3.2438 -0.0647
  819MOL0     H12958   9.397   2.789   9.107 -1.1705  3.2578 -0.0522
  819MOL0     H12959   9.581   2.787   8.875 -0.0635 -0.7295 -0.4427
  819MOL0     H12960   9.462   2.664   8.927 -1.4641  0.6542  3.7638
  819MOL0     H12961   9.287   2.858   8.887  2.9851  1.8755  2.4553
  819MOL0     H12962   9.396   2.917   8.761 -0.3158 -0.1780  0.0972
  819MOL0     H12963   9.305   2.628   8.772 -3.2751  0.5686  0.5552
  819MOL0     H12964   9.434   2.706   8.672  0.5386  2.5660 -1.0492
  819MOL0     H12965   9.146   2.797   8.670 -1.2395  0.0120 -3.4232
  819MOL0     H12966   9.272   2.839   8.565 -3.7508  3.7063  1.6722
  819MOL0     H12967   9.115   2.582   8.574 -0.1816 -0.5023 -1.2275
  819MOL0     H12968   9.278   2.578   8.492 -1.5597 -3.1926  0.2100
  819MOL0     H12969   9.026   2.732   8.422 -0.2049  0.3974 -0.2719
  819MOL0     H12970   9.177   2.788   8.364 -0.6021  0.4493  1.4547
  819MOL0     H12971   9.045   2.411   8.403  0.2719 -1.1195 -1.4029
  819MOL0     H12972   9.039   2.207   8.208  0.0976 -0.8696 -1.5350
  819MOL0     H12973   9.051   2.261   8.045  3.5532  2.5467 -0.5951
  819MOL0     H12974   8.817   2.194   8.179 -1.4098  1.4191  2.1985
  819MOL0     H12975   8.840   2.357   8.238  0.0759 -2.1930  2.0370
  819MOL0     H12976   8.869   2.452   8.008  1.2311 -1.0574 -0.1402
  819MOL0     H12977   8.841   2.281   7.943  1.1538 -1.4438  0.7203
  819MOL0     H12978   8.626   2.410   8.112  1.5956 -0.2109  0.1068
  819MOL0     H12979   8.650   2.451   7.947  2.0389  0.7799  0.2828
  819MOL0     H12980   8.525   2.171   7.740  1.2168  0.5302  0.0191
  819MOL0     H12981   8.232   2.241   7.543  0.4742  0.7625 -0.2126
  819MOL0     H12982   8.235   2.091   7.616 -0.0950  0.8549 -1.3108
  819MOL0     H12983   8.386   2.156   7.553  1.1337 -1.0237  1.6573
  819MOL0     H12984   7.825   2.057   7.847  1.1521  1.4282  2.4846
  819MOL0     H12985   7.587   2.070   7.784 -0.2641 -0.5937 -1.2321
  819MOL0     H12986   7.375   2.050   7.637 -2.0335 -0.5804  2.2997
  819MOL0     H12987   7.353   2.194   7.741 -1.2084 -1.4865  0.5110
  819MOL0     H12988   7.269   2.308   7.526  0.5425  0.1291 -0.3274
  819MOL0     H12989   7.272   2.149   7.441 -0.6965 -1.9936  1.8265
  819MOL0     H12990   7.057   2.249   7.545 -1.7237 -0.5511  0.3315
  819MOL0     H12991   7.112   2.181   7.702  1.7006 -1.5928 -0.7185
  819MOL0     H12992   7.112   1.971   7.648  3.6765  1.2863 -2.2070
  819MOL0     H12993   7.101   1.981   7.478  3.0987  1.4135  0.1121
  819MOL0     H12994   6.874   1.921   7.560  1.3400 -0.3315 -1.6374
  819MOL0     H12995   6.873   2.069   7.655  1.6766  1.6059 -0.2879
  819MOL0     H12996   6.853   2.041   7.346 -0.9705  0.4389 -0.1784
  819MOL0     H12997   6.894   2.196   7.444 -1.4785  1.6530 -1.9594
  819MOL0     H12998   6.686   2.154   7.570  3.4493  1.2019 -0.9132
  819MOL0     H12999   6.639   2.021   7.460  1.5981 -0.1531 -4.2277
  819MOL0     H13000   6.617   2.181   7.274 -1.4761  0.4869  0.7249
  819MOL0     H13001   6.664   2.316   7.376  0.6317 -0.1638 -0.5382
  819MOL0     H13002   7.689   2.336   7.463  2.4243  2.3694 -1.0715
  819MOL0     H13003   7.935   2.325   7.528  0.4543 -1.4226 -1.2176
  819MOL0     H13004   8.176   2.432   7.988 -2.4542 -0.8077 -2.1409
  819MOL0     H13005   8.417   2.413   8.082  1.9081 -2.9263  1.0816
  819MOL0     H13006   9.783   3.010   8.840 -1.1400 -1.0089 -0.5712
  819MOL0     H13007  10.005   2.885   8.861  0.4427 -2.4689  0.7437
  819MOL0     H13008  10.255   2.773   8.899  0.8120  0.3298  1.4141
  819MOL0     H13009  10.441   2.681   8.784 -1.1143  0.2119 -1.7061
  819MOL0     H13010  10.710   2.445   8.725  1.6235  0.4319  1.6517
  819MOL0     H13011  10.598   2.577   8.721 -0.6998  1.3601  2.6450
  819MOL0     H13012  10.640   2.604   8.976  1.0296  2.8911  0.4048
  819MOL0     H13013  10.769   2.657   8.856 -0.9297  1.3989  1.3554
  819MOL0     H13014  10.823   2.542   9.087  0.4200  1.2644 -1.1445
  819MOL0     H13015  10.768   2.391   9.008  1.6618 -1.5757  2.1590
  819MOL0     H13016  10.915   2.461   8.806 -4.2269 -0.7862  0.9426
  819MOL0     H13017  10.973   2.360   8.933 -0.7725 -0.3548  2.2173
  819MOL0     H13018  11.204   2.686   9.043  0.6466 -0.3269 -0.7207
  819MOL0     H13019  10.374   2.289   8.958  2.3327  0.9453  1.5631
  819MOL0     H13020  10.125   2.331   9.168 -0.2705  1.3513 -0.4270
  819MOL0     H13021  10.021   2.352   9.035 -0.9485  0.1003  2.8538
  819MOL0     H13022  10.159   2.235   9.029 -2.1843 -1.1950  1.0613
  820MOL0     O13023   5.817   4.258   3.538 -0.5278  0.3394 -0.4242
  820MOL0     C13024   5.904   4.322   3.477 -0.6472  0.6913  0.6910
  820MOL0     O13025   5.940   4.457   3.496 -0.8571 -0.1603  0.0096
  820MOL0     C13026   5.863   4.529   3.584 -0.3736  0.3446 -0.3353
  820MOL0     C13027   5.854   4.665   3.578 -0.6672 -1.1116  0.4316
  820MOL0     C13028   5.785   4.743   3.665 -0.4612 -0.8391 -0.6217
  820MOL0     C13029   5.716   4.693   3.778 -0.6785  0.4813 -0.3622
  820MOL0     O13030   5.639   4.781   3.857  0.5381  0.3326 -0.5996
  820MOL0     C13031   5.525   4.718   3.930  0.3670 -0.5311  0.4405
  820MOL0     C13032   5.395   4.694   3.843  1.2123  0.2383 -0.7698
  820MOL0     C13033   5.270   4.730   3.924  0.4473 -0.2629 -0.6744
  820MOL0     C13034   5.156   4.688   3.832 -0.4033 -0.6938  0.2596
  820MOL0     C13035   5.018   4.702   3.908 -0.7764 -0.9903  0.3809
  820MOL0     C13036   4.904   4.623   3.847  0.3852  0.1724  0.2705
  820MOL0     C13037   4.795   4.596   3.947 -0.0661  0.9591 -0.5674
  820MOL0     C13038   4.693   4.705   3.960 -0.2707  0.1658  0.1576
  820MOL0     N13039   4.731   4.821   4.043 -0.4757 -0.0236  0.0129
  820MOL0     C13040   4.747   4.818   4.178  0.2478  0.7303 -0.0079
  820MOL0     C13041   4.821   4.923   4.211  0.2754 -0.4344 -0.5036
  820MOL0     C13042   4.865   4.950   4.344  0.3583  0.2992  0.0733
  820MOL0     C13043   4.758   5.026   4.429 -0.0832  0.1652 -0.1404
  820MOL0     C13044   4.763   4.957   4.571  0.0097 -0.7510 -0.1326
  820MOL0     C13045   4.696   5.051   4.668 -0.5485 -0.2941 -0.3482
  820MOL0     O13046   4.574   4.994   4.694 -0.2464  0.6666 -0.3753
  820MOL0     C13047   4.498   5.062   4.786  0.5137  0.0103  0.6904
  820MOL0     C13048   4.526   5.053   4.922 -0.1435 -0.7618  0.1258
  820MOL0     C13049   4.457   5.123   5.013  0.4995 -0.7726 -0.1026
  820MOL0     C13050   4.511   5.120   5.154 -0.3047 -0.1696  0.6657
  820MOL0     C13051   4.351   5.210   4.975  0.1629  0.1540  0.2999
  820MOL0     C13052   4.283   5.311   5.072  0.7360  0.7589 -0.0624
  820MOL0     O13053   4.164   5.350   5.024  0.6100 -0.3699 -0.0310
  820MOL0     C13054   4.071   5.413   5.116  0.2907  0.1019  0.6202
  820MOL0     C13055   3.990   5.506   5.067 -0.1990 -0.3665 -0.1748
  820MOL0     C13056   3.885   5.554   5.147 -0.4974 -0.8078  0.5800
  820MOL0     C13057   3.865   5.518   5.274 -0.5124  0.5637  0.2086
  820MOL0     O13058   3.747   5.572   5.323  0.3463  0.2576  0.0668
  820MOL0     C13059   3.707   5.590   5.467 -1.2402 -0.0866  0.5535
  820MOL0     C13060   3.659   5.735   5.480  0.6334  0.0292  0.1169
  820MOL0     C13061   3.689   5.806   5.621 -0.0454  0.0395  0.0644
  820MOL0     C13062   3.605   5.731   5.725 -0.5884 -0.7166  0.8273
  820MOL0     C13063   3.582   5.831   5.844  0.6928 -0.7268  0.2869
  820MOL0     C13064   3.494   5.762   5.949  0.2982 -0.6197 -0.1076
  820MOL0     C13065   3.529   5.824   6.085 -0.5894  0.0709 -0.6702
  820MOL0     C13066   3.477   5.970   6.107  0.4583 -0.6474  0.4015
  820MOL0    Cl13067   3.549   6.001   6.264 -0.4964 -0.3258  0.0985
  820MOL0     C13068   3.950   5.419   5.331  1.1693  0.8598 -0.6355
  820MOL0     C13069   4.051   5.376   5.248 -0.3297  0.0557 -0.7936
  820MOL0     O13070   4.332   5.363   5.171 -0.7402  0.1229 -0.4280
  820MOL0     C13071   4.317   5.202   4.840 -1.0699 -0.7186 -0.0927
  820MOL0     C13072   4.381   5.125   4.739  1.0152 -1.7371 -0.2612
  820MOL0     N13073   4.842   4.991   4.095  0.7217 -0.9633  0.6291
  820MOL0     N13074   4.791   4.931   3.991  0.4994 -0.3013  0.1221
  820MOL0     C13075   5.730   4.556   3.800 -0.1721  0.0208 -0.5785
  820MOL0     C13076   5.802   4.475   3.704 -0.2468 -0.3488  0.5160
  820MOL0     C13077   5.978   4.263   3.361  0.2809 -1.5058 -0.4037
  820MOL0     C13078   6.106   4.318   3.332  0.0180 -0.4991  0.9707
  820MOL0     C13079   6.188   4.257   3.231 -0.8950 -0.1447 -1.0347
  820MOL0     C13080   6.142   4.149   3.161 -0.0735  0.3052 -0.9770
  820MOL0     O13081   6.226   4.092   3.059  0.2789  0.0663 -0.8475
  820MOL0     C13082   6.167   4.075   2.924  0.2021  0.3906 -0.6348
  820MOL0     C13083   6.272   4.048   2.817  0.2502 -0.0975 -0.3478
  820MOL0     C13084   6.291   3.897   2.800  0.6063  0.6338  0.1661
  820MOL0     C13085   6.415   3.868   2.698  0.3845 -0.1730 -0.1926
  820MOL0     C13086   6.408   3.738   2.629  0.2128 -0.4054 -0.1984
  820MOL0     C13087   6.406   3.633   2.564  0.4677  0.2627  0.3941
  820MOL0     C13088   6.018   4.100   3.185  0.4142 -1.4460  0.2114
  820MOL0     C13089   5.932   4.158   3.285  0.6320 -0.3643  0.7759
  820MOL0     C13090   5.789   4.109   3.293 -0.1433  0.5115  0.5417
  820MOL0     H13091   5.915   4.717   3.506 -1.6522 -0.4669  0.0372
  820MOL0     H13092   5.787   4.849   3.643  1.1489 -0.6098  0.3992
  820MOL0     H13093   5.497   4.797   4.000  0.5957 -0.0326 -0.0183
  820MOL0     H13094   5.552   4.621   3.972 -0.1469 -0.8553  0.0345
  820MOL0     H13095   5.397   4.758   3.754 -0.4599  0.0329 -0.9738
  820MOL0     H13096   5.385   4.588   3.819 -0.8857 -0.3679  2.2621
  820MOL0     H13097   5.269   4.668   4.015  0.9080 -1.3040 -1.3607
  820MOL0     H13098   5.264   4.837   3.945 -0.8912 -0.2828 -0.8948
  820MOL0     H13099   5.144   4.746   3.740 -0.8025 -2.4991 -0.8886
  820MOL0     H13100   5.157   4.581   3.806 -3.0831 -1.9926  4.4524
  820MOL0     H13101   5.001   4.808   3.930  0.1087 -0.4635 -1.2685
  820MOL0     H13102   5.030   4.660   4.008  1.6902 -2.8283 -0.5920
  820MOL0     H13103   4.868   4.670   3.755  2.0416  0.9608 -0.0087
  820MOL0     H13104   4.937   4.523   3.818  1.4388  0.8131 -0.8507
  820MOL0     H13105   4.832   4.584   4.049 -0.8556  2.5295 -0.0627
  820MOL0     H13106   4.739   4.508   3.915  1.5769 -0.8633  1.2931
  820MOL0     H13107   4.653   4.728   3.862  1.9132  1.3232 -0.5273
  820MOL0     H13108   4.614   4.668   4.025  1.3392 -1.8090  1.0990
  820MOL0     H13109   4.724   4.731   4.238  2.1281  2.0537  2.9169
  820MOL0     H13110   4.941   5.028   4.331  1.8081 -0.9464  0.8574
  820MOL0     H13111   4.906   4.863   4.396 -1.0447  0.5460  1.6972
  820MOL0     H13112   4.772   5.134   4.422 -2.6028  0.4739 -1.8888
  820MOL0     H13113   4.655   5.018   4.393  0.0377  0.0301 -0.4597
  820MOL0     H13114   4.714   4.859   4.565  0.7987 -1.0727 -2.4750
  820MOL0     H13115   4.864   4.935   4.606 -0.1610 -0.6813  0.4112
  820MOL0     H13116   4.759   5.060   4.757 -0.1314  3.1564 -0.8610
  820MOL0     H13117   4.693   5.146   4.615 -1.3164 -1.2022 -2.0152
  820MOL0     H13118   4.610   4.994   4.957 -2.6695 -1.9597  4.9606
  820MOL0     H13119   4.561   5.214   5.181  1.3248 -1.4885  2.5610
  820MOL0     H13120   4.598   5.054   5.158 -0.3515 -0.4179 -1.5886
  820MOL0     H13121   4.435   5.075   5.219 -0.1801  1.4698  2.0258
  820MOL0     H13122   4.018   5.533   4.966  1.2816  0.0240  0.3204
  820MOL0     H13123   3.818   5.633   5.114  0.5376 -0.0088  0.3440
  820MOL0     H13124   3.619   5.531   5.493 -1.7388  0.1913 -0.4503
  820MOL0     H13125   3.791   5.576   5.535  0.3433  0.2911 -1.2525
  820MOL0     H13126   3.707   5.808   5.413 -2.0937  2.1725  0.3299
  820MOL0     H13127   3.551   5.738   5.464  0.4824  0.9071  1.1636
  820MOL0     H13128   3.651   5.908   5.618  2.2320  1.0425  2.1134
  820MOL0     H13129   3.795   5.804   5.645  0.3444  1.8072 -1.3615
  820MOL0     H13130   3.672   5.653   5.764 -0.2922 -0.7422  0.2772
  820MOL0     H13131   3.514   5.690   5.680  2.1045 -2.9878 -3.2127
  820MOL0     H13132   3.677   5.861   5.888  1.1961 -0.6509 -0.8279
  820MOL0     H13133   3.539   5.916   5.792  1.8770  0.5961  1.3927
  820MOL0     H13134   3.513   5.654   5.945 -1.7784 -1.0527  0.1505
  820MOL0     H13135   3.389   5.774   5.919  0.5653 -2.2882 -1.9250
  820MOL0     H13136   3.636   5.808   6.104 -0.6078  1.1667  0.5353
  820MOL0     H13137   3.479   5.764   6.162 -2.5280  1.3905 -0.8272
  820MOL0     H13138   3.368   5.962   6.112  0.5899 -1.8276  2.1645
  820MOL0     H13139   3.513   6.032   6.024  3.9541 -1.3981  1.2102
  820MOL0     H13140   3.946   5.389   5.435  0.1336  3.4406  0.1484
  820MOL0     H13141   4.124   5.311   5.294  2.1351  1.5197 -2.4414
  820MOL0     H13142   4.236   5.265   4.805  0.2897 -0.3392 -2.7406
  820MOL0     H13143   4.337   5.120   4.640 -2.0524 -2.3305  1.0240
  820MOL0     H13144   5.704   4.518   3.898  1.4228 -0.5168 -0.3269
  820MOL0     H13145   5.809   4.370   3.731 -1.8865 -1.3385 -2.3839
  820MOL0     H13146   6.146   4.395   3.396 -0.4307 -0.0698  0.7417
  820MOL0     H13147   6.292   4.282   3.213 -0.7512 -1.0440 -1.5239
  820MOL0     H13148   6.082   4.006   2.926 -1.0993  1.9345  1.7081
  820MOL0     H13149   6.112   4.166   2.898 -0.9371  0.2737  1.2070
  820MOL0     H13150   6.368   4.086   2.851 -0.7862  0.4433  2.2308
  820MOL0     H13151   6.234   4.091   2.725 -0.4056 -1.7647 -0.9063
  820MOL0     H13152   6.311   3.847   2.896 -0.9309 -2.1360 -0.8310
  820MOL0     H13153   6.194   3.870   2.758  0.0955  4.5133 -1.4800
  820MOL0     H13154   6.508   3.864   2.757 -0.8107 -3.1007  1.7452
  820MOL0     H13155   6.419   3.948   2.624 -2.2797  0.2606  0.0513
  820MOL0     H13156   6.423   3.545   2.505  0.0363  0.0233  0.6243
  820MOL0     H13157   5.984   4.014   3.127  0.0379  0.9842 -3.4560
  820MOL0     H13158   5.785   4.061   3.195  2.5536 -2.6280  1.7680
  820MOL0     H13159   5.780   4.030   3.369 -0.4441  2.0433  2.1710
  820MOL0     H13160   5.716   4.190   3.291 -0.9979 -0.2634 -1.2474
  821MOL0     O13161   5.677   9.076   9.479 -0.5944 -0.5710  0.0868
  821MOL0     C13162   5.572   9.048   9.537  0.0955  0.3411 -0.0667
  821MOL0     O13163   5.555   8.926   9.591  0.2345  0.2391 -0.0441
  821MOL0     C13164   5.661   8.840   9.582  0.5321  1.0284  0.5500
  821MOL0     C13165   5.792   8.866   9.632  0.1080 -0.0350  0.1057
  821MOL0     C13166   5.888   8.770   9.636 -0.5768  0.3646 -0.6960
  821MOL0     C13167   5.881   8.644   9.574  1.0627  0.0992  0.1133
  821MOL0     O13168   5.977   8.549   9.572 -0.5751  0.4143 -0.0466
  821MOL0     C13169   5.970   8.426   9.496 -0.7989  0.6518  1.3792
  821MOL0     C13170   6.103   8.389   9.417  0.1129 -0.8879 -0.5862
  821MOL0     C13171   6.070   8.301   9.306 -1.1221  0.1179  0.7468
  821MOL0     C13172   6.204   8.225   9.254  0.9411 -0.1977 -0.5963
  821MOL0     C13173   6.167   8.105   9.166 -1.2212 -0.1108 -0.1597
  821MOL0     C13174   6.128   7.987   9.261 -0.2080  0.3354  0.5579
  821MOL0     C13175   6.130   7.853   9.182  0.0620  0.4032 -0.4983
  821MOL0     C13176   6.099   7.742   9.282 -0.7230 -0.2369 -0.2196
  821MOL0     N13177   6.155   7.609   9.247  0.2366 -0.3366 -0.7885
  821MOL0     C13178   6.108   7.535   9.136  0.6661 -0.1714 -1.0363
  821MOL0     C13179   6.185   7.421   9.137 -0.2349 -0.1997 -0.5402
  821MOL0     C13180   6.164   7.299   9.058 -1.1455 -0.2607  0.0746
  821MOL0     C13181   6.040   7.206   9.099 -0.4128 -0.1787  0.0743
  821MOL0     C13182   6.019   7.069   9.023 -0.3409 -0.0184 -0.0042
  821MOL0     C13183   5.903   6.997   9.081 -0.1164  1.3485 -0.6041
  821MOL0     O13184   5.928   6.945   9.216  0.5575 -0.2355 -0.8001
  821MOL0     C13185   5.817   6.886   9.283 -1.0197  0.2612  0.4630
  821MOL0     C13186   5.689   6.891   9.244  0.2859  0.2828  0.7916
  821MOL0     C13187   5.586   6.840   9.316  0.2014  0.2934  0.0241
  821MOL0     C13188   5.452   6.836   9.246 -0.3708 -0.0033 -0.6747
  821MOL0     C13189   5.616   6.804   9.448  0.3088 -0.2953 -0.1093
  821MOL0     C13190   5.509   6.766   9.549 -0.8256  0.1963 -0.6709
  821MOL0     O13191   5.548   6.726   9.669  0.0639  0.9124 -0.2631
  821MOL0     C13192   5.467   6.721   9.777 -0.0794 -0.4551 -0.1890
  821MOL0     C13193   5.370   6.613   9.784  0.0718 -0.0558  0.3489
  821MOL0     C13194   5.282   6.617   9.895  0.3518 -0.1131  0.2874
  821MOL0     C13195   5.300   6.717   9.995  0.4675  0.0239 -0.7275
  821MOL0     O13196   5.221   6.741  10.110 -0.0853 -0.1651  0.1437
  821MOL0     C13197   5.079   6.698  10.108  1.3977  0.0664 -0.0952
  821MOL0     C13198   5.037   6.573  10.190  0.3039 -0.8857 -0.0189
  821MOL0     C13199   5.061   6.595  10.344 -0.2901  0.2509 -0.4682
  821MOL0     C13200   4.978   6.497  10.425 -0.9155 -0.3858 -0.3925
  821MOL0     C13201   4.971   6.520  10.569 -0.2733 -0.7894  0.0604
  821MOL0     C13202   5.109   6.547  10.639  1.4645 -1.2478 -0.1717
  821MOL0     C13203   5.200   6.423  10.667  0.3761 -0.2428 -0.4665
  821MOL0     C13204   5.346   6.473  10.697  0.1391  1.0615  0.3576
  821MOL0    Cl13205   5.456   6.359  10.610 -0.1291  0.3783  0.2988
  821MOL0     C13206   5.406   6.815   9.986 -0.5001 -0.2244  0.2752
  821MOL0     C13207   5.488   6.819   9.876 -0.0508 -0.2947  0.2314
  821MOL0     O13208   5.398   6.796   9.517 -0.2645 -0.0895  0.3705
  821MOL0     C13209   5.751   6.804   9.488  0.4260  0.2261 -0.2374
  821MOL0     C13210   5.855   6.836   9.401 -0.4926 -0.2935 -1.3433
  821MOL0     N13211   6.279   7.430   9.238 -0.4248  0.0318 -0.5524
  821MOL0     N13212   6.266   7.551   9.292  0.3706  0.8533 -0.9920
  821MOL0     C13213   5.748   8.618   9.527  0.9705  0.5029  0.4166
  821MOL0     C13214   5.642   8.714   9.522 -0.8485 -0.0135 -0.1774
  821MOL0     C13215   5.458   9.137   9.534  1.4547  0.0860 -1.2487
  821MOL0     C13216   5.346   9.103   9.611 -0.8202  0.8169 -0.1954
  821MOL0     C13217   5.245   9.193   9.630  0.0891  0.3036  0.4782
  821MOL0     C13218   5.250   9.321   9.578 -0.8706  0.6136  0.0388
  821MOL0     O13219   5.164   9.417   9.612  0.8524 -0.1437 -0.1985
  821MOL0     C13220   5.032   9.405   9.554 -0.3467  0.1227  0.0442
  821MOL0     C13221   4.950   9.529   9.585 -0.4789 -0.1156 -0.9034
  821MOL0     C13222   4.905   9.539   9.732 -0.0240 -0.9797  0.8357
  821MOL0     C13223   4.870   9.409   9.800  0.0674  0.5384  0.0642
  821MOL0     C13224   4.841   9.449   9.943 -0.6108 -0.4627  0.7906
  821MOL0     C13225   4.816   9.509  10.040 -0.2510 -0.0466 -0.1874
  821MOL0     C13226   5.368   9.360   9.511 -0.0672 -0.2520 -0.5983
  821MOL0     C13227   5.459   9.268   9.486  0.2602 -0.5756  0.1309
  821MOL0     C13228   5.558   9.308   9.381 -0.1637 -0.4567 -0.0709
  821MOL0     H13229   5.823   8.965   9.665  3.5082  0.1784 -3.0365
  821MOL0     H13230   5.976   8.797   9.693  0.7128  0.0478 -2.4335
  821MOL0     H13231   5.886   8.423   9.426  0.0580 -3.0694  0.2891
  821MOL0     H13232   5.941   8.351   9.570 -1.0544 -0.2301  0.3904
  821MOL0     H13233   6.147   8.485   9.390 -2.6900  0.7761  0.2921
  821MOL0     H13234   6.168   8.346   9.493 -2.7487 -2.0000  1.4101
  821MOL0     H13235   6.000   8.221   9.333 -0.0102 -2.1468 -2.4350
  821MOL0     H13236   6.032   8.352   9.217 -2.7132 -1.4637  0.4545
  821MOL0     H13237   6.257   8.301   9.198  0.7517  1.5604  1.4739
  821MOL0     H13238   6.266   8.192   9.338 -0.8637 -0.8462  0.5592
  821MOL0     H13239   6.260   8.072   9.117  0.0984 -0.3123  2.3148
  821MOL0     H13240   6.085   8.126   9.097 -2.2145 -1.0944  0.6798
  821MOL0     H13241   6.196   7.973   9.346 -1.5235  0.5059  1.6636
  821MOL0     H13242   6.032   8.001   9.311 -0.3927 -2.6341  1.2204
  821MOL0     H13243   6.225   7.838   9.129 -1.1331  1.0342 -2.9363
  821MOL0     H13244   6.058   7.845   9.101 -0.6383 -0.8874  0.2092
  821MOL0     H13245   6.146   7.770   9.377  2.8224 -1.6925 -1.3658
  821MOL0     H13246   5.992   7.727   9.296 -1.0188  0.1333 -1.8118
  821MOL0     H13247   6.021   7.552   9.074  1.1331  3.1096 -1.0091
  821MOL0     H13248   6.260   7.248   9.071 -1.2883 -0.2686  1.1627
  821MOL0     H13249   6.164   7.334   8.954  2.0896  1.4322  0.5149
  821MOL0     H13250   6.060   7.159   9.196  0.5668 -0.0278 -0.0431
  821MOL0     H13251   5.947   7.263   9.093 -0.5702 -0.4058  0.3414
  821MOL0     H13252   6.008   7.096   8.917  0.6123 -0.6535 -0.2762
  821MOL0     H13253   6.113   7.013   9.024 -1.1610 -1.4455 -0.4917
  821MOL0     H13254   5.816   7.063   9.084  1.6935  3.9108 -0.2358
  821MOL0     H13255   5.876   6.906   9.028 -0.7010  1.1328  0.0501
  821MOL0     H13256   5.677   6.924   9.141  2.4568 -0.5951  0.1994
  821MOL0     H13257   5.373   6.783   9.300  0.3879  0.9055  1.4391
  821MOL0     H13258   5.456   6.797   9.144  1.9825  0.0475 -0.6483
  821MOL0     H13259   5.420   6.940   9.237 -4.3527 -0.9734 -0.0738
  821MOL0     H13260   5.375   6.529   9.715  3.0564 -1.2997  1.8796
  821MOL0     H13261   5.196   6.550   9.898  2.1639 -2.6170  3.8659
  821MOL0     H13262   5.023   6.778  10.158 -0.1175 -0.5331 -0.7711
  821MOL0     H13263   5.041   6.695  10.006  1.1293  1.1736 -0.0378
  821MOL0     H13264   4.931   6.565  10.164  0.9727  0.3236 -3.7221
  821MOL0     H13265   5.078   6.479  10.152  0.0930 -0.7013 -0.7315
  821MOL0     H13266   5.043   6.700  10.369  2.0432  0.2574  1.4938
  821MOL0     H13267   5.165   6.575  10.371 -0.0105  2.8283  0.6311
  821MOL0     H13268   5.033   6.405  10.404  1.7530  1.3431 -1.5918
  821MOL0     H13269   4.871   6.488  10.405 -0.8922 -0.0755 -0.6760
  821MOL0     H13270   4.914   6.613  10.575  0.1863 -0.5175  0.2754
  821MOL0     H13271   4.922   6.431  10.610 -2.8609  0.5255  0.0399
  821MOL0     H13272   5.084   6.596  10.733  3.2171  0.6123 -0.6085
  821MOL0     H13273   5.165   6.630  10.594  2.6576 -1.0167  1.6357
  821MOL0     H13274   5.199   6.372  10.570 -0.5711  2.7538 -2.1616
  821MOL0     H13275   5.156   6.370  10.751  0.4662  1.6493  0.8310
  821MOL0     H13276   5.345   6.455  10.805 -4.2196  1.5357  0.5944
  821MOL0     H13277   5.353   6.582  10.683 -2.1468  1.1887 -0.3317
  821MOL0     H13278   5.430   6.890  10.061  1.5207  0.1067 -0.6209
  821MOL0     H13279   5.561   6.897   9.857  0.0741 -0.5949 -0.5883
  821MOL0     H13280   5.783   6.785   9.590 -2.0004  0.3697  0.5963
  821MOL0     H13281   5.960   6.840   9.430 -0.7717  0.2860 -0.3657
  821MOL0     H13282   5.716   8.528   9.476  0.1204  0.8816  0.2556
  821MOL0     H13283   5.546   8.690   9.478 -1.3468  0.5304  0.5727
  821MOL0     H13284   5.330   9.002   9.648  1.1060 -0.1376 -1.8071
  821MOL0     H13285   5.172   9.159   9.703  1.4471 -3.6000  0.2565
  821MOL0     H13286   5.047   9.409   9.446 -0.1330  1.0505  0.1043
  821MOL0     H13287   4.984   9.308   9.573  0.1558 -0.2020 -0.3278
  821MOL0     H13288   4.850   9.519   9.543 -2.5611  1.1098  3.1771
  821MOL0     H13289   5.009   9.617   9.555 -1.9557  1.6998  1.1769
  821MOL0     H13290   4.986   9.579   9.794 -1.7175  0.7613  2.0261
  821MOL0     H13291   4.816   9.602   9.741  0.7057  0.1044  0.7068
  821MOL0     H13292   4.943   9.328   9.796  1.3419  1.5937  1.0759
  821MOL0     H13293   4.770   9.380   9.765  0.2630  2.1710 -2.1185
  821MOL0     H13294   4.783   9.566  10.125 -0.0921 -1.8868  1.1703
  821MOL0     H13295   5.372   9.466   9.488  0.7493 -0.2152 -0.3069
  821MOL0     H13296   5.543   9.412   9.350  0.5305  0.1604  1.5825
  821MOL0     H13297   5.664   9.304   9.407  0.1235  3.1873 -0.0463
  821MOL0     H13298   5.541   9.238   9.298  1.1496  2.5381 -3.1179
  822MOL0     O13299   8.518   5.903   4.627  0.2584  0.1897  0.5511
  822MOL0     C13300   8.641   5.925   4.609  1.1096  0.7457  0.4563
  822MOL0     O13301   8.700   5.960   4.489  0.1957 -0.0728 -0.2533
  822MOL0     C13302   8.617   5.973   4.380 -0.3046  0.1295 -0.2679
  822MOL0     C13303   8.550   6.091   4.372  0.2702  0.6540  0.5871
  822MOL0     C13304   8.463   6.113   4.268 -0.3857 -0.2842  0.5200
  822MOL0     C13305   8.440   6.017   4.168 -0.1319  0.3849 -0.3080
  822MOL0     O13306   8.354   6.045   4.063 -0.2078  0.3782  0.2008
  822MOL0     C13307   8.335   5.944   3.952 -0.5749  0.3794 -0.1476
  822MOL0     C13308   8.261   6.008   3.831  0.0272 -0.1012 -0.5864
  822MOL0     C13309   8.349   6.121   3.781 -1.6558  0.1152 -0.3384
  822MOL0     C13310   8.271   6.196   3.672  0.4269 -0.7528 -1.0113
  822MOL0     C13311   8.340   6.327   3.629 -0.1284  0.0919 -0.1173
  822MOL0     C13312   8.470   6.315   3.536  1.4287  0.2049  0.2095
  822MOL0     C13313   8.573   6.432   3.551 -0.0001 -0.4182  0.3815
  822MOL0     C13314   8.595   6.536   3.441  0.5965 -0.0076 -0.3034
  822MOL0     N13315   8.679   6.654   3.491 -0.2650  0.0099 -0.3853
  822MOL0     C13316   8.633   6.754   3.573  0.3859 -1.2943  0.2250
  822MOL0     C13317   8.729   6.849   3.592  0.1066  0.4354  0.0636
  822MOL0     C13318   8.719   6.970   3.686 -0.2489 -1.0187  0.0995
  822MOL0     C13319   8.724   7.107   3.607 -0.7037  0.5707 -1.0032
  822MOL0     C13320   8.746   7.236   3.703  0.1131  1.2762  1.0733
  822MOL0     C13321   8.817   7.343   3.632 -0.3819  0.8427  0.1284
  822MOL0     O13322   8.747   7.378   3.514  1.2629 -0.0359  0.4236
  822MOL0     C13323   8.816   7.426   3.411  0.0369 -0.8039  0.7487
  822MOL0     C13324   8.936   7.502   3.415  0.3236  0.3626  0.4859
  822MOL0     C13325   8.997   7.546   3.305  0.2482  0.3380 -0.0333
  822MOL0     C13326   9.127   7.624   3.324  0.0221 -0.3826  1.3558
  822MOL0     C13327   8.945   7.518   3.181  0.2495  0.1286 -0.0452
  822MOL0     C13328   9.008   7.541   3.048 -0.7909  0.5383 -1.0689
  822MOL0     O13329   8.933   7.481   2.943 -0.5780 -0.0765 -0.3687
  822MOL0     C13330   9.006   7.439   2.838  0.1548  0.3676  0.1609
  822MOL0     C13331   9.105   7.338   2.841 -0.2267  0.0763 -0.1234
  822MOL0     C13332   9.159   7.284   2.721  0.1285  0.1201 -0.7430
  822MOL0     C13333   9.121   7.331   2.598 -0.9704  0.0314  0.1928
  822MOL0     O13334   9.158   7.281   2.481  0.5767 -0.3187  0.0762
  822MOL0     C13335   9.160   7.140   2.480 -0.6533 -0.8693  0.1685
  822MOL0     C13336   9.098   7.093   2.345 -1.2672  0.6781 -0.6941
  822MOL0     C13337   9.150   6.951   2.318  0.2707 -0.7675 -0.2279
  822MOL0     C13338   9.098   6.892   2.181  0.4001  0.6466  0.6616
  822MOL0     C13339   9.172   6.948   2.057  0.0442 -0.4340 -0.7781
  822MOL0     C13340   9.152   6.855   1.936  0.4755  1.3266  0.2209
  822MOL0     C13341   9.203   6.917   1.811 -1.3104 -0.7448  0.2412
  822MOL0     C13342   9.349   6.960   1.826 -0.7226 -0.0719 -0.1507
  822MOL0    Cl13343   9.406   7.025   1.664  0.1159  0.2105  0.2475
  822MOL0     C13344   9.031   7.437   2.588 -0.5943 -0.1290  0.0829
  822MOL0     C13345   8.966   7.491   2.704 -0.7992  0.6874 -0.2620
  822MOL0     O13346   9.125   7.572   3.038 -0.3213  0.3179 -0.3387
  822MOL0     C13347   8.814   7.447   3.176  0.3933 -1.2330  0.4826
  822MOL0     C13348   8.753   7.400   3.286 -0.1576  0.0345  0.6003
  822MOL0     N13349   8.838   6.787   3.529 -1.2934  0.7457  0.9623
  822MOL0     N13350   8.813   6.678   3.466  0.0889  0.0057 -0.5417
  822MOL0     C13351   8.513   5.900   4.169  0.2217  0.4764  0.5387
  822MOL0     C13352   8.616   5.882   4.266  0.8690 -0.1185  0.4563
  822MOL0     C13353   8.728   5.916   4.727 -0.2804  0.4198 -0.5191
  822MOL0     C13354   8.858   5.962   4.712  0.9669 -0.4631 -0.1722
  822MOL0     C13355   8.947   5.949   4.816  0.3579 -0.3139 -0.3475
  822MOL0     C13356   8.906   5.897   4.934 -0.9476  0.6005 -0.8067
  822MOL0     O13357   8.990   5.863   5.035 -0.2312  0.5620  0.0941
  822MOL0     C13358   9.132   5.847   5.017  0.1735 -0.8447  0.7084
  822MOL0     C13359   9.221   5.816   5.136  1.1007 -1.0703 -0.0242
  822MOL0     C13360   9.163   5.897   5.261 -0.1933 -0.5884 -0.1256
  822MOL0     C13361   9.061   5.825   5.352 -0.2903  0.1584  0.5038
  822MOL0     C13362   9.018   5.886   5.473 -1.1449 -0.1509 -0.4912
  822MOL0     C13363   8.988   5.927   5.583  0.2920  0.1579 -0.7079
  822MOL0     C13364   8.775   5.866   4.955  0.4505  0.6145  0.6929
  822MOL0     C13365   8.678   5.877   4.852  0.3350 -0.6879 -0.8477
  822MOL0     C13366   8.542   5.817   4.877  0.0580 -0.4283  0.0629
  822MOL0     H13367   8.562   6.161   4.454  1.1969 -0.6165  1.5783
  822MOL0     H13368   8.415   6.210   4.274 -0.1519 -0.2581  3.6751
  822MOL0     H13369   8.278   5.857   3.985  2.4260 -1.6079  0.2000
  822MOL0     H13370   8.427   5.897   3.916 -0.3409 -0.0282  0.9480
  822MOL0     H13371   8.239   5.919   3.772 -1.0799 -2.0772  2.5479
  822MOL0     H13372   8.162   6.038   3.868  0.1223 -1.4062  0.8105
  822MOL0     H13373   8.385   6.184   3.862 -0.1498  0.8695 -1.5456
  822MOL0     H13374   8.438   6.069   3.745  0.0602  2.7386 -0.1117
  822MOL0     H13375   8.248   6.132   3.586 -0.0935  0.6389 -1.9495
  822MOL0     H13376   8.178   6.218   3.726 -0.3924  0.2475 -2.7254
  822MOL0     H13377   8.385   6.361   3.723  0.7816  0.9117 -0.8260
  822MOL0     H13378   8.268   6.401   3.591 -0.4977  0.0463  0.4834
  822MOL0     H13379   8.519   6.220   3.560  0.5895 -0.3845 -0.3871
  822MOL0     H13380   8.441   6.302   3.432  1.0534  1.3799  0.1499
  822MOL0     H13381   8.669   6.380   3.557 -0.1740 -0.6399  1.6662
  822MOL0     H13382   8.572   6.470   3.654  0.4909 -0.5436  0.4368
  822MOL0     H13383   8.646   6.479   3.362  1.2381 -1.0289  0.8111
  822MOL0     H13384   8.498   6.566   3.400 -0.2218 -1.6401  0.3513
  822MOL0     H13385   8.531   6.755   3.609  0.1268  3.5363  0.0234
  822MOL0     H13386   8.800   6.971   3.760  0.9882  1.6042 -1.1659
  822MOL0     H13387   8.629   6.970   3.748 -0.1897 -2.4703  0.2367
  822MOL0     H13388   8.809   7.082   3.543 -1.0320  0.6666 -1.4828
  822MOL0     H13389   8.633   7.117   3.546 -2.4802 -1.4133  1.1355
  822MOL0     H13390   8.651   7.266   3.748  1.5088  4.7055  2.1090
  822MOL0     H13391   8.812   7.216   3.788 -0.3423  0.2768  1.1927
  822MOL0     H13392   8.846   7.421   3.703  1.2565 -0.2055  0.6668
  822MOL0     H13393   8.915   7.306   3.598 -0.3022 -1.2261  2.3541
  822MOL0     H13394   8.981   7.524   3.512  1.1646 -0.5620  0.3196
  822MOL0     H13395   9.131   7.692   3.239  2.8000  0.0133  1.7252
  822MOL0     H13396   9.210   7.554   3.313  1.6340  1.6121  0.3326
  822MOL0     H13397   9.133   7.699   3.403 -0.0924  1.0585  0.0494
  822MOL0     H13398   9.132   7.306   2.941 -1.7533  0.6402  0.4994
  822MOL0     H13399   9.227   7.200   2.727 -2.2015 -2.0801 -2.9162
  822MOL0     H13400   9.269   7.132   2.469 -0.6729  0.9942 -2.0947
  822MOL0     H13401   9.112   7.088   2.564 -1.6345  0.4989  0.4883
  822MOL0     H13402   8.989   7.084   2.347 -1.2788  0.4539  1.9051
  822MOL0     H13403   9.129   7.156   2.261  0.3136  2.4923  1.1380
  822MOL0     H13404   9.110   6.881   2.392  1.3528 -0.6040  0.5313
  822MOL0     H13405   9.257   6.945   2.336  0.8011  1.1911 -2.2275
  822MOL0     H13406   8.990   6.899   2.170  0.2046  0.1151  2.0243
  822MOL0     H13407   9.135   6.789   2.185  1.3238  0.9316 -0.1526
  822MOL0     H13408   9.122   7.041   2.029 -2.0447 -1.2334  0.0329
  822MOL0     H13409   9.276   6.967   2.083  0.2730 -2.1329 -0.3451
  822MOL0     H13410   9.046   6.832   1.925  0.3842  1.9533 -0.2435
  822MOL0     H13411   9.191   6.753   1.948 -2.3676  0.0856 -0.3751
  822MOL0     H13412   9.140   6.998   1.773  1.3048  1.2308 -0.1423
  822MOL0     H13413   9.187   6.842   1.733  0.2842  0.3381 -1.2067
  822MOL0     H13414   9.422   6.883   1.855 -0.4716  0.2791  0.1561
  822MOL0     H13415   9.361   7.036   1.904 -1.0857 -0.5021  0.3287
  822MOL0     H13416   9.012   7.469   2.486  1.3415 -0.6107 -0.4853
  822MOL0     H13417   8.888   7.566   2.695 -1.8478  0.5727  4.8775
  822MOL0     H13418   8.773   7.422   3.079  1.0407 -0.8604  0.1033
  822MOL0     H13419   8.671   7.330   3.294 -0.6287  0.6144  1.0253
  822MOL0     H13420   8.492   5.814   4.106  0.5884 -0.2052  1.3241
  822MOL0     H13421   8.669   5.788   4.270  2.0903  0.4254 -1.5511
  822MOL0     H13422   8.891   6.011   4.621  3.6968  0.7282  1.3275
  822MOL0     H13423   9.048   5.965   4.781  0.6547 -3.3115 -1.1941
  822MOL0     H13424   9.142   5.761   4.951 -3.2031 -1.6058  1.0230
  822MOL0     H13425   9.156   5.942   4.969 -1.3178 -0.8476 -0.0979
  822MOL0     H13426   9.328   5.832   5.120  0.8586  4.4582  1.8994
  822MOL0     H13427   9.205   5.711   5.162  0.7006 -1.2071 -0.7942
  822MOL0     H13428   9.254   5.932   5.312  0.5399  1.3159 -2.5779
  822MOL0     H13429   9.108   5.989   5.240 -4.7385 -2.5432  1.7330
  822MOL0     H13430   9.092   5.723   5.376 -1.1407  0.3939  2.8129
  822MOL0     H13431   8.976   5.815   5.283  0.5000  0.2762 -0.5133
  822MOL0     H13432   8.960   5.963   5.680 -2.0417  0.3217 -1.3984
  822MOL0     H13433   8.745   5.825   5.051 -3.3295  0.0849 -0.5707
  822MOL0     H13434   8.527   5.741   4.799  3.9452  1.2604 -2.6685
  822MOL0     H13435   8.536   5.791   4.983 -2.2199  4.7058  1.5426
  822MOL0     H13436   8.468   5.897   4.865 -2.0700 -1.5186  4.1314
  823MOL0     O13437   1.214   2.325   0.647 -0.7556 -0.6341 -0.0052
  823MOL0     C13438   1.185   2.231   0.577 -0.8597  0.0259  0.1994
  823MOL0     O13439   1.089   2.220   0.484 -0.3305  0.7585  0.3367
  823MOL0     C13440   1.014   2.333   0.465 -0.0367 -0.1916  0.1774
  823MOL0     C13441   0.919   2.379   0.566  0.8660  0.0855 -0.1855
  823MOL0     C13442   0.841   2.498   0.553  0.8875  0.0226 -0.1169
  823MOL0     C13443   0.842   2.564   0.428 -0.6727  0.0715  1.1123
  823MOL0     O13444   0.767   2.677   0.431  0.5359 -0.3310  0.4376
  823MOL0     C13445   0.695   2.707   0.312  0.1421 -0.0209 -0.0872
  823MOL0     C13446   0.579   2.618   0.286 -0.3018 -0.1078  0.9727
  823MOL0     C13447   0.498   2.561   0.406  0.6048  0.3838  0.0745
  823MOL0     C13448   0.376   2.481   0.367  0.2429  1.2372 -0.5391
  823MOL0     C13449   0.342   2.364   0.466  0.5655 -0.2570  0.2934
  823MOL0     C13450   0.284   2.424   0.590  0.7285 -0.0449 -1.1628
  823MOL0     C13451   0.254   2.334   0.709  0.7581 -0.0074 -0.2802
  823MOL0     C13452   0.178   2.406   0.813 -0.3061  0.8046  0.0473
  823MOL0     N13453   0.234   2.530   0.856 -0.4414 -0.5571  0.6517
  823MOL0     C13454   0.175   2.657   0.830  0.0180  0.6953  0.3318
  823MOL0     C13455   0.239   2.743   0.913  0.6313 -0.1688 -0.1610
  823MOL0     C13456   0.214   2.890   0.939  0.4823 -0.4275 -0.1510
  823MOL0     C13457   0.098   2.916   1.032 -0.0679  0.2884  0.6643
  823MOL0     C13458   0.082   3.053   1.092  0.3306 -0.5445 -0.3962
  823MOL0     C13459  -0.035   3.058   1.195 -0.8903 -0.1417 -0.8626
  823MOL0     O13460  -0.079   2.945   1.278  0.3971  0.6625 -0.7586
  823MOL0     C13461   0.012   2.902   1.372 -0.0472 -0.4215 -0.7203
  823MOL0     C13462   0.132   2.958   1.422 -0.1053 -0.0815  0.0234
  823MOL0     C13463   0.188   2.897   1.540 -0.7574 -0.5154 -0.7949
  823MOL0     C13464   0.314   2.963   1.584 -0.3934 -0.0729 -0.0716
  823MOL0     C13465   0.128   2.784   1.610 -0.2486  0.6404 -0.3237
  823MOL0     C13466   0.174   2.723   1.739 -0.1939  0.0363  0.3276
  823MOL0     O13467   0.087   2.641   1.803 -0.6967 -0.8929  0.1808
  823MOL0     C13468   0.102   2.628   1.934 -0.2473  0.8477 -0.4767
  823MOL0     C13469   0.061   2.722   2.023 -0.9873  0.0663 -1.0361
  823MOL0     C13470   0.062   2.703   2.163 -1.0712 -0.4137 -0.2473
  823MOL0     C13471   0.089   2.573   2.214 -0.0901 -0.2642  1.3121
  823MOL0     O13472   0.050   2.561   2.344  0.7730 -0.7925  0.3811
  823MOL0     C13473  -0.040   2.452   2.379  0.3038  0.0265 -0.1253
  823MOL0     C13474   0.021   2.340   2.459 -0.3237 -0.4215  0.8968
  823MOL0     C13475   0.001   2.351   2.609 -0.4416 -0.7993  0.1492
  823MOL0     C13476   0.064   2.492   2.657  0.3819 -0.5055 -0.9905
  823MOL0     C13477   0.074   2.509   2.804 -0.5082 -0.1845  0.1063
  823MOL0     C13478   0.171   2.621   2.858  0.4226  0.0908 -0.7725
  823MOL0     C13479   0.200   2.618   3.010 -0.1055  0.6826  0.9398
  823MOL0     C13480   0.316   2.708   3.046  0.9704  1.0544  0.1806
  823MOL0    Cl13481   0.461   2.653   2.959 -0.4142 -0.0349 -0.3927
  823MOL0     C13482   0.121   2.473   2.119  0.1609  0.2404 -0.0902
  823MOL0     C13483   0.132   2.499   1.982 -0.5902 -1.4732 -0.0258
  823MOL0     O13484   0.280   2.751   1.780  0.4191 -0.4707 -0.5205
  823MOL0     C13485   0.026   2.721   1.555 -1.0425 -0.1537  0.7536
  823MOL0     C13486  -0.033   2.786   1.442 -0.3828  0.1493 -0.5771
  823MOL0     N13487   0.337   2.671   0.975 -0.1992  0.4831  0.5332
  823MOL0     N13488   0.341   2.548   0.936 -1.0754 -0.0946 -0.0030
  823MOL0     C13489   0.916   2.505   0.325  0.4668 -0.8273 -0.2502
  823MOL0     C13490   1.001   2.398   0.340 -0.0670 -0.1235  0.0512
  823MOL0     C13491   1.280   2.114   0.594 -0.1781 -0.5880 -0.5211
  823MOL0     C13492   1.327   2.048   0.486  0.3340 -0.1899 -0.8883
  823MOL0     C13493   1.425   1.951   0.496 -0.3476 -0.2303 -0.6614
  823MOL0     C13494   1.460   1.906   0.621  0.3297 -0.8414 -0.4477
  823MOL0     O13495   1.551   1.807   0.613  0.6378  0.3422 -0.9115
  823MOL0     C13496   1.609   1.753   0.739  0.8004 -0.1801  0.9476
  823MOL0     C13497   1.728   1.828   0.776 -0.4100  0.2750 -0.6862
  823MOL0     C13498   1.838   1.822   0.663  0.7572 -0.2620 -0.2786
  823MOL0     C13499   1.978   1.875   0.713 -0.1573 -0.3229 -0.6350
  823MOL0     C13500   2.077   1.775   0.726  0.1546  0.1346  0.7452
  823MOL0     C13501   2.156   1.682   0.729  0.2753 -0.4147  0.0844
  823MOL0     C13502   1.410   1.959   0.737  0.2908  1.1283 -0.2558
  823MOL0     C13503   1.324   2.067   0.725 -0.2067  0.1937  0.0219
  823MOL0     C13504   1.292   2.145   0.847 -0.1880  0.8522  0.2839
  823MOL0     H13505   0.898   2.314   0.650 -2.2638 -0.8064 -1.5190
  823MOL0     H13506   0.768   2.528   0.628 -1.7385 -6.0767  0.3082
  823MOL0     H13507   0.762   2.719   0.226 -1.5078  2.7700 -1.1551
  823MOL0     H13508   0.651   2.807   0.326  1.4648  0.7712 -1.2611
  823MOL0     H13509   0.510   2.683   0.231  1.2867 -1.0566 -2.3684
  823MOL0     H13510   0.618   2.534   0.228  1.4134  1.5342 -0.4047
  823MOL0     H13511   0.570   2.504   0.466  4.6159  3.4880 -1.2959
  823MOL0     H13512   0.473   2.652   0.462 -0.3693  1.0069 -1.3325
  823MOL0     H13513   0.293   2.544   0.334 -1.4048  0.1723  1.3334
  823MOL0     H13514   0.417   2.431   0.278  3.3757  2.3887  0.1540
  823MOL0     H13515   0.421   2.293   0.493  2.5162  2.3751  1.9795
  823MOL0     H13516   0.269   2.305   0.409 -0.9488 -0.5734  2.4440
  823MOL0     H13517   0.359   2.494   0.628  0.4938 -0.5147  0.2241
  823MOL0     H13518   0.191   2.479   0.573  1.3221  1.1232 -0.6853
  823MOL0     H13519   0.342   2.303   0.765 -0.6427 -1.2932  1.3229
  823MOL0     H13520   0.197   2.246   0.675  2.0387 -1.3332  0.8542
  823MOL0     H13521   0.076   2.421   0.774 -0.5254  0.7925  0.6089
  823MOL0     H13522   0.172   2.352   0.908  2.6043  3.1919  1.7730
  823MOL0     H13523   0.090   2.670   0.765  0.9349 -0.4004 -1.1424
  823MOL0     H13524   0.211   2.941   0.843  4.6872 -0.0839 -0.2639
  823MOL0     H13525   0.306   2.929   0.982 -1.9428  2.1961  3.3253
  823MOL0     H13526   0.000   2.900   0.986  0.6337 -0.1649 -0.7139
  823MOL0     H13527   0.113   2.847   1.116  4.9334  0.6763  0.3991
  823MOL0     H13528   0.177   3.097   1.123 -0.0858  0.0261  0.0994
  823MOL0     H13529   0.051   3.122   1.013  0.1046 -0.1093  0.0665
  823MOL0     H13530  -0.014   3.143   1.261  2.7295  2.7819 -5.2380
  823MOL0     H13531  -0.123   3.089   1.138 -2.3332 -0.3322  1.1349
  823MOL0     H13532   0.179   3.042   1.371  3.6461 -2.1086 -0.2014
  823MOL0     H13533   0.345   3.026   1.500 -3.1383  2.5185  0.6490
  823MOL0     H13534   0.391   2.896   1.621 -0.9263  0.1869  1.5837
  823MOL0     H13535   0.296   3.049   1.650 -1.1376  0.6055 -1.1087
  823MOL0     H13536   0.028   2.823   2.001 -3.5937 -0.5147 -0.1519
  823MOL0     H13537   0.037   2.784   2.230 -0.5581 -0.8437  0.4777
  823MOL0     H13538  -0.123   2.496   2.435 -0.6700  1.6170 -2.6555
  823MOL0     H13539  -0.076   2.405   2.287  0.5737 -2.7031  1.0888
  823MOL0     H13540  -0.033   2.251   2.425 -6.9082  2.6223  1.6695
  823MOL0     H13541   0.129   2.334   2.447 -0.2519  2.2482 -0.4377
  823MOL0     H13542   0.054   2.270   2.660  1.0973  0.3119  0.3799
  823MOL0     H13543  -0.102   2.347   2.646 -0.1363  0.5602  1.2115
  823MOL0     H13544   0.011   2.576   2.611  1.6056  0.6395 -0.4075
  823MOL0     H13545   0.168   2.500   2.622  0.2740 -1.2126 -1.4854
  823MOL0     H13546  -0.021   2.547   2.840  0.2082  1.8465  0.0047
  823MOL0     H13547   0.110   2.420   2.855 -1.3260 -0.7527 -0.2923
  823MOL0     H13548   0.133   2.714   2.814  0.3522 -0.0929 -1.1045
  823MOL0     H13549   0.268   2.603   2.811  0.3970 -1.2770 -0.3537
  823MOL0     H13550   0.226   2.515   3.034 -2.5265 -0.0399  0.7678
  823MOL0     H13551   0.109   2.638   3.069  0.5907  0.3002  2.1904
  823MOL0     H13552   0.335   2.699   3.154  0.6486 -1.6444  0.0798
  823MOL0     H13553   0.279   2.810   3.029 -1.4109  0.2118 -0.0997
  823MOL0     H13554   0.121   2.367   2.142 -2.3783 -0.1679 -1.5732
  823MOL0     H13555   0.152   2.422   1.908  3.9176 -0.3157 -0.2557
  823MOL0     H13556  -0.026   2.637   1.600 -1.1752 -1.6624 -1.9767
  823MOL0     H13557  -0.132   2.755   1.408 -0.0433  0.2137 -1.6550
  823MOL0     H13558   0.911   2.555   0.228 -4.1971 -1.7592 -0.7191
  823MOL0     H13559   1.061   2.354   0.261 -1.8660  0.4883 -1.7491
  823MOL0     H13560   1.279   2.068   0.391 -4.1190  0.0384  1.1567
  823MOL0     H13561   1.469   1.905   0.409  0.5561 -0.7526  0.0557
  823MOL0     H13562   1.545   1.737   0.826  0.2488  1.7721  0.9279
  823MOL0     H13563   1.636   1.649   0.718  0.9148 -0.2771  1.5458
  823MOL0     H13564   1.759   1.770   0.863 -0.1573  0.5650 -0.5818
  823MOL0     H13565   1.698   1.930   0.799 -2.1536  0.2269 -2.4349
  823MOL0     H13566   1.846   1.721   0.623 -0.1075 -1.4518  2.2987
  823MOL0     H13567   1.803   1.896   0.591 -2.8105 -0.0916  1.4505
  823MOL0     H13568   1.970   1.905   0.818  0.8450 -0.5965 -0.4686
  823MOL0     H13569   2.014   1.963   0.660  0.7764  0.6105  1.4138
  823MOL0     H13570   2.214   1.593   0.720 -1.3735 -1.4460 -0.6474
  823MOL0     H13571   1.436   1.925   0.837  0.0859  1.0527 -0.2276
  823MOL0     H13572   1.353   2.236   0.844  1.2263 -0.0869 -1.4508
  823MOL0     H13573   1.187   2.164   0.868 -0.7215 -3.0869  1.8066
  823MOL0     H13574   1.335   2.090   0.931 -0.3143 -2.0877 -1.4542
  824MOL0     O13575   7.931   4.274   4.954  0.7297 -0.2882  0.2153
  824MOL0     C13576   7.931   4.208   5.055 -0.0300  0.6912 -0.7503
  824MOL0     O13577   8.026   4.223   5.159  0.3347  0.1199 -0.5770
  824MOL0     C13578   8.143   4.292   5.145 -0.0998 -0.3226  0.0966
  824MOL0     C13579   8.175   4.385   5.243  0.3401  0.3291 -0.0144
  824MOL0     C13580   8.277   4.487   5.216 -0.0662  0.3927  0.5311
  824MOL0     C13581   8.347   4.490   5.091  0.3426 -0.0835 -0.6716
  824MOL0     O13582   8.447   4.584   5.065 -0.5320  0.3129  0.0830
  824MOL0     C13583   8.498   4.622   4.932  0.4912 -0.1917 -0.4466
  824MOL0     C13584   8.455   4.762   4.899  0.3885  0.7480  0.0976
  824MOL0     C13585   8.543   4.822   4.790  0.1010 -0.1294 -0.7349
  824MOL0     C13586   8.467   4.906   4.690  0.0656 -0.5583  0.0571
  824MOL0     C13587   8.552   4.976   4.583 -0.2568  0.3378 -1.0067
  824MOL0     C13588   8.565   4.886   4.456  0.1399  1.1322  0.1446
  824MOL0     C13589   8.675   4.947   4.361 -0.3227  0.8774 -0.4400
  824MOL0     C13590   8.639   4.928   4.210  0.5566  0.1567  0.6868
  824MOL0     N13591   8.523   5.016   4.175 -0.5565 -0.7577  0.5520
  824MOL0     C13592   8.527   5.149   4.156 -0.7017 -0.6208  0.2275
  824MOL0     C13593   8.396   5.186   4.137  0.5343 -0.0775  0.2045
  824MOL0     C13594   8.343   5.327   4.117  0.1379 -0.1394  0.7570
  824MOL0     C13595   8.332   5.404   4.251  0.1260 -0.8786 -0.1637
  824MOL0     C13596   8.463   5.441   4.311 -0.0445 -0.7226  0.3053
  824MOL0     C13597   8.452   5.525   4.437  0.5362  0.6419  0.6840
  824MOL0     O13598   8.587   5.555   4.467  0.6815  0.7617  0.1634
  824MOL0     C13599   8.644   5.448   4.524  1.2441 -0.0321  1.2305
  824MOL0     C13600   8.738   5.374   4.454  0.4785 -0.6067 -1.0767
  824MOL0     C13601   8.818   5.271   4.512 -0.3011 -0.4332 -0.2134
  824MOL0     C13602   8.917   5.212   4.405  0.2822 -0.1524 -0.9485
  824MOL0     C13603   8.808   5.251   4.654  0.9409  0.1347 -0.2114
  824MOL0     C13604   8.892   5.150   4.718  0.0832 -0.7604  0.2660
  824MOL0     O13605   8.913   5.185   4.842  0.0473  0.0536  0.3173
  824MOL0     C13606   9.004   5.102   4.911  0.1721  0.9505  0.3059
  824MOL0     C13607   8.960   5.061   5.034 -0.6929 -0.1265  0.1619
  824MOL0     C13608   9.043   4.992   5.127  0.7846  0.0463  0.2251
  824MOL0     C13609   9.178   4.954   5.086  1.0897  0.1606 -0.2379
  824MOL0     O13610   9.262   4.883   5.163  0.4907 -0.0375 -0.1815
  824MOL0     C13611   9.217   4.832   5.287  0.0180  0.3646  0.5456
  824MOL0     C13612   9.329   4.757   5.352  0.5627 -0.8843 -0.5728
  824MOL0     C13613   9.310   4.723   5.501 -0.2989 -0.3754  0.3039
  824MOL0     C13614   9.435   4.707   5.579  0.9310  0.0023 -0.0039
  824MOL0     C13615   9.408   4.616   5.695 -0.7044  0.2136  0.7313
  824MOL0     C13616   9.347   4.696   5.815 -0.0659  0.4348  0.0354
  824MOL0     C13617   9.291   4.584   5.911  0.1258 -0.0559 -0.3838
  824MOL0     C13618   9.201   4.650   6.017 -0.7978  0.7947  1.0461
  824MOL0    Cl13619   9.115   4.518   6.094  0.0661 -0.5262  0.3014
  824MOL0     C13620   9.219   4.984   4.955  1.3158 -0.4445  0.2055
  824MOL0     C13621   9.134   5.060   4.863 -0.1877  0.3302 -0.8833
  824MOL0     O13622   8.949   5.051   4.658  0.1822  0.7586  0.4790
  824MOL0     C13623   8.704   5.319   4.727  0.5807  0.1240  0.4542
  824MOL0     C13624   8.625   5.408   4.653  0.1319 -0.0588  0.7732
  824MOL0     N13625   8.318   5.076   4.142 -0.0757  0.0400 -0.7406
  824MOL0     N13626   8.391   4.974   4.184  0.4472 -0.1370 -0.0014
  824MOL0     C13627   8.316   4.384   5.012  0.0212  1.0209  0.1610
  824MOL0     C13628   8.222   4.280   5.035 -0.5713  0.4337 -0.4266
  824MOL0     C13629   7.826   4.089   5.067  0.2543  0.5837  0.0649
  824MOL0     C13630   7.860   3.985   5.156 -0.1815  0.9336  0.3241
  824MOL0     C13631   7.774   3.879   5.189 -0.0762  0.2264  0.2876
  824MOL0     C13632   7.654   3.871   5.132 -0.6281  0.1519  0.1876
  824MOL0     O13633   7.571   3.764   5.162  0.4590 -0.4924 -0.0670
  824MOL0     C13634   7.454   3.736   5.088  0.0550  0.5554  0.0299
  824MOL0     C13635   7.338   3.819   5.130  0.1764  0.5854 -0.1178
  824MOL0     C13636   7.209   3.758   5.067 -0.3984 -0.9276 -0.0359
  824MOL0     C13637   7.085   3.763   5.160 -0.5579  0.1477  0.8736
  824MOL0     C13638   7.108   3.687   5.282  0.3232  0.4771 -0.1266
  824MOL0     C13639   7.125   3.639   5.391  0.3016  0.2287  0.0056
  824MOL0     C13640   7.619   3.958   5.025 -0.1167  1.5673  0.5005
  824MOL0     C13641   7.701   4.069   4.991 -0.7248 -0.1557 -1.0834
  824MOL0     C13642   7.672   4.165   4.886  1.0745  1.0101  0.3843
  824MOL0     H13643   8.116   4.408   5.331  0.1411  4.2613 -1.0065
  824MOL0     H13644   8.297   4.563   5.291  1.6979  0.2047  0.3107
  824MOL0     H13645   8.463   4.563   4.847  0.8172 -1.4157  0.2385
  824MOL0     H13646   8.607   4.621   4.929  0.6182  2.2493  0.7928
  824MOL0     H13647   8.354   4.752   4.859  1.3577 -5.3907 -1.8796
  824MOL0     H13648   8.462   4.826   4.987 -0.2407 -1.5603  1.9317
  824MOL0     H13649   8.635   4.877   4.814  0.1193  1.6206 -4.1519
  824MOL0     H13650   8.577   4.739   4.728  0.0293  0.4029 -1.5082
  824MOL0     H13651   8.393   4.839   4.646 -0.1323  0.0252 -0.4964
  824MOL0     H13652   8.411   4.984   4.741 -1.4699 -0.2569 -1.9856
  824MOL0     H13653   8.652   4.997   4.623 -0.8147 -1.5136  1.6359
  824MOL0     H13654   8.493   5.063   4.553  0.5525  0.1623 -3.2507
  824MOL0     H13655   8.611   4.792   4.489 -3.2495 -1.0377 -0.7946
  824MOL0     H13656   8.473   4.865   4.401  1.6404 -0.3238 -2.0193
  824MOL0     H13657   8.773   4.905   4.385  0.4133  1.7070 -1.8437
  824MOL0     H13658   8.678   5.055   4.380 -0.5268  0.6262  1.1642
  824MOL0     H13659   8.726   4.958   4.152  1.9232 -0.0139  2.5534
  824MOL0     H13660   8.601   4.829   4.183 -0.9478  0.3632  1.8957
  824MOL0     H13661   8.617   5.206   4.175  0.3545 -2.7247  1.8900
  824MOL0     H13662   8.242   5.331   4.074 -0.7922 -0.1825  2.8128
  824MOL0     H13663   8.410   5.372   4.043  0.8984 -1.3961  0.6704
  824MOL0     H13664   8.290   5.502   4.227  0.0649 -0.0408  2.9370
  824MOL0     H13665   8.268   5.347   4.320 -0.0008  2.0669  2.3863
  824MOL0     H13666   8.519   5.350   4.331  2.8272  1.2042  1.7069
  824MOL0     H13667   8.518   5.478   4.224  2.5412 -0.6057  1.8966
  824MOL0     H13668   8.398   5.618   4.415  1.5733  1.1464  0.2428
  824MOL0     H13669   8.399   5.461   4.508 -0.9468 -0.6772 -1.4827
  824MOL0     H13670   8.738   5.392   4.346  1.2950 -2.1262 -1.3564
  824MOL0     H13671   9.012   5.197   4.458  0.2580 -1.7477 -1.3151
  824MOL0     H13672   8.928   5.289   4.329  0.7123 -0.1186 -0.8539
  824MOL0     H13673   8.898   5.113   4.361 -0.1694 -1.7163  2.3801
  824MOL0     H13674   8.864   5.091   5.077 -0.6517 -1.3745  1.1961
  824MOL0     H13675   9.007   4.973   5.228  1.7154 -0.8936  0.4058
  824MOL0     H13676   9.189   4.917   5.350  1.6191  0.5767  1.0179
  824MOL0     H13677   9.130   4.767   5.286  0.9490 -0.9366 -0.9976
  824MOL0     H13678   9.345   4.668   5.291 -0.7589 -1.0134 -0.7586
  824MOL0     H13679   9.421   4.817   5.349 -0.8502  1.7477  2.6288
  824MOL0     H13680   9.256   4.628   5.498 -0.8474 -0.0518 -1.4988
  824MOL0     H13681   9.251   4.802   5.549  0.2574  1.2782 -1.5971
  824MOL0     H13682   9.471   4.804   5.617  0.6388 -0.3558  1.2229
  824MOL0     H13683   9.514   4.663   5.517  2.0086  0.3421  1.0778
  824MOL0     H13684   9.350   4.526   5.675 -0.6655 -0.1467  2.1139
  824MOL0     H13685   9.503   4.576   5.732 -1.5200  0.7871  3.7778
  824MOL0     H13686   9.267   4.758   5.773 -0.0857 -0.9630 -2.1248
  824MOL0     H13687   9.422   4.760   5.862 -0.5476  2.6780 -2.0806
  824MOL0     H13688   9.374   4.529   5.956  2.1111  1.7701 -1.6551
  824MOL0     H13689   9.236   4.512   5.848  0.0580 -1.7415  1.5036
  824MOL0     H13690   9.118   4.710   5.979 -0.8819  0.3486  0.5271
  824MOL0     H13691   9.275   4.710   6.071  2.5434 -0.2294 -1.9593
  824MOL0     H13692   9.320   4.953   4.932  1.2114 -1.5928  1.1673
  824MOL0     H13693   9.167   5.063   4.760 -1.6963 -1.3720 -1.4604
  824MOL0     H13694   8.678   5.284   4.827 -0.9477  1.0337  0.4041
  824MOL0     H13695   8.535   5.450   4.695  1.5776  2.8675  1.2297
  824MOL0     H13696   8.369   4.364   4.919 -0.4490  1.2966 -0.1684
  824MOL0     H13697   8.188   4.210   4.959 -1.0218 -0.3907  0.4977
  824MOL0     H13698   7.947   4.009   5.216  0.9292 -1.1947 -0.3494
  824MOL0     H13699   7.790   3.802   5.265 -2.4762  0.5334  1.2181
  824MOL0     H13700   7.465   3.746   4.979 -2.2275 -1.2319 -0.4524
  824MOL0     H13701   7.430   3.630   5.095  1.6627  0.2769  2.5400
  824MOL0     H13702   7.348   3.920   5.089 -0.6435  0.4186 -0.7584
  824MOL0     H13703   7.331   3.825   5.239 -2.9962  1.4043 -0.2551
  824MOL0     H13704   7.181   3.804   4.972 -1.2262 -1.1478  0.0956
  824MOL0     H13705   7.227   3.655   5.036  0.6665 -0.2620 -1.8416
  824MOL0     H13706   7.001   3.733   5.096  0.4743  1.2261 -1.0900
  824MOL0     H13707   7.060   3.864   5.194  0.2282  0.2457  1.1768
  824MOL0     H13708   7.138   3.579   5.479  1.2498 -0.9119 -0.8729
  824MOL0     H13709   7.533   3.958   4.959 -0.0110 -0.4188  0.2902
  824MOL0     H13710   7.655   4.263   4.930 -0.2533  0.7406  0.5273
  824MOL0     H13711   7.757   4.167   4.817  1.5393  2.6789  0.9679
  824MOL0     H13712   7.584   4.128   4.832  1.3074  1.0010  0.0051
  825MOL0     O13713   6.665   2.800   4.646 -0.4344  0.1033  0.1741
  825MOL0     C13714   6.547   2.780   4.626  1.6450  0.4276  1.0723
  825MOL0     O13715   6.486   2.681   4.543 -0.3879 -0.2406 -0.1176
  825MOL0     C13716   6.549   2.565   4.503  0.3202  0.2878 -0.0070
  825MOL0     C13717   6.472   2.501   4.411 -1.2903 -0.2410 -0.6650
  825MOL0     C13718   6.518   2.388   4.360  0.2572 -0.2471  0.4368
  825MOL0     C13719   6.638   2.319   4.407  0.2864 -0.3851  0.0619
  825MOL0     O13720   6.667   2.190   4.366  0.1654 -0.7086 -0.0960
  825MOL0     C13721   6.734   2.177   4.238  0.0670 -0.2713  0.2259
  825MOL0     C13722   6.743   2.034   4.196 -0.4066  0.0963 -0.3341
  825MOL0     C13723   6.608   1.972   4.183  0.1241 -0.8264  0.0937
  825MOL0     C13724   6.530   2.019   4.066 -0.1800  0.0102 -0.2701
  825MOL0     C13725   6.412   1.926   4.031  0.2875 -0.5430  0.0954
  825MOL0     C13726   6.311   1.897   4.137 -0.9399  0.7535 -0.6852
  825MOL0     C13727   6.213   1.799   4.066  1.1785 -0.9378 -1.3098
  825MOL0     C13728   6.132   1.723   4.178 -0.2397  0.8585  0.2346
  825MOL0     N13729   6.035   1.630   4.125 -0.2335 -1.0223 -0.0999
  825MOL0     C13730   6.040   1.491   4.109 -1.1108  0.6698  0.0094
  825MOL0     C13731   5.911   1.466   4.062 -0.6029 -0.2398  0.1998
  825MOL0     C13732   5.847   1.331   4.056 -0.2538 -0.6311  0.1465
  825MOL0     C13733   5.884   1.251   3.931  0.2244  0.0031 -0.3053
  825MOL0     C13734   5.868   1.332   3.804  0.5067 -0.0751  0.7933
  825MOL0     C13735   5.899   1.262   3.673  0.1673 -0.3414 -0.0589
  825MOL0     O13736   5.794   1.163   3.660  0.2684  0.2307 -0.0041
  825MOL0     C13737   5.751   1.138   3.525 -0.1531  0.2010 -0.0651
  825MOL0     C13738   5.824   1.176   3.413 -0.5810 -0.7625 -0.6399
  825MOL0     C13739   5.791   1.142   3.285 -0.4587  0.6801  0.5939
  825MOL0     C13740   5.878   1.188   3.180 -0.3241  0.3227  0.5895
  825MOL0     C13741   5.673   1.065   3.267  0.3183 -0.2992  0.7931
  825MOL0     C13742   5.637   0.991   3.145 -0.3036  0.1304 -1.1210
  825MOL0     O13743   5.508   0.957   3.136  0.4791  0.1309  0.1101
  825MOL0     C13744   5.487   0.880   3.019  0.4143  0.9076  0.0920
  825MOL0     C13745   5.428   0.944   2.903  0.2977  1.3356 -0.9167
  825MOL0     C13746   5.400   0.867   2.788  0.2928 -0.0165  0.5547
  825MOL0     C13747   5.440   0.733   2.771  0.2316  0.4099  0.0888
  825MOL0     O13748   5.408   0.657   2.656 -0.1241 -0.6590 -0.3575
  825MOL0     C13749   5.427   0.725   2.538  0.2877 -0.4290  1.0809
  825MOL0     C13750   5.559   0.664   2.483 -1.0298  0.3790 -0.7315
  825MOL0     C13751   5.585   0.699   2.335 -0.1261  0.6227 -0.8978
  825MOL0     C13752   5.719   0.638   2.302 -0.5341  1.1060 -0.1898
  825MOL0     C13753   5.706   0.493   2.247 -0.0603  0.5973  0.6071
  825MOL0     C13754   5.641   0.466   2.108  0.1529  0.0726  0.1729
  825MOL0     C13755   5.707   0.534   1.986 -1.0660  0.3550 -0.4491
  825MOL0     C13756   5.660   0.476   1.854  0.1760  0.2729  0.0273
  825MOL0    Cl13757   5.753   0.340   1.803 -0.0914 -0.2733 -0.6076
  825MOL0     C13758   5.514   0.676   2.880 -0.1473  1.3066  0.7376
  825MOL0     C13759   5.529   0.745   2.999  0.7872  0.2883 -0.4646
  825MOL0     O13760   5.720   0.961   3.067 -0.0115 -0.5434 -0.1230
  825MOL0     C13761   5.596   1.034   3.381 -0.4968  1.0074  0.0052
  825MOL0     C13762   5.635   1.065   3.508 -0.7580  0.1075 -1.7086
  825MOL0     N13763   5.847   1.587   4.025 -0.0897 -0.4534 -0.6427
  825MOL0     N13764   5.925   1.678   4.058  0.7737 -0.5518 -0.4013
  825MOL0     C13765   6.711   2.380   4.506 -0.1528  0.4716 -0.4055
  825MOL0     C13766   6.672   2.508   4.548  0.5593 -0.2338 -0.0454
  825MOL0     C13767   6.451   2.883   4.682  0.2517  0.1166  0.9274
  825MOL0     C13768   6.349   2.843   4.777  0.5681  0.5596  0.4170
  825MOL0     C13769   6.256   2.930   4.838 -0.3138 -0.3995 -0.5298
  825MOL0     C13770   6.275   3.065   4.817  0.5909 -0.3699  0.2516
  825MOL0     O13771   6.203   3.164   4.885 -0.5521  0.5218 -0.7135
  825MOL0     C13772   6.081   3.186   4.820 -0.1544  0.4432 -0.6556
  825MOL0     C13773   6.006   3.316   4.878 -1.0501  0.7190 -0.4635
  825MOL0     C13774   5.862   3.314   4.835 -0.8700  0.4703 -0.2244
  825MOL0     C13775   5.769   3.416   4.900 -0.1383  1.0625  0.8779
  825MOL0     C13776   5.738   3.394   5.036  0.4275 -0.3150  0.5844
  825MOL0     C13777   5.714   3.371   5.153  0.4224 -0.5569 -0.1070
  825MOL0     C13778   6.377   3.107   4.734 -0.4891 -0.4496 -0.2403
  825MOL0     C13779   6.472   3.027   4.668  0.2786 -1.0505  0.5657
  825MOL0     C13780   6.570   3.085   4.580  0.2877  0.4944  0.2634
  825MOL0     H13781   6.374   2.541   4.387 -1.5606  0.0002  0.7268
  825MOL0     H13782   6.455   2.346   4.283 -0.2672  1.2901 -0.0118
  825MOL0     H13783   6.828   2.233   4.242  0.8913 -1.5981  4.4146
  825MOL0     H13784   6.672   2.233   4.167 -1.7216 -1.6234  0.6283
  825MOL0     H13785   6.791   2.013   4.101  1.7189  0.5545  0.5936
  825MOL0     H13786   6.799   1.983   4.274  1.4138 -0.6138 -2.0427
  825MOL0     H13787   6.627   1.864   4.177  0.8818 -0.6310 -1.6605
  825MOL0     H13788   6.552   1.979   4.277 -0.6031 -1.1322 -0.3173
  825MOL0     H13789   6.494   2.119   4.093  1.7463  0.4786  0.7305
  825MOL0     H13790   6.593   2.043   3.980  0.1351  2.0562  0.4931
  825MOL0     H13791   6.452   1.826   4.015  0.6826 -0.2678 -0.6522
  825MOL0     H13792   6.369   1.954   3.935  2.7649  0.7449 -0.7254
  825MOL0     H13793   6.356   1.844   4.222  0.8677  4.3613  0.8271
  825MOL0     H13794   6.272   1.993   4.171 -3.1476 -1.2435  3.1548
  825MOL0     H13795   6.252   1.721   4.001 -1.8051 -3.7395  0.0031
  825MOL0     H13796   6.144   1.869   4.018  0.1142 -1.3317 -0.3760
  825MOL0     H13797   6.210   1.677   4.239  2.1244  3.2224 -0.7994
  825MOL0     H13798   6.082   1.796   4.242  0.9972  0.5291  1.6334
  825MOL0     H13799   6.116   1.421   4.142 -0.0763  0.6327 -2.2688
  825MOL0     H13800   5.742   1.357   4.040 -0.3872 -2.7340 -3.7574
  825MOL0     H13801   5.856   1.262   4.140 -2.7703 -0.6569  0.4728
  825MOL0     H13802   5.981   1.202   3.945 -0.9426 -2.8163 -1.3035
  825MOL0     H13803   5.815   1.166   3.924 -1.5486  1.2076  1.2597
  825MOL0     H13804   5.764   1.364   3.794  0.7014  1.4638  2.9088
  825MOL0     H13805   5.923   1.426   3.807  1.1538 -0.3799 -0.7294
  825MOL0     H13806   5.921   1.347   3.608 -1.1621  1.6213  1.8984
  825MOL0     H13807   5.985   1.196   3.687  0.3099 -0.3048 -0.7248
  825MOL0     H13808   5.920   1.226   3.425 -0.9273 -0.1322 -0.4741
  825MOL0     H13809   5.937   1.104   3.143 -0.4522  0.0360  1.0240
  825MOL0     H13810   5.950   1.263   3.215 -0.5348  1.2930 -0.9784
  825MOL0     H13811   5.828   1.243   3.099 -1.7953  1.7308  2.3497
  825MOL0     H13812   5.416   1.052   2.900  0.0342  1.4523  1.6360
  825MOL0     H13813   5.369   0.926   2.703  0.5078  1.5096  1.4988
  825MOL0     H13814   5.342   0.691   2.477 -0.9118  1.3357  1.6861
  825MOL0     H13815   5.412   0.833   2.536 -2.1056 -0.5910 -3.7282
  825MOL0     H13816   5.647   0.707   2.531 -2.1853 -0.9694  2.9441
  825MOL0     H13817   5.546   0.557   2.501 -2.8842  0.8525  1.1000
  825MOL0     H13818   5.601   0.807   2.325  3.2371  0.3236 -0.1696
  825MOL0     H13819   5.502   0.653   2.281 -1.1684 -0.8237  1.7838
  825MOL0     H13820   5.772   0.624   2.397 -1.0581  2.2310  0.2814
  825MOL0     H13821   5.765   0.702   2.227  0.5853 -0.6366 -1.0567
  825MOL0     H13822   5.807   0.452   2.249 -0.6468 -1.1083 -1.1158
  825MOL0     H13823   5.650   0.439   2.324 -2.2531  2.2088  0.2278
  825MOL0     H13824   5.539   0.505   2.112 -1.3061 -3.2606 -0.5271
  825MOL0     H13825   5.642   0.358   2.088  0.0934  0.1099 -0.0361
  825MOL0     H13826   5.816   0.538   1.988 -1.0079  0.5687 -2.5457
  825MOL0     H13827   5.679   0.640   1.991  0.0196  0.6679  4.5559
  825MOL0     H13828   5.679   0.550   1.776  0.2706 -1.5465 -1.7436
  825MOL0     H13829   5.553   0.457   1.866 -0.0559  1.8754  0.8490
  825MOL0     H13830   5.548   0.573   2.877 -1.3959  0.8723 -2.6640
  825MOL0     H13831   5.573   0.703   3.089 -1.4964  0.5279  0.8287
  825MOL0     H13832   5.516   0.961   3.371  0.2985  0.4837 -5.1640
  825MOL0     H13833   5.579   1.040   3.597 -0.3490  1.6215 -0.9885
  825MOL0     H13834   6.805   2.347   4.549 -0.0168  2.2358  0.7681
  825MOL0     H13835   6.748   2.559   4.607 -0.0336 -1.8260  2.2134
  825MOL0     H13836   6.347   2.736   4.794  0.0542  0.5862  0.5361
  825MOL0     H13837   6.185   2.878   4.903 -0.6409 -2.7612 -2.5998
  825MOL0     H13838   6.106   3.194   4.714  3.0687 -1.6580 -0.1977
  825MOL0     H13839   6.018   3.098   4.837  3.4484 -1.9203  2.1936
  825MOL0     H13840   6.058   3.395   4.824 -1.3190  1.9830  1.0439
  825MOL0     H13841   6.012   3.326   4.987  0.5173  1.1529 -0.5667
  825MOL0     H13842   5.855   3.318   4.726 -0.5255 -0.5002 -0.2888
  825MOL0     H13843   5.825   3.215   4.864  1.1576 -0.7007 -1.4728
  825MOL0     H13844   5.675   3.403   4.846  0.0702 -0.4201  0.8499
  825MOL0     H13845   5.809   3.518   4.889  1.0850  0.5849  0.7075
  825MOL0     H13846   5.692   3.351   5.256  0.2878 -1.9605 -0.3945
  825MOL0     H13847   6.384   3.213   4.712  2.8413 -0.8754 -1.8734
  825MOL0     H13848   6.668   3.080   4.629 -0.0343  0.1390  0.8778
  825MOL0     H13849   6.576   3.024   4.490 -1.0743 -1.8564  1.6647
  825MOL0     H13850   6.538   3.187   4.557  1.6315  0.6610 -0.9844
  826MOL0     O13851   1.002   1.990   9.884 -0.1832  0.4478  0.0604
  826MOL0     C13852   0.877   1.982   9.873  0.3053 -0.5841  0.4073
  826MOL0     O13853   0.807   1.935   9.761 -0.9615 -0.0936  1.4282
  826MOL0     C13854   0.852   1.840   9.669 -0.4033  0.6739 -0.0728
  826MOL0     C13855   0.933   1.733   9.714 -0.1546 -1.0346 -0.4554
  826MOL0     C13856   0.959   1.619   9.642 -0.1655 -0.1823  0.5342
  826MOL0     C13857   0.917   1.617   9.510  0.0106 -0.4289  0.1691
  826MOL0     O13858   0.929   1.514   9.419  0.7323  0.4134 -0.3647
  826MOL0     C13859   1.031   1.420   9.446  0.3766  0.9247 -0.0235
  826MOL0     C13860   1.169   1.479   9.425 -0.0825  0.3780 -0.2453
  826MOL0     C13861   1.287   1.403   9.493  0.3347  0.1251  0.2159
  826MOL0     C13862   1.427   1.475   9.463  0.4383  0.2693 -0.0929
  826MOL0     C13863   1.547   1.391   9.509  0.0916  0.2970 -0.3265
  826MOL0     C13864   1.604   1.283   9.408  0.0485 -0.6329 -0.0789
  826MOL0     C13865   1.656   1.168   9.480 -1.2684  0.3645 -0.8088
  826MOL0     C13866   1.687   1.045   9.402  0.1581  0.6852  0.2123
  826MOL0     N13867   1.732   0.931   9.485 -1.0867 -0.1449  0.5700
  826MOL0     C13868   1.663   0.830   9.548 -0.4439 -0.9712 -1.4363
  826MOL0     C13869   1.756   0.734   9.578  0.5596 -0.2729 -0.6918
  826MOL0     C13870   1.714   0.585   9.613  0.3071  0.4793  0.1840
  826MOL0     C13871   1.801   0.511   9.719  0.2082 -0.1721  0.7531
  826MOL0     C13872   1.781   0.575   9.855  0.4012  0.5809 -0.8187
  826MOL0     C13873   1.634   0.578   9.922 -1.9924  0.8776 -0.1331
  826MOL0     O13874   1.567   0.444   9.930  0.8067 -0.2077 -1.1625
  826MOL0     C13875   1.616   0.354  10.026 -0.6954 -0.3380 -0.3551
  826MOL0     C13876   1.592   0.217  10.006  0.2288  0.6039 -0.2966
  826MOL0     C13877   1.611   0.127  10.109 -0.5087 -0.8751  1.1445
  826MOL0     C13878   1.569  -0.017  10.091  0.6314  0.3855 -1.0287
  826MOL0     C13879   1.690   0.172  10.217  0.2271  0.1872 -0.1237
  826MOL0     C13880   1.747   0.074  10.318 -0.6022 -0.8675  0.4810
  826MOL0     O13881   1.782   0.142  10.429  0.9979  0.4096 -0.1286
  826MOL0     C13882   1.827   0.074  10.538  0.1719 -0.1438  0.3595
  826MOL0     C13883   1.960   0.091  10.570  0.2869  1.2818  0.4059
  826MOL0     C13884   2.014   0.018  10.679 -0.2472 -0.0442  0.2896
  826MOL0     C13885   1.932  -0.081  10.747  0.6691  0.5969  1.0293
  826MOL0     O13886   1.990  -0.156  10.846  0.2047 -0.0775  0.0226
  826MOL0     C13887   1.938  -0.291  10.862  0.5357  0.2823  1.0480
  826MOL0     C13888   2.050  -0.365  10.937 -1.3276  0.8267 -0.1866
  826MOL0     C13889   2.075  -0.297  11.069  0.5147 -0.1459 -0.4483
  826MOL0     C13890   2.111  -0.406  11.178 -0.0557 -0.3865 -0.5812
  826MOL0     C13891   2.176  -0.345  11.300  0.6554 -0.8529  0.3356
  826MOL0     C13892   2.074  -0.265  11.379 -0.4574  0.0275 -0.0494
  826MOL0     C13893   2.145  -0.185  11.484  0.0881  0.0448 -0.1164
  826MOL0     C13894   2.089  -0.224  11.620 -0.7672  0.3082  0.6314
  826MOL0    Cl13895   2.138  -0.389  11.665 -0.4630 -0.1264  0.2661
  826MOL0     C13896   1.797  -0.086  10.712 -0.1220 -0.4470  0.3933
  826MOL0     C13897   1.743  -0.008  10.611 -0.6976  0.2631  0.6060
  826MOL0     O13898   1.776  -0.045  10.287 -0.0777 -0.5082  0.4247
  826MOL0     C13899   1.732   0.306  10.221 -0.0466  0.1005 -0.5693
  826MOL0     C13900   1.685   0.397  10.138  0.2637 -0.7290  0.9340
  826MOL0     N13901   1.885   0.782   9.551  0.3965 -0.7333 -0.3256
  826MOL0     N13902   1.866   0.897   9.482  0.3075 -0.0248  0.0817
  826MOL0     C13903   0.846   1.724   9.455  0.2635  0.1813 -0.5511
  826MOL0     C13904   0.797   1.829   9.543 -0.2196  0.2207 -0.5808
  826MOL0     C13905   0.792   2.046   9.971 -0.7018  0.6550  0.8351
  826MOL0     C13906   0.685   2.125   9.925 -1.0695 -0.0905  1.0143
  826MOL0     C13907   0.606   2.193  10.016 -0.4924  0.1463 -0.2037
  826MOL0     C13908   0.614   2.178  10.155  0.0331 -0.5151 -0.2875
  826MOL0     O13909   0.526   2.239  10.244 -0.1723  0.7949 -0.6481
  826MOL0     C13910   0.482   2.371  10.209 -1.3804  0.5476 -0.2176
  826MOL0     C13911   0.447   2.431  10.341 -0.1542  0.5117 -0.1467
  826MOL0     C13912   0.416   2.575  10.318 -0.2774 -0.0374  0.3711
  826MOL0     C13913   0.322   2.648  10.418 -0.3196 -0.0964 -1.3310
  826MOL0     C13914   0.268   2.774  10.373 -1.3159 -0.1999 -0.3980
  826MOL0     C13915   0.204   2.872  10.340  0.4447 -0.3418 -0.4442
  826MOL0     C13916   0.725   2.101  10.196 -0.0251 -0.6708 -0.8695
  826MOL0     C13917   0.812   2.034  10.110  0.1129 -1.2738 -0.6138
  826MOL0     C13918   0.917   1.951  10.171  0.4548 -0.4418  0.1717
  826MOL0     H13919   0.956   1.740   9.820  0.1424  3.0933 -0.6226
  826MOL0     H13920   1.012   1.536   9.687 -1.0945 -0.6169  0.8690
  826MOL0     H13921   1.020   1.341   9.371  2.7954  0.2694  0.2466
  826MOL0     H13922   1.005   1.368   9.539 -3.3860  1.4742 -0.6065
  826MOL0     H13923   1.183   1.493   9.317  0.5705  0.7857 -0.1192
  826MOL0     H13924   1.179   1.579   9.469  1.3749 -0.5064  1.5957
  826MOL0     H13925   1.260   1.403   9.599  0.3575 -2.3663  0.2980
  826MOL0     H13926   1.281   1.297   9.466 -3.5073  0.1546  0.3982
  826MOL0     H13927   1.447   1.492   9.357 -0.5093  0.3361 -0.2754
  826MOL0     H13928   1.426   1.565   9.525 -3.7054  0.4155 -0.0670
  826MOL0     H13929   1.528   1.349   9.608  0.2374 -0.6963 -0.7057
  826MOL0     H13930   1.635   1.454   9.523  0.0914 -0.1632  2.0749
  826MOL0     H13931   1.534   1.243   9.334  0.8859  0.2169 -1.3551
  826MOL0     H13932   1.675   1.333   9.342 -3.7934  3.7209 -1.4803
  826MOL0     H13933   1.587   1.132   9.557  0.5188  1.4642  1.4445
  826MOL0     H13934   1.749   1.189   9.534 -0.9872 -0.6414 -0.8795
  826MOL0     H13935   1.601   1.027   9.338  0.9087  1.9394 -1.2119
  826MOL0     H13936   1.766   1.069   9.330  2.2886 -2.1643  1.4170
  826MOL0     H13937   1.556   0.818   9.552 -0.5091 -0.1440  0.1831
  826MOL0     H13938   1.703   0.527   9.520 -1.1481  0.9309  0.0454
  826MOL0     H13939   1.613   0.591   9.655 -0.3159  0.3122 -1.2282
  826MOL0     H13940   1.780   0.404   9.731 -2.2309  0.3416  1.6585
  826MOL0     H13941   1.906   0.512   9.686  0.3459 -4.0046  0.5865
  826MOL0     H13942   1.843   0.516   9.925 -1.1997  1.1551  1.1753
  826MOL0     H13943   1.831   0.672   9.853  1.5581  0.0186 -0.3086
  826MOL0     H13944   1.649   0.624  10.019 -1.7213  0.0078  0.2439
  826MOL0     H13945   1.571   0.649   9.867 -0.7676  0.8762 -1.6009
  826MOL0     H13946   1.568   0.198   9.901 -0.0933 -0.1626 -0.0897
  826MOL0     H13947   1.654  -0.076  10.056  1.5941  0.1693  1.5095
  826MOL0     H13948   1.491  -0.024  10.014 -1.3467  1.6393  0.7391
  826MOL0     H13949   1.535  -0.048  10.190  0.4858  1.5601 -0.6916
  826MOL0     H13950   2.016   0.156  10.504 -0.4563  2.4415  0.8724
  826MOL0     H13951   2.115   0.045  10.707  0.1946 -1.0521 -0.2919
  826MOL0     H13952   1.836  -0.306  10.901 -0.5848 -1.1373 -2.0861
  826MOL0     H13953   1.927  -0.334  10.762 -0.3306  0.2190  1.1620
  826MOL0     H13954   2.013  -0.465  10.965  0.0093  0.6789  1.1888
  826MOL0     H13955   2.136  -0.372  10.870 -1.4680  1.5064 -0.4389
  826MOL0     H13956   1.987  -0.243  11.104 -0.0291 -3.0088  3.3329
  826MOL0     H13957   2.158  -0.227  11.067 -2.7197  4.1478  0.7743
  826MOL0     H13958   2.179  -0.479  11.134  1.5882 -1.1292  2.8422
  826MOL0     H13959   2.023  -0.451  11.226 -0.8375  0.2347 -1.3994
  826MOL0     H13960   2.218  -0.430  11.355  2.5141 -2.2320 -2.9055
  826MOL0     H13961   2.258  -0.279  11.267  1.2763 -1.0060  1.5203
  826MOL0     H13962   1.992  -0.327  11.416 -0.2032 -1.1545 -1.3851
  826MOL0     H13963   2.039  -0.186  11.311  5.2676  1.3047 -2.0904
  826MOL0     H13964   2.102  -0.086  11.468 -2.5435 -1.3776 -2.7787
  826MOL0     H13965   2.254  -0.192  11.482  0.0205 -1.8247  0.5350
  826MOL0     H13966   1.980  -0.212  11.624 -0.8176  0.7258 -1.1140
  826MOL0     H13967   2.142  -0.161  11.692  1.6234 -0.0472 -0.7124
  826MOL0     H13968   1.731  -0.140  10.781  0.5577  0.4331  1.7827
  826MOL0     H13969   1.638  -0.020  10.586 -0.7610 -0.1648  1.0590
  826MOL0     H13970   1.805   0.334  10.296  0.3220 -2.6608  0.2090
  826MOL0     H13971   1.716   0.498  10.159 -0.4554 -1.0706  4.2980
  826MOL0     H13972   0.792   1.698   9.364 -2.5136 -0.6048  1.2005
  826MOL0     H13973   0.722   1.900   9.508  3.1722  4.3075 -0.2526
  826MOL0     H13974   0.667   2.129   9.818 -1.3344  1.8386  1.0988
  826MOL0     H13975   0.525   2.256   9.981  0.3308  0.2831 -1.9911
  826MOL0     H13976   0.557   2.436  10.162  1.1887 -1.5670  0.6715
  826MOL0     H13977   0.393   2.363  10.146 -0.4306 -1.0343 -1.4587
  826MOL0     H13978   0.533   2.424  10.409 -3.7352 -0.6791  4.8834
  826MOL0     H13979   0.360   2.384  10.388 -1.9169  3.0017 -0.7118
  826MOL0     H13980   0.513   2.625  10.317 -0.1753 -0.2422 -0.3216
  826MOL0     H13981   0.356   2.577  10.226 -2.8343  0.4868  1.9417
  826MOL0     H13982   0.382   2.668  10.507 -0.7365  3.6586 -1.7526
  826MOL0     H13983   0.236   2.586  10.442  0.3687 -0.7689 -0.5179
  826MOL0     H13984   0.157   2.968  10.328  0.8139 -0.1052 -0.0222
  826MOL0     H13985   0.730   2.093  10.304 -1.9516  0.1483 -0.6715
  826MOL0     H13986   0.947   1.878  10.095 -3.6300 -0.7713 -1.3838
  826MOL0     H13987   1.004   2.007  10.207  1.2565 -2.7192  1.9659
  826MOL0     H13988   0.883   1.889  10.255  1.5314  0.5406  1.3656
  827MOL0     O13989   7.502   7.098   7.446 -0.3856 -0.2013  0.2130
  827MOL0     C13990   7.497   7.219   7.475 -0.0236  0.1501 -0.4031
  827MOL0     O13991   7.412   7.310   7.419 -0.1239 -0.3049  0.3375
  827MOL0     C13992   7.331   7.251   7.326  1.0563 -1.2462  0.8327
  827MOL0     C13993   7.216   7.177   7.371  0.5136  0.2359  0.5781
  827MOL0     C13994   7.140   7.114   7.281 -0.6891  1.5320  0.7260
  827MOL0     C13995   7.169   7.112   7.144 -0.4330  0.0322  0.0808
  827MOL0     O13996   7.105   7.030   7.059 -0.1766  0.4026  0.1996
  827MOL0     C13997   7.024   6.920   7.111  0.3599 -0.5282 -0.2873
  827MOL0     C13998   6.988   6.824   7.010  0.1135  0.2320  0.1534
  827MOL0     C13999   6.871   6.870   6.920 -0.5252 -0.6215  0.3407
  827MOL0     C14000   6.846   6.806   6.786  0.3187  0.6223 -0.1398
  827MOL0     C14001   6.797   6.664   6.801  0.1533  0.0329  0.5471
  827MOL0     C14002   6.730   6.609   6.665 -0.3049 -0.1800 -0.2156
  827MOL0     C14003   6.575   6.629   6.661  0.7160  0.3138 -0.0499
  827MOL0     C14004   6.534   6.629   6.512 -0.2813 -0.5039  0.2797
  827MOL0     N14005   6.387   6.624   6.503 -0.5348  0.0034  0.1367
  827MOL0     C14006   6.314   6.521   6.543  1.0442  0.9424  0.6622
  827MOL0     C14007   6.186   6.547   6.506  0.2412 -0.9037 -0.1737
  827MOL0     C14008   6.078   6.449   6.515  0.0703  0.8783  0.1690
  827MOL0     C14009   6.028   6.410   6.382 -0.3902 -0.1194  0.3970
  827MOL0     C14010   5.914   6.310   6.391  0.5530  0.3716 -0.0716
  827MOL0     C14011   5.974   6.170   6.412 -0.4902  0.3322 -0.1254
  827MOL0     O14012   5.868   6.074   6.426 -0.1233  0.5868 -0.9170
  827MOL0     C14013   5.887   5.949   6.393 -0.5398  0.1233 -0.6376
  827MOL0     C14014   6.008   5.876   6.409 -0.4676  0.4987  0.7425
  827MOL0     C14015   6.015   5.743   6.369  0.6529  0.4237 -0.3462
  827MOL0     C14016   6.151   5.681   6.396  0.6217 -0.8382  0.1040
  827MOL0     C14017   5.900   5.683   6.302  0.2216 -0.1764 -0.4816
  827MOL0     C14018   5.909   5.542   6.252  0.9530  0.5557  0.5824
  827MOL0     O14019   5.801   5.502   6.172 -0.1983 -0.4591 -0.4631
  827MOL0     C14020   5.806   5.374   6.124 -0.4538  0.0772  0.0354
  827MOL0     C14021   5.724   5.262   6.177  0.1358  0.0904 -0.4741
  827MOL0     C14022   5.712   5.151   6.101 -0.4579  0.3305  1.1318
  827MOL0     C14023   5.778   5.131   5.981 -0.1186 -0.0320  0.6087
  827MOL0     O14024   5.751   5.017   5.911  0.2583  0.9981  0.0469
  827MOL0     C14025   5.731   5.038   5.773  0.3812 -0.4373  0.5216
  827MOL0     C14026   5.675   4.920   5.695  0.1727  1.2405  0.2244
  827MOL0     C14027   5.541   4.876   5.741 -0.5453 -0.1884 -0.4603
  827MOL0     C14028   5.432   4.918   5.647  0.5153  0.2486  0.3634
  827MOL0     C14029   5.298   4.849   5.690 -1.0499  0.1167 -0.9256
  827MOL0     C14030   5.180   4.884   5.598  0.5822 -0.0718  0.6075
  827MOL0     C14031   5.147   4.786   5.481  0.4797  0.4128  0.0288
  827MOL0     C14032   5.272   4.743   5.387 -0.0663  0.0181  1.0835
  827MOL0    Cl14033   5.322   4.888   5.298  0.1756  0.2459 -0.5169
  827MOL0     C14034   5.852   5.239   5.926  0.4857 -0.0813 -0.0289
  827MOL0     C14035   5.863   5.359   6.002 -0.4766  0.3279  0.9082
  827MOL0     O14036   5.996   5.468   6.287  0.1602  0.5106 -0.1484
  827MOL0     C14037   5.778   5.751   6.289 -0.1761 -0.5164  0.7688
  827MOL0     C14038   5.774   5.883   6.336  0.1360  1.1600  0.0908
  827MOL0     N14039   6.189   6.674   6.448  0.7127  0.2510  0.4260
  827MOL0     N14040   6.313   6.715   6.439 -0.1063 -0.5473 -0.6567
  827MOL0     C14041   7.279   7.191   7.092  0.9472 -0.4516 -0.9775
  827MOL0     C14042   7.357   7.266   7.190 -0.4359 -0.5388  0.8051
  827MOL0     C14043   7.610   7.274   7.559 -0.3371  0.5557  0.5277
  827MOL0     C14044   7.633   7.413   7.561 -0.2949  0.1895 -0.0047
  827MOL0     C14045   7.748   7.462   7.615  0.1065 -0.0872 -1.4616
  827MOL0     C14046   7.843   7.378   7.677  0.4915  0.1146  0.6862
  827MOL0     O14047   7.958   7.417   7.735  0.0090  0.5408  0.3907
  827MOL0     C14048   7.996   7.559   7.724  0.4411 -0.7070  0.3895
  827MOL0     C14049   8.060   7.612   7.586 -0.7007 -0.0997 -0.2215
  827MOL0     C14050   8.152   7.729   7.611  0.2520 -0.4537 -0.4418
  827MOL0     C14051   8.215   7.792   7.496  1.1375  0.0481  0.0231
  827MOL0     C14052   8.308   7.901   7.536  0.3051 -1.2995 -1.1221
  827MOL0     C14053   8.392   7.996   7.560 -0.5651 -0.1816  0.3522
  827MOL0     C14054   7.800   7.252   7.705 -0.7721 -0.0451 -0.5996
  827MOL0     C14055   7.694   7.190   7.642  0.2537  0.5099 -0.1919
  827MOL0     C14056   7.682   7.039   7.646 -1.2367  0.2769  0.6922
  827MOL0     H14057   7.201   7.170   7.478  2.5633 -1.9773  0.7807
  827MOL0     H14058   7.047   7.078   7.323  0.1329  0.2694  1.5232
  827MOL0     H14059   6.928   6.943   7.156 -0.4521 -0.9836 -1.7255
  827MOL0     H14060   7.087   6.858   7.176  1.0665  0.6099  0.1486
  827MOL0     H14061   7.075   6.796   6.951 -1.5355  0.2689 -2.4604
  827MOL0     H14062   6.950   6.731   7.053 -0.8951 -0.2666 -1.6974
  827MOL0     H14063   6.779   6.865   6.979  0.1836 -1.0327  1.4403
  827MOL0     H14064   6.886   6.975   6.896 -0.1484 -0.8086 -0.2663
  827MOL0     H14065   6.776   6.876   6.739  2.6227  1.8662 -1.9187
  827MOL0     H14066   6.946   6.807   6.741  1.3421 -2.6837  1.7370
  827MOL0     H14067   6.722   6.643   6.878 -0.5152  3.4368  0.9541
  827MOL0     H14068   6.881   6.610   6.847 -1.4828 -0.0601  3.6769
  827MOL0     H14069   6.774   6.665   6.582 -0.8889  1.2967  0.4376
  827MOL0     H14070   6.769   6.508   6.650  2.7242  0.9863 -0.7837
  827MOL0     H14071   6.555   6.728   6.702  0.4681  0.2439 -0.0008
  827MOL0     H14072   6.524   6.550   6.717 -1.7187  0.9598 -1.2319
  827MOL0     H14073   6.574   6.717   6.460  0.4998 -1.2898 -0.4830
  827MOL0     H14074   6.565   6.534   6.468 -2.5190  0.1939 -3.1598
  827MOL0     H14075   6.354   6.428   6.583  2.0048  0.1853 -1.8252
  827MOL0     H14076   5.998   6.493   6.576 -0.1346 -1.9200  2.1036
  827MOL0     H14077   6.113   6.358   6.565  0.2681 -0.0330 -1.5617
  827MOL0     H14078   5.991   6.507   6.347  2.3513  1.0368  0.4204
  827MOL0     H14079   6.097   6.378   6.304  0.3270 -3.0936  2.0786
  827MOL0     H14080   5.832   6.340   6.457 -1.4969 -0.4113 -2.1207
  827MOL0     H14081   5.870   6.296   6.292  1.0623 -3.1463  0.0643
  827MOL0     H14082   6.050   6.153   6.335  0.1598 -1.7442  0.9056
  827MOL0     H14083   6.034   6.161   6.503 -0.3891  1.6497 -0.0381
  827MOL0     H14084   6.079   5.930   6.471 -0.7835  0.5056  1.1040
  827MOL0     H14085   6.190   5.639   6.303  1.2103  0.4718 -0.2657
  827MOL0     H14086   6.133   5.594   6.459 -2.1219 -0.7453 -0.4395
  827MOL0     H14087   6.220   5.751   6.443 -2.0243  1.6446  0.5626
  827MOL0     H14088   5.689   5.264   6.280  2.5733 -1.7562  0.4865
  827MOL0     H14089   5.660   5.063   6.138  1.1327 -1.3109 -0.3441
  827MOL0     H14090   5.653   5.113   5.763 -2.3767 -2.8043  2.5031
  827MOL0     H14091   5.826   5.064   5.724  0.2152  0.2895  0.5769
  827MOL0     H14092   5.673   4.940   5.587 -2.1112 -1.1964 -0.2997
  827MOL0     H14093   5.738   4.833   5.716 -0.6179  1.2244  2.9180
  827MOL0     H14094   5.530   4.914   5.842  0.0198  0.9754 -0.8194
  827MOL0     H14095   5.539   4.769   5.765 -1.5287 -0.1761 -0.4619
  827MOL0     H14096   5.452   4.879   5.547  0.5667  0.9991  0.0782
  827MOL0     H14097   5.432   5.026   5.631  1.3002  0.2546  0.3619
  827MOL0     H14098   5.308   4.740   5.688  0.4953  0.1780  1.0168
  827MOL0     H14099   5.276   4.885   5.790  0.9904 -3.8639  1.2029
  827MOL0     H14100   5.197   4.987   5.565  1.8889 -0.0810  1.1721
  827MOL0     H14101   5.094   4.895   5.665 -0.3850 -0.7635 -0.5087
  827MOL0     H14102   5.069   4.814   5.409  0.1534 -0.9127 -0.1617
  827MOL0     H14103   5.106   4.700   5.534  2.8744 -0.3192  0.8235
  827MOL0     H14104   5.231   4.673   5.315 -1.4052 -0.2293  2.0493
  827MOL0     H14105   5.356   4.695   5.438  0.2590 -2.2085 -1.3554
  827MOL0     H14106   5.880   5.236   5.821  1.8925 -1.5540  0.3488
  827MOL0     H14107   5.919   5.438   5.952 -0.7123 -1.5402 -2.6253
  827MOL0     H14108   5.691   5.699   6.249 -2.2839  0.3480  3.8392
  827MOL0     H14109   5.682   5.941   6.344 -1.0745 -0.2498 -2.3536
  827MOL0     H14110   7.292   7.193   6.984  0.0694  2.8465 -1.1128
  827MOL0     H14111   7.443   7.318   7.148 -0.0772 -0.2646  1.8444
  827MOL0     H14112   7.564   7.484   7.515 -1.5576 -1.5159 -0.8688
  827MOL0     H14113   7.771   7.568   7.609  2.6729 -0.3778  0.9386
  827MOL0     H14114   7.909   7.615   7.760 -2.9698 -4.5897 -1.0633
  827MOL0     H14115   8.076   7.582   7.796  4.5402  0.8850 -4.1583
  827MOL0     H14116   7.965   7.625   7.534 -0.2296  0.7481 -0.9048
  827MOL0     H14117   8.123   7.532   7.546 -1.6128 -0.3774 -1.1570
  827MOL0     H14118   8.081   7.798   7.658 -1.3061 -1.6019 -1.0072
  827MOL0     H14119   8.221   7.718   7.695 -1.5547  1.3702  1.4181
  827MOL0     H14120   8.135   7.828   7.430  0.7236  4.1586  2.4421
  827MOL0     H14121   8.271   7.721   7.435  0.0330 -0.8914  0.0453
  827MOL0     H14122   8.455   8.076   7.592 -2.1160  0.7530  1.1960
  827MOL0     H14123   7.867   7.190   7.763  0.5199 -1.0665 -3.0392
  827MOL0     H14124   7.706   6.990   7.552 -1.1120 -2.7816  2.2119
  827MOL0     H14125   7.743   6.997   7.726 -1.4636  1.3838  1.4689
  827MOL0     H14126   7.580   7.009   7.672 -0.8590  0.7748  3.0050
  828MOL0     O14127  10.779   0.447   8.983  0.5376  0.6787 -0.5795
  828MOL0     C14128  10.887   0.433   9.033  0.2598 -0.5212  0.0816
  828MOL0     O14129  11.003   0.390   8.956 -0.0733  0.3868  0.3077
  828MOL0     C14130  10.983   0.373   8.821 -0.6276  0.0172  0.3982
  828MOL0     C14131  11.032   0.474   8.736 -0.5611 -0.5661  0.1955
  828MOL0     C14132  11.017   0.463   8.596 -0.4862 -0.0640  0.4337
  828MOL0     C14133  10.958   0.351   8.539 -0.0211 -0.1348  0.0320
  828MOL0     O14134  10.946   0.344   8.401 -0.8390  0.7143 -0.0112
  828MOL0     C14135  10.811   0.312   8.344  0.3799 -0.3760  0.1132
  828MOL0     C14136  10.719   0.438   8.357  0.5484 -0.6031 -0.6220
  828MOL0     C14137  10.783   0.569   8.326 -0.1442 -0.7895 -0.3819
  828MOL0     C14138  10.695   0.676   8.282  1.0951 -0.9582  0.2000
  828MOL0     C14139  10.681   0.674   8.132  0.5383  0.0598  0.3571
  828MOL0     C14140  10.554   0.727   8.075 -0.2647  0.4732 -0.2548
  828MOL0     C14141  10.579   0.807   7.948  0.8927  0.2410 -0.9811
  828MOL0     C14142  10.465   0.901   7.902  0.0625 -0.0170  0.5393
  828MOL0     N14143  10.454   1.013   7.980  0.5475 -0.0375  0.2900
  828MOL0     C14144  10.532   1.117   7.972  0.3432 -0.8791  0.4566
  828MOL0     C14145  10.483   1.213   8.050  0.5401  0.0682  1.1944
  828MOL0     C14146  10.522   1.364   8.074 -0.4575 -0.2367  0.9569
  828MOL0     C14147  10.679   1.384   8.071 -0.2943 -0.3045  0.8339
  828MOL0     C14148  10.700   1.524   8.013  0.0973  0.7129 -1.0473
  828MOL0     C14149  10.839   1.582   8.040  0.2580  0.2031 -0.3447
  828MOL0     O14150  10.850   1.707   7.977  0.0810 -0.4040 -0.1260
  828MOL0     C14151  10.973   1.778   7.948  0.9828 -0.3528  0.0858
  828MOL0     C14152  10.959   1.884   7.871  0.4968  0.2562  0.6823
  828MOL0     C14153  11.066   1.964   7.820 -0.2686  0.3574 -0.2637
  828MOL0     C14154  11.029   2.086   7.735  0.2771 -0.3613  0.1844
  828MOL0     C14155  11.202   1.932   7.860  0.0312 -0.4661 -0.0315
  828MOL0     C14156  11.323   2.000   7.816  0.0541  0.1794 -0.0918
  828MOL0     O14157  11.311   2.111   7.729  0.8446  0.3199  0.0641
  828MOL0     C14158  11.414   2.193   7.697  0.9185 -0.1941 -0.2847
  828MOL0     C14159  11.389   2.325   7.691  0.4422 -0.3300  0.5591
  828MOL0     C14160  11.475   2.423   7.647  0.9375 -0.1381  0.4177
  828MOL0     C14161  11.606   2.385   7.605  0.0260 -0.5636 -0.2314
  828MOL0     O14162  11.691   2.475   7.559  0.2209 -0.7991  0.1306
  828MOL0     C14163  11.671   2.499   7.420  0.1709 -0.0163 -0.3510
  828MOL0     C14164  11.757   2.614   7.364  0.9621 -0.5220 -0.7264
  828MOL0     C14165  11.759   2.616   7.215 -0.1325 -0.3941  0.5062
  828MOL0     C14166  11.628   2.672   7.155  0.2545  0.3924  0.3251
  828MOL0     C14167  11.634   2.719   7.004  0.1034  0.5955  0.4796
  828MOL0     C14168  11.647   2.615   6.898  0.3427  1.5667  0.5606
  828MOL0     C14169  11.506   2.568   6.861  0.7510 -0.1567 -0.1623
  828MOL0     C14170  11.442   2.663   6.745 -0.3017  0.0376 -0.5699
  828MOL0    Cl14171  11.339   2.548   6.634  0.3831 -0.1530 -0.1218
  828MOL0     C14172  11.636   2.247   7.606  0.6438  0.5455 -0.4747
  828MOL0     C14173  11.542   2.151   7.652  0.4472 -0.0222 -0.4187
  828MOL0     O14174  11.430   1.963   7.856 -0.8819 -0.4443  0.2025
  828MOL0     C14175  11.210   1.813   7.940  1.3659 -0.5179  0.0610
  828MOL0     C14176  11.096   1.740   7.982 -0.0088  0.0930  0.0031
  828MOL0     N14177  10.373   1.158   8.112 -0.0802 -0.4325 -0.4662
  828MOL0     N14178  10.365   1.037   8.074 -0.3637  0.2072 -0.0017
  828MOL0     C14179  10.911   0.257   8.625 -0.3306  0.2462 -0.0196
  828MOL0     C14180  10.922   0.265   8.762 -0.6727 -0.1653 -0.0522
  828MOL0     C14181  10.903   0.458   9.179 -0.4562  0.9774  0.1939
  828MOL0     C14182  11.025   0.415   9.234  0.9318  0.1805  0.3691
  828MOL0     C14183  11.046   0.432   9.367  0.1380 -0.2388 -0.2658
  828MOL0     C14184  10.948   0.460   9.459 -0.5263 -0.5267 -0.0621
  828MOL0     O14185  10.989   0.474   9.596 -0.3303  0.1459  0.5779
  828MOL0     C14186  11.076   0.580   9.630  0.0555 -0.9755  0.4715
  828MOL0     C14187  11.153   0.544   9.760 -0.2578 -0.7537  1.0489
  828MOL0     C14188  11.221   0.405   9.740  0.5098  0.8313 -0.1956
  828MOL0     C14189  11.323   0.379   9.858  0.3410 -0.4419 -0.0077
  828MOL0     C14190  11.258   0.406   9.984 -0.3215  0.3585 -0.4151
  828MOL0     C14191  11.218   0.453  10.084  0.8625  0.4251 -0.0647
  828MOL0     C14192  10.822   0.486   9.409 -0.0369 -0.6986 -0.0606
  828MOL0     C14193  10.796   0.496   9.272  0.9064  0.5750  0.4760
  828MOL0     C14194  10.652   0.545   9.239  0.5111 -0.2199 -0.0853
  828MOL0     H14195  11.077   0.560   8.784 -4.0006  0.9353  0.9760
  828MOL0     H14196  11.063   0.546   8.544  1.9835 -2.0085 -0.7137
  828MOL0     H14197  10.776   0.224   8.398 -1.5328  0.8334  0.9533
  828MOL0     H14198  10.827   0.295   8.237  0.5161 -1.7418  0.3410
  828MOL0     H14199  10.633   0.433   8.289  0.4566 -1.3056 -0.4631
  828MOL0     H14200  10.673   0.427   8.456  3.6026  0.4022  1.0130
  828MOL0     H14201  10.821   0.601   8.423 -1.3557 -0.2226 -0.0696
  828MOL0     H14202  10.867   0.549   8.259  0.2709  0.1649 -0.1552
  828MOL0     H14203  10.596   0.653   8.323  1.2986 -0.8915  0.7360
  828MOL0     H14204  10.722   0.777   8.315  1.6878 -0.9085 -0.4187
  828MOL0     H14205  10.694   0.575   8.089  0.8215 -0.5817  1.8451
  828MOL0     H14206  10.766   0.724   8.084  1.0289 -1.6745 -0.6523
  828MOL0     H14207  10.488   0.640   8.068  2.4351 -1.6768 -0.7045
  828MOL0     H14208  10.515   0.799   8.148  1.2882  1.0326  0.0442
  828MOL0     H14209  10.603   0.745   7.861 -2.0656 -0.8050 -1.1770
  828MOL0     H14210  10.672   0.860   7.971  2.0678 -2.4158  0.9689
  828MOL0     H14211  10.475   0.921   7.794  1.8435 -1.9454  0.2784
  828MOL0     H14212  10.375   0.840   7.908  1.0236 -1.3269  3.8092
  828MOL0     H14213  10.606   1.143   7.897 -0.8914  3.6988  0.5155
  828MOL0     H14214  10.478   1.406   8.165 -0.6705 -1.3949  1.4033
  828MOL0     H14215  10.478   1.398   7.980  1.1794  1.3246  0.7020
  828MOL0     H14216  10.711   1.385   8.176 -2.8862  1.8828  1.7008
  828MOL0     H14217  10.727   1.309   8.007  0.7286 -1.9857  3.3579
  828MOL0     H14218  10.688   1.510   7.905  0.6662 -1.3859 -0.8803
  828MOL0     H14219  10.629   1.601   8.044  1.3617  1.6560 -0.4063
  828MOL0     H14220  10.854   1.595   8.147  0.8790 -0.3902 -0.3555
  828MOL0     H14221  10.922   1.522   8.003  0.4983  0.7201 -0.6396
  828MOL0     H14222  10.859   1.920   7.848  0.1348 -0.0841  1.6923
  828MOL0     H14223  10.923   2.099   7.712  0.8625  1.1938 -1.9585
  828MOL0     H14224  11.081   2.074   7.639 -0.8611 -1.8989 -0.2889
  828MOL0     H14225  11.060   2.175   7.790  2.0352 -1.0458  0.3826
  828MOL0     H14226  11.292   2.369   7.712  0.1447 -1.7419  2.3588
  828MOL0     H14227  11.433   2.523   7.653 -1.5977 -0.9704 -1.3608
  828MOL0     H14228  11.698   2.407   7.368 -2.8663 -2.5659  2.1536
  828MOL0     H14229  11.565   2.515   7.395 -0.7714 -3.1934  1.0740
  828MOL0     H14230  11.723   2.708   7.409 -0.7870 -1.4187 -0.0325
  828MOL0     H14231  11.860   2.600   7.398  0.6009 -1.9086 -0.1279
  828MOL0     H14232  11.751   2.512   7.185  2.2494 -0.3861 -0.3367
  828MOL0     H14233  11.847   2.646   7.159 -1.9596  0.4234 -2.1053
  828MOL0     H14234  11.591   2.767   7.197 -0.9780  0.8357 -1.6057
  828MOL0     H14235  11.560   2.587   7.162  3.2255 -2.2087 -0.1128
  828MOL0     H14236  11.548   2.786   6.996  0.1300  0.4927 -0.8826
  828MOL0     H14237  11.718   2.786   6.985  0.4113  0.6745  1.9924
  828MOL0     H14238  11.714   2.531   6.919 -1.8332 -1.8283 -4.1474
  828MOL0     H14239  11.704   2.643   6.809 -0.1185 -0.1085 -0.3004
  828MOL0     H14240  11.445   2.571   6.952 -2.1942  3.0925 -1.9775
  828MOL0     H14241  11.500   2.465   6.827  0.1893  0.7359 -3.0567
  828MOL0     H14242  11.525   2.709   6.689  0.5389 -0.2451  0.4115
  828MOL0     H14243  11.385   2.749   6.783  0.6270 -0.1832  1.4611
  828MOL0     H14244  11.734   2.219   7.568  0.7168 -2.8115  1.7222
  828MOL0     H14245  11.552   2.043   7.650 -1.4054 -0.2287 -0.4102
  828MOL0     H14246  11.307   1.777   7.973 -0.0882 -5.7284 -0.4579
  828MOL0     H14247  11.120   1.660   8.051 -0.5101 -1.9690 -2.0960
  828MOL0     H14248  10.867   0.164   8.592 -0.6732  0.3851  0.0312
  828MOL0     H14249  10.879   0.187   8.825 -0.7539 -0.8249 -0.8939
  828MOL0     H14250  11.112   0.387   9.175  1.5785  0.5208  1.1447
  828MOL0     H14251  11.146   0.413   9.405 -1.6257 -3.2039  3.6480
  828MOL0     H14252  11.147   0.596   9.549 -0.5488  1.1597  0.2956
  828MOL0     H14253  11.017   0.672   9.639 -0.6113 -1.5844  2.9918
  828MOL0     H14254  11.080   0.535   9.841 -3.8487  2.3664 -1.5195
  828MOL0     H14255  11.225   0.622   9.786 -2.0249  0.8260  1.3771
  828MOL0     H14256  11.140   0.331   9.748  1.9307 -1.2977 -3.2806
  828MOL0     H14257  11.266   0.386   9.642 -3.0767 -2.1985 -1.5011
  828MOL0     H14258  11.408   0.448   9.864 -0.5602  0.6412  0.5954
  828MOL0     H14259  11.370   0.280   9.849  1.3247  0.1780 -4.4211
  828MOL0     H14260  11.195   0.492  10.181 -0.0313 -1.0716  0.3613
  828MOL0     H14261  10.757   0.503   9.494  2.2638  0.1276  1.6484
  828MOL0     H14262  10.589   0.458   9.221 -0.1518  0.3333 -0.4847
  828MOL0     H14263  10.597   0.614   9.304  1.9625 -1.1231  2.2257
  828MOL0     H14264  10.652   0.594   9.141  1.4424  1.1105  0.5373
  829MOL0     O14265   1.840   5.140   9.201 -0.1177  0.0471  0.0999
  829MOL0     C14266   1.834   5.045   9.281  1.0149  0.6670  0.1930
  829MOL0     O14267   1.805   5.066   9.420  0.5763  0.5177 -0.0721
  829MOL0     C14268   1.748   5.183   9.471  0.9386  0.0024  0.1378
  829MOL0     C14269   1.698   5.297   9.398  0.0521  1.2247 -0.1285
  829MOL0     C14270   1.659   5.411   9.462  0.1431 -1.2730  0.4657
  829MOL0     C14271   1.670   5.424   9.599  0.5986 -0.0644 -0.7868
  829MOL0     O14272   1.650   5.554   9.651  0.1385 -0.0602 -0.1264
  829MOL0     C14273   1.683   5.583   9.788  0.0759  0.1235  0.3681
  829MOL0     C14274   1.666   5.738   9.805  0.3566  0.1934 -0.0967
  829MOL0     C14275   1.569   5.804   9.699  0.0291 -0.0478  0.3791
  829MOL0     C14276   1.583   5.948   9.714  0.5431 -0.0440  0.2100
  829MOL0     C14277   1.513   6.026   9.596 -0.5092 -0.2718 -0.0403
  829MOL0     C14278   1.362   6.020   9.591  0.4479 -0.3095  0.2010
  829MOL0     C14279   1.303   6.110   9.478  0.6881 -0.0766 -0.3166
  829MOL0     C14280   1.179   6.175   9.521  0.9010  0.0344  0.4599
  829MOL0     N14281   1.063   6.103   9.572  0.2111  0.4685  0.3291
  829MOL0     C14282   0.996   6.000   9.509 -0.0365  0.5710 -0.3186
  829MOL0     C14283   0.898   5.971   9.602 -0.2684 -0.5676  0.5086
  829MOL0     C14284   0.813   5.853   9.571 -0.5102 -0.1037 -0.4031
  829MOL0     C14285   0.836   5.726   9.654 -1.6777  0.2891  0.9633
  829MOL0     C14286   0.946   5.626   9.603 -0.0220 -1.5831 -0.8039
  829MOL0     C14287   0.952   5.502   9.696 -0.0007  0.6599 -0.0678
  829MOL0     O14288   0.997   5.536   9.830  0.1825 -0.9520 -0.1218
  829MOL0     C14289   1.010   5.441   9.920  0.2972 -0.3885 -0.0297
  829MOL0     C14290   1.014   5.478  10.053 -0.6925  0.6256 -0.3928
  829MOL0     C14291   1.060   5.386  10.154 -0.9616 -0.4027  0.1002
  829MOL0     C14292   1.074   5.442  10.295  0.8416 -0.5281 -0.1252
  829MOL0     C14293   1.090   5.248  10.125  0.3639  0.5964 -0.4129
  829MOL0     C14294   1.126   5.145  10.230  0.6093  0.2385  0.2642
  829MOL0     O14295   1.172   5.188  10.356  0.2082 -0.7337 -0.0957
  829MOL0     C14296   1.231   5.092  10.436  0.2765 -0.6685  0.1525
  829MOL0     C14297   1.198   5.103  10.573  0.2850  0.4190 -0.7458
  829MOL0     C14298   1.259   5.026  10.674  0.4049  0.3102  0.6018
  829MOL0     C14299   1.355   4.940  10.630 -0.6702 -0.1232  0.6787
  829MOL0     O14300   1.448   4.875  10.711 -0.2882  1.1791  0.4569
  829MOL0     C14301   1.432   4.870  10.850  0.2976  0.4114 -0.0055
  829MOL0     C14302   1.545   4.790  10.921 -1.1122  0.7557 -0.2505
  829MOL0     C14303   1.523   4.646  10.889 -0.9241 -0.1221 -0.2599
  829MOL0     C14304   1.637   4.561  10.937  0.1823 -0.2856 -1.3443
  829MOL0     C14305   1.720   4.527  10.813  0.4302  1.4637  0.3673
  829MOL0     C14306   1.847   4.446  10.828  0.3940 -0.1526  0.6178
  829MOL0     C14307   1.829   4.307  10.868  0.0286 -0.0957 -0.0233
  829MOL0     C14308   1.954   4.235  10.902 -0.3641 -0.2327  0.2724
  829MOL0    Cl14309   2.023   4.158  10.765  0.6851 -0.2453  0.1113
  829MOL0     C14310   1.381   4.922  10.487 -0.2283 -0.1690  0.5283
  829MOL0     C14311   1.332   4.999  10.385 -0.6276 -0.6809  0.0162
  829MOL0     O14312   1.103   5.024  10.205  0.2619  0.5292 -0.0994
  829MOL0     C14313   1.088   5.211   9.993 -0.3990 -1.2484  0.8402
  829MOL0     C14314   1.050   5.309   9.892  0.4423 -0.0449 -0.3157
  829MOL0     N14315   0.918   6.045   9.710 -0.2185 -0.3597 -1.1258
  829MOL0     N14316   1.011   6.135   9.694  0.1747  0.5363  0.4727
  829MOL0     C14317   1.719   5.315   9.676  0.2729 -0.0629 -0.4513
  829MOL0     C14318   1.750   5.200   9.610  0.4829 -0.9357 -0.2224
  829MOL0     C14319   1.901   4.916   9.231 -0.2693  1.0095  0.1246
  829MOL0     C14320   1.939   4.822   9.331 -0.3235 -0.2915  0.1544
  829MOL0     C14321   2.009   4.711   9.296  0.1001  0.4310 -0.1574
  829MOL0     C14322   2.033   4.658   9.171  0.5575 -0.2644 -0.5075
  829MOL0     O14323   2.097   4.537   9.154 -0.3667  0.4151 -0.4240
  829MOL0     C14324   2.101   4.467   9.033 -0.2560  0.4209  0.2526
  829MOL0     C14325   2.154   4.325   9.049 -0.0529 -0.3003  0.5884
  829MOL0     C14326   2.302   4.301   9.043 -0.5702 -0.5042  0.1113
  829MOL0     C14327   2.363   4.303   8.900 -0.9372 -0.2551 -0.4826
  829MOL0     C14328   2.501   4.250   8.894  0.2504 -0.5979 -0.3915
  829MOL0     C14329   2.602   4.189   8.890  0.2155  0.1748  0.2652
  829MOL0     C14330   1.984   4.747   9.067  0.4025 -0.3397 -0.3399
  829MOL0     C14331   1.911   4.869   9.089 -0.0280  0.2766 -0.5468
  829MOL0     C14332   1.834   4.927   8.977 -1.6157  0.6400 -0.2657
  829MOL0     H14333   1.699   5.308   9.290  2.8505 -0.3057 -0.3621
  829MOL0     H14334   1.618   5.499   9.413 -0.5960 -1.4177  0.7989
  829MOL0     H14335   1.786   5.557   9.813 -0.1596  0.1442  1.3925
  829MOL0     H14336   1.627   5.531   9.866  0.9911  0.7715  1.4935
  829MOL0     H14337   1.641   5.757   9.910 -1.2314  2.4619 -0.8177
  829MOL0     H14338   1.762   5.789   9.792 -0.3643  2.3553  2.1385
  829MOL0     H14339   1.614   5.786   9.601 -1.6391  0.8672 -0.5929
  829MOL0     H14340   1.465   5.771   9.706 -0.1062  0.5173  1.2805
  829MOL0     H14341   1.540   5.988   9.807  0.0697 -1.6439  0.7139
  829MOL0     H14342   1.690   5.962   9.700  0.0657  0.6022 -3.8368
  829MOL0     H14343   1.565   5.982   9.511  0.4907 -1.1799  0.9998
  829MOL0     H14344   1.536   6.132   9.604  4.9407 -1.1641 -0.4006
  829MOL0     H14345   1.332   5.917   9.571 -2.3137  0.1255  1.6846
  829MOL0     H14346   1.323   6.042   9.691 -1.4171  0.3247 -0.6155
  829MOL0     H14347   1.284   6.058   9.384  1.1461 -0.0434 -0.4292
  829MOL0     H14348   1.379   6.188   9.469  0.2517  0.3119 -0.7283
  829MOL0     H14349   1.196   6.259   9.588 -2.6300  2.4691 -1.3320
  829MOL0     H14350   1.141   6.231   9.435 -0.5779  2.6263  2.6340
  829MOL0     H14351   1.021   5.944   9.419 -1.9865  1.7770 -1.6966
  829MOL0     H14352   0.816   5.838   9.463 -1.6150  2.3540 -0.8496
  829MOL0     H14353   0.709   5.879   9.596  0.1554  0.7457  1.6772
  829MOL0     H14354   0.885   5.762   9.744  0.5642  0.5065 -0.2815
  829MOL0     H14355   0.736   5.685   9.669 -1.4427  0.2244  2.4413
  829MOL0     H14356   0.925   5.592   9.501  0.2974 -3.1964 -0.3698
  829MOL0     H14357   1.041   5.679   9.598  0.4116 -2.2749 -0.0080
  829MOL0     H14358   0.854   5.455   9.708  1.1788 -2.2504 -0.9496
  829MOL0     H14359   1.022   5.434   9.648 -0.4008  0.7551 -0.8067
  829MOL0     H14360   1.005   5.582  10.085  0.1602  1.6366 -3.1701
  829MOL0     H14361   1.000   5.393  10.358  0.1904  1.2093  0.5166
  829MOL0     H14362   1.052   5.549  10.300  2.9066 -0.0234 -0.6198
  829MOL0     H14363   1.172   5.420  10.340  0.7069 -0.8142  0.0312
  829MOL0     H14364   1.130   5.177  10.614 -0.7404 -0.0473 -1.5626
  829MOL0     H14365   1.223   5.026  10.776  2.2711 -1.7743  1.3563
  829MOL0     H14366   1.431   4.969  10.896  0.6537 -0.0267  0.9676
  829MOL0     H14367   1.339   4.816  10.871  1.2837 -0.8852  1.2364
  829MOL0     H14368   1.649   4.815  10.899 -0.6366  0.4682  1.4948
  829MOL0     H14369   1.542   4.799  11.030 -1.5188  1.4468 -0.3128
  829MOL0     H14370   1.524   4.633  10.781  3.4628 -1.1916 -0.2789
  829MOL0     H14371   1.429   4.612  10.932 -0.3075  0.0225  1.2788
  829MOL0     H14372   1.604   4.471  10.990 -0.0626  1.4234  1.6424
  829MOL0     H14373   1.699   4.624  11.001 -1.0244 -0.4772  0.0843
  829MOL0     H14374   1.663   4.469  10.740  1.7185 -0.8812  1.1365
  829MOL0     H14375   1.738   4.622  10.762  1.4985  0.6339 -0.8547
  829MOL0     H14376   1.912   4.498  10.898  0.6780 -1.1213  1.0877
  829MOL0     H14377   1.892   4.444  10.728  0.5884  0.4865  0.6916
  829MOL0     H14378   1.779   4.246  10.792  0.3912 -1.0128  0.4632
  829MOL0     H14379   1.772   4.296  10.960  2.2595 -3.6166  1.1483
  829MOL0     H14380   1.937   4.171  10.990  2.2926 -1.4126  0.0247
  829MOL0     H14381   2.032   4.301  10.942  0.1080  0.4352 -1.6573
  829MOL0     H14382   1.454   4.848  10.456 -1.6179 -0.2448 -2.8955
  829MOL0     H14383   1.363   4.985  10.282  1.4377 -3.0236  0.8635
  829MOL0     H14384   1.117   5.112   9.959  0.5203  0.9612 -6.6989
  829MOL0     H14385   1.051   5.284   9.786  2.1757  0.1402 -0.3704
  829MOL0     H14386   1.721   5.327   9.784 -0.1120  1.5808 -0.5991
  829MOL0     H14387   1.779   5.109   9.662  0.9594 -0.1488  0.9456
  829MOL0     H14388   1.922   4.835   9.437  0.9538  0.9091  0.2383
  829MOL0     H14389   2.051   4.654   9.378  3.1032  1.4195 -0.8452
  829MOL0     H14390   1.995   4.463   9.005 -0.1333  3.2445 -0.8730
  829MOL0     H14391   2.149   4.526   8.954 -0.9641  0.2146 -0.3451
  829MOL0     H14392   2.110   4.268   8.966 -2.7847  0.4355  1.4044
  829MOL0     H14393   2.117   4.295   9.148  1.8678 -1.0323  1.1342
  829MOL0     H14394   2.347   4.376   9.109  2.9029 -1.4621 -0.9073
  829MOL0     H14395   2.327   4.203   9.087 -2.4150 -0.4212  1.4792
  829MOL0     H14396   2.361   4.406   8.862  1.4695  0.2310  0.5535
  829MOL0     H14397   2.301   4.234   8.841  0.5553 -1.0271 -1.2118
  829MOL0     H14398   2.697   4.141   8.902  1.1602  1.8216 -0.2714
  829MOL0     H14399   1.988   4.703   8.968 -1.3288 -1.2487 -0.0402
  829MOL0     H14400   1.818   5.035   8.981 -0.2975  0.8929 -1.1273
  829MOL0     H14401   1.885   4.919   8.880 -4.2293  2.9363 -1.9910
  829MOL0     H14402   1.732   4.887   8.978 -1.6039  0.2245  4.0890
  830MOL0     O14403   7.298  10.106   3.232 -0.0017  0.1038 -0.4191
  830MOL0     C14404   7.210  10.034   3.180 -0.0460  0.7357  1.3074
  830MOL0     O14405   7.201  10.012   3.042 -0.1275 -0.4224  0.1130
  830MOL0     C14406   7.303  10.049   2.951 -0.2822 -0.0564 -0.8764
  830MOL0     C14407   7.379  10.164   2.961 -0.2867  0.4599 -1.0318
  830MOL0     C14408   7.490  10.178   2.883  0.0244 -0.0975 -0.6650
  830MOL0     C14409   7.527  10.070   2.793  0.1938 -1.0293  0.0690
  830MOL0     O14410   7.639  10.078   2.719 -0.9423 -0.1189 -0.0313
  830MOL0     C14411   7.719  10.197   2.692 -0.0343  0.0936 -0.5533
  830MOL0     C14412   7.795  10.184   2.559  0.2209  0.7462 -1.0213
  830MOL0     C14413   7.861  10.323   2.521 -0.0550 -0.3973  0.1004
  830MOL0     C14414   7.989  10.298   2.440 -0.0776 -0.6942 -0.2964
  830MOL0     C14415   8.055  10.422   2.399 -0.0176 -1.0431 -0.4305
  830MOL0     C14416   8.166  10.397   2.303 -0.0530 -1.0367  0.0198
  830MOL0     C14417   8.249  10.514   2.260 -0.7392  0.2645 -0.5103
  830MOL0     C14418   8.357  10.551   2.368  0.7449 -0.4708  0.4689
  830MOL0     N14419   8.370  10.703   2.358  0.5349  1.2355  0.2053
  830MOL0     C14420   8.394  10.792   2.464  0.0326 -0.8607 -0.2015
  830MOL0     C14421   8.383  10.922   2.420  0.8956 -0.6758 -0.7088
  830MOL0     C14422   8.404  11.047   2.507  0.1675 -0.3179  0.3572
  830MOL0     C14423   8.550  11.042   2.556  0.0639  0.4117  0.9581
  830MOL0     C14424   8.658  11.028   2.453  0.6994 -1.1883 -0.7288
  830MOL0     C14425   8.683  11.161   2.376  0.7487 -0.1148  0.1428
  830MOL0     O14426   8.810  11.161   2.315  0.2101  0.8523 -0.1377
  830MOL0     C14427   8.817  11.112   2.185 -1.2263  0.2091  0.0437
  830MOL0     C14428   8.743  11.004   2.138 -0.5280 -0.8678  0.5063
  830MOL0     C14429   8.767  10.937   2.015 -0.5758 -0.2997  0.3997
  830MOL0     C14430   8.685  10.814   1.974  0.7733 -0.3142 -0.1201
  830MOL0     C14431   8.884  10.988   1.943  0.5495  0.1300 -0.2894
  830MOL0     C14432   8.919  10.943   1.810 -0.0449  1.0017 -1.0127
  830MOL0     O14433   8.825  10.943   1.714 -0.8779 -0.0601 -0.0781
  830MOL0     C14434   8.846  10.878   1.595  0.0884 -0.9136  0.1037
  830MOL0     C14435   8.960  10.909   1.522 -0.2310  0.5648 -0.4936
  830MOL0     C14436   8.967  10.863   1.389 -1.0998 -0.2952 -0.0523
  830MOL0     C14437   8.865  10.786   1.330  0.2391  0.2246  0.6051
  830MOL0     O14438   8.881  10.732   1.202 -0.4380 -0.5443 -0.4615
  830MOL0     C14439   8.895  10.597   1.212  0.4775 -0.0056  0.5580
  830MOL0     C14440   8.884  10.540   1.069 -0.7347  0.4419 -0.3008
  830MOL0     C14441   8.996  10.578   0.982 -0.4824  0.6475 -0.0976
  830MOL0     C14442   9.016  10.473   0.864  1.2499  0.8207  0.1904
  830MOL0     C14443   9.090  10.538   0.745 -0.1838  0.8193 -0.1916
  830MOL0     C14444   9.098  10.451   0.616  0.8969 -0.7844  0.1829
  830MOL0     C14445   9.173  10.316   0.635 -0.6990  0.1897  0.2377
  830MOL0     C14446   9.153  10.235   0.508  0.2808 -0.6880 -0.6235
  830MOL0    Cl14447   9.224  10.317   0.357  0.1579  0.0043 -0.0274
  830MOL0     C14448   8.750  10.769   1.402 -0.2210 -0.4538 -1.1477
  830MOL0     C14449   8.741  10.825   1.526  0.7673 -1.1598 -0.3852
  830MOL0     O14450   9.029  10.896   1.802  0.0924  0.2024 -0.1021
  830MOL0     C14451   8.961  11.099   1.990  0.1198  0.4926  0.3668
  830MOL0     C14452   8.934  11.153   2.115  0.1781 -0.5468 -0.0872
  830MOL0     N14453   8.350  10.909   2.287 -0.7285  0.2823 -0.4978
  830MOL0     N14454   8.369  10.793   2.248  0.6132  0.3504 -0.0937
  830MOL0     C14455   7.459   9.960   2.784 -0.4332  0.3097  1.1322
  830MOL0     C14456   7.338   9.953   2.854 -0.0310  0.4723 -0.1018
  830MOL0     C14457   7.093   9.982   3.256 -0.2603  0.1222 -0.1417
  830MOL0     C14458   6.970  10.017   3.199  0.7941  0.4952  0.3979
  830MOL0     C14459   6.851   9.978   3.258  0.7120  0.7537 -0.1130
  830MOL0     C14460   6.847   9.902   3.368 -0.4572 -0.0451 -0.3182
  830MOL0     O14461   6.729   9.846   3.391 -0.0462 -0.0192  0.1007
  830MOL0     C14462   6.715   9.759   3.505  0.1500  0.3267  0.0216
  830MOL0     C14463   6.722   9.829   3.635  0.5655  0.0705  0.4919
  830MOL0     C14464   6.682   9.747   3.756  0.1039  0.0482 -0.8671
  830MOL0     C14465   6.757   9.786   3.884 -0.6980  0.6804 -0.1559
  830MOL0     C14466   6.723   9.927   3.924 -1.2368  0.3567 -0.9557
  830MOL0     C14467   6.699  10.047   3.951 -0.3426  0.2941 -0.6788
  830MOL0     C14468   6.972   9.875   3.439  0.9614  0.2729  0.9726
  830MOL0     C14469   7.097   9.922   3.380  0.5281  0.4424 -0.5860
  830MOL0     C14470   7.218   9.869   3.450  0.2418  0.6480 -0.2930
  830MOL0     H14471   7.344  10.236   3.034  2.0302  2.3210 -1.6162
  830MOL0     H14472   7.566  10.249   2.913 -1.3065  0.4672  1.6064
  830MOL0     H14473   7.793  10.218   2.770 -1.1836 -3.5181  1.7916
  830MOL0     H14474   7.660  10.288   2.678 -0.8880 -0.4047 -0.2666
  830MOL0     H14475   7.863  10.098   2.567  1.7922  2.1029  1.8528
  830MOL0     H14476   7.721  10.160   2.482 -0.6006 -1.7274  0.4191
  830MOL0     H14477   7.784  10.379   2.466  0.2959 -0.6188 -0.6344
  830MOL0     H14478   7.887  10.374   2.614  0.7351 -2.6831  1.2051
  830MOL0     H14479   8.051  10.235   2.504 -0.5214 -3.7507 -2.6768
  830MOL0     H14480   7.954  10.242   2.353  0.2733  0.3666 -1.1438
  830MOL0     H14481   8.093  10.472   2.488  0.8032  0.9999 -1.8712
  830MOL0     H14482   7.988  10.492   2.348  1.6028 -0.5506 -1.9799
  830MOL0     H14483   8.235  10.319   2.335 -1.3512 -1.5498  1.7111
  830MOL0     H14484   8.103  10.361   2.220 -0.6095  0.4058 -0.2241
  830MOL0     H14485   8.184  10.601   2.244  0.6898  1.3291 -0.7668
  830MOL0     H14486   8.295  10.485   2.166 -2.0535  1.8084 -1.6758
  830MOL0     H14487   8.325  10.517   2.467 -0.9619  3.4683  1.4853
  830MOL0     H14488   8.452  10.503   2.345  1.4591  1.1929 -0.2402
  830MOL0     H14489   8.424  10.763   2.565  0.6798  0.0381 -0.1260
  830MOL0     H14490   8.332  11.040   2.590  0.3989  3.5059  1.0478
  830MOL0     H14491   8.385  11.141   2.454 -1.9311  1.1302  3.3474
  830MOL0     H14492   8.575  11.134   2.609 -2.5673  0.3672  2.4424
  830MOL0     H14493   8.554  10.955   2.623 -0.3174  0.4432  1.0219
  830MOL0     H14494   8.750  11.007   2.508 -0.9714 -1.5249  2.1790
  830MOL0     H14495   8.637  10.953   2.377 -1.6638  0.7242 -2.1008
  830MOL0     H14496   8.598  11.171   2.308 -0.9300 -2.0642  1.8146
  830MOL0     H14497   8.689  11.246   2.445  0.1716 -1.2693  1.6770
  830MOL0     H14498   8.660  10.960   2.193  0.4337 -2.3609  0.8315
  830MOL0     H14499   8.744  10.760   1.899  2.8590 -1.0821  1.9356
  830MOL0     H14500   8.588  10.840   1.932  0.8074  1.9219  1.0262
  830MOL0     H14501   8.677  10.738   2.053  0.5733  1.4794  1.6667
  830MOL0     H14502   9.041  10.963   1.570 -1.4132  0.0535  2.2076
  830MOL0     H14503   9.060  10.882   1.337 -1.9069  0.6490 -1.2112
  830MOL0     H14504   8.998  10.581   1.245  1.1848  2.2034 -0.3731
  830MOL0     H14505   8.818  10.557   1.279 -1.6668  2.5448 -0.2182
  830MOL0     H14506   8.864  10.432   1.067 -3.2098  0.8203  0.8588
  830MOL0     H14507   8.794  10.578   1.019  0.9109  1.4200 -2.7278
  830MOL0     H14508   9.094  10.575   1.030  0.7942 -2.1919 -2.5691
  830MOL0     H14509   8.975  10.680   0.951 -0.4742  0.5764 -0.3356
  830MOL0     H14510   8.918  10.445   0.827  0.3609  1.3115  2.0460
  830MOL0     H14511   9.070  10.385   0.900  1.3173  2.0315  3.3862
  830MOL0     H14512   9.039  10.633   0.724  0.5227  2.0309  2.9888
  830MOL0     H14513   9.193  10.565   0.768  0.5376 -3.1063  2.0471
  830MOL0     H14514   9.131  10.498   0.523 -1.4810 -2.4199 -1.6050
  830MOL0     H14515   8.993  10.424   0.603  0.3277  0.5845  1.6555
  830MOL0     H14516   9.136  10.259   0.721 -0.2829 -0.5358 -0.0554
  830MOL0     H14517   9.279  10.338   0.649 -0.9575  1.7908 -0.0750
  830MOL0     H14518   9.044  10.229   0.497  0.1994  2.5073 -3.8454
  830MOL0     H14519   9.196  10.135   0.511  1.8046 -0.1025 -1.5939
  830MOL0     H14520   8.678  10.700   1.358  2.6913 -4.7722  0.1210
  830MOL0     H14521   8.650  10.821   1.585  0.2501 -2.1226 -1.2261
  830MOL0     H14522   9.042  11.141   1.931  1.7567 -0.8362  1.5569
  830MOL0     H14523   8.975  11.244   2.157 -1.0826 -1.6922  4.1503
  830MOL0     H14524   7.486   9.883   2.713 -2.6052  1.2602 -0.8349
  830MOL0     H14525   7.276   9.865   2.839  1.0274 -0.4091  0.4753
  830MOL0     H14526   6.956  10.070   3.106 -2.1375 -0.1698  0.3443
  830MOL0     H14527   6.755   9.998   3.212 -0.3738  2.1201  2.5189
  830MOL0     H14528   6.623   9.706   3.481  0.7498  0.0974 -1.9216
  830MOL0     H14529   6.785   9.675   3.509 -1.2688 -0.9183 -0.4461
  830MOL0     H14530   6.647   9.909   3.627  4.2129  3.7820  0.2922
  830MOL0     H14531   6.819   9.874   3.657  1.2061 -0.0379 -1.9226
  830MOL0     H14532   6.574   9.735   3.758  0.1282 -0.8981  2.9200
  830MOL0     H14533   6.706   9.642   3.740 -1.6793 -0.3876 -0.8630
  830MOL0     H14534   6.865   9.789   3.867 -0.4539  1.2421  1.2911
  830MOL0     H14535   6.740   9.722   3.971  2.2423 -0.7201 -0.4794
  830MOL0     H14536   6.664  10.140   3.991  1.5332  0.5100  0.6104
  830MOL0     H14537   6.969   9.813   3.528  1.8978 -2.3463 -0.6832
  830MOL0     H14538   7.262   9.786   3.396  0.5891  0.2793  0.5429
  830MOL0     H14539   7.286   9.955   3.451 -1.3038  2.0017  2.8685
  830MOL0     H14540   7.206   9.843   3.556 -2.4329 -3.9385 -1.4940
  831MOL0     O14541   9.429   3.709   6.083  0.0818 -0.8215  0.2295
  831MOL0     C14542   9.446   3.726   6.214 -0.0481 -0.3302  0.4717
  831MOL0     O14543   9.365   3.685   6.311  0.2311 -0.3960  0.7205
  831MOL0     C14544   9.253   3.622   6.279  0.1982  0.3735 -0.5122
  831MOL0     C14545   9.252   3.487   6.234 -0.2427  0.1580  0.1746
  831MOL0     C14546   9.131   3.418   6.233  0.6602  0.1785 -0.3077
  831MOL0     C14547   9.005   3.465   6.288  0.4386 -0.3653 -0.1083
  831MOL0     O14548   8.893   3.390   6.282 -0.1114 -0.6554  0.4996
  831MOL0     C14549   8.900   3.246   6.295  0.1514  0.0639  0.2926
  831MOL0     C14550   8.812   3.182   6.394  0.4255  0.5545  0.1813
  831MOL0     C14551   8.875   3.209   6.532  0.6830  0.0376 -0.7963
  831MOL0     C14552   8.793   3.169   6.652 -0.3406 -0.2007  0.2454
  831MOL0     C14553   8.863   3.183   6.789 -0.1574 -0.0061 -0.1708
  831MOL0     C14554   8.941   3.314   6.807 -0.8257 -0.3668 -0.0524
  831MOL0     C14555   8.951   3.359   6.959 -0.1827  0.1673  0.2933
  831MOL0     C14556   9.032   3.274   7.062 -0.1481  0.1362  0.7272
  831MOL0     N14557   9.179   3.288   7.028  0.0564  0.6973  0.3223
  831MOL0     C14558   9.262   3.189   7.023 -0.8090  0.7304  0.8274
  831MOL0     C14559   9.383   3.240   7.020 -0.3903 -0.0880  0.3726
  831MOL0     C14560   9.506   3.155   7.034 -0.0290  0.0163 -0.0262
  831MOL0     C14561   9.534   3.070   7.161  1.2542 -1.2914 -0.4399
  831MOL0     C14562   9.556   3.162   7.277 -0.2902 -0.7876  1.2442
  831MOL0     C14563   9.695   3.210   7.290 -0.0215 -0.2337  0.0056
  831MOL0     O14564   9.780   3.096   7.330 -0.4171  0.0230  0.3004
  831MOL0     C14565   9.916   3.121   7.339  0.1717 -0.2204  0.5960
  831MOL0     C14566   9.992   3.014   7.381 -0.3436 -0.1072  0.4782
  831MOL0     C14567  10.132   3.006   7.367  0.2984 -0.4031  0.6238
  831MOL0     C14568  10.208   2.883   7.414  1.2590  0.5945  0.0009
  831MOL0     C14569  10.192   3.131   7.327 -0.8772 -0.3238  0.7276
  831MOL0     C14570  10.341   3.147   7.322  0.0401 -0.7039  0.5933
  831MOL0     O14571  10.397   3.273   7.324  0.2468 -0.6687  0.1478
  831MOL0     C14572  10.528   3.266   7.365  0.3376  0.6301  1.1850
  831MOL0     C14573  10.622   3.220   7.279 -0.0695 -0.8916  0.1529
  831MOL0     C14574  10.752   3.218   7.318  0.6129 -0.8844  0.0895
  831MOL0     C14575  10.799   3.266   7.448  1.1615 -0.3941 -0.5438
  831MOL0     O14576  10.929   3.272   7.472 -0.2202  0.1087  0.1763
  831MOL0     C14577  10.996   3.293   7.600 -0.2484  0.1498 -0.0649
  831MOL0     C14578  11.112   3.180   7.609  1.0339  0.6769 -0.0940
  831MOL0     C14579  11.054   3.046   7.591  1.5221  0.9564  0.4424
  831MOL0     C14580  11.177   2.946   7.601  0.8599 -1.1943  0.1189
  831MOL0     C14581  11.142   2.798   7.574  0.6806 -0.1328 -0.3976
  831MOL0     C14582  11.075   2.726   7.694 -0.0364  0.5656  0.2471
  831MOL0     C14583  11.004   2.589   7.659  0.4794  1.3522 -0.1266
  831MOL0     C14584  10.866   2.576   7.729 -0.3124  1.0881  0.6859
  831MOL0    Cl14585  10.779   2.436   7.663  0.2930  0.1447 -0.0935
  831MOL0     C14586  10.697   3.319   7.533  0.6498  0.2043 -0.0414
  831MOL0     C14587  10.567   3.318   7.485 -0.1545 -0.3320  0.4682
  831MOL0     O14588  10.411   3.043   7.316  1.1564  0.2274 -0.8778
  831MOL0     C14589  10.120   3.234   7.267 -0.5416  0.0560 -0.3993
  831MOL0     C14590   9.984   3.236   7.283  0.3133  0.0065 -0.2816
  831MOL0     N14591   9.379   3.378   7.038  0.7146 -1.0004 -1.2516
  831MOL0     N14592   9.252   3.403   7.042 -0.4316 -1.1153  0.4971
  831MOL0     C14593   9.011   3.596   6.332  0.1070 -0.0338 -0.2338
  831MOL0     C14594   9.124   3.672   6.326  0.6095 -0.2401 -0.1650
  831MOL0     C14595   9.582   3.791   6.243  1.0539 -1.1747  0.4910
  831MOL0     C14596   9.629   3.887   6.155  0.0269 -0.6509 -0.3341
  831MOL0     C14597   9.729   3.975   6.197 -0.1687 -0.0471 -0.2737
  831MOL0     C14598   9.800   3.954   6.316 -0.4779  0.0092  0.0770
  831MOL0     O14599   9.907   4.011   6.369 -0.1373  0.2850  0.0993
  831MOL0     C14600   9.971   4.104   6.276  0.1920  0.4179  0.0805
  831MOL0     C14601  10.100   4.161   6.333 -1.1037  0.3483 -0.0731
  831MOL0     C14602  10.183   4.061   6.404 -0.0083  0.2198 -0.4938
  831MOL0     C14603  10.308   4.117   6.460  0.6073  0.8354  0.1535
  831MOL0     C14604  10.378   4.006   6.517 -0.6140 -0.2576  0.7421
  831MOL0     C14605  10.445   3.904   6.550  1.1574  0.2969  0.1544
  831MOL0     C14606   9.762   3.851   6.393  0.4725 -0.2695 -0.0692
  831MOL0     C14607   9.648   3.774   6.370 -0.2468  0.6122  0.8832
  831MOL0     C14608   9.595   3.685   6.475 -0.6179  0.4911 -0.6055
  831MOL0     H14609   9.345   3.443   6.201 -0.6440 -1.3562  0.9544
  831MOL0     H14610   9.134   3.320   6.186  4.1792  0.1651 -0.3606
  831MOL0     H14611   9.003   3.213   6.315  0.9940  0.5771 -2.7203
  831MOL0     H14612   8.879   3.188   6.205  1.5244 -0.6161  0.3691
  831MOL0     H14613   8.707   3.214   6.398  0.2346 -0.1747  2.2127
  831MOL0     H14614   8.813   3.075   6.371  0.7464  0.3989  0.8960
  831MOL0     H14615   8.967   3.153   6.554  0.5862  0.4126  0.6400
  831MOL0     H14616   8.900   3.315   6.541 -0.0622  0.2669 -1.3338
  831MOL0     H14617   8.705   3.233   6.639 -1.2499 -1.5848 -0.6211
  831MOL0     H14618   8.759   3.068   6.628 -1.2804  0.3521 -0.8161
  831MOL0     H14619   8.922   3.093   6.808  0.8034 -0.5120 -4.5106
  831MOL0     H14620   8.784   3.185   6.865 -1.2323 -0.0973 -1.2411
  831MOL0     H14621   9.043   3.302   6.770 -0.8226 -0.1093 -0.1306
  831MOL0     H14622   8.894   3.398   6.755 -0.3803  1.3381  2.1808
  831MOL0     H14623   8.858   3.380   7.013 -0.8310 -2.4344  0.3161
  831MOL0     H14624   8.996   3.459   6.951  0.7716 -0.2227  0.6920
  831MOL0     H14625   9.015   3.306   7.165 -1.1080  0.2138  0.5568
  831MOL0     H14626   9.001   3.170   7.058 -1.4600  0.5324 -0.0186
  831MOL0     H14627   9.250   3.081   7.031 -1.2067  0.7800  0.9202
  831MOL0     H14628   9.586   3.227   7.019 -0.7069  0.7806 -0.0211
  831MOL0     H14629   9.493   3.076   6.960  4.1335  2.5285 -3.9543
  831MOL0     H14630   9.446   3.009   7.181  0.0377  0.7838  0.9562
  831MOL0     H14631   9.615   2.998   7.157  1.3728 -1.3821  2.0397
  831MOL0     H14632   9.486   3.246   7.283 -0.9585 -1.4199  6.0359
  831MOL0     H14633   9.537   3.102   7.367 -1.1151 -3.0239 -0.3263
  831MOL0     H14634   9.728   3.256   7.197  2.5048  2.9001  2.1990
  831MOL0     H14635   9.695   3.288   7.367  1.3145 -1.3010  1.1647
  831MOL0     H14636   9.936   2.930   7.420  1.4390 -0.8919  1.4295
  831MOL0     H14637  10.264   2.826   7.339  2.1034  1.1954  0.1674
  831MOL0     H14638  10.140   2.809   7.458  1.2255 -0.0436 -1.0828
  831MOL0     H14639  10.286   2.915   7.484  1.8704 -2.9662  1.1230
  831MOL0     H14640  10.584   3.168   7.191  2.3976 -1.6736 -0.5378
  831MOL0     H14641  10.826   3.180   7.249 -0.0053  1.0207 -1.7327
  831MOL0     H14642  11.049   3.388   7.591  2.3995 -1.3672 -1.7577
  831MOL0     H14643  10.922   3.286   7.681  0.5839 -0.5970  0.6517
  831MOL0     H14644  11.177   3.193   7.522  1.9142 -3.1986 -0.2002
  831MOL0     H14645  11.174   3.182   7.699  0.1094  1.2693  0.5604
  831MOL0     H14646  11.017   3.035   7.488 -1.2428 -0.8191  1.5240
  831MOL0     H14647  10.974   3.022   7.661  0.4674  1.7303 -0.4510
  831MOL0     H14648  11.210   2.944   7.705  1.4371  0.4841 -0.0082
  831MOL0     H14649  11.263   2.976   7.541  1.2767  1.9963  2.1089
  831MOL0     H14650  11.065   2.808   7.496 -1.1236  1.8133  1.5143
  831MOL0     H14651  11.232   2.747   7.538  0.4808 -1.1989  0.6037
  831MOL0     H14652  10.996   2.787   7.738 -0.7202  1.2243 -1.7842
  831MOL0     H14653  11.145   2.700   7.774  0.1828  1.9680  0.5298
  831MOL0     H14654  11.068   2.508   7.695 -0.2978  0.8335  0.1353
  831MOL0     H14655  10.996   2.578   7.550  0.6536  3.8615 -0.4343
  831MOL0     H14656  10.805   2.665   7.710 -1.2742  0.0195 -1.5921
  831MOL0     H14657  10.879   2.556   7.836 -2.5079  1.3145  1.0512
  831MOL0     H14658  10.715   3.364   7.630 -2.4323  1.0150  0.2299
  831MOL0     H14659  10.480   3.359   7.537 -2.2097 -0.7426 -2.4005
  831MOL0     H14660  10.181   3.313   7.224  0.6878 -0.7151 -0.1366
  831MOL0     H14661   9.941   3.328   7.246 -0.1248  0.3291  0.9684
  831MOL0     H14662   8.919   3.634   6.376 -0.6349 -1.7562 -0.2322
  831MOL0     H14663   9.124   3.777   6.354 -2.2876 -0.5507  1.3937
  831MOL0     H14664   9.567   3.897   6.067  1.6085 -4.0597 -2.0294
  831MOL0     H14665   9.758   4.062   6.139  1.5254 -0.5034 -0.1851
  831MOL0     H14666   9.996   4.061   6.179 -1.1972 -0.0412 -0.1001
  831MOL0     H14667   9.900   4.187   6.263 -2.3833 -1.3996  1.6524
  831MOL0     H14668  10.076   4.228   6.416  1.6050 -0.2387  1.3090
  831MOL0     H14669  10.163   4.224   6.269 -1.6601 -0.5558 -1.5697
  831MOL0     H14670  10.128   4.033   6.495  1.6816  0.5956  0.6960
  831MOL0     H14671  10.202   3.974   6.341  1.9284  1.0494 -1.1167
  831MOL0     H14672  10.280   4.193   6.534 -2.4392 -0.5579  0.5935
  831MOL0     H14673  10.371   4.155   6.379  0.7509 -2.0500 -1.2082
  831MOL0     H14674  10.510   3.825   6.581  1.4847  0.2985 -0.5071
  831MOL0     H14675   9.820   3.841   6.484  1.4489 -1.8930 -0.8213
  831MOL0     H14676   9.660   3.680   6.562 -2.2321  1.4033  0.7003
  831MOL0     H14677   9.505   3.737   6.508 -0.3513  1.0618 -0.7744
  831MOL0     H14678   9.585   3.580   6.445  1.1583  0.3664 -0.8557
  832MOL0     O14679   9.572   2.686   1.397  0.5081  0.5226  1.2210
  832MOL0     C14680   9.456   2.719   1.404  0.2023 -0.3152  0.5736
  832MOL0     O14681   9.419   2.840   1.457  0.3212 -0.3299 -0.5718
  832MOL0     C14682   9.494   2.952   1.474 -0.1949 -0.1913  0.3846
  832MOL0     C14683   9.571   2.987   1.368 -0.9563 -0.3449  0.1512
  832MOL0     C14684   9.663   3.097   1.368 -0.8472  0.6404 -0.7291
  832MOL0     C14685   9.639   3.190   1.472  0.9511  0.3152  0.1818
  832MOL0     O14686   9.712   3.300   1.452  0.2033 -0.1611  0.5031
  832MOL0     C14687   9.738   3.378   1.571 -0.2097 -0.8021 -1.0440
  832MOL0     C14688   9.626   3.486   1.598 -0.3738  0.3465  0.5284
  832MOL0     C14689   9.687   3.587   1.688  0.1550  0.2286 -0.0189
  832MOL0     C14690   9.619   3.726   1.670 -0.8202  0.7604  0.0422
  832MOL0     C14691   9.707   3.813   1.581  0.0417 -0.1269  0.2335
  832MOL0     C14692   9.650   3.962   1.558 -0.3688  0.4587 -0.3919
  832MOL0     C14693   9.737   4.070   1.487  0.3255  0.6216  0.2442
  832MOL0     C14694   9.632   4.199   1.486  0.0383 -0.4352 -0.7936
  832MOL0     N14695   9.637   4.291   1.370 -0.4820  0.3930 -0.6560
  832MOL0     C14696   9.590   4.264   1.247  0.2531  0.2174  0.2753
  832MOL0     C14697   9.607   4.381   1.177  0.3589 -0.6836 -1.1990
  832MOL0     C14698   9.572   4.398   1.037  0.4681  0.4252  0.5125
  832MOL0     C14699   9.438   4.445   1.024  0.6480  0.3056  0.0527
  832MOL0     C14700   9.423   4.599   1.006 -0.3015 -1.4030 -1.0443
  832MOL0     C14701   9.281   4.649   1.010  0.7128  0.4432  0.1151
  832MOL0     O14702   9.204   4.622   1.128 -0.8044 -0.4525 -0.3690
  832MOL0     C14703   9.069   4.628   1.130  0.6162 -0.4076 -0.9430
  832MOL0     C14704   8.983   4.642   1.018  0.0672  0.4501  0.1435
  832MOL0     C14705   8.842   4.653   1.017 -0.9006 -0.8034 -0.5058
  832MOL0     C14706   8.763   4.661   0.888  0.1830 -0.5652  1.3168
  832MOL0     C14707   8.783   4.665   1.151 -0.4316  0.4744  0.4843
  832MOL0     C14708   8.638   4.680   1.161  0.1530  0.7483 -0.1428
  832MOL0     O14709   8.597   4.799   1.204  0.4910 -0.5090 -0.2456
  832MOL0     C14710   8.458   4.811   1.220  0.4984  0.6352  0.0544
  832MOL0     C14711   8.380   4.754   1.331  0.5187 -0.0989  0.4836
  832MOL0     C14712   8.241   4.784   1.351  0.4674  0.7010  0.8962
  832MOL0     C14713   8.183   4.882   1.267 -0.2546  0.3931 -0.6349
  832MOL0     O14714   8.048   4.914   1.281  0.5691  0.3530  0.1561
  832MOL0     C14715   7.953   4.833   1.201 -0.7050 -0.7330  0.6951
  832MOL0     C14716   7.891   4.706   1.269 -0.4731  0.1720  0.6998
  832MOL0     C14717   7.807   4.729   1.397  0.7239 -0.1068  1.3755
  832MOL0     C14718   7.748   4.593   1.447  1.0557  0.0358 -0.2049
  832MOL0     C14719   7.795   4.547   1.588  0.6637  0.2821  0.0489
  832MOL0     C14720   7.934   4.507   1.581  0.4124  0.3731  0.0280
  832MOL0     C14721   7.985   4.455   1.719  0.7218 -0.2050  0.7373
  832MOL0     C14722   8.117   4.390   1.722 -0.2381 -0.0139  0.4682
  832MOL0    Cl14723   8.112   4.324   1.893  0.2588  0.0527 -0.2071
  832MOL0     C14724   8.252   4.932   1.154 -0.1070 -0.5207 -0.2163
  832MOL0     C14725   8.390   4.901   1.140  0.3298  0.1416  0.1405
  832MOL0     O14726   8.562   4.579   1.136  0.6732  0.5453  0.1509
  832MOL0     C14727   8.868   4.656   1.265  0.5415 -0.1328  0.1161
  832MOL0     C14728   9.004   4.629   1.262 -0.5746  0.0752 -0.3452
  832MOL0     N14729   9.671   4.465   1.257  0.3718 -0.3419 -1.5130
  832MOL0     N14730   9.689   4.416   1.377 -0.6474 -0.7075  0.0074
  832MOL0     C14731   9.559   3.149   1.580 -0.6482  1.0257  0.3440
  832MOL0     C14732   9.481   3.033   1.582 -0.6609  0.1299  0.0990
  832MOL0     C14733   9.349   2.628   1.378  0.2267  0.1861 -0.2916
  832MOL0     C14734   9.248   2.638   1.478 -0.5061  0.2428 -0.2596
  832MOL0     C14735   9.122   2.590   1.461 -0.5325 -0.5099 -0.6151
  832MOL0     C14736   9.082   2.535   1.342 -1.5558  0.4373  0.4155
  832MOL0     O14737   8.954   2.507   1.340  0.8589 -1.1143 -0.8873
  832MOL0     C14738   8.914   2.424   1.226 -0.0970 -0.6389 -0.2875
  832MOL0     C14739   8.960   2.284   1.230 -0.2458  1.3645 -0.5608
  832MOL0     C14740   8.980   2.225   1.091 -0.2471  0.3615  0.8617
  832MOL0     C14741   9.072   2.106   1.071  0.6945  0.3150  0.7739
  832MOL0     C14742   9.206   2.157   1.104 -0.7445  0.1210 -1.5264
  832MOL0     C14743   9.305   2.191   1.165 -0.4761  0.4665  0.9203
  832MOL0     C14744   9.181   2.518   1.243 -0.3373 -0.3827 -0.2180
  832MOL0     C14745   9.316   2.560   1.259 -0.2951  0.9913 -0.6696
  832MOL0     C14746   9.425   2.550   1.152  0.2874  0.3825 -0.3772
  832MOL0     H14747   9.571   2.914   1.287 -1.6713  1.9691 -2.0782
  832MOL0     H14748   9.731   3.105   1.284 -1.1281  1.5587 -0.8792
  832MOL0     H14749   9.828   3.435   1.546  0.8793 -1.0065  1.9571
  832MOL0     H14750   9.765   3.314   1.655  1.3761 -0.6021 -1.3566
  832MOL0     H14751   9.575   3.525   1.509  0.8221 -1.4087 -0.9995
  832MOL0     H14752   9.546   3.435   1.653 -0.9639 -0.2461 -0.8400
  832MOL0     H14753   9.673   3.548   1.789 -1.0432  0.1764 -0.1821
  832MOL0     H14754   9.795   3.600   1.677 -0.0627  1.4140 -1.0702
  832MOL0     H14755   9.514   3.725   1.637 -1.8096  4.2156  2.4192
  832MOL0     H14756   9.621   3.781   1.765  2.5190  1.5390 -0.3839
  832MOL0     H14757   9.723   3.765   1.484 -1.7785 -0.4980  0.0853
  832MOL0     H14758   9.808   3.829   1.620 -0.0589  2.5819 -0.4483
  832MOL0     H14759   9.553   3.955   1.509 -1.2879  0.9452  1.2776
  832MOL0     H14760   9.646   4.009   1.657  0.6767  0.8711 -0.5357
  832MOL0     H14761   9.770   4.045   1.386  0.5427 -0.6622  0.6071
  832MOL0     H14762   9.826   4.097   1.545 -2.5287 -0.2386  5.7936
  832MOL0     H14763   9.526   4.178   1.500  0.0773  1.1433  3.2450
  832MOL0     H14764   9.665   4.259   1.571 -1.5834  0.7042 -0.9268
  832MOL0     H14765   9.561   4.166   1.212  2.2102 -1.1027  2.0903
  832MOL0     H14766   9.582   4.310   0.974 -1.4240  2.3005 -2.6638
  832MOL0     H14767   9.630   4.478   0.992 -0.8753  0.2716 -1.6572
  832MOL0     H14768   9.399   4.406   0.929  1.8773  2.0224 -1.2364
  832MOL0     H14769   9.374   4.408   1.105  1.7268  1.6302  1.5541
  832MOL0     H14770   9.483   4.658   1.076  0.8178 -0.7200 -2.5278
  832MOL0     H14771   9.464   4.630   0.910  0.1907 -2.9970 -1.3942
  832MOL0     H14772   9.290   4.757   0.996 -1.3243  0.3009 -3.6506
  832MOL0     H14773   9.235   4.608   0.919 -0.8509  3.3337 -0.5380
  832MOL0     H14774   9.041   4.670   0.931  2.1297  2.3755  2.0110
  832MOL0     H14775   8.823   4.650   0.797 -2.3285  3.3802 -1.0840
  832MOL0     H14776   8.695   4.746   0.877 -0.8082 -1.6252 -2.0910
  832MOL0     H14777   8.693   4.576   0.892 -1.3021  0.5628  0.2894
  832MOL0     H14778   8.440   4.688   1.392  1.2638  2.6959  3.0286
  832MOL0     H14779   8.178   4.740   1.428  1.0187  0.1276  1.0290
  832MOL0     H14780   7.870   4.902   1.187  1.5258  2.0700  0.3103
  832MOL0     H14781   8.000   4.820   1.103  1.3216  2.8065  1.0028
  832MOL0     H14782   7.828   4.660   1.191  1.7784  1.3756 -1.9977
  832MOL0     H14783   7.961   4.626   1.294 -0.1523  0.5396  0.9715
  832MOL0     H14784   7.724   4.795   1.369  0.7669 -1.5606 -2.9408
  832MOL0     H14785   7.855   4.769   1.487 -3.4779  1.5661  3.1790
  832MOL0     H14786   7.761   4.511   1.376 -1.5428  0.6526 -1.5238
  832MOL0     H14787   7.643   4.622   1.457  1.6749  2.7969 -0.6306
  832MOL0     H14788   7.773   4.637   1.645 -0.9377  3.6904 -5.1658
  832MOL0     H14789   7.738   4.458   1.614  0.8601 -0.6484 -2.3705
  832MOL0     H14790   7.995   4.595   1.563  0.3716  0.6178  1.0313
  832MOL0     H14791   7.947   4.430   1.505  1.8716  1.9352 -1.3716
  832MOL0     H14792   7.909   4.381   1.746 -0.5488  0.6266 -0.4128
  832MOL0     H14793   7.989   4.541   1.786  0.7960  1.4931 -1.3438
  832MOL0     H14794   8.196   4.462   1.700  0.5353  0.0513  3.2017
  832MOL0     H14795   8.121   4.308   1.649 -5.2909  0.0647 -0.3309
  832MOL0     H14796   8.200   5.003   1.091 -0.1176  1.5643  1.9686
  832MOL0     H14797   8.439   4.940   1.051 -3.0854  2.1453 -1.0613
  832MOL0     H14798   8.816   4.656   1.360  3.0946  0.3050  1.6077
  832MOL0     H14799   9.057   4.614   1.356  2.1293 -1.1511 -1.9554
  832MOL0     H14800   9.539   3.217   1.663  1.6952 -0.6509  2.4301
  832MOL0     H14801   9.409   3.010   1.659  0.3500  0.1587  1.0749
  832MOL0     H14802   9.273   2.679   1.575 -0.1282  0.0863 -0.2921
  832MOL0     H14803   9.052   2.598   1.543 -3.2349  0.0408 -2.8230
  832MOL0     H14804   8.806   2.417   1.218 -0.3926  1.6198  0.7748
  832MOL0     H14805   8.944   2.481   1.138 -1.6407 -1.1027 -1.1311
  832MOL0     H14806   8.890   2.219   1.283  1.6423 -1.9905 -1.8398
  832MOL0     H14807   9.057   2.271   1.278 -0.6672 -2.1407 -0.4252
  832MOL0     H14808   8.887   2.190   1.046 -0.3419  0.6292  0.8468
  832MOL0     H14809   9.021   2.303   1.025 -1.7036  0.2319 -0.2421
  832MOL0     H14810   9.066   2.072   0.968  0.9789 -2.0490  1.4729
  832MOL0     H14811   9.030   2.024   1.130  2.6468 -2.4232 -1.3679
  832MOL0     H14812   9.401   2.200   1.210  0.5533  0.7963 -1.2456
  832MOL0     H14813   9.158   2.473   1.147 -3.0285  0.1807  0.0913
  832MOL0     H14814   9.456   2.446   1.162  0.5823  0.3686 -1.3102
  832MOL0     H14815   9.367   2.573   1.062 -1.1564  0.2866  0.4953
  832MOL0     H14816   9.507   2.623   1.159 -1.0531  2.0543 -1.2705
  833MOL0     O14817  10.611   3.007   5.990 -0.1793 -0.2044 -0.1929
  833MOL0     C14818  10.705   3.081   5.949 -0.2876  0.2232  0.7000
  833MOL0     O14819  10.725   3.210   5.981  0.7088  0.3121  0.0927
  833MOL0     C14820  10.628   3.252   6.073  0.6691  0.2066  1.0485
  833MOL0     C14821  10.669   3.271   6.200 -0.0783  0.5080 -0.3009
  833MOL0     C14822  10.581   3.304   6.300 -0.5486  0.0144 -0.2509
  833MOL0     C14823  10.455   3.340   6.260 -0.3983 -0.5458 -0.4642
  833MOL0     O14824  10.378   3.379   6.374  0.0215 -0.3387 -0.5559
  833MOL0     C14825  10.240   3.378   6.371  0.6411  0.2851 -0.0563
  833MOL0     C14826  10.178   3.470   6.464 -0.4369  1.1016 -0.5241
  833MOL0     C14827  10.233   3.624   6.439 -0.4238 -0.1763  0.5087
  833MOL0     C14828  10.163   3.735   6.522  0.2393 -0.7026 -0.9774
  833MOL0     C14829  10.194   3.711   6.669 -0.3331 -0.3095  0.0934
  833MOL0     C14830  10.136   3.812   6.765  0.9686 -0.2254  0.4557
  833MOL0     C14831  10.191   3.794   6.903  1.1331 -0.6109  1.6026
  833MOL0     C14832  10.160   3.919   6.983  0.2906 -0.4542 -0.5334
  833MOL0     N14833  10.201   3.900   7.124  0.4198  0.6606 -1.2309
  833MOL0     C14834  10.190   3.781   7.195  0.4460  1.2185  1.1558
  833MOL0     C14835  10.283   3.787   7.286 -0.2942 -0.3130 -0.2722
  833MOL0     C14836  10.306   3.663   7.377 -0.0754 -0.2179  0.5693
  833MOL0     C14837  10.181   3.581   7.408  0.0332  0.9427 -0.2100
  833MOL0     C14838  10.204   3.480   7.516  1.4105 -0.1768  0.6892
  833MOL0     C14839  10.072   3.419   7.558 -0.0487  0.4115 -0.6353
  833MOL0     O14840   9.991   3.523   7.621 -0.3944  0.1296  0.0107
  833MOL0     C14841   9.867   3.483   7.654 -0.1279 -0.3231  0.0985
  833MOL0     C14842   9.824   3.342   7.657 -0.6510 -0.2557 -0.8557
  833MOL0     C14843   9.695   3.314   7.691 -0.1392  0.0193 -0.2997
  833MOL0     C14844   9.667   3.166   7.715  0.5150 -0.4550 -0.0749
  833MOL0     C14845   9.594   3.411   7.702 -0.3968 -1.1087 -0.6988
  833MOL0     C14846   9.455   3.382   7.715  0.2863  0.5294  0.0842
  833MOL0     O14847   9.397   3.451   7.825 -0.1844  0.5830  0.4569
  833MOL0     C14848   9.270   3.407   7.868  0.6645 -0.7886  0.3058
  833MOL0     C14849   9.262   3.279   7.933  0.1334  0.3687  0.4602
  833MOL0     C14850   9.143   3.219   7.970  0.4938  0.0663  0.5528
  833MOL0     C14851   9.022   3.286   7.953  0.8071 -0.5458 -0.2568
  833MOL0     O14852   8.909   3.227   7.993 -0.3935 -0.7996 -0.0085
  833MOL0     C14853   8.794   3.316   8.009 -0.4374  0.2369  1.0209
  833MOL0     C14854   8.685   3.240   8.070  0.8643  0.3674 -0.2233
  833MOL0     C14855   8.548   3.316   8.063  0.1441 -1.2886  0.1523
  833MOL0     C14856   8.463   3.285   8.178  0.9976  0.3566 -0.9380
  833MOL0     C14857   8.316   3.321   8.156 -0.0583 -0.1831  0.0726
  833MOL0     C14858   8.232   3.276   8.275 -0.1804 -0.2711 -0.0042
  833MOL0     C14859   8.084   3.257   8.229 -0.6240 -0.5144 -0.2568
  833MOL0     C14860   8.001   3.378   8.280  0.3226  0.6308 -0.3663
  833MOL0    Cl14861   7.977   3.383   8.458 -0.0557 -0.1380  0.1530
  833MOL0     C14862   9.033   3.410   7.879 -0.3748 -0.0407 -0.8268
  833MOL0     C14863   9.148   3.467   7.837 -0.6378 -0.6907  0.3880
  833MOL0     O14864   9.403   3.298   7.640  0.1568  0.2476 -0.1421
  833MOL0     C14865   9.634   3.549   7.703  0.0911 -1.0708 -0.6377
  833MOL0     C14866   9.773   3.585   7.678  0.4878  0.6537 -0.8796
  833MOL0     N14867  10.349   3.904   7.286 -0.1420 -0.4640  0.3083
  833MOL0     N14868  10.308   3.972   7.182 -0.2280 -0.0499  0.0943
  833MOL0     C14869  10.416   3.341   6.127  0.5221  0.8649 -0.0940
  833MOL0     C14870  10.506   3.287   6.034  0.6272  0.0115  0.3976
  833MOL0     C14871  10.807   3.017   5.862  0.9231 -0.4413 -0.8699
  833MOL0     C14872  10.837   3.099   5.756 -0.4739 -0.5352 -0.3056
  833MOL0     C14873  10.931   3.058   5.661  0.1087 -0.0232 -0.5655
  833MOL0     C14874  10.992   2.937   5.670 -0.4925 -0.5147  0.1234
  833MOL0     O14875  11.089   2.899   5.581 -0.0062 -0.1942  0.0765
  833MOL0     C14876  11.181   2.995   5.526 -0.0276 -0.0587  0.1637
  833MOL0     C14877  11.330   2.950   5.519  0.6495 -0.2731 -0.3107
  833MOL0     C14878  11.414   3.040   5.435 -1.0686 -0.4670 -0.7226
  833MOL0     C14879  11.555   2.988   5.440  0.0334  0.0651  0.9807
  833MOL0     C14880  11.648   3.063   5.357  0.7308 -0.0853 -0.2414
  833MOL0     C14881  11.712   3.132   5.293 -0.3152 -0.4960  0.5010
  833MOL0     C14882  10.969   2.867   5.785 -0.3333 -0.6685 -0.5266
  833MOL0     C14883  10.889   2.905   5.893 -0.9672  0.1409 -0.2043
  833MOL0     C14884  10.854   2.814   6.014 -0.7418  0.7555  1.1109
  833MOL0     H14885  10.775   3.258   6.224  0.0598  1.6564 -0.2050
  833MOL0     H14886  10.600   3.309   6.407 -1.6097 -1.9672  0.0847
  833MOL0     H14887  10.200   3.278   6.390  1.0223  0.0833 -0.2882
  833MOL0     H14888  10.200   3.403   6.272 -0.3215 -0.2896  0.1749
  833MOL0     H14889  10.069   3.468   6.457 -0.4876  2.9962 -0.8168
  833MOL0     H14890  10.214   3.435   6.561  1.1178 -0.6496 -1.6499
  833MOL0     H14891  10.341   3.610   6.449 -0.4916 -1.2614 -0.0922
  833MOL0     H14892  10.214   3.643   6.333 -0.1616 -1.4497  0.2087
  833MOL0     H14893  10.217   3.826   6.495 -2.9426  1.7766  0.3260
  833MOL0     H14894  10.054   3.738   6.511  0.3532 -0.9493 -2.4826
  833MOL0     H14895  10.302   3.708   6.689 -0.7798 -0.7223  2.6713
  833MOL0     H14896  10.144   3.616   6.687 -1.3417 -0.4821 -3.0088
  833MOL0     H14897  10.155   3.912   6.723  1.6346 -1.3622 -2.1848
  833MOL0     H14898  10.028   3.799   6.766  0.9449 -2.0100 -3.7224
  833MOL0     H14899  10.297   3.779   6.879  1.2301  0.3903  1.3221
  833MOL0     H14900  10.150   3.701   6.944 -2.5714 -0.8418 -1.9543
  833MOL0     H14901  10.216   4.002   6.940  1.0782 -1.6204 -1.8276
  833MOL0     H14902  10.054   3.947   6.981  0.5390  0.6310  0.2913
  833MOL0     H14903  10.130   3.693   7.170 -1.4416  2.4036  1.3009
  833MOL0     H14904  10.347   3.701   7.471 -0.6394 -1.0192  1.1569
  833MOL0     H14905  10.380   3.599   7.329 -0.0565  0.8197 -0.8328
  833MOL0     H14906  10.099   3.644   7.442 -0.1513 -0.2859  1.8060
  833MOL0     H14907  10.145   3.525   7.321 -0.6783 -1.6068  1.6186
  833MOL0     H14908  10.270   3.402   7.478 -2.3954 -2.7888 -1.1470
  833MOL0     H14909  10.255   3.520   7.604 -1.2597 -1.1642  2.8219
  833MOL0     H14910  10.023   3.382   7.467 -3.3379  0.9789  0.7507
  833MOL0     H14911  10.110   3.336   7.617  3.8927  2.4738  0.0719
  833MOL0     H14912   9.893   3.260   7.640  2.1662  1.3980  1.6247
  833MOL0     H14913   9.754   3.112   7.753 -0.6360 -0.8067  2.2849
  833MOL0     H14914   9.644   3.129   7.615 -1.5778  0.6479 -0.0645
  833MOL0     H14915   9.579   3.145   7.777  1.5835 -1.0915  1.2740
  833MOL0     H14916   9.354   3.230   7.962 -0.7750 -2.5311 -1.1799
  833MOL0     H14917   9.153   3.125   8.022 -0.3273  0.9778  2.4420
  833MOL0     H14918   8.816   3.405   8.069  1.0586  0.1075  0.7003
  833MOL0     H14919   8.759   3.346   7.909 -0.4489 -3.5252 -0.2621
  833MOL0     H14920   8.673   3.144   8.019  2.4327 -0.4684  0.8582
  833MOL0     H14921   8.699   3.208   8.174  1.5722 -2.0762 -0.9826
  833MOL0     H14922   8.491   3.307   7.971 -0.7206 -0.2470  0.5597
  833MOL0     H14923   8.571   3.422   8.051  1.1577 -1.7939 -3.3541
  833MOL0     H14924   8.498   3.343   8.264  0.4269  2.1559 -1.8828
  833MOL0     H14925   8.466   3.177   8.197  1.2236  0.2606 -1.4997
  833MOL0     H14926   8.312   3.430   8.144 -0.1071 -0.2703 -0.8024
  833MOL0     H14927   8.289   3.273   8.061  0.7478  0.1809 -0.3545
  833MOL0     H14928   8.243   3.328   8.371 -2.1537  0.6086 -0.2140
  833MOL0     H14929   8.263   3.178   8.314  0.5205  0.1703  0.5797
  833MOL0     H14930   8.031   3.167   8.263  1.9938 -0.8346  3.5633
  833MOL0     H14931   8.082   3.262   8.119 -1.9607  2.4524 -0.1876
  833MOL0     H14932   7.900   3.371   8.239 -0.5481 -2.2293  1.8896
  833MOL0     H14933   8.049   3.474   8.260 -0.1937  1.6933  3.0037
  833MOL0     H14934   8.944   3.464   7.848  0.5345  1.4020 -1.0496
  833MOL0     H14935   9.168   3.548   7.768 -0.3018 -1.6570 -0.6839
  833MOL0     H14936   9.562   3.630   7.705  1.4232  0.1305 -0.2987
  833MOL0     H14937   9.803   3.689   7.680 -0.3559  0.9064  0.6202
  833MOL0     H14938  10.322   3.377   6.086  0.3632  0.1507 -0.3666
  833MOL0     H14939  10.485   3.284   5.928 -0.0865 -1.2721  0.5587
  833MOL0     H14940  10.778   3.189   5.743  2.0030  1.6267  2.1913
  833MOL0     H14941  10.946   3.124   5.576  0.3596 -0.4106 -0.8250
  833MOL0     H14942  11.141   3.000   5.424  0.8718 -2.3715 -0.3583
  833MOL0     H14943  11.172   3.089   5.582 -0.3303  0.9461 -1.4996
  833MOL0     H14944  11.336   2.856   5.462 -0.5411  0.8395 -2.4019
  833MOL0     H14945  11.378   2.933   5.616 -0.2646 -0.7594  0.0667
  833MOL0     H14946  11.369   3.026   5.336 -0.7654  0.1174 -0.9475
  833MOL0     H14947  11.415   3.144   5.470  3.8658  0.0267 -1.5164
  833MOL0     H14948  11.558   2.881   5.419  3.0800  0.2519 -0.0487
  833MOL0     H14949  11.597   2.991   5.542  0.1468 -2.7426  1.0747
  833MOL0     H14950  11.766   3.206   5.238 -0.8356 -0.7093 -0.3144
  833MOL0     H14951  11.006   2.765   5.792 -0.8111 -0.7293  1.7007
  833MOL0     H14952  10.759   2.766   5.991 -0.3464 -0.7683  2.4922
  833MOL0     H14953  10.932   2.739   6.032  0.7371  1.4856 -1.5187
  833MOL0     H14954  10.848   2.889   6.093  3.1684  1.9977  0.4757
  834MOL0     O14955   5.823   8.556   4.470  0.1688 -0.3879  0.0004
  834MOL0     C14956   5.872   8.529   4.363 -0.0403  0.3011  0.1642
  834MOL0     O14957   5.844   8.583   4.241 -0.2523  0.1192  0.2297
  834MOL0     C14958   5.758   8.691   4.246  0.4587  0.1042 -0.7534
  834MOL0     C14959   5.811   8.820   4.215 -0.0258 -1.3018  1.0386
  834MOL0     C14960   5.731   8.936   4.209  0.6198  0.0448 -0.3342
  834MOL0     C14961   5.587   8.916   4.220 -0.5310 -0.1090  0.5959
  834MOL0     O14962   5.508   9.028   4.220  0.5949  0.7098 -0.3518
  834MOL0     C14963   5.494   9.087   4.350 -0.6486  0.1414  0.1415
  834MOL0     C14964   5.591   9.211   4.373  1.3217  0.9244  0.1595
  834MOL0     C14965   5.602   9.253   4.520 -0.5349 -0.3478  0.3549
  834MOL0     C14966   5.636   9.401   4.533 -0.2849 -0.2859  0.8386
  834MOL0     C14967   5.702   9.433   4.672  0.7824  0.2675  0.5814
  834MOL0     C14968   5.765   9.581   4.652  0.5726 -0.1416 -0.2369
  834MOL0     C14969   5.798   9.650   4.785 -0.1564 -0.7909  0.2054
  834MOL0     C14970   5.937   9.603   4.843  1.2754 -0.9228 -0.2058
  834MOL0     N14971   5.928   9.582   4.994  0.3488 -0.2117  0.9479
  834MOL0     C14972   5.959   9.472   5.069 -0.3906 -0.7274  0.0435
  834MOL0     C14973   5.942   9.516   5.198  0.3360  0.6411  0.3844
  834MOL0     C14974   5.973   9.421   5.316  0.0888  0.6502  0.4731
  834MOL0     C14975   5.894   9.477   5.435 -0.2123 -0.3012  0.2999
  834MOL0     C14976   5.928   9.392   5.563 -0.6989 -0.0968 -0.4458
  834MOL0     C14977   5.838   9.428   5.678 -0.3360 -0.0401  0.6128
  834MOL0     O14978   5.899   9.388   5.792  0.2019 -0.5472 -0.5690
  834MOL0     C14979   5.863   9.442   5.908 -0.2489  0.5629 -0.1316
  834MOL0     C14980   5.782   9.544   5.934 -0.1032 -0.4604  0.2622
  834MOL0     C14981   5.738   9.586   6.058 -0.3812 -0.6541 -0.6132
  834MOL0     C14982   5.645   9.692   6.068  0.6547 -0.5810  0.4714
  834MOL0     C14983   5.777   9.505   6.168  0.4184 -0.8873 -1.1097
  834MOL0     C14984   5.713   9.521   6.307 -1.0326  0.3329  0.7437
  834MOL0     O14985   5.575   9.557   6.325  0.1114  0.1175  0.1149
  834MOL0     C14986   5.531   9.552   6.456 -0.2441  0.0235  0.0447
  834MOL0     C14987   5.486   9.678   6.508  0.2250  0.3842 -0.2552
  834MOL0     C14988   5.434   9.663   6.644  0.0841  0.0504 -0.2563
  834MOL0     C14989   5.442   9.541   6.713  0.0987  0.2306 -0.2762
  834MOL0     O14990   5.398   9.516   6.841 -0.7527  0.3052 -0.3543
  834MOL0     C14991   5.257   9.534   6.852  0.5147 -0.0367  0.0357
  834MOL0     C14992   5.212   9.494   6.987 -0.8356  0.8916  0.2243
  834MOL0     C14993   5.058   9.467   7.002 -0.9879 -0.0368 -0.5043
  834MOL0     C14994   5.019   9.430   7.147 -0.3160  0.2344 -0.2310
  834MOL0     C14995   4.877   9.461   7.178 -0.5896  0.2421  0.4548
  834MOL0     C14996   4.779   9.397   7.075 -1.1339 -0.2925  0.6884
  834MOL0     C14997   4.637   9.447   7.097 -0.0968  0.5647 -0.6069
  834MOL0     C14998   4.579   9.488   6.974 -0.0533 -0.4312  0.4523
  834MOL0    Cl14999   4.401   9.494   6.978  0.2908  0.3179 -0.0504
  834MOL0     C15000   5.509   9.432   6.659  0.6283  0.5480  0.1497
  834MOL0     C15001   5.548   9.434   6.524  0.1425 -0.3422 -0.3452
  834MOL0     O15002   5.797   9.500   6.396 -0.3577 -0.2197  0.1711
  834MOL0     C15003   5.866   9.404   6.146  0.5079 -0.3338 -0.4798
  834MOL0     C15004   5.906   9.366   6.019 -0.4639  1.0318 -0.5759
  834MOL0     N15005   5.884   9.646   5.196  0.4066  1.1507  0.5017
  834MOL0     N15006   5.900   9.687   5.078  0.1680  0.0565 -0.5327
  834MOL0     C15007   5.536   8.788   4.215 -0.1032  0.2146 -0.4644
  834MOL0     C15008   5.621   8.674   4.219  0.9842 -0.4179 -0.7527
  834MOL0     C15009   5.998   8.449   4.354  0.0370  0.0023 -0.4693
  834MOL0     C15010   6.043   8.416   4.224  0.1008  0.7089  0.2370
  834MOL0     C15011   6.159   8.340   4.192  0.2326 -0.4859 -0.0917
  834MOL0     C15012   6.239   8.309   4.294 -0.5630  0.2453  0.5340
  834MOL0     O15013   6.357   8.250   4.259  0.2669  0.2739  0.3060
  834MOL0     C15014   6.392   8.134   4.329 -0.3178 -0.2636  1.2199
  834MOL0     C15015   6.462   8.028   4.246  0.4163  0.3561  0.5103
  834MOL0     C15016   6.370   7.963   4.134  0.0285 -0.9143 -0.4900
  834MOL0     C15017   6.423   7.835   4.061 -0.0154  0.3440 -0.3687
  834MOL0     C15018   6.330   7.787   3.956 -0.4855  0.4281  0.0587
  834MOL0     C15019   6.259   7.746   3.870  0.4047  0.3113 -0.0547
  834MOL0     C15020   6.198   8.335   4.425  1.0983 -0.2170 -0.0925
  834MOL0     C15021   6.081   8.416   4.461  0.2803  0.3939  0.5243
  834MOL0     C15022   6.050   8.428   4.605  0.1976  0.6584 -0.1205
  834MOL0     H15023   5.918   8.836   4.204  0.0600 -3.1600 -2.0206
  834MOL0     H15024   5.789   9.023   4.183  0.9232 -0.0634 -0.0183
  834MOL0     H15025   5.507   9.012   4.428  0.1420 -1.3355 -1.3362
  834MOL0     H15026   5.390   9.119   4.343 -1.0049 -1.3142 -3.6022
  834MOL0     H15027   5.691   9.190   4.333  2.0167 -0.0500  2.2430
  834MOL0     H15028   5.558   9.299   4.317  3.8624  1.4797 -0.6070
  834MOL0     H15029   5.513   9.239   4.581 -1.0116 -1.0970 -0.4934
  834MOL0     H15030   5.680   9.196   4.572 -2.1375 -2.8006  0.2121
  834MOL0     H15031   5.714   9.423   4.459 -0.9793 -1.0899 -0.1690
  834MOL0     H15032   5.555   9.466   4.500  1.5934  2.1106  0.6487
  834MOL0     H15033   5.780   9.358   4.690  0.1318 -1.2365 -2.2849
  834MOL0     H15034   5.621   9.439   4.746  0.5157  2.9162  0.1720
  834MOL0     H15035   5.858   9.576   4.594  1.0316  1.0785  0.3588
  834MOL0     H15036   5.688   9.645   4.609  0.1077 -1.4779 -1.5153
  834MOL0     H15037   5.716   9.613   4.847 -1.7516 -1.8014 -2.3308
  834MOL0     H15038   5.781   9.758   4.783 -1.9474 -1.0401  0.3147
  834MOL0     H15039   5.981   9.513   4.799  4.8342  0.9679 -0.8242
  834MOL0     H15040   5.993   9.693   4.817 -0.3873 -0.0967 -1.1317
  834MOL0     H15041   5.989   9.369   5.052 -1.0533 -0.4318 -3.6952
  834MOL0     H15042   6.080   9.419   5.334  0.0328 -0.6804  0.7693
  834MOL0     H15043   5.929   9.322   5.302 -1.1043  0.5661  3.9806
  834MOL0     H15044   5.939   9.576   5.450  1.3102 -1.2391  2.6447
  834MOL0     H15045   5.787   9.468   5.418 -0.1023  0.2227 -0.7280
  834MOL0     H15046   5.925   9.283   5.552  1.1729 -0.2770  0.3737
  834MOL0     H15047   6.032   9.408   5.596 -0.8640  0.1879 -0.0559
  834MOL0     H15048   5.842   9.537   5.674  0.9966 -0.0764  0.3399
  834MOL0     H15049   5.734   9.405   5.653 -0.2429  0.1130  0.0559
  834MOL0     H15050   5.749   9.596   5.845  1.7491  0.7285  0.2349
  834MOL0     H15051   5.650   9.768   5.990 -1.6232  0.4215  1.2122
  834MOL0     H15052   5.654   9.743   6.165 -1.0470  2.3099 -0.7541
  834MOL0     H15053   5.548   9.646   6.050  1.5584 -1.8649 -1.4428
  834MOL0     H15054   5.474   9.768   6.450 -2.9111  1.7156  2.1397
  834MOL0     H15055   5.388   9.752   6.685  3.4093  1.1046  1.5166
  834MOL0     H15056   5.234   9.639   6.833 -0.9077 -0.3431 -0.0023
  834MOL0     H15057   5.217   9.464   6.779  3.3250 -2.2756  0.4673
  834MOL0     H15058   5.252   9.392   7.000  0.3915  0.1402 -6.1466
  834MOL0     H15059   5.252   9.562   7.062  0.6153 -1.1336  1.4146
  834MOL0     H15060   5.029   9.382   6.940  1.0125 -0.8040 -0.4596
  834MOL0     H15061   5.017   9.563   6.968 -0.5061  1.5333  2.9412
  834MOL0     H15062   5.070   9.490   7.223  1.2411 -1.3821  0.0564
  834MOL0     H15063   5.055   9.330   7.170 -0.4603 -0.1256 -1.5026
  834MOL0     H15064   4.868   9.416   7.277  1.7332 -2.3533 -0.3781
  834MOL0     H15065   4.858   9.569   7.184  1.1580  0.7426 -1.4786
  834MOL0     H15066   4.782   9.288   7.070  0.0288 -0.3107 -5.3335
  834MOL0     H15067   4.810   9.428   6.975 -0.4815 -0.3898  0.8535
  834MOL0     H15068   4.623   9.530   7.167 -2.4965 -1.0052  0.9119
  834MOL0     H15069   4.581   9.372   7.154  0.6993 -0.2003 -0.8157
  834MOL0     H15070   4.604   9.420   6.892  1.0068  0.7573 -0.2497
  834MOL0     H15071   4.607   9.588   6.940  0.0439  0.0317  1.8012
  834MOL0     H15072   5.524   9.339   6.713  0.9134 -1.0994 -2.5569
  834MOL0     H15073   5.590   9.347   6.474  1.6116  0.2368 -0.1758
  834MOL0     H15074   5.887   9.327   6.219  0.2044  0.3852  0.3941
  834MOL0     H15075   5.969   9.277   6.022 -1.1068  0.5373 -1.4153
  834MOL0     H15076   5.429   8.775   4.228 -0.1647  2.2557  1.7054
  834MOL0     H15077   5.582   8.574   4.204  0.3647  0.1642 -3.7003
  834MOL0     H15078   5.988   8.447   4.135 -1.7196  1.2954  1.5121
  834MOL0     H15079   6.178   8.318   4.088  1.7624  4.1446 -0.9852
  834MOL0     H15080   6.467   8.175   4.398  2.2421  0.5412 -1.7935
  834MOL0     H15081   6.318   8.078   4.387 -1.3165 -0.8149 -0.5352
  834MOL0     H15082   6.500   7.951   4.314 -0.2925  2.0378  2.9257
  834MOL0     H15083   6.550   8.068   4.196  0.9088 -1.3300 -0.0585
  834MOL0     H15084   6.271   7.941   4.174  0.7011 -1.1234  1.1609
  834MOL0     H15085   6.370   8.040   4.057  1.3851  1.2835  1.5469
  834MOL0     H15086   6.430   7.758   4.138 -0.3651  0.8309  0.1590
  834MOL0     H15087   6.521   7.855   4.017  1.0567  2.7303  2.7538
  834MOL0     H15088   6.166   7.721   3.821 -1.6581  3.4437  1.9224
  834MOL0     H15089   6.246   8.281   4.506 -0.0810 -1.0550  0.0881
  834MOL0     H15090   6.142   8.414   4.663  0.2538 -2.5612 -0.7715
  834MOL0     H15091   5.993   8.517   4.631 -0.7451 -0.4934  2.1354
  834MOL0     H15092   5.996   8.339   4.641  0.1422  1.3808  1.6984
  835MOL0     O15093   3.769   5.203  10.923  0.6251 -0.5089 -0.3364
  835MOL0     C15094   3.745   5.152  11.032 -0.5376 -0.2389 -0.4696
  835MOL0     O15095   3.775   5.198  11.160  0.3909  1.0166 -0.7883
  835MOL0     C15096   3.832   5.321  11.183 -1.5741 -0.4527  0.3599
  835MOL0     C15097   3.843   5.349  11.321  0.2571  0.1110  0.4840
  835MOL0     C15098   3.883   5.477  11.366 -0.0421  0.0416 -0.3804
  835MOL0     C15099   3.932   5.564  11.271  0.3482  0.0974 -0.5296
  835MOL0     O15100   3.992   5.674  11.331  1.0909 -0.2958 -0.7845
  835MOL0     C15101   4.083   5.754  11.244  0.0493  0.7085 -0.2359
  835MOL0     C15102   4.181   5.837  11.329 -0.0437  0.1445  0.3754
  835MOL0     C15103   4.232   5.730  11.424  0.0280 -0.7270  0.8086
  835MOL0     C15104   4.354   5.767  11.496 -0.3715  0.2319  0.0879
  835MOL0     C15105   4.331   5.815  11.640 -0.2421  0.3737  0.4349
  835MOL0     C15106   4.269   5.955  11.644  1.0655  0.4154  0.2437
  835MOL0     C15107   4.227   5.980  11.784  0.0683  0.6989 -0.2000
  835MOL0     C15108   4.109   5.912  11.825 -0.5834 -0.1943 -0.2493
  835MOL0     N15109   4.069   5.974  11.950  1.0906  0.4137 -1.0215
  835MOL0     C15110   4.084   5.915  12.080 -0.3757  0.3380 -0.1278
  835MOL0     C15111   4.016   6.003  12.162 -1.4352 -0.1353  0.3978
  835MOL0     C15112   4.007   5.988  12.305  0.1922  0.0980 -0.2123
  835MOL0     C15113   4.146   6.008  12.373 -0.7860 -0.4627 -0.3389
  835MOL0     C15114   4.230   6.140  12.361 -0.0183 -0.4817 -0.1708
  835MOL0     C15115   4.354   6.133  12.440  0.5334 -0.0521 -0.3908
  835MOL0     O15116   4.468   6.054  12.403 -1.1465 -0.0379 -0.3569
  835MOL0     C15117   4.522   6.061  12.282 -0.7296  0.7873  0.5856
  835MOL0     C15118   4.580   6.178  12.230 -1.6004 -0.4888  0.1319
  835MOL0     C15119   4.637   6.195  12.106  0.4162  0.6073  0.7102
  835MOL0     C15120   4.683   6.331  12.055  0.1172  0.2415 -0.1465
  835MOL0     C15121   4.620   6.078  12.021  0.3221 -0.5906  0.0261
  835MOL0     C15122   4.668   6.066  11.879 -0.3420  0.0701  0.2489
  835MOL0     O15123   4.640   6.168  11.784  0.4803 -1.3103 -1.0367
  835MOL0     C15124   4.661   6.156  11.651  0.2038  0.5339 -0.0735
  835MOL0     C15125   4.649   6.030  11.574  1.3136 -0.2851 -0.1509
  835MOL0     C15126   4.661   6.043  11.439 -0.5043  0.1605  0.5707
  835MOL0     C15127   4.692   6.158  11.374 -0.0681  0.2201 -0.7183
  835MOL0     O15128   4.686   6.155  11.238  0.6085 -0.0084  1.0285
  835MOL0     C15129   4.710   6.286  11.166 -0.6928 -0.6029 -0.6983
  835MOL0     C15130   4.691   6.291  11.012 -0.3117  0.1285  0.3009
  835MOL0     C15131   4.542   6.317  10.985 -0.5793  0.4028 -0.5829
  835MOL0     C15132   4.518   6.322  10.837  0.2337 -0.1740 -0.1479
  835MOL0     C15133   4.363   6.304  10.803 -0.5950  0.3317 -0.9017
  835MOL0     C15134   4.350   6.289  10.651  0.4820  0.3761 -0.7246
  835MOL0     C15135   4.195   6.258  10.626 -0.1053 -0.2790  0.4681
  835MOL0     C15136   4.185   6.255  10.474 -0.3513  0.4263  0.1605
  835MOL0    Cl15137   4.157   6.421  10.411 -0.0409  0.2288  0.1223
  835MOL0     C15138   4.709   6.276  11.446  0.2490 -0.6114  0.9925
  835MOL0     C15139   4.692   6.274  11.581  0.1134  0.6057 -0.2520
  835MOL0     O15140   4.735   5.965  11.855 -0.1280 -0.1184 -0.0329
  835MOL0     C15141   4.542   5.965  12.063 -0.0616 -0.3927 -0.4379
  835MOL0     C15142   4.496   5.952  12.199  0.3728 -0.4808  0.0277
  835MOL0     N15143   3.952   6.101  12.083  0.4343  0.8568 -0.4463
  835MOL0     N15144   3.977   6.077  11.961  0.8188  0.5696  0.1475
  835MOL0     C15145   3.921   5.545  11.133  0.3277  0.2943  0.3681
  835MOL0     C15146   3.873   5.419  11.088  0.3077 -0.4639 -0.2341
  835MOL0     C15147   3.677   5.016  11.021 -0.7527  0.0062  0.3060
  835MOL0     C15148   3.539   5.005  11.053 -0.4568 -0.5204  0.3098
  835MOL0     C15149   3.469   4.887  11.040 -0.0266  0.0444 -0.4150
  835MOL0     C15150   3.536   4.776  10.989  0.4574  0.0959 -0.3270
  835MOL0     O15151   3.468   4.659  10.954  0.1893 -0.3600  0.0018
  835MOL0     C15152   3.461   4.637  10.814 -0.4100 -0.8016  0.2785
  835MOL0     C15153   3.332   4.703  10.761 -0.4209  0.7133 -0.8749
  835MOL0     C15154   3.321   4.680  10.606  0.2298  0.0419 -0.4407
  835MOL0     C15155   3.209   4.760  10.553  0.6177 -0.6763 -0.1614
  835MOL0     C15156   3.234   4.812  10.419 -0.5613  0.3507 -0.6242
  835MOL0     C15157   3.262   4.844  10.310  0.5214  1.0976  0.1168
  835MOL0     C15158   3.673   4.781  10.968 -0.2988  0.0175 -0.0533
  835MOL0     C15159   3.747   4.904  10.990  0.3403  0.0745  0.6928
  835MOL0     C15160   3.900   4.903  10.978 -0.6638 -0.2201  0.8286
  835MOL0     H15161   3.802   5.293  11.405 -1.9806  3.4905  1.8602
  835MOL0     H15162   3.880   5.501  11.472 -0.2865 -2.1982  0.1666
  835MOL0     H15163   4.032   5.817  11.170  3.5757  4.0799 -0.1219
  835MOL0     H15164   4.146   5.685  11.188  0.0139  0.6451 -0.1977
  835MOL0     H15165   4.264   5.853  11.260 -0.0300 -3.3197 -0.5759
  835MOL0     H15166   4.143   5.928  11.377  1.6177  0.4270  1.2298
  835MOL0     H15167   4.151   5.729  11.497 -0.9007 -1.1245 -0.1935
  835MOL0     H15168   4.244   5.635  11.371  3.4391  0.3146 -0.5535
  835MOL0     H15169   4.407   5.671  11.501  1.6699  1.1154 -2.2194
  835MOL0     H15170   4.410   5.843  11.440 -2.1665 -0.1090 -2.2950
  835MOL0     H15171   4.423   5.794  11.696 -0.0262 -3.6623 -1.1173
  835MOL0     H15172   4.262   5.738  11.678 -0.4402 -0.2198 -1.0708
  835MOL0     H15173   4.349   6.024  11.615  1.7948 -0.0845  0.9955
  835MOL0     H15174   4.187   5.969  11.573 -2.4669 -1.0553  3.6497
  835MOL0     H15175   4.218   6.088  11.799 -1.9966  0.8266 -1.9520
  835MOL0     H15176   4.310   5.954  11.851  0.9939 -0.2327 -1.6490
  835MOL0     H15177   4.027   5.911  11.752 -1.1663  0.1481  0.3891
  835MOL0     H15178   4.124   5.805  11.842  1.1334 -0.0809 -0.8340
  835MOL0     H15179   4.123   5.819  12.111  0.2076 -0.4822 -3.1176
  835MOL0     H15180   3.965   5.889  12.325 -1.1019  0.8794  1.1436
  835MOL0     H15181   3.933   6.062  12.338 -0.8471 -2.1940  3.0251
  835MOL0     H15182   4.129   6.007  12.481 -1.0375  2.2529 -0.2798
  835MOL0     H15183   4.208   5.924  12.338  0.2791  0.9325 -1.9916
  835MOL0     H15184   4.252   6.173  12.259 -0.9633 -1.5007 -0.7262
  835MOL0     H15185   4.173   6.219  12.410  0.9104 -1.7658  3.2180
  835MOL0     H15186   4.382   6.234  12.471 -1.4873  0.6470 -0.7298
  835MOL0     H15187   4.319   6.091  12.534  2.0796 -1.2306 -0.3089
  835MOL0     H15188   4.589   6.258  12.303 -0.2998 -0.8657  0.4172
  835MOL0     H15189   4.604   6.380  11.997 -0.6144 -0.4853  0.2056
  835MOL0     H15190   4.767   6.309  11.989  0.4867  1.8402 -0.2351
  835MOL0     H15191   4.717   6.390  12.140  0.5777  0.8248 -0.7267
  835MOL0     H15192   4.618   5.939  11.626 -0.8301 -0.1294 -1.0714
  835MOL0     H15193   4.649   5.949  11.385  1.6477 -1.3251  2.4736
  835MOL0     H15194   4.651   6.365  11.213  2.6726  0.1968  2.6006
  835MOL0     H15195   4.809   6.320  11.196 -0.9640  0.6675 -1.1704
  835MOL0     H15196   4.738   6.383  10.975  3.1377 -0.9602  1.6084
  835MOL0     H15197   4.721   6.196  10.966  2.4105  0.0662  1.9985
  835MOL0     H15198   4.521   6.402  11.051  3.7904 -1.9880  4.7213
  835MOL0     H15199   4.491   6.227  11.021  0.5528 -0.0916 -0.1711
  835MOL0     H15200   4.572   6.239  10.790  0.8342 -1.1622  2.1177
  835MOL0     H15201   4.538   6.420  10.793 -0.4647  0.6972  1.4118
  835MOL0     H15202   4.322   6.205  10.827 -1.3004  0.0017 -3.1903
  835MOL0     H15203   4.291   6.375  10.844 -1.1360  0.3842 -1.8953
  835MOL0     H15204   4.415   6.207  10.618  0.6567 -0.2441  1.0484
  835MOL0     H15205   4.388   6.370  10.589  3.0175  0.6284  0.9844
  835MOL0     H15206   4.137   6.339  10.670 -1.5186  0.7350 -2.9371
  835MOL0     H15207   4.172   6.166  10.680  1.5627 -1.0592 -0.0889
  835MOL0     H15208   4.092   6.205  10.446 -0.0529 -0.5665  0.8801
  835MOL0     H15209   4.275   6.218  10.424 -0.9236 -1.5946  0.4978
  835MOL0     H15210   4.727   6.372  11.398  1.7531 -0.5454  1.6511
  835MOL0     H15211   4.706   6.369  11.632  1.1340 -0.4099  1.4533
  835MOL0     H15212   4.521   5.890  11.988 -0.2911  0.4869 -1.2770
  835MOL0     H15213   4.448   5.861  12.233 -0.9168  0.3758  0.5888
  835MOL0     H15214   3.956   5.615  11.058  0.0335 -0.3165 -0.3478
  835MOL0     H15215   3.885   5.388  10.985  2.6034  1.6774 -0.7097
  835MOL0     H15216   3.477   5.091  11.074 -0.3574 -0.1570 -0.7971
  835MOL0     H15217   3.363   4.882  11.060  0.3438 -0.8975  1.5193
  835MOL0     H15218   3.548   4.676  10.759 -0.5754  0.8150  1.1264
  835MOL0     H15219   3.444   4.531  10.792 -1.1309 -0.5165 -0.5976
  835MOL0     H15220   3.338   4.811  10.779 -0.4796  0.5458  0.2502
  835MOL0     H15221   3.243   4.665  10.813 -1.3327  0.8607 -2.2755
  835MOL0     H15222   3.411   4.720  10.560  1.2248 -0.0343  1.3339
  835MOL0     H15223   3.296   4.578  10.579  0.2065  0.3109 -1.4558
  835MOL0     H15224   3.186   4.841  10.623  0.6255  0.0871 -1.0258
  835MOL0     H15225   3.119   4.698  10.550 -0.0533  0.3185 -1.3839
  835MOL0     H15226   3.270   4.877  10.209 -0.1572 -0.5457 -0.5066
  835MOL0     H15227   3.710   4.688  10.927 -1.9875  0.8467 -3.9458
  835MOL0     H15228   3.955   4.949  11.061  3.4602 -2.0015 -0.6829
  835MOL0     H15229   3.944   4.805  10.961  2.3197  1.2845 -0.9605
  835MOL0     H15230   3.929   4.955  10.887 -1.1819 -1.5886 -0.1393
  836MOL0     O15231  10.930  10.103   3.929 -0.2918  0.1533  0.1021
  836MOL0     C15232  10.876  10.060   3.820 -0.4267  0.1752 -0.4842
  836MOL0     O15233  10.790   9.955   3.819  0.4940 -0.0853 -0.1205
  836MOL0     C15234  10.702   9.955   3.922 -0.1134 -0.2492 -1.0402
  836MOL0     C15235  10.606  10.057   3.930  0.3559 -0.3975  0.3070
  836MOL0     C15236  10.514  10.049   4.029  0.3821 -0.3793  0.6822
  836MOL0     C15237  10.507   9.950   4.132  0.2473  0.3825  0.0691
  836MOL0     O15238  10.413   9.935   4.228 -0.9211 -0.3105 -0.2187
  836MOL0     C15239  10.371  10.054   4.302  0.8601  0.6814  0.8525
  836MOL0     C15240  10.366  10.026   4.449 -0.3620  0.2334 -0.6074
  836MOL0     C15241  10.491   9.978   4.521  0.0959  0.7352 -0.0477
  836MOL0     C15242  10.569  10.090   4.565 -0.4659  0.4007 -0.1012
  836MOL0     C15243  10.691  10.034   4.631 -0.1249 -0.7076  0.9306
  836MOL0     C15244  10.758  10.153   4.701 -0.1547 -0.4478  0.2290
  836MOL0     C15245  10.868  10.108   4.808 -0.5849  0.1258  0.0718
  836MOL0     C15246  10.935  10.231   4.879  0.3156  0.9347  0.1738
  836MOL0     N15247  11.034  10.182   4.979 -0.2001 -0.6149 -0.7382
  836MOL0     C15248  11.043  10.233   5.107 -0.5586 -0.0892 -0.0120
  836MOL0     C15249  11.139  10.161   5.169  0.4163 -0.5525  0.3653
  836MOL0     C15250  11.182  10.189   5.314  0.6900  0.4065 -0.0285
  836MOL0     C15251  11.335  10.216   5.324  0.5006 -0.2487  0.2078
  836MOL0     C15252  11.416  10.096   5.321 -0.6650 -0.1747  0.3513
  836MOL0     C15253  11.564  10.124   5.378  0.2635  0.5783 -0.7349
  836MOL0     O15254  11.589  10.052   5.500 -0.3802 -0.4079  0.6352
  836MOL0     C15255  11.715  10.006   5.513 -0.2889  0.1411  0.3156
  836MOL0     C15256  11.738   9.911   5.613  0.2484  0.0059  0.5608
  836MOL0     C15257  11.870   9.870   5.643 -0.5103  0.5682  0.6598
  836MOL0     C15258  11.877   9.778   5.764  0.2005  0.3610  0.1460
  836MOL0     C15259  11.981   9.911   5.564 -0.1998  0.1745 -0.7171
  836MOL0     C15260  12.115   9.868   5.595  0.9329  0.3508  0.1793
  836MOL0     O15261  12.213   9.963   5.583  0.2250 -0.3935 -0.2478
  836MOL0     C15262  12.336   9.935   5.634  0.8553  0.2107  0.2756
  836MOL0     C15263  12.441   9.924   5.536  0.5234  0.0090 -0.3756
  836MOL0     C15264  12.571   9.904   5.566 -0.4228 -0.2410 -0.2611
  836MOL0     C15265  12.608   9.892   5.701  1.3189  1.1849  0.1725
  836MOL0     O15266  12.738   9.877   5.740 -0.4007  0.4123  1.0822
  836MOL0     C15267  12.824   9.991   5.716  0.0049  0.0822 -0.4263
  836MOL0     C15268  12.941   9.980   5.806 -0.0991  0.2035 -0.1227
  836MOL0     C15269  12.919  10.010   5.951 -1.1901 -0.2048  0.5323
  836MOL0     C15270  12.936  10.158   5.995  0.3744  0.2980 -0.0608
  836MOL0     C15271  12.895  10.202   6.132 -0.0092  0.2644 -0.1569
  836MOL0     C15272  12.975  10.128   6.232 -0.0154  0.0708  0.3114
  836MOL0     C15273  12.926  10.183   6.368  0.8804  0.3587  0.7702
  836MOL0     C15274  12.997  10.105   6.481 -0.4731 -0.1577  0.2728
  836MOL0    Cl15275  12.945   9.932   6.492 -0.7912 -0.0081  0.2620
  836MOL0     C15276  12.506   9.900   5.798 -0.6604 -1.2135  0.2404
  836MOL0     C15277  12.372   9.924   5.762 -0.0973  0.5241 -0.8491
  836MOL0     O15278  12.137   9.752   5.636 -0.1134 -0.5029 -0.1677
  836MOL0     C15279  11.962  10.009   5.469  0.5152 -0.2926  0.2638
  836MOL0     C15280  11.835  10.051   5.438  1.4386 -0.1115  0.0856
  836MOL0     N15281  11.181  10.066   5.079 -0.1109  0.0270 -0.1465
  836MOL0     N15282  11.128  10.086   4.960 -0.9522 -0.9980  0.5349
  836MOL0     C15283  10.602   9.852   4.124 -0.3274 -0.4785  0.8316
  836MOL0     C15284  10.695   9.855   4.023  0.1276 -0.0335 -0.1007
  836MOL0     C15285  10.938  10.098   3.690 -0.2461  0.8122 -0.4434
  836MOL0     C15286  10.956   9.994   3.590 -0.1328 -0.2706  0.2409
  836MOL0     C15287  10.994  10.033   3.467  0.2033 -0.5329  0.4453
  836MOL0     C15288  11.027  10.162   3.435  0.5043 -0.5569  0.4113
  836MOL0     O15289  11.063  10.193   3.306 -0.1162 -0.4066  0.5793
  836MOL0     C15290  11.147  10.102   3.238 -0.4176  0.0123 -0.2922
  836MOL0     C15291  11.212  10.179   3.118 -0.3304 -0.4115 -0.2820
  836MOL0     C15292  11.117  10.166   2.996 -0.9145 -0.1223  1.2180
  836MOL0     C15293  11.178  10.228   2.863 -0.2441 -0.3241  0.3454
  836MOL0     C15294  11.218  10.370   2.858  0.4521 -0.5911 -0.0613
  836MOL0     C15295  11.247  10.484   2.847 -0.2943 -0.0154 -0.3993
  836MOL0     C15296  11.023  10.259   3.527  0.2008 -0.2423 -0.5963
  836MOL0     C15297  10.980  10.230   3.659 -0.6078  0.2192  0.9919
  836MOL0     C15298  10.961  10.343   3.752 -0.2153 -0.3184 -0.1460
  836MOL0     H15299  10.602  10.132   3.851  1.0893  0.0485  0.6832
  836MOL0     H15300  10.440  10.130   4.032 -1.5773 -1.9677 -1.5700
  836MOL0     H15301  10.264  10.064   4.280  1.5155  0.5661 -2.9475
  836MOL0     H15302  10.424  10.148   4.287 -0.4244  1.1163 -1.4181
  836MOL0     H15303  10.325  10.116   4.496  1.1547 -0.2180  1.7848
  836MOL0     H15304  10.280   9.960   4.465  0.9986 -1.0090  2.5751
  836MOL0     H15305  10.465   9.922   4.612  0.8896 -0.7727 -0.7074
  836MOL0     H15306  10.545   9.910   4.454 -2.1842 -0.7525 -0.5255
  836MOL0     H15307  10.593  10.152   4.478 -2.3712 -1.2521 -1.8779
  836MOL0     H15308  10.522  10.146   4.646 -0.8878 -0.2221  0.0894
  836MOL0     H15309  10.760   9.985   4.562 -1.5973 -0.3822 -0.8582
  836MOL0     H15310  10.655   9.963   4.705 -0.7509  1.0046  2.3431
  836MOL0     H15311  10.812  10.202   4.619  1.3236 -3.4503 -0.7371
  836MOL0     H15312  10.682  10.216   4.746 -0.9087 -0.9568 -0.3081
  836MOL0     H15313  10.942  10.040   4.764 -1.7787 -1.1842  0.0207
  836MOL0     H15314  10.809  10.057   4.885  1.6352 -1.4289  0.8452
  836MOL0     H15315  10.981  10.299   4.808  2.7803  0.7154  1.4421
  836MOL0     H15316  10.865  10.285   4.944 -0.1591 -0.3274  0.7457
  836MOL0     H15317  10.989  10.311   5.160  0.6746  1.4563 -0.9259
  836MOL0     H15318  11.181  10.105   5.384  1.5939 -1.2816 -1.9601
  836MOL0     H15319  11.124  10.273   5.354 -0.4690  0.4541 -1.7018
  836MOL0     H15320  11.378  10.285   5.251 -1.7239 -2.3222 -3.3322
  836MOL0     H15321  11.353  10.260   5.423 -0.9611 -2.4156  1.5255
  836MOL0     H15322  11.369  10.017   5.380 -0.8090  0.4947  1.1502
  836MOL0     H15323  11.415  10.047   5.223 -0.0664  0.8474 -0.1737
  836MOL0     H15324  11.624  10.085   5.296 -0.4501 -0.4741 -0.7702
  836MOL0     H15325  11.593  10.229   5.394 -2.4362  1.3680 -0.5720
  836MOL0     H15326  11.652   9.870   5.664 -0.2373  1.8049  1.2659
  836MOL0     H15327  11.772   9.757   5.781 -0.3786  2.1432 -0.9202
  836MOL0     H15328  11.914   9.823   5.857 -0.1561 -0.1005  0.5094
  836MOL0     H15329  11.926   9.684   5.737 -1.3843 -0.2084 -0.8737
  836MOL0     H15330  12.410   9.922   5.432  0.1854 -2.5221 -0.2789
  836MOL0     H15331  12.636   9.892   5.480 -0.1703  0.3567 -0.1634
  836MOL0     H15332  12.857   9.985   5.611  1.7394  2.3422 -0.0917
  836MOL0     H15333  12.777  10.085   5.747  3.6470  0.6718  4.4301
  836MOL0     H15334  12.991   9.883   5.799 -1.6864 -0.7299  0.6903
  836MOL0     H15335  13.014  10.053   5.769 -0.8160  1.2587  0.4727
  836MOL0     H15336  12.992   9.945   6.002 -0.5139 -1.0868 -1.4503
  836MOL0     H15337  12.821   9.976   5.988 -2.1008 -1.1023 -2.4307
  836MOL0     H15338  12.890  10.225   5.922  2.0114  3.0731  1.2564
  836MOL0     H15339  13.041  10.190   5.987  1.6738 -3.7897 -2.4908
  836MOL0     H15340  12.909  10.310   6.139 -1.7036  0.3755  3.7976
  836MOL0     H15341  12.790  10.180   6.151  0.4962 -0.5410  1.9716
  836MOL0     H15342  13.082  10.148   6.222 -0.2104  0.6377 -0.8029
  836MOL0     H15343  12.966  10.019   6.219  1.9966 -0.0239 -0.6890
  836MOL0     H15344  12.818  10.165   6.376  0.2011  4.0291  1.7747
  836MOL0     H15345  12.932  10.291   6.358 -3.1022  0.6855  0.3051
  836MOL0     H15346  12.953  10.153   6.569 -0.3827 -0.1776  0.3291
  836MOL0     H15347  13.105  10.120   6.469 -0.6337  1.7345  0.9805
  836MOL0     H15348  12.546   9.899   5.899  1.1139 -4.0191 -0.3784
  836MOL0     H15349  12.293   9.943   5.833 -0.7473 -2.5140 -0.5998
  836MOL0     H15350  12.050  10.043   5.416  2.1320  0.3161  3.1543
  836MOL0     H15351  11.834  10.124   5.358  1.6614 -0.0655  0.1230
  836MOL0     H15352  10.600   9.770   4.195 -0.7928 -0.2794  1.0576
  836MOL0     H15353  10.752   9.764   4.006  1.9734  1.3840 -1.9812
  836MOL0     H15354  10.929   9.890   3.608 -1.5720 -0.1218 -0.9421
  836MOL0     H15355  11.006   9.958   3.389 -1.0173  0.1178 -0.4012
  836MOL0     H15356  11.218  10.075   3.317 -2.5187 -1.4821  1.1962
  836MOL0     H15357  11.098  10.008   3.212  0.1300 -0.4262  0.2300
  836MOL0     H15358  11.304  10.137   3.076 -0.5054 -0.1867 -0.9067
  836MOL0     H15359  11.230  10.282   3.148 -2.4152  0.8585 -2.9307
  836MOL0     H15360  11.095  10.060   2.987  0.0216 -0.2103 -0.3900
  836MOL0     H15361  11.022  10.216   3.017 -2.3912 -2.1126 -0.4448
  836MOL0     H15362  11.111  10.202   2.781  0.0999  0.9314 -0.3704
  836MOL0     H15363  11.266  10.172   2.831  1.1516  2.1749 -0.5118
  836MOL0     H15364  11.267  10.589   2.855 -2.2213  0.2519  3.8199
  836MOL0     H15365  11.052  10.363   3.515 -1.6576  0.3410 -0.3730
  836MOL0     H15366  11.007  10.326   3.850 -1.7227 -0.5547  0.5566
  836MOL0     H15367  11.007  10.436   3.719  1.0847 -0.5441  0.9405
  836MOL0     H15368  10.854  10.355   3.774 -0.6403 -0.7947 -1.7612
  837MOL0     O15369   0.413   9.551   5.142  0.0170  0.3647 -0.4129
  837MOL0     C15370   0.430   9.560   5.260 -1.0125  0.9454  1.3629
  837MOL0     O15371   0.453   9.677   5.333  0.7126 -0.5405  0.6260
  837MOL0     C15372   0.498   9.784   5.252  0.3696  0.3432 -0.2362
  837MOL0     C15373   0.633   9.798   5.221  0.2095  0.4824 -1.1020
  837MOL0     C15374   0.687   9.893   5.129  0.1464  0.3097 -0.2481
  837MOL0     C15375   0.594   9.969   5.055  0.7247  0.2459  0.3693
  837MOL0     O15376   0.631  10.063   4.957  0.2973  0.3162 -0.1552
  837MOL0     C15377   0.737  10.021   4.871 -0.0667  0.7788 -0.0623
  837MOL0     C15378   0.762  10.119   4.749 -0.7654 -0.7826 -0.8693
  837MOL0     C15379   0.852  10.225   4.815 -0.0587 -0.9348  0.2450
  837MOL0     C15380   0.904  10.330   4.725 -0.4904 -0.9076  0.0545
  837MOL0     C15381   1.013  10.416   4.789 -0.8291  0.3223 -0.4324
  837MOL0     C15382   1.085  10.489   4.667 -0.5001 -0.7102  0.3193
  837MOL0     C15383   1.178  10.600   4.703  0.2980  0.4164  0.4163
  837MOL0     C15384   1.233  10.668   4.574 -0.1412 -0.5639  0.0127
  837MOL0     N15385   1.315  10.787   4.629  0.2494 -0.1334  1.1598
  837MOL0     C15386   1.272  10.917   4.628 -0.5736 -0.4695 -1.2606
  837MOL0     C15387   1.371  10.984   4.696  0.5955 -0.2131  0.1739
  837MOL0     C15388   1.344  11.127   4.744 -0.1936 -1.1705 -0.7751
  837MOL0     C15389   1.414  11.231   4.653 -0.5438  0.6340  0.7054
  837MOL0     C15390   1.317  11.278   4.542  0.6274 -0.3733  0.5692
  837MOL0     C15391   1.379  11.353   4.421  0.0507 -0.5465 -0.1128
  837MOL0     O15392   1.282  11.360   4.314  0.2942 -0.0783  0.5203
  837MOL0     C15393   1.318  11.403   4.188 -0.1071 -0.0680  0.0325
  837MOL0     C15394   1.408  11.511   4.173 -0.4091 -0.8985  0.1992
  837MOL0     C15395   1.429  11.573   4.049 -0.6068  1.6989 -0.4496
  837MOL0     C15396   1.529  11.687   4.022  0.1045  0.4232  0.3902
  837MOL0     C15397   1.363  11.524   3.933  0.4425  0.2318 -0.0504
  837MOL0     C15398   1.376  11.578   3.795  0.1412 -0.2241 -0.3203
  837MOL0     O15399   1.417  11.481   3.709  0.0073  0.4216  0.0475
  837MOL0     C15400   1.383  11.494   3.572  0.6156  0.4373 -0.1510
  837MOL0     C15401   1.262  11.430   3.524  0.2512 -0.2330 -0.3203
  837MOL0     C15402   1.215  11.461   3.395 -0.9217  0.8211  0.4200
  837MOL0     C15403   1.301  11.523   3.308 -0.4217 -0.1129 -0.5821
  837MOL0     O15404   1.268  11.521   3.181 -0.5058 -0.5414  0.0534
  837MOL0     C15405   1.371  11.513   3.083  0.1572 -0.3895  0.9341
  837MOL0     C15406   1.312  11.477   2.948 -0.0750  0.5278  0.1631
  837MOL0     C15407   1.247  11.342   2.952  0.0473  0.7282 -0.7823
  837MOL0     C15408   1.167  11.323   2.819 -0.7391  0.0058 -0.1146
  837MOL0     C15409   1.091  11.180   2.821 -0.4072  0.1635 -0.2184
  837MOL0     C15410   1.016  11.152   2.695 -0.4665 -0.5400  0.3485
  837MOL0     C15411   0.945  11.024   2.721  0.2445  0.9512 -0.3091
  837MOL0     C15412   0.820  11.003   2.637 -0.2598  0.4789  0.0243
  837MOL0    Cl15413   0.781  10.829   2.660 -0.6161 -0.1727  0.4254
  837MOL0     C15414   1.428  11.570   3.349 -0.4727 -0.8174 -1.1887
  837MOL0     C15415   1.470  11.555   3.483  0.4636  1.0716 -0.1427
  837MOL0     O15416   1.346  11.691   3.755  0.3910  1.0487  0.7511
  837MOL0     C15417   1.279  11.413   3.944 -0.1829  0.4473 -0.1194
  837MOL0     C15418   1.251  11.354   4.066 -0.9363  0.3529  0.0172
  837MOL0     N15419   1.480  10.900   4.719  0.3166  0.8166 -0.6123
  837MOL0     N15420   1.444  10.782   4.678  0.1973 -0.0926  0.2485
  837MOL0     C15421   0.458   9.950   5.082 -0.5159 -0.1497 -0.0452
  837MOL0     C15422   0.407   9.857   5.172 -0.6807 -0.4511  0.5176
  837MOL0     C15423   0.409   9.442   5.335 -0.0898  0.4307  0.6314
  837MOL0     C15424   0.271   9.401   5.360 -0.2533 -0.7476  0.1342
  837MOL0     C15425   0.254   9.281   5.437  0.0199 -0.3238  0.9090
  837MOL0     C15426   0.357   9.226   5.512  0.6742 -0.1026  0.0814
  837MOL0     O15427   0.344   9.118   5.600  0.5517 -0.6183  0.8280
  837MOL0     C15428   0.218   9.045   5.610 -0.6198 -0.3948 -0.5087
  837MOL0     C15429   0.207   8.939   5.723 -0.2150  0.8712  0.2252
  837MOL0     C15430   0.314   8.833   5.719 -0.2900 -0.0584 -0.5057
  837MOL0     C15431   0.265   8.679   5.741  0.4194  0.0601  0.0857
  837MOL0     C15432   0.228   8.656   5.884 -0.7098 -0.3792  0.1963
  837MOL0     C15433   0.182   8.646   5.991 -0.2539  0.8181 -0.0021
  837MOL0     C15434   0.487   9.270   5.495  0.5186 -0.4447 -1.1328
  837MOL0     C15435   0.516   9.373   5.405  0.5429  0.1171  1.6973
  837MOL0     C15436   0.663   9.433   5.397  1.3244  0.3685 -0.8360
  837MOL0     H15437   0.692   9.730   5.282 -0.0914  1.7932  0.7468
  837MOL0     H15438   0.796   9.897   5.128  0.4700 -3.4995  1.5864
  837MOL0     H15439   0.720   9.924   4.823 -0.6837 -0.2652  2.1437
  837MOL0     H15440   0.827   9.997   4.929 -2.3134 -0.2040  3.3340
  837MOL0     H15441   0.809  10.063   4.668  1.8599 -2.0662  1.3431
  837MOL0     H15442   0.673  10.170   4.711 -0.5771 -0.3836 -0.7922
  837MOL0     H15443   0.791  10.278   4.889 -2.3833 -0.9136 -1.5677
  837MOL0     H15444   0.937  10.183   4.870  0.2851 -0.7791 -0.1550
  837MOL0     H15445   0.939  10.270   4.640  0.1176 -1.0623  0.4110
  837MOL0     H15446   0.823  10.396   4.693 -0.6465 -1.8793 -1.7415
  837MOL0     H15447   1.089  10.363   4.848 -0.5905  3.0155  1.8717
  837MOL0     H15448   0.957  10.478   4.859 -0.9769 -1.2109  0.8752
  837MOL0     H15449   1.136  10.410   4.611 -0.1691  1.3582 -2.5666
  837MOL0     H15450   1.012  10.531   4.596 -0.3796  2.3970  1.8993
  837MOL0     H15451   1.261  10.562   4.763  0.2793 -3.0469 -1.4856
  837MOL0     H15452   1.127  10.682   4.753 -0.0101  0.6378 -0.2440
  837MOL0     H15453   1.297  10.597   4.520 -0.9977 -2.7071  1.6588
  837MOL0     H15454   1.158  10.711   4.507  2.3220  1.7868 -1.3817
  837MOL0     H15455   1.178  10.954   4.587 -1.7598 -3.1807 -1.2364
  837MOL0     H15456   1.388  11.144   4.842  1.9354 -1.5263 -1.6205
  837MOL0     H15457   1.235  11.131   4.750 -0.1089 -0.1354  0.5215
  837MOL0     H15458   1.467  11.315   4.699  0.4507  1.5023 -1.8454
  837MOL0     H15459   1.501  11.187   4.604 -1.1123 -0.0870  0.3279
  837MOL0     H15460   1.261  11.197   4.494 -0.8492  2.6165 -3.3012
  837MOL0     H15461   1.249  11.346   4.594 -0.2899 -0.8186 -0.0308
  837MOL0     H15462   1.420  11.448   4.455 -1.9210  0.4701 -0.4345
  837MOL0     H15463   1.463  11.296   4.381  1.1612  0.2481  0.9890
  837MOL0     H15464   1.478  11.537   4.252  0.6693 -1.4203 -0.5533
  837MOL0     H15465   1.483  11.781   4.053 -0.3046  0.0825  0.8325
  837MOL0     H15466   1.562  11.686   3.918  1.4599  0.2188  0.8021
  837MOL0     H15467   1.619  11.669   4.083  0.7833  0.8508 -0.4774
  837MOL0     H15468   1.200  11.387   3.602 -1.2453  4.7660  1.6700
  837MOL0     H15469   1.120  11.431   3.352 -1.6168  1.3852  1.5121
  837MOL0     H15470   1.412  11.614   3.073 -0.9790  0.1369  1.3773
  837MOL0     H15471   1.457  11.448   3.102  0.4630  0.2106  1.6667
  837MOL0     H15472   1.234  11.549   2.919 -1.6039 -1.2094 -0.2734
  837MOL0     H15473   1.400  11.472   2.884  2.2560 -1.2441  3.2308
  837MOL0     H15474   1.176  11.327   3.033  2.6765 -3.0916  1.1469
  837MOL0     H15475   1.320  11.260   2.950  1.4332  1.7619  2.4360
  837MOL0     H15476   1.227  11.344   2.730  1.5670  2.8917  1.9255
  837MOL0     H15477   1.088  11.399   2.830 -2.9155 -2.2749  0.8853
  837MOL0     H15478   1.172  11.108   2.828 -1.7827 -1.7725 -2.5902
  837MOL0     H15479   1.038  11.169   2.916  0.4140 -1.7122  0.0564
  837MOL0     H15480   1.071  11.169   2.602 -1.0156  2.7658  0.4948
  837MOL0     H15481   0.933  11.224   2.694 -1.2537 -1.4135 -2.0462
  837MOL0     H15482   0.917  11.013   2.826  0.6274 -0.6592 -0.3473
  837MOL0     H15483   1.016  10.949   2.686  1.5271  2.4016 -0.9265
  837MOL0     H15484   0.837  11.011   2.530 -0.3581  0.3014 -0.0054
  837MOL0     H15485   0.731  11.053   2.678  1.2165  0.6102  3.4126
  837MOL0     H15486   1.489  11.626   3.279 -2.7058  0.6812 -2.0388
  837MOL0     H15487   1.557  11.609   3.520  0.2019  2.9617 -2.1073
  837MOL0     H15488   1.226  11.385   3.853 -1.8365  1.0157  0.6363
  837MOL0     H15489   1.185  11.269   4.073  1.0093 -1.1967  0.2360
  837MOL0     H15490   0.387  10.015   5.032  0.2657  0.4838 -0.3556
  837MOL0     H15491   0.299   9.850   5.180 -0.8473 -1.8658 -2.0623
  837MOL0     H15492   0.187   9.451   5.315  0.7329 -0.1794 -1.1370
  837MOL0     H15493   0.148   9.257   5.444  0.0629 -0.8130  0.0437
  837MOL0     H15494   0.141   9.119   5.633  0.5622  0.0939  2.3130
  837MOL0     H15495   0.201   8.987   5.519 -1.9324  2.1886 -2.0312
  837MOL0     H15496   0.113   8.885   5.709  0.2206  0.1047  0.2126
  837MOL0     H15497   0.212   9.002   5.812 -0.0674 -0.6807  1.3543
  837MOL0     H15498   0.370   8.849   5.626  0.3765 -1.4097 -0.3641
  837MOL0     H15499   0.393   8.857   5.791 -0.2199  0.1557 -0.6537
  837MOL0     H15500   0.346   8.610   5.716 -0.6472 -1.6479  1.1562
  837MOL0     H15501   0.180   8.661   5.675  3.0505  1.7543 -4.2082
  837MOL0     H15502   0.147   8.622   6.089 -3.9469 -0.1897 -1.3951
  837MOL0     H15503   0.555   9.223   5.564  0.2839 -1.1176 -1.3473
  837MOL0     H15504   0.646   9.538   5.423 -0.2001 -0.2403  0.7907
  837MOL0     H15505   0.726   9.399   5.480 -0.7009  1.4002  1.2123
  837MOL0     H15506   0.707   9.416   5.298 -0.7355 -1.4532 -1.4935
  838MOL0     O15507   6.940   5.573   7.541 -0.0632  0.3933 -0.0040
  838MOL0     C15508   7.017   5.563   7.638  0.1578 -0.7422  0.3636
  838MOL0     O15509   7.148   5.518   7.626  0.9743  0.3590 -0.1218
  838MOL0     C15510   7.175   5.475   7.503  0.2353  0.3664 -0.0640
  838MOL0     C15511   7.091   5.376   7.443  0.5675 -0.0386  1.1566
  838MOL0     C15512   7.112   5.321   7.318 -0.2108  0.7315 -0.3887
  838MOL0     C15513   7.232   5.352   7.250  0.6619  1.0338 -0.1805
  838MOL0     O15514   7.261   5.283   7.132  0.1341  0.2231 -0.0917
  838MOL0     C15515   7.259   5.140   7.142  0.0416  0.2404 -0.1988
  838MOL0     C15516   7.395   5.080   7.099  0.1564 -0.0220  0.4061
  838MOL0     C15517   7.443   5.145   6.959 -0.5145 -0.3974  0.1486
  838MOL0     C15518   7.407   5.069   6.833 -0.0837 -0.3907  0.4561
  838MOL0     C15519   7.450   5.141   6.705  0.1297  0.1198  0.5272
  838MOL0     C15520   7.383   5.279   6.675  0.4679 -0.0899 -0.5048
  838MOL0     C15521   7.404   5.311   6.532  0.7254 -0.5960  0.3975
  838MOL0     C15522   7.540   5.287   6.475  0.0359  0.0439 -0.1458
  838MOL0     N15523   7.566   5.384   6.370 -0.6054  0.3760  0.5789
  838MOL0     C15524   7.486   5.400   6.258  0.1598  1.7330 -1.0321
  838MOL0     C15525   7.555   5.477   6.170 -0.1810  0.5935  0.0367
  838MOL0     C15526   7.526   5.524   6.033 -0.4179  0.4606 -1.3012
  838MOL0     C15527   7.601   5.428   5.943  0.3904 -0.2822 -0.6453
  838MOL0     C15528   7.567   5.459   5.801  0.1234 -1.0711  0.2896
  838MOL0     C15529   7.624   5.354   5.698  0.5906  0.7171 -0.6588
  838MOL0     O15530   7.530   5.342   5.588 -0.4754 -0.0829  0.4784
  838MOL0     C15531   7.527   5.229   5.502 -1.2118 -0.5420 -0.2765
  838MOL0     C15532   7.641   5.158   5.467  0.1838 -0.1440 -0.1682
  838MOL0     C15533   7.640   5.066   5.360  0.0324  1.2583  0.8369
  838MOL0     C15534   7.778   5.007   5.323 -0.1965 -0.1291  0.1758
  838MOL0     C15535   7.523   5.028   5.293 -0.7254 -0.3957  0.2811
  838MOL0     C15536   7.503   4.934   5.180  1.6130  0.3862 -0.3108
  838MOL0     O15537   7.369   4.931   5.134 -0.0910 -0.8136 -0.5132
  838MOL0     C15538   7.355   4.864   5.015 -1.9934 -0.2427  0.4837
  838MOL0     C15539   7.368   4.931   4.888  0.3146  1.2482 -0.3598
  838MOL0     C15540   7.328   4.870   4.764  0.0976  1.3489  0.3978
  838MOL0     C15541   7.263   4.748   4.765  0.0195  0.1285  0.3663
  838MOL0     O15542   7.221   4.699   4.643  0.3863  0.2902 -0.0603
  838MOL0     C15543   7.110   4.603   4.638  0.1763 -0.3516 -0.4307
  838MOL0     C15544   7.127   4.508   4.520  1.6234 -0.7109 -0.1403
  838MOL0     C15545   6.989   4.500   4.455 -0.9443  0.1438  0.7769
  838MOL0     C15546   6.993   4.424   4.314  0.0064 -0.1023 -0.1214
  838MOL0     C15547   6.878   4.461   4.231  0.4143  0.0896  0.1825
  838MOL0     C15548   6.886   4.395   4.092  0.8324  1.0212  0.3983
  838MOL0     C15549   6.952   4.470   3.981 -0.6044 -0.1476  0.9143
  838MOL0     C15550   6.953   4.387   3.845  0.2080  0.1277  0.0109
  838MOL0    Cl15551   7.020   4.217   3.857  0.4083 -0.0568 -0.9813
  838MOL0     C15552   7.246   4.680   4.889 -0.0704 -0.8896  0.5424
  838MOL0     C15553   7.298   4.740   5.005 -0.1703  0.9770 -0.2057
  838MOL0     O15554   7.597   4.874   5.135  0.5268 -0.3730  0.1319
  838MOL0     C15555   7.408   5.084   5.346  0.0851  0.6369 -0.6646
  838MOL0     C15556   7.408   5.185   5.447 -0.3392  0.0992  0.2115
  838MOL0     N15557   7.677   5.502   6.235 -0.3719 -0.2899 -0.1450
  838MOL0     N15558   7.680   5.462   6.355  0.5437  0.6481 -0.4925
  838MOL0     C15559   7.308   5.449   7.301 -0.0044 -0.0205  0.8564
  838MOL0     C15560   7.286   5.510   7.428 -0.2299 -0.3566  0.1601
  838MOL0     C15561   6.966   5.600   7.769 -0.9741 -0.1861  0.7656
  838MOL0     C15562   6.851   5.678   7.782  0.9299  0.5454  0.2955
  838MOL0     C15563   6.793   5.709   7.908 -0.4434  1.0541 -0.7550
  838MOL0     C15564   6.842   5.659   8.025 -0.0491  0.2289 -0.0799
  838MOL0     O15565   6.786   5.711   8.141  0.1858 -0.0159 -0.2809
  838MOL0     C15566   6.824   5.656   8.269 -0.4035  0.1653 -0.0885
  838MOL0     C15567   6.698   5.645   8.356  0.7964  0.6409 -0.8570
  838MOL0     C15568   6.605   5.549   8.276 -0.0209 -0.2597 -0.5467
  838MOL0     C15569   6.470   5.523   8.346  0.4844 -0.6512  0.2798
  838MOL0     C15570   6.481   5.494   8.491  0.4348 -0.0281 -0.6650
  838MOL0     C15571   6.500   5.448   8.601 -0.4831  0.1374 -0.0913
  838MOL0     C15572   6.950   5.573   8.013  0.4188  0.5450 -0.3648
  838MOL0     C15573   7.019   5.542   7.893 -0.5816  0.1163 -0.5563
  838MOL0     C15574   7.132   5.437   7.896 -0.1575  0.2585  0.4228
  838MOL0     H15575   7.002   5.332   7.486 -0.2593  0.2465 -0.2105
  838MOL0     H15576   7.047   5.258   7.259 -0.8644  2.7944 -1.9607
  838MOL0     H15577   7.178   5.105   7.076 -2.8759  0.4566  2.9861
  838MOL0     H15578   7.243   5.094   7.240 -1.3441 -0.0268 -0.5305
  838MOL0     H15579   7.473   5.104   7.171  1.7096  1.6368 -1.6725
  838MOL0     H15580   7.376   4.973   7.085 -1.3396  0.1607  0.7923
  838MOL0     H15581   7.418   5.252   6.960  0.1127 -0.2338  1.8976
  838MOL0     H15582   7.550   5.155   6.976 -0.5800 -1.7986  1.5461
  838MOL0     H15583   7.441   4.965   6.837  1.0312 -0.0159  0.9723
  838MOL0     H15584   7.298   5.062   6.834 -0.1580 -0.0079 -1.4346
  838MOL0     H15585   7.453   5.073   6.619  0.7582 -0.3796  0.9358
  838MOL0     H15586   7.555   5.167   6.717  0.1594  0.9117 -1.1936
  838MOL0     H15587   7.277   5.266   6.698  1.0720 -0.6142  2.3345
  838MOL0     H15588   7.420   5.348   6.751 -0.3138  2.0056 -1.9383
  838MOL0     H15589   7.380   5.416   6.513  0.4608 -0.7418 -0.0901
  838MOL0     H15590   7.335   5.256   6.468 -0.9883  0.8399  0.9451
  838MOL0     H15591   7.617   5.313   6.548 -1.6251  1.6044  1.1378
  838MOL0     H15592   7.552   5.188   6.430  1.7398 -0.8455  2.1053
  838MOL0     H15593   7.387   5.360   6.242  1.7952 -2.3150 -2.1725
  838MOL0     H15594   7.561   5.628   6.025  1.3677  0.2160  1.7526
  838MOL0     H15595   7.417   5.524   6.024 -1.0037  4.1921  2.4018
  838MOL0     H15596   7.708   5.438   5.961 -0.2540  0.1830  4.4925
  838MOL0     H15597   7.573   5.327   5.974 -1.2985  0.3751  0.1537
  838MOL0     H15598   7.457   5.462   5.796  0.0496 -3.1165 -0.3119
  838MOL0     H15599   7.609   5.555   5.769 -0.5842 -1.2603 -1.2930
  838MOL0     H15600   7.723   5.394   5.676  0.8171  0.3129 -0.3961
  838MOL0     H15601   7.636   5.254   5.742 -1.0256  0.5762 -0.4888
  838MOL0     H15602   7.736   5.188   5.511 -0.0012 -0.2874  0.3278
  838MOL0     H15603   7.807   5.053   5.228  0.2880 -0.5215  0.1307
  838MOL0     H15604   7.762   4.899   5.315 -1.9118 -0.0520  1.9230
  838MOL0     H15605   7.855   5.016   5.400 -0.7015 -1.6321  0.9087
  838MOL0     H15606   7.411   5.030   4.880 -0.0267  1.3216 -1.4391
  838MOL0     H15607   7.332   4.921   4.668 -2.5936  1.1445  0.0884
  838MOL0     H15608   7.085   4.550   4.730 -0.2101 -0.9827 -0.8929
  838MOL0     H15609   7.024   4.671   4.630 -1.1748 -2.0526 -1.0031
  838MOL0     H15610   7.194   4.561   4.451 -0.9471  1.5701 -1.0602
  838MOL0     H15611   7.165   4.407   4.540  3.1013 -0.5126 -1.6468
  838MOL0     H15612   6.964   4.605   4.438 -0.0460  1.0361  4.1777
  838MOL0     H15613   6.917   4.449   4.520 -0.1377 -2.9869 -0.5992
  838MOL0     H15614   6.996   4.315   4.327 -1.8691 -0.2081 -0.3230
  838MOL0     H15615   7.089   4.449   4.268  1.6570 -2.8721  1.4733
  838MOL0     H15616   6.785   4.434   4.282 -0.4172 -0.3602 -1.5079
  838MOL0     H15617   6.882   4.569   4.221  1.6180  0.4864  3.4913
  838MOL0     H15618   6.783   4.374   4.063  1.2638  2.4308 -2.6164
  838MOL0     H15619   6.928   4.296   4.111 -2.4175 -0.0908  2.4159
  838MOL0     H15620   7.057   4.480   4.007 -0.6124  1.4754  0.4034
  838MOL0     H15621   6.913   4.568   3.952  0.7006  0.5550  1.4920
  838MOL0     H15622   6.998   4.445   3.764  1.5910 -1.2811 -0.2730
  838MOL0     H15623   6.852   4.372   3.805  1.5990  0.5359 -4.1709
  838MOL0     H15624   7.206   4.579   4.896  1.2643 -1.6483 -1.7411
  838MOL0     H15625   7.306   4.690   5.101  0.9430 -0.3248 -0.9538
  838MOL0     H15626   7.310   5.048   5.317 -0.9745  1.8482  1.2084
  838MOL0     H15627   7.323   5.232   5.494 -0.1014 -2.4095  3.5286
  838MOL0     H15628   7.387   5.499   7.246  0.9478  0.9275  2.9529
  838MOL0     H15629   7.354   5.581   7.472  2.6175 -1.0956 -2.6863
  838MOL0     H15630   6.797   5.702   7.691 -0.6240 -3.1799  0.0756
  838MOL0     H15631   6.707   5.776   7.912 -2.9039 -1.9288  2.4533
  838MOL0     H15632   6.869   5.556   8.266 -2.9628 -1.1079  1.3053
  838MOL0     H15633   6.906   5.713   8.314  0.7855 -0.4637 -1.3640
  838MOL0     H15634   6.661   5.747   8.369  1.7676  0.6718  2.7872
  838MOL0     H15635   6.726   5.600   8.452 -1.7672  1.7668  0.5460
  838MOL0     H15636   6.581   5.592   8.178  1.4524 -0.7952 -1.1645
  838MOL0     H15637   6.645   5.447   8.271 -3.0005 -1.6741  1.5982
  838MOL0     H15638   6.417   5.445   8.291 -2.1632  0.2009  1.5026
  838MOL0     H15639   6.411   5.615   8.339  0.1425 -0.7797  1.3301
  838MOL0     H15640   6.531   5.412   8.697 -0.8271  0.9600  0.3330
  838MOL0     H15641   7.010   5.533   8.095 -0.1611 -0.8407 -0.5844
  838MOL0     H15642   7.218   5.469   7.836 -1.8232  2.4812 -0.9721
  838MOL0     H15643   7.172   5.440   7.998 -0.8827  3.5608  0.7494
  838MOL0     H15644   7.099   5.341   7.856  0.9387  0.4216 -0.9329
  839MOL0     O15645   7.716   9.617   1.795  0.7261  0.5153 -0.3909
  839MOL0     C15646   7.742   9.498   1.810  0.4761 -1.0312 -0.0704
  839MOL0     O15647   7.646   9.405   1.867  0.1954 -0.3092 -0.7384
  839MOL0     C15648   7.521   9.441   1.916 -0.4098 -0.2444  0.5027
  839MOL0     C15649   7.494   9.561   1.992 -0.1584  0.1473 -0.1975
  839MOL0     C15650   7.365   9.576   2.044  0.4376  1.1272  0.7103
  839MOL0     C15651   7.271   9.485   2.038 -0.2452 -0.0102 -0.2981
  839MOL0     O15652   7.146   9.518   2.098 -0.8846 -0.0501 -0.1494
  839MOL0     C15653   7.037   9.426   2.097  0.1976 -0.0087  0.1135
  839MOL0     C15654   6.971   9.424   1.960  1.3421 -0.4633  0.2543
  839MOL0     C15655   6.876   9.308   1.936 -0.9926  0.3828  0.6792
  839MOL0     C15656   6.848   9.297   1.784 -0.5541  0.1028  0.6747
  839MOL0     C15657   6.720   9.215   1.733  0.5328 -0.3487 -0.9284
  839MOL0     C15658   6.730   9.174   1.581 -0.5186  0.3562 -0.3577
  839MOL0     C15659   6.800   9.041   1.558  0.1608  0.2201 -0.4329
  839MOL0     C15660   6.816   9.018   1.408  0.1278 -0.0317 -0.1009
  839MOL0     N15661   6.903   8.896   1.373 -0.0261 -0.1428  0.8910
  839MOL0     C15662   7.041   8.887   1.382 -0.8116  0.7162  0.1636
  839MOL0     C15663   7.075   8.758   1.364 -0.2358  0.2735 -0.6039
  839MOL0     C15664   7.208   8.680   1.367  0.3435 -0.4097 -0.2360
  839MOL0     C15665   7.261   8.591   1.250  0.5761 -0.5863 -0.9884
  839MOL0     C15666   7.236   8.658   1.113  0.6052  0.3775  0.2638
  839MOL0     C15667   7.233   8.534   1.015  0.2951 -0.1970 -0.6443
  839MOL0     O15668   7.252   8.587   0.886 -0.2911 -0.5063 -0.2739
  839MOL0     C15669   7.255   8.495   0.790  0.4971  0.9658  0.3767
  839MOL0     C15670   7.379   8.468   0.731 -0.5326 -0.0868  0.6789
  839MOL0     C15671   7.399   8.384   0.616  0.1893 -0.5087 -0.5716
  839MOL0     C15672   7.526   8.372   0.544 -0.0598 -0.5450 -0.1008
  839MOL0     C15673   7.283   8.311   0.568  0.4558 -0.1337 -1.2566
  839MOL0     C15674   7.276   8.231   0.440  0.4326 -0.7009 -0.2893
  839MOL0     O15675   7.175   8.139   0.434  0.1534 -0.2556 -0.6695
  839MOL0     C15676   7.131   8.087   0.318  0.1435 -0.4441  0.1655
  839MOL0     C15677   7.205   8.030   0.216 -0.1028  0.4018  1.0963
  839MOL0     C15678   7.144   8.002   0.096 -0.0395  0.6787 -0.3063
  839MOL0     C15679   7.004   8.017   0.068 -1.5106 -0.3196 -0.5150
  839MOL0     O15680   6.938   7.979  -0.042  0.1862  0.1391 -0.8985
  839MOL0     C15681   7.002   7.930  -0.161  0.2486  0.3743  0.1274
  839MOL0     C15682   7.050   8.052  -0.241  0.9131 -0.2152  0.6297
  839MOL0     C15683   7.086   8.025  -0.390 -0.1354  0.4844  0.4171
  839MOL0     C15684   6.958   7.997  -0.474 -0.9399  0.1555 -0.7009
  839MOL0     C15685   6.997   7.960  -0.618  0.3854  0.6839 -1.0396
  839MOL0     C15686   6.870   7.913  -0.700 -0.0983  0.0972  0.0864
  839MOL0     C15687   6.897   7.955  -0.853 -0.2168  0.2281 -0.9031
  839MOL0     C15688   6.959   7.837  -0.937  0.0811 -0.9384 -0.1449
  839MOL0    Cl15689   6.843   7.713  -0.985  0.1034  0.0716  0.2494
  839MOL0     C15690   6.934   8.055   0.182  0.3485  0.3145  0.6759
  839MOL0     C15691   6.995   8.089   0.297  0.1782  1.3744 -1.1496
  839MOL0     O15692   7.350   8.259   0.348  0.6521 -0.2571 -0.3894
  839MOL0     C15693   7.158   8.332   0.631  0.2995  0.4769  0.8593
  839MOL0     C15694   7.145   8.432   0.733 -0.7514 -0.1247 -0.1363
  839MOL0     N15695   6.952   8.690   1.335 -0.2778 -0.4810 -0.4380
  839MOL0     N15696   6.857   8.775   1.331 -0.8384 -1.0831 -0.1608
  839MOL0     C15697   7.296   9.368   1.957 -0.2871 -0.0013  0.2559
  839MOL0     C15698   7.428   9.343   1.908  0.1680 -1.4464  0.5243
  839MOL0     C15699   7.894   9.449   1.797  0.3054 -0.8951  0.7036
  839MOL0     C15700   7.928   9.330   1.865  0.9261  0.1759 -0.5394
  839MOL0     C15701   8.067   9.297   1.868 -0.3332  0.9359  0.1319
  839MOL0     C15702   8.164   9.367   1.797 -0.2763  0.7438 -0.3224
  839MOL0     O15703   8.300   9.341   1.809 -0.1517  0.2047 -0.2862
  839MOL0     C15704   8.354   9.283   1.933 -0.3398  0.0469  0.4059
  839MOL0     C15705   8.492   9.332   1.950 -0.6779  1.0352 -0.5792
  839MOL0     C15706   8.574   9.250   2.051 -1.0601  0.4004  0.5346
  839MOL0     C15707   8.700   9.327   2.078  0.5749  0.2905 -0.5291
  839MOL0     C15708   8.816   9.310   1.982 -0.5544  1.4070  0.0677
  839MOL0     C15709   8.923   9.295   1.919  0.2148 -0.4516 -0.0725
  839MOL0     C15710   8.122   9.483   1.727 -0.2205  0.1243  0.2056
  839MOL0     C15711   7.985   9.520   1.718 -0.9553 -0.0614 -0.0425
  839MOL0     C15712   7.942   9.629   1.627  0.2873  0.0456  0.8218
  839MOL0     H15713   7.570   9.638   1.983 -1.8706  2.4916  3.2875
  839MOL0     H15714   7.356   9.672   2.094  3.3036  1.8146  0.0664
  839MOL0     H15715   6.959   9.455   2.169 -1.5739 -3.1818 -0.3209
  839MOL0     H15716   7.062   9.322   2.118 -0.4609  0.0923  1.5294
  839MOL0     H15717   6.903   9.509   1.955  3.2579  1.2318  1.3094
  839MOL0     H15718   7.049   9.431   1.883  2.4612 -3.0825  1.0675
  839MOL0     H15719   6.916   9.214   1.975 -1.2851 -0.7965 -1.7074
  839MOL0     H15720   6.782   9.330   1.988 -0.8246  0.5510  0.9135
  839MOL0     H15721   6.848   9.399   1.746 -0.8014  0.3698  1.3805
  839MOL0     H15722   6.933   9.237   1.749 -1.7706 -1.3520  0.0609
  839MOL0     H15723   6.634   9.282   1.744 -0.7050 -2.1150  0.6652
  839MOL0     H15724   6.701   9.127   1.794  1.2544  0.0295 -0.1412
  839MOL0     H15725   6.640   9.164   1.520  0.1742 -1.7129 -1.1269
  839MOL0     H15726   6.782   9.251   1.523  0.3564 -1.2457 -1.8037
  839MOL0     H15727   6.730   8.970   1.603 -1.8797  0.8397 -2.4376
  839MOL0     H15728   6.898   9.045   1.607  0.1715 -1.7470 -0.2139
  839MOL0     H15729   6.725   8.998   1.351  1.2680 -2.6982 -1.1892
  839MOL0     H15730   6.853   9.110   1.363  1.2946 -0.4010  0.0550
  839MOL0     H15731   7.109   8.960   1.423  3.2141 -0.4399 -3.6701
  839MOL0     H15732   7.224   8.634   1.464 -1.1697  2.2067  1.4002
  839MOL0     H15733   7.281   8.762   1.365  1.8761 -1.7252 -2.5718
  839MOL0     H15734   7.366   8.568   1.269  0.5440 -0.0280 -0.0690
  839MOL0     H15735   7.196   8.503   1.263 -1.1603  0.6663 -0.7392
  839MOL0     H15736   7.139   8.709   1.110  1.1779  1.4659 -2.2511
  839MOL0     H15737   7.321   8.723   1.088  2.3173 -1.2581  1.6221
  839MOL0     H15738   7.315   8.472   1.051  0.5341  0.7859  0.5738
  839MOL0     H15739   7.136   8.484   1.021  0.0075  0.5411  1.8584
  839MOL0     H15740   7.459   8.521   0.782 -0.4684  1.3751 -0.8396
  839MOL0     H15741   7.598   8.444   0.584  0.5847 -1.6838  0.8684
  839MOL0     H15742   7.511   8.395   0.438  1.2573  0.1218 -0.1603
  839MOL0     H15743   7.566   8.271   0.552 -0.2130 -0.5508  0.7310
  839MOL0     H15744   7.312   8.037   0.227 -0.0298  1.8438 -0.2683
  839MOL0     H15745   7.203   7.969   0.011 -0.5321  0.8490 -0.7219
  839MOL0     H15746   7.082   7.856  -0.149  1.4276  0.9738 -3.1085
  839MOL0     H15747   6.921   7.872  -0.207  0.6943  1.1369 -1.7177
  839MOL0     H15748   6.974   8.131  -0.241  0.8608 -0.2445  1.6726
  839MOL0     H15749   7.135   8.090  -0.183  3.1701  0.5963 -2.9274
  839MOL0     H15750   7.151   7.937  -0.392  0.2687  0.7032  2.0734
  839MOL0     H15751   7.129   8.115  -0.436 -0.8430 -0.0989 -1.4500
  839MOL0     H15752   6.887   8.080  -0.469 -0.4029  0.5767 -0.0090
  839MOL0     H15753   6.905   7.912  -0.430 -1.4235  1.5065  1.4608
  839MOL0     H15754   7.037   8.052  -0.662  0.4453  1.1110 -0.1027
  839MOL0     H15755   7.078   7.888  -0.631 -1.5233 -1.3737 -2.5307
  839MOL0     H15756   6.789   7.971  -0.655 -2.1095 -2.7197  0.3553
  839MOL0     H15757   6.827   7.814  -0.685 -1.6329  0.8030  0.5320
  839MOL0     H15758   6.963   8.042  -0.858  1.3329 -0.9714 -2.6211
  839MOL0     H15759   6.802   7.980  -0.901  0.5750  4.4745 -0.6854
  839MOL0     H15760   7.047   7.794  -0.887  2.7731  2.3110 -1.7401
  839MOL0     H15761   6.998   7.875  -1.032  3.0829  1.1916  1.7412
  839MOL0     H15762   6.827   8.068   0.180  0.1506 -1.0459 -2.1910
  839MOL0     H15763   6.935   8.120   0.381 -0.8365 -1.4597 -0.7466
  839MOL0     H15764   7.069   8.276   0.603 -0.5131  1.6550  1.0027
  839MOL0     H15765   7.049   8.458   0.777 -0.6527  1.0326 -0.5560
  839MOL0     H15766   7.228   9.286   1.934  0.0988 -0.0323 -0.8621
  839MOL0     H15767   7.434   9.261   1.837 -0.9791  1.0247 -2.7066
  839MOL0     H15768   7.853   9.269   1.914 -1.0407  1.2159 -2.0669
  839MOL0     H15769   8.101   9.204   1.912  1.6097  0.2966 -2.4689
  839MOL0     H15770   8.295   9.326   2.015 -1.8255 -2.8722  0.9999
  839MOL0     H15771   8.359   9.174   1.931  0.9459 -0.0250  2.8611
  839MOL0     H15772   8.485   9.438   1.976 -0.8192  0.7006  0.7921
  839MOL0     H15773   8.548   9.319   1.857  2.1999  3.0612  0.7198
  839MOL0     H15774   8.526   9.229   2.147 -0.6095  0.3756  0.7572
  839MOL0     H15775   8.592   9.150   2.010  0.8802 -0.7992  3.9216
  839MOL0     H15776   8.714   9.296   2.182 -1.7403 -3.1600 -1.0682
  839MOL0     H15777   8.677   9.433   2.090  0.2713  0.2495 -0.7377
  839MOL0     H15778   9.011   9.270   1.864 -0.0667  0.2972 -0.8898
  839MOL0     H15779   8.201   9.544   1.683  0.0603 -2.4973 -3.3232
  839MOL0     H15780   7.865   9.600   1.555 -0.8987  3.0665  0.7115
  839MOL0     H15781   7.906   9.718   1.680 -0.4394  1.0714 -1.2430
  839MOL0     H15782   8.028   9.664   1.569 -2.0145 -0.0767 -3.0087
  840MOL0     O15783   6.747  11.291   3.241 -0.3634 -0.9076  0.1101
  840MOL0     C15784   6.727  11.397   3.303 -0.6705  0.6705  1.0911
  840MOL0     O15785   6.758  11.519   3.255  0.2042  0.5073  0.5548
  840MOL0     C15786   6.831  11.535   3.140  0.2301 -0.9191  0.2168
  840MOL0     C15787   6.951  11.467   3.112 -0.3522 -0.3147 -0.2671
  840MOL0     C15788   7.027  11.487   2.999 -0.0443 -0.5955  0.1396
  840MOL0     C15789   6.990  11.579   2.905  0.2179 -1.1186  0.3507
  840MOL0     O15790   7.058  11.602   2.793 -0.4450 -0.2910  0.2320
  840MOL0     C15791   7.197  11.575   2.795 -0.7699  0.2377 -0.4286
  840MOL0     C15792   7.273  11.650   2.688 -1.1836 -1.0501  0.2677
  840MOL0     C15793   7.419  11.650   2.711 -0.9736 -0.4939 -0.1543
  840MOL0     C15794   7.500  11.705   2.599 -0.6980  0.3629  0.6924
  840MOL0     C15795   7.650  11.698   2.631 -0.0336  1.0409 -0.2312
  840MOL0     C15796   7.709  11.560   2.623 -0.3795 -0.3906 -0.6994
  840MOL0     C15797   7.853  11.549   2.673  0.3151  0.2828 -0.6929
  840MOL0     C15798   7.908  11.415   2.617 -0.3754 -0.1344 -0.1398
  840MOL0     N15799   8.028  11.354   2.676  1.1867 -0.1472 -0.6592
  840MOL0     C15800   8.139  11.413   2.742  0.2760  0.3578  1.2289
  840MOL0     C15801   8.232  11.317   2.762 -0.9900  0.2018  0.8662
  840MOL0     C15802   8.373  11.324   2.820 -1.5410  0.0478 -0.6872
  840MOL0     C15803   8.404  11.469   2.877  0.4197 -0.5218 -0.2188
  840MOL0     C15804   8.543  11.491   2.920 -0.4019 -0.0851 -0.6010
  840MOL0     C15805   8.568  11.639   2.957  0.7796 -0.1737 -0.6399
  840MOL0     O15806   8.468  11.695   3.049  0.4694 -0.4670 -0.1645
  840MOL0     C15807   8.471  11.682   3.188 -1.2513 -0.5903 -0.4386
  840MOL0     C15808   8.572  11.602   3.248 -0.3514  0.0859 -0.0076
  840MOL0     C15809   8.565  11.579   3.385 -0.3195 -0.3629  0.0150
  840MOL0     C15810   8.673  11.489   3.445 -1.1058  0.0986  0.0696
  840MOL0     C15811   8.468  11.640   3.463 -0.2487  0.4820 -0.1278
  840MOL0     C15812   8.440  11.612   3.611  0.4195 -1.4680 -0.1297
  840MOL0     O15813   8.497  11.499   3.672 -0.4323  0.5929  0.1331
  840MOL0     C15814   8.435  11.446   3.778  0.5886  0.4136  0.0603
  840MOL0     C15815   8.487  11.471   3.902  0.2735  0.0401 -0.5520
  840MOL0     C15816   8.417  11.433   4.010  0.3283 -0.2739  0.2450
  840MOL0     C15817   8.300  11.361   4.012 -0.2094  0.9636  1.1972
  840MOL0     O15818   8.263  11.318   4.138  0.1842  0.4203  0.5647
  840MOL0     C15819   8.170  11.208   4.149 -0.0869 -0.0521 -0.1696
  840MOL0     C15820   8.196  11.139   4.280  0.3770  0.3073 -0.7886
  840MOL0     C15821   8.069  11.085   4.347 -0.0045  0.6721 -0.1157
  840MOL0     C15822   7.986  10.996   4.270  0.6830  0.9505 -0.1118
  840MOL0     C15823   8.031  10.850   4.283 -0.4200  0.8001  0.3165
  840MOL0     C15824   7.927  10.747   4.237 -0.2411 -0.1126 -0.1613
  840MOL0     C15825   7.944  10.628   4.333 -0.4640 -0.2472  0.5800
  840MOL0     C15826   7.843  10.517   4.319 -0.7054  0.8496  0.9455
  840MOL0    Cl15827   7.840  10.401   4.459 -0.0112  0.1467 -0.1038
  840MOL0     C15828   8.242  11.327   3.882 -0.1763  0.3000 -0.6392
  840MOL0     C15829   8.305  11.387   3.771  0.4064  0.4740 -1.0794
  840MOL0     O15830   8.379  11.698   3.674  0.5612  0.1072  0.3827
  840MOL0     C15831   8.373  11.723   3.394 -0.5916 -0.4735 -0.1034
  840MOL0     C15832   8.375  11.743   3.264  0.0218  0.7911  1.1106
  840MOL0     N15833   8.170  11.203   2.715  0.2847  0.6321 -0.7818
  840MOL0     N15834   8.049  11.218   2.684  1.3104  0.2344  0.1197
  840MOL0     C15835   6.880  11.664   2.930  0.1261 -0.4540  0.2877
  840MOL0     C15836   6.794  11.641   3.047 -0.7925 -0.1245  0.0331
  840MOL0     C15837   6.662  11.398   3.437  0.0768 -0.2439 -0.3327
  840MOL0     C15838   6.648  11.521   3.503  0.4360  0.1165 -0.3660
  840MOL0     C15839   6.577  11.519   3.621  0.0231 -0.5713  0.1558
  840MOL0     C15840   6.529  11.408   3.690  0.4224  0.3676  1.4003
  840MOL0     O15841   6.472  11.426   3.810 -0.4518 -0.2294  0.6449
  840MOL0     C15842   6.411  11.548   3.850 -0.2403  0.6031 -0.2306
  840MOL0     C15843   6.344  11.517   3.980  0.3010  0.4977  0.0911
  840MOL0     C15844   6.452  11.482   4.095 -0.1085  0.5969  0.7830
  840MOL0     C15845   6.380  11.415   4.214 -0.4494 -0.1316 -1.0001
  840MOL0     C15846   6.470  11.392   4.330 -0.5761 -0.0497 -1.0008
  840MOL0     C15847   6.539  11.368   4.426  0.2828  0.2782 -0.0785
  840MOL0     C15848   6.538  11.281   3.615  0.0037  0.6612  0.3234
  840MOL0     C15849   6.606  11.280   3.493  0.7714 -0.4154 -0.8793
  840MOL0     C15850   6.592  11.147   3.420 -0.3099 -0.7178  0.2973
  840MOL0     H15851   6.980  11.387   3.180  0.8021 -1.7867 -2.3666
  840MOL0     H15852   7.114  11.427   2.974 -2.1920 -2.3387 -4.3040
  840MOL0     H15853   7.205  11.466   2.788  0.7677  0.3711 -1.1004
  840MOL0     H15854   7.237  11.606   2.892 -0.8623  2.9411 -1.1841
  840MOL0     H15855   7.246  11.591   2.601 -1.0542  2.1002 -2.1093
  840MOL0     H15856   7.233  11.752   2.684 -0.5984 -0.8155  0.1849
  840MOL0     H15857   7.460  11.698   2.801 -0.8751 -3.2972  1.4330
  840MOL0     H15858   7.436  11.545   2.735 -2.6349 -0.7750 -0.1032
  840MOL0     H15859   7.479  11.653   2.505  1.6468  2.2468 -1.0051
  840MOL0     H15860   7.472  11.808   2.577  0.1093 -0.0409 -2.9679
  840MOL0     H15861   7.665  11.741   2.731 -3.4938 -0.0413  0.8844
  840MOL0     H15862   7.705  11.758   2.558  0.1863  0.8919 -0.1908
  840MOL0     H15863   7.652  11.484   2.677  2.2797 -1.8472  0.2085
  840MOL0     H15864   7.712  11.535   2.517  1.5851  2.5833 -1.4560
  840MOL0     H15865   7.839  11.555   2.782 -2.8093  0.8023 -1.0254
  840MOL0     H15866   7.922  11.623   2.633 -1.1250  2.9658  1.4109
  840MOL0     H15867   7.828  11.341   2.616  0.3613 -1.0550  2.0648
  840MOL0     H15868   7.946  11.422   2.515 -0.9369 -2.4543 -0.5510
  840MOL0     H15869   8.154  11.515   2.778  3.7163  0.4504 -0.0678
  840MOL0     H15870   8.446  11.289   2.746  0.8064 -2.5924  2.5585
  840MOL0     H15871   8.382  11.245   2.896  0.4570 -2.3560 -3.1954
  840MOL0     H15872   8.384  11.545   2.800 -1.2063 -2.1150 -1.4640
  840MOL0     H15873   8.336  11.482   2.962  1.1016 -3.1703  0.8456
  840MOL0     H15874   8.572  11.430   3.006 -1.1777  0.6451  0.1900
  840MOL0     H15875   8.601  11.444   2.839 -1.6643 -1.2574 -0.8673
  840MOL0     H15876   8.673  11.649   2.986  0.4154  2.3184  0.0326
  840MOL0     H15877   8.553  11.694   2.864  1.7588  2.2889  0.5682
  840MOL0     H15878   8.667  11.582   3.198 -1.6971 -2.5719 -1.7256
  840MOL0     H15879   8.744  11.455   3.369 -1.1636  0.4886 -0.1605
  840MOL0     H15880   8.621  11.402   3.487 -0.5632 -0.3631 -0.2051
  840MOL0     H15881   8.735  11.530   3.525 -1.9235  2.5063 -0.4546
  840MOL0     H15882   8.582  11.521   3.918  0.3305 -0.4466  0.7223
  840MOL0     H15883   8.465  11.461   4.103  3.0304  1.5544 -1.5346
  840MOL0     H15884   8.070  11.253   4.143 -0.6716 -1.4523 -2.5319
  840MOL0     H15885   8.173  11.136   4.067  2.9274  2.3814 -2.4791
  840MOL0     H15886   8.268  11.057   4.275  0.8780  0.8128 -2.5635
  840MOL0     H15887   8.232  11.203   4.361 -0.4996 -1.9124  1.4708
  840MOL0     H15888   8.023  11.183   4.365  2.4767  1.8409  0.3245
  840MOL0     H15889   8.105  11.043   4.442  0.2205  0.2699 -0.3777
  840MOL0     H15890   7.978  11.024   4.165  3.8823 -1.2702 -1.1060
  840MOL0     H15891   7.883  10.989   4.307 -0.3994  0.7195 -2.9374
  840MOL0     H15892   8.119  10.829   4.222  0.0197  0.1683  1.1361
  840MOL0     H15893   8.071  10.845   4.385  1.6505  2.4681 -0.3462
  840MOL0     H15894   7.937  10.728   4.129 -2.4056 -0.6124 -0.3149
  840MOL0     H15895   7.821  10.772   4.246 -0.5121  0.2142 -3.1921
  840MOL0     H15896   7.940  10.660   4.438  1.1087  0.5429  0.4155
  840MOL0     H15897   8.044  10.586   4.321  0.5534  1.0198  3.6899
  840MOL0     H15898   7.865  10.462   4.227  1.0306  1.4759  0.9540
  840MOL0     H15899   7.739  10.552   4.308  0.2808  4.4132  1.5743
  840MOL0     H15900   8.147  11.275   3.881  0.0013 -0.2424  2.1593
  840MOL0     H15901   8.263  11.380   3.671  0.3929  3.7489 -1.4298
  840MOL0     H15902   8.290  11.775   3.442 -0.8489  0.1964 -1.2476
  840MOL0     H15903   8.288  11.790   3.220 -1.1822 -0.6049  1.9142
  840MOL0     H15904   6.856  11.728   2.846  0.0364 -1.6393 -0.6110
  840MOL0     H15905   6.695  11.685   3.044 -0.7111  0.0358 -1.9735
  840MOL0     H15906   6.682  11.617   3.466  0.8348  0.5328  1.0214
  840MOL0     H15907   6.569  11.613   3.674  1.8082 -1.4453  2.1104
  840MOL0     H15908   6.476  11.635   3.862  0.4186 -0.2250  2.9458
  840MOL0     H15909   6.330  11.573   3.780  0.5165  0.6869 -1.0945
  840MOL0     H15910   6.279  11.430   3.965 -0.7989  1.4351 -0.7283
  840MOL0     H15911   6.277  11.595   4.018 -0.5900  1.7646 -3.7037
  840MOL0     H15912   6.526  11.408   4.066 -1.0128  0.1241 -0.3936
  840MOL0     H15913   6.501  11.576   4.123  0.5499 -0.1913  2.3862
  840MOL0     H15914   6.348  11.319   4.173  1.6718 -1.9838  1.3426
  840MOL0     H15915   6.289  11.466   4.247  0.0442  1.1489 -1.5347
  840MOL0     H15916   6.598  11.336   4.510  0.5989  1.0589  0.0025
  840MOL0     H15917   6.482  11.197   3.655 -2.2994  1.6244 -0.6957
  840MOL0     H15918   6.693  11.119   3.389  0.2545 -0.9170  2.1941
  840MOL0     H15919   6.548  11.075   3.490 -0.6052 -1.1348 -0.3134
  840MOL0     H15920   6.527  11.154   3.333  0.7677  0.1158 -0.4784
  841MOL0     O15921   9.498   7.205   4.316  0.5451 -0.4381  0.4524
  841MOL0     C15922   9.611   7.202   4.263 -0.2891  0.0323  0.7090
  841MOL0     O15923   9.723   7.187   4.332 -0.3322  0.3901 -0.3083
  841MOL0     C15924   9.712   7.204   4.465 -0.4670 -0.7214 -0.0479
  841MOL0     C15925   9.653   7.103   4.544  0.7457 -0.8397 -0.4338
  841MOL0     C15926   9.623   7.126   4.677  0.7180  0.2577 -0.6291
  841MOL0     C15927   9.663   7.248   4.742 -0.8588 -0.1663 -0.8469
  841MOL0     O15928   9.625   7.270   4.877 -1.0115 -0.2060 -0.5687
  841MOL0     C15929   9.706   7.355   4.956 -0.8510  0.9377  0.5865
  841MOL0     C15930   9.680   7.356   5.103 -0.7677  0.2056 -1.1714
  841MOL0     C15931   9.649   7.209   5.155  0.1722 -1.4228  0.0040
  841MOL0     C15932   9.786   7.133   5.166 -0.0606  0.1283  0.1648
  841MOL0     C15933   9.794   7.029   5.280 -0.0668  0.1402 -0.3784
  841MOL0     C15934   9.792   7.082   5.433 -0.1104  0.0627  0.0342
  841MOL0     C15935   9.774   6.966   5.524 -0.0114  0.0348  0.2805
  841MOL0     C15936   9.636   6.897   5.518  0.4083 -1.2555  1.3220
  841MOL0     N15937   9.580   6.886   5.657  1.0206  0.1491  0.5023
  841MOL0     C15938   9.495   6.987   5.717  0.0345  1.0184 -1.1331
  841MOL0     C15939   9.481   6.946   5.843  0.9339 -0.1031 -0.1193
  841MOL0     C15940   9.386   6.998   5.942  1.1034  0.6113  0.6320
  841MOL0     C15941   9.394   7.147   5.968  0.2595 -0.0088  0.9105
  841MOL0     C15942   9.257   7.223   5.970  0.9967  0.4306 -0.3834
  841MOL0     C15943   9.187   7.207   5.833  0.0044 -0.5852  0.0499
  841MOL0     O15944   9.276   7.237   5.729  0.3858 -0.9355  0.5841
  841MOL0     C15945   9.235   7.256   5.594  0.0021 -0.2583  0.4708
  841MOL0     C15946   9.099   7.281   5.562  0.1948  0.1162 -0.0071
  841MOL0     C15947   9.060   7.295   5.423  0.1101 -0.8675 -0.0951
  841MOL0     C15948   8.912   7.328   5.409 -0.1052  0.8337  0.3545
  841MOL0     C15949   9.156   7.270   5.320  0.8114  0.0684 -0.0226
  841MOL0     C15950   9.122   7.278   5.173  0.1869  0.3223  0.3506
  841MOL0     O15951   9.220   7.306   5.086  0.2660  0.0160  0.4874
  841MOL0     C15952   9.201   7.327   4.944 -0.1194  0.1428 -0.4805
  841MOL0     C15953   9.307   7.296   4.851  0.1283  0.1052 -0.8683
  841MOL0     C15954   9.292   7.334   4.721 -0.3596  0.4894  0.1220
  841MOL0     C15955   9.181   7.411   4.686 -1.0398  0.7030 -0.2822
  841MOL0     O15956   9.168   7.453   4.562  0.1162 -0.1461 -0.1420
  841MOL0     C15957   9.147   7.357   4.458  1.0791 -0.6255  0.1198
  841MOL0     C15958   9.011   7.402   4.395 -1.1154  0.4058  0.2119
  841MOL0     C15959   9.001   7.551   4.364 -0.5005  0.5391 -0.2923
  841MOL0     C15960   9.108   7.591   4.255  0.1977 -1.1115  0.2827
  841MOL0     C15961   9.092   7.743   4.206  0.1566  0.6790 -0.5239
  841MOL0     C15962   8.964   7.770   4.117  0.4999 -0.3050 -0.7947
  841MOL0     C15963   8.961   7.674   3.991 -0.5532  1.2459 -0.7116
  841MOL0     C15964   8.811   7.681   3.948 -1.1322 -0.3320  0.4523
  841MOL0    Cl15965   8.783   7.854   3.887  0.4823  0.6230  0.0776
  841MOL0     C15966   9.085   7.447   4.774  0.0306 -0.2253  0.6072
  841MOL0     C15967   9.090   7.399   4.904  0.6376 -0.2833 -0.1771
  841MOL0     O15968   9.000   7.253   5.142  0.1009  0.3269 -0.0328
  841MOL0     C15969   9.290   7.250   5.361  0.1550 -0.1375  0.4550
  841MOL0     C15970   9.329   7.236   5.488  0.0938 -0.3150 -0.2406
  841MOL0     N15971   9.557   6.830   5.873  0.1008 -0.2590 -0.0479
  841MOL0     N15972   9.619   6.809   5.756 -0.4668  0.5530  0.7247
  841MOL0     C15973   9.720   7.350   4.663  0.0450 -0.0152  0.7555
  841MOL0     C15974   9.745   7.329   4.528  0.2097 -0.7892 -0.2209
  841MOL0     C15975   9.632   7.206   4.112  0.0977  0.1803 -0.5534
  841MOL0     C15976   9.536   7.163   4.025  0.2422  0.6750 -0.0012
  841MOL0     C15977   9.534   7.198   3.891  0.0587 -0.5442 -0.5287
  841MOL0     C15978   9.633   7.286   3.844  0.3349 -0.2209  0.5688
  841MOL0     O15979   9.650   7.325   3.711 -0.4769  0.2264  0.3530
  841MOL0     C15980   9.549   7.295   3.621 -0.8123 -0.0543  0.2529
  841MOL0     C15981   9.591   7.368   3.487  0.3214 -0.4225  0.0431
  841MOL0     C15982   9.619   7.518   3.512 -0.2069 -0.0398 -0.3022
  841MOL0     C15983   9.638   7.606   3.391 -0.2176  1.0437  0.5040
  841MOL0     C15984   9.707   7.729   3.427 -0.7112  0.1513  0.2151
  841MOL0     C15985   9.765   7.827   3.456 -0.6801 -0.6870  0.4354
  841MOL0     C15986   9.725   7.330   3.926 -0.8350 -1.0853  0.6990
  841MOL0     C15987   9.739   7.285   4.056 -0.1316 -0.0725 -0.8677
  841MOL0     C15988   9.868   7.323   4.132  0.3696  0.2168  0.4901
  841MOL0     H15989   9.614   7.013   4.497 -0.4968  0.3864 -1.8691
  841MOL0     H15990   9.563   7.053   4.731  0.0081  1.3249  0.0860
  841MOL0     H15991   9.705   7.453   4.907  0.0357  0.4932 -0.3561
  841MOL0     H15992   9.811   7.323   4.946 -0.6716  1.0993  1.7033
  841MOL0     H15993   9.772   7.391   5.151 -0.2925 -1.4284 -0.8240
  841MOL0     H15994   9.610   7.432   5.137 -1.8311  0.0575 -2.9023
  841MOL0     H15995   9.606   7.226   5.255  0.3601 -0.6013 -0.0445
  841MOL0     H15996   9.573   7.152   5.101 -3.2455  0.8511  1.9939
  841MOL0     H15997   9.818   7.091   5.070  1.6545 -1.9257  1.5406
  841MOL0     H15998   9.866   7.205   5.188 -0.6699  0.7643  0.3190
  841MOL0     H15999   9.879   6.962   5.261 -0.7374 -1.0529  0.6603
  841MOL0     H16000   9.700   6.976   5.261  0.0132 -1.1216  2.3366
  841MOL0     H16001   9.885   7.133   5.459 -0.1996 -0.2563  1.0121
  841MOL0     H16002   9.710   7.152   5.451  1.9936  1.9049  3.6449
  841MOL0     H16003   9.793   6.996   5.628 -3.8520  1.3375  0.7857
  841MOL0     H16004   9.854   6.899   5.494  0.8935  0.1074  2.3253
  841MOL0     H16005   9.566   6.944   5.448 -0.7228 -2.4832  1.5949
  841MOL0     H16006   9.655   6.797   5.476 -2.2504 -1.4686  0.4692
  841MOL0     H16007   9.418   7.050   5.673 -1.8900  0.0654  0.6533
  841MOL0     H16008   9.401   6.942   6.035  0.0028  0.7045  0.8791
  841MOL0     H16009   9.290   6.969   5.900  0.9585  0.2473  1.2135
  841MOL0     H16010   9.447   7.155   6.063  1.9946  1.5907 -0.1166
  841MOL0     H16011   9.462   7.189   5.894 -0.3595  0.4280  0.5753
  841MOL0     H16012   9.207   7.173   6.054  1.9619  0.9903  0.5557
  841MOL0     H16013   9.254   7.328   6.000  0.5704  1.1246 -2.6957
  841MOL0     H16014   9.155   7.104   5.813 -2.3980  0.0175  0.5314
  841MOL0     H16015   9.096   7.266   5.823  2.6860  3.9858 -0.3519
  841MOL0     H16016   9.026   7.301   5.639  1.9621  0.8378  1.5422
  841MOL0     H16017   8.851   7.237   5.406  1.6669 -0.4819  1.9661
  841MOL0     H16018   8.892   7.393   5.324 -1.8133 -0.3226 -0.2020
  841MOL0     H16019   8.880   7.382   5.498  1.5963  1.4667  0.6075
  841MOL0     H16020   9.394   7.241   4.882  0.7227  1.1007 -0.7188
  841MOL0     H16021   9.366   7.312   4.645 -0.1326  0.4682  0.3493
  841MOL0     H16022   9.230   7.358   4.387  3.7809 -1.8611  3.0075
  841MOL0     H16023   9.126   7.256   4.496 -0.7138 -0.2804  0.1106
  841MOL0     H16024   8.975   7.340   4.312 -0.6992  0.9271 -0.3691
  841MOL0     H16025   8.941   7.393   4.478  3.5040  0.0401  4.5539
  841MOL0     H16026   9.029   7.619   4.445 -2.1025  0.9520 -0.0637
  841MOL0     H16027   8.898   7.569   4.333  0.3172  1.8040 -2.5000
  841MOL0     H16028   9.106   7.512   4.180  2.6219  0.6919 -1.8420
  841MOL0     H16029   9.211   7.577   4.292 -0.6297 -0.9515  2.8737
  841MOL0     H16030   9.100   7.803   4.298  0.0488 -0.3880  0.1989
  841MOL0     H16031   9.181   7.767   4.148  1.9546 -2.4244  0.7148
  841MOL0     H16032   8.971   7.875   4.086  3.4899 -0.0239  0.5377
  841MOL0     H16033   8.872   7.756   4.176  0.4321  1.7828 -0.3278
  841MOL0     H16034   8.983   7.569   4.011 -1.0911  1.2299 -0.1550
  841MOL0     H16035   9.020   7.713   3.908 -0.4321  1.5506 -0.4861
  841MOL0     H16036   8.748   7.649   4.032 -2.6988  0.5176 -0.3460
  841MOL0     H16037   8.791   7.611   3.866 -1.1313  0.5092 -0.2897
  841MOL0     H16038   9.000   7.504   4.739  0.1666 -0.9385 -1.0067
  841MOL0     H16039   9.009   7.433   4.968 -0.2139 -0.4692 -1.1261
  841MOL0     H16040   9.361   7.226   5.282 -0.1003 -0.8348  0.4398
  841MOL0     H16041   9.435   7.222   5.507  0.1258  0.5074  0.1966
  841MOL0     H16042   9.748   7.452   4.685  2.5640  0.3887 -3.2352
  841MOL0     H16043   9.798   7.406   4.473  4.2384 -1.1599  2.7370
  841MOL0     H16044   9.447   7.120   4.069  1.9638 -1.3709  1.7532
  841MOL0     H16045   9.450   7.164   3.832  0.1482  1.8425 -2.1775
  841MOL0     H16046   9.550   7.187   3.605 -0.5141  0.0246 -0.2901
  841MOL0     H16047   9.455   7.326   3.668 -0.5555 -0.4048  1.0177
  841MOL0     H16048   9.519   7.367   3.405 -0.0405  4.9466 -0.0597
  841MOL0     H16049   9.676   7.325   3.433 -0.6984 -0.0018 -1.9988
  841MOL0     H16050   9.531   7.552   3.568  0.0324  0.1270 -0.0183
  841MOL0     H16051   9.709   7.528   3.574  0.5797 -2.5773 -0.9338
  841MOL0     H16052   9.544   7.625   3.338  1.3233  3.6321 -1.5684
  841MOL0     H16053   9.695   7.540   3.324 -0.9563 -1.6210  2.3182
  841MOL0     H16054   9.814   7.919   3.480 -1.3881 -0.7485  2.2707
  841MOL0     H16055   9.791   7.396   3.870 -1.6455 -1.1889 -0.4109
  841MOL0     H16056   9.913   7.235   4.178  0.2042 -0.2586 -0.2460
  841MOL0     H16057   9.950   7.367   4.073  0.9974  0.3690  1.4463
  841MOL0     H16058   9.835   7.393   4.209 -0.2739 -0.3745  0.7586
  842MOL0     O16059   6.726   4.062   5.995 -0.2913  0.2412 -0.0371
  842MOL0     C16060   6.846   4.092   5.998 -0.3060 -0.0952  0.7540
  842MOL0     O16061   6.947   4.039   5.915  0.0549 -1.0668  0.8011
  842MOL0     C16062   6.918   3.941   5.818  0.6997 -0.0207  0.0205
  842MOL0     C16063   6.981   3.952   5.692 -0.4583  0.8690 -0.2767
  842MOL0     C16064   6.954   3.858   5.595  0.1406  0.9844 -0.0339
  842MOL0     C16065   6.876   3.744   5.630 -0.2912  0.0090 -0.1669
  842MOL0     O16066   6.852   3.650   5.537 -0.2976  0.3170 -0.2756
  842MOL0     C16067   6.839   3.509   5.563  0.1526 -0.5731  0.0401
  842MOL0     C16068   6.791   3.442   5.430 -1.3904 -0.5418 -0.8861
  842MOL0     C16069   6.667   3.509   5.366  0.3636  1.0192  0.2766
  842MOL0     C16070   6.533   3.421   5.354 -0.9652  0.1617 -0.7207
  842MOL0     C16071   6.415   3.489   5.281 -0.1215  0.6935 -0.5139
  842MOL0     C16072   6.275   3.435   5.304  0.6459 -0.7076 -0.3432
  842MOL0     C16073   6.262   3.288   5.272 -0.8959 -0.4811  0.1309
  842MOL0     C16074   6.139   3.239   5.350  0.1475 -0.1844 -0.8476
  842MOL0     N16075   6.084   3.101   5.314  0.6611 -0.2980 -0.1472
  842MOL0     C16076   5.996   3.074   5.209  0.0850  0.3548  0.7462
  842MOL0     C16077   5.948   2.952   5.235 -0.4036 -0.2490  0.8796
  842MOL0     C16078   5.846   2.882   5.152  0.0712 -0.4618 -0.5129
  842MOL0     C16079   5.851   2.731   5.180 -0.2787 -0.5131  0.1395
  842MOL0     C16080   5.716   2.677   5.131  0.1612  1.0263  0.0144
  842MOL0     C16081   5.698   2.532   5.165 -0.8025  0.0435  1.0747
  842MOL0     O16082   5.560   2.504   5.135  1.1831  0.1571 -0.0758
  842MOL0     C16083   5.507   2.385   5.178  0.2748  1.2426 -0.2286
  842MOL0     C16084   5.562   2.268   5.129 -0.4868  0.0628 -0.6787
  842MOL0     C16085   5.497   2.147   5.176  0.1449 -0.1383  0.0237
  842MOL0     C16086   5.555   2.027   5.109  0.2023 -0.6936 -0.5522
  842MOL0     C16087   5.384   2.151   5.262  0.0177  0.6832 -0.5755
  842MOL0     C16088   5.320   2.024   5.308  1.0100  0.3436 -0.0418
  842MOL0     O16089   5.186   2.013   5.272  0.4623  1.1554  0.2575
  842MOL0     C16090   5.126   1.885   5.282 -0.0612  0.1023  0.2192
  842MOL0     C16091   5.184   1.764   5.231  0.0163  0.2604  0.4099
  842MOL0     C16092   5.113   1.640   5.233 -0.1071 -0.1480 -0.1118
  842MOL0     C16093   4.979   1.639   5.255  0.5005  1.2607 -0.0314
  842MOL0     O16094   4.907   1.525   5.242 -0.9856  0.0730 -0.0687
  842MOL0     C16095   4.770   1.538   5.245 -0.0373 -0.4434 -0.0572
  842MOL0     C16096   4.706   1.410   5.207 -0.4663 -0.5382 -0.1688
  842MOL0     C16097   4.727   1.297   5.312  0.7309  0.1893  0.4634
  842MOL0     C16098   4.679   1.169   5.233  0.1086  0.4912  1.3159
  842MOL0     C16099   4.737   1.052   5.302 -0.4136  1.0343  0.5047
  842MOL0     C16100   4.716   0.930   5.210  0.3077  0.5634 -0.5162
  842MOL0     C16101   4.771   0.798   5.272  0.8827 -0.5724 -0.4855
  842MOL0     C16102   4.685   0.754   5.396 -0.1753  0.9177  0.8500
  842MOL0    Cl16103   4.517   0.721   5.345 -0.1950 -0.1045 -0.4041
  842MOL0     C16104   4.923   1.763   5.306 -0.3377 -0.0056  1.0963
  842MOL0     C16105   4.992   1.877   5.321  1.3802 -0.1690  0.0742
  842MOL0     O16106   5.388   1.930   5.355  0.1097  0.9273  0.2586
  842MOL0     C16107   5.334   2.273   5.306  0.3530 -0.1570  0.0287
  842MOL0     C16108   5.396   2.387   5.265  0.0332  0.6344  0.8533
  842MOL0     N16109   5.995   2.908   5.350  0.2783 -0.5114 -0.2384
  842MOL0     N16110   6.076   2.992   5.397  0.0038 -0.5493  0.2090
  842MOL0     C16111   6.817   3.740   5.757  0.0418 -0.0538  0.4045
  842MOL0     C16112   6.840   3.830   5.853 -0.5190  0.9586  0.9232
  842MOL0     C16113   6.901   4.160   6.118  0.0498 -0.0014 -0.5445
  842MOL0     C16114   7.040   4.161   6.152  0.1722  0.1374  0.5583
  842MOL0     C16115   7.090   4.239   6.251 -0.3412 -0.0911 -0.3862
  842MOL0     C16116   7.007   4.316   6.332  0.2073 -0.1957 -1.3234
  842MOL0     O16117   7.063   4.379   6.437  0.4003 -0.6534  0.0355
  842MOL0     C16118   7.086   4.516   6.394  0.2161  0.0356  1.1364
  842MOL0     C16119   7.213   4.559   6.469  0.3014  0.1122 -0.0086
  842MOL0     C16120   7.171   4.582   6.614 -0.3541 -0.3198  0.2586
  842MOL0     C16121   7.105   4.713   6.649  0.0346 -0.1657 -0.4612
  842MOL0     C16122   7.176   4.825   6.596 -0.0232  0.3465 -0.4155
  842MOL0     C16123   7.244   4.911   6.546 -0.5040  0.3018 -0.2974
  842MOL0     C16124   6.869   4.331   6.302 -0.5295 -0.8103 -1.2993
  842MOL0     C16125   6.821   4.253   6.202 -0.0992 -0.0992  1.1831
  842MOL0     C16126   6.678   4.275   6.164 -0.0666 -0.7148  0.4624
  842MOL0     H16127   7.053   4.031   5.674  0.0507  0.2683 -0.9142
  842MOL0     H16128   6.994   3.866   5.494 -1.8474  0.0694 -0.9534
  842MOL0     H16129   6.759   3.485   5.633  2.3239 -0.9798  2.5504
  842MOL0     H16130   6.931   3.469   5.607 -1.6664 -3.5238  1.4909
  842MOL0     H16131   6.878   3.445   5.365  1.0055 -1.7843  2.0092
  842MOL0     H16132   6.767   3.340   5.461  0.0553 -1.0541 -1.4003
  842MOL0     H16133   6.637   3.598   5.422 -0.9818  1.2696 -0.7723
  842MOL0     H16134   6.699   3.549   5.269 -0.7681  0.9629 -0.1372
  842MOL0     H16135   6.549   3.320   5.314 -2.3103  0.1404 -1.2540
  842MOL0     H16136   6.501   3.408   5.457 -2.0597 -2.4664 -1.3026
  842MOL0     H16137   6.439   3.497   5.174 -2.1257  0.3491 -1.0336
  842MOL0     H16138   6.397   3.593   5.312 -0.8151  0.8859 -1.4969
  842MOL0     H16139   6.244   3.454   5.407 -1.4138  1.0119 -1.1877
  842MOL0     H16140   6.207   3.498   5.245 -1.3129 -1.5960  0.8650
  842MOL0     H16141   6.355   3.232   5.283 -1.2514 -1.9624 -3.1849
  842MOL0     H16142   6.229   3.274   5.169  0.1312  1.2055 -0.4688
  842MOL0     H16143   6.147   3.253   5.458  0.9902  2.7000 -1.1926
  842MOL0     H16144   6.055   3.308   5.338 -0.9921 -1.6813 -1.8956
  842MOL0     H16145   5.975   3.134   5.121  0.0726 -1.2841 -0.4167
  842MOL0     H16146   5.863   2.903   5.046 -2.1818  2.1039 -0.4573
  842MOL0     H16147   5.752   2.932   5.175 -0.4656 -1.0350 -1.3879
  842MOL0     H16148   5.943   2.684   5.145  1.7922  2.6664  0.9296
  842MOL0     H16149   5.847   2.704   5.286 -0.0563  1.5127  0.7035
  842MOL0     H16150   5.635   2.733   5.180 -0.3737 -0.9265  1.4919
  842MOL0     H16151   5.719   2.690   5.023  0.4538  1.0469  0.0259
  842MOL0     H16152   5.771   2.470   5.113 -0.1765  1.8163 -0.2429
  842MOL0     H16153   5.712   2.504   5.270 -3.2419  0.2259  1.5090
  842MOL0     H16154   5.652   2.253   5.070  0.5961  0.0037  0.9237
  842MOL0     H16155   5.650   1.993   5.150 -0.5212 -0.8514  1.1184
  842MOL0     H16156   5.560   2.039   5.001  2.9497  4.1644 -0.1507
  842MOL0     H16157   5.482   1.946   5.127 -0.3649 -1.0002 -3.6539
  842MOL0     H16158   5.286   1.779   5.199  1.3396 -4.1026  1.9039
  842MOL0     H16159   5.168   1.550   5.210 -0.9509 -0.5174 -0.7427
  842MOL0     H16160   4.736   1.568   5.344  0.4751  0.5222 -0.1619
  842MOL0     H16161   4.740   1.616   5.175  1.2591  1.8699  1.8422
  842MOL0     H16162   4.599   1.421   5.192 -0.4199  0.3850  0.1092
  842MOL0     H16163   4.757   1.381   5.114  1.8051 -1.5779  1.3081
  842MOL0     H16164   4.672   1.316   5.405  2.9594 -1.7565  2.3122
  842MOL0     H16165   4.832   1.286   5.340  0.8331  1.2797  0.5601
  842MOL0     H16166   4.712   1.170   5.129 -1.8452 -0.8876  0.6368
  842MOL0     H16167   4.570   1.162   5.234  0.1513 -0.3029  1.3807
  842MOL0     H16168   4.844   1.068   5.316 -0.2602  1.5955 -1.0806
  842MOL0     H16169   4.707   1.035   5.406  1.5325  0.8155  1.0732
  842MOL0     H16170   4.770   0.943   5.116  1.5844  3.8424  0.5071
  842MOL0     H16171   4.609   0.921   5.193 -0.2488  0.1390  2.6208
  842MOL0     H16172   4.872   0.812   5.312  0.9966 -1.6130 -0.3808
  842MOL0     H16173   4.774   0.718   5.198  0.1670 -0.5437 -0.5488
  842MOL0     H16174   4.678   0.834   5.470  2.1877 -2.0985  4.7590
  842MOL0     H16175   4.725   0.662   5.441 -0.1129  0.5218 -0.0026
  842MOL0     H16176   4.820   1.774   5.339 -0.9790 -2.7595  0.2757
  842MOL0     H16177   4.936   1.963   5.356  2.4732  0.0197  1.4646
  842MOL0     H16178   5.255   2.291   5.378  0.1933  0.0418 -0.1947
  842MOL0     H16179   5.373   2.486   5.303 -1.4624  1.7281 -2.5131
  842MOL0     H16180   6.751   3.660   5.790  0.1499  0.5512  2.1883
  842MOL0     H16181   6.775   3.813   5.938 -3.9263 -1.7052 -1.9195
  842MOL0     H16182   7.101   4.092   6.095  1.3201  1.7965 -0.3014
  842MOL0     H16183   7.195   4.245   6.279 -0.0284  0.9996 -1.6997
  842MOL0     H16184   7.105   4.524   6.287 -1.0317  1.0480  0.9666
  842MOL0     H16185   7.000   4.583   6.404 -0.8368 -0.3450 -3.2313
  842MOL0     H16186   7.250   4.650   6.419  0.1497 -0.1018 -0.5164
  842MOL0     H16187   7.295   4.488   6.459 -0.4341 -0.5442 -1.6481
  842MOL0     H16188   7.105   4.505   6.655 -2.9871  1.4201 -0.4858
  842MOL0     H16189   7.258   4.570   6.680 -0.0792 -1.1105 -0.2272
  842MOL0     H16190   7.099   4.718   6.758  1.5785 -2.5041 -0.2009
  842MOL0     H16191   7.011   4.721   6.594  0.8555  1.3040 -1.7345
  842MOL0     H16192   7.305   4.970   6.480  2.3162 -1.1569  0.8615
  842MOL0     H16193   6.807   4.396   6.361 -0.6759 -0.1393 -2.1643
  842MOL0     H16194   6.631   4.360   6.213  0.7523  1.0096 -1.5601
  842MOL0     H16195   6.676   4.299   6.057  0.8328 -4.6505 -0.6028
  842MOL0     H16196   6.609   4.193   6.186  0.4388 -1.0255  0.9120
  843MOL0     O16197   6.012   5.714   8.175  0.2911 -0.6071 -0.9525
  843MOL0     C16198   6.067   5.622   8.117  0.3105 -1.6412 -0.2434
  843MOL0     O16199   6.138   5.526   8.175 -0.0180 -1.2920 -0.1949
  843MOL0     C16200   6.091   5.481   8.301 -0.1607 -0.3969 -0.0056
  843MOL0     C16201   6.119   5.551   8.418  0.5138 -0.8699 -0.7022
  843MOL0     C16202   6.110   5.490   8.543 -0.2852 -0.5327  0.3625
  843MOL0     C16203   6.046   5.366   8.546 -0.7902 -0.7772 -0.5046
  843MOL0     O16204   6.024   5.329   8.671 -0.4357  0.4670  0.1221
  843MOL0     C16205   5.941   5.208   8.685  0.9034  0.8216 -0.3640
  843MOL0     C16206   5.889   5.164   8.820 -0.2290 -0.2452 -1.4601
  843MOL0     C16207   5.870   5.010   8.865  0.1262 -0.7143  0.3061
  843MOL0     C16208   6.002   4.934   8.878  0.5302  0.1338  0.4494
  843MOL0     C16209   6.002   4.807   8.974  0.1429  1.1441 -0.3530
  843MOL0     C16210   6.019   4.855   9.121  0.6855  0.5137 -0.3543
  843MOL0     C16211   6.020   4.738   9.226  0.5559  0.4551  0.3790
  843MOL0     C16212   6.151   4.650   9.203 -0.0718  0.4341  0.6592
  843MOL0     N16213   6.279   4.718   9.227  0.4002 -0.9584  0.3635
  843MOL0     C16214   6.319   4.780   9.349  1.0050 -0.0499  1.1949
  843MOL0     C16215   6.448   4.831   9.319  0.4167 -0.0122  0.6701
  843MOL0     C16216   6.546   4.897   9.407  0.5451 -0.0106  0.0357
  843MOL0     C16217   6.485   4.977   9.525 -0.2442  0.2101 -0.7910
  843MOL0     C16218   6.588   5.017   9.630  0.2441  0.3143 -0.6564
  843MOL0     C16219   6.551   5.150   9.711  0.2644 -0.4079  0.4727
  843MOL0     O16220   6.406   5.148   9.729  0.6655  0.1708  0.5809
  843MOL0     C16221   6.350   5.237   9.820 -0.3927  0.5441  0.4376
  843MOL0     C16222   6.253   5.332   9.786 -0.9066  0.4949 -0.2354
  843MOL0     C16223   6.209   5.431   9.876  0.2938  0.0551 -0.5946
  843MOL0     C16224   6.116   5.534   9.821 -0.7051  0.0247 -0.2396
  843MOL0     C16225   6.261   5.435  10.006 -0.1675 -0.9900 -0.1955
  843MOL0     C16226   6.226   5.539  10.116 -0.1307 -0.2861 -0.4112
  843MOL0     O16227   6.297   5.557  10.233 -0.0394  0.6009 -0.6896
  843MOL0     C16228   6.284   5.669  10.311  0.9899 -0.4457  0.0841
  843MOL0     C16229   6.243   5.796  10.276  0.4096 -0.3391  0.7489
  843MOL0     C16230   6.254   5.905  10.370 -0.0666 -0.2676 -0.1157
  843MOL0     C16231   6.301   5.888  10.500  0.4991  0.5540 -1.3360
  843MOL0     O16232   6.331   5.987  10.588  0.0345 -0.4881 -0.4776
  843MOL0     C16233   6.316   6.123  10.551 -0.8564  0.1434 -0.3699
  843MOL0     C16234   6.397   6.186  10.672  0.5103  0.6570  0.2238
  843MOL0     C16235   6.359   6.336  10.662 -1.1388  0.0809  0.3560
  843MOL0     C16236   6.431   6.430  10.765 -0.1170 -0.3401  0.3406
  843MOL0     C16237   6.379   6.430  10.900  0.0782 -0.6684  0.0147
  843MOL0     C16238   6.436   6.524  11.006  0.2132  0.2505 -0.0616
  843MOL0     C16239   6.365   6.514  11.138 -0.3130 -0.2621 -0.8002
  843MOL0     C16240   6.397   6.388  11.215 -0.5322  0.2079  1.2426
  843MOL0    Cl16241   6.310   6.382  11.371 -0.0586  0.0483  0.2717
  843MOL0     C16242   6.334   5.756  10.537 -0.6296 -0.0903  0.0621
  843MOL0     C16243   6.327   5.650  10.448 -0.4481 -0.2781 -0.0047
  843MOL0     O16244   6.126   5.599  10.094  0.2970  0.1135 -0.4375
  843MOL0     C16245   6.359   5.335  10.041 -0.5423 -0.1114 -0.1998
  843MOL0     C16246   6.398   5.236   9.945 -0.8777  0.6272 -0.6560
  843MOL0     N16247   6.471   4.784   9.187 -0.3150  0.5027  1.4219
  843MOL0     N16248   6.376   4.717   9.135 -0.3856  0.0106  0.2129
  843MOL0     C16249   6.033   5.293   8.423 -0.8974  0.1698 -0.1789
  843MOL0     C16250   6.061   5.347   8.296  0.0091 -0.5409  0.7042
  843MOL0     C16251   6.079   5.629   7.964  0.2631  0.1566  0.3090
  843MOL0     C16252   6.188   5.566   7.898  0.2998  0.1532  0.5203
  843MOL0     C16253   6.195   5.561   7.749 -0.3051 -0.5191 -0.6858
  843MOL0     C16254   6.122   5.655   7.674  1.2614 -0.5643 -0.3303
  843MOL0     O16255   6.139   5.686   7.541 -0.1487 -0.1530  0.1708
  843MOL0     C16256   6.244   5.637   7.457 -0.0294 -0.3002  1.2761
  843MOL0     C16257   6.185   5.593   7.320 -0.7407  0.9053  0.0726
  843MOL0     C16258   6.277   5.504   7.241  0.0632 -0.0481  0.6934
  843MOL0     C16259   6.198   5.428   7.133  1.5869 -0.0194 -1.0648
  843MOL0     C16260   6.273   5.366   7.027  0.1288 -0.0089  0.0777
  843MOL0     C16261   6.344   5.313   6.937 -0.1589 -1.7882 -0.0001
  843MOL0     C16262   6.014   5.714   7.746 -0.7340 -0.2845  0.2707
  843MOL0     C16263   5.992   5.702   7.876  0.1558  0.1290 -1.2482
  843MOL0     C16264   5.859   5.769   7.924  0.1964  0.0705 -0.2142
  843MOL0     H16265   6.157   5.653   8.410 -2.6149  0.5962  1.3838
  843MOL0     H16266   6.134   5.544   8.634 -0.4182  3.3084 -1.6528
  843MOL0     H16267   5.994   5.122   8.643 -1.6593  0.5757 -3.5448
  843MOL0     H16268   5.846   5.219   8.631  0.8923  5.0579  0.1496
  843MOL0     H16269   5.958   5.197   8.898 -2.2239 -0.2953  0.4002
  843MOL0     H16270   5.790   5.207   8.831 -0.0927 -0.5030  2.1035
  843MOL0     H16271   5.807   5.001   8.954 -0.4535  0.1444 -0.0032
  843MOL0     H16272   5.812   4.966   8.784 -0.8383 -2.1895  1.7287
  843MOL0     H16273   6.034   4.908   8.776  0.1811 -3.6285  1.1453
  843MOL0     H16274   6.079   5.002   8.914 -0.4370  1.2185  0.5374
  843MOL0     H16275   6.083   4.739   8.948 -1.3703 -0.5535 -0.7791
  843MOL0     H16276   5.909   4.752   8.963  0.0802  1.0316  0.6082
  843MOL0     H16277   6.101   4.926   9.135  0.6587  0.2753  1.1402
  843MOL0     H16278   5.931   4.917   9.137 -0.9956 -0.7700 -3.6007
  843MOL0     H16279   5.931   4.676   9.235  0.2086  1.0654  1.2421
  843MOL0     H16280   6.044   4.775   9.326  2.7627 -1.0197  0.4736
  843MOL0     H16281   6.147   4.570   9.278  1.6790 -1.6024 -1.2897
  843MOL0     H16282   6.142   4.616   9.100  0.3837  2.2984 -0.0311
  843MOL0     H16283   6.272   4.779   9.446  0.8097 -3.5712  1.1939
  843MOL0     H16284   6.608   4.966   9.350 -3.4367  3.1024 -0.9670
  843MOL0     H16285   6.611   4.815   9.439  0.3672 -0.3687 -0.4968
  843MOL0     H16286   6.431   5.062   9.482 -1.4625 -0.6222 -0.9642
  843MOL0     H16287   6.404   4.923   9.575 -1.6649  1.8221 -1.2448
  843MOL0     H16288   6.582   4.937   9.704 -1.4955  2.1600  1.3334
  843MOL0     H16289   6.690   5.028   9.592 -0.1404 -0.3424 -1.9389
  843MOL0     H16290   6.607   5.155   9.805  0.6520  3.1382  0.1946
  843MOL0     H16291   6.586   5.237   9.654  4.5421 -2.3073 -0.2348
  843MOL0     H16292   6.210   5.339   9.686  1.5436  3.1093 -1.2507
  843MOL0     H16293   6.147   5.638   9.830 -2.5045  0.7612 -1.7140
  843MOL0     H16294   6.024   5.532   9.880  1.8881  2.5978  4.4684
  843MOL0     H16295   6.098   5.511   9.716 -2.6061  2.1341 -0.4603
  843MOL0     H16296   6.206   5.817  10.176 -2.4111 -0.0220  1.7586
  843MOL0     H16297   6.231   6.004  10.332 -0.3821 -0.2911  0.0082
  843MOL0     H16298   6.363   6.144  10.454 -1.7798 -2.4122 -1.4698
  843MOL0     H16299   6.212   6.154  10.541 -0.9373 -0.8094 -4.0856
  843MOL0     H16300   6.382   6.142  10.771  3.2456  0.1475  0.4848
  843MOL0     H16301   6.502   6.162  10.653 -0.0544 -1.0914 -0.9174
  843MOL0     H16302   6.252   6.348  10.683 -1.2913 -1.7747  0.7581
  843MOL0     H16303   6.372   6.367  10.558  1.4627 -1.9108 -0.0035
  843MOL0     H16304   6.442   6.534  10.731 -0.7016  1.4448  4.8501
  843MOL0     H16305   6.533   6.393  10.776 -0.6591 -1.5290  1.6275
  843MOL0     H16306   6.270   6.439  10.886  0.3970  0.4160 -2.3729
  843MOL0     H16307   6.397   6.325  10.926  1.5843 -1.3674 -3.2499
  843MOL0     H16308   6.446   6.628  10.974  4.8433 -0.1618 -0.6240
  843MOL0     H16309   6.540   6.495  11.024  0.3345  0.3495 -0.5755
  843MOL0     H16310   6.259   6.516  11.111 -0.6904 -3.9211 -0.0801
  843MOL0     H16311   6.385   6.594  11.209  2.2688  0.0554 -1.7621
  843MOL0     H16312   6.504   6.387  11.239 -1.2847  2.1948  5.6368
  843MOL0     H16313   6.375   6.302  11.152  0.8959  2.0223 -2.0038
  843MOL0     H16314   6.380   5.745  10.635  1.0988 -2.9813 -0.9303
  843MOL0     H16315   6.368   5.552  10.471 -0.3316 -0.3069 -0.3213
  843MOL0     H16316   6.415   5.323  10.133 -1.3680 -4.7761 -0.0873
  843MOL0     H16317   6.469   5.161   9.980 -0.0626  1.9734  0.7339
  843MOL0     H16318   6.008   5.188   8.413  3.2145 -0.8801 -1.1349
  843MOL0     H16319   6.061   5.292   8.202 -0.2871  1.9414 -0.8476
  843MOL0     H16320   6.256   5.511   7.962  0.6053 -0.8303 -0.6023
  843MOL0     H16321   6.282   5.502   7.722  0.7931  0.2341  1.0252
  843MOL0     H16322   6.325   5.710   7.443 -1.0301  0.4293 -1.1945
  843MOL0     H16323   6.289   5.553   7.510  0.0351 -2.3364 -1.7905
  843MOL0     H16324   6.155   5.674   7.253 -1.1135  0.7639  0.0663
  843MOL0     H16325   6.097   5.531   7.341  1.6306 -2.5248  0.7041
  843MOL0     H16326   6.344   5.580   7.199 -1.3145  2.6259  2.9419
  843MOL0     H16327   6.327   5.428   7.300  0.0297  0.5981  1.5794
  843MOL0     H16328   6.133   5.498   7.078  0.5518  0.5355  0.7803
  843MOL0     H16329   6.119   5.368   7.179  1.3728 -0.0154 -1.4216
  843MOL0     H16330   6.420   5.279   6.870  1.6856  1.2954  0.3411
  843MOL0     H16331   5.943   5.755   7.674 -0.0701 -1.8897 -1.3741
  843MOL0     H16332   5.786   5.757   7.843 -0.9251  2.5884  0.3265
  843MOL0     H16333   5.816   5.726   8.015 -2.7911  1.3780 -0.9155
  843MOL0     H16334   5.877   5.874   7.945 -0.1700  0.2623 -0.8526
  844MOL0     O16335   2.218   6.518   2.774 -0.2627  0.0148 -0.9645
  844MOL0     C16336   2.123   6.441   2.803  0.4689  0.5902  0.8527
  844MOL0     O16337   2.120   6.364   2.914 -0.1135  0.5393  0.4791
  844MOL0     C16338   2.228   6.374   2.997  0.0822 -0.1334 -0.8393
  844MOL0     C16339   2.366   6.344   2.962  0.8629 -0.2484 -0.2021
  844MOL0     C16340   2.465   6.369   3.062  0.2770  0.5985 -0.2157
  844MOL0     C16341   2.422   6.426   3.182 -0.4054  0.0358  0.0581
  844MOL0     O16342   2.511   6.465   3.284 -0.2815  0.6103 -0.2454
  844MOL0     C16343   2.523   6.606   3.281 -0.3062  0.7498  0.8187
  844MOL0     C16344   2.628   6.646   3.379  0.2051  0.0252  0.0419
  844MOL0     C16345   2.772   6.605   3.364  0.2221  0.0762 -0.4709
  844MOL0     C16346   2.831   6.666   3.243  0.9695  0.2778 -0.1645
  844MOL0     C16347   2.977   6.635   3.228  0.8277 -0.4528 -0.5492
  844MOL0     C16348   3.059   6.718   3.334  1.3817  0.5390  1.1464
  844MOL0     C16349   3.205   6.707   3.279  0.7310  0.5809  0.3827
  844MOL0     C16350   3.295   6.792   3.369 -1.0240 -0.5329 -0.4603
  844MOL0     N16351   3.425   6.822   3.302  0.6996 -0.1863  0.0997
  844MOL0     C16352   3.509   6.726   3.256 -0.4028  0.1725 -0.3783
  844MOL0     C16353   3.615   6.806   3.212 -0.1079  0.1307  0.0926
  844MOL0     C16354   3.747   6.753   3.154 -0.4206  0.1866  0.8313
  844MOL0     C16355   3.720   6.671   3.024  0.0416 -0.2679 -0.2569
  844MOL0     C16356   3.850   6.595   2.986 -0.1975 -0.9391 -0.5191
  844MOL0     C16357   3.848   6.560   2.835 -0.5470 -0.2347 -0.8516
  844MOL0     O16358   3.759   6.444   2.818 -0.1946 -0.4804 -0.4751
  844MOL0     C16359   3.825   6.340   2.757 -0.3938 -0.1287  0.5331
  844MOL0     C16360   3.819   6.303   2.625 -0.2091  0.0341 -0.3737
  844MOL0     C16361   3.883   6.192   2.572 -0.1160  0.1955 -0.2646
  844MOL0     C16362   3.871   6.178   2.420  0.2081  0.2502 -0.3588
  844MOL0     C16363   3.939   6.095   2.654 -1.4798  0.4747 -0.1056
  844MOL0     C16364   4.004   5.972   2.600 -0.9660  0.7880 -0.3313
  844MOL0     O16365   4.062   5.981   2.478  0.3324  1.1997  0.0888
  844MOL0     C16366   4.108   5.861   2.417  0.9308  0.0730  0.2355
  844MOL0     C16367   4.234   5.812   2.440 -0.7168 -0.2642 -0.2615
  844MOL0     C16368   4.274   5.701   2.368  0.0817 -0.8286 -1.0229
  844MOL0     C16369   4.196   5.645   2.273 -0.0981 -0.2203  0.4288
  844MOL0     O16370   4.232   5.534   2.194 -0.0788 -0.0109 -0.3452
  844MOL0     C16371   4.354   5.554   2.121  0.2422  0.1921  0.7583
  844MOL0     C16372   4.346   5.472   1.992  0.4814  0.4283  0.0204
  844MOL0     C16373   4.482   5.482   1.920  0.3897  0.4304  0.5787
  844MOL0     C16374   4.499   5.370   1.821  0.0359  0.1887 -0.3931
  844MOL0     C16375   4.644   5.372   1.778  0.3789 -0.0790  0.1525
  844MOL0     C16376   4.659   5.271   1.662 -0.1166 -0.1381  0.8083
  844MOL0     C16377   4.796   5.287   1.596  0.3622 -0.0230 -0.3851
  844MOL0     C16378   4.804   5.179   1.478  0.0818 -0.6348  0.8528
  844MOL0    Cl16379   4.664   5.204   1.370 -0.0181  0.0478  0.8100
  844MOL0     C16380   4.068   5.703   2.241 -0.5757  0.8471  0.6465
  844MOL0     C16381   4.020   5.804   2.320 -0.0416  0.2177  0.6371
  844MOL0     O16382   3.993   5.869   2.667 -0.2248 -0.4756  0.5066
  844MOL0     C16383   3.934   6.121   2.797  1.3011 -0.5591  0.6630
  844MOL0     C16384   3.881   6.241   2.840 -1.0066 -0.6347 -0.0096
  844MOL0     N16385   3.592   6.945   3.242 -0.3604  0.1872 -0.7552
  844MOL0     N16386   3.471   6.948   3.284 -0.0676  0.0439 -0.6049
  844MOL0     C16387   2.290   6.434   3.218 -0.3081 -0.1310 -0.2469
  844MOL0     C16388   2.189   6.395   3.134  0.3701 -0.4088 -0.2627
  844MOL0     C16389   2.007   6.450   2.713  0.9925  0.3277 -0.4453
  844MOL0     C16390   1.883   6.399   2.759  0.1334 -0.0740 -0.1192
  844MOL0     C16391   1.764   6.402   2.686  0.4314  0.0321  0.4372
  844MOL0     C16392   1.760   6.468   2.558 -0.4530 -0.7684  0.1212
  844MOL0     O16393   1.660   6.480   2.466 -0.0952  0.3021  0.5168
  844MOL0     C16394   1.529   6.513   2.532 -0.5178 -0.1299  0.2713
  844MOL0     C16395   1.423   6.411   2.473  0.6755  0.9350 -0.4687
  844MOL0     C16396   1.277   6.442   2.524  0.0759  1.2282  0.6334
  844MOL0     C16397   1.211   6.558   2.447 -0.1926 -0.4006 -0.7600
  844MOL0     C16398   1.086   6.586   2.523 -0.4537  0.3372  0.5898
  844MOL0     C16399   0.991   6.612   2.584  0.6242  0.8529  0.6144
  844MOL0     C16400   1.881   6.526   2.519  1.5444  0.1754 -0.5250
  844MOL0     C16401   2.002   6.510   2.584  0.2637 -0.3014 -0.0994
  844MOL0     C16402   2.124   6.580   2.520  1.0948 -0.4948  0.0898
  844MOL0     H16403   2.391   6.299   2.866 -0.0633 -1.3100  0.0343
  844MOL0     H16404   2.571   6.345   3.059  0.0246 -1.6748  3.1488
  844MOL0     H16405   2.426   6.654   3.300 -1.6729  0.9029 -4.7600
  844MOL0     H16406   2.550   6.635   3.179  1.3977  0.9153  1.2915
  844MOL0     H16407   2.618   6.754   3.392  0.5387 -0.0780  1.2915
  844MOL0     H16408   2.599   6.606   3.476  0.0547 -0.6820 -0.2873
  844MOL0     H16409   2.827   6.644   3.450  0.9750 -6.1793  2.4410
  844MOL0     H16410   2.769   6.496   3.370 -2.3625  0.1596  1.4473
  844MOL0     H16411   2.769   6.626   3.163  0.0901 -0.5794  0.9103
  844MOL0     H16412   2.825   6.774   3.256 -0.4791  0.0743  1.1615
  844MOL0     H16413   3.005   6.672   3.129  2.1234  1.9372  0.6169
  844MOL0     H16414   2.997   6.529   3.245  3.4472  0.2948  1.9412
  844MOL0     H16415   3.026   6.821   3.348  2.3428  0.9318  0.6423
  844MOL0     H16416   3.055   6.661   3.428  1.0652 -0.3567  0.6107
  844MOL0     H16417   3.197   6.745   3.177  3.8475 -0.1712 -0.2402
  844MOL0     H16418   3.233   6.601   3.285  0.6416  0.3809 -1.8263
  844MOL0     H16419   3.249   6.891   3.376  3.2323  1.6789 -0.5257
  844MOL0     H16420   3.309   6.741   3.464  0.5592  3.5028  1.6768
  844MOL0     H16421   3.508   6.619   3.240 -0.1636 -0.3945  2.7092
  844MOL0     H16422   3.776   6.671   3.220 -1.2459 -0.1122  0.8321
  844MOL0     H16423   3.825   6.828   3.141 -0.0873 -0.4536 -1.3532
  844MOL0     H16424   3.643   6.594   3.028 -1.0992  0.8758  0.6192
  844MOL0     H16425   3.684   6.750   2.958 -1.0281 -1.0779 -0.6703
  844MOL0     H16426   3.934   6.659   3.018 -0.1677 -2.3533  2.6338
  844MOL0     H16427   3.874   6.509   3.049  1.7986 -0.1002 -0.0455
  844MOL0     H16428   3.811   6.649   2.784 -0.0231  1.7883  2.0285
  844MOL0     H16429   3.950   6.531   2.808 -0.5599  0.0625 -1.2257
  844MOL0     H16430   3.760   6.371   2.564 -2.3115  1.1741  2.7074
  844MOL0     H16431   3.839   6.075   2.402 -3.7992  0.7995  2.3328
  844MOL0     H16432   3.965   6.200   2.368 -1.1289  1.3566 -2.4508
  844MOL0     H16433   3.804   6.251   2.373  0.3180  0.4936 -0.1377
  844MOL0     H16434   4.292   5.866   2.514 -2.2212 -1.9136  2.2853
  844MOL0     H16435   4.379   5.683   2.390 -0.1360 -0.2884  0.6178
  844MOL0     H16436   4.361   5.659   2.091  1.0883  0.5089  1.9721
  844MOL0     H16437   4.442   5.526   2.180 -0.6412  0.1999  2.1334
  844MOL0     H16438   4.316   5.372   2.026 -0.8272  1.1462  1.0864
  844MOL0     H16439   4.275   5.506   1.917  3.6070 -0.7440 -3.8387
  844MOL0     H16440   4.564   5.483   1.992  2.8493  2.0686 -2.0343
  844MOL0     H16441   4.500   5.577   1.869  0.9291  1.3272  2.3550
  844MOL0     H16442   4.447   5.396   1.728 -1.3469 -0.9026  0.0318
  844MOL0     H16443   4.459   5.276   1.862 -0.6843  1.2162  1.4045
  844MOL0     H16444   4.676   5.472   1.748  1.7150 -0.6435 -0.4213
  844MOL0     H16445   4.709   5.337   1.859  0.0855 -0.3709  0.2604
  844MOL0     H16446   4.584   5.288   1.585 -0.8935 -2.0633  1.1042
  844MOL0     H16447   4.644   5.170   1.699  0.3079 -0.4854  0.0502
  844MOL0     H16448   4.876   5.279   1.670  1.9614  1.4371 -1.8671
  844MOL0     H16449   4.809   5.388   1.557 -0.9610 -0.5233 -2.2887
  844MOL0     H16450   4.806   5.073   1.507 -0.4283 -1.3476 -1.5182
  844MOL0     H16451   4.899   5.204   1.430 -2.0632  0.4205 -3.3619
  844MOL0     H16452   4.003   5.686   2.156 -2.6542  4.0277  1.4245
  844MOL0     H16453   3.925   5.849   2.293 -0.1316  0.1962  0.9095
  844MOL0     H16454   3.968   6.042   2.863 -3.0412 -2.4133  1.0062
  844MOL0     H16455   3.890   6.268   2.945  1.7822  2.9826 -0.9460
  844MOL0     H16456   2.275   6.478   3.316  1.2622  3.5825 -1.5017
  844MOL0     H16457   2.084   6.386   3.160  0.0390  0.0203 -1.3775
  844MOL0     H16458   1.870   6.367   2.862 -0.2631 -2.6610 -0.9004
  844MOL0     H16459   1.683   6.345   2.731  2.0712  0.2428  3.9698
  844MOL0     H16460   1.526   6.490   2.639 -0.1148 -1.3884  0.0319
  844MOL0     H16461   1.503   6.617   2.512  0.9599  0.6628  2.1727
  844MOL0     H16462   1.448   6.320   2.527 -4.5794  0.7154  2.2502
  844MOL0     H16463   1.429   6.394   2.365  0.2045  2.2224 -0.7203
  844MOL0     H16464   1.213   6.354   2.514  2.9891 -0.9443 -0.5409
  844MOL0     H16465   1.274   6.456   2.633  3.2869 -1.1788  1.2066
  844MOL0     H16466   1.205   6.530   2.341 -0.1302  0.7385 -1.0759
  844MOL0     H16467   1.272   6.647   2.460  3.4033 -2.7969  0.1354
  844MOL0     H16468   0.912   6.624   2.656  1.2344 -0.9541  1.6381
  844MOL0     H16469   1.861   6.583   2.429 -2.3342 -0.8736 -0.4838
  844MOL0     H16470   2.212   6.520   2.492  0.6222 -0.9279 -0.5113
  844MOL0     H16471   2.095   6.628   2.426 -1.1526 -1.7696  0.0567
  844MOL0     H16472   2.158   6.658   2.588  0.3976  0.0492 -0.1792
  845MOL0     O16473   2.704   7.282   9.733  0.3325  0.6717  0.4699
  845MOL0     C16474   2.689   7.162   9.725 -0.5118 -0.7562 -0.2007
  845MOL0     O16475   2.642   7.095   9.622  0.1605  0.5252  0.3703
  845MOL0     C16476   2.612   7.165   9.507  0.0553 -0.4509 -0.8579
  845MOL0     C16477   2.678   7.124   9.389  0.7570  0.4296  0.3495
  845MOL0     C16478   2.632   7.181   9.265  0.1412  1.2052 -0.1252
  845MOL0     C16479   2.537   7.279   9.253 -0.8068  0.6097  0.0795
  845MOL0     O16480   2.523   7.354   9.138  0.1200 -0.3559 -0.1858
  845MOL0     C16481   2.458   7.292   9.019 -0.7233 -0.3210 -1.6278
  845MOL0     C16482   2.380   7.390   8.935  0.5604 -0.0050 -1.5365
  845MOL0     C16483   2.437   7.525   8.886  0.5613  0.9373  0.9480
  845MOL0     C16484   2.329   7.624   8.825 -0.3592  0.0878 -0.2384
  845MOL0     C16485   2.384   7.764   8.812  0.7307  0.1484 -0.1325
  845MOL0     C16486   2.291   7.863   8.735  0.8220 -0.0989  0.9143
  845MOL0     C16487   2.157   7.910   8.799  0.2525  0.8667 -0.3652
  845MOL0     C16488   2.104   8.039   8.734 -0.0496  0.8382 -0.4649
  845MOL0     N16489   2.000   8.023   8.632 -0.7372 -0.7524 -0.3635
  845MOL0     C16490   1.874   8.076   8.645 -0.3744  0.4000 -0.3304
  845MOL0     C16491   1.819   8.038   8.518  0.7336  0.2960  0.1535
  845MOL0     C16492   1.682   8.061   8.483  0.1365  0.1323 -0.1041
  845MOL0     C16493   1.597   7.968   8.571 -0.3720  0.8796 -0.2000
  845MOL0     C16494   1.452   7.926   8.518 -0.2598  0.1157 -0.6853
  845MOL0     C16495   1.333   7.980   8.591 -0.7969 -0.0007  0.1040
  845MOL0     O16496   1.330   7.936   8.726 -0.2005  0.5145 -0.2011
  845MOL0     C16497   1.213   7.875   8.762  0.5685 -0.5340 -0.7124
  845MOL0     C16498   1.136   7.915   8.880 -0.4291  1.1452 -0.5346
  845MOL0     C16499   1.011   7.858   8.916 -0.1616  0.7190  0.6300
  845MOL0     C16500   0.942   7.905   9.045 -0.9263 -0.5317 -1.0896
  845MOL0     C16501   0.960   7.749   8.837 -0.1952 -0.3355  0.0880
  845MOL0     C16502   0.821   7.680   8.866 -1.7232  0.1456  0.4167
  845MOL0     O16503   0.733   7.743   8.945  0.5060  0.1981 -0.5358
  845MOL0     C16504   0.601   7.714   8.948  0.3378  0.4679 -0.0855
  845MOL0     C16505   0.543   7.583   8.977 -0.0351  0.3983 -0.2313
  845MOL0     C16506   0.408   7.574   9.019 -0.2057 -0.3881  0.3892
  845MOL0     C16507   0.321   7.687   9.007 -0.4470  0.6332  0.3856
  845MOL0     O16508   0.189   7.681   9.043  0.4904 -0.6713 -0.1298
  845MOL0     C16509   0.147   7.612   9.157  0.4926  1.1776 -0.2014
  845MOL0     C16510  -0.008   7.604   9.166 -0.6588  0.5433  0.6545
  845MOL0     C16511  -0.076   7.534   9.049  0.0667  0.4757  0.9652
  845MOL0     C16512  -0.227   7.563   9.053 -0.1650  0.6222 -0.6195
  845MOL0     C16513  -0.299   7.504   9.178  0.6428  0.3770  0.8435
  845MOL0     C16514  -0.330   7.360   9.160 -0.2341 -0.2328  0.1319
  845MOL0     C16515  -0.372   7.294   9.285  0.1149 -0.1615 -0.3738
  845MOL0     C16516  -0.436   7.151   9.263  0.2374 -0.2108 -0.7418
  845MOL0    Cl16517  -0.471   7.081   9.431  0.4050 -0.1557  0.3241
  845MOL0     C16518   0.383   7.803   8.969  0.3331 -0.5917 -0.1829
  845MOL0     C16519   0.521   7.821   8.937  0.6482 -0.1023 -0.6840
  845MOL0     O16520   0.809   7.579   8.803 -0.7754  0.0729  0.5585
  845MOL0     C16521   1.043   7.697   8.738  0.3771  0.0842  0.4998
  845MOL0     C16522   1.171   7.755   8.700  0.1767 -0.2019  0.5818
  845MOL0     N16523   1.918   7.991   8.430 -0.6232 -0.1130  0.3201
  845MOL0     N16524   2.029   7.991   8.502  0.6933  0.9309 -0.0320
  845MOL0     C16525   2.478   7.319   9.376  0.2822  0.3840  0.2109
  845MOL0     C16526   2.520   7.261   9.495  0.4441 -0.3445  0.1684
  845MOL0     C16527   2.748   7.086   9.842  0.1131  0.4508 -0.9548
  845MOL0     C16528   2.767   6.942   9.823 -1.2478 -1.0451 -0.7449
  845MOL0     C16529   2.813   6.862   9.931 -0.2984  0.2168  0.1962
  845MOL0     C16530   2.843   6.923  10.051  0.5127 -0.3574  0.2059
  845MOL0     O16531   2.903   6.839  10.150  0.5618 -0.5989  0.0475
  845MOL0     C16532   2.922   6.877  10.290  0.0369  1.1363  1.2547
  845MOL0     C16533   3.029   6.792  10.364 -1.1155 -0.4346  0.2772
  845MOL0     C16534   3.014   6.807  10.522 -0.0344  0.0078  0.1590
  845MOL0     C16535   3.039   6.951  10.577 -0.2928 -1.0162 -0.2847
  845MOL0     C16536   2.921   7.042  10.567 -0.9805 -0.0119 -0.8440
  845MOL0     C16537   2.838   7.132  10.545  0.2736 -0.1571 -0.1305
  845MOL0     C16538   2.827   7.061  10.072 -1.0517 -1.2561 -0.0285
  845MOL0     C16539   2.781   7.142   9.968 -0.8803 -0.0176 -0.0966
  845MOL0     C16540   2.771   7.292  10.000  0.0432 -0.1676  0.1234
  845MOL0     H16541   2.750   7.042   9.387  2.5323  1.7219  3.7549
  845MOL0     H16542   2.671   7.147   9.169 -0.1152  0.9704 -0.1450
  845MOL0     H16543   2.415   7.197   9.053 -0.5008  0.4988  1.2260
  845MOL0     H16544   2.535   7.257   8.949 -0.5892 -1.1892 -1.0600
  845MOL0     H16545   2.366   7.323   8.850  3.1666 -3.0756  0.2534
  845MOL0     H16546   2.282   7.401   8.983  2.4136 -0.6431  2.8695
  845MOL0     H16547   2.495   7.567   8.969 -0.6901  4.9293  0.0142
  845MOL0     H16548   2.502   7.499   8.802 -2.3855  0.6656 -1.4325
  845MOL0     H16549   2.300   7.590   8.726 -1.3012  0.5739 -0.1401
  845MOL0     H16550   2.230   7.627   8.872 -1.6044  0.3401 -2.7365
  845MOL0     H16551   2.484   7.758   8.767  1.2575 -0.6891  1.0790
  845MOL0     H16552   2.390   7.811   8.911 -0.7973  2.5201 -1.0660
  845MOL0     H16553   2.337   7.962   8.729  2.6380 -0.9456  0.2481
  845MOL0     H16554   2.283   7.811   8.639  2.4621  0.4565  0.4555
  845MOL0     H16555   2.175   7.927   8.906 -2.2500 -0.2820  0.3060
  845MOL0     H16556   2.084   7.828   8.794  0.8398  0.3985 -1.6850
  845MOL0     H16557   2.070   8.089   8.825 -0.3613  0.9837 -0.6616
  845MOL0     H16558   2.183   8.100   8.687  1.1266 -0.3128 -0.0352
  845MOL0     H16559   1.820   8.119   8.728 -0.4944 -0.7958  0.2316
  845MOL0     H16560   1.666   8.029   8.379  0.0021  2.9552 -1.0467
  845MOL0     H16561   1.640   8.160   8.507 -0.9282 -0.7378  1.8620
  845MOL0     H16562   1.663   7.881   8.579  1.4937  1.9697 -2.5346
  845MOL0     H16563   1.584   8.010   8.671 -0.9439  1.4285 -0.4959
  845MOL0     H16564   1.445   7.954   8.413 -2.3973 -1.4839 -1.0379
  845MOL0     H16565   1.448   7.817   8.524 -1.1963  0.1930  0.5678
  845MOL0     H16566   1.352   8.088   8.591 -0.2510 -0.0861 -0.6174
  845MOL0     H16567   1.243   7.956   8.535 -0.1953  1.1659 -1.4274
  845MOL0     H16568   1.171   7.999   8.938 -0.5506  1.1428 -0.4600
  845MOL0     H16569   0.917   7.813   9.100 -3.0259  0.8609  0.4426
  845MOL0     H16570   0.856   7.969   9.026 -0.1705  2.2623  3.3336
  845MOL0     H16571   1.010   7.978   9.089 -2.7572  1.0452 -0.7636
  845MOL0     H16572   0.611   7.499   8.988 -0.5835  0.0668  0.6796
  845MOL0     H16573   0.376   7.475   9.051 -0.3373 -0.1978  0.8588
  845MOL0     H16574   0.186   7.510   9.164  0.4396  1.2577  3.6041
  845MOL0     H16575   0.190   7.660   9.246 -1.0172 -0.2138  1.3616
  845MOL0     H16576  -0.042   7.542   9.250 -0.7119  2.1306  1.8620
  845MOL0     H16577  -0.043   7.708   9.165 -1.6630  0.2704 -2.9107
  845MOL0     H16578  -0.055   7.427   9.057 -0.1220 -0.0922 -3.3316
  845MOL0     H16579  -0.052   7.570   8.948 -0.3907  0.4263  0.8327
  845MOL0     H16580  -0.281   7.550   8.958 -2.4144  1.0502  0.5362
  845MOL0     H16581  -0.223   7.670   9.077 -1.7664  0.6744 -0.4781
  845MOL0     H16582  -0.251   7.521   9.275 -1.5117  2.8722  1.6020
  845MOL0     H16583  -0.396   7.554   9.186 -0.5556 -1.9474  1.5686
  845MOL0     H16584  -0.250   7.301   9.116  0.0508  0.4541 -0.2935
  845MOL0     H16585  -0.411   7.362   9.087 -0.9407  2.5114  0.8627
  845MOL0     H16586  -0.443   7.345   9.350  1.8885  0.1756  1.4137
  845MOL0     H16587  -0.282   7.271   9.343 -0.8140 -2.8300  0.1399
  845MOL0     H16588  -0.368   7.096   9.198  2.1409 -2.7981  3.0633
  845MOL0     H16589  -0.531   7.160   9.209  0.2786  1.8754 -0.5681
  845MOL0     H16590   0.324   7.892   8.951 -0.4606 -1.4256 -1.8671
  845MOL0     H16591   0.568   7.910   8.896 -0.2293 -0.2901 -2.1684
  845MOL0     H16592   1.025   7.607   8.681  0.3728  0.3902  0.0162
  845MOL0     H16593   1.222   7.721   8.611  0.7941  1.2757  0.3325
  845MOL0     H16594   2.389   7.379   9.367 -2.4126 -3.5114 -2.4992
  845MOL0     H16595   2.469   7.282   9.589  3.8868  1.7568  1.7731
  845MOL0     H16596   2.776   6.893   9.726 -0.2614 -3.5467  0.5369
  845MOL0     H16597   2.837   6.757   9.917  3.2384  1.0894 -1.4659
  845MOL0     H16598   2.935   6.985  10.298 -1.0751  1.4039 -0.1441
  845MOL0     H16599   2.826   6.850  10.336 -0.0472  0.0996  0.5230
  845MOL0     H16600   3.129   6.823  10.333 -1.2039 -1.3228 -1.0077
  845MOL0     H16601   3.020   6.688  10.331  1.4972 -1.2534  1.8501
  845MOL0     H16602   2.920   6.767  10.562  0.7122 -2.4469 -0.3919
  845MOL0     H16603   3.095   6.749  10.567 -0.6756 -1.2097 -0.2447
  845MOL0     H16604   3.114   7.004  10.518 -1.4030 -2.1537 -2.8662
  845MOL0     H16605   3.078   6.947  10.680  2.3045 -0.0249 -1.1483
  845MOL0     H16606   2.766   7.205  10.513  1.5144  0.8074 -0.8253
  845MOL0     H16607   2.846   7.092  10.174  0.9650 -2.0519 -0.1065
  845MOL0     H16608   2.667   7.321   9.984 -0.5285 -1.5908  1.0161
  845MOL0     H16609   2.783   7.300  10.108 -0.6190  0.3092  0.1646
  845MOL0     H16610   2.832   7.355   9.935  0.9667 -0.5607  0.5852
  846MOL0     O16611   0.763   8.635   3.206  0.8571  0.5546  0.1290
  846MOL0     C16612   0.716   8.606   3.318  0.3983 -0.6118 -0.4097
  846MOL0     O16613   0.621   8.692   3.384 -0.1725  0.1300 -0.5976
  846MOL0     C16614   0.521   8.763   3.311 -0.0086 -0.2683 -0.3706
  846MOL0     C16615   0.434   8.860   3.375 -0.3852 -0.4760 -0.3388
  846MOL0     C16616   0.329   8.927   3.315  0.4748  0.9857  0.3128
  846MOL0     C16617   0.303   8.903   3.178 -1.0280 -0.1434 -0.4557
  846MOL0     O16618   0.205   8.975   3.120 -0.2672  0.5762  0.3466
  846MOL0     C16619   0.105   8.900   3.035 -0.0320 -0.7381  0.9146
  846MOL0     C16620   0.011   8.837   3.137 -0.0974 -0.4001  0.2666
  846MOL0     C16621  -0.062   8.705   3.102  0.2624 -0.3994 -1.0082
  846MOL0     C16622   0.026   8.578   3.121 -0.4439  0.2909  0.7756
  846MOL0     C16623  -0.057   8.458   3.072 -0.1047  0.2635  0.0339
  846MOL0     C16624   0.019   8.328   3.106  0.0294 -0.2791  0.8633
  846MOL0     C16625  -0.047   8.206   3.046  0.1017  1.0235  0.9893
  846MOL0     C16626   0.043   8.080   3.060  0.9266 -0.1017  0.1134
  846MOL0     N16627   0.057   8.007   2.930  0.0046  0.6396 -0.1408
  846MOL0     C16628   0.161   8.017   2.833  0.0557  0.0062  0.5406
  846MOL0     C16629   0.133   7.925   2.737  0.0274 -0.2703 -0.4684
  846MOL0     C16630   0.225   7.899   2.613  0.0409  0.2679 -0.4112
  846MOL0     C16631   0.171   7.942   2.476  0.3672 -0.0219  0.0536
  846MOL0     C16632   0.144   8.087   2.457  0.5399  0.0464  0.8913
  846MOL0     C16633   0.054   8.118   2.337  0.7832 -0.5504 -0.1854
  846MOL0     O16634  -0.011   8.248   2.360  0.2587  0.7046 -0.9944
  846MOL0     C16635   0.046   8.368   2.313  0.0142 -0.5741 -0.4988
  846MOL0     C16636   0.044   8.482   2.395 -0.4100 -0.9751  0.5672
  846MOL0     C16637   0.075   8.609   2.344  0.0707  0.0663 -0.7155
  846MOL0     C16638   0.070   8.735   2.436  0.2916  0.4205  0.6105
  846MOL0     C16639   0.141   8.608   2.215 -0.6924 -0.6938 -1.1771
  846MOL0     C16640   0.231   8.721   2.177  0.0434  0.2865 -0.9909
  846MOL0     O16641   0.203   8.799   2.063 -0.2116  0.4168 -0.2702
  846MOL0     C16642   0.083   8.799   2.021 -0.5661  0.5399  0.6141
  846MOL0     C16643  -0.018   8.876   2.086 -0.3158 -0.5294 -0.4162
  846MOL0     C16644  -0.150   8.886   2.045 -0.5309 -0.7299  0.1117
  846MOL0     C16645  -0.188   8.828   1.927  0.4238 -0.3506  0.3035
  846MOL0     O16646  -0.319   8.849   1.896 -0.2044 -0.0902  0.6663
  846MOL0     C16647  -0.364   8.816   1.770 -0.2228 -0.5541  0.6948
  846MOL0     C16648  -0.307   8.899   1.658 -0.0998  0.1555  0.3835
  846MOL0     C16649  -0.335   8.831   1.527  0.2304  0.0898 -0.4469
  846MOL0     C16650  -0.361   8.943   1.427 -0.1500  0.4611 -0.0909
  846MOL0     C16651  -0.303   8.892   1.293  0.3708 -0.1738 -0.5895
  846MOL0     C16652  -0.354   8.755   1.249  0.3779 -0.5380 -1.1336
  846MOL0     C16653  -0.298   8.710   1.114 -0.9004 -0.6473 -0.1823
  846MOL0     C16654  -0.323   8.558   1.080  0.5586  0.2613 -0.4105
  846MOL0    Cl16655  -0.219   8.459   1.176 -0.2479 -0.2232  0.1207
  846MOL0     C16656  -0.092   8.751   1.856  0.7398 -0.9392  1.1869
  846MOL0     C16657   0.041   8.738   1.898  0.3938 -0.1673 -0.3822
  846MOL0     O16658   0.330   8.728   2.260 -0.2630 -0.4925 -0.2124
  846MOL0     C16659   0.155   8.490   2.143  0.3944  0.2410  0.4044
  846MOL0     C16660   0.101   8.374   2.186 -0.8019  0.1201 -0.9185
  846MOL0     N16661   0.022   7.855   2.789  0.3542 -0.2925  0.4012
  846MOL0     N16662  -0.030   7.913   2.881  0.7361 -0.2466  0.5503
  846MOL0     C16663   0.390   8.812   3.109 -0.3129  0.5933 -0.5889
  846MOL0     C16664   0.493   8.738   3.172  0.2524 -0.9993 -0.2060
  846MOL0     C16665   0.769   8.499   3.392  0.0451  0.0598 -1.2742
  846MOL0     C16666   0.684   8.392   3.427 -0.4287 -0.4959 -0.7105
  846MOL0     C16667   0.729   8.276   3.497 -0.4567 -0.7331  0.6489
  846MOL0     C16668   0.872   8.274   3.530  0.1918  0.5530  0.1878
  846MOL0     O16669   0.939   8.169   3.579  0.1674 -0.1083  0.1845
  846MOL0     C16670   0.900   8.096   3.696 -0.5054 -0.1669  0.3266
  846MOL0     C16671   0.789   8.006   3.666 -0.2706  0.2441  0.4316
  846MOL0     C16672   0.796   7.886   3.737 -0.0602  0.0535  0.3240
  846MOL0     C16673   0.671   7.802   3.699 -0.2844 -0.1536 -0.3753
  846MOL0     C16674   0.660   7.674   3.771  0.4769 -0.0036 -0.1819
  846MOL0     C16675   0.616   7.565   3.816 -0.4227 -0.4936  0.9161
  846MOL0     C16676   0.950   8.388   3.507  0.1501  0.4089 -0.6498
  846MOL0     C16677   0.900   8.507   3.442 -0.1161 -0.8987 -0.4479
  846MOL0     C16678   0.997   8.622   3.437 -0.4696 -0.7580  0.4673
  846MOL0     H16679   0.448   8.880   3.481  1.1134 -0.6448 -0.4821
  846MOL0     H16680   0.268   9.000   3.367  0.9207 -0.2900  2.8306
  846MOL0     H16681   0.148   8.838   2.956  1.8819 -1.9220  2.7591
  846MOL0     H16682   0.045   8.971   2.976  1.6346 -1.9367 -2.4676
  846MOL0     H16683   0.062   8.814   3.231 -2.8847 -1.1290  1.7299
  846MOL0     H16684  -0.064   8.912   3.164  0.7454 -0.5589  3.3819
  846MOL0     H16685  -0.159   8.697   3.150  0.4914  0.4989 -0.3725
  846MOL0     H16686  -0.085   8.708   2.995 -0.7607 -3.8342 -0.9758
  846MOL0     H16687   0.113   8.580   3.056 -2.2170 -2.5627 -1.9833
  846MOL0     H16688   0.055   8.572   3.226 -0.1111 -0.3901  0.6451
  846MOL0     H16689  -0.080   8.466   2.965 -0.7155 -1.8353 -0.0335
  846MOL0     H16690  -0.155   8.445   3.120  0.6562 -2.9819  0.9394
  846MOL0     H16691   0.124   8.334   3.078 -1.0239  3.2410 -3.6761
  846MOL0     H16692   0.006   8.317   3.214  0.4345 -2.9840  0.7014
  846MOL0     H16693  -0.060   8.228   2.940  2.6759  2.3700  0.8735
  846MOL0     H16694  -0.141   8.182   3.097  0.2118 -0.6773  0.4354
  846MOL0     H16695   0.140   8.106   3.103  1.3029 -0.0466 -0.7563
  846MOL0     H16696  -0.002   8.004   3.124  0.3833 -2.0660 -2.4519
  846MOL0     H16697   0.241   8.091   2.827  0.7229 -0.3808  3.3414
  846MOL0     H16698   0.254   7.794   2.610  3.0949  1.0110 -0.6342
  846MOL0     H16699   0.316   7.958   2.632  3.8008 -4.8317 -0.3221
  846MOL0     H16700   0.239   7.914   2.395 -2.5193  1.9594 -3.3415
  846MOL0     H16701   0.075   7.890   2.464 -1.1871  2.4616  0.8799
  846MOL0     H16702   0.087   8.131   2.539 -1.5975  2.8902 -1.8928
  846MOL0     H16703   0.239   8.141   2.445  0.1378  0.7893  0.9885
  846MOL0     H16704   0.112   8.117   2.245  0.3233  3.0758 -0.6661
  846MOL0     H16705  -0.018   8.035   2.333  0.3246 -0.1888  0.4175
  846MOL0     H16706   0.009   8.473   2.498  0.5618 -3.5218  0.7576
  846MOL0     H16707   0.020   8.708   2.529 -0.4477 -4.0900 -0.8541
  846MOL0     H16708   0.017   8.817   2.386 -0.4604 -1.9653 -2.9494
  846MOL0     H16709   0.171   8.768   2.463  0.4049  0.6753 -0.0790
  846MOL0     H16710   0.001   8.931   2.178 -0.3908 -0.8906 -0.1808
  846MOL0     H16711  -0.218   8.944   2.107 -1.7765 -3.7878  1.8284
  846MOL0     H16712  -0.340   8.711   1.752  0.9020  0.1776 -2.6870
  846MOL0     H16713  -0.474   8.820   1.769 -0.3012 -0.9942 -2.7811
  846MOL0     H16714  -0.354   8.998   1.663 -0.9044 -0.2427  0.8077
  846MOL0     H16715  -0.198   8.909   1.669  0.0163 -1.4947  0.9372
  846MOL0     H16716  -0.416   8.758   1.536  0.6923 -0.3183  0.5984
  846MOL0     H16717  -0.250   8.768   1.497 -0.8291 -0.7489 -1.7984
  846MOL0     H16718  -0.298   9.030   1.445  0.1275  0.2915 -0.2419
  846MOL0     H16719  -0.464   8.979   1.423 -0.4602 -0.3476  0.4106
  846MOL0     H16720  -0.327   8.968   1.218 -0.9412  0.5420  0.5027
  846MOL0     H16721  -0.194   8.886   1.303  0.2243 -1.9566  0.3450
  846MOL0     H16722  -0.460   8.773   1.227  0.8319  1.3911 -1.9810
  846MOL0     H16723  -0.338   8.681   1.328 -2.2700  0.7498  0.7565
  846MOL0     H16724  -0.192   8.737   1.114 -0.2430 -2.9792  0.6480
  846MOL0     H16725  -0.351   8.773   1.042 -2.6740 -1.7742  0.0699
  846MOL0     H16726  -0.300   8.546   0.973 -1.3643  0.5272 -0.8875
  846MOL0     H16727  -0.429   8.543   1.103 -0.1565  2.8457 -1.5358
  846MOL0     H16728  -0.125   8.705   1.764  2.9866 -0.3288  0.0070
  846MOL0     H16729   0.105   8.679   1.833  1.3447  1.0785 -0.6303
  846MOL0     H16730   0.218   8.494   2.055  0.6414 -0.2109  0.5578
  846MOL0     H16731   0.117   8.291   2.118 -2.4985 -0.1342 -1.0704
  846MOL0     H16732   0.371   8.798   3.003  0.9057 -0.8686 -0.6524
  846MOL0     H16733   0.557   8.669   3.118 -2.8457 -3.7604 -0.6648
  846MOL0     H16734   0.581   8.395   3.393 -1.2701  1.8761  1.6389
  846MOL0     H16735   0.672   8.183   3.502  0.0916 -1.1158 -0.0220
  846MOL0     H16736   0.991   8.053   3.739  0.8449  1.8770 -0.3367
  846MOL0     H16737   0.858   8.167   3.767  0.9511  0.8165  0.2499
  846MOL0     H16738   0.789   7.980   3.559  2.4837  0.8944  0.1897
  846MOL0     H16739   0.701   8.064   3.694  1.2028  1.9960  1.5958
  846MOL0     H16740   0.889   7.829   3.722  0.4437  1.0282 -0.3457
  846MOL0     H16741   0.795   7.909   3.844  1.4333 -0.4726  0.4817
  846MOL0     H16742   0.681   7.792   3.590 -0.5198  2.7459 -0.7412
  846MOL0     H16743   0.571   7.845   3.715 -1.3951 -1.0769 -3.8598
  846MOL0     H16744   0.578   7.474   3.855 -1.1503 -0.3201  0.6209
  846MOL0     H16745   1.054   8.389   3.535  0.3042 -1.1374 -1.0784
  846MOL0     H16746   0.964   8.709   3.378  2.4544 -1.3074 -2.2523
  846MOL0     H16747   1.016   8.659   3.538  0.0958  0.0967  0.0610
  846MOL0     H16748   1.093   8.594   3.393  1.1348  2.0450  1.8808
  847MOL0     O16749  10.894   9.876  11.225  0.6190  0.1101  0.2919
  847MOL0     C16750  10.923   9.989  11.246 -0.1042 -0.1158 -0.4189
  847MOL0     O16751  10.832  10.082  11.290 -0.1482 -0.1462 -0.3762
  847MOL0     C16752  10.696  10.063  11.299 -0.3038 -0.9494 -0.1005
  847MOL0     C16753  10.617   9.953  11.265 -0.4142  0.7360  0.0538
  847MOL0     C16754  10.478   9.957  11.266  0.1759 -0.6277  0.1680
  847MOL0     C16755  10.409  10.073  11.301 -0.6213 -0.9870 -0.3234
  847MOL0     O16756  10.274  10.084  11.279 -0.0947  0.1370 -0.0453
  847MOL0     C16757  10.202   9.975  11.339 -0.5729  0.1040  0.6179
  847MOL0     C16758  10.068  10.027  11.348  1.1913  0.1942 -0.0717
  847MOL0     C16759   9.958   9.919  11.360 -0.3609 -0.1648 -0.7567
  847MOL0     C16760   9.813   9.973  11.386 -0.1417  1.3837  0.1492
  847MOL0     C16761   9.794  10.002  11.533  0.4592  0.2938 -1.3991
  847MOL0     C16762   9.729  10.147  11.551 -0.6234 -0.2653 -0.2746
  847MOL0     C16763   9.585  10.168  11.523 -0.1018 -0.2453 -0.7932
  847MOL0     C16764   9.524  10.288  11.613  0.2391  0.2418  0.0902
  847MOL0     N16765   9.520  10.251  11.759  0.6357 -0.1153 -0.6298
  847MOL0     C16766   9.481  10.130  11.799 -0.0802 -0.4391 -0.5554
  847MOL0     C16767   9.501  10.131  11.935  0.5596 -0.8125 -0.1363
  847MOL0     C16768   9.481  10.013  12.026  0.6693  0.7950  0.7633
  847MOL0     C16769   9.597   9.916  12.006  0.1499  0.5435 -0.6128
  847MOL0     C16770   9.618   9.816  12.120 -0.2677 -0.5744  0.2692
  847MOL0     C16771   9.503   9.719  12.128 -0.1085  0.6131 -0.7259
  847MOL0     O16772   9.389   9.788  12.180  0.3055  0.3988 -0.0911
  847MOL0     C16773   9.386   9.829  12.308  1.2622 -0.1251  0.8613
  847MOL0     C16774   9.286   9.914  12.353 -0.3862  0.0469 -0.3050
  847MOL0     C16775   9.271   9.967  12.486  0.5287 -0.1889 -0.4873
  847MOL0     C16776   9.169  10.068  12.513  0.6273  0.1400 -1.1975
  847MOL0     C16777   9.368   9.932  12.580  0.3763  0.0204 -0.0802
  847MOL0     C16778   9.369   9.952  12.736  1.2530 -0.0362  1.0225
  847MOL0     O16779   9.489   9.949  12.803 -0.1242 -0.1623 -0.0754
  847MOL0     C16780   9.499   9.978  12.937 -0.2873  0.4343  0.4397
  847MOL0     C16781   9.624   9.945  12.978 -0.0504 -0.5821 -0.2868
  847MOL0     C16782   9.664   9.983  13.103 -0.2626  0.3348 -0.2301
  847MOL0     C16783   9.584  10.038  13.200  0.4062 -0.2877 -0.2737
  847MOL0     O16784   9.620  10.067  13.328 -0.0759 -0.4237  0.7601
  847MOL0     C16785   9.754  10.031  13.362 -0.4826 -0.2121  0.0764
  847MOL0     C16786   9.790  10.068  13.500 -0.1659 -0.1691  0.6228
  847MOL0     C16787   9.941  10.055  13.526 -0.4979  0.0952 -0.3408
  847MOL0     C16788  10.019   9.925  13.495 -0.8594  0.9422 -0.7198
  847MOL0     C16789  10.154   9.928  13.563  0.1787  0.4214 -0.1274
  847MOL0     C16790  10.239   9.804  13.509  0.6583 -0.9456 -0.9438
  847MOL0     C16791  10.384   9.834  13.539  0.2827 -0.0106  0.2865
  847MOL0     C16792  10.462   9.726  13.465 -0.5022  1.0249  0.3378
  847MOL0    Cl16793  10.431   9.713  13.295 -0.1517  0.1957  0.2623
  847MOL0     C16794   9.455  10.065  13.159  0.6716 -0.1711  1.1052
  847MOL0     C16795   9.412  10.042  13.022  0.6353 -0.6392 -0.3000
  847MOL0     O16796   9.255   9.969  12.789  0.1970 -0.4729 -0.2417
  847MOL0     C16797   9.471   9.849  12.542 -0.1808 -0.2527 -0.7361
  847MOL0     C16798   9.478   9.797  12.405  1.5114  0.5542 -0.8128
  847MOL0     N16799   9.541  10.254  11.975  0.1667  0.0774 -0.5164
  847MOL0     N16800   9.544  10.329  11.872  0.3199 -0.0379  0.6196
  847MOL0     C16801  10.488  10.184  11.348 -0.3081  0.5219  0.1206
  847MOL0     C16802  10.630  10.176  11.347  0.5457  0.6360  0.6528
  847MOL0     C16803  11.054  10.034  11.216 -0.8610 -0.2216 -0.2274
  847MOL0     C16804  11.116  10.123  11.309 -0.1556  0.4543  0.6429
  847MOL0     C16805  11.251  10.146  11.299 -0.0317  0.1038 -0.4546
  847MOL0     C16806  11.335  10.093  11.197  0.5411 -0.3571 -0.4232
  847MOL0     O16807  11.460  10.148  11.203 -0.3790  0.9813  0.1879
  847MOL0     C16808  11.568  10.103  11.117  0.0657  0.0466 -0.1484
  847MOL0     C16809  11.602  10.223  11.015  0.1442  0.1841  0.0770
  847MOL0     C16810  11.476  10.240  10.922  0.2039 -0.6528  0.4199
  847MOL0     C16811  11.496  10.301  10.794  0.2214 -1.2669  0.1889
  847MOL0     C16812  11.610  10.256  10.715  0.9503  1.0146 -0.3784
  847MOL0     C16813  11.688  10.212  10.641  0.0728  0.0994  0.2488
  847MOL0     C16814  11.277   9.999  11.111 -0.1241 -0.4933  0.0852
  847MOL0     C16815  11.137   9.973  11.116  0.8744 -0.9307 -0.6942
  847MOL0     C16816  11.092   9.879  11.006  0.8133 -0.7950 -0.2142
  847MOL0     H16817  10.654   9.854  11.242 -2.4188  0.5927 -3.0578
  847MOL0     H16818  10.414   9.874  11.238  0.1849 -0.2604 -0.9874
  847MOL0     H16819  10.230   9.945  11.441 -1.4634  2.5788  1.6938
  847MOL0     H16820  10.204   9.894  11.266  0.6234  1.9109 -1.4912
  847MOL0     H16821  10.059  10.099  11.431 -1.7695  1.6687 -1.4920
  847MOL0     H16822  10.041  10.082  11.257  0.7286  0.2072  0.0686
  847MOL0     H16823   9.948   9.859  11.269 -1.8990  0.3217 -0.9280
  847MOL0     H16824   9.990   9.858  11.445  1.1317 -2.2410 -2.6729
  847MOL0     H16825   9.788  10.065  11.332 -0.4404  1.7789  0.9416
  847MOL0     H16826   9.746   9.895  11.349  2.1595  0.0328 -1.4723
  847MOL0     H16827   9.893   9.999  11.578 -0.4304 -0.4704  0.6188
  847MOL0     H16828   9.735   9.929  11.588  0.0140  1.5890 -0.0938
  847MOL0     H16829   9.751  10.180  11.653 -0.5095 -0.1665 -0.3303
  847MOL0     H16830   9.780  10.218  11.484  1.2808  0.5321  1.8780
  847MOL0     H16831   9.530  10.074  11.532  2.0439 -1.5455 -0.3149
  847MOL0     H16832   9.568  10.200  11.420  1.3882  2.4850 -0.2721
  847MOL0     H16833   9.587  10.376  11.602  1.6245 -0.8832 -1.3970
  847MOL0     H16834   9.420  10.299  11.579  1.2489  0.1944 -3.4525
  847MOL0     H16835   9.435  10.046  11.748 -2.9746  0.6363  0.0882
  847MOL0     H16836   9.385   9.963  12.011  0.9828 -0.3151  2.3300
  847MOL0     H16837   9.476  10.046  12.130  0.9305  0.8872  0.7457
  847MOL0     H16838   9.576   9.863  11.913  1.9573  0.9804 -1.3214
  847MOL0     H16839   9.691   9.972  12.002 -0.2781  1.2434 -1.2405
  847MOL0     H16840   9.714   9.774  12.087  0.4372  0.5651  0.7710
  847MOL0     H16841   9.623   9.879  12.209 -2.1230  0.6412 -0.4344
  847MOL0     H16842   9.470   9.689  12.028 -5.4181 -0.9787  1.1716
  847MOL0     H16843   9.524   9.636  12.196  1.4125 -0.2964 -2.2210
  847MOL0     H16844   9.217   9.935  12.271 -0.4339  0.0629 -0.2614
  847MOL0     H16845   9.111  10.079  12.422 -1.5352  0.3047  0.1300
  847MOL0     H16846   9.206  10.168  12.542  0.7513 -0.2467  0.0453
  847MOL0     H16847   9.106  10.032  12.595  2.5131  0.3414  0.4126
  847MOL0     H16848   9.694   9.914  12.901 -3.3700 -2.6334 -2.7617
  847MOL0     H16849   9.759   9.945  13.139 -1.3683 -2.9510 -0.4642
  847MOL0     H16850   9.765   9.923  13.357 -0.9781 -0.3813  1.9464
  847MOL0     H16851   9.808  10.096  13.293  2.7373 -2.8561 -0.1116
  847MOL0     H16852   9.762  10.173  13.514  1.7130  0.5483 -0.6782
  847MOL0     H16853   9.724  10.006  13.562  1.8558 -1.5779  1.4438
  847MOL0     H16854   9.955  10.083  13.631 -0.7165 -1.2630  0.0639
  847MOL0     H16855   9.984  10.132  13.461 -1.6369  0.2507 -0.9429
  847MOL0     H16856  10.007   9.908  13.387  0.9110  0.4971 -0.8789
  847MOL0     H16857   9.963   9.849  13.550 -2.1531  2.3304 -0.0509
  847MOL0     H16858  10.196  10.022  13.525 -0.7865 -0.4559 -3.7004
  847MOL0     H16859  10.145   9.930  13.672  1.0202  3.1514 -0.0300
  847MOL0     H16860  10.221   9.796  13.402 -1.3527 -1.8780 -0.5693
  847MOL0     H16861  10.199   9.713  13.553 -2.4806 -0.0074 -1.6210
  847MOL0     H16862  10.392   9.835  13.648  0.0197  0.1739  0.3051
  847MOL0     H16863  10.413   9.927  13.490  0.0287  0.1367  0.4132
  847MOL0     H16864  10.446   9.625  13.502 -1.0004  0.0944 -2.1844
  847MOL0     H16865  10.567   9.752  13.477 -0.3715  0.5056  0.3182
  847MOL0     H16866   9.394  10.137  13.213  0.8353  1.8220 -1.1812
  847MOL0     H16867   9.315  10.081  12.994  0.7732  2.0828  2.5192
  847MOL0     H16868   9.553   9.831  12.610 -2.3428 -1.7589  1.6563
  847MOL0     H16869   9.557   9.729  12.376 -0.2302 -2.2277  0.4765
  847MOL0     H16870  10.441  10.278  11.376  0.5582  0.7480  0.8722
  847MOL0     H16871  10.688  10.264  11.374 -0.8399  1.0759  2.3655
  847MOL0     H16872  11.055  10.164  11.388  0.6580  1.3028  0.8487
  847MOL0     H16873  11.290  10.213  11.375 -0.8244  0.4658 -0.3541
  847MOL0     H16874  11.654  10.093  11.183 -0.0979 -0.5107 -0.0128
  847MOL0     H16875  11.540  10.014  11.061 -1.3110 -0.7729  1.7218
  847MOL0     H16876  11.687  10.198  10.952  0.7682 -1.6128  1.5441
  847MOL0     H16877  11.625  10.304  11.085 -1.0913  0.4605  0.1888
  847MOL0     H16878  11.451  10.137  10.895  2.9294 -1.3845  0.3470
  847MOL0     H16879  11.410  10.299  10.986  0.8841  0.6206 -0.0159
  847MOL0     H16880  11.537  10.401  10.810  2.4188 -1.4000 -3.6018
  847MOL0     H16881  11.403  10.303  10.736  0.3368 -2.8585 -0.0717
  847MOL0     H16882  11.764  10.186  10.571  0.2262  0.2136  0.3721
  847MOL0     H16883  11.340   9.959  11.033  0.3182  0.3576 -0.0103
  847MOL0     H16884  11.118   9.776  11.033  2.0381 -0.9109 -1.7058
  847MOL0     H16885  10.986   9.874  10.979  1.1284 -1.5345 -1.3926
  847MOL0     H16886  11.121   9.904  10.903 -3.4860  0.3646 -1.3587
  848MOL0     O16887   9.884   8.838   0.704  0.2893 -0.5100 -0.1791
  848MOL0     C16888   9.765   8.866   0.740  0.4797 -1.2470 -0.8668
  848MOL0     O16889   9.662   8.896   0.654 -0.2072 -0.6687  0.5317
  848MOL0     C16890   9.662   8.862   0.521  0.5200  0.5807  0.1862
  848MOL0     C16891   9.765   8.887   0.434  0.1850  0.2057  0.0903
  848MOL0     C16892   9.766   8.849   0.294 -0.0171 -0.1006  0.0388
  848MOL0     C16893   9.651   8.780   0.246 -0.9269 -0.0994 -0.7174
  848MOL0     O16894   9.649   8.757   0.114 -0.3673  0.1909 -0.1853
  848MOL0     C16895   9.682   8.629   0.069 -0.5240  0.1440 -0.2193
  848MOL0     C16896   9.730   8.632  -0.073 -0.3303 -0.7382  0.3859
  848MOL0     C16897   9.773   8.499  -0.119  0.3520  1.2025  0.6371
  848MOL0     C16898   9.885   8.482  -0.223  0.4144 -0.4104 -0.8713
  848MOL0     C16899   9.909   8.327  -0.242 -0.0859 -0.8464  0.6309
  848MOL0     C16900  10.035   8.301  -0.333 -1.0826  0.3306 -0.2390
  848MOL0     C16901  10.010   8.327  -0.486  1.0857  0.3456 -0.3657
  848MOL0     C16902  10.130   8.278  -0.566  0.9677  0.8066  0.0857
  848MOL0     N16903  10.105   8.275  -0.709  0.2121 -0.2625  0.6049
  848MOL0     C16904  10.037   8.176  -0.764 -0.1504  0.3815 -0.1809
  848MOL0     C16905  10.066   8.191  -0.895  0.6580  0.2398 -0.1977
  848MOL0     C16906  10.010   8.103  -1.010  0.0584 -0.0384  0.3881
  848MOL0     C16907  10.096   8.107  -1.135  0.4573  0.3063  0.9336
  848MOL0     C16908  10.231   8.047  -1.122  0.5012  0.6722 -0.6725
  848MOL0     C16909  10.322   8.108  -1.219 -0.4951 -0.5806 -0.8261
  848MOL0     O16910  10.280   8.092  -1.347  0.5116 -0.7651  0.1044
  848MOL0     C16911  10.342   8.164  -1.450 -1.1583 -0.0445 -1.9978
  848MOL0     C16912  10.300   8.137  -1.581  0.6021 -0.6417 -0.5325
  848MOL0     C16913  10.334   8.216  -1.688  0.3646  0.1080 -0.0764
  848MOL0     C16914  10.274   8.192  -1.833 -0.7477  0.4125 -0.6316
  848MOL0     C16915  10.441   8.309  -1.669 -0.0539  0.1458  0.5880
  848MOL0     C16916  10.500   8.397  -1.773 -0.2777 -0.4140  0.4159
  848MOL0     O16917  10.423   8.408  -1.886  0.5786 -0.2631  0.0367
  848MOL0     C16918  10.493   8.430  -2.004 -0.3588 -0.2369 -1.0316
  848MOL0     C16919  10.436   8.503  -2.109  1.0698 -0.1439 -0.5957
  848MOL0     C16920  10.500   8.510  -2.239  0.7231 -0.8471  0.2586
  848MOL0     C16921  10.631   8.469  -2.258  1.4199  0.0349 -1.1456
  848MOL0     O16922  10.702   8.508  -2.365 -0.1711 -0.7203 -0.2003
  848MOL0     C16923  10.805   8.419  -2.416  0.3858  1.1296 -0.4849
  848MOL0     C16924  10.947   8.452  -2.361 -0.2788  0.1393  0.1180
  848MOL0     C16925  11.043   8.336  -2.389  1.1891 -0.6188 -0.4765
  848MOL0     C16926  11.173   8.349  -2.311 -0.8466  0.2121  0.4483
  848MOL0     C16927  11.271   8.240  -2.360  0.0532  0.2767  0.0352
  848MOL0     C16928  11.417   8.265  -2.311 -0.7757  0.4647  0.2953
  848MOL0     C16929  11.426   8.259  -2.150  0.4120  0.0341 -0.2726
  848MOL0     C16930  11.566   8.272  -2.096 -0.3233 -0.4955  0.8052
  848MOL0    Cl16931  11.645   8.422  -2.136 -0.5152  0.1144 -0.0542
  848MOL0     C16932  10.676   8.384  -2.156 -0.5361  0.0601 -0.1570
  848MOL0     C16933  10.611   8.366  -2.029  0.3795 -0.7360 -0.4333
  848MOL0     O16934  10.597   8.468  -1.749 -0.3691  0.3836  0.4176
  848MOL0     C16935  10.492   8.331  -1.539  0.2008  0.6765 -0.2573
  848MOL0     C16936  10.438   8.269  -1.425  0.5805  0.2443 -0.2367
  848MOL0     N16937  10.159   8.298  -0.904  0.2399 -0.7287 -0.4326
  848MOL0     N16938  10.185   8.342  -0.794 -0.4467  0.3427 -1.1706
  848MOL0     C16939   9.535   8.768   0.322 -0.2622  0.5344 -1.2131
  848MOL0     C16940   9.548   8.802   0.460  0.8141  0.0963 -0.2606
  848MOL0     C16941   9.747   8.885   0.893 -0.0788  0.0209  0.5643
  848MOL0     C16942   9.851   8.840   0.973 -0.1384 -0.3925 -0.0577
  848MOL0     C16943   9.847   8.841   1.108  0.5643 -0.0231 -0.3286
  848MOL0     C16944   9.733   8.870   1.184  0.3708 -1.0550  0.5104
  848MOL0     O16945   9.731   8.895   1.318 -0.4404 -0.5875 -0.6401
  848MOL0     C16946   9.832   8.856   1.408 -0.7346 -0.4889  0.4489
  848MOL0     C16947   9.931   8.978   1.402  0.3986  1.0410  0.4084
  848MOL0     C16948  10.062   8.956   1.481  0.8399 -0.1568  0.0226
  848MOL0     C16949  10.165   9.050   1.437 -0.0941 -0.2476  0.4231
  848MOL0     C16950  10.289   9.024   1.507 -0.4126  0.7232  0.2808
  848MOL0     C16951  10.382   8.993   1.583 -0.6468  0.0612  0.8380
  848MOL0     C16952   9.618   8.906   1.107 -0.0277 -0.4824 -1.0212
  848MOL0     C16953   9.628   8.910   0.968  0.1475  0.3526  0.5257
  848MOL0     C16954   9.510   8.962   0.894  0.1713  0.0862 -0.8748
  848MOL0     H16955   9.844   8.950   0.473 -1.1072  2.0290 -0.0973
  848MOL0     H16956   9.858   8.856   0.236  0.9255 -0.1196  1.4845
  848MOL0     H16957   9.594   8.565   0.076  0.8308 -1.6351  3.7525
  848MOL0     H16958   9.747   8.586   0.146 -1.6382  0.5917  1.0034
  848MOL0     H16959   9.661   8.666  -0.150 -0.3874 -1.1835  0.2394
  848MOL0     H16960   9.817   8.699  -0.069 -1.1226  0.5060 -1.6620
  848MOL0     H16961   9.800   8.434  -0.035  2.0532 -1.8806 -2.0927
  848MOL0     H16962   9.688   8.445  -0.161 -0.2674  1.6795  1.2436
  848MOL0     H16963   9.856   8.538  -0.312  2.4387 -1.3140 -2.1734
  848MOL0     H16964   9.972   8.532  -0.180  0.3543 -0.4321 -0.7252
  848MOL0     H16965   9.818   8.296  -0.294  0.2207  1.3411 -1.3177
  848MOL0     H16966   9.919   8.259  -0.156  0.5050 -0.5863  0.7721
  848MOL0     H16967  10.122   8.352  -0.291 -1.6646 -1.1803  3.1932
  848MOL0     H16968  10.055   8.194  -0.327  2.8673  0.8832 -1.1238
  848MOL0     H16969  10.003   8.436  -0.495 -2.1819  0.4522  1.7485
  848MOL0     H16970   9.914   8.286  -0.520  0.6117 -0.7712  2.0610
  848MOL0     H16971  10.208   8.352  -0.547  1.6370 -0.0024  0.5536
  848MOL0     H16972  10.160   8.176  -0.544 -0.3386  0.5377  0.7097
  848MOL0     H16973   9.972   8.098  -0.727  0.0387  0.6909  0.8101
  848MOL0     H16974   9.911   8.138  -1.040  1.2693  4.2000  0.7220
  848MOL0     H16975   9.996   8.002  -0.971  1.1086  1.0900  4.0284
  848MOL0     H16976  10.033   8.052  -1.206 -0.2088  1.7354  0.3814
  848MOL0     H16977  10.100   8.213  -1.161 -3.7750 -0.0303 -2.2498
  848MOL0     H16978  10.271   8.064  -1.022 -1.9698  1.4532  0.2721
  848MOL0     H16979  10.228   7.941  -1.149  0.8734  0.3525  0.5104
  848MOL0     H16980  10.326   8.212  -1.187  5.2989 -1.7258  4.0190
  848MOL0     H16981  10.424   8.072  -1.205 -0.6547 -0.7239  0.0252
  848MOL0     H16982  10.219   8.067  -1.598  1.3094 -1.4172 -0.7579
  848MOL0     H16983  10.212   8.102  -1.838  0.7740 -0.8818  1.9099
  848MOL0     H16984  10.360   8.178  -1.898  1.4926  2.2049  1.7567
  848MOL0     H16985  10.219   8.281  -1.865  1.2655  2.4843  1.3288
  848MOL0     H16986  10.337   8.547  -2.106  0.1439 -1.4453 -4.8486
  848MOL0     H16987  10.440   8.570  -2.306  0.0598 -2.6569 -0.8502
  848MOL0     H16988  10.764   8.319  -2.397  1.3325  0.5979 -1.0889
  848MOL0     H16989  10.824   8.425  -2.524  3.4766  2.6141  0.0239
  848MOL0     H16990  10.984   8.536  -2.421 -2.5630  1.3062  0.2304
  848MOL0     H16991  10.948   8.483  -2.256  1.4626 -1.8934  0.7589
  848MOL0     H16992  11.072   8.328  -2.494  0.5886 -1.3588 -0.5974
  848MOL0     H16993  11.002   8.241  -2.352 -1.8836  2.0061  3.6963
  848MOL0     H16994  11.154   8.345  -2.203  0.9911 -2.5181  0.7593
  848MOL0     H16995  11.213   8.448  -2.335  1.1286 -0.7320 -0.3683
  848MOL0     H16996  11.240   8.140  -2.326  0.4740  0.7708  1.9808
  848MOL0     H16997  11.280   8.232  -2.469  4.0281 -2.3025  0.3385
  848MOL0     H16998  11.458   8.361  -2.343 -2.8934  1.0288 -0.9137
  848MOL0     H16999  11.469   8.182  -2.360 -0.2838  1.8134 -1.5897
  848MOL0     H17000  11.373   8.169  -2.117  0.5253 -1.0560 -2.8004
  848MOL0     H17001  11.374   8.344  -2.105 -0.8122 -0.3726 -0.8502
  848MOL0     H17002  11.632   8.199  -2.142 -2.7142 -1.3784 -1.4862
  848MOL0     H17003  11.564   8.265  -1.987  0.9163 -0.2176  0.8542
  848MOL0     H17004  10.770   8.334  -2.177  0.8533  3.1371 -1.9125
  848MOL0     H17005  10.658   8.291  -1.966  0.0683 -0.0142  0.7017
  848MOL0     H17006  10.577   8.398  -1.526 -0.2137  1.2471 -0.4640
  848MOL0     H17007  10.483   8.271  -1.327 -1.3025 -1.6778  0.7445
  848MOL0     H17008   9.440   8.722   0.295 -0.2058 -0.5190  0.2358
  848MOL0     H17009   9.471   8.773   0.530  1.9267 -0.2593  0.8628
  848MOL0     H17010   9.951   8.812   0.943  0.8594  0.3119  2.4108
  848MOL0     H17011   9.931   8.823   1.175 -0.4427  0.3118  1.0516
  848MOL0     H17012   9.806   8.824   1.509  0.6810 -2.2403  0.3058
  848MOL0     H17013   9.895   8.783   1.356 -0.8869 -0.6611  0.5038
  848MOL0     H17014   9.882   9.058   1.458  0.4383  1.1818  0.2409
  848MOL0     H17015   9.950   9.013   1.300  0.2810  2.1962  0.7768
  848MOL0     H17016  10.046   8.963   1.589  1.4957 -3.9380  0.5259
  848MOL0     H17017  10.096   8.854   1.462  0.0171 -0.8840  2.1293
  848MOL0     H17018  10.135   9.152   1.461 -1.6098 -0.5092 -0.2352
  848MOL0     H17019  10.186   9.045   1.330  0.9922  0.2792  0.5907
  848MOL0     H17020  10.469   8.957   1.635  0.6911  0.4143 -1.0275
  848MOL0     H17021   9.518   8.902   1.150  0.7213 -2.2905  0.7267
  848MOL0     H17022   9.536   9.051   0.836  4.8660 -0.2945  0.2680
  848MOL0     H17023   9.474   8.888   0.823 -0.9027  2.4412 -2.9376
  848MOL0     H17024   9.425   8.992   0.957 -0.6444 -0.9559 -1.4595
  849MOL0     O17025   5.754  11.165  11.103 -1.0717  0.2840  0.1836
  849MOL0     C17026   5.802  11.065  11.059  0.3681 -0.5625  0.4160
  849MOL0     O17027   5.895  10.985  11.115 -0.0274 -0.1925  0.3713
  849MOL0     C17028   5.946  11.037  11.228 -0.0696 -0.0646  0.2451
  849MOL0     C17029   6.039  11.146  11.220  0.5833 -0.3382 -0.6226
  849MOL0     C17030   6.083  11.211  11.338  0.1659 -0.6143  0.9856
  849MOL0     C17031   6.039  11.162  11.463 -0.9993 -0.3454 -0.6823
  849MOL0     O17032   6.071  11.221  11.579 -0.1724  1.0417 -0.5664
  849MOL0     C17033   6.184  11.309  11.599  0.8619 -0.0012  0.4913
  849MOL0     C17034   6.191  11.374  11.738  0.1764 -1.2300 -0.1551
  849MOL0     C17035   6.254  11.264  11.819 -0.5796  0.3741  0.3032
  849MOL0     C17036   6.190  11.242  11.953 -0.4959  0.5563 -0.3204
  849MOL0     C17037   6.264  11.151  12.054 -1.8038 -1.0627  0.7460
  849MOL0     C17038   6.368  11.243  12.128 -0.0537  1.0825  1.1122
  849MOL0     C17039   6.399  11.185  12.261 -0.0068 -0.4554  0.1163
  849MOL0     C17040   6.282  11.204  12.359 -0.2223 -0.6427  0.4221
  849MOL0     N17041   6.225  11.343  12.374  0.2493  0.2618 -0.0251
  849MOL0     C17042   6.121  11.401  12.305  0.4905  1.0699  0.8349
  849MOL0     C17043   6.124  11.532  12.328 -0.4952  0.7725  0.0061
  849MOL0     C17044   6.024  11.629  12.264  0.2565  0.2152  0.1850
  849MOL0     C17045   6.101  11.671  12.138  0.3285  0.7442  1.5273
  849MOL0     C17046   6.045  11.785  12.062  0.1014 -0.2189 -0.4179
  849MOL0     C17047   5.900  11.766  11.987  0.0139 -0.7198 -0.9898
  849MOL0     O17048   5.798  11.811  12.071 -0.5669 -0.7924 -0.1287
  849MOL0     C17049   5.676  11.828  12.005 -0.8290  0.0656 -0.1710
  849MOL0     C17050   5.595  11.931  12.047 -0.6334 -0.1814  0.6094
  849MOL0     C17051   5.478  11.967  11.986 -0.9824  0.0865  0.2706
  849MOL0     C17052   5.399  12.088  12.032 -0.4763 -0.3224  0.1873
  849MOL0     C17053   5.426  11.878  11.890  0.0655  0.6117 -0.1087
  849MOL0     C17054   5.295  11.885  11.829 -0.9349 -0.3173 -0.7159
  849MOL0     O17055   5.272  12.008  11.763  0.3789 -1.2224 -0.0312
  849MOL0     C17056   5.148  12.013  11.711 -0.5204 -0.4378  0.3546
  849MOL0     C17057   5.144  12.069  11.589  0.2417 -0.3593  0.7679
  849MOL0     C17058   5.026  12.086  11.510 -0.9040 -0.0740  0.6969
  849MOL0     C17059   4.902  12.052  11.564 -0.1757 -0.3365  0.9583
  849MOL0     O17060   4.790  12.078  11.474 -1.0822  0.4224 -0.0197
  849MOL0     C17061   4.672  11.996  11.479 -0.5362 -0.1608  0.6239
  849MOL0     C17062   4.560  12.064  11.397 -0.9508 -0.1960  0.2682
  849MOL0     C17063   4.484  12.170  11.486 -0.0122 -0.3483 -0.6293
  849MOL0     C17064   4.341  12.132  11.542  0.4208  0.3810 -0.0043
  849MOL0     C17065   4.339  12.009  11.633  0.2015 -0.1466 -0.3086
  849MOL0     C17066   4.291  11.891  11.564 -0.2331  0.7251  0.2197
  849MOL0     C17067   4.269  11.777  11.662  0.1911  1.1336 -0.5524
  849MOL0     C17068   4.372  11.755  11.772 -0.5865 -0.0590 -0.1476
  849MOL0    Cl17069   4.525  11.689  11.695 -0.1510  0.1271  0.1470
  849MOL0     C17070   4.896  11.988  11.693  0.6402 -0.2942  0.3555
  849MOL0     C17071   5.017  11.974  11.769  0.8107  0.0679  0.2946
  849MOL0     O17072   5.238  11.771  11.807  0.4360 -0.5052 -0.1309
  849MOL0     C17073   5.499  11.764  11.852  0.8156 -0.6206  0.0711
  849MOL0     C17074   5.631  11.741  11.902  0.1906  0.5330 -0.3716
  849MOL0     N17075   6.215  11.558  12.418 -0.5017 -0.1523  0.7049
  849MOL0     N17076   6.283  11.443  12.437 -0.3878 -0.1612 -0.1973
  849MOL0     C17077   5.942  11.057  11.462  0.2761 -0.0941 -0.3717
  849MOL0     C17078   5.899  10.995  11.351  0.5182 -1.7005  0.5841
  849MOL0     C17079   5.774  11.040  10.908  0.8318 -0.0184 -0.1767
  849MOL0     C17080   5.760  11.148  10.824 -0.6280  0.3594 -0.6118
  849MOL0     C17081   5.736  11.140  10.681  0.0613  0.1149  0.2760
  849MOL0     C17082   5.709  11.017  10.628 -1.0390 -0.5522  0.1178
  849MOL0     O17083   5.666  10.991  10.498  0.5846 -0.2152 -0.3887
  849MOL0     C17084   5.728  11.066  10.392  0.3655 -0.1075  0.3236
  849MOL0     C17085   5.730  10.991  10.266 -0.2094 -0.7106 -0.7563
  849MOL0     C17086   5.779  11.087  10.149  0.0364 -0.1511  0.4149
  849MOL0     C17087   5.665  11.148  10.062  0.5254 -1.3518  0.5974
  849MOL0     C17088   5.586  11.253  10.125 -0.9782 -0.2347  0.1465
  849MOL0     C17089   5.529  11.352  10.150 -0.6833 -0.4766 -0.3782
  849MOL0     C17090   5.714  10.901  10.715 -0.0305  0.5108 -0.9451
  849MOL0     C17091   5.747  10.914  10.853 -0.5505 -0.5607  0.0687
  849MOL0     C17092   5.771  10.789  10.930  0.1140 -0.0446  0.3280
  849MOL0     H17093   6.058  11.194  11.125 -0.4563  2.7829  0.6143
  849MOL0     H17094   6.150  11.293  11.312  0.8322 -2.3957 -3.7949
  849MOL0     H17095   6.180  11.385  11.520  1.3284  0.5614  0.9923
  849MOL0     H17096   6.279  11.261  11.576  1.6200  1.8881 -0.5592
  849MOL0     H17097   6.255  11.463  11.744 -0.9802 -0.2699 -1.3351
  849MOL0     H17098   6.095  11.405  11.781 -0.3114 -2.8585 -0.0312
  849MOL0     H17099   6.242  11.171  11.763  0.2241  1.5080 -1.8572
  849MOL0     H17100   6.360  11.287  11.826 -0.6364  0.8724 -0.3899
  849MOL0     H17101   6.159  11.331  12.009 -2.0699 -0.2161  0.1229
  849MOL0     H17102   6.090  11.201  11.935 -0.8292  0.9751  0.5251
  849MOL0     H17103   6.314  11.079  11.989  0.0043  0.2786  0.5739
  849MOL0     H17104   6.190  11.110  12.124 -4.0035  4.7948  2.4644
  849MOL0     H17105   6.460  11.242  12.068 -0.1552 -1.2312  0.9321
  849MOL0     H17106   6.344  11.350  12.137  0.8996  1.2586  1.6935
  849MOL0     H17107   6.478  11.241  12.311 -0.2072 -0.9479  1.0060
  849MOL0     H17108   6.438  11.083  12.259  0.2770 -0.3719  0.9598
  849MOL0     H17109   6.201  11.132  12.346 -0.9091 -0.1100  1.5122
  849MOL0     H17110   6.316  11.184  12.461 -3.1619 -1.5988  1.3098
  849MOL0     H17111   6.054  11.356  12.233 -0.1513  3.7088 -0.3581
  849MOL0     H17112   6.009  11.706  12.340 -0.9153  1.6215 -1.3961
  849MOL0     H17113   5.923  11.593  12.242  0.4371  0.0697 -0.4474
  849MOL0     H17114   6.206  11.697  12.159  0.9235  0.1472 -0.4605
  849MOL0     H17115   6.106  11.586  12.068 -0.5889  3.2983 -1.9084
  849MOL0     H17116   6.024  11.864  12.134 -1.4489 -2.4631  1.7515
  849MOL0     H17117   6.108  11.813  11.976  1.8360  0.8366  1.1297
  849MOL0     H17118   5.909  11.823  11.894  0.3150 -0.7204 -0.9625
  849MOL0     H17119   5.885  11.662  11.956 -2.1802 -0.1780 -1.9424
  849MOL0     H17120   5.636  12.001  12.119  2.7927  0.3852 -1.6617
  849MOL0     H17121   5.299  12.048  12.050 -0.2061 -1.4987 -0.8031
  849MOL0     H17122   5.394  12.164  11.954 -2.0709 -2.2161 -1.6808
  849MOL0     H17123   5.455  12.135  12.114  1.7253 -0.3651 -1.2033
  849MOL0     H17124   5.239  12.095  11.542 -0.6259  1.4370 -0.0986
  849MOL0     H17125   5.041  12.132  11.413  1.8172  0.5184  1.2994
  849MOL0     H17126   4.711  11.907  11.429  2.1769  0.1764  1.9916
  849MOL0     H17127   4.638  11.979  11.581 -1.7629  1.5353  0.5557
  849MOL0     H17128   4.617  12.115  11.319  2.3902 -0.3620  2.4201
  849MOL0     H17129   4.498  11.984  11.356  0.7446 -1.2699 -0.2931
  849MOL0     H17130   4.457  12.251  11.417 -2.2823  0.1765  0.7666
  849MOL0     H17131   4.544  12.203  11.571 -0.8640  4.3746 -1.5882
  849MOL0     H17132   4.261  12.129  11.468  0.7370 -0.7641 -0.3192
  849MOL0     H17133   4.304  12.214  11.605 -0.2238  1.0087 -1.1720
  849MOL0     H17134   4.440  11.994  11.672 -0.2177 -1.4947  0.2867
  849MOL0     H17135   4.283  12.024  11.726  0.5978 -0.7630  0.0312
  849MOL0     H17136   4.361  11.863  11.485 -0.0029 -0.7979  0.9413
  849MOL0     H17137   4.195  11.909  11.516  0.0783 -2.2903 -1.7839
  849MOL0     H17138   4.260  11.689  11.597  2.9628 -0.6995  1.3067
  849MOL0     H17139   4.170  11.788  11.707 -0.4174 -0.3871 -1.4521
  849MOL0     H17140   4.345  11.680  11.846  0.0217  0.0555  0.1982
  849MOL0     H17141   4.394  11.848  11.825  0.6269  0.4533 -1.4731
  849MOL0     H17142   4.803  11.956  11.740 -0.6200  2.1378 -0.3174
  849MOL0     H17143   5.007  11.936  11.870  2.4030 -2.1891 -0.3130
  849MOL0     H17144   5.463  11.698  11.774  1.5689  0.5581 -1.3344
  849MOL0     H17145   5.689  11.653  11.875 -1.2361 -1.1157  1.6592
  849MOL0     H17146   5.893  11.013  11.548 -1.5171  0.8719 -0.8528
  849MOL0     H17147   5.841  10.903  11.359  1.7271 -2.3321  3.4789
  849MOL0     H17148   5.771  11.248  10.863 -0.5655  1.0409 -2.3101
  849MOL0     H17149   5.710  11.234  10.634  0.6431  0.2995  0.3145
  849MOL0     H17150   5.682  11.163  10.372  1.6655  0.1798 -1.5969
  849MOL0     H17151   5.831  11.092  10.418 -0.8262  2.5340  2.9443
  849MOL0     H17152   5.632  10.955  10.233 -0.0013 -1.9085 -0.1104
  849MOL0     H17153   5.804  10.911  10.278  1.3854  0.5876 -1.5442
  849MOL0     H17154   5.848  11.169  10.169 -0.1109  0.6231 -1.8887
  849MOL0     H17155   5.843  11.026  10.085  0.5417  0.8850 -0.0861
  849MOL0     H17156   5.600  11.068  10.025  0.4203 -0.6405 -0.8233
  849MOL0     H17157   5.705  11.210   9.981  0.8797 -0.8985  1.1093
  849MOL0     H17158   5.497  11.454  10.147  2.4241  0.5692 -1.1354
  849MOL0     H17159   5.718  10.803  10.668  1.0997  0.5103 -0.8804
  849MOL0     H17160   5.880  10.790  10.930  0.2095  1.5933 -2.7860
  849MOL0     H17161   5.729  10.810  11.029  1.6394  1.8152  0.6242
  849MOL0     H17162   5.725  10.707  10.874 -0.0176  0.9654 -1.0800
  850MOL0     O17163   3.959   5.347   1.618 -0.4349  0.2279  0.5644
  850MOL0     C17164   4.032   5.442   1.657  0.0129  0.2323  0.3652
  850MOL0     O17165   4.152   5.429   1.717 -0.1927 -0.2019 -0.0965
  850MOL0     C17166   4.194   5.303   1.737 -1.0735 -0.0884  0.2598
  850MOL0     C17167   4.165   5.238   1.855 -0.2382  0.0924  1.1314
  850MOL0     C17168   4.201   5.108   1.876 -0.5214 -0.3464  0.3705
  850MOL0     C17169   4.289   5.038   1.786 -0.0529  0.1600 -0.3591
  850MOL0     O17170   4.338   4.910   1.804 -0.5507  0.3479  0.6595
  850MOL0     C17171   4.367   4.868   1.940  0.1674 -0.7199  0.2612
  850MOL0     C17172   4.443   4.736   1.921  0.5924 -0.3284  1.0324
  850MOL0     C17173   4.505   4.683   2.050  0.4593  0.0572 -0.0718
  850MOL0     C17174   4.593   4.558   2.045  0.5589  0.1320  0.3900
  850MOL0     C17175   4.682   4.533   2.172 -0.2480 -0.9705 -0.0791
  850MOL0     C17176   4.612   4.530   2.307  0.2359 -0.3274 -0.3932
  850MOL0     C17177   4.719   4.587   2.406  1.0342  0.2065 -0.9246
  850MOL0     C17178   4.675   4.547   2.540 -0.4198  0.4614  0.1511
  850MOL0     N17179   4.726   4.416   2.566 -1.2678  0.1187  0.1337
  850MOL0     C17180   4.862   4.391   2.594  0.0407  0.1882  0.9010
  850MOL0     C17181   4.859   4.266   2.634 -0.4958  0.6686  0.2163
  850MOL0     C17182   4.966   4.210   2.717 -0.1444 -0.0750 -0.0087
  850MOL0     C17183   5.046   4.091   2.655 -0.4431  0.6203  0.8578
  850MOL0     C17184   5.164   4.054   2.759 -0.3745  0.3646  0.0205
  850MOL0     C17185   5.112   4.001   2.892  0.0289 -0.1490  0.5526
  850MOL0     O17186   5.045   3.885   2.851  0.2417  0.9034  0.5503
  850MOL0     C17187   4.970   3.824   2.944 -0.0244  0.7959  0.8673
  850MOL0     C17188   4.840   3.782   2.924  0.3003  1.3814 -0.2284
  850MOL0     C17189   4.770   3.705   3.021 -0.8696  0.8491  1.1089
  850MOL0     C17190   4.642   3.654   2.985  0.6530  0.8245  0.0539
  850MOL0     C17191   4.843   3.645   3.128 -0.4032 -0.6653  0.1629
  850MOL0     C17192   4.786   3.562   3.234 -0.5179 -0.9388  0.5810
  850MOL0     O17193   4.657   3.577   3.249  0.5134 -0.2771  0.0180
  850MOL0     C17194   4.589   3.475   3.302  0.4252  0.0990  0.1109
  850MOL0     C17195   4.510   3.501   3.420  0.3297 -0.1507  0.4878
  850MOL0     C17196   4.405   3.417   3.453 -0.3031  0.7072 -0.2210
  850MOL0     C17197   4.383   3.301   3.379 -0.2982  1.0944  1.2133
  850MOL0     O17198   4.283   3.224   3.428  0.3248  0.5689  0.0202
  850MOL0     C17199   4.228   3.125   3.340  0.6056  0.2770 -0.3244
  850MOL0     C17200   4.094   3.057   3.390 -0.1233 -0.9766  0.3829
  850MOL0     C17201   4.106   2.968   3.517  0.5135 -0.3778 -0.2099
  850MOL0     C17202   3.961   2.931   3.562  0.6045 -0.8622 -0.2155
  850MOL0     C17203   3.897   3.044   3.643  0.6168 -0.3998 -0.0730
  850MOL0     C17204   3.770   2.994   3.694 -0.5178 -0.2952 -0.6584
  850MOL0     C17205   3.701   3.116   3.768 -0.1697 -0.1551 -1.2206
  850MOL0     C17206   3.760   3.164   3.905  0.1399  0.7637 -0.1730
  850MOL0    Cl17207   3.676   3.312   3.943 -0.0882  0.0663 -0.4358
  850MOL0     C17208   4.470   3.270   3.267  0.5643 -0.4338  0.0604
  850MOL0     C17209   4.568   3.356   3.231 -0.0698  0.2471 -0.6619
  850MOL0     O17210   4.856   3.489   3.299  0.3087 -0.5776 -0.5702
  850MOL0     C17211   4.977   3.679   3.134  1.3643  0.4688 -0.9875
  850MOL0     C17212   5.039   3.765   3.050  0.5601 -0.3939  0.0259
  850MOL0     N17213   4.732   4.212   2.620 -0.2178  0.2068  0.2763
  850MOL0     N17214   4.649   4.300   2.576 -0.5497  0.0672  0.0533
  850MOL0     C17215   4.322   5.101   1.668 -0.1800 -0.1821  0.2335
  850MOL0     C17216   4.272   5.233   1.638  0.6716 -0.0314  0.3545
  850MOL0     C17217   3.986   5.583   1.648 -1.1108 -0.8305  0.6863
  850MOL0     C17218   3.900   5.615   1.538  0.1089 -0.2232  0.0904
  850MOL0     C17219   3.845   5.744   1.520 -0.9515  0.1093  0.4320
  850MOL0     C17220   3.880   5.846   1.606 -0.4095 -0.2482  0.1923
  850MOL0     O17221   3.813   5.963   1.603  1.2322  0.0797 -0.3534
  850MOL0     C17222   3.851   6.062   1.515 -0.1489 -0.2987 -0.1848
  850MOL0     C17223   3.933   6.168   1.587  0.2075  0.2840 -0.2805
  850MOL0     C17224   3.966   6.295   1.504 -0.0466 -0.6891 -0.2975
  850MOL0     C17225   4.044   6.281   1.381 -0.6017 -0.3656  0.5778
  850MOL0     C17226   3.962   6.215   1.276  0.6861 -0.1638  0.5090
  850MOL0     C17227   3.892   6.157   1.199  0.1536  1.1258  0.3221
  850MOL0     C17228   3.968   5.816   1.714 -0.6593  0.5833 -0.9688
  850MOL0     C17229   4.018   5.688   1.740 -0.5764 -0.2659 -0.1463
  850MOL0     C17230   4.077   5.677   1.864  0.0445  0.0920 -0.1653
  850MOL0     H17231   4.104   5.295   1.925 -0.7059 -0.2526  1.0110
  850MOL0     H17232   4.164   5.058   1.965 -1.6621 -1.0207 -0.4530
  850MOL0     H17233   4.279   4.850   2.003 -0.9646  2.9869 -0.0411
  850MOL0     H17234   4.440   4.933   1.989 -0.1803  0.4392 -0.7213
  850MOL0     H17235   4.375   4.657   1.888  0.6211 -0.4215  1.1933
  850MOL0     H17236   4.523   4.731   1.847  1.1933 -1.0320  1.7165
  850MOL0     H17237   4.560   4.760   2.104 -1.9877  1.9631 -0.1398
  850MOL0     H17238   4.423   4.653   2.116  0.1704  0.2774 -0.3306
  850MOL0     H17239   4.529   4.472   2.023  0.0345  0.4131  0.7942
  850MOL0     H17240   4.664   4.568   1.962  0.7557 -0.8451  0.4277
  850MOL0     H17241   4.767   4.602   2.161 -1.3479  0.0578 -2.8973
  850MOL0     H17242   4.728   4.436   2.150  0.5188 -0.4503 -0.8196
  850MOL0     H17243   4.519   4.588   2.304  0.0277 -0.6767 -1.0470
  850MOL0     H17244   4.592   4.424   2.323  1.8322 -0.6055 -0.0220
  850MOL0     H17245   4.724   4.696   2.394  0.8440  0.2792 -0.3795
  850MOL0     H17246   4.818   4.546   2.386  1.3101 -0.1979  1.0791
  850MOL0     H17247   4.721   4.618   2.611  0.4592  2.6181 -2.4092
  850MOL0     H17248   4.566   4.550   2.550 -0.3148  0.2701  1.6389
  850MOL0     H17249   4.948   4.457   2.583 -0.3518  0.8218  1.5441
  850MOL0     H17250   4.921   4.181   2.812 -1.3922  2.9484  0.4552
  850MOL0     H17251   5.038   4.289   2.740  0.1269  0.0807 -1.2871
  850MOL0     H17252   4.988   4.001   2.634 -0.1950  0.4225  1.0083
  850MOL0     H17253   5.099   4.109   2.561  0.8442 -0.5632  1.3117
  850MOL0     H17254   5.226   3.976   2.714 -0.8279  0.1444 -0.2255
  850MOL0     H17255   5.229   4.140   2.777  0.1642 -0.1760  0.6998
  850MOL0     H17256   5.178   3.976   2.975 -1.6808 -1.6201  1.5339
  850MOL0     H17257   5.050   4.080   2.937 -0.3668  0.1504 -0.4677
  850MOL0     H17258   4.790   3.808   2.832  0.1920  0.6301 -0.3883
  850MOL0     H17259   4.610   3.711   2.897  0.5519 -0.2466 -0.6117
  850MOL0     H17260   4.566   3.667   3.063  0.7729  1.2188  0.1096
  850MOL0     H17261   4.632   3.550   2.954  0.5235  0.6692  0.5942
  850MOL0     H17262   4.502   3.603   3.457 -1.7554  0.0557 -0.3531
  850MOL0     H17263   4.345   3.430   3.543  1.6929 -0.5210  1.3719
  850MOL0     H17264   4.207   3.168   3.242 -3.3119 -0.2214  0.1357
  850MOL0     H17265   4.291   3.036   3.332 -2.3533 -2.4788  3.4364
  850MOL0     H17266   4.033   3.145   3.410  0.9208 -0.1818  0.1725
  850MOL0     H17267   4.045   3.003   3.309 -0.0951  0.3779 -0.5543
  850MOL0     H17268   4.154   3.020   3.600 -2.2576 -0.3877  1.5296
  850MOL0     H17269   4.146   2.871   3.486 -1.2505 -1.3282  0.3632
  850MOL0     H17270   3.953   2.842   3.625  1.2086 -1.1619 -0.5584
  850MOL0     H17271   3.908   2.912   3.469 -0.7991  0.5729  0.2478
  850MOL0     H17272   3.955   3.077   3.730  1.9458 -2.3519 -0.1593
  850MOL0     H17273   3.887   3.121   3.566  0.3416  1.6093  1.8710
  850MOL0     H17274   3.792   2.919   3.770  1.0954 -0.2636 -1.0573
  850MOL0     H17275   3.701   2.960   3.616  0.3934 -2.6789 -0.5100
  850MOL0     H17276   3.597   3.083   3.782 -0.5891  1.0783 -1.2970
  850MOL0     H17277   3.693   3.197   3.695 -2.2379 -0.6258 -1.5987
  850MOL0     H17278   3.867   3.188   3.896  0.8042 -1.1068  1.9117
  850MOL0     H17279   3.774   3.097   3.990  4.2892  1.0485 -0.4130
  850MOL0     H17280   4.452   3.184   3.204  1.1370 -2.1003  2.0559
  850MOL0     H17281   4.625   3.343   3.139 -2.9315 -1.4018 -2.3390
  850MOL0     H17282   5.013   3.648   3.231 -0.2486  1.4158 -0.0345
  850MOL0     H17283   5.141   3.794   3.073  0.3619 -1.2125  2.2016
  850MOL0     H17284   4.395   5.063   1.598 -0.8648  0.1116 -0.6564
  850MOL0     H17285   4.300   5.276   1.543 -0.7237  1.4534  0.5821
  850MOL0     H17286   3.885   5.535   1.466  0.0449 -0.6015  0.5265
  850MOL0     H17287   3.776   5.756   1.437 -2.2405 -3.7648  0.7714
  850MOL0     H17288   3.919   6.030   1.435  0.2023  1.4706 -0.6333
  850MOL0     H17289   3.760   6.107   1.476  1.1557  2.6589 -0.0564
  850MOL0     H17290   4.014   6.132   1.651  0.1968 -0.2142 -0.5404
  850MOL0     H17291   3.866   6.213   1.662  3.0185  4.4103  0.0641
  850MOL0     H17292   3.883   6.356   1.468  0.9290 -0.1833 -1.8132
  850MOL0     H17293   4.020   6.360   1.573 -2.4821  0.9233  0.2160
  850MOL0     H17294   4.130   6.218   1.402  0.3614  1.7033  3.5251
  850MOL0     H17295   4.078   6.381   1.354 -2.6129 -0.0772 -1.2055
  850MOL0     H17296   3.829   6.099   1.135  0.5620 -2.3078  2.7625
  850MOL0     H17297   3.988   5.900   1.780  0.7275  0.9693 -1.8467
  850MOL0     H17298   4.033   5.587   1.908  1.4544 -1.0910 -1.0780
  850MOL0     H17299   4.186   5.667   1.860  0.3313  1.4446  2.1560
  850MOL0     H17300   4.057   5.769   1.921 -2.4785  0.8043 -2.0290
  851MOL0     O17301   1.563   6.638   7.482 -0.2478 -0.5825 -0.5115
  851MOL0     C17302   1.665   6.654   7.409  0.4044 -0.5955 -0.6143
  851MOL0     O17303   1.702   6.568   7.321 -0.7824  0.0607 -0.0160
  851MOL0     C17304   1.658   6.443   7.299  0.4113 -0.8928 -1.0282
  851MOL0     C17305   1.527   6.415   7.291 -0.5209 -0.2307  0.8970
  851MOL0     C17306   1.489   6.298   7.235  0.6627 -0.1063 -0.3546
  851MOL0     C17307   1.580   6.200   7.198  0.2974 -0.7565  0.0835
  851MOL0     O17308   1.536   6.071   7.175 -0.1861  0.3754 -0.6367
  851MOL0     C17309   1.620   5.974   7.104  0.7328 -0.2346 -0.0435
  851MOL0     C17310   1.629   6.013   6.955  0.2225  0.4780 -0.7093
  851MOL0     C17311   1.672   5.894   6.878  0.4460  0.0124 -1.0764
  851MOL0     C17312   1.823   5.863   6.897  0.7709 -0.0871 -0.0459
  851MOL0     C17313   1.881   5.772   6.782  0.7478  0.0392  0.6006
  851MOL0     C17314   2.025   5.735   6.809  0.7922 -0.4724 -0.5138
  851MOL0     C17315   2.091   5.682   6.682 -0.6542 -0.7220 -0.2815
  851MOL0     C17316   2.079   5.533   6.671 -0.6273  0.0673 -0.4141
  851MOL0     N17317   2.135   5.492   6.535  0.0189  0.6927 -0.0837
  851MOL0     C17318   2.070   5.473   6.419 -0.0242 -0.0892  0.2490
  851MOL0     C17319   2.151   5.400   6.341 -0.5032 -0.6784 -0.1056
  851MOL0     C17320   2.132   5.382   6.186  0.1175  0.5622 -0.0185
  851MOL0     C17321   2.122   5.515   6.102  0.0786  0.2704 -0.4337
  851MOL0     C17322   2.238   5.608   6.111  0.1646  0.4435  0.1486
  851MOL0     C17323   2.239   5.731   6.016  0.9668  0.8250 -0.1865
  851MOL0     O17324   2.182   5.849   6.077  0.9927 -0.6988 -0.0581
  851MOL0     C17325   2.206   5.975   6.016 -0.1392 -0.1574 -1.0831
  851MOL0     C17326   2.145   6.084   6.078  0.0189 -0.6798  0.1185
  851MOL0     C17327   2.172   6.210   6.043  0.0829  0.2210  0.0751
  851MOL0     C17328   2.123   6.313   6.123  0.9381 -0.6069 -1.2854
  851MOL0     C17329   2.245   6.232   5.923  0.1769 -0.0970 -0.0921
  851MOL0     C17330   2.277   6.364   5.877  0.1495  0.8943 -0.2558
  851MOL0     O17331   2.231   6.398   5.747 -0.5310 -0.5973  0.1459
  851MOL0     C17332   2.262   6.532   5.717 -0.6557 -0.1125  0.0909
  851MOL0     C17333   2.164   6.608   5.668  0.7233 -0.1424 -0.9025
  851MOL0     C17334   2.192   6.730   5.607 -0.4190  0.5052 -0.1634
  851MOL0     C17335   2.318   6.787   5.601  0.6325  0.0029 -0.3886
  851MOL0     O17336   2.350   6.907   5.542  0.1635 -0.1248 -0.6051
  851MOL0     C17337   2.246   6.993   5.491  0.1572  1.0281  0.6265
  851MOL0     C17338   2.231   6.950   5.336  1.2126  0.0155  0.3549
  851MOL0     C17339   2.327   7.050   5.257 -0.1090  0.2183  0.6848
  851MOL0     C17340   2.379   6.969   5.134 -0.7228 -0.0018 -0.7977
  851MOL0     C17341   2.495   7.038   5.058  0.5358 -0.3417 -0.0310
  851MOL0     C17342   2.519   6.968   4.925 -0.7016  0.0293 -0.4433
  851MOL0     C17343   2.625   7.043   4.841 -0.3670 -0.1598  0.3265
  851MOL0     C17344   2.605   7.182   4.789  0.7996 -0.0997  0.5522
  851MOL0    Cl17345   2.432   7.206   4.734  0.2376 -0.5823  0.0254
  851MOL0     C17346   2.419   6.714   5.655  0.4320 -0.1864  0.1057
  851MOL0     C17347   2.395   6.582   5.712 -0.2098 -0.8036  0.1652
  851MOL0     O17348   2.350   6.432   5.946  0.2083 -0.4510  0.2033
  851MOL0     C17349   2.306   6.130   5.857  0.2139  0.2841 -0.3341
  851MOL0     C17350   2.287   5.997   5.901 -0.1969  0.0381  0.2969
  851MOL0     N17351   2.262   5.360   6.421  0.6126 -0.0632 -0.8054
  851MOL0     N17352   2.252   5.418   6.536  0.1210  0.3322  0.1824
  851MOL0     C17353   1.719   6.242   7.200  0.2821  0.7844 -0.8457
  851MOL0     C17354   1.755   6.360   7.247  0.1170  0.2440 -0.0875
  851MOL0     C17355   1.747   6.779   7.422  0.5281  1.0913  0.1165
  851MOL0     C17356   1.734   6.848   7.541  0.5401 -0.0335  0.7823
  851MOL0     C17357   1.797   6.962   7.578 -0.3629 -0.1597  0.3958
  851MOL0     C17358   1.865   7.026   7.475 -0.4402  0.5050 -0.2158
  851MOL0     O17359   1.942   7.139   7.487  0.3729  0.3993 -0.2099
  851MOL0     C17360   1.946   7.197   7.618  0.4050  0.0105  0.1693
  851MOL0     C17361   2.053   7.318   7.636  0.7332  0.2512  0.5725
  851MOL0     C17362   2.196   7.260   7.606 -0.3169 -0.0169 -0.2987
  851MOL0     C17363   2.309   7.371   7.584  0.3851 -0.7302  0.0743
  851MOL0     C17364   2.337   7.441   7.707  0.0580  0.6714  0.3512
  851MOL0     C17365   2.358   7.517   7.800 -0.4940 -0.4625 -0.3491
  851MOL0     C17366   1.885   6.963   7.348  0.9837 -0.0989 -0.0822
  851MOL0     C17367   1.823   6.837   7.330 -0.1755 -0.6806  0.7173
  851MOL0     C17368   1.863   6.757   7.203  0.6381  0.2268 -0.5151
  851MOL0     H17369   1.450   6.486   7.317  1.1074  1.4205  1.3793
  851MOL0     H17370   1.386   6.277   7.210  0.1665  1.9624 -0.2534
  851MOL0     H17371   1.576   5.875   7.121 -2.5563  1.3179  1.2970
  851MOL0     H17372   1.716   5.952   7.151  1.0388  0.9538 -0.0894
  851MOL0     H17373   1.523   6.026   6.932 -0.4514  0.0440  1.8284
  851MOL0     H17374   1.690   6.101   6.934  2.2550 -0.3279  1.3505
  851MOL0     H17375   1.610   5.807   6.901 -2.1093  1.9359 -0.1902
  851MOL0     H17376   1.658   5.910   6.771  0.8732  0.9876 -0.9954
  851MOL0     H17377   1.872   5.960   6.882  1.7227 -0.4189  0.7857
  851MOL0     H17378   1.831   5.829   7.000 -2.8107 -4.9890 -1.0306
  851MOL0     H17379   1.872   5.824   6.686 -0.2063 -0.3960  0.4466
  851MOL0     H17380   1.827   5.680   6.758 -0.5009  1.1037 -0.8247
  851MOL0     H17381   2.082   5.825   6.835 -2.9449  1.2274  2.8843
  851MOL0     H17382   2.020   5.663   6.891 -1.2330 -1.6551 -1.5854
  851MOL0     H17383   2.199   5.694   6.694 -0.5760 -0.5482 -1.1402
  851MOL0     H17384   2.058   5.729   6.590 -2.3924 -0.4688  0.4243
  851MOL0     H17385   2.127   5.474   6.749 -1.4561 -2.8915 -1.9630
  851MOL0     H17386   1.978   5.495   6.687  0.5611 -3.0818  0.1965
  851MOL0     H17387   1.977   5.522   6.391  0.0940  0.6190  1.0460
  851MOL0     H17388   2.044   5.316   6.189 -0.5578  1.3021  4.9018
  851MOL0     H17389   2.219   5.323   6.155 -0.1286 -0.9246  1.8963
  851MOL0     H17390   2.095   5.490   5.999  0.5782  2.8098 -1.2574
  851MOL0     H17391   2.048   5.580   6.150  1.9751  1.3080  1.2194
  851MOL0     H17392   2.237   5.643   6.215 -1.1461 -1.2025  0.7477
  851MOL0     H17393   2.327   5.546   6.096 -0.5206 -1.3527  2.7294
  851MOL0     H17394   2.340   5.756   5.983  0.1808  0.4876 -3.0878
  851MOL0     H17395   2.181   5.693   5.932 -2.6262  2.9103  1.1134
  851MOL0     H17396   2.064   6.065   6.148 -0.1192 -1.0220 -0.1294
  851MOL0     H17397   2.063   6.383   6.064 -1.4262 -1.4346  0.0133
  851MOL0     H17398   2.212   6.359   6.168 -0.6014  2.7618 -1.3609
  851MOL0     H17399   2.052   6.274   6.196 -0.7560 -1.0542 -3.0810
  851MOL0     H17400   2.062   6.571   5.664  1.1143 -1.2932 -0.5791
  851MOL0     H17401   2.111   6.788   5.564  1.7365  3.6280 -0.3526
  851MOL0     H17402   2.146   6.981   5.535 -0.4918 -2.2432 -1.3209
  851MOL0     H17403   2.275   7.098   5.500  0.7583  1.0505 -1.0883
  851MOL0     H17404   2.264   6.847   5.324  2.7067  0.0331  3.4271
  851MOL0     H17405   2.128   6.948   5.298  1.5897  0.1479 -0.6895
  851MOL0     H17406   2.416   7.076   5.314  1.7902 -3.8332 -0.0684
  851MOL0     H17407   2.268   7.139   5.231  1.8251  1.5890  0.8049
  851MOL0     H17408   2.297   6.946   5.064 -2.7599  1.6384  0.9298
  851MOL0     H17409   2.424   6.874   5.165  2.8632  1.2723 -1.7024
  851MOL0     H17410   2.462   7.140   5.036 -1.6717 -1.2118 -1.0618
  851MOL0     H17411   2.587   7.046   5.116  1.8285  2.0195 -2.2509
  851MOL0     H17412   2.427   6.970   4.867 -1.6515 -2.5063  0.8025
  851MOL0     H17413   2.550   6.864   4.937  0.0387  0.2426 -0.4548
  851MOL0     H17414   2.647   6.985   4.750 -1.4459  0.2622 -0.2263
  851MOL0     H17415   2.714   7.051   4.903 -1.0628  3.6747  1.0484
  851MOL0     H17416   2.682   7.205   4.715  0.9706  0.9581  1.0404
  851MOL0     H17417   2.624   7.249   4.874  2.2986 -0.3167  0.4260
  851MOL0     H17418   2.512   6.770   5.659 -0.6790  1.7333 -0.0228
  851MOL0     H17419   2.483   6.523   5.735  2.4248  2.7454  0.0982
  851MOL0     H17420   2.368   6.157   5.772  4.4313 -2.2949  1.6023
  851MOL0     H17421   2.330   5.925   5.832 -0.6539  1.6985 -1.8285
  851MOL0     H17422   1.796   6.174   7.167  0.8391  0.7037  0.5411
  851MOL0     H17423   1.861   6.384   7.243  1.3654 -4.3842 -3.6786
  851MOL0     H17424   1.662   6.804   7.610  0.3445 -1.3222 -0.2024
  851MOL0     H17425   1.772   7.012   7.671 -1.3926 -0.8049  0.4886
  851MOL0     H17426   1.850   7.233   7.657  0.4277  0.3220 -0.0487
  851MOL0     H17427   1.969   7.117   7.688 -0.3398  0.3961  0.8852
  851MOL0     H17428   2.058   7.378   7.727  2.5563  1.3949 -0.2348
  851MOL0     H17429   2.031   7.386   7.552  0.5386  0.7816  1.0457
  851MOL0     H17430   2.224   7.189   7.684  1.3757  2.9328  1.9722
  851MOL0     H17431   2.188   7.195   7.518 -1.6692 -0.5350  0.1869
  851MOL0     H17432   2.278   7.443   7.508  1.6174 -0.1050  0.1417
  851MOL0     H17433   2.405   7.337   7.545 -0.0316 -0.9689 -0.7771
  851MOL0     H17434   2.378   7.566   7.893 -0.9250  0.0573 -0.5281
  851MOL0     H17435   1.948   7.010   7.273  0.4005  0.2022 -0.3893
  851MOL0     H17436   1.774   6.740   7.142 -0.3240  1.4733  0.4703
  851MOL0     H17437   1.934   6.803   7.134  2.3186 -3.1755 -1.2499
  851MOL0     H17438   1.908   6.662   7.235 -0.0421 -0.4624 -1.5484
  852MOL0     O17439   5.065   1.321   7.696  0.5063 -0.0776  0.1212
  852MOL0     C17440   5.150   1.390   7.755  0.4138 -0.2828 -1.0858
  852MOL0     O17441   5.135   1.432   7.883 -0.2474 -0.4580  0.7631
  852MOL0     C17442   5.024   1.402   7.955 -0.3475 -0.0915  0.1356
  852MOL0     C17443   4.895   1.413   7.911  0.3901  1.2396 -0.5476
  852MOL0     C17444   4.781   1.398   7.997 -0.3704 -0.0369  1.3119
  852MOL0     C17445   4.796   1.349   8.125  0.1284  0.4779  0.3292
  852MOL0     O17446   4.676   1.324   8.190  0.2026 -0.6860 -0.0715
  852MOL0     C17447   4.677   1.329   8.325 -0.3112  0.1175 -0.2034
  852MOL0     C17448   4.642   1.195   8.372  0.2943  0.1069  0.5087
  852MOL0     C17449   4.746   1.084   8.349 -0.3206 -0.2197 -0.0248
  852MOL0     C17450   4.704   0.941   8.372  0.1512  0.2581 -0.0731
  852MOL0     C17451   4.634   0.923   8.507  0.0757  0.6207  0.2980
  852MOL0     C17452   4.742   0.947   8.612  0.2315  0.3486 -0.6525
  852MOL0     C17453   4.675   0.934   8.752 -0.2961 -0.0606 -0.1216
  852MOL0     C17454   4.770   0.903   8.868 -0.3459  1.1960  0.5717
  852MOL0     N17455   4.864   1.005   8.898  0.1001  0.2223 -0.0842
  852MOL0     C17456   4.840   1.128   8.945  0.3526  0.0602  0.0559
  852MOL0     C17457   4.955   1.191   8.951  0.2672 -0.2054 -0.9315
  852MOL0     C17458   4.962   1.316   9.016 -0.3448 -0.7445 -0.3671
  852MOL0     C17459   4.928   1.316   9.165  0.3875 -0.3401 -0.1672
  852MOL0     C17460   4.942   1.454   9.228  0.9421  0.5059  0.0052
  852MOL0     C17461   4.882   1.471   9.369 -0.4689  1.0652  0.3777
  852MOL0     O17462   4.982   1.411   9.458  0.5789 -0.1320  0.6339
  852MOL0     C17463   4.952   1.406   9.592  0.4825 -0.0208  0.0196
  852MOL0     C17464   4.816   1.414   9.633 -0.5857  0.0166  0.2574
  852MOL0     C17465   4.787   1.444   9.773 -0.1721  0.5955  0.7666
  852MOL0     C17466   4.646   1.416   9.814  0.5979  0.0787 -0.3312
  852MOL0     C17467   4.894   1.460   9.867  0.9493 -0.5486  0.3682
  852MOL0     C17468   4.876   1.483  10.018 -0.1976 -0.2995  0.4678
  852MOL0     O17469   4.985   1.461  10.104  0.9054  1.3322  0.9081
  852MOL0     C17470   4.972   1.492  10.234  0.1839  0.4346  0.1584
  852MOL0     C17471   4.991   1.624  10.283  1.2762 -0.1454 -0.0898
  852MOL0     C17472   4.958   1.651  10.413  0.3362  0.0362 -1.0142
  852MOL0     C17473   4.905   1.555  10.497 -0.7406  0.1962  0.4147
  852MOL0     O17474   4.873   1.607  10.618 -0.1654 -0.0507 -0.7616
  852MOL0     C17475   4.895   1.510  10.724  0.2451  0.1237  0.2919
  852MOL0     C17476   4.881   1.563  10.868 -0.2081  0.2756 -0.7522
  852MOL0     C17477   4.975   1.464  10.960  0.8032 -0.2470 -0.1280
  852MOL0     C17478   4.956   1.521  11.100 -0.1202  0.2363 -0.1973
  852MOL0     C17479   5.002   1.423  11.212 -0.1737  0.5809  0.7634
  852MOL0     C17480   5.146   1.440  11.266 -0.2694  0.2232 -0.3262
  852MOL0     C17481   5.205   1.320  11.351  0.7143 -0.5866  0.4868
  852MOL0     C17482   5.151   1.296  11.496 -0.4161 -0.0729  0.4343
  852MOL0    Cl17483   4.979   1.250  11.489 -0.3153  0.3592  0.1360
  852MOL0     C17484   4.901   1.424  10.447 -0.2181 -0.8668 -0.3039
  852MOL0     C17485   4.938   1.384  10.318  0.1908  0.1153  0.4365
  852MOL0     O17486   4.759   1.504  10.057 -0.1242 -0.1752  0.0513
  852MOL0     C17487   5.024   1.456   9.819  0.6607 -0.5839 -0.3292
  852MOL0     C17488   5.051   1.430   9.684 -0.6728  0.0577  1.0288
  852MOL0     N17489   5.055   1.104   8.905 -0.8516 -0.0280  0.4488
  852MOL0     N17490   4.997   0.996   8.876  0.0852  0.1221  0.2952
  852MOL0     C17491   4.930   1.338   8.171 -0.8628  0.0034 -0.5125
  852MOL0     C17492   5.044   1.371   8.092 -0.1514  0.5888  0.2821
  852MOL0     C17493   5.291   1.417   7.701  1.2088  0.3250 -0.3990
  852MOL0     C17494   5.332   1.334   7.597  0.3996  0.4139  0.1976
  852MOL0     C17495   5.468   1.328   7.562  0.1277  0.8016  1.0254
  852MOL0     C17496   5.562   1.417   7.621  0.2993  0.9196  0.3710
  852MOL0     O17497   5.697   1.420   7.598 -0.1100  0.2974  0.4425
  852MOL0     C17498   5.771   1.302   7.597 -0.2664  0.3418 -0.0480
  852MOL0     C17499   5.925   1.335   7.597 -0.2335 -0.2155 -1.1625
  852MOL0     C17500   5.992   1.349   7.465 -0.3324 -0.1044  0.1184
  852MOL0     C17501   6.150   1.362   7.473 -0.6246 -0.3245  0.4583
  852MOL0     C17502   6.194   1.472   7.564  0.5976  0.2937 -0.2723
  852MOL0     C17503   6.203   1.570   7.638  0.1458  0.0751  0.5813
  852MOL0     C17504   5.516   1.516   7.713 -0.5391  0.5299 -0.0364
  852MOL0     C17505   5.383   1.510   7.754  0.0872  0.4185  0.4810
  852MOL0     C17506   5.335   1.614   7.863 -0.9388  0.4179  0.5429
  852MOL0     H17507   4.881   1.470   7.819 -1.2356  0.6792 -0.6876
  852MOL0     H17508   4.679   1.412   7.962  0.4987 -1.6414 -2.2664
  852MOL0     H17509   4.602   1.401   8.358 -0.7885 -0.1403 -0.7274
  852MOL0     H17510   4.771   1.363   8.371 -0.8621 -1.7288  2.5655
  852MOL0     H17511   4.604   1.205   8.474 -2.2499  0.1558 -0.3604
  852MOL0     H17512   4.555   1.162   8.314  2.3896 -1.0671 -2.2061
  852MOL0     H17513   4.791   1.087   8.249 -0.0194  0.2962  0.1230
  852MOL0     H17514   4.841   1.104   8.401 -1.1585  1.2245  1.0317
  852MOL0     H17515   4.642   0.907   8.290  1.2774  0.0798 -0.8805
  852MOL0     H17516   4.792   0.876   8.361 -1.1039 -1.3065 -1.3727
  852MOL0     H17517   4.604   0.818   8.519  2.1175  0.1721  2.4431
  852MOL0     H17518   4.543   0.984   8.512 -1.4634 -1.3779 -1.5324
  852MOL0     H17519   4.822   0.872   8.610 -1.2035 -1.2627 -0.3365
  852MOL0     H17520   4.792   1.044   8.606  0.5026  0.4489  2.0322
  852MOL0     H17521   4.602   0.853   8.749  0.2389 -0.6240  1.3147
  852MOL0     H17522   4.624   1.028   8.771  0.6840  0.6179 -0.7236
  852MOL0     H17523   4.696   0.903   8.950  0.6466  0.7589  1.4860
  852MOL0     H17524   4.805   0.800   8.864 -1.7286  0.5775  2.5139
  852MOL0     H17525   4.746   1.182   8.949 -1.3006 -2.4834 -1.5422
  852MOL0     H17526   4.895   1.386   8.965 -1.6407 -0.5005  1.5799
  852MOL0     H17527   5.057   1.363   8.989 -1.0251  0.7596 -0.2524
  852MOL0     H17528   4.820   1.299   9.165  0.4448 -0.8872 -1.9217
  852MOL0     H17529   4.984   1.244   9.226 -0.9067 -0.0258  1.4715
  852MOL0     H17530   5.046   1.488   9.223  1.4537 -0.9168  0.4770
  852MOL0     H17531   4.879   1.516   9.164  2.1892  0.4267 -1.3354
  852MOL0     H17532   4.875   1.577   9.392  1.3951  1.7134 -1.7120
  852MOL0     H17533   4.790   1.412   9.378  0.1652 -0.1577 -0.7828
  852MOL0     H17534   4.727   1.427   9.572  0.8363  1.6285 -1.5952
  852MOL0     H17535   4.644   1.330   9.883 -3.0336 -2.8338 -3.6342
  852MOL0     H17536   4.582   1.383   9.732  0.4890  1.2188 -0.7207
  852MOL0     H17537   4.603   1.502   9.866  0.4719 -0.7224  0.9388
  852MOL0     H17538   5.021   1.693  10.205  2.0891 -0.6586 -0.2557
  852MOL0     H17539   4.957   1.754  10.450  4.7932 -0.3540  0.7964
  852MOL0     H17540   4.825   1.427  10.712 -0.7600  0.6340  2.1627
  852MOL0     H17541   4.997   1.473  10.709  0.1667  0.0058  0.0464
  852MOL0     H17542   4.910   1.668  10.871  4.3197 -0.7726  0.0428
  852MOL0     H17543   4.781   1.555  10.910 -0.1545 -0.7696 -0.7966
  852MOL0     H17544   5.083   1.452  10.950  0.9831  0.3409  0.9370
  852MOL0     H17545   4.924   1.367  10.961 -0.8578  0.4943  3.6216
  852MOL0     H17546   4.853   1.546  11.126 -0.7872 -3.8300  2.0012
  852MOL0     H17547   5.012   1.614  11.099  0.0425  0.1493 -1.5634
  852MOL0     H17548   4.941   1.440  11.301  1.7246  1.6669  1.9180
  852MOL0     H17549   4.983   1.325  11.168  1.3559  1.5643 -2.4594
  852MOL0     H17550   5.155   1.527  11.332  1.5541 -1.4500  1.8013
  852MOL0     H17551   5.209   1.460  11.178 -3.2234  2.1768 -2.1783
  852MOL0     H17552   5.310   1.350  11.356  1.0682 -0.8366 -3.0888
  852MOL0     H17553   5.211   1.223  11.300  0.3417  0.7046 -2.1783
  852MOL0     H17554   5.145   1.397  11.537  2.4910 -1.0904  3.8091
  852MOL0     H17555   5.212   1.224  11.552  2.8867  1.5091 -0.8343
  852MOL0     H17556   4.852   1.361  10.520 -1.7693  0.8626  0.2243
  852MOL0     H17557   4.917   1.284  10.280  0.7817  0.8618 -2.0501
  852MOL0     H17558   5.109   1.465   9.886 -1.1461 -0.6812  2.1497
  852MOL0     H17559   5.153   1.414   9.651 -1.5732 -2.0032 -1.0262
  852MOL0     H17560   4.952   1.317   8.275  1.2460 -1.4909 -1.1800
  852MOL0     H17561   5.148   1.370   8.123  0.2637  3.1864 -0.8173
  852MOL0     H17562   5.278   1.254   7.547  1.2173 -2.8594  3.9982
  852MOL0     H17563   5.492   1.239   7.504 -1.3583  0.0829  1.4712
  852MOL0     H17564   5.755   1.236   7.684  0.1947  1.4366  0.8966
  852MOL0     H17565   5.736   1.252   7.506  1.4478 -0.3709 -0.3463
  852MOL0     H17566   5.979   1.258   7.652  0.1943 -0.0315 -1.3217
  852MOL0     H17567   5.930   1.426   7.658  0.5019 -2.2421  2.0602
  852MOL0     H17568   5.978   1.259   7.404 -0.3411  0.5690 -0.8783
  852MOL0     H17569   5.949   1.432   7.409  0.5560  0.2166 -0.0919
  852MOL0     H17570   6.194   1.374   7.374 -0.5329 -1.7508  0.3093
  852MOL0     H17571   6.191   1.265   7.503 -1.0464 -1.6783 -2.9233
  852MOL0     H17572   6.188   1.657   7.700  2.1207 -1.1502  2.9691
  852MOL0     H17573   5.582   1.590   7.757  2.0198 -2.1547  0.9296
  852MOL0     H17574   5.333   1.567   7.962 -2.2284 -0.2297  0.2368
  852MOL0     H17575   5.416   1.688   7.862  4.6636 -4.9233  0.1743
  852MOL0     H17576   5.234   1.651   7.846 -0.7921  1.5071  1.8380
  853MOL0     O17577   6.323   9.380   7.502 -0.4004 -0.3159  0.1429
  853MOL0     C17578   6.243   9.453   7.445  0.6672  0.4915 -0.6040
  853MOL0     O17579   6.128   9.411   7.380  0.2919  0.1038 -0.1530
  853MOL0     C17580   6.057   9.298   7.420  0.2640  0.8388 -1.2674
  853MOL0     C17581   6.011   9.206   7.324  1.4997 -0.4242  0.3523
  853MOL0     C17582   5.956   9.083   7.363 -0.1903 -0.8726  0.1903
  853MOL0     C17583   5.921   9.061   7.499  1.0556  0.2320 -0.1646
  853MOL0     O17584   5.840   8.950   7.542 -0.3777 -0.4895  0.4803
  853MOL0     C17585   5.821   8.857   7.441 -0.1262 -0.0632 -0.1978
  853MOL0     C17586   5.728   8.748   7.509 -0.0221  0.0911  0.1795
  853MOL0     C17587   5.805   8.641   7.592 -0.1554 -0.1293  0.1427
  853MOL0     C17588   5.861   8.695   7.718  0.1348  0.0207 -0.7054
  853MOL0     C17589   5.925   8.591   7.816 -0.4388 -0.4853 -0.4631
  853MOL0     C17590   5.857   8.450   7.815  0.5206  0.6278 -0.0000
  853MOL0     C17591   5.731   8.455   7.901 -0.4654 -0.2904 -0.0431
  853MOL0     C17592   5.619   8.354   7.867  0.1488 -0.1718 -0.7031
  853MOL0     N17593   5.485   8.387   7.919  1.3421  0.3502  0.0946
  853MOL0     C17594   5.352   8.320   7.902 -0.4834 -0.3053 -0.8962
  853MOL0     C17595   5.276   8.394   7.983 -0.4296  0.0226  0.1529
  853MOL0     C17596   5.127   8.380   8.011  0.2860  0.0307  0.7303
  853MOL0     C17597   5.101   8.260   8.110 -0.7466 -0.7083 -0.1796
  853MOL0     C17598   4.947   8.234   8.118 -0.1760 -0.9200 -0.8119
  853MOL0     C17599   4.905   8.090   8.156 -0.5704  0.4056  0.4900
  853MOL0     O17600   4.993   8.039   8.263  0.0474  0.1462 -0.3850
  853MOL0     C17601   4.965   7.912   8.321  0.3653  0.5549  0.4424
  853MOL0     C17602   4.847   7.841   8.301 -0.0217  0.6778  0.2027
  853MOL0     C17603   4.819   7.720   8.365 -0.7263  0.8354 -0.4460
  853MOL0     C17604   4.672   7.665   8.356  0.9104 -0.3976  1.0383
  853MOL0     C17605   4.922   7.670   8.455 -0.1148  0.8622 -0.2701
  853MOL0     C17606   4.900   7.538   8.519  0.3278 -0.5742 -0.3823
  853MOL0     O17607   4.779   7.528   8.571 -0.4678  0.0674  0.2290
  853MOL0     C17608   4.749   7.408   8.638 -0.6634  0.6177  0.1853
  853MOL0     C17609   4.721   7.294   8.560  1.2194 -0.1449 -0.5731
  853MOL0     C17610   4.687   7.168   8.610  0.5894  0.5186 -0.0374
  853MOL0     C17611   4.674   7.155   8.753 -0.8100 -0.0574 -0.0289
  853MOL0     O17612   4.622   7.039   8.816 -0.3456  0.7348 -1.1038
  853MOL0     C17613   4.613   6.916   8.740  0.8597  0.5464 -0.4069
  853MOL0     C17614   4.593   6.795   8.828  0.5934  0.2161  0.3004
  853MOL0     C17615   4.445   6.798   8.865 -1.1443  0.7109 -0.7277
  853MOL0     C17616   4.396   6.678   8.951 -0.3839 -0.3799 -0.3712
  853MOL0     C17617   4.385   6.545   8.869  0.5141  0.5279 -0.6300
  853MOL0     C17618   4.366   6.429   8.967  1.3649 -0.1944  0.1282
  853MOL0     C17619   4.350   6.292   8.901  0.4269 -0.5701  0.6945
  853MOL0     C17620   4.218   6.222   8.928 -0.2208 -0.2291 -0.1806
  853MOL0    Cl17621   4.243   6.043   8.907  0.0866 -0.3015 -1.0253
  853MOL0     C17622   4.703   7.265   8.825  0.5016 -0.0341  0.0621
  853MOL0     C17623   4.735   7.385   8.774  0.1669 -0.6268  0.3550
  853MOL0     O17624   4.986   7.450   8.526 -0.3200  0.2066 -0.3447
  853MOL0     C17625   5.043   7.733   8.469 -0.1094  0.1879 -0.0534
  853MOL0     C17626   5.061   7.855   8.403 -0.0908 -0.2416 -0.2503
  853MOL0     N17627   5.354   8.486   8.049 -0.3932  0.2905  0.4148
  853MOL0     N17628   5.469   8.488   8.006  1.5108 -0.6910 -0.0288
  853MOL0     C17629   5.949   9.161   7.593  0.5500 -0.4742 -0.3466
  853MOL0     C17630   6.021   9.277   7.553 -0.4094  0.3784  0.2718
  853MOL0     C17631   6.284   9.584   7.460  0.5436  0.0877 -0.0096
  853MOL0     C17632   6.296   9.661   7.337  0.6871  0.7625 -0.5467
  853MOL0     C17633   6.341   9.792   7.330  0.2506  0.4979 -1.1844
  853MOL0     C17634   6.388   9.845   7.450  0.5359 -0.2915 -0.6928
  853MOL0     O17635   6.452   9.962   7.460  0.1169  0.0511  0.1255
  853MOL0     C17636   6.498  10.029   7.348 -0.3261 -1.1483  0.7533
  853MOL0     C17637   6.402  10.123   7.278 -0.1137  0.3595 -0.1870
  853MOL0     C17638   6.472  10.178   7.149 -0.5283  1.0380 -0.3440
  853MOL0     C17639   6.378  10.279   7.085  0.4731  1.0224 -0.3600
  853MOL0     C17640   6.434  10.300   6.950  0.0889  0.3387  0.2402
  853MOL0     C17641   6.480  10.309   6.833  0.4412  0.1770 -0.9822
  853MOL0     C17642   6.355   9.789   7.569  0.0530  0.5367 -0.7314
  853MOL0     C17643   6.311   9.652   7.578 -0.4409 -0.6811  0.5732
  853MOL0     C17644   6.300   9.591   7.719 -0.8612 -0.3783  0.3245
  853MOL0     H17645   6.033   9.215   7.218 -1.9372  2.7099 -0.3016
  853MOL0     H17646   5.927   9.020   7.280 -1.5761 -0.5315  0.3939
  853MOL0     H17647   5.911   8.805   7.407 -0.2121  0.2019 -0.8542
  853MOL0     H17648   5.773   8.908   7.357 -0.1053 -1.2099 -0.9396
  853MOL0     H17649   5.648   8.789   7.572  0.1909 -0.3088  0.7187
  853MOL0     H17650   5.687   8.699   7.420 -1.4567  3.6155 -1.2506
  853MOL0     H17651   5.733   8.563   7.616  0.7834 -0.5752  1.7091
  853MOL0     H17652   5.882   8.583   7.540 -0.8436  0.9020 -2.1289
  853MOL0     H17653   5.935   8.773   7.700 -1.6476  1.5703 -1.5790
  853MOL0     H17654   5.773   8.748   7.756  2.4702  3.5773  0.2416
  853MOL0     H17655   5.917   8.626   7.919  0.8726  0.6833 -0.7319
  853MOL0     H17656   6.029   8.599   7.783  0.3951  1.8151  2.3437
  853MOL0     H17657   5.837   8.405   7.717  1.0679  1.4080 -0.4796
  853MOL0     H17658   5.936   8.383   7.852  1.9607  0.4451 -3.0000
  853MOL0     H17659   5.688   8.555   7.893  1.1567  0.5106  0.8700
  853MOL0     H17660   5.749   8.457   8.009 -0.4761  2.3149 -0.0316
  853MOL0     H17661   5.603   8.357   7.759 -1.4805  0.8222 -0.4630
  853MOL0     H17662   5.661   8.259   7.902  1.7049  1.2094  1.4221
  853MOL0     H17663   5.314   8.231   7.853 -0.0798  1.7206 -5.3393
  853MOL0     H17664   5.063   8.369   7.923 -2.2357 -2.4054  2.6987
  853MOL0     H17665   5.104   8.465   8.075  6.3257 -0.3367  4.1157
  853MOL0     H17666   5.149   8.174   8.063 -2.6026 -2.4668  0.9447
  853MOL0     H17667   5.130   8.281   8.213 -0.5180  0.8657 -0.5352
  853MOL0     H17668   4.909   8.292   8.203  2.8995 -1.7951  1.3309
  853MOL0     H17669   4.888   8.259   8.030  3.7667  1.1156 -3.1004
  853MOL0     H17670   4.809   8.111   8.204 -0.9351  1.2150 -0.5446
  853MOL0     H17671   4.897   8.028   8.066  4.3472  3.4028 -2.5447
  853MOL0     H17672   4.785   7.876   8.219  2.0642 -0.9099 -2.2165
  853MOL0     H17673   4.669   7.557   8.338  3.3866 -0.3870  0.2716
  853MOL0     H17674   4.617   7.716   8.276 -2.1760 -1.4954  2.2957
  853MOL0     H17675   4.609   7.703   8.437 -1.3959 -2.9717  0.6230
  853MOL0     H17676   4.722   7.305   8.452  3.4436 -0.9537 -0.6971
  853MOL0     H17677   4.679   7.079   8.548 -0.0355 -0.0259  0.8144
  853MOL0     H17678   4.533   6.927   8.666  1.9361 -2.1301 -2.1512
  853MOL0     H17679   4.710   6.899   8.692  0.0100 -0.9251 -1.7253
  853MOL0     H17680   4.613   6.707   8.766 -2.6588 -0.3649 -0.1370
  853MOL0     H17681   4.660   6.777   8.912 -0.0475 -0.5689  0.6587
  853MOL0     H17682   4.379   6.818   8.780  1.2360 -0.5819 -3.0203
  853MOL0     H17683   4.449   6.885   8.933 -1.3551  0.4712 -0.4077
  853MOL0     H17684   4.296   6.695   8.992 -1.1329  2.2582 -2.9754
  853MOL0     H17685   4.472   6.655   9.027 -0.6333 -0.5573 -0.1732
  853MOL0     H17686   4.303   6.550   8.796  0.2266 -0.6394 -0.4004
  853MOL0     H17687   4.481   6.542   8.817  1.9429 -0.1358  1.9317
  853MOL0     H17688   4.272   6.456   9.016  1.7771  0.5876  0.5110
  853MOL0     H17689   4.448   6.430   9.040  0.2033  3.1445  1.5889
  853MOL0     H17690   4.436   6.231   8.931  1.3372 -0.6964 -1.9263
  853MOL0     H17691   4.361   6.309   8.794 -0.8226  2.2361  0.9007
  853MOL0     H17692   4.140   6.273   8.871  1.7383  3.0362 -0.1721
  853MOL0     H17693   4.193   6.244   9.032  2.2065  0.8739  0.2149
  853MOL0     H17694   4.689   7.262   8.933  1.2537 -3.4461  0.1864
  853MOL0     H17695   4.760   7.470   8.837  0.2801  0.7883 -1.5077
  853MOL0     H17696   5.129   7.694   8.522  0.0685  2.5317  1.5289
  853MOL0     H17697   5.154   7.909   8.417  0.9572 -2.3839  1.5385
  853MOL0     H17698   5.915   9.140   7.694  4.0164  0.6289  1.2216
  853MOL0     H17699   6.062   9.352   7.619  2.3877  1.0718 -2.0274
  853MOL0     H17700   6.280   9.617   7.239  1.5582 -0.3682 -0.1902
  853MOL0     H17701   6.344   9.844   7.235 -0.8308  1.2553 -0.8233
  853MOL0     H17702   6.589  10.071   7.391 -1.5285 -0.0705  2.3370
  853MOL0     H17703   6.534   9.955   7.275  0.8175 -0.2697  0.3854
  853MOL0     H17704   6.384  10.205   7.349 -2.3057 -0.5162  0.3763
  853MOL0     H17705   6.309  10.071   7.252 -0.2266  0.7324 -0.5411
  853MOL0     H17706   6.567  10.222   7.182  0.9354 -1.5969 -0.7902
  853MOL0     H17707   6.492  10.095   7.081  0.1948  0.7146  0.2529
  853MOL0     H17708   6.376  10.368   7.147  2.9277  0.4184  0.7055
  853MOL0     H17709   6.275  10.243   7.077  0.7764  0.2874 -1.1830
  853MOL0     H17710   6.516  10.325   6.734 -1.6819 -0.6762 -1.9448
  853MOL0     H17711   6.376   9.845   7.659 -1.2846 -0.6359  0.3529
  853MOL0     H17712   6.227   9.510   7.711  0.1780 -1.2037 -1.7520
  853MOL0     H17713   6.400   9.554   7.744 -0.3620  2.0851  2.3535
  853MOL0     H17714   6.279   9.673   7.788 -2.1676  0.3751 -0.8995
  854MOL0     O17715  10.930   7.519   2.153 -0.3234 -1.1371  0.3587
  854MOL0     C17716  10.817   7.563   2.148  0.5211 -0.4139 -0.9073
  854MOL0     O17717  10.723   7.550   2.254  0.5963  0.0342 -0.6239
  854MOL0     C17718  10.744   7.448   2.345 -0.3028 -0.1992  0.2004
  854MOL0     C17719  10.783   7.462   2.478 -0.1202 -0.0200 -0.3041
  854MOL0     C17720  10.785   7.358   2.566 -0.1657  0.6658 -0.1826
  854MOL0     C17721  10.765   7.225   2.519 -0.1920 -0.1368  0.2197
  854MOL0     O17722  10.766   7.105   2.594 -0.5172 -0.2722 -0.2604
  854MOL0     C17723  10.710   7.116   2.727  0.0786  0.5057  0.1869
  854MOL0     C17724  10.685   6.982   2.783 -1.1175 -0.7723  0.7849
  854MOL0     C17725  10.808   6.900   2.810  0.9147 -0.2478  0.0350
  854MOL0     C17726  10.761   6.754   2.851 -0.0994 -0.3133 -0.4102
  854MOL0     C17727  10.883   6.664   2.886  0.4826  0.5167  0.1185
  854MOL0     C17728  10.854   6.510   2.937 -0.3638  0.6816 -0.2983
  854MOL0     C17729  10.988   6.447   2.945  0.1815 -0.5320  0.5379
  854MOL0     C17730  10.987   6.301   2.948 -0.3397 -0.0916 -1.1610
  854MOL0     N17731  10.920   6.242   3.067  0.1005 -0.3076  0.8721
  854MOL0     C17732  10.839   6.130   3.070  0.4069 -0.0656 -0.4135
  854MOL0     C17733  10.808   6.108   3.201  0.5784  0.4630 -0.8767
  854MOL0     C17734  10.696   6.017   3.244 -0.4847  0.1363  0.1701
  854MOL0     C17735  10.556   6.067   3.234 -0.4287  0.1490  1.1288
  854MOL0     C17736  10.546   6.203   3.301 -0.5631  0.2425  0.1549
  854MOL0     C17737  10.422   6.217   3.383  0.5755 -0.1482 -0.8454
  854MOL0     O17738  10.293   6.213   3.318 -0.0162  0.8064  1.1536
  854MOL0     C17739  10.192   6.149   3.388 -0.0762 -0.7691 -0.6200
  854MOL0     C17740  10.089   6.090   3.318  0.5397 -0.2668 -0.8078
  854MOL0     C17741   9.976   6.037   3.389 -0.3859 -0.4219  0.4031
  854MOL0     C17742   9.870   5.989   3.300  0.2825 -0.7471  0.0647
  854MOL0     C17743   9.973   6.023   3.534 -1.3066 -0.8946 -0.4734
  854MOL0     C17744   9.868   5.974   3.614 -0.0565 -1.0018  0.4800
  854MOL0     O17745   9.895   5.942   3.744  0.2499  0.3040  0.0629
  854MOL0     C17746   9.798   5.882   3.826  0.7063  0.0556 -0.4660
  854MOL0     C17747   9.836   5.781   3.912  0.1354 -0.1159 -0.0291
  854MOL0     C17748   9.762   5.735   4.014  0.0950 -0.5887  0.5617
  854MOL0     C17749   9.634   5.788   4.033 -0.2078 -0.3128  0.5144
  854MOL0     O17750   9.538   5.754   4.131 -0.0270  0.6835 -0.1862
  854MOL0     C17751   9.588   5.669   4.237 -0.4589 -0.1096  0.5529
  854MOL0     C17752   9.477   5.620   4.331  0.3181 -0.9681 -0.4228
  854MOL0     C17753   9.398   5.507   4.272  0.4166  0.3866  0.0890
  854MOL0     C17754   9.387   5.400   4.380  0.0592 -0.5636 -0.0099
  854MOL0     C17755   9.368   5.268   4.303 -0.0490  0.0831  0.2403
  854MOL0     C17756   9.362   5.147   4.387 -0.0861  0.2759 -0.5138
  854MOL0     C17757   9.497   5.113   4.450  0.6071 -0.5586  0.8335
  854MOL0     C17758   9.491   4.992   4.540  0.2392 -0.0171  0.1966
  854MOL0    Cl17759   9.468   4.837   4.447 -0.3481 -0.2212  0.2932
  854MOL0     C17760   9.584   5.882   3.939  0.1998  0.2932 -0.4410
  854MOL0     C17761   9.664   5.927   3.841 -1.4866 -0.6786 -1.0116
  854MOL0     O17762   9.752   5.977   3.568 -0.0069  0.1193  0.1240
  854MOL0     C17763  10.084   6.094   3.603  0.9147  0.6574  0.7308
  854MOL0     C17764  10.187   6.144   3.528 -0.9152 -0.5202  0.0160
  854MOL0     N17765  10.872   6.202   3.274  0.2947  0.3497  1.5763
  854MOL0     N17766  10.943   6.276   3.196  0.3061 -0.5720 -0.4509
  854MOL0     C17767  10.733   7.210   2.384  0.2454 -0.3571 -0.8841
  854MOL0     C17768  10.715   7.321   2.301 -0.0943  0.3659  0.2933
  854MOL0     C17769  10.767   7.621   2.012  0.4878 -0.3787  0.5866
  854MOL0     C17770  10.632   7.635   1.983  0.0727  0.0460 -0.0655
  854MOL0     C17771  10.585   7.690   1.865  0.3136  0.1529 -0.5283
  854MOL0     C17772  10.672   7.732   1.767 -1.0077 -0.7607  0.2554
  854MOL0     O17773  10.621   7.805   1.657  0.6376  0.2522 -0.4624
  854MOL0     C17774  10.661   7.757   1.530 -0.0599 -0.1565 -0.6663
  854MOL0     C17775  10.597   7.852   1.422 -0.2619  0.1668 -0.8275
  854MOL0     C17776  10.448   7.854   1.435  0.0849  0.7710 -0.2048
  854MOL0     C17777  10.387   7.930   1.323 -0.2595  0.4108  0.0299
  854MOL0     C17778  10.240   7.922   1.314 -0.3762 -0.0168 -0.2115
  854MOL0     C17779  10.117   7.894   1.312 -1.1292  0.9351 -0.0687
  854MOL0     C17780  10.805   7.727   1.795 -1.2660  0.7886  0.1738
  854MOL0     C17781  10.858   7.686   1.916  0.0609 -0.3216 -0.4135
  854MOL0     C17782  11.009   7.703   1.941  0.4045  0.9322 -1.2451
  854MOL0     H17783  10.796   7.561   2.523  3.1268 -1.2565  1.8000
  854MOL0     H17784  10.811   7.372   2.670  0.2845 -2.1548  0.1715
  854MOL0     H17785  10.614   7.168   2.733  0.5904  1.6474 -0.8849
  854MOL0     H17786  10.772   7.177   2.793  0.1990  0.2213  0.3414
  854MOL0     H17787  10.632   7.004   2.876 -0.2477  2.0965  0.7195
  854MOL0     H17788  10.622   6.935   2.706 -0.2577  1.7006 -1.6277
  854MOL0     H17789  10.875   6.897   2.723 -1.4410 -1.5143 -1.8481
  854MOL0     H17790  10.848   6.950   2.898 -1.4448  3.0442 -0.5601
  854MOL0     H17791  10.700   6.765   2.941 -1.1242  1.8348 -1.3042
  854MOL0     H17792  10.708   6.710   2.766  0.7779 -0.3911 -0.9405
  854MOL0     H17793  10.950   6.717   2.954 -0.9076 -0.0327  1.9981
  854MOL0     H17794  10.923   6.659   2.784  1.0440  1.1497  0.3019
  854MOL0     H17795  10.798   6.512   3.030  1.7395  2.6156  1.0165
  854MOL0     H17796  10.802   6.448   2.863 -2.1597 -1.4254  2.5579
  854MOL0     H17797  11.041   6.479   3.036 -0.2643  1.5969  0.0905
  854MOL0     H17798  11.049   6.487   2.864 -1.8960  3.7350  0.8591
  854MOL0     H17799  10.927   6.274   2.860 -3.2988  0.1630  0.6638
  854MOL0     H17800  11.093   6.276   2.944 -0.1277  0.4352  0.5387
  854MOL0     H17801  10.797   6.064   2.996 -2.9495 -1.5563  2.5495
  854MOL0     H17802  10.708   5.999   3.352  0.4774 -2.0810 -0.2413
  854MOL0     H17803  10.722   5.924   3.193 -0.3585  0.4941 -0.4222
  854MOL0     H17804  10.523   6.075   3.131 -3.7423 -0.4190  2.0430
  854MOL0     H17805  10.477   6.004   3.276 -1.8320  1.8622  1.1930
  854MOL0     H17806  10.630   6.206   3.370 -0.5989  1.3739  0.1778
  854MOL0     H17807  10.551   6.286   3.229  3.7321  1.1491  1.2304
  854MOL0     H17808  10.428   6.138   3.459 -0.1150 -0.4753 -1.1201
  854MOL0     H17809  10.422   6.315   3.432 -1.5663 -0.2063 -0.6542
  854MOL0     H17810  10.092   6.083   3.210 -1.2643  0.3279 -0.9311
  854MOL0     H17811   9.830   5.903   3.355 -1.7545 -0.0278 -0.2178
  854MOL0     H17812   9.909   5.971   3.200  0.9997 -1.1554  0.4085
  854MOL0     H17813   9.796   6.069   3.290 -1.4438 -2.0055  1.8233
  854MOL0     H17814   9.943   5.764   3.900 -0.3950 -1.7332 -3.8725
  854MOL0     H17815   9.802   5.668   4.089  0.7647 -0.6781  0.1318
  854MOL0     H17816   9.651   5.588   4.200 -0.2866 -0.1594  0.9502
  854MOL0     H17817   9.651   5.733   4.299 -0.9950 -0.8168  1.8547
  854MOL0     H17818   9.510   5.592   4.431 -2.8794 -3.1803  0.1615
  854MOL0     H17819   9.407   5.704   4.328  2.1965  0.6541 -1.1985
  854MOL0     H17820   9.459   5.481   4.184  3.2297  2.9978  1.0840
  854MOL0     H17821   9.296   5.529   4.242  0.9162  0.5872 -1.5820
  854MOL0     H17822   9.314   5.422   4.459  0.1314  0.4091 -0.2052
  854MOL0     H17823   9.482   5.394   4.433 -0.6036  0.0457  1.2965
  854MOL0     H17824   9.277   5.279   4.245  1.8818 -0.2533 -3.0894
  854MOL0     H17825   9.444   5.244   4.228 -1.6094 -3.6550 -0.3203
  854MOL0     H17826   9.334   5.074   4.311 -0.3763  1.5943 -1.6982
  854MOL0     H17827   9.297   5.170   4.472 -1.3078  1.5863 -1.7454
  854MOL0     H17828   9.532   5.204   4.500 -3.1742  3.0618 -2.2887
  854MOL0     H17829   9.582   5.090   4.385 -1.3989 -2.7831 -1.2228
  854MOL0     H17830   9.412   5.009   4.613  0.1581 -0.0492  0.1163
  854MOL0     H17831   9.584   4.981   4.597 -0.8678  4.5252  3.4973
  854MOL0     H17832   9.485   5.922   3.955  0.6532  1.0770  0.5269
  854MOL0     H17833   9.623   6.009   3.782  2.1685 -0.0570 -2.9630
  854MOL0     H17834  10.098   6.098   3.710  3.0855  0.8012  0.4818
  854MOL0     H17835  10.266   6.177   3.595 -0.5696 -1.1050 -0.0978
  854MOL0     H17836  10.736   7.111   2.341  0.8197 -1.8641  2.3025
  854MOL0     H17837  10.699   7.299   2.196 -1.5359 -1.0173  0.7567
  854MOL0     H17838  10.559   7.608   2.058  0.1185 -2.9135 -0.9556
  854MOL0     H17839  10.480   7.709   1.847  0.6966  2.1921 -0.8785
  854MOL0     H17840  10.769   7.743   1.522 -0.4637 -2.9685 -2.6245
  854MOL0     H17841  10.628   7.653   1.520 -1.2274  0.1903 -0.6047
  854MOL0     H17842  10.636   7.832   1.322  1.2973  0.1312 -0.2302
  854MOL0     H17843  10.641   7.948   1.447 -0.0317  0.0921 -0.9419
  854MOL0     H17844  10.416   7.749   1.441  0.8271  0.5185 -0.5621
  854MOL0     H17845  10.419   7.905   1.527  2.1845  0.0763  0.9041
  854MOL0     H17846  10.421   7.887   1.228 -0.6978  1.0372 -0.4175
  854MOL0     H17847  10.419   8.035   1.329 -3.1262  1.5559 -2.0552
  854MOL0     H17848  10.017   7.859   1.324  0.0337 -3.0314 -0.6335
  854MOL0     H17849  10.876   7.772   1.725 -0.2005 -3.5956 -1.9164
  854MOL0     H17850  11.053   7.784   1.883  3.8597  0.6988  0.7816
  854MOL0     H17851  11.034   7.727   2.045  3.1046 -1.4739 -1.2111
  854MOL0     H17852  11.061   7.611   1.914 -1.2109  0.3738 -2.6596
  855MOL0     O17853   6.168   3.882   6.267  0.2002 -0.1388  0.0342
  855MOL0     C17854   6.206   3.903   6.153  0.5052  0.1361 -0.4283
  855MOL0     O17855   6.318   3.851   6.100 -0.0088  0.5711  0.0038
  855MOL0     C17856   6.428   3.821   6.184 -0.5867 -0.8235  0.3317
  855MOL0     C17857   6.439   3.708   6.258 -0.3209 -0.3712  0.5740
  855MOL0     C17858   6.556   3.688   6.339 -0.9099  0.1921  0.3190
  855MOL0     C17859   6.657   3.781   6.333  0.4863  0.0476  0.5245
  855MOL0     O17860   6.773   3.752   6.402  0.5148 -0.7680  0.3676
  855MOL0     C17861   6.877   3.840   6.401 -0.4331  0.2316 -0.4462
  855MOL0     C17862   6.962   3.844   6.280 -0.6179  0.0502 -0.1088
  855MOL0     C17863   7.017   3.705   6.245  0.2884  0.3872 -0.4803
  855MOL0     C17864   7.094   3.627   6.360  0.1078  0.8437 -0.5743
  855MOL0     C17865   7.240   3.669   6.387 -0.3273  0.1675 -0.6967
  855MOL0     C17866   7.310   3.585   6.503  0.1650  0.6970 -0.4109
  855MOL0     C17867   7.239   3.625   6.639 -0.5818 -0.2651  0.3022
  855MOL0     C17868   7.334   3.609   6.761 -0.2153  0.0840 -0.4445
  855MOL0     N17869   7.366   3.472   6.775 -0.2450 -0.0312  0.1704
  855MOL0     C17870   7.311   3.379   6.866  0.0776 -0.3861  0.6651
  855MOL0     C17871   7.381   3.270   6.857  0.7069 -0.6673 -0.6064
  855MOL0     C17872   7.375   3.152   6.954  0.3225 -0.5276 -0.3297
  855MOL0     C17873   7.499   3.133   7.045 -0.9320  0.0787  0.0313
  855MOL0     C17874   7.503   3.004   7.115 -0.2617  0.2826 -1.4750
  855MOL0     C17875   7.646   2.960   7.122 -1.0948  1.1122 -0.7931
  855MOL0     O17876   7.661   2.844   7.206  0.1141  0.3290  0.0971
  855MOL0     C17877   7.625   2.719   7.154 -0.2250  0.8949  0.6037
  855MOL0     C17878   7.636   2.675   7.023 -0.8428 -0.1930 -0.0708
  855MOL0     C17879   7.608   2.537   6.993 -0.2471  0.4892  0.5027
  855MOL0     C17880   7.640   2.482   6.858 -0.5383 -1.0054 -0.2731
  855MOL0     C17881   7.550   2.451   7.099 -0.2949  0.1567 -0.5584
  855MOL0     C17882   7.506   2.305   7.084 -0.5431 -0.1216 -0.0338
  855MOL0     O17883   7.458   2.252   7.192  0.5653  0.1576  0.1737
  855MOL0     C17884   7.409   2.127   7.175  0.5924 -0.1126 -0.0538
  855MOL0     C17885   7.485   2.011   7.174  0.7210  0.0922  0.3770
  855MOL0     C17886   7.429   1.891   7.190 -0.0177 -0.2778  0.7827
  855MOL0     C17887   7.288   1.873   7.199  0.8363  0.9269  0.3958
  855MOL0     O17888   7.215   1.756   7.226 -0.4049 -0.2794 -0.0384
  855MOL0     C17889   7.281   1.648   7.296  0.1938 -0.3791  0.9056
  855MOL0     C17890   7.279   1.530   7.196 -0.1385 -1.2508  0.2132
  855MOL0     C17891   7.360   1.556   7.065  0.2238 -0.5083 -0.0983
  855MOL0     C17892   7.368   1.439   6.970  0.1560  0.0272  0.1875
  855MOL0     C17893   7.424   1.490   6.836  0.7014  0.8332  0.2474
  855MOL0     C17894   7.430   1.381   6.722 -0.0611 -0.3340  0.7380
  855MOL0     C17895   7.479   1.244   6.760 -0.4239 -0.1272  0.4722
  855MOL0     C17896   7.458   1.144   6.633 -0.0730  0.3252  0.5317
  855MOL0    Cl17897   7.311   1.055   6.612 -0.4696 -0.0279  0.4154
  855MOL0     C17898   7.210   1.986   7.204  0.8013 -0.1257  0.8200
  855MOL0     C17899   7.269   2.108   7.185  0.0336 -0.4100 -0.3104
  855MOL0     O17900   7.506   2.254   6.971  0.0443 -0.2393  0.0437
  855MOL0     C17901   7.520   2.509   7.221 -0.4487 -0.7779  0.6139
  855MOL0     C17902   7.570   2.634   7.244  0.3697 -0.0232  0.2069
  855MOL0     N17903   7.475   3.285   6.761  0.2756  0.2536 -0.2047
  855MOL0     N17904   7.475   3.406   6.720 -0.1560  0.2042 -0.6344
  855MOL0     C17905   6.639   3.904   6.267  0.8620 -0.1959 -0.2593
  855MOL0     C17906   6.523   3.921   6.190  1.3102  0.1434  0.6389
  855MOL0     C17907   6.120   3.986   6.064  0.0514  0.0130  0.3586
  855MOL0     C17908   5.994   4.031   6.112  0.5511  0.0416  0.1072
  855MOL0     C17909   5.911   4.108   6.042 -0.3516 -0.2509  0.0973
  855MOL0     C17910   5.946   4.152   5.913 -1.0921  1.0231  0.5429
  855MOL0     O17911   5.875   4.233   5.834 -0.7223  0.6593 -0.2682
  855MOL0     C17912   5.903   4.273   5.699  0.5318 -0.1743 -0.5911
  855MOL0     C17913   5.797   4.370   5.655 -0.0062 -0.9503 -0.0164
  855MOL0     C17914   5.800   4.507   5.726  0.8551  0.0731 -0.0366
  855MOL0     C17915   5.895   4.608   5.657  0.9289 -0.7803 -0.4172
  855MOL0     C17916   5.953   4.716   5.738 -0.4667  0.1477 -0.0076
  855MOL0     C17917   5.999   4.810   5.805 -0.2028  0.6421 -0.5797
  855MOL0     C17918   6.063   4.097   5.858  0.4602 -0.2502 -0.0403
  855MOL0     C17919   6.156   4.028   5.936  0.5196  0.2787 -0.7355
  855MOL0     C17920   6.294   4.052   5.889 -0.4052  0.3272  0.2628
  855MOL0     H17921   6.348   3.649   6.256  0.0850 -1.0018  0.4300
  855MOL0     H17922   6.568   3.598   6.399 -0.9897 -0.0484 -0.0253
  855MOL0     H17923   6.920   3.814   6.497 -0.8975  1.6599  0.1820
  855MOL0     H17924   6.854   3.940   6.440 -1.8209 -0.1293 -0.3004
  855MOL0     H17925   6.913   3.885   6.192 -1.5164  1.2572  0.9225
  855MOL0     H17926   7.040   3.920   6.294  1.3370 -1.7147 -0.7835
  855MOL0     H17927   6.933   3.641   6.215 -1.5651  2.8770 -0.9868
  855MOL0     H17928   7.076   3.732   6.157  0.5665  1.3482 -0.0064
  855MOL0     H17929   7.039   3.624   6.454  2.2335  1.2546  0.7648
  855MOL0     H17930   7.104   3.520   6.336  2.5019  1.0015 -0.5324
  855MOL0     H17931   7.240   3.778   6.398  3.4271  0.1632  1.0837
  855MOL0     H17932   7.295   3.650   6.294 -0.3282 -0.3987 -0.5848
  855MOL0     H17933   7.303   3.478   6.481 -0.0235  1.1559 -2.8277
  855MOL0     H17934   7.415   3.617   6.507 -0.0716  1.5437 -0.7805
  855MOL0     H17935   7.151   3.561   6.635 -2.0823  1.7383 -3.6948
  855MOL0     H17936   7.209   3.730   6.633 -2.6084 -0.6836  1.8222
  855MOL0     H17937   7.419   3.676   6.746  1.3712 -1.6412  0.5915
  855MOL0     H17938   7.285   3.638   6.855  0.0288 -1.1719  0.0798
  855MOL0     H17939   7.224   3.390   6.930 -1.4050 -1.1274 -1.1157
  855MOL0     H17940   7.374   3.066   6.887  1.1180 -2.1345  1.6128
  855MOL0     H17941   7.284   3.169   7.011 -0.9992  2.3001 -2.9874
  855MOL0     H17942   7.590   3.149   6.987 -0.3265  0.6986  1.1288
  855MOL0     H17943   7.498   3.215   7.117 -1.4324 -0.7336  0.9768
  855MOL0     H17944   7.467   3.012   7.218 -1.7075 -1.5568 -1.7761
  855MOL0     H17945   7.433   2.930   7.075 -0.3699  1.1226 -2.8891
  855MOL0     H17946   7.695   2.936   7.027  2.3606 -0.3090  1.1634
  855MOL0     H17947   7.697   3.046   7.168 -2.1444  2.4373 -2.0238
  855MOL0     H17948   7.658   2.757   6.956 -3.6832  0.7522  0.0380
  855MOL0     H17949   7.558   2.451   6.793 -0.1443  1.4270 -2.0956
  855MOL0     H17950   7.709   2.397   6.867 -2.6873 -2.7999 -0.1499
  855MOL0     H17951   7.694   2.564   6.808 -0.6836 -0.7212  0.0370
  855MOL0     H17952   7.592   2.028   7.163  0.5323  2.5892  1.7451
  855MOL0     H17953   7.496   1.806   7.190  1.9455  1.1760  2.1250
  855MOL0     H17954   7.377   1.667   7.344 -0.7123 -0.9943  3.0692
  855MOL0     H17955   7.213   1.606   7.370  0.1378 -0.3286  0.8825
  855MOL0     H17956   7.328   1.446   7.245 -1.2658 -1.3819  1.1559
  855MOL0     H17957   7.179   1.502   7.162 -0.3788  0.7816 -0.9218
  855MOL0     H17958   7.457   1.598   7.094  0.2220 -0.7099  0.2037
  855MOL0     H17959   7.307   1.634   7.010 -0.8649  1.3399  3.2697
  855MOL0     H17960   7.268   1.399   6.951  0.3643  0.4217 -1.9462
  855MOL0     H17961   7.429   1.357   7.008 -0.4470 -0.1571  0.7926
  855MOL0     H17962   7.361   1.572   6.801  0.7674  0.6306 -0.3683
  855MOL0     H17963   7.524   1.526   6.860  0.8034  1.2272 -0.7263
  855MOL0     H17964   7.504   1.421   6.652  1.8829  2.0931  3.8616
  855MOL0     H17965   7.329   1.380   6.679 -0.4735  0.1386  1.6641
  855MOL0     H17966   7.428   1.208   6.851  1.8799  0.6269  2.1460
  855MOL0     H17967   7.582   1.258   6.791  0.9286 -1.9725 -2.6883
  855MOL0     H17968   7.544   1.076   6.637  0.5289  1.1147  1.8746
  855MOL0     H17969   7.480   1.207   6.546 -0.9541  0.6500  0.5386
  855MOL0     H17970   7.102   1.993   7.213  0.9864  0.1354  3.3657
  855MOL0     H17971   7.223   2.205   7.173  1.8303  0.1962 -3.9698
  855MOL0     H17972   7.478   2.462   7.309 -3.4968  0.7883  0.1560
  855MOL0     H17973   7.558   2.676   7.343  3.5516  1.2043  0.2095
  855MOL0     H17974   6.714   3.983   6.268 -0.6879  1.3473  0.7267
  855MOL0     H17975   6.501   4.005   6.125 -3.1256  2.0336  4.0133
  855MOL0     H17976   5.974   3.988   6.210 -0.3860  1.0749  0.3813
  855MOL0     H17977   5.816   4.148   6.078  0.6568  2.7731 -0.3533
  855MOL0     H17978   6.001   4.323   5.704  0.0077  0.9985 -1.5239
  855MOL0     H17979   5.898   4.185   5.634  2.1148 -1.7629  1.2757
  855MOL0     H17980   5.705   4.314   5.676  0.4437 -0.9008  2.2652
  855MOL0     H17981   5.802   4.394   5.548 -0.1444  1.2389  0.4261
  855MOL0     H17982   5.698   4.546   5.731  1.4838  1.7271  0.6978
  855MOL0     H17983   5.843   4.494   5.826  0.7004  1.0078  0.1610
  855MOL0     H17984   5.844   4.645   5.567  1.5083  2.0402  0.3255
  855MOL0     H17985   5.986   4.552   5.634 -1.0984 -3.6605 -1.9813
  855MOL0     H17986   6.055   4.885   5.858 -0.2364  1.0130 -1.0703
  855MOL0     H17987   6.107   4.127   5.764  1.2950  0.8007  0.6651
  855MOL0     H17988   6.335   3.965   5.839  0.3169 -0.2521  1.7881
  855MOL0     H17989   6.296   4.123   5.806  2.6368  0.4079  0.3038
  855MOL0     H17990   6.360   4.090   5.968 -0.4272 -0.7027  0.7966
  856MOL0     O17991   3.090   3.880   7.291  0.0678  0.1630  0.6844
  856MOL0     C17992   2.984   3.874   7.348 -0.1331  0.3608  0.7582
  856MOL0     O17993   2.862   3.813   7.302  0.0532  0.3840  0.4429
  856MOL0     C17994   2.859   3.735   7.192 -0.5976 -0.3075  0.7460
  856MOL0     C17995   2.942   3.746   7.079  0.1825 -0.2697  0.3218
  856MOL0     C17996   2.947   3.660   6.972  0.6956 -1.1166  1.9230
  856MOL0     C17997   2.834   3.574   6.960  0.6165 -0.6038  0.4766
  856MOL0     O17998   2.797   3.499   6.854  0.1008  0.1268  0.3904
  856MOL0     C17999   2.907   3.458   6.760  0.0753 -0.0022 -0.0758
  856MOL0     C18000   2.844   3.409   6.634  0.3401  0.5935 -0.2468
  856MOL0     C18001   2.796   3.263   6.638 -0.3304  0.5228  0.2261
  856MOL0     C18002   2.759   3.208   6.496 -0.5363  0.0764  0.0555
  856MOL0     C18003   2.662   3.100   6.515 -0.1377  0.2338 -0.7809
  856MOL0     C18004   2.724   2.964   6.568  0.5602 -0.5287  0.0497
  856MOL0     C18005   2.607   2.868   6.620  0.9151 -0.4532  0.2408
  856MOL0     C18006   2.519   2.804   6.508  0.2318 -0.8206 -0.7805
  856MOL0     N18007   2.387   2.760   6.559 -0.3600 -0.0368 -0.2480
  856MOL0     C18008   2.381   2.635   6.624 -0.5305 -0.1749 -0.8768
  856MOL0     C18009   2.249   2.616   6.656 -0.2630  0.9419  0.3660
  856MOL0     C18010   2.190   2.488   6.712 -0.3019 -0.0194 -0.2617
  856MOL0     C18011   2.055   2.522   6.770 -0.4100 -0.7043  0.0750
  856MOL0     C18012   1.976   2.396   6.789 -0.0313 -0.4047  0.5771
  856MOL0     C18013   1.848   2.429   6.871 -0.3716  0.6329  0.5034
  856MOL0     O18014   1.897   2.465   6.999  0.1136  0.3376  0.3845
  856MOL0     C18015   1.803   2.525   7.085  0.4230  0.2915 -0.5029
  856MOL0     C18016   1.861   2.569   7.205  0.2604  0.2028 -0.6679
  856MOL0     C18017   1.792   2.644   7.305 -0.1527  0.0181 -0.0108
  856MOL0     C18018   1.859   2.662   7.430  0.1438 -0.5287 -0.9131
  856MOL0     C18019   1.649   2.666   7.285  0.8881 -0.2584  0.0037
  856MOL0     C18020   1.554   2.727   7.387  0.2270 -0.6082 -0.2754
  856MOL0     O18021   1.431   2.757   7.345 -0.6973 -0.4125  0.6070
  856MOL0     C18022   1.349   2.800   7.446  0.3568  0.4636  0.3068
  856MOL0     C18023   1.366   2.935   7.487 -0.8043  0.1543  0.7326
  856MOL0     C18024   1.277   2.993   7.580  0.1398 -1.1140  0.4906
  856MOL0     C18025   1.176   2.924   7.638 -0.8186 -0.7932  0.8493
  856MOL0     O18026   1.077   2.991   7.717 -0.8005 -0.1992  0.0531
  856MOL0     C18027   0.981   2.925   7.798  0.9511 -0.1426  0.3717
  856MOL0     C18028   0.991   2.985   7.946  0.5007 -1.0122 -0.0365
  856MOL0     C18029   0.992   3.141   7.943 -0.3188  0.0881 -0.7935
  856MOL0     C18030   0.963   3.184   8.086  0.1250 -0.6641 -0.3291
  856MOL0     C18031   1.012   3.327   8.099 -0.6346 -0.1316  0.0971
  856MOL0     C18032   1.016   3.379   8.240  0.1491  0.1410 -0.1178
  856MOL0     C18033   1.067   3.523   8.262 -0.2838  0.3349 -0.3612
  856MOL0     C18034   1.220   3.536   8.219  0.7536  0.2836  0.2583
  856MOL0    Cl18035   1.233   3.551   8.037 -0.0736 -0.5360  0.3089
  856MOL0     C18036   1.167   2.786   7.594 -0.3939  0.1510  0.1792
  856MOL0     C18037   1.252   2.716   7.510  0.3081 -0.0302  0.7350
  856MOL0     O18038   1.593   2.733   7.499 -0.1415  0.8867 -0.3353
  856MOL0     C18039   1.593   2.627   7.162 -0.1722 -0.2056 -0.5723
  856MOL0     C18040   1.669   2.556   7.067  0.7799  0.7129 -0.4485
  856MOL0     N18041   2.179   2.726   6.608 -0.3423 -0.3922  0.4018
  856MOL0     N18042   2.265   2.809   6.549 -0.1783  0.4981 -0.1701
  856MOL0     C18043   2.743   3.574   7.077 -0.3255 -0.8775 -0.4785
  856MOL0     C18044   2.756   3.645   7.189 -0.4688  0.1045  0.1935
  856MOL0     C18045   2.978   3.942   7.483  0.2897 -0.0651 -0.8108
  856MOL0     C18046   2.848   3.979   7.523  0.3776 -0.9372  0.7958
  856MOL0     C18047   2.822   4.056   7.633  1.2049 -0.0998  0.0535
  856MOL0     C18048   2.931   4.076   7.716  1.3032 -0.1534 -1.1120
  856MOL0     O18049   2.896   4.161   7.821  1.1259  0.0805  0.5689
  856MOL0     C18050   3.007   4.200   7.900 -0.1177  0.2580 -0.7402
  856MOL0     C18051   2.959   4.289   8.017  0.0517 -0.2452 -0.2805
  856MOL0     C18052   2.899   4.416   7.963  0.8456  0.7939 -0.4761
  856MOL0     C18053   2.853   4.512   8.083 -0.3350  0.5821  0.8584
  856MOL0     C18054   2.790   4.635   8.047  0.4265 -0.6904 -0.0322
  856MOL0     C18055   2.740   4.729   7.983 -0.0481  0.3330 -0.3383
  856MOL0     C18056   3.062   4.032   7.685  0.2189 -0.1365  0.8711
  856MOL0     C18057   3.085   3.959   7.572  0.0405  0.5154 -0.4366
  856MOL0     C18058   3.225   3.918   7.548 -0.0737  0.0466 -0.3793
  856MOL0     H18059   3.003   3.835   7.067 -1.7086  0.8248 -1.8384
  856MOL0     H18060   3.023   3.684   6.898  0.3273 -3.2090  0.8097
  856MOL0     H18061   2.973   3.385   6.807  3.1350  2.5439 -0.0726
  856MOL0     H18062   2.969   3.544   6.733 -1.1886  1.2035  0.7188
  856MOL0     H18063   2.757   3.474   6.618  1.2033  2.4952  2.1247
  856MOL0     H18064   2.927   3.421   6.564  2.5888  1.7630  2.4069
  856MOL0     H18065   2.878   3.204   6.682 -1.5603 -1.2760  0.2046
  856MOL0     H18066   2.708   3.245   6.701 -0.9120 -2.4152 -1.2355
  856MOL0     H18067   2.726   3.299   6.444  3.2581  1.3437 -0.4587
  856MOL0     H18068   2.836   3.169   6.428 -0.9621 -1.3082  0.3487
  856MOL0     H18069   2.617   3.076   6.418 -0.3377  2.4920 -1.2986
  856MOL0     H18070   2.572   3.122   6.572 -0.0795 -1.8727  0.2395
  856MOL0     H18071   2.782   2.914   6.490  0.0991  2.9691 -2.7969
  856MOL0     H18072   2.799   2.986   6.644  1.7567  2.8989 -1.8895
  856MOL0     H18073   2.540   2.932   6.679  1.5773  0.2604  0.2324
  856MOL0     H18074   2.649   2.795   6.690 -0.2275 -1.5201 -0.1492
  856MOL0     H18075   2.508   2.882   6.432 -2.7706 -0.3839 -0.0343
  856MOL0     H18076   2.571   2.716   6.469  1.8972 -0.9948  1.6218
  856MOL0     H18077   2.444   2.547   6.619 -0.6404 -0.2873 -0.3434
  856MOL0     H18078   2.248   2.432   6.786  0.9942 -0.3705 -1.5093
  856MOL0     H18079   2.181   2.416   6.631 -0.5045 -1.4034  0.9512
  856MOL0     H18080   2.064   2.576   6.865  2.9752 -1.2018  0.1590
  856MOL0     H18081   1.988   2.577   6.703 -0.8589 -3.4133 -1.8702
  856MOL0     H18082   1.947   2.351   6.694  3.4163 -1.2151 -0.2362
  856MOL0     H18083   2.037   2.320   6.838 -1.0376 -0.9427  1.0348
  856MOL0     H18084   1.786   2.502   6.819 -0.2417 -0.6854 -1.6155
  856MOL0     H18085   1.786   2.341   6.890 -2.0564  0.9566 -2.8724
  856MOL0     H18086   1.966   2.550   7.222  0.1088  0.0418  0.1472
  856MOL0     H18087   1.966   2.639   7.428  0.2510 -0.0239 -1.2573
  856MOL0     H18088   1.824   2.587   7.502  0.9399 -0.0777 -0.0415
  856MOL0     H18089   1.835   2.755   7.481 -1.8977 -1.7105  0.4081
  856MOL0     H18090   1.430   2.984   7.414 -1.7815  0.4350  0.0459
  856MOL0     H18091   1.273   3.099   7.599 -1.4326 -0.7424 -1.5598
  856MOL0     H18092   0.883   2.939   7.751  0.2824 -0.8588  1.5199
  856MOL0     H18093   0.998   2.817   7.807 -4.7233 -1.2015  2.3617
  856MOL0     H18094   0.901   2.959   8.001 -0.0323 -1.0464 -0.9140
  856MOL0     H18095   1.076   2.932   7.991  1.3954 -0.8919 -1.5289
  856MOL0     H18096   0.920   3.183   7.872  0.9119  1.6199 -1.2047
  856MOL0     H18097   1.093   3.175   7.917  0.2534 -1.1796 -0.2860
  856MOL0     H18098   1.016   3.114   8.151  0.5492 -0.5368 -0.5382
  856MOL0     H18099   0.854   3.177   8.096  0.0549  1.2362  0.7357
  856MOL0     H18100   1.115   3.333   8.061 -1.0977 -0.5586 -1.2953
  856MOL0     H18101   0.942   3.384   8.038  0.9694 -0.7830 -2.5529
  856MOL0     H18102   1.073   3.316   8.309  1.3967  0.0824 -1.1447
  856MOL0     H18103   0.911   3.373   8.271 -0.3386  0.9918 -1.4919
  856MOL0     H18104   1.073   3.538   8.370  1.8879 -1.3861 -0.1799
  856MOL0     H18105   1.007   3.597   8.208 -0.0355  1.2932  0.6439
  856MOL0     H18106   1.280   3.452   8.254  1.1323  1.8661  3.7267
  856MOL0     H18107   1.273   3.622   8.260 -0.7537 -0.8307  5.2172
  856MOL0     H18108   1.094   2.715   7.630  0.6881 -1.3690 -0.5183
  856MOL0     H18109   1.242   2.610   7.492  1.7025  0.2244 -2.0454
  856MOL0     H18110   1.495   2.664   7.134 -0.3005  1.1956  1.5476
  856MOL0     H18111   1.616   2.533   6.975  0.4235 -0.2246 -0.0217
  856MOL0     H18112   2.668   3.496   7.078 -0.0067 -1.1892 -0.7210
  856MOL0     H18113   2.671   3.645   7.257 -0.8528 -0.1224 -0.2761
  856MOL0     H18114   2.767   3.960   7.453  0.2569  1.1619  0.2812
  856MOL0     H18115   2.728   4.101   7.661  2.5933  3.3038 -0.3064
  856MOL0     H18116   3.062   4.115   7.943 -3.0075 -1.3145  0.1235
  856MOL0     H18117   3.069   4.265   7.838 -1.5682  0.9017 -1.5576
  856MOL0     H18118   3.039   4.311   8.088  0.4892  1.8302 -1.3562
  856MOL0     H18119   2.879   4.235   8.069 -1.7813  0.1058 -2.5930
  856MOL0     H18120   2.981   4.463   7.907  0.5877  0.3349 -1.2498
  856MOL0     H18121   2.812   4.405   7.898  1.4813  1.0962 -1.3881
  856MOL0     H18122   2.930   4.526   8.159  1.2288 -2.0401 -0.1039
  856MOL0     H18123   2.780   4.450   8.136  3.1332 -3.9143  0.9586
  856MOL0     H18124   2.705   4.825   7.948  3.5556  2.8539  2.1769
  856MOL0     H18125   3.143   4.070   7.746 -0.5131  3.4038 -0.1115
  856MOL0     H18126   3.281   3.904   7.642  0.7587  0.0434 -0.8619
  856MOL0     H18127   3.211   3.824   7.494  0.8648  0.5368 -1.5231
  856MOL0     H18128   3.284   3.990   7.490 -0.6027  1.5377  0.8718
  857MOL0     O18129   2.984   4.734   5.992  0.6403 -0.1385 -1.1883
  857MOL0     C18130   3.007   4.832   6.063 -0.9285  0.8555 -1.1460
  857MOL0     O18131   3.119   4.858   6.141 -0.1744  0.3949  0.0348
  857MOL0     C18132   3.225   4.769   6.132  0.9819  0.1586 -0.5843
  857MOL0     C18133   3.277   4.710   6.018  0.1187  0.0210 -0.3602
  857MOL0     C18134   3.396   4.640   6.027  0.1996  0.0358 -0.4981
  857MOL0     C18135   3.462   4.633   6.156  0.1011 -0.5595 -0.5608
  857MOL0     O18136   3.578   4.552   6.151 -0.2425 -0.7062 -0.2177
  857MOL0     C18137   3.635   4.494   6.264 -0.3204 -0.1457 -0.1879
  857MOL0     C18138   3.789   4.467   6.254 -0.4715 -0.3198 -1.8336
  857MOL0     C18139   3.830   4.374   6.137 -0.7829  0.3710  0.2350
  857MOL0     C18140   3.982   4.333   6.159  0.0212 -0.7412  0.0944
  857MOL0     C18141   4.048   4.276   6.035 -0.1020  0.5139  0.2025
  857MOL0     C18142   4.178   4.203   6.069  0.3737 -0.5986  0.3872
  857MOL0     C18143   4.287   4.277   6.156 -0.3242 -0.3693 -0.1647
  857MOL0     C18144   4.332   4.404   6.079  0.3843  0.0061  0.4626
  857MOL0     N18145   4.448   4.472   6.138  0.3466 -0.3718 -0.2310
  857MOL0     C18146   4.436   4.571   6.226 -0.6551 -0.4134  0.2137
  857MOL0     C18147   4.552   4.589   6.274  0.1238  0.1055 -0.0286
  857MOL0     C18148   4.589   4.702   6.364  0.0173  0.4146 -0.4469
  857MOL0     C18149   4.478   4.741   6.466  0.3238  0.6710 -0.4046
  857MOL0     C18150   4.400   4.869   6.435  1.1988  0.7811 -0.6683
  857MOL0     C18151   4.480   4.990   6.478 -0.7080 -0.2144  0.0756
  857MOL0     O18152   4.399   5.088   6.542  0.5640 -0.7236  0.3920
  857MOL0     C18153   4.448   5.194   6.617 -0.0890 -0.4901  0.5696
  857MOL0     C18154   4.575   5.246   6.584  0.1729  0.1275  0.3466
  857MOL0     C18155   4.620   5.360   6.653 -0.1601 -0.1678  0.6472
  857MOL0     C18156   4.764   5.415   6.622 -0.4861 -0.3687  0.0758
  857MOL0     C18157   4.532   5.418   6.758 -0.0875 -0.0480  0.6101
  857MOL0     C18158   4.582   5.531   6.844 -0.9502 -0.1105  0.0418
  857MOL0     O18159   4.717   5.532   6.895 -0.7358  0.1844 -0.0063
  857MOL0     C18160   4.735   5.590   7.015  0.5807 -0.0411 -0.6883
  857MOL0     C18161   4.742   5.730   7.014 -0.1803  1.0950 -0.2738
  857MOL0     C18162   4.779   5.792   7.132 -0.1886 -0.6117 -0.6010
  857MOL0     C18163   4.807   5.722   7.248 -0.7284  0.2598  0.1139
  857MOL0     O18164   4.849   5.805   7.348  0.7642 -0.0019 -0.4680
  857MOL0     C18165   4.900   5.738   7.459  0.3998  0.3378 -0.2523
  857MOL0     C18166   4.939   5.841   7.569 -0.2056  0.2916 -0.1366
  857MOL0     C18167   4.822   5.906   7.631  0.5386  0.5676 -0.2441
  857MOL0     C18168   4.874   6.005   7.739 -1.0136 -0.4191 -0.1018
  857MOL0     C18169   4.767   6.054   7.846  0.5915 -0.0633  0.3929
  857MOL0     C18170   4.835   6.132   7.951  0.5413  0.6333  0.0358
  857MOL0     C18171   4.731   6.172   8.062  0.2684  0.7059 -0.3894
  857MOL0     C18172   4.633   6.279   8.010  0.0240  0.0663  0.0257
  857MOL0    Cl18173   4.525   6.318   8.150 -0.2153  0.1182 -0.0869
  857MOL0     C18174   4.803   5.581   7.247  0.4061  0.1584  0.3520
  857MOL0     C18175   4.764   5.510   7.130  0.0859 -0.4219  0.6180
  857MOL0     O18176   4.504   5.606   6.875 -0.1483 -0.2651  0.5679
  857MOL0     C18177   4.403   5.369   6.774 -0.7015  0.4091  0.5791
  857MOL0     C18178   4.360   5.252   6.708 -0.2638 -1.4528  0.5115
  857MOL0     N18179   4.638   4.496   6.234 -1.1959  0.3554  1.3725
  857MOL0     N18180   4.576   4.429   6.143  0.1176  0.1605 -0.0192
  857MOL0     C18181   3.410   4.688   6.279  0.2278  0.3725 -0.0046
  857MOL0     C18182   3.287   4.751   6.257 -0.4412 -0.1621  0.3746
  857MOL0     C18183   2.898   4.930   6.084  0.2031  0.5328 -0.2425
  857MOL0     C18184   2.767   4.893   6.057  0.6886  0.5976 -0.2481
  857MOL0     C18185   2.661   4.975   6.084  0.3895  0.0590 -0.8430
  857MOL0     C18186   2.681   5.109   6.107 -0.3200  0.9998 -0.0002
  857MOL0     O18187   2.562   5.189   6.106 -0.3767  0.0608 -1.0119
  857MOL0     C18188   2.576   5.329   6.157 -0.9462 -0.2263 -0.0791
  857MOL0     C18189   2.590   5.415   6.035 -0.1485  0.4792  0.4374
  857MOL0     C18190   2.656   5.552   6.062  0.1609  0.2994 -0.1035
  857MOL0     C18191   2.679   5.643   5.928 -0.0486 -0.7233  0.6987
  857MOL0     C18192   2.768   5.575   5.824  0.6640 -0.4510  0.0009
  857MOL0     C18193   2.832   5.509   5.747 -0.2739  0.6795 -0.1053
  857MOL0     C18194   2.816   5.152   6.120  0.3331  0.3498 -0.0611
  857MOL0     C18195   2.925   5.061   6.121  0.2399 -0.1584 -1.5537
  857MOL0     C18196   3.062   5.119   6.126 -0.1713 -0.0645 -0.0592
  857MOL0     H18197   3.241   4.712   5.916  0.0937 -0.2923 -0.3586
  857MOL0     H18198   3.446   4.596   5.941 -1.4573  0.7700 -1.8991
  857MOL0     H18199   3.576   4.403   6.282 -0.8747  0.4763  1.3178
  857MOL0     H18200   3.629   4.560   6.350 -0.8370 -0.6535  0.1771
  857MOL0     H18201   3.847   4.558   6.234 -1.4722  0.9574  0.7064
  857MOL0     H18202   3.820   4.424   6.349 -2.5720  0.8437 -0.5637
  857MOL0     H18203   3.767   4.285   6.136 -2.5472  1.5712 -0.3192
  857MOL0     H18204   3.818   4.423   6.040 -1.8291 -0.7860 -0.2425
  857MOL0     H18205   4.036   4.421   6.195 -1.4168 -0.3895  1.5068
  857MOL0     H18206   3.985   4.255   6.236 -2.7330 -3.6494 -2.4817
  857MOL0     H18207   4.060   4.346   5.952 -0.3390  0.3047 -0.0086
  857MOL0     H18208   3.982   4.201   5.990  1.0873  0.6706 -1.9668
  857MOL0     H18209   4.146   4.120   6.133  0.2105 -2.3293 -1.7844
  857MOL0     H18210   4.217   4.163   5.975 -1.2692  1.0334 -1.0697
  857MOL0     H18211   4.373   4.213   6.177 -0.0668 -0.2824 -0.9111
  857MOL0     H18212   4.244   4.291   6.255 -0.0659 -4.1245  0.6334
  857MOL0     H18213   4.362   4.367   5.981  2.9442 -1.7853  1.8143
  857MOL0     H18214   4.246   4.472   6.076  0.2141  0.0764  3.5565
  857MOL0     H18215   4.344   4.627   6.236 -0.6354 -0.0573 -1.3526
  857MOL0     H18216   4.615   4.796   6.313  0.9716  0.4126  0.0096
  857MOL0     H18217   4.673   4.669   6.425 -1.2448  0.9475  1.6598
  857MOL0     H18218   4.403   4.661   6.471  1.4103 -0.3862 -0.5913
  857MOL0     H18219   4.525   4.731   6.564  0.0240 -0.8340 -0.3888
  857MOL0     H18220   4.367   4.879   6.330  2.1602  0.0679 -1.0504
  857MOL0     H18221   4.301   4.867   6.482 -0.0183 -3.8442 -2.7949
  857MOL0     H18222   4.558   4.966   6.552  0.6510  1.6621 -0.6585
  857MOL0     H18223   4.528   5.026   6.386 -0.0837  0.6301  0.7135
  857MOL0     H18224   4.639   5.200   6.509  0.0091 -1.2971  1.0355
  857MOL0     H18225   4.836   5.345   6.664  0.5880  0.6654  0.0192
  857MOL0     H18226   4.786   5.515   6.663 -0.5403  0.8973 -2.7388
  857MOL0     H18227   4.777   5.416   6.514 -1.7090  0.5492 -0.0877
  857MOL0     H18228   4.730   5.787   6.922  0.2739 -1.7759 -2.2551
  857MOL0     H18229   4.785   5.899   7.152 -1.5671 -0.9117  1.9811
  857MOL0     H18230   4.818   5.675   7.494  0.7229 -0.2373 -0.5334
  857MOL0     H18231   4.984   5.677   7.427 -2.4215 -4.4216  0.4601
  857MOL0     H18232   5.000   5.790   7.644 -2.2114 -3.0707 -0.6037
  857MOL0     H18233   4.995   5.917   7.514 -0.0354 -0.5337 -1.1243
  857MOL0     H18234   4.760   5.833   7.686 -0.0206  3.0939  2.7515
  857MOL0     H18235   4.757   5.967   7.568  1.1923  0.2879 -1.1961
  857MOL0     H18236   4.907   6.092   7.682  2.7523  0.5840  3.1738
  857MOL0     H18237   4.964   5.961   7.782 -1.5218 -1.6809 -0.2866
  857MOL0     H18238   4.689   6.107   7.790  0.3096  1.0534  1.7672
  857MOL0     H18239   4.722   5.962   7.882  0.4056 -0.3872 -0.6429
  857MOL0     H18240   4.871   6.227   7.910 -1.5978  0.7819 -1.6644
  857MOL0     H18241   4.918   6.082   8.002 -0.2410  0.8638  1.6047
  857MOL0     H18242   4.800   6.210   8.139  1.7139  0.1358 -1.3614
  857MOL0     H18243   4.688   6.089   8.119  1.7810  0.6048  0.6736
  857MOL0     H18244   4.573   6.228   7.933 -0.4292 -0.5531  0.7786
  857MOL0     H18245   4.684   6.362   7.961  0.4514  1.2325  2.3479
  857MOL0     H18246   4.849   5.529   7.330 -1.3051 -1.8762  0.1039
  857MOL0     H18247   4.789   5.406   7.116  0.5533 -0.6641  2.8192
  857MOL0     H18248   4.339   5.395   6.858  3.8728 -1.8534  5.3760
  857MOL0     H18249   4.271   5.202   6.746 -1.5076  0.2600 -0.0311
  857MOL0     H18250   3.457   4.689   6.376 -0.8112  1.5288  0.5153
  857MOL0     H18251   3.252   4.789   6.353 -1.4713  1.0206 -0.4333
  857MOL0     H18252   2.733   4.797   6.020 -0.0173  0.8401 -0.2289
  857MOL0     H18253   2.562   4.930   6.080  0.4875 -0.0914 -1.9710
  857MOL0     H18254   2.488   5.359   6.215 -1.0927 -0.4526 -0.1844
  857MOL0     H18255   2.667   5.338   6.217 -2.4124 -0.8183  2.3706
  857MOL0     H18256   2.496   5.435   5.984  0.9224  0.6645 -1.5743
  857MOL0     H18257   2.655   5.367   5.961  0.5343 -0.0972  1.3830
  857MOL0     H18258   2.600   5.604   6.140  1.1800  0.1874  0.7161
  857MOL0     H18259   2.756   5.523   6.094  1.1104  3.2965 -0.0261
  857MOL0     H18260   2.720   5.742   5.949  2.9409 -1.6956 -0.0667
  857MOL0     H18261   2.589   5.647   5.865  1.7592  0.7619 -1.9997
  857MOL0     H18262   2.889   5.443   5.685 -0.4217 -0.3842  0.8514
  857MOL0     H18263   2.834   5.259   6.132 -0.4896  0.4048  0.8274
  857MOL0     H18264   3.145   5.082   6.065  1.7251  2.0756  1.0345
  857MOL0     H18265   3.057   5.227   6.106 -0.3585  0.2253  1.3892
  857MOL0     H18266   3.093   5.104   6.230 -3.9287  1.2109  1.4307
  858MOL0     O18267  11.180   3.702   1.948  0.0446 -1.0536 -0.5233
  858MOL0     C18268  11.259   3.609   1.978 -0.0490  0.6366 -0.1515
  858MOL0     O18269  11.225   3.481   1.983 -0.1010  0.7758 -0.7741
  858MOL0     C18270  11.101   3.443   1.937  0.1722 -0.1933 -0.2711
  858MOL0     C18271  11.095   3.336   1.849  0.2903 -0.7788 -0.1603
  858MOL0     C18272  10.979   3.282   1.803 -0.4031  0.6902  0.1953
  858MOL0     C18273  10.861   3.328   1.860  0.1514 -0.7421 -0.3531
  858MOL0     O18274  10.736   3.290   1.819 -0.4391  0.9955  0.2200
  858MOL0     C18275  10.690   3.165   1.870 -0.3080  0.4311  0.0599
  858MOL0     C18276  10.542   3.151   1.832  1.2627 -0.9550  0.0136
  858MOL0     C18277  10.504   3.137   1.679 -0.1399 -0.8251  0.3118
  858MOL0     C18278  10.548   3.000   1.618 -0.0735 -0.0459  0.0719
  858MOL0     C18279  10.539   3.006   1.458  1.5539 -0.5532 -0.3069
  858MOL0     C18280  10.392   3.020   1.407 -0.3028  0.2145 -0.6789
  858MOL0     C18281  10.368   3.033   1.260  0.3938  0.2190 -0.2919
  858MOL0     C18282  10.416   2.914   1.164 -0.6249 -0.2931 -0.7689
  858MOL0     N18283  10.388   2.962   1.029  0.3676 -0.1187 -1.0378
  858MOL0     C18284  10.272   2.925   0.971 -1.3279 -1.0231 -0.7923
  858MOL0     C18285  10.266   3.008   0.862  0.4294  0.7499 -0.1580
  858MOL0     C18286  10.140   3.021   0.778 -0.0942  0.1802  0.1538
  858MOL0     C18287  10.075   3.153   0.797 -0.5490  0.1302  0.5382
  858MOL0     C18288   9.952   3.155   0.701 -0.5893 -0.7527 -0.4202
  858MOL0     C18289   9.881   3.285   0.708 -0.6017 -0.4100 -0.4277
  858MOL0     O18290   9.963   3.389   0.662 -0.2533 -0.0679 -0.0999
  858MOL0     C18291   9.997   3.412   0.532 -0.2719  0.0944  0.3662
  858MOL0     C18292   9.916   3.379   0.423 -0.5520  0.7547 -0.4789
  858MOL0     C18293   9.956   3.402   0.294  0.5868  0.1284  0.4391
  858MOL0     C18294   9.869   3.343   0.192 -0.6515 -0.2628  0.7865
  858MOL0     C18295  10.081   3.442   0.276  0.1834 -0.2369 -0.0127
  858MOL0     C18296  10.156   3.430   0.144 -0.7051 -0.6844 -0.9766
  858MOL0     O18297  10.287   3.397   0.167  0.1991  0.2011 -0.3755
  858MOL0     C18298  10.351   3.385   0.050 -0.2173 -0.4467 -0.0671
  858MOL0     C18299  10.369   3.262  -0.007 -0.2530 -0.1050 -0.1385
  858MOL0     C18300  10.443   3.235  -0.116  0.4148  0.0321  0.5062
  858MOL0     C18301  10.501   3.350  -0.181 -0.1012  0.5253 -0.3142
  858MOL0     O18302  10.567   3.327  -0.299  0.0533 -0.4358  0.5447
  858MOL0     C18303  10.608   3.432  -0.392 -0.4371 -0.8476 -0.6110
  858MOL0     C18304  10.627   3.374  -0.538  0.9305  0.1731 -0.4772
  858MOL0     C18305  10.714   3.459  -0.636  0.2466  0.0840 -0.8015
  858MOL0     C18306  10.864   3.463  -0.598  0.6093 -0.2746 -0.7648
  858MOL0     C18307  10.960   3.548  -0.691  0.2806 -0.1533  0.1496
  858MOL0     C18308  11.106   3.535  -0.655 -0.3926  0.5380  0.6093
  858MOL0     C18309  11.198   3.589  -0.760  0.2824  1.5710 -0.1351
  858MOL0     C18310  11.184   3.737  -0.783 -0.0355  0.6592  0.4918
  858MOL0    Cl18311  11.322   3.810  -0.861 -0.2354  0.1310  0.0338
  858MOL0     C18312  10.481   3.480  -0.126 -0.0554 -0.2381 -0.3701
  858MOL0     C18313  10.400   3.499  -0.018 -1.0154 -0.2710 -1.1190
  858MOL0     O18314  10.095   3.410   0.040 -0.8449 -0.1073  0.1800
  858MOL0     C18315  10.154   3.504   0.385  0.4000  0.2968  0.4938
  858MOL0     C18316  10.113   3.484   0.512 -0.1297 -0.7583 -0.0540
  858MOL0     N18317  10.374   3.089   0.854 -0.9362  0.7498  1.0429
  858MOL0     N18318  10.450   3.059   0.958 -0.6604 -0.4350  0.2099
  858MOL0     C18319  10.866   3.429   1.956 -0.5218  0.1462 -0.8213
  858MOL0     C18320  10.984   3.500   1.992  0.4001 -0.4694  1.6063
  858MOL0     C18321  11.399   3.647   2.021  0.0536 -0.6543  0.5201
  858MOL0     C18322  11.415   3.763   2.101 -0.2609 -0.7215  0.8372
  858MOL0     C18323  11.536   3.815   2.148  0.3573  0.6679  0.7066
  858MOL0     C18324  11.654   3.747   2.117  0.0583 -0.1130 -0.0019
  858MOL0     O18325  11.785   3.789   2.136  0.1123 -0.2845 -0.6209
  858MOL0     C18326  11.814   3.930   2.164 -0.3872  0.5911 -0.1092
  858MOL0     C18327  11.827   3.960   2.315  0.2250  0.2113  0.0048
  858MOL0     C18328  11.898   4.092   2.350  0.4339 -0.1866  0.5029
  858MOL0     C18329  11.811   4.187   2.410  0.2772  0.5157 -0.5442
  858MOL0     C18330  11.721   4.248   2.314 -0.0605  0.2875 -0.9015
  858MOL0     C18331  11.657   4.313   2.238 -0.2724 -0.6319  0.0250
  858MOL0     C18332  11.639   3.628   2.036 -0.0312  0.6021 -0.7724
  858MOL0     C18333  11.520   3.578   1.983 -0.1940 -0.7557 -0.0593
  858MOL0     C18334  11.534   3.452   1.903  0.3586  0.4048  0.3966
  858MOL0     H18335  11.185   3.298   1.802 -0.2122  0.2319 -2.0484
  858MOL0     H18336  10.980   3.213   1.720  0.8200  1.1327 -0.1710
  858MOL0     H18337  10.704   3.160   1.978 -0.0195 -1.2648 -0.0353
  858MOL0     H18338  10.751   3.088   1.822  0.9512  0.0350  2.1550
  858MOL0     H18339  10.494   3.073   1.893 -1.3427  1.6226  1.4903
  858MOL0     H18340  10.493   3.240   1.872 -0.9489 -1.0267 -2.2677
  858MOL0     H18341  10.394   3.140   1.681 -0.1155  0.2506  0.7339
  858MOL0     H18342  10.544   3.213   1.611 -1.5245  0.6899  1.1313
  858MOL0     H18343  10.641   2.953   1.652  0.9525  2.3455  0.8039
  858MOL0     H18344  10.479   2.919   1.641 -0.9359  0.0660 -1.9118
  858MOL0     H18345  10.573   2.908   1.421  0.4838 -0.9629 -0.2417
  858MOL0     H18346  10.595   3.090   1.415  2.3090  1.5333  4.2332
  858MOL0     H18347  10.331   2.948   1.462  0.9983 -0.1303  0.3662
  858MOL0     H18348  10.362   3.121   1.439  0.6564 -0.1566  1.6321
  858MOL0     H18349  10.427   3.117   1.223  2.4566 -1.0915 -0.1235
  858MOL0     H18350  10.260   3.033   1.242  0.8987 -0.7058 -4.1746
  858MOL0     H18351  10.521   2.890   1.184 -1.2782 -3.1224 -0.2695
  858MOL0     H18352  10.360   2.821   1.170  1.0604 -1.2712  1.4655
  858MOL0     H18353  10.201   2.850   1.004 -1.1870 -0.2976  1.3475
  858MOL0     H18354  10.067   2.941   0.794  0.9150 -1.3878 -2.4375
  858MOL0     H18355  10.170   3.018   0.673  0.8642  2.9845  0.2660
  858MOL0     H18356  10.064   3.181   0.902  2.6766 -0.1903  1.0384
  858MOL0     H18357  10.153   3.218   0.759  1.8101 -1.8517  1.6763
  858MOL0     H18358   9.990   3.137   0.600 -1.6582 -1.2408 -0.7527
  858MOL0     H18359   9.896   3.070   0.740  1.4499 -0.9316  2.3634
  858MOL0     H18360   9.787   3.284   0.653  0.1386  3.3460 -2.0730
  858MOL0     H18361   9.872   3.323   0.810  0.9099  1.3830 -0.8969
  858MOL0     H18362   9.820   3.331   0.439  0.1362 -0.7168 -0.6170
  858MOL0     H18363   9.892   3.237   0.184  1.0294  0.2342 -2.7250
  858MOL0     H18364   9.882   3.396   0.097  0.0950 -3.4361 -0.9933
  858MOL0     H18365   9.764   3.334   0.222 -0.4797 -1.7260  1.0308
  858MOL0     H18366  10.338   3.165   0.031 -2.5425 -0.1239 -1.8301
  858MOL0     H18367  10.451   3.136  -0.159  0.9300  0.6466 -0.8598
  858MOL0     H18368  10.535   3.514  -0.387  0.7945  0.2240  0.4077
  858MOL0     H18369  10.696   3.484  -0.355 -0.6890  0.6521 -2.0054
  858MOL0     H18370  10.658   3.270  -0.520 -2.4667 -1.1145 -1.2801
  858MOL0     H18371  10.528   3.368  -0.585  0.1216  1.0631  1.0459
  858MOL0     H18372  10.665   3.556  -0.649  0.2914  0.0710 -1.0818
  858MOL0     H18373  10.697   3.402  -0.728  1.2195 -2.0895  0.2797
  858MOL0     H18374  10.906   3.362  -0.587 -0.8600 -0.7432  1.0482
  858MOL0     H18375  10.862   3.499  -0.495  1.7174 -1.8339 -0.1503
  858MOL0     H18376  10.936   3.533  -0.797 -1.2418  1.0978  0.2868
  858MOL0     H18377  10.936   3.652  -0.668 -2.5763 -0.5095 -0.8310
  858MOL0     H18378  11.128   3.428  -0.651 -0.6905  0.3883 -1.1629
  858MOL0     H18379  11.140   3.583  -0.562  0.9195  0.6836  0.0768
  858MOL0     H18380  11.168   3.541  -0.854  1.9562 -2.3796  1.1374
  858MOL0     H18381  11.304   3.572  -0.737  0.5139  1.8419 -0.9557
  858MOL0     H18382  11.174   3.786  -0.686  1.2625  2.5160 -0.2430
  858MOL0     H18383  11.094   3.764  -0.838 -2.1575  0.7196  3.7293
  858MOL0     H18384  10.529   3.559  -0.181 -0.3829 -0.3845 -0.8742
  858MOL0     H18385  10.391   3.596   0.030 -0.2902 -1.6405  2.0511
  858MOL0     H18386  10.257   3.537   0.371  0.6620 -0.8683 -0.4831
  858MOL0     H18387  10.179   3.507   0.594  2.6012  0.4428 -2.3969
  858MOL0     H18388  10.775   3.477   1.991 -0.3937  1.0888 -1.7381
  858MOL0     H18389  10.970   3.582   2.063  0.0578  0.1611  0.8203
  858MOL0     H18390  11.322   3.805   2.138 -0.7101 -2.3780  1.6550
  858MOL0     H18391  11.545   3.899   2.217  2.9564 -2.0040  3.9453
  858MOL0     H18392  11.900   3.979   2.116 -0.3521  2.7320  1.9836
  858MOL0     H18393  11.729   3.984   2.122 -0.9148  0.6017  0.9488
  858MOL0     H18394  11.886   3.880   2.360 -1.0035 -0.1470  1.0358
  858MOL0     H18395  11.728   3.954   2.360 -0.4747 -0.0478 -1.5176
  858MOL0     H18396  11.976   4.081   2.426 -1.3557 -0.9264  2.3088
  858MOL0     H18397  11.941   4.145   2.264 -0.2574  1.4723  1.1431
  858MOL0     H18398  11.872   4.268   2.450 -1.3975  1.5283  0.0402
  858MOL0     H18399  11.757   4.141   2.493  1.8723 -0.9818 -0.2775
  858MOL0     H18400  11.595   4.382   2.185  2.1746  0.7202 -1.2601
  858MOL0     H18401  11.732   3.573   2.025  0.3689  0.8224  1.1050
  858MOL0     H18402  11.482   3.473   1.810  0.0775 -1.8784 -0.0208
  858MOL0     H18403  11.636   3.420   1.881 -0.4568 -0.3992 -2.5267
  858MOL0     H18404  11.481   3.378   1.964 -1.5047  1.2476 -0.1418
  859MOL0     O18405   2.587   3.079   1.777 -0.4387 -0.4045 -1.2478
  859MOL0     C18406   2.627   3.158   1.689  0.5255  0.5897  0.0447
  859MOL0     O18407   2.635   3.297   1.694  0.2219  0.4357  0.9815
  859MOL0     C18408   2.635   3.366   1.812 -0.2166 -0.5689 -0.0122
  859MOL0     C18409   2.559   3.335   1.921 -0.6555 -0.0569 -0.4780
  859MOL0     C18410   2.574   3.405   2.043 -0.6705  0.8333  0.3763
  859MOL0     C18411   2.656   3.512   2.055 -0.1891  0.2641  0.4596
  859MOL0     O18412   2.681   3.586   2.171 -0.1573 -0.7538 -0.4201
  859MOL0     C18413   2.566   3.601   2.266  0.0696 -0.8763 -0.2208
  859MOL0     C18414   2.602   3.702   2.382  0.2777  0.6353 -0.5728
  859MOL0     C18415   2.743   3.659   2.449  0.4885  0.4628  0.1775
  859MOL0     C18416   2.762   3.706   2.593  1.0720  0.3259  0.6814
  859MOL0     C18417   2.882   3.639   2.660  0.1133  1.0857  0.7229
  859MOL0     C18418   2.899   3.682   2.807  0.4242 -0.8434 -0.0859
  859MOL0     C18419   3.009   3.600   2.882 -1.0444 -0.3658  0.5167
  859MOL0     C18420   2.967   3.462   2.933 -0.2625 -0.5691 -0.9277
  859MOL0     N18421   2.948   3.471   3.077  0.0527  0.2882 -1.1412
  859MOL0     C18422   2.868   3.560   3.144  0.7240  0.4581 -0.4375
  859MOL0     C18423   2.891   3.520   3.274 -0.1721 -0.0064 -0.3260
  859MOL0     C18424   2.850   3.570   3.421  0.2155  0.3275 -0.2802
  859MOL0     C18425   2.703   3.524   3.447  0.2968 -0.3921  1.1254
  859MOL0     C18426   2.659   3.496   3.596  0.7308 -0.8550 -0.1637
  859MOL0     C18427   2.671   3.616   3.679 -0.9993  0.5001 -0.2989
  859MOL0     O18428   2.668   3.552   3.807 -0.2076  0.8075  0.4384
  859MOL0     C18429   2.676   3.635   3.920 -0.0847 -0.3698  0.5546
  859MOL0     C18430   2.653   3.580   4.045 -0.2840 -0.1897  0.4552
  859MOL0     C18431   2.685   3.653   4.165  0.0677 -0.0390  0.3541
  859MOL0     C18432   2.706   3.578   4.288  0.4133  0.6161  0.4875
  859MOL0     C18433   2.717   3.794   4.158  0.5685 -0.5995  0.6030
  859MOL0     C18434   2.764   3.889   4.269  0.4364  0.7865  0.1702
  859MOL0     O18435   2.845   3.995   4.236 -0.0753  0.9339 -0.4903
  859MOL0     C18436   2.877   4.092   4.326 -0.4628  0.5024  0.3606
  859MOL0     C18437   2.781   4.180   4.379  0.0994  0.7421 -0.1194
  859MOL0     C18438   2.813   4.252   4.493  0.1801 -0.4575 -1.2296
  859MOL0     C18439   2.933   4.246   4.551 -1.3886 -0.1653 -0.2695
  859MOL0     O18440   2.969   4.297   4.674  0.0256  0.3631  0.5984
  859MOL0     C18441   2.969   4.445   4.675 -0.4637  0.3983  0.1023
  859MOL0     C18442   3.065   4.508   4.578 -0.7785  0.1449 -0.0409
  859MOL0     C18443   3.207   4.478   4.614 -0.2260  0.3354  0.1632
  859MOL0     C18444   3.295   4.595   4.566  0.2402 -0.4567  0.1278
  859MOL0     C18445   3.309   4.603   4.414 -0.8396  0.4736 -0.2075
  859MOL0     C18446   3.397   4.718   4.370  0.4461 -0.4015  0.3114
  859MOL0     C18447   3.439   4.711   4.223  0.5555  0.1532 -0.4098
  859MOL0     C18448   3.487   4.847   4.183 -0.8063 -0.8422  0.7599
  859MOL0    Cl18449   3.638   4.889   4.276 -0.4426  0.0346 -0.2184
  859MOL0     C18450   3.032   4.169   4.486 -0.3179  0.4051  1.1058
  859MOL0     C18451   3.006   4.088   4.382 -0.1234 -0.3034  0.0365
  859MOL0     O18452   2.717   3.864   4.384 -0.6406 -0.5622  0.5350
  859MOL0     C18453   2.724   3.850   4.030  0.6798  0.1138  0.4991
  859MOL0     C18454   2.700   3.772   3.911 -0.5270  0.5231 -0.7235
  859MOL0     N18455   2.986   3.424   3.276 -0.2859  0.4863 -0.1904
  859MOL0     N18456   3.022   3.399   3.160  1.4006 -0.0240  0.9680
  859MOL0     C18457   2.737   3.537   1.946  0.1267  0.2689  0.0280
  859MOL0     C18458   2.727   3.476   1.822  0.0941  0.0755  0.3639
  859MOL0     C18459   2.669   3.094   1.562 -0.8870  1.0448 -0.6879
  859MOL0     C18460   2.743   3.165   1.466  0.3691  0.7156 -0.1200
  859MOL0     C18461   2.816   3.106   1.359 -0.3921  0.4568  0.1948
  859MOL0     C18462   2.824   2.965   1.357  0.2186 -0.7364 -0.5037
  859MOL0     O18463   2.900   2.891   1.266 -0.4587  0.2855  0.7350
  859MOL0     C18464   2.964   2.972   1.158 -0.0930 -0.6781  0.1792
  859MOL0     C18465   3.067   2.866   1.100 -0.4106 -0.0421  0.7209
  859MOL0     C18466   3.164   2.946   1.009 -0.2564 -0.0594 -0.3643
  859MOL0     C18467   3.260   3.047   1.082  0.4569  0.0464 -0.6757
  859MOL0     C18468   3.349   2.976   1.169 -0.4981 -0.3605 -0.7706
  859MOL0     C18469   3.425   2.920   1.241 -0.7846 -0.7248  0.3633
  859MOL0     C18470   2.739   2.894   1.437  0.0343  0.7315  0.0072
  859MOL0     C18471   2.665   2.956   1.537 -0.0947 -0.1686  0.1264
  859MOL0     C18472   2.578   2.854   1.618  0.4574 -0.9516 -0.5987
  859MOL0     H18473   2.486   3.254   1.924  2.5810 -3.1881  1.1251
  859MOL0     H18474   2.505   3.377   2.121 -1.5150  1.7303 -0.0296
  859MOL0     H18475   2.537   3.512   2.323  2.2859 -1.2081  0.4937
  859MOL0     H18476   2.480   3.636   2.208  1.1798 -0.4538 -1.7028
  859MOL0     H18477   2.629   3.796   2.332  0.3369  2.2327  2.2598
  859MOL0     H18478   2.520   3.724   2.450  1.9887 -1.6058  2.4957
  859MOL0     H18479   2.769   3.553   2.436 -0.5704 -0.1003  2.2899
  859MOL0     H18480   2.821   3.709   2.391  1.0191  0.7717  1.1261
  859MOL0     H18481   2.771   3.815   2.592  4.7353  0.1455 -0.5320
  859MOL0     H18482   2.672   3.701   2.656  0.6016 -0.6803 -0.0434
  859MOL0     H18483   2.969   3.658   2.597  0.7826 -2.7574  0.2921
  859MOL0     H18484   2.861   3.532   2.668  1.2574  0.8352  0.5296
  859MOL0     H18485   2.922   3.788   2.822 -0.4199 -0.6126 -0.3849
  859MOL0     H18486   2.804   3.662   2.857  1.3395  1.0880  2.7056
  859MOL0     H18487   3.038   3.670   2.961 -0.9690  3.3574 -2.5028
  859MOL0     H18488   3.093   3.580   2.814 -1.9824 -3.6442  0.1545
  859MOL0     H18489   2.881   3.424   2.877 -0.7362 -0.6549 -0.1566
  859MOL0     H18490   3.039   3.384   2.906 -0.7988 -1.3816 -0.0938
  859MOL0     H18491   2.799   3.631   3.099 -1.5756  0.1116  2.2371
  859MOL0     H18492   2.847   3.679   3.425 -2.9018  0.2901  0.5038
  859MOL0     H18493   2.907   3.534   3.507 -1.8569  1.5012  1.6936
  859MOL0     H18494   2.636   3.604   3.414  0.5600 -1.1669 -1.4975
  859MOL0     H18495   2.693   3.438   3.380  3.3789 -0.0995  0.1353
  859MOL0     H18496   2.552   3.473   3.601 -0.7322  4.5408 -0.3980
  859MOL0     H18497   2.719   3.413   3.636  2.8087  0.9650  0.7063
  859MOL0     H18498   2.771   3.658   3.667  1.2720 -3.9761  0.5755
  859MOL0     H18499   2.590   3.685   3.658 -0.3671  1.0275 -1.0556
  859MOL0     H18500   2.617   3.478   4.043 -0.9726  0.0264 -2.2024
  859MOL0     H18501   2.650   3.622   4.371  1.4393  0.7348  1.1395
  859MOL0     H18502   2.814   3.592   4.299  0.4741  0.9916 -0.4243
  859MOL0     H18503   2.684   3.471   4.284  2.7092  0.1050  0.0898
  859MOL0     H18504   2.680   4.173   4.341  1.0408 -2.9502 -2.3773
  859MOL0     H18505   2.735   4.310   4.540  1.6436  0.3918  0.2236
  859MOL0     H18506   2.870   4.489   4.661  0.4026  1.7839 -2.3038
  859MOL0     H18507   2.998   4.488   4.771 -2.6046  3.2787 -0.3857
  859MOL0     H18508   3.044   4.485   4.473 -1.4762  1.7788 -0.2936
  859MOL0     H18509   3.043   4.614   4.593  1.4999  0.6514  0.1082
  859MOL0     H18510   3.231   4.383   4.565 -3.2158  0.1553 -1.1826
  859MOL0     H18511   3.231   4.472   4.720  0.9369  2.1734  0.0514
  859MOL0     H18512   3.392   4.581   4.615  1.0719  0.9403 -1.0320
  859MOL0     H18513   3.252   4.686   4.611  0.6450  0.0323 -0.4615
  859MOL0     H18514   3.352   4.507   4.387 -1.3160  0.3011 -0.3731
  859MOL0     H18515   3.215   4.616   4.359 -0.5412 -1.1943 -1.1705
  859MOL0     H18516   3.488   4.711   4.430 -0.5774 -5.8314  1.7059
  859MOL0     H18517   3.334   4.807   4.373  0.2698 -0.4899 -0.5146
  859MOL0     H18518   3.359   4.664   4.165  1.6091  0.4918 -2.1990
  859MOL0     H18519   3.511   4.631   4.204 -3.7507 -3.7702 -2.1412
  859MOL0     H18520   3.411   4.924   4.197  0.0664  0.2340 -0.2852
  859MOL0     H18521   3.534   4.844   4.084 -2.4098  0.3340 -0.0922
  859MOL0     H18522   3.132   4.174   4.526  0.7631 -1.2909 -1.1770
  859MOL0     H18523   3.080   4.033   4.325  0.5197  2.1150 -1.6522
  859MOL0     H18524   2.754   3.954   4.018  1.9413 -0.4340 -1.5333
  859MOL0     H18525   2.705   3.822   3.815  0.1664 -2.5917 -2.4713
  859MOL0     H18526   2.809   3.618   1.953 -0.0380  0.3259  1.2351
  859MOL0     H18527   2.781   3.506   1.733 -0.1770  1.9911  0.8108
  859MOL0     H18528   2.739   3.274   1.469 -2.1186  0.8566 -3.1143
  859MOL0     H18529   2.870   3.171   1.290 -2.5734  1.2177 -0.8893
  859MOL0     H18530   2.898   2.999   1.074  1.4239  0.7803 -0.6107
  859MOL0     H18531   3.016   3.061   1.195 -1.3004 -1.1940  3.4562
  859MOL0     H18532   3.014   2.785   1.049 -0.6917  0.3943  0.3110
  859MOL0     H18533   3.127   2.827   1.182  0.8146  0.1645 -0.0477
  859MOL0     H18534   3.226   2.869   0.962 -0.8145 -2.8115  3.0525
  859MOL0     H18535   3.107   2.998   0.931 -1.1334  1.3246  1.1326
  859MOL0     H18536   3.215   3.121   1.149 -0.6784 -1.9267  0.8547
  859MOL0     H18537   3.327   3.096   1.010  3.6042  0.9480  2.5716
  859MOL0     H18538   3.492   2.866   1.305  2.1682  1.3172 -0.7610
  859MOL0     H18539   2.735   2.789   1.413  0.3430  1.5854 -4.6888
  859MOL0     H18540   2.617   2.840   1.720 -0.7494  4.6147  1.0260
  859MOL0     H18541   2.474   2.885   1.629 -0.7871 -4.3041 -1.7745
  859MOL0     H18542   2.555   2.756   1.578 -3.0554 -0.8208  0.7409
  860MOL0     O18543  11.000  10.352   4.493  1.2864 -0.6554 -0.2691
  860MOL0     C18544  11.088  10.321   4.405  0.6184  1.0158 -0.4151
  860MOL0     O18545  11.153  10.404   4.323  0.0739 -0.6230 -0.7204
  860MOL0     C18546  11.116  10.532   4.331 -0.9171 -1.0979  0.5826
  860MOL0     C18547  11.011  10.587   4.252  0.1118  0.8848  0.0800
  860MOL0     C18548  10.993  10.724   4.243  0.1339  1.4104  0.2617
  860MOL0     C18549  11.095  10.818   4.289  0.2730 -0.7684  1.0406
  860MOL0     O18550  11.060  10.952   4.284  0.6157 -0.1772  0.6711
  860MOL0     C18551  11.170  11.039   4.246  0.5548 -0.0616 -0.0155
  860MOL0     C18552  11.189  11.152   4.343 -0.5941  0.9889 -1.0751
  860MOL0     C18553  11.257  11.126   4.492 -0.1739 -0.2818 -0.0966
  860MOL0     C18554  11.253  11.253   4.573  0.5742 -0.2134  0.1117
  860MOL0     C18555  11.316  11.235   4.712 -0.8366 -0.1168 -0.7277
  860MOL0     C18556  11.306  11.341   4.816  0.1998 -0.3389 -1.2302
  860MOL0     C18557  11.159  11.355   4.881  0.7652 -0.7800  0.1322
  860MOL0     C18558  11.164  11.389   5.031  0.2597 -1.0979 -0.7133
  860MOL0     N18559  11.045  11.466   5.072  1.1878 -0.4399 -0.2287
  860MOL0     C18560  11.026  11.599   5.042  0.3317 -0.0883  0.2751
  860MOL0     C18561  10.911  11.630   5.125  0.1393  0.1328  0.3106
  860MOL0     C18562  10.827  11.759   5.134 -0.7411  0.2958 -0.0677
  860MOL0     C18563  10.790  11.813   4.997  0.7071 -0.4657  0.6296
  860MOL0     C18564  10.689  11.715   4.923 -0.0651  0.2635 -0.6861
  860MOL0     C18565  10.545  11.729   4.965  0.6555  0.0233 -0.4408
  860MOL0     O18566  10.446  11.667   4.876  0.3088  0.0873  0.4293
  860MOL0     C18567  10.459  11.531   4.840 -0.1391 -0.6564 -0.0340
  860MOL0     C18568  10.522  11.440   4.917 -0.1029  0.3483 -0.1187
  860MOL0     C18569  10.538  11.300   4.886 -0.2257  0.3645  0.8919
  860MOL0     C18570  10.618  11.225   4.989  0.4382 -0.2057  0.1537
  860MOL0     C18571  10.466  11.248   4.768  0.0441 -0.8279 -0.5511
  860MOL0     C18572  10.431  11.101   4.755 -0.0322 -0.2769 -0.1474
  860MOL0     O18573  10.395  11.059   4.632 -0.5744  0.3097 -0.4444
  860MOL0     C18574  10.339  10.941   4.603  0.1249 -0.3243  0.3691
  860MOL0     C18575  10.199  10.922   4.593  0.3522 -0.2284 -0.2279
  860MOL0     C18576  10.147  10.798   4.535  0.6822 -0.4999 -0.3857
  860MOL0     C18577  10.231  10.688   4.523  0.5878 -0.2223 -0.0123
  860MOL0     O18578  10.188  10.559   4.477  0.2757  0.0420 -0.4551
  860MOL0     C18579  10.260  10.490   4.373  0.2654  0.2362 -0.2202
  860MOL0     C18580  10.171  10.366   4.321 -0.6855 -0.5278 -0.6941
  860MOL0     C18581  10.054  10.416   4.232 -0.0451  0.1481  0.0423
  860MOL0     C18582  10.038  10.324   4.112 -0.6239 -0.5367 -0.2473
  860MOL0     C18583  10.155  10.338   4.007  0.5296  0.1690 -0.2226
  860MOL0     C18584  10.130  10.266   3.877 -0.8714  1.1756  0.3346
  860MOL0     C18585  10.085  10.130   3.897 -0.0576  0.3540 -1.1363
  860MOL0     C18586  10.126  10.059   3.769 -0.7391  0.6876  0.1630
  860MOL0    Cl18587  10.299  10.067   3.712 -0.1637 -0.2481 -0.1256
  860MOL0     C18588  10.365  10.704   4.553 -1.3181 -1.4877  0.1808
  860MOL0     C18589  10.421  10.832   4.580 -0.8213  0.2932 -0.8531
  860MOL0     O18590  10.445  11.025   4.848  0.3817 -0.3874 -0.2419
  860MOL0     C18591  10.404  11.345   4.682 -0.8159  0.0166  0.2235
  860MOL0     C18592  10.406  11.487   4.719  0.1490 -0.1769  0.7013
  860MOL0     N18593  10.855  11.514   5.181 -0.1817  0.9792  0.4408
  860MOL0     N18594  10.944  11.415   5.150  0.7712  0.3254 -0.5216
  860MOL0     C18595  11.196  10.766   4.368  0.5108  0.3366  0.3091
  860MOL0     C18596  11.209  10.621   4.390  1.6110 -0.3750  0.3782
  860MOL0     C18597  11.110  10.180   4.396 -0.4178  1.0586 -0.5180
  860MOL0     C18598  11.063  10.119   4.275  0.1551 -0.4847  0.2901
  860MOL0     C18599  11.068   9.985   4.250  0.2444  0.8024 -0.3768
  860MOL0     C18600  11.099   9.903   4.358  1.0268 -0.2196 -0.0994
  860MOL0     O18601  11.094   9.762   4.353 -0.5239 -0.0705  0.4862
  860MOL0     C18602  10.990   9.708   4.266 -0.5565  0.5268 -0.0257
  860MOL0     C18603  10.958   9.570   4.321  0.3835  0.1339 -0.5890
  860MOL0     C18604  10.834   9.504   4.256 -0.5930  0.3473  0.1455
  860MOL0     C18605  10.712   9.534   4.336  0.1211 -0.4629  0.0893
  860MOL0     C18606  10.596   9.449   4.292  0.0021 -0.4932 -0.5072
  860MOL0     C18607  10.516   9.369   4.246  0.6306 -0.0609 -0.1379
  860MOL0     C18608  11.148   9.953   4.474 -0.5043 -0.9181 -0.6570
  860MOL0     C18609  11.163  10.098   4.497 -0.5514  0.5659  0.5988
  860MOL0     C18610  11.218  10.148   4.629  0.1604 -0.6244  0.3032
  860MOL0     H18611  10.935  10.522   4.209  1.2695 -0.0337 -0.6604
  860MOL0     H18612  10.906  10.758   4.188  0.2180 -1.6081 -1.9676
  860MOL0     H18613  11.142  11.077   4.148  2.2820 -0.0144 -0.5263
  860MOL0     H18614  11.267  10.998   4.217  0.5430  0.3468 -0.6387
  860MOL0     H18615  11.260  11.219   4.293 -1.3518  2.9459  0.3050
  860MOL0     H18616  11.094  11.204   4.358 -1.1150 -0.5697  1.8292
  860MOL0     H18617  11.208  11.041   4.540 -0.1284  0.9031  2.1727
  860MOL0     H18618  11.359  11.094   4.473 -0.9211 -2.2098 -1.1339
  860MOL0     H18619  11.311  11.327   4.517 -1.0524  0.3418 -0.9280
  860MOL0     H18620  11.153  11.297   4.586  0.9274  0.7212 -0.2461
  860MOL0     H18621  11.424  11.231   4.696 -0.7362  2.1522 -0.8787
  860MOL0     H18622  11.269  11.146   4.756  0.9035  0.5454  2.8441
  860MOL0     H18623  11.370  11.320   4.902 -3.5065  1.6196  2.3993
  860MOL0     H18624  11.338  11.443   4.793 -2.4392  2.1931  4.2997
  860MOL0     H18625  11.106  11.260   4.871 -0.1000 -0.6313  2.5467
  860MOL0     H18626  11.104  11.432   4.826  0.8802  0.5817  1.8155
  860MOL0     H18627  11.165  11.292   5.082 -1.1123 -0.5692  0.3683
  860MOL0     H18628  11.252  11.449   5.057 -1.1853  0.1044  1.7482
  860MOL0     H18629  11.078  11.667   4.975 -4.2026  3.4776 -0.1318
  860MOL0     H18630  10.878  11.832   5.197  0.4599 -0.7998  0.2765
  860MOL0     H18631  10.738  11.741   5.194  0.6436 -0.3296  1.9156
  860MOL0     H18632  10.750  11.913   5.016  1.6281  0.1467 -0.5232
  860MOL0     H18633  10.874  11.820   4.928 -0.4969  1.4253 -0.7253
  860MOL0     H18634  10.690  11.748   4.819 -0.3619 -0.4598 -0.9228
  860MOL0     H18635  10.727  11.613   4.935 -0.9281  0.1284  1.3647
  860MOL0     H18636  10.531  11.693   5.067  0.6145  1.9662  0.2680
  860MOL0     H18637  10.521  11.836   4.966  0.5707  0.0087 -0.7157
  860MOL0     H18638  10.562  11.472   5.012 -1.6296 -0.5371  0.8676
  860MOL0     H18639  10.606  11.117   5.001  2.1934 -0.1645  3.3235
  860MOL0     H18640  10.590  11.252   5.091  0.2651 -0.3870  0.1564
  860MOL0     H18641  10.722  11.256   4.984  0.5846 -0.4395  1.5388
  860MOL0     H18642  10.137  11.008   4.617 -1.5039 -1.6518  0.3218
  860MOL0     H18643  10.043  10.786   4.505 -0.1492  0.2498  1.9765
  860MOL0     H18644  10.296  10.552   4.290 -1.0380  0.6007 -0.5383
  860MOL0     H18645  10.351  10.454   4.422 -0.1258  0.6955  0.8887
  860MOL0     H18646  10.241  10.303   4.265 -1.2105 -2.4289  0.6772
  860MOL0     H18647  10.146  10.305   4.407  2.0326  0.5223  0.9909
  860MOL0     H18648  10.070  10.519   4.198 -0.9714 -0.1469 -1.3389
  860MOL0     H18649   9.963  10.415   4.292  0.6413 -1.6765  1.1480
  860MOL0     H18650   9.945  10.336   4.055 -1.9425 -2.9314  1.2712
  860MOL0     H18651  10.031  10.220   4.144 -0.1833 -0.5354 -0.1307
  860MOL0     H18652  10.172  10.445   3.987 -2.2290  0.5743 -0.7612
  860MOL0     H18653  10.249  10.307   4.053  2.5748  3.2981 -1.8802
  860MOL0     H18654  10.229  10.269   3.830 -1.6202  3.8199 -1.3134
  860MOL0     H18655  10.052  10.319   3.820 -0.4559 -0.0516 -1.4421
  860MOL0     H18656   9.977  10.118   3.913 -0.4983  1.1416 -3.1399
  860MOL0     H18657  10.137  10.087   3.983  2.1692  1.1006 -2.0337
  860MOL0     H18658  10.062  10.093   3.687 -0.6999  1.0763  0.2904
  860MOL0     H18659  10.103   9.952   3.769  0.7150  0.3425 -1.0427
  860MOL0     H18660  10.438  10.627   4.531 -1.5600 -1.8527  0.6373
  860MOL0     H18661  10.528  10.842   4.598 -1.1450  0.8456  0.8832
  860MOL0     H18662  10.354  11.319   4.589 -0.5386 -4.2647  1.0734
  860MOL0     H18663  10.368  11.572   4.663  0.3669  1.2675  2.6315
  860MOL0     H18664  11.258  10.840   4.418 -2.5431  1.1708  3.2439
  860MOL0     H18665  11.288  10.592   4.458  1.6352 -0.5551  0.2712
  860MOL0     H18666  11.025  10.189   4.201  0.4111 -0.4939  0.1496
  860MOL0     H18667  11.024   9.952   4.156  0.1637 -0.1638 -0.0119
  860MOL0     H18668  10.897   9.766   4.278 -2.2683 -2.3667  1.9332
  860MOL0     H18669  11.034   9.697   4.167  2.8090 -1.3388  1.4947
  860MOL0     H18670  10.940   9.580   4.429 -1.1184  2.6373 -0.9899
  860MOL0     H18671  11.050   9.517   4.295  0.7076  1.2932 -1.9748
  860MOL0     H18672  10.820   9.533   4.152  1.4137  0.2026 -0.1965
  860MOL0     H18673  10.852   9.396   4.260  4.8157  0.9635  0.1387
  860MOL0     H18674  10.691   9.642   4.336  5.6338  0.9433  0.5809
  860MOL0     H18675  10.721   9.510   4.442 -5.7195 -2.3934  0.4746
  860MOL0     H18676  10.453   9.289   4.212  1.9106 -0.8838 -0.6744
  860MOL0     H18677  11.187   9.880   4.544  0.4432 -0.2473 -0.4629
  860MOL0     H18678  11.151  10.165   4.714  0.3688 -1.4652  0.6487
  860MOL0     H18679  11.291  10.075   4.665  3.2346  2.7394  1.4766
  860MOL0     H18680  11.270  10.243   4.616 -0.9928 -0.1582 -1.1939
  861MOL0     O18681   7.429   4.391   4.701  0.2213 -0.0408  0.1560
  861MOL0     C18682   7.468   4.421   4.587  0.4415  0.2902  0.5236
  861MOL0     O18683   7.480   4.336   4.476 -0.2503 -0.3703  0.0552
  861MOL0     C18684   7.453   4.207   4.488  0.2828  0.5929  0.2578
  861MOL0     C18685   7.337   4.171   4.417 -0.4206 -0.4161  0.3858
  861MOL0     C18686   7.300   4.035   4.404 -0.0291  0.8079 -0.5596
  861MOL0     C18687   7.392   3.945   4.457  0.1937  0.6750 -0.5942
  861MOL0     O18688   7.367   3.809   4.475 -0.0091 -0.3356 -0.7115
  861MOL0     C18689   7.233   3.766   4.473 -0.0292  0.1314  0.0347
  861MOL0     C18690   7.230   3.617   4.523  0.4725 -0.1216 -0.8843
  861MOL0     C18691   7.238   3.607   4.679 -0.7521 -0.4955  0.6670
  861MOL0     C18692   7.286   3.476   4.744 -0.6132 -0.1317  0.0768
  861MOL0     C18693   7.421   3.417   4.714  1.3197 -0.3057 -0.0704
  861MOL0     C18694   7.538   3.478   4.802  0.5426  0.4027  0.2670
  861MOL0     C18695   7.620   3.577   4.719  1.0197 -0.7415 -0.2159
  861MOL0     C18696   7.741   3.639   4.791  0.7158  0.5694 -0.6669
  861MOL0     N18697   7.793   3.742   4.709 -0.0662 -0.4536  0.8223
  861MOL0     C18698   7.848   3.849   4.763 -0.1622  0.4352 -0.0977
  861MOL0     C18699   7.912   3.914   4.663 -0.5252 -0.3855 -0.2719
  861MOL0     C18700   7.980   4.045   4.680 -0.3805 -0.8916 -1.1738
  861MOL0     C18701   8.118   4.052   4.603  0.4235 -0.2514 -0.3619
  861MOL0     C18702   8.214   4.166   4.648  0.6762 -0.2805 -0.2273
  861MOL0     C18703   8.151   4.303   4.673  0.7595 -1.1695  0.7015
  861MOL0     O18704   8.053   4.350   4.576  0.4577  0.5208 -0.0935
  861MOL0     C18705   8.025   4.486   4.574  1.2437 -0.1317 -0.1627
  861MOL0     C18706   8.094   4.579   4.504  0.6612  0.3591  0.4304
  861MOL0     C18707   8.083   4.718   4.521 -0.3113 -0.2768 -0.8118
  861MOL0     C18708   8.144   4.811   4.412  0.6121  0.2423 -0.9123
  861MOL0     C18709   8.009   4.764   4.634  0.5862 -0.1354  0.0004
  861MOL0     C18710   7.977   4.906   4.670 -0.1264 -0.6336  0.0845
  861MOL0     O18711   7.876   4.921   4.769 -0.3953 -0.3830 -0.5303
  861MOL0     C18712   7.837   5.042   4.813 -0.6624 -0.2441  0.5488
  861MOL0     C18713   7.827   5.152   4.721 -0.1147  1.2277 -0.2939
  861MOL0     C18714   7.769   5.268   4.767 -0.4810  0.6067  0.0233
  861MOL0     C18715   7.716   5.285   4.895 -0.4107 -1.2424  0.0806
  861MOL0     O18716   7.648   5.398   4.934 -0.3133 -0.2086  0.2590
  861MOL0     C18717   7.523   5.371   5.006  0.1840 -0.5980 -0.0615
  861MOL0     C18718   7.416   5.329   4.899 -0.6345 -0.6253  0.3606
  861MOL0     C18719   7.290   5.277   4.971 -1.7082  0.2069  1.3960
  861MOL0     C18720   7.212   5.384   5.030 -0.4856  0.0951 -0.8989
  861MOL0     C18721   7.067   5.339   5.064  0.3730 -0.5165 -0.4963
  861MOL0     C18722   6.979   5.462   5.082 -0.7405 -0.7984 -0.1322
  861MOL0     C18723   6.842   5.432   5.136  0.9778 -0.1443  0.4042
  861MOL0     C18724   6.759   5.554   5.169 -0.3526  0.7978 -0.7044
  861MOL0    Cl18725   6.612   5.497   5.254 -0.1223 -0.9646 -0.0185
  861MOL0     C18726   7.740   5.182   4.988 -0.4783  0.6484 -0.0605
  861MOL0     C18727   7.800   5.057   4.943 -0.8807 -0.5546 -0.4989
  861MOL0     O18728   8.038   4.997   4.617  0.9273  0.4758  0.1331
  861MOL0     C18729   7.938   4.671   4.706 -0.3599 -0.2812  0.1941
  861MOL0     C18730   7.943   4.536   4.676 -0.5531  0.0204  0.4522
  861MOL0     N18731   7.874   3.859   4.543 -0.1401  0.1838 -0.2770
  861MOL0     N18732   7.795   3.760   4.571 -0.7989  0.3454 -0.0803
  861MOL0     C18733   7.514   3.983   4.511  0.7480  0.1070 -1.0913
  861MOL0     C18734   7.542   4.109   4.536 -0.0433 -0.5045  0.2873
  861MOL0     C18735   7.516   4.563   4.569 -0.2489  0.6165 -0.0138
  861MOL0     C18736   7.518   4.614   4.442  0.1824 -0.3112  0.7778
  861MOL0     C18737   7.559   4.741   4.414  0.0773 -0.5431  0.5317
  861MOL0     C18738   7.606   4.826   4.517  0.3465  0.1626  0.1837
  861MOL0     O18739   7.656   4.954   4.496 -0.0921  0.9612 -0.3431
  861MOL0     C18740   7.563   5.062   4.527 -0.7644 -0.0020  0.3582
  861MOL0     C18741   7.469   5.075   4.407 -0.2224 -0.1913  0.6637
  861MOL0     C18742   7.455   5.225   4.381  0.5032 -0.0697 -0.4377
  861MOL0     C18743   7.311   5.267   4.335 -1.0124 -0.2935  0.5541
  861MOL0     C18744   7.222   5.273   4.455 -1.0857 -0.9313  1.1510
  861MOL0     C18745   7.159   5.277   4.553 -0.6702  0.6640  0.5570
  861MOL0     C18746   7.603   4.771   4.646 -0.2242 -0.4267 -0.0493
  861MOL0     C18747   7.556   4.643   4.673 -0.1024  0.5949 -0.2372
  861MOL0     C18748   7.583   4.607   4.818 -1.1331  0.1866 -0.9019
  861MOL0     H18749   7.277   4.242   4.360  0.3704 -1.3508 -1.7129
  861MOL0     H18750   7.203   4.010   4.364  0.4372  0.6335 -1.6307
  861MOL0     H18751   7.186   3.772   4.375 -1.1109  1.1393  0.5904
  861MOL0     H18752   7.164   3.832   4.525  1.2850  3.4650 -2.1250
  861MOL0     H18753   7.129   3.587   4.493  0.0330 -0.5147  0.8922
  861MOL0     H18754   7.308   3.565   4.465  1.1743  3.5084 -3.5506
  861MOL0     H18755   7.294   3.693   4.717  0.8221 -1.3659  0.4076
  861MOL0     H18756   7.132   3.613   4.705 -1.5255 -1.3542 -2.0185
  861MOL0     H18757   7.285   3.492   4.852  2.3128 -1.1015  0.3387
  861MOL0     H18758   7.219   3.394   4.717  0.5435 -0.2335 -2.8580
  861MOL0     H18759   7.445   3.410   4.608 -0.3008 -1.4239 -0.3985
  861MOL0     H18760   7.413   3.310   4.739  1.1687 -0.1188  0.6939
  861MOL0     H18761   7.505   3.513   4.900  3.6339 -2.4445  2.5419
  861MOL0     H18762   7.613   3.401   4.823  1.4811  1.9657  3.2869
  861MOL0     H18763   7.546   3.650   4.684 -2.2606 -4.6060 -2.1877
  861MOL0     H18764   7.651   3.533   4.624  1.2059 -1.2346  0.0709
  861MOL0     H18765   7.735   3.661   4.898  0.0388 -0.7740 -0.4080
  861MOL0     H18766   7.821   3.564   4.786  0.3124  0.2361 -2.6963
  861MOL0     H18767   7.859   3.873   4.869 -1.6126  0.5440  0.0403
  861MOL0     H18768   8.002   4.066   4.785  1.1759 -1.4781 -1.3555
  861MOL0     H18769   7.918   4.129   4.650  0.4835  0.4371  0.6167
  861MOL0     H18770   8.176   3.960   4.612 -2.3573 -2.1525 -0.6764
  861MOL0     H18771   8.092   4.065   4.498 -0.8847 -1.6668 -0.2523
  861MOL0     H18772   8.264   4.149   4.744 -1.1970 -0.1662  0.8166
  861MOL0     H18773   8.303   4.182   4.587  2.3292  0.9000  2.3064
  861MOL0     H18774   8.097   4.291   4.768 -1.6823  1.0355 -0.2802
  861MOL0     H18775   8.226   4.381   4.693 -0.3595  0.2026 -0.2490
  861MOL0     H18776   8.152   4.537   4.423 -0.2869 -0.4395  0.1462
  861MOL0     H18777   8.210   4.887   4.456 -1.3065  0.9037  0.9976
  861MOL0     H18778   8.059   4.853   4.357 -0.5750  0.2341  0.8495
  861MOL0     H18779   8.206   4.753   4.342 -1.9686 -0.8903 -2.3957
  861MOL0     H18780   7.838   5.132   4.615 -3.9677 -1.3716 -0.4314
  861MOL0     H18781   7.747   5.344   4.692  1.7252  0.1880 -1.1140
  861MOL0     H18782   7.526   5.287   5.076 -0.2693 -1.0732 -0.6046
  861MOL0     H18783   7.480   5.462   5.048  0.4148  0.5429 -2.1618
  861MOL0     H18784   7.396   5.403   4.821  2.7327 -2.2319 -2.3031
  861MOL0     H18785   7.456   5.266   4.819  0.2344 -0.0537  0.3197
  861MOL0     H18786   7.327   5.202   5.042  0.9583  0.3461  0.2480
  861MOL0     H18787   7.233   5.220   4.897 -2.5643 -0.2589  2.3838
  861MOL0     H18788   7.213   5.471   4.963 -2.3980  0.5371 -0.4137
  861MOL0     H18789   7.257   5.401   5.129 -2.1080  0.4144 -0.1902
  861MOL0     H18790   7.014   5.284   4.986 -0.5764 -0.3422  0.0126
  861MOL0     H18791   7.083   5.282   5.157  0.9283  1.1741  0.4903
  861MOL0     H18792   6.970   5.517   4.988 -0.7750 -2.4869 -1.1632
  861MOL0     H18793   7.019   5.527   5.161 -0.7617  0.3513 -1.0449
  861MOL0     H18794   6.854   5.374   5.228  1.5063  1.4790  1.3920
  861MOL0     H18795   6.790   5.396   5.047 -0.7454  1.2665  0.7789
  861MOL0     H18796   6.727   5.596   5.074 -0.3950  1.5285 -0.3745
  861MOL0     H18797   6.814   5.627   5.229  1.5311 -0.4697 -0.8052
  861MOL0     H18798   7.738   5.200   5.095  1.5522 -0.7718  0.2625
  861MOL0     H18799   7.802   4.967   5.004 -2.9399 -0.6812 -0.5166
  861MOL0     H18800   7.865   4.685   4.785  0.7828 -0.3634  1.2880
  861MOL0     H18801   7.869   4.481   4.733 -0.4601 -1.9552 -1.2115
  861MOL0     H18802   7.589   3.905   4.522 -1.1874 -1.9159 -1.4994
  861MOL0     H18803   7.631   4.145   4.586  2.4155 -2.3540 -2.4935
  861MOL0     H18804   7.481   4.549   4.362 -3.1706  0.6817  1.3612
  861MOL0     H18805   7.567   4.777   4.312  0.1626 -0.0720  0.7012
  861MOL0     H18806   7.512   5.054   4.624 -0.5494  0.1725  0.4861
  861MOL0     H18807   7.620   5.154   4.537 -2.2674  1.2059 -1.5938
  861MOL0     H18808   7.375   5.028   4.436 -0.6786 -1.1972 -2.1378
  861MOL0     H18809   7.506   5.028   4.316 -0.6141  3.5017 -1.6329
  861MOL0     H18810   7.472   5.274   4.478 -1.3251  0.2239 -0.2243
  861MOL0     H18811   7.541   5.249   4.318  3.3526 -3.0024  2.0111
  861MOL0     H18812   7.285   5.189   4.262  3.3341  1.2915 -3.1728
  861MOL0     H18813   7.320   5.364   4.286  1.5774  0.5453  2.4720
  861MOL0     H18814   7.083   5.259   4.626 -0.9473 -0.5289  0.0028
  861MOL0     H18815   7.646   4.829   4.726  6.0495 -1.3972 -2.2093
  861MOL0     H18816   7.688   4.582   4.839 -0.8448  1.6320 -0.5370
  861MOL0     H18817   7.574   4.692   4.885  0.5640  0.2874 -0.7387
  861MOL0     H18818   7.524   4.525   4.860 -0.3986 -0.6655 -1.4961
  862MOL0     O18819  11.183   0.724   9.291  0.1800 -0.1486 -0.7104
  862MOL0     C18820  11.245   0.743   9.188  0.0708  0.0526 -1.0026
  862MOL0     O18821  11.379   0.720   9.173 -0.3239 -0.2542  0.4204
  862MOL0     C18822  11.459   0.696   9.281 -0.8325 -0.9430  0.8858
  862MOL0     C18823  11.538   0.804   9.320  0.6439  0.9651 -0.5550
  862MOL0     C18824  11.611   0.789   9.440 -0.5694  0.3803  0.5115
  862MOL0     C18825  11.623   0.666   9.507  0.0224  0.0042 -0.5701
  862MOL0     O18826  11.706   0.668   9.619  0.1766 -0.3989 -0.3595
  862MOL0     C18827  11.707   0.547   9.687 -1.0583  0.3102  0.4080
  862MOL0     C18828  11.796   0.539   9.817 -0.5878  0.1430  0.2369
  862MOL0     C18829  11.744   0.621   9.938  0.9176 -0.1143  0.3220
  862MOL0     C18830  11.817   0.569  10.070 -0.6920  1.1413 -0.1042
  862MOL0     C18831  11.802   0.415  10.105  0.4289  0.4653  0.0194
  862MOL0     C18832  11.663   0.359  10.094 -0.4345  0.5528  0.5624
  862MOL0     C18833  11.661   0.212  10.115  0.4466  0.3183 -0.2816
  862MOL0     C18834  11.578   0.142  10.011 -0.1371 -0.4463  0.9041
  862MOL0     N18835  11.606   0.005  10.024 -0.2801 -0.0405  0.2231
  862MOL0     C18836  11.561  -0.072  10.127  0.0684  0.1593 -0.1186
  862MOL0     C18837  11.614  -0.194  10.100  0.3017 -0.4857 -0.3256
  862MOL0     C18838  11.583  -0.323  10.165 -0.3712  0.7947 -0.0091
  862MOL0     C18839  11.448  -0.391  10.122 -0.1768 -0.7172 -0.2724
  862MOL0     C18840  11.438  -0.422   9.976 -0.1197  0.0158 -0.9182
  862MOL0     C18841  11.293  -0.448   9.947  0.3399  0.6981 -0.4518
  862MOL0     O18842  11.272  -0.476   9.809 -0.4375 -0.3618  0.5901
  862MOL0     C18843  11.140  -0.485   9.781 -0.0873  0.2091  0.4361
  862MOL0     C18844  11.069  -0.385   9.719 -0.1254 -0.4595 -0.2573
  862MOL0     C18845  10.936  -0.394   9.700  0.0999 -0.3036 -0.5586
  862MOL0     C18846  10.865  -0.286   9.622  0.2772 -0.0903  0.4260
  862MOL0     C18847  10.863  -0.512   9.750 -1.4572 -0.6317  0.3488
  862MOL0     C18848  10.718  -0.540   9.730  0.7285 -0.7024  0.1774
  862MOL0     O18849  10.670  -0.668   9.764 -1.3597 -0.0602  0.2327
  862MOL0     C18850  10.540  -0.701   9.767  0.0823 -0.7418 -0.4561
  862MOL0     C18851  10.490  -0.777   9.658  0.9479 -0.4923 -1.1185
  862MOL0     C18852  10.355  -0.822   9.668  0.0952  1.2741  0.1405
  862MOL0     C18853  10.267  -0.788   9.772  0.4038 -0.9837  0.1569
  862MOL0     O18854  10.151  -0.855   9.767  0.5341 -0.3704 -0.1150
  862MOL0     C18855  10.063  -0.852   9.879 -0.9592 -0.4674  0.5286
  862MOL0     C18856   9.983  -0.985   9.867  0.4857 -0.4393 -0.0967
  862MOL0     C18857  10.059  -1.100   9.931 -0.6515 -0.9375  0.0469
  862MOL0     C18858  10.009  -1.230   9.878 -0.6846 -0.5304 -0.9606
  862MOL0     C18859  10.110  -1.346   9.895  0.4171  0.6459  0.3996
  862MOL0     C18860  10.122  -1.382  10.045 -1.0421 -0.7150  0.2317
  862MOL0     C18861  10.233  -1.486  10.072 -0.1343  0.4524 -0.3478
  862MOL0     C18862  10.238  -1.529  10.226  0.0176  0.1444  0.1327
  862MOL0    Cl18863  10.398  -1.585  10.261  0.5700 -0.2020  0.6324
  862MOL0     C18864  10.320  -0.698   9.868  0.0007  0.3099  0.2186
  862MOL0     C18865  10.457  -0.662   9.874  0.0620 -0.2431 -0.4641
  862MOL0     O18866  10.648  -0.453   9.681  0.5567 -0.9130 -0.4789
  862MOL0     C18867  10.941  -0.621   9.798  0.1476  0.4853 -0.2091
  862MOL0     C18868  11.078  -0.607   9.814 -0.6105  0.0681 -0.3101
  862MOL0     N18869  11.694  -0.188   9.989 -1.1517  0.2801 -0.4632
  862MOL0     N18870  11.684  -0.065   9.941 -0.6751 -0.2999  0.0973
  862MOL0     C18871  11.543   0.561   9.462  0.1283 -0.6045 -0.9164
  862MOL0     C18872  11.463   0.575   9.350  0.7959  0.0789 -0.5405
  862MOL0     C18873  11.170   0.796   9.071 -0.6846  0.0805 -0.4158
  862MOL0     C18874  11.036   0.758   9.051 -0.2066 -0.2231 -0.4237
  862MOL0     C18875  10.982   0.776   8.925  0.1391 -0.4964 -0.1544
  862MOL0     C18876  11.043   0.863   8.832  0.2463 -0.9883 -0.4367
  862MOL0     O18877  10.987   0.892   8.714  0.2172 -0.0965 -0.3301
  862MOL0     C18878  10.893   1.001   8.745  0.3287 -0.6325 -0.0983
  862MOL0     C18879  10.857   1.066   8.616 -0.4176 -0.2228 -0.2730
  862MOL0     C18880  10.741   1.164   8.637  0.2807  0.5298 -0.0961
  862MOL0     C18881  10.695   1.256   8.514 -0.2577  0.6189  0.7671
  862MOL0     C18882  10.668   1.166   8.407 -0.0071 -0.4163 -0.0646
  862MOL0     C18883  10.642   1.094   8.314 -0.9544  0.7797  0.3481
  862MOL0     C18884  11.166   0.907   8.869  0.4690  0.6576 -0.1777
  862MOL0     C18885  11.235   0.885   8.988 -0.1459 -0.2278 -0.3318
  862MOL0     C18886  11.379   0.939   8.995 -0.0102 -0.3877 -0.3348
  862MOL0     H18887  11.529   0.890   9.254 -0.3341  1.3040  0.0024
  862MOL0     H18888  11.658   0.883   9.470 -1.9745  0.8045  1.4841
  862MOL0     H18889  11.752   0.474   9.618 -1.2868 -0.0980  0.6849
  862MOL0     H18890  11.609   0.509   9.718 -1.1590 -0.6765 -1.0090
  862MOL0     H18891  11.810   0.433   9.840 -2.1919  0.1313  1.3795
  862MOL0     H18892  11.892   0.582   9.790 -0.7800 -1.4042 -3.6244
  862MOL0     H18893  11.766   0.728   9.943 -1.1452  0.4396 -0.9268
  862MOL0     H18894  11.638   0.601   9.954  0.0786  2.1912 -1.7223
  862MOL0     H18895  11.923   0.597  10.076  0.5362 -3.1344  2.4137
  862MOL0     H18896  11.769   0.626  10.150  1.4146  2.1604  0.5096
  862MOL0     H18897  11.836   0.400  10.208 -0.9227 -1.0433  0.2741
  862MOL0     H18898  11.861   0.355  10.035 -1.0258 -0.9855 -0.0145
  862MOL0     H18899  11.589   0.405  10.160 -0.2136  6.3012 -2.5053
  862MOL0     H18900  11.612   0.379   9.999  0.1759 -0.2030  0.0663
  862MOL0     H18901  11.642   0.189  10.221  2.2193  2.1321  0.4970
  862MOL0     H18902  11.766   0.180  10.107  0.7820  0.9162  1.3303
  862MOL0     H18903  11.472   0.160  10.028 -0.4665 -0.1979 -1.1859
  862MOL0     H18904  11.602   0.169   9.908 -0.5328 -1.5988  0.4961
  862MOL0     H18905  11.492  -0.046  10.206  1.8042 -1.3115  1.9966
  862MOL0     H18906  11.565  -0.317  10.272  1.8248  0.8841  0.4060
  862MOL0     H18907  11.668  -0.389  10.145 -1.9625 -2.1191  1.9398
  862MOL0     H18908  11.427  -0.476  10.187  2.1008  2.9870  6.2387
  862MOL0     H18909  11.372  -0.315  10.143  1.7077  2.0696 -2.5714
  862MOL0     H18910  11.481  -0.351   9.906  1.6271 -2.4689 -2.5197
  862MOL0     H18911  11.491  -0.516   9.960  0.6295 -0.6437  3.9224
  862MOL0     H18912  11.256  -0.530  10.009  0.7959 -0.2868 -1.4426
  862MOL0     H18913  11.240  -0.355   9.970  0.3727  1.2855 -2.5350
  862MOL0     H18914  11.112  -0.289   9.692 -0.8014 -0.5159 -1.6528
  862MOL0     H18915  10.924  -0.196   9.600  1.0517 -0.3150  1.4928
  862MOL0     H18916  10.786  -0.243   9.685 -0.7677  2.8215 -2.5861
  862MOL0     H18917  10.822  -0.299   9.522  1.5884  3.2982 -0.7420
  862MOL0     H18918  10.553  -0.796   9.571  0.0320  0.3823 -1.9992
  862MOL0     H18919  10.318  -0.875   9.582  2.5895 -1.7574  0.7282
  862MOL0     H18920  10.104  -0.841   9.980 -2.3577 -0.2704  1.1046
  862MOL0     H18921  10.011  -0.758   9.858  1.3911  0.4388 -1.7789
  862MOL0     H18922   9.886  -0.968   9.915  0.9372 -2.3850  1.6455
  862MOL0     H18923   9.962  -1.016   9.764 -1.1303  1.4080 -0.3787
  862MOL0     H18924  10.069  -1.092  10.040  0.6409  2.1460 -0.1932
  862MOL0     H18925  10.164  -1.091   9.903 -1.4949  0.2773 -3.1874
  862MOL0     H18926   9.988  -1.220   9.771  1.8891  0.9769 -1.4018
  862MOL0     H18927   9.918  -1.247   9.936 -0.1397  0.4316  0.2268
  862MOL0     H18928  10.052  -1.424   9.844  3.1256 -0.4019 -1.3146
  862MOL0     H18929  10.208  -1.333   9.850 -0.6757  3.4384 -1.3955
  862MOL0     H18930  10.029  -1.423  10.085 -0.7188 -2.5448 -0.7800
  862MOL0     H18931  10.155  -1.288  10.090 -1.4080 -0.7739  0.6336
  862MOL0     H18932  10.326  -1.454  10.025  0.4743 -0.6542  0.0654
  862MOL0     H18933  10.203  -1.573  10.013  1.9472 -0.7254  0.2332
  862MOL0     H18934  10.156  -1.600  10.241 -0.0688 -0.9011 -4.0750
  862MOL0     H18935  10.222  -1.443  10.292 -1.8805  0.6951 -0.9678
  862MOL0     H18936  10.251  -0.653   9.938  0.9162  0.5018  1.0196
  862MOL0     H18937  10.501  -0.588   9.940  0.8871 -1.4153  0.3370
  862MOL0     H18938  10.887  -0.712   9.822 -1.4082  1.7880  1.6126
  862MOL0     H18939  11.136  -0.694   9.842 -0.3590  0.1971 -0.4202
  862MOL0     H18940  11.516   0.476   9.523 -1.2000  1.9566  2.4225
  862MOL0     H18941  11.414   0.487   9.308  4.3881 -3.8703  2.5494
  862MOL0     H18942  10.984   0.692   9.120 -1.0731 -1.7353 -2.4133
  862MOL0     H18943  10.882   0.748   8.893 -1.0541  0.4454  2.4591
  862MOL0     H18944  10.795   0.980   8.789 -1.5767  6.9703  0.7157
  862MOL0     H18945  10.930   1.077   8.815  1.1854 -1.7549  0.7008
  862MOL0     H18946  10.817   0.986   8.553  0.3771 -0.8243 -0.0190
  862MOL0     H18947  10.941   1.115   8.565 -2.0636  0.7726 -2.2107
  862MOL0     H18948  10.653   1.106   8.668 -0.5261  2.2064  0.8907
  862MOL0     H18949  10.767   1.234   8.717  2.9075  0.1337 -0.4938
  862MOL0     H18950  10.782   1.314   8.481 -1.1479  1.6921  0.2250
  862MOL0     H18951  10.609   1.317   8.542 -0.1060  0.3763  1.7880
  862MOL0     H18952  10.629   1.007   8.253  3.0508  0.1604  0.0902
  862MOL0     H18953  11.219   0.962   8.792 -2.8581  3.1408 -0.9405
  862MOL0     H18954  11.401   1.012   8.917  1.6628 -1.3125 -0.7987
  862MOL0     H18955  11.404   0.995   9.086  6.4402 -0.9574 -1.2443
  862MOL0     H18956  11.448   0.855   8.979  0.9620  0.6991 -2.0843
  863MOL0     O18957   2.935   1.469  10.640  0.6335  0.4308  0.6339
  863MOL0     C18958   2.977   1.534  10.733  0.6412 -0.2664  0.0490
  863MOL0     O18959   2.999   1.491  10.858 -0.5749  0.3073 -0.9538
  863MOL0     C18960   2.975   1.356  10.876  0.0374  0.9791 -0.6875
  863MOL0     C18961   2.858   1.311  10.947 -0.5658  0.7817 -0.2419
  863MOL0     C18962   2.826   1.177  10.953  0.9102 -0.3887 -0.0820
  863MOL0     C18963   2.909   1.081  10.890 -0.8459 -0.9789  0.5304
  863MOL0     O18964   2.900   0.950  10.899  0.1378 -0.1728  0.2008
  863MOL0     C18965   2.876   0.913  11.039 -0.1841 -0.7246  0.5764
  863MOL0     C18966   2.915   0.769  11.047  0.0840  0.9483 -0.4276
  863MOL0     C18967   2.980   0.728  11.181  0.1453  0.5209  0.6222
  863MOL0     C18968   3.003   0.583  11.173  0.0419  0.0706 -0.3190
  863MOL0     C18969   3.102   0.527  11.067 -0.1799  0.2382 -0.2916
  863MOL0     C18970   3.136   0.379  11.113 -0.3901  0.3865  0.8544
  863MOL0     C18971   3.214   0.288  11.012  0.0442  0.3694 -0.2694
  863MOL0     C18972   3.223   0.148  11.075 -0.2048  0.4955  0.1385
  863MOL0     N18973   3.309   0.057  11.001 -0.3806  0.0622 -0.3412
  863MOL0     C18974   3.283  -0.068  10.966 -0.4039  0.6432  0.5808
  863MOL0     C18975   3.398  -0.130  10.927 -0.0251  0.4056  0.3245
  863MOL0     C18976   3.413  -0.272  10.870  0.6847  0.4271  0.1041
  863MOL0     C18977   3.550  -0.332  10.885  0.2824  0.2495  0.2474
  863MOL0     C18978   3.563  -0.458  10.795  0.4884  1.0158 -0.1845
  863MOL0     C18979   3.705  -0.521  10.818 -0.4128 -0.4417 -0.0554
  863MOL0     O18980   3.707  -0.645  10.752  0.2919  0.6059 -0.6999
  863MOL0     C18981   3.823  -0.699  10.717  0.1182 -0.6943 -0.4033
  863MOL0     C18982   3.948  -0.683  10.782  0.5377 -0.1672  1.2265
  863MOL0     C18983   4.056  -0.756  10.724  0.5352 -0.4107 -0.1178
  863MOL0     C18984   4.194  -0.759  10.795 -0.1587 -0.4354 -0.6332
  863MOL0     C18985   4.042  -0.835  10.604  0.5437  0.3667  0.2972
  863MOL0     C18986   4.147  -0.930  10.556 -0.4253  0.2668 -0.1467
  863MOL0     O18987   4.160  -0.936  10.425  1.0624 -0.1188  0.8545
  863MOL0     C18988   4.259  -1.017  10.380 -0.0038 -0.1270  0.0293
  863MOL0     C18989   4.370  -0.958  10.314  0.2981  0.9533  1.2075
  863MOL0     C18990   4.453  -1.044  10.241 -0.8333 -0.3105 -0.4505
  863MOL0     C18991   4.435  -1.184  10.243  0.6213 -0.4592  0.2721
  863MOL0     O18992   4.506  -1.267  10.166  0.0444 -0.2343 -0.2843
  863MOL0     C18993   4.592  -1.223  10.060 -0.2929 -0.0218  0.4316
  863MOL0     C18994   4.710  -1.320  10.071  1.5736  0.3603  0.9465
  863MOL0     C18995   4.674  -1.462  10.013  0.8379  0.4072  0.1922
  863MOL0     C18996   4.767  -1.588  10.024  0.1516 -0.7806 -0.2058
  863MOL0     C18997   4.901  -1.562   9.950  1.0740 -0.2895  0.1846
  863MOL0     C18998   5.001  -1.493  10.041  0.8420  0.3738 -0.1343
  863MOL0     C18999   5.120  -1.447   9.958  0.5472  0.6798  0.7690
  863MOL0     C19000   5.186  -1.325  10.028  0.0899  0.2139 -0.1824
  863MOL0    Cl19001   5.320  -1.274   9.920 -0.1643  0.0336 -0.1422
  863MOL0     C19002   4.331  -1.232  10.322  0.1292 -0.2756 -1.2243
  863MOL0     C19003   4.245  -1.155  10.391  0.2336 -0.6449 -0.4629
  863MOL0     O19004   4.191  -1.009  10.633 -0.6328 -0.2021  0.2794
  863MOL0     C19005   3.916  -0.828  10.538  0.1850  1.0440 -0.1736
  863MOL0     C19006   3.813  -0.761  10.593  0.5978  0.6421 -0.4972
  863MOL0     N19007   3.495  -0.036  10.939  0.2221 -0.1565 -0.4962
  863MOL0     N19008   3.443   0.083  10.981  0.2501  0.2543 -0.4290
  863MOL0     C19009   3.029   1.124  10.829 -0.6351 -0.6323 -0.9458
  863MOL0     C19010   3.064   1.257  10.825 -0.0454 -0.1636  0.0367
  863MOL0     C19011   2.974   1.682  10.722  1.1086 -0.1366  1.0668
  863MOL0     C19012   2.981   1.760  10.840 -0.4869  0.5145 -0.5726
  863MOL0     C19013   3.002   1.898  10.832  0.4786  0.9480 -0.0049
  863MOL0     C19014   3.004   1.955  10.708  0.4975 -0.4966  0.1528
  863MOL0     O19015   3.042   2.087  10.727 -0.2353  0.3731  0.8018
  863MOL0     C19016   2.977   2.175  10.629  0.7117 -1.1312  0.3219
  863MOL0     C19017   3.006   2.330  10.652 -0.3146 -0.6302  0.5338
  863MOL0     C19018   2.955   2.365  10.787  0.3624 -1.7706  0.4819
  863MOL0     C19019   2.986   2.513  10.823  0.3299 -0.0132 -0.8402
  863MOL0     C19020   2.917   2.594  10.722 -0.2071  0.3735 -0.9375
  863MOL0     C19021   2.843   2.665  10.658 -0.3009 -0.7066  0.3414
  863MOL0     C19022   2.997   1.886  10.589  0.1273  0.1558  0.8284
  863MOL0     C19023   2.987   1.748  10.593  0.1249  1.1019  0.0410
  863MOL0     C19024   2.989   1.666  10.462 -0.1223 -0.6126  0.8295
  863MOL0     H19025   2.792   1.381  10.996  1.8787  0.4130  4.1529
  863MOL0     H19026   2.737   1.149  11.009  1.1145  2.2400  1.7278
  863MOL0     H19027   2.776   0.934  11.077 -0.3685  1.9714 -1.1164
  863MOL0     H19028   2.947   0.980  11.089 -1.2843  2.1009 -1.4283
  863MOL0     H19029   2.822   0.717  11.022  0.5788 -0.1982  0.0672
  863MOL0     H19030   2.991   0.754  10.970  0.7509 -0.3627  0.4585
  863MOL0     H19031   3.074   0.783  11.173  0.7263 -0.5407 -0.1316
  863MOL0     H19032   2.928   0.740  11.277  1.6639 -2.5172  1.9517
  863MOL0     H19033   3.029   0.543  11.272  1.9223  4.5261  1.2267
  863MOL0     H19034   2.911   0.526  11.152  1.8059 -2.5000 -1.6681
  863MOL0     H19035   3.194   0.587  11.066 -1.2372  2.1428  2.9489
  863MOL0     H19036   3.055   0.539  10.969  1.1217  0.9240 -0.8604
  863MOL0     H19037   3.193   0.380  11.206  0.1695  2.4095  0.5366
  863MOL0     H19038   3.043   0.331  11.146  0.0654  1.4884  4.0466
  863MOL0     H19039   3.315   0.329  11.003  0.3871 -0.3873  0.0147
  863MOL0     H19040   3.163   0.287  10.915 -0.7655  2.7273  0.0747
  863MOL0     H19041   3.270   0.161  11.173 -0.6690  1.5886  0.2250
  863MOL0     H19042   3.128   0.101  11.103 -1.6872  2.4443 -1.3439
  863MOL0     H19043   3.183  -0.111  10.965 -1.1159  1.9515 -3.9659
  863MOL0     H19044   3.392  -0.262  10.763 -1.6612 -0.4042  0.4135
  863MOL0     H19045   3.344  -0.344  10.915  1.0145  1.0381  1.6542
  863MOL0     H19046   3.622  -0.260  10.845  3.8105 -3.0537 -0.0130
  863MOL0     H19047   3.566  -0.348  10.992 -0.5941  1.9857  0.6560
  863MOL0     H19048   3.488  -0.536  10.815  1.9013 -0.9771 -2.1388
  863MOL0     H19049   3.556  -0.428  10.690  1.0721 -3.2037 -1.6079
  863MOL0     H19050   3.783  -0.450  10.790 -1.0631  0.3810  0.1776
  863MOL0     H19051   3.732  -0.538  10.922 -0.4357 -1.3725 -0.1945
  863MOL0     H19052   3.953  -0.635  10.879  1.6526 -2.0199  2.1427
  863MOL0     H19053   4.191  -0.691  10.881  3.6848  0.0882 -0.7695
  863MOL0     H19054   4.260  -0.736  10.711  0.2335  0.1155 -0.1833
  863MOL0     H19055   4.222  -0.860  10.827  0.3973 -0.7665 -2.0896
  863MOL0     H19056   4.393  -0.851  10.313  1.9964  0.6328  1.6726
  863MOL0     H19057   4.543  -0.998  10.202 -1.5823  3.0967  1.4169
  863MOL0     H19058   4.540  -1.231   9.964 -1.7856 -1.6881  1.3232
  863MOL0     H19059   4.640  -1.124  10.067  0.6429 -0.4990  1.0114
  863MOL0     H19060   4.785  -1.267  10.012 -0.0750  0.2872 -1.3764
  863MOL0     H19061   4.741  -1.336  10.175  0.6384  1.6932  1.4532
  863MOL0     H19062   4.658  -1.454   9.906  1.9043 -0.0700 -0.0138
  863MOL0     H19063   4.585  -1.495  10.068  0.9617 -0.3371 -0.0323
  863MOL0     H19064   4.718  -1.679   9.989 -3.0656  1.1276 -1.0754
  863MOL0     H19065   4.788  -1.602  10.130 -0.0818  2.7135  0.4254
  863MOL0     H19066   4.939  -1.662   9.924  0.8309  0.0088 -1.3957
  863MOL0     H19067   4.881  -1.506   9.859 -0.6605 -0.2008  0.5895
  863MOL0     H19068   5.034  -1.550  10.128  1.2118 -2.3790 -1.9658
  863MOL0     H19069   4.948  -1.411  10.091 -0.8691 -0.9410  0.3085
  863MOL0     H19070   5.091  -1.426   9.855 -0.8214  1.7195  1.3224
  863MOL0     H19071   5.183  -1.534   9.943  0.8729  1.2290 -1.3094
  863MOL0     H19072   5.225  -1.357  10.126  1.7445  0.2681 -0.7913
  863MOL0     H19073   5.113  -1.246  10.045 -0.2256  0.1181 -1.0829
  863MOL0     H19074   4.311  -1.338  10.333 -2.1489  0.1090 -1.2266
  863MOL0     H19075   4.171  -1.187  10.464  0.6468  0.8392  0.6505
  863MOL0     H19076   3.910  -0.893  10.451  0.0287 -1.5304  1.6509
  863MOL0     H19077   3.712  -0.764  10.552  0.3178  2.0387  0.0506
  863MOL0     H19078   3.098   1.043  10.807  1.2313  0.1007  1.7548
  863MOL0     H19079   3.159   1.283  10.780  2.0538 -4.6339  1.3539
  863MOL0     H19080   2.990   1.725  10.943 -2.3787  1.1429 -0.1582
  863MOL0     H19081   3.021   1.971  10.910 -2.4920  1.7192  0.1253
  863MOL0     H19082   3.005   2.158  10.524  1.7462  0.0449  0.3883
  863MOL0     H19083   2.868   2.164  10.632  0.4914 -0.7772 -2.7711
  863MOL0     H19084   2.960   2.390  10.573 -2.0815 -0.1327  1.8962
  863MOL0     H19085   3.114   2.349  10.652 -0.6853  1.7838  0.1848
  863MOL0     H19086   2.848   2.344  10.791 -0.0182 -0.6128 -1.8765
  863MOL0     H19087   2.999   2.303  10.866 -1.1771 -1.3385  1.7209
  863MOL0     H19088   3.094   2.532  10.812  0.0903  0.4854 -2.7860
  863MOL0     H19089   2.961   2.552  10.922  1.3814  0.8952 -0.9095
  863MOL0     H19090   2.772   2.738  10.623  1.1396  0.6246  0.0975
  863MOL0     H19091   3.001   1.932  10.491  0.0678 -1.5004  0.0047
  863MOL0     H19092   2.894   1.613  10.458 -0.8703  0.6706  0.9570
  863MOL0     H19093   3.012   1.726  10.374 -0.8883 -0.4587  0.7336
  863MOL0     H19094   3.064   1.587  10.475 -0.4453 -1.0643 -0.0457
  864MOL0     O19095   2.404  10.769   4.838 -0.1976 -0.3076 -0.8842
  864MOL0     C19096   2.406  10.707   4.732 -0.6632 -0.1554 -0.5178
  864MOL0     O19097   2.514  10.699   4.645 -0.2349 -0.3512  0.2526
  864MOL0     C19098   2.610  10.796   4.657 -0.2075 -0.2152  0.6439
  864MOL0     C19099   2.740  10.757   4.641 -0.8584 -0.4460  0.1797
  864MOL0     C19100   2.844  10.854   4.651  0.1598  0.6268 -0.7927
  864MOL0     C19101   2.812  10.990   4.674 -0.0731 -0.6491 -0.3733
  864MOL0     O19102   2.902  11.094   4.657 -0.0950  0.1666 -0.3253
  864MOL0     C19103   3.000  11.076   4.543 -0.2907 -0.1593 -0.2994
  864MOL0     C19104   2.934  11.047   4.405  0.1227  0.3153 -0.1447
  864MOL0     C19105   3.041  11.059   4.296 -0.8503  0.3005  0.0378
  864MOL0     C19106   2.995  11.048   4.149  0.4127  0.1700  0.8262
  864MOL0     C19107   3.106  11.067   4.051  0.1786  0.3385 -0.4754
  864MOL0     C19108   3.051  11.079   3.907  1.3269  0.8967 -0.9916
  864MOL0     C19109   3.124  10.994   3.799 -0.3042 -0.0851  0.2560
  864MOL0     C19110   3.252  11.072   3.777 -0.7141  0.7790 -1.1578
  864MOL0     N19111   3.340  11.003   3.686 -0.9395  0.5528 -0.2235
  864MOL0     C19112   3.403  10.883   3.705 -0.2770 -0.7813 -0.0986
  864MOL0     C19113   3.484  10.868   3.598  1.2675 -0.8263  0.4356
  864MOL0     C19114   3.564  10.750   3.565 -0.4298 -0.2102  0.2827
  864MOL0     C19115   3.533  10.685   3.428  0.3829  0.2248  0.6776
  864MOL0     C19116   3.600  10.754   3.308 -0.8144 -0.3325  0.4347
  864MOL0     C19117   3.751  10.731   3.308  0.8240  0.3208  0.7775
  864MOL0     O19118   3.782  10.593   3.324 -0.5995  0.0350  0.5373
  864MOL0     C19119   3.911  10.550   3.286  0.5535 -0.4614  0.0834
  864MOL0     C19120   3.936  10.422   3.234 -0.2015 -0.2736 -0.5017
  864MOL0     C19121   4.067  10.388   3.201  0.4058  0.0576 -0.8547
  864MOL0     C19122   4.079  10.246   3.141  0.4874 -0.5964 -0.6917
  864MOL0     C19123   4.177  10.474   3.243 -1.5178  0.3291 -0.4323
  864MOL0     C19124   4.329  10.442   3.223  0.1712  0.3188  0.0970
  864MOL0     O19125   4.423  10.512   3.297  0.4711  0.5939  0.2850
  864MOL0     C19126   4.561  10.500   3.274 -0.1425 -0.7393  0.8312
  864MOL0     C19127   4.638  10.612   3.296  0.0705  0.7486  0.1117
  864MOL0     C19128   4.777  10.613   3.269  0.0579 -0.5509  0.5087
  864MOL0     C19129   4.838  10.504   3.218 -0.3512  0.2663 -0.5866
  864MOL0     O19130   4.970  10.508   3.175 -0.3721  0.1629  0.1644
  864MOL0     C19131   5.054  10.616   3.185  0.6821  0.0478 -0.0716
  864MOL0     C19132   5.188  10.597   3.105  0.0347  0.2165 -0.7080
  864MOL0     C19133   5.236  10.741   3.074  0.0372  0.0028 -0.3664
  864MOL0     C19134   5.371  10.746   2.993  0.2704  0.5901 -0.4073
  864MOL0     C19135   5.438  10.885   3.003  0.9978  0.3359  0.3902
  864MOL0     C19136   5.581  10.872   2.978 -0.7527  0.1736  0.7102
  864MOL0     C19137   5.665  10.993   3.014 -0.6688  0.3828  0.6051
  864MOL0     C19138   5.815  10.979   2.983  0.2616 -0.2875  1.2087
  864MOL0    Cl19139   5.892  10.836   3.065 -0.2138  0.4311 -0.3548
  864MOL0     C19140   4.760  10.383   3.210 -0.2845 -0.6966  0.0494
  864MOL0     C19141   4.624  10.379   3.234  0.5740 -0.6112  0.1294
  864MOL0     O19142   4.362  10.366   3.129  0.0624  0.2599 -0.1268
  864MOL0     C19143   4.145  10.598   3.288 -1.8296 -0.9334 -0.0852
  864MOL0     C19144   4.014  10.638   3.309 -0.2234  0.5621 -0.3586
  864MOL0     N19145   3.475  10.977   3.519  0.1191  0.8425  0.9006
  864MOL0     N19146   3.388  11.055   3.566 -0.2595  0.2297 -0.2894
  864MOL0     C19147   2.683  11.027   4.693  0.1569 -0.3324  0.0752
  864MOL0     C19148   2.580  10.929   4.684 -0.1397 -0.5172 -0.4229
  864MOL0     C19149   2.289  10.638   4.700  0.8888  0.3080  0.0509
  864MOL0     C19150   2.284  10.537   4.600 -0.3962  0.1061  0.6660
  864MOL0     C19151   2.167  10.474   4.562 -0.0632  0.1202 -0.0611
  864MOL0     C19152   2.043  10.519   4.604  0.0238  0.6764 -0.1537
  864MOL0     O19153   1.935  10.457   4.544  0.2200  0.1985 -0.4238
  864MOL0     C19154   1.804  10.484   4.595 -0.7501 -0.7795 -0.8613
  864MOL0     C19155   1.701  10.397   4.528 -0.2967  0.3968 -0.5174
  864MOL0     C19156   1.704  10.454   4.382 -0.6034 -0.1538 -0.6727
  864MOL0     C19157   1.590  10.388   4.306 -0.2929  0.0906 -0.4007
  864MOL0     C19158   1.560  10.466   4.185 -0.3224  0.1086 -0.3604
  864MOL0     C19159   1.542  10.528   4.086  1.0004 -0.1916  0.4753
  864MOL0     C19160   2.039  10.611   4.708 -0.4006  0.3769 -0.8337
  864MOL0     C19161   2.159  10.670   4.763 -1.2761 -0.3267  1.2179
  864MOL0     C19162   2.139  10.764   4.881 -0.3134 -0.8290  0.6998
  864MOL0     H19163   2.773  10.663   4.600 -0.8983  0.0353 -1.0050
  864MOL0     H19164   2.948  10.826   4.638  1.2143  1.6460  3.7885
  864MOL0     H19165   3.081  11.004   4.560  0.7015  0.8594 -0.5709
  864MOL0     H19166   3.053  11.172   4.550 -3.0085  1.4451 -0.5983
  864MOL0     H19167   2.887  10.949   4.419 -1.7879  1.2773  0.5708
  864MOL0     H19168   2.852  11.115   4.380 -0.5032  0.1546  1.3136
  864MOL0     H19169   3.077  11.162   4.308 -0.3212  0.1751 -0.4583
  864MOL0     H19170   3.120  10.985   4.311 -1.7513 -1.0996 -1.6818
  864MOL0     H19171   2.942  10.956   4.125  2.0079 -0.5550 -0.0567
  864MOL0     H19172   2.906  11.109   4.130  1.7986  2.2539  0.7128
  864MOL0     H19173   3.179  10.986   4.062  1.9751  1.3174 -3.7345
  864MOL0     H19174   3.161  11.159   4.072 -1.2518  0.9777  0.5460
  864MOL0     H19175   2.948  11.044   3.910  1.1227  1.3675  3.0255
  864MOL0     H19176   3.041  11.184   3.878 -2.3249  0.7906 -0.4757
  864MOL0     H19177   3.053  10.996   3.716  0.9445  2.2339 -0.8685
  864MOL0     H19178   3.129  10.889   3.830 -3.3592 -0.4808 -0.3048
  864MOL0     H19179   3.223  11.173   3.746  0.4082  0.5203 -3.2717
  864MOL0     H19180   3.305  11.082   3.872 -2.3662  2.8173 -0.3691
  864MOL0     H19181   3.400  10.819   3.793  0.5292 -0.5610  0.0946
  864MOL0     H19182   3.540  10.666   3.630 -0.3226 -0.0827  0.4890
  864MOL0     H19183   3.669  10.774   3.580 -0.0916 -1.9818  0.9677
  864MOL0     H19184   3.560  10.580   3.438 -1.3579 -0.1736  1.4554
  864MOL0     H19185   3.427  10.694   3.401  1.1647  3.8275 -2.0103
  864MOL0     H19186   3.546  10.725   3.217  0.6449 -0.6035 -0.3626
  864MOL0     H19187   3.598  10.863   3.315 -0.0797 -0.2505 -0.4472
  864MOL0     H19188   3.795  10.781   3.221 -0.7926  1.5374  0.6053
  864MOL0     H19189   3.791  10.786   3.394 -0.4007  1.8508  0.4298
  864MOL0     H19190   3.847  10.364   3.210 -0.6129  0.5937 -1.1400
  864MOL0     H19191   4.131  10.264   3.047 -0.2794 -0.9892 -1.1950
  864MOL0     H19192   3.986  10.193   3.122 -1.6736  1.3978  3.0755
  864MOL0     H19193   4.130  10.188   3.219 -0.7269 -2.7630 -1.4617
  864MOL0     H19194   4.601  10.705   3.337  2.5228  1.6649  0.4250
  864MOL0     H19195   4.833  10.691   3.319 -1.6925  2.2902 -1.6560
  864MOL0     H19196   4.994  10.699   3.148  0.1766 -0.0929  0.4240
  864MOL0     H19197   5.083  10.630   3.289 -1.9652 -1.4565  0.9918
  864MOL0     H19198   5.257  10.536   3.166  1.0276 -1.3498 -3.2176
  864MOL0     H19199   5.158  10.555   3.009 -2.6796  0.6042 -0.1058
  864MOL0     H19200   5.241  10.789   3.172 -1.9777 -1.2713  0.4142
  864MOL0     H19201   5.170  10.801   3.011  0.0101  0.1661 -0.1851
  864MOL0     H19202   5.365  10.720   2.887 -0.4250  1.5003 -0.6046
  864MOL0     H19203   5.434  10.668   3.035 -4.2083 -2.5258  1.2305
  864MOL0     H19204   5.390  10.955   2.935  2.4974  0.8124 -0.2285
  864MOL0     H19205   5.415  10.927   3.101 -3.2323  1.4128 -0.8767
  864MOL0     H19206   5.581  10.853   2.870  0.8593  0.0049  0.7166
  864MOL0     H19207   5.620  10.787   3.034  1.5295  0.0185 -0.9871
  864MOL0     H19208   5.652  11.002   3.122  2.5676  0.2601  1.0960
  864MOL0     H19209   5.631  11.081   2.958  0.1633  0.2179 -0.1916
  864MOL0     H19210   5.865  11.068   3.021 -0.1731 -0.2338  1.6486
  864MOL0     H19211   5.804  10.970   2.874 -4.7504  2.3351  1.2087
  864MOL0     H19212   4.813  10.292   3.181  0.5891  0.2336 -1.3835
  864MOL0     H19213   4.566  10.289   3.250 -0.4744 -0.1971 -1.1598
  864MOL0     H19214   4.217  10.668   3.329 -3.6380 -0.2732  2.1755
  864MOL0     H19215   4.011  10.735   3.359  3.1456  0.6978 -0.2214
  864MOL0     H19216   2.663  11.133   4.703  1.6009  0.1293 -1.5962
  864MOL0     H19217   2.476  10.959   4.699 -0.1229 -1.1225  1.0727
  864MOL0     H19218   2.374  10.490   4.561 -0.2397  1.0092 -0.1000
  864MOL0     H19219   2.165  10.390   4.493 -3.5287 -0.1551  0.1710
  864MOL0     H19220   1.803  10.454   4.700  0.4145  1.5216 -0.1338
  864MOL0     H19221   1.780  10.590   4.591 -2.4886 -1.1229 -0.7266
  864MOL0     H19222   1.606  10.418   4.579 -0.1807 -1.9856  0.8125
  864MOL0     H19223   1.726  10.292   4.542 -2.2522  0.1609  1.8870
  864MOL0     H19224   1.676  10.559   4.388  0.0847  0.0794 -1.4268
  864MOL0     H19225   1.803  10.441   4.339 -1.1190  2.3678 -2.8583
  864MOL0     H19226   1.498  10.364   4.361 -0.7265 -0.3306 -1.2875
  864MOL0     H19227   1.631  10.291   4.275 -0.9934 -0.1337 -0.6501
  864MOL0     H19228   1.546  10.591   3.999 -2.8458  3.6673  2.7020
  864MOL0     H19229   1.945  10.630   4.760  1.1029  0.2320  2.1566
  864MOL0     H19230   2.193  10.859   4.882  4.3294 -3.1546  2.0587
  864MOL0     H19231   2.035  10.797   4.876 -0.6033 -1.8697 -2.8077
  864MOL0     H19232   2.157  10.705   4.971 -0.6224 -2.3747 -0.2097
  865MOL0     O19233   4.178   7.173  11.207 -0.6214 -0.0187  0.9999
  865MOL0     C19234   4.117   7.275  11.198  1.2164  0.2255  0.3760
  865MOL0     O19235   4.145   7.401  11.255  0.7481  0.7163  0.2825
  865MOL0     C19236   4.276   7.446  11.247  0.7372 -0.1123 -0.3128
  865MOL0     C19237   4.361   7.388  11.154  0.1903 -1.5081  0.2184
  865MOL0     C19238   4.487   7.448  11.141 -0.1066  0.4915  0.2155
  865MOL0     C19239   4.534   7.553  11.219  0.4198 -1.3634  0.0198
  865MOL0     O19240   4.650   7.604  11.193 -0.6778  0.4537  0.1852
  865MOL0     C19241   4.700   7.703  11.283  0.0152  0.0555 -0.0717
  865MOL0     C19242   4.845   7.722  11.242  0.4667 -0.1454 -0.7332
  865MOL0     C19243   4.933   7.612  11.300 -0.7526 -0.0844 -0.6184
  865MOL0     C19244   5.081   7.626  11.279 -0.6043 -1.0536 -0.7003
  865MOL0     C19245   5.160   7.557  11.390 -0.1666 -0.0124  0.1983
  865MOL0     C19246   5.312   7.562  11.376 -0.3802  0.1916 -1.3878
  865MOL0     C19247   5.379   7.477  11.480  0.5821  0.3514 -0.5575
  865MOL0     C19248   5.428   7.559  11.594 -0.6998  0.8828 -1.4984
  865MOL0     N19249   5.549   7.642  11.566 -0.5191 -0.1073 -0.6568
  865MOL0     C19250   5.544   7.779  11.592 -0.3310  0.0453 -1.0355
  865MOL0     C19251   5.667   7.820  11.590 -0.6204  0.7143 -0.4431
  865MOL0     C19252   5.716   7.948  11.637 -0.0699 -0.5558  1.6878
  865MOL0     C19253   5.755   8.037  11.527 -0.2688  0.2651 -0.3566
  865MOL0     C19254   5.756   8.174  11.595  0.2954  0.9044  0.3813
  865MOL0     C19255   5.841   8.274  11.504 -0.4284 -0.1037  0.0531
  865MOL0     O19256   5.982   8.261  11.505  0.0279 -0.7815  0.0180
  865MOL0     C19257   6.049   8.290  11.622  0.2117  0.0556 -1.0722
  865MOL0     C19258   6.180   8.243  11.647 -0.4528 -0.0886 -0.4683
  865MOL0     C19259   6.246   8.244  11.771  0.1834  0.2295  0.4452
  865MOL0     C19260   6.381   8.193  11.795 -0.1498  0.7626 -0.4495
  865MOL0     C19261   6.175   8.308  11.874 -0.2161  0.4253  0.7840
  865MOL0     C19262   6.230   8.319  12.012  0.1033  0.1982  0.3094
  865MOL0     O19263   6.229   8.212  12.088 -1.0548  0.3223 -0.0555
  865MOL0     C19264   6.263   8.211  12.215 -0.1004 -0.7293 -0.2367
  865MOL0     C19265   6.181   8.147  12.321 -0.4271 -0.2228 -0.2248
  865MOL0     C19266   6.224   8.140  12.456 -0.0715  0.5649 -0.8482
  865MOL0     C19267   6.347   8.191  12.496  0.2549  0.7381  0.9867
  865MOL0     O19268   6.393   8.156  12.621 -0.1570 -0.6418 -0.8223
  865MOL0     C19269   6.440   8.270  12.702 -0.8488 -0.7393 -0.7584
  865MOL0     C19270   6.421   8.232  12.849  0.1746  1.1170 -0.0412
  865MOL0     C19271   6.470   8.339  12.940  0.5062  0.0496 -0.9216
  865MOL0     C19272   6.535   8.275  13.063  0.4174  0.3337 -0.2656
  865MOL0     C19273   6.573   8.370  13.172 -1.3293  0.6153 -0.5698
  865MOL0     C19274   6.513   8.323  13.304 -0.0971 -0.1006  0.8834
  865MOL0     C19275   6.509   8.430  13.405 -0.1770  0.0501  0.5288
  865MOL0     C19276   6.402   8.424  13.516 -0.0165 -0.4158 -0.2312
  865MOL0    Cl19277   6.444   8.561  13.623  0.3621  0.5503 -0.2373
  865MOL0     C19278   6.422   8.256  12.398 -0.2236  0.1537  1.3307
  865MOL0     C19279   6.390   8.264  12.263  0.4507  0.1415 -0.3079
  865MOL0     O19280   6.247   8.439  12.049 -0.4191  0.2695 -1.0482
  865MOL0     C19281   6.046   8.366  11.852  0.7815  0.6962  0.0325
  865MOL0     C19282   5.978   8.354  11.730 -0.4511  0.0832  0.2432
  865MOL0     N19283   5.758   7.713  11.549  0.1395 -0.2696 -0.1377
  865MOL0     N19284   5.680   7.611  11.540  0.2571  0.4948 -0.9866
  865MOL0     C19285   4.439   7.608  11.306  0.4113 -0.8094  0.0274
  865MOL0     C19286   4.320   7.552  11.324 -0.0589  0.1116 -0.1166
  865MOL0     C19287   3.976   7.253  11.138  0.7074  0.8103 -0.8283
  865MOL0     C19288   3.969   7.155  11.040  0.1844  0.7959  0.7359
  865MOL0     C19289   3.848   7.130  10.978  0.6120  0.0898  0.9063
  865MOL0     C19290   3.730   7.211  10.992 -0.1676 -0.8678  0.0618
  865MOL0     O19291   3.601   7.196  10.933 -0.0902 -0.0474  0.4894
  865MOL0     C19292   3.571   7.079  10.871 -0.0115 -0.3891 -1.1702
  865MOL0     C19293   3.527   6.974  10.970  0.7616 -0.4512 -0.0121
  865MOL0     C19294   3.406   6.889  10.927 -0.3437 -0.5166 -0.8432
  865MOL0     C19295   3.465   6.766  10.842  0.5402 -0.3997  0.3476
  865MOL0     C19296   3.502   6.799  10.699  0.0439  0.3912 -0.2491
  865MOL0     C19297   3.533   6.830  10.583  0.5237 -0.0305 -0.2701
  865MOL0     C19298   3.741   7.307  11.090 -0.3039 -1.0432  0.1423
  865MOL0     C19299   3.860   7.324  11.159  0.2321  0.0842  0.4883
  865MOL0     C19300   3.858   7.435  11.259  0.4307 -1.4574  0.8481
  865MOL0     H19301   4.328   7.310  11.087 -1.0782  0.0034 -0.9917
  865MOL0     H19302   4.557   7.425  11.062  0.1958  0.5025  0.4764
  865MOL0     H19303   4.680   7.681  11.389 -1.2990  2.7567  0.3301
  865MOL0     H19304   4.631   7.781  11.251  0.6965  0.1686 -1.3091
  865MOL0     H19305   4.849   7.725  11.132 -0.8038 -2.3993 -0.9098
  865MOL0     H19306   4.885   7.813  11.287  1.3607 -0.0310 -1.7278
  865MOL0     H19307   4.915   7.599  11.408 -2.2849 -0.1085 -0.8597
  865MOL0     H19308   4.891   7.520  11.257 -2.3908  0.1718  0.3291
  865MOL0     H19309   5.107   7.572  11.188  2.0083 -1.4981  0.2150
  865MOL0     H19310   5.099   7.734  11.273 -1.8277 -0.8716 -1.3799
  865MOL0     H19311   5.125   7.456  11.368 -2.1401  0.8493 -0.8796
  865MOL0     H19312   5.143   7.569  11.498  1.9462  1.2631  0.4610
  865MOL0     H19313   5.343   7.514  11.282 -2.1295 -2.0145 -0.8876
  865MOL0     H19314   5.356   7.663  11.371  2.6662 -1.0240 -1.6633
  865MOL0     H19315   5.460   7.412  11.445 -1.6085 -3.4396  0.8552
  865MOL0     H19316   5.311   7.411  11.534  0.2296  2.9404  2.4267
  865MOL0     H19317   5.346   7.611  11.643  0.3543  0.2431  1.0925
  865MOL0     H19318   5.466   7.494  11.674 -2.1844  0.9166 -0.7316
  865MOL0     H19319   5.457   7.839  11.620  0.3624  0.0310  1.4287
  865MOL0     H19320   5.801   7.926  11.702  0.3005  0.3851  1.5388
  865MOL0     H19321   5.632   7.999  11.684 -2.3898 -2.9529  0.4326
  865MOL0     H19322   5.845   8.004  11.475 -0.4882  1.5421 -1.6092
  865MOL0     H19323   5.678   8.031  11.449  0.4262 -0.9582 -0.9831
  865MOL0     H19324   5.652   8.208  11.598 -0.8288 -0.9038 -5.6184
  865MOL0     H19325   5.806   8.174  11.693  1.4182 -0.6382 -0.1498
  865MOL0     H19326   5.803   8.267  11.402  0.0181 -0.6570 -0.0771
  865MOL0     H19327   5.814   8.380  11.516  1.0092  0.5224 -1.8350
  865MOL0     H19328   6.237   8.197  11.567  0.5413 -2.8771  1.6743
  865MOL0     H19329   6.423   8.158  11.700 -2.1333  1.3567 -1.5857
  865MOL0     H19330   6.361   8.114  11.867 -2.3830  2.0057  0.3696
  865MOL0     H19331   6.451   8.269  11.831 -1.8807  2.6427 -0.8720
  865MOL0     H19332   6.092   8.098  12.283 -1.5195 -0.4297  2.4395
  865MOL0     H19333   6.174   8.081  12.532  1.8496 -1.7945 -1.2681
  865MOL0     H19334   6.545   8.299  12.689 -1.5065  2.3100  0.1022
  865MOL0     H19335   6.392   8.362  12.667  1.0871 -0.0352 -1.6934
  865MOL0     H19336   6.314   8.212  12.864  0.1219  0.8484 -0.7371
  865MOL0     H19337   6.468   8.134  12.863 -0.6055  0.3916 -2.0787
  865MOL0     H19338   6.396   8.416  12.964  1.4992  1.5865 -2.5477
  865MOL0     H19339   6.550   8.400  12.898  3.3797 -0.0462  3.6946
  865MOL0     H19340   6.626   8.228  13.026 -0.4906 -0.2902 -1.7887
  865MOL0     H19341   6.485   8.186  13.104  1.3549 -0.1595 -0.1671
  865MOL0     H19342   6.682   8.368  13.165 -1.1169  0.5197  1.9971
  865MOL0     H19343   6.554   8.475  13.147  2.0043  1.9298  1.6809
  865MOL0     H19344   6.565   8.238  13.351 -0.4425  0.1291  1.7037
  865MOL0     H19345   6.406   8.305  13.294 -1.2231  5.2029  0.5492
  865MOL0     H19346   6.482   8.522  13.352 -2.3410 -1.5019 -1.1898
  865MOL0     H19347   6.605   8.455  13.452 -1.0541  1.2461  1.7644
  865MOL0     H19348   6.406   8.325  13.562 -1.6874 -0.0221  0.8669
  865MOL0     H19349   6.301   8.430  13.474 -0.1494 -0.5834  0.0629
  865MOL0     H19350   6.511   8.301  12.441  0.5379 -1.3649  1.4197
  865MOL0     H19351   6.467   8.306  12.201  0.7193  1.1551  0.6779
  865MOL0     H19352   5.993   8.406  11.937  0.9411 -2.2613  1.6584
  865MOL0     H19353   5.888   8.415  11.734  0.0038  0.7055  2.3973
  865MOL0     H19354   4.458   7.702  11.358  0.6521 -0.6460 -0.3551
  865MOL0     H19355   4.248   7.588  11.396  2.8862 -1.8935  4.2363
  865MOL0     H19356   4.045   7.080  11.016 -1.3522 -0.3393 -0.8262
  865MOL0     H19357   3.860   7.049  10.906  0.5272  1.3220 -0.5470
  865MOL0     H19358   3.486   7.111  10.810 -2.6729 -0.8676  1.9944
  865MOL0     H19359   3.655   7.044  10.810  2.6990  0.4264  1.8099
  865MOL0     H19360   3.498   7.021  11.065  0.8373  2.7420 -1.4439
  865MOL0     H19361   3.617   6.923  11.004  1.6173  1.2317  0.3178
  865MOL0     H19362   3.359   6.836  11.010 -1.0671 -3.0138 -2.7048
  865MOL0     H19363   3.331   6.947  10.873 -0.5865  2.5266  2.4521
  865MOL0     H19364   3.393   6.684  10.836 -1.0406  0.8552  1.3062
  865MOL0     H19365   3.550   6.727  10.899  2.0207  1.5863 -0.3737
  865MOL0     H19366   3.546   6.857  10.480 -2.6957 -1.9500 -1.3493
  865MOL0     H19367   3.657   7.368  11.121  0.1438 -0.8519  1.0305
  865MOL0     H19368   3.756   7.455  11.295 -1.1840 -4.8153 -1.3107
  865MOL0     H19369   3.904   7.409  11.355 -1.9040 -1.0134  2.1678
  865MOL0     H19370   3.903   7.526  11.218  0.7372 -1.6987  0.6489
  866MOL0     O19371   7.087   0.101   3.454 -0.5984  0.1360 -0.3263
  866MOL0     C19372   6.989   0.085   3.522 -0.0764  0.2690 -0.3862
  866MOL0     O19373   6.905   0.181   3.550  0.2120  0.5117 -0.0074
  866MOL0     C19374   6.910   0.304   3.481 -0.8666 -0.3498  0.8684
  866MOL0     C19375   6.889   0.427   3.553 -0.7215  0.2922  0.3070
  866MOL0     C19376   6.894   0.549   3.486 -0.3574  0.1117 -0.3708
  866MOL0     C19377   6.920   0.544   3.352  0.8050 -0.7567  0.7029
  866MOL0     O19378   6.954   0.665   3.286  0.0762 -0.2606 -0.5698
  866MOL0     C19379   7.014   0.781   3.338  0.3096  0.7095  0.0603
  866MOL0     C19380   7.074   0.848   3.214  0.4124 -0.0511 -0.7499
  866MOL0     C19381   7.170   0.762   3.133  0.2265 -0.5392  0.3897
  866MOL0     C19382   7.301   0.745   3.207  0.0383 -0.4513 -0.3889
  866MOL0     C19383   7.432   0.710   3.122 -0.1344 -0.5589  0.4858
  866MOL0     C19384   7.550   0.787   3.179 -0.0521  0.0617 -0.2598
  866MOL0     C19385   7.674   0.781   3.084  0.3945  0.5860  0.4701
  866MOL0     C19386   7.808   0.776   3.152  0.3852  0.9223 -0.4941
  866MOL0     N19387   7.828   0.898   3.221  0.0551  0.9819  0.0409
  866MOL0     C19388   7.791   1.029   3.200 -0.2762 -0.0053 -0.0445
  866MOL0     C19389   7.837   1.098   3.303 -0.4178 -0.1784 -0.5637
  866MOL0     C19390   7.817   1.242   3.339  0.2164 -0.1988 -1.1920
  866MOL0     C19391   7.767   1.329   3.218  0.7153  0.2777  0.1544
  866MOL0     C19392   7.785   1.482   3.227 -0.1571  0.3476  0.2367
  866MOL0     C19393   7.777   1.559   3.097 -0.2441  0.6048 -0.5105
  866MOL0     O19394   7.828   1.693   3.102  0.4830  0.9346 -0.5773
  866MOL0     C19395   7.808   1.782   3.001  0.4566  0.3795  0.7858
  866MOL0     C19396   7.867   1.906   3.016  0.6539  0.3038  0.2155
  866MOL0     C19397   7.863   2.009   2.922 -0.2490  0.4808  0.8666
  866MOL0     C19398   7.922   2.145   2.961 -0.0646 -1.3258 -0.1185
  866MOL0     C19399   7.778   1.982   2.800 -0.3529 -0.0814 -0.0181
  866MOL0     C19400   7.756   2.092   2.703 -0.3428 -0.1719  0.1461
  866MOL0     O19401   7.641   2.089   2.633 -0.1340 -0.5087  0.6987
  866MOL0     C19402   7.611   2.187   2.543  0.2176 -0.5257  0.1410
  866MOL0     C19403   7.638   2.322   2.568 -0.0685  0.5475  0.1157
  866MOL0     C19404   7.623   2.406   2.459 -0.2120  0.5867 -0.8303
  866MOL0     C19405   7.574   2.370   2.333  0.2868  0.0938  0.3599
  866MOL0     O19406   7.560   2.456   2.226 -0.2157 -0.2620  0.1541
  866MOL0     C19407   7.545   2.406   2.090  0.6901 -0.5173 -0.3452
  866MOL0     C19408   7.596   2.514   1.985 -0.1598  0.9675 -1.3606
  866MOL0     C19409   7.612   2.469   1.851 -0.6506  0.9237  0.1044
  866MOL0     C19410   7.489   2.485   1.767 -0.4562  1.2435 -0.0246
  866MOL0     C19411   7.498   2.427   1.617 -0.4203 -0.1011 -1.4534
  866MOL0     C19412   7.586   2.500   1.526 -0.2396 -0.2574 -0.0961
  866MOL0     C19413   7.538   2.502   1.381 -0.7532  1.0352  0.7688
  866MOL0     C19414   7.618   2.609   1.300 -0.0138  0.1428 -0.4223
  866MOL0    Cl19415   7.546   2.614   1.139  0.4744  0.2134  0.1313
  866MOL0     C19416   7.534   2.233   2.324 -1.3287 -0.5823  0.7229
  866MOL0     C19417   7.551   2.145   2.425 -0.6676 -0.3199  0.8886
  866MOL0     O19418   7.842   2.172   2.676 -0.7404  0.4977 -0.2824
  866MOL0     C19419   7.727   1.851   2.783 -0.6578  0.2089  0.0954
  866MOL0     C19420   7.744   1.753   2.883  0.1743 -0.5528  0.1251
  866MOL0     N19421   7.898   1.006   3.387  0.1858 -0.4911 -0.1122
  866MOL0     N19422   7.872   0.888   3.351  0.1640  0.4649 -0.2131
  866MOL0     C19423   6.932   0.427   3.276  0.1992 -1.0661 -0.6576
  866MOL0     C19424   6.926   0.303   3.339 -0.4783  0.3490 -0.5617
  866MOL0     C19425   6.965  -0.051   3.590 -0.5987 -0.4665  0.4731
  866MOL0     C19426   6.888  -0.049   3.709  0.3027 -0.2658  0.4407
  866MOL0     C19427   6.863  -0.161   3.782 -0.2217 -0.0564  0.5581
  866MOL0     C19428   6.928  -0.276   3.743  0.3229 -0.2102  0.4168
  866MOL0     O19429   6.912  -0.381   3.828 -0.4416 -0.5225  0.2635
  866MOL0     C19430   6.992  -0.494   3.811  0.2171  0.0612 -0.3849
  866MOL0     C19431   6.950  -0.615   3.898  0.8752 -0.4584  0.0820
  866MOL0     C19432   6.805  -0.646   3.895  0.1918 -0.5249 -1.1426
  866MOL0     C19433   6.757  -0.677   3.746 -0.1642 -0.0195 -0.9103
  866MOL0     C19434   6.837  -0.789   3.686 -0.6810 -0.1386  0.1938
  866MOL0     C19435   6.898  -0.868   3.619 -0.4835  0.6532  0.6513
  866MOL0     C19436   6.997  -0.284   3.623 -0.4261 -0.8665 -0.3198
  866MOL0     C19437   7.020  -0.174   3.542  1.1329 -0.6088  0.2891
  866MOL0     C19438   7.107  -0.183   3.421 -0.8148 -0.3668  0.3692
  866MOL0     H19439   6.877   0.420   3.660  1.7598 -1.5858  0.5502
  866MOL0     H19440   6.874   0.634   3.550 -0.8736 -0.1063 -0.2313
  866MOL0     H19441   7.102   0.766   3.401  0.7426  2.6410 -0.0358
  866MOL0     H19442   6.937   0.850   3.373 -0.0974  1.2797 -1.8312
  866MOL0     H19443   6.997   0.873   3.140  0.3270  1.4754 -0.1607
  866MOL0     H19444   7.117   0.943   3.246 -0.7516 -0.3916  2.0387
  866MOL0     H19445   7.123   0.668   3.101  0.7352 -1.3881  2.0302
  866MOL0     H19446   7.183   0.815   3.038 -1.0184 -1.4649 -0.3289
  866MOL0     H19447   7.305   0.836   3.268  2.5088 -2.3174  2.5311
  866MOL0     H19448   7.277   0.661   3.273 -1.8156  0.7030  0.5153
  866MOL0     H19449   7.415   0.741   3.018  4.2438  0.2067 -0.1893
  866MOL0     H19450   7.455   0.603   3.123 -0.1721 -0.6771 -2.3230
  866MOL0     H19451   7.527   0.892   3.199  1.5444  0.3573  0.0975
  866MOL0     H19452   7.568   0.743   3.277 -0.7736 -0.0333 -0.1650
  866MOL0     H19453   7.660   0.862   3.013 -0.7804 -2.3749 -2.9861
  866MOL0     H19454   7.663   0.689   3.026  0.3351  1.0367 -0.2403
  866MOL0     H19455   7.822   0.695   3.224  2.2435  1.6602  0.0487
  866MOL0     H19456   7.879   0.745   3.074  1.0478 -1.2756  0.8817
  866MOL0     H19457   7.738   1.064   3.113  3.9194 -0.0403 -2.9077
  866MOL0     H19458   7.917   1.276   3.370 -0.8236  1.9072  0.0664
  866MOL0     H19459   7.745   1.258   3.420 -0.2197 -4.3435 -0.5032
  866MOL0     H19460   7.819   1.302   3.125 -0.1845  0.1757 -0.3303
  866MOL0     H19461   7.663   1.299   3.206 -0.7135  3.7188  2.5205
  866MOL0     H19462   7.719   1.527   3.303  0.5728 -1.4356  2.0030
  866MOL0     H19463   7.890   1.495   3.254 -0.1325 -1.0026  0.8614
  866MOL0     H19464   7.831   1.495   3.027  1.8982 -0.2275  1.7714
  866MOL0     H19465   7.674   1.554   3.060  0.0928  0.5309 -1.4702
  866MOL0     H19466   7.925   1.912   3.108 -0.5183  0.2850  0.9728
  866MOL0     H19467   7.939   2.209   2.874 -2.1411  1.6889  1.5063
  866MOL0     H19468   8.011   2.132   3.024 -0.3248  1.7381  1.0795
  866MOL0     H19469   7.848   2.203   3.019  2.2974  2.3539 -0.4472
  866MOL0     H19470   7.682   2.358   2.660 -1.2625 -1.2495  1.4618
  866MOL0     H19471   7.651   2.511   2.460  0.2575  0.4641 -0.2179
  866MOL0     H19472   7.598   2.311   2.074 -2.4671 -2.1565 -2.3798
  866MOL0     H19473   7.439   2.382   2.077  0.4706 -1.8612  2.9503
  866MOL0     H19474   7.528   2.599   1.986  0.8392  1.9326  2.5491
  866MOL0     H19475   7.697   2.546   2.012 -0.4635  2.1070 -1.5396
  866MOL0     H19476   7.651   2.367   1.843  0.8172  1.4408  0.2756
  866MOL0     H19477   7.696   2.522   1.805  0.8609 -1.9598 -0.7600
  866MOL0     H19478   7.465   2.591   1.779  1.2858  1.6109  0.4455
  866MOL0     H19479   7.412   2.424   1.816  0.8361 -1.6243 -1.3205
  866MOL0     H19480   7.541   2.326   1.615  2.2914  0.8980  0.5149
  866MOL0     H19481   7.392   2.429   1.591 -1.2068  0.0960  1.4094
  866MOL0     H19482   7.680   2.446   1.515 -0.6241 -0.7429 -1.1310
  866MOL0     H19483   7.607   2.601   1.561  0.8338  0.2083 -1.9177
  866MOL0     H19484   7.431   2.524   1.371 -0.9880 -0.7893 -1.5368
  866MOL0     H19485   7.550   2.402   1.337 -2.1234  1.4021 -0.5094
  866MOL0     H19486   7.723   2.585   1.282  0.2458  0.6236  0.4296
  866MOL0     H19487   7.608   2.707   1.347 -0.2491 -0.3968  0.6919
  866MOL0     H19488   7.488   2.186   2.238 -0.5351  1.2628 -0.7632
  866MOL0     H19489   7.514   2.045   2.408  1.5753 -1.5899  2.9185
  866MOL0     H19490   7.676   1.836   2.688  0.4496  1.8874 -0.8195
  866MOL0     H19491   7.703   1.653   2.867 -0.9042  0.2640 -3.1183
  866MOL0     H19492   6.941   0.434   3.168  0.0987  4.7444 -0.6060
  866MOL0     H19493   6.943   0.216   3.277 -0.1360  0.3131 -0.4199
  866MOL0     H19494   6.851   0.045   3.749  0.2849  0.8842 -2.0991
  866MOL0     H19495   6.822  -0.161   3.883 -2.6029  0.5890 -0.3444
  866MOL0     H19496   7.013  -0.516   3.706  1.7226  0.7501 -0.2620
  866MOL0     H19497   7.095  -0.478   3.842  0.3894 -0.9511 -0.4141
  866MOL0     H19498   6.978  -0.586   3.999 -0.1397  3.7369 -0.6620
  866MOL0     H19499   7.013  -0.698   3.864 -0.4883 -0.5909 -2.4282
  866MOL0     H19500   6.783  -0.735   3.955 -0.9686 -2.3795 -4.0840
  866MOL0     H19501   6.750  -0.559   3.932 -2.1938 -1.6893 -1.7454
  866MOL0     H19502   6.772  -0.588   3.685  0.3446 -0.5197 -1.5384
  866MOL0     H19503   6.652  -0.706   3.741 -0.3536  0.3951  0.3673
  866MOL0     H19504   6.956  -0.941   3.566 -2.4645 -1.1412  0.8464
  866MOL0     H19505   7.059  -0.369   3.599  0.5705 -0.8466  1.9552
  866MOL0     H19506   7.098  -0.275   3.362 -0.9503 -0.0538 -0.1044
  866MOL0     H19507   7.070  -0.112   3.347  0.1833 -0.8585 -0.6487
  866MOL0     H19508   7.212  -0.173   3.450 -0.7748 -2.6829  1.3039
  867MOL0     O19509   2.499   0.619   4.304  0.4098 -0.6058 -0.0564
  867MOL0     C19510   2.524   0.718   4.374 -0.0991 -0.5240 -0.1608
  867MOL0     O19511   2.441   0.824   4.383  0.2731 -0.0378 -0.1056
  867MOL0     C19512   2.314   0.809   4.339  0.5164 -0.3972 -0.1391
  867MOL0     C19513   2.295   0.823   4.203  0.5905 -0.0474 -0.1100
  867MOL0     C19514   2.161   0.817   4.154  1.0110  0.0618 -0.0133
  867MOL0     C19515   2.055   0.785   4.239  0.7538 -0.3158  0.3151
  867MOL0     O19516   1.923   0.775   4.198  0.2977 -0.5996  0.0381
  867MOL0     C19517   1.817   0.730   4.282  0.0419  0.9801 -0.1285
  867MOL0     C19518   1.701   0.705   4.194 -0.5468  0.4667 -0.4765
  867MOL0     C19519   1.587   0.687   4.293  0.5563 -0.6613  0.7493
  867MOL0     C19520   1.447   0.681   4.230  0.0780 -0.0930  0.0461
  867MOL0     C19521   1.419   0.552   4.146 -0.0599  0.3771  1.4058
  867MOL0     C19522   1.298   0.553   4.050  0.2911 -1.0257 -0.1570
  867MOL0     C19523   1.224   0.422   4.034  1.1582  0.3487  0.4823
  867MOL0     C19524   1.089   0.445   3.960 -0.2524 -0.5373 -0.1801
  867MOL0     N19525   1.115   0.473   3.815  0.5970  0.5867  1.0912
  867MOL0     C19526   1.207   0.414   3.736 -0.7913  0.5931 -0.4315
  867MOL0     C19527   1.178   0.462   3.613 -0.2209  0.0362 -0.4524
  867MOL0     C19528   1.247   0.425   3.489 -0.2122  0.0489  0.6108
  867MOL0     C19529   1.224   0.274   3.446 -0.1417 -0.8506 -1.0835
  867MOL0     C19530   1.075   0.243   3.419 -0.8821 -0.2131 -0.6802
  867MOL0     C19531   1.016   0.337   3.327  0.2821  0.5276  0.7137
  867MOL0     O19532   0.874   0.298   3.297 -0.3210 -0.0267 -0.2415
  867MOL0     C19533   0.844   0.240   3.177  0.0736 -0.2675  0.4307
  867MOL0     C19534   0.713   0.230   3.132  0.1497  0.0156 -0.3912
  867MOL0     C19535   0.675   0.161   3.017 -0.5608  0.8370 -0.0689
  867MOL0     C19536   0.540   0.183   2.957 -0.4032  0.2563 -0.4469
  867MOL0     C19537   0.771   0.094   2.937 -0.4019 -0.7145  0.6063
  867MOL0     C19538   0.750   0.020   2.806  0.7025 -0.0252  0.3754
  867MOL0     O19539   0.854  -0.032   2.742 -0.1823 -0.5623  0.3711
  867MOL0     C19540   0.844  -0.083   2.610 -0.0257 -0.4649  0.3381
  867MOL0     C19541   0.767  -0.185   2.572 -1.0113  0.0203  0.3724
  867MOL0     C19542   0.772  -0.245   2.449 -0.0248  0.2865  0.2073
  867MOL0     C19543   0.848  -0.188   2.344 -0.4013 -0.3474 -0.2182
  867MOL0     O19544   0.859  -0.233   2.217  0.0041  0.8496 -0.2596
  867MOL0     C19545   0.749  -0.296   2.152  0.3238 -0.4386  0.8599
  867MOL0     C19546   0.711  -0.226   2.019 -0.3358  0.6936  0.2313
  867MOL0     C19547   0.645  -0.088   2.052  0.3752  0.1366  0.2807
  867MOL0     C19548   0.625  -0.009   1.919  1.0831  0.1760  0.1231
  867MOL0     C19549   0.556   0.129   1.940  0.1544 -0.4579  0.0013
  867MOL0     C19550   0.579   0.219   1.822 -0.0753  0.1921  0.1690
  867MOL0     C19551   0.473   0.329   1.833  0.1043 -0.3682 -0.0043
  867MOL0     C19552   0.497   0.440   1.744  0.6061 -0.1889 -0.8932
  867MOL0    Cl19553   0.364   0.566   1.740  0.3070 -0.5683  0.6728
  867MOL0     C19554   0.933  -0.085   2.381  0.2120  0.0214 -0.7974
  867MOL0     C19555   0.939  -0.034   2.514 -0.2787  0.0154  1.0393
  867MOL0     O19556   0.630  -0.006   2.779 -0.3786 -0.3771 -0.8984
  867MOL0     C19557   0.895   0.090   2.988  0.2776  0.0023 -0.7804
  867MOL0     C19558   0.940   0.162   3.101  0.4389  0.2486 -0.2713
  867MOL0     N19559   1.066   0.539   3.619  0.1376 -0.4390 -0.7025
  867MOL0     N19560   1.045   0.565   3.742 -1.0109  0.5628  0.6287
  867MOL0     C19561   2.083   0.772   4.371 -0.2379  0.1178  0.4324
  867MOL0     C19562   2.201   0.794   4.421  0.0351  0.3590 -0.6460
  867MOL0     C19563   2.661   0.727   4.436  0.9977 -0.6819 -0.7949
  867MOL0     C19564   2.768   0.657   4.392  0.7077  0.4635  1.0689
  867MOL0     C19565   2.893   0.668   4.456 -0.3745 -0.5915 -0.2097
  867MOL0     C19566   2.909   0.747   4.568 -0.2381 -0.1693  0.6449
  867MOL0     O19567   3.029   0.774   4.642 -0.0015 -0.6528 -0.0083
  867MOL0     C19568   3.156   0.722   4.616 -0.5244 -0.3898 -0.0547
  867MOL0     C19569   3.189   0.575   4.658 -0.0285 -0.8530 -0.1157
  867MOL0     C19570   3.189   0.559   4.809 -0.0053 -0.3781  1.6181
  867MOL0     C19571   3.043   0.551   4.854 -0.2521 -0.2148  0.0455
  867MOL0     C19572   3.039   0.494   4.991  0.0547 -0.3392  0.8538
  867MOL0     C19573   3.013   0.438   5.096 -0.5408  0.1089 -0.2192
  867MOL0     C19574   2.797   0.821   4.603 -0.4480  0.8924 -0.6036
  867MOL0     C19575   2.672   0.819   4.547 -0.5380  0.4536  0.1651
  867MOL0     C19576   2.563   0.893   4.613  0.5052 -0.6037  0.3821
  867MOL0     H19577   2.371   0.843   4.129 -0.6690 -2.0665 -2.0789
  867MOL0     H19578   2.126   0.832   4.052  0.5250 -3.2732 -0.4529
  867MOL0     H19579   1.789   0.806   4.355 -2.1516 -1.5503  1.8555
  867MOL0     H19580   1.838   0.645   4.348 -1.8047 -0.2103 -1.0156
  867MOL0     H19581   1.681   0.783   4.120  3.0814  2.0827  0.0636
  867MOL0     H19582   1.711   0.609   4.142 -2.9854 -1.8967  2.9352
  867MOL0     H19583   1.606   0.594   4.347 -2.9696 -1.3872  0.9622
  867MOL0     H19584   1.583   0.766   4.369  0.7488 -1.9902  2.1773
  867MOL0     H19585   1.368   0.691   4.306 -0.7483 -2.5015 -0.4081
  867MOL0     H19586   1.443   0.769   4.164  2.4311  0.0706  0.0377
  867MOL0     H19587   1.424   0.466   4.213  3.4616  0.3084  1.2091
  867MOL0     H19588   1.500   0.531   4.076 -0.6526  0.8182  0.5549
  867MOL0     H19589   1.232   0.627   4.096  0.9577 -1.7018  2.0094
  867MOL0     H19590   1.323   0.601   3.954 -3.0328  1.7519  0.1674
  867MOL0     H19591   1.197   0.388   4.134 -3.6160 -0.9446 -0.9892
  867MOL0     H19592   1.298   0.354   3.991  0.0993  0.6625 -1.9800
  867MOL0     H19593   1.008   0.372   3.960 -3.5842  2.8107 -0.1568
  867MOL0     H19594   1.032   0.531   3.998 -0.1242  0.0835 -1.3521
  867MOL0     H19595   1.277   0.342   3.777 -4.9703 -1.4470  4.2187
  867MOL0     H19596   1.354   0.446   3.502  0.6145 -2.0316 -1.8901
  867MOL0     H19597   1.215   0.491   3.408  1.4740  0.2700  0.0668
  867MOL0     H19598   1.289   0.250   3.362  4.5975  0.6159  1.8159
  867MOL0     H19599   1.268   0.214   3.526  2.2391  1.1979 -0.7269
  867MOL0     H19600   1.066   0.140   3.382  1.5494 -0.5713 -0.4491
  867MOL0     H19601   1.024   0.254   3.515  0.6927  1.2911  0.0245
  867MOL0     H19602   1.019   0.433   3.380  1.6158 -1.3499  4.4193
  867MOL0     H19603   1.076   0.353   3.238  1.1214  0.6676  1.2927
  867MOL0     H19604   0.647   0.293   3.191  0.2065  1.3205 -1.6458
  867MOL0     H19605   0.483   0.253   3.019  1.7367  0.8837  0.9338
  867MOL0     H19606   0.479   0.093   2.948 -1.1953  0.8548 -1.2622
  867MOL0     H19607   0.555   0.241   2.865  0.1365  1.5521  0.4184
  867MOL0     H19608   0.688  -0.224   2.635 -1.8990  1.9557  0.5095
  867MOL0     H19609   0.704  -0.329   2.438  0.2555  0.1383 -0.4225
  867MOL0     H19610   0.758  -0.403   2.132 -0.7733 -0.1441 -1.5253
  867MOL0     H19611   0.662  -0.294   2.219 -0.7967 -1.0403 -0.5194
  867MOL0     H19612   0.795  -0.207   1.952 -1.6476 -2.3558 -2.5312
  867MOL0     H19613   0.631  -0.285   1.974 -0.5878 -1.0777  2.7753
  867MOL0     H19614   0.711  -0.036   2.122 -2.1478  0.2736  2.7451
  867MOL0     H19615   0.545  -0.085   2.098 -0.3894  0.7836 -1.3414
  867MOL0     H19616   0.576  -0.062   1.836  1.2041  1.6394 -0.9242
  867MOL0     H19617   0.728  -0.002   1.884  0.8321 -0.6172 -0.8471
  867MOL0     H19618   0.448   0.108   1.944 -0.8680  3.8112 -0.0377
  867MOL0     H19619   0.593   0.177   2.031  1.2036 -0.4187 -0.4324
  867MOL0     H19620   0.560   0.167   1.727  0.1754 -1.6710  1.0888
  867MOL0     H19621   0.680   0.258   1.836 -0.6987  1.5833  0.9151
  867MOL0     H19622   0.479   0.372   1.933  1.8175 -1.8735  0.6054
  867MOL0     H19623   0.368   0.301   1.822  0.1078  0.1316 -1.5318
  867MOL0     H19624   0.515   0.410   1.641 -1.1941  1.1480 -1.6437
  867MOL0     H19625   0.582   0.495   1.785 -0.5130  0.0669  1.2118
  867MOL0     H19626   1.002  -0.041   2.309  0.4707 -0.6180 -0.9419
  867MOL0     H19627   1.008   0.047   2.534 -0.7772  0.0686  2.6779
  867MOL0     H19628   0.979   0.050   2.933  1.1816  0.9962 -0.1625
  867MOL0     H19629   1.043   0.148   3.133  0.3984 -2.4046 -1.0578
  867MOL0     H19630   2.014   0.736   4.446  0.5918 -1.6581  0.3956
  867MOL0     H19631   2.219   0.791   4.528  0.1027  1.3592 -0.6279
  867MOL0     H19632   2.758   0.587   4.310 -0.0547  4.4059 -2.5754
  867MOL0     H19633   2.984   0.619   4.424 -1.0403 -0.7095 -2.0273
  867MOL0     H19634   3.181   0.734   4.510  0.5683  1.9529  0.4117
  867MOL0     H19635   3.220   0.799   4.661 -1.6437  2.1171 -2.4392
  867MOL0     H19636   3.288   0.555   4.618 -0.2559  0.9818 -1.7642
  867MOL0     H19637   3.116   0.505   4.616 -2.3052 -1.4384  4.1771
  867MOL0     H19638   3.245   0.469   4.838 -0.2458 -0.9417  0.4082
  867MOL0     H19639   3.230   0.648   4.856  0.0068  1.9595 -2.3581
  867MOL0     H19640   2.984   0.500   4.777  4.5605 -1.1760 -3.5439
  867MOL0     H19641   3.008   0.654   4.864  1.0028  0.3599 -1.0418
  867MOL0     H19642   2.984   0.385   5.185 -5.0375  0.3046 -1.3155
  867MOL0     H19643   2.810   0.900   4.676  0.1398  1.5146 -1.3582
  867MOL0     H19644   2.482   0.822   4.632  0.3887 -1.7585 -3.6566
  867MOL0     H19645   2.594   0.945   4.705  1.3937 -0.6926  0.1373
  867MOL0     H19646   2.525   0.970   4.546  1.3589  0.6411  1.2783
  868MOL0     O19647   8.977   3.552   2.539 -0.7285  1.0893 -0.6542
  868MOL0     C19648   8.857   3.571   2.551 -0.5419  0.1340  0.5131
  868MOL0     O19649   8.771   3.604   2.457  0.5333  0.9998  0.1677
  868MOL0     C19650   8.824   3.623   2.332  0.1737 -0.3422  1.1764
  868MOL0     C19651   8.940   3.566   2.264  0.1132  0.0203  0.2464
  868MOL0     C19652   8.985   3.604   2.132 -0.1924  0.3636  0.5069
  868MOL0     C19653   8.916   3.701   2.061  0.2485  0.1415  0.1776
  868MOL0     O19654   8.936   3.737   1.933  0.4420 -0.1086 -0.1938
  868MOL0     C19655   8.847   3.679   1.835  0.3294 -0.0410 -0.3961
  868MOL0     C19656   8.914   3.684   1.698 -0.5255  0.0119  0.5948
  868MOL0     C19657   9.043   3.597   1.709  0.0509  0.4302  0.0927
  868MOL0     C19658   9.025   3.449   1.684  0.1974 -0.4826  0.2541
  868MOL0     C19659   9.160   3.379   1.703  0.1560 -0.8188  0.8318
  868MOL0     C19660   9.244   3.361   1.579 -1.0856  0.5483  0.0441
  868MOL0     C19661   9.178   3.294   1.458  0.1862  0.1437  0.0707
  868MOL0     C19662   9.268   3.284   1.329  0.3311  0.2463  0.4194
  868MOL0     N19663   9.295   3.422   1.296 -1.3940 -0.2503  0.6239
  868MOL0     C19664   9.211   3.518   1.269 -0.6362 -0.1607  0.8843
  868MOL0     C19665   9.268   3.631   1.239  0.0841  0.9718  0.7767
  868MOL0     C19666   9.214   3.760   1.177  0.0532 -0.3220  0.7119
  868MOL0     C19667   9.121   3.724   1.055  1.1344 -0.1322 -0.2690
  868MOL0     C19668   9.169   3.651   0.937 -0.9363  0.2768  0.4830
  868MOL0     C19669   9.304   3.698   0.878 -0.4818  0.2759 -0.1306
  868MOL0     O19670   9.348   3.603   0.773 -0.4194 -0.2462  0.7448
  868MOL0     C19671   9.407   3.488   0.811  0.3630  0.6816 -0.0625
  868MOL0     C19672   9.419   3.391   0.707 -0.5754  0.8289  0.1878
  868MOL0     C19673   9.467   3.260   0.729  0.1466 -0.8362  0.1004
  868MOL0     C19674   9.468   3.165   0.610 -0.7383  0.8735  0.5851
  868MOL0     C19675   9.491   3.215   0.862 -0.4655 -0.2342  0.0344
  868MOL0     C19676   9.537   3.085   0.904  1.4058  0.6438 -0.2539
  868MOL0     O19677   9.642   3.023   0.834  0.5187 -0.2606 -0.8419
  868MOL0     C19678   9.722   2.931   0.904 -0.0160  0.2525  0.3928
  868MOL0     C19679   9.776   2.823   0.832  0.5102  0.4272  0.5117
  868MOL0     C19680   9.850   2.717   0.889 -0.5074  0.1580  0.7257
  868MOL0     C19681   9.859   2.706   1.031  0.3151 -0.0562  0.6452
  868MOL0     O19682   9.919   2.590   1.078  0.3234 -0.2183 -0.2018
  868MOL0     C19683   9.948   2.588   1.217 -0.1649  0.6027  0.5810
  868MOL0     C19684   9.995   2.448   1.258 -0.5110  0.8141 -0.1290
  868MOL0     C19685  10.121   2.405   1.183 -0.6190  0.2705  1.4824
  868MOL0     C19686  10.248   2.484   1.206  0.1742 -0.5713 -0.2657
  868MOL0     C19687  10.252   2.503   1.360 -0.4712 -0.1074  0.5594
  868MOL0     C19688  10.405   2.530   1.393  0.4488 -0.5242 -0.1391
  868MOL0     C19689  10.414   2.518   1.543 -1.0399 -0.1726  0.3256
  868MOL0     C19690  10.541   2.594   1.588  0.9724 -0.1513  0.3064
  868MOL0    Cl19691  10.682   2.498   1.543 -0.3638 -0.1614 -0.3152
  868MOL0     C19692   9.800   2.819   1.102  0.1870 -0.1702  0.7071
  868MOL0     C19693   9.750   2.927   1.040  0.2199 -0.8840 -0.6073
  868MOL0     O19694   9.474   3.037   1.001  0.2843  0.4716  0.2685
  868MOL0     C19695   9.473   3.309   0.964  0.6042  0.4739  0.6034
  868MOL0     C19696   9.443   3.443   0.938  0.4404 -1.5331 -0.0106
  868MOL0     N19697   9.404   3.596   1.252  0.0402 -0.8755  0.4638
  868MOL0     N19698   9.423   3.472   1.282 -0.2249  0.2383 -0.9538
  868MOL0     C19699   8.807   3.764   2.130  0.2196 -0.0077  0.2104
  868MOL0     C19700   8.753   3.720   2.250 -0.6204 -0.2799 -0.6087
  868MOL0     C19701   8.810   3.587   2.693 -0.6156 -0.0543 -0.8660
  868MOL0     C19702   8.900   3.564   2.803  0.4998 -0.3807  0.5764
  868MOL0     C19703   8.857   3.566   2.939  0.6799 -0.8021  0.8997
  868MOL0     C19704   8.719   3.597   2.965 -0.2578 -0.9394 -0.2354
  868MOL0     O19705   8.666   3.641   3.089 -0.4887  0.3099 -0.6449
  868MOL0     C19706   8.746   3.640   3.208 -0.5742  0.8050  0.9099
  868MOL0     C19707   8.832   3.765   3.231  0.3422 -1.0086  0.2720
  868MOL0     C19708   8.887   3.769   3.368 -0.0333  0.0316  0.4962
  868MOL0     C19709   9.011   3.682   3.392 -1.0997 -0.6676  0.6014
  868MOL0     C19710   8.955   3.556   3.438 -0.7444 -0.2252 -0.6180
  868MOL0     C19711   8.905   3.451   3.479  0.4534  0.0904  0.2558
  868MOL0     C19712   8.627   3.609   2.865  0.4497  0.6295  0.0671
  868MOL0     C19713   8.672   3.614   2.728  0.0401  0.2945 -0.4925
  868MOL0     C19714   8.562   3.641   2.631 -0.5915  0.4898 -0.2287
  868MOL0     H19715   8.992   3.491   2.322 -1.7668  0.6358  2.8844
  868MOL0     H19716   9.073   3.552   2.096 -0.8908 -2.4549  2.4861
  868MOL0     H19717   8.750   3.729   1.830 -0.5223 -0.8425  3.9992
  868MOL0     H19718   8.828   3.577   1.868  3.3507 -0.1200  1.5137
  868MOL0     H19719   8.867   3.643   1.608  1.4579 -0.4738 -0.2622
  868MOL0     H19720   8.940   3.786   1.669 -3.0636  0.9828  1.4443
  868MOL0     H19721   9.116   3.634   1.637 -1.9137  2.1904 -1.0889
  868MOL0     H19722   9.088   3.607   1.808  0.8257 -0.1648 -0.1800
  868MOL0     H19723   8.954   3.419   1.762  3.7966 -2.3122  3.1236
  868MOL0     H19724   8.985   3.441   1.582 -1.0937  0.6757  0.6347
  868MOL0     H19725   9.133   3.281   1.744  4.1397 -2.7651 -0.6548
  868MOL0     H19726   9.213   3.429   1.785 -0.3258  0.3215  0.4639
  868MOL0     H19727   9.279   3.460   1.549  1.4581 -0.9478 -2.4744
  868MOL0     H19728   9.327   3.297   1.610 -0.7788  1.3125  0.8619
  868MOL0     H19729   9.086   3.350   1.435 -0.1669  0.5558  2.2616
  868MOL0     H19730   9.156   3.194   1.496 -0.7467 -0.6025 -2.2154
  868MOL0     H19731   9.367   3.243   1.354  0.7988  1.4916  0.6965
  868MOL0     H19732   9.223   3.238   1.241  2.2471  1.5770 -1.3391
  868MOL0     H19733   9.104   3.499   1.266 -0.8594  0.8933  1.4372
  868MOL0     H19734   9.300   3.824   1.154 -1.8527  2.2486  0.1888
  868MOL0     H19735   9.146   3.807   1.249  0.5669  0.4976  0.6826
  868MOL0     H19736   9.030   3.673   1.087 -0.4401  1.0679 -2.5826
  868MOL0     H19737   9.082   3.820   1.020 -0.5617 -0.1237  1.5011
  868MOL0     H19738   9.180   3.545   0.959 -0.6676  0.2319  0.1346
  868MOL0     H19739   9.090   3.653   0.861 -0.1841 -0.4677 -0.3277
  868MOL0     H19740   9.290   3.794   0.829 -2.6469  0.2327  0.3068
  868MOL0     H19741   9.371   3.703   0.965  1.8124 -0.0326 -1.7951
  868MOL0     H19742   9.387   3.415   0.606 -1.9292  1.2382  0.6870
  868MOL0     H19743   9.412   3.203   0.524  0.7652  0.8524 -0.4618
  868MOL0     H19744   9.417   3.071   0.629 -1.3799 -0.1004 -4.5224
  868MOL0     H19745   9.573   3.152   0.580 -1.0557 -0.6047  0.0770
  868MOL0     H19746   9.760   2.819   0.724 -2.3013 -1.8639  0.9106
  868MOL0     H19747   9.880   2.630   0.831  0.3415  0.0928  1.2391
  868MOL0     H19748  10.032   2.653   1.242  0.2621  0.7739 -1.1655
  868MOL0     H19749   9.864   2.610   1.284  1.8580 -0.7918  3.7990
  868MOL0     H19750  10.002   2.455   1.367 -2.4594  0.9147  0.0251
  868MOL0     H19751   9.918   2.371   1.248 -1.0823  1.3740 -0.1080
  868MOL0     H19752  10.096   2.404   1.077 -1.0643  3.5664  1.4709
  868MOL0     H19753  10.151   2.302   1.205 -0.8790 -0.0511  0.3983
  868MOL0     H19754  10.240   2.583   1.160 -0.5421 -1.6193 -2.5244
  868MOL0     H19755  10.334   2.429   1.167  2.4956 -0.3327  3.8946
  868MOL0     H19756  10.189   2.584   1.398 -3.7949 -3.6003  3.4423
  868MOL0     H19757  10.218   2.409   1.406  1.8591 -1.1732  0.2406
  868MOL0     H19758  10.440   2.628   1.361  0.8394  0.3591  2.6566
  868MOL0     H19759  10.469   2.449   1.357  2.2541  0.9668 -0.4647
  868MOL0     H19760  10.418   2.414   1.578  1.6450 -1.1139 -2.3609
  868MOL0     H19761  10.326   2.565   1.587 -0.3651 -0.9187  2.6473
  868MOL0     H19762  10.533   2.599   1.697  1.5615 -1.8881  0.4657
  868MOL0     H19763  10.551   2.695   1.548  0.0556  0.6203  1.9190
  868MOL0     H19764   9.796   2.814   1.210 -2.3038  1.0722  0.7529
  868MOL0     H19765   9.709   3.009   1.098  0.1114 -1.6242  0.4029
  868MOL0     H19766   9.482   3.283   1.069  2.4224 -1.6498  0.0007
  868MOL0     H19767   9.439   3.512   1.022 -0.7056  1.4466 -2.3109
  868MOL0     H19768   8.766   3.848   2.076  1.8189  0.7809  0.1595
  868MOL0     H19769   8.668   3.776   2.287 -1.5682 -1.4974 -0.8390
  868MOL0     H19770   9.000   3.531   2.777  0.9314 -1.2916  3.1280
  868MOL0     H19771   8.917   3.549   3.028 -1.2024 -2.5569  1.9393
  868MOL0     H19772   8.680   3.637   3.295 -2.2393 -0.1455 -0.3382
  868MOL0     H19773   8.816   3.556   3.203  3.2885  3.5958  2.4136
  868MOL0     H19774   8.766   3.852   3.223  2.0834  0.2106 -2.1599
  868MOL0     H19775   8.911   3.774   3.156  0.2077 -1.2483  0.0991
  868MOL0     H19776   8.920   3.869   3.400  0.8594 -1.2490  4.0554
  868MOL0     H19777   8.808   3.738   3.437  1.1247 -1.3415  1.2669
  868MOL0     H19778   9.064   3.728   3.476  1.4630  0.6571 -1.5967
  868MOL0     H19779   9.080   3.667   3.308  1.7047 -0.0410  2.6426
  868MOL0     H19780   8.850   3.364   3.506 -0.5782  0.2144 -1.3140
  868MOL0     H19781   8.526   3.628   2.900 -0.4122 -1.5563 -0.9998
  868MOL0     H19782   8.551   3.553   2.567 -0.7903  0.4983 -0.2061
  868MOL0     H19783   8.464   3.654   2.678 -0.4498 -1.3426  0.6564
  868MOL0     H19784   8.577   3.729   2.568  1.8529 -0.4080 -1.0064
  869MOL0     O19785   7.277   7.828  10.278  0.1385 -0.0164 -0.0235
  869MOL0     C19786   7.239   7.727  10.228  0.4828  0.9147  0.3780
  869MOL0     O19787   7.111   7.700  10.189 -0.2061  1.4729 -0.6980
  869MOL0     C19788   7.025   7.807  10.194 -0.4736 -0.2565  0.4914
  869MOL0     C19789   7.047   7.927  10.132 -0.0200 -0.4307  0.5279
  869MOL0     C19790   6.965   8.037  10.140 -0.2887 -0.8342  0.2279
  869MOL0     C19791   6.847   8.030  10.204 -0.3247  0.8797  0.1588
  869MOL0     O19792   6.769   8.140  10.199 -0.4449  0.4792  0.5920
  869MOL0     C19793   6.634   8.136  10.262 -0.7154 -0.5521 -0.0052
  869MOL0     C19794   6.572   8.278  10.275  0.0673  0.2144 -0.0373
  869MOL0     C19795   6.600   8.370  10.154 -0.2959  0.3924 -0.0547
  869MOL0     C19796   6.556   8.515  10.187 -0.4838  0.3880  0.8968
  869MOL0     C19797   6.619   8.608  10.079  0.4850 -0.2397  0.0933
  869MOL0     C19798   6.525   8.727  10.053 -0.5184  1.1726 -0.5266
  869MOL0     C19799   6.577   8.806   9.938 -0.3982 -0.0903  0.6247
  869MOL0     C19800   6.510   8.944   9.921 -0.3384  0.8014  0.3075
  869MOL0     N19801   6.362   8.942   9.912 -0.2757  0.3770  0.4669
  869MOL0     C19802   6.277   8.990  10.005 -0.8775  0.4560 -0.0544
  869MOL0     C19803   6.148   8.972   9.955  0.2006  0.0127  0.7966
  869MOL0     C19804   6.022   9.014  10.024  0.4353 -0.4214 -0.0531
  869MOL0     C19805   5.920   8.899  10.002 -0.0269  0.3200 -0.1021
  869MOL0     C19806   5.772   8.921  10.036 -0.2381  1.1223  0.7136
  869MOL0     C19807   5.676   8.814   9.969 -0.1263 -0.0475  0.1718
  869MOL0     O19808   5.541   8.861   9.976 -0.0682 -0.0137 -0.9737
  869MOL0     C19809   5.437   8.792   9.910 -0.3935  0.7114 -1.0421
  869MOL0     C19810   5.324   8.867   9.901  0.0427  0.3083  0.1077
  869MOL0     C19811   5.211   8.814   9.838  0.2744  0.5594 -0.1285
  869MOL0     C19812   5.094   8.908   9.858  0.3197  0.6083  0.5085
  869MOL0     C19813   5.214   8.685   9.775  0.2304 -0.6267 -0.2710
  869MOL0     C19814   5.089   8.615   9.722  1.2334 -0.0587  1.0115
  869MOL0     O19815   5.112   8.513   9.635 -0.3831 -0.2002 -0.4070
  869MOL0     C19816   5.021   8.425   9.594  0.5072  0.2148  0.5042
  869MOL0     C19817   5.071   8.299   9.573 -0.2680  0.8125 -0.1428
  869MOL0     C19818   4.994   8.183   9.535  0.2560 -0.7901 -0.7391
  869MOL0     C19819   4.864   8.198   9.499 -0.4841 -0.6764  1.4758
  869MOL0     O19820   4.791   8.092   9.451  0.7069  0.6897  0.0854
  869MOL0     C19821   4.810   8.028   9.322  0.1295 -0.2376  0.6013
  869MOL0     C19822   4.703   7.919   9.308  0.8451 -0.3188  0.3043
  869MOL0     C19823   4.714   7.810   9.422  0.4657 -0.0526  0.4538
  869MOL0     C19824   4.601   7.712   9.419  0.1853 -0.1865 -0.8191
  869MOL0     C19825   4.615   7.590   9.512 -0.3626 -0.8863 -0.5231
  869MOL0     C19826   4.607   7.632   9.660 -0.6915  0.1075 -0.6033
  869MOL0     C19827   4.466   7.637   9.724 -1.2265 -0.5387  0.3352
  869MOL0     C19828   4.482   7.649   9.877 -0.6496 -0.5303  0.7951
  869MOL0    Cl19829   4.475   7.491   9.972 -0.4961 -0.4295  0.6945
  869MOL0     C19830   4.815   8.331   9.514  0.2111  0.5729 -1.4037
  869MOL0     C19831   4.886   8.443   9.554 -0.1089  0.7666 -0.2958
  869MOL0     O19832   4.973   8.634   9.769 -0.7843 -0.1461  0.4478
  869MOL0     C19833   5.332   8.617   9.786  0.2902  0.0761  0.4590
  869MOL0     C19834   5.451   8.668   9.851 -0.8950  0.7905 -0.0724
  869MOL0     N19835   6.158   8.940   9.821 -0.3575 -0.7071  0.0397
  869MOL0     N19836   6.286   8.903   9.801  0.0057  0.1957 -0.5199
  869MOL0     C19837   6.820   7.911  10.270 -0.1875 -0.8944  1.0300
  869MOL0     C19838   6.905   7.801  10.258 -0.3119  0.3643  0.3345
  869MOL0     C19839   7.349   7.627  10.200  0.9749 -0.0252  0.2346
  869MOL0     C19840   7.463   7.636  10.274 -0.5600  0.0090 -0.1918
  869MOL0     C19841   7.576   7.561  10.243  0.7695 -0.7826 -0.0865
  869MOL0     C19842   7.566   7.462  10.141  0.2599 -0.7514  0.4318
  869MOL0     O19843   7.667   7.385  10.094  0.0893 -1.0051 -0.5950
  869MOL0     C19844   7.787   7.361  10.174 -0.8068 -0.8534  0.8352
  869MOL0     C19845   7.763   7.268  10.295 -0.4830  0.5649 -0.7157
  869MOL0     C19846   7.692   7.138  10.247 -0.0896  0.8319 -0.5064
  869MOL0     C19847   7.677   7.040  10.363 -0.1920  0.1467 -0.6612
  869MOL0     C19848   7.584   7.077  10.470 -0.8067 -0.7398 -1.1034
  869MOL0     C19849   7.516   7.104  10.571 -0.1494 -0.8212 -0.1419
  869MOL0     C19850   7.454   7.463  10.061 -0.1564  1.0516 -0.6580
  869MOL0     C19851   7.343   7.544  10.086  0.1035  0.6974 -0.0562
  869MOL0     C19852   7.240   7.568   9.979  0.2408  0.9928  0.4189
  869MOL0     H19853   7.135   7.943  10.071 -1.9181  1.1940 -2.0103
  869MOL0     H19854   6.985   8.128  10.084  0.7765 -1.0109  0.3078
  869MOL0     H19855   6.648   8.094  10.361  2.2675 -0.1517 -0.1779
  869MOL0     H19856   6.572   8.069  10.200 -1.0488  1.7830 -2.3837
  869MOL0     H19857   6.466   8.260  10.297 -0.0954  0.9196 -0.2035
  869MOL0     H19858   6.617   8.319  10.366  2.5174 -0.6876 -0.7539
  869MOL0     H19859   6.706   8.375  10.125 -0.6558 -1.4826 -1.9570
  869MOL0     H19860   6.559   8.313  10.070  1.1501 -2.5435  1.0847
  869MOL0     H19861   6.447   8.516  10.178 -0.3882  1.2848 -0.3794
  869MOL0     H19862   6.570   8.545  10.291 -0.6799 -0.5513  1.2019
  869MOL0     H19863   6.628   8.548   9.988 -1.2420  0.7958 -0.8034
  869MOL0     H19864   6.721   8.631  10.112  0.4293  0.0247  0.0777
  869MOL0     H19865   6.426   8.682  10.037 -0.1059 -0.2126  0.5640
  869MOL0     H19866   6.528   8.799  10.135 -1.9030  2.9148 -1.9155
  869MOL0     H19867   6.580   8.747   9.845 -0.0347  0.2390  0.4223
  869MOL0     H19868   6.683   8.833   9.944  0.4526 -1.8211 -3.1580
  869MOL0     H19869   6.536   9.014  10.000 -1.3669  3.0875 -1.2716
  869MOL0     H19870   6.552   8.980   9.826 -0.3218  0.4981  0.1962
  869MOL0     H19871   6.305   9.014  10.107  1.1246 -1.0407 -0.1742
  869MOL0     H19872   5.984   9.103   9.974 -0.7201 -0.8493  0.0243
  869MOL0     H19873   6.048   9.045  10.125 -0.7803  2.0201 -0.4192
  869MOL0     H19874   5.935   8.859   9.902  1.0064 -2.9355  1.2288
  869MOL0     H19875   5.953   8.814  10.062  1.4864  0.3099 -0.9221
  869MOL0     H19876   5.772   8.908  10.144  1.8432  1.0756  0.7463
  869MOL0     H19877   5.731   9.017  10.001  1.0691  0.3083 -3.7356
  869MOL0     H19878   5.701   8.795   9.864 -0.7302 -0.0306  0.0225
  869MOL0     H19879   5.692   8.724  10.029 -0.3104  0.7138  1.3781
  869MOL0     H19880   5.306   8.969   9.936 -1.0247 -0.0981  0.8012
  869MOL0     H19881   5.131   9.010   9.872  1.1055  0.5114 -0.6999
  869MOL0     H19882   5.041   8.885   9.950 -0.3407  2.7049  0.6997
  869MOL0     H19883   5.029   8.892   9.771  0.0735 -5.1999  1.4177
  869MOL0     H19884   5.167   8.264   9.611 -1.1369 -1.8302 -0.1675
  869MOL0     H19885   5.033   8.082   9.522  1.3442 -0.2644 -1.8180
  869MOL0     H19886   4.808   8.105   9.244  3.5891 -0.5826  0.0123
  869MOL0     H19887   4.912   7.990   9.309  1.8291  2.7222  3.6691
  869MOL0     H19888   4.611   7.976   9.318  1.9126  1.5876 -0.1749
  869MOL0     H19889   4.714   7.876   9.207  1.6451  0.1366  0.1846
  869MOL0     H19890   4.709   7.871   9.513  0.4684  0.7907 -0.1035
  869MOL0     H19891   4.805   7.750   9.410  0.4065  0.1675 -1.4896
  869MOL0     H19892   4.596   7.666   9.320 -0.1648  0.4038 -1.0817
  869MOL0     H19893   4.502   7.754   9.441  0.9676  0.1484  2.5844
  869MOL0     H19894   4.533   7.519   9.494 -0.5827  0.1701 -4.6187
  869MOL0     H19895   4.714   7.548   9.489  0.1909  1.0995 -2.0630
  869MOL0     H19896   4.665   7.725   9.659  2.0893 -1.5095 -2.2963
  869MOL0     H19897   4.671   7.555   9.705  1.5139  0.7324 -2.4548
  869MOL0     H19898   4.405   7.550   9.698  0.8783 -2.9039  2.6729
  869MOL0     H19899   4.411   7.722   9.683 -1.6158 -1.1258 -0.3776
  869MOL0     H19900   4.400   7.711   9.914 -2.9029 -2.3976 -0.7318
  869MOL0     H19901   4.575   7.704   9.896 -1.9767  2.4569 -0.6542
  869MOL0     H19902   4.713   8.341   9.476  0.6159  1.1197 -2.3983
  869MOL0     H19903   4.844   8.542   9.544 -1.0283  0.3206 -0.9739
  869MOL0     H19904   5.335   8.517   9.743  3.6667  0.4646 -0.4810
  869MOL0     H19905   5.548   8.619   9.850 -1.1931  0.1477 -2.1554
  869MOL0     H19906   6.732   7.893  10.330  0.5249 -3.7029  1.3394
  869MOL0     H19907   6.887   7.708  10.312  2.2071 -0.5164 -0.2217
  869MOL0     H19908   7.482   7.722  10.339  0.1124  0.2523 -0.7040
  869MOL0     H19909   7.673   7.573  10.291  0.5259  1.1298 -0.0137
  869MOL0     H19910   7.861   7.322  10.104 -0.7288  0.8007 -0.0680
  869MOL0     H19911   7.850   7.448  10.195  0.1518 -1.4988  0.6869
  869MOL0     H19912   7.693   7.316  10.364 -1.2762  0.4808 -1.4347
  869MOL0     H19913   7.859   7.262  10.346 -1.3851  0.3203  1.0103
  869MOL0     H19914   7.592   7.173  10.220  0.3524  1.8493 -0.8813
  869MOL0     H19915   7.745   7.098  10.160 -0.4501 -1.8671  0.4292
  869MOL0     H19916   7.771   7.015  10.414  0.4230  1.4253 -1.1432
  869MOL0     H19917   7.631   6.948  10.325  1.9237 -1.1022 -0.3523
  869MOL0     H19918   7.461   7.125  10.660  1.0721  1.7936  0.0708
  869MOL0     H19919   7.474   7.406   9.971  2.9119 -4.8494  3.0860
  869MOL0     H19920   7.231   7.674   9.954 -3.5111  1.0245  1.2699
  869MOL0     H19921   7.267   7.502   9.895  1.3088  1.4231  0.4103
  869MOL0     H19922   7.142   7.534  10.012  0.7501  1.6449  2.7448
  870MOL0     O19923   5.515   7.432   1.282  0.6638  0.0331 -1.1948
  870MOL0     C19924   5.461   7.432   1.393 -0.0991  0.8149  0.0017
  870MOL0     O19925   5.457   7.327   1.478 -0.3000  0.4013  1.0869
  870MOL0     C19926   5.569   7.237   1.471  1.2718 -0.3478  0.0321
  870MOL0     C19927   5.653   7.259   1.569  0.6314 -0.1458 -0.7041
  870MOL0     C19928   5.762   7.174   1.567 -0.3000  0.2438 -0.1620
  870MOL0     C19929   5.787   7.074   1.471  0.2090  0.0243 -0.2410
  870MOL0     O19930   5.897   6.986   1.479  0.1337 -0.0031 -0.6464
  870MOL0     C19931   5.899   6.865   1.394 -0.2869  0.9340 -0.5701
  870MOL0     C19932   6.027   6.788   1.424  0.6192  0.1869  0.4767
  870MOL0     C19933   6.160   6.866   1.401 -0.3589  1.0407  0.4464
  870MOL0     C19934   6.279   6.766   1.410 -0.7689 -0.3377  0.5889
  870MOL0     C19935   6.295   6.654   1.298  0.7902  0.2732 -0.0300
  870MOL0     C19936   6.417   6.567   1.340  0.5686  0.1333 -0.1956
  870MOL0     C19937   6.462   6.467   1.236 -0.5678 -0.0015  0.4130
  870MOL0     C19938   6.541   6.529   1.108 -0.1846 -0.1244 -0.8651
  870MOL0     N19939   6.474   6.603   0.999 -0.1660  0.4438  0.0401
  870MOL0     C19940   6.365   6.564   0.923 -0.3983 -0.2590  0.4517
  870MOL0     C19941   6.344   6.658   0.831 -0.0702  0.4186  0.2993
  870MOL0     C19942   6.211   6.659   0.741 -0.6690 -0.4658 -0.3194
  870MOL0     C19943   6.226   6.741   0.618 -0.6466 -0.1037 -0.3037
  870MOL0     C19944   6.102   6.767   0.535 -1.0160  0.4477  0.3520
  870MOL0     C19945   6.120   6.877   0.427 -0.3440  0.3823  0.1813
  870MOL0     O19946   6.212   6.848   0.321  0.1864  1.1732 -0.9618
  870MOL0     C19947   6.162   6.825   0.197 -1.3071 -0.1653  0.4223
  870MOL0     C19948   6.247   6.858   0.094 -0.5438  0.2804 -0.1986
  870MOL0     C19949   6.204   6.833  -0.034  0.7034 -0.7394  0.8634
  870MOL0     C19950   6.296   6.876  -0.143  0.0129 -0.2502 -0.6385
  870MOL0     C19951   6.069   6.781  -0.062 -0.6003 -0.7161  0.5081
  870MOL0     C19952   6.002   6.759  -0.200 -1.0200 -0.3620 -0.0253
  870MOL0     O19953   6.041   6.830  -0.308  0.2593  0.6918 -0.0696
  870MOL0     C19954   6.009   6.786  -0.434  0.1417 -0.7621 -0.2292
  870MOL0     C19955   6.127   6.767  -0.510 -0.2340  1.4682 -0.3902
  870MOL0     C19956   6.117   6.728  -0.638  0.5897 -0.2139 -0.7445
  870MOL0     C19957   5.993   6.715  -0.695 -0.3591  1.1197 -0.1412
  870MOL0     O19958   6.001   6.671  -0.827 -0.0730  0.6188 -1.0284
  870MOL0     C19959   5.886   6.670  -0.902 -0.2257  1.1494 -0.4454
  870MOL0     C19960   5.918   6.618  -1.043 -0.5369  0.5290 -0.0944
  870MOL0     C19961   5.926   6.463  -1.048 -0.1450 -0.5019  0.0284
  870MOL0     C19962   5.899   6.411  -1.192 -0.0241 -0.2035  0.5415
  870MOL0     C19963   5.934   6.260  -1.201  0.3432  0.0171  0.1703
  870MOL0     C19964   5.883   6.178  -1.079 -0.0986  0.0612  0.1779
  870MOL0     C19965   5.842   6.036  -1.136 -0.3463  0.2403  0.8024
  870MOL0     C19966   5.870   5.934  -1.027 -0.9833  0.4736 -0.4905
  870MOL0    Cl19967   5.775   5.799  -1.082 -0.5528  0.1462 -0.0047
  870MOL0     C19968   5.872   6.725  -0.622 -0.0380 -0.1918 -0.3284
  870MOL0     C19969   5.878   6.772  -0.487 -0.0643  0.6117 -0.5866
  870MOL0     O19970   5.909   6.683  -0.204  0.6364  0.0547  0.6013
  870MOL0     C19971   5.998   6.732   0.044 -0.3473 -0.6526 -0.5601
  870MOL0     C19972   6.046   6.750   0.170  0.7938  0.3657  0.7633
  870MOL0     N19973   6.440   6.759   0.859 -1.3038 -0.1900  1.2402
  870MOL0     N19974   6.521   6.722   0.944 -0.5262  0.3566 -0.1411
  870MOL0     C19975   5.699   7.069   1.365  0.4672  0.4686 -0.2742
  870MOL0     C19976   5.583   7.140   1.369 -0.4180  0.1587 -0.8501
  870MOL0     C19977   5.386   7.550   1.444 -0.5764  0.2479 -0.1477
  870MOL0     C19978   5.334   7.529   1.578 -0.5440 -0.0417  1.0565
  870MOL0     C19979   5.239   7.610   1.636 -0.1881 -0.0392 -0.1312
  870MOL0     C19980   5.192   7.722   1.571  1.2298 -0.1289 -0.7062
  870MOL0     O19981   5.092   7.795   1.629  0.6036  0.4903  0.0660
  870MOL0     C19982   5.119   7.934   1.665  0.9676  0.5039  1.1882
  870MOL0     C19983   5.139   7.948   1.809 -0.7642 -0.0290 -0.2535
  870MOL0     C19984   5.006   7.953   1.887  0.0396 -1.2462  0.0703
  870MOL0     C19985   4.918   7.838   1.888  0.0979  0.6477  0.6030
  870MOL0     C19986   4.992   7.717   1.944  0.6578  0.4729  0.3306
  870MOL0     C19987   5.055   7.628   2.002  1.1767 -0.0865  0.5385
  870MOL0     C19988   5.237   7.750   1.441  0.3719 -0.3639 -0.4976
  870MOL0     C19989   5.338   7.671   1.379 -0.2881  1.0164 -0.7669
  870MOL0     C19990   5.368   7.705   1.238  0.4278 -0.3073 -0.3672
  870MOL0     H19991   5.630   7.333   1.645  2.1796  1.6690 -1.8933
  870MOL0     H19992   5.835   7.188   1.646  0.5156  2.1216 -1.1610
  870MOL0     H19993   5.890   6.895   1.290 -0.5138  2.6601 -0.0752
  870MOL0     H19994   5.813   6.806   1.428  0.3956  0.2036 -0.0621
  870MOL0     H19995   6.025   6.767   1.531  0.7333  0.1670  0.4750
  870MOL0     H19996   6.027   6.697   1.364 -3.3152  1.3455 -1.6450
  870MOL0     H19997   6.153   6.911   1.301  5.0639 -0.3041 -0.8461
  870MOL0     H19998   6.172   6.941   1.479  0.6854  0.5033  0.8224
  870MOL0     H19999   6.378   6.813   1.412 -1.9152  2.2234  1.0422
  870MOL0     H20000   6.277   6.711   1.505 -1.4468 -1.4946 -0.0599
  870MOL0     H20001   6.327   6.701   1.205  0.0367 -1.6771 -1.3224
  870MOL0     H20002   6.209   6.588   1.280 -0.7267  2.7176 -2.5066
  870MOL0     H20003   6.500   6.635   1.360  0.4800  0.3703 -0.6297
  870MOL0     H20004   6.385   6.523   1.435  2.3041  1.5270  1.0867
  870MOL0     H20005   6.367   6.424   1.204 -2.6556  1.7135  3.7531
  870MOL0     H20006   6.529   6.395   1.284 -0.7601 -1.4948 -1.4662
  870MOL0     H20007   6.610   6.599   1.156  2.6429 -3.0298 -0.3021
  870MOL0     H20008   6.614   6.456   1.072  0.8853  0.0208  0.9009
  870MOL0     H20009   6.321   6.466   0.937  0.4973 -1.1401 -2.3466
  870MOL0     H20010   6.135   6.703   0.806  2.7638  2.4626  2.0601
  870MOL0     H20011   6.182   6.556   0.718 -1.7336 -0.9889  2.8161
  870MOL0     H20012   6.271   6.837   0.642 -0.8807  0.1730 -0.9622
  870MOL0     H20013   6.296   6.703   0.543  0.7002  2.6084 -0.5100
  870MOL0     H20014   6.078   6.674   0.482 -0.8410  0.5642  0.0672
  870MOL0     H20015   6.026   6.794   0.609  0.4756  2.8418  1.1245
  870MOL0     H20016   6.015   6.876   0.395 -0.9556 -4.4071  1.5026
  870MOL0     H20017   6.149   6.967   0.481  0.6651 -0.7161  1.5698
  870MOL0     H20018   6.343   6.903   0.117 -0.5695 -1.2815  3.8629
  870MOL0     H20019   6.244   6.956  -0.197 -1.7865 -3.0279 -3.3505
  870MOL0     H20020   6.331   6.805  -0.218 -1.6237 -0.9862 -0.7509
  870MOL0     H20021   6.382   6.919  -0.092  1.5865 -2.1335 -1.5838
  870MOL0     H20022   6.222   6.797  -0.467  1.9573 -2.1017 -2.2495
  870MOL0     H20023   6.211   6.705  -0.688  1.7991  0.2731  1.1837
  870MOL0     H20024   5.808   6.604  -0.862 -0.7921  1.6570 -0.7035
  870MOL0     H20025   5.850   6.773  -0.904 -0.1565  1.1654 -1.3927
  870MOL0     H20026   5.844   6.635  -1.122 -0.0983 -2.2360 -1.1990
  870MOL0     H20027   6.014   6.658  -1.075  0.2842 -0.6775  0.7550
  870MOL0     H20028   5.856   6.426  -0.972  1.4829 -2.4930  0.6295
  870MOL0     H20029   6.012   6.415  -1.001 -0.7740 -1.5620  0.1192
  870MOL0     H20030   5.940   6.464  -1.279 -2.3050  1.2108  0.2256
  870MOL0     H20031   5.792   6.430  -1.206  0.0835 -0.4948 -0.8785
  870MOL0     H20032   5.883   6.218  -1.288 -1.1280 -0.2722  1.1443
  870MOL0     H20033   6.041   6.242  -1.211  0.4930  1.2487 -0.6455
  870MOL0     H20034   5.792   6.226  -1.041 -0.8995 -0.1822 -1.3456
  870MOL0     H20035   5.955   6.174  -0.997 -1.4669 -1.5710  1.3698
  870MOL0     H20036   5.912   6.006  -1.214  1.6588  1.6196  1.9793
  870MOL0     H20037   5.736   6.038  -1.164 -0.1958 -0.9909  0.0665
  870MOL0     H20038   5.833   5.982  -0.936  1.6360  1.1701  0.2720
  870MOL0     H20039   5.977   5.919  -1.012 -0.5627  1.5746 -2.1149
  870MOL0     H20040   5.780   6.710  -0.677 -1.7864  4.9273  0.7498
  870MOL0     H20041   5.796   6.790  -0.419  1.8452 -1.7409  2.6223
  870MOL0     H20042   5.898   6.691   0.040  0.0082 -1.7470  0.8650
  870MOL0     H20043   5.985   6.699   0.243 -0.8284  1.3545  0.1670
  870MOL0     H20044   5.705   6.996   1.285 -3.4604  0.7078 -0.9831
  870MOL0     H20045   5.500   7.125   1.301 -1.1814 -0.2028  0.1314
  870MOL0     H20046   5.363   7.450   1.646  1.2558 -2.7181 -2.4604
  870MOL0     H20047   5.198   7.598   1.736  0.7741  1.8930  0.5561
  870MOL0     H20048   5.194   7.976   1.598 -0.7902  1.7853 -0.0573
  870MOL0     H20049   5.024   7.984   1.648  0.5525 -0.7918 -0.4808
  870MOL0     H20050   5.205   8.032   1.832  2.7103 -2.3844 -0.8512
  870MOL0     H20051   5.207   7.868   1.838 -0.5146 -0.0668 -0.9232
  870MOL0     H20052   5.034   7.973   1.991  1.2725 -0.2312 -0.4291
  870MOL0     H20053   4.943   8.039   1.863  2.3336  1.8117  3.7143
  870MOL0     H20054   4.865   7.818   1.795 -1.7252 -4.6452  2.4493
  870MOL0     H20055   4.838   7.859   1.959 -1.0166 -2.7389  0.4684
  870MOL0     H20056   5.121   7.559   2.051 -0.7498 -0.3955  2.9468
  870MOL0     H20057   5.185   7.821   1.377  1.0021 -1.5139 -2.3669
  870MOL0     H20058   5.309   7.642   1.171  2.8101 -0.9989 -1.8978
  870MOL0     H20059   5.349   7.813   1.230 -1.2296 -0.6680 -2.0360
  870MOL0     H20060   5.474   7.684   1.221  0.0763 -1.5487 -1.1203
  871MOL0     O20061   0.357   3.354   8.743  0.4868 -0.1788  0.0811
  871MOL0     C20062   0.239   3.360   8.758  0.1464 -0.2085 -0.2996
  871MOL0     O20063   0.156   3.246   8.748 -0.2321  0.1356  0.1631
  871MOL0     C20064   0.208   3.136   8.692 -0.6080 -1.5576  0.1434
  871MOL0     C20065   0.256   3.117   8.561  0.0071 -0.1029  0.4407
  871MOL0     C20066   0.329   3.005   8.525 -0.2323  0.1792  0.0469
  871MOL0     C20067   0.334   2.891   8.607  0.4780  0.3756 -0.0584
  871MOL0     O20068   0.378   2.766   8.579  0.2978 -0.6405 -0.5230
  871MOL0     C20069   0.387   2.730   8.441 -0.1712 -0.7674  0.5073
  871MOL0     C20070   0.382   2.584   8.422  0.4609 -0.5475  0.1094
  871MOL0     C20071   0.256   2.526   8.479  0.6815  0.3942 -0.1310
  871MOL0     C20072   0.252   2.369   8.465 -0.6992 -0.0620 -0.6901
  871MOL0     C20073   0.109   2.310   8.478 -0.8947 -0.1645 -0.2219
  871MOL0     C20074   0.105   2.170   8.450 -0.7247 -0.9847 -0.0249
  871MOL0     C20075  -0.022   2.096   8.466  0.2486 -0.7478  0.1059
  871MOL0     C20076   0.004   1.944   8.447  0.1734 -0.4118 -0.3575
  871MOL0     N20077  -0.119   1.871   8.425  0.3149 -0.1564  0.4440
  871MOL0     C20078  -0.245   1.909   8.446  0.3083  0.2222  0.2456
  871MOL0     C20079  -0.325   1.798   8.417  0.2801 -0.2977  0.6586
  871MOL0     C20080  -0.477   1.789   8.436 -0.7695 -0.6402 -0.5486
  871MOL0     C20081  -0.523   1.707   8.564 -0.0475 -0.5669  0.5088
  871MOL0     C20082  -0.677   1.683   8.566 -0.3050  0.3177  0.4657
  871MOL0     C20083  -0.760   1.806   8.610  0.0942 -0.5678 -0.0698
  871MOL0     O20084  -0.900   1.794   8.581  0.2287  0.2334 -0.0707
  871MOL0     C20085  -0.989   1.719   8.662 -0.4655 -0.0390  0.1284
  871MOL0     C20086  -1.060   1.770   8.774 -0.1487  0.5207 -0.1036
  871MOL0     C20087  -1.160   1.691   8.834  0.2449 -0.4187 -0.0296
  871MOL0     C20088  -1.244   1.769   8.935 -0.4228 -0.0344  0.4784
  871MOL0     C20089  -1.197   1.561   8.782 -0.5747 -0.0492 -0.4541
  871MOL0     C20090  -1.305   1.467   8.822  1.2754  0.5712  1.2983
  871MOL0     O20091  -1.336   1.353   8.749  0.0030  0.2810  0.0915
  871MOL0     C20092  -1.448   1.272   8.781  0.7799 -0.2068  0.2155
  871MOL0     C20093  -1.440   1.156   8.859 -1.2979  0.4708  0.0772
  871MOL0     C20094  -1.557   1.084   8.898  0.2801  0.3068  0.8032
  871MOL0     C20095  -1.686   1.125   8.857  0.7967  0.1443 -0.2167
  871MOL0     O20096  -1.799   1.055   8.890  0.1230  0.5211 -0.0003
  871MOL0     C20097  -1.843   0.982   8.776  0.0896 -0.3732 -0.3647
  871MOL0     C20098  -1.993   0.926   8.804 -0.7629 -0.2262  0.0236
  871MOL0     C20099  -2.058   0.859   8.676  0.5382  0.6551 -0.2294
  871MOL0     C20100  -2.196   0.808   8.702  0.1600 -0.3685  0.1095
  871MOL0     C20101  -2.286   0.796   8.573 -0.5595 -0.1463  0.4933
  871MOL0     C20102  -2.347   0.927   8.524 -0.5733  0.1885 -0.4987
  871MOL0     C20103  -2.443   0.893   8.404 -0.6581  0.1385 -0.8004
  871MOL0     C20104  -2.485   1.026   8.347  0.3562  0.0107  0.0284
  871MOL0    Cl20105  -2.531   1.147   8.478 -0.2045  0.3203 -0.3703
  871MOL0     C20106  -1.691   1.235   8.767  0.0742  0.0392  0.1078
  871MOL0     C20107  -1.575   1.305   8.731  0.1138 -0.5758  0.5711
  871MOL0     O20108  -1.369   1.489   8.926 -0.1120  0.2185 -0.4730
  871MOL0     C20109  -1.116   1.515   8.679  0.1588  0.3215 -0.1882
  871MOL0     C20110  -1.025   1.589   8.611 -0.4273 -0.9496 -0.2444
  871MOL0     N20111  -0.246   1.699   8.388 -0.0011 -0.0969  0.0477
  871MOL0     N20112  -0.130   1.749   8.386  0.1571  0.8701  0.4292
  871MOL0     C20113   0.286   2.911   8.744  0.0290  0.3979  0.1228
  871MOL0     C20114   0.226   3.030   8.778  0.1306  0.6974  0.9117
  871MOL0     C20115   0.190   3.492   8.802  0.8070  0.3588  0.9083
  871MOL0     C20116   0.258   3.600   8.740  0.1012  0.1644 -0.0398
  871MOL0     C20117   0.219   3.730   8.778  0.5033 -0.1247 -0.0991
  871MOL0     C20118   0.128   3.752   8.870 -0.4822  0.2999  0.3522
  871MOL0     O20119   0.101   3.886   8.890  0.7988 -0.2705  0.3130
  871MOL0     C20120  -0.023   3.927   8.953 -0.5293  0.9664 -0.1181
  871MOL0     C20121  -0.045   4.073   8.959  0.7690  0.8652 -0.8123
  871MOL0     C20122  -0.042   4.143   8.822 -0.3076  0.5196  0.1125
  871MOL0     C20123   0.107   4.182   8.772  0.9508 -0.3808 -0.0281
  871MOL0     C20124   0.085   4.279   8.661  0.4116 -0.1013 -0.1907
  871MOL0     C20125   0.056   4.365   8.580 -0.1862  0.4494  1.5351
  871MOL0     C20126   0.057   3.644   8.927 -0.2201  1.5153  0.0843
  871MOL0     C20127   0.095   3.518   8.900  0.3134  0.0300  0.0106
  871MOL0     C20128   0.028   3.397   8.980  0.6610 -0.1915  0.2097
  871MOL0     H20129   0.250   3.200   8.491 -0.0704 -1.3104 -1.0291
  871MOL0     H20130   0.369   2.999   8.424 -4.8144  1.2544 -2.0814
  871MOL0     H20131   0.484   2.767   8.406 -0.7855 -0.3916 -0.8238
  871MOL0     H20132   0.314   2.785   8.382 -0.7561  0.1109  1.9872
  871MOL0     H20133   0.382   2.562   8.314 -2.1769 -0.8824  0.1002
  871MOL0     H20134   0.474   2.543   8.465 -0.5777  0.3616  3.4770
  871MOL0     H20135   0.253   2.540   8.588  0.0154  1.5543 -0.2800
  871MOL0     H20136   0.162   2.559   8.434  1.7677 -0.5615 -3.3352
  871MOL0     H20137   0.295   2.338   8.370  3.1985 -1.4013  1.3026
  871MOL0     H20138   0.317   2.339   8.548 -0.3290  1.2541 -0.4858
  871MOL0     H20139   0.036   2.371   8.425  1.4502  3.0639 -0.0084
  871MOL0     H20140   0.086   2.316   8.585 -2.1000 -1.9792 -0.3263
  871MOL0     H20141   0.134   2.148   8.347  0.0135 -2.3952  0.4695
  871MOL0     H20142   0.190   2.118   8.494  1.8524 -1.1815 -4.5350
  871MOL0     H20143  -0.093   2.148   8.401 -1.4992  1.8015  3.7035
  871MOL0     H20144  -0.060   2.137   8.560  3.6734  3.9605 -0.1825
  871MOL0     H20145   0.069   1.918   8.364 -0.0589 -2.4395  0.0405
  871MOL0     H20146   0.035   1.907   8.545 -1.7120  0.1647  0.5090
  871MOL0     H20147  -0.284   2.006   8.477 -3.5031 -1.1862  0.3146
  871MOL0     H20148  -0.531   1.740   8.353 -1.9206 -1.0588  0.4167
  871MOL0     H20149  -0.511   1.893   8.445  1.0156  0.1758 -2.4103
  871MOL0     H20150  -0.477   1.608   8.551 -1.9581 -1.7478  2.1087
  871MOL0     H20151  -0.473   1.752   8.650  5.3284  2.6768 -3.6376
  871MOL0     H20152  -0.711   1.649   8.468  0.3838 -1.7340  0.9046
  871MOL0     H20153  -0.697   1.607   8.642 -1.3561  0.3385  0.2236
  871MOL0     H20154  -0.751   1.835   8.715  1.5805  1.2314 -0.6417
  871MOL0     H20155  -0.723   1.889   8.549 -1.7053  0.3949  0.0763
  871MOL0     H20156  -1.044   1.872   8.807  0.8728  1.1046 -2.2739
  871MOL0     H20157  -1.337   1.791   8.882 -0.2230 -0.5406 -0.0921
  871MOL0     H20158  -1.197   1.860   8.974 -1.5828  0.5940  0.4577
  871MOL0     H20159  -1.268   1.707   9.022 -0.6688 -1.3039 -0.4586
  871MOL0     H20160  -1.342   1.121   8.891 -1.6827 -0.5554  0.1767
  871MOL0     H20161  -1.554   0.993   8.956 -1.1555 -1.9062 -2.2939
  871MOL0     H20162  -1.852   1.050   8.691  0.2619  0.5138  0.3164
  871MOL0     H20163  -1.779   0.895   8.759  0.2766 -0.2522 -0.2855
  871MOL0     H20164  -2.001   0.861   8.891  0.9138 -0.5506 -0.0327
  871MOL0     H20165  -2.048   1.015   8.837  1.2309  1.2374 -0.3575
  871MOL0     H20166  -1.993   0.781   8.637  1.7094  0.3563  2.1197
  871MOL0     H20167  -2.060   0.939   8.601  0.0391  1.4303  0.5864
  871MOL0     H20168  -2.239   0.877   8.775 -1.4022  1.5072 -2.4268
  871MOL0     H20169  -2.188   0.717   8.764 -1.3220  1.0450  2.5417
  871MOL0     H20170  -2.235   0.754   8.486 -0.4607 -0.5400  0.7412
  871MOL0     H20171  -2.373   0.733   8.593 -0.0082 -1.0975 -0.0591
  871MOL0     H20172  -2.261   0.982   8.487 -0.1786 -0.5548 -0.6946
  871MOL0     H20173  -2.400   0.982   8.604 -2.9657 -0.6783 -1.3886
  871MOL0     H20174  -2.527   0.830   8.438  0.5409 -1.1841 -0.1669
  871MOL0     H20175  -2.376   0.832   8.343  1.4907  0.2519  1.3048
  871MOL0     H20176  -2.570   1.003   8.283 -1.1009 -0.3203  1.9759
  871MOL0     H20177  -2.408   1.066   8.280  0.3793  0.1280  0.1237
  871MOL0     H20178  -1.785   1.269   8.725  0.6504  0.8701 -0.5574
  871MOL0     H20179  -1.589   1.382   8.657 -1.4597  1.7583  3.1112
  871MOL0     H20180  -1.118   1.410   8.650  0.9487  0.2410  0.0155
  871MOL0     H20181  -0.970   1.545   8.528  0.1701 -0.1014 -0.3189
  871MOL0     H20182   0.298   2.825   8.808  0.6470 -2.1453 -3.1656
  871MOL0     H20183   0.188   3.051   8.878 -1.0979  1.9014  0.2301
  871MOL0     H20184   0.333   3.594   8.662 -0.8716 -0.8409 -0.9334
  871MOL0     H20185   0.285   3.807   8.737  0.7744 -0.5438 -0.4590
  871MOL0     H20186  -0.110   3.888   8.901 -1.8642  2.7672  0.6408
  871MOL0     H20187  -0.021   3.886   9.055  0.0910 -1.1097 -0.9047
  871MOL0     H20188   0.035   4.116   9.020  0.0149  1.0022  0.0878
  871MOL0     H20189  -0.133   4.095   9.020 -0.9092 -0.0836 -2.7754
  871MOL0     H20190  -0.074   4.067   8.750 -0.2408 -1.7512  2.3375
  871MOL0     H20191  -0.117   4.222   8.826 -2.6919 -1.6291  0.4934
  871MOL0     H20192   0.166   4.093   8.746  1.2076 -0.1943 -0.0901
  871MOL0     H20193   0.155   4.236   8.854  1.1289 -0.6026  0.0152
  871MOL0     H20194   0.031   4.436   8.505  2.2747  0.7903  0.9471
  871MOL0     H20195  -0.028   3.660   8.993 -1.7011  1.8469 -1.8064
  871MOL0     H20196  -0.074   3.385   8.942  1.2952  0.0223 -1.6722
  871MOL0     H20197   0.071   3.297   8.987 -0.1412 -0.5240  0.5340
  871MOL0     H20198   0.010   3.417   9.086 -0.7990 -0.3529  0.0192
  872MOL0     O20199   5.378   7.829   5.985 -0.3377 -0.2991 -0.1709
  872MOL0     C20200   5.419   7.831   5.872  1.0186  0.5250  0.3345
  872MOL0     O20201   5.443   7.944   5.796  0.4906 -0.5655  0.7417
  872MOL0     C20202   5.399   8.067   5.840  0.3911  0.7246 -0.5018
  872MOL0     C20203   5.481   8.159   5.887 -0.6937 -1.1844 -0.3022
  872MOL0     C20204   5.433   8.297   5.896 -0.5461  0.4133  0.8553
  872MOL0     C20205   5.303   8.329   5.867  0.4788  0.5565  0.1195
  872MOL0     O20206   5.247   8.454   5.873  0.2771  0.0298  0.4540
  872MOL0     C20207   5.197   8.501   6.005  0.2435 -0.4941  0.4513
  872MOL0     C20208   5.058   8.436   6.029 -0.5991  0.2294  0.0600
  872MOL0     C20209   4.982   8.505   6.134  0.1851  0.3989 -0.2346
  872MOL0     C20210   5.064   8.550   6.256 -1.1757  0.0405  1.5197
  872MOL0     C20211   4.991   8.556   6.386  0.3630  0.1624  0.2280
  872MOL0     C20212   4.897   8.676   6.382  0.0498  0.4658 -0.0830
  872MOL0     C20213   4.883   8.737   6.528  0.7004 -0.0497  0.5039
  872MOL0     C20214   4.825   8.641   6.641 -0.1437  0.4039  0.5293
  872MOL0     N20215   4.747   8.709   6.745 -0.1948  0.3000  0.2324
  872MOL0     C20216   4.779   8.835   6.807 -0.0403  1.8668  0.1232
  872MOL0     C20217   4.660   8.871   6.868 -0.5312  0.1345 -1.0654
  872MOL0     C20218   4.646   8.995   6.959 -0.4292  0.0113  0.8648
  872MOL0     C20219   4.500   9.010   7.012  0.4775 -0.4472  0.0179
  872MOL0     C20220   4.494   9.121   7.112  0.1428  0.4493 -0.1975
  872MOL0     C20221   4.386   9.098   7.219 -0.4366 -0.2672 -1.0237
  872MOL0     O20222   4.255   9.083   7.154 -0.1713  0.0982 -0.4543
  872MOL0     C20223   4.169   9.187   7.166 -0.2129 -0.5130 -0.0847
  872MOL0     C20224   4.127   9.215   7.292  0.6783  0.0767 -1.2430
  872MOL0     C20225   4.049   9.332   7.316 -0.1639 -1.1711  0.0631
  872MOL0     C20226   3.993   9.362   7.457 -0.5461  0.7122  0.1622
  872MOL0     C20227   4.033   9.427   7.201  0.4925 -0.4554 -0.3194
  872MOL0     C20228   3.952   9.556   7.204 -0.2906  0.3881  0.2559
  872MOL0     O20229   3.943   9.629   7.080 -0.8582 -0.1037 -0.0957
  872MOL0     C20230   3.887   9.760   7.098 -0.3409  0.4881 -1.2345
  872MOL0     C20231   3.767   9.785   7.043 -0.6347  0.3326 -0.3349
  872MOL0     C20232   3.697   9.910   7.063 -0.5605  0.4564  0.5868
  872MOL0     C20233   3.759  10.014   7.133 -0.3350  0.3077 -0.3958
  872MOL0     O20234   3.699  10.136   7.143  0.4997  0.3356 -0.5390
  872MOL0     C20235   3.780  10.254   7.101 -0.4691 -0.1902 -0.0585
  872MOL0     C20236   3.685  10.374   7.076  0.2950  1.1685  0.2394
  872MOL0     C20237   3.755  10.507   7.032  0.7874  0.6563  0.5510
  872MOL0     C20238   3.875  10.542   7.119 -0.2201 -0.3404 -0.2083
  872MOL0     C20239   3.925  10.676   7.059  0.4324  0.7344 -0.2957
  872MOL0     C20240   4.057  10.715   7.132 -0.4262  0.4524  0.0347
  872MOL0     C20241   4.101  10.862   7.129  0.2228 -1.1334 -0.0876
  872MOL0     C20242   4.137  10.911   6.993 -0.4975  0.1831  0.3800
  872MOL0    Cl20243   4.211  11.067   7.012 -0.4906 -0.5362 -0.4339
  872MOL0     C20244   3.881   9.982   7.207  0.2806  0.8845  0.7070
  872MOL0     C20245   3.946   9.859   7.176  0.6398  0.5751 -0.5572
  872MOL0     O20246   3.892   9.584   7.303  0.1438  0.6469  0.1793
  872MOL0     C20247   4.077   9.382   7.073  0.0988 -0.2940 -0.2560
  872MOL0     C20248   4.150   9.265   7.054  0.5639  0.9388  0.1058
  872MOL0     N20249   4.568   8.768   6.843 -1.0236  0.1782  0.2041
  872MOL0     N20250   4.621   8.680   6.777 -0.3977 -0.3852  0.4508
  872MOL0     C20251   5.221   8.227   5.813  0.0975  0.5094  0.2613
  872MOL0     C20252   5.265   8.097   5.810 -0.0691 -0.9253  0.1025
  872MOL0     C20253   5.420   7.707   5.782  0.2835 -0.2157 -0.4060
  872MOL0     C20254   5.500   7.708   5.661  0.0990 -0.3633 -0.1764
  872MOL0     C20255   5.508   7.600   5.580 -0.3342 -0.5032  0.0701
  872MOL0     C20256   5.416   7.492   5.604 -0.0129 -0.0030  0.5664
  872MOL0     O20257   5.414   7.381   5.508 -0.1423 -0.1153 -0.6254
  872MOL0     C20258   5.301   7.289   5.500 -0.2940 -0.2944 -0.3015
  872MOL0     C20259   5.279   7.243   5.364  0.0691 -0.2921  0.6484
  872MOL0     C20260   5.159   7.150   5.386 -0.2505 -0.5258  0.7583
  872MOL0     C20261   5.094   7.142   5.243  0.7860  0.5784 -0.1201
  872MOL0     C20262   4.975   7.057   5.262  0.2870 -0.1751  0.9750
  872MOL0     C20263   4.874   6.986   5.269 -0.2411  0.4093  0.9955
  872MOL0     C20264   5.333   7.496   5.712  0.0446  0.2077  0.2972
  872MOL0     C20265   5.332   7.600   5.805 -0.0789 -0.1058 -0.2223
  872MOL0     C20266   5.234   7.580   5.920  0.6688  0.3122  0.7576
  872MOL0     H20267   5.589   8.153   5.890 -0.0232  3.7049 -3.3393
  872MOL0     H20268   5.493   8.370   5.950  1.4672 -0.7401  0.2825
  872MOL0     H20269   5.184   8.609   6.006 -0.1384 -0.5077  2.7966
  872MOL0     H20270   5.260   8.460   6.084  0.4093 -0.4296  0.3514
  872MOL0     H20271   5.011   8.441   5.930 -0.0040  1.6432 -0.1639
  872MOL0     H20272   5.065   8.328   6.048 -0.5354  0.8070  4.1872
  872MOL0     H20273   4.933   8.598   6.102 -0.2506 -0.3447 -1.8113
  872MOL0     H20274   4.901   8.438   6.166  1.4276 -3.6921 -4.5635
  872MOL0     H20275   5.134   8.470   6.281 -2.4922 -1.8931 -0.5526
  872MOL0     H20276   5.116   8.642   6.230  0.4935 -1.1967  0.2855
  872MOL0     H20277   5.056   8.571   6.472  0.2194  0.0739  0.3512
  872MOL0     H20278   4.923   8.472   6.398  2.9624 -2.0521  0.3982
  872MOL0     H20279   4.928   8.756   6.314  1.0344 -0.9618 -1.3891
  872MOL0     H20280   4.797   8.664   6.340  0.2461  0.0010 -0.4278
  872MOL0     H20281   4.817   8.824   6.534 -0.1470 -0.5477 -1.1448
  872MOL0     H20282   4.985   8.758   6.563  0.8181  1.8988 -0.8520
  872MOL0     H20283   4.760   8.571   6.588  0.7042  0.3088 -0.4260
  872MOL0     H20284   4.906   8.577   6.677 -0.1207 -0.1882 -0.5201
  872MOL0     H20285   4.872   8.890   6.807 -0.3885  2.4891  1.4514
  872MOL0     H20286   4.677   9.079   6.897 -1.3688 -1.1381 -1.2914
  872MOL0     H20287   4.724   8.980   7.033 -0.0871 -1.1146  0.2953
  872MOL0     H20288   4.428   9.025   6.930  0.7382 -0.7977 -0.2771
  872MOL0     H20289   4.455   8.920   7.056  1.0970  0.4347  2.6226
  872MOL0     H20290   4.587   9.143   7.165 -1.1567 -1.2100  3.0538
  872MOL0     H20291   4.463   9.209   7.054 -2.4292  0.8591  1.6302
  872MOL0     H20292   4.409   9.003   7.270  1.6406  0.6766 -0.0641
  872MOL0     H20293   4.380   9.164   7.306  2.0053 -3.9780  2.3249
  872MOL0     H20294   4.152   9.154   7.378  0.3377  1.3382 -0.2298
  872MOL0     H20295   4.045   9.441   7.513  3.8205 -1.3126 -0.6269
  872MOL0     H20296   3.996   9.267   7.512 -3.0364 -1.2236 -2.7477
  872MOL0     H20297   3.887   9.383   7.441 -0.8312 -1.2821 -0.8154
  872MOL0     H20298   3.717   9.716   6.975 -2.2896  0.8203  0.3275
  872MOL0     H20299   3.610   9.924   7.000  0.2888  0.2476 -0.6780
  872MOL0     H20300   3.848  10.283   7.181  0.4871  0.8670 -1.2224
  872MOL0     H20301   3.828  10.232   7.005 -0.2074  1.5909 -0.3777
  872MOL0     H20302   3.624  10.351   6.987  1.7319  3.0474 -1.3169
  872MOL0     H20303   3.629  10.382   7.169  1.5351  0.3928  1.0885
  872MOL0     H20304   3.681  10.587   7.027  1.0094  0.8612  0.5111
  872MOL0     H20305   3.802  10.501   6.933  1.0287  4.1073  0.3227
  872MOL0     H20306   3.958  10.471   7.116 -0.2409 -0.4187  0.7958
  872MOL0     H20307   3.856  10.562   7.225  0.3835 -3.5306  0.5794
  872MOL0     H20308   3.938  10.676   6.950 -1.1339 -1.4869 -0.5669
  872MOL0     H20309   3.852  10.752   7.089  1.3627  0.1997  3.8683
  872MOL0     H20310   4.140  10.646   7.113 -0.6570  0.0345  0.5118
  872MOL0     H20311   4.049  10.705   7.241 -1.7639 -1.3025 -0.1855
  872MOL0     H20312   4.188  10.874   7.195 -0.9109  1.7711  1.0292
  872MOL0     H20313   4.026  10.938   7.150 -1.0480 -1.9377 -1.5865
  872MOL0     H20314   4.047  10.920   6.932 -0.2904  0.1154  0.0605
  872MOL0     H20315   4.214  10.852   6.941 -2.4815 -0.3208 -2.1959
  872MOL0     H20316   3.936  10.054   7.266 -1.1077  0.5927  2.4370
  872MOL0     H20317   4.031   9.854   7.244 -0.2728  2.2154  0.8023
  872MOL0     H20318   4.054   9.431   6.980  3.1356 -2.0630 -2.0848
  872MOL0     H20319   4.195   9.241   6.958 -0.2694  0.4858 -0.1831
  872MOL0     H20320   5.115   8.237   5.796 -0.7296 -2.5073  2.6707
  872MOL0     H20321   5.212   8.009   5.775 -2.2495 -0.0272  0.9659
  872MOL0     H20322   5.575   7.786   5.653  1.1950 -1.0561  2.3974
  872MOL0     H20323   5.576   7.602   5.496 -0.1932 -0.4825  0.1828
  872MOL0     H20324   5.324   7.205   5.567  0.8099  0.6592  0.5645
  872MOL0     H20325   5.211   7.341   5.534 -0.4414 -0.8738  0.2093
  872MOL0     H20326   5.364   7.186   5.326  1.2992  1.3432  0.8246
  872MOL0     H20327   5.260   7.329   5.298  1.8929 -0.5691 -0.3059
  872MOL0     H20328   5.189   7.055   5.431  1.9002  0.3331  1.2581
  872MOL0     H20329   5.089   7.196   5.457 -0.6646 -0.2957  0.2090
  872MOL0     H20330   5.166   7.098   5.173 -0.0244 -2.3719  0.7362
  872MOL0     H20331   5.063   7.241   5.207  0.7883  0.4685 -0.4257
  872MOL0     H20332   4.796   6.912   5.265 -1.7744  1.8710  2.1634
  872MOL0     H20333   5.264   7.412   5.719  2.7801 -2.4417 -1.8056
  872MOL0     H20334   5.289   7.546   6.008 -1.1074 -2.3796  0.9504
  872MOL0     H20335   5.184   7.673   5.946 -1.0306 -0.6864  1.2203
  872MOL0     H20336   5.151   7.513   5.896  0.5955  0.6303  0.0980
  873MOL0     O20337   9.742   5.081   2.714 -0.0185  0.1762 -0.3105
  873MOL0     C20338   9.656   4.992   2.706 -0.9557  0.0935  0.0708
  873MOL0     O20339   9.518   5.009   2.738 -0.2187 -0.9813 -0.0559
  873MOL0     C20340   9.453   5.129   2.710 -0.7277  0.0430  0.3088
  873MOL0     C20341   9.501   5.224   2.621 -0.0650  0.1800  0.0381
  873MOL0     C20342   9.425   5.338   2.586  0.3083  0.2926  1.3656
  873MOL0     C20343   9.299   5.365   2.646 -0.6521  0.1611 -0.4089
  873MOL0     O20344   9.230   5.478   2.630 -0.4878  0.5151  0.0076
  873MOL0     C20345   9.286   5.597   2.573  0.2706 -0.1848  0.0081
  873MOL0     C20346   9.192   5.719   2.594 -0.1756 -0.4905 -0.3350
  873MOL0     C20347   9.052   5.674   2.546  0.4710 -0.0169 -0.2659
  873MOL0     C20348   9.041   5.625   2.403 -0.2835 -0.9228 -0.6546
  873MOL0     C20349   8.901   5.592   2.361  0.0651  0.1775 -0.7183
  873MOL0     C20350   8.782   5.687   2.408 -0.9074 -1.1255  0.1761
  873MOL0     C20351   8.652   5.621   2.361 -0.4312 -0.1732 -0.3864
  873MOL0     C20352   8.624   5.646   2.213 -0.5358 -0.6301  0.6944
  873MOL0     N20353   8.583   5.784   2.174  0.7779  0.9192  0.1264
  873MOL0     C20354   8.658   5.894   2.193 -0.2016  0.1446  0.6297
  873MOL0     C20355   8.581   6.000   2.156  0.8139 -0.3064  0.1862
  873MOL0     C20356   8.624   6.140   2.140  0.0193 -0.6595 -0.3436
  873MOL0     C20357   8.635   6.216   2.268 -0.7560  0.5863  0.3166
  873MOL0     C20358   8.506   6.290   2.307 -0.8170 -0.2353 -0.1612
  873MOL0     C20359   8.496   6.293   2.467  0.2559 -0.5049 -0.2635
  873MOL0     O20360   8.615   6.362   2.517  0.6887  0.5200 -0.0813
  873MOL0     C20361   8.650   6.352   2.653  0.5509  0.1673  0.1890
  873MOL0     C20362   8.769   6.417   2.689  0.4188  0.3778  0.5942
  873MOL0     C20363   8.803   6.412   2.824  0.5497 -0.2593  0.6247
  873MOL0     C20364   8.930   6.490   2.856  0.2652  0.5913 -0.5052
  873MOL0     C20365   8.737   6.345   2.923 -0.5973  0.2167 -0.4285
  873MOL0     C20366   8.767   6.320   3.064 -0.4800 -0.0464 -0.4903
  873MOL0     O20367   8.885   6.253   3.094  0.8586 -0.3033  0.2173
  873MOL0     C20368   8.903   6.202   3.219  0.1325  0.1409  0.6318
  873MOL0     C20369   8.922   6.284   3.332 -1.0565  0.9753 -0.2514
  873MOL0     C20370   8.946   6.218   3.453  0.2916  0.8878 -0.5315
  873MOL0     C20371   8.945   6.081   3.463 -0.3743 -0.2354  0.3229
  873MOL0     O20372   8.979   6.044   3.590  0.2668  1.4532 -0.3071
  873MOL0     C20373   9.027   5.909   3.611 -0.4553  0.8843  1.0184
  873MOL0     C20374   9.047   5.904   3.755  0.3121  0.2842 -0.4886
  873MOL0     C20375   9.089   5.766   3.790 -0.0281 -0.2855 -0.1813
  873MOL0     C20376   9.245   5.757   3.761 -1.0754 -0.4524 -0.6781
  873MOL0     C20377   9.320   5.660   3.850 -0.8416 -0.3710  0.5173
  873MOL0     C20378   9.285   5.518   3.806 -0.1286  0.1375  0.2409
  873MOL0     C20379   9.348   5.391   3.871  0.8480 -1.0580  0.5098
  873MOL0     C20380   9.500   5.394   3.847 -0.6313  0.0604 -0.1659
  873MOL0    Cl20381   9.596   5.281   3.958 -0.1404  0.0582 -0.1466
  873MOL0     C20382   8.927   6.010   3.353  0.2157 -0.0412  0.1069
  873MOL0     C20383   8.916   6.065   3.231 -0.3938  0.2726  0.3936
  873MOL0     O20384   8.688   6.360   3.147 -0.3103 -0.0989 -0.4974
  873MOL0     C20385   8.620   6.277   2.879 -0.0439  0.4232  0.0765
  873MOL0     C20386   8.574   6.278   2.747  0.0620 -0.7146  0.2987
  873MOL0     N20387   8.460   5.950   2.114  0.8317 -0.0163 -0.1449
  873MOL0     N20388   8.459   5.824   2.128  0.5905  0.6969 -0.0559
  873MOL0     C20389   9.251   5.268   2.735 -1.1255 -0.7385  1.1075
  873MOL0     C20390   9.325   5.152   2.759  0.1133 -1.1867  0.0150
  873MOL0     C20391   9.694   4.850   2.693  0.8418 -0.7316  1.3367
  873MOL0     C20392   9.804   4.821   2.617 -0.0932 -0.5926  0.3031
  873MOL0     C20393   9.847   4.694   2.592  0.2782  0.4698 -0.6821
  873MOL0     C20394   9.783   4.594   2.663  0.8901  0.0151  0.4673
  873MOL0     O20395   9.846   4.469   2.660  0.1726 -0.2255  0.0565
  873MOL0     C20396   9.769   4.352   2.700  0.6905 -0.9143  0.4598
  873MOL0     C20397   9.842   4.228   2.649 -0.1242  0.2765  0.2322
  873MOL0     C20398   9.745   4.113   2.606 -0.3878 -1.1379 -0.2308
  873MOL0     C20399   9.828   4.009   2.520  0.2863 -0.6763 -0.0504
  873MOL0     C20400   9.748   3.903   2.461  0.6752  0.5821  0.4317
  873MOL0     C20401   9.698   3.816   2.386  0.6685 -0.4515 -0.7566
  873MOL0     C20402   9.668   4.619   2.738  0.3971  1.4428  0.5055
  873MOL0     C20403   9.618   4.741   2.746 -0.3650  0.6589 -1.6862
  873MOL0     C20404   9.503   4.753   2.843 -0.2515 -0.5264  0.7660
  873MOL0     H20405   9.597   5.215   2.570 -1.6247 -0.8060 -3.0269
  873MOL0     H20406   9.465   5.410   2.515  2.0086  0.6571  2.6074
  873MOL0     H20407   9.293   5.575   2.466  1.1663  1.2320 -0.2592
  873MOL0     H20408   9.386   5.618   2.613  0.8870 -3.0587  0.2142
  873MOL0     H20409   9.198   5.757   2.696 -2.7406  0.0154 -0.3204
  873MOL0     H20410   9.245   5.795   2.535  0.9785  1.7334  3.2699
  873MOL0     H20411   9.020   5.589   2.607  3.0445  1.2156  3.1259
  873MOL0     H20412   8.993   5.764   2.566  3.2933  1.7297  0.8107
  873MOL0     H20413   9.077   5.714   2.351  2.5974 -0.3579  2.0267
  873MOL0     H20414   9.106   5.541   2.378  1.2319  0.1852 -0.5898
  873MOL0     H20415   8.878   5.496   2.409 -2.1603  0.2988 -1.3932
  873MOL0     H20416   8.892   5.576   2.253 -1.0128  2.0025 -0.9462
  873MOL0     H20417   8.785   5.688   2.517 -0.4505 -3.0360  0.2179
  873MOL0     H20418   8.795   5.791   2.376  2.2365 -1.8843 -1.3714
  873MOL0     H20419   8.556   5.645   2.407 -1.5700  0.0139 -2.7017
  873MOL0     H20420   8.678   5.517   2.383  1.9932  0.6670  1.0642
  873MOL0     H20421   8.713   5.636   2.150 -0.5051 -0.8192  0.7693
  873MOL0     H20422   8.545   5.578   2.180 -0.3188  0.2401 -1.8230
  873MOL0     H20423   8.766   5.904   2.194 -0.2862  4.2911 -3.0843
  873MOL0     H20424   8.551   6.185   2.071  0.7840 -1.0104 -1.4163
  873MOL0     H20425   8.724   6.151   2.096  0.4991  0.4781  0.9651
  873MOL0     H20426   8.675   6.147   2.343  1.8606 -2.8725 -3.8263
  873MOL0     H20427   8.708   6.298   2.262 -0.7422  1.0201  3.8735
  873MOL0     H20428   8.507   6.394   2.273  2.2488  0.6684  2.2701
  873MOL0     H20429   8.414   6.240   2.275 -0.6058 -0.0314 -1.1154
  873MOL0     H20430   8.402   6.343   2.493  2.0227  3.1629 -0.3070
  873MOL0     H20431   8.490   6.192   2.508 -0.9227 -0.9560 -1.4891
  873MOL0     H20432   8.825   6.467   2.611 -2.1544 -0.3842 -1.8859
  873MOL0     H20433   8.947   6.563   2.777 -1.7710  1.3795 -0.2746
  873MOL0     H20434   9.003   6.410   2.839  0.7901  0.5157  1.7868
  873MOL0     H20435   8.934   6.532   2.957 -0.6438  0.4946 -0.4235
  873MOL0     H20436   8.908   6.390   3.314 -1.0835  1.2669  1.3091
  873MOL0     H20437   8.946   6.285   3.538  2.0103 -0.5754  0.6878
  873MOL0     H20438   8.947   5.838   3.588  0.4627  0.0141  0.4486
  873MOL0     H20439   9.112   5.881   3.548 -3.6637 -2.1712 -2.4552
  873MOL0     H20440   9.107   5.980   3.805 -2.1321  1.1970  1.2343
  873MOL0     H20441   8.949   5.921   3.800  0.2992 -0.9730  0.0081
  873MOL0     H20442   9.028   5.691   3.740 -2.5508  1.6526 -0.2273
  873MOL0     H20443   9.085   5.752   3.898 -2.0507  4.0231  0.5297
  873MOL0     H20444   9.274   5.861   3.777 -1.0225 -0.8138  2.0873
  873MOL0     H20445   9.258   5.730   3.656 -0.0262 -2.6856 -0.0436
  873MOL0     H20446   9.426   5.687   3.838 -1.2456  1.7536  1.3118
  873MOL0     H20447   9.304   5.679   3.956  0.6536 -0.6651  0.8211
  873MOL0     H20448   9.312   5.505   3.701  0.2700  0.1000  0.3455
  873MOL0     H20449   9.179   5.492   3.805  0.0830 -1.0467 -2.7127
  873MOL0     H20450   9.305   5.296   3.840 -0.1604 -0.6394  0.6055
  873MOL0     H20451   9.338   5.398   3.980 -1.8833  1.4860  0.2256
  873MOL0     H20452   9.541   5.495   3.864  1.0495  0.8817 -6.5743
  873MOL0     H20453   9.523   5.364   3.745  1.3950  0.7810  0.0102
  873MOL0     H20454   8.923   5.902   3.349 -4.3609 -0.0618 -1.6726
  873MOL0     H20455   8.901   5.999   3.146 -2.4075 -0.3437  1.1638
  873MOL0     H20456   8.560   6.218   2.948  0.2727 -0.9274 -0.7656
  873MOL0     H20457   8.479   6.227   2.734  0.3821 -1.7083  1.7251
  873MOL0     H20458   9.152   5.282   2.777 -0.7646 -0.1245  1.7753
  873MOL0     H20459   9.298   5.079   2.834  1.7502 -1.7386  0.0834
  873MOL0     H20460   9.864   4.905   2.584 -1.0494 -0.9466 -2.6021
  873MOL0     H20461   9.930   4.666   2.529  0.5409 -0.1848 -0.0622
  873MOL0     H20462   9.747   4.351   2.807  3.3107  1.7271  1.1846
  873MOL0     H20463   9.672   4.371   2.652  0.0875  5.1392  3.0786
  873MOL0     H20464   9.915   4.191   2.722 -0.1444 -1.8870 -0.7715
  873MOL0     H20465   9.899   4.258   2.560 -1.2389 -2.1911 -1.4163
  873MOL0     H20466   9.703   4.062   2.693 -1.8926  0.4827  0.0468
  873MOL0     H20467   9.665   4.144   2.538 -1.2869 -1.9216  0.4503
  873MOL0     H20468   9.894   3.959   2.592  0.7204  2.7779  2.1944
  873MOL0     H20469   9.899   4.053   2.449  1.1441  0.6404  1.5505
  873MOL0     H20470   9.641   3.742   2.335 -0.1526 -1.3451  1.3572
  873MOL0     H20471   9.624   4.536   2.793  0.1178 -1.0493 -3.1408
  873MOL0     H20472   9.510   4.674   2.918 -1.2816 -1.7964 -0.4129
  873MOL0     H20473   9.512   4.846   2.899  0.7045 -1.0364  1.4755
  873MOL0     H20474   9.405   4.738   2.796  0.4253  0.9373 -1.2567
  874MOL0     O20475   4.577   5.545   9.970  0.1552 -0.6417 -0.4353
  874MOL0     C20476   4.504   5.465  10.027 -0.3412 -1.0011  0.0280
  874MOL0     O20477   4.396   5.409   9.962  0.3044 -0.0648 -1.1052
  874MOL0     C20478   4.354   5.451   9.842 -0.0156  0.4566  0.1185
  874MOL0     C20479   4.358   5.360   9.736  0.4349 -0.0124 -0.0580
  874MOL0     C20480   4.343   5.401   9.604  0.0617 -0.1535  0.4429
  874MOL0     C20481   4.322   5.538   9.582  0.0388 -0.3061 -1.2043
  874MOL0     O20482   4.306   5.605   9.466 -0.1377  0.7478  0.0913
  874MOL0     C20483   4.271   5.522   9.350 -0.6533  0.7989 -0.4348
  874MOL0     C20484   4.263   5.614   9.230 -0.0605  0.2304  0.0452
  874MOL0     C20485   4.143   5.578   9.138 -0.3169  0.1769 -0.7017
  874MOL0     C20486   4.116   5.704   9.050  0.5251  0.1326  0.7727
  874MOL0     C20487   3.972   5.698   8.994  0.1248  0.8933  0.6111
  874MOL0     C20488   3.943   5.836   8.923 -0.7413  0.1221  0.5915
  874MOL0     C20489   3.801   5.859   8.892  0.1513  1.1308  0.4172
  874MOL0     C20490   3.774   5.996   8.836 -0.4486 -0.6527  0.2994
  874MOL0     N20491   3.637   6.006   8.784 -0.3582  0.3904 -0.1738
  874MOL0     C20492   3.546   6.097   8.837 -0.1579  0.1929 -0.8811
  874MOL0     C20493   3.458   6.121   8.730  0.8877 -0.1991 -0.7532
  874MOL0     C20494   3.341   6.220   8.729  0.1387  0.4072  0.4616
  874MOL0     C20495   3.365   6.356   8.667 -0.6437  0.2815 -0.2872
  874MOL0     C20496   3.384   6.330   8.517 -0.4017  0.0770 -0.4060
  874MOL0     C20497   3.352   6.462   8.445 -0.3301  0.0986  0.6062
  874MOL0     O20498   3.415   6.457   8.322  0.2477  0.7001 -0.6919
  874MOL0     C20499   3.367   6.413   8.209  0.4645  0.5854 -0.1395
  874MOL0     C20500   3.233   6.432   8.171  0.9466  0.9231 -0.8412
  874MOL0     C20501   3.183   6.384   8.047  0.1654  0.4289  0.4185
  874MOL0     C20502   3.039   6.401   8.013  0.6276  0.2630  0.8500
  874MOL0     C20503   3.275   6.343   7.939  0.2447  0.1410  0.1161
  874MOL0     C20504   3.244   6.315   7.801  0.4199 -0.4691 -0.4907
  874MOL0     O20505   3.354   6.288   7.715 -0.4330 -0.2869  0.2828
  874MOL0     C20506   3.337   6.278   7.572 -0.8614  0.6151  0.7452
  874MOL0     C20507   3.233   6.228   7.503  0.8012 -0.1183 -0.1499
  874MOL0     C20508   3.227   6.214   7.368  0.2914 -0.4839  0.3585
  874MOL0     C20509   3.336   6.260   7.287  0.4189  0.3192 -0.5205
  874MOL0     O20510   3.348   6.259   7.151  0.6377  0.8192  0.2530
  874MOL0     C20511   3.318   6.131   7.080  0.4007 -0.4120  0.8693
  874MOL0     C20512   3.334   6.147   6.926  0.9088 -0.3365 -0.4212
  874MOL0     C20513   3.244   6.249   6.857 -0.2656  0.2382 -0.3126
  874MOL0     C20514   3.293   6.284   6.715 -0.1672  0.0491  0.3300
  874MOL0     C20515   3.215   6.382   6.639  0.8781  0.1287  0.3790
  874MOL0     C20516   3.077   6.403   6.700  0.1075  0.0160  0.4110
  874MOL0     C20517   2.987   6.509   6.613 -0.2812 -0.0553 -0.7822
  874MOL0     C20518   3.043   6.654   6.635  0.3430 -0.5313 -0.2590
  874MOL0    Cl20519   3.190   6.681   6.534 -0.0317 -0.1581  0.1216
  874MOL0     C20520   3.448   6.299   7.354  0.3156  0.0522 -0.3141
  874MOL0     C20521   3.452   6.301   7.497 -0.2862  0.0385 -0.2949
  874MOL0     O20522   3.123   6.308   7.771 -0.3030 -0.9998 -0.0752
  874MOL0     C20523   3.412   6.330   7.979  0.0634 -0.0065 -0.3956
  874MOL0     C20524   3.453   6.356   8.114 -0.0413  0.2706 -0.0171
  874MOL0     N20525   3.481   6.030   8.637 -0.6203  0.8958  0.6079
  874MOL0     N20526   3.590   5.966   8.665 -0.0596 -0.0534 -0.1525
  874MOL0     C20527   4.312   5.632   9.686  0.0177 -0.1669  0.2581
  874MOL0     C20528   4.325   5.588   9.820  0.1366  0.4733  0.8522
  874MOL0     C20529   4.529   5.426  10.168 -0.1363 -0.4161  0.0205
  874MOL0     C20530   4.434   5.339  10.221  0.8882 -1.0128 -0.1840
  874MOL0     C20531   4.434   5.330  10.360  0.7701  0.4692 -0.2413
  874MOL0     C20532   4.532   5.378  10.437 -0.7588  0.8449 -0.6690
  874MOL0     O20533   4.538   5.363  10.572 -0.0530  0.1883 -0.6757
  874MOL0     C20534   4.529   5.226  10.603 -0.8193 -0.1510  0.0269
  874MOL0     C20535   4.571   5.200  10.755 -0.1371  0.2222  0.5280
  874MOL0     C20536   4.725   5.216  10.793  0.7156  0.0133 -0.1696
  874MOL0     C20537   4.774   5.147  10.916  0.4383 -0.1365 -0.3922
  874MOL0     C20538   4.695   5.165  11.038 -0.3598 -0.1327 -0.1927
  874MOL0     C20539   4.611   5.183  11.123 -0.5520  0.6136 -0.1174
  874MOL0     C20540   4.634   5.441  10.372 -0.6875  0.3278  0.2011
  874MOL0     C20541   4.636   5.476  10.244  0.0199 -0.0735  0.8605
  874MOL0     C20542   4.759   5.567  10.213 -0.1956  0.0311  0.9814
  874MOL0     H20543   4.387   5.259   9.761 -1.8492 -0.8628 -0.6011
  874MOL0     H20544   4.357   5.326   9.527 -1.5827  1.9611 -2.0430
  874MOL0     H20545   4.178   5.465   9.359  0.5795 -1.4479 -1.4115
  874MOL0     H20546   4.351   5.451   9.328 -0.6786  0.8768 -0.7825
  874MOL0     H20547   4.243   5.712   9.275  0.8317  0.3333  0.2317
  874MOL0     H20548   4.352   5.618   9.167  0.1960 -3.1226  0.0180
  874MOL0     H20549   4.164   5.490   9.077 -0.0397 -0.1860 -0.0931
  874MOL0     H20550   4.051   5.557   9.192 -1.9443 -0.6459 -3.5773
  874MOL0     H20551   4.131   5.787   9.120 -2.5251 -0.7418  2.6621
  874MOL0     H20552   4.186   5.712   8.966 -2.6673  1.2252 -2.0095
  874MOL0     H20553   3.892   5.691   9.069 -0.8448  0.8231 -0.4078
  874MOL0     H20554   3.947   5.615   8.928 -2.0647  1.2798  0.8895
  874MOL0     H20555   3.983   5.913   8.990 -1.1616  2.0256 -1.2338
  874MOL0     H20556   4.010   5.834   8.836 -1.1330 -0.1378  0.2947
  874MOL0     H20557   3.733   5.835   8.974 -2.0020  0.5151 -1.4390
  874MOL0     H20558   3.774   5.784   8.817 -1.0008 -0.0976  2.0051
  874MOL0     H20559   3.785   6.070   8.916 -0.0588  0.7653 -1.0133
  874MOL0     H20560   3.848   6.018   8.759 -2.3705 -0.4017 -1.5603
  874MOL0     H20561   3.559   6.150   8.930 -1.4142  0.1661 -0.6668
  874MOL0     H20562   3.320   6.234   8.836 -1.7527 -3.4713  0.7759
  874MOL0     H20563   3.249   6.177   8.689 -1.4396  1.9963  2.1578
  874MOL0     H20564   3.276   6.417   8.685  0.4155  1.3370  1.6666
  874MOL0     H20565   3.444   6.418   8.708 -0.3910 -0.3028  0.1207
  874MOL0     H20566   3.482   6.283   8.504 -0.0540  0.8897 -0.7770
  874MOL0     H20567   3.323   6.246   8.483  1.1292 -1.8864  1.4429
  874MOL0     H20568   3.243   6.468   8.440 -0.3099  1.5958  1.2681
  874MOL0     H20569   3.378   6.547   8.509 -0.8567 -0.3331  1.4088
  874MOL0     H20570   3.163   6.480   8.238 -0.4743  0.8592 -2.2115
  874MOL0     H20571   2.985   6.442   8.099  1.3049 -0.4330  1.6199
  874MOL0     H20572   2.987   6.313   7.975 -0.2569  0.6486  1.1386
  874MOL0     H20573   3.041   6.486   7.944  1.2851  0.8653  1.5903
  874MOL0     H20574   3.156   6.171   7.554  2.5516 -2.2390  0.2802
  874MOL0     H20575   3.150   6.162   7.312 -0.5685  0.1944  0.8846
  874MOL0     H20576   3.397   6.069   7.122  0.1977 -1.9277 -0.8736
  874MOL0     H20577   3.219   6.094   7.106  0.5970 -0.0033  2.2747
  874MOL0     H20578   3.440   6.168   6.909  0.2621  4.4721  0.0915
  874MOL0     H20579   3.305   6.045   6.899 -4.5567  0.2746  1.8465
  874MOL0     H20580   3.240   6.339   6.918 -0.2617  0.2595 -0.3441
  874MOL0     H20581   3.140   6.214   6.857 -1.0338  2.3793  0.0330
  874MOL0     H20582   3.310   6.189   6.662  0.6480 -0.0346  0.7230
  874MOL0     H20583   3.393   6.326   6.724 -0.7437  1.7237 -0.6873
  874MOL0     H20584   3.259   6.476   6.672 -0.9366  0.9881  0.4517
  874MOL0     H20585   3.224   6.388   6.530  3.8570  3.5582  0.6279
  874MOL0     H20586   3.090   6.447   6.799 -0.6504 -0.4182  0.7156
  874MOL0     H20587   3.030   6.304   6.702 -0.1342  0.1339  0.6095
  874MOL0     H20588   2.885   6.514   6.652  0.5760 -1.2773  1.8279
  874MOL0     H20589   2.993   6.478   6.509  2.5718  2.0913 -1.4113
  874MOL0     H20590   3.060   6.675   6.741 -0.3409  0.6443 -0.3760
  874MOL0     H20591   2.973   6.732   6.605  0.6131 -0.8707 -1.8787
  874MOL0     H20592   3.539   6.325   7.301 -1.8713  0.8839 -4.0165
  874MOL0     H20593   3.546   6.326   7.546 -1.0244  0.2551  1.0446
  874MOL0     H20594   3.492   6.303   7.910  0.9445  0.3450  0.4507
  874MOL0     H20595   3.560   6.360   8.134 -0.1294 -1.4671  0.9719
  874MOL0     H20596   4.301   5.735   9.654 -0.8258 -0.3207  0.0400
  874MOL0     H20597   4.318   5.664   9.897  1.1999  3.0499 -1.4109
  874MOL0     H20598   4.352   5.279  10.182  1.1460 -2.4905  1.4491
  874MOL0     H20599   4.347   5.279  10.400  0.7378 -1.5873 -2.6468
  874MOL0     H20600   4.429   5.188  10.584 -1.2721 -0.2740  2.3487
  874MOL0     H20601   4.608   5.176  10.547  0.9992  3.0540 -0.5175
  874MOL0     H20602   4.546   5.095  10.775  2.1270 -0.6197 -0.7737
  874MOL0     H20603   4.505   5.268  10.811  0.6212  3.3580 -2.0785
  874MOL0     H20604   4.788   5.185  10.710  1.9341 -3.3787  1.8361
  874MOL0     H20605   4.746   5.324  10.799 -2.8621  0.7904  1.1488
  874MOL0     H20606   4.879   5.173  10.935  1.3403 -2.5122 -1.6207
  874MOL0     H20607   4.786   5.038  10.908  0.4025 -0.1840  0.1523
  874MOL0     H20608   4.524   5.195  11.185  0.5066  0.3691  1.4670
  874MOL0     H20609   4.713   5.483  10.434 -1.0622  2.8216 -0.8745
  874MOL0     H20610   4.843   5.498  10.214  0.0511  0.1660 -2.0230
  874MOL0     H20611   4.755   5.619  10.116  2.2117  1.2958  1.4981
  874MOL0     H20612   4.759   5.637  10.297 -1.8257  0.8104  0.3895
  875MOL0     O20613   2.967   4.407   6.814  0.3648 -0.1687  0.2208
  875MOL0     C20614   2.943   4.354   6.706  1.3031  0.4228 -0.0369
  875MOL0     O20615   3.015   4.246   6.648  0.3273 -0.4985 -0.4964
  875MOL0     C20616   3.106   4.172   6.716 -0.6546  0.5620  0.0300
  875MOL0     C20617   3.194   4.094   6.643 -0.1553 -0.4181 -0.0794
  875MOL0     C20618   3.295   4.016   6.709  0.1725  0.5338 -0.7545
  875MOL0     C20619   3.304   4.007   6.847  0.6697  0.7123 -0.2188
  875MOL0     O20620   3.416   3.933   6.913  0.1966 -0.2907 -0.4651
  875MOL0     C20621   3.412   3.897   7.057  0.1101 -0.7241  1.8143
  875MOL0     C20622   3.527   3.791   7.072  0.8043  0.2876 -1.0290
  875MOL0     C20623   3.485   3.654   7.019 -0.3081 -0.8363 -0.1318
  875MOL0     C20624   3.500   3.540   7.124  0.3528 -0.0038 -0.1096
  875MOL0     C20625   3.423   3.546   7.262  0.4491  0.1250  0.0959
  875MOL0     C20626   3.268   3.555   7.251 -0.0853 -1.0093  0.7230
  875MOL0     C20627   3.195   3.425   7.226 -0.2082 -0.0185 -0.1010
  875MOL0     C20628   3.053   3.419   7.276 -0.1191  0.2034  0.0659
  875MOL0     N20629   2.983   3.292   7.265  0.1140 -0.1178 -0.1060
  875MOL0     C20630   2.947   3.234   7.150  0.1218 -0.7036  0.7174
  875MOL0     C20631   2.870   3.130   7.194  0.3801 -0.0276  0.9445
  875MOL0     C20632   2.823   3.024   7.086  0.3704  0.7333 -0.7804
  875MOL0     C20633   2.715   3.076   6.998 -0.5420 -0.0696  0.5792
  875MOL0     C20634   2.567   3.048   7.054 -0.2120 -0.0317 -0.2164
  875MOL0     C20635   2.462   3.124   6.972  0.3349 -0.5373 -0.3866
  875MOL0     O20636   2.333   3.145   7.043 -0.5893 -0.0795  0.8359
  875MOL0     C20637   2.275   3.268   7.051 -0.2260  0.8456 -0.5317
  875MOL0     C20638   2.339   3.382   7.099 -0.2868  0.1741  0.3265
  875MOL0     C20639   2.275   3.506   7.082  0.7895  0.5877  0.1178
  875MOL0     C20640   2.354   3.626   7.111 -0.1641  0.1156 -0.9428
  875MOL0     C20641   2.146   3.516   7.032  0.2899  0.1011 -0.6568
  875MOL0     C20642   2.078   3.651   7.018 -0.4523 -0.2621 -0.5792
  875MOL0     O20643   2.011   3.659   6.912  0.0941 -0.0268  0.1528
  875MOL0     C20644   1.969   3.783   6.881 -0.0589 -0.5309  0.1141
  875MOL0     C20645   2.052   3.873   6.832 -0.9129 -0.0293  0.7672
  875MOL0     C20646   2.016   4.008   6.835  0.2447  0.8034  0.3012
  875MOL0     C20647   1.894   4.062   6.879 -0.4167 -0.2765  0.2798
  875MOL0     O20648   1.876   4.201   6.871 -0.3202 -0.3908  0.1753
  875MOL0     C20649   1.743   4.232   6.837  0.1806 -0.5565  0.4038
  875MOL0     C20650   1.692   4.178   6.702  0.1881 -0.9710 -0.9740
  875MOL0     C20651   1.787   4.217   6.583 -0.0553  0.9729 -1.1022
  875MOL0     C20652   1.758   4.363   6.536 -0.7708 -0.7562  0.5474
  875MOL0     C20653   1.875   4.440   6.477 -0.2449  0.2010  0.1229
  875MOL0     C20654   1.903   4.411   6.322 -0.3583 -0.1154 -0.3574
  875MOL0     C20655   1.932   4.258   6.298 -0.3615 -0.6527  0.8814
  875MOL0     C20656   1.947   4.255   6.138 -0.9317  0.5425 -0.2565
  875MOL0    Cl20657   2.028   4.099   6.095  0.3062  0.1608  0.3981
  875MOL0     C20658   1.811   3.967   6.941 -0.1914 -0.9495  0.1706
  875MOL0     C20659   1.844   3.830   6.932 -0.7202 -0.7477  0.3771
  875MOL0     O20660   2.080   3.726   7.112  0.3139 -0.0867 -0.1665
  875MOL0     C20661   2.078   3.396   6.990  0.5999  0.1524  0.4721
  875MOL0     C20662   2.146   3.271   6.990  0.6108 -0.4883 -1.2318
  875MOL0     N20663   2.840   3.146   7.328 -0.8570  0.2556 -0.4434
  875MOL0     N20664   2.911   3.238   7.372  0.1554 -0.5127  0.1982
  875MOL0     C20665   3.209   4.081   6.916 -0.2322 -0.8339 -0.3686
  875MOL0     C20666   3.113   4.157   6.858  1.0541 -0.1854  1.0581
  875MOL0     C20667   2.818   4.386   6.627 -0.2699 -0.6932  0.0677
  875MOL0     C20668   2.779   4.296   6.529 -0.3499  0.6439  0.2661
  875MOL0     C20669   2.661   4.309   6.455 -0.6200  0.6747  0.8175
  875MOL0     C20670   2.566   4.407   6.491 -0.3856  0.9720  0.2273
  875MOL0     O20671   2.446   4.405   6.418  0.2316 -0.0758  0.0126
  875MOL0     C20672   2.351   4.512   6.420 -0.3131 -0.3660 -0.3043
  875MOL0     C20673   2.304   4.550   6.275 -0.5683  0.3501  0.5026
  875MOL0     C20674   2.401   4.623   6.183 -0.2290 -0.2138  0.4124
  875MOL0     C20675   2.346   4.619   6.033 -0.1126  0.5145 -0.0732
  875MOL0     C20676   2.433   4.705   5.959 -0.3482  0.0561 -0.2465
  875MOL0     C20677   2.501   4.780   5.890 -0.3258  0.3238 -0.3724
  875MOL0     C20678   2.603   4.498   6.595  0.0207 -0.0073  0.0809
  875MOL0     C20679   2.724   4.491   6.662 -1.1572 -0.6256  0.7963
  875MOL0     C20680   2.760   4.598   6.761 -0.5626  1.2498 -0.1215
  875MOL0     H20681   3.206   4.108   6.536  0.0628  4.7527  0.3526
  875MOL0     H20682   3.369   3.973   6.643 -0.7017 -0.3163 -1.2167
  875MOL0     H20683   3.314   3.859   7.086 -0.4172 -0.0123  1.0308
  875MOL0     H20684   3.433   3.988   7.113  4.5120  0.5528 -1.3789
  875MOL0     H20685   3.621   3.818   7.024  2.4194 -3.0470 -0.0515
  875MOL0     H20686   3.546   3.775   7.179  1.0237  0.5497 -1.0280
  875MOL0     H20687   3.384   3.666   6.978 -0.5351  0.5866  0.7887
  875MOL0     H20688   3.543   3.637   6.927 -2.8986  2.5652 -2.6343
  875MOL0     H20689   3.470   3.441   7.087 -2.3076  1.1529 -1.3548
  875MOL0     H20690   3.605   3.544   7.154 -0.5556  1.7269  3.3342
  875MOL0     H20691   3.449   3.636   7.318 -0.7056 -0.4009  1.5464
  875MOL0     H20692   3.458   3.458   7.319 -0.5048  0.5265  1.3575
  875MOL0     H20693   3.233   3.583   7.351  1.6037  0.7168  0.8772
  875MOL0     H20694   3.231   3.631   7.181 -0.9773 -2.8580 -0.9430
  875MOL0     H20695   3.248   3.349   7.284  1.6491  2.0259  0.9829
  875MOL0     H20696   3.192   3.397   7.120 -1.8137  2.1900 -0.7102
  875MOL0     H20697   3.049   3.449   7.381 -2.0865  0.3109 -0.0059
  875MOL0     H20698   2.995   3.499   7.228  0.4182  1.2636  1.1220
  875MOL0     H20699   2.989   3.254   7.051  1.8587 -0.9716  1.3589
  875MOL0     H20700   2.795   2.932   7.139 -1.1617 -0.0802 -2.8633
  875MOL0     H20701   2.906   2.988   7.025  0.7555  0.0711  0.1149
  875MOL0     H20702   2.724   3.185   6.998  1.6462 -0.1889  2.6078
  875MOL0     H20703   2.716   3.047   6.892 -0.3879  0.9622  0.2800
  875MOL0     H20704   2.536   2.943   7.048 -1.1555  0.2060  0.3317
  875MOL0     H20705   2.562   3.085   7.157 -1.2601  0.8437 -0.5710
  875MOL0     H20706   2.504   3.221   6.946 -1.6106  0.4714  0.0559
  875MOL0     H20707   2.435   3.074   6.878  2.3459 -3.7778  0.5982
  875MOL0     H20708   2.438   3.364   7.139  0.0493 -1.4826 -1.1701
  875MOL0     H20709   2.457   3.620   7.147 -0.2243  1.8940 -0.3675
  875MOL0     H20710   2.305   3.681   7.191  0.9563  2.1810 -1.6063
  875MOL0     H20711   2.353   3.697   7.028  2.0909  1.6208  0.2079
  875MOL0     H20712   2.148   3.834   6.798 -1.5486 -1.5394  0.6522
  875MOL0     H20713   2.082   4.087   6.801  0.5005  0.6745  0.4895
  875MOL0     H20714   1.661   4.205   6.904 -0.7207  2.2326  0.5326
  875MOL0     H20715   1.742   4.341   6.847 -1.7918 -0.1185 -2.8935
  875MOL0     H20716   1.663   4.073   6.709  0.2962 -0.9534 -0.2395
  875MOL0     H20717   1.593   4.221   6.685 -0.8514 -2.6849  0.4122
  875MOL0     H20718   1.763   4.141   6.508  1.3224  1.1416 -1.7489
  875MOL0     H20719   1.893   4.200   6.603 -0.6363  0.1935  1.7573
  875MOL0     H20720   1.723   4.429   6.616 -3.3782 -1.0604 -0.2467
  875MOL0     H20721   1.673   4.365   6.467  0.5041  0.0075 -1.0502
  875MOL0     H20722   1.849   4.546   6.484 -0.7795  0.0057  1.3668
  875MOL0     H20723   1.971   4.427   6.527 -0.3781  1.4860  0.7384
  875MOL0     H20724   1.987   4.477   6.302 -0.9596  1.9666  3.0950
  875MOL0     H20725   1.823   4.447   6.256  1.3750  1.7030 -1.5591
  875MOL0     H20726   1.849   4.199   6.337 -0.9141 -0.1740  0.4337
  875MOL0     H20727   2.024   4.227   6.349  0.4035  3.2337  2.1508
  875MOL0     H20728   2.008   4.341   6.110  0.2405  0.2834  1.3545
  875MOL0     H20729   1.850   4.269   6.089 -0.9754  0.0277 -0.3261
  875MOL0     H20730   1.725   3.999   6.998 -1.9346  3.2810 -4.0795
  875MOL0     H20731   1.780   3.755   6.978  0.3107 -1.7411  0.2313
  875MOL0     H20732   1.985   3.409   6.937  2.8505 -1.2212 -4.4534
  875MOL0     H20733   2.097   3.185   6.945  1.4162 -1.7512  0.2079
  875MOL0     H20734   3.215   4.095   7.024 -1.3436 -0.0492 -0.3886
  875MOL0     H20735   3.035   4.199   6.920 -0.4613  3.3075 -2.7276
  875MOL0     H20736   2.853   4.223   6.498  1.2459  2.1523  0.3323
  875MOL0     H20737   2.648   4.232   6.380  2.7954  0.4848  0.2241
  875MOL0     H20738   2.263   4.477   6.475  0.5918  1.3717  2.4159
  875MOL0     H20739   2.386   4.608   6.458 -3.4696  0.5786  0.5174
  875MOL0     H20740   2.220   4.615   6.302  0.1323  0.9748  1.2026
  875MOL0     H20741   2.281   4.454   6.227 -0.1314  0.9464 -0.9435
  875MOL0     H20742   2.409   4.728   6.212 -1.2091 -0.1454  0.4608
  875MOL0     H20743   2.496   4.568   6.183 -0.8301 -1.5060  3.7928
  875MOL0     H20744   2.239   4.637   6.025 -0.3714 -0.6494  0.4772
  875MOL0     H20745   2.360   4.519   5.989  5.6661  1.8529 -2.1630
  875MOL0     H20746   2.568   4.844   5.836 -2.1155  2.5878 -0.0318
  875MOL0     H20747   2.523   4.568   6.619 -3.1419 -0.9670 -5.8089
  875MOL0     H20748   2.712   4.695   6.741  0.0977  1.2245 -2.0088
  875MOL0     H20749   2.738   4.558   6.860  0.6990  1.6526  0.3387
  875MOL0     H20750   2.866   4.626   6.759 -0.0158 -0.6902 -0.3959
  876MOL0     O20751   5.038   7.689  10.014  0.6124 -0.0322  0.2703
  876MOL0     C20752   5.142   7.639  10.057 -0.6216 -0.9627 -0.5572
  876MOL0     O20753   5.144   7.537  10.146 -0.5124  0.1932 -0.1000
  876MOL0     C20754   5.034   7.498  10.220  0.0268 -1.0262 -0.3223
  876MOL0     C20755   4.904   7.501  10.178  0.2916  0.0268  0.2408
  876MOL0     C20756   4.804   7.458  10.273  0.5397 -0.3658  1.0277
  876MOL0     C20757   4.840   7.412  10.401 -0.1039 -0.4362  0.0121
  876MOL0     O20758   4.748   7.361  10.500 -0.8486  0.1501  0.1209
  876MOL0     C20759   4.621   7.430  10.517  0.3908  0.2156  0.8580
  876MOL0     C20760   4.554   7.364  10.635 -0.2771 -0.3366  0.4901
  876MOL0     C20761   4.463   7.235  10.618 -0.2174  0.0447  0.6455
  876MOL0     C20762   4.475   7.135  10.734  0.2095 -0.2823 -0.1514
  876MOL0     C20763   4.362   7.036  10.731  0.0207 -0.3090  0.6123
  876MOL0     C20764   4.368   6.936  10.843 -0.6548 -0.3859 -0.4199
  876MOL0     C20765   4.259   6.833  10.822  0.0555 -0.4687 -0.2715
  876MOL0     C20766   4.122   6.864  10.875 -0.2865 -0.7022 -0.5031
  876MOL0     N20767   4.015   6.790  10.800  0.0059  0.2666  0.6381
  876MOL0     C20768   4.026   6.659  10.752  0.2813 -0.3561 -0.4254
  876MOL0     C20769   3.912   6.639  10.679  0.1170 -0.4979 -0.6140
  876MOL0     C20770   3.864   6.510  10.624 -0.2663  0.6058  0.2704
  876MOL0     C20771   3.716   6.514  10.586  0.3612 -1.5974  0.1177
  876MOL0     C20772   3.665   6.380  10.533 -1.5494 -0.4824  0.2814
  876MOL0     C20773   3.545   6.376  10.447 -0.2654  0.2445 -0.0704
  876MOL0     O20774   3.437   6.434  10.527  0.3055 -0.1571 -0.3457
  876MOL0     C20775   3.306   6.431  10.485  0.0631  0.7551 -0.1222
  876MOL0     C20776   3.259   6.419  10.354 -0.3994  0.2613 -0.1159
  876MOL0     C20777   3.126   6.412  10.322  0.4485 -0.0062 -0.7159
  876MOL0     C20778   3.078   6.381  10.183  1.0924  0.0476  0.2811
  876MOL0     C20779   3.030   6.418  10.428  0.8494 -0.2554 -0.2596
  876MOL0     C20780   2.877   6.423  10.405 -0.6568  0.8645  0.1610
  876MOL0     O20781   2.828   6.515  10.319  0.1482 -0.2875  0.4901
  876MOL0     C20782   2.698   6.502  10.288  0.1228 -0.0766 -0.1016
  876MOL0     C20783   2.609   6.608  10.330  0.7357 -0.5281  0.3861
  876MOL0     C20784   2.464   6.596  10.326  0.3827  0.3623  0.1642
  876MOL0     C20785   2.405   6.484  10.264 -0.8212  0.6875 -0.2654
  876MOL0     O20786   2.269   6.499  10.249  0.2723 -0.0729 -0.0838
  876MOL0     C20787   2.191   6.390  10.209  0.7481 -0.1852  0.3606
  876MOL0     C20788   2.040   6.421  10.202 -0.5002 -0.7139 -0.1341
  876MOL0     C20789   1.982   6.484  10.327 -0.0699  1.1588 -0.6948
  876MOL0     C20790   1.853   6.543  10.289  0.5734 -0.6804 -0.2216
  876MOL0     C20791   1.733   6.448  10.260  0.4768  0.4021  0.1419
  876MOL0     C20792   1.602   6.528  10.259  0.3202 -0.2096 -0.1022
  876MOL0     C20793   1.468   6.452  10.257 -0.1824 -0.0947 -0.4480
  876MOL0     C20794   1.388   6.458  10.386  0.5964 -0.4741 -0.3451
  876MOL0    Cl20795   1.233   6.357  10.375 -0.1565  0.0169  0.1379
  876MOL0     C20796   2.492   6.384  10.214  0.3081 -0.1321  0.1057
  876MOL0     C20797   2.633   6.385  10.238  0.2113  0.0161 -0.1526
  876MOL0     O20798   2.811   6.352  10.482  1.4953 -0.3110 -0.0075
  876MOL0     C20799   3.079   6.429  10.557 -0.4444 -0.8842 -0.8976
  876MOL0     C20800   3.216   6.437  10.587 -0.0031 -0.0899  0.6508
  876MOL0     N20801   3.845   6.759  10.686 -1.0049 -0.4326 -0.6346
  876MOL0     N20802   3.912   6.849  10.755  0.5528 -0.0587  0.2663
  876MOL0     C20803   4.970   7.414  10.434 -0.7159 -0.4469  0.0396
  876MOL0     C20804   5.072   7.435  10.348  0.3581  0.8634 -0.3787
  876MOL0     C20805   5.273   7.691  10.015  0.2533  0.1666 -0.4354
  876MOL0     C20806   5.274   7.813   9.935 -0.2866 -0.0724  0.1752
  876MOL0     C20807   5.392   7.860   9.877  0.4181  0.8161  0.0435
  876MOL0     C20808   5.523   7.802   9.896 -0.8001  0.7877  0.3546
  876MOL0     O20809   5.624   7.815   9.809 -0.3156 -0.3110  0.6246
  876MOL0     C20810   5.636   7.944   9.747  0.7188 -0.0158  1.3642
  876MOL0     C20811   5.790   7.965   9.706 -0.8092 -0.8501 -0.4041
  876MOL0     C20812   5.837   7.876   9.594 -0.1792  0.1331  0.4694
  876MOL0     C20813   5.768   7.896   9.464 -0.5615 -0.9364 -0.1714
  876MOL0     C20814   5.761   8.037   9.422  0.7360 -0.2363  0.6596
  876MOL0     C20815   5.747   8.152   9.376 -0.4476  0.2283 -0.2646
  876MOL0     C20816   5.507   7.688   9.972  0.9417 -0.2932 -1.0125
  876MOL0     C20817   5.399   7.638  10.046 -0.1099  0.8112  0.9810
  876MOL0     C20818   5.441   7.525  10.135  0.1476  0.5271 -1.5473
  876MOL0     H20819   4.864   7.530  10.081  0.2286 -1.6489 -0.2607
  876MOL0     H20820   4.699   7.439  10.256  0.0371  3.0625 -0.4776
  876MOL0     H20821   4.557   7.430  10.428  0.3379 -2.6480  0.7916
  876MOL0     H20822   4.650   7.532  10.544 -2.1906  1.1615  0.3621
  876MOL0     H20823   4.635   7.350  10.707 -0.0142 -0.0180  0.2561
  876MOL0     H20824   4.490   7.445  10.674 -1.7863 -1.7575  1.0783
  876MOL0     H20825   4.357   7.263  10.613 -0.7075 -1.2479  2.6317
  876MOL0     H20826   4.509   7.184  10.534 -1.8432 -1.1612  0.4407
  876MOL0     H20827   4.568   7.081  10.716 -0.1965 -1.3295  0.7745
  876MOL0     H20828   4.494   7.180  10.832 -1.9666  1.1608 -0.3154
  876MOL0     H20829   4.370   6.985  10.635  0.5397  2.2542 -0.8053
  876MOL0     H20830   4.268   7.091  10.734  1.2856  1.9688  1.5171
  876MOL0     H20831   4.469   6.893  10.841 -0.1222  0.8268 -0.7901
  876MOL0     H20832   4.364   6.992  10.937  1.6165 -1.6518  0.5242
  876MOL0     H20833   4.290   6.746  10.880 -0.2640 -0.7872 -0.5757
  876MOL0     H20834   4.257   6.793  10.720 -1.6720  0.5602 -0.6738
  876MOL0     H20835   4.116   6.850  10.983 -0.1904 -0.6876 -0.4957
  876MOL0     H20836   4.096   6.969  10.856 -1.7477 -0.9841 -0.2076
  876MOL0     H20837   4.108   6.592  10.777  1.8030  0.2076 -3.4021
  876MOL0     H20838   3.875   6.424  10.691 -2.3561  1.5374  1.9100
  876MOL0     H20839   3.917   6.490  10.530 -1.6049  2.9769 -1.0705
  876MOL0     H20840   3.651   6.544  10.668 -1.5121 -0.7780 -1.5935
  876MOL0     H20841   3.711   6.593  10.510  4.4773 -2.4546 -1.3199
  876MOL0     H20842   3.743   6.341  10.467 -1.8228  1.6168 -1.3974
  876MOL0     H20843   3.640   6.319  10.620  0.4221  2.9832  3.5757
  876MOL0     H20844   3.564   6.436  10.357  3.1357  1.3503  1.1781
  876MOL0     H20845   3.520   6.273  10.423  2.5255  0.0088 -2.5377
  876MOL0     H20846   3.330   6.414  10.272 -0.0733 -1.8933  0.2466
  876MOL0     H20847   3.016   6.466  10.152  0.1892 -0.2383  1.2614
  876MOL0     H20848   3.013   6.293  10.194  0.1562  0.8855  1.8281
  876MOL0     H20849   3.158   6.374  10.109  1.9492 -0.2943  1.2192
  876MOL0     H20850   2.656   6.697  10.371 -0.1685 -0.4423  1.2780
  876MOL0     H20851   2.408   6.679  10.369  0.2088 -0.8408  2.4160
  876MOL0     H20852   2.224   6.351  10.112 -0.3497  2.4708 -1.1833
  876MOL0     H20853   2.185   6.301  10.272  1.0423 -1.9001 -1.8829
  876MOL0     H20854   2.039   6.494  10.121 -3.1512 -0.9951 -0.4677
  876MOL0     H20855   1.981   6.336  10.165  0.1192  0.1484 -3.4029
  876MOL0     H20856   2.050   6.565  10.356 -0.7931  1.8152 -0.8147
  876MOL0     H20857   1.970   6.419  10.415  2.2528  0.7211 -0.6267
  876MOL0     H20858   1.863   6.602  10.197 -2.7104 -3.5714 -2.7067
  876MOL0     H20859   1.824   6.606  10.374 -1.3712 -0.4720 -0.9800
  876MOL0     H20860   1.742   6.406  10.159  0.8033 -1.6727  0.9890
  876MOL0     H20861   1.738   6.364  10.330  4.3728  0.6288  0.3695
  876MOL0     H20862   1.596   6.583  10.165 -2.9764 -0.5987 -0.2253
  876MOL0     H20863   1.598   6.593  10.347  3.1068  0.2173 -0.1988
  876MOL0     H20864   1.496   6.349  10.233 -0.0285  0.3732 -2.5011
  876MOL0     H20865   1.402   6.490  10.178 -0.6627  1.0010  0.4416
  876MOL0     H20866   1.353   6.559  10.410 -3.2944 -1.5748 -0.6657
  876MOL0     H20867   1.447   6.428  10.472  2.8500  5.2708  0.5915
  876MOL0     H20868   2.462   6.294  10.162  3.3994 -3.4728  3.5631
  876MOL0     H20869   2.696   6.306  10.199  2.4282  1.4421  0.3172
  876MOL0     H20870   3.017   6.432  10.646  1.0838  4.8941  0.4100
  876MOL0     H20871   3.262   6.439  10.685  0.7146  0.5377  0.3179
  876MOL0     H20872   4.991   7.375  10.533 -1.1527  0.2055  0.3906
  876MOL0     H20873   5.176   7.419  10.375  0.1566  0.4766  0.1909
  876MOL0     H20874   5.183   7.866   9.911  0.9976  2.4530  0.5637
  876MOL0     H20875   5.378   7.941   9.805 -3.9186 -0.9633 -1.4420
  876MOL0     H20876   5.575   7.962   9.658  1.1687  1.4408  1.3184
  876MOL0     H20877   5.618   8.022   9.822  1.3718  0.1905  1.3167
  876MOL0     H20878   5.859   7.948   9.789  1.4249 -2.0013 -2.3822
  876MOL0     H20879   5.798   8.070   9.677 -1.1085  0.1118  2.6782
  876MOL0     H20880   5.943   7.901   9.578 -0.5367  1.7539  0.4816
  876MOL0     H20881   5.831   7.773   9.632 -1.4393 -2.4071 -5.4896
  876MOL0     H20882   5.671   7.846   9.471 -2.2617  2.1805  0.3348
  876MOL0     H20883   5.819   7.831   9.392  2.0613  0.4835  0.3108
  876MOL0     H20884   5.746   8.253   9.341 -1.9805  0.3410  0.0160
  876MOL0     H20885   5.605   7.645   9.988  0.0569 -2.0015  0.1240
  876MOL0     H20886   5.537   7.541  10.185 -1.5953 -1.2711  2.8599
  876MOL0     H20887   5.376   7.509  10.222  0.5720  0.4180 -1.2497
  876MOL0     H20888   5.447   7.439  10.068 -0.7356  1.4633 -2.8814
  877MOL0     O20889  10.046   8.313   0.188 -0.5720 -0.4278  0.0494
  877MOL0     C20890  10.000   8.421   0.218 -0.2125  0.0673  0.1577
  877MOL0     O20891  10.047   8.546   0.190 -0.0974 -0.3171  0.0098
  877MOL0     C20892  10.153   8.561   0.102 -0.8029 -0.5953  0.7773
  877MOL0     C20893  10.175   8.475  -0.009 -1.1071  0.2331  1.3952
  877MOL0     C20894  10.283   8.494  -0.096 -0.6145  0.5922  0.2605
  877MOL0     C20895  10.370   8.599  -0.077 -0.0950 -0.6481 -0.7902
  877MOL0     O20896  10.463   8.635  -0.166 -0.7897  0.3616 -0.4649
  877MOL0     C20897  10.505   8.547  -0.278  0.6086  0.6337  0.4743
  877MOL0     C20898  10.617   8.613  -0.371 -0.0816 -0.1668 -0.1122
  877MOL0     C20899  10.652   8.512  -0.495 -0.1222  0.5403 -1.0587
  877MOL0     C20900  10.530   8.470  -0.570  0.7082  0.7370 -1.3220
  877MOL0     C20901  10.562   8.434  -0.716  0.6893 -0.5105  0.8088
  877MOL0     C20902  10.666   8.312  -0.721  0.9771  0.7209  0.3412
  877MOL0     C20903  10.675   8.258  -0.859 -0.1235  0.9161  0.7157
  877MOL0     C20904  10.563   8.153  -0.882  0.0197  0.1330  0.1285
  877MOL0     N20905  10.524   8.052  -0.783  0.7038  0.2733  0.9749
  877MOL0     C20906  10.407   8.050  -0.700  1.0871  0.9389  0.0410
  877MOL0     C20907  10.423   7.948  -0.613  0.4684  0.4142 -0.4784
  877MOL0     C20908  10.354   7.920  -0.483  0.3144 -1.8918 -0.3333
  877MOL0     C20909  10.248   7.807  -0.503  0.1412 -0.7286  0.7809
  877MOL0     C20910  10.198   7.753  -0.372 -0.4489  0.6152  1.0767
  877MOL0     C20911  10.102   7.855  -0.315  0.5404 -0.4208 -0.6184
  877MOL0     O20912   9.978   7.881  -0.387  0.0057  0.7002 -0.0911
  877MOL0     C20913   9.876   7.791  -0.370 -0.6740  0.6719  0.0414
  877MOL0     C20914   9.861   7.678  -0.287 -0.6907 -0.1946  0.1337
  877MOL0     C20915   9.746   7.596  -0.289  0.3348  0.5221  0.6947
  877MOL0     C20916   9.753   7.462  -0.214 -0.3586  0.6549  0.0044
  877MOL0     C20917   9.642   7.643  -0.367 -0.8375 -0.2234  0.8933
  877MOL0     C20918   9.525   7.569  -0.390  0.8772 -0.1232 -0.2690
  877MOL0     O20919   9.413   7.642  -0.360  0.3854  0.3580  0.3517
  877MOL0     C20920   9.291   7.579  -0.364  0.8913  0.4566  0.0131
  877MOL0     C20921   9.210   7.613  -0.255 -0.3526 -0.4555  0.8500
  877MOL0     C20922   9.073   7.569  -0.245  0.1343 -0.1850 -0.2706
  877MOL0     C20923   9.028   7.478  -0.346  1.3828 -0.5521 -0.2466
  877MOL0     O20924   8.903   7.424  -0.364 -0.2436 -0.3880 -0.3579
  877MOL0     C20925   8.803   7.517  -0.410  0.1078 -0.3847 -0.1892
  877MOL0     C20926   8.815   7.555  -0.559  0.7459  0.1688 -0.6526
  877MOL0     C20927   8.751   7.456  -0.648  1.1213  0.7102  0.1974
  877MOL0     C20928   8.754   7.504  -0.798  0.2601 -0.3231 -0.0211
  877MOL0     C20929   8.691   7.408  -0.904  1.3024 -0.3031 -0.5219
  877MOL0     C20930   8.793   7.300  -0.939 -0.5140  0.7991  0.0828
  877MOL0     C20931   8.734   7.208  -1.047  1.1744 -0.5194  0.7614
  877MOL0     C20932   8.811   7.081  -1.070 -0.3379  0.6135  0.5162
  877MOL0    Cl20933   8.967   7.124  -1.157  0.1158 -0.0104  0.0662
  877MOL0     C20934   9.117   7.445  -0.456  0.5002  0.3170  0.4301
  877MOL0     C20935   9.244   7.496  -0.463  0.2234  0.0491  0.1192
  877MOL0     O20936   9.526   7.454  -0.431  0.2068 -0.1074 -0.0475
  877MOL0     C20937   9.645   7.768  -0.442  0.1830  0.5475 -1.2376
  877MOL0     C20938   9.770   7.832  -0.447 -0.4418 -0.7511  0.2765
  877MOL0     N20939  10.540   7.880  -0.646 -0.2965 -0.3155  0.0871
  877MOL0     N20940  10.594   7.935  -0.750  0.3002  0.4318  0.5270
  877MOL0     C20941  10.346   8.685   0.018 -0.1056  0.3538 -0.3269
  877MOL0     C20942  10.241   8.671   0.111 -0.2136 -0.5218  0.8056
  877MOL0     C20943   9.868   8.420   0.300  0.1743  0.2701 -0.0847
  877MOL0     C20944   9.865   8.513   0.409 -0.5611  0.1973 -0.0967
  877MOL0     C20945   9.756   8.514   0.503 -1.2089  0.8643 -0.1143
  877MOL0     C20946   9.646   8.422   0.481  0.6203 -0.1371 -0.4694
  877MOL0     O20947   9.530   8.415   0.550  0.1890 -0.0330 -0.4925
  877MOL0     C20948   9.521   8.497   0.670  0.2693  0.4158  0.2979
  877MOL0     C20949   9.590   8.425   0.783  0.3909  1.1577 -0.4877
  877MOL0     C20950   9.631   8.513   0.897  0.5465 -0.6368 -0.1218
  877MOL0     C20951   9.678   8.448   1.021  1.6012  0.4085 -0.1574
  877MOL0     C20952   9.583   8.371   1.104 -0.6104 -0.7704 -0.3023
  877MOL0     C20953   9.501   8.300   1.157 -0.3128 -0.1455  0.0950
  877MOL0     C20954   9.660   8.340   0.366  0.0254 -1.2702 -0.6907
  877MOL0     C20955   9.765   8.332   0.277  0.5838  0.3033  0.2609
  877MOL0     C20956   9.751   8.222   0.167  0.3650 -0.4205  0.0445
  877MOL0     H20957  10.103   8.401  -0.043  0.2975  0.2051 -1.8623
  877MOL0     H20958  10.306   8.428  -0.180  0.9811  0.3589  0.8558
  877MOL0     H20959  10.413   8.535  -0.336  0.6377  1.7628  0.1701
  877MOL0     H20960  10.529   8.445  -0.246  0.4222  0.0168 -1.2404
  877MOL0     H20961  10.589   8.713  -0.404  1.8089 -0.3496 -2.5434
  877MOL0     H20962  10.713   8.623  -0.320 -0.1085 -0.2179 -0.0501
  877MOL0     H20963  10.728   8.550  -0.564  0.0950 -0.6629 -1.5006
  877MOL0     H20964  10.703   8.424  -0.456  2.2560  2.1461 -0.3015
  877MOL0     H20965  10.490   8.383  -0.517  2.4113  0.6063 -0.2040
  877MOL0     H20966  10.452   8.547  -0.572 -0.1060 -0.0834 -1.9707
  877MOL0     H20967  10.605   8.524  -0.762 -2.6371  1.3269  0.9581
  877MOL0     H20968  10.463   8.418  -0.759  0.8832 -2.7944  1.0945
  877MOL0     H20969  10.765   8.352  -0.695  1.3817 -0.2171  0.2722
  877MOL0     H20970  10.649   8.244  -0.637  0.9728  0.2216 -0.0579
  877MOL0     H20971  10.769   8.205  -0.879 -1.1556 -0.9572  0.5518
  877MOL0     H20972  10.683   8.336  -0.935 -0.0306  0.7232  0.5248
  877MOL0     H20973  10.479   8.203  -0.931  0.7785  1.2887 -0.0432
  877MOL0     H20974  10.615   8.099  -0.962  0.2080 -0.3438  0.5706
  877MOL0     H20975  10.329   8.127  -0.700 -2.4887 -2.3602 -1.6342
  877MOL0     H20976  10.300   8.009  -0.448  1.2629 -1.5991  0.4416
  877MOL0     H20977  10.430   7.885  -0.413  0.7338  0.3947  0.4320
  877MOL0     H20978  10.163   7.847  -0.560 -1.4279 -1.6998  2.3519
  877MOL0     H20979  10.294   7.723  -0.555  1.1757  0.8336 -0.9696
  877MOL0     H20980  10.144   7.660  -0.396  1.5190 -0.8523  2.0539
  877MOL0     H20981  10.290   7.724  -0.321  0.4351 -0.6773 -1.0905
  877MOL0     H20982  10.075   7.822  -0.214 -0.7230 -1.6771 -1.3321
  877MOL0     H20983  10.160   7.948  -0.309 -0.4486  0.1483  0.7073
  877MOL0     H20984   9.945   7.649  -0.225 -1.1876  2.3848  2.1551
  877MOL0     H20985   9.819   7.394  -0.269 -1.2828  0.2457 -0.6220
  877MOL0     H20986   9.653   7.417  -0.215 -1.0437  2.0807 -1.8414
  877MOL0     H20987   9.791   7.475  -0.113 -0.2888  0.4968 -0.0015
  877MOL0     H20988   9.260   7.675  -0.180 -0.0470 -0.3026  0.5214
  877MOL0     H20989   9.007   7.591  -0.162 -0.4771 -0.9767 -0.5364
  877MOL0     H20990   8.710   7.465  -0.386  1.4688 -1.6806  2.6795
  877MOL0     H20991   8.798   7.612  -0.356 -0.4223 -0.3371 -0.3159
  877MOL0     H20992   8.750   7.642  -0.574  0.0186 -0.4842 -1.4277
  877MOL0     H20993   8.919   7.569  -0.590  1.2569 -3.4903 -1.0472
  877MOL0     H20994   8.645   7.441  -0.624  1.2352 -0.0343  0.2517
  877MOL0     H20995   8.795   7.356  -0.646 -0.5905 -0.0732  1.4793
  877MOL0     H20996   8.855   7.528  -0.832  1.1740 -1.5217  1.7118
  877MOL0     H20997   8.707   7.603  -0.803  3.3973  1.4053  1.4939
  877MOL0     H20998   8.602   7.358  -0.865  0.3022  1.7667 -0.0107
  877MOL0     H20999   8.670   7.463  -0.996  0.1528 -3.6589 -2.4551
  877MOL0     H21000   8.829   7.246  -0.851 -1.6778 -0.3967 -0.1221
  877MOL0     H21001   8.883   7.347  -0.979 -0.5466 -0.0813 -1.1021
  877MOL0     H21002   8.704   7.254  -1.142  2.4730  0.7146  0.9289
  877MOL0     H21003   8.644   7.166  -1.000 -0.5639  2.2009  0.0666
  877MOL0     H21004   8.741   7.017  -1.125  1.2653 -3.2701  2.5674
  877MOL0     H21005   8.841   7.028  -0.980 -1.4432 -1.5892 -0.3417
  877MOL0     H21006   9.067   7.378  -0.525 -0.8650 -0.8579  2.4228
  877MOL0     H21007   9.317   7.472  -0.541 -2.1341  0.4882 -2.3762
  877MOL0     H21008   9.570   7.806  -0.510 -1.3323 -0.6341 -0.2936
  877MOL0     H21009   9.786   7.924  -0.502  1.2417 -0.3388  1.3713
  877MOL0     H21010  10.423   8.762   0.027  2.2216 -1.7541 -1.2598
  877MOL0     H21011  10.246   8.742   0.193  1.2431  1.2125 -0.6696
  877MOL0     H21012   9.942   8.585   0.433 -1.5304  0.5574  2.1720
  877MOL0     H21013   9.757   8.585   0.586  2.0950 -0.9310  1.5777
  877MOL0     H21014   9.561   8.596   0.646  1.2374 -0.4662 -2.0283
  877MOL0     H21015   9.414   8.514   0.687 -0.4113 -0.5520 -2.5335
  877MOL0     H21016   9.682   8.371   0.759 -1.1805 -1.7597 -0.3845
  877MOL0     H21017   9.525   8.348   0.824  0.1995  1.7560  0.3618
  877MOL0     H21018   9.716   8.563   0.849  0.7518 -1.4243 -0.6103
  877MOL0     H21019   9.545   8.575   0.920 -0.7685 -2.9887  1.8015
  877MOL0     H21020   9.729   8.521   1.085  2.8041 -2.8779  3.0551
  877MOL0     H21021   9.753   8.371   0.997 -0.1341 -0.2710 -3.9982
  877MOL0     H21022   9.424   8.234   1.191  2.0228 -4.1427 -1.6590
  877MOL0     H21023   9.580   8.269   0.351 -2.4168  0.6484  2.0505
  877MOL0     H21024   9.789   8.127   0.203 -0.4126 -0.0310  2.0155
  877MOL0     H21025   9.648   8.212   0.134 -1.8084  0.8801  5.4081
  877MOL0     H21026   9.812   8.241   0.078  0.6591 -3.2663 -0.4343
  878MOL0     O21027   8.335   1.262   9.932 -0.0863  0.3993 -0.1382
  878MOL0     C21028   8.368   1.373   9.984  0.5347  0.4487 -0.6141
  878MOL0     O21029   8.415   1.474   9.903  0.0796 -0.4064 -0.0296
  878MOL0     C21030   8.458   1.452   9.771 -0.8811 -0.9199 -0.3197
  878MOL0     C21031   8.588   1.499   9.752 -0.2850 -0.8708  0.5940
  878MOL0     C21032   8.632   1.479   9.626 -0.5666 -1.2395  0.3306
  878MOL0     C21033   8.559   1.435   9.517  0.3404  0.1552 -0.2389
  878MOL0     O21034   8.606   1.460   9.387  0.4776  0.1939 -1.3113
  878MOL0     C21035   8.519   1.421   9.279  0.1740  0.1073 -1.1673
  878MOL0     C21036   8.404   1.518   9.246 -0.6323  0.6288  0.0870
  878MOL0     C21037   8.335   1.489   9.110  0.5248 -0.3143 -0.3157
  878MOL0     C21038   8.254   1.613   9.058  0.1908 -0.3330 -0.4162
  878MOL0     C21039   8.198   1.579   8.924 -0.0865 -0.2204  0.1293
  878MOL0     C21040   8.080   1.675   8.892  0.2187  0.1410  0.8179
  878MOL0     C21041   8.006   1.641   8.763 -1.0632 -0.6231  0.2125
  878MOL0     C21042   7.898   1.739   8.733  0.6896  0.8821 -1.1015
  878MOL0     N21043   7.824   1.703   8.605  0.3880 -0.1213 -0.6489
  878MOL0     C21044   7.781   1.582   8.560  0.0055 -0.8212  0.4263
  878MOL0     C21045   7.719   1.607   8.441  0.8438 -0.1210 -0.5018
  878MOL0     C21046   7.655   1.490   8.373  0.0885 -0.4650  0.0668
  878MOL0     C21047   7.770   1.417   8.313  1.2589 -0.1954 -0.8083
  878MOL0     C21048   7.731   1.360   8.182 -0.2705  0.7770 -0.1096
  878MOL0     C21049   7.694   1.454   8.065 -0.8809 -0.3085 -1.4735
  878MOL0     O21050   7.792   1.559   8.055  0.6227  0.6209 -0.4627
  878MOL0     C21051   7.878   1.562   7.949  0.6595  0.1259  0.1055
  878MOL0     C21052   7.921   1.685   7.894 -0.3613  0.0329  0.5812
  878MOL0     C21053   8.006   1.681   7.779  0.0605 -0.6804  0.4165
  878MOL0     C21054   8.050   1.823   7.724 -0.0946 -1.0784 -0.4253
  878MOL0     C21055   8.031   1.558   7.714 -0.5060  0.2372 -0.4825
  878MOL0     C21056   8.076   1.555   7.563 -0.5521 -0.2145  1.2041
  878MOL0     O21057   8.107   1.428   7.515 -0.9670 -0.0157  0.0094
  878MOL0     C21058   8.178   1.422   7.398 -1.2755 -0.3520 -0.9533
  878MOL0     C21059   8.322   1.436   7.406 -0.5751  0.4254  0.5566
  878MOL0     C21060   8.395   1.458   7.285  0.3793 -0.3190 -0.2954
  878MOL0     C21061   8.329   1.457   7.158 -0.8701  0.8459 -0.7606
  878MOL0     O21062   8.401   1.496   7.045 -0.1628  0.4065 -0.0265
  878MOL0     C21063   8.524   1.430   7.026 -0.0908 -0.3688 -0.4735
  878MOL0     C21064   8.565   1.420   6.885 -0.2812 -0.0983 -0.5229
  878MOL0     C21065   8.474   1.326   6.807  0.3459  0.0595  0.8289
  878MOL0     C21066   8.504   1.307   6.654  1.0812  0.2404 -1.0688
  878MOL0     C21067   8.385   1.260   6.573 -0.0053 -0.3444 -1.4196
  878MOL0     C21068   8.358   1.108   6.598  0.1683 -0.4060  0.5951
  878MOL0     C21069   8.246   1.054   6.508  1.1009  0.7666 -0.5468
  878MOL0     C21070   8.242   0.901   6.518  0.4413 -0.5058 -0.1503
  878MOL0    Cl21071   8.396   0.829   6.444  0.1615  0.1112 -0.1017
  878MOL0     C21072   8.190   1.420   7.153  0.0799 -0.8392 -0.1538
  878MOL0     C21073   8.121   1.407   7.276  0.0591  0.5775 -1.0338
  878MOL0     O21074   8.065   1.654   7.492  0.6514  0.1371  0.0209
  878MOL0     C21075   7.990   1.443   7.775  0.1736 -1.2602 -0.4505
  878MOL0     C21076   7.907   1.446   7.886 -0.1266 -0.5739 -0.6299
  878MOL0     N21077   7.700   1.741   8.420 -1.5079  1.1269  0.3324
  878MOL0     N21078   7.781   1.793   8.515  0.3635 -1.1623 -0.6300
  878MOL0     C21079   8.427   1.391   9.546  1.0093  0.8604  0.4240
  878MOL0     C21080   8.375   1.400   9.677  0.1577  0.5669 -0.2900
  878MOL0     C21081   8.334   1.384  10.136 -1.3218 -0.7773  0.1036
  878MOL0     C21082   8.273   1.278  10.201  0.5226  0.6124 -0.0634
  878MOL0     C21083   8.236   1.283  10.335  0.5701  0.4202  0.0780
  878MOL0     C21084   8.257   1.398  10.408  0.5053 -0.7175  0.6114
  878MOL0     O21085   8.206   1.428  10.535  0.3614 -0.0762 -0.0204
  878MOL0     C21086   8.148   1.318  10.610  0.1066  0.6027 -0.2174
  878MOL0     C21087   8.159   1.371  10.756 -1.1116 -0.5480  0.3173
  878MOL0     C21088   8.303   1.355  10.804  0.1462  0.9353 -0.4969
  878MOL0     C21089   8.311   1.394  10.961  0.5029  0.1321  0.2624
  878MOL0     C21090   8.399   1.301  11.032 -0.2040  0.0176 -0.0204
  878MOL0     C21091   8.459   1.229  11.108 -0.5012  0.3298 -0.1174
  878MOL0     C21092   8.308   1.509  10.340 -0.3065 -0.8485  1.1742
  878MOL0     C21093   8.351   1.508  10.204  0.4072  0.5261 -0.3387
  878MOL0     C21094   8.429   1.638  10.153  1.3960 -0.2431 -0.4975
  878MOL0     H21095   8.646   1.534   9.837 -0.3289  0.2673  0.1652
  878MOL0     H21096   8.725   1.523   9.592 -1.0191 -3.4709 -4.7671
  878MOL0     H21097   8.472   1.324   9.294  0.3297  0.5178  3.2484
  878MOL0     H21098   8.589   1.415   9.195  3.9102 -0.0590  1.6766
  878MOL0     H21099   8.330   1.508   9.326  0.2962 -1.3692  0.7664
  878MOL0     H21100   8.449   1.617   9.239  1.8179 -0.5195 -2.8164
  878MOL0     H21101   8.401   1.450   9.033 -0.0596  0.0744 -1.0343
  878MOL0     H21102   8.266   1.406   9.128  1.0413 -1.0014 -1.4115
  878MOL0     H21103   8.178   1.646   9.129 -0.4792 -1.2594 -0.6799
  878MOL0     H21104   8.316   1.700   9.036 -1.6177  1.5977  1.6568
  878MOL0     H21105   8.144   1.485   8.937  0.0149  0.0711  3.4405
  878MOL0     H21106   8.280   1.580   8.851  0.8430 -1.5089  1.1187
  878MOL0     H21107   8.012   1.680   8.978 -0.3387 -0.6524  0.4348
  878MOL0     H21108   8.121   1.777   8.889  1.2775 -0.2757  0.8268
  878MOL0     H21109   7.960   1.543   8.775 -0.4998 -0.8397  0.6685
  878MOL0     H21110   8.079   1.640   8.681 -2.6657 -3.1119 -1.2912
  878MOL0     H21111   7.835   1.741   8.823  3.5069  0.2641  1.0232
  878MOL0     H21112   7.935   1.841   8.722 -0.5093  1.5840  0.8051
  878MOL0     H21113   7.808   1.484   8.598  1.2382 -2.0189 -3.1234
  878MOL0     H21114   7.581   1.529   8.303 -1.2616  0.8376  2.1119
  878MOL0     H21115   7.600   1.422   8.438  1.1586 -0.6740  0.7745
  878MOL0     H21116   7.853   1.485   8.289  1.2395 -0.3483 -1.3374
  878MOL0     H21117   7.815   1.345   8.381 -0.2760 -1.0039 -0.5869
  878MOL0     H21118   7.820   1.307   8.146  1.5266  0.8329  3.7440
  878MOL0     H21119   7.640   1.302   8.194  0.2953 -0.1378 -0.1914
  878MOL0     H21120   7.677   1.386   7.982 -2.9361 -1.0153 -0.5427
  878MOL0     H21121   7.604   1.512   8.085  0.5144  2.0149 -1.5784
  878MOL0     H21122   7.877   1.777   7.931 -0.2922  0.6517 -0.8292
  878MOL0     H21123   8.148   1.805   7.678  2.2549  3.9586  1.8841
  878MOL0     H21124   8.062   1.901   7.799 -2.5920 -0.2145 -0.8500
  878MOL0     H21125   7.970   1.857   7.658 -0.4197  0.6969  0.8163
  878MOL0     H21126   8.367   1.437   7.504 -4.2865  4.3339  2.6199
  878MOL0     H21127   8.501   1.480   7.296  0.8246 -2.2033 -0.6243
  878MOL0     H21128   8.598   1.502   7.064 -1.3270  1.3617 -1.2603
  878MOL0     H21129   8.516   1.329   7.069 -1.4417 -0.0056  0.1775
  878MOL0     H21130   8.555   1.515   6.832  1.3100 -0.7666 -2.1752
  878MOL0     H21131   8.666   1.378   6.891 -0.3949 -0.2191  0.9285
  878MOL0     H21132   8.367   1.349   6.811  0.1263  0.5883 -3.2964
  878MOL0     H21133   8.499   1.235   6.863  0.3061 -0.4024  0.1199
  878MOL0     H21134   8.577   1.226   6.651  2.8878  1.8240 -2.4884
  878MOL0     H21135   8.553   1.397   6.616  1.0216  0.6022 -0.3168
  878MOL0     H21136   8.302   1.322   6.608  0.8558  1.1168 -1.8587
  878MOL0     H21137   8.409   1.278   6.468 -4.5300  0.9704 -2.4625
  878MOL0     H21138   8.319   1.102   6.700 -0.6889 -1.3986  0.2337
  878MOL0     H21139   8.444   1.042   6.586 -0.5070 -1.0859 -0.8383
  878MOL0     H21140   8.266   1.073   6.403  1.5955 -2.5086 -1.1703
  878MOL0     H21141   8.156   1.083   6.563  1.3730 -3.8505  3.0009
  878MOL0     H21142   8.165   0.866   6.449 -0.2556  0.5034  0.0870
  878MOL0     H21143   8.225   0.872   6.622  1.5794  0.2580  0.2678
  878MOL0     H21144   8.133   1.430   7.062 -0.7103 -1.9139  0.2052
  878MOL0     H21145   8.013   1.395   7.273 -0.0742  0.9033  0.9280
  878MOL0     H21146   8.010   1.360   7.707  1.0964 -0.6143 -0.9785
  878MOL0     H21147   7.867   1.351   7.920 -0.5455  1.1386  4.6875
  878MOL0     H21148   8.370   1.338   9.470  2.0828 -0.7243  0.6731
  878MOL0     H21149   8.272   1.371   9.690 -0.0256  1.8558  1.4940
  878MOL0     H21150   8.258   1.185  10.148 -0.6886  0.0290  1.2218
  878MOL0     H21151   8.208   1.198  10.396  2.1761 -0.9434 -1.0190
  878MOL0     H21152   8.043   1.304  10.585  0.2188 -2.2439  0.5783
  878MOL0     H21153   8.208   1.227  10.605  1.7573  1.4713  1.9601
  878MOL0     H21154   8.082   1.314  10.810 -1.4681 -0.8949 -0.5425
  878MOL0     H21155   8.135   1.477  10.748 -0.0496 -0.4128 -2.0498
  878MOL0     H21156   8.339   1.253  10.786  0.4135  0.7195  1.1275
  878MOL0     H21157   8.372   1.423  10.753 -1.1058  1.5857 -1.3764
  878MOL0     H21158   8.210   1.400  11.003  1.2741 -0.9178  2.4046
  878MOL0     H21159   8.361   1.491  10.975 -0.6939  0.9573 -0.8804
  878MOL0     H21160   8.503   1.155  11.172 -2.2332  0.0756  0.8393
  878MOL0     H21161   8.314   1.603  10.394  2.2960 -1.5649  2.3197
  878MOL0     H21162   8.487   1.694  10.227  2.4087 -2.1890  0.2724
  878MOL0     H21163   8.503   1.616  10.076  0.5710 -2.2440 -0.7855
  878MOL0     H21164   8.359   1.711  10.112  0.1454  0.6165  2.8356
  879MOL0     O21165   6.328   6.671   2.457  0.5720 -0.1336  0.2532
  879MOL0     C21166   6.309   6.779   2.402 -0.9109 -0.1514  0.2847
  879MOL0     O21167   6.224   6.800   2.301 -0.0868 -0.2580 -0.1143
  879MOL0     C21168   6.132   6.699   2.272  0.5139 -0.0969  0.4420
  879MOL0     C21169   6.121   6.649   2.141  0.3739  0.9746 -0.8391
  879MOL0     C21170   6.035   6.534   2.121  0.3554  0.0846  0.4386
  879MOL0     C21171   5.956   6.476   2.230  0.1907  0.0550 -0.5661
  879MOL0     O21172   5.889   6.352   2.208  0.0259  0.1398 -0.2718
  879MOL0     C21173   5.775   6.363   2.104 -0.5451 -0.1390  0.8351
  879MOL0     C21174   5.705   6.228   2.103  0.2534  0.7598 -0.0646
  879MOL0     C21175   5.557   6.251   2.068  1.2459  0.0904 -0.0829
  879MOL0     C21176   5.478   6.117   2.067 -1.3152  0.0674 -0.4654
  879MOL0     C21177   5.344   6.131   2.008  0.7125 -0.3334 -1.2111
  879MOL0     C21178   5.272   5.996   2.003  0.1362  0.6047  0.5192
  879MOL0     C21179   5.119   5.998   1.960  0.0902 -1.1905 -0.2456
  879MOL0     C21180   5.117   5.981   1.806  0.6908  0.0576  0.3751
  879MOL0     N21181   4.976   5.969   1.766 -0.1376 -0.1122  0.5864
  879MOL0     C21182   4.873   5.892   1.819  0.1144  0.2968  0.0933
  879MOL0     C21183   4.772   5.899   1.731  0.2081 -0.1751 -0.2699
  879MOL0     C21184   4.647   5.819   1.745  0.1943 -0.6489  0.5691
  879MOL0     C21185   4.522   5.917   1.723 -0.1983 -0.1078  0.1899
  879MOL0     C21186   4.389   5.857   1.782 -0.8475 -0.2597 -0.2805
  879MOL0     C21187   4.287   5.970   1.805  0.3077  0.2616  0.5097
  879MOL0     O21188   4.321   6.065   1.905  0.3090  0.6777  0.1257
  879MOL0     C21189   4.219   6.158   1.925  0.1126  0.5604 -1.2696
  879MOL0     C21190   4.227   6.288   1.868  0.7338  0.0504  0.0384
  879MOL0     C21191   4.136   6.395   1.914 -0.2206  0.2969  0.3397
  879MOL0     C21192   4.148   6.526   1.827  0.6540 -0.0278  0.3792
  879MOL0     C21193   4.047   6.367   2.019 -0.1397  0.0401 -1.0270
  879MOL0     C21194   3.956   6.465   2.077  0.2041 -1.4179  0.5289
  879MOL0     O21195   3.885   6.434   2.186 -0.4230 -0.1073 -0.4168
  879MOL0     C21196   3.848   6.533   2.273 -0.1209 -0.8259  0.4928
  879MOL0     C21197   3.923   6.552   2.392  0.2782  0.2315  0.0794
  879MOL0     C21198   3.885   6.653   2.481  0.0859 -0.1954  0.2471
  879MOL0     C21199   3.774   6.727   2.457 -0.3414  0.3321 -0.3198
  879MOL0     O21200   3.728   6.813   2.547 -0.4238  0.4618  0.0735
  879MOL0     C21201   3.778   6.945   2.548 -0.2263  0.0576  0.0837
  879MOL0     C21202   3.793   6.992   2.699  0.4895  0.4137  0.3382
  879MOL0     C21203   3.872   7.122   2.718 -0.1767  0.4169 -0.1045
  879MOL0     C21204   4.018   7.095   2.663 -0.1261  0.3215 -0.0840
  879MOL0     C21205   4.125   7.183   2.721 -1.1718 -0.9385 -0.9438
  879MOL0     C21206   4.177   7.113   2.851 -0.2431 -0.2917  0.1773
  879MOL0     C21207   4.311   7.181   2.882 -0.0469 -0.3056 -0.1726
  879MOL0     C21208   4.381   7.110   2.994  0.2929  0.2786 -0.9454
  879MOL0    Cl21209   4.295   7.099   3.142 -0.1725  0.0860 -0.2084
  879MOL0     C21210   3.700   6.708   2.340  0.5599 -0.1536 -0.2352
  879MOL0     C21211   3.738   6.620   2.243  1.3153  0.8112 -0.2366
  879MOL0     O21212   3.954   6.580   2.025  0.7697  0.4675 -0.3992
  879MOL0     C21213   4.034   6.227   2.071 -0.2413  0.2718  0.5611
  879MOL0     C21214   4.128   6.135   2.024  0.0378 -0.5270 -0.2971
  879MOL0     N21215   4.806   5.977   1.625 -0.1307 -0.5960 -0.1051
  879MOL0     N21216   4.915   6.040   1.657 -0.9092 -0.7032  0.4714
  879MOL0     C21217   5.955   6.546   2.356 -0.7952  1.1837  0.1833
  879MOL0     C21218   6.045   6.653   2.369 -0.0332 -0.0845 -0.9030
  879MOL0     C21219   6.369   6.892   2.464 -0.8405  0.9339  0.2991
  879MOL0     C21220   6.297   7.005   2.485  0.5650  0.0334 -0.3655
  879MOL0     C21221   6.351   7.122   2.540  0.5131 -0.4187 -0.5325
  879MOL0     C21222   6.490   7.123   2.556 -0.4098  0.7868  0.4561
  879MOL0     O21223   6.568   7.223   2.596  0.0869 -0.4237  0.0180
  879MOL0     C21224   6.513   7.352   2.613 -0.2821 -0.3767 -0.2947
  879MOL0     C21225   6.609   7.417   2.703  0.1457  0.5597 -0.7951
  879MOL0     C21226   6.577   7.557   2.753  0.6581  0.2316 -0.6286
  879MOL0     C21227   6.504   7.547   2.888 -0.3399  0.6241 -0.6784
  879MOL0     C21228   6.597   7.500   3.002  0.1301  0.0311  0.0868
  879MOL0     C21229   6.682   7.461   3.082 -0.0082 -0.1733  0.4358
  879MOL0     C21230   6.566   7.008   2.531 -0.5126  0.5003  0.3863
  879MOL0     C21231   6.511   6.894   2.491  0.7523 -1.0196  0.8640
  879MOL0     C21232   6.601   6.774   2.471  0.1124 -0.1050  0.5737
  879MOL0     H21233   6.171   6.686   2.052 -1.1324  0.5368 -1.9094
  879MOL0     H21234   6.015   6.503   2.019  0.9314 -1.5287  0.7850
  879MOL0     H21235   5.815   6.389   2.005  0.8391  0.2087  1.4602
  879MOL0     H21236   5.705   6.445   2.123 -1.4165 -0.6671  0.0251
  879MOL0     H21237   5.739   6.154   2.029 -4.1186 -0.3769 -1.2374
  879MOL0     H21238   5.722   6.182   2.201  0.9432 -0.5186 -0.7521
  879MOL0     H21239   5.506   6.328   2.127 -0.6809 -1.0029 -0.2357
  879MOL0     H21240   5.557   6.293   1.967 -0.1066 -2.4188 -1.2109
  879MOL0     H21241   5.533   6.046   2.005 -0.0928 -1.2919  1.9791
  879MOL0     H21242   5.469   6.078   2.169 -4.1483  3.2576  0.6824
  879MOL0     H21243   5.350   6.171   1.906  0.8313  1.1988 -0.6338
  879MOL0     H21244   5.292   6.213   2.059 -2.5275 -1.3874 -2.5115
  879MOL0     H21245   5.329   5.932   1.935 -0.9486 -0.8543  0.9333
  879MOL0     H21246   5.272   5.945   2.100 -0.7352  1.2941  0.9010
  879MOL0     H21247   5.073   6.094   1.987  0.5051 -1.6111  2.2117
  879MOL0     H21248   5.062   5.921   2.012 -1.3125 -1.2444 -1.7909
  879MOL0     H21249   5.166   6.062   1.752  0.5671 -0.9573 -1.3641
  879MOL0     H21250   5.175   5.891   1.781 -0.1972 -0.6020  0.5966
  879MOL0     H21251   4.872   5.834   1.911 -2.0720 -0.0232 -0.0756
  879MOL0     H21252   4.623   5.786   1.847 -1.4415 -1.8126 -0.1539
  879MOL0     H21253   4.643   5.732   1.679  0.6307 -0.5583  0.4190
  879MOL0     H21254   4.541   6.010   1.779  2.2701 -0.1795 -0.3930
  879MOL0     H21255   4.506   5.944   1.619  1.5476  1.4083  0.2613
  879MOL0     H21256   4.350   5.795   1.701  0.7856  0.5334 -1.7672
  879MOL0     H21257   4.412   5.811   1.878  2.6980  0.2290 -0.7308
  879MOL0     H21258   4.262   6.022   1.712  0.9917 -1.2054 -0.5282
  879MOL0     H21259   4.195   5.923   1.842  0.4783  0.0794  0.7072
  879MOL0     H21260   4.298   6.289   1.786  1.9845  0.7792  1.1050
  879MOL0     H21261   4.168   6.608   1.896  1.0361 -0.3977  0.7161
  879MOL0     H21262   4.053   6.550   1.779  0.7063  0.4115  0.4931
  879MOL0     H21263   4.222   6.505   1.749 -1.5866 -1.1087 -1.5831
  879MOL0     H21264   4.000   6.477   2.408 -0.1664  0.1309  1.9222
  879MOL0     H21265   3.935   6.660   2.577 -0.4285 -0.9657  0.5752
  879MOL0     H21266   3.869   6.956   2.487 -1.7934 -0.8596 -2.6092
  879MOL0     H21267   3.700   7.010   2.509 -2.4928 -1.2548  2.2060
  879MOL0     H21268   3.693   6.999   2.742 -0.2304 -1.8344 -0.8362
  879MOL0     H21269   3.859   6.914   2.737  0.4942  0.2431 -0.0178
  879MOL0     H21270   3.869   7.162   2.820  1.1978  1.0184 -0.2833
  879MOL0     H21271   3.827   7.211   2.675 -1.3404  0.7876  1.7540
  879MOL0     H21272   4.002   7.106   2.556  0.1070  0.0937 -0.1424
  879MOL0     H21273   4.048   6.991   2.681  3.7274  1.2991  0.0368
  879MOL0     H21274   4.202   7.173   2.643 -0.6182  0.2869 -0.5724
  879MOL0     H21275   4.107   7.290   2.725  1.3508 -0.4228 -1.4627
  879MOL0     H21276   4.202   7.008   2.832 -1.2497 -0.5391  0.1682
  879MOL0     H21277   4.108   7.134   2.933  0.0055  1.0776  0.0575
  879MOL0     H21278   4.283   7.284   2.906 -1.2856 -0.0039 -2.6372
  879MOL0     H21279   4.380   7.188   2.798 -0.0507 -0.5745 -0.1984
  879MOL0     H21280   4.482   7.148   3.012  0.6068 -0.9628  0.0455
  879MOL0     H21281   4.391   7.004   2.970 -2.0074 -0.8216  2.2489
  879MOL0     H21282   3.615   6.774   2.321  2.0387  1.7339 -0.6080
  879MOL0     H21283   3.675   6.600   2.156  0.3622 -2.7987  1.0806
  879MOL0     H21284   3.965   6.206   2.152 -0.4990 -0.0750  0.2564
  879MOL0     H21285   4.136   6.037   2.071  0.5712  1.4720  4.3770
  879MOL0     H21286   5.897   6.513   2.442 -2.5308 -2.1497 -2.0711
  879MOL0     H21287   6.045   6.706   2.463 -0.9947 -1.4751 -0.0870
  879MOL0     H21288   6.190   6.993   2.472  0.5664 -2.2865  1.1971
  879MOL0     H21289   6.289   7.210   2.552 -1.2441 -1.7403  0.7034
  879MOL0     H21290   6.501   7.409   2.520 -2.0342  5.0343  2.7952
  879MOL0     H21291   6.418   7.349   2.667 -0.0355  1.7837  0.3350
  879MOL0     H21292   6.694   7.430   2.635 -0.1663 -0.3068 -1.3694
  879MOL0     H21293   6.622   7.352   2.790  0.2033  0.8754 -0.5690
  879MOL0     H21294   6.673   7.608   2.758  2.1673 -2.5409  2.5723
  879MOL0     H21295   6.505   7.606   2.686  0.0182  3.5548  2.2282
  879MOL0     H21296   6.429   7.468   2.877  0.4570 -0.4755  1.2179
  879MOL0     H21297   6.460   7.640   2.924 -0.6346  0.1852  0.1379
  879MOL0     H21298   6.740   7.438   3.169 -0.5290 -1.3602  0.4914
  879MOL0     H21299   6.674   7.011   2.547 -0.7302  4.0795  2.1420
  879MOL0     H21300   6.708   6.795   2.469  0.8520 -3.1252 -2.5322
  879MOL0     H21301   6.598   6.715   2.563 -0.8514  0.6464  1.0479
  879MOL0     H21302   6.579   6.735   2.371 -1.8536  0.7665  0.6117
  880MOL0     O21303   6.875   6.519   9.373 -0.4818 -0.1930 -0.0803
  880MOL0     C21304   6.914   6.456   9.274 -0.4674 -0.4678  0.3447
  880MOL0     O21305   6.999   6.503   9.184 -0.2538  0.8115  0.4287
  880MOL0     C21306   7.069   6.625   9.198 -0.7822  0.4980 -0.0919
  880MOL0     C21307   6.986   6.743   9.195 -0.9895 -0.0343  0.0483
  880MOL0     C21308   7.049   6.865   9.209 -0.3752 -1.3272 -0.7851
  880MOL0     C21309   7.184   6.879   9.229  0.4626  0.1116  0.3495
  880MOL0     O21310   7.228   7.009   9.237 -0.1300  0.3202  0.7419
  880MOL0     C21311   7.366   7.037   9.232  0.8120 -0.8549  0.5237
  880MOL0     C21312   7.379   7.190   9.219  0.2953 -0.2335 -1.3515
  880MOL0     C21313   7.367   7.251   9.361  0.4074 -0.0201 -0.6441
  880MOL0     C21314   7.496   7.230   9.437  0.7167 -0.3759  1.5859
  880MOL0     C21315   7.456   7.265   9.577  0.1227  0.4282  1.0333
  880MOL0     C21316   7.580   7.284   9.669  0.2076 -0.4318  0.2425
  880MOL0     C21317   7.636   7.429   9.662  0.0461 -0.3469  0.1493
  880MOL0     C21318   7.764   7.444   9.745  0.1794  0.1628  0.3781
  880MOL0     N21319   7.817   7.579   9.743  0.0386 -0.3427 -0.1393
  880MOL0     C21320   7.831   7.658   9.637 -0.1069 -0.4965  1.8224
  880MOL0     C21321   7.847   7.783   9.699  1.3145  0.0618 -0.8375
  880MOL0     C21322   7.840   7.910   9.614  0.7202 -0.9765 -0.0552
  880MOL0     C21323   7.973   7.988   9.622  0.1621 -0.8427  0.1414
  880MOL0     C21324   7.990   8.110   9.532 -0.1441  0.3445 -0.1929
  880MOL0     C21325   7.932   8.102   9.392  0.3066  0.5812  0.2772
  880MOL0     O21326   8.000   8.001   9.321  0.5951 -0.2246 -0.4411
  880MOL0     C21327   7.965   7.960   9.192  0.4915 -0.6364  0.2792
  880MOL0     C21328   8.012   7.844   9.141 -0.2791  0.2294 -0.0681
  880MOL0     C21329   7.972   7.786   9.026  0.6057 -0.4819  0.3941
  880MOL0     C21330   8.042   7.666   8.985 -0.3743  0.3206  1.0000
  880MOL0     C21331   7.865   7.842   8.956  0.7251  0.8482 -0.2063
  880MOL0     C21332   7.813   7.789   8.825  0.4531 -0.1486  0.5711
  880MOL0     O21333   7.695   7.845   8.780  0.2253 -0.0963 -0.1221
  880MOL0     C21334   7.651   7.819   8.652  0.1741  1.0098 -1.1035
  880MOL0     C21335   7.568   7.707   8.629 -0.0937 -0.5633  0.7264
  880MOL0     C21336   7.516   7.683   8.502 -1.2108  0.6785  0.0953
  880MOL0     C21337   7.554   7.756   8.396 -0.5635  0.5624 -0.8214
  880MOL0     O21338   7.497   7.723   8.272 -0.4047 -0.8780 -0.0993
  880MOL0     C21339   7.532   7.779   8.136  0.2171 -0.3767 -0.0012
  880MOL0     C21340   7.665   7.755   8.091 -0.3382  0.9743 -0.3246
  880MOL0     C21341   7.705   7.799   7.951  0.0127 -0.5668  0.7606
  880MOL0     C21342   7.798   7.934   7.944  0.6481 -0.1115  0.0849
  880MOL0     C21343   7.735   8.065   7.988 -1.2966 -0.1276 -0.3558
  880MOL0     C21344   7.827   8.186   7.944  0.1099  0.2695  0.0255
  880MOL0     C21345   7.764   8.320   7.965  0.3183  0.1937 -0.3807
  880MOL0     C21346   7.862   8.421   7.943 -0.6636 -0.2243 -0.2276
  880MOL0    Cl21347   7.797   8.585   7.940 -0.2129 -0.0574  0.0299
  880MOL0     C21348   7.631   7.868   8.420 -0.3830  0.3784  0.1149
  880MOL0     C21349   7.679   7.899   8.541  0.8379 -0.2755  0.4315
  880MOL0     O21350   7.879   7.710   8.758  0.5975  0.4483 -1.2396
  880MOL0     C21351   7.801   7.954   9.007  0.4151 -0.4880  0.1274
  880MOL0     C21352   7.855   8.014   9.119  0.8079  0.1679 -0.7252
  880MOL0     N21353   7.859   7.773   9.831  0.4680 -0.5239  0.2694
  880MOL0     N21354   7.833   7.646   9.862 -0.1710  0.8898 -0.8574
  880MOL0     C21355   7.261   6.759   9.216 -0.9978 -0.5522 -0.1338
  880MOL0     C21356   7.205   6.632   9.207  0.1342 -0.8901 -0.1994
  880MOL0     C21357   6.863   6.323   9.254  0.4052 -0.1481 -0.4319
  880MOL0     C21358   6.820   6.294   9.118  0.6672 -0.2196  0.2256
  880MOL0     C21359   6.748   6.178   9.086  0.5153 -0.8231 -0.0055
  880MOL0     C21360   6.733   6.069   9.182  1.4335 -0.4786  0.7356
  880MOL0     O21361   6.681   5.943   9.168 -0.3392  0.3560  0.2829
  880MOL0     C21362   6.585   5.935   9.061 -0.3662 -0.2521  1.0982
  880MOL0     C21363   6.476   5.833   9.096  0.2340 -0.1344 -0.3743
  880MOL0     C21364   6.390   5.859   9.227 -0.6627  0.4624  0.5471
  880MOL0     C21365   6.303   5.740   9.260 -0.1160 -0.8008 -0.4078
  880MOL0     C21366   6.243   5.761   9.394  0.4018 -0.3258 -0.6929
  880MOL0     C21367   6.206   5.767   9.515  0.4211  0.0162  0.6140
  880MOL0     C21368   6.790   6.102   9.310  0.0357  0.6570  0.7813
  880MOL0     C21369   6.845   6.223   9.352  0.7986  0.2715  0.0610
  880MOL0     C21370   6.865   6.248   9.500 -0.6451 -0.3678 -1.0463
  880MOL0     H21371   6.879   6.726   9.202 -0.9586 -1.8755 -2.5074
  880MOL0     H21372   6.987   6.954   9.219 -1.6778 -2.2312 -0.5689
  880MOL0     H21373   7.415   6.997   9.143 -0.0526 -0.5942 -0.0898
  880MOL0     H21374   7.428   6.993   9.311  1.1750  0.2288  0.8574
  880MOL0     H21375   7.481   7.210   9.185  0.3832 -1.7765 -2.0854
  880MOL0     H21376   7.315   7.235   9.143 -0.0254 -2.0416 -2.2024
  880MOL0     H21377   7.328   7.352   9.343 -3.2958 -1.6712 -3.0099
  880MOL0     H21378   7.286   7.204   9.418 -1.2486  3.9651  0.6624
  880MOL0     H21379   7.538   7.129   9.429  3.2900  0.7129  0.4685
  880MOL0     H21380   7.570   7.298   9.394 -0.7715  0.4217  0.1474
  880MOL0     H21381   7.388   7.192   9.622  1.4715 -1.1825  0.5614
  880MOL0     H21382   7.398   7.357   9.588  3.3620  3.2708 -2.5914
  880MOL0     H21383   7.553   7.263   9.773 -0.5186  0.1785  0.1909
  880MOL0     H21384   7.656   7.210   9.645  1.5659  0.9733  0.0368
  880MOL0     H21385   7.557   7.499   9.692 -2.0013 -1.8381 -1.4555
  880MOL0     H21386   7.652   7.457   9.558 -1.1282  1.6495  0.4463
  880MOL0     H21387   7.757   7.392   9.841 -1.7497  0.3526  0.3812
  880MOL0     H21388   7.841   7.377   9.706 -1.1557 -1.2437  0.0477
  880MOL0     H21389   7.828   7.658   9.529  4.9557  0.0299  1.4371
  880MOL0     H21390   7.758   7.972   9.650  3.4850  2.0946  1.5484
  880MOL0     H21391   7.827   7.874   9.512 -0.4259 -2.8686  0.7173
  880MOL0     H21392   7.990   8.026   9.724  2.5696 -3.2409  0.7500
  880MOL0     H21393   8.051   7.913   9.609  2.9991  2.3342 -3.5094
  880MOL0     H21394   7.932   8.191   9.577  0.4408  1.3527 -1.2023
  880MOL0     H21395   8.095   8.139   9.528  0.0374  0.4977  3.0027
  880MOL0     H21396   7.826   8.075   9.393 -0.8448  4.4837  1.3638
  880MOL0     H21397   7.939   8.201   9.346 -0.4235  0.8846  0.7873
  880MOL0     H21398   8.074   7.787   9.209 -2.8115 -0.9018  1.4097
  880MOL0     H21399   7.987   7.572   8.977  1.6013 -0.7112 -1.7354
  880MOL0     H21400   8.110   7.629   9.063  1.8513 -0.7557 -1.3121
  880MOL0     H21401   8.098   7.675   8.892  0.1616 -1.3798  1.1128
  880MOL0     H21402   7.538   7.647   8.714  1.7340 -3.2507 -0.3994
  880MOL0     H21403   7.439   7.608   8.487 -1.3443  0.8252  0.0448
  880MOL0     H21404   7.458   7.730   8.072 -0.8317 -0.2225  1.0531
  880MOL0     H21405   7.506   7.884   8.123 -0.8853 -0.5756  0.4215
  880MOL0     H21406   7.733   7.814   8.153  0.2236  0.4965 -0.4757
  880MOL0     H21407   7.691   7.649   8.104  0.3618  1.3372  1.4457
  880MOL0     H21408   7.615   7.810   7.890  0.4619 -0.2747  0.1440
  880MOL0     H21409   7.772   7.721   7.914  0.8840  0.5113  0.0043
  880MOL0     H21410   7.836   7.938   7.841 -0.4879  0.0892 -0.3389
  880MOL0     H21411   7.888   7.929   8.007 -2.5896 -0.8278  5.2016
  880MOL0     H21412   7.634   8.073   7.947 -2.6676  1.8659  2.9930
  880MOL0     H21413   7.717   8.085   8.094 -2.5860 -0.8435 -0.4217
  880MOL0     H21414   7.842   8.161   7.839 -0.2704 -3.8681  0.7756
  880MOL0     H21415   7.919   8.182   8.003 -0.5397 -1.1585  0.9796
  880MOL0     H21416   7.727   8.321   8.068  0.5042  0.4543 -0.3169
  880MOL0     H21417   7.682   8.337   7.894  1.1375 -0.6818 -1.5719
  880MOL0     H21418   7.915   8.394   7.851  0.9423 -0.8416  0.8342
  880MOL0     H21419   7.932   8.420   8.027  0.4621  0.9080 -1.1120
  880MOL0     H21420   7.657   7.952   8.357  0.5548  1.8573  2.3449
  880MOL0     H21421   7.730   7.995   8.545  2.4894 -1.1534  1.7460
  880MOL0     H21422   7.712   8.004   8.969  0.5381 -0.3454  0.0263
  880MOL0     H21423   7.810   8.106   9.155  2.1827  0.7053 -0.3094
  880MOL0     H21424   7.368   6.777   9.224 -1.2939  0.8233  1.1990
  880MOL0     H21425   7.265   6.542   9.202  0.8070 -0.3772 -3.0550
  880MOL0     H21426   6.835   6.365   9.038 -0.5700 -1.8191 -1.5094
  880MOL0     H21427   6.716   6.161   8.984 -1.2175 -0.6439  0.4768
  880MOL0     H21428   6.540   6.030   9.031 -1.0383 -1.4110 -1.8252
  880MOL0     H21429   6.625   5.901   8.966  0.1060  1.5174  0.6365
  880MOL0     H21430   6.534   5.741   9.112  0.5992 -0.1131 -1.4445
  880MOL0     H21431   6.411   5.810   9.011 -0.5483  1.1703 -0.1560
  880MOL0     H21432   6.451   5.866   9.317 -2.5589  0.6404  1.8655
  880MOL0     H21433   6.332   5.950   9.206 -1.3558 -0.0993 -0.0481
  880MOL0     H21434   6.356   5.644   9.250  0.1685 -0.5969 -0.9322
  880MOL0     H21435   6.228   5.730   9.181 -2.6390 -4.8629  2.1417
  880MOL0     H21436   6.163   5.772   9.613 -0.9387 -0.2799  0.0445
  880MOL0     H21437   6.775   6.020   9.379 -1.8547  0.7356  0.5183
  880MOL0     H21438   6.883   6.152   9.549 -3.1541 -0.7841 -0.7901
  880MOL0     H21439   6.950   6.314   9.519 -1.4506  1.0172 -2.0915
  880MOL0     H21440   6.776   6.290   9.547 -1.6990 -0.8072 -2.5378
  881MOL0     O21441   9.112  10.227   8.608 -0.4552  0.6319  1.0797
  881MOL0     C21442   9.073  10.341   8.602  0.1057  0.2549 -0.8502
  881MOL0     O21443   9.105  10.427   8.500  0.6989 -0.0882 -0.4477
  881MOL0     C21444   9.178  10.395   8.386  0.4668  0.9010 -0.8689
  881MOL0     C21445   9.152  10.451   8.260  0.0269 -0.0940  0.5191
  881MOL0     C21446   9.226  10.423   8.146 -0.3094  0.0926  0.4724
  881MOL0     C21447   9.341  10.341   8.163  0.4761 -1.0763  0.1259
  881MOL0     O21448   9.415  10.324   8.055 -0.3519 -0.3563 -1.5004
  881MOL0     C21449   9.509  10.427   8.013  0.3034 -0.3189 -0.5422
  881MOL0     C21450   9.623  10.355   7.943  1.4054 -0.0757 -0.8046
  881MOL0     C21451   9.717  10.309   8.056 -0.6514 -0.8778 -0.6232
  881MOL0     C21452   9.826  10.226   7.990  0.0998 -0.1578 -0.1573
  881MOL0     C21453   9.943  10.185   8.066  0.8579  0.0478  0.6062
  881MOL0     C21454  10.040  10.100   7.983  0.9196 -0.4944 -0.4652
  881MOL0     C21455  10.179  10.071   8.047 -0.4199  0.5065 -0.9733
  881MOL0     C21456  10.252   9.952   7.982  0.7289 -0.1024  0.4575
  881MOL0     N21457  10.220   9.818   8.033  0.3089  0.6533 -0.7431
  881MOL0     C21458  10.305   9.720   8.009 -0.3612 -0.0584 -0.0199
  881MOL0     C21459  10.262   9.614   8.077  0.1636  0.8588  0.3970
  881MOL0     C21460  10.314   9.476   8.070 -0.4701  0.0047  0.9555
  881MOL0     C21461  10.424   9.466   8.182 -0.0807  0.7009  0.4024
  881MOL0     C21462  10.460   9.316   8.195 -0.1540 -1.6680  0.2101
  881MOL0     C21463  10.505   9.231   8.075  0.3092  0.6328  0.3380
  881MOL0     O21464  10.397   9.186   7.992 -0.4575 -0.6881 -0.3651
  881MOL0     C21465  10.421   9.150   7.860  0.5643 -0.3946  0.2288
  881MOL0     C21466  10.320   9.171   7.760 -1.0248  0.4253  0.2999
  881MOL0     C21467  10.348   9.138   7.620  0.2267 -0.2107 -0.4274
  881MOL0     C21468  10.244   9.182   7.522 -0.6461  1.1110  0.6969
  881MOL0     C21469  10.469   9.070   7.590 -0.6634 -0.0307  0.8087
  881MOL0     C21470  10.505   9.034   7.444 -1.3453 -0.0831 -0.2747
  881MOL0     O21471  10.397   8.995   7.370 -0.0470 -0.4282  0.2238
  881MOL0     C21472  10.421   8.910   7.262 -0.8955 -0.6195 -0.0466
  881MOL0     C21473  10.506   8.796   7.260  0.1710  0.3908 -0.6666
  881MOL0     C21474  10.525   8.726   7.140  0.2192  0.9685 -0.1182
  881MOL0     C21475  10.468   8.775   7.022  0.4108  0.1687  0.6379
  881MOL0     O21476  10.481   8.706   6.907  0.2117  0.6921  0.6197
  881MOL0     C21477  10.538   8.780   6.793  0.1588 -0.7645 -0.6751
  881MOL0     C21478  10.664   8.714   6.740 -0.2603 -0.3945 -0.6985
  881MOL0     C21479  10.778   8.711   6.848 -0.2307 -0.5507 -0.1831
  881MOL0     C21480  10.909   8.641   6.812 -0.0643 -0.0407  0.4053
  881MOL0     C21481  11.027   8.677   6.903  1.0955 -0.6935 -0.0854
  881MOL0     C21482  11.146   8.593   6.871 -0.6866  0.2485  0.6221
  881MOL0     C21483  11.269   8.636   6.943 -0.2917 -0.1524  0.1743
  881MOL0     C21484  11.319   8.776   6.891  0.8339  0.6806  0.0985
  881MOL0    Cl21485  11.431   8.850   7.010 -0.2903  0.4891 -0.0176
  881MOL0     C21486  10.383   8.883   7.025 -0.1185  0.2379  0.0627
  881MOL0     C21487  10.363   8.951   7.144  0.6250  0.0071 -0.1744
  881MOL0     O21488  10.617   9.051   7.392 -0.2558  0.1566 -0.6754
  881MOL0     C21489  10.564   9.040   7.696  0.0228  0.2881  0.0105
  881MOL0     C21490  10.543   9.085   7.821 -0.5170 -0.3487  1.0285
  881MOL0     N21491  10.158   9.649   8.155  0.6921 -0.0022 -0.0519
  881MOL0     N21492  10.131   9.777   8.126 -1.2503  0.2810  0.3764
  881MOL0     C21493   9.358  10.272   8.282 -1.2341 -0.2914  0.1249
  881MOL0     C21494   9.284  10.298   8.393 -0.4061 -1.0683  0.6893
  881MOL0     C21495   9.008  10.404   8.731  0.0717  0.3545 -0.2325
  881MOL0     C21496   9.014  10.548   8.739  0.5488  0.0927 -0.8200
  881MOL0     C21497   8.988  10.617   8.861 -1.1807  1.1941  1.2244
  881MOL0     C21498   8.944  10.544   8.965  0.0079  0.6497 -0.1946
  881MOL0     O21499   8.887  10.605   9.070 -1.1890 -0.5843 -1.0007
  881MOL0     C21500   8.948  10.733   9.105 -0.2107  0.8367  0.5786
  881MOL0     C21501   9.083  10.718   9.165 -0.8417  0.1942  0.2904
  881MOL0     C21502   9.115  10.594   9.255 -0.7215 -0.0321 -0.5260
  881MOL0     C21503   9.267  10.575   9.259  0.4234 -0.2020 -0.1009
  881MOL0     C21504   9.337  10.700   9.313  0.4480  0.7130 -1.1886
  881MOL0     C21505   9.392  10.793   9.362 -0.5191  0.3691  0.2466
  881MOL0     C21506   8.929  10.406   8.954 -0.8295 -0.2886  0.0636
  881MOL0     C21507   8.956  10.333   8.837 -0.4313 -0.4136  0.3885
  881MOL0     C21508   8.930  10.186   8.838  0.9668 -0.5298 -0.7240
  881MOL0     H21509   9.060  10.508   8.265  0.5815  0.8091  0.7626
  881MOL0     H21510   9.209  10.460   8.045  0.3651  0.8699  0.6288
  881MOL0     H21511   9.543  10.486   8.099 -2.1777 -3.8802  3.2935
  881MOL0     H21512   9.464  10.494   7.939  0.9212 -1.0121 -1.5663
  881MOL0     H21513   9.588  10.274   7.878  0.6021 -1.5842  1.3705
  881MOL0     H21514   9.680  10.423   7.879  0.5912  0.2376 -1.2153
  881MOL0     H21515   9.769  10.392   8.105 -0.8682  2.0837 -4.9136
  881MOL0     H21516   9.666  10.247   8.130 -1.0102  1.8321  1.5214
  881MOL0     H21517   9.780  10.136   7.947  3.6977 -1.4870 -1.6482
  881MOL0     H21518   9.862  10.283   7.904 -0.5199 -1.6162 -1.4308
  881MOL0     H21519   9.905  10.122   8.148  1.3592 -0.8005  0.1988
  881MOL0     H21520  10.004  10.267   8.105  2.4178  0.2904 -2.1081
  881MOL0     H21521   9.996  10.003   7.958  1.6108 -0.5814 -1.4162
  881MOL0     H21522  10.059  10.152   7.888 -2.2018  1.1473 -0.3135
  881MOL0     H21523  10.179  10.043   8.153 -0.7194  1.5366 -0.6891
  881MOL0     H21524  10.238  10.163   8.049  0.9361 -0.3299 -1.1442
  881MOL0     H21525  10.230   9.961   7.876  4.3025  1.0464 -0.3467
  881MOL0     H21526  10.359   9.975   7.985  0.7529  0.0224 -0.7845
  881MOL0     H21527  10.384   9.713   7.934 -1.7028 -2.0869 -1.3410
  881MOL0     H21528  10.360   9.467   7.971  0.0110  2.0053  0.9483
  881MOL0     H21529  10.228   9.409   8.078 -1.2901  0.7905 -0.6965
  881MOL0     H21530  10.504   9.533   8.149  0.6870 -0.3653  0.0590
  881MOL0     H21531  10.387   9.495   8.281  0.4576  0.5698  0.6407
  881MOL0     H21532  10.540   9.311   8.269 -0.1545 -1.9274  0.1939
  881MOL0     H21533  10.376   9.267   8.245 -1.3281 -0.7742 -0.8128
  881MOL0     H21534  10.577   9.296   8.024 -1.3294  2.8793  0.7103
  881MOL0     H21535  10.560   9.145   8.113  1.3447  2.6951  4.0236
  881MOL0     H21536  10.224   9.219   7.777 -0.1530  1.8644  1.3851
  881MOL0     H21537  10.159   9.226   7.577 -2.0123 -0.7510  0.1799
  881MOL0     H21538  10.221   9.095   7.460  2.4794  1.3713 -1.0305
  881MOL0     H21539  10.281   9.254   7.448 -2.0307  0.0007 -1.1837
  881MOL0     H21540  10.561   8.769   7.349 -1.2554  0.9177  0.4157
  881MOL0     H21541  10.589   8.639   7.139 -1.9529 -0.7541  0.4450
  881MOL0     H21542  10.473   8.780   6.705 -0.0901  1.5398 -0.5439
  881MOL0     H21543  10.556   8.885   6.817  2.8027 -0.9685 -1.4213
  881MOL0     H21544  10.635   8.613   6.711  1.5185 -1.0758 -0.2430
  881MOL0     H21545  10.708   8.765   6.653  2.4596  0.3678  0.9863
  881MOL0     H21546  10.735   8.654   6.931  2.9378 -3.8141 -0.5325
  881MOL0     H21547  10.802   8.807   6.896  3.4387 -1.4071 -0.0812
  881MOL0     H21548  10.924   8.656   6.705 -0.6012 -0.4701  0.2651
  881MOL0     H21549  10.888   8.536   6.831  0.7821 -0.0341  1.4590
  881MOL0     H21550  11.047   8.785   6.902 -2.9824  0.3265  2.7763
  881MOL0     H21551  11.005   8.646   7.006 -0.0202  0.0636 -0.0765
  881MOL0     H21552  11.162   8.606   6.764  0.4514  4.0481  1.1180
  881MOL0     H21553  11.136   8.485   6.886 -1.5109  0.2214 -0.0502
  881MOL0     H21554  11.359   8.578   6.921  0.2209  1.3108 -1.8174
  881MOL0     H21555  11.244   8.638   7.050  0.3259 -2.4969  0.4084
  881MOL0     H21556  11.238   8.846   6.867 -0.9633 -1.0269  0.9287
  881MOL0     H21557  11.359   8.754   6.791  1.0851  2.1340 -0.1415
  881MOL0     H21558  10.322   8.906   6.938 -0.6660 -1.0563  0.0844
  881MOL0     H21559  10.285   9.025   7.134 -0.5628 -0.6085  3.1869
  881MOL0     H21560  10.654   8.985   7.672 -1.4429 -1.7347 -1.0701
  881MOL0     H21561  10.616   9.078   7.901 -0.2652  4.1796  1.4768
  881MOL0     H21562   9.438  10.200   8.296 -1.5775 -0.4628  1.3017
  881MOL0     H21563   9.311  10.258   8.490  0.3887 -0.9584  0.5167
  881MOL0     H21564   9.059  10.607   8.660 -0.2960  1.0423 -0.6074
  881MOL0     H21565   8.983  10.725   8.855 -0.3731  1.2090  0.6083
  881MOL0     H21566   8.949  10.798   9.018  1.9858 -0.9926 -0.8763
  881MOL0     H21567   8.881  10.780   9.178 -1.6344  1.2426 -0.9370
  881MOL0     H21568   9.115  10.814   9.206 -1.8207  0.2312  0.9941
  881MOL0     H21569   9.153  10.715   9.081  2.8889  2.3163  3.0123
  881MOL0     H21570   9.079  10.623   9.354 -0.5864  1.0382 -0.7748
  881MOL0     H21571   9.063  10.502   9.226 -0.1832 -0.5137 -0.0003
  881MOL0     H21572   9.294  10.543   9.158 -2.4814 -3.2121 -0.0716
  881MOL0     H21573   9.278  10.485   9.321 -0.4029 -0.6211 -0.5598
  881MOL0     H21574   9.447  10.867   9.418  0.1667  0.2776 -0.2829
  881MOL0     H21575   8.903  10.355   9.046  0.7095  0.5989  1.0358
  881MOL0     H21576   9.014  10.128   8.878 -0.1921 -0.5761  1.8619
  881MOL0     H21577   8.852  10.151   8.906 -0.8094  0.1939 -2.2962
  881MOL0     H21578   8.894  10.163   8.737 -0.1852  1.3625 -0.7778
  882MOL0     O21579   0.137  11.475   8.500 -0.8546  0.3445 -0.2826
  882MOL0     C21580   0.043  11.468   8.581 -0.2440 -1.2649  0.3589
  882MOL0     O21581  -0.031  11.573   8.616 -0.3123 -0.5037 -0.0768
  882MOL0     C21582  -0.001  11.701   8.571  0.1942 -0.2540  0.2865
  882MOL0     C21583   0.006  11.742   8.435  0.4098  0.8935 -0.7906
  882MOL0     C21584   0.023  11.879   8.399  0.3879  0.1612  0.0352
  882MOL0     C21585   0.047  11.977   8.499  0.6333  0.8490 -0.5732
  882MOL0     O21586   0.074  12.107   8.470 -0.3589  1.0302  0.3146
  882MOL0     C21587  -0.026  12.183   8.400  0.3497 -0.5058  0.5805
  882MOL0     C21588  -0.039  12.316   8.476  0.3500  0.2216 -0.7949
  882MOL0     C21589  -0.166  12.404   8.423  0.1081  0.0908  0.3785
  882MOL0     C21590  -0.296  12.324   8.432  0.7005  0.8625 -0.1691
  882MOL0     C21591  -0.428  12.403   8.397 -0.4140 -0.2531 -1.1960
  882MOL0     C21592  -0.402  12.488   8.274 -0.8383 -0.1971  0.3502
  882MOL0     C21593  -0.540  12.557   8.240  0.0540 -0.2847 -1.1934
  882MOL0     C21594  -0.534  12.658   8.126  0.1201  0.6269 -0.3506
  882MOL0     N21595  -0.570  12.612   7.983 -0.3051  0.3442 -0.2949
  882MOL0     C21596  -0.495  12.527   7.906 -0.1108  0.2961 -0.1688
  882MOL0     C21597  -0.583  12.487   7.803 -0.8922 -0.1559 -0.5835
  882MOL0     C21598  -0.535  12.408   7.685 -1.3489  0.0401  0.0565
  882MOL0     C21599  -0.476  12.473   7.563 -0.8577 -0.1213 -0.7664
  882MOL0     C21600  -0.367  12.575   7.606 -0.2461  1.1626  0.7116
  882MOL0     C21601  -0.344  12.677   7.494 -0.6688  0.3789  0.1453
  882MOL0     O21602  -0.266  12.620   7.388 -0.1120  0.2502 -0.9545
  882MOL0     C21603  -0.216  12.699   7.285  0.2245  0.4440 -0.6447
  882MOL0     C21604  -0.244  12.833   7.258  0.3962 -0.8284  1.1534
  882MOL0     C21605  -0.192  12.900   7.138 -0.1742  1.0929 -0.0918
  882MOL0     C21606  -0.225  13.042   7.129 -0.7713 -0.1919 -0.3715
  882MOL0     C21607  -0.087  12.837   7.061 -0.1642  0.4913  0.2239
  882MOL0     C21608  -0.011  12.891   6.949 -0.6154 -0.6766  0.6424
  882MOL0     O21609  -0.025  13.029   6.906 -0.9829  0.1783  0.1570
  882MOL0     C21610   0.049  13.081   6.801 -0.2199  0.1321  0.4591
  882MOL0     C21611   0.185  13.075   6.802  0.1918  0.0324  0.0264
  882MOL0     C21612   0.266  13.146   6.701 -0.2549 -0.1044  0.7097
  882MOL0     C21613   0.197  13.206   6.593  0.0035  0.3364  0.1833
  882MOL0     O21614   0.258  13.268   6.485  0.1853 -0.0125 -0.0286
  882MOL0     C21615   0.401  13.259   6.472  0.2756 -0.3036 -0.2022
  882MOL0     C21616   0.441  13.113   6.431  1.0473  0.9581 -0.7983
  882MOL0     C21617   0.386  13.077   6.288  0.0023  0.0161 -0.3941
  882MOL0     C21618   0.486  12.973   6.222  0.8173 -0.2972 -0.3267
  882MOL0     C21619   0.443  12.936   6.077 -0.1866  0.7765 -0.0822
  882MOL0     C21620   0.534  12.836   6.002  0.0108 -0.8098 -0.0948
  882MOL0     C21621   0.678  12.898   5.955 -0.2579 -0.0209 -1.1931
  882MOL0     C21622   0.740  12.805   5.862  0.2684  0.6435 -1.0491
  882MOL0    Cl21623   0.879  12.879   5.764  0.5260  0.8602 -0.2363
  882MOL0     C21624   0.062  13.230   6.601  0.1970  0.5350 -0.7996
  882MOL0     C21625  -0.013  13.155   6.695  1.4835  0.8322  1.2712
  882MOL0     O21626   0.052  12.813   6.882  0.6912 -0.0803 -0.1823
  882MOL0     C21627  -0.066  12.699   7.096 -0.4482  0.5520 -0.5315
  882MOL0     C21628  -0.131  12.630   7.205 -0.3772 -0.2252 -0.3746
  882MOL0     N21629  -0.700  12.557   7.830  0.1374 -0.3711 -0.1684
  882MOL0     N21630  -0.687  12.644   7.928  1.3961  0.4963  0.3614
  882MOL0     C21631   0.051  11.940   8.630 -0.7797  0.6631 -0.1824
  882MOL0     C21632   0.018  11.807   8.668  0.0362 -0.0859 -0.0803
  882MOL0     C21633  -0.009  11.343   8.628 -0.4723  0.7981 -0.2930
  882MOL0     C21634  -0.129  11.343   8.702  0.5061  0.1692  0.1663
  882MOL0     C21635  -0.198  11.222   8.725 -0.0919  0.2563 -0.5230
  882MOL0     C21636  -0.144  11.096   8.693  0.0356 -0.1495 -0.2274
  882MOL0     O21637  -0.220  10.988   8.716  0.0441 -1.0347 -0.0217
  882MOL0     C21638  -0.166  10.851   8.715  0.3497  0.7123  0.2475
  882MOL0     C21639  -0.276  10.759   8.745  0.2000 -0.2885  0.8779
  882MOL0     C21640  -0.390  10.749   8.628 -0.8752 -0.5901  0.9494
  882MOL0     C21641  -0.369  10.625   8.545  1.1404  0.0600  0.6115
  882MOL0     C21642  -0.435  10.624   8.418  0.5316 -0.1689  0.1688
  882MOL0     C21643  -0.489  10.631   8.311  1.3736 -0.7664 -0.6423
  882MOL0     C21644  -0.011  11.098   8.643  0.0771 -0.3851 -1.2892
  882MOL0     C21645   0.051  11.220   8.607  0.2090  0.9775  0.4625
  882MOL0     C21646   0.191  11.205   8.543  0.5869  1.0933  0.2830
  882MOL0     H21647  -0.011  11.666   8.358  5.1177 -0.0806 -1.2041
  882MOL0     H21648   0.022  11.892   8.291  0.2240  0.2849  0.0496
  882MOL0     H21649  -0.122  12.134   8.382  1.3830 -1.7053 -2.2712
  882MOL0     H21650   0.001  12.201   8.296 -2.9835  1.1730 -0.1226
  882MOL0     H21651  -0.052  12.292   8.582  1.4661 -2.4688 -1.1855
  882MOL0     H21652   0.046  12.374   8.439  0.1622  0.1315 -1.3912
  882MOL0     H21653  -0.177  12.496   8.482  0.5306  0.6624 -0.4238
  882MOL0     H21654  -0.143  12.426   8.318 -3.2135  0.5842 -0.3580
  882MOL0     H21655  -0.303  12.236   8.367 -2.1447  0.7988  0.0649
  882MOL0     H21656  -0.316  12.291   8.534  0.9896  1.5592  0.1109
  882MOL0     H21657  -0.461  12.473   8.474  0.6452 -0.2368 -0.7431
  882MOL0     H21658  -0.510  12.333   8.378  1.3970 -4.0614  3.0545
  882MOL0     H21659  -0.327  12.566   8.287 -0.2731 -0.3513 -1.6688
  882MOL0     H21660  -0.367  12.424   8.193 -1.8290 -0.6636  0.2779
  882MOL0     H21661  -0.570  12.618   8.326  1.7471 -1.9371  0.6981
  882MOL0     H21662  -0.619  12.484   8.225 -0.7662  0.0955  0.8858
  882MOL0     H21663  -0.618  12.727   8.142 -1.8436 -1.0301 -2.6958
  882MOL0     H21664  -0.440  12.713   8.127  2.5893 -3.2447 -0.2220
  882MOL0     H21665  -0.388  12.511   7.907  0.5919  3.9466  0.8229
  882MOL0     H21666  -0.620  12.345   7.658 -0.7046 -1.2554  0.9742
  882MOL0     H21667  -0.454  12.348   7.726 -2.1137 -0.4638  0.8496
  882MOL0     H21668  -0.438  12.403   7.488 -3.5095 -1.0532 -1.3608
  882MOL0     H21669  -0.553  12.538   7.519  0.5936  1.5223 -0.9816
  882MOL0     H21670  -0.391  12.623   7.701  1.2931 -0.3907  1.9567
  882MOL0     H21671  -0.275  12.519   7.627 -0.5574 -0.5357 -1.9800
  882MOL0     H21672  -0.441  12.707   7.453 -0.7300 -2.0925 -1.7842
  882MOL0     H21673  -0.285  12.764   7.525  1.9813 -1.0338 -0.6788
  882MOL0     H21674  -0.306  12.890   7.327  1.1684  1.0541  0.3602
  882MOL0     H21675  -0.133  13.098   7.143 -2.0244  2.0364 -0.6233
  882MOL0     H21676  -0.301  13.062   7.205 -1.7074 -0.4284 -1.2115
  882MOL0     H21677  -0.266  13.068   7.031  0.2734 -0.9533 -1.0286
  882MOL0     H21678   0.236  13.028   6.885  2.4169  1.5890 -0.3632
  882MOL0     H21679   0.374  13.138   6.712 -0.0010  1.3537 -0.3775
  882MOL0     H21680   0.438  13.325   6.393  2.8868  1.2164  2.0870
  882MOL0     H21681   0.461  13.276   6.562 -0.7085 -0.8835  0.5885
  882MOL0     H21682   0.550  13.105   6.426  0.9735  0.6219 -2.2272
  882MOL0     H21683   0.402  13.043   6.506  1.3741  0.0416 -1.4754
  882MOL0     H21684   0.382  13.163   6.220 -1.0349  2.4040  2.4917
  882MOL0     H21685   0.281  13.046   6.291 -1.6727  4.6879 -1.4580
  882MOL0     H21686   0.494  12.876   6.271  0.4600 -0.5058 -0.6710
  882MOL0     H21687   0.583  13.022   6.214  0.6675 -0.2539 -3.1695
  882MOL0     H21688   0.343  12.891   6.087  0.0857 -0.2876 -1.8613
  882MOL0     H21689   0.427  13.026   6.018 -1.3376  0.5720 -0.1124
  882MOL0     H21690   0.480  12.808   5.912  1.7856 -0.1362 -1.4371
  882MOL0     H21691   0.552  12.749   6.066  1.9596 -0.9167 -0.7017
  882MOL0     H21692   0.752  12.927   6.030 -0.1154  1.3334 -1.8353
  882MOL0     H21693   0.667  12.994   5.905  0.4679  0.5184 -0.3497
  882MOL0     H21694   0.657  12.771   5.799 -2.5384 -0.5784  2.9125
  882MOL0     H21695   0.768  12.712   5.911 -2.5394 -0.3342 -1.1245
  882MOL0     H21696   0.015  13.295   6.529  2.3342  1.0084 -1.8383
  882MOL0     H21697  -0.122  13.156   6.693  1.4953  0.6334 -0.7785
  882MOL0     H21698   0.002  12.640   7.037 -1.1862  0.1388 -0.9800
  882MOL0     H21699  -0.121  12.524   7.229 -2.6493 -0.4370 -0.0997
  882MOL0     H21700   0.066  12.008   8.713 -3.1830 -0.4749  1.2887
  882MOL0     H21701   0.010  11.790   8.775  1.9423  1.0428  0.2852
  882MOL0     H21702  -0.179  11.435   8.732  1.0951  0.7444 -0.5714
  882MOL0     H21703  -0.294  11.227   8.775  0.6708  3.3698  0.8733
  882MOL0     H21704  -0.122  10.812   8.623  0.5879 -0.3873  0.8058
  882MOL0     H21705  -0.090  10.836   8.791 -0.3516 -1.0250  0.6568
  882MOL0     H21706  -0.332  10.810   8.824 -2.1878  1.5795 -1.8309
  882MOL0     H21707  -0.235  10.662   8.774 -1.6247 -1.9904 -1.7726
  882MOL0     H21708  -0.495  10.754   8.658 -1.6628 -2.5208 -1.1684
  882MOL0     H21709  -0.376  10.840   8.571 -1.0484 -0.8954  0.4139
  882MOL0     H21710  -0.388  10.535   8.604 -1.9825 -0.2810 -0.7120
  882MOL0     H21711  -0.265  10.621   8.513  1.6238  1.7436  1.8283
  882MOL0     H21712  -0.520  10.643   8.209  0.0811  1.9220 -0.0455
  882MOL0     H21713   0.036  11.003   8.622  2.6021  0.5373 -0.1590
  882MOL0     H21714   0.208  11.098   8.526  1.1645  1.0792  0.9014
  882MOL0     H21715   0.200  11.248   8.443  0.8448  0.1769 -0.0924
  882MOL0     H21716   0.267  11.253   8.605  3.4850 -1.5052 -1.0326
  883MOL0     O21717   8.720   3.955   7.988  0.3146  0.2658 -0.2911
  883MOL0     C21718   8.667   3.847   7.960  0.3154  0.0832 -0.6086
  883MOL0     O21719   8.728   3.726   7.979 -0.2238  0.0213 -0.7370
  883MOL0     C21720   8.867   3.726   7.986  0.6257 -0.3463  0.2628
  883MOL0     C21721   8.938   3.652   8.084  0.9783  0.2811 -0.3563
  883MOL0     C21722   9.080   3.663   8.081  0.3769  0.1353  0.2630
  883MOL0     C21723   9.155   3.734   7.988  0.3064 -1.1333 -0.3026
  883MOL0     O21724   9.285   3.751   7.988  0.3794  0.5049 -0.3385
  883MOL0     C21725   9.343   3.765   8.119 -0.4292 -0.3117 -0.2640
  883MOL0     C21726   9.353   3.910   8.166 -0.6783  0.0259  0.7556
  883MOL0     C21727   9.366   3.935   8.311 -0.1459 -0.6898 -0.8122
  883MOL0     C21728   9.491   3.868   8.373 -0.2761  1.0214 -1.2736
  883MOL0     C21729   9.534   3.923   8.509 -0.0117  0.1227 -0.2637
  883MOL0     C21730   9.634   3.823   8.578 -0.3143 -0.0077 -0.8274
  883MOL0     C21731   9.662   3.884   8.717 -0.8484 -0.5178 -0.0003
  883MOL0     C21732   9.554   3.847   8.821 -0.1070 -0.5924 -0.6528
  883MOL0     N21733   9.595   3.901   8.958 -0.3890  0.1945  0.4163
  883MOL0     C21734   9.572   4.024   8.994  0.7974 -0.3777 -0.3157
  883MOL0     C21735   9.613   4.025   9.120  0.4792  0.4640  0.6329
  883MOL0     C21736   9.599   4.140   9.210 -1.0326 -0.4781 -0.7418
  883MOL0     C21737   9.543   4.091   9.339  0.2310 -0.5984  0.9096
  883MOL0     C21738   9.512   4.194   9.449  0.5720  0.3136 -0.1646
  883MOL0     C21739   9.614   4.202   9.554 -0.2760  0.1407 -0.2597
  883MOL0     O21740   9.727   4.267   9.490 -0.1881 -1.2072  0.0665
  883MOL0     C21741   9.851   4.259   9.553 -0.5681 -0.1152  0.9743
  883MOL0     C21742   9.964   4.289   9.477  0.2958  0.1735  0.1961
  883MOL0     C21743  10.092   4.305   9.538 -0.0480 -0.3895  0.1994
  883MOL0     C21744  10.206   4.333   9.446  0.2184 -0.3966  0.5087
  883MOL0     C21745  10.103   4.287   9.678  0.1412 -0.1105  0.3914
  883MOL0     C21746  10.227   4.330   9.754 -0.9419  0.3169  0.1867
  883MOL0     O21747  10.266   4.449   9.781  0.4626  0.2154 -0.6621
  883MOL0     C21748  10.175   4.555   9.777  0.3594  0.7446  0.0002
  883MOL0     C21749  10.131   4.598   9.907 -1.0452  0.5209  0.5237
  883MOL0     C21750  10.045   4.706   9.915 -0.4787 -0.5636  0.4928
  883MOL0     C21751  10.004   4.772   9.794  1.5847 -0.1194  0.3444
  883MOL0     O21752   9.904   4.870   9.806 -0.0712  0.7284  0.3367
  883MOL0     C21753   9.875   4.976   9.709 -0.2992 -0.2992 -1.0664
  883MOL0     C21754   9.990   5.087   9.711  0.2000  0.4108 -0.1959
  883MOL0     C21755   9.928   5.226   9.713 -0.1324 -1.8424 -0.5784
  883MOL0     C21756  10.028   5.339   9.710  0.2390  0.1514 -0.1085
  883MOL0     C21757   9.957   5.472   9.677  0.5516  0.4807 -0.6508
  883MOL0     C21758  10.029   5.604   9.688  0.1649  0.0569 -0.3672
  883MOL0     C21759  10.052   5.667   9.827  0.0307  0.3011  0.2507
  883MOL0     C21760  10.077   5.816   9.821 -0.5217 -0.8641 -0.1712
  883MOL0    Cl21761  10.210   5.846   9.707 -0.4482  0.3749  0.1142
  883MOL0     C21762  10.052   4.736   9.670  0.4705  0.7636  0.2872
  883MOL0     C21763  10.125   4.615   9.659  0.3291 -0.7411 -1.3621
  883MOL0     O21764  10.290   4.229   9.798 -0.4793 -0.2745  0.0175
  883MOL0     C21765   9.993   4.238   9.758  0.2152  0.2675 -0.0815
  883MOL0     C21766   9.863   4.226   9.687  0.1380  0.1385 -0.1893
  883MOL0     N21767   9.676   3.909   9.149  0.7532  0.5278 -0.1938
  883MOL0     N21768   9.667   3.829   9.046 -0.2618  0.3201 -0.2109
  883MOL0     C21769   9.080   3.795   7.889  0.1052 -0.7302  0.2615
  883MOL0     C21770   8.943   3.797   7.890  0.9840 -0.4288 -1.1926
  883MOL0     C21771   8.532   3.865   7.911 -0.7007 -0.1921 -0.1456
  883MOL0     C21772   8.451   3.967   7.969 -0.8892  0.4927  0.2580
  883MOL0     C21773   8.316   3.979   7.939  1.1713 -0.3281  0.1530
  883MOL0     C21774   8.262   3.888   7.846  0.0675 -0.3194 -0.2424
  883MOL0     O21775   8.130   3.883   7.814  0.1565 -0.7649  0.4230
  883MOL0     C21776   8.054   4.006   7.804  0.1029  0.0811 -0.0832
  883MOL0     C21777   7.925   3.975   7.725  0.2675 -0.1521 -0.2270
  883MOL0     C21778   7.836   4.090   7.681 -0.8629  0.1589  0.8336
  883MOL0     C21779   7.821   4.185   7.804  0.9301  0.4947 -0.5284
  883MOL0     C21780   7.726   4.295   7.790 -0.5085 -0.1742 -0.4246
  883MOL0     C21781   7.660   4.396   7.786  0.2338  0.7256 -1.0592
  883MOL0     C21782   8.340   3.799   7.781  0.4109  0.0505 -0.5007
  883MOL0     C21783   8.471   3.777   7.815 -0.3868 -0.9444 -0.3310
  883MOL0     C21784   8.541   3.668   7.744  0.2778 -0.3450  0.0375
  883MOL0     H21785   8.885   3.588   8.154 -0.1186  0.5274 -0.9360
  883MOL0     H21786   9.133   3.606   8.156  3.0771  0.4359 -1.2983
  883MOL0     H21787   9.446   3.728   8.124 -1.1372 -2.2244  2.2185
  883MOL0     H21788   9.289   3.705   8.193  1.1086 -3.1466 -1.2870
  883MOL0     H21789   9.438   3.960   8.120  0.4263 -0.7792  1.8462
  883MOL0     H21790   9.264   3.961   8.128  0.6124  2.9082  1.3529
  883MOL0     H21791   9.371   4.044   8.314 -2.5750 -0.5464  0.0998
  883MOL0     H21792   9.274   3.907   8.363  0.9301 -0.2020  1.4606
  883MOL0     H21793   9.471   3.761   8.388  1.5652  1.1221  4.6412
  883MOL0     H21794   9.574   3.884   8.303  2.0384  2.6457  1.5894
  883MOL0     H21795   9.448   3.931   8.577  2.4773 -0.8879  3.3203
  883MOL0     H21796   9.582   4.021   8.504  0.8716 -0.2812  0.0328
  883MOL0     H21797   9.602   3.721   8.599  1.8445 -0.3318  1.3696
  883MOL0     H21798   9.717   3.830   8.507 -2.3019 -1.2868 -3.4573
  883MOL0     H21799   9.650   3.992   8.706  2.0890 -0.3603 -3.7453
  883MOL0     H21800   9.761   3.855   8.754 -0.2577 -0.4227 -1.4683
  883MOL0     H21801   9.450   3.880   8.806  0.7726  3.1266  0.3906
  883MOL0     H21802   9.564   3.739   8.834 -1.6127 -0.5608  1.2447
  883MOL0     H21803   9.524   4.106   8.940 -0.9072 -1.1883 -0.0982
  883MOL0     H21804   9.525   4.210   9.172  0.0061  0.1871 -1.6065
  883MOL0     H21805   9.697   4.189   9.219 -0.6616 -1.5836  2.7969
  883MOL0     H21806   9.451   4.038   9.315  0.3285 -0.7912  0.9665
  883MOL0     H21807   9.613   4.014   9.374 -0.9457 -2.0481  0.1852
  883MOL0     H21808   9.486   4.284   9.393 -0.8095 -0.2461 -0.4510
  883MOL0     H21809   9.420   4.167   9.501  1.9550 -0.4745  2.0354
  883MOL0     H21810   9.577   4.258   9.640 -0.8955  1.9857 -1.6711
  883MOL0     H21811   9.649   4.101   9.581  1.5273 -0.3396 -3.7544
  883MOL0     H21812   9.949   4.316   9.372  0.5866 -1.6687 -0.3532
  883MOL0     H21813  10.162   4.389   9.363 -1.0077 -0.9697  0.7394
  883MOL0     H21814  10.246   4.238   9.409 -0.5854 -0.8347  0.7271
  883MOL0     H21815  10.283   4.398   9.489  0.5825  0.4493 -1.3375
  883MOL0     H21816  10.167   4.542   9.992 -0.6436  0.8954  0.6078
  883MOL0     H21817  10.010   4.747  10.009  0.2161  0.2580  0.4170
  883MOL0     H21818   9.856   4.936   9.609 -3.9517 -0.8452 -0.3184
  883MOL0     H21819   9.781   5.028   9.731 -0.6395 -1.1914 -0.3473
  883MOL0     H21820  10.046   5.063   9.802  0.3866 -1.4779 -0.7692
  883MOL0     H21821  10.062   5.078   9.629  2.7045 -2.8704  2.0722
  883MOL0     H21822   9.868   5.229   9.804  0.4924  1.0376 -0.1767
  883MOL0     H21823   9.857   5.237   9.630 -2.8358 -1.6607  1.6035
  883MOL0     H21824  10.111   5.316   9.644  0.4959 -1.2671  0.6757
  883MOL0     H21825  10.069   5.343   9.812 -2.9911  0.3718  1.3112
  883MOL0     H21826   9.927   5.468   9.571  1.0063 -2.3424 -0.7552
  883MOL0     H21827   9.878   5.468   9.753  4.9978  1.8085  4.6508
  883MOL0     H21828   9.974   5.684   9.638 -0.6283  0.4863  1.1307
  883MOL0     H21829  10.120   5.587   9.629  2.8260  0.5276  3.2434
  883MOL0     H21830  10.127   5.617   9.888  1.8280  0.3308 -1.8237
  883MOL0     H21831   9.956   5.664   9.879  0.0397 -1.0072  0.2155
  883MOL0     H21832  10.106   5.840   9.924 -1.2281 -2.5696  0.4545
  883MOL0     H21833   9.990   5.875   9.793 -0.3154  0.1730  1.2289
  883MOL0     H21834  10.024   4.788   9.580  0.3768 -1.4169 -1.0226
  883MOL0     H21835  10.146   4.582   9.558 -1.0949 -3.4155 -0.8677
  883MOL0     H21836  10.008   4.224   9.864  3.2247 -1.0604 -0.5634
  883MOL0     H21837   9.780   4.196   9.749 -1.1414  0.8215 -1.5205
  883MOL0     H21838   9.132   3.855   7.814 -1.4764  1.3408  0.7434
  883MOL0     H21839   8.884   3.841   7.811 -0.0772  1.1111  0.4028
  883MOL0     H21840   8.492   4.045   8.032 -1.1329  0.9437 -0.1428
  883MOL0     H21841   8.257   4.058   7.985 -0.9462 -1.5403 -0.3433
  883MOL0     H21842   8.033   4.050   7.902  2.6396  3.5618 -0.9111
  883MOL0     H21843   8.123   4.084   7.769 -0.3414  1.3379  1.7328
  883MOL0     H21844   7.873   3.905   7.792 -2.1131  0.2284 -1.5796
  883MOL0     H21845   7.954   3.931   7.629 -1.1234  0.9619 -1.1924
  883MOL0     H21846   7.904   4.130   7.605 -0.2594 -3.1376 -0.5234
  883MOL0     H21847   7.747   4.055   7.629 -1.7034  1.5881  1.2577
  883MOL0     H21848   7.920   4.232   7.811  0.6841  0.7732  1.8688
  883MOL0     H21849   7.802   4.137   7.900 -0.7923 -0.1063 -1.1286
  883MOL0     H21850   7.599   4.484   7.783 -0.0534  0.5649 -0.0720
  883MOL0     H21851   8.299   3.739   7.700 -0.1833  0.4747 -0.5150
  883MOL0     H21852   8.494   3.643   7.648 -2.8309  0.0744  1.3199
  883MOL0     H21853   8.650   3.676   7.734  0.3154 -0.6184  0.1857
  883MOL0     H21854   8.515   3.576   7.798 -0.7718  0.3283  0.7168
  884MOL0     O21855   3.024   6.949   8.481  0.2611 -0.0524  0.3527
  884MOL0     C21856   3.087   7.025   8.411 -1.1914  0.8272 -0.9551
  884MOL0     O21857   3.099   7.161   8.440 -0.1488 -0.0427  0.1700
  884MOL0     C21858   3.059   7.210   8.560  0.5862  0.8731  0.8674
  884MOL0     C21859   2.923   7.212   8.575 -0.5241 -0.0060 -0.0363
  884MOL0     C21860   2.863   7.280   8.681 -0.3474 -0.4297 -0.4460
  884MOL0     C21861   2.944   7.326   8.787  0.1736 -0.2994  0.0951
  884MOL0     O21862   2.905   7.402   8.892 -1.3154 -0.0123 -0.4682
  884MOL0     C21863   2.799   7.503   8.884 -0.2762  0.8204  0.3725
  884MOL0     C21864   2.807   7.612   8.991  0.1198 -0.0562 -0.8026
  884MOL0     C21865   2.938   7.697   8.987  0.1603 -0.3543 -0.6501
  884MOL0     C21866   2.975   7.748   9.125  0.6352  0.3122 -0.7049
  884MOL0     C21867   3.098   7.837   9.120  0.3529 -0.0210 -0.9060
  884MOL0     C21868   3.220   7.754   9.160 -0.3708 -1.2983  0.6711
  884MOL0     C21869   3.236   7.699   9.305  0.3666 -0.4719  1.1763
  884MOL0     C21870   3.250   7.820   9.395  0.8021 -0.0243  0.2578
  884MOL0     N21871   3.263   7.757   9.525  0.7340  0.9960 -0.4553
  884MOL0     C21872   3.373   7.686   9.577  0.2374 -0.2300  0.8548
  884MOL0     C21873   3.323   7.621   9.678  0.2853 -0.2958  0.3316
  884MOL0     C21874   3.391   7.530   9.767  0.5530 -0.3883  0.0851
  884MOL0     C21875   3.394   7.588   9.915 -0.0758  0.0399  1.0688
  884MOL0     C21876   3.440   7.734   9.932  0.4227 -0.3198  0.4757
  884MOL0     C21877   3.582   7.762   9.891 -0.3012 -0.8452 -0.9058
  884MOL0     O21878   3.617   7.720   9.761  0.5392 -0.4889  0.0167
  884MOL0     C21879   3.744   7.716   9.715 -0.2049  0.3934 -0.7030
  884MOL0     C21880   3.856   7.757   9.789 -0.9829 -0.4272 -0.2586
  884MOL0     C21881   3.990   7.767   9.741  0.7581  0.3130 -0.4279
  884MOL0     C21882   4.107   7.791   9.834 -0.0103 -0.5654  0.1078
  884MOL0     C21883   3.998   7.751   9.595 -0.5848  0.5411 -0.2171
  884MOL0     C21884   4.123   7.793   9.520 -0.3443 -0.2840 -0.0249
  884MOL0     O21885   4.121   7.778   9.378 -0.8016 -0.2081 -0.2879
  884MOL0     C21886   4.228   7.821   9.309  0.7635  0.3558  0.1675
  884MOL0     C21887   4.261   7.952   9.301  0.2152  0.3600  0.6779
  884MOL0     C21888   4.366   7.990   9.217  0.2195 -0.5972 -0.1790
  884MOL0     C21889   4.429   7.908   9.130  0.4342 -0.0654  0.0676
  884MOL0     O21890   4.524   7.952   9.040 -0.5550 -0.5389 -0.1705
  884MOL0     C21891   4.548   8.095   9.021 -0.3207 -0.4332 -0.4784
  884MOL0     C21892   4.647   8.118   8.907 -0.0242  1.2218 -0.4524
  884MOL0     C21893   4.614   8.035   8.780  1.1088  0.1596  0.9179
  884MOL0     C21894   4.689   8.103   8.666 -0.1244 -0.5955 -0.1215
  884MOL0     C21895   4.668   8.048   8.522 -0.5540 -0.2989  0.6768
  884MOL0     C21896   4.525   8.054   8.478  0.1517 -0.6804  0.1932
  884MOL0     C21897   4.465   8.193   8.462 -0.3600 -0.6577  0.4405
  884MOL0     C21898   4.311   8.182   8.463 -0.5277 -0.2993  0.2550
  884MOL0    Cl21899   4.274   8.165   8.640  0.4065  0.2098 -0.1713
  884MOL0     C21900   4.388   7.778   9.120  0.7281 -0.3840 -0.7535
  884MOL0     C21901   4.281   7.736   9.204  0.5402 -0.3233  0.1772
  884MOL0     O21902   4.208   7.854   9.584  0.3521  0.2859 -0.4328
  884MOL0     C21903   3.886   7.706   9.524  0.4533 -0.2722 -0.2011
  884MOL0     C21904   3.763   7.683   9.584  0.3088 -0.8580 -0.6355
  884MOL0     N21905   3.189   7.646   9.689  0.1022 -0.3196 -0.0877
  884MOL0     N21906   3.151   7.726   9.599 -0.4900  0.5487  1.2129
  884MOL0     C21907   3.087   7.316   8.776 -0.3441 -0.9617  0.1457
  884MOL0     C21908   3.143   7.262   8.657 -0.1608  0.1220  0.4895
  884MOL0     C21909   3.174   6.978   8.296 -0.3564 -0.5869  0.3974
  884MOL0     C21910   3.124   6.874   8.207 -1.1960 -0.1211 -0.1730
  884MOL0     C21911   3.191   6.835   8.088 -0.2633  0.1289  0.0396
  884MOL0     C21912   3.316   6.885   8.059  0.0590 -0.2731  0.0509
  884MOL0     O21913   3.400   6.858   7.959 -0.5896 -0.2185  0.4411
  884MOL0     C21914   3.355   6.766   7.863  0.5842  0.6424 -0.0984
  884MOL0     C21915   3.433   6.789   7.734  0.9477  0.9481  0.1423
  884MOL0     C21916   3.378   6.684   7.622  0.2122 -0.0864 -0.5078
  884MOL0     C21917   3.470   6.687   7.505  0.3202 -0.5485 -0.1424
  884MOL0     C21918   3.475   6.812   7.440  0.2241  0.0302  0.4266
  884MOL0     C21919   3.464   6.929   7.430  0.4016  0.0044 -0.3367
  884MOL0     C21920   3.363   6.993   8.139  0.9668  0.6503  0.2264
  884MOL0     C21921   3.292   7.040   8.251 -0.0999 -0.3438 -0.1851
  884MOL0     C21922   3.353   7.156   8.323  0.6348  0.6202  0.1276
  884MOL0     H21923   2.857   7.178   8.496  0.9688 -0.8214 -0.9866
  884MOL0     H21924   2.755   7.280   8.676 -0.4082 -1.3977  0.5132
  884MOL0     H21925   2.699   7.460   8.896  0.3284 -0.8468 -0.3259
  884MOL0     H21926   2.806   7.538   8.781 -2.8944  0.8798  0.1621
  884MOL0     H21927   2.726   7.683   8.975  0.2616 -0.0644 -1.6269
  884MOL0     H21928   2.788   7.572   9.091 -1.0585 -1.1047 -1.4077
  884MOL0     H21929   3.018   7.643   8.935 -1.2245 -1.7383 -1.4167
  884MOL0     H21930   2.923   7.788   8.928  0.0663 -0.4421 -0.7614
  884MOL0     H21931   2.887   7.803   9.160 -0.3292 -0.8818 -1.2040
  884MOL0     H21932   2.982   7.652   9.176  1.5639 -1.1509 -3.4161
  884MOL0     H21933   3.094   7.916   9.196  0.9491 -0.6231 -0.2203
  884MOL0     H21934   3.106   7.875   9.018 -3.2393 -3.0006 -2.5312
  884MOL0     H21935   3.226   7.672   9.088  0.7650  0.2508 -1.1112
  884MOL0     H21936   3.306   7.820   9.142 -0.9574 -0.5389  0.5789
  884MOL0     H21937   3.330   7.642   9.305  1.9630  1.9912  0.0656
  884MOL0     H21938   3.159   7.627   9.336  0.2117 -1.6675 -1.6452
  884MOL0     H21939   3.345   7.873   9.380  1.3329 -0.9031  0.4019
  884MOL0     H21940   3.164   7.887   9.400 -1.7157 -3.1162  4.6271
  884MOL0     H21941   3.477   7.689   9.546 -0.3972 -3.4984 -2.2238
  884MOL0     H21942   3.494   7.517   9.733  0.8282  1.9257 -0.1349
  884MOL0     H21943   3.343   7.432   9.760 -2.8872  0.9707  2.0909
  884MOL0     H21944   3.299   7.557   9.960  0.1846 -5.1657 -1.2006
  884MOL0     H21945   3.474   7.525   9.955  0.3311 -1.0600 -1.3249
  884MOL0     H21946   3.370   7.808   9.892  1.8588 -0.2648 -2.1486
  884MOL0     H21947   3.440   7.753  10.040  1.4668 -1.2252  0.6610
  884MOL0     H21948   3.610   7.865   9.911  0.6359 -0.9905 -1.4020
  884MOL0     H21949   3.640   7.699   9.959  1.0232  1.8780  0.6493
  884MOL0     H21950   3.849   7.775   9.896 -0.3808 -0.1591 -0.2580
  884MOL0     H21951   4.086   7.794   9.941 -0.3478  3.6440  0.0703
  884MOL0     H21952   4.151   7.888   9.813  0.4981 -0.3146  2.1912
  884MOL0     H21953   4.183   7.714   9.816  2.0005  1.1029  1.1754
  884MOL0     H21954   4.205   8.024   9.360 -2.3135  0.2147 -1.3580
  884MOL0     H21955   4.393   8.094   9.197 -2.3642 -0.1527 -1.9870
  884MOL0     H21956   4.453   8.146   9.002  0.7287  0.9079 -2.4452
  884MOL0     H21957   4.600   8.136   9.108  0.6351 -1.8374 -0.3497
  884MOL0     H21958   4.626   8.222   8.882 -2.7626  0.9257  0.2993
  884MOL0     H21959   4.747   8.100   8.949  0.1062  2.4062 -0.2158
  884MOL0     H21960   4.508   8.023   8.757  1.1069  1.4841  0.1009
  884MOL0     H21961   4.656   7.934   8.786 -0.6178 -0.9066 -2.3096
  884MOL0     H21962   4.797   8.111   8.682 -0.3288  2.8493  0.2298
  884MOL0     H21963   4.670   8.210   8.657 -0.7810 -0.8917 -3.2277
  884MOL0     H21964   4.723   8.096   8.441 -1.6529 -2.2724 -1.3613
  884MOL0     H21965   4.696   7.943   8.514 -0.3285 -0.1112 -1.9783
  884MOL0     H21966   4.465   7.996   8.548  1.2782 -0.9496  0.9755
  884MOL0     H21967   4.521   8.004   8.381  1.7090 -2.0962  0.7926
  884MOL0     H21968   4.492   8.238   8.366 -1.5851 -3.8120 -1.5696
  884MOL0     H21969   4.505   8.254   8.544  1.6412  0.5424 -1.3193
  884MOL0     H21970   4.281   8.094   8.405  0.8877 -1.1019  0.6839
  884MOL0     H21971   4.259   8.267   8.417 -2.0360 -0.2247  2.0299
  884MOL0     H21972   4.444   7.715   9.052  1.2342  0.8503 -1.5219
  884MOL0     H21973   4.258   7.630   9.195  2.2240 -0.9446  2.3363
  884MOL0     H21974   3.893   7.689   9.417  0.6802 -0.6558 -0.1276
  884MOL0     H21975   3.671   7.650   9.537 -0.4268 -1.3168  1.0643
  884MOL0     H21976   3.147   7.375   8.844 -0.0840  3.4375 -3.4063
  884MOL0     H21977   3.250   7.250   8.639  0.4545 -3.7369  4.7389
  884MOL0     H21978   3.044   6.808   8.234 -1.0195 -0.3886 -0.2995
  884MOL0     H21979   3.143   6.765   8.020  2.4785 -1.0037 -0.8654
  884MOL0     H21980   3.363   6.661   7.892 -2.0192 -0.1568 -1.9473
  884MOL0     H21981   3.249   6.781   7.840  0.1789 -1.6400  0.0547
  884MOL0     H21982   3.538   6.773   7.759  0.6160 -0.5073  0.7336
  884MOL0     H21983   3.416   6.893   7.704  2.4180  1.4678  1.0321
  884MOL0     H21984   3.368   6.583   7.663  1.9531 -0.9369 -2.0125
  884MOL0     H21985   3.278   6.714   7.589  0.9423  1.2931 -1.5859
  884MOL0     H21986   3.443   6.615   7.428 -1.6408  1.2944 -1.2825
  884MOL0     H21987   3.570   6.665   7.543 -0.0916  2.0508  2.8949
  884MOL0     H21988   3.453   7.036   7.421  2.6076  0.5341  1.9651
  884MOL0     H21989   3.455   7.045   8.114 -0.0574  3.7062  2.2488
  884MOL0     H21990   3.462   7.144   8.323  0.6022  0.3007 -0.4183
  884MOL0     H21991   3.326   7.251   8.274 -3.7021  0.2275  1.3515
  884MOL0     H21992   3.326   7.160   8.429  2.1565  0.0466  0.5784
  885MOL0     O21993   3.667   0.514  11.067 -0.4166 -0.8219 -0.0835
  885MOL0     C21994   3.698   0.629  11.103  0.6395 -0.1258  0.5227
  885MOL0     O21995   3.822   0.677  11.141 -0.8414 -0.8397 -0.5491
  885MOL0     C21996   3.921   0.586  11.119  0.8953  0.1817 -0.3719
  885MOL0     C21997   4.002   0.527  11.222  0.9445 -0.2422  0.6155
  885MOL0     C21998   4.101   0.445  11.187 -0.2450 -0.3832  0.6192
  885MOL0     C21999   4.131   0.425  11.049  0.8160 -0.2398  0.5417
  885MOL0     O22000   4.249   0.369  10.995  1.2673  0.4106  0.1864
  885MOL0     C22001   4.326   0.280  11.075  0.2391 -0.1414  0.5783
  885MOL0     C22002   4.466   0.286  10.999 -0.1425 -0.4888  0.1324
  885MOL0     C22003   4.448   0.221  10.864  0.7128 -0.2207  0.2934
  885MOL0     C22004   4.446   0.070  10.871 -0.8768  0.0184  0.4218
  885MOL0     C22005   4.404   0.016  10.731  0.2803 -0.8254  0.1164
  885MOL0     C22006   4.409  -0.135  10.731 -0.1715  0.9139 -0.5569
  885MOL0     C22007   4.307  -0.218  10.812  0.0751  0.5608 -0.0979
  885MOL0     C22008   4.349  -0.376  10.807  0.1963 -0.4735  0.6769
  885MOL0     N22009   4.359  -0.421  10.668  0.4845  0.7874 -0.4866
  885MOL0     C22010   4.269  -0.406  10.571  0.5476  0.5654  0.5083
  885MOL0     C22011   4.306  -0.494  10.475  0.4858 -0.1575  0.3066
  885MOL0     C22012   4.235  -0.511  10.337 -0.3198 -0.1266 -0.4447
  885MOL0     C22013   4.140  -0.634  10.304 -0.8191 -0.6123 -0.2789
  885MOL0     C22014   4.097  -0.639  10.157 -0.5179  0.0440 -0.6921
  885MOL0     C22015   4.039  -0.776  10.116 -1.2061 -0.9154  0.8520
  885MOL0     O22016   3.983  -0.774   9.982 -0.2559 -0.5406  0.6613
  885MOL0     C22017   3.989  -0.887   9.904 -0.8388 -0.2064 -0.2432
  885MOL0     C22018   4.057  -1.009   9.939  0.8616 -0.8044  1.2561
  885MOL0     C22019   4.054  -1.119   9.852 -0.6982  0.4707  0.3358
  885MOL0     C22020   4.122  -1.247   9.897  0.1958  0.4842  0.3103
  885MOL0     C22021   3.988  -1.119   9.725  0.1456 -0.5800  0.3828
  885MOL0     C22022   3.965  -1.225   9.625 -0.4672  0.9447  0.4831
  885MOL0     O22023   4.042  -1.334   9.625  0.4632  0.7232 -0.1044
  885MOL0     C22024   3.983  -1.450   9.571  0.4701 -0.6255  0.4151
  885MOL0     C22025   4.050  -1.524   9.479 -0.0751  1.4187  0.4028
  885MOL0     C22026   4.007  -1.650   9.435  0.0081 -0.1378  0.1619
  885MOL0     C22027   3.888  -1.704   9.486 -0.1044  0.7699  0.9639
  885MOL0     O22028   3.854  -1.833   9.450 -0.2424 -0.1598  0.1175
  885MOL0     C22029   3.733  -1.900   9.491  0.1890  0.3187  0.0498
  885MOL0     C22030   3.720  -2.032   9.406  0.0928  0.0323  0.5580
  885MOL0     C22031   3.726  -2.006   9.249  0.2900 -0.0085 -0.0273
  885MOL0     C22032   3.692  -2.137   9.172 -0.1794  0.3724  0.4458
  885MOL0     C22033   3.712  -2.100   9.020  0.1163  0.0025 -0.3724
  885MOL0     C22034   3.676  -2.221   8.934  1.1054 -0.2397  0.5136
  885MOL0     C22035   3.718  -2.183   8.788  0.0051 -1.1668  0.6473
  885MOL0     C22036   3.701  -2.308   8.702  0.1636 -0.5313  0.6868
  885MOL0    Cl22037   3.735  -2.276   8.524 -0.0957 -0.0111  0.1467
  885MOL0     C22038   3.821  -1.631   9.585 -0.5451 -1.2078 -0.1373
  885MOL0     C22039   3.864  -1.500   9.621  0.1652  0.2946 -0.1650
  885MOL0     O22040   3.868  -1.210   9.554 -0.2512 -0.6780  0.1212
  885MOL0     C22041   3.925  -0.993   9.695 -0.9457  0.4274  0.3155
  885MOL0     C22042   3.926  -0.886   9.783  0.1623 -0.4406  0.0823
  885MOL0     N22043   4.419  -0.557  10.525  0.0219 -0.2422  0.3880
  885MOL0     N22044   4.450  -0.514  10.645 -0.3557  0.2831  0.4751
  885MOL0     C22045   4.049   0.481  10.953 -1.6455  0.4202 -0.4585
  885MOL0     C22046   3.944   0.561  10.988  0.8288  0.9101 -0.3588
  885MOL0     C22047   3.588   0.730  11.118 -0.5046  0.3533 -0.1665
  885MOL0     C22048   3.607   0.830  11.206 -0.9448 -0.9899 -0.2801
  885MOL0     C22049   3.508   0.921  11.237  0.0920 -0.1208 -0.0926
  885MOL0     C22050   3.382   0.920  11.165  0.3155 -0.6060 -0.3183
  885MOL0     O22051   3.287   1.007  11.206 -0.3763  0.5662  0.2260
  885MOL0     C22052   3.289   1.042  11.346  0.3570  0.5361  0.1694
  885MOL0     C22053   3.158   1.116  11.381  0.4892 -0.0653 -0.6109
  885MOL0     C22054   3.158   1.262  11.343  0.1813 -0.8735 -0.3897
  885MOL0     C22055   3.108   1.292  11.205  0.4275  0.0066 -0.1745
  885MOL0     C22056   3.116   1.438  11.178 -0.2241  0.8035  0.1819
  885MOL0     C22057   3.112   1.553  11.160  0.3795  0.2343  0.0377
  885MOL0     C22058   3.371   0.829  11.071  0.1335  1.0447  0.3600
  885MOL0     C22059   3.469   0.727  11.047 -0.3306  0.1920 -0.7529
  885MOL0     C22060   3.436   0.642  10.920  0.4085  0.1857  0.1450
  885MOL0     H22061   3.973   0.551  11.323  0.2283  0.0091  0.3546
  885MOL0     H22062   4.153   0.405  11.273  1.0520 -1.0699 -0.4422
  885MOL0     H22063   4.288   0.178  11.079 -1.0003  0.3190  1.1438
  885MOL0     H22064   4.330   0.314  11.179 -0.0113 -0.4093  0.6775
  885MOL0     H22065   4.497   0.390  10.994 -1.6228 -0.0543 -0.7083
  885MOL0     H22066   4.534   0.213  11.045 -1.1954  0.1932  2.9615
  885MOL0     H22067   4.347   0.245  10.831 -0.3205 -4.4778 -0.3344
  885MOL0     H22068   4.518   0.260  10.789  0.2781  0.6622  0.3356
  885MOL0     H22069   4.549   0.033  10.882 -2.2495 -4.1091  1.1513
  885MOL0     H22070   4.389   0.024  10.952 -1.3624 -0.0891  0.0243
  885MOL0     H22071   4.462   0.058  10.648  1.5026 -0.4491  1.1361
  885MOL0     H22072   4.304   0.042  10.698  0.3267 -0.6627  0.1036
  885MOL0     H22073   4.393  -0.170  10.628  1.3394  0.7043 -0.7532
  885MOL0     H22074   4.513  -0.153  10.760  0.6342  4.0037 -1.2231
  885MOL0     H22075   4.205  -0.207  10.772  0.7724  1.5122 -1.6954
  885MOL0     H22076   4.301  -0.185  10.916  2.2129 -0.6625  0.4729
  885MOL0     H22077   4.438  -0.398  10.867  2.7213  4.0420 -0.8736
  885MOL0     H22078   4.265  -0.426  10.856 -1.2724 -0.5487 -1.7505
  885MOL0     H22079   4.185  -0.337  10.573  0.9651  1.0781  0.9488
  885MOL0     H22080   4.313  -0.491  10.263  1.2857  0.9511  1.4036
  885MOL0     H22081   4.180  -0.417  10.327  2.8192  1.7555 -1.6852
  885MOL0     H22082   4.194  -0.724  10.334 -1.0009  0.2661  3.0775
  885MOL0     H22083   4.051  -0.618  10.366 -1.3196 -1.5465 -0.7377
  885MOL0     H22084   4.016  -0.566  10.145  0.0657  0.5765 -1.5104
  885MOL0     H22085   4.179  -0.609  10.092  0.8487  2.0195  1.7776
  885MOL0     H22086   4.125  -0.841  10.131  2.1647  3.3116  1.6767
  885MOL0     H22087   3.956  -0.801  10.183  1.3769  2.7587  6.1735
  885MOL0     H22088   4.128  -1.031  10.019  1.8079  2.4510  1.4678
  885MOL0     H22089   4.224  -1.259   9.860  0.1548  1.4081 -0.1261
  885MOL0     H22090   4.060  -1.334   9.873 -1.8880  0.9224  3.5280
  885MOL0     H22091   4.133  -1.247  10.005 -2.8756 -2.1169  0.7832
  885MOL0     H22092   4.142  -1.481   9.438 -0.8698  0.0561 -3.1755
  885MOL0     H22093   4.064  -1.695   9.354  0.7716  0.5190  0.3158
  885MOL0     H22094   3.736  -1.947   9.590  0.9956 -1.9438 -0.9827
  885MOL0     H22095   3.645  -1.836   9.478  1.4281  1.6233 -2.7998
  885MOL0     H22096   3.795  -2.110   9.420  1.6827  1.3194 -0.3098
  885MOL0     H22097   3.628  -2.086   9.431 -1.7770  0.9107 -3.5253
  885MOL0     H22098   3.822  -1.972   9.209 -0.3690  0.2687 -1.4322
  885MOL0     H22099   3.644  -1.935   9.234 -1.6098 -1.7497  1.5492
  885MOL0     H22100   3.590  -2.170   9.196 -0.2934  0.9303  0.7470
  885MOL0     H22101   3.771  -2.211   9.186  2.2013  2.5557 -0.6261
  885MOL0     H22102   3.658  -2.006   9.000  1.4007  0.6188 -1.0261
  885MOL0     H22103   3.817  -2.074   9.007  0.4049 -0.6336  0.6178
  885MOL0     H22104   3.576  -2.264   8.940  1.2084 -1.1497 -2.7019
  885MOL0     H22105   3.735  -2.311   8.955 -0.0698 -0.9371  0.9482
  885MOL0     H22106   3.813  -2.130   8.773 -1.4815  1.5233  0.0884
  885MOL0     H22107   3.644  -2.116   8.744  1.4714 -0.9394 -1.6296
  885MOL0     H22108   3.597  -2.344   8.698 -0.9530  2.4369 -1.7164
  885MOL0     H22109   3.760  -2.390   8.741  0.6472  0.7007  2.6975
  885MOL0     H22110   3.732  -1.665   9.638 -0.1245 -1.4944  0.4006
  885MOL0     H22111   3.800  -1.444   9.688 -0.9040 -2.3369  1.1481
  885MOL0     H22112   3.883  -0.974   9.597 -1.0285 -3.4825 -0.5789
  885MOL0     H22113   3.882  -0.792   9.751 -1.0757 -1.0360 -0.0214
  885MOL0     H22114   4.063   0.458  10.848 -1.7248 -0.1626 -0.3413
  885MOL0     H22115   3.881   0.598  10.908  3.0191 -2.2696 -3.8830
  885MOL0     H22116   3.702   0.852  11.251 -1.1556  4.1432 -1.7744
  885MOL0     H22117   3.534   0.987  11.320 -1.3424  0.8277 -0.3566
  885MOL0     H22118   3.304   0.963  11.421 -1.9201  0.9282  1.1381
  885MOL0     H22119   3.372   1.113  11.351  1.2380 -0.4163 -0.5642
  885MOL0     H22120   3.131   1.104  11.487 -2.3323 -1.2924 -1.3857
  885MOL0     H22121   3.074   1.065  11.332  0.5034 -3.8208  2.7404
  885MOL0     H22122   3.102   1.318  11.419 -0.0060 -1.0097 -0.4288
  885MOL0     H22123   3.264   1.286  11.349  0.1257  0.1146 -2.5836
  885MOL0     H22124   3.000   1.274  11.205  0.1311 -0.4014 -6.1061
  885MOL0     H22125   3.157   1.234  11.126 -0.9525  3.0951 -3.5829
  885MOL0     H22126   3.141   1.653  11.136  1.4728 -0.5434 -2.2029
  885MOL0     H22127   3.281   0.818  11.011 -2.0812 -0.0717  3.6000
  885MOL0     H22128   3.372   0.558  10.946 -2.3296  1.8410 -0.7924
  885MOL0     H22129   3.377   0.705  10.852  2.6605  0.1107 -2.0171
  885MOL0     H22130   3.522   0.603  10.865  1.0675  1.9978 -0.1773
  886MOL0     O22131   8.031   2.232   1.308 -0.4696  0.2535 -0.1688
  886MOL0     C22132   8.082   2.343   1.287 -0.5619 -0.0638  0.8216
  886MOL0     O22133   8.160   2.410   1.364 -0.3101 -0.1529 -0.1097
  886MOL0     C22134   8.147   2.385   1.492  0.3692  0.6913  0.2566
  886MOL0     C22135   8.019   2.395   1.555 -0.1060  0.1339  0.0406
  886MOL0     C22136   8.009   2.385   1.694  0.2731 -1.0678 -0.5015
  886MOL0     C22137   8.130   2.374   1.771  0.1500 -0.9651  0.1737
  886MOL0     O22138   8.138   2.362   1.908 -0.4678 -0.2699 -0.1542
  886MOL0     C22139   8.039   2.298   1.988  0.2975  1.1286  0.6802
  886MOL0     C22140   8.063   2.340   2.134 -0.3947 -0.1863  0.4307
  886MOL0     C22141   8.029   2.487   2.154 -0.7174  0.5113 -0.1196
  886MOL0     C22142   8.049   2.544   2.293 -0.8111  0.6160 -0.6492
  886MOL0     C22143   7.949   2.494   2.403 -0.2473 -0.0881  0.7032
  886MOL0     C22144   7.960   2.558   2.542  0.0598  0.6457  0.1075
  886MOL0     C22145   7.946   2.713   2.543 -0.2596 -0.3668  0.4187
  886MOL0     C22146   7.936   2.767   2.682 -0.2827  0.0261 -0.1914
  886MOL0     N22147   8.057   2.753   2.771 -0.7872 -0.2541  0.5434
  886MOL0     C22148   8.056   2.715   2.905 -0.9492  0.4781  0.3521
  886MOL0     C22149   8.186   2.725   2.934 -0.1941 -0.3691  0.3917
  886MOL0     C22150   8.265   2.685   3.062  0.1782  0.3654 -0.4018
  886MOL0     C22151   8.353   2.560   3.041  0.3582  0.5724 -0.5580
  886MOL0     C22152   8.418   2.500   3.166 -0.3131 -0.8913  0.6079
  886MOL0     C22153   8.310   2.421   3.244 -0.0900 -0.9579 -0.0708
  886MOL0     O22154   8.370   2.314   3.307 -0.2451 -0.0328 -0.8307
  886MOL0     C22155   8.423   2.214   3.228 -0.2535  0.5657 -0.1883
  886MOL0     C22156   8.517   2.125   3.287 -0.1990 -0.4865 -0.5063
  886MOL0     C22157   8.594   2.018   3.218  0.2333 -0.2170 -0.6318
  886MOL0     C22158   8.688   1.944   3.298  1.0030 -0.4515 -0.0308
  886MOL0     C22159   8.561   2.007   3.080  1.1635  0.0236  0.2156
  886MOL0     C22160   8.638   1.924   2.996  0.5374  0.9740 -0.5596
  886MOL0     O22161   8.691   1.987   2.876 -0.1932 -0.4037 -0.4330
  886MOL0     C22162   8.810   1.940   2.827  0.3953  0.7538  0.7692
  886MOL0     C22163   8.843   1.968   2.689 -1.0431 -0.4460 -0.2797
  886MOL0     C22164   8.969   1.941   2.641 -0.1124 -0.3871  0.0143
  886MOL0     C22165   9.066   1.883   2.718  0.1827 -0.3112  1.0122
  886MOL0     O22166   9.190   1.837   2.665 -0.1008  0.2539  0.6582
  886MOL0     C22167   9.222   1.867   2.528  1.1294 -0.0684 -0.2154
  886MOL0     C22168   9.169   1.768   2.433  0.5860  0.3620  0.4386
  886MOL0     C22169   9.168   1.824   2.286 -1.1308 -0.3669 -0.4059
  886MOL0     C22170   9.305   1.902   2.265  1.1174 -0.3044 -0.3658
  886MOL0     C22171   9.300   1.953   2.119  0.3121 -0.0986  0.3968
  886MOL0     C22172   9.418   2.041   2.084  0.1201 -0.2018 -0.9863
  886MOL0     C22173   9.424   2.063   1.932  0.6057  0.4661  0.3014
  886MOL0     C22174   9.499   2.187   1.885  0.3241 -0.3095 -0.5048
  886MOL0    Cl22175   9.660   2.168   1.954  0.2973  0.5117 -0.2951
  886MOL0     C22176   9.028   1.869   2.856  0.2889  0.2205 -0.1990
  886MOL0     C22177   8.904   1.897   2.915  0.0016 -0.7274 -0.3644
  886MOL0     O22178   8.660   1.805   3.028  0.6755  0.0216  0.5870
  886MOL0     C22179   8.455   2.091   3.021 -0.0017  0.8056 -0.3026
  886MOL0     C22180   8.398   2.193   3.096 -0.3086 -0.0698 -0.5112
  886MOL0     N22181   8.256   2.778   2.828  0.2477  0.0145 -0.1443
  886MOL0     N22182   8.178   2.800   2.735 -0.0120 -0.3782  0.4373
  886MOL0     C22183   8.257   2.385   1.706  0.7390 -0.6584  0.6147
  886MOL0     C22184   8.263   2.382   1.564 -0.1945  0.0260 -0.7299
  886MOL0     C22185   8.049   2.414   1.158 -0.0210  0.1932  0.9615
  886MOL0     C22186   8.046   2.338   1.035  0.4559  0.4732  0.5737
  886MOL0     C22187   8.025   2.408   0.910 -0.7870  1.4684 -1.1384
  886MOL0     C22188   7.991   2.538   0.904 -0.3334 -0.1378  0.3429
  886MOL0     O22189   7.960   2.609   0.791  0.5881  0.3926 -0.6409
  886MOL0     C22190   8.024   2.563   0.666 -0.8906  0.1473  0.5928
  886MOL0     C22191   8.056   2.683   0.574 -0.6983  0.1750 -0.2279
  886MOL0     C22192   8.082   2.660   0.429  0.1965  0.5650 -0.2746
  886MOL0     C22193   8.091   2.787   0.352 -0.1855 -0.3744 -0.9767
  886MOL0     C22194   8.152   2.754   0.221  0.5529  0.5709 -0.1816
  886MOL0     C22195   8.212   2.728   0.117 -0.4587  1.3628 -0.7901
  886MOL0     C22196   7.995   2.610   1.018 -0.2172  0.1725 -0.5008
  886MOL0     C22197   8.018   2.558   1.147 -0.6759 -0.6729 -1.0214
  886MOL0     C22198   8.020   2.662   1.258  0.1539 -0.2819 -0.4861
  886MOL0     H22199   7.930   2.422   1.500  1.0870 -0.7031 -2.4318
  886MOL0     H22200   7.914   2.385   1.745 -1.4154  1.0917 -3.3155
  886MOL0     H22201   8.048   2.189   1.984  0.1275  0.9933  2.9326
  886MOL0     H22202   7.932   2.313   1.966 -0.0732  0.0702  1.6385
  886MOL0     H22203   8.005   2.283   2.208  0.9726  1.3428  2.7986
  886MOL0     H22204   8.167   2.333   2.166  0.6637  0.6875 -2.4646
  886MOL0     H22205   8.083   2.553   2.086 -1.9036  1.8545  0.2075
  886MOL0     H22206   7.925   2.505   2.124 -0.8616  1.1490  0.7420
  886MOL0     H22207   8.152   2.528   2.326 -0.4038  2.8866 -0.6442
  886MOL0     H22208   8.050   2.653   2.285  2.4330  0.5829 -2.6345
  886MOL0     H22209   7.956   2.385   2.409 -4.9909 -0.8221 -2.0320
  886MOL0     H22210   7.852   2.523   2.362  1.0914  2.0074 -1.2701
  886MOL0     H22211   7.871   2.517   2.591  1.6848 -0.9282  1.9171
  886MOL0     H22212   8.053   2.531   2.593 -0.5710  1.2707  1.6842
  886MOL0     H22213   7.868   2.746   2.473  0.1439 -0.0168  0.1261
  886MOL0     H22214   8.034   2.766   2.506 -0.2371 -0.4689  0.3267
  886MOL0     H22215   7.905   2.872   2.685  1.7104  0.6351  1.6936
  886MOL0     H22216   7.854   2.711   2.729 -1.2766 -1.1265 -3.0616
  886MOL0     H22217   7.976   2.665   2.959 -0.5444  1.7486  2.2263
  886MOL0     H22218   8.196   2.652   3.140  0.7355 -0.8186 -0.4031
  886MOL0     H22219   8.321   2.775   3.090  0.5030  1.1874 -3.3165
  886MOL0     H22220   8.315   2.482   2.976  1.5011 -1.8825  1.5471
  886MOL0     H22221   8.436   2.601   2.982  2.9395 -2.3201  0.7898
  886MOL0     H22222   8.505   2.437   3.144  1.7632  1.4210  1.7388
  886MOL0     H22223   8.458   2.583   3.225 -3.2269  2.6923 -2.0080
  886MOL0     H22224   8.253   2.485   3.311 -1.9997 -2.5246 -0.1036
  886MOL0     H22225   8.232   2.377   3.180  2.4876 -4.0620 -1.3390
  886MOL0     H22226   8.529   2.145   3.392 -0.0418  1.5540 -0.8668
  886MOL0     H22227   8.694   1.996   3.394 -2.7639  0.9342 -0.3801
  886MOL0     H22228   8.784   1.935   3.246  0.3180 -0.5767 -1.3129
  886MOL0     H22229   8.649   1.842   3.310 -1.0618  0.2849 -0.1690
  886MOL0     H22230   8.756   2.001   2.633 -2.1458 -1.2841  0.8954
  886MOL0     H22231   8.977   1.952   2.533 -1.1738 -0.7920 -0.1235
  886MOL0     H22232   9.187   1.970   2.519 -0.5359 -0.1582  3.2441
  886MOL0     H22233   9.331   1.865   2.525  1.1399  0.6749 -0.4065
  886MOL0     H22234   9.240   1.685   2.428  1.3996  1.1318 -1.9249
  886MOL0     H22235   9.064   1.743   2.452  0.8115  1.8438  4.7354
  886MOL0     H22236   9.081   1.889   2.273 -1.4621  0.0897  3.2059
  886MOL0     H22237   9.164   1.740   2.216  0.7142  0.2431 -1.3198
  886MOL0     H22238   9.386   1.829   2.275  2.2059  0.7646 -1.0220
  886MOL0     H22239   9.313   1.992   2.327  2.6548 -0.2462 -0.5992
  886MOL0     H22240   9.302   1.867   2.053  0.1705 -2.4163  3.1988
  886MOL0     H22241   9.203   2.002   2.107  0.7404  0.4773 -0.9293
  886MOL0     H22242   9.512   1.992   2.111  0.2003 -0.0788 -1.0425
  886MOL0     H22243   9.412   2.136   2.138 -3.6415 -0.1120 -1.3001
  886MOL0     H22244   9.327   2.078   1.883 -0.7814  2.9088  3.4537
  886MOL0     H22245   9.467   1.973   1.887  1.9165  1.2034  0.0636
  886MOL0     H22246   9.445   2.272   1.927 -0.1706 -1.3593  1.0447
  886MOL0     H22247   9.498   2.192   1.775  3.1381  3.6157 -0.5720
  886MOL0     H22248   9.105   1.829   2.921 -1.2035  1.9147  2.8224
  886MOL0     H22249   8.874   1.884   3.019  0.3985  5.1148  0.8426
  886MOL0     H22250   8.426   2.074   2.918 -2.0735  0.0050  0.3561
  886MOL0     H22251   8.327   2.256   3.043  1.7834  1.7508 -1.2693
  886MOL0     H22252   8.358   2.402   1.742  0.2465 -0.0322  1.7698
  886MOL0     H22253   8.353   2.385   1.503 -0.1330 -0.1571 -0.6499
  886MOL0     H22254   8.062   2.231   1.033  0.5336  0.4795 -2.0937
  886MOL0     H22255   8.031   2.354   0.816  2.0797  1.8041 -1.2368
  886MOL0     H22256   8.117   2.510   0.688 -1.1570 -0.4041  0.4060
  886MOL0     H22257   7.960   2.491   0.615 -1.0919  1.0686 -0.5126
  886MOL0     H22258   8.144   2.730   0.618 -1.9836  2.2295  0.2721
  886MOL0     H22259   7.973   2.754   0.575  0.9251  2.1633 -0.0682
  886MOL0     H22260   8.169   2.594   0.418 -0.9147 -0.9806 -0.0978
  886MOL0     H22261   7.999   2.599   0.391  1.7472 -2.4468  0.8923
  886MOL0     H22262   8.152   2.864   0.399 -1.1994  0.5288 -1.1091
  886MOL0     H22263   7.991   2.829   0.341 -0.0749  0.7126  1.6262
  886MOL0     H22264   8.278   2.703   0.037 -1.3578 -1.8396 -0.6617
  886MOL0     H22265   7.969   2.715   1.012  1.2715  0.5706 -0.3030
  886MOL0     H22266   7.951   2.744   1.235  0.7689  0.8569  1.4713
  886MOL0     H22267   7.989   2.615   1.351  1.9576 -2.9518 -1.1196
  886MOL0     H22268   8.116   2.709   1.283  0.3206 -0.8272 -0.0873
  887MOL0     O22269   5.512  11.082   3.745  0.1406  0.1604 -0.4031
  887MOL0     C22270   5.429  11.027   3.820 -0.0069 -0.3002  0.1189
  887MOL0     O22271   5.320  10.959   3.782  0.0806  0.4969 -0.1778
  887MOL0     C22272   5.255  10.980   3.670 -0.5603 -0.5288  0.5532
  887MOL0     C22273   5.180  10.880   3.609 -0.6870 -0.3789  0.4438
  887MOL0     C22274   5.120  10.888   3.482  0.2482  0.2939  0.4603
  887MOL0     C22275   5.135  11.012   3.413  0.0475 -0.1247  0.2196
  887MOL0     O22276   5.094  11.038   3.286  0.0676  0.3908 -0.4404
  887MOL0     C22277   4.952  11.022   3.273 -0.1541  0.0400 -0.1348
  887MOL0     C22278   4.915  10.983   3.141  0.2572 -0.5085 -0.7718
  887MOL0     C22279   4.915  11.107   3.047 -0.6210 -0.3709 -0.4054
  887MOL0     C22280   4.866  11.071   2.902  0.6549  0.1420  0.3273
  887MOL0     C22281   4.888  11.196   2.798  0.4301 -0.3925 -0.4875
  887MOL0     C22282   4.831  11.175   2.658 -0.6866 -0.2515  0.6091
  887MOL0     C22283   4.906  11.055   2.587 -0.6559 -0.7993 -0.1125
  887MOL0     C22284   4.895  11.060   2.433 -0.3781  0.3741 -0.1158
  887MOL0     N22285   4.973  11.170   2.378 -0.0757  0.1700  0.4174
  887MOL0     C22286   4.934  11.262   2.282 -1.2244  0.5781 -0.2364
  887MOL0     C22287   5.045  11.324   2.230 -0.5544  0.1375 -0.1716
  887MOL0     C22288   5.054  11.421   2.113 -0.3324  0.3387 -0.0666
  887MOL0     C22289   5.127  11.539   2.165 -0.6232  0.7547  0.0592
  887MOL0     C22290   5.094  11.648   2.061 -0.9044  0.1898 -0.0674
  887MOL0     C22291   5.191  11.766   2.111 -0.3890  0.1128  0.0221
  887MOL0     O22292   5.202  11.869   2.007  0.3702  0.2470  0.0556
  887MOL0     C22293   5.241  11.993   2.047  0.0470  0.2737  0.9805
  887MOL0     C22294   5.248  12.080   1.940  0.2173 -0.0852  0.0810
  887MOL0     C22295   5.258  12.219   1.971 -0.3156  0.2409  0.1691
  887MOL0     C22296   5.242  12.324   1.856  0.0204 -0.3608  0.5307
  887MOL0     C22297   5.265  12.263   2.106 -0.5449 -0.2089 -0.1357
  887MOL0     C22298   5.285  12.412   2.136  0.2343  0.0125  0.5998
  887MOL0     O22299   5.375  12.486   2.062  0.7160  0.9138  0.4731
  887MOL0     C22300   5.416  12.607   2.101 -0.7110 -0.8388 -0.2885
  887MOL0     C22301   5.535  12.646   2.043 -0.3237  0.5957 -1.0026
  887MOL0     C22302   5.592  12.765   2.064 -0.5579 -0.4090 -0.1275
  887MOL0     C22303   5.537  12.856   2.145 -0.4117 -0.3372 -0.3655
  887MOL0     O22304   5.615  12.972   2.174 -0.3873  0.5022  0.3736
  887MOL0     C22305   5.601  13.063   2.061 -0.5532  0.0378 -0.1736
  887MOL0     C22306   5.701  13.185   2.087 -0.0198 -0.5938  0.3905
  887MOL0     C22307   5.662  13.286   2.192  0.5810 -0.8799 -0.0065
  887MOL0     C22308   5.566  13.397   2.142  0.9620  0.3982 -0.3485
  887MOL0     C22309   5.536  13.498   2.246 -0.8087 -0.1445  0.6732
  887MOL0     C22310   5.404  13.569   2.211  0.2760 -0.0068  0.2615
  887MOL0     C22311   5.371  13.692   2.298  0.1798 -0.5325 -0.3885
  887MOL0     C22312   5.474  13.804   2.291  0.6386  0.2133 -0.1385
  887MOL0    Cl22313   5.400  13.932   2.380 -0.2525 -0.2410  0.2660
  887MOL0     C22314   5.412  12.829   2.192 -0.2882 -1.1099  1.1901
  887MOL0     C22315   5.353  12.706   2.179  1.6678 -0.3424 -0.1969
  887MOL0     O22316   5.237  12.446   2.242  0.9841 -0.1910  0.4797
  887MOL0     C22317   5.255  12.174   2.211 -0.1839 -0.7150  0.6898
  887MOL0     C22318   5.236  12.042   2.178 -0.5311 -0.3239 -0.0929
  887MOL0     N22319   5.153  11.273   2.304  0.1903  0.8377  0.0226
  887MOL0     N22320   5.104  11.188   2.394  0.0177  0.5311 -0.1705
  887MOL0     C22321   5.190  11.114   3.482  0.8937 -0.0766 -0.4138
  887MOL0     C22322   5.252  11.107   3.609 -0.1516  0.5712 -0.3616
  887MOL0     C22323   5.465  11.020   3.969 -0.0550 -0.1543 -0.2451
  887MOL0     C22324   5.600  11.012   4.006 -0.3519 -0.0603 -0.6890
  887MOL0     C22325   5.633  11.025   4.140  0.8459  0.3215 -0.3594
  887MOL0     C22326   5.538  11.036   4.244 -0.6481  0.5580  0.4849
  887MOL0     O22327   5.592  11.017   4.370  0.3785  0.2411 -0.0302
  887MOL0     C22328   5.504  11.046   4.478  0.6539 -0.8219  0.4838
  887MOL0     C22329   5.552  11.038   4.625 -0.9853 -0.3187 -0.8634
  887MOL0     C22330   5.687  11.112   4.631  0.9649 -0.1824 -0.2409
  887MOL0     C22331   5.732  11.117   4.779 -0.0942 -0.3712  0.1339
  887MOL0     C22332   5.866  11.172   4.788 -0.6679 -1.1848 -0.0207
  887MOL0     C22333   5.981  11.215   4.784 -1.0035 -0.6873 -0.0565
  887MOL0     C22334   5.405  11.063   4.205 -0.0164 -0.1468  0.8293
  887MOL0     C22335   5.360  11.049   4.069 -0.0950 -0.4272  0.8036
  887MOL0     C22336   5.206  11.063   4.041  0.3581  0.6729  0.2606
  887MOL0     H22337   5.178  10.783   3.659  2.6945 -1.2449 -0.8579
  887MOL0     H22338   5.065  10.803   3.442  0.7396 -1.6639  3.5727
  887MOL0     H22339   4.913  11.118   3.310 -0.1927  0.6459 -1.6798
  887MOL0     H22340   4.916  10.942   3.337  2.3820 -1.6164 -0.6352
  887MOL0     H22341   4.976  10.902   3.100  0.5466  0.0462 -1.4617
  887MOL0     H22342   4.812  10.949   3.156  0.3890 -0.5783  0.0457
  887MOL0     H22343   4.847  11.185   3.083  2.0401  2.5147 -1.0862
  887MOL0     H22344   5.017  11.147   3.048 -0.2922 -1.1648  1.1393
  887MOL0     H22345   4.915  10.975   2.881  2.5447  0.6455  2.0156
  887MOL0     H22346   4.761  11.044   2.913  0.6917  0.1005  0.6121
  887MOL0     H22347   4.994  11.225   2.796  0.8162 -1.6359  0.6736
  887MOL0     H22348   4.828  11.276   2.843 -0.7874 -1.8295  0.5536
  887MOL0     H22349   4.723  11.159   2.665 -0.5740 -0.2652  4.4309
  887MOL0     H22350   4.843  11.269   2.603 -0.8165  0.1350  1.2315
  887MOL0     H22351   4.846  10.974   2.631 -0.0062  0.2220  2.8922
  887MOL0     H22352   5.006  11.055   2.630 -0.9896  1.3630  0.7667
  887MOL0     H22353   4.926  10.961   2.399  2.3154  1.1319 -0.0841
  887MOL0     H22354   4.790  11.075   2.407 -0.4740 -0.2324 -0.0742
  887MOL0     H22355   4.832  11.285   2.252 -1.1384  0.2221 -0.8052
  887MOL0     H22356   4.952  11.451   2.086  0.0275  0.9970 -0.7107
  887MOL0     H22357   5.105  11.375   2.028 -0.9497 -1.8427  0.6578
  887MOL0     H22358   5.101  11.555   2.270  3.1758  1.2786  1.0800
  887MOL0     H22359   5.230  11.504   2.171 -0.6384  0.8003  0.5847
  887MOL0     H22360   5.127  11.614   1.963 -1.6237 -0.1034 -0.2168
  887MOL0     H22361   4.990  11.683   2.056 -1.5547 -1.7236 -1.0315
  887MOL0     H22362   5.146  11.808   2.202  1.6985 -2.2868  2.3345
  887MOL0     H22363   5.291  11.737   2.144 -0.6520 -2.1544 -0.9858
  887MOL0     H22364   5.235  12.059   1.834 -3.2461  0.5476  0.2606
  887MOL0     H22365   5.166  12.398   1.883 -2.0213 -0.9077 -3.0716
  887MOL0     H22366   5.214  12.283   1.759  2.1754 -2.4884  0.7216
  887MOL0     H22367   5.338  12.371   1.831 -1.0826 -0.3597 -5.0424
  887MOL0     H22368   5.583  12.566   1.988 -0.9265  0.7511 -1.7808
  887MOL0     H22369   5.685  12.798   2.018 -0.6051 -1.5871 -1.0975
  887MOL0     H22370   5.636  13.006   1.974 -0.8306  0.0522 -0.2963
  887MOL0     H22371   5.498  13.100   2.052 -1.9898 -2.8918  2.6946
  887MOL0     H22372   5.804  13.155   2.108  0.7628  1.7070  0.1407
  887MOL0     H22373   5.712  13.251   2.001  2.8013  1.4102  2.0870
  887MOL0     H22374   5.753  13.336   2.226 -1.5286  2.5790  1.0446
  887MOL0     H22375   5.598  13.233   2.263 -1.9712  1.8223 -0.0657
  887MOL0     H22376   5.477  13.349   2.102 -1.7665  5.7893 -1.6668
  887MOL0     H22377   5.602  13.450   2.053  2.3339  0.1935  0.0574
  887MOL0     H22378   5.524  13.459   2.347  0.0681  1.6358  1.5217
  887MOL0     H22379   5.615  13.574   2.243 -2.1607  1.6845  4.3690
  887MOL0     H22380   5.315  13.506   2.215 -0.5984  1.2319  1.0743
  887MOL0     H22381   5.412  13.602   2.107 -3.2087  0.6007  0.0571
  887MOL0     H22382   5.364  13.662   2.403 -1.4011 -2.4449 -0.9663
  887MOL0     H22383   5.272  13.733   2.273  0.7133 -0.0863 -1.8730
  887MOL0     H22384   5.510  13.812   2.188  1.9222 -0.6241  0.2191
  887MOL0     H22385   5.560  13.779   2.354 -2.0531 -2.4891  2.8655
  887MOL0     H22386   5.358  12.901   2.253  2.5036 -0.0306  2.5923
  887MOL0     H22387   5.257  12.706   2.230  2.3463  1.6980  1.2487
  887MOL0     H22388   5.251  12.209   2.314 -0.5439 -1.6096  0.9869
  887MOL0     H22389   5.219  11.976   2.263  0.9116 -0.1223  0.3869
  887MOL0     H22390   5.187  11.212   3.437 -1.0811  0.4619  0.7669
  887MOL0     H22391   5.292  11.196   3.656  0.7974  0.7260 -1.4322
  887MOL0     H22392   5.670  10.999   3.925 -0.3060  0.5868 -0.7607
  887MOL0     H22393   5.738  11.006   4.159  0.8307  1.0262  0.4750
  887MOL0     H22394   5.446  11.136   4.456 -4.1518 -4.0543 -1.7157
  887MOL0     H22395   5.412  10.988   4.477 -1.2922  2.0293 -2.2675
  887MOL0     H22396   5.574  10.935   4.653  0.5628  0.6311  1.9099
  887MOL0     H22397   5.485  11.080   4.701  2.7585 -1.5714  3.6570
  887MOL0     H22398   5.756  11.054   4.568  1.3958  0.1748 -0.1024
  887MOL0     H22399   5.687  11.212   4.586 -2.3540  0.7288  1.4413
  887MOL0     H22400   5.738  11.012   4.810 -0.0665 -0.0415  1.3033
  887MOL0     H22401   5.660  11.163   4.848 -1.5502 -3.2572  0.6885
  887MOL0     H22402   6.081  11.253   4.776  0.1006 -3.4811 -0.9191
  887MOL0     H22403   5.331  11.078   4.283 -1.0056  2.1680 -0.4310
  887MOL0     H22404   5.157  11.082   4.137  1.1187  0.4091  0.7106
  887MOL0     H22405   5.199  11.151   3.976 -0.7788  1.1013  0.9406
  887MOL0     H22406   5.160  10.974   3.996  2.2597  0.4477 -1.3644
  888MOL0     O22407   5.635   1.295   9.619 -0.0662 -0.3567  0.5024
  888MOL0     C22408   5.682   1.393   9.553  0.0266  0.7249  0.2937
  888MOL0     O22409   5.658   1.531   9.584 -0.1236 -0.3299  0.7034
  888MOL0     C22410   5.572   1.574   9.678 -0.2078 -0.7829 -0.5882
  888MOL0     C22411   5.465   1.649   9.639  1.2795 -0.8951 -0.4428
  888MOL0     C22412   5.364   1.702   9.730  0.6684  0.8601 -0.1775
  888MOL0     C22413   5.370   1.665   9.864 -0.7335 -0.3818  0.2980
  888MOL0     O22414   5.270   1.680   9.952  0.1405 -0.3915  0.7175
  888MOL0     C22415   5.170   1.782   9.931  0.1007  0.1449 -0.5520
  888MOL0     C22416   5.230   1.928   9.940  0.2901  0.4129  0.4985
  888MOL0     C22417   5.234   1.982  10.081 -1.3262 -0.9426 -0.1290
  888MOL0     C22418   5.209   2.140  10.082  0.3958  0.2096 -0.3429
  888MOL0     C22419   5.300   2.213   9.989  0.7016  0.6220  0.7605
  888MOL0     C22420   5.302   2.366  10.016 -0.5958 -0.0756  0.0543
  888MOL0     C22421   5.414   2.421   9.923  1.0060  0.9723 -0.4689
  888MOL0     C22422   5.443   2.569   9.936 -0.0848  0.0038  0.4313
  888MOL0     N22423   5.501   2.613  10.069 -0.0941 -0.3047 -0.0283
  888MOL0     C22424   5.434   2.629  10.193 -0.6967  0.7056  0.0162
  888MOL0     C22425   5.529   2.628  10.290 -0.3952  0.3651  1.0511
  888MOL0     C22426   5.503   2.638  10.432 -0.3219  0.5523 -0.1472
  888MOL0     C22427   5.435   2.510  10.481 -0.3879  0.0867 -0.0389
  888MOL0     C22428   5.547   2.405  10.508 -0.1690  0.6616 -0.2952
  888MOL0     C22429   5.490   2.269  10.530 -0.8021 -0.3180 -0.3701
  888MOL0     O22430   5.434   2.223  10.406  0.2667  0.2621 -0.0986
  888MOL0     C22431   5.529   2.175  10.310 -0.3806  1.6433  0.2774
  888MOL0     C22432   5.562   2.036  10.307  1.0767 -0.3697 -0.4676
  888MOL0     C22433   5.632   1.977  10.201 -0.1254  0.5322  0.6901
  888MOL0     C22434   5.623   1.825  10.176 -0.1138  0.4128 -1.9630
  888MOL0     C22435   5.688   2.065  10.097 -0.0133 -0.1927 -0.3670
  888MOL0     C22436   5.777   2.022   9.991 -0.5069  0.6039  0.2981
  888MOL0     O22437   5.783   2.094   9.873  0.1011  0.3032 -0.9511
  888MOL0     C22438   5.830   2.028   9.770  0.5267  0.3957  0.0983
  888MOL0     C22439   5.924   2.096   9.697  0.2638  0.0189  0.9915
  888MOL0     C22440   5.959   2.055   9.568 -0.6276  0.3297  0.4601
  888MOL0     C22441   5.897   1.944   9.509 -0.1079 -0.5161  0.8411
  888MOL0     O22442   5.943   1.907   9.382 -0.6350  0.5694  0.3201
  888MOL0     C22443   5.856   1.844   9.296  1.0971  0.3935 -0.7054
  888MOL0     C22444   5.880   1.875   9.150  0.4766  0.5005 -0.6961
  888MOL0     C22445   5.991   1.791   9.092 -0.4619  0.1432  0.0121
  888MOL0     C22446   6.044   1.838   8.952 -0.3557  0.3325  0.5617
  888MOL0     C22447   6.128   1.721   8.896  0.0647  0.1761  0.2837
  888MOL0     C22448   6.182   1.748   8.755  1.0560  1.0600  0.1086
  888MOL0     C22449   6.232   1.612   8.691 -0.0493  0.5181 -0.8032
  888MOL0     C22450   6.325   1.632   8.575  1.0968 -0.4877 -0.5284
  888MOL0    Cl22451   6.294   1.776   8.464  0.1790  0.0433 -0.1055
  888MOL0     C22452   5.799   1.871   9.584 -0.3428  0.2893  0.2231
  888MOL0     C22453   5.761   1.910   9.712  0.4428 -0.0106 -0.2877
  888MOL0     O22454   5.853   1.933  10.017  0.1598 -0.4901 -0.4940
  888MOL0     C22455   5.657   2.199  10.108  0.8500 -0.2414  0.9522
  888MOL0     C22456   5.585   2.256  10.212  0.8350  0.6728 -0.1238
  888MOL0     N22457   5.651   2.638  10.227 -0.2324 -0.1003 -0.0366
  888MOL0     N22458   5.635   2.630  10.095  0.1730  0.2784  0.4097
  888MOL0     C22459   5.466   1.576   9.899 -0.5297 -1.2599  0.6703
  888MOL0     C22460   5.576   1.543   9.807 -0.2642  0.4143 -0.6265
  888MOL0     C22461   5.744   1.365   9.423  0.4953 -0.2959  0.6599
  888MOL0     C22462   5.670   1.291   9.325 -0.8320 -0.6407  1.0322
  888MOL0     C22463   5.711   1.278   9.186 -0.0214 -0.1149  0.2507
  888MOL0     C22464   5.827   1.349   9.153  0.0151 -0.1170 -0.3061
  888MOL0     O22465   5.881   1.360   9.030 -0.0586  0.2309 -0.1776
  888MOL0     C22466   5.877   1.238   8.943  0.1954  0.5519 -0.7676
  888MOL0     C22467   5.763   1.223   8.850  0.3778 -1.0985  0.5084
  888MOL0     C22468   5.755   1.334   8.738 -0.2223  0.4256 -0.0577
  888MOL0     C22469   5.695   1.462   8.798  0.3594 -0.2973  0.4976
  888MOL0     C22470   5.687   1.563   8.689 -0.6890 -0.2610  0.4833
  888MOL0     C22471   5.696   1.648   8.606  0.4358 -0.2725  1.1860
  888MOL0     C22472   5.903   1.422   9.250 -0.4945  0.3823 -0.4477
  888MOL0     C22473   5.866   1.423   9.382  0.6008 -0.4570  0.4800
  888MOL0     C22474   5.947   1.504   9.473  0.7327 -0.0307  0.4079
  888MOL0     H22475   5.462   1.686   9.537 -1.0948 -0.7775 -0.3744
  888MOL0     H22476   5.285   1.766   9.693  0.1439 -1.4220 -3.4181
  888MOL0     H22477   5.098   1.770  10.012 -0.4795  0.7752 -0.9649
  888MOL0     H22478   5.112   1.763   9.840 -0.2334 -0.9622 -0.1299
  888MOL0     H22479   5.328   1.920   9.891 -0.4408  0.1242 -0.9658
  888MOL0     H22480   5.170   1.985   9.869  0.1524 -0.8065 -0.3980
  888MOL0     H22481   5.158   1.949  10.153 -1.1892  2.4213  1.8051
  888MOL0     H22482   5.334   1.962  10.122 -1.2554  1.1862  0.9299
  888MOL0     H22483   5.104   2.164  10.066  0.7025  2.0740  0.1232
  888MOL0     H22484   5.229   2.173  10.185  2.0752  0.9835 -0.8794
  888MOL0     H22485   5.263   2.200   9.887  0.8776  2.8640  0.3586
  888MOL0     H22486   5.404   2.184  10.004  0.3368 -2.2080 -1.3849
  888MOL0     H22487   5.204   2.404   9.984 -0.6877 -1.1290 -0.9746
  888MOL0     H22488   5.317   2.385  10.122  1.0391  1.5398 -0.4006
  888MOL0     H22489   5.386   2.407   9.818 -1.3386 -1.6195  0.3827
  888MOL0     H22490   5.509   2.372   9.947  0.7296  0.3291 -0.6790
  888MOL0     H22491   5.511   2.599   9.856  0.6935 -1.9339  0.3177
  888MOL0     H22492   5.345   2.613   9.918 -1.1722 -2.5416 -0.3284
  888MOL0     H22493   5.326   2.635  10.203 -0.7317 -0.7971  0.6953
  888MOL0     H22494   5.433   2.718  10.459 -0.4038 -0.2420  2.2912
  888MOL0     H22495   5.593   2.666  10.487 -1.1066  2.8888  0.0482
  888MOL0     H22496   5.379   2.528  10.573 -0.4474 -0.1666 -0.0237
  888MOL0     H22497   5.359   2.471  10.411 -1.6107  0.8493  0.8241
  888MOL0     H22498   5.620   2.414  10.427 -0.4266  1.6055 -0.4399
  888MOL0     H22499   5.602   2.435  10.597 -1.2527  1.3225  0.1730
  888MOL0     H22500   5.561   2.201  10.578 -0.9630 -0.0117  0.3046
  888MOL0     H22501   5.415   2.282  10.608 -2.0827 -5.6246 -0.3354
  888MOL0     H22502   5.510   1.972  10.378  2.9968 -2.0776 -0.4952
  888MOL0     H22503   5.531   1.781  10.217  0.2796  3.0756  2.5468
  888MOL0     H22504   5.715   1.782  10.216 -1.7102 -3.3195 -1.9380
  888MOL0     H22505   5.620   1.806  10.069  1.0876  2.8626 -2.5055
  888MOL0     H22506   5.970   2.193   9.715 -2.6616  2.5368 -3.3001
  888MOL0     H22507   6.029   2.106   9.503 -0.6911 -0.5331 -0.3159
  888MOL0     H22508   5.877   1.739   9.314  0.3433  0.6929  2.7290
  888MOL0     H22509   5.750   1.859   9.320 -0.1722 -2.7439 -3.5200
  888MOL0     H22510   5.783   1.862   9.100  0.7841  0.1216 -1.1983
  888MOL0     H22511   5.890   1.984   9.143  0.0244  0.5112 -1.2957
  888MOL0     H22512   5.949   1.690   9.097  0.5692 -0.3149 -0.1248
  888MOL0     H22513   6.074   1.796   9.163 -1.6699  2.6711  1.3752
  888MOL0     H22514   6.103   1.930   8.958 -1.8426  1.4456 -0.8583
  888MOL0     H22515   5.961   1.865   8.885  0.3766 -0.2156 -0.5951
  888MOL0     H22516   6.203   1.689   8.969 -0.7760 -1.1348  0.6185
  888MOL0     H22517   6.060   1.635   8.888  0.3951 -0.1273  0.6681
  888MOL0     H22518   6.266   1.817   8.763  1.0105  1.2966 -1.2443
  888MOL0     H22519   6.108   1.795   8.689 -1.3040 -0.3346  1.6065
  888MOL0     H22520   6.150   1.548   8.655  0.4946 -0.7931  0.2172
  888MOL0     H22521   6.285   1.560   8.771 -0.4160  2.0073  0.4345
  888MOL0     H22522   6.320   1.545   8.509 -0.9490  0.2292 -1.4013
  888MOL0     H22523   6.422   1.654   8.620 -0.6330 -1.1023  3.9338
  888MOL0     H22524   5.746   1.783   9.550  0.3635  0.1925 -0.6790
  888MOL0     H22525   5.674   1.875   9.766  0.6270 -0.4312 -0.2625
  888MOL0     H22526   5.710   2.268  10.043 -1.9834  0.0450 -1.2600
  888MOL0     H22527   5.572   2.363  10.201 -0.6137  0.4808 -0.5340
  888MOL0     H22528   5.479   1.532   9.997 -0.1954  1.0340  1.7316
  888MOL0     H22529   5.660   1.477   9.828 -1.0388  0.0646  1.6301
  888MOL0     H22530   5.578   1.239   9.347 -0.4344 -1.5905  0.5111
  888MOL0     H22531   5.670   1.201   9.123 -0.3138  0.9930 -0.9579
  888MOL0     H22532   5.975   1.232   8.894  0.0924  1.1857 -1.0621
  888MOL0     H22533   5.870   1.152   9.010  0.7049 -0.1679 -1.6171
  888MOL0     H22534   5.667   1.224   8.901 -1.8435 -0.1494 -3.2874
  888MOL0     H22535   5.776   1.129   8.795  3.0513  0.0213 -1.0010
  888MOL0     H22536   5.851   1.354   8.690  0.7223  0.1891  1.6559
  888MOL0     H22537   5.682   1.310   8.660 -3.4110  2.4430  1.9984
  888MOL0     H22538   5.764   1.497   8.875  1.5802 -1.3157 -0.0893
  888MOL0     H22539   5.593   1.451   8.838  1.2737 -2.9423  2.4803
  888MOL0     H22540   5.707   1.729   8.538 -0.8278 -0.5749  0.5870
  888MOL0     H22541   5.995   1.471   9.223  1.0334 -0.2736  3.0596
  888MOL0     H22542   5.892   1.599   9.474  1.4443  0.3920  0.1372
  888MOL0     H22543   5.973   1.464   9.572  1.6126  1.8226  0.9795
  888MOL0     H22544   6.045   1.518   9.427  0.6815 -1.2676 -0.1092
  889MOL0     O22545  10.682   4.808  11.374 -0.0195  0.2406 -0.0668
  889MOL0     C22546  10.789   4.817  11.315  0.1079  0.7068  0.1883
  889MOL0     O22547  10.861   4.932  11.282  0.6901 -0.9205 -0.3371
  889MOL0     C22548  10.805   5.049  11.323  0.2769 -0.4541  1.1123
  889MOL0     C22549  10.755   5.075  11.455 -0.0220 -0.2503 -0.1459
  889MOL0     C22550  10.708   5.204  11.484 -0.2489 -0.2298  0.0236
  889MOL0     C22551  10.697   5.298  11.380  0.2235  0.3484 -0.9197
  889MOL0     O22552  10.659   5.432  11.397  0.1156 -0.2865  0.2335
  889MOL0     C22553  10.647   5.473  11.537  0.2665  0.2848  0.0889
  889MOL0     C22554  10.625   5.623  11.541  0.7633 -0.0776 -0.3269
  889MOL0     C22555  10.742   5.700  11.485 -0.3863 -0.4030 -0.0989
  889MOL0     C22556  10.717   5.852  11.474  0.2406  0.1446  0.2269
  889MOL0     C22557  10.758   5.927  11.610  0.4112  0.1686  0.1246
  889MOL0     C22558  10.778   6.082  11.608 -0.6306 -0.4846 -0.7029
  889MOL0     C22559  10.817   6.125  11.753 -0.6026 -0.2117 -0.5256
  889MOL0     C22560  10.848   6.280  11.763  0.1148 -0.7399 -0.3614
  889MOL0     N22561  10.878   6.315  11.904  0.0367  0.1177 -0.2056
  889MOL0     C22562  10.775   6.365  11.983  0.6044  0.9428 -0.3142
  889MOL0     C22563  10.831   6.407  12.096  0.3095  1.4720  0.1414
  889MOL0     C22564  10.762   6.473  12.211  0.6816 -0.6319 -0.2185
  889MOL0     C22565  10.800   6.434  12.361 -0.5997 -0.0081  0.3469
  889MOL0     C22566  10.933   6.496  12.404  0.3572 -0.6277 -0.3275
  889MOL0     C22567  10.934   6.650  12.406 -0.9088 -0.9984  0.6458
  889MOL0     O22568  10.861   6.707  12.505  0.0285 -0.1727  0.2477
  889MOL0     C22569  10.895   6.822  12.570 -0.5081 -0.3886 -0.0651
  889MOL0     C22570  10.821   6.855  12.680  0.4492 -0.0862  0.5054
  889MOL0     C22571  10.836   6.975  12.759  0.4238 -0.5623 -0.2766
  889MOL0     C22572  10.739   6.998  12.876  0.1739  0.4594  0.9089
  889MOL0     C22573  10.932   7.073  12.717 -0.3095 -0.2137  1.2611
  889MOL0     C22574  10.977   7.185  12.786  0.8062  0.4827  0.1865
  889MOL0     O22575  11.035   7.283  12.707 -0.4556  0.1017 -0.2708
  889MOL0     C22576  11.061   7.404  12.771 -0.0329  0.2206  0.1596
  889MOL0     C22577  10.950   7.486  12.783 -0.5970  0.2279 -1.0108
  889MOL0     C22578  10.977   7.617  12.839  0.0308 -0.1565 -0.2780
  889MOL0     C22579  11.108   7.663  12.866 -0.9878 -0.3056 -1.2590
  889MOL0     O22580  11.115   7.789  12.927 -0.2845 -0.1550  0.2791
  889MOL0     C22581  11.230   7.831  13.004 -0.8249  0.0187 -0.1149
  889MOL0     C22582  11.337   7.895  12.908  0.0062  0.4388 -0.2672
  889MOL0     C22583  11.291   8.007  12.826  0.1028 -0.8240  0.4246
  889MOL0     C22584  11.379   8.060  12.715  0.7543  0.3634 -0.3504
  889MOL0     C22585  11.519   8.131  12.754  0.2379  0.2510 -1.3239
  889MOL0     C22586  11.611   8.171  12.642 -0.7325 -0.2964 -0.6313
  889MOL0     C22587  11.537   8.242  12.520  0.6968  0.7369 -0.1319
  889MOL0     C22588  11.627   8.278  12.410 -1.4123 -0.4582  0.8678
  889MOL0    Cl22589  11.519   8.328  12.265  0.2680  0.0506 -0.0409
  889MOL0     C22590  11.212   7.579  12.843 -0.6142  0.4212  0.1119
  889MOL0     C22591  11.192   7.456  12.786  0.0541  0.2742 -0.0517
  889MOL0     O22592  10.967   7.186  12.911  0.1323 -0.1490  0.4885
  889MOL0     C22593  11.016   7.034  12.609 -0.2212 -0.4026  0.0295
  889MOL0     C22594  10.984   6.921  12.528  1.0029 -0.2183 -0.8154
  889MOL0     N22595  10.973   6.393  12.075  0.4263  0.1570 -0.6093
  889MOL0     N22596  10.999   6.344  11.957  0.5203  0.4098 -0.5643
  889MOL0     C22597  10.735   5.262  11.254  0.3021  1.0553  0.0678
  889MOL0     C22598  10.784   5.140  11.223 -1.3314 -0.5927  0.4839
  889MOL0     C22599  10.839   4.682  11.258 -0.1356 -0.8595 -0.5186
  889MOL0     C22600  10.969   4.696  11.206 -0.2759  0.1491  0.1111
  889MOL0     C22601  11.036   4.595  11.147  0.4078 -0.9137 -0.4332
  889MOL0     C22602  10.971   4.476  11.129  0.1520 -0.2396  0.4741
  889MOL0     O22603  11.035   4.380  11.053 -0.0168 -0.0478 -0.3067
  889MOL0     C22604  11.060   4.426  10.915 -0.1987 -0.1478 -0.9008
  889MOL0     C22605  11.207   4.421  10.887  0.9031  0.4342 -0.3643
  889MOL0     C22606  11.285   4.299  10.913  0.3221  0.2023 -0.1024
  889MOL0     C22607  11.262   4.175  10.834 -0.6725 -0.0347  1.2150
  889MOL0     C22608  11.231   4.192  10.694  0.7474  0.5590 -0.2245
  889MOL0     C22609  11.223   4.205  10.575  0.7927  0.5855  0.2566
  889MOL0     C22610  10.843   4.458  11.175 -0.7963  1.2998 -0.0647
  889MOL0     C22611  10.774   4.554  11.248  0.1450 -0.4744 -0.2893
  889MOL0     C22612  10.628   4.524  11.296 -0.3768 -0.6405  0.5736
  889MOL0     H22613  10.780   5.010  11.538 -1.4460 -2.1383 -1.1297
  889MOL0     H22614  10.698   5.217  11.591 -2.2368  1.2872 -0.2829
  889MOL0     H22615  10.733   5.449  11.600 -0.0410  0.5338  0.6129
  889MOL0     H22616  10.556   5.429  11.580 -0.2158  0.4086 -0.7819
  889MOL0     H22617  10.536   5.641  11.482  2.0379  2.7950 -1.5239
  889MOL0     H22618  10.619   5.651  11.647 -0.4241  2.8494 -1.0994
  889MOL0     H22619  10.827   5.694  11.553 -1.8495  1.7410  2.0834
  889MOL0     H22620  10.757   5.677  11.379 -3.8709  0.7784 -0.9739
  889MOL0     H22621  10.782   5.887  11.393  0.2576 -1.8407 -0.6765
  889MOL0     H22622  10.614   5.876  11.447 -0.3123 -0.9811  1.2302
  889MOL0     H22623  10.851   5.875  11.635  0.1217  0.3967  1.7649
  889MOL0     H22624  10.684   5.911  11.689  1.8235  1.2457  1.7410
  889MOL0     H22625  10.851   6.105  11.530 -2.7021 -1.5910 -3.1122
  889MOL0     H22626  10.682   6.127  11.581 -0.7581  0.8499  1.6841
  889MOL0     H22627  10.904   6.070  11.791 -2.0836 -1.3747  1.4181
  889MOL0     H22628  10.722   6.110  11.805 -1.0086 -3.3152 -1.8994
  889MOL0     H22629  10.931   6.303  11.696 -1.1587 -2.4566 -2.6956
  889MOL0     H22630  10.755   6.333  11.739 -0.5310 -2.0942 -0.9938
  889MOL0     H22631  10.669   6.359  11.962 -0.8035 -0.0756  5.3751
  889MOL0     H22632  10.665   6.423  12.205  1.4322 -2.0060 -2.4489
  889MOL0     H22633  10.763   6.580  12.192 -0.4795 -0.2271  1.7436
  889MOL0     H22634  10.724   6.472  12.429 -0.3561  2.2143 -0.5433
  889MOL0     H22635  10.806   6.325  12.358 -0.7747 -0.0279  0.6817
  889MOL0     H22636  10.957   6.470  12.507 -0.3557 -0.0927 -0.0151
  889MOL0     H22637  11.009   6.453  12.338  1.3612 -2.6815  2.0267
  889MOL0     H22638  11.037   6.678  12.427 -1.0568 -0.0809  0.2110
  889MOL0     H22639  10.901   6.690  12.310 -0.9608 -0.9696  0.6755
  889MOL0     H22640  10.750   6.785  12.724  0.3000 -0.3998 -0.2202
  889MOL0     H22641  10.659   6.923  12.876 -1.4563  2.1030  1.4552
  889MOL0     H22642  10.687   7.092  12.855 -2.0547 -0.9517 -0.2628
  889MOL0     H22643  10.783   6.997  12.977 -1.6965  0.0510  1.7687
  889MOL0     H22644  10.851   7.456  12.751 -0.8006  1.8174 -1.9818
  889MOL0     H22645  10.909   7.697  12.865  1.7196  0.9417  1.0045
  889MOL0     H22646  11.207   7.900  13.085 -2.0441 -2.8428  2.1899
  889MOL0     H22647  11.279   7.748  13.056  0.4231  2.0089  2.0551
  889MOL0     H22648  11.421   7.931  12.967  0.5105 -0.3073 -0.5175
  889MOL0     H22649  11.379   7.818  12.842  0.4750 -0.4858  1.0729
  889MOL0     H22650  11.274   8.093  12.891 -3.4117 -0.1017 -1.2101
  889MOL0     H22651  11.202   7.964  12.779  0.4033 -0.2756 -0.6670
  889MOL0     H22652  11.308   8.133  12.675 -1.2895 -0.2614  1.8676
  889MOL0     H22653  11.399   7.981  12.642 -0.9401 -0.3115 -0.1488
  889MOL0     H22654  11.503   8.228  12.803  2.9723  0.6587 -1.0582
  889MOL0     H22655  11.558   8.064  12.831 -0.8344 -1.2202 -2.0170
  889MOL0     H22656  11.660   8.087  12.592  3.5205  0.1869  2.2089
  889MOL0     H22657  11.692   8.232  12.682 -0.9728 -1.4148  1.7758
  889MOL0     H22658  11.492   8.330  12.565 -0.2900 -1.5250  3.7921
  889MOL0     H22659  11.458   8.181  12.474 -1.1492  2.9336 -0.0187
  889MOL0     H22660  11.674   8.185  12.377 -4.2780 -1.3426 -1.1828
  889MOL0     H22661  11.712   8.345  12.426 -0.0529 -1.4052 -1.7230
  889MOL0     H22662  11.314   7.607  12.870 -0.3425 -1.2217  0.9501
  889MOL0     H22663  11.275   7.387  12.774 -2.1458 -2.8341  1.0186
  889MOL0     H22664  11.101   7.089  12.572  1.6918 -4.1920 -1.8597
  889MOL0     H22665  11.048   6.899  12.444  1.2063 -3.4898  0.0587
  889MOL0     H22666  10.739   5.328  11.168  0.1263  1.3518  0.2863
  889MOL0     H22667  10.814   5.132  11.119 -2.2057 -1.5747  0.2861
  889MOL0     H22668  11.031   4.785  11.211  1.7697 -1.0020 -2.3486
  889MOL0     H22669  11.139   4.609  11.114  0.6606 -4.5311 -1.6552
  889MOL0     H22670  11.006   4.380  10.831 -3.5545 -0.1563  1.0530
  889MOL0     H22671  11.041   4.531  10.892  3.8598  1.4298  1.9030
  889MOL0     H22672  11.245   4.503  10.948 -0.6763  0.5891  0.4649
  889MOL0     H22673  11.218   4.437  10.779 -0.1802  2.5902 -0.2155
  889MOL0     H22674  11.390   4.329  10.908  1.3557 -1.4213  5.0859
  889MOL0     H22675  11.274   4.272  11.019 -0.4291 -1.0445 -0.4718
  889MOL0     H22676  11.180   4.112  10.870 -2.9060  0.9571 -1.7202
  889MOL0     H22677  11.360   4.128  10.842  0.1835  1.6261  0.8032
  889MOL0     H22678  11.196   4.188  10.473  0.7070 -0.0683  0.3856
  889MOL0     H22679  10.788   4.370  11.144 -0.0145  0.5498  0.6162
  889MOL0     H22680  10.623   4.422  11.337  1.2427  0.1705  2.9698
  889MOL0     H22681  10.605   4.587  11.382 -1.0755  2.4962 -1.7543
  889MOL0     H22682  10.550   4.542  11.221 -2.3096  1.1081  2.8599
  890MOL0     O22683   6.987  10.790  10.477  0.8968 -0.1781 -0.1834
  890MOL0     C22684   6.988  10.820  10.355  0.9258 -0.0592 -0.6388
  890MOL0     O22685   6.905  10.794  10.255  0.5270  0.5838  0.0728
  890MOL0     C22686   6.785  10.737  10.282  0.2512 -0.3017 -0.5414
  890MOL0     C22687   6.768  10.609  10.233  0.3898  0.2278 -0.1593
  890MOL0     C22688   6.632  10.558  10.241 -0.4727 -0.8010  0.5440
  890MOL0     C22689   6.525  10.628  10.294 -0.0814 -0.8866  0.0226
  890MOL0     O22690   6.404  10.575  10.333 -0.7757 -0.1258 -0.9641
  890MOL0     C22691   6.390  10.436  10.364  0.0484  0.4315 -0.3057
  890MOL0     C22692   6.256  10.398  10.427  0.1021 -0.4592  0.3703
  890MOL0     C22693   6.250  10.246  10.440 -0.1187  0.0616  0.7782
  890MOL0     C22694   6.332  10.200  10.565 -0.8124 -0.6863 -0.2899
  890MOL0     C22695   6.281  10.063  10.613  1.2757  0.4672 -0.7373
  890MOL0     C22696   6.340   9.942  10.543 -0.1517 -0.1161 -1.4178
  890MOL0     C22697   6.290   9.811  10.605 -0.5906 -0.0714  0.3995
  890MOL0     C22698   6.316   9.703  10.507 -0.1904 -0.2857  0.2786
  890MOL0     N22699   6.460   9.669  10.515 -0.3280  0.1040  0.2592
  890MOL0     C22700   6.522   9.636  10.633  0.0059 -0.9151 -0.6019
  890MOL0     C22701   6.651   9.625  10.608  0.0238  0.4875  0.2166
  890MOL0     C22702   6.753   9.599  10.714 -0.0774  0.4527  0.2136
  890MOL0     C22703   6.758   9.460  10.781  0.8136  0.4371 -0.4593
  890MOL0     C22704   6.640   9.427  10.876  0.4986  0.3578  0.1374
  890MOL0     C22705   6.655   9.501  11.011 -0.8151 -0.1806 -0.1035
  890MOL0     O22706   6.620   9.642  10.997  0.7607 -0.0873  0.3791
  890MOL0     C22707   6.620   9.714  11.115 -0.7710  0.4685 -0.0412
  890MOL0     C22708   6.492   9.727  11.170  0.0922  0.5581 -0.8084
  890MOL0     C22709   6.472   9.786  11.296  0.9074 -0.4506 -0.3668
  890MOL0     C22710   6.329   9.795  11.356 -0.4968 -0.5443  0.5550
  890MOL0     C22711   6.585   9.841  11.364  0.1154 -0.3593 -0.4048
  890MOL0     C22712   6.583   9.921  11.486 -0.6044  0.0383 -0.2977
  890MOL0     O22713   6.702   9.988  11.529  0.1337  0.1563  0.1651
  890MOL0     C22714   6.678  10.054  11.648 -0.1791  0.5987  0.0685
  890MOL0     C22715   6.684   9.991  11.772 -0.0629  0.8268  0.8159
  890MOL0     C22716   6.643  10.061  11.891 -0.3258 -0.0426 -0.2656
  890MOL0     C22717   6.596  10.188  11.883 -0.4173 -0.1032 -0.7408
  890MOL0     O22718   6.566  10.237  12.013 -0.0423 -0.0945  0.3370
  890MOL0     C22719   6.479  10.347  12.025  0.1810  0.4236  0.9374
  890MOL0     C22720   6.473  10.384  12.177 -0.7493 -0.8134 -0.3317
  890MOL0     C22721   6.362  10.490  12.209 -0.5024  0.0690 -0.2234
  890MOL0     C22722   6.326  10.593  12.094 -0.1822  0.3253 -0.2450
  890MOL0     C22723   6.187  10.653  12.104 -0.2228 -0.0664  0.1262
  890MOL0     C22724   6.163  10.711  12.250 -0.1289 -0.0825 -0.2433
  890MOL0     C22725   6.034  10.796  12.291  0.2755 -0.0888 -0.2812
  890MOL0     C22726   6.028  10.824  12.435 -0.3039 -0.1387 -0.0355
  890MOL0    Cl22727   6.169  10.924  12.457 -0.6495 -0.6392 -0.1234
  890MOL0     C22728   6.597  10.255  11.759  0.1789  0.7095 -0.8318
  890MOL0     C22729   6.631  10.189  11.642  0.4982  0.0728 -0.2461
  890MOL0     O22730   6.476   9.923  11.550 -0.6499 -0.4096  0.0740
  890MOL0     C22731   6.719   9.825  11.297 -0.8581 -0.1902  0.1375
  890MOL0     C22732   6.735   9.755  11.180 -1.3538 -0.6167  0.2197
  890MOL0     N22733   6.673   9.648  10.470  1.2188 -0.8158  0.4043
  890MOL0     N22734   6.554   9.676  10.414  0.7983  0.2488 -0.0026
  890MOL0     C22735   6.552  10.756  10.347 -0.1266 -0.7666 -0.2785
  890MOL0     C22736   6.682  10.811  10.341 -0.2391  0.8338 -0.3944
  890MOL0     C22737   7.106  10.902  10.309  0.7984  1.2210 -0.0751
  890MOL0     C22738   7.173  10.855  10.196 -0.8529  0.0456 -0.5313
  890MOL0     C22739   7.278  10.926  10.131  1.0124 -0.1552 -0.2384
  890MOL0     C22740   7.306  11.052  10.174  0.3182 -0.5095  0.5982
  890MOL0     O22741   7.394  11.133  10.106 -0.0205  0.0761  0.1089
  890MOL0     C22742   7.454  11.087   9.983 -0.6617  0.3868  1.2014
  890MOL0     C22743   7.543  11.211   9.935  0.5134  0.1850  0.0732
  890MOL0     C22744   7.676  11.223  10.002 -0.7452  0.4632  0.6642
  890MOL0     C22745   7.772  11.310   9.923 -0.8106  0.1842  0.0397
  890MOL0     C22746   7.807  11.246   9.792 -0.2426 -0.3808 -0.4774
  890MOL0     C22747   7.851  11.204   9.684 -0.0809  0.5553 -0.1202
  890MOL0     C22748   7.239  11.105  10.285 -0.2988  0.4230 -0.5576
  890MOL0     C22749   7.139  11.030  10.351 -0.0174  0.2302  0.1674
  890MOL0     C22750   7.066  11.096  10.468  0.2909 -0.1690 -0.5662
  890MOL0     H22751   6.843  10.552  10.180 -2.0351 -1.8554 -1.5714
  890MOL0     H22752   6.614  10.454  10.213  0.1536 -0.5625 -0.8202
  890MOL0     H22753   6.470  10.403  10.431  0.5262 -0.5702 -1.3338
  890MOL0     H22754   6.412  10.387  10.269 -0.3110  1.0154 -0.6954
  890MOL0     H22755   6.241  10.452  10.520  0.0159  0.5910 -0.2431
  890MOL0     H22756   6.173  10.431  10.364 -3.2814 -3.8496  2.6643
  890MOL0     H22757   6.143  10.221  10.443 -0.8365  2.7162  4.9132
  890MOL0     H22758   6.275  10.202  10.343 -0.2122 -0.5774  1.0403
  890MOL0     H22759   6.439  10.200  10.540 -1.3432 -2.0381 -2.9097
  890MOL0     H22760   6.326  10.274  10.646  2.9868  1.0752 -1.3563
  890MOL0     H22761   6.174  10.064  10.592  1.2375 -0.7296 -0.6369
  890MOL0     H22762   6.295  10.041  10.719 -2.1834 -1.4077 -0.5307
  890MOL0     H22763   6.323   9.946  10.435  0.6960  2.0863 -1.5192
  890MOL0     H22764   6.449   9.953  10.549  0.1481 -3.0526  0.3014
  890MOL0     H22765   6.184   9.835  10.614 -0.6830 -0.6343  0.8880
  890MOL0     H22766   6.333   9.773  10.699  2.3873 -1.5581 -1.3990
  890MOL0     H22767   6.250   9.623  10.542 -0.7393 -1.3119 -2.7532
  890MOL0     H22768   6.279   9.730  10.407 -0.6760 -1.5308  0.1007
  890MOL0     H22769   6.479   9.642  10.733 -0.8394  1.1778 -1.0404
  890MOL0     H22770   6.728   9.671  10.793 -0.5062  2.5851 -1.7530
  890MOL0     H22771   6.851   9.607  10.666 -0.4024  0.5983 -0.4311
  890MOL0     H22772   6.743   9.377  10.711 -1.0602 -0.2018  0.6116
  890MOL0     H22773   6.853   9.441  10.831  0.6704  1.0405  0.0479
  890MOL0     H22774   6.551   9.463  10.822  0.7945 -0.1403 -0.6929
  890MOL0     H22775   6.645   9.319  10.889  1.3558  0.4669  0.7439
  890MOL0     H22776   6.587   9.461  11.086 -0.8131  0.3509  0.1896
  890MOL0     H22777   6.756   9.501  11.052 -2.3502 -0.2703  4.1446
  890MOL0     H22778   6.413   9.678  11.114  1.5290 -2.3158 -0.5277
  890MOL0     H22779   6.347   9.736  11.446 -0.7440 -1.2231  0.1641
  890MOL0     H22780   6.263   9.743  11.286  1.2828 -1.1231 -0.7768
  890MOL0     H22781   6.291   9.894  11.383  0.7888  0.5449 -1.3812
  890MOL0     H22782   6.727   9.893  11.790 -0.3657  1.0745  3.1748
  890MOL0     H22783   6.664  10.004  11.981  0.5168  0.0389 -0.4046
  890MOL0     H22784   6.520  10.432  11.970 -1.7610  1.0518  0.3639
  890MOL0     H22785   6.383  10.309  11.990  1.2241 -2.6808  1.1612
  890MOL0     H22786   6.455  10.305  12.250  0.5448 -0.7940  0.0336
  890MOL0     H22787   6.569  10.431  12.202  0.3272 -2.1668 -1.7396
  890MOL0     H22788   6.380  10.537  12.306 -2.3315  0.8882 -0.2379
  890MOL0     H22789   6.269  10.437  12.230 -2.0531  0.9821 -3.9056
  890MOL0     H22790   6.334  10.551  11.993 -1.4453 -1.2945  0.2650
  890MOL0     H22791   6.401  10.672  12.099 -2.1051  2.2973 -0.8933
  890MOL0     H22792   6.184  10.733  12.029 -2.7130  1.7473  1.9845
  890MOL0     H22793   6.108  10.580  12.085 -0.7559  1.0005 -2.0924
  890MOL0     H22794   6.242  10.780  12.282 -0.3025 -0.1312  0.2809
  890MOL0     H22795   6.159  10.623  12.314 -0.6855  0.9210  1.1296
  890MOL0     H22796   5.949  10.731  12.265  0.8940 -1.5421  1.1479
  890MOL0     H22797   6.040  10.888  12.232  4.8957  1.6401  2.3470
  890MOL0     H22798   6.031  10.731  12.491 -0.3077  0.8159  1.6038
  890MOL0     H22799   5.934  10.873  12.462 -0.4809  0.0685 -0.9722
  890MOL0     H22800   6.574  10.360  11.769  0.0848  0.5281  1.4255
  890MOL0     H22801   6.614  10.233  11.544 -2.4054  0.1893  0.2034
  890MOL0     H22802   6.807   9.871  11.339 -0.6274  1.6996 -2.1684
  890MOL0     H22803   6.834   9.751  11.134 -1.4586 -1.2780  0.0385
  890MOL0     H22804   6.475  10.812  10.397  0.8944 -0.8317  1.4375
  890MOL0     H22805   6.692  10.908  10.388 -0.3076  0.4165  0.5096
  890MOL0     H22806   7.158  10.754  10.161 -0.4465  0.8819 -3.3440
  890MOL0     H22807   7.328  10.878  10.047  2.7865 -1.2944  1.3763
  890MOL0     H22808   7.520  11.001   9.972  0.1172  1.2411 -1.6213
  890MOL0     H22809   7.372  11.065   9.914  0.5155 -0.8333  0.1534
  890MOL0     H22810   7.488  11.298   9.972  1.2050 -0.6718  3.4521
  890MOL0     H22811   7.535  11.209   9.826  0.8292 -0.0551  0.0534
  890MOL0     H22812   7.674  11.259  10.106  2.2611 -1.4229  1.5041
  890MOL0     H22813   7.722  11.124  10.010 -2.2551 -0.4323 -1.0582
  890MOL0     H22814   7.870  11.323   9.970 -0.9539 -0.5648  0.5604
  890MOL0     H22815   7.725  11.408   9.910 -0.6877  0.4768  1.5227
  890MOL0     H22816   7.902  11.163   9.600 -1.0912  0.4555 -0.7043
  890MOL0     H22817   7.256  11.202  10.331  4.9109 -0.0051 -1.0544
  890MOL0     H22818   7.117  11.188  10.497  0.9797 -0.6470 -0.2263
  890MOL0     H22819   6.969  11.122  10.424  0.2139  2.7858  1.1428
  890MOL0     H22820   7.071  11.030  10.555 -0.9261 -0.0398 -0.3831
  891MOL0     O22821  10.201   1.551   1.347  0.3558  0.7875  1.0790
  891MOL0     C22822  10.259   1.655   1.335  0.0667 -0.2847  0.3466
  891MOL0     O22823  10.346   1.709   1.425  0.3959 -0.5155 -0.9167
  891MOL0     C22824  10.409   1.629   1.524 -0.6419 -0.0732  0.2566
  891MOL0     C22825  10.411   1.490   1.539  0.6354  0.7282 -0.2146
  891MOL0     C22826  10.521   1.424   1.601  0.8079 -0.4450 -0.8737
  891MOL0     C22827  10.624   1.502   1.654  1.1435 -0.2872 -0.2339
  891MOL0     O22828  10.731   1.446   1.715  0.2443 -0.4211 -0.6083
  891MOL0     C22829  10.865   1.463   1.651 -0.2627  0.6429 -0.0711
  891MOL0     C22830  10.970   1.553   1.729  0.4196 -0.2553 -0.6121
  891MOL0     C22831  11.033   1.493   1.860  0.2664 -0.1361 -0.0432
  891MOL0     C22832  11.100   1.606   1.943  0.2725 -0.1029 -0.1392
  891MOL0     C22833  11.167   1.554   2.069  0.8243 -0.3073 -0.7086
  891MOL0     C22834  11.240   1.669   2.134 -0.1847 -0.8348 -0.0433
  891MOL0     C22835  11.297   1.634   2.268  0.7938 -0.4722 -0.3047
  891MOL0     C22836  11.354   1.486   2.270 -0.0891  0.1510 -0.3071
  891MOL0     N22837  11.441   1.470   2.392  1.6900  0.5628 -0.0730
  891MOL0     C22838  11.560   1.517   2.413 -0.0945  0.4098 -0.2343
  891MOL0     C22839  11.610   1.443   2.515  1.1840 -0.5759 -0.0402
  891MOL0     C22840  11.748   1.441   2.566 -0.4681 -0.2312  0.0199
  891MOL0     C22841  11.759   1.466   2.716  0.2600  0.5267  0.0651
  891MOL0     C22842  11.737   1.611   2.747  0.7025 -0.7541  0.0805
  891MOL0     C22843  11.664   1.636   2.881  0.0725  0.0799  0.3169
  891MOL0     O22844  11.533   1.594   2.845 -0.7849 -0.1403  0.0674
  891MOL0     C22845  11.456   1.685   2.769  0.4446  0.9054 -0.1098
  891MOL0     C22846  11.490   1.817   2.726 -0.6936 -0.1075 -0.2309
  891MOL0     C22847  11.400   1.892   2.642 -0.5918 -0.6043  0.6026
  891MOL0     C22848  11.464   2.021   2.581  0.1810 -0.4119 -0.4337
  891MOL0     C22849  11.276   1.845   2.602 -0.1434 -0.3480  0.7444
  891MOL0     C22850  11.186   1.924   2.527 -0.3604 -1.1462 -0.1031
  891MOL0     O22851  11.155   2.042   2.591  0.3537  0.7083  0.3131
  891MOL0     C22852  11.084   2.134   2.524  1.0782 -0.0014 -0.6843
  891MOL0     C22853  11.132   2.186   2.401 -0.2694  0.0292 -0.2154
  891MOL0     C22854  11.069   2.284   2.334  0.4191  0.6188 -0.1381
  891MOL0     C22855  10.957   2.346   2.380  0.5055  0.3532  0.2713
  891MOL0     O22856  10.897   2.446   2.303 -0.1666  0.0356 -0.5087
  891MOL0     C22857  10.766   2.504   2.333  0.1794  0.3131  0.2644
  891MOL0     C22858  10.752   2.642   2.270  0.6968 -0.3334 -0.2006
  891MOL0     C22859  10.708   2.636   2.125 -1.2331 -0.6293  0.5348
  891MOL0     C22860  10.819   2.610   2.028 -0.2449 -0.6095 -0.0142
  891MOL0     C22861  10.783   2.561   1.894 -0.1986  0.1934 -0.4832
  891MOL0     C22862  10.683   2.446   1.898  0.1220  0.5183  0.2044
  891MOL0     C22863  10.736   2.320   1.960  0.1532  0.0743 -0.1827
  891MOL0     C22864  10.640   2.195   1.939 -0.3277 -0.5113 -0.5659
  891MOL0    Cl22865  10.484   2.236   2.034  0.0543 -0.0405  0.0208
  891MOL0     C22866  10.904   2.293   2.500  0.4991 -0.8503 -0.0062
  891MOL0     C22867  10.966   2.186   2.567  0.0894 -0.0308  0.3950
  891MOL0     O22868  11.147   1.892   2.417  0.0745  0.0393  1.3552
  891MOL0     C22869  11.253   1.710   2.633 -0.6561 -0.4562  0.6003
  891MOL0     C22870  11.342   1.631   2.713  0.6257 -0.8805 -0.4026
  891MOL0     N22871  11.517   1.349   2.550  0.2464 -1.3909  0.5480
  891MOL0     N22872  11.421   1.353   2.467  0.1743  0.1321  0.9306
  891MOL0     C22873  10.604   1.643   1.662 -0.6572 -0.4079  0.1781
  891MOL0     C22874  10.504   1.705   1.589 -0.9096  0.1011  0.2289
  891MOL0     C22875  10.275   1.710   1.195 -0.5302  0.3900 -0.5651
  891MOL0     C22876  10.400   1.741   1.135 -0.6992  0.0659 -0.2070
  891MOL0     C22877  10.426   1.785   1.000 -0.0805 -0.0968 -0.1880
  891MOL0     C22878  10.318   1.798   0.914  0.1679 -0.4184  0.1823
  891MOL0     O22879  10.331   1.833   0.785 -0.3091 -0.3036  0.3204
  891MOL0     C22880  10.443   1.776   0.715  0.3465 -0.4997 -0.3515
  891MOL0     C22881  10.416   1.638   0.664 -0.8036 -0.0925  0.9060
  891MOL0     C22882  10.277   1.601   0.622 -0.8859 -0.0519  0.5853
  891MOL0     C22883  10.256   1.451   0.584  0.4111  0.4424 -0.7854
  891MOL0     C22884  10.246   1.375   0.707 -0.0484  0.6300  0.1098
  891MOL0     C22885  10.238   1.309   0.811  0.3118 -0.5939 -0.8728
  891MOL0     C22886  10.193   1.772   0.975  0.7272 -0.1431  0.6681
  891MOL0     C22887  10.172   1.723   1.107  0.2671 -0.0684  0.7926
  891MOL0     C22888  10.028   1.698   1.146  0.9304 -0.3888 -0.7805
  891MOL0     H22889  10.335   1.419   1.504  2.6098 -0.7248 -1.8044
  891MOL0     H22890  10.530   1.316   1.601  1.9084 -0.3669 -1.0986
  891MOL0     H22891  10.844   1.498   1.549 -1.7343 -2.2543 -0.9021
  891MOL0     H22892  10.908   1.363   1.633 -1.2047  0.1736  0.2362
  891MOL0     H22893  11.050   1.574   1.657  3.0315 -1.1113  1.8082
  891MOL0     H22894  10.910   1.640   1.755  0.3272 -0.8288  1.3190
  891MOL0     H22895  10.946   1.444   1.904 -0.7232  1.7155  0.1537
  891MOL0     H22896  11.103   1.415   1.828  0.2530  0.3862 -1.4251
  891MOL0     H22897  11.172   1.661   1.882  0.7332  1.5619  1.8005
  891MOL0     H22898  11.034   1.688   1.973  3.2704  0.7567  5.3381
  891MOL0     H22899  11.246   1.482   2.046  1.1315  0.1447 -1.1095
  891MOL0     H22900  11.100   1.499   2.134  0.7953 -3.6183 -3.2989
  891MOL0     H22901  11.323   1.684   2.064 -0.7832 -0.8054 -0.7514
  891MOL0     H22902  11.184   1.759   2.159  0.0283 -1.0866  1.4725
  891MOL0     H22903  11.212   1.641   2.336 -3.4067 -2.0631 -4.7897
  891MOL0     H22904  11.369   1.709   2.302  0.3847 -0.8983  1.5965
  891MOL0     H22905  11.274   1.411   2.280  0.2697 -0.0695  1.2050
  891MOL0     H22906  11.412   1.467   2.180 -0.9540  0.8165 -1.0262
  891MOL0     H22907  11.621   1.581   2.349  4.2869 -2.0610  1.0046
  891MOL0     H22908  11.804   1.516   2.508  1.1123 -0.7497  0.8212
  891MOL0     H22909  11.800   1.348   2.540 -2.0194 -1.1815  0.2316
  891MOL0     H22910  11.691   1.399   2.770 -0.4005  2.8574  2.3149
  891MOL0     H22911  11.853   1.424   2.752 -0.3425 -1.4700 -0.5121
  891MOL0     H22912  11.835   1.661   2.748  0.3198  0.0094  0.4041
  891MOL0     H22913  11.690   1.661   2.662  0.6906  1.5147  1.3479
  891MOL0     H22914  11.713   1.561   2.944 -2.7153 -2.5009 -0.3353
  891MOL0     H22915  11.671   1.736   2.926  2.1222  1.9990 -3.7227
  891MOL0     H22916  11.585   1.845   2.769 -1.5243  0.9272  0.9949
  891MOL0     H22917  11.518   1.989   2.492 -1.3792 -0.0888 -1.5299
  891MOL0     H22918  11.539   2.073   2.641  2.7935 -2.7150 -1.5282
  891MOL0     H22919  11.385   2.091   2.553 -0.9465 -1.0141  1.0755
  891MOL0     H22920  11.220   2.140   2.358 -1.4974 -0.2110 -2.6101
  891MOL0     H22921  11.107   2.310   2.236 -3.6557 -0.4823 -2.2721
  891MOL0     H22922  10.693   2.425   2.313  0.3855  0.8643 -3.2722
  891MOL0     H22923  10.760   2.523   2.440  0.3288  1.9062  0.0070
  891MOL0     H22924  10.673   2.695   2.322  0.9558  3.9621 -3.5841
  891MOL0     H22925  10.840   2.704   2.291  0.4813  0.2435 -0.9405
  891MOL0     H22926  10.651   2.726   2.101  0.2662  0.1092 -0.4295
  891MOL0     H22927  10.635   2.555   2.122 -4.3554  1.9334  0.8849
  891MOL0     H22928  10.890   2.536   2.066 -0.8426 -1.7176 -0.9902
  891MOL0     H22929  10.869   2.705   2.006 -4.3912  1.7960  0.0226
  891MOL0     H22930  10.738   2.639   1.832 -0.6788 -0.4076 -0.9007
  891MOL0     H22931  10.879   2.516   1.868  1.3276  1.2557  2.8388
  891MOL0     H22932  10.666   2.412   1.796  1.4404 -0.4012  0.2672
  891MOL0     H22933  10.590   2.471   1.950  0.6152  2.8562  0.0663
  891MOL0     H22934  10.751   2.336   2.067  1.2702 -3.1901  0.2721
  891MOL0     H22935  10.837   2.293   1.926  0.4972 -2.0871  2.2138
  891MOL0     H22936  10.677   2.097   1.971 -3.6166 -0.8383  2.9560
  891MOL0     H22937  10.621   2.205   1.832  0.0087  2.5008 -0.4153
  891MOL0     H22938  10.812   2.338   2.534  0.9325  1.0087 -1.1913
  891MOL0     H22939  10.931   2.142   2.661 -0.7649 -2.0821 -0.7991
  891MOL0     H22940  11.159   1.662   2.605 -2.9730  1.2053  4.5996
  891MOL0     H22941  11.335   1.525   2.734  2.7338 -1.4039 -2.0622
  891MOL0     H22942  10.676   1.709   1.709 -0.6337 -0.0143 -0.3990
  891MOL0     H22943  10.503   1.813   1.573  3.0238  0.5352  1.9248
  891MOL0     H22944  10.486   1.737   1.201 -1.4253  0.0798  0.7674
  891MOL0     H22945  10.528   1.820   0.989 -0.5148  1.9394  1.5945
  891MOL0     H22946  10.457   1.851   0.636  0.5891 -0.4227 -0.2345
  891MOL0     H22947  10.536   1.779   0.771  1.9237 -2.1354 -2.6872
  891MOL0     H22948  10.431   1.572   0.749 -2.2496  2.4847  3.3319
  891MOL0     H22949  10.486   1.618   0.582 -3.4107 -2.4599 -0.9611
  891MOL0     H22950  10.218   1.620   0.712  0.3025 -3.0276  2.1435
  891MOL0     H22951  10.240   1.664   0.541  0.3393 -0.7588 -0.5597
  891MOL0     H22952  10.339   1.408   0.527  1.6817  0.9038  0.6368
  891MOL0     H22953  10.169   1.440   0.518 -1.1935 -1.8569  1.5435
  891MOL0     H22954  10.223   1.246   0.896 -0.7814 -0.0705 -0.6704
  891MOL0     H22955  10.114   1.777   0.901  1.9870 -2.0642 -0.9292
  891MOL0     H22956  10.017   1.596   1.182 -4.4795 -0.2686 -1.3073
  891MOL0     H22957  10.004   1.770   1.225  0.3042 -0.0163 -1.3015
  891MOL0     H22958   9.954   1.707   1.066 -0.4409 -1.6472  0.2915
  892MOL0     O22959   4.973   7.664   9.128  0.3916 -0.3675  0.3340
  892MOL0     C22960   5.082   7.655   9.070 -0.4075  0.1916 -0.1005
  892MOL0     O22961   5.166   7.554   9.094  0.3292 -0.1643  0.2005
  892MOL0     C22962   5.126   7.446   9.170  0.3668  0.3182  0.0346
  892MOL0     C22963   5.140   7.438   9.308 -0.9229  0.3445 -0.6545
  892MOL0     C22964   5.107   7.334   9.391  0.1367  0.4512 -0.6656
  892MOL0     C22965   5.036   7.230   9.322 -0.7943 -0.2239  0.1075
  892MOL0     O22966   4.968   7.137   9.392  0.2301  0.4055 -0.2720
  892MOL0     C22967   5.033   7.012   9.398  0.9593  0.0368  0.1879
  892MOL0     C22968   4.959   6.897   9.469  0.4692  0.4610 -0.1670
  892MOL0     C22969   4.889   6.944   9.594  0.5911 -0.2196 -0.4176
  892MOL0     C22970   4.845   6.827   9.687 -0.3029 -1.0231  0.1758
  892MOL0     C22971   4.784   6.864   9.824 -0.2630 -0.0826  0.3131
  892MOL0     C22972   4.656   6.944   9.820 -0.4719 -0.6567 -0.8814
  892MOL0     C22973   4.601   6.969   9.959 -0.5456  0.2849 -0.3286
  892MOL0     C22974   4.469   7.044   9.941  0.1969 -0.1986 -0.7755
  892MOL0     N22975   4.397   7.046  10.070 -0.0092  0.1340  0.0135
  892MOL0     C22976   4.405   7.153  10.155  0.8755  0.3424 -0.2498
  892MOL0     C22977   4.304   7.136  10.236  0.5243 -0.4466  0.2936
  892MOL0     C22978   4.270   7.215  10.362 -0.4124  0.3622  0.2339
  892MOL0     C22979   4.150   7.300  10.353 -0.8429 -0.1425  1.0705
  892MOL0     C22980   4.154   7.400  10.240  0.1039  0.4233  0.6289
  892MOL0     C22981   4.010   7.443  10.183 -0.6491 -0.1148 -0.2038
  892MOL0     O22982   4.016   7.478  10.047  0.2666 -0.3236 -0.1825
  892MOL0     C22983   3.980   7.385   9.950  0.6185 -0.2961  0.6495
  892MOL0     C22984   3.875   7.410   9.856 -0.1956 -0.4889 -0.1378
  892MOL0     C22985   3.828   7.307   9.766  0.1851 -0.3415 -0.0904
  892MOL0     C22986   3.722   7.351   9.670  0.9848  0.9419  0.7930
  892MOL0     C22987   3.875   7.178   9.772 -0.2284  0.0747  0.1221
  892MOL0     C22988   3.820   7.058   9.692  0.0460 -0.4748  0.1881
  892MOL0     O22989   3.881   6.936   9.717  0.0120  0.1026 -0.5105
  892MOL0     C22990   3.827   6.814   9.673 -0.3689 -0.0410 -0.3453
  892MOL0     C22991   3.919   6.712   9.633  0.4852 -1.2325 -0.2131
  892MOL0     C22992   3.864   6.582   9.601 -0.6668 -0.7854  0.7767
  892MOL0     C22993   3.728   6.558   9.595  0.2764  0.6321 -0.5035
  892MOL0     O22994   3.687   6.431   9.548  0.2618 -1.1524  0.3901
  892MOL0     C22995   3.586   6.376   9.633  0.1989  0.4311  0.7602
  892MOL0     C22996   3.564   6.226   9.606 -0.3047  0.5278 -0.7326
  892MOL0     C22997   3.692   6.153   9.654  0.1987 -0.4138  0.1298
  892MOL0     C22998   3.682   6.002   9.654  0.4088 -1.4311  1.4282
  892MOL0     C22999   3.803   5.947   9.715 -0.7673 -0.3734  0.2272
  892MOL0     C23000   3.804   5.803   9.694  0.0868  0.9337  0.6141
  892MOL0     C23001   3.925   5.753   9.771 -0.6956 -0.4737 -0.5180
  892MOL0     C23002   3.944   5.602   9.735  0.0454  0.6727  0.5628
  892MOL0    Cl23003   4.008   5.571   9.578 -0.0079 -0.6061 -0.0347
  892MOL0     C23004   3.638   6.660   9.628 -0.1384  0.1212  0.5018
  892MOL0     C23005   3.689   6.782   9.672  0.5600 -0.8812  0.5299
  892MOL0     O23006   3.723   7.068   9.610 -0.1570  0.9590  0.6003
  892MOL0     C23007   3.979   7.149   9.864 -0.0554 -0.5709  0.5505
  892MOL0     C23008   4.029   7.251   9.950 -0.6075  0.1534  0.3690
  892MOL0     N23009   4.236   7.018  10.205  0.4302  0.4787 -0.1007
  892MOL0     N23010   4.290   6.969  10.103  0.0912 -0.1505  0.1147
  892MOL0     C23011   4.999   7.242   9.187 -0.7799 -0.0533 -0.1149
  892MOL0     C23012   5.050   7.347   9.102 -0.2633  0.3791 -0.2581
  892MOL0     C23013   5.120   7.751   8.970 -1.3899 -0.6417  0.7043
  892MOL0     C23014   5.256   7.754   8.935 -0.9633 -0.9172  0.1985
  892MOL0     C23015   5.310   7.836   8.835  0.6991 -0.6563 -0.5161
  892MOL0     C23016   5.225   7.908   8.748 -0.6497 -0.4397 -1.2783
  892MOL0     O23017   5.266   7.975   8.634  0.7175 -0.1814  0.2636
  892MOL0     C23018   5.401   7.957   8.605 -0.7011  0.0285  1.0512
  892MOL0     C23019   5.439   7.980   8.456  0.3210 -0.3916 -0.4979
  892MOL0     C23020   5.449   8.130   8.420  0.3146  0.2877  0.3862
  892MOL0     C23021   5.453   8.153   8.270  0.4298  0.3820  0.3320
  892MOL0     C23022   5.571   8.096   8.206  0.1451 -0.3348 -0.4290
  892MOL0     C23023   5.681   8.055   8.181  1.0570 -0.7035 -0.6067
  892MOL0     C23024   5.089   7.910   8.784 -0.2354  0.9199  0.7373
  892MOL0     C23025   5.029   7.833   8.890 -0.3231 -0.1251  0.3822
  892MOL0     C23026   4.876   7.832   8.918 -0.6437 -0.0656 -0.3005
  892MOL0     H23027   5.198   7.522   9.346 -0.2554 -0.9052  1.2264
  892MOL0     H23028   5.131   7.326   9.496 -2.0666  2.0803  0.0489
  892MOL0     H23029   5.133   7.016   9.442  0.0438 -5.0124  3.5385
  892MOL0     H23030   5.035   6.974   9.295  1.9802  0.6777 -0.0499
  892MOL0     H23031   4.876   6.871   9.403 -0.0148 -0.3029  0.7079
  892MOL0     H23032   5.023   6.809   9.474 -0.2207 -0.0655 -0.4102
  892MOL0     H23033   4.962   6.997   9.656 -0.1072 -0.6625  0.8233
  892MOL0     H23034   4.804   7.010   9.575  2.7043  3.5091  1.8423
  892MOL0     H23035   4.773   6.775   9.623 -0.5759 -0.3371 -0.0920
  892MOL0     H23036   4.928   6.759   9.709  0.8393 -0.8246 -3.0220
  892MOL0     H23037   4.864   6.920   9.873  0.0536  0.8461 -1.1669
  892MOL0     H23038   4.762   6.771   9.877 -0.8006 -0.6667 -0.8979
  892MOL0     H23039   4.680   7.039   9.771  5.1335 -0.7965  0.8998
  892MOL0     H23040   4.583   6.893   9.755 -1.7261  0.1058 -0.1061
  892MOL0     H23041   4.679   7.032  10.000  0.1524 -1.6413  1.5050
  892MOL0     H23042   4.588   6.883  10.026  1.5319  0.6351  0.5970
  892MOL0     H23043   4.497   7.143   9.904  0.1401 -0.5093 -1.6654
  892MOL0     H23044   4.411   6.992   9.865 -1.9227  1.4556 -0.3819
  892MOL0     H23045   4.483   7.228  10.153 -0.9835  2.4110 -2.7195
  892MOL0     H23046   4.356   7.280  10.379 -0.8383  0.8262  0.6442
  892MOL0     H23047   4.258   7.141  10.443  0.0293 -1.0657 -0.9624
  892MOL0     H23048   4.063   7.243  10.319 -1.6111  3.2801 -3.7311
  892MOL0     H23049   4.126   7.348  10.448  2.4251 -1.6318  2.8101
  892MOL0     H23050   4.195   7.497  10.270 -1.0321  0.6914  1.3781
  892MOL0     H23051   4.208   7.365  10.151 -1.0673  1.7201 -0.6465
  892MOL0     H23052   3.933   7.366  10.190 -0.4120 -0.3794 -0.4501
  892MOL0     H23053   3.970   7.533  10.230 -1.0927 -0.2051 -0.4079
  892MOL0     H23054   3.824   7.506   9.857  1.8013  0.6348  0.3913
  892MOL0     H23055   3.766   7.343   9.570 -1.5998  1.1902 -0.4279
  892MOL0     H23056   3.702   7.458   9.685 -1.3205  0.5333  0.8676
  892MOL0     H23057   3.639   7.281   9.665  3.1550 -1.9280  2.1884
  892MOL0     H23058   4.026   6.730   9.632  0.0236  2.5405 -2.3597
  892MOL0     H23059   3.926   6.505   9.557 -0.7697  0.6774 -2.1799
  892MOL0     H23060   3.612   6.380   9.739 -1.0196 -2.3965  1.2422
  892MOL0     H23061   3.497   6.437   9.618 -0.1190 -0.3998 -0.9915
  892MOL0     H23062   3.474   6.181   9.650  0.8918 -0.7186  0.5519
  892MOL0     H23063   3.561   6.215   9.497 -2.0872  0.2322 -0.6849
  892MOL0     H23064   3.700   6.192   9.756 -2.3930  1.7154 -0.3599
  892MOL0     H23065   3.775   6.188   9.591  0.1483  0.7876  0.6957
  892MOL0     H23066   3.676   5.969   9.550  1.2204  2.1642  0.1051
  892MOL0     H23067   3.604   5.972   9.724  1.1387 -2.5581  1.7724
  892MOL0     H23068   3.896   5.987   9.674 -0.0155  1.6597  3.5067
  892MOL0     H23069   3.805   5.955   9.824  1.6713  0.6434  0.1877
  892MOL0     H23070   3.804   5.780   9.587  0.5111 -2.5213  1.2375
  892MOL0     H23071   3.717   5.753   9.736  0.7454 -1.1229 -0.3421
  892MOL0     H23072   3.935   5.764   9.879  4.3689 -1.2445 -0.6601
  892MOL0     H23073   4.009   5.805   9.724 -1.1017 -0.5734 -1.3883
  892MOL0     H23074   3.856   5.541   9.756  0.5238 -1.4324 -2.9155
  892MOL0     H23075   4.022   5.568   9.804  1.5698  2.7475 -0.0203
  892MOL0     H23076   3.531   6.646   9.630 -0.0027 -0.9423  1.3844
  892MOL0     H23077   3.616   6.859   9.696 -3.4037 -3.3650 -2.2403
  892MOL0     H23078   4.001   7.044   9.881  1.5406 -0.3747 -0.0892
  892MOL0     H23079   4.101   7.218  10.025 -0.4822 -2.1775 -0.7029
  892MOL0     H23080   4.937   7.163   9.145 -1.4868  0.5405 -0.2006
  892MOL0     H23081   5.029   7.362   8.997 -0.6259  2.6877  0.1071
  892MOL0     H23082   5.330   7.690   8.981  1.3627  2.0610  0.9422
  892MOL0     H23083   5.419   7.830   8.833  1.2289  2.9967  3.2910
  892MOL0     H23084   5.454   8.025   8.672 -0.2323  0.9012 -0.1788
  892MOL0     H23085   5.429   7.852   8.619 -2.1007 -0.6027 -0.5649
  892MOL0     H23086   5.370   7.921   8.395 -0.7697  0.3226  0.0112
  892MOL0     H23087   5.535   7.933   8.431 -0.7033 -1.9079 -1.8198
  892MOL0     H23088   5.366   8.178   8.472  0.3273  1.3700 -0.5609
  892MOL0     H23089   5.537   8.164   8.475  0.3315 -1.4826  1.5194
  892MOL0     H23090   5.446   8.261   8.260  0.9605  0.5913  1.8418
  892MOL0     H23091   5.364   8.103   8.229 -0.7582  1.0549  1.9362
  892MOL0     H23092   5.773   8.005   8.160 -0.4094 -3.9138  0.0040
  892MOL0     H23093   5.025   7.963   8.714 -1.5218  0.0469  1.2094
  892MOL0     H23094   4.833   7.896   8.841 -0.4376  3.4133  2.2047
  892MOL0     H23095   4.833   7.732   8.914 -4.5222  1.2965  1.9557
  892MOL0     H23096   4.860   7.871   9.019 -0.7322 -1.5015  0.2713
  893MOL0     O23097   5.101   3.681   9.849  0.4529 -0.5410 -0.1744
  893MOL0     C23098   5.143   3.700   9.963 -0.6739 -0.3313 -0.1740
  893MOL0     O23099   5.271   3.749   9.990 -0.5546  0.4638 -0.4044
  893MOL0     C23100   5.386   3.750   9.901  0.9231  0.2170  0.8476
  893MOL0     C23101   5.505   3.815   9.942 -0.6039 -0.2348  0.2756
  893MOL0     C23102   5.626   3.789   9.869 -0.3489 -0.8703  0.0540
  893MOL0     C23103   5.630   3.705   9.756  0.0462  1.0327  0.0576
  893MOL0     O23104   5.752   3.696   9.688 -0.0905 -0.5754 -0.4425
  893MOL0     C23105   5.768   3.640   9.563 -1.2765  0.0201  0.0168
  893MOL0     C23106   5.917   3.642   9.525  0.8202  0.6116 -0.1798
  893MOL0     C23107   5.963   3.788   9.507  0.2807 -0.1680  0.2780
  893MOL0     C23108   6.055   3.786   9.376  0.3751 -0.4624  0.0261
  893MOL0     C23109   6.095   3.925   9.330  0.1606 -0.1397  0.2052
  893MOL0     C23110   6.180   3.908   9.197  0.5808  0.3610 -0.6219
  893MOL0     C23111   6.317   3.840   9.214 -0.7573 -0.7205  0.2606
  893MOL0     C23112   6.397   3.902   9.329 -0.6274 -1.0640 -0.3735
  893MOL0     N23113   6.431   4.044   9.301  0.0388  0.6227 -0.1435
  893MOL0     C23114   6.399   4.143   9.385 -0.6753  0.6531  0.1946
  893MOL0     C23115   6.407   4.257   9.317 -0.9798 -0.0979 -0.4212
  893MOL0     C23116   6.365   4.394   9.371 -0.8501  0.3325 -0.7285
  893MOL0     C23117   6.392   4.400   9.522  0.1207  0.1661  0.7034
  893MOL0     C23118   6.371   4.548   9.563  1.3391  0.4074 -0.3424
  893MOL0     C23119   6.366   4.563   9.716  0.6279 -0.0742  0.4351
  893MOL0     O23120   6.346   4.702   9.741  0.1855  0.3083  0.2406
  893MOL0     C23121   6.332   4.749   9.870  0.0255  0.9478 -0.3685
  893MOL0     C23122   6.334   4.665   9.988 -1.4016 -0.6110 -0.4920
  893MOL0     C23123   6.321   4.718  10.118  0.4635 -0.6496  1.1890
  893MOL0     C23124   6.356   4.625  10.223 -0.4941  0.7743 -0.6625
  893MOL0     C23125   6.274   4.849  10.139  0.1873 -0.2555  0.4377
  893MOL0     C23126   6.254   4.911  10.274 -0.6382 -0.9177 -0.5058
  893MOL0     O23127   6.232   5.050  10.264 -1.2970 -0.1121  0.8870
  893MOL0     C23128   6.194   5.133  10.361  0.8272  0.5994 -0.7780
  893MOL0     C23129   6.112   5.233  10.322  0.2033 -0.1101  0.1795
  893MOL0     C23130   6.079   5.341  10.408  0.7427 -0.3132 -0.1578
  893MOL0     C23131   6.111   5.338  10.545 -0.0902 -0.6284  0.1411
  893MOL0     O23132   6.081   5.443  10.631 -0.6927  0.0051 -0.1989
  893MOL0     C23133   5.957   5.520  10.607 -0.2622 -0.5497  0.1739
  893MOL0     C23134   5.895   5.566  10.741 -0.2023  1.0812 -0.7069
  893MOL0     C23135   5.892   5.456  10.851 -0.8446 -0.0338  1.2134
  893MOL0     C23136   5.794   5.333  10.829  0.4920 -0.0626 -0.7784
  893MOL0     C23137   5.811   5.216  10.927 -0.2869  0.2934  0.2263
  893MOL0     C23138   5.775   5.086  10.860  1.2048 -0.0742  0.6193
  893MOL0     C23139   5.808   4.964  10.946 -0.0651  0.2691 -0.3464
  893MOL0     C23140   5.709   4.937  11.060  0.0904  1.2324  0.3788
  893MOL0    Cl23141   5.793   4.899  11.208  0.3399 -0.3309 -0.2787
  893MOL0     C23142   6.178   5.223  10.590 -0.0596  0.1066  0.1951
  893MOL0     C23143   6.216   5.122  10.505 -0.7599  0.0354  0.4423
  893MOL0     O23144   6.242   4.848  10.380  0.9734  0.4200 -0.1941
  893MOL0     C23145   6.256   4.933  10.018 -0.8819 -0.4132 -0.0945
  893MOL0     C23146   6.289   4.877   9.892 -0.4280 -0.5081 -0.0889
  893MOL0     N23147   6.467   4.228   9.198  0.5410 -0.5835 -0.4087
  893MOL0     N23148   6.494   4.097   9.194  0.1600 -0.1213 -0.1730
  893MOL0     C23149   5.511   3.658   9.715  0.3696  0.1747  0.3510
  893MOL0     C23150   5.386   3.677   9.778  0.0999 -1.5664 -0.2670
  893MOL0     C23151   5.063   3.661  10.077  0.8703  0.5581  0.3617
  893MOL0     C23152   5.077   3.726  10.201  0.9516 -0.4166 -0.2465
  893MOL0     C23153   4.989   3.707  10.303  1.0312  0.4528  0.0849
  893MOL0     C23154   4.886   3.610  10.297  0.6471 -0.0009 -0.0560
  893MOL0     O23155   4.779   3.589  10.388 -0.2389 -0.4515 -0.6781
  893MOL0     C23156   4.777   3.673  10.505 -0.2179  0.9052  0.7510
  893MOL0     C23157   4.838   3.619  10.634  0.9523  0.0357 -0.3157
  893MOL0     C23158   4.797   3.480  10.701  0.6284 -0.9528  0.9401
  893MOL0     C23159   4.655   3.484  10.748  0.5897 -0.0696 -0.2516
  893MOL0     C23160   4.549   3.438  10.649 -0.2188  0.7114 -0.8376
  893MOL0     C23161   4.478   3.393  10.565  0.1304  0.5200 -0.8708
  893MOL0     C23162   4.882   3.533  10.183 -0.2116  0.5283 -0.5806
  893MOL0     C23163   4.973   3.554  10.073 -0.4526  0.5337  0.4347
  893MOL0     C23164   4.973   3.446   9.963 -0.1239 -0.6782 -0.6644
  893MOL0     H23165   5.514   3.858  10.042  3.3144  1.8850 -0.7498
  893MOL0     H23166   5.711   3.835   9.918 -1.2685 -0.7196  1.5830
  893MOL0     H23167   5.709   3.692   9.487 -1.6274 -0.5456 -0.1107
  893MOL0     H23168   5.729   3.537   9.566  1.3611 -1.2329 -3.1051
  893MOL0     H23169   5.967   3.583   9.602 -2.2780 -0.9411  0.8185
  893MOL0     H23170   5.919   3.594   9.427  1.1807  0.6196 -0.1766
  893MOL0     H23171   5.887   3.866   9.498  0.9210  0.2645 -2.3573
  893MOL0     H23172   6.020   3.813   9.597  0.5489  0.8493 -0.1526
  893MOL0     H23173   6.143   3.727   9.402  2.8346  3.2881  1.0946
  893MOL0     H23174   6.001   3.738   9.293  2.1714 -2.3447 -0.1209
  893MOL0     H23175   6.140   3.990   9.405 -0.7274  0.1135  0.5218
  893MOL0     H23176   6.002   3.970   9.294  1.0453 -0.3130 -2.5313
  893MOL0     H23177   6.112   3.858   9.127 -2.2544  0.6031  1.7386
  893MOL0     H23178   6.188   4.011   9.163 -1.8584  0.3649 -1.3846
  893MOL0     H23179   6.371   3.867   9.123  1.0460  0.1274  1.5152
  893MOL0     H23180   6.296   3.734   9.227  0.5447 -0.9872  0.3119
  893MOL0     H23181   6.360   3.887   9.431  1.3463  2.8495  1.1386
  893MOL0     H23182   6.495   3.855   9.329 -0.1036 -0.1976  2.9260
  893MOL0     H23183   6.341   4.127   9.475  1.6915  1.0866  1.8907
  893MOL0     H23184   6.259   4.414   9.354 -1.1386  0.7547  1.2601
  893MOL0     H23185   6.430   4.462   9.315  1.7283 -0.0209  1.6082
  893MOL0     H23186   6.316   4.335   9.569  2.4670 -0.4459  4.0059
  893MOL0     H23187   6.496   4.374   9.542  0.9566  0.7089 -2.4293
  893MOL0     H23188   6.450   4.615   9.528  2.1102  0.1496  0.8439
  893MOL0     H23189   6.271   4.577   9.531  0.5344 -2.4897 -0.8076
  893MOL0     H23190   6.284   4.505   9.758 -1.1739  0.6686 -1.8435
  893MOL0     H23191   6.459   4.534   9.766  0.1171 -0.8082  0.9697
  893MOL0     H23192   6.358   4.560   9.980  0.6450 -0.1547 -1.2094
  893MOL0     H23193   6.364   4.526  10.176 -2.3561  0.9239 -1.4085
  893MOL0     H23194   6.288   4.623  10.308 -3.1645  2.6144 -2.5747
  893MOL0     H23195   6.450   4.654  10.269 -0.9805 -2.6067  3.0351
  893MOL0     H23196   6.086   5.242  10.217  1.4046  0.2792 -0.0971
  893MOL0     H23197   6.022   5.428  10.379 -1.6198 -1.2664  1.3943
  893MOL0     H23198   5.985   5.602  10.539 -0.6579  0.1555  0.8352
  893MOL0     H23199   5.878   5.465  10.556 -0.1377 -0.5776  0.0141
  893MOL0     H23200   5.960   5.642  10.785 -0.3738  1.0485 -0.3938
  893MOL0     H23201   5.794   5.610  10.735  0.3765  2.8462  1.2592
  893MOL0     H23202   5.856   5.519  10.933 -0.5332  2.5693 -0.5334
  893MOL0     H23203   5.990   5.425  10.889 -1.5667 -1.7819  1.7276
  893MOL0     H23204   5.809   5.292  10.729  2.4112 -1.1087 -0.1139
  893MOL0     H23205   5.688   5.358  10.834  1.0398  2.4154  4.1632
  893MOL0     H23206   5.916   5.223  10.959 -0.3343 -0.3384  0.5461
  893MOL0     H23207   5.748   5.224  11.017  0.0654 -0.9421  0.6006
  893MOL0     H23208   5.850   5.077  10.780 -0.1631 -1.1833 -0.5869
  893MOL0     H23209   5.676   5.081  10.814  1.4418 -2.8363  0.2069
  893MOL0     H23210   5.901   4.989  10.999 -0.8526  0.9904  0.7209
  893MOL0     H23211   5.814   4.880  10.876 -1.6645  0.0879 -0.2950
  893MOL0     H23212   5.651   4.848  11.030  1.4402  0.2434  0.5814
  893MOL0     H23213   5.638   5.020  11.068 -1.2266  0.5088 -2.2571
  893MOL0     H23214   6.200   5.191  10.691 -3.0692  0.5613  1.0910
  893MOL0     H23215   6.271   5.033  10.537 -1.1576 -1.8371 -3.4521
  893MOL0     H23216   6.214   5.033  10.013 -1.8955 -0.7310  1.3994
  893MOL0     H23217   6.272   4.956   9.820  0.6094  0.3165  0.5524
  893MOL0     H23218   5.507   3.603   9.621 -0.3530  1.8913 -0.6571
  893MOL0     H23219   5.306   3.613   9.742 -0.5221  1.5669 -5.4704
  893MOL0     H23220   5.151   3.803  10.219  1.0686 -0.7923  0.9380
  893MOL0     H23221   5.003   3.764  10.395  1.5620  2.4975 -1.1948
  893MOL0     H23222   4.812   3.776  10.495 -0.5744  1.1037  1.5059
  893MOL0     H23223   4.671   3.698  10.512  0.1585  2.3815  1.7624
  893MOL0     H23224   4.810   3.702  10.701  1.9494  0.5507 -0.5234
  893MOL0     H23225   4.947   3.618  10.631  1.0991  1.9674  1.7985
  893MOL0     H23226   4.810   3.395  10.634 -1.8219 -0.9696  0.4153
  893MOL0     H23227   4.848   3.465  10.796  1.1153  1.5733  1.1688
  893MOL0     H23228   4.643   3.589  10.776  0.1185  0.0978 -1.0267
  893MOL0     H23229   4.644   3.419  10.835  3.4470 -0.9341 -0.4330
  893MOL0     H23230   4.404   3.355  10.496 -1.5350 -0.0201  1.1069
  893MOL0     H23231   4.797   3.465  10.184 -0.0180  0.2680  1.0534
  893MOL0     H23232   5.067   3.442   9.908  1.1771  1.0302  1.2984
  893MOL0     H23233   4.946   3.355  10.019 -0.0990  0.5876  1.5378
  893MOL0     H23234   4.897   3.458   9.885 -0.2585 -0.9333 -0.5770
  894MOL0     O23235  11.083   8.600   8.927 -0.4537 -0.0988 -0.2050
  894MOL0     C23236  11.204   8.588   8.952 -0.3058  0.9058 -0.2481
  894MOL0     O23237  11.282   8.506   8.875  0.8321  0.0098 -0.0007
  894MOL0     C23238  11.231   8.458   8.754  0.9404 -0.1914  0.4296
  894MOL0     C23239  11.275   8.525   8.631  0.0891 -0.0628  0.0800
  894MOL0     C23240  11.248   8.469   8.501 -0.0819 -0.1848 -0.3037
  894MOL0     C23241  11.182   8.345   8.494  0.8211  0.9028 -0.1589
  894MOL0     O23242  11.143   8.276   8.384 -0.3843 -0.5418  0.4909
  894MOL0     C23243  11.119   8.354   8.270  0.2121  0.2146  1.5504
  894MOL0     C23244  11.056   8.245   8.173  0.0166 -1.0202  0.4678
  894MOL0     C23245  11.143   8.130   8.129 -0.1456 -0.8545 -0.2812
  894MOL0     C23246  11.080   8.052   8.011  0.5620 -0.0542  0.4020
  894MOL0     C23247  11.170   7.937   7.955  0.0406  0.5570 -0.2445
  894MOL0     C23248  11.104   7.860   7.832  0.0612  0.0056 -1.0338
  894MOL0     C23249  11.201   7.757   7.772  0.0465 -0.7969  0.5320
  894MOL0     C23250  11.322   7.803   7.689  0.4219 -0.1612 -0.4104
  894MOL0     N23251  11.375   7.688   7.622  0.4734  0.0104  0.2757
  894MOL0     C23252  11.318   7.628   7.509  0.0571  0.2870 -0.0072
  894MOL0     C23253  11.422   7.549   7.458  1.1641  0.1017 -0.2051
  894MOL0     C23254  11.393   7.469   7.332  0.9173 -0.0842 -0.1120
  894MOL0     C23255  11.373   7.574   7.217 -1.5130  0.3080 -0.0814
  894MOL0     C23256  11.385   7.513   7.082  0.8407  0.3057  0.2660
  894MOL0     C23257  11.530   7.487   7.044 -0.3944  0.2979 -0.3068
  894MOL0     O23258  11.545   7.447   6.910  0.9028  0.7954  0.1003
  894MOL0     C23259  11.524   7.314   6.867  0.2154  0.4909  0.2920
  894MOL0     C23260  11.490   7.209   6.957  0.3207  0.0084 -0.0215
  894MOL0     C23261  11.484   7.079   6.915  0.3830  0.4251  0.8507
  894MOL0     C23262  11.435   6.973   7.020  0.5190 -1.5261 -0.0905
  894MOL0     C23263  11.500   7.046   6.772  1.1150  0.7332  0.0215
  894MOL0     C23264  11.471   6.909   6.699  0.5659  0.2804  0.4657
  894MOL0     O23265  11.516   6.896   6.566  0.1323 -0.0176 -0.1264
  894MOL0     C23266  11.500   6.776   6.509  1.6263  0.2260 -0.1967
  894MOL0     C23267  11.522   6.653   6.571  0.0196  1.1116  0.5165
  894MOL0     C23268  11.480   6.527   6.514 -1.2173 -0.5212 -0.3787
  894MOL0     C23269  11.420   6.524   6.389  0.8015 -0.9187  0.4224
  894MOL0     O23270  11.393   6.411   6.318  0.4787 -0.4490  0.2669
  894MOL0     C23271  11.341   6.298   6.392 -0.3780  0.0619  1.5207
  894MOL0     C23272  11.287   6.206   6.285  0.2870 -0.4234  0.1185
  894MOL0     C23273  11.266   6.056   6.336  0.2382 -0.4803  0.0964
  894MOL0     C23274  11.387   5.981   6.304  0.0559  0.3748  1.0208
  894MOL0     C23275  11.364   5.899   6.170  0.5421  0.4933 -0.0651
  894MOL0     C23276  11.451   5.770   6.149 -0.0033 -0.3489  0.6897
  894MOL0     C23277  11.586   5.811   6.113 -0.0245 -0.9347  0.9972
  894MOL0     C23278  11.667   5.691   6.070  0.6396 -0.0637  0.3444
  894MOL0    Cl23279  11.846   5.725   6.081  0.1308  0.2088 -0.1019
  894MOL0     C23280  11.407   6.648   6.320  0.6974 -0.3851 -0.7871
  894MOL0     C23281  11.452   6.771   6.380  0.1905  0.0396 -0.3641
  894MOL0     O23282  11.409   6.822   6.765 -0.3226 -0.0591 -0.4252
  894MOL0     C23283  11.531   7.152   6.688 -0.5217 -0.2882 -0.0854
  894MOL0     C23284  11.550   7.280   6.737 -0.2894  0.0500  0.9078
  894MOL0     N23285  11.530   7.563   7.536 -0.2096  0.0215 -0.6963
  894MOL0     N23286  11.502   7.625   7.639  0.0474 -0.5981 -0.2863
  894MOL0     C23287  11.127   8.287   8.611 -0.0515 -0.6104 -0.2665
  894MOL0     C23288  11.149   8.340   8.744  0.6423  0.2312  0.2428
  894MOL0     C23289  11.269   8.667   9.056  0.0116  1.0431 -0.3030
  894MOL0     C23290  11.397   8.627   9.096  0.3907  0.1835 -0.1271
  894MOL0     C23291  11.461   8.683   9.212 -0.9961 -0.0718  0.7863
  894MOL0     C23292  11.406   8.798   9.267 -0.2622 -1.4334 -0.2904
  894MOL0     O23293  11.442   8.856   9.391 -0.8275 -0.0384  0.2459
  894MOL0     C23294  11.542   8.790   9.473  0.7769 -0.2688 -1.3126
  894MOL0     C23295  11.535   8.835   9.621  0.1127 -0.2577 -1.1108
  894MOL0     C23296  11.530   8.983   9.622 -0.8841 -0.6142 -0.3447
  894MOL0     C23297  11.647   9.068   9.561 -0.3805 -0.6027 -0.2205
  894MOL0     C23298  11.657   9.204   9.624  0.4997 -1.2679 -0.0311
  894MOL0     C23299  11.667   9.313   9.679  0.1510  0.6983 -0.6590
  894MOL0     C23300  11.297   8.850   9.212  0.7607  0.1453  0.2708
  894MOL0     C23301  11.214   8.776   9.118 -0.6060 -0.3432 -0.5401
  894MOL0     C23302  11.078   8.836   9.080 -0.3279  0.1544 -0.1032
  894MOL0     H23303  11.345   8.608   8.639  0.9520 -0.8983  1.8019
  894MOL0     H23304  11.275   8.519   8.408  0.2938 -0.7805 -0.5198
  894MOL0     H23305  11.208   8.400   8.226  0.1786 -1.4501 -0.4351
  894MOL0     H23306  11.045   8.433   8.287  0.2597  0.8843 -0.9371
  894MOL0     H23307  10.965   8.200   8.214 -0.2334 -1.5689 -0.6354
  894MOL0     H23308  11.016   8.295   8.084  1.3726 -1.3002 -0.3327
  894MOL0     H23309  11.237   8.170   8.089 -1.9186  2.2932 -1.6680
  894MOL0     H23310  11.169   8.066   8.214  1.8590 -0.0842 -0.2528
  894MOL0     H23311  10.983   8.008   8.032 -0.1475 -2.5468 -5.7532
  894MOL0     H23312  11.057   8.116   7.925  1.4877  0.7019  0.6937
  894MOL0     H23313  11.178   7.861   8.033 -1.1504 -0.2046 -0.8304
  894MOL0     H23314  11.267   7.978   7.927  1.4120 -2.1686  0.3118
  894MOL0     H23315  11.005   7.817   7.845  0.2130 -0.2244 -0.6363
  894MOL0     H23316  11.081   7.933   7.753 -2.3682 -0.6890 -1.0619
  894MOL0     H23317  11.142   7.695   7.703 -1.7970  0.2684  1.0658
  894MOL0     H23318  11.239   7.695   7.854  0.0633 -1.1680  0.2476
  894MOL0     H23319  11.297   7.876   7.612  1.9550  0.5025 -0.3246
  894MOL0     H23320  11.402   7.844   7.751 -0.5340  0.3467  0.5073
  894MOL0     H23321  11.214   7.640   7.479 -0.0854  1.1251  0.7531
  894MOL0     H23322  11.308   7.401   7.344  1.1860 -0.2648  0.8470
  894MOL0     H23323  11.487   7.414   7.319  1.2591  0.5989 -0.5791
  894MOL0     H23324  11.282   7.635   7.222 -0.5617  1.6737  1.4403
  894MOL0     H23325  11.461   7.638   7.232 -0.6908 -0.6611 -0.6332
  894MOL0     H23326  11.314   7.430   7.076  0.8453  0.1885  1.6663
  894MOL0     H23327  11.347   7.570   6.997  0.4862 -1.7317 -1.0130
  894MOL0     H23328  11.588   7.580   7.050  0.7680 -0.1105 -3.3866
  894MOL0     H23329  11.583   7.409   7.100 -0.8000 -1.3712 -2.1483
  894MOL0     H23330  11.470   7.220   7.063  2.0345 -0.8132  0.4163
  894MOL0     H23331  11.326   6.971   7.011  0.4124 -0.3641  0.7412
  894MOL0     H23332  11.457   7.003   7.123 -3.2430 -5.4430  2.1747
  894MOL0     H23333  11.460   6.867   7.013 -2.7103 -2.3059 -1.4350
  894MOL0     H23334  11.572   6.646   6.667 -1.3249 -1.3038  1.1408
  894MOL0     H23335  11.496   6.436   6.571  2.7046  0.1453 -0.1542
  894MOL0     H23336  11.420   6.257   6.455 -1.0606 -1.7525  1.2664
  894MOL0     H23337  11.259   6.330   6.456 -1.3888 -0.1247  0.3674
  894MOL0     H23338  11.183   6.237   6.265 -0.0991 -1.1621  0.9091
  894MOL0     H23339  11.344   6.208   6.192 -2.6327  2.3490 -1.8178
  894MOL0     H23340  11.169   6.023   6.298 -1.5525  1.4421  2.6724
  894MOL0     H23341  11.266   6.064   6.445  1.2488 -3.2951  0.3732
  894MOL0     H23342  11.389   5.900   6.378 -0.1017  1.1979  1.9362
  894MOL0     H23343  11.480   6.039   6.294  0.1003  0.1031 -0.3323
  894MOL0     H23344  11.258   5.872   6.166  0.0227  2.3417  0.0901
  894MOL0     H23345  11.377   5.971   6.088 -0.0972  0.0089 -0.6070
  894MOL0     H23346  11.406   5.725   6.060 -0.8288  2.1555 -0.2591
  894MOL0     H23347  11.442   5.697   6.230 -1.2418  0.1206  1.0039
  894MOL0     H23348  11.636   5.857   6.199 -1.5590  0.8242  1.0105
  894MOL0     H23349  11.590   5.886   6.033 -0.1194  0.0804  1.9138
  894MOL0     H23350  11.650   5.685   5.962 -0.2163 -2.5423  0.5687
  894MOL0     H23351  11.634   5.602   6.123 -0.0897  0.6265  1.0721
  894MOL0     H23352  11.362   6.647   6.222 -3.1948 -4.3687  0.7006
  894MOL0     H23353  11.436   6.863   6.324 -1.6959  1.0381  1.6815
  894MOL0     H23354  11.554   7.140   6.583  1.7840  0.6374  0.2742
  894MOL0     H23355  11.578   7.360   6.669 -1.0034  0.3010  0.9064
  894MOL0     H23356  11.060   8.202   8.605  0.6541 -1.2876  1.0477
  894MOL0     H23357  11.106   8.285   8.828 -1.8071 -3.5773 -3.1413
  894MOL0     H23358  11.450   8.540   9.059  0.1359 -1.6943  3.5197
  894MOL0     H23359  11.553   8.631   9.237 -1.3626 -2.6808 -2.6130
  894MOL0     H23360  11.534   8.681   9.460  4.0187 -0.5777 -1.4747
  894MOL0     H23361  11.645   8.816   9.445  1.5913 -2.4353 -0.5346
  894MOL0     H23362  11.609   8.782   9.681 -1.5669 -0.5034  0.8246
  894MOL0     H23363  11.437   8.797   9.652 -1.0470  3.4806  0.3073
  894MOL0     H23364  11.437   9.004   9.569 -0.5829 -1.7668 -1.3831
  894MOL0     H23365  11.528   9.015   9.726 -1.6780  0.6531 -0.7328
  894MOL0     H23366  11.637   9.080   9.453 -2.0357  1.2873  0.0915
  894MOL0     H23367  11.742   9.024   9.596  1.6949  5.0212  2.6093
  894MOL0     H23368  11.679   9.407   9.729 -3.7901  0.4518  1.1068
  894MOL0     H23369  11.252   8.940   9.251 -2.6135 -0.6525 -1.3821
  894MOL0     H23370  11.002   8.775   9.130  1.3298 -0.9370  1.1609
  894MOL0     H23371  11.056   8.937   9.116 -0.9526  0.8856 -2.3416
  894MOL0     H23372  11.066   8.845   8.971  2.3298  3.7664 -0.2932
  895MOL0     O23373   2.437   2.078  10.551  0.1212  0.1194 -0.4786
  895MOL0     C23374   2.541   2.150  10.573  1.1002 -0.0040  0.4421
  895MOL0     O23375   2.652   2.159  10.496  0.0049  0.1474  0.2129
  895MOL0     C23376   2.655   2.089  10.377  0.2220 -0.5574  0.1900
  895MOL0     C23377   2.658   1.945  10.378  0.0005  0.6067 -0.1018
  895MOL0     C23378   2.649   1.867  10.251  0.2444  0.3579  0.4575
  895MOL0     C23379   2.643   1.929  10.129  0.0883 -0.0085 -0.2190
  895MOL0     O23380   2.643   1.872  10.005 -0.1330 -0.2100 -0.3817
  895MOL0     C23381   2.642   1.727   9.985  1.2345 -0.3436 -0.5961
  895MOL0     C23382   2.669   1.689   9.842 -0.4558 -0.0095 -0.2473
  895MOL0     C23383   2.680   1.538   9.821  0.1393 -0.7584 -0.0896
  895MOL0     C23384   2.731   1.502   9.676  0.4621  0.6414  0.1133
  895MOL0     C23385   2.635   1.514   9.551 -0.6055 -0.2051 -0.4043
  895MOL0     C23386   2.540   1.397   9.529 -0.7146  0.2536 -0.0598
  895MOL0     C23387   2.457   1.393   9.407  0.2752 -0.1036  0.6607
  895MOL0     C23388   2.538   1.388   9.274 -0.3440  0.0523  0.4649
  895MOL0     N23389   2.638   1.273   9.280  0.1948  0.8460  1.0442
  895MOL0     C23390   2.655   1.163   9.201 -0.4390 -0.3031 -0.3457
  895MOL0     C23391   2.787   1.121   9.217 -0.4614 -0.5767 -0.4724
  895MOL0     C23392   2.865   0.990   9.188  0.5206 -0.5315 -0.2884
  895MOL0     C23393   2.787   0.866   9.233 -0.3443  0.4064  0.4038
  895MOL0     C23394   2.873   0.744   9.194  0.7459  0.3937 -0.5997
  895MOL0     C23395   2.795   0.615   9.194 -0.0052 -1.6105  0.2569
  895MOL0     O23396   2.747   0.586   9.330 -0.9349  0.7234 -0.5420
  895MOL0     C23397   2.653   0.483   9.322  0.3821 -0.5056 -1.6580
  895MOL0     C23398   2.531   0.500   9.371  1.2668 -0.1048  0.0158
  895MOL0     C23399   2.423   0.400   9.369  0.6492  0.8884 -0.4024
  895MOL0     C23400   2.297   0.432   9.440 -0.9582 -0.6591  0.3071
  895MOL0     C23401   2.448   0.278   9.300  0.5652  0.1772 -1.0364
  895MOL0     C23402   2.363   0.164   9.288  0.4435  0.2606  0.5717
  895MOL0     O23403   2.423   0.049   9.308  0.4652  1.1579 -0.0563
  895MOL0     C23404   2.354  -0.070   9.335  0.2374 -0.4259  0.4057
  895MOL0     C23405   2.253  -0.059   9.428 -0.6203 -0.2114  0.4379
  895MOL0     C23406   2.198  -0.166   9.484 -0.1720 -0.4160  0.1736
  895MOL0     C23407   2.245  -0.288   9.456  0.0624 -0.2538 -0.0478
  895MOL0     O23408   2.176  -0.390   9.524 -0.3875 -0.1058 -0.1181
  895MOL0     C23409   2.196  -0.525   9.492  0.1070  0.3367  0.3720
  895MOL0     C23410   2.095  -0.536   9.380 -0.8942  0.2852 -0.3925
  895MOL0     C23411   2.090  -0.684   9.329 -0.2975  0.1483 -0.3785
  895MOL0     C23412   1.959  -0.696   9.245 -0.0477 -0.6820 -0.2330
  895MOL0     C23413   1.956  -0.826   9.162 -0.7479 -0.7390  0.1474
  895MOL0     C23414   1.935  -0.961   9.226  0.9161 -1.0404  0.1060
  895MOL0     C23415   2.069  -1.023   9.258 -0.7876  0.8732 -0.3102
  895MOL0     C23416   2.037  -1.163   9.326  0.3733  0.4003 -0.8058
  895MOL0    Cl23417   2.190  -1.220   9.393  0.0231 -0.0504  0.1943
  895MOL0     C23418   2.350  -0.310   9.366  0.0925 -0.6531 -0.1924
  895MOL0     C23419   2.408  -0.198   9.304 -0.1400 -0.9694  1.2331
  895MOL0     O23420   2.240   0.184   9.280  0.3551  0.0748 -0.1921
  895MOL0     C23421   2.579   0.256   9.246  0.1753 -0.0602 -0.2578
  895MOL0     C23422   2.675   0.360   9.258 -0.3336 -0.2713 -0.2592
  895MOL0     N23423   2.845   1.215   9.302  0.4314 -0.0174  0.4193
  895MOL0     N23424   2.756   1.296   9.342 -0.0356 -0.0913  0.3230
  895MOL0     C23425   2.643   2.069  10.137 -0.1315  0.3220 -0.2465
  895MOL0     C23426   2.651   2.152  10.252 -0.4936  0.0623 -0.7099
  895MOL0     C23427   2.529   2.235  10.685 -0.0860  0.2631  0.6415
  895MOL0     C23428   2.526   2.183  10.817 -0.1845 -0.1317 -0.3261
  895MOL0     C23429   2.524   2.260  10.935  0.6309  0.0431  0.3907
  895MOL0     C23430   2.517   2.395  10.921 -1.2989  0.4805  0.6958
  895MOL0     O23431   2.492   2.476  11.033 -0.5681  0.8063  0.0156
  895MOL0     C23432   2.472   2.620  11.045 -0.1323  0.0483  0.1797
  895MOL0     C23433   2.605   2.684  11.095 -0.1513 -0.6958  0.0436
  895MOL0     C23434   2.657   2.639  11.227  0.5790  0.7235 -1.1490
  895MOL0     C23435   2.558   2.670  11.346  0.7853 -0.1360 -0.1779
  895MOL0     C23436   2.633   2.650  11.467  0.2501 -0.2359 -0.4005
  895MOL0     C23437   2.707   2.636  11.558 -0.2834  0.4249  1.1287
  895MOL0     C23438   2.521   2.450  10.794  0.4008  0.4251 -0.7729
  895MOL0     C23439   2.532   2.375  10.678 -0.6326  0.1125 -0.5839
  895MOL0     C23440   2.517   2.450  10.552 -0.9549 -0.3490 -0.0551
  895MOL0     H23441   2.669   1.886  10.469 -0.3819 -0.7745 -0.9299
  895MOL0     H23442   2.627   1.761  10.259  0.5568 -0.1230 -3.3624
  895MOL0     H23443   2.547   1.677  10.004  1.1481  0.3237  0.8122
  895MOL0     H23444   2.721   1.688  10.049  2.8390 -1.0578 -2.8881
  895MOL0     H23445   2.593   1.735   9.779  2.1414  3.6982 -1.0021
  895MOL0     H23446   2.764   1.738   9.817 -1.8893  1.5030 -3.2397
  895MOL0     H23447   2.749   1.501   9.897  0.3731 -0.0897  0.0342
  895MOL0     H23448   2.588   1.488   9.850  0.4894 -0.6155  1.3140
  895MOL0     H23449   2.823   1.552   9.645  1.7707 -0.2998  2.2621
  895MOL0     H23450   2.757   1.396   9.679  0.6069  0.6847  0.4308
  895MOL0     H23451   2.694   1.522   9.459 -0.2769  1.6673 -0.0725
  895MOL0     H23452   2.583   1.609   9.557 -0.4095 -0.1394  0.4981
  895MOL0     H23453   2.597   1.305   9.547  1.3640  1.5509  0.3518
  895MOL0     H23454   2.471   1.409   9.613  2.0268 -1.1590  2.6259
  895MOL0     H23455   2.395   1.483   9.411  1.1332  0.4983  1.0652
  895MOL0     H23456   2.387   1.310   9.408 -0.6317  0.6115 -0.6418
  895MOL0     H23457   2.470   1.385   9.188 -3.8686  1.6564  2.9699
  895MOL0     H23458   2.591   1.484   9.270  1.8606 -1.1199  0.1258
  895MOL0     H23459   2.573   1.110   9.154  0.4197 -0.2584 -1.9706
  895MOL0     H23460   2.962   0.981   9.239  0.8961  1.7506 -0.5127
  895MOL0     H23461   2.868   0.973   9.080 -3.2229 -0.0743 -0.5801
  895MOL0     H23462   2.768   0.865   9.341 -1.1123 -0.1645  0.2780
  895MOL0     H23463   2.699   0.867   9.168  1.0123  0.6648 -1.5028
  895MOL0     H23464   2.905   0.762   9.091  2.3371  1.6563  0.0622
  895MOL0     H23465   2.962   0.735   9.257  0.7578  1.3753 -0.4629
  895MOL0     H23466   2.710   0.624   9.126  0.0741 -3.1987 -0.1003
  895MOL0     H23467   2.856   0.525   9.181 -1.7581 -3.2119  2.3491
  895MOL0     H23468   2.498   0.603   9.381  0.8671  0.4382 -4.8605
  895MOL0     H23469   2.228   0.470   9.364 -0.6788 -1.3045 -0.2794
  895MOL0     H23470   2.309   0.501   9.523  1.1279  0.4265 -0.8152
  895MOL0     H23471   2.249   0.341   9.478 -1.6052 -0.6933 -0.5496
  895MOL0     H23472   2.217   0.034   9.472  1.9201  0.7434  0.6207
  895MOL0     H23473   2.111  -0.159   9.548  0.0060  3.5577  0.2376
  895MOL0     H23474   2.297  -0.557   9.465  1.3080  1.0799  3.5951
  895MOL0     H23475   2.161  -0.593   9.570  0.3354 -0.8470 -0.5218
  895MOL0     H23476   1.996  -0.515   9.421 -0.5051 -0.7964  1.1929
  895MOL0     H23477   2.115  -0.475   9.291 -3.5291 -1.4939 -2.3492
  895MOL0     H23478   2.090  -0.754   9.413 -1.9736  1.0528  0.4366
  895MOL0     H23479   2.172  -0.697   9.258  1.2259  1.2381  1.1202
  895MOL0     H23480   1.963  -0.612   9.175  3.3570 -0.7665 -0.2914
  895MOL0     H23481   1.871  -0.686   9.309 -1.5076 -2.4716 -1.8057
  895MOL0     H23482   1.880  -0.808   9.085  0.2961 -1.4793 -1.0956
  895MOL0     H23483   2.054  -0.827   9.113 -0.5401  1.3203  0.4303
  895MOL0     H23484   1.892  -1.032   9.154  2.2298 -1.8111  0.0502
  895MOL0     H23485   1.877  -0.950   9.318  3.1957 -1.2801  1.6480
  895MOL0     H23486   2.108  -0.957   9.336  0.3049 -0.9395  0.7308
  895MOL0     H23487   2.130  -1.037   9.169 -1.8284 -0.4232 -0.8518
  895MOL0     H23488   1.998  -1.242   9.261  1.2655  0.5525 -1.5400
  895MOL0     H23489   1.972  -1.147   9.413  0.4328  0.5458 -0.7869
  895MOL0     H23490   2.401  -0.401   9.337  1.8723  0.6584 -1.3847
  895MOL0     H23491   2.504  -0.207   9.255 -0.2784  1.0270  0.5439
  895MOL0     H23492   2.610   0.156   9.217 -1.4745 -0.9659  0.9560
  895MOL0     H23493   2.772   0.333   9.219 -0.3365  2.1801 -2.2216
  895MOL0     H23494   2.660   2.118  10.041  0.0456 -0.8845 -0.8434
  895MOL0     H23495   2.636   2.259  10.246 -3.6169  0.0914  3.6020
  895MOL0     H23496   2.517   2.075  10.830 -2.2784  0.3220  3.7000
  895MOL0     H23497   2.529   2.223  11.037  0.8807 -1.6326 -0.1950
  895MOL0     H23498   2.425   2.662  10.956 -3.0380 -0.1160  1.5402
  895MOL0     H23499   2.400   2.648  11.122  1.3354  0.0702  1.6113
  895MOL0     H23500   2.590   2.792  11.102 -1.2547 -0.4630 -3.5925
  895MOL0     H23501   2.677   2.657  11.017 -0.0339  0.9083 -0.4348
  895MOL0     H23502   2.669   2.530  11.231  1.5758  0.8350 -0.4699
  895MOL0     H23503   2.759   2.676  11.244  0.3822  1.0654 -0.6581
  895MOL0     H23504   2.480   2.594  11.357  1.2491 -0.2303  3.2266
  895MOL0     H23505   2.505   2.763  11.322 -2.5155 -2.0029 -0.8412
  895MOL0     H23506   2.785   2.619  11.630  1.9487  1.6660 -0.8321
  895MOL0     H23507   2.507   2.556  10.780 -2.1390  0.3690  0.7086
  895MOL0     H23508   2.510   2.559  10.563 -1.4273 -0.0751 -2.4673
  895MOL0     H23509   2.605   2.442  10.487 -2.1981  0.7705 -1.9786
  895MOL0     H23510   2.425   2.420  10.501  0.6285 -0.3464 -3.1642
  896MOL0     O23511   9.144   7.245   8.925  0.4950 -0.6888  0.0267
  896MOL0     C23512   9.228   7.189   8.992 -0.3068  0.1914  0.8022
  896MOL0     O23513   9.201   7.125   9.108 -0.5615  0.1807 -0.0272
  896MOL0     C23514   9.075   7.132   9.163 -0.0106 -0.3061 -1.0624
  896MOL0     C23515   8.985   7.028   9.170  0.5129 -0.0880 -0.1023
  896MOL0     C23516   8.866   7.037   9.240  0.1276  0.2040 -0.4664
  896MOL0     C23517   8.818   7.149   9.303  0.1767 -0.3282  0.3611
  896MOL0     O23518   8.693   7.165   9.358  0.3999  0.3921 -0.0481
  896MOL0     C23519   8.616   7.050   9.367 -0.0018  0.0497 -0.0952
  896MOL0     C23520   8.484   7.072   9.442  0.9780 -0.5712  0.6996
  896MOL0     C23521   8.503   7.114   9.590 -0.2452 -0.8778 -0.4260
  896MOL0     C23522   8.369   7.130   9.655 -0.5842  0.2149 -0.1371
  896MOL0     C23523   8.386   7.173   9.804  1.2223 -0.4251 -0.6130
  896MOL0     C23524   8.251   7.137   9.870 -0.1758 -0.2323 -0.1897
  896MOL0     C23525   8.263   7.189  10.017  1.7506  0.4495 -0.2387
  896MOL0     C23526   8.125   7.184  10.086  0.3087 -0.1654 -1.1964
  896MOL0     N23527   8.081   7.058  10.152  0.0014  0.4832 -0.2146
  896MOL0     C23528   8.054   6.938  10.092  0.3122  0.5252  0.3763
  896MOL0     C23529   7.978   6.863  10.176 -1.5870  0.3920 -0.1224
  896MOL0     C23530   7.923   6.729  10.150 -0.5242 -0.3156  0.1123
  896MOL0     C23531   7.906   6.647  10.280  0.0523  1.2047 -0.7310
  896MOL0     C23532   7.886   6.498  10.255 -0.5227 -0.2249  0.8548
  896MOL0     C23533   7.958   6.392  10.337 -0.4115 -0.0636  1.0728
  896MOL0     O23534   8.097   6.382  10.288 -1.0639 -0.5116 -0.2325
  896MOL0     C23535   8.196   6.336  10.370 -0.1519 -0.9530  0.3518
  896MOL0     C23536   8.162   6.291  10.501  0.3802  0.3999 -0.3192
  896MOL0     C23537   8.262   6.226  10.574  0.8476 -0.0159  0.1108
  896MOL0     C23538   8.216   6.165  10.703  0.4275  0.3025  0.3172
  896MOL0     C23539   8.390   6.199  10.519 -0.6290 -1.0079  0.7482
  896MOL0     C23540   8.497   6.126  10.586 -0.3650  0.0754  0.5841
  896MOL0     O23541   8.562   6.032  10.511 -0.5781  0.9956  0.3886
  896MOL0     C23542   8.661   5.950  10.556 -0.4753  0.0650  0.3142
  896MOL0     C23543   8.775   5.932  10.465  1.5127 -0.2946 -0.3317
  896MOL0     C23544   8.885   5.857  10.510  0.0026 -0.1630  0.2416
  896MOL0     C23545   8.889   5.800  10.643 -0.3052  0.0854 -0.1607
  896MOL0     O23546   8.993   5.731  10.701  0.2507 -0.2975 -0.4158
  896MOL0     C23547   9.106   5.696  10.622 -0.0560  0.1135  0.0815
  896MOL0     C23548   9.200   5.611  10.707 -0.4844  0.4466  0.6599
  896MOL0     C23549   9.245   5.664  10.830  0.6111 -1.0539 -0.2726
  896MOL0     C23550   9.311   5.549  10.920  0.2538  0.6703 -0.4952
  896MOL0     C23551   9.358   5.603  11.062  0.4419 -0.2864  0.5098
  896MOL0     C23552   9.395   5.493  11.159 -0.1716 -0.0490 -0.4774
  896MOL0     C23553   9.450   5.531  11.290  0.7528  0.3975 -0.0552
  896MOL0     C23554   9.389   5.452  11.403  0.1120  0.4109 -0.2196
  896MOL0    Cl23555   9.428   5.280  11.392  0.3694  0.3183 -0.2816
  896MOL0     C23556   8.777   5.820  10.727 -0.1800 -0.5515 -0.2307
  896MOL0     C23557   8.668   5.897  10.684 -0.6019 -0.1152  0.0384
  896MOL0     O23558   8.519   6.151  10.706 -0.4694  1.3720 -0.0309
  896MOL0     C23559   8.418   6.250  10.392  0.4867 -0.8686  1.0379
  896MOL0     C23560   8.321   6.329  10.320 -0.5777  0.1344 -0.1409
  896MOL0     N23561   7.977   6.930  10.304 -1.4097 -0.8965  1.2334
  896MOL0     N23562   8.047   7.043  10.285 -0.5525 -0.3892 -0.1815
  896MOL0     C23563   8.900   7.257   9.288 -0.6864 -0.0460 -0.1567
  896MOL0     C23564   9.025   7.253   9.225  0.0835 -0.1041  0.6727
  896MOL0     C23565   9.366   7.184   8.943 -0.1816 -0.8723  0.4029
  896MOL0     C23566   9.388   7.164   8.807  1.8554  0.1637  0.0737
  896MOL0     C23567   9.523   7.153   8.771 -0.7270  0.3873  0.9557
  896MOL0     C23568   9.630   7.174   8.850 -0.4309  1.1820 -0.1123
  896MOL0     O23569   9.757   7.138   8.793  0.7648  0.1252 -0.2536
  896MOL0     C23570   9.868   7.227   8.829  0.2745  0.4386  0.4335
  896MOL0     C23571   9.907   7.296   8.707  0.0468 -0.1773 -0.1308
  896MOL0     C23572  10.031   7.388   8.738 -0.6106  0.7346 -0.0692
  896MOL0     C23573   9.994   7.501   8.832  0.6509 -0.7771 -0.5117
  896MOL0     C23574   9.912   7.602   8.765 -0.6733 -1.1036 -0.4173
  896MOL0     C23575   9.858   7.698   8.719 -0.5639 -0.4130 -0.3414
  896MOL0     C23576   9.603   7.209   8.986  0.3107 -0.8694 -0.8303
  896MOL0     C23577   9.472   7.210   9.035 -0.1642 -0.3658 -0.3131
  896MOL0     C23578   9.457   7.239   9.189 -0.2676  0.3194  0.7052
  896MOL0     H23579   9.018   6.931   9.136 -3.1322 -1.4597 -0.1510
  896MOL0     H23580   8.819   6.940   9.250  0.3356  0.2480  1.1918
  896MOL0     H23581   8.665   6.968   9.421 -0.7982 -0.2920  0.1251
  896MOL0     H23582   8.611   6.997   9.271  4.6408  0.3380 -0.7554
  896MOL0     H23583   8.418   7.140   9.388  2.4472  2.1667  2.1098
  896MOL0     H23584   8.436   6.974   9.438  1.2303 -0.6491 -1.2669
  896MOL0     H23585   8.565   7.053   9.656 -0.5593 -1.4112 -0.6111
  896MOL0     H23586   8.551   7.211   9.594 -0.1261 -0.9666  0.3238
  896MOL0     H23587   8.312   7.208   9.602 -1.7169 -1.1367 -0.9793
  896MOL0     H23588   8.306   7.042   9.640  0.2659 -0.1280 -2.0483
  896MOL0     H23589   8.411   7.279   9.813 -3.4356  0.7191  2.0182
  896MOL0     H23590   8.466   7.112   9.848 -0.0261 -1.0126  0.9222
  896MOL0     H23591   8.169   7.181   9.812  0.6471  3.0912  0.9183
  896MOL0     H23592   8.234   7.029   9.867 -0.0338 -0.2420 -0.8491
  896MOL0     H23593   8.310   7.287  10.023  0.1374  1.3587 -1.4681
  896MOL0     H23594   8.326   7.116  10.069  0.4120 -0.4227  0.2248
  896MOL0     H23595   8.111   7.250  10.173 -1.7850 -3.1765  0.9384
  896MOL0     H23596   8.052   7.230  10.019 -0.1909  3.6375  1.5928
  896MOL0     H23597   8.075   6.910   9.989  0.4287 -2.5733  1.1462
  896MOL0     H23598   7.995   6.669  10.094 -0.2089  1.5242 -1.5802
  896MOL0     H23599   7.824   6.743  10.104 -0.8153  0.9908  1.0599
  896MOL0     H23600   7.987   6.658  10.353 -0.8820  0.2421  0.4997
  896MOL0     H23601   7.818   6.683  10.334  0.3410 -3.0824  3.2676
  896MOL0     H23602   7.778   6.483  10.263 -0.9438  0.0548 -2.6220
  896MOL0     H23603   7.906   6.484  10.148  0.5933  0.7139  0.9245
  896MOL0     H23604   7.958   6.419  10.443  2.7923 -1.3210  1.4970
  896MOL0     H23605   7.898   6.300  10.338 -0.4506 -0.0600  2.7361
  896MOL0     H23606   8.063   6.283  10.545 -0.6779  0.1944 -2.5861
  896MOL0     H23607   8.107   6.158  10.703  0.3761  0.6754 -1.2909
  896MOL0     H23608   8.249   6.230  10.784  0.4513  0.4555  0.1832
  896MOL0     H23609   8.255   6.066  10.731  0.9915  0.5186  0.2998
  896MOL0     H23610   8.768   5.969  10.364 -0.9277 -0.5385 -0.3033
  896MOL0     H23611   8.971   5.838  10.447  0.0239 -0.2542  0.2989
  896MOL0     H23612   9.072   5.641  10.534 -3.3191  1.1414  0.5819
  896MOL0     H23613   9.158   5.787  10.590  0.3038 -0.7719 -1.9839
  896MOL0     H23614   9.150   5.515  10.723  0.1939  0.0486  0.3877
  896MOL0     H23615   9.294   5.587  10.658 -0.5324 -1.6130  1.4729
  896MOL0     H23616   9.167   5.708  10.892  4.1132  2.6235  2.0549
  896MOL0     H23617   9.322   5.741  10.815 -0.4944  0.3460  1.0527
  896MOL0     H23618   9.396   5.514  10.860  1.8839  2.4341  0.6752
  896MOL0     H23619   9.236   5.470  10.927 -0.9079  1.6678 -1.2812
  896MOL0     H23620   9.451   5.659  11.046  0.2136  0.2513  1.0203
  896MOL0     H23621   9.283   5.676  11.096 -0.0618 -0.5076 -0.1132
  896MOL0     H23622   9.474   5.443  11.103  0.0988 -0.6375  0.4187
  896MOL0     H23623   9.310   5.425  11.170 -0.2683  0.2523  0.7904
  896MOL0     H23624   9.425   5.636  11.310 -1.0903  0.2414 -1.3980
  896MOL0     H23625   9.558   5.512  11.292  0.6539 -0.4155 -1.5818
  896MOL0     H23626   9.281   5.462  11.409  0.2975  1.8662  1.5047
  896MOL0     H23627   9.425   5.487  11.500 -4.1869 -0.9219  2.1264
  896MOL0     H23628   8.766   5.766  10.821  0.1158  1.6817  1.1686
  896MOL0     H23629   8.584   5.922  10.748 -1.1777  2.0499 -1.4491
  896MOL0     H23630   8.519   6.234  10.354  1.6395  1.5460  2.7547
  896MOL0     H23631   8.328   6.358  10.215  0.4925 -0.0878 -0.1423
  896MOL0     H23632   8.878   7.359   9.318 -1.3562 -0.0186 -0.7352
  896MOL0     H23633   9.089   7.341   9.225 -1.7012  1.3908  4.0183
  896MOL0     H23634   9.313   7.150   8.729  0.9798  1.5725  0.6253
  896MOL0     H23635   9.561   7.143   8.670  3.0211 -2.1629  2.3861
  896MOL0     H23636   9.840   7.302   8.904  2.0187  1.5551  0.0184
  896MOL0     H23637   9.953   7.171   8.870 -0.1565 -0.0793  0.6254
  896MOL0     H23638   9.826   7.346   8.653  0.0808 -0.3154 -0.3104
  896MOL0     H23639   9.951   7.220   8.642  1.3539  0.5982 -0.1914
  896MOL0     H23640  10.106   7.331   8.792 -0.0966  0.1433 -1.3672
  896MOL0     H23641  10.079   7.420   8.645  0.0264  1.9047  0.6401
  896MOL0     H23642  10.092   7.549   8.844  1.8628 -2.7620 -1.8898
  896MOL0     H23643   9.940   7.466   8.920 -1.3420 -0.1728 -1.4245
  896MOL0     H23644   9.811   7.786   8.681 -2.2319 -0.2829  1.8139
  896MOL0     H23645   9.690   7.204   9.050 -1.1022  1.1705  1.4256
  896MOL0     H23646   9.369   7.301   9.206 -0.3707  0.7163 -1.1395
  896MOL0     H23647   9.449   7.143   9.242 -0.0048  0.4914  1.0598
  896MOL0     H23648   9.545   7.284   9.236 -0.2105 -1.7341  2.7855
  897MOL0     O23649   3.633  10.211   6.347  0.2369  0.4496 -0.5860
  897MOL0     C23650   3.725  10.150   6.289  0.9547 -1.1541 -0.6667
  897MOL0     O23651   3.802  10.198   6.191  0.2783  0.1545  0.2171
  897MOL0     C23652   3.818  10.332   6.188  0.1252 -0.4267  1.0937
  897MOL0     C23653   3.731  10.431   6.128 -0.7425  0.3695 -0.2321
  897MOL0     C23654   3.761  10.565   6.134  0.3613 -0.1856  0.2504
  897MOL0     C23655   3.876  10.602   6.188 -0.1981  0.2738 -0.5292
  897MOL0     O23656   3.940  10.734   6.183 -0.0896  0.1385 -0.5631
  897MOL0     C23657   3.870  10.851   6.135 -0.0339 -0.2954  0.7758
  897MOL0     C23658   3.898  10.851   5.983 -0.4615 -0.1281 -0.2977
  897MOL0     C23659   3.843  10.973   5.915 -0.0201  0.4110 -0.2831
  897MOL0     C23660   3.860  10.967   5.760  0.2609 -0.6062  0.0073
  897MOL0     C23661   3.802  10.838   5.698 -0.3481  0.6988  0.3385
  897MOL0     C23662   3.654  10.814   5.744  0.4020 -0.2941 -0.7366
  897MOL0     C23663   3.602  10.681   5.671  0.5270 -0.2656  0.5638
  897MOL0     C23664   3.449  10.643   5.703 -0.6342 -0.5463  0.0259
  897MOL0     N23665   3.360  10.759   5.686  0.3378 -0.3881  0.3704
  897MOL0     C23666   3.351  10.842   5.573 -0.6390  0.2822 -0.0946
  897MOL0     C23667   3.228  10.906   5.586  0.0294 -0.5686  0.3501
  897MOL0     C23668   3.159  11.004   5.495  0.4220  0.3253  0.6398
  897MOL0     C23669   3.239  11.110   5.425 -0.2945  0.0759  0.1862
  897MOL0     C23670   3.155  11.163   5.306 -0.3573 -0.0598 -0.0750
  897MOL0     C23671   3.208  11.277   5.231  0.1844 -0.3871 -0.6252
  897MOL0     O23672   3.328  11.231   5.169 -0.1681  0.2128 -0.0225
  897MOL0     C23673   3.324  11.152   5.053  0.5083 -0.3023  0.1009
  897MOL0     C23674   3.436  11.144   4.984 -0.3023  0.0394  1.3474
  897MOL0     C23675   3.449  11.070   4.862  0.4299  0.4482  0.5303
  897MOL0     C23676   3.588  11.067   4.800  0.9740 -0.5606 -0.5507
  897MOL0     C23677   3.333  10.996   4.807 -0.8120 -0.7122 -0.7408
  897MOL0     C23678   3.327  10.943   4.679 -0.9269  0.0815 -0.4756
  897MOL0     O23679   3.376  11.028   4.576 -0.4498  0.2582  0.1336
  897MOL0     C23680   3.395  10.983   4.447  0.1337 -0.5008  0.3135
  897MOL0     C23681   3.377  10.853   4.398  0.2452 -0.1992  0.3954
  897MOL0     C23682   3.407  10.830   4.261  0.3573  0.4153  0.0144
  897MOL0     C23683   3.459  10.931   4.186  0.9110 -0.3975 -0.2616
  897MOL0     O23684   3.486  10.910   4.060 -0.1283 -0.7506  0.6864
  897MOL0     C23685   3.595  10.982   3.999  0.0765  0.1775  0.7414
  897MOL0     C23686   3.724  10.964   4.082  0.4738 -0.0581  0.1320
  897MOL0     C23687   3.854  10.950   4.003 -0.0823  0.8730 -0.0515
  897MOL0     C23688   3.971  10.984   4.104  1.0021  0.4894 -0.8371
  897MOL0     C23689   4.112  10.953   4.050 -0.5761  0.8585  0.1488
  897MOL0     C23690   4.140  11.050   3.933 -0.8309 -0.4458  0.2942
  897MOL0     C23691   4.266  11.003   3.857 -0.7698  0.7686  0.0610
  897MOL0     C23692   4.255  11.048   3.714 -0.6740 -0.6739 -0.1906
  897MOL0    Cl23693   4.157  10.930   3.611 -0.7700  0.3198 -0.1583
  897MOL0     C23694   3.461  11.069   4.233 -0.1604  0.7006  0.1615
  897MOL0     C23695   3.429  11.084   4.365  0.2097 -0.3583 -0.4305
  897MOL0     O23696   3.278  10.834   4.661  0.2472 -0.0408 -0.7614
  897MOL0     C23697   3.213  11.012   4.883 -0.2166  0.7460  0.0216
  897MOL0     C23698   3.209  11.086   5.000 -0.6735 -0.1635  0.3220
  897MOL0     N23699   3.169  10.866   5.705 -0.4836 -0.3011 -0.0248
  897MOL0     N23700   3.241  10.767   5.757 -0.3975 -0.1286 -0.0875
  897MOL0     C23701   3.970  10.511   6.231 -0.2319 -0.2571  0.5250
  897MOL0     C23702   3.951  10.376   6.223  0.6819  0.1932 -0.0610
  897MOL0     C23703   3.751  10.005   6.330 -0.6367 -0.4725 -0.0707
  897MOL0     C23704   3.833   9.927   6.251  0.7912 -0.3706  0.1890
  897MOL0     C23705   3.858   9.796   6.281 -0.4876  0.1092  0.4248
  897MOL0     C23706   3.808   9.725   6.390 -0.2323  0.0993 -0.5561
  897MOL0     O23707   3.833   9.589   6.402  0.4533  0.6496 -0.1403
  897MOL0     C23708   3.839   9.536   6.538 -0.2286 -0.4515 -0.1931
  897MOL0     C23709   3.976   9.561   6.592 -0.3400  0.3462 -0.8766
  897MOL0     C23710   3.996   9.663   6.704 -0.1586 -0.1319  0.0301
  897MOL0     C23711   4.137   9.657   6.757  0.8725 -0.4423 -0.5095
  897MOL0     C23712   4.232   9.740   6.685  0.2156 -0.2585  0.0090
  897MOL0     C23713   4.304   9.817   6.632 -0.0480  0.4848  0.2426
  897MOL0     C23714   3.720   9.803   6.469 -0.3536 -0.7285 -0.9360
  897MOL0     C23715   3.696   9.938   6.447 -0.5699  0.0390 -0.1809
  897MOL0     C23716   3.606   9.997   6.544 -0.1418 -0.2715 -0.6895
  897MOL0     H23717   3.638  10.400   6.083 -0.7252  0.2880 -0.2125
  897MOL0     H23718   3.684  10.635   6.102 -0.3822 -0.4385  1.4465
  897MOL0     H23719   3.920  10.939   6.177  0.5922 -0.5790  0.6352
  897MOL0     H23720   3.764  10.850   6.164 -0.7149  1.4987 -1.3372
  897MOL0     H23721   4.007  10.853   5.975 -0.3487 -1.5341  0.4512
  897MOL0     H23722   3.868  10.756   5.937 -1.9519 -0.1108  0.5656
  897MOL0     H23723   3.737  10.980   5.942  0.0448  1.9909 -0.3777
  897MOL0     H23724   3.895  11.054   5.966  0.1925  0.0137  0.1293
  897MOL0     H23725   3.815  11.053   5.709 -2.3525 -1.6939  0.3474
  897MOL0     H23726   3.967  10.969   5.738 -0.1370 -0.1733 -2.0997
  897MOL0     H23727   3.871  10.756   5.719 -0.8933 -0.0956 -0.8733
  897MOL0     H23728   3.800  10.839   5.589 -1.4067 -0.8302  0.3103
  897MOL0     H23729   3.651  10.810   5.853  0.6149 -0.8460 -0.7519
  897MOL0     H23730   3.593  10.901   5.717 -0.8816 -0.3698  1.6466
  897MOL0     H23731   3.671  10.602   5.700  3.5865  2.6328  1.8684
  897MOL0     H23732   3.615  10.679   5.563  0.2629  1.2015  0.4713
  897MOL0     H23733   3.412  10.560   5.641 -2.4361  0.6034 -0.5128
  897MOL0     H23734   3.435  10.619   5.809 -0.3594 -0.7018  0.0266
  897MOL0     H23735   3.415  10.855   5.486 -0.8274  0.7656 -0.1609
  897MOL0     H23736   3.082  11.065   5.544  1.8992  0.8731  2.3918
  897MOL0     H23737   3.102  10.945   5.423  1.0324  1.1296 -0.5390
  897MOL0     H23738   3.268  11.191   5.493  1.7275 -0.3449 -0.1148
  897MOL0     H23739   3.337  11.071   5.395  0.5686  0.0867  2.8049
  897MOL0     H23740   3.126  11.077   5.245  2.3046 -1.9708  1.1473
  897MOL0     H23741   3.061  11.196   5.352 -0.7612  1.4519 -1.8510
  897MOL0     H23742   3.141  11.305   5.150 -1.1399 -2.3051 -0.2614
  897MOL0     H23743   3.227  11.360   5.300  0.9149 -0.9840 -0.0810
  897MOL0     H23744   3.524  11.200   5.011  2.6244 -3.7863  0.5575
  897MOL0     H23745   3.592  10.996   4.717  1.3144  0.1546 -1.1533
  897MOL0     H23746   3.673  11.046   4.866  2.5991  0.5072 -2.2224
  897MOL0     H23747   3.606  11.161   4.748  3.0563 -0.6951 -0.1475
  897MOL0     H23748   3.370  10.764   4.459 -0.6414 -2.0886 -2.2731
  897MOL0     H23749   3.413  10.726   4.230  0.0532  0.3515  0.1676
  897MOL0     H23750   3.610  10.938   3.900 -1.2820  1.8649 -0.2618
  897MOL0     H23751   3.582  11.089   3.981 -1.7039 -0.4556 -2.6131
  897MOL0     H23752   3.727  11.049   4.151  1.7701  0.5388 -0.6166
  897MOL0     H23753   3.714  10.871   4.139  3.9273 -0.6086  0.0876
  897MOL0     H23754   3.864  11.015   3.915  2.9022 -1.5752 -1.6950
  897MOL0     H23755   3.877  10.848   3.972  1.2172  1.2487 -0.3959
  897MOL0     H23756   3.971  10.920   4.192  0.3787 -0.3929 -1.4574
  897MOL0     H23757   3.971  11.090   4.132 -2.1299  0.0210  1.3910
  897MOL0     H23758   4.183  10.954   4.134  1.2193  0.3065 -1.2869
  897MOL0     H23759   4.115  10.850   4.011  2.3958  1.2475 -0.9167
  897MOL0     H23760   4.139  11.150   3.978 -0.9102 -0.4646  0.3335
  897MOL0     H23761   4.065  11.027   3.857  1.5098 -1.4409 -1.8632
  897MOL0     H23762   4.282  10.895   3.852 -0.0011  0.8602  0.3711
  897MOL0     H23763   4.364  11.041   3.890  0.1530 -0.1630 -1.4864
  897MOL0     H23764   4.356  11.055   3.672 -1.0302  0.8436 -0.8855
  897MOL0     H23765   4.216  11.151   3.705  0.5924  0.2050  2.9877
  897MOL0     H23766   3.480  11.156   4.172  2.4841  0.7341  0.8777
  897MOL0     H23767   3.451  11.180   4.410 -4.2814  0.7956 -0.2647
  897MOL0     H23768   3.120  10.970   4.847  0.2538  2.1686 -3.2352
  897MOL0     H23769   3.110  11.104   5.041 -1.2537  1.6631 -1.6792
  897MOL0     H23770   4.058  10.559   6.272 -0.1881 -0.2143  0.3834
  897MOL0     H23771   4.036  10.316   6.253  0.1388 -0.9066 -0.6338
  897MOL0     H23772   3.881   9.976   6.166 -1.5358  2.0694  0.1441
  897MOL0     H23773   3.908   9.727   6.213 -0.7240 -1.3448  1.6609
  897MOL0     H23774   3.754   9.565   6.600  0.3753  0.8898  0.0431
  897MOL0     H23775   3.827   9.427   6.540  2.9205 -0.9561 -1.4600
  897MOL0     H23776   4.042   9.582   6.507  0.5160 -1.2962 -0.6667
  897MOL0     H23777   4.017   9.469   6.635 -0.9281  1.0289  1.2113
  897MOL0     H23778   3.969   9.764   6.670  2.7762  0.8468  0.3588
  897MOL0     H23779   3.943   9.628   6.792  1.0792 -2.1331  0.0296
  897MOL0     H23780   4.183   9.558   6.744  1.4426 -0.0416 -1.7234
  897MOL0     H23781   4.139   9.667   6.866 -3.9372 -0.2842 -0.2405
  897MOL0     H23782   4.379   9.886   6.601  0.3902 -1.0150 -2.3607
  897MOL0     H23783   3.671   9.766   6.559  0.0201  4.4294  1.8041
  897MOL0     H23784   3.648  10.095   6.571  0.8565 -0.6944 -0.6415
  897MOL0     H23785   3.508   9.995   6.497  0.3482  1.5774 -1.9121
  897MOL0     H23786   3.595   9.942   6.638 -0.1564 -0.3489 -0.7373
  898MOL0     O23787   7.359   4.882  10.761  0.5514  0.5048 -0.1681
  898MOL0     C23788   7.341   4.769  10.799  0.6579  0.1194  0.3315
  898MOL0     O23789   7.258   4.737  10.907 -0.7044 -0.1563 -0.0200
  898MOL0     C23790   7.239   4.815  11.020 -0.3691 -1.0850  0.1170
  898MOL0     C23791   7.345   4.888  11.075 -0.7090 -0.7826  0.9117
  898MOL0     C23792   7.312   4.974  11.188 -0.4679 -0.0621  0.0498
  898MOL0     C23793   7.176   4.987  11.238 -1.0187  1.1362 -0.1356
  898MOL0     O23794   7.140   5.076  11.335 -0.0872  0.4898  0.7746
  898MOL0     C23795   7.194   5.071  11.471  0.3130  1.5601 -0.4742
  898MOL0     C23796   7.127   5.172  11.573  0.8168 -0.8389  0.1698
  898MOL0     C23797   7.080   5.294  11.511  0.0336  0.1522  0.4423
  898MOL0     C23798   7.192   5.381  11.467  0.9146  0.1794 -0.2951
  898MOL0     C23799   7.124   5.519  11.463  0.3600  0.4915  0.6471
  898MOL0     C23800   7.220   5.628  11.411  0.0879 -0.3380  0.3002
  898MOL0     C23801   7.150   5.771  11.380 -0.2205  0.4250 -0.0943
  898MOL0     C23802   7.254   5.865  11.312  0.4205  0.5252 -0.4156
  898MOL0     N23803   7.343   5.921  11.409 -0.6004 -0.0852  0.1906
  898MOL0     C23804   7.313   5.999  11.526  0.4484  0.0484 -0.3052
  898MOL0     C23805   7.429   6.026  11.590  0.2873 -0.4488 -1.0817
  898MOL0     C23806   7.433   6.086  11.730 -0.2120  0.1846 -0.6258
  898MOL0     C23807   7.442   5.973  11.829 -0.3273 -0.2748  0.7033
  898MOL0     C23808   7.422   6.007  11.981  0.0368 -1.0259  0.3218
  898MOL0     C23809   7.528   6.116  12.042  0.5583 -0.5952 -0.4128
  898MOL0     O23810   7.518   6.251  11.996  0.5532  0.2357  0.4232
  898MOL0     C23811   7.441   6.339  12.062  0.0301 -0.6337  0.1568
  898MOL0     C23812   7.451   6.471  12.037  0.4547 -0.7870 -0.1832
  898MOL0     C23813   7.362   6.567  12.103  0.0392 -0.1265  0.9926
  898MOL0     C23814   7.362   6.707  12.054 -0.5708 -0.7140  0.8466
  898MOL0     C23815   7.264   6.525  12.196  0.1484  0.1011  0.7829
  898MOL0     C23816   7.160   6.616  12.264 -0.1710 -1.5170 -0.2125
  898MOL0     O23817   7.196   6.750  12.277  0.4365 -0.3234  0.0447
  898MOL0     C23818   7.129   6.828  12.374 -0.7303  0.1868 -0.5470
  898MOL0     C23819   7.203   6.908  12.464 -0.2219 -0.8810  0.2634
  898MOL0     C23820   7.144   6.985  12.571  0.5768  0.4994 -0.1464
  898MOL0     C23821   7.005   6.989  12.577  0.0806 -0.0214 -0.7748
  898MOL0     O23822   6.950   7.067  12.679  0.2644 -0.0161  0.1533
  898MOL0     C23823   6.846   7.006  12.765 -0.6329  1.0251  1.1754
  898MOL0     C23824   6.741   7.100  12.810  0.0474  0.4279  0.0585
  898MOL0     C23825   6.639   7.047  12.919 -0.3255 -0.5691  0.4226
  898MOL0     C23826   6.577   7.170  12.980  0.2210 -0.3424  0.4060
  898MOL0     C23827   6.453   7.145  13.065  0.1180  0.4792  0.2871
  898MOL0     C23828   6.395   7.279  13.107 -0.3280  0.0104  0.2161
  898MOL0     C23829   6.251   7.272  13.180 -0.2366 -0.2779  0.1236
  898MOL0     C23830   6.197   7.414  13.193 -0.0965  0.4172  0.7358
  898MOL0    Cl23831   6.060   7.394  13.295  0.0131  0.5488 -0.1879
  898MOL0     C23832   6.933   6.917  12.487 -0.2807  0.2772 -0.5515
  898MOL0     C23833   6.993   6.841  12.381  0.4800 -0.7041 -1.3198
  898MOL0     O23834   7.055   6.566  12.310 -0.1689  0.0188  0.0316
  898MOL0     C23835   7.254   6.394  12.215 -0.4537 -0.4102 -1.1631
  898MOL0     C23836   7.338   6.307  12.149 -0.2020  0.2451  0.0656
  898MOL0     N23837   7.528   5.958  11.523  0.9561  0.4257  0.1255
  898MOL0     N23838   7.471   5.902  11.418  0.6342 -0.3471  0.1492
  898MOL0     C23839   7.074   4.911  11.187  0.3959  0.3220 -0.0768
  898MOL0     C23840   7.105   4.828  11.080 -0.2412  0.7229 -0.2049
  898MOL0     C23841   7.398   4.663  10.718  0.1740 -0.5366  1.1048
  898MOL0     C23842   7.326   4.621  10.604 -0.3315 -1.0272  0.1244
  898MOL0     C23843   7.368   4.506  10.540  0.0407  0.1839  0.1887
  898MOL0     C23844   7.477   4.436  10.585 -0.0750  0.2218  0.1733
  898MOL0     O23845   7.507   4.312  10.542 -0.4735 -0.3821  0.4954
  898MOL0     C23846   7.575   4.291  10.417  0.0150  0.2989 -0.3497
  898MOL0     C23847   7.487   4.297  10.297 -0.9035 -0.3209  0.2720
  898MOL0     C23848   7.378   4.183  10.296  0.1464 -1.2185  0.7445
  898MOL0     C23849   7.431   4.035  10.281 -0.3163  1.2965 -0.1669
  898MOL0     C23850   7.535   4.023  10.172  0.9694 -0.3092 -1.4178
  898MOL0     C23851   7.621   4.037  10.092 -0.0626 -0.1095  1.2140
  898MOL0     C23852   7.547   4.483  10.687  0.0431  1.0180  0.0991
  898MOL0     C23853   7.511   4.591  10.760 -0.1584 -0.2499  1.0617
  898MOL0     C23854   7.601   4.643  10.879  0.3526  0.3817  0.3199
  898MOL0     H23855   7.449   4.866  11.055 -0.3830  0.8900  0.6079
  898MOL0     H23856   7.384   5.035  11.242 -0.4089  0.9540 -1.1338
  898MOL0     H23857   7.300   5.099  11.468  1.0446 -0.7600  0.8876
  898MOL0     H23858   7.191   4.970  11.515 -0.0536  2.4957  1.8003
  898MOL0     H23859   7.033   5.127  11.606 -0.1626  0.4310 -0.7888
  898MOL0     H23860   7.189   5.173  11.664  0.5720 -3.6881  0.4662
  898MOL0     H23861   7.023   5.271  11.420 -0.2026  0.4653  0.5058
  898MOL0     H23862   7.015   5.350  11.579  0.7327  3.5107 -1.4129
  898MOL0     H23863   7.288   5.382  11.519  0.7870 -0.2556 -0.0502
  898MOL0     H23864   7.231   5.364  11.366  0.7002  2.8571 -0.9185
  898MOL0     H23865   7.085   5.549  11.561 -3.2369  2.7498 -1.2438
  898MOL0     H23866   7.035   5.513  11.399  0.6728  1.4493  0.1070
  898MOL0     H23867   7.295   5.637  11.490 -0.9294 -2.9224  1.6871
  898MOL0     H23868   7.269   5.585  11.323 -0.4591  0.8643 -0.6117
  898MOL0     H23869   7.103   5.817  11.467  3.9190 -2.2523  4.0108
  898MOL0     H23870   7.072   5.745  11.307 -1.5917 -1.4206  1.9145
  898MOL0     H23871   7.307   5.811  11.233  0.6827  1.7641 -1.1086
  898MOL0     H23872   7.210   5.955  11.267 -2.7630 -0.1425  1.0602
  898MOL0     H23873   7.218   6.044  11.553  0.7979  1.6343 -1.5636
  898MOL0     H23874   7.341   6.142  11.750 -2.1589 -2.8676 -0.3846
  898MOL0     H23875   7.527   6.139  11.749 -0.3629 -0.0864  1.0821
  898MOL0     H23876   7.358   5.908  11.802 -1.3545  1.4629 -0.4667
  898MOL0     H23877   7.535   5.918  11.811 -1.2763 -2.1050  1.1580
  898MOL0     H23878   7.321   6.050  11.984  0.7691  0.8919 -1.0015
  898MOL0     H23879   7.421   5.912  12.035 -3.2201 -0.8228  0.8187
  898MOL0     H23880   7.515   6.104  12.150  2.8564  1.2481  0.1287
  898MOL0     H23881   7.625   6.069  12.025  0.8859 -0.8903  1.9688
  898MOL0     H23882   7.518   6.515  11.963  1.6207  0.6904  1.6653
  898MOL0     H23883   7.404   6.757  12.142 -0.7199 -1.3709  1.3027
  898MOL0     H23884   7.266   6.755  12.032  0.6088  0.1929 -3.0179
  898MOL0     H23885   7.441   6.725  11.981 -0.2043 -0.3246  1.3257
  898MOL0     H23886   7.311   6.910  12.451  0.0695 -0.9025  2.2831
  898MOL0     H23887   7.209   7.035  12.641  0.3673 -1.2532  1.3927
  898MOL0     H23888   6.813   6.919  12.707  1.0169  0.6810  0.6965
  898MOL0     H23889   6.892   6.961  12.854 -1.9552  0.4077  1.5675
  898MOL0     H23890   6.793   7.190  12.844  0.5982  1.6526 -3.5889
  898MOL0     H23891   6.683   7.120  12.720  2.4226 -2.0503 -2.2101
  898MOL0     H23892   6.689   6.979  12.989 -0.3493 -2.2207 -1.1007
  898MOL0     H23893   6.573   6.974  12.871  1.2493 -4.5466  3.6713
  898MOL0     H23894   6.551   7.245  12.904  1.4822 -1.0515 -0.7714
  898MOL0     H23895   6.653   7.225  13.036 -0.6275  0.0342  1.2144
  898MOL0     H23896   6.371   7.101  13.009 -0.1914 -1.3449  2.0371
  898MOL0     H23897   6.472   7.082  13.153 -0.8059 -4.3512 -2.5679
  898MOL0     H23898   6.385   7.346  13.020 -1.7569 -1.8133 -1.0843
  898MOL0     H23899   6.466   7.322  13.179  0.6212 -2.7178  1.0151
  898MOL0     H23900   6.267   7.224  13.277 -2.4409  0.5348  0.9599
  898MOL0     H23901   6.174   7.215  13.127 -0.5054  1.4112 -1.4233
  898MOL0     H23902   6.169   7.465  13.101 -1.8606 -0.1558  0.9073
  898MOL0     H23903   6.274   7.462  13.254 -0.3807 -0.5978  1.9404
  898MOL0     H23904   6.824   6.923  12.486 -0.3473 -0.3314  0.6465
  898MOL0     H23905   6.933   6.772  12.323 -0.8718 -0.5711 -0.1022
  898MOL0     H23906   7.171   6.365  12.279 -2.1868  2.2036 -2.0585
  898MOL0     H23907   7.326   6.200  12.158 -1.2396 -0.0113 -3.1372
  898MOL0     H23908   6.975   4.934  11.226  1.1637  1.5565  1.2645
  898MOL0     H23909   7.022   4.779  11.029  1.2874  2.2359 -4.6171
  898MOL0     H23910   7.245   4.685  10.570 -1.0700 -1.7816  0.4301
  898MOL0     H23911   7.297   4.471  10.465 -2.0377 -0.3731  2.3053
  898MOL0     H23912   7.667   4.349  10.402  1.2874 -1.0267  1.8099
  898MOL0     H23913   7.615   4.189  10.412  0.4720  0.4803 -0.4190
  898MOL0     H23914   7.547   4.301  10.206  1.0376  0.8835  1.4948
  898MOL0     H23915   7.432   4.391  10.303 -0.3599 -0.0737  2.4415
  898MOL0     H23916   7.313   4.195  10.383  2.3880  0.2783  2.3150
  898MOL0     H23917   7.320   4.205  10.206 -1.3564  1.6016  2.2555
  898MOL0     H23918   7.353   3.960  10.264  1.3722 -0.3324 -1.1663
  898MOL0     H23919   7.488   4.003  10.368  2.4824 -1.0611 -2.6187
  898MOL0     H23920   7.705   4.022  10.027  0.6870  0.0768  2.1094
  898MOL0     H23921   7.628   4.431  10.738 -2.4475 -1.3043  2.0139
  898MOL0     H23922   7.709   4.627  10.873  0.4867  0.6260  1.7906
  898MOL0     H23923   7.598   4.752  10.875  1.1287  0.4062  0.3002
  898MOL0     H23924   7.577   4.598  10.976  1.0971  0.3385  0.4883
  899MOL0     O23925  10.547   9.484   0.166 -0.4086  0.3711 -0.3340
  899MOL0     C23926  10.621   9.551   0.101  0.6118  0.7752 -0.8078
  899MOL0     O23927  10.598   9.681   0.072  0.8112 -0.2813  0.1126
  899MOL0     C23928  10.495   9.762   0.116  0.2505  0.1192 -0.9046
  899MOL0     C23929  10.397   9.733   0.212  0.0032  1.1714 -0.4312
  899MOL0     C23930  10.293   9.827   0.237 -0.6389 -1.0022 -0.3242
  899MOL0     C23931  10.295   9.951   0.169 -0.0590 -0.5857 -0.7636
  899MOL0     O23932  10.207  10.049   0.214  0.3114 -0.3207 -0.4160
  899MOL0     C23933  10.078  10.002   0.239  0.9686 -1.0104  0.4934
  899MOL0     C23934   9.975  10.121   0.239  0.5137 -0.0310 -0.2943
  899MOL0     C23935   9.990  10.232   0.357  0.5318 -0.3596  0.3232
  899MOL0     C23936   9.908  10.348   0.309  0.1647  0.5371 -0.1257
  899MOL0     C23937   9.911  10.457   0.424  0.0845  0.2488  0.6836
  899MOL0     C23938   9.822  10.418   0.549 -0.4495  0.3893  0.4630
  899MOL0     C23939   9.841  10.526   0.655 -0.1777 -0.1412  0.5119
  899MOL0     C23940   9.830  10.467   0.786  0.8749 -0.4906 -1.1963
  899MOL0     N23941   9.818  10.571   0.893  0.2147  0.2415 -0.2271
  899MOL0     C23942   9.919  10.630   0.971  0.9377 -1.0984 -0.7626
  899MOL0     C23943   9.860  10.739   1.029  0.8512 -0.9898  0.6284
  899MOL0     C23944   9.951  10.824   1.118  0.1050 -0.1789 -0.2296
  899MOL0     C23945  10.010  10.946   1.035  0.4631  0.1340  0.0757
  899MOL0     C23946  10.052  11.063   1.122  0.1141 -0.3838 -0.6816
  899MOL0     C23947   9.948  11.176   1.090 -0.4675  0.3349  1.2262
  899MOL0     O23948   9.984  11.280   1.177  0.6895 -0.2172 -0.9710
  899MOL0     C23949  10.069  11.377   1.146 -0.7592 -0.0167 -0.4929
  899MOL0     C23950  10.106  11.456   1.256  0.1049  1.1737 -0.6637
  899MOL0     C23951  10.174  11.580   1.247  0.1416 -0.8150  0.7672
  899MOL0     C23952  10.198  11.661   1.374  0.4491 -0.1794  0.1646
  899MOL0     C23953  10.240  11.613   1.120  0.1289 -0.3735 -0.0481
  899MOL0     C23954  10.344  11.719   1.106 -0.2366  0.3534  1.0536
  899MOL0     O23955  10.421  11.715   0.995 -0.8409 -0.3134  0.3210
  899MOL0     C23956  10.531  11.797   0.985 -0.3167 -0.5162 -0.2781
  899MOL0     C23957  10.512  11.929   0.941 -0.7275 -0.2545 -0.2340
  899MOL0     C23958  10.622  12.020   0.922 -0.0713 -0.3553 -0.7804
  899MOL0     C23959  10.744  11.971   0.933 -0.6037  0.7108 -0.0746
  899MOL0     O23960  10.843  12.060   0.902 -0.0776 -0.1738  0.4260
  899MOL0     C23961  10.963  12.011   0.845 -0.0532 -0.4102 -0.5619
  899MOL0     C23962  11.049  12.136   0.822  0.4856 -0.0479  0.0728
  899MOL0     C23963  11.167  12.106   0.733  0.2060  0.2658  0.3260
  899MOL0     C23964  11.224  12.229   0.666 -0.5767  0.8042  0.0160
  899MOL0     C23965  11.295  12.191   0.541  0.0128 -0.1021  0.7278
  899MOL0     C23966  11.383  12.311   0.510  0.5018  0.5351  0.2099
  899MOL0     C23967  11.464  12.290   0.386  0.0413 -0.6742  0.1202
  899MOL0     C23968  11.501  12.418   0.313 -0.6207 -0.4280  0.0181
  899MOL0    Cl23969  11.594  12.510   0.423 -0.5019 -0.1736 -0.7592
  899MOL0     C23970  10.765  11.841   0.985 -0.0215 -0.0954 -0.6379
  899MOL0     C23971  10.661  11.757   1.019  0.0175  0.9605  0.5389
  899MOL0     O23972  10.360  11.794   1.193  0.3855  0.2823 -0.9173
  899MOL0     C23973  10.207  11.523   1.013  0.0028  1.1519  0.1671
  899MOL0     C23974  10.118  11.415   1.020 -0.4449  0.6565  0.3842
  899MOL0     N23975   9.725  10.749   0.991 -0.0356 -0.1883 -0.6549
  899MOL0     N23976   9.706  10.653   0.909 -0.2535  0.0221  0.0555
  899MOL0     C23977  10.397   9.975   0.078 -0.1523  0.4341 -0.3010
  899MOL0     C23978  10.486   9.876   0.049 -0.3006  0.0362  0.2739
  899MOL0     C23979  10.747   9.499   0.043 -0.1991 -0.2218 -0.8107
  899MOL0     C23980  10.806   9.552  -0.066  0.1008 -0.6981 -0.2388
  899MOL0     C23981  10.923   9.515  -0.115 -0.7445  0.6621 -0.0783
  899MOL0     C23982  10.986   9.395  -0.081  0.4247 -1.1006  0.0053
  899MOL0     O23983  11.100   9.346  -0.145  0.6296  0.1735  0.7178
  899MOL0     C23984  11.133   9.208  -0.145  0.2527 -0.2713  0.5540
  899MOL0     C23985  11.182   9.186  -0.294 -0.1712  0.8028  0.5154
  899MOL0     C23986  11.292   9.281  -0.347  0.6718 -1.4091  0.1238
  899MOL0     C23987  11.419   9.305  -0.260  0.4737  0.3280  0.5818
  899MOL0     C23988  11.505   9.178  -0.261 -0.8123  0.7953 -0.2677
  899MOL0     C23989  11.574   9.079  -0.251  0.2539 -0.6987  0.0448
  899MOL0     C23990  10.931   9.330   0.031 -0.0735 -0.0903  0.2682
  899MOL0     C23991  10.815   9.380   0.093 -0.4300  0.3829 -0.2073
  899MOL0     C23992  10.785   9.299   0.221 -0.6887 -0.1319 -0.5819
  899MOL0     H23993  10.410   9.642   0.271  1.3603  2.8299  1.9905
  899MOL0     H23994  10.227   9.818   0.322 -1.0866 -1.0929 -0.6738
  899MOL0     H23995  10.072   9.936   0.326  3.0890 -0.0230  1.4636
  899MOL0     H23996  10.054   9.952   0.144  0.9583  1.9492 -1.1988
  899MOL0     H23997   9.999  10.173   0.146  4.5514  2.3758  1.8282
  899MOL0     H23998   9.872  10.083   0.246  0.0429  1.4376  1.5667
  899MOL0     H23999   9.951  10.177   0.443  2.0967  1.5212  2.3355
  899MOL0     H24000  10.099  10.245   0.362  0.3649  2.4895 -1.4053
  899MOL0     H24001   9.951  10.393   0.219  0.3614  4.8954  1.8925
  899MOL0     H24002   9.804  10.324   0.281  1.6704 -2.3364 -4.3687
  899MOL0     H24003   9.865  10.547   0.383 -0.2360  1.2307  2.9972
  899MOL0     H24004  10.011  10.478   0.462 -0.2094  1.1010  1.0104
  899MOL0     H24005   9.717  10.423   0.517 -1.1459 -1.5719  2.2123
  899MOL0     H24006   9.834  10.315   0.585 -0.2830 -0.7490 -2.5424
  899MOL0     H24007   9.768  10.604   0.634  0.9875  0.2361 -2.6557
  899MOL0     H24008   9.937  10.578   0.642 -0.9913  0.9140 -1.7160
  899MOL0     H24009   9.742  10.403   0.784  0.9683 -0.6114 -1.4573
  899MOL0     H24010   9.919  10.407   0.804 -1.0765 -2.8997  1.2124
  899MOL0     H24011  10.020  10.593   0.981  0.7240 -1.1189  3.2643
  899MOL0     H24012  10.035  10.772   1.165  2.2733  2.3176 -1.1091
  899MOL0     H24013   9.887  10.859   1.199  0.3149 -2.4080  0.9663
  899MOL0     H24014  10.087  10.896   0.975  0.0756 -0.6651  0.2366
  899MOL0     H24015   9.936  10.983   0.962 -2.9054 -3.7578  1.1690
  899MOL0     H24016  10.053  11.043   1.229  1.2644  0.5819 -0.4928
  899MOL0     H24017  10.154  11.094   1.100 -0.9833  1.3205 -4.2149
  899MOL0     H24018   9.939  11.205   0.984 -1.5278 -0.8632  0.9675
  899MOL0     H24019   9.844  11.149   1.109 -0.4333  2.3555  5.4013
  899MOL0     H24020  10.065  11.417   1.349 -0.1676  0.1824 -1.1846
  899MOL0     H24021  10.133  11.623   1.453 -1.0166 -0.2755 -1.0406
  899MOL0     H24022  10.173  11.767   1.365 -0.3010 -0.2580  1.1958
  899MOL0     H24023  10.299  11.658   1.415  1.0686  4.8140 -0.4070
  899MOL0     H24024  10.409  11.963   0.944 -0.1497  1.8893 -1.7686
  899MOL0     H24025  10.613  12.126   0.901  2.5312 -0.0540 -0.7502
  899MOL0     H24026  11.025  11.950   0.911 -1.9117  0.2881  1.9602
  899MOL0     H24027  10.936  11.957   0.753 -0.1328  0.1464 -0.8661
  899MOL0     H24028  10.973  12.205   0.785  0.0991  1.7712  3.8590
  899MOL0     H24029  11.077  12.168   0.923 -1.8314 -1.6534  1.3057
  899MOL0     H24030  11.128  12.056   0.644  0.8820  0.9693 -0.3816
  899MOL0     H24031  11.237  12.042   0.787  0.1506  1.2779  1.6491
  899MOL0     H24032  11.280  12.281   0.744 -0.0379 -1.4171  1.1859
  899MOL0     H24033  11.145  12.301   0.646 -0.8927  1.5946  3.5326
  899MOL0     H24034  11.357  12.101   0.549  1.5942  0.8515 -0.3699
  899MOL0     H24035  11.227  12.176   0.456 -1.0666  2.6844  1.0094
  899MOL0     H24036  11.441  12.340   0.598  0.4668  0.9863  0.0859
  899MOL0     H24037  11.310  12.389   0.486 -0.9521  0.1753  3.0915
  899MOL0     H24038  11.405  12.241   0.309 -0.8084 -0.0742  0.3684
  899MOL0     H24039  11.552  12.231   0.412  0.6508  0.7643  1.5150
  899MOL0     H24040  11.414  12.480   0.290 -0.4575  1.3860  3.5467
  899MOL0     H24041  11.551  12.374   0.227 -0.4978 -2.4703  1.0782
  899MOL0     H24042  10.870  11.813   0.994  0.3561  1.6419  1.1878
  899MOL0     H24043  10.678  11.656   1.057 -0.0276  1.5519  2.1809
  899MOL0     H24044  10.262  11.530   0.920 -1.2224 -0.7273 -0.7674
  899MOL0     H24045  10.107  11.341   0.941  6.5629 -1.0182  0.3527
  899MOL0     H24046  10.405  10.072   0.030 -0.3009  0.5268 -0.1376
  899MOL0     H24047  10.554   9.891  -0.035  3.1597  0.3355  2.9123
  899MOL0     H24048  10.772   9.647  -0.107  0.0976 -0.1403  1.0134
  899MOL0     H24049  10.982   9.581  -0.177  0.6484 -0.3462  0.1298
  899MOL0     H24050  11.201   9.178  -0.065 -1.6129 -1.9251  1.5857
  899MOL0     H24051  11.049   9.139  -0.134 -3.0093  2.8682 -2.0625
  899MOL0     H24052  11.101   9.203  -0.366 -0.9515 -0.9986  0.9079
  899MOL0     H24053  11.226   9.086  -0.298  1.1400  1.3955 -1.0330
  899MOL0     H24054  11.315   9.244  -0.448 -0.3894  3.1257 -2.0265
  899MOL0     H24055  11.250   9.380  -0.364 -0.8648 -2.1959 -0.8269
  899MOL0     H24056  11.390   9.323  -0.156  3.5390 -1.8212  1.9375
  899MOL0     H24057  11.464   9.403  -0.280 -0.5173  0.8272  0.7019
  899MOL0     H24058  11.634   8.991  -0.259  0.6769 -0.5741  1.6116
  899MOL0     H24059  10.985   9.244   0.070  0.3744 -0.4040 -0.9904
  899MOL0     H24060  10.873   9.248   0.262 -2.2171 -1.9364  0.6506
  899MOL0     H24061  10.747   9.368   0.296  1.5218  1.0619 -0.4897
  899MOL0     H24062  10.701   9.233   0.194 -1.3039  0.2737  0.3127
  900MOL0     O24063   5.496   2.972   4.378 -0.2718 -0.1219  0.1429
  900MOL0     C24064   5.444   2.870   4.356 -0.6852  0.6410 -1.4128
  900MOL0     O24065   5.396   2.784   4.452  0.0861  0.5299  0.0944
  900MOL0     C24066   5.385   2.819   4.579  0.5087  0.7010 -0.0852
  900MOL0     C24067   5.279   2.911   4.619 -0.5648 -1.0071  0.1585
  900MOL0     C24068   5.254   2.937   4.758 -0.1852  0.4048  0.4899
  900MOL0     C24069   5.326   2.868   4.851 -0.8091  0.5554  0.2984
  900MOL0     O24070   5.274   2.875   4.977  0.2944 -1.2130 -0.5242
  900MOL0     C24071   5.255   2.749   5.042  0.5828 -0.5729 -0.0180
  900MOL0     C24072   5.179   2.768   5.176  0.6625  0.3436 -0.3134
  900MOL0     C24073   5.041   2.833   5.167  0.0685  0.2794 -0.6260
  900MOL0     C24074   4.957   2.765   5.051 -0.8009 -0.8021 -0.9976
  900MOL0     C24075   4.803   2.795   5.071 -0.1648  0.7795  1.3448
  900MOL0     C24076   4.713   2.755   4.944  0.0257 -0.5776  0.1313
  900MOL0     C24077   4.556   2.751   4.957 -0.0050  0.0110  1.0326
  900MOL0     C24078   4.505   2.900   4.935  0.1335 -1.1208 -0.5141
  900MOL0     N24079   4.369   2.918   4.990  0.7578 -0.3136 -0.4521
  900MOL0     C24080   4.267   2.832   4.974  0.3159 -0.6153 -1.2772
  900MOL0     C24081   4.166   2.890   5.032  0.8136  0.3134  0.1105
  900MOL0     C24082   4.037   2.820   5.047  0.4116  1.2077  0.0942
  900MOL0     C24083   3.914   2.908   5.050  0.6001  0.6114 -0.0556
  900MOL0     C24084   3.795   2.839   5.114  0.3987  0.2480  0.4798
  900MOL0     C24085   3.658   2.908   5.112 -0.4490 -0.5894  1.4820
  900MOL0     O24086   3.684   3.025   5.181  0.2260  0.0311  0.4800
  900MOL0     C24087   3.579   3.108   5.205  1.2120  0.1877  0.4122
  900MOL0     C24088   3.438   3.094   5.178  0.0306 -0.1915  0.6107
  900MOL0     C24089   3.348   3.193   5.198  0.1994  0.0741  0.9455
  900MOL0     C24090   3.205   3.169   5.179 -0.3778 -0.7778  0.1495
  900MOL0     C24091   3.392   3.312   5.257  0.2059 -0.7857  0.1183
  900MOL0     C24092   3.310   3.434   5.279 -0.0080  0.2529  0.3693
  900MOL0     O24093   3.205   3.456   5.187 -0.6837 -0.9192  0.2776
  900MOL0     C24094   3.113   3.552   5.214 -0.8254  0.5308 -1.5774
  900MOL0     C24095   3.018   3.538   5.317  0.4439 -0.5939  0.8459
  900MOL0     C24096   2.928   3.638   5.333 -0.1498 -0.4353 -0.4011
  900MOL0     C24097   2.932   3.756   5.254  0.3219  0.0121  0.3355
  900MOL0     O24098   2.831   3.850   5.277 -0.2685 -0.0639  0.0357
  900MOL0     C24099   2.865   3.997   5.281 -0.3716 -0.1070 -0.4151
  900MOL0     C24100   2.782   4.083   5.383  0.3404 -0.0675  0.7565
  900MOL0     C24101   2.805   4.045   5.531  0.3187  0.4902  0.0603
  900MOL0     C24102   2.734   4.149   5.621 -0.0808  0.5871  0.2009
  900MOL0     C24103   2.745   4.116   5.770  0.0890 -0.1168 -0.5360
  900MOL0     C24104   2.668   4.216   5.857 -0.6452 -0.4056  0.9873
  900MOL0     C24105   2.670   4.176   6.000  0.1475  0.4310  0.5760
  900MOL0     C24106   2.582   4.254   6.098 -0.0575 -0.5768 -0.2245
  900MOL0    Cl24107   2.417   4.261   6.034  0.2371  0.4768 -0.3354
  900MOL0     C24108   3.040   3.778   5.174 -0.1407  1.2832  1.1127
  900MOL0     C24109   3.122   3.670   5.140  0.3898 -0.2631  0.6263
  900MOL0     O24110   3.324   3.496   5.388 -0.5201  1.0500 -0.2571
  900MOL0     C24111   3.526   3.335   5.290  0.3918 -0.2119  0.3563
  900MOL0     C24112   3.614   3.228   5.263  0.3342  0.4616 -0.5879
  900MOL0     N24113   4.211   3.004   5.099 -0.5732 -0.8628  1.5258
  900MOL0     N24114   4.334   3.023   5.066  0.0641 -0.3546  0.0968
  900MOL0     C24115   5.441   2.788   4.820  0.1376 -0.2484 -0.6513
  900MOL0     C24116   5.471   2.766   4.680  0.5750  0.7677 -0.1403
  900MOL0     C24117   5.451   2.822   4.219  0.0982  1.1213 -0.2612
  900MOL0     C24118   5.477   2.689   4.192 -0.1955  0.8440 -1.4312
  900MOL0     C24119   5.468   2.628   4.066 -0.3822 -0.1799 -0.6555
  900MOL0     C24120   5.435   2.708   3.960  0.1083  0.1019  0.7538
  900MOL0     O24121   5.416   2.661   3.824  0.0898  0.0713 -0.0319
  900MOL0     C24122   5.455   2.518   3.790  0.7141 -0.7504 -0.3826
  900MOL0     C24123   5.612   2.509   3.788 -0.0443  0.2582  0.3789
  900MOL0     C24124   5.646   2.389   3.696  0.8729 -0.3839 -0.5132
  900MOL0     C24125   5.611   2.249   3.753  1.0000 -0.2679  0.7390
  900MOL0     C24126   5.680   2.146   3.678  0.2804  0.1062  0.6575
  900MOL0     C24127   5.736   2.059   3.618 -0.0158 -0.0402 -0.0135
  900MOL0     C24128   5.421   2.845   3.975 -0.4387  0.6465 -0.8464
  900MOL0     C24129   5.423   2.901   4.103  0.0246 -0.5019 -0.1554
  900MOL0     C24130   5.402   3.049   4.110 -0.1576  1.2169 -0.0929
  900MOL0     H24131   5.217   2.966   4.550 -0.2576 -1.9159 -0.8620
  900MOL0     H24132   5.173   3.004   4.787 -0.3497  0.3442  0.1752
  900MOL0     H24133   5.348   2.693   5.055  1.1602  0.3271 -0.2028
  900MOL0     H24134   5.195   2.685   4.977 -0.7049 -0.1019  0.6507
  900MOL0     H24135   5.171   2.666   5.217  1.4158  0.7546  0.9197
  900MOL0     H24136   5.246   2.827   5.239 -1.7210  2.2696  0.5713
  900MOL0     H24137   4.989   2.816   5.262  1.4546 -1.8821 -0.1834
  900MOL0     H24138   5.052   2.939   5.142  0.3167 -0.2381 -2.9177
  900MOL0     H24139   4.994   2.813   4.960  0.5871 -2.1914 -1.2177
  900MOL0     H24140   4.972   2.657   5.050 -0.8295 -0.8434  0.3116
  900MOL0     H24141   4.797   2.903   5.090  1.3151  1.3897 -1.1192
  900MOL0     H24142   4.770   2.733   5.155  2.5277  1.1111  2.7660
  900MOL0     H24143   4.748   2.825   4.868  0.3137 -0.4456  0.3867
  900MOL0     H24144   4.742   2.655   4.912  0.8385 -0.3376  0.0919
  900MOL0     H24145   4.527   2.722   5.058  1.9466 -0.4912  1.4859
  900MOL0     H24146   4.513   2.685   4.880 -1.3920 -0.3466  2.0620
  900MOL0     H24147   4.565   2.971   4.993 -2.7486  0.5596  0.6342
  900MOL0     H24148   4.501   2.948   4.837 -2.0801  4.3261  1.8012
  900MOL0     H24149   4.255   2.731   4.935  0.1565 -1.4597  0.8310
  900MOL0     H24150   4.046   2.751   5.131 -4.8794 -1.5380 -1.1518
  900MOL0     H24151   4.027   2.751   4.963  1.6372  0.7983  0.2644
  900MOL0     H24152   3.928   2.995   5.115 -0.6380  0.0585  0.9974
  900MOL0     H24153   3.893   2.945   4.949 -1.8354  0.2384  0.2388
  900MOL0     H24154   3.788   2.747   5.056  0.1196  2.1694 -2.7626
  900MOL0     H24155   3.814   2.822   5.221  3.0643  0.0668  0.0675
  900MOL0     H24156   3.643   2.929   5.006  1.1071  0.0876  1.3676
  900MOL0     H24157   3.585   2.839   5.155  0.1678 -4.0003 -2.3542
  900MOL0     H24158   3.400   3.009   5.122 -1.1768  0.7781 -0.0950
  900MOL0     H24159   3.170   3.201   5.080 -4.0638 -2.0377  0.9204
  900MOL0     H24160   3.145   3.199   5.265 -2.1797 -0.0153 -1.3094
  900MOL0     H24161   3.185   3.062   5.175 -1.7557 -0.5208 -0.5380
  900MOL0     H24162   3.020   3.441   5.364  2.2210 -0.6340  0.7342
  900MOL0     H24163   2.846   3.623   5.402 -1.1235  2.8668 -0.6788
  900MOL0     H24164   2.972   4.019   5.290 -0.6928  1.8935 -0.9247
  900MOL0     H24165   2.836   4.026   5.179 -3.5145  0.1943  0.4750
  900MOL0     H24166   2.819   4.186   5.377 -0.8835  0.4372  1.4959
  900MOL0     H24167   2.680   4.093   5.346  1.5351  1.4917 -2.5510
  900MOL0     H24168   2.912   4.041   5.555  1.0243  1.5715 -2.5453
  900MOL0     H24169   2.749   3.953   5.551 -0.2246  0.6290 -0.7955
  900MOL0     H24170   2.627   4.142   5.599 -0.1474  0.8789  0.4346
  900MOL0     H24171   2.761   4.253   5.605  3.2209 -0.3827 -1.2799
  900MOL0     H24172   2.712   4.014   5.795  1.0427 -0.5202 -0.8716
  900MOL0     H24173   2.852   4.121   5.793 -0.3919  4.0391  1.6969
  900MOL0     H24174   2.570   4.189   5.817 -0.0116 -1.1254 -0.1208
  900MOL0     H24175   2.707   4.318   5.845  3.3783 -1.7714  1.0001
  900MOL0     H24176   2.767   4.207   6.040  2.3693 -4.3040 -0.4750
  900MOL0     H24177   2.648   4.071   6.017  1.7320  0.3320  2.2360
  900MOL0     H24178   2.625   4.352   6.119  3.5650 -2.1031  0.2485
  900MOL0     H24179   2.596   4.189   6.185 -2.3113 -2.2111 -0.9822
  900MOL0     H24180   3.057   3.872   5.123 -0.0569  0.1111 -1.1947
  900MOL0     H24181   3.198   3.680   5.063  1.9169 -2.2409  1.7884
  900MOL0     H24182   3.558   3.428   5.335 -1.3979 -0.4893  2.3516
  900MOL0     H24183   3.718   3.246   5.286  0.0201  1.8398 -0.1691
  900MOL0     H24184   5.506   2.747   4.897  2.5850  1.5000 -1.6279
  900MOL0     H24185   5.554   2.705   4.643  0.9318  1.7981 -1.0611
  900MOL0     H24186   5.513   2.628   4.275  0.9008  1.3523 -1.5139
  900MOL0     H24187   5.489   2.522   4.059  1.7269 -0.0155  1.6321
  900MOL0     H24188   5.408   2.449   3.861 -1.6029  0.1743 -0.9242
  900MOL0     H24189   5.420   2.487   3.691  0.9555 -2.1642 -0.0525
  900MOL0     H24190   5.650   2.484   3.887  2.2406  0.8050 -0.3031
  900MOL0     H24191   5.644   2.605   3.747 -1.3282  0.6965  0.3600
  900MOL0     H24192   5.598   2.407   3.599  1.2890  3.4816 -0.1548
  900MOL0     H24193   5.751   2.410   3.673  0.2643 -0.2342 -3.7187
  900MOL0     H24194   5.504   2.233   3.767  0.8676 -0.2097 -0.1466
  900MOL0     H24195   5.655   2.239   3.853  1.2953 -3.0233  0.4210
  900MOL0     H24196   5.784   1.977   3.569 -0.1008  1.6288 -3.2016
  900MOL0     H24197   5.399   2.899   3.883  1.5057 -0.5665 -2.0884
  900MOL0     H24198   5.391   3.099   4.013 -0.5264  1.5045  0.0979
  900MOL0     H24199   5.318   3.065   4.177  0.4555  1.5821  0.6099
  900MOL0     H24200   5.488   3.095   4.161  0.5159 -0.7384  0.6467
  901MOL0     O24201   2.221   1.331   0.744 -0.1237  0.8619  0.5492
  901MOL0     C24202   2.240   1.247   0.830 -0.0858  0.2532 -0.2543
  901MOL0     O24203   2.228   1.112   0.807  0.5256 -0.0185 -0.0192
  901MOL0     C24204   2.232   1.070   0.680 -0.5188 -0.5827 -0.2535
  901MOL0     C24205   2.146   0.968   0.652  0.4066  0.0060  0.4427
  901MOL0     C24206   2.162   0.888   0.534  0.5148 -0.2605  0.4237
  901MOL0     C24207   2.257   0.921   0.439  0.6158 -0.8331 -0.0342
  901MOL0     O24208   2.264   0.860   0.319 -0.4143 -0.1952  0.2671
  901MOL0     C24209   2.258   0.715   0.325  0.7596 -0.1676  0.5434
  901MOL0     C24210   2.357   0.647   0.225  0.3633 -0.4464  0.0666
  901MOL0     C24211   2.332   0.497   0.211  0.2026 -0.1708 -1.0765
  901MOL0     C24212   2.441   0.434   0.124 -0.0116 -0.3862 -0.8152
  901MOL0     C24213   2.444   0.278   0.134 -0.5344 -0.2908 -0.2774
  901MOL0     C24214   2.570   0.200   0.069  0.5709 -0.0045  0.6780
  901MOL0     C24215   2.688   0.211   0.162 -1.0514 -0.0755 -1.4676
  901MOL0     C24216   2.821   0.145   0.114  0.8507 -0.6200  0.1075
  901MOL0     N24217   2.805   0.006   0.090  0.3138 -0.0865  0.1724
  901MOL0     C24218   2.743  -0.086   0.166 -0.0239 -0.6687  0.2287
  901MOL0     C24219   2.785  -0.206   0.120  0.1704  0.9114 -0.5969
  901MOL0     C24220   2.743  -0.339   0.175 -0.3037 -0.6721 -0.6101
  901MOL0     C24221   2.600  -0.381   0.123 -0.4387 -0.6577 -0.0864
  901MOL0     C24222   2.601  -0.446  -0.015 -0.2315  0.6900  0.5935
  901MOL0     C24223   2.569  -0.346  -0.126  0.1952  0.7748  0.0485
  901MOL0     O24224   2.545  -0.412  -0.246  0.0070 -0.5293  0.1263
  901MOL0     C24225   2.494  -0.355  -0.361 -0.3423 -0.9629  0.5513
  901MOL0     C24226   2.471  -0.442  -0.464  0.2402 -0.3182 -0.1750
  901MOL0     C24227   2.449  -0.394  -0.589  0.1044  0.5661  0.7306
  901MOL0     C24228   2.468  -0.500  -0.702  0.0698 -0.3288  0.0890
  901MOL0     C24229   2.425  -0.253  -0.618 -0.3496 -0.1907  0.6450
  901MOL0     C24230   2.394  -0.204  -0.753  0.2877  0.4805 -0.3985
  901MOL0     O24231   2.346  -0.293  -0.850 -0.6157 -0.3260 -0.1720
  901MOL0     C24232   2.318  -0.243  -0.966  0.0253 -0.3349  0.0651
  901MOL0     C24233   2.404  -0.177  -1.053  0.6126 -0.3008 -0.6428
  901MOL0     C24234   2.373  -0.149  -1.181  0.0935  0.1555  0.5137
  901MOL0     C24235   2.247  -0.183  -1.228 -0.0923  0.7776 -0.7738
  901MOL0     O24236   2.227  -0.165  -1.358 -0.1862  0.0384  0.0191
  901MOL0     C24237   2.095  -0.143  -1.403 -0.1667  0.5301 -0.8200
  901MOL0     C24238   2.093  -0.069  -1.532 -1.3881 -0.6693 -0.2896
  901MOL0     C24239   1.986   0.040  -1.524 -0.3569 -0.4278  0.4610
  901MOL0     C24240   1.998   0.152  -1.627  0.2765 -0.2824  0.2592
  901MOL0     C24241   1.982   0.084  -1.772  0.6461  0.0389  0.0687
  901MOL0     C24242   1.978   0.188  -1.890 -0.4692 -0.0034 -0.2105
  901MOL0     C24243   1.910   0.120  -2.000 -1.0489 -0.0190  0.3031
  901MOL0     C24244   1.904   0.219  -2.116  0.9289  0.6791  0.6707
  901MOL0    Cl24245   1.818   0.135  -2.247 -0.1385  0.3258 -0.5522
  901MOL0     C24246   2.156  -0.247  -1.139 -0.0175  0.5586  0.5515
  901MOL0     C24247   2.194  -0.272  -1.012  0.9609 -0.6450 -0.3841
  901MOL0     O24248   2.404  -0.084  -0.766  0.2190 -0.8312  0.1075
  901MOL0     C24249   2.453  -0.164  -0.516  0.1339 -0.3031 -0.6286
  901MOL0     C24250   2.493  -0.216  -0.393  0.0572 -0.6777  0.1384
  901MOL0     N24251   2.868  -0.184   0.012 -0.4018 -0.1813 -0.7709
  901MOL0     N24252   2.874  -0.059  -0.004 -0.1739 -0.1032 -0.0016
  901MOL0     C24253   2.339   1.030   0.462 -0.0318 -0.2495 -0.1618
  901MOL0     C24254   2.335   1.098   0.586  0.5897 -0.6607 -0.0481
  901MOL0     C24255   2.306   1.292   0.964  0.1084  0.2108 -0.0727
  901MOL0     C24256   2.329   1.429   0.976 -0.6350 -0.5321  0.2763
  901MOL0     C24257   2.403   1.476   1.083 -0.1320  0.1551 -0.6828
  901MOL0     C24258   2.444   1.392   1.191 -0.6615  0.5332 -0.0096
  901MOL0     O24259   2.507   1.445   1.298  0.4088 -0.3107  0.3693
  901MOL0     C24260   2.540   1.369   1.419 -0.3732  0.1784  0.3720
  901MOL0     C24261   2.683   1.302   1.418  0.5005  0.6831  0.3077
  901MOL0     C24262   2.705   1.209   1.539 -1.2554  0.3249  0.3692
  901MOL0     C24263   2.844   1.131   1.526 -0.9520  0.4352  0.3942
  901MOL0     C24264   2.941   1.175   1.627 -0.0293  0.4200 -0.0458
  901MOL0     C24265   3.040   1.200   1.688  0.3769 -0.4246  0.3593
  901MOL0     C24266   2.412   1.257   1.180 -0.4719 -0.2991 -0.2779
  901MOL0     C24267   2.336   1.209   1.075 -0.8730 -0.0556 -0.0590
  901MOL0     C24268   2.270   1.072   1.085 -0.1040 -0.8518 -0.4199
  901MOL0     H24269   2.066   0.943   0.722 -0.7379  0.8990 -0.4975
  901MOL0     H24270   2.099   0.806   0.501  1.1595 -2.3095  3.8321
  901MOL0     H24271   2.158   0.687   0.293  0.3757 -0.2386  1.7417
  901MOL0     H24272   2.272   0.677   0.427 -1.8830 -0.7409  0.7620
  901MOL0     H24273   2.337   0.693   0.128  2.0280 -1.4891 -0.8303
  901MOL0     H24274   2.464   0.661   0.246  0.0233  1.5287  0.6225
  901MOL0     H24275   2.346   0.445   0.306  2.7243 -1.3877 -2.0115
  901MOL0     H24276   2.241   0.473   0.155  1.4876 -3.0400 -2.1320
  901MOL0     H24277   2.422   0.471   0.023 -1.2845  0.4857 -0.2894
  901MOL0     H24278   2.538   0.465   0.164 -1.1139 -0.7959  2.4511
  901MOL0     H24279   2.352   0.232   0.095  0.1478 -1.7289 -0.2495
  901MOL0     H24280   2.457   0.259   0.241  2.3813  2.2584 -0.0400
  901MOL0     H24281   2.539   0.095   0.059 -0.0402  0.3029 -1.1939
  901MOL0     H24282   2.575   0.238  -0.034 -3.9416  1.8929  0.9273
  901MOL0     H24283   2.673   0.163   0.259  1.3215  0.8348 -0.5847
  901MOL0     H24284   2.697   0.316   0.189 -1.7529 -0.3540 -0.0682
  901MOL0     H24285   2.855   0.198   0.025  0.0202  0.5761  0.4715
  901MOL0     H24286   2.896   0.145   0.194 -0.1275 -2.4173  1.1096
  901MOL0     H24287   2.671  -0.072   0.246  1.2745  0.0992  1.2924
  901MOL0     H24288   2.737  -0.309   0.280 -0.3360  3.0808 -1.5526
  901MOL0     H24289   2.814  -0.422   0.162  0.8660  0.0524  0.8464
  901MOL0     H24290   2.560  -0.455   0.194  0.3885 -2.3742 -1.3373
  901MOL0     H24291   2.533  -0.297   0.142 -0.7000 -1.2272  1.7202
  901MOL0     H24292   2.700  -0.493  -0.025 -0.9283 -0.9406  1.0500
  901MOL0     H24293   2.514  -0.512  -0.014  0.4577 -0.2410  1.2640
  901MOL0     H24294   2.475  -0.295  -0.103  0.0305  1.2513 -1.5516
  901MOL0     H24295   2.655  -0.280  -0.142  1.6783 -0.5985  1.7503
  901MOL0     H24296   2.488  -0.541  -0.424  2.7044 -0.1592 -0.6204
  901MOL0     H24297   2.536  -0.472  -0.784 -1.5437  0.7320 -0.9466
  901MOL0     H24298   2.377  -0.540  -0.748 -0.5961 -2.3943  2.9264
  901MOL0     H24299   2.520  -0.581  -0.652 -1.0301  0.9192  3.5689
  901MOL0     H24300   2.504  -0.147  -1.021  0.2302  0.9578 -0.5583
  901MOL0     H24301   2.437  -0.084  -1.240  1.1018  0.9876  2.4667
  901MOL0     H24302   2.057  -0.244  -1.420 -0.6874  0.5475  0.1495
  901MOL0     H24303   2.039  -0.092  -1.324  1.5446 -0.7756  1.3450
  901MOL0     H24304   2.191  -0.021  -1.539 -1.0625 -1.4233 -1.1998
  901MOL0     H24305   2.090  -0.138  -1.617  1.5816 -3.6943  1.7867
  901MOL0     H24306   1.998   0.083  -1.424 -1.7032 -1.1966  0.9879
  901MOL0     H24307   1.889  -0.009  -1.532  0.3959 -1.7702 -0.9337
  901MOL0     H24308   2.098   0.196  -1.629 -0.0598  0.4619 -1.7250
  901MOL0     H24309   1.913   0.220  -1.613  1.0352  0.8401 -0.4765
  901MOL0     H24310   2.065   0.016  -1.787  0.7071  0.0020  0.5369
  901MOL0     H24311   1.885   0.033  -1.771  1.2861 -1.4210 -2.7443
  901MOL0     H24312   2.085   0.206  -1.902  0.1337  0.7320  4.5180
  901MOL0     H24313   1.927   0.280  -1.860 -2.8693 -1.4647  0.5374
  901MOL0     H24314   1.809   0.091  -1.969 -2.3994  3.0878 -0.7556
  901MOL0     H24315   1.968   0.034  -2.033 -0.4674  0.0782  1.0475
  901MOL0     H24316   2.006   0.245  -2.147  0.8731  0.3541  0.2073
  901MOL0     H24317   1.843   0.309  -2.100  0.3876  0.3367  0.5749
  901MOL0     H24318   2.055  -0.260  -1.176 -0.8068  2.8792  1.6680
  901MOL0     H24319   2.141  -0.318  -0.929  3.3893 -1.4782  0.8018
  901MOL0     H24320   2.445  -0.057  -0.529 -2.6093 -0.3545  0.1132
  901MOL0     H24321   2.534  -0.156  -0.312  0.6941 -2.5664  1.2812
  901MOL0     H24322   2.417   1.047   0.389 -1.8719  0.0621 -2.1443
  901MOL0     H24323   2.409   1.176   0.596  0.8810 -0.7891 -1.1443
  901MOL0     H24324   2.289   1.505   0.909 -1.5597  1.0305  2.4719
  901MOL0     H24325   2.425   1.582   1.085 -1.8985  0.5591 -1.0548
  901MOL0     H24326   2.533   1.437   1.505  2.3336  0.3354  0.5373
  901MOL0     H24327   2.469   1.288   1.437  1.3689 -1.1484  1.5211
  901MOL0     H24328   2.755   1.385   1.413  1.7348 -0.1861  2.5433
  901MOL0     H24329   2.694   1.253   1.321  1.1674  2.9904 -0.8628
  901MOL0     H24330   2.708   1.264   1.633 -0.6460  1.3358 -0.2207
  901MOL0     H24331   2.627   1.135   1.561 -0.1335 -0.8546  0.5109
  901MOL0     H24332   2.895   1.158   1.434  0.4130  0.4357  1.1217
  901MOL0     H24333   2.818   1.024   1.529 -1.3299  0.5316  0.8290
  901MOL0     H24334   3.128   1.225   1.743  0.3571 -2.2778  1.3158
  901MOL0     H24335   2.443   1.189   1.259 -0.0864 -0.7979 -0.8546
  901MOL0     H24336   2.259   1.031   1.186  0.8008 -0.1261 -0.0048
  901MOL0     H24337   2.165   1.066   1.057 -0.2576 -1.8009  0.3252
  901MOL0     H24338   2.334   1.015   1.018  2.1638  1.9058 -0.7817
  902MOL0     O24339   5.955   4.667   8.106 -0.1024  0.6588 -0.6994
  902MOL0     C24340   6.007   4.568   8.069  0.3346 -1.5046 -0.4798
  902MOL0     O24341   6.044   4.540   7.941  0.2936  0.6423  0.6161
  902MOL0     C24342   5.982   4.604   7.832  0.4641 -0.5027 -0.6804
  902MOL0     C24343   5.876   4.692   7.828  0.4950  0.1001  0.1869
  902MOL0     C24344   5.829   4.746   7.701 -0.7292  0.4666 -0.5251
  902MOL0     C24345   5.902   4.712   7.586 -0.5552  1.1191 -0.5057
  902MOL0     O24346   5.851   4.753   7.468  1.2173  0.5999 -0.3026
  902MOL0     C24347   5.930   4.777   7.347  0.1374  0.1824 -0.5575
  902MOL0     C24348   6.037   4.886   7.371 -0.7514 -0.1608 -0.2301
  902MOL0     C24349   6.137   4.901   7.253 -0.1118  0.7214 -0.0947
  902MOL0     C24350   6.261   4.985   7.289  0.3296 -0.7124 -0.0309
  902MOL0     C24351   6.338   5.020   7.168  0.4149  0.5683  0.4098
  902MOL0     C24352   6.375   4.900   7.077  0.3883 -1.0644 -0.4108
  902MOL0     C24353   6.450   4.960   6.952 -0.7806  0.3888 -0.1438
  902MOL0     C24354   6.589   5.040   6.979 -0.0354 -0.5964 -0.3675
  902MOL0     N24355   6.695   4.946   7.019  0.2159 -0.1196 -0.8266
  902MOL0     C24356   6.710   4.811   7.021  0.5608 -1.2830 -0.0162
  902MOL0     C24357   6.838   4.783   7.059  0.9815 -1.0003  0.2402
  902MOL0     C24358   6.903   4.649   7.087 -0.0813  0.9271  0.0903
  902MOL0     C24359   7.054   4.629   7.047 -0.2475 -1.2138 -0.2198
  902MOL0     C24360   7.105   4.486   7.057  0.2430 -0.2436  0.1614
  902MOL0     C24361   7.257   4.494   7.018 -0.9965 -0.5382  0.9162
  902MOL0     O24362   7.327   4.535   7.143 -0.1543  0.4550  1.2333
  902MOL0     C24363   7.451   4.596   7.127 -0.1880 -0.0984 -0.3235
  902MOL0     C24364   7.500   4.644   7.005 -0.5914 -0.5309 -1.3764
  902MOL0     C24365   7.631   4.704   7.013  0.4977  0.8176 -0.2886
  902MOL0     C24366   7.677   4.734   6.876  0.3493  0.5409 -0.3341
  902MOL0     C24367   7.707   4.717   7.128 -0.1752 -0.7911 -0.2995
  902MOL0     C24368   7.846   4.762   7.125  0.1108 -0.6523 -0.7950
  902MOL0     O24369   7.919   4.711   7.224  0.0363 -0.6901  0.0067
  902MOL0     C24370   8.045   4.754   7.257  0.0819 -0.4434 -0.0236
  902MOL0     C24371   8.148   4.664   7.301  0.0831  0.4965  1.5464
  902MOL0     C24372   8.266   4.714   7.347  0.0930  0.3159  0.2945
  902MOL0     C24373   8.299   4.846   7.351  0.3238  0.2286 -0.1756
  902MOL0     O24374   8.415   4.885   7.413 -0.0276  0.2692  0.1355
  902MOL0     C24375   8.412   5.000   7.500  0.8684 -0.7905 -0.0705
  902MOL0     C24376   8.529   4.990   7.594 -1.4442 -0.2038  0.2457
  902MOL0     C24377   8.499   4.975   7.749 -0.3866  0.3201  0.3236
  902MOL0     C24378   8.614   5.010   7.848  0.1320 -0.0253  0.3454
  902MOL0     C24379   8.562   5.033   7.990 -0.1744  0.1540 -0.2419
  902MOL0     C24380   8.490   4.915   8.040  0.0832 -0.0292 -0.3756
  902MOL0     C24381   8.578   4.787   8.042  0.6344 -0.4134  0.3982
  902MOL0     C24382   8.497   4.694   8.129  0.6848 -0.6857  0.5311
  902MOL0    Cl24383   8.327   4.666   8.088  0.4037  0.1925  0.5888
  902MOL0     C24384   8.197   4.938   7.313  0.8420  0.3267 -0.1262
  902MOL0     C24385   8.065   4.894   7.274 -1.0567 -0.4673 -0.9721
  902MOL0     O24386   7.883   4.846   7.043 -0.6903 -0.5201  0.6066
  902MOL0     C24387   7.649   4.665   7.243 -0.2752  0.3002 -0.5510
  902MOL0     C24388   7.525   4.605   7.243  0.6516  0.9407 -0.4523
  902MOL0     N24389   6.903   4.903   7.083  0.5724 -0.0610 -0.4430
  902MOL0     N24390   6.823   4.996   7.050  0.3568 -0.1372  0.8276
  902MOL0     C24391   6.005   4.612   7.586 -0.1625 -0.2858 -0.0081
  902MOL0     C24392   6.038   4.555   7.711 -0.5190 -0.1001  0.7131
  902MOL0     C24393   6.027   4.463   8.166 -0.3633 -0.1701 -0.9741
  902MOL0     C24394   6.083   4.508   8.291  0.2127  0.4398  1.0055
  902MOL0     C24395   6.109   4.421   8.392  0.2298 -0.1202 -0.3126
  902MOL0     C24396   6.059   4.285   8.383 -0.2573 -0.3086  0.4702
  902MOL0     O24397   6.093   4.185   8.469 -0.3436  0.2824 -0.3405
  902MOL0     C24398   6.196   4.205   8.568 -1.6251  0.6535  0.3677
  902MOL0     C24399   6.148   4.275   8.696  0.4451  0.4593 -0.0428
  902MOL0     C24400   6.078   4.175   8.791  0.7992 -0.1542 -0.6437
  902MOL0     C24401   6.094   4.219   8.940  0.5561  0.2865  0.8572
  902MOL0     C24402   5.993   4.324   8.978 -1.1632  0.7521 -0.4781
  902MOL0     C24403   5.918   4.410   9.010 -0.3903  0.0475  0.6055
  902MOL0     C24404   5.994   4.246   8.264  0.4595  0.0192 -0.8647
  902MOL0     C24405   5.979   4.333   8.154 -0.6130 -0.9842  0.7316
  902MOL0     C24406   5.930   4.283   8.027  0.3415  0.0293 -0.0326
  902MOL0     H24407   5.817   4.705   7.918 -2.5218 -0.2598 -1.5904
  902MOL0     H24408   5.734   4.798   7.692  0.2059  2.5072  0.6510
  902MOL0     H24409   5.862   4.805   7.266  0.3811  1.8088 -0.2403
  902MOL0     H24410   5.977   4.682   7.318 -1.5595 -1.3223  1.3986
  902MOL0     H24411   5.990   4.977   7.410 -0.9618 -0.0862 -0.6467
  902MOL0     H24412   6.109   4.856   7.447  2.4572  0.7798 -2.6649
  902MOL0     H24413   6.164   4.800   7.219  0.3970  1.3381 -1.5717
  902MOL0     H24414   6.089   4.956   7.172  1.0782  1.9212 -0.0150
  902MOL0     H24415   6.241   5.068   7.357  1.6403  0.6196 -1.1922
  902MOL0     H24416   6.325   4.925   7.355 -0.6111  1.2592  2.8540
  902MOL0     H24417   6.417   5.092   7.190  1.3509  1.0118 -3.5832
  902MOL0     H24418   6.265   5.075   7.108  0.2908  1.0524  0.9984
  902MOL0     H24419   6.436   4.831   7.137 -0.4641 -0.7026  0.9160
  902MOL0     H24420   6.293   4.839   7.039 -2.1106  0.3062  2.4034
  902MOL0     H24421   6.384   5.030   6.901 -1.3996 -0.3437 -0.3707
  902MOL0     H24422   6.482   4.880   6.885 -2.4132 -2.5032  2.2620
  902MOL0     H24423   6.627   5.085   6.887  0.8863 -0.3457  0.1260
  902MOL0     H24424   6.574   5.117   7.055 -0.8376  0.6944 -1.7725
  902MOL0     H24425   6.643   4.735   6.982  1.6295 -1.6311 -1.2884
  902MOL0     H24426   6.851   4.569   7.035  3.0946 -1.2995  0.0527
  902MOL0     H24427   6.888   4.633   7.194 -0.7226  1.2841  0.0619
  902MOL0     H24428   7.072   4.659   6.943  4.4716 -2.2311  0.0889
  902MOL0     H24429   7.109   4.686   7.122  0.1735 -0.7307 -0.8782
  902MOL0     H24430   7.094   4.451   7.160  1.8641  0.8101  0.7333
  902MOL0     H24431   7.045   4.430   6.985  1.6490 -0.9340 -0.5161
  902MOL0     H24432   7.303   4.403   6.978  2.6937  0.0876  3.3094
  902MOL0     H24433   7.261   4.570   6.940 -5.1643  0.7822  1.7290
  902MOL0     H24434   7.451   4.642   6.908 -2.3629 -1.2882 -0.5190
  902MOL0     H24435   7.700   4.839   6.855  1.0118  0.0778 -2.0860
  902MOL0     H24436   7.615   4.692   6.796 -2.4544 -0.8348  2.3401
  902MOL0     H24437   7.771   4.678   6.872  0.3882  0.0334  3.5953
  902MOL0     H24438   8.107   4.565   7.287 -2.7212  1.8408 -1.1296
  902MOL0     H24439   8.325   4.634   7.391 -1.7613 -1.8156 -0.9018
  902MOL0     H24440   8.415   5.090   7.437 -1.2407 -0.8947 -0.4072
  902MOL0     H24441   8.322   5.002   7.561  2.8697  1.0842  3.0712
  902MOL0     H24442   8.595   4.907   7.567  0.3837  0.3403  2.6861
  902MOL0     H24443   8.587   5.083   7.591 -1.4480 -0.1513  1.3449
  902MOL0     H24444   8.479   4.868   7.760  1.2301  0.1314  1.7812
  902MOL0     H24445   8.409   5.029   7.781 -3.0130 -4.1821  1.4295
  902MOL0     H24446   8.665   5.100   7.813  0.8015 -0.4269  0.2654
  902MOL0     H24447   8.684   4.927   7.839 -0.7102 -0.7071 -0.0728
  902MOL0     H24448   8.630   5.065   8.070  0.0408  1.4764 -0.9281
  902MOL0     H24449   8.480   5.105   7.987  1.1297  1.6975 -0.2699
  902MOL0     H24450   8.403   4.901   7.976  0.3912 -2.2574 -0.3727
  902MOL0     H24451   8.442   4.932   8.137 -2.2354 -1.7767 -1.1195
  902MOL0     H24452   8.670   4.817   8.093 -0.1599  0.4778  1.3132
  902MOL0     H24453   8.588   4.733   7.947  0.4271 -6.0988  3.2050
  902MOL0     H24454   8.511   4.727   8.233  0.5755  1.4313 -0.0806
  902MOL0     H24455   8.552   4.600   8.120  1.1677 -0.5321  1.6448
  902MOL0     H24456   8.217   5.044   7.322 -0.7597  0.7377 -1.0709
  902MOL0     H24457   7.980   4.957   7.249 -0.9942  0.0990  0.1582
  902MOL0     H24458   7.712   4.651   7.330  0.2869 -3.2289 -1.3601
  902MOL0     H24459   7.482   4.565   7.334  2.2260  2.0097  0.8037
  902MOL0     H24460   6.057   4.589   7.493  0.0569  3.1416 -0.8796
  902MOL0     H24461   6.105   4.470   7.714  1.1703  1.0515 -1.5192
  902MOL0     H24462   6.111   4.613   8.300 -2.3244  1.1904  0.8473
  902MOL0     H24463   6.165   4.463   8.475 -2.5679 -3.3455  3.6083
  902MOL0     H24464   6.249   4.113   8.596 -3.0523  0.1790  1.6820
  902MOL0     H24465   6.280   4.264   8.531 -0.6260 -0.9416 -0.0167
  902MOL0     H24466   6.077   4.353   8.667 -2.4191 -2.5935 -2.0047
  902MOL0     H24467   6.237   4.311   8.748 -0.1162  1.3745  0.3078
  902MOL0     H24468   5.972   4.162   8.765  0.3249  1.0927  0.5588
  902MOL0     H24469   6.115   4.072   8.788 -0.0893 -0.5685  1.1439
  902MOL0     H24470   6.197   4.256   8.948  0.9066 -0.7398  1.1709
  902MOL0     H24471   6.081   4.143   9.018 -1.0592  0.1018  0.4319
  902MOL0     H24472   5.863   4.501   9.021  0.6103  0.7786 -0.3218
  902MOL0     H24473   5.948   4.148   8.257 -1.8891  0.7021  2.5569
  902MOL0     H24474   5.850   4.214   8.056  1.1163  0.2762  3.0085
  902MOL0     H24475   5.890   4.358   7.959 -0.4755 -0.7734 -0.4555
  902MOL0     H24476   6.000   4.211   7.982  0.6448 -1.0745  2.0756
  903MOL0     O24477   5.807   7.756   8.895 -0.2430 -0.3772 -0.0744
  903MOL0     C24478   5.732   7.786   8.983  0.6695  0.7153 -0.9442
  903MOL0     O24479   5.677   7.910   9.005  0.1905  0.3471 -0.3192
  903MOL0     C24480   5.730   8.014   8.926 -0.2630 -1.2739 -0.2375
  903MOL0     C24481   5.784   8.135   8.975 -0.8915 -0.1277 -0.3168
  903MOL0     C24482   5.842   8.241   8.892 -0.2595  0.7600 -0.4893
  903MOL0     C24483   5.841   8.219   8.752  0.0615  0.3943 -0.3746
  903MOL0     O24484   5.904   8.309   8.672 -0.4883 -0.8482 -0.9639
  903MOL0     C24485   5.946   8.266   8.550 -1.0768 -0.0961 -0.1698
  903MOL0     C24486   6.011   8.385   8.473  0.4735 -0.3760  0.0195
  903MOL0     C24487   6.157   8.409   8.522  0.8278 -0.1090 -0.3984
  903MOL0     C24488   6.202   8.544   8.477 -0.0385  0.6598  0.7022
  903MOL0     C24489   6.174   8.648   8.580  0.4016  0.3617  0.3698
  903MOL0     C24490   6.218   8.790   8.552  0.4502 -0.6062 -0.3676
  903MOL0     C24491   6.189   8.877   8.675 -0.9527 -0.5347 -0.0284
  903MOL0     C24492   6.193   9.036   8.653 -0.1561 -0.4727  0.1424
  903MOL0     N24493   6.082   9.093   8.571 -0.3832  0.1680  0.3830
  903MOL0     C24494   5.961   9.031   8.540  0.0520 -0.1956  0.3170
  903MOL0     C24495   5.908   9.133   8.464 -0.8539  0.8281  0.1656
  903MOL0     C24496   5.772   9.148   8.401  0.2648  0.6679  0.0262
  903MOL0     C24497   5.651   9.165   8.486 -0.0855 -0.3939  0.7437
  903MOL0     C24498   5.517   9.155   8.395 -0.9613 -0.5326 -0.4974
  903MOL0     C24499   5.389   9.166   8.475  0.2373  0.1911 -0.9110
  903MOL0     O24500   5.378   9.075   8.585  0.3725  0.5121 -0.2897
  903MOL0     C24501   5.257   9.067   8.649 -0.8266  0.2735 -0.9502
  903MOL0     C24502   5.239   8.944   8.716  0.6010 -0.1005  0.2428
  903MOL0     C24503   5.108   8.907   8.760 -0.2475  0.1402 -0.4948
  903MOL0     C24504   5.087   8.766   8.822 -0.6502  0.1801 -0.0754
  903MOL0     C24505   5.001   9.001   8.744 -0.5076  0.6200 -0.2304
  903MOL0     C24506   4.869   8.986   8.807  0.3766  0.2908 -0.9311
  903MOL0     O24507   4.765   9.024   8.734  1.1819 -0.3491 -0.0520
  903MOL0     C24508   4.644   8.998   8.803  0.2409 -0.7575  0.2842
  903MOL0     C24509   4.590   9.106   8.861 -0.3838  0.6391 -1.4302
  903MOL0     C24510   4.471   9.094   8.940  0.5412 -0.4891  0.5103
  903MOL0     C24511   4.388   8.976   8.927  0.5440 -0.4282 -0.0385
  903MOL0     O24512   4.256   8.972   8.977 -0.8391  0.1344 -0.4301
  903MOL0     C24513   4.163   8.881   8.919 -0.1140  0.8483 -1.6200
  903MOL0     C24514   4.027   8.893   8.976  0.1117  0.3457  0.7234
  903MOL0     C24515   3.929   8.809   8.902 -0.1317 -0.1243  0.6379
  903MOL0     C24516   3.846   8.884   8.792  0.5293  0.3267 -0.3983
  903MOL0     C24517   3.749   8.799   8.714  0.0573  1.0498  0.0742
  903MOL0     C24518   3.679   8.887   8.610  0.6817 -0.0747 -0.1597
  903MOL0     C24519   3.586   8.811   8.515  0.7108  1.3397 -0.0831
  903MOL0     C24520   3.502   8.901   8.425  0.1748  0.4342  0.1621
  903MOL0    Cl24521   3.597   8.996   8.310  0.1225  0.1569  0.2187
  903MOL0     C24522   4.436   8.863   8.865  1.0259 -0.1098  0.0200
  903MOL0     C24523   4.560   8.885   8.781 -0.4126  0.3780 -0.8729
  903MOL0     O24524   4.861   8.941   8.926  0.2834  0.0785  0.3046
  903MOL0     C24525   5.024   9.129   8.670  0.1036  1.0947  0.6019
  903MOL0     C24526   5.153   9.163   8.634  0.6728  0.2443 -0.1256
  903MOL0     N24527   5.989   9.237   8.442  0.4829  0.7314  0.1918
  903MOL0     N24528   6.092   9.218   8.517  0.4679 -0.1327 -0.1093
  903MOL0     C24529   5.784   8.099   8.702 -0.2312  0.4366  0.0866
  903MOL0     C24530   5.724   8.004   8.782 -0.5468 -0.8461  0.5430
  903MOL0     C24531   5.683   7.667   9.063 -0.7959 -0.1333  0.1614
  903MOL0     C24532   5.605   7.698   9.170 -0.1638 -0.7578  0.6453
  903MOL0     C24533   5.548   7.602   9.246  0.2016 -0.8587  0.7127
  903MOL0     C24534   5.557   7.469   9.220 -0.8452  0.9617 -0.1241
  903MOL0     O24535   5.480   7.385   9.296  0.4831 -0.4227  0.2023
  903MOL0     C24536   5.524   7.247   9.303 -0.2225  0.3340 -0.1161
  903MOL0     C24537   5.485   7.191   9.441  0.5520 -0.3123  0.3178
  903MOL0     C24538   5.586   7.204   9.552  0.1645 -1.0390  0.2173
  903MOL0     C24539   5.537   7.151   9.692 -0.6413  0.3867 -0.4199
  903MOL0     C24540   5.651   7.145   9.788  0.3210 -0.3559 -0.5600
  903MOL0     C24541   5.734   7.140   9.873 -0.7074  0.2050 -0.1161
  903MOL0     C24542   5.643   7.435   9.108  0.3743 -0.3078  0.5951
  903MOL0     C24543   5.703   7.532   9.031 -0.1512  0.9814  0.0075
  903MOL0     C24544   5.780   7.475   8.909  0.7909  1.0026 -0.1570
  903MOL0     H24545   5.780   8.157   9.082  0.9860 -0.8815 -0.0386
  903MOL0     H24546   5.879   8.334   8.934  1.4504  1.2031 -2.7636
  903MOL0     H24547   5.865   8.233   8.485 -1.0338 -0.4653 -0.0424
  903MOL0     H24548   6.021   8.186   8.549 -2.0100 -0.9930 -1.8228
  903MOL0     H24549   6.007   8.356   8.368  0.8159  2.0977 -0.7507
  903MOL0     H24550   5.947   8.473   8.485 -3.2505 -2.9541  0.4655
  903MOL0     H24551   6.177   8.400   8.629 -0.9599  0.8324  0.0449
  903MOL0     H24552   6.216   8.334   8.467 -0.6892 -1.0564 -0.8083
  903MOL0     H24553   6.310   8.536   8.461 -0.2095  1.2582 -0.8929
  903MOL0     H24554   6.145   8.558   8.385 -3.1520 -0.0538  2.3908
  903MOL0     H24555   6.222   8.619   8.674  0.2060  2.0396  1.0282
  903MOL0     H24556   6.066   8.645   8.595  0.5008  0.9988  1.3691
  903MOL0     H24557   6.326   8.790   8.536  0.2043  1.7345 -2.5597
  903MOL0     H24558   6.162   8.828   8.466  1.4727 -0.7869 -1.1302
  903MOL0     H24559   6.274   8.856   8.741 -2.2285  1.5920  2.4567
  903MOL0     H24560   6.101   8.837   8.726  1.6882 -1.8072  3.9766
  903MOL0     H24561   6.194   9.086   8.750 -1.5613 -2.0799  1.0482
  903MOL0     H24562   6.287   9.056   8.601  0.4709  0.6148  1.6162
  903MOL0     H24563   5.927   8.934   8.574 -1.0823 -0.1503 -0.6378
  903MOL0     H24564   5.763   9.066   8.330 -0.3661  1.4465 -0.8168
  903MOL0     H24565   5.771   9.237   8.337  0.5535  0.9697  0.4363
  903MOL0     H24566   5.646   9.088   8.564 -0.2812 -1.3826 -0.2111
  903MOL0     H24567   5.646   9.258   8.543 -1.0448 -1.9007  3.3179
  903MOL0     H24568   5.528   9.238   8.325  1.2743  0.7376  1.2256
  903MOL0     H24569   5.522   9.060   8.341  3.0189 -0.0223 -1.3435
  903MOL0     H24570   5.391   9.265   8.522 -0.9324 -0.9425  1.7441
  903MOL0     H24571   5.302   9.153   8.410 -0.4299 -1.4610  0.2698
  903MOL0     H24572   5.318   8.870   8.708 -0.9067 -1.5806 -5.0335
  903MOL0     H24573   5.010   8.764   8.899 -2.0671 -3.2385 -1.3462
  903MOL0     H24574   5.186   8.738   8.859  0.3204  2.2541 -0.9665
  903MOL0     H24575   5.059   8.691   8.747  0.5148  1.5956 -2.0283
  903MOL0     H24576   4.630   9.207   8.871 -2.8929  1.5116  1.5433
  903MOL0     H24577   4.418   9.170   8.996 -3.2306 -2.0263 -0.6593
  903MOL0     H24578   4.172   8.901   8.812  3.3957  1.7314 -1.2882
  903MOL0     H24579   4.183   8.775   8.941  0.0231  0.3274 -3.9662
  903MOL0     H24580   4.009   8.859   9.079 -3.1557  3.2261  1.2797
  903MOL0     H24581   4.001   8.999   8.978  2.4993  0.9759  1.9671
  903MOL0     H24582   3.859   8.758   8.969 -1.7172 -1.7840 -2.0973
  903MOL0     H24583   3.983   8.728   8.852  0.7543  0.7454  0.1521
  903MOL0     H24584   3.905   8.932   8.713  0.7117 -3.4142 -2.7779
  903MOL0     H24585   3.786   8.955   8.850 -1.5391 -0.7368 -1.1287
  903MOL0     H24586   3.796   8.718   8.657  2.0462  0.1085  2.8351
  903MOL0     H24587   3.675   8.755   8.782 -0.5930  1.0195 -0.6372
  903MOL0     H24588   3.758   8.916   8.539  1.3761 -1.1043  0.1687
  903MOL0     H24589   3.616   8.960   8.661 -0.5224 -2.9747  2.8611
  903MOL0     H24590   3.523   8.745   8.575  0.4387 -0.2672 -2.0717
  903MOL0     H24591   3.646   8.745   8.453  2.4634  2.4541  0.3396
  903MOL0     H24592   3.446   8.964   8.494 -2.6767 -0.0965 -1.5139
  903MOL0     H24593   3.425   8.850   8.366  0.3000 -0.2687  0.5918
  903MOL0     H24594   4.383   8.770   8.852  0.9738  0.1409 -1.8532
  903MOL0     H24595   4.593   8.810   8.710  1.6595  1.5433 -1.2006
  903MOL0     H24596   4.942   9.199   8.679 -0.3757  0.3130  3.0951
  903MOL0     H24597   5.171   9.249   8.570  2.5020 -0.7312 -0.9955
  903MOL0     H24598   5.777   8.083   8.595  3.2321 -0.5432 -0.1223
  903MOL0     H24599   5.685   7.918   8.727  0.4318 -0.8654 -0.1275
  903MOL0     H24600   5.580   7.800   9.195  4.9726  0.7417  0.8474
  903MOL0     H24601   5.492   7.646   9.328  0.2723 -0.5000  0.5661
  903MOL0     H24602   5.477   7.189   9.223 -0.6071 -0.8874  0.9387
  903MOL0     H24603   5.633   7.241   9.299 -0.3053 -1.9142 -0.3154
  903MOL0     H24604   5.492   7.084   9.422  2.0033 -0.6199  2.1952
  903MOL0     H24605   5.388   7.227   9.475  0.1367 -0.8673 -0.2726
  903MOL0     H24606   5.675   7.147   9.524 -0.3965 -1.0992 -1.5684
  903MOL0     H24607   5.617   7.308   9.564 -4.7052  0.3381  4.8277
  903MOL0     H24608   5.487   7.054   9.684  1.3367 -0.7007 -0.3033
  903MOL0     H24609   5.462   7.224   9.723 -2.9129 -1.6520 -0.8659
  903MOL0     H24610   5.801   7.151   9.956 -0.5922 -1.4468  0.0455
  903MOL0     H24611   5.659   7.331   9.080  1.8995 -0.0295  0.3638
  903MOL0     H24612   5.772   7.537   8.819 -1.9105 -0.9892 -1.3939
  903MOL0     H24613   5.885   7.458   8.937  0.5645 -2.1043 -0.8416
  903MOL0     H24614   5.736   7.378   8.884  2.8563  0.4806 -2.0476
  904MOL0     O24615   7.294   9.347   2.664 -0.6402  0.9637  0.5776
  904MOL0     C24616   7.219   9.407   2.589 -0.6852  0.0256  0.9432
  904MOL0     O24617   7.243   9.439   2.462 -0.1699 -0.6793  1.1729
  904MOL0     C24618   7.371   9.461   2.433 -0.8469  0.9794  0.1403
  904MOL0     C24619   7.434   9.381   2.340 -0.0315  0.4512 -0.1458
  904MOL0     C24620   7.565   9.410   2.295  1.0518  0.6017  0.2841
  904MOL0     C24621   7.642   9.505   2.361  0.6384  0.5957 -0.0044
  904MOL0     O24622   7.758   9.551   2.302  0.5938  0.1582  0.6925
  904MOL0     C24623   7.883   9.539   2.377  0.0375  0.6035  0.1410
  904MOL0     C24624   7.980   9.657   2.364 -0.4981  0.0239 -0.9861
  904MOL0     C24625   8.030   9.650   2.223  0.4001  0.2878 -0.3973
  904MOL0     C24626   8.116   9.764   2.182 -0.3598 -0.8974  0.5321
  904MOL0     C24627   8.166   9.743   2.043 -0.3653  0.7510  0.6010
  904MOL0     C24628   8.244   9.857   1.989 -0.5128 -0.0912  0.1926
  904MOL0     C24629   8.234   9.859   1.828  0.0848 -0.1167 -0.3994
  904MOL0     C24630   8.336   9.783   1.750 -0.1772 -0.8265  0.3564
  904MOL0     N24631   8.471   9.850   1.755 -0.2580 -0.2440  0.3490
  904MOL0     C24632   8.573   9.824   1.836  0.2906 -0.3374 -0.0640
  904MOL0     C24633   8.664   9.922   1.807 -0.2618  0.3082  0.4161
  904MOL0     C24634   8.790   9.959   1.887 -1.0874  0.5515  0.5100
  904MOL0     C24635   8.915   9.906   1.809  0.4441 -0.3745  0.9074
  904MOL0     C24636   8.933   9.972   1.673 -0.9211 -0.1594 -0.0107
  904MOL0     C24637   9.046   9.915   1.589 -0.1577 -0.7804  0.8825
  904MOL0     O24638   9.168   9.895   1.674  0.3121 -0.0641  0.8726
  904MOL0     C24639   9.265   9.812   1.629  0.8616  0.0794 -0.0771
  904MOL0     C24640   9.348   9.771   1.737  0.9993  0.5816 -0.1206
  904MOL0     C24641   9.457   9.681   1.708  0.4392 -0.4242 -0.5646
  904MOL0     C24642   9.537   9.638   1.830 -0.2200  0.2603 -0.8401
  904MOL0     C24643   9.471   9.632   1.579 -0.8297 -0.7254 -0.5196
  904MOL0     C24644   9.579   9.518   1.544  0.6308 -0.3507  0.3256
  904MOL0     O24645   9.584   9.498   1.412  0.4743  0.3620 -0.7448
  904MOL0     C24646   9.702   9.438   1.359  0.4898  0.1878  0.8143
  904MOL0     C24647   9.686   9.350   1.254  0.1340 -0.7792  0.4212
  904MOL0     C24648   9.790   9.283   1.191 -0.2472 -0.1812 -0.6654
  904MOL0     C24649   9.927   9.300   1.240 -0.3508  1.1585 -1.0719
  904MOL0     O24650  10.043   9.245   1.177  0.2938  0.6524 -0.3530
  904MOL0     C24651  10.043   9.165   1.067 -0.1817  0.6007 -0.0308
  904MOL0     C24652  10.104   9.238   0.958  0.1599 -0.2098  0.9766
  904MOL0     C24653  10.080   9.154   0.832 -0.4323  0.0962  0.1389
  904MOL0     C24654  10.172   9.220   0.724  0.6010  0.1685 -0.5884
  904MOL0     C24655  10.172   9.132   0.598  0.5999 -0.1170 -0.0267
  904MOL0     C24656  10.260   9.181   0.476  0.1923 -0.1590 -0.7828
  904MOL0     C24657  10.378   9.088   0.445 -0.1672  0.5694  0.9339
  904MOL0     C24658  10.430   9.118   0.305 -0.3115 -0.8111  0.7250
  904MOL0    Cl24659  10.506   8.982   0.220 -0.3144 -0.0146  0.0833
  904MOL0     C24660   9.944   9.391   1.350  0.1380 -0.2787  0.1530
  904MOL0     C24661   9.832   9.461   1.404 -0.7531  0.1184  0.1388
  904MOL0     O24662   9.645   9.457   1.626 -0.7951 -0.4741  0.2899
  904MOL0     C24663   9.376   9.662   1.487 -0.4870 -0.3413 -1.0403
  904MOL0     C24664   9.278   9.759   1.503 -0.4300  0.9819  0.5960
  904MOL0     N24665   8.609  10.009   1.713  0.2457  0.1126  0.1006
  904MOL0     N24666   8.494   9.963   1.684 -0.2437 -0.3545 -0.1299
  904MOL0     C24667   7.584   9.571   2.472 -0.4240  0.2767  0.8494
  904MOL0     C24668   7.443   9.559   2.499  0.2731  0.2949  0.6024
  904MOL0     C24669   7.085   9.434   2.655 -0.5367  0.1445  0.6423
  904MOL0     C24670   7.056   9.388   2.783 -0.3765  0.0224 -0.9539
  904MOL0     C24671   6.951   9.432   2.862 -0.5277  0.6421  0.4967
  904MOL0     C24672   6.870   9.528   2.804 -0.4121 -0.1538 -0.5143
  904MOL0     O24673   6.758   9.589   2.857  0.4096 -0.3861 -0.1164
  904MOL0     C24674   6.712   9.550   2.987 -0.3109 -0.3019 -0.5283
  904MOL0     C24675   6.593   9.628   3.044 -0.5044 -0.0015  0.6404
  904MOL0     C24676   6.545   9.590   3.183 -0.0239  0.1735 -1.0616
  904MOL0     C24677   6.430   9.679   3.244 -0.2168  0.5949  0.3820
  904MOL0     C24678   6.335   9.608   3.329 -0.4497 -0.0817 -0.4212
  904MOL0     C24679   6.264   9.533   3.385 -0.1717 -0.3087  0.2880
  904MOL0     C24680   6.886   9.572   2.679 -0.0623 -0.8185 -1.1303
  904MOL0     C24681   6.989   9.522   2.598  0.3667 -0.3751  0.0685
  904MOL0     C24682   6.982   9.576   2.458  0.1283  0.3984 -0.5089
  904MOL0     H24683   7.367   9.312   2.290 -0.5292  0.3866  0.5994
  904MOL0     H24684   7.610   9.358   2.211  2.7477  1.2930  0.7168
  904MOL0     H24685   7.936   9.450   2.343  3.2237  2.7838 -1.0267
  904MOL0     H24686   7.878   9.531   2.486  2.0567  0.7909  0.2766
  904MOL0     H24687   7.933   9.753   2.384  0.9720  0.6617 -0.4682
  904MOL0     H24688   8.065   9.649   2.431 -1.1413  1.7080  0.0830
  904MOL0     H24689   8.081   9.554   2.211  0.6263  0.3651 -0.0561
  904MOL0     H24690   7.948   9.649   2.151  1.5119  1.9862 -1.7779
  904MOL0     H24691   8.055   9.853   2.199 -1.2791 -1.4907  0.3889
  904MOL0     H24692   8.199   9.787   2.250 -0.4252  1.5724 -0.1185
  904MOL0     H24693   8.088   9.723   1.970  0.1245 -2.7070  0.8339
  904MOL0     H24694   8.220   9.648   2.039  0.2975  0.8935  3.4685
  904MOL0     H24695   8.215   9.948   2.043  0.7123  2.1552 -2.6465
  904MOL0     H24696   8.347   9.839   2.020 -1.2380 -0.2594  2.7077
  904MOL0     H24697   8.235   9.965   1.803 -2.4644 -0.1961 -1.1868
  904MOL0     H24698   8.141   9.809   1.800  0.7114 -2.8869  2.0149
  904MOL0     H24699   8.363   9.690   1.802  0.1828 -0.3449  1.0583
  904MOL0     H24700   8.309   9.758   1.647 -0.4424 -0.8101  0.4217
  904MOL0     H24701   8.585   9.742   1.906 -0.9986 -2.1332 -1.8604
  904MOL0     H24702   8.786   9.907   1.983 -1.2544 -0.8726 -0.2468
  904MOL0     H24703   8.792  10.068   1.887 -1.4862  0.6223  2.8795
  904MOL0     H24704   9.007   9.924   1.866  0.4225  0.4436  0.7089
  904MOL0     H24705   8.898   9.800   1.791 -4.0622  0.5981 -2.1837
  904MOL0     H24706   8.847   9.982   1.606 -0.5999 -3.1004 -0.9638
  904MOL0     H24707   8.975  10.070   1.698  0.2927 -0.8910  0.8934
  904MOL0     H24708   9.024   9.821   1.537  2.2284 -2.1793  2.1979
  904MOL0     H24709   9.058   9.988   1.509 -0.7810 -1.4913  0.1239
  904MOL0     H24710   9.331   9.822   1.832  1.9727 -0.7287  0.7848
  904MOL0     H24711   9.470   9.638   1.916 -0.6546 -3.7813 -0.9694
  904MOL0     H24712   9.624   9.704   1.831  1.5954 -1.9679  1.0943
  904MOL0     H24713   9.566   9.532   1.827 -1.3041 -0.1295  0.8835
  904MOL0     H24714   9.589   9.338   1.207  2.0375 -0.9205 -3.9916
  904MOL0     H24715   9.778   9.207   1.114 -0.5772 -0.2845 -0.5115
  904MOL0     H24716  10.096   9.071   1.084 -2.0819 -0.6730 -0.8188
  904MOL0     H24717   9.941   9.136   1.041 -0.2728  0.4164  0.5161
  904MOL0     H24718  10.044   9.329   0.949 -2.2833 -1.6832  1.4418
  904MOL0     H24719  10.211   9.257   0.966  0.5728 -2.3214  0.9694
  904MOL0     H24720   9.974   9.144   0.805 -0.3721 -2.9424  0.6379
  904MOL0     H24721  10.113   9.052   0.851  1.6198  1.1639  3.0663
  904MOL0     H24722  10.274   9.226   0.763  0.4406  2.4454 -0.3441
  904MOL0     H24723  10.128   9.317   0.700  2.3723  1.3440  0.6739
  904MOL0     H24724  10.197   9.031   0.633  0.2309 -0.4220 -0.6280
  904MOL0     H24725  10.069   9.131   0.561  0.5454  4.1677 -0.4322
  904MOL0     H24726  10.303   9.281   0.488 -0.2109 -0.0783  0.0538
  904MOL0     H24727  10.195   9.198   0.390 -0.8459  1.3884  0.2507
  904MOL0     H24728  10.358   8.980   0.447  2.3538 -0.0664 -1.7511
  904MOL0     H24729  10.451   9.112   0.523  1.7667  0.1508 -0.6848
  904MOL0     H24730  10.499   9.202   0.316 -0.0961 -0.6286 -1.5654
  904MOL0     H24731  10.341   9.150   0.250 -1.1169 -0.6318  2.0716
  904MOL0     H24732  10.043   9.399   1.392 -0.7065 -0.2076  2.2706
  904MOL0     H24733   9.853   9.529   1.486 -0.9057  1.6559 -1.0539
  904MOL0     H24734   9.379   9.616   1.389 -0.8112  0.4891 -1.4536
  904MOL0     H24735   9.213   9.791   1.422  1.5047 -1.8092 -2.3371
  904MOL0     H24736   7.639   9.634   2.541 -0.3188  1.6356 -0.4358
  904MOL0     H24737   7.399   9.622   2.576  0.2027 -0.1813  0.9541
  904MOL0     H24738   7.129   9.323   2.830 -0.4545 -0.9698 -2.1540
  904MOL0     H24739   6.930   9.384   2.957 -1.7426 -3.3448 -1.5619
  904MOL0     H24740   6.707   9.441   2.991  2.0410 -0.6343 -3.0579
  904MOL0     H24741   6.796   9.585   3.049 -2.4482  1.5042  1.5171
  904MOL0     H24742   6.525   9.598   2.963  0.7573 -1.0111 -0.0872
  904MOL0     H24743   6.609   9.736   3.036  1.0461 -0.1021  2.0153
  904MOL0     H24744   6.508   9.487   3.184  1.3500 -0.4747 -4.1126
  904MOL0     H24745   6.629   9.601   3.252 -1.4678  0.3218  0.7353
  904MOL0     H24746   6.367   9.713   3.161  1.5464 -2.4393 -2.4239
  904MOL0     H24747   6.485   9.762   3.290  0.4854  0.4388 -0.1526
  904MOL0     H24748   6.196   9.477   3.446 -0.8661 -0.8317 -0.9359
  904MOL0     H24749   6.805   9.636   2.645 -0.5122 -0.2835  0.8030
  904MOL0     H24750   7.049   9.662   2.448  0.5031  0.0061 -1.4731
  904MOL0     H24751   7.012   9.501   2.384 -1.8960  0.1724 -1.1545
  904MOL0     H24752   6.880   9.613   2.445  0.8653  3.2775  0.8563
  905MOL0     O24753   8.844   7.847  11.119  0.4898  0.3396  0.8820
  905MOL0     C24754   8.811   7.952  11.067  0.2170 -0.3070 -0.7994
  905MOL0     O24755   8.689   8.014  11.095  0.8326 -1.3195 -0.5383
  905MOL0     C24756   8.607   7.939  11.185 -0.3517 -0.2731 -0.0864
  905MOL0     C24757   8.546   7.819  11.142 -0.1252  0.5961 -0.1275
  905MOL0     C24758   8.461   7.760  11.237  0.2484 -0.1515 -0.4776
  905MOL0     C24759   8.430   7.818  11.358  0.2702 -0.1733 -0.5812
  905MOL0     O24760   8.327   7.752  11.420  0.1444  0.4770  0.6402
  905MOL0     C24761   8.283   7.801  11.546  0.7114  0.0270 -1.3159
  905MOL0     C24762   8.373   7.763  11.658  0.6555 -0.0843  0.3968
  905MOL0     C24763   8.322   7.831  11.788 -1.8587  0.6130  0.3105
  905MOL0     C24764   8.426   7.831  11.906  0.0927 -0.5995  0.3409
  905MOL0     C24765   8.391   7.963  11.992 -0.4159  0.0316  0.4729
  905MOL0     C24766   8.503   8.072  11.977  0.3084 -0.8222 -0.1261
  905MOL0     C24767   8.652   8.027  12.012  0.2099 -0.6436  0.6246
  905MOL0     C24768   8.674   7.970  12.147  0.8761  1.1433 -0.6900
  905MOL0     N24769   8.791   7.883  12.148  0.9175 -0.7134 -0.7965
  905MOL0     C24770   8.794   7.756  12.098 -0.4533 -0.1916 -0.2568
  905MOL0     C24771   8.926   7.728  12.089  0.1318 -0.1606 -0.2458
  905MOL0     C24772   8.989   7.594  12.045  0.1829 -0.8097  0.0613
  905MOL0     C24773   9.058   7.614  11.915 -0.4222  0.0829  0.8505
  905MOL0     C24774   9.132   7.482  11.861  0.6292 -0.1978 -0.8810
  905MOL0     C24775   9.165   7.515  11.716 -0.5325 -0.9328 -0.4993
  905MOL0     O24776   9.236   7.403  11.667  0.1021  0.0291  0.4997
  905MOL0     C24777   9.194   7.329  11.561 -0.1996 -0.0161 -0.8538
  905MOL0     C24778   9.281   7.293  11.463  0.0393  0.8886  0.3433
  905MOL0     C24779   9.227   7.225  11.350  0.7334 -0.7154 -0.8768
  905MOL0     C24780   9.323   7.191  11.241  0.2788  0.2273 -0.3122
  905MOL0     C24781   9.090   7.173  11.346  0.3438  0.5266 -0.7485
  905MOL0     C24782   9.035   7.081  11.245  0.0974 -0.9753  0.6804
  905MOL0     O24783   8.906   7.102  11.220 -0.1028  0.4300  0.5020
  905MOL0     C24784   8.845   7.025  11.127  0.1472 -1.1102  0.0439
  905MOL0     C24785   8.891   7.042  10.994  0.3565 -0.0565  0.4346
  905MOL0     C24786   8.829   6.960  10.898 -0.3750 -1.2074  0.5937
  905MOL0     C24787   8.730   6.863  10.934  0.3998 -0.0515  0.2675
  905MOL0     O24788   8.679   6.778  10.832  0.6413  0.6691  0.3473
  905MOL0     C24789   8.598   6.663  10.883  0.3969 -0.4645  0.6188
  905MOL0     C24790   8.584   6.558  10.773 -0.3069  0.3798  0.3480
  905MOL0     C24791   8.700   6.467  10.762 -0.3682  0.1880 -0.6083
  905MOL0     C24792   8.741   6.416  10.622  0.1981  0.3859  0.0790
  905MOL0     C24793   8.808   6.282  10.621  0.2305  0.6382 -0.5485
  905MOL0     C24794   8.967   6.292  10.659  0.0906  0.0047  0.3353
  905MOL0     C24795   9.045   6.171  10.608  0.0068 -0.1883  0.0819
  905MOL0     C24796   9.197   6.177  10.636 -0.2445 -0.5961 -0.1474
  905MOL0    Cl24797   9.270   6.263  10.491 -0.3915  0.2596  0.0248
  905MOL0     C24798   8.695   6.853  11.068 -0.5405  0.7378  1.0670
  905MOL0     C24799   8.751   6.935  11.162 -0.1653 -0.3588  0.4654
  905MOL0     O24800   9.101   6.986  11.191 -0.6352 -0.2236  0.4966
  905MOL0     C24801   9.003   7.209  11.450  0.2670  0.3957 -0.4714
  905MOL0     C24802   9.057   7.292  11.544  0.2609 -0.9226  0.5850
  905MOL0     N24803   9.000   7.840  12.141  0.3390  0.2686  0.1118
  905MOL0     N24804   8.909   7.930  12.172  0.6985  0.5362 -0.4380
  905MOL0     C24805   8.488   7.943  11.392  0.2484 -0.9023 -0.1005
  905MOL0     C24806   8.583   7.996  11.313 -0.5885  0.1962 -0.0488
  905MOL0     C24807   8.923   8.031  11.001  0.2246  0.3542 -0.0888
  905MOL0     C24808   8.891   8.164  10.968  1.0299  0.2110 -0.1024
  905MOL0     C24809   8.989   8.253  10.915  0.6993 -0.1278 -0.2318
  905MOL0     C24810   9.119   8.207  10.890  0.9750 -0.8433  0.2270
  905MOL0     O24811   9.209   8.300  10.836 -0.6669 -0.5600 -0.4799
  905MOL0     C24812   9.351   8.263  10.841  0.0178 -0.5224 -0.6505
  905MOL0     C24813   9.402   8.409  10.864 -0.3047 -0.9123  0.3159
  905MOL0     C24814   9.552   8.433  10.841  0.1118 -0.6638 -0.1472
  905MOL0     C24815   9.643   8.379  10.945 -0.4527 -0.1893  0.1192
  905MOL0     C24816   9.669   8.236  10.904  0.5008  0.5932  0.5061
  905MOL0     C24817   9.702   8.113  10.874 -0.2625 -0.6519 -0.3539
  905MOL0     C24818   9.146   8.073  10.915  0.6807  1.4809  0.2382
  905MOL0     C24819   9.056   7.982  10.975  1.0311 -1.1864  0.0501
  905MOL0     C24820   9.094   7.844  11.008  0.2709 -0.7157 -0.1467
  905MOL0     H24821   8.580   7.785  11.045 -0.4234 -1.7019  0.5101
  905MOL0     H24822   8.422   7.665  11.203 -0.5709  0.9664 -2.8854
  905MOL0     H24823   8.183   7.760  11.563 -0.2708  2.4266 -0.8004
  905MOL0     H24824   8.256   7.907  11.537  1.6587  0.6092  1.5150
  905MOL0     H24825   8.360   7.655  11.665 -1.4352 -0.0337 -1.4473
  905MOL0     H24826   8.477   7.790  11.635  1.0617 -0.3847  1.7953
  905MOL0     H24827   8.303   7.935  11.761 -2.0592 -0.3266 -3.9611
  905MOL0     H24828   8.231   7.773  11.808  0.2206 -3.6260 -1.2911
  905MOL0     H24829   8.426   7.746  11.974 -0.1761  1.2807  2.8407
  905MOL0     H24830   8.529   7.842  11.870  0.2905 -1.3430  0.6531
  905MOL0     H24831   8.374   7.942  12.098 -0.0937  1.2486  0.7777
  905MOL0     H24832   8.296   8.007  11.960 -1.3233 -0.1664  2.7167
  905MOL0     H24833   8.515   8.106  11.874  2.0765 -0.1514  0.2624
  905MOL0     H24834   8.491   8.161  12.039 -0.2867 -1.0820  0.1463
  905MOL0     H24835   8.721   8.110  11.992 -0.7311  0.4264  1.6788
  905MOL0     H24836   8.685   7.953  11.938  0.7416  0.9204 -0.7684
  905MOL0     H24837   8.683   8.039  12.231 -0.7817 -2.9966  3.3099
  905MOL0     H24838   8.588   7.905  12.163  1.9359 -0.5159 -1.4215
  905MOL0     H24839   8.711   7.690  12.074 -1.3539  1.6827 -2.8405
  905MOL0     H24840   8.919   7.510  12.043  2.0242 -2.4298 -1.7614
  905MOL0     H24841   9.071   7.567  12.112  0.2737 -0.2388  0.1817
  905MOL0     H24842   8.973   7.628  11.848 -1.9926 -0.1301  2.6947
  905MOL0     H24843   9.128   7.698  11.913  0.2840 -0.5112 -1.2099
  905MOL0     H24844   9.231   7.462  11.903  0.7804  0.9647 -0.6549
  905MOL0     H24845   9.060   7.399  11.870  1.4837 -0.7182  2.2708
  905MOL0     H24846   9.072   7.531  11.660  0.0057  0.6047 -1.0098
  905MOL0     H24847   9.231   7.601  11.705 -1.7382  0.3035  1.3550
  905MOL0     H24848   9.389   7.301  11.457  0.1603 -0.9409 -0.7413
  905MOL0     H24849   9.386   7.104  11.258 -1.4547 -1.5145 -2.1877
  905MOL0     H24850   9.386   7.280  11.234  1.6146 -0.1548  3.9791
  905MOL0     H24851   9.273   7.160  11.148  2.2438 -0.9109 -1.0532
  905MOL0     H24852   8.968   7.117  10.977  1.3523 -0.9462  0.8926
  905MOL0     H24853   8.871   6.970  10.798 -1.6576  2.7558  0.2877
  905MOL0     H24854   8.665   6.619  10.957  1.6888 -0.0380 -0.2500
  905MOL0     H24855   8.501   6.702  10.916  0.3121  0.9895 -1.1855
  905MOL0     H24856   8.500   6.494  10.797 -1.1659  0.5285 -2.0091
  905MOL0     H24857   8.565   6.602  10.675  1.8747 -2.0554 -1.2969
  905MOL0     H24858   8.672   6.389  10.833 -2.4525 -0.6989 -2.3088
  905MOL0     H24859   8.794   6.508  10.801  0.1161 -3.0288  2.0199
  905MOL0     H24860   8.801   6.488  10.565  2.8381 -0.8892  1.0985
  905MOL0     H24861   8.647   6.410  10.566 -0.3727  0.1935  1.0226
  905MOL0     H24862   8.760   6.214  10.692  1.1718  1.1683  0.6248
  905MOL0     H24863   8.806   6.252  10.516  3.0601  3.0372 -1.4209
  905MOL0     H24864   8.978   6.306  10.767 -2.8466  2.7093  0.4425
  905MOL0     H24865   9.003   6.385  10.614 -0.7832  1.2976  2.1613
  905MOL0     H24866   9.025   6.147  10.503  2.5124  2.1929 -1.0883
  905MOL0     H24867   9.005   6.088  10.666 -1.6298  0.6313  0.1886
  905MOL0     H24868   9.246   6.080  10.649  2.3466  0.8573  2.0162
  905MOL0     H24869   9.222   6.233  10.727  0.7951  0.9021 -1.3023
  905MOL0     H24870   8.624   6.782  11.109 -0.7408  1.4495  1.9821
  905MOL0     H24871   8.720   6.924  11.266  0.1019 -0.2490  0.5571
  905MOL0     H24872   8.898   7.181  11.444  0.5420 -1.2104  1.4465
  905MOL0     H24873   8.987   7.322  11.621 -0.0119  0.0854 -0.0352
  905MOL0     H24874   8.471   8.001  11.482  1.4345 -1.1981  0.3377
  905MOL0     H24875   8.634   8.087  11.342 -1.0800  1.1098 -1.9178
  905MOL0     H24876   8.790   8.199  10.988 -0.1131 -1.9270 -1.7459
  905MOL0     H24877   8.954   8.352  10.890  1.0134  0.2722  0.8509
  905MOL0     H24878   9.380   8.191  10.917 -4.2811  1.0098  2.8786
  905MOL0     H24879   9.387   8.236  10.741  0.4016  0.6438 -0.8379
  905MOL0     H24880   9.391   8.438  10.969  3.1351  0.5638  0.3966
  905MOL0     H24881   9.349   8.473  10.793  2.3390  0.1830 -0.7914
  905MOL0     H24882   9.593   8.403  10.745  1.9557 -0.2455  0.4610
  905MOL0     H24883   9.564   8.542  10.843 -0.0363 -0.5817 -2.1829
  905MOL0     H24884   9.584   8.371  11.036 -2.1138  0.2489 -0.8794
  905MOL0     H24885   9.730   8.444  10.954 -0.6320  0.3164 -1.4341
  905MOL0     H24886   9.729   8.010  10.861 -1.9991 -1.0688 -0.8821
  905MOL0     H24887   9.245   8.030  10.897 -0.0864  0.1296 -0.9721
  905MOL0     H24888   9.041   7.773  10.944  0.8032 -0.9052 -0.3814
  905MOL0     H24889   9.201   7.821  11.004  1.1307  1.6748  3.5361
  905MOL0     H24890   9.080   7.823  11.115 -0.5474 -0.9455 -0.2913
  906MOL0     O24891   9.608   4.990   8.610 -1.3798 -0.3825  0.6585
  906MOL0     C24892   9.669   4.891   8.564 -0.3139  0.4459 -0.2636
  906MOL0     O24893   9.750   4.892   8.460  0.0602  0.1674  0.5007
  906MOL0     C24894   9.802   5.013   8.429  0.8159  0.4622 -0.1615
  906MOL0     C24895   9.736   5.076   8.325 -0.3407 -0.0594 -0.0295
  906MOL0     C24896   9.778   5.193   8.260 -0.6033  0.7069 -0.2962
  906MOL0     C24897   9.889   5.250   8.308  0.0842 -0.4889 -0.1599
  906MOL0     O24898   9.949   5.367   8.259 -0.0456  0.2275  0.3717
  906MOL0     C24899   9.853   5.469   8.226 -0.8858 -0.1564 -0.0670
  906MOL0     C24900   9.922   5.605   8.195  0.1278  1.1934 -0.4225
  906MOL0     C24901   9.986   5.682   8.317 -0.5708  0.7471  0.7813
  906MOL0     C24902   9.889   5.695   8.427  0.2846  0.5672 -0.5012
  906MOL0     C24903   9.955   5.697   8.564  0.1055  0.5439 -0.1256
  906MOL0     C24904  10.052   5.816   8.575 -0.4493  0.2044 -0.4484
  906MOL0     C24905   9.982   5.960   8.548 -0.2807 -0.9522 -0.4846
  906MOL0     C24906  10.076   6.082   8.536  0.1695 -0.3810 -0.8399
  906MOL0     N24907  10.129   6.110   8.673 -0.0060 -0.0920 -0.7208
  906MOL0     C24908  10.198   6.031   8.763 -0.6229 -1.8915  0.1042
  906MOL0     C24909  10.198   6.099   8.886 -0.0109  0.3805  0.7394
  906MOL0     C24910  10.265   6.069   9.013  0.4482 -0.2373 -0.1800
  906MOL0     C24911  10.176   6.005   9.116  1.5340 -0.3431  0.2845
  906MOL0     C24912  10.241   5.976   9.253  0.5114  0.7480 -0.3408
  906MOL0     C24913  10.348   6.068   9.310 -0.8482 -0.5509 -0.3363
  906MOL0     O24914  10.412   6.019   9.426 -0.7337 -0.0852 -0.7656
  906MOL0     C24915  10.515   5.933   9.407 -0.9637 -0.0641 -0.1525
  906MOL0     C24916  10.580   5.892   9.283 -0.5679  0.4314  0.0599
  906MOL0     C24917  10.676   5.795   9.280  0.3058 -0.7952 -0.2203
  906MOL0     C24918  10.728   5.756   9.140 -0.1474 -0.5994 -0.0174
  906MOL0     C24919  10.739   5.748   9.399 -0.2010 -0.3756 -0.9622
  906MOL0     C24920  10.862   5.661   9.413  0.1903 -0.3328 -0.2275
  906MOL0     O24921  10.889   5.625   9.549 -0.1439 -0.1298 -0.2882
  906MOL0     C24922  10.986   5.542   9.579 -0.7533  0.2424  0.0115
  906MOL0     C24923  10.954   5.415   9.597  0.4742 -0.1485  0.8332
  906MOL0     C24924  11.056   5.319   9.613  0.5762 -0.1517  0.6156
  906MOL0     C24925  11.187   5.354   9.616 -0.3171  0.3465  0.9949
  906MOL0     O24926  11.281   5.255   9.642  0.7203 -0.5571 -0.5117
  906MOL0     C24927  11.421   5.287   9.665  0.0870  0.0068 -0.2027
  906MOL0     C24928  11.466   5.329   9.809  0.1936  0.6013  0.2866
  906MOL0     C24929  11.613   5.289   9.841  0.2411  0.5281  0.0554
  906MOL0     C24930  11.643   5.296   9.987  0.0838  0.1278 -0.0240
  906MOL0     C24931  11.778   5.223  10.012 -0.4781 -0.3602  0.1274
  906MOL0     C24932  11.782   5.196  10.161 -0.1577  0.4643 -0.0361
  906MOL0     C24933  11.914   5.127  10.206 -0.1406 -1.3307 -0.1063
  906MOL0     C24934  11.929   5.104  10.350 -0.6239  0.0717 -0.9912
  906MOL0    Cl24935  12.019   4.953  10.393 -0.8411 -0.1280  0.2056
  906MOL0     C24936  11.218   5.487   9.604  0.0133 -0.3914  0.7065
  906MOL0     C24937  11.117   5.588   9.581 -1.1121  0.2616 -0.4016
  906MOL0     O24938  10.917   5.620   9.312 -0.1387 -0.2520  0.6218
  906MOL0     C24939  10.676   5.785   9.522 -0.3543  1.2231  0.4991
  906MOL0     C24940  10.569   5.884   9.524  0.1795  0.6043 -0.9059
  906MOL0     N24941  10.115   6.214   8.872  1.2698 -0.1247  0.6654
  906MOL0     N24942  10.074   6.212   8.744  0.3371 -0.1221 -0.0333
  906MOL0     C24943   9.962   5.187   8.411  0.0255 -0.0718 -0.4145
  906MOL0     C24944   9.919   5.070   8.483  0.6813 -0.1204 -0.6466
  906MOL0     C24945   9.662   4.758   8.635  0.3560 -0.1869 -0.4949
  906MOL0     C24946   9.642   4.769   8.774  0.7281  0.0495 -0.1964
  906MOL0     C24947   9.653   4.653   8.849  0.6706  0.5894 -0.3694
  906MOL0     C24948   9.667   4.525   8.798  1.4177  0.2912  0.6002
  906MOL0     O24949   9.651   4.426   8.894 -1.0447 -0.5755 -0.5725
  906MOL0     C24950   9.708   4.293   8.877 -0.7468  0.1113 -0.5461
  906MOL0     C24951   9.859   4.281   8.822  1.1156 -0.5134  0.3861
  906MOL0     C24952   9.950   4.355   8.927  0.3324 -0.1302  0.0990
  906MOL0     C24953  10.098   4.332   8.901  0.0880 -0.6648  0.3655
  906MOL0     C24954  10.159   4.413   9.000 -0.7158 -0.3063 -0.6046
  906MOL0     C24955  10.212   4.469   9.091  0.6467 -0.7135 -0.4450
  906MOL0     C24956   9.649   4.509   8.663 -0.2248 -0.3254  0.3619
  906MOL0     C24957   9.652   4.626   8.579  0.0838  0.4208  0.4246
  906MOL0     C24958   9.667   4.597   8.431 -0.7631  0.5122 -0.0332
  906MOL0     H24959   9.642   5.040   8.285 -0.0194 -1.3838  0.3633
  906MOL0     H24960   9.704   5.232   8.190 -0.8341  0.5651 -0.1310
  906MOL0     H24961   9.775   5.462   8.303  0.2221 -1.4723  1.0027
  906MOL0     H24962   9.801   5.450   8.132  1.4563 -1.6347 -1.1451
  906MOL0     H24963  10.013   5.591   8.134  0.8275  1.0721  0.6261
  906MOL0     H24964   9.854   5.674   8.145 -1.2531 -1.2234 -2.0663
  906MOL0     H24965  10.082   5.639   8.343 -1.4659 -0.4871  2.2233
  906MOL0     H24966   9.996   5.785   8.281 -4.2035  1.4299  1.2399
  906MOL0     H24967   9.809   5.769   8.419  1.0069  1.7319  2.0468
  906MOL0     H24968   9.828   5.604   8.428  0.3271  0.4634 -2.3258
  906MOL0     H24969  10.012   5.604   8.573 -1.1028 -0.4694 -2.0704
  906MOL0     H24970   9.883   5.693   8.647 -0.4487  0.7143 -0.5884
  906MOL0     H24971  10.103   5.805   8.671  0.9809 -1.4051 -1.3307
  906MOL0     H24972  10.136   5.805   8.506 -0.2946 -0.4811 -0.1599
  906MOL0     H24973   9.910   5.990   8.624 -1.3388 -3.3364 -0.4539
  906MOL0     H24974   9.924   5.964   8.455 -3.0761 -1.1712  1.1475
  906MOL0     H24975  10.155   6.056   8.465  0.6926 -1.7966  0.2137
  906MOL0     H24976  10.016   6.161   8.489 -3.6797 -2.3322  0.3371
  906MOL0     H24977  10.256   5.942   8.740 -0.9652 -2.7270  2.2646
  906MOL0     H24978  10.306   6.165   9.048 -0.6374 -0.3833  1.6632
  906MOL0     H24979  10.347   5.998   8.998  0.3780 -1.8696  4.9961
  906MOL0     H24980  10.090   6.070   9.132 -0.4791 -2.4949 -1.1257
  906MOL0     H24981  10.137   5.905   9.093 -1.0088  0.1217  2.1480
  906MOL0     H24982  10.156   5.971   9.322 -2.3740  1.0555 -3.5703
  906MOL0     H24983  10.281   5.877   9.228  0.2389  0.2734  1.0100
  906MOL0     H24984  10.416   6.091   9.228 -0.9059 -1.8339 -0.7595
  906MOL0     H24985  10.308   6.167   9.335 -2.2347 -0.9777 -0.7474
  906MOL0     H24986  10.550   5.933   9.186 -0.3675  0.4906  0.0230
  906MOL0     H24987  10.731   5.648   9.125 -0.1664 -0.4779 -0.9287
  906MOL0     H24988  10.829   5.798   9.127 -0.1101  0.3722  2.6996
  906MOL0     H24989  10.658   5.799   9.067 -0.6725 -1.8300 -0.2588
  906MOL0     H24990  10.848   5.394   9.595  0.2285  1.0053  1.0095
  906MOL0     H24991  11.026   5.215   9.624  1.8591 -0.4378  1.7353
  906MOL0     H24992  11.474   5.195   9.637  1.2581  1.1652 -2.0341
  906MOL0     H24993  11.467   5.350   9.588  0.4703 -1.4211 -1.1759
  906MOL0     H24994  11.468   5.438   9.812 -1.1918  0.6535 -0.0879
  906MOL0     H24995  11.402   5.278   9.882 -0.6248  4.1467  2.2981
  906MOL0     H24996  11.689   5.352   9.793 -0.0382  1.5689  0.9377
  906MOL0     H24997  11.628   5.191   9.795 -1.0472  1.0166 -1.4747
  906MOL0     H24998  11.555   5.254  10.038 -0.7908 -0.6380 -2.0580
  906MOL0     H24999  11.650   5.394  10.035 -1.6006 -0.8049  2.3529
  906MOL0     H25000  11.797   5.126   9.966  2.3739  0.2920 -0.2517
  906MOL0     H25001  11.857   5.292   9.979 -0.7300 -0.4691 -0.7311
  906MOL0     H25002  11.695   5.137  10.193 -1.4049  0.4004 -3.2139
  906MOL0     H25003  11.778   5.291  10.215 -0.1047  0.0149  0.7725
  906MOL0     H25004  12.002   5.177  10.163  0.8119 -3.7333 -1.1670
  906MOL0     H25005  11.931   5.035  10.149  3.6253 -0.6088 -0.4400
  906MOL0     H25006  11.830   5.091  10.395 -1.7746  0.1301 -3.3458
  906MOL0     H25007  11.967   5.195  10.398 -2.6324  1.2009 -1.4227
  906MOL0     H25008  11.320   5.525   9.612  0.7022 -2.1917  0.8624
  906MOL0     H25009  11.157   5.683   9.547  2.5194 -1.0087 -0.0899
  906MOL0     H25010  10.701   5.729   9.611 -4.2305  1.1281  1.7096
  906MOL0     H25011  10.526   5.903   9.622 -1.9438 -2.6011 -1.0674
  906MOL0     H25012  10.046   5.253   8.428 -1.2018  1.4527 -0.0103
  906MOL0     H25013   9.975   5.026   8.565 -0.0663 -1.1990 -0.6987
  906MOL0     H25014   9.638   4.868   8.819  0.4115  1.0263 -2.2367
  906MOL0     H25015   9.651   4.654   8.958 -2.8286 -1.0704 -0.2825
  906MOL0     H25016   9.715   4.261   8.981  0.2819  0.0217 -0.6294
  906MOL0     H25017   9.638   4.229   8.822  0.9258 -0.9663 -1.4982
  906MOL0     H25018   9.861   4.324   8.721 -2.7964 -2.4228 -0.6779
  906MOL0     H25019   9.903   4.181   8.823  2.9940  0.2582  2.1706
  906MOL0     H25020   9.933   4.463   8.927 -0.5487 -0.2616 -0.3687
  906MOL0     H25021   9.917   4.322   9.027 -2.0091 -0.9433 -0.8706
  906MOL0     H25022  10.135   4.361   8.803  0.6221 -3.5499 -0.3726
  906MOL0     H25023  10.124   4.232   8.939 -0.4805 -1.2828 -0.8289
  906MOL0     H25024  10.264   4.506   9.177 -1.2451 -0.7460  0.7739
  906MOL0     H25025   9.636   4.412   8.616 -0.2609  0.0361 -0.3925
  906MOL0     H25026   9.623   4.677   8.371  0.2494  0.8878 -0.2969
  906MOL0     H25027   9.776   4.594   8.416 -0.1544  1.5808  3.3329
  906MOL0     H25028   9.628   4.499   8.402 -0.1051  0.1061  0.4330
  907MOL0     O25029   9.756   9.704   6.374 -0.3671  0.0603  0.0024
  907MOL0     C25030   9.756   9.784   6.282  0.4834  0.1811 -0.1327
  907MOL0     O25031   9.658   9.795   6.184 -0.5262 -0.1333  0.3620
  907MOL0     C25032   9.610   9.914   6.150  0.2211 -0.5931 -0.3935
  907MOL0     C25033   9.537   9.921   6.033  0.0012 -0.3463  0.0066
  907MOL0     C25034   9.478  10.042   5.985 -0.0618  1.0295 -0.2393
  907MOL0     C25035   9.491  10.161   6.053 -0.1995  0.7771 -0.0909
  907MOL0     O25036   9.449  10.272   5.988  0.4001  0.1470 -0.4568
  907MOL0     C25037   9.466  10.392   6.058 -0.4309 -0.1375 -1.1709
  907MOL0     C25038   9.420  10.505   5.972  0.1189  0.2245  0.2154
  907MOL0     C25039   9.450  10.482   5.820 -0.4649 -0.1682 -0.3690
  907MOL0     C25040   9.400  10.596   5.732  0.1001  0.2657 -0.2658
  907MOL0     C25041   9.446  10.590   5.590 -0.5618 -0.2430 -0.2000
  907MOL0     C25042   9.386  10.465   5.520 -0.2765  0.0779 -0.2163
  907MOL0     C25043   9.236  10.474   5.451  0.3410  0.4005 -0.3788
  907MOL0     C25044   9.212  10.590   5.353 -0.3233  0.1596  0.1390
  907MOL0     N25045   9.323  10.607   5.259 -0.5984  0.2442  0.5815
  907MOL0     C25046   9.434  10.690   5.255  0.0887  0.0081  0.2491
  907MOL0     C25047   9.515  10.641   5.163 -0.3016 -0.1937 -0.4200
  907MOL0     C25048   9.647  10.707   5.118  0.5152  0.0341 -0.3142
  907MOL0     C25049   9.735  10.605   5.046  0.3861  0.1519  0.5716
  907MOL0     C25050   9.862  10.674   4.994  0.2911 -0.3667  0.3817
  907MOL0     C25051   9.856  10.771   4.877 -1.1859  0.2037  0.5134
  907MOL0     O25052   9.949  10.884   4.889 -0.0003 -0.3303  0.1289
  907MOL0     C25053   9.939  11.003   4.821 -0.9609  0.2923  0.1262
  907MOL0     C25054  10.025  11.096   4.878  0.0046  0.8570  0.5928
  907MOL0     C25055  10.033  11.227   4.822  0.1382  0.3241 -0.4024
  907MOL0     C25056  10.109  11.327   4.900 -0.2114 -0.1182  0.4820
  907MOL0     C25057   9.942  11.261   4.716 -0.1625  0.0332 -0.5344
  907MOL0     C25058   9.941  11.392   4.660  0.6395 -0.2172  0.3948
  907MOL0     O25059  10.057  11.441   4.616 -0.3864 -0.3049 -0.4926
  907MOL0     C25060  10.069  11.576   4.589  0.6944 -0.0306 -0.2225
  907MOL0     C25061   9.999  11.677   4.649  0.3658 -0.1514  0.2257
  907MOL0     C25062  10.032  11.815   4.625 -0.3278 -0.9109  0.5042
  907MOL0     C25063  10.137  11.846   4.537 -1.1781 -1.0634 -0.7626
  907MOL0     O25064  10.168  11.975   4.496  0.0877 -0.7268 -0.0311
  907MOL0     C25065  10.082  12.022   4.394 -0.6862  0.0360  0.6430
  907MOL0     C25066  10.164  12.095   4.285 -0.0039 -0.5118 -0.7010
  907MOL0     C25067  10.245  12.007   4.192  0.0195 -0.0370 -0.2054
  907MOL0     C25068  10.319  12.080   4.078  1.1854  0.6662 -0.2940
  907MOL0     C25069  10.396  11.979   3.982 -1.5938 -0.0739 -0.1242
  907MOL0     C25070  10.449  12.045   3.859  0.1731  0.3652  1.1602
  907MOL0     C25071  10.547  12.162   3.893  0.3480  0.3592  0.1969
  907MOL0     C25072  10.514  12.290   3.820  0.0875  0.0606  0.0086
  907MOL0    Cl25073  10.656  12.397   3.797 -0.5915 -0.0881 -0.1699
  907MOL0     C25074  10.204  11.744   4.474 -0.5246 -0.6868 -0.1453
  907MOL0     C25075  10.171  11.614   4.489  0.0242  0.3695  0.7600
  907MOL0     O25076   9.831  11.446   4.647 -0.6151 -0.6680  0.4910
  907MOL0     C25077   9.871  11.158   4.656  0.5236 -0.4712 -0.2342
  907MOL0     C25078   9.860  11.030   4.712 -0.3712 -0.8933 -1.0905
  907MOL0     N25079   9.445  10.543   5.097  0.0982 -0.3285 -0.0824
  907MOL0     N25080   9.335  10.516   5.157 -0.1546 -0.5573  0.7436
  907MOL0     C25081   9.567  10.160   6.176  0.4820 -0.2420  0.0546
  907MOL0     C25082   9.623  10.037   6.223  0.7194 -0.6167 -0.0664
  907MOL0     C25083   9.890   9.833   6.242 -0.3455 -0.1902  0.4349
  907MOL0     C25084   9.928   9.818   6.107 -0.4073  0.2798  0.5979
  907MOL0     C25085  10.060   9.850   6.076 -0.1862 -0.2357 -0.9564
  907MOL0     C25086  10.153   9.889   6.173 -0.2833  0.0632 -0.4122
  907MOL0     O25087  10.287   9.911   6.135  0.3570  0.4778  0.3497
  907MOL0     C25088  10.338   9.838   6.023  0.7397 -0.4195 -1.1747
  907MOL0     C25089  10.373   9.960   5.929 -1.0222  0.0458  0.2061
  907MOL0     C25090  10.421   9.901   5.798  0.1867  0.3440  0.5949
  907MOL0     C25091  10.448  10.001   5.683 -0.3455 -0.3163 -0.4422
  907MOL0     C25092  10.576  10.063   5.712 -0.5171  0.6033 -0.6874
  907MOL0     C25093  10.685  10.109   5.738 -0.1681  0.0489 -0.4730
  907MOL0     C25094  10.120   9.912   6.305  0.2689 -0.0347  0.6431
  907MOL0     C25095   9.984   9.885   6.336  0.5331  0.6378 -0.6729
  907MOL0     C25096   9.958   9.890   6.483 -0.9616 -0.2043  0.3785
  907MOL0     H25097   9.519   9.833   5.973 -2.3146 -1.4961  2.1637
  907MOL0     H25098   9.420  10.045   5.893  1.5233  0.5985 -1.2993
  907MOL0     H25099   9.566  10.407   6.101 -1.7567  0.0791  2.1419
  907MOL0     H25100   9.389  10.383   6.136 -1.3733 -3.4487 -2.3153
  907MOL0     H25101   9.311  10.508   5.982  0.3066  3.4603  3.1748
  907MOL0     H25102   9.446  10.606   6.004 -2.6806  2.0064 -2.5888
  907MOL0     H25103   9.559  10.492   5.818 -0.5069  0.2749 -0.6704
  907MOL0     H25104   9.420  10.386   5.777 -0.1350 -0.6601  0.4924
  907MOL0     H25105   9.291  10.596   5.733  0.0653 -1.0084 -1.2667
  907MOL0     H25106   9.437  10.688   5.778 -2.4590  0.2943  2.0061
  907MOL0     H25107   9.555  10.578   5.595 -0.6365 -2.5165 -2.3219
  907MOL0     H25108   9.434  10.691   5.549  1.2952  0.0844 -0.0516
  907MOL0     H25109   9.458  10.440   5.442 -1.2267 -0.2643 -1.0049
  907MOL0     H25110   9.391  10.376   5.584 -2.9538 -1.1159 -1.5316
  907MOL0     H25111   9.156  10.479   5.525 -2.1709  2.5041 -3.0208
  907MOL0     H25112   9.228  10.383   5.391  0.8522 -0.8967  1.4366
  907MOL0     H25113   9.120  10.562   5.301  1.6152 -0.3953 -3.3349
  907MOL0     H25114   9.195  10.688   5.398 -3.5455  0.8122 -2.1039
  907MOL0     H25115   9.474  10.758   5.329 -0.1212  0.1735  0.2115
  907MOL0     H25116   9.701  10.744   5.205  1.4831 -1.7258 -0.1069
  907MOL0     H25117   9.618  10.791   5.054 -0.5659  1.0775  1.4581
  907MOL0     H25118   9.778  10.531   5.114  1.5570 -2.0707 -2.3409
  907MOL0     H25119   9.693  10.550   4.961 -1.8322  1.1120  0.9783
  907MOL0     H25120   9.911  10.729   5.075 -0.4089 -2.8254  2.6282
  907MOL0     H25121   9.932  10.595   4.966  2.0555  0.8587  1.1832
  907MOL0     H25122   9.869  10.717   4.782  4.3064 -0.6521  1.3856
  907MOL0     H25123   9.753  10.808   4.879 -0.6704  1.7545  0.3031
  907MOL0     H25124  10.081  11.058   4.963 -0.4247 -0.5100  0.2735
  907MOL0     H25125  10.029  11.397   4.927 -1.7983 -1.3121 -0.8535
  907MOL0     H25126  10.170  11.380   4.828 -0.4134 -0.3466  0.1405
  907MOL0     H25127  10.164  11.289   4.986 -0.5824 -0.8197  0.4171
  907MOL0     H25128   9.920  11.663   4.722 -2.0086  0.2932 -2.1277
  907MOL0     H25129   9.979  11.895   4.676  2.6069  0.5594  1.4518
  907MOL0     H25130  10.027  11.940   4.348 -2.1330  0.8339  0.9058
  907MOL0     H25131   9.995  12.075   4.433 -0.9855  0.1005 -0.1089
  907MOL0     H25132  10.093  12.163   4.238  0.0262 -1.3417 -1.9961
  907MOL0     H25133  10.238  12.162   4.330  0.3657 -2.0697  1.1392
  907MOL0     H25134  10.167  11.940   4.155 -0.1156 -1.8853  3.0204
  907MOL0     H25135  10.328  11.963   4.248  0.4392  0.5683 -0.3355
  907MOL0     H25136  10.380  12.153   4.131  0.5746  0.3885  0.8076
  907MOL0     H25137  10.246  12.140   4.023 -2.8420 -2.0300  1.6038
  907MOL0     H25138  10.480  11.946   4.044 -2.7292 -0.0918  1.4633
  907MOL0     H25139  10.344  11.891   3.943 -1.7034  0.2717 -0.7566
  907MOL0     H25140  10.361  12.086   3.809  0.7785  2.7001  1.8908
  907MOL0     H25141  10.491  11.981   3.781 -1.0027  1.2521 -0.2349
  907MOL0     H25142  10.644  12.124   3.858 -0.6948  0.3844 -3.1132
  907MOL0     H25143  10.546  12.179   4.001 -1.3077 -3.7146  1.0233
  907MOL0     H25144  10.439  12.342   3.881  0.7168  0.1536  0.7160
  907MOL0     H25145  10.474  12.265   3.722 -0.8084 -2.0352  0.8594
  907MOL0     H25146  10.289  11.771   4.412  0.0001  1.5044  1.3900
  907MOL0     H25147  10.227  11.530   4.448  1.7364  0.7183  2.2541
  907MOL0     H25148   9.801  11.184   4.577  0.5531  0.1253 -0.0749
  907MOL0     H25149   9.779  10.973   4.665  0.5840 -1.1303 -2.5197
  907MOL0     H25150   9.580  10.245   6.241  1.9577 -1.4495  1.4252
  907MOL0     H25151   9.672  10.035   6.320  0.1915 -1.5204  0.1943
  907MOL0     H25152   9.859   9.791   6.027  0.4713 -1.0829  0.2603
  907MOL0     H25153  10.090   9.846   5.972  2.4964 -2.0428 -0.1989
  907MOL0     H25154  10.430   9.783   6.041  0.3899 -0.8849 -0.7575
  907MOL0     H25155  10.263   9.769   5.983 -1.2009  0.8138  0.1299
  907MOL0     H25156  10.453  10.018   5.976  1.2189 -0.3322 -2.8154
  907MOL0     H25157  10.282  10.016   5.908 -1.4177 -0.3881  0.7465
  907MOL0     H25158  10.511   9.842   5.813 -0.1481 -0.4003 -0.2439
  907MOL0     H25159  10.345   9.829   5.765  0.7420 -1.2527  2.6370
  907MOL0     H25160  10.369  10.076   5.693 -2.6954 -2.9020  2.3581
  907MOL0     H25161  10.443   9.950   5.586  0.1927  0.8123 -1.0845
  907MOL0     H25162  10.787  10.143   5.744  0.2496 -1.4361  2.4188
  907MOL0     H25163  10.180   9.935   6.393  0.4708  2.1236 -0.0033
  907MOL0     H25164  10.028   9.961   6.528 -0.6787 -0.9942  1.2335
  907MOL0     H25165   9.859   9.922   6.518 -2.3846 -0.6528 -2.9173
  907MOL0     H25166   9.985   9.791   6.522  0.4539  0.1131  0.2796
  908MOL0     O25167   2.383   7.111   1.952  0.1539 -0.1370  0.1614
  908MOL0     C25168   2.389   7.121   2.076 -1.0102 -0.9691  0.2004
  908MOL0     O25169   2.278   7.142   2.147 -0.5383 -0.0455 -0.2345
  908MOL0     C25170   2.161   7.170   2.084  0.5238  0.1918  0.0458
  908MOL0     C25171   2.092   7.075   2.005  0.6038 -0.1546 -0.0055
  908MOL0     C25172   1.978   7.122   1.934 -0.5993  0.3044 -0.6950
  908MOL0     C25173   1.919   7.254   1.956 -0.0897  0.4309  0.9182
  908MOL0     O25174   1.800   7.290   1.894  0.5377 -0.2328 -0.4518
  908MOL0     C25175   1.702   7.186   1.872 -0.2256  0.5253 -0.0310
  908MOL0     C25176   1.558   7.242   1.842  0.2411 -0.2790 -0.4603
  908MOL0     C25177   1.448   7.138   1.845 -0.1729  0.2176 -0.2665
  908MOL0     C25178   1.397   7.119   1.987  1.0486 -0.5644 -0.1567
  908MOL0     C25179   1.309   6.994   1.999 -0.4431 -0.8057 -0.1263
  908MOL0     C25180   1.389   6.871   2.075  0.3771 -0.3538  0.7212
  908MOL0     C25181   1.476   6.788   1.971 -0.4690  0.8996 -0.3916
  908MOL0     C25182   1.558   6.688   2.047 -1.2020  0.4375 -0.7282
  908MOL0     N25183   1.482   6.560   2.039  0.3526 -0.0937  0.0938
  908MOL0     C25184   1.492   6.469   1.936 -0.0325 -0.3840  0.3116
  908MOL0     C25185   1.430   6.352   1.979 -0.2535  0.9801 -0.1444
  908MOL0     C25186   1.421   6.221   1.906 -0.3355  0.3055 -0.5064
  908MOL0     C25187   1.301   6.137   1.949 -0.5360  1.1036  0.2298
  908MOL0     C25188   1.351   6.021   2.041  0.1319  0.1202  0.6238
  908MOL0     C25189   1.240   5.945   2.103 -0.4154  0.6667 -1.1033
  908MOL0     O25190   1.279   5.840   2.193 -0.7007  0.3129  0.2012
  908MOL0     C25191   1.180   5.780   2.262  0.3579 -0.0261  1.1746
  908MOL0     C25192   1.120   5.669   2.211 -0.8106  0.9718  0.6496
  908MOL0     C25193   1.023   5.588   2.274  1.0911  0.9540 -0.0790
  908MOL0     C25194   0.965   5.465   2.208 -1.1137  0.9515  0.5831
  908MOL0     C25195   0.981   5.630   2.399  0.3266  0.4380  0.8490
  908MOL0     C25196   0.885   5.559   2.479  0.6182  0.3372  0.2475
  908MOL0     O25197   0.781   5.499   2.416 -0.5947  0.2429 -0.3692
  908MOL0     C25198   0.721   5.397   2.486  0.7645  0.3843  0.4704
  908MOL0     C25199   0.764   5.263   2.476 -0.5411 -0.3045 -0.3459
  908MOL0     C25200   0.691   5.157   2.538  0.4963  0.6630  0.4082
  908MOL0     C25201   0.580   5.185   2.617 -0.4858  0.4431 -0.7967
  908MOL0     O25202   0.516   5.088   2.699  0.8185 -0.4652  0.4355
  908MOL0     C25203   0.476   4.963   2.628 -0.4654 -0.2731  0.3059
  908MOL0     C25204   0.424   4.854   2.728 -1.0655 -0.3661  0.3789
  908MOL0     C25205   0.306   4.897   2.814  0.4887 -0.0414 -0.0548
  908MOL0     C25206   0.237   4.786   2.892  1.5418 -0.8307  0.7964
  908MOL0     C25207   0.093   4.836   2.943  0.2847  0.0443 -0.7578
  908MOL0     C25208   0.030   4.714   3.016 -0.0208 -0.0083 -0.2951
  908MOL0     C25209  -0.089   4.758   3.113  0.6221 -0.1188  0.6917
  908MOL0     C25210  -0.186   4.645   3.141 -0.0443 -0.2100  0.3442
  908MOL0    Cl25211  -0.284   4.699   3.281 -0.7966  0.3709 -0.1729
  908MOL0     C25212   0.539   5.319   2.619 -0.2132  0.3020 -0.1510
  908MOL0     C25213   0.601   5.415   2.545 -0.8436  0.7807 -0.2314
  908MOL0     O25214   0.893   5.569   2.602  0.5912  0.1371 -0.5910
  908MOL0     C25215   1.038   5.754   2.459 -0.7488  1.2305 -0.6254
  908MOL0     C25216   1.128   5.826   2.384 -0.4989  0.3744 -0.3948
  908MOL0     N25217   1.383   6.386   2.110 -0.0612  0.2656 -0.2137
  908MOL0     N25218   1.411   6.508   2.139  0.5446  0.1360 -0.4185
  908MOL0     C25219   1.988   7.336   2.041  0.2003 -0.5136 -0.5700
  908MOL0     C25220   2.109   7.294   2.102 -0.1999 -0.2785  0.1016
  908MOL0     C25221   2.517   7.126   2.149 -1.0032  0.1499 -0.1684
  908MOL0     C25222   2.535   7.164   2.286 -0.0465  0.3445  0.2631
  908MOL0     C25223   2.666   7.193   2.345  0.1592  0.3765  0.0999
  908MOL0     C25224   2.782   7.165   2.270  0.4799  0.2614 -1.4947
  908MOL0     O25225   2.900   7.207   2.334 -0.0154 -0.2812 -1.0016
  908MOL0     C25226   3.028   7.184   2.265  0.0042 -0.0824 -0.7466
  908MOL0     C25227   3.153   7.198   2.358 -0.5396  0.3340  0.9099
  908MOL0     C25228   3.263   7.096   2.319 -0.5096  0.4798  0.3002
  908MOL0     C25229   3.343   7.150   2.197  0.3204  0.4874 -0.8163
  908MOL0     C25230   3.409   7.280   2.233  0.3921  0.4305 -0.0645
  908MOL0     C25231   3.461   7.384   2.268 -0.1348  0.0162 -0.8063
  908MOL0     C25232   2.767   7.100   2.158  0.7283 -1.1100 -0.1176
  908MOL0     C25233   2.647   7.087   2.092 -0.0553  0.6810 -0.1358
  908MOL0     C25234   2.658   7.033   1.950  0.1996 -0.9126  0.4209
  908MOL0     H25235   2.118   6.972   1.986 -0.7387 -0.4836 -0.1706
  908MOL0     H25236   1.930   7.053   1.866 -0.3870 -0.8294  0.2738
  908MOL0     H25237   1.706   7.124   1.962  0.6243 -1.1917 -1.1951
  908MOL0     H25238   1.727   7.120   1.788 -1.5086 -1.2963  0.9548
  908MOL0     H25239   1.541   7.333   1.900  0.8532 -0.0642 -0.6086
  908MOL0     H25240   1.556   7.291   1.744  1.7589  2.8409  0.9074
  908MOL0     H25241   1.369   7.168   1.775  0.7678  2.3705 -0.4828
  908MOL0     H25242   1.479   7.048   1.792 -0.8400  0.3630 -0.9222
  908MOL0     H25243   1.473   7.126   2.065 -0.2948  2.0469  1.0394
  908MOL0     H25244   1.323   7.196   2.010  1.3566 -0.0338 -0.8974
  908MOL0     H25245   1.259   6.965   1.906 -0.3804  3.2840 -1.6380
  908MOL0     H25246   1.229   7.017   2.070 -1.1398 -2.6126 -0.2703
  908MOL0     H25247   1.443   6.912   2.161  0.0104 -0.4674  1.0097
  908MOL0     H25248   1.319   6.798   2.116 -1.9916  1.3482 -0.0608
  908MOL0     H25249   1.544   6.861   1.925 -1.8311  1.6521 -1.2728
  908MOL0     H25250   1.422   6.741   1.889  0.1449 -2.3100  0.8878
  908MOL0     H25251   1.657   6.675   2.003 -1.3380 -0.5798 -0.7470
  908MOL0     H25252   1.569   6.714   2.153 -1.1445 -2.1208 -0.0528
  908MOL0     H25253   1.549   6.491   1.847 -3.3467 -0.5453 -2.0165
  908MOL0     H25254   1.515   6.165   1.905 -0.7928 -0.7620  2.9570
  908MOL0     H25255   1.407   6.257   1.803  0.3169 -0.3822 -0.8509
  908MOL0     H25256   1.226   6.199   1.998  0.4531  1.0022  1.9369
  908MOL0     H25257   1.247   6.094   1.864  0.3201  0.6802 -0.1086
  908MOL0     H25258   1.405   5.955   1.973  3.0351  3.3164 -0.4641
  908MOL0     H25259   1.416   6.056   2.123  2.6402 -2.0332 -0.3066
  908MOL0     H25260   1.185   6.018   2.163 -0.7464  1.3102 -2.1700
  908MOL0     H25261   1.168   5.911   2.029 -0.6485 -0.0478 -0.5630
  908MOL0     H25262   1.158   5.655   2.110  3.0972  1.0965  1.9410
  908MOL0     H25263   0.982   5.382   2.277 -1.5990  0.3387 -0.0155
  908MOL0     H25264   1.016   5.432   2.118 -2.0721  3.7699 -1.1168
  908MOL0     H25265   0.859   5.479   2.183 -1.4985  2.4300  2.7224
  908MOL0     H25266   0.858   5.246   2.425  0.1947  1.8703  0.1946
  908MOL0     H25267   0.721   5.053   2.535 -0.8474  0.2290  1.0555
  908MOL0     H25268   0.395   4.994   2.561  1.4350  0.5199 -1.7621
  908MOL0     H25269   0.564   4.926   2.574 -2.4066 -0.4598 -2.9846
  908MOL0     H25270   0.394   4.763   2.676 -0.4545 -1.3111  1.6215
  908MOL0     H25271   0.495   4.819   2.803 -1.4789 -1.3623  0.3266
  908MOL0     H25272   0.227   4.951   2.761 -1.0262  1.3554  3.3453
  908MOL0     H25273   0.351   4.958   2.893  4.3801 -0.4610 -1.7400
  908MOL0     H25274   0.296   4.774   2.983  1.3517  1.6294  1.3034
  908MOL0     H25275   0.235   4.693   2.834  0.2205 -1.2634  1.4754
  908MOL0     H25276   0.100   4.926   3.005  0.1450  0.1441 -0.8867
  908MOL0     H25277   0.021   4.864   2.865 -0.8651 -0.7693 -0.0079
  908MOL0     H25278   0.104   4.662   3.078 -2.2428  0.2254  2.7863
  908MOL0     H25279  -0.005   4.644   2.940  2.8520 -0.2896 -1.4823
  908MOL0     H25280  -0.142   4.839   3.062  0.9952 -0.5091 -0.3354
  908MOL0     H25281  -0.039   4.782   3.207 -0.7514 -2.4938  2.1280
  908MOL0     H25282  -0.138   4.556   3.181 -2.4775 -0.7480  2.3073
  908MOL0     H25283  -0.241   4.617   3.050  0.4733 -1.2453  0.3360
  908MOL0     H25284   0.453   5.344   2.679  0.2921 -0.0835  0.7523
  908MOL0     H25285   0.558   5.513   2.524 -1.3769  0.5640 -0.1756
  908MOL0     H25286   1.011   5.780   2.561 -0.8015 -0.4090 -0.1999
  908MOL0     H25287   1.187   5.903   2.434  1.8862 -0.4859 -1.7247
  908MOL0     H25288   1.972   7.442   2.054  6.3913  1.1585 -2.8061
  908MOL0     H25289   2.165   7.356   2.172 -0.5487 -1.4905  1.5172
  908MOL0     H25290   2.444   7.177   2.343 -0.6029  3.6344 -1.1305
  908MOL0     H25291   2.672   7.244   2.441  0.3707  2.3390 -0.9251
  908MOL0     H25292   3.029   7.082   2.226 -0.7752 -0.8238  1.0608
  908MOL0     H25293   3.037   7.254   2.181  1.5075 -0.4449 -0.9076
  908MOL0     H25294   3.124   7.164   2.458 -0.8483  1.5234  1.2458
  908MOL0     H25295   3.186   7.302   2.369  3.1521 -0.8282  2.3794
  908MOL0     H25296   3.336   7.083   2.399 -1.6238 -2.2064  0.9868
  908MOL0     H25297   3.223   6.997   2.295  0.4533 -0.3288  1.8864
  908MOL0     H25298   3.275   7.153   2.111 -1.1586 -5.5822 -0.3358
  908MOL0     H25299   3.424   7.080   2.175  0.2248  0.9663 -2.8556
  908MOL0     H25300   3.496   7.480   2.299 -0.9877 -0.6013  2.4916
  908MOL0     H25301   2.856   7.071   2.102  0.6965 -1.2043 -0.1197
  908MOL0     H25302   2.625   7.098   1.868  3.9489 -0.7575 -1.1363
  908MOL0     H25303   2.758   7.008   1.915 -0.3888 -2.5386 -0.1870
  908MOL0     H25304   2.592   6.946   1.947 -0.2736 -0.5959  1.2884
  909MOL0     O25305   5.538   5.202   6.890 -0.3078 -0.6793  0.2992
  909MOL0     C25306   5.520   5.299   6.817  0.4634  0.1287  0.0203
  909MOL0     O25307   5.576   5.313   6.690  0.2637  0.2334 -0.1640
  909MOL0     C25308   5.633   5.208   6.630  0.5482 -0.0366  0.1577
  909MOL0     C25309   5.757   5.233   6.564  0.2628 -0.6462  0.8904
  909MOL0     C25310   5.816   5.139   6.484 -0.9717  0.6254 -0.0275
  909MOL0     C25311   5.760   5.011   6.467 -0.5760 -0.0593  0.6253
  909MOL0     O25312   5.826   4.929   6.383  0.6737  0.2610  0.1160
  909MOL0     C25313   5.736   4.841   6.307 -0.0545  0.6212  0.0368
  909MOL0     C25314   5.810   4.775   6.187  0.1842  1.0559  0.4731
  909MOL0     C25315   5.940   4.716   6.213  0.1219  0.1251  0.2412
  909MOL0     C25316   5.940   4.607   6.322 -0.6573 -0.0075  0.0018
  909MOL0     C25317   5.860   4.478   6.293  0.1129 -0.3107  1.1455
  909MOL0     C25318   5.872   4.366   6.398  0.0299 -0.1801  0.3238
  909MOL0     C25319   5.783   4.234   6.372  1.3013  0.1698  1.0188
  909MOL0     C25320   5.638   4.270   6.343  0.7073 -0.7554  0.0444
  909MOL0     N25321   5.537   4.167   6.381 -0.5223  1.2166 -0.2190
  909MOL0     C25322   5.535   4.032   6.351  1.0554  0.5141  0.9384
  909MOL0     C25323   5.417   3.979   6.411 -0.1726 -0.1731  0.0326
  909MOL0     C25324   5.369   3.829   6.414 -0.4810  0.2601 -0.1014
  909MOL0     C25325   5.331   3.773   6.278 -0.0686  0.4800 -0.3057
  909MOL0     C25326   5.218   3.853   6.220  0.3930 -0.8579  0.2361
  909MOL0     C25327   5.099   3.895   6.322  0.4241  0.0961 -0.5134
  909MOL0     O25328   5.057   3.770   6.371  0.8125 -0.1121 -0.6045
  909MOL0     C25329   4.982   3.768   6.494  0.2503  1.1244  0.0319
  909MOL0     C25330   4.910   3.657   6.514  0.1579  0.0894  0.2556
  909MOL0     C25331   4.829   3.636   6.619  0.3671  0.5511  0.1488
  909MOL0     C25332   4.752   3.508   6.598 -0.5835 -1.0411  0.0886
  909MOL0     C25333   4.821   3.733   6.726  0.1679 -0.4850 -0.7885
  909MOL0     C25334   4.746   3.715   6.842 -0.2493 -0.0219 -0.9042
  909MOL0     O25335   4.729   3.827   6.916  0.3785  0.1140 -0.6124
  909MOL0     C25336   4.637   3.818   7.009  0.1126 -0.4606 -0.0499
  909MOL0     C25337   4.674   3.818   7.141  0.3854  1.1200 -0.2460
  909MOL0     C25338   4.582   3.793   7.239  0.0291 -0.1343 -0.3004
  909MOL0     C25339   4.441   3.777   7.208 -0.8445  0.7079 -0.3727
  909MOL0     O25340   4.340   3.727   7.279 -0.3617 -0.0341  0.1950
  909MOL0     C25341   4.345   3.738   7.422  0.5075 -0.2520  0.1328
  909MOL0     C25342   4.313   3.875   7.460  0.0795 -0.1563  0.3287
  909MOL0     C25343   4.252   3.897   7.600 -0.8772  0.4298  0.4827
  909MOL0     C25344   4.126   3.817   7.636 -0.6175  0.4250 -0.0565
  909MOL0     C25345   4.105   3.779   7.783 -0.5644  0.0880  0.2136
  909MOL0     C25346   4.093   3.892   7.885 -0.0920 -0.5259  1.2026
  909MOL0     C25347   4.060   3.850   8.026  0.0350  0.4073  0.4976
  909MOL0     C25348   3.909   3.853   8.049  0.0872 -0.3797  0.5219
  909MOL0    Cl25349   3.882   3.725   8.168  0.1684  0.0013  0.2642
  909MOL0     C25350   4.403   3.794   7.079 -0.0050  0.3106  0.2686
  909MOL0     C25351   4.497   3.797   6.975  0.5489 -0.6458 -0.2568
  909MOL0     O25352   4.703   3.599   6.866  0.1354 -0.8929 -0.1351
  909MOL0     C25353   4.910   3.842   6.711 -0.6835 -0.4458  0.0801
  909MOL0     C25354   4.990   3.863   6.595  0.1819 -0.2653 -0.3530
  909MOL0     N25355   5.358   4.078   6.483 -0.1283  0.5470 -0.1113
  909MOL0     N25356   5.439   4.180   6.478  1.0288 -0.4802  0.2179
  909MOL0     C25357   5.641   4.986   6.537  0.7363  0.1690  0.1371
  909MOL0     C25358   5.573   5.085   6.612 -0.0713  0.7270 -0.7151
  909MOL0     C25359   5.463   5.421   6.881  0.4556  0.4293 -0.1061
  909MOL0     C25360   5.454   5.537   6.803 -0.6587 -0.1194  0.0164
  909MOL0     C25361   5.402   5.663   6.857 -0.5837 -0.0789  0.9943
  909MOL0     C25362   5.337   5.678   6.983 -0.5925  0.4009  0.3176
  909MOL0     O25363   5.268   5.794   7.024 -0.6760  0.0415  0.3358
  909MOL0     C25364   5.172   5.786   7.124  0.3748  0.2282 -0.9999
  909MOL0     C25365   5.227   5.822   7.267  1.0599  0.2510 -0.7920
  909MOL0     C25366   5.302   5.953   7.264 -0.2404 -0.2763  0.1716
  909MOL0     C25367   5.310   6.023   7.409  1.4285 -0.1892  0.7703
  909MOL0     C25368   5.351   5.930   7.513  0.4989  0.1157 -0.0734
  909MOL0     C25369   5.385   5.848   7.593 -0.6720 -0.3658  1.0325
  909MOL0     C25370   5.340   5.551   7.048 -0.5656 -0.0346  0.9320
  909MOL0     C25371   5.399   5.428   7.010 -0.2415 -0.0748 -0.4688
  909MOL0     C25372   5.377   5.305   7.097  0.8758 -0.7117 -0.4864
  909MOL0     H25373   5.805   5.329   6.584  2.4012 -1.3473 -0.4482
  909MOL0     H25374   5.913   5.153   6.437  0.8599 -0.1263  3.2057
  909MOL0     H25375   5.654   4.902   6.269 -0.0343  0.8550  0.3640
  909MOL0     H25376   5.708   4.751   6.363  0.4651  0.3333 -0.1629
  909MOL0     H25377   5.756   4.692   6.142  0.9413  0.3393  0.8523
  909MOL0     H25378   5.834   4.849   6.109 -0.0556  0.1267 -0.5087
  909MOL0     H25379   5.979   4.653   6.133 -1.2098 -1.2604  0.6340
  909MOL0     H25380   6.008   4.800   6.230 -2.6349  3.1467 -2.2316
  909MOL0     H25381   6.045   4.578   6.332 -0.0393  2.0980  0.0220
  909MOL0     H25382   5.908   4.655   6.415  0.8864  0.8624  0.1040
  909MOL0     H25383   5.895   4.441   6.196  0.1665 -3.5909  2.3029
  909MOL0     H25384   5.754   4.499   6.277 -0.0415 -0.2298  2.2377
  909MOL0     H25385   5.978   4.335   6.399 -0.6012 -3.0612 -2.8383
  909MOL0     H25386   5.841   4.412   6.492 -0.8568 -2.1080  1.0228
  909MOL0     H25387   5.785   4.165   6.457 -1.1583 -0.3770  0.7166
  909MOL0     H25388   5.830   4.188   6.286 -0.2452  0.8630 -0.2522
  909MOL0     H25389   5.615   4.363   6.396  0.0492  1.1061 -3.2527
  909MOL0     H25390   5.623   4.300   6.239  1.6470  2.4353  0.6997
  909MOL0     H25391   5.597   3.968   6.289 -1.1543 -0.5777 -0.2375
  909MOL0     H25392   5.293   3.820   6.493  0.1903 -2.8491  0.3083
  909MOL0     H25393   5.453   3.769   6.449 -0.8589  1.1721  2.5873
  909MOL0     H25394   5.417   3.772   6.210 -1.4078 -0.1336 -2.0762
  909MOL0     H25395   5.300   3.668   6.278 -2.4142  1.1258  0.3376
  909MOL0     H25396   5.265   3.944   6.180  1.6059 -1.5310  0.0915
  909MOL0     H25397   5.188   3.810   6.125  0.9839 -0.2348 -0.2430
  909MOL0     H25398   5.154   3.959   6.392 -0.2638 -0.1426  0.2581
  909MOL0     H25399   5.018   3.958   6.287 -0.0438 -0.5901 -0.6906
  909MOL0     H25400   4.918   3.586   6.432 -1.3097 -0.0289  0.1836
  909MOL0     H25401   4.820   3.428   6.631 -1.2544 -2.6047 -2.1079
  909MOL0     H25402   4.726   3.494   6.493  0.5479  1.3963 -0.5984
  909MOL0     H25403   4.665   3.485   6.660 -1.3162  0.3968 -0.3674
  909MOL0     H25404   4.776   3.823   7.177  1.2675  0.9096 -2.5359
  909MOL0     H25405   4.626   3.788   7.338  0.1914 -1.2721 -0.4133
  909MOL0     H25406   4.270   3.661   7.442 -2.5973  1.7690 -2.6239
  909MOL0     H25407   4.444   3.712   7.461  1.0113  0.0260 -0.9332
  909MOL0     H25408   4.405   3.933   7.447  0.4719 -1.0479 -1.1292
  909MOL0     H25409   4.241   3.920   7.391  0.1325 -2.1920 -1.1322
  909MOL0     H25410   4.225   4.003   7.607 -0.1427  0.8266 -1.8451
  909MOL0     H25411   4.337   3.878   7.668  1.6063  0.2763 -2.4526
  909MOL0     H25412   4.128   3.724   7.578  1.8582 -0.8815  1.8990
  909MOL0     H25413   4.041   3.881   7.609 -1.7513  0.2606  2.7026
  909MOL0     H25414   4.014   3.720   7.801  0.5590 -0.8639  3.5778
  909MOL0     H25415   4.191   3.719   7.813 -0.7772 -2.0457 -3.0205
  909MOL0     H25416   4.018   3.959   7.841 -1.2661 -2.4083  0.2093
  909MOL0     H25417   4.195   3.932   7.883 -0.2853 -0.0425 -0.0332
  909MOL0     H25418   4.101   3.922   8.096  0.7758  2.3210 -1.7822
  909MOL0     H25419   4.097   3.749   8.048 -0.3275 -0.0771 -0.9945
  909MOL0     H25420   3.853   3.828   7.958  1.6797 -0.8117 -0.3787
  909MOL0     H25421   3.886   3.958   8.069  1.5691 -0.1540  1.1656
  909MOL0     H25422   4.306   3.767   7.040  0.0418  2.7895 -1.7880
  909MOL0     H25423   4.477   3.798   6.868 -2.3178  1.2775  0.1715
  909MOL0     H25424   4.943   3.905   6.793  0.3138 -1.8358  0.8095
  909MOL0     H25425   5.066   3.939   6.584 -2.2980  2.2267 -1.8017
  909MOL0     H25426   5.604   4.885   6.525 -0.5627  0.7377 -1.0452
  909MOL0     H25427   5.480   5.068   6.665  1.3420 -0.3167  1.5648
  909MOL0     H25428   5.497   5.541   6.703  2.8428  0.0405  1.4027
  909MOL0     H25429   5.397   5.744   6.785 -1.4651 -1.0822 -0.1205
  909MOL0     H25430   5.097   5.861   7.098  0.5344  0.0127 -2.1430
  909MOL0     H25431   5.121   5.690   7.136  1.0072 -0.0647 -0.5869
  909MOL0     H25432   5.306   5.759   7.310 -0.5457  0.1521  2.2022
  909MOL0     H25433   5.147   5.840   7.338  2.7493  2.8266  0.6285
  909MOL0     H25434   5.402   5.947   7.222  1.1946  1.8055  2.9736
  909MOL0     H25435   5.251   6.015   7.189 -0.3606 -1.1465 -0.4775
  909MOL0     H25436   5.225   6.076   7.451  3.0874  0.5946  3.4179
  909MOL0     H25437   5.399   6.086   7.421  3.3086 -1.8572 -2.8041
  909MOL0     H25438   5.432   5.788   7.669  1.1187 -0.3104  0.0383
  909MOL0     H25439   5.299   5.542   7.148 -3.5082 -0.3692 -0.1903
  909MOL0     H25440   5.467   5.266   7.146  0.3787 -4.6830 -2.3377
  909MOL0     H25441   5.302   5.328   7.173 -1.5261 -0.3855 -2.8029
  909MOL0     H25442   5.341   5.233   7.024 -0.6092  1.3964 -1.9513
  910MOL0     O25443   6.654   2.667   3.016 -0.3274  0.2055  0.5912
  910MOL0     C25444   6.749   2.602   3.062  0.2121 -0.1749  0.1020
  910MOL0     O25445   6.733   2.509   3.166 -0.5809 -0.0780  0.3263
  910MOL0     C25446   6.602   2.494   3.216 -0.5285 -0.4575 -0.4011
  910MOL0     C25447   6.566   2.537   3.345  0.0954  0.6051  0.4294
  910MOL0     C25448   6.441   2.520   3.398 -0.7871  0.7581 -0.2020
  910MOL0     C25449   6.340   2.460   3.327  0.4859  0.2067 -0.4925
  910MOL0     O25450   6.215   2.443   3.378  0.3345 -0.2198 -0.5905
  910MOL0     C25451   6.178   2.447   3.519 -0.2250 -0.4394 -0.3993
  910MOL0     C25452   6.030   2.474   3.536 -0.3532 -0.3048 -0.4462
  910MOL0     C25453   5.986   2.622   3.497 -0.9335  1.1482  0.1840
  910MOL0     C25454   5.833   2.642   3.500 -0.2882  0.2095  0.1200
  910MOL0     C25455   5.801   2.763   3.430  0.4935 -0.8552 -0.0867
  910MOL0     C25456   5.651   2.803   3.414 -0.4579 -0.3968  0.2009
  910MOL0     C25457   5.623   2.958   3.416 -0.6022  0.2322  0.1939
  910MOL0     C25458   5.553   3.015   3.539  0.3077 -0.3431  0.0900
  910MOL0     N25459   5.562   3.159   3.522 -0.2165 -0.3041 -0.2093
  910MOL0     C25460   5.499   3.217   3.423 -1.0324 -0.2134  0.3398
  910MOL0     C25461   5.552   3.339   3.410 -0.2001  0.3619 -0.3948
  910MOL0     C25462   5.541   3.413   3.283 -0.1211  0.1770 -1.1992
  910MOL0     C25463   5.409   3.502   3.279 -0.2046 -0.5884  0.2498
  910MOL0     C25464   5.386   3.583   3.149 -0.3105  0.1908  0.2572
  910MOL0     C25465   5.344   3.501   3.032 -0.4692 -0.0174 -0.4934
  910MOL0     O25466   5.358   3.587   2.915  0.7614  0.2777  0.4036
  910MOL0     C25467   5.338   3.529   2.796  0.3540 -0.3887  0.2732
  910MOL0     C25468   5.293   3.614   2.688 -0.5392  0.3685  0.5203
  910MOL0     C25469   5.260   3.570   2.561  0.2299  0.0866 -0.4670
  910MOL0     C25470   5.216   3.688   2.468  0.9649 -0.3070  1.1027
  910MOL0     C25471   5.262   3.423   2.536 -0.2211 -1.0815  0.3039
  910MOL0     C25472   5.237   3.365   2.399 -0.1614 -0.5504 -0.4593
  910MOL0     O25473   5.292   3.241   2.378  0.5523 -0.3471 -1.4009
  910MOL0     C25474   5.262   3.171   2.266 -0.8969 -0.9832  0.3348
  910MOL0     C25475   5.134   3.130   2.221 -0.5706  0.3748  0.3442
  910MOL0     C25476   5.127   3.051   2.103  0.4375 -0.1746 -0.2233
  910MOL0     C25477   5.232   3.012   2.031 -0.1297 -0.7534  0.5910
  910MOL0     O25478   5.213   2.928   1.925  0.3556  0.1691 -0.0416
  910MOL0     C25479   5.313   2.851   1.865 -0.4787 -0.2624 -0.4277
  910MOL0     C25480   5.245   2.769   1.754  1.3351 -0.0345 -0.8958
  910MOL0     C25481   5.327   2.731   1.634  0.3721 -0.1919 -0.6146
  910MOL0     C25482   5.231   2.673   1.531 -0.2511 -0.0207 -0.3589
  910MOL0     C25483   5.301   2.640   1.398  0.1574  0.4212 -0.2114
  910MOL0     C25484   5.186   2.606   1.301 -0.4546  0.1403  0.5097
  910MOL0     C25485   5.244   2.539   1.182  0.6191  0.5242  0.1106
  910MOL0     C25486   5.131   2.521   1.085 -0.5905  0.1405 -0.5809
  910MOL0    Cl25487   5.001   2.414   1.145  0.2599 -0.1505  0.1097
  910MOL0     C25488   5.359   3.050   2.077  0.1357  0.4558  0.2834
  910MOL0     C25489   5.380   3.135   2.183  0.8079  0.3396 -0.6064
  910MOL0     O25490   5.170   3.429   2.316 -0.7521 -0.4788 -0.2286
  910MOL0     C25491   5.305   3.337   2.643  0.3431  0.2687  0.3631
  910MOL0     C25492   5.340   3.387   2.766 -0.3122 -0.3387  0.1544
  910MOL0     N25493   5.655   3.354   3.497  0.1207  0.1672  0.5332
  910MOL0     N25494   5.656   3.251   3.567 -0.3425  0.7253  0.3178
  910MOL0     C25495   6.364   2.421   3.194  0.6776  0.3166  0.7473
  910MOL0     C25496   6.489   2.451   3.139  0.9137  0.0416  0.7817
  910MOL0     C25497   6.884   2.613   2.997  0.0657 -1.4380  0.2478
  910MOL0     C25498   6.990   2.530   3.044  0.0742  0.3925 -0.4846
  910MOL0     C25499   7.125   2.541   2.998 -0.4125 -0.3211  0.2923
  910MOL0     C25500   7.154   2.644   2.913 -0.3471 -0.5326  0.1163
  910MOL0     O25501   7.288   2.664   2.875  0.4416  0.9401 -0.1728
  910MOL0     C25502   7.319   2.801   2.861  0.7094 -0.2061  0.0393
  910MOL0     C25503   7.441   2.818   2.783 -0.2489  0.3468  0.4773
  910MOL0     C25504   7.408   2.935   2.690  0.5378  0.2762  0.5573
  910MOL0     C25505   7.536   2.996   2.617  0.2808  0.0598  1.2113
  910MOL0     C25506   7.581   2.911   2.496 -0.1156  0.8928  1.2220
  910MOL0     C25507   7.622   2.843   2.405  0.0035  0.7286  0.4706
  910MOL0     C25508   7.048   2.710   2.853 -0.4528 -0.2821  1.2766
  910MOL0     C25509   6.916   2.699   2.893 -0.4138  0.8319  0.8062
  910MOL0     C25510   6.816   2.769   2.800 -0.5821 -0.7197  0.8974
  910MOL0     H25511   6.644   2.575   3.411 -0.1885  1.7539  0.1252
  910MOL0     H25512   6.420   2.567   3.493 -2.0889  1.2959 -0.7237
  910MOL0     H25513   6.242   2.526   3.557  2.7762 -2.3243 -1.1813
  910MOL0     H25514   6.215   2.351   3.558  1.4246 -1.3018 -3.7514
  910MOL0     H25515   5.974   2.405   3.473 -2.4455  2.4195 -1.7685
  910MOL0     H25516   6.009   2.463   3.643  1.0899  0.0492 -0.0978
  910MOL0     H25517   6.028   2.710   3.546 -1.4447  1.4613  0.0669
  910MOL0     H25518   6.022   2.633   3.394  0.3954  0.5199  0.5501
  910MOL0     H25519   5.778   2.557   3.460 -1.7929  1.7394 -1.2069
  910MOL0     H25520   5.809   2.658   3.606  2.6452  0.6737  0.8264
  910MOL0     H25521   5.842   2.755   3.329 -1.5305 -0.0204 -1.0330
  910MOL0     H25522   5.846   2.842   3.491 -1.6762 -0.8243  1.5982
  910MOL0     H25523   5.613   2.764   3.320 -0.5425 -1.3626  0.6307
  910MOL0     H25524   5.589   2.768   3.497  1.5771 -1.0297  1.5357
  910MOL0     H25525   5.562   2.974   3.327 -1.1043 -0.2770  0.4454
  910MOL0     H25526   5.719   3.011   3.409  0.5426 -1.7001  0.3898
  910MOL0     H25527   5.448   2.985   3.548 -0.4009  1.7464 -0.5629
  910MOL0     H25528   5.609   2.982   3.627 -0.3663 -1.6148  0.0637
  910MOL0     H25529   5.423   3.168   3.363 -1.4339 -0.6664  1.2005
  910MOL0     H25530   5.537   3.343   3.199 -0.6036 -1.2464 -0.0180
  910MOL0     H25531   5.633   3.472   3.274 -0.7694  1.3688 -0.3777
  910MOL0     H25532   5.321   3.437   3.276 -0.7587  0.1901 -0.9182
  910MOL0     H25533   5.417   3.569   3.365 -0.6297 -0.8261  0.4827
  910MOL0     H25534   5.312   3.661   3.167  0.2660  0.3333  2.2812
  910MOL0     H25535   5.483   3.632   3.139 -0.8224  1.4055  1.0362
  910MOL0     H25536   5.413   3.416   3.033  1.2999  1.3338  1.8441
  910MOL0     H25537   5.246   3.457   3.053 -0.0581  0.4036  2.7703
  910MOL0     H25538   5.300   3.717   2.721 -1.3166  1.0614 -1.3440
  910MOL0     H25539   5.202   3.779   2.526 -1.2169  1.2829 -1.6674
  910MOL0     H25540   5.123   3.667   2.414 -0.3133  0.1982  2.9623
  910MOL0     H25541   5.293   3.719   2.398 -0.0147 -0.6771 -0.1702
  910MOL0     H25542   5.059   3.158   2.294  0.8721 -0.8130  2.3887
  910MOL0     H25543   5.022   3.029   2.085 -0.1359  1.4417  0.8333
  910MOL0     H25544   5.381   2.920   1.816 -1.6175 -0.2453 -2.0802
  910MOL0     H25545   5.362   2.781   1.932  2.0881  2.3541  0.5904
  910MOL0     H25546   5.222   2.682   1.816  4.8152 -0.7646 -0.3694
  910MOL0     H25547   5.153   2.821   1.728 -0.8992 -0.8345  4.2412
  910MOL0     H25548   5.395   2.652   1.668 -0.8367 -0.0509  2.3857
  910MOL0     H25549   5.376   2.819   1.593  0.6947 -0.7761 -1.5128
  910MOL0     H25550   5.168   2.757   1.502 -1.7274 -1.6083 -1.9818
  910MOL0     H25551   5.176   2.589   1.575 -0.1300  0.8297  1.5122
  910MOL0     H25552   5.364   2.719   1.356 -0.0794  1.1239  0.7065
  910MOL0     H25553   5.372   2.560   1.420 -0.4587  0.0254  0.3584
  910MOL0     H25554   5.141   2.700   1.269 -1.7246  0.2290  2.4146
  910MOL0     H25555   5.110   2.544   1.349 -0.8374  0.3332  0.1522
  910MOL0     H25556   5.305   2.450   1.201  3.0470  2.0958  0.1695
  910MOL0     H25557   5.309   2.609   1.129  1.6380  0.3599  1.1008
  910MOL0     H25558   5.189   2.472   1.006  2.1492  0.3839  1.1187
  910MOL0     H25559   5.084   2.616   1.059 -2.2157 -0.1587  1.0644
  910MOL0     H25560   5.455   3.022   2.034 -0.0685  0.1650  0.0121
  910MOL0     H25561   5.480   3.170   2.209  0.0302  2.2744 -0.0343
  910MOL0     H25562   5.294   3.230   2.634 -1.2937  0.4546 -0.1423
  910MOL0     H25563   5.367   3.314   2.841 -0.4463 -0.3811  0.1610
  910MOL0     H25564   6.284   2.393   3.127  2.1009  1.7530 -1.6775
  910MOL0     H25565   6.492   2.447   3.030 -0.5401  1.5526  0.6374
  910MOL0     H25566   6.967   2.462   3.125  1.0570  0.2592 -0.3098
  910MOL0     H25567   7.196   2.466   3.029 -2.3848 -0.6229  4.8376
  910MOL0     H25568   7.240   2.858   2.813  0.7516 -1.9554 -2.2431
  910MOL0     H25569   7.344   2.847   2.957  1.5980  2.7251 -1.4766
  910MOL0     H25570   7.455   2.726   2.726 -1.9815 -0.4219  1.2034
  910MOL0     H25571   7.527   2.832   2.849 -1.1716 -4.0276  3.0130
  910MOL0     H25572   7.331   2.911   2.616 -0.4289  0.3031  1.5304
  910MOL0     H25573   7.366   3.016   2.750 -2.1615  0.1630 -1.0092
  910MOL0     H25574   7.618   2.990   2.688  0.4946  1.5843  1.1210
  910MOL0     H25575   7.510   3.092   2.571 -0.9607 -1.7866 -2.4010
  910MOL0     H25576   7.671   2.774   2.338 -0.2916 -1.1054  2.0547
  910MOL0     H25577   7.068   2.773   2.767 -1.4416 -0.7894  0.6547
  910MOL0     H25578   6.864   2.793   2.704  1.0657  1.7705  2.2531
  910MOL0     H25579   6.724   2.712   2.781 -0.1951 -1.2646  0.6219
  910MOL0     H25580   6.807   2.873   2.831  1.9812 -0.5442  1.2067
  911MOL0     O25581   0.004   9.975   6.284 -0.3895  0.3235 -0.3923
  911MOL0     C25582   0.068   9.869   6.285 -0.3666  0.0582 -0.0654
  911MOL0     O25583   0.022   9.745   6.270 -0.0152  0.0208  0.0189
  911MOL0     C25584  -0.103   9.722   6.313  0.3305  0.1774 -0.1573
  911MOL0     C25585  -0.195   9.813   6.386 -0.8348  0.0096  0.1114
  911MOL0     C25586  -0.325   9.772   6.421  0.5485 -0.5106  0.7006
  911MOL0     C25587  -0.378   9.653   6.388  0.5741  0.4857 -0.3562
  911MOL0     O25588  -0.509   9.619   6.419  0.4615  0.6155 -0.1252
  911MOL0     C25589  -0.576   9.524   6.328  0.3936 -0.3553  0.4586
  911MOL0     C25590  -0.734   9.547   6.343  0.0154 -0.1810 -0.0088
  911MOL0     C25591  -0.825   9.421   6.319  0.4033 -0.3209 -0.0034
  911MOL0     C25592  -0.973   9.462   6.310  1.2718  0.1480 -0.2690
  911MOL0     C25593  -1.070   9.346   6.297  0.4384  0.1955  0.6833
  911MOL0     C25594  -1.098   9.277   6.435  0.1114 -0.1543 -0.3375
  911MOL0     C25595  -1.190   9.161   6.419  0.4719 -1.4024  0.0281
  911MOL0     C25596  -1.202   9.051   6.531 -0.3009  0.1909 -0.8089
  911MOL0     N25597  -1.287   9.086   6.641 -0.1478 -0.1270  0.5189
  911MOL0     C25598  -1.420   9.060   6.661  0.0607 -1.3446 -0.3092
  911MOL0     C25599  -1.448   9.133   6.771 -0.0068  0.7740 -0.2705
  911MOL0     C25600  -1.572   9.111   6.854  0.7235  0.4912 -0.1666
  911MOL0     C25601  -1.576   9.186   6.985 -0.2251  0.1566 -0.1422
  911MOL0     C25602  -1.673   9.116   7.083  0.5933 -0.0483  0.7957
  911MOL0     C25603  -1.667   9.174   7.222  0.1322 -0.5800  0.2411
  911MOL0     O25604  -1.775   9.119   7.300  0.2870 -0.3428 -0.0732
  911MOL0     C25605  -1.774   9.142   7.432  0.8223 -0.8929 -0.8153
  911MOL0     C25606  -1.703   9.250   7.487  0.4141  0.3768 -0.6201
  911MOL0     C25607  -1.708   9.269   7.620  0.5174 -0.3111 -1.1974
  911MOL0     C25608  -1.663   9.412   7.657 -1.0927  0.4803 -0.0873
  911MOL0     C25609  -1.767   9.174   7.698 -0.4461  0.4143  0.1992
  911MOL0     C25610  -1.757   9.186   7.840  0.2163 -0.4859 -0.0179
  911MOL0     O25611  -1.636   9.219   7.891 -0.6218 -0.1465  0.1153
  911MOL0     C25612  -1.622   9.234   8.021  0.3283  0.1136 -0.5733
  911MOL0     C25613  -1.676   9.327   8.097  0.1721  0.1566 -0.1639
  911MOL0     C25614  -1.644   9.333   8.234  1.2988 -0.0398  0.6237
  911MOL0     C25615  -1.564   9.235   8.294 -0.5373 -0.2271 -0.3550
  911MOL0     O25616  -1.535   9.246   8.425  0.3710  0.5041 -0.8965
  911MOL0     C25617  -1.499   9.375   8.474  0.3780 -0.2303 -0.2435
  911MOL0     C25618  -1.557   9.396   8.619 -0.1150  0.0482 -0.0490
  911MOL0     C25619  -1.712   9.414   8.619  0.3252  0.1013 -0.7865
  911MOL0     C25620  -1.745   9.476   8.767  0.0096 -0.2093  0.9916
  911MOL0     C25621  -1.767   9.364   8.875 -0.1062 -0.3757  0.4846
  911MOL0     C25622  -1.853   9.243   8.828  0.5112 -0.0265  0.5326
  911MOL0     C25623  -1.920   9.156   8.935  0.5228  0.0583 -0.6728
  911MOL0     C25624  -2.052   9.232   8.976 -0.2826 -0.5530  0.2153
  911MOL0    Cl25625  -2.155   9.130   9.086 -0.0263 -0.2757  0.5350
  911MOL0     C25626  -1.509   9.134   8.213 -0.3026 -0.1209 -0.6895
  911MOL0     C25627  -1.543   9.132   8.079 -0.4903  0.2521 -0.6474
  911MOL0     O25628  -1.858   9.176   7.907 -0.8193  0.3101  0.1448
  911MOL0     C25629  -1.819   9.056   7.649  0.9259  0.6122  0.9659
  911MOL0     C25630  -1.834   9.046   7.511 -0.4194 -0.3198  0.1705
  911MOL0     N25631  -1.333   9.181   6.810 -0.4276 -0.0703  0.0956
  911MOL0     N25632  -1.236   9.157   6.735  1.1463 -0.1660 -0.2520
  911MOL0     C25633  -0.294   9.568   6.317  0.0550 -0.4368  0.5165
  911MOL0     C25634  -0.160   9.601   6.281  0.4984 -0.6364 -0.6428
  911MOL0     C25635   0.210   9.879   6.281  0.1013  0.8286 -0.0330
  911MOL0     C25636   0.280   9.782   6.196 -0.4054 -0.3687  0.1972
  911MOL0     C25637   0.419   9.778   6.182  1.1278 -0.9729 -0.0933
  911MOL0     C25638   0.502   9.861   6.257  0.2104 -0.0843 -0.2788
  911MOL0     O25639   0.638   9.829   6.251 -0.1510 -1.1879 -0.0152
  911MOL0     C25640   0.737   9.923   6.289 -0.0607 -0.3684 -0.8533
  911MOL0     C25641   0.869   9.855   6.313 -0.5613 -1.0712 -0.0353
  911MOL0     C25642   0.947   9.782   6.195  0.4004 -0.2513  0.0531
  911MOL0     C25643   1.046   9.655   6.219  0.0528 -0.1065  0.1180
  911MOL0     C25644   1.138   9.667   6.330  0.7146 -0.8701  0.0510
  911MOL0     C25645   1.200   9.668   6.434  0.2097 -0.1628  0.0274
  911MOL0     C25646   0.436   9.961   6.335  0.6576 -0.0584  0.9514
  911MOL0     C25647   0.295   9.977   6.338  1.2947  0.2739 -0.9205
  911MOL0     C25648   0.232  10.096   6.406  0.0152  0.3621 -0.7586
  911MOL0     H25649  -0.162   9.914   6.405 -1.4863  0.6875 -2.0640
  911MOL0     H25650  -0.402   9.828   6.475  0.0318  0.2767 -0.7877
  911MOL0     H25651  -0.560   9.421   6.362 -2.8086 -0.7405  1.1875
  911MOL0     H25652  -0.541   9.551   6.228 -0.9538  2.4871  0.6483
  911MOL0     H25653  -0.746   9.578   6.447 -1.9757  0.5766 -0.4067
  911MOL0     H25654  -0.760   9.632   6.279  1.5947  0.2313 -0.1295
  911MOL0     H25655  -0.804   9.365   6.227  0.2928  1.4705 -1.1773
  911MOL0     H25656  -0.806   9.349   6.399 -1.3380 -0.6195  0.1866
  911MOL0     H25657  -0.990   9.521   6.400  2.4197 -0.0602  0.1050
  911MOL0     H25658  -0.984   9.520   6.218  0.4832 -0.8980 -0.8611
  911MOL0     H25659  -1.038   9.275   6.220  1.1077 -2.5526  3.2723
  911MOL0     H25660  -1.169   9.380   6.266  0.3211  1.1033  1.9339
  911MOL0     H25661  -1.004   9.243   6.478  0.1811  0.6100  0.1268
  911MOL0     H25662  -1.141   9.352   6.502  1.2336 -0.0692  0.3116
  911MOL0     H25663  -1.182   9.104   6.326  1.4212 -0.5555 -0.4149
  911MOL0     H25664  -1.290   9.204   6.404  0.1989 -2.6530 -2.2726
  911MOL0     H25665  -1.239   8.956   6.492  0.2718 -0.1980 -0.4257
  911MOL0     H25666  -1.100   9.035   6.568  0.1968 -0.5337 -2.3883
  911MOL0     H25667  -1.478   8.986   6.607  0.1734 -0.4472 -1.6923
  911MOL0     H25668  -1.567   9.004   6.875  1.0711  0.7889  1.3819
  911MOL0     H25669  -1.661   9.139   6.796  1.4692  0.8730 -1.1429
  911MOL0     H25670  -1.478   9.185   7.033 -1.8096  1.8085  3.5891
  911MOL0     H25671  -1.604   9.288   6.957 -1.7425 -0.4203 -0.8389
  911MOL0     H25672  -1.776   9.132   7.049  0.9898  0.2458 -0.3096
  911MOL0     H25673  -1.637   9.013   7.093  2.4604  0.2444 -1.8882
  911MOL0     H25674  -1.567   9.149   7.259  0.0730 -0.7821  0.2670
  911MOL0     H25675  -1.685   9.281   7.231  2.1124 -0.2420  0.6423
  911MOL0     H25676  -1.635   9.313   7.431  2.5387  0.4611  1.8995
  911MOL0     H25677  -1.688   9.487   7.581  0.5915  0.7749 -0.3881
  911MOL0     H25678  -1.554   9.403   7.668 -0.8782  1.9021 -0.8185
  911MOL0     H25679  -1.704   9.433   7.756  0.3596  1.3490  0.3709
  911MOL0     H25680  -1.740   9.402   8.052 -2.0578 -1.3124  0.4290
  911MOL0     H25681  -1.693   9.411   8.293  0.3314 -2.1301  2.7346
  911MOL0     H25682  -1.390   9.388   8.474  0.4235 -0.5545 -0.9744
  911MOL0     H25683  -1.539   9.459   8.415 -0.5110 -0.9481 -0.6883
  911MOL0     H25684  -1.533   9.303   8.672 -0.5600 -1.0001 -1.6004
  911MOL0     H25685  -1.517   9.487   8.663 -0.0016 -0.3153  0.6177
  911MOL0     H25686  -1.769   9.321   8.605 -1.9265  1.0180  1.4554
  911MOL0     H25687  -1.742   9.492   8.548 -1.4302 -0.0094 -0.2068
  911MOL0     H25688  -1.836   9.534   8.747  1.6234  1.7916 -1.0803
  911MOL0     H25689  -1.672   9.549   8.803 -1.7636  0.3723  3.7601
  911MOL0     H25690  -1.673   9.335   8.922 -1.3584 -0.2739  3.2589
  911MOL0     H25691  -1.828   9.405   8.957 -1.7029 -2.8909  0.6564
  911MOL0     H25692  -1.791   9.178   8.766  2.9778  1.6852  1.0906
  911MOL0     H25693  -1.936   9.277   8.765 -0.4909 -3.3078 -0.1075
  911MOL0     H25694  -1.861   9.140   9.026  0.0006 -1.8903 -0.6270
  911MOL0     H25695  -1.951   9.055   8.904  0.7844 -0.4873  0.7618
  911MOL0     H25696  -2.104   9.264   8.885  0.7448  1.6503  0.3625
  911MOL0     H25697  -2.024   9.323   9.029 -3.6936  2.1699 -2.1577
  911MOL0     H25698  -1.442   9.061   8.256 -2.0754 -0.6660  1.3284
  911MOL0     H25699  -1.503   9.059   8.010 -1.3131 -0.5005 -0.3402
  911MOL0     H25700  -1.862   8.973   7.704 -3.3830  1.5660 -0.6133
  911MOL0     H25701  -1.875   8.957   7.464 -1.7862 -0.6199  1.8089
  911MOL0     H25702  -0.316   9.461   6.312 -1.2787 -0.1631  0.0537
  911MOL0     H25703  -0.096   9.519   6.250  0.7700 -0.3149 -0.9386
  911MOL0     H25704   0.220   9.707   6.145 -3.1348 -0.5175  3.3357
  911MOL0     H25705   0.454   9.703   6.111 -0.4715 -0.7940 -1.1217
  911MOL0     H25706   0.742   9.996   6.207  0.1415 -1.2962 -1.6832
  911MOL0     H25707   0.707   9.980   6.378 -2.3801  0.0639 -1.8461
  911MOL0     H25708   0.853   9.772   6.382  0.3457 -1.3482 -0.1460
  911MOL0     H25709   0.938   9.925   6.361  1.2056 -2.3229 -0.6445
  911MOL0     H25710   0.871   9.748   6.124 -1.4574  1.2839  1.2204
  911MOL0     H25711   1.006   9.865   6.153  0.3634  0.5117  1.4575
  911MOL0     H25712   1.110   9.632   6.133  1.5426 -1.3237  1.4829
  911MOL0     H25713   0.992   9.564   6.246  2.9845 -2.4119 -1.2501
  911MOL0     H25714   1.245   9.683   6.530  0.7385 -2.5939  0.2456
  911MOL0     H25715   0.497  10.039   6.380 -0.2753  1.4214 -0.2441
  911MOL0     H25716   0.183  10.070   6.500  1.7749  2.8904  0.9999
  911MOL0     H25717   0.308  10.169   6.435 -0.0284 -0.2074  0.9095
  911MOL0     H25718   0.160  10.144   6.340  2.1123 -0.8737 -4.2357
  912MOL0     O25719   6.675   0.421  10.797 -0.5843  0.2955  0.8515
  912MOL0     C25720   6.721   0.521  10.752  0.4506 -0.1001  0.2019
  912MOL0     O25721   6.675   0.642  10.775  0.6489 -0.6133 -0.4117
  912MOL0     C25722   6.547   0.678  10.742  0.1965 -0.5871 -0.1936
  912MOL0     C25723   6.479   0.607  10.647  1.1080 -0.2071  0.1594
  912MOL0     C25724   6.350   0.649  10.607 -0.2145  0.0276 -0.3985
  912MOL0     C25725   6.283   0.748  10.675  0.6196 -0.5800  0.8311
  912MOL0     O25726   6.157   0.779  10.638 -0.0061  0.0840 -0.4756
  912MOL0     C25727   6.063   0.820  10.737  0.2458  0.4320 -0.0723
  912MOL0     C25728   5.938   0.867  10.671 -0.2418  1.2387 -0.5352
  912MOL0     C25729   5.846   0.771  10.599 -1.0852 -0.8415 -0.0805
  912MOL0     C25730   5.846   0.621  10.646 -0.2621 -0.0175  0.2210
  912MOL0     C25731   5.791   0.589  10.777  0.3003  0.5632 -0.3656
  912MOL0     C25732   5.844   0.459  10.839 -0.0305 -0.8175  0.6949
  912MOL0     C25733   5.761   0.429  10.963 -0.3924  0.4788  0.1727
  912MOL0     C25734   5.620   0.365  10.933  0.6555 -0.9923  0.0842
  912MOL0     N25735   5.574   0.278  11.048 -0.2756 -1.2364 -0.2181
  912MOL0     C25736   5.590   0.146  11.057 -0.2012 -0.0386 -0.3124
  912MOL0     C25737   5.512   0.107  11.165  0.1658  0.2995  0.2271
  912MOL0     C25738   5.514  -0.030  11.240  0.7053 -0.1770 -0.6968
  912MOL0     C25739   5.639  -0.048  11.339  0.4073 -0.3133 -1.3607
  912MOL0     C25740   5.683  -0.189  11.373 -0.0463 -1.2139 -0.0728
  912MOL0     C25741   5.561  -0.286  11.415  0.0893 -0.8497 -1.1857
  912MOL0     O25742   5.484  -0.246  11.528  0.6242 -0.0790 -0.1597
  912MOL0     C25743   5.536  -0.252  11.659  0.6714  0.2852  0.5579
  912MOL0     C25744   5.457  -0.213  11.764 -0.4344 -0.3731 -0.6736
  912MOL0     C25745   5.498  -0.201  11.897  0.0424 -0.1321 -0.8766
  912MOL0     C25746   5.399  -0.139  11.996 -0.6878 -0.4456  0.1997
  912MOL0     C25747   5.627  -0.232  11.934 -0.7302  0.9237  1.0460
  912MOL0     C25748   5.690  -0.222  12.066 -0.7244 -0.0143  0.1364
  912MOL0     O25749   5.604  -0.244  12.176 -0.1901 -0.0309  0.1732
  912MOL0     C25750   5.669  -0.256  12.295  0.4690 -0.7428 -0.3766
  912MOL0     C25751   5.624  -0.172  12.394 -0.2240 -0.0432  1.1584
  912MOL0     C25752   5.675  -0.184  12.527 -0.0989 -0.1362  0.9241
  912MOL0     C25753   5.790  -0.262  12.548  0.3806 -0.5585 -0.2988
  912MOL0     O25754   5.818  -0.272  12.684 -0.0444  0.2162 -0.4929
  912MOL0     C25755   5.900  -0.376  12.733 -0.2985  1.0948 -0.2131
  912MOL0     C25756   6.043  -0.341  12.732 -0.0316  0.5982 -0.0536
  912MOL0     C25757   6.066  -0.193  12.765  0.0083 -0.3614  1.2872
  912MOL0     C25758   6.217  -0.171  12.819 -0.7023  0.1939 -0.6305
  912MOL0     C25759   6.255  -0.036  12.870  0.2983  0.8266 -0.1714
  912MOL0     C25760   6.265   0.062  12.752  0.0792  0.4544 -0.4557
  912MOL0     C25761   6.281   0.211  12.794 -0.5198 -0.3881 -0.4713
  912MOL0     C25762   6.233   0.316  12.703 -0.3614  0.1113  0.4636
  912MOL0    Cl25763   6.373   0.427  12.669 -0.0122  0.1141 -0.3393
  912MOL0     C25764   5.841  -0.347  12.446 -0.0680  0.5609 -0.0416
  912MOL0     C25765   5.762  -0.353  12.329 -0.8420 -0.8570 -0.4048
  912MOL0     O25766   5.807  -0.201  12.070 -1.0435  0.1389 -0.1072
  912MOL0     C25767   5.707  -0.273  11.831 -0.6033 -0.4909 -0.5982
  912MOL0     C25768   5.670  -0.286  11.692 -0.8162 -0.0993 -0.3612
  912MOL0     N25769   5.461   0.224  11.217  0.0048  0.4107  0.1192
  912MOL0     N25770   5.491   0.322  11.142 -0.0670  0.6575 -0.3910
  912MOL0     C25771   6.357   0.811  10.784  0.6120  0.0500 -0.0720
  912MOL0     C25772   6.483   0.777  10.812 -0.4445 -0.0615 -0.3879
  912MOL0     C25773   6.846   0.523  10.674 -0.3288 -0.3260 -1.0807
  912MOL0     C25774   6.880   0.627  10.591 -0.5779 -0.4702  0.5243
  912MOL0     C25775   6.996   0.657  10.534 -1.1289  0.3845 -0.0798
  912MOL0     C25776   7.098   0.576  10.543 -0.2964  0.7165  0.0567
  912MOL0     O25777   7.217   0.597  10.497 -0.1148  0.4016 -0.3560
  912MOL0     C25778   7.230   0.572  10.354  0.1504  0.9388  0.9076
  912MOL0     C25779   7.301   0.682  10.291 -0.7125 -0.5875  0.5230
  912MOL0     C25780   7.445   0.715  10.342 -0.9921 -0.1540  0.1670
  912MOL0     C25781   7.453   0.853  10.432  0.4440  0.8581  0.1464
  912MOL0     C25782   7.600   0.865  10.467 -0.4086  0.4306  1.3222
  912MOL0     C25783   7.710   0.878  10.514 -0.3514  0.3951  0.4180
  912MOL0     C25784   7.083   0.456  10.617 -0.3579 -0.2104  0.2991
  912MOL0     C25785   6.955   0.431  10.677  0.0280  0.4389  0.3586
  912MOL0     C25786   6.953   0.318  10.778  0.2170 -0.3405  0.6529
  912MOL0     H25787   6.519   0.524  10.589  2.9478  0.8114 -0.1102
  912MOL0     H25788   6.313   0.606  10.515 -0.6913 -0.7868  0.1575
  912MOL0     H25789   6.096   0.904  10.798  1.2462  2.1410 -2.7630
  912MOL0     H25790   6.044   0.730  10.795 -3.2142  0.4631 -0.9480
  912MOL0     H25791   5.871   0.912  10.744  0.6650  0.8899  0.5315
  912MOL0     H25792   5.973   0.948  10.606  3.1605  1.1305  0.9589
  912MOL0     H25793   5.744   0.802  10.619 -1.0087 -2.3637  3.6217
  912MOL0     H25794   5.873   0.777  10.493  2.9831  0.6880  0.8315
  912MOL0     H25795   5.782   0.573  10.572  0.0034 -0.0086 -0.0142
  912MOL0     H25796   5.943   0.574  10.631 -1.1185 -1.5311 -0.9478
  912MOL0     H25797   5.682   0.587  10.764 -0.0051  4.1261  0.5172
  912MOL0     H25798   5.808   0.676  10.842 -2.3676  0.6505  0.3590
  912MOL0     H25799   5.837   0.373  10.771 -1.0778 -3.1198  3.4674
  912MOL0     H25800   5.951   0.462  10.863  0.3080  1.4617 -0.8715
  912MOL0     H25801   5.741   0.515  11.028 -1.4880  0.9420 -0.7379
  912MOL0     H25802   5.811   0.353  11.024 -1.5418  1.1818  2.0930
  912MOL0     H25803   5.554   0.446  10.901  0.9032 -0.6022  0.5486
  912MOL0     H25804   5.623   0.298  10.846 -0.0818 -1.0532  0.1044
  912MOL0     H25805   5.646   0.076  10.997  1.5282 -0.8087  2.0554
  912MOL0     H25806   5.515  -0.099  11.154  1.3090 -3.9365  2.0582
  912MOL0     H25807   5.411  -0.033  11.278 -0.4006  1.6727 -3.2433
  912MOL0     H25808   5.719   0.016  11.299  0.7963 -1.2405 -2.0944
  912MOL0     H25809   5.601  -0.012  11.435 -0.8144  1.0011 -2.2946
  912MOL0     H25810   5.755  -0.233  11.303  4.9522  3.8095  1.2071
  912MOL0     H25811   5.752  -0.168  11.455 -0.5838  2.8164 -0.4683
  912MOL0     H25812   5.485  -0.291  11.337 -3.7733 -3.2781  2.3049
  912MOL0     H25813   5.603  -0.384  11.437  0.2083 -0.5976 -0.2457
  912MOL0     H25814   5.362  -0.175  11.728  0.7137 -0.7599 -4.5855
  912MOL0     H25815   5.361  -0.214  12.066 -0.2105 -0.9344 -0.0589
  912MOL0     H25816   5.309  -0.098  11.950 -1.5497 -2.0604  0.4080
  912MOL0     H25817   5.450  -0.053  12.041 -0.1656  0.7799 -2.5359
  912MOL0     H25818   5.556  -0.094  12.361 -0.2856 -0.1952  0.9331
  912MOL0     H25819   5.641  -0.107  12.595 -2.4000  0.2458 -0.5297
  912MOL0     H25820   5.880  -0.396  12.839  1.6947  0.5580  0.1105
  912MOL0     H25821   5.884  -0.475  12.688 -1.7528  0.9168  0.6542
  912MOL0     H25822   6.106  -0.404  12.795  1.7674  2.0084 -0.3623
  912MOL0     H25823   6.081  -0.363  12.631  1.1169  1.0333  0.2753
  912MOL0     H25824   6.007  -0.163  12.852 -0.3755 -1.3704  1.3829
  912MOL0     H25825   6.042  -0.123  12.685  1.8711 -0.9551  0.1481
  912MOL0     H25826   6.285  -0.212  12.745  0.5669  0.2170  0.4847
  912MOL0     H25827   6.217  -0.221  12.916 -1.5829  3.6308  1.3405
  912MOL0     H25828   6.168  -0.001  12.925 -0.5431  1.8388 -2.0331
  912MOL0     H25829   6.341  -0.045  12.936  0.9440 -0.1068 -1.1089
  912MOL0     H25830   6.177   0.052  12.688  0.1050  0.2219 -0.4550
  912MOL0     H25831   6.359   0.039  12.702 -0.5720 -1.3549 -0.9269
  912MOL0     H25832   6.389   0.221  12.809 -0.6460  0.2248  0.0911
  912MOL0     H25833   6.237   0.220  12.894 -0.4505 -1.1610 -0.3677
  912MOL0     H25834   6.152   0.375  12.747 -1.0474  0.3661 -1.0953
  912MOL0     H25835   6.190   0.275  12.611 -0.0627 -0.7560  0.6980
  912MOL0     H25836   5.917  -0.424  12.457 -1.8129 -1.4415 -1.3901
  912MOL0     H25837   5.793  -0.421  12.251 -0.7944 -0.8095 -0.4268
  912MOL0     H25838   5.810  -0.298  11.856  0.4511  1.0765 -2.9706
  912MOL0     H25839   5.748  -0.309  11.620  1.5981  2.0432  1.4133
  912MOL0     H25840   6.301   0.876  10.850  0.8082 -1.3765  1.5832
  912MOL0     H25841   6.533   0.833  10.890 -0.1899  1.9971 -1.9446
  912MOL0     H25842   6.805   0.703  10.572  1.0134  0.5627 -2.1902
  912MOL0     H25843   7.009   0.747  10.475 -0.9257  0.6342  0.3367
  912MOL0     H25844   7.284   0.478  10.340 -1.1927  0.2863 -0.1279
  912MOL0     H25845   7.133   0.563  10.303  0.2331  0.0902  0.8933
  912MOL0     H25846   7.248   0.777  10.306 -0.6864 -0.0693 -2.1604
  912MOL0     H25847   7.304   0.662  10.184 -3.4781 -4.4175  0.9646
  912MOL0     H25848   7.482   0.633  10.404  1.7537  1.6158  1.0646
  912MOL0     H25849   7.511   0.728  10.255 -1.4442 -0.4611 -0.2287
  912MOL0     H25850   7.385   0.850  10.517  0.1214 -2.1238 -0.1092
  912MOL0     H25851   7.430   0.943  10.374  1.2522  1.6893  1.0733
  912MOL0     H25852   7.811   0.867  10.547  0.1595  1.4478 -0.7075
  912MOL0     H25853   7.181   0.412  10.629  1.0437  3.0212  1.8157
  912MOL0     H25854   6.889   0.233  10.753  0.3849 -0.1778 -0.3723
  912MOL0     H25855   7.056   0.294  10.804 -0.3426 -1.2197  2.1480
  912MOL0     H25856   6.911   0.361  10.869 -0.5102  0.6248 -0.1079
  913MOL0     O25857  10.264   4.094   8.757 -0.0311 -0.2710  0.2575
  913MOL0     C25858  10.292   3.982   8.729  0.1084 -0.4751  0.2863
  913MOL0     O25859  10.396   3.940   8.666 -0.1113 -0.1682  0.8510
  913MOL0     C25860  10.486   4.025   8.606  0.3968 -0.3459  0.1306
  913MOL0     C25861  10.615   4.015   8.647 -0.0809  0.1836  0.0677
  913MOL0     C25862  10.707   4.106   8.602  0.0732 -0.7034 -0.9357
  913MOL0     C25863  10.675   4.213   8.505  0.2986 -0.1666  0.3135
  913MOL0     O25864  10.764   4.292   8.443 -0.0904  0.3215  0.0900
  913MOL0     C25865  10.750   4.433   8.474 -0.0710  0.4361  0.4413
  913MOL0     C25866  10.865   4.522   8.406 -0.7957 -0.3266 -0.8624
  913MOL0     C25867  10.835   4.668   8.409  0.3594 -0.7937  0.0159
  913MOL0     C25868  10.944   4.759   8.353  0.5046 -0.0095 -0.9069
  913MOL0     C25869  11.005   4.699   8.220 -0.4966 -0.5638  0.7958
  913MOL0     C25870  11.056   4.820   8.141  0.2783 -0.2849  1.1866
  913MOL0     C25871  11.112   4.769   8.001 -0.4751 -0.6378 -0.2080
  913MOL0     C25872  11.143   4.891   7.904 -0.0144  0.9129  0.1158
  913MOL0     N25873  11.259   4.979   7.947  0.9606  0.2804  0.5423
  913MOL0     C25874  11.248   5.110   7.991 -0.0914  0.5350  0.3397
  913MOL0     C25875  11.383   5.143   8.017  0.1924  0.0368 -0.0254
  913MOL0     C25876  11.405   5.296   8.040  0.7007  0.0153  0.0466
  913MOL0     C25877  11.553   5.331   8.062  0.1666 -0.4604 -0.2664
  913MOL0     C25878  11.620   5.255   8.187  1.2758 -0.8643  1.2593
  913MOL0     C25879  11.729   5.346   8.250 -0.8910 -0.1037 -1.4751
  913MOL0     O25880  11.866   5.292   8.243 -0.4585 -0.5774  0.2671
  913MOL0     C25881  11.903   5.177   8.308  0.3898  0.1522  0.2414
  913MOL0     C25882  11.857   5.175   8.440 -0.4459  0.1578 -0.4674
  913MOL0     C25883  11.885   5.070   8.526 -0.2238 -0.0322  0.6581
  913MOL0     C25884  11.855   5.093   8.672 -0.3190 -0.5996 -0.9153
  913MOL0     C25885  11.968   4.957   8.480  1.6014 -0.3516  0.0107
  913MOL0     C25886  12.005   4.848   8.567  0.4034 -0.1658 -0.3929
  913MOL0     O25887  12.122   4.788   8.552 -0.6204 -0.2416  0.0737
  913MOL0     C25888  12.123   4.662   8.606 -0.0933 -0.2127  0.5773
  913MOL0     C25889  12.033   4.565   8.558 -0.1144 -0.4175 -0.2715
  913MOL0     C25890  12.047   4.442   8.607  0.5283  0.7288 -1.4773
  913MOL0     C25891  12.130   4.404   8.713  0.0237 -0.6033  0.3548
  913MOL0     O25892  12.126   4.283   8.779  0.1123 -0.3756  0.4959
  913MOL0     C25893  12.177   4.165   8.708 -0.3793 -0.0515 -0.6376
  913MOL0     C25894  12.328   4.177   8.677 -0.0057  0.5524 -0.5404
  913MOL0     C25895  12.402   4.184   8.808  0.1591  1.0144  0.5723
  913MOL0     C25896  12.545   4.207   8.796  0.1320  0.4537 -1.5282
  913MOL0     C25897  12.578   4.364   8.775  0.2386  0.5165 -0.0448
  913MOL0     C25898  12.558   4.456   8.895  0.1569  0.8268 -0.6467
  913MOL0     C25899  12.599   4.606   8.872 -0.7865 -0.4933 -0.8058
  913MOL0     C25900  12.554   4.699   8.987 -0.1512  0.1241 -1.2116
  913MOL0    Cl25901  12.662   4.655   9.128 -0.0794  0.0063 -0.1438
  913MOL0     C25902  12.192   4.513   8.783 -0.3273 -0.0256 -0.5728
  913MOL0     C25903  12.203   4.634   8.717  0.7818  0.4868 -0.9176
  913MOL0     O25904  11.917   4.803   8.646 -0.1244 -0.8179  0.5275
  913MOL0     C25905  12.020   4.962   8.345 -0.6349 -0.0551  0.0494
  913MOL0     C25906  11.994   5.069   8.265 -0.5309 -0.7686  0.3301
  913MOL0     N25907  11.465   5.030   8.016  0.5153  0.1097 -0.0602
  913MOL0     N25908  11.386   4.930   7.970  0.1696 -0.0103  0.6889
  913MOL0     C25909  10.543   4.207   8.460  0.1267 -1.0280 -0.5421
  913MOL0     C25910  10.445   4.124   8.508 -0.6312  0.6313  0.9569
  913MOL0     C25911  10.187   3.870   8.744  0.4860  0.0477  0.7591
  913MOL0     C25912  10.173   3.756   8.658  0.1074 -0.4470 -0.3321
  913MOL0     C25913  10.077   3.653   8.678  0.0720  0.0849 -1.1423
  913MOL0     C25914   9.991   3.656   8.789 -0.8642 -0.4726 -0.1135
  913MOL0     O25915   9.887   3.568   8.785 -0.5500 -0.2010  0.4197
  913MOL0     C25916   9.858   3.490   8.898  1.4788  0.6752 -0.6602
  913MOL0     C25917   9.757   3.375   8.864 -0.4840  0.7189  0.7952
  913MOL0     C25918   9.642   3.420   8.774  0.1193  0.3453 -0.2015
  913MOL0     C25919   9.506   3.347   8.815  0.1488 -0.5954 -0.5500
  913MOL0     C25920   9.453   3.385   8.939  0.3867 -0.6709  0.1889
  913MOL0     C25921   9.410   3.410   9.048 -0.1269 -0.0592  0.8594
  913MOL0     C25922  10.016   3.762   8.884  1.4061 -0.3993  0.3696
  913MOL0     C25923  10.102   3.867   8.857 -0.5602  0.6372  0.2507
  913MOL0     C25924  10.118   3.966   8.978  0.3950  0.4373  0.1470
  913MOL0     H25925  10.637   3.938   8.719 -0.9090  0.3757  0.5363
  913MOL0     H25926  10.803   4.095   8.652 -0.1389 -1.0069 -0.5873
  913MOL0     H25927  10.763   4.439   8.582  0.3795 -2.4351  0.6382
  913MOL0     H25928  10.649   4.465   8.449 -0.9240 -1.7709  0.8305
  913MOL0     H25929  10.959   4.500   8.457 -0.4505  1.6116 -0.5979
  913MOL0     H25930  10.872   4.483   8.304  0.9321  0.4497 -1.0645
  913MOL0     H25931  10.745   4.678   8.346 -0.8120 -1.6168  1.4931
  913MOL0     H25932  10.815   4.692   8.514 -0.1009 -5.2964  1.1876
  913MOL0     H25933  10.911   4.861   8.332 -1.4658 -0.3107  0.5000
  913MOL0     H25934  11.024   4.764   8.428  1.6865  0.3924 -2.1476
  913MOL0     H25935  10.923   4.658   8.161 -1.0387  3.1073 -1.3467
  913MOL0     H25936  11.082   4.626   8.246 -0.1103  0.3336  2.2713
  913MOL0     H25937  10.978   4.896   8.130  1.0588  0.1566 -2.6523
  913MOL0     H25938  11.136   4.880   8.188 -2.0851  4.1868  0.0765
  913MOL0     H25939  11.048   4.703   7.943 -2.0418  3.2812 -3.4579
  913MOL0     H25940  11.203   4.713   8.027  0.2849  0.9014  0.6189
  913MOL0     H25941  11.166   4.854   7.803  4.7787  0.6317  1.1003
  913MOL0     H25942  11.055   4.952   7.885 -0.2131  0.0095 -2.1968
  913MOL0     H25943  11.165   5.178   7.974 -0.1576  0.5512  0.7288
  913MOL0     H25944  11.342   5.313   8.127  0.2338 -1.8385  0.1167
  913MOL0     H25945  11.360   5.354   7.958 -3.7628  1.7706  3.3552
  913MOL0     H25946  11.622   5.305   7.980  0.9225 -0.8698  0.4798
  913MOL0     H25947  11.553   5.440   8.066  1.1733 -0.4984  1.7390
  913MOL0     H25948  11.545   5.224   8.261 -0.2274  1.6770  0.9214
  913MOL0     H25949  11.660   5.161   8.149 -3.4805 -1.4545 -3.5534
  913MOL0     H25950  11.740   5.441   8.197  0.0505  0.8933  0.3827
  913MOL0     H25951  11.692   5.382   8.347  1.8614 -0.7330 -0.0606
  913MOL0     H25952  11.825   5.271   8.478 -0.5207  0.4657 -1.2837
  913MOL0     H25953  11.756   5.138   8.684 -0.6653 -1.6394  0.3413
  913MOL0     H25954  11.924   5.169   8.708 -1.8170  0.3878 -0.0298
  913MOL0     H25955  11.851   5.011   8.744  1.9120  1.1370  1.4015
  913MOL0     H25956  11.959   4.588   8.482 -1.3035  0.3476  1.0484
  913MOL0     H25957  11.985   4.362   8.566 -0.2418 -0.0528  1.0081
  913MOL0     H25958  12.165   4.079   8.775 -1.3302  0.4695 -0.1195
  913MOL0     H25959  12.119   4.156   8.616  0.5839 -1.3273 -1.1526
  913MOL0     H25960  12.363   4.089   8.621  1.3262 -0.3690  1.6284
  913MOL0     H25961  12.332   4.266   8.613 -2.2126 -0.4862 -2.2784
  913MOL0     H25962  12.390   4.087   8.857  0.8414  0.7289  0.1959
  913MOL0     H25963  12.359   4.260   8.874  0.2213  1.2143  0.3824
  913MOL0     H25964  12.580   4.141   8.716  1.4280 -0.1398 -0.5191
  913MOL0     H25965  12.593   4.177   8.890 -1.1141 -0.1324 -1.0675
  913MOL0     H25966  12.684   4.370   8.751  0.3449  1.1021  0.5447
  913MOL0     H25967  12.506   4.399   8.700  0.7228  0.2838 -0.6337
  913MOL0     H25968  12.623   4.421   8.977 -0.7573 -3.9794 -1.6570
  913MOL0     H25969  12.455   4.447   8.930  0.0319 -0.1617 -1.2339
  913MOL0     H25970  12.562   4.634   8.773 -1.9728 -2.4300 -0.9627
  913MOL0     H25971  12.708   4.607   8.884 -0.6097  1.2521 -2.2868
  913MOL0     H25972  12.448   4.691   9.014  0.0019 -1.0938 -0.8852
  913MOL0     H25973  12.577   4.803   8.962  1.1463 -0.0098 -0.6863
  913MOL0     H25974  12.245   4.486   8.874  1.3509  3.0436 -0.5027
  913MOL0     H25975  12.263   4.712   8.763 -0.8818  2.1171 -1.3567
  913MOL0     H25976  12.075   4.877   8.306 -2.1211 -1.2633  0.4784
  913MOL0     H25977  12.031   5.090   8.165 -0.4627  1.8668  0.8426
  913MOL0     H25978  10.523   4.274   8.377  3.1077  0.3008 -0.3455
  913MOL0     H25979  10.343   4.129   8.472 -0.2025 -3.4718 -1.5134
  913MOL0     H25980  10.248   3.748   8.580  2.8331  1.4650  1.8739
  913MOL0     H25981  10.062   3.576   8.603 -1.6709  0.2543 -1.0099
  913MOL0     H25982   9.945   3.436   8.939  2.7041 -0.0248 -3.8958
  913MOL0     H25983   9.828   3.564   8.972  2.6577  1.1402 -0.6209
  913MOL0     H25984   9.717   3.342   8.960  0.7444 -0.3866  0.9506
  913MOL0     H25985   9.803   3.295   8.805  0.3914  3.0404 -1.9181
  913MOL0     H25986   9.624   3.528   8.777 -3.0084 -0.0572 -1.0504
  913MOL0     H25987   9.671   3.392   8.672 -0.6577 -5.2731  0.7934
  913MOL0     H25988   9.523   3.239   8.808  1.0774 -0.4785 -0.2374
  913MOL0     H25989   9.436   3.363   8.732  0.2372  2.3176 -0.1565
  913MOL0     H25990   9.380   3.441   9.146  0.1991 -4.1906  2.4447
  913MOL0     H25991   9.960   3.765   8.977  0.2511 -1.0767 -0.2830
  913MOL0     H25992  10.024   4.022   8.979 -2.6439 -4.1285 -0.6757
  913MOL0     H25993  10.123   3.907   9.070  0.7304 -1.0090 -0.7657
  913MOL0     H25994  10.213   4.020   8.969 -0.3080  1.8620  0.8963
  914MOL0     O25995   7.571   0.213   7.851 -0.1137  0.3475 -0.4163
  914MOL0     C25996   7.642   0.296   7.912  1.0521  0.2392  1.7061
  914MOL0     O25997   7.689   0.422   7.866  0.6076 -0.6392  0.5215
  914MOL0     C25998   7.637   0.483   7.751  0.3982  0.2158 -0.8182
  914MOL0     C25999   7.722   0.583   7.695  0.3246  0.6426 -0.6413
  914MOL0     C26000   7.684   0.651   7.584  0.5632 -0.1685  0.7246
  914MOL0     C26001   7.572   0.617   7.509  0.8703  0.5092  0.4984
  914MOL0     O26002   7.538   0.677   7.387 -0.2220 -0.7702  0.1441
  914MOL0     C26003   7.514   0.597   7.269 -0.6563  0.2246 -0.1879
  914MOL0     C26004   7.633   0.596   7.174 -0.2776  0.2383 -0.7375
  914MOL0     C26005   7.756   0.526   7.233  0.6477 -1.2745  0.0600
  914MOL0     C26006   7.736   0.387   7.285 -0.7940 -0.9034 -0.2934
  914MOL0     C26007   7.862   0.315   7.343  0.4431 -0.3609  0.2939
  914MOL0     C26008   7.830   0.165   7.375  0.0052 -0.3110 -0.6804
  914MOL0     C26009   7.777   0.154   7.513  0.0576  0.4534 -0.7565
  914MOL0     C26010   7.785   0.007   7.574 -0.4750  0.2986  0.4683
  914MOL0     N26011   7.775  -0.103   7.485 -1.2304  1.2017  0.0854
  914MOL0     C26012   7.815  -0.231   7.519 -0.1942 -1.1412  0.2365
  914MOL0     C26013   7.758  -0.314   7.441  0.3794  0.0704  0.6941
  914MOL0     C26014   7.777  -0.469   7.440  0.6490 -0.3238 -0.0722
  914MOL0     C26015   7.752  -0.535   7.577  0.1726  0.3665 -0.8388
  914MOL0     C26016   7.683  -0.675   7.572  0.2995 -0.8226 -0.7268
  914MOL0     C26017   7.742  -0.765   7.691  0.0249  0.3286 -0.0999
  914MOL0     O26018   7.753  -0.705   7.820 -1.0780  0.7513  0.8502
  914MOL0     C26019   7.649  -0.724   7.902  0.2160  0.5873 -0.5707
  914MOL0     C26020   7.664  -0.837   7.984  0.8069  0.2406 -0.3306
  914MOL0     C26021   7.576  -0.872   8.090 -0.8661 -0.2627 -1.7609
  914MOL0     C26022   7.606  -0.998   8.171  0.5479 -0.0803  0.4559
  914MOL0     C26023   7.470  -0.777   8.119 -0.0073  0.2841 -0.0858
  914MOL0     C26024   7.365  -0.791   8.226 -0.8635 -0.0756  0.8920
  914MOL0     O26025   7.321  -0.923   8.229  0.9453 -0.0711  0.0427
  914MOL0     C26026   7.244  -0.938   8.342  0.3841 -0.1909  0.1603
  914MOL0     C26027   7.113  -0.893   8.334  0.1669  0.1645 -0.8656
  914MOL0     C26028   7.028  -0.905   8.453  0.7928 -0.7089 -0.4122
  914MOL0     C26029   7.072  -0.961   8.569 -0.0651  0.4721  0.8017
  914MOL0     O26030   6.992  -0.960   8.675  0.0353 -0.1780 -0.3393
  914MOL0     C26031   7.043  -1.006   8.796  0.1009  0.1549  0.3010
  914MOL0     C26032   6.926  -1.010   8.894  0.0497 -0.3431  0.4552
  914MOL0     C26033   6.977  -0.981   9.033  0.7982  0.4592 -1.0921
  914MOL0     C26034   6.849  -0.974   9.118 -1.2202 -0.2667 -0.0378
  914MOL0     C26035   6.892  -1.010   9.262 -0.5145 -0.6521  0.1144
  914MOL0     C26036   6.952  -0.883   9.332 -0.4302  0.5255  0.1657
  914MOL0     C26037   6.997  -0.922   9.479  0.3867  0.2358 -0.0833
  914MOL0     C26038   7.059  -0.796   9.529 -0.3091  0.1819  0.0100
  914MOL0    Cl26039   7.086  -0.805   9.702 -0.0297 -0.4434 -0.1394
  914MOL0     C26040   7.201  -1.017   8.566 -0.7702 -0.2814 -0.3835
  914MOL0     C26041   7.286  -1.007   8.460 -0.1910  0.1555  0.1071
  914MOL0     O26042   7.330  -0.695   8.293  0.1710 -0.3058 -1.3199
  914MOL0     C26043   7.463  -0.665   8.037 -0.3454  0.8966 -0.0954
  914MOL0     C26044   7.556  -0.634   7.936 -0.6808 -0.3130 -0.0366
  914MOL0     N26045   7.693  -0.249   7.338 -0.3852 -0.4215  0.3099
  914MOL0     N26046   7.682  -0.131   7.386  0.6072 -0.8758  0.5249
  914MOL0     C26047   7.494   0.521   7.564  0.5639 -0.3831  0.7241
  914MOL0     C26048   7.523   0.455   7.678  0.7335  0.1062  0.0334
  914MOL0     C26049   7.673   0.256   8.051  0.6147 -0.0240 -0.1821
  914MOL0     C26050   7.577   0.192   8.126 -0.6543  0.4360  1.2257
  914MOL0     C26051   7.596   0.158   8.261  0.7626  1.4294  0.8476
  914MOL0     C26052   7.713   0.181   8.327  0.0832  0.6479 -0.2484
  914MOL0     O26053   7.726   0.136   8.457 -0.6114  0.7925  0.1018
  914MOL0     C26054   7.817   0.024   8.474  1.3573  0.3197 -0.0190
  914MOL0     C26055   7.723  -0.101   8.458 -0.5349 -0.2597 -0.7017
  914MOL0     C26056   7.602  -0.106   8.549  0.0815  1.1922  1.0768
  914MOL0     C26057   7.618  -0.135   8.697  0.4675  0.2762 -0.2416
  914MOL0     C26058   7.500  -0.191   8.766  0.5784 -0.1562  0.9976
  914MOL0     C26059   7.390  -0.229   8.801  0.2661 -0.6279 -0.9984
  914MOL0     C26060   7.816   0.236   8.250  0.1459  0.4087  0.0210
  914MOL0     C26061   7.794   0.291   8.117 -0.7078  0.2766 -0.6839
  914MOL0     C26062   7.905   0.355   8.052  0.8456  0.0791  0.3576
  914MOL0     H26063   7.816   0.608   7.744 -0.0013  0.4725  0.0889
  914MOL0     H26064   7.744   0.730   7.540 -0.2900 -0.6354 -1.4089
  914MOL0     H26065   7.426   0.640   7.221 -1.3532 -0.2235  0.6605
  914MOL0     H26066   7.492   0.493   7.293  1.9679 -0.6488 -1.2015
  914MOL0     H26067   7.603   0.549   7.080  2.7346  1.6463 -2.5602
  914MOL0     H26068   7.651   0.701   7.149 -5.6287  1.5321 -0.3675
  914MOL0     H26069   7.827   0.521   7.150  1.6392  0.1805  0.7772
  914MOL0     H26070   7.801   0.601   7.299 -1.4183 -0.2293  0.3689
  914MOL0     H26071   7.656   0.396   7.359 -0.9743 -0.8670 -0.4923
  914MOL0     H26072   7.685   0.326   7.211  2.2597 -2.2526 -1.4308
  914MOL0     H26073   7.895   0.371   7.431 -2.3392  1.9041  0.0226
  914MOL0     H26074   7.944   0.321   7.270 -0.0633  0.0388 -0.2452
  914MOL0     H26075   7.764   0.132   7.294 -1.0931  0.6632 -0.2102
  914MOL0     H26076   7.920   0.103   7.376 -0.0634 -0.4686  1.7165
  914MOL0     H26077   7.674   0.190   7.511 -0.6858 -1.4180  0.5648
  914MOL0     H26078   7.834   0.213   7.585 -1.2166 -0.4934  1.0913
  914MOL0     H26079   7.888   0.005   7.613  1.4885 -2.1278 -4.0852
  914MOL0     H26080   7.707  -0.009   7.648  0.3643 -0.2958  1.2507
  914MOL0     H26081   7.873  -0.263   7.605  0.0811 -0.6548  0.2347
  914MOL0     H26082   7.883  -0.474   7.415  1.4612  0.3801  2.8221
  914MOL0     H26083   7.710  -0.509   7.363 -1.0239  0.0983  1.0903
  914MOL0     H26084   7.847  -0.545   7.632 -0.2985  0.4200  0.0084
  914MOL0     H26085   7.683  -0.476   7.638 -2.3823 -0.9968 -2.3013
  914MOL0     H26086   7.575  -0.670   7.582 -0.1866  0.0519 -4.6269
  914MOL0     H26087   7.694  -0.729   7.477  1.4606 -3.6734  0.8975
  914MOL0     H26088   7.687  -0.860   7.692 -0.2171  0.4726  0.1471
  914MOL0     H26089   7.842  -0.793   7.656  0.3823  2.3278 -0.8009
  914MOL0     H26090   7.746  -0.904   7.959 -0.1750 -1.7978  1.5014
  914MOL0     H26091   7.582  -1.092   8.122 -1.0853 -1.1543  3.0581
  914MOL0     H26092   7.552  -1.013   8.266  0.2532  1.1040  0.4958
  914MOL0     H26093   7.710  -0.988   8.204  1.0966 -0.1790 -1.1804
  914MOL0     H26094   7.066  -0.855   8.245  0.3679 -0.7967 -1.3922
  914MOL0     H26095   6.925  -0.872   8.449  1.0673  0.0736 -2.3288
  914MOL0     H26096   7.080  -1.108   8.786  1.4068  0.6413 -0.0801
  914MOL0     H26097   7.124  -0.935   8.817 -0.6188  2.1098 -2.7894
  914MOL0     H26098   6.844  -0.939   8.876  0.9156  0.6691  0.3736
  914MOL0     H26099   6.877  -1.107   8.888 -2.7634  0.8398  2.1678
  914MOL0     H26100   7.024  -0.883   9.047 -0.5495  0.9737  0.1905
  914MOL0     H26101   7.059  -1.045   9.066  0.2843  0.4488  0.2332
  914MOL0     H26102   6.787  -1.062   9.105  0.9296 -2.2545  2.1902
  914MOL0     H26103   6.794  -0.881   9.100 -0.1302  0.4364  0.1293
  914MOL0     H26104   6.809  -1.027   9.332 -1.8793  2.0269 -0.6967
  914MOL0     H26105   6.953  -1.100   9.269  1.3035  0.6489  2.0271
  914MOL0     H26106   6.883  -0.799   9.330 -1.1901 -0.0692  0.7869
  914MOL0     H26107   7.037  -0.854   9.269  1.1810  0.1332  2.0672
  914MOL0     H26108   7.061  -1.010   9.490  0.3788  0.4302  1.9957
  914MOL0     H26109   6.908  -0.946   9.538  1.1530 -0.4133  0.8313
  914MOL0     H26110   6.986  -0.716   9.513  0.0770  0.5851  0.2521
  914MOL0     H26111   7.151  -0.778   9.472  0.7268  1.0039  1.8694
  914MOL0     H26112   7.248  -1.060   8.654 -2.2851  1.5974  1.4581
  914MOL0     H26113   7.389  -1.039   8.470 -0.5530 -2.0429 -2.1602
  914MOL0     H26114   7.375  -0.601   8.041 -1.9659 -1.0937 -1.5457
  914MOL0     H26115   7.558  -0.550   7.867  2.3016  0.7597  1.1755
  914MOL0     H26116   7.403   0.492   7.512  1.4330 -1.4763 -0.2344
  914MOL0     H26117   7.459   0.382   7.725  0.0354  1.8741  1.9699
  914MOL0     H26118   7.482   0.172   8.078  0.5809  0.0579 -1.2776
  914MOL0     H26119   7.519   0.112   8.322  1.8016  1.5782  2.3217
  914MOL0     H26120   7.906   0.022   8.411 -0.4713  1.2116 -2.8221
  914MOL0     H26121   7.845   0.018   8.579 -2.1813  0.5335  1.0678
  914MOL0     H26122   7.796  -0.173   8.496 -0.9732 -0.0010  0.6721
  914MOL0     H26123   7.710  -0.115   8.350 -2.8553  0.5507 -0.5876
  914MOL0     H26124   7.547  -0.014   8.531 -4.0907 -1.2748  0.0433
  914MOL0     H26125   7.532  -0.179   8.509  1.0014 -0.3285  2.1166
  914MOL0     H26126   7.635  -0.049   8.762  0.8079 -1.3423  1.9259
  914MOL0     H26127   7.700  -0.205   8.717  2.0853  2.6920  2.4860
  914MOL0     H26128   7.297  -0.273   8.831  0.9936 -1.2182  0.5257
  914MOL0     H26129   7.905   0.251   8.311 -2.4591  0.1390  4.2466
  914MOL0     H26130   8.000   0.343   8.104  0.6347 -1.6412  0.4188
  914MOL0     H26131   7.924   0.310   7.954  1.6547  0.6456  0.2492
  914MOL0     H26132   7.890   0.461   8.030  2.8901  1.6026  5.0728
  915MOL0     O26133  10.006   7.575  10.366 -0.0000 -0.0957 -0.0824
  915MOL0     C26134   9.934   7.511  10.283 -0.4933 -0.3890 -0.2970
  915MOL0     O26135   9.981   7.420  10.194 -0.5197 -0.7258  0.4918
  915MOL0     C26136  10.115   7.396  10.168  0.1837 -0.6134 -0.4166
  915MOL0     C26137  10.195   7.332  10.265 -0.5020  0.1042  0.3265
  915MOL0     C26138  10.338   7.330  10.243 -0.6661 -0.5814 -0.1473
  915MOL0     C26139  10.396   7.378  10.119  0.0069 -0.4415  0.1518
  915MOL0     O26140  10.530   7.371  10.078  0.8558  0.7102  0.0707
  915MOL0     C26141  10.606   7.281  10.161 -0.3427  0.8789 -1.1439
  915MOL0     C26142  10.743   7.257  10.109 -0.2406 -0.4770 -0.0445
  915MOL0     C26143  10.842   7.207  10.212 -0.2766 -0.5693 -0.4841
  915MOL0     C26144  10.989   7.197  10.156 -0.3318  0.2674  0.7348
  915MOL0     C26145  11.093   7.176  10.260 -0.6345 -0.3035  0.7455
  915MOL0     C26146  11.118   7.028  10.280 -0.7632 -0.1219  0.0249
  915MOL0     C26147  11.032   6.961  10.398  0.0357 -0.4090 -0.2306
  915MOL0     C26148  11.109   6.842  10.454  0.7583 -0.2835  0.3104
  915MOL0     N26149  11.071   6.809  10.589  0.1335 -0.7661 -0.1392
  915MOL0     C26150  10.986   6.704  10.628 -0.0468 -0.8202  0.1294
  915MOL0     C26151  11.002   6.693  10.756 -0.5929  0.0463 -0.7145
  915MOL0     C26152  10.945   6.600  10.848  0.6808 -0.6559  0.4844
  915MOL0     C26153  10.971   6.455  10.812  0.1983  0.1619 -0.3149
  915MOL0     C26154  11.112   6.409  10.811  0.2635 -0.1098 -0.2598
  915MOL0     C26155  11.203   6.439  10.934  1.1029 -0.0063  0.3850
  915MOL0     O26156  11.138   6.401  11.052  0.0741 -0.6527 -0.1630
  915MOL0     C26157  11.146   6.485  11.162  0.0153  0.4241 -0.0782
  915MOL0     C26158  11.178   6.617  11.169 -0.1252 -0.3144 -0.6437
  915MOL0     C26159  11.164   6.705  11.282  0.9934 -0.2097  1.2359
  915MOL0     C26160  11.203   6.854  11.259  0.5058  1.3674  0.2867
  915MOL0     C26161  11.127   6.643  11.406 -0.7769 -0.2130  1.1186
  915MOL0     C26162  11.117   6.704  11.544 -0.3274  0.5314 -0.9933
  915MOL0     O26163  10.992   6.666  11.597  0.0368  0.8038 -1.0403
  915MOL0     C26164  10.967   6.714  11.722 -0.3875  0.5683  0.4599
  915MOL0     C26165  10.986   6.646  11.845 -1.2813 -0.4980 -0.4718
  915MOL0     C26166  10.955   6.713  11.965 -0.1489  0.4155 -0.3745
  915MOL0     C26167  10.907   6.843  11.964 -0.6125  0.0035 -0.1388
  915MOL0     O26168  10.867   6.905  12.085 -0.6766  0.6647 -0.4417
  915MOL0     C26169  10.741   6.974  12.089 -0.6075 -0.2670 -0.6556
  915MOL0     C26170  10.692   6.971  12.236 -0.3558  0.1131 -1.3230
  915MOL0     C26171  10.539   6.981  12.251  0.5075 -0.8688  0.8275
  915MOL0     C26172  10.451   6.857  12.221 -0.6130  0.5056  0.2981
  915MOL0     C26173  10.300   6.878  12.244 -0.7583 -0.3737 -0.6319
  915MOL0     C26174  10.254   6.965  12.121  0.0056 -0.2541  0.4489
  915MOL0     C26175  10.099   6.956  12.114 -0.2813 -0.7059 -0.6433
  915MOL0     C26176  10.045   7.026  11.987 -0.3839 -0.9843 -0.7764
  915MOL0    Cl26177  10.045   7.191  12.023  0.0259 -0.2372  0.0688
  915MOL0     C26178  10.882   6.912  11.839 -0.0421  0.4538  0.9369
  915MOL0     C26179  10.917   6.837  11.724 -0.1205 -1.1202  0.8731
  915MOL0     O26180  11.190   6.793  11.588  0.1576  0.9189  0.4662
  915MOL0     C26181  11.106   6.505  11.397  0.0504 -0.0649  0.6417
  915MOL0     C26182  11.110   6.426  11.280  0.4694  0.4392  0.1504
  915MOL0     N26183  11.084   6.806  10.794  0.7643  0.1416  0.0361
  915MOL0     N26184  11.116   6.881  10.696 -0.1217  0.6395  0.0039
  915MOL0     C26185  10.313   7.427  10.020 -0.1278 -0.8927 -0.0420
  915MOL0     C26186  10.174   7.440  10.051 -0.4512  0.1556  1.2378
  915MOL0     C26187   9.786   7.528  10.274 -0.5526 -0.2843 -0.1537
  915MOL0     C26188   9.704   7.423  10.231  0.4268 -0.1284 -0.4202
  915MOL0     C26189   9.565   7.428  10.211  0.4803 -0.2068 -1.2712
  915MOL0     C26190   9.497   7.546  10.242 -0.6249  1.2030 -0.0616
  915MOL0     O26191   9.357   7.538  10.232  0.1554  0.1582  0.0042
  915MOL0     C26192   9.269   7.653  10.240  0.1024  0.3594 -0.4270
  915MOL0     C26193   9.239   7.680  10.386  0.9125  0.8561 -0.7793
  915MOL0     C26194   9.164   7.556  10.453 -0.1502 -0.0096  0.3080
  915MOL0     C26195   9.094   7.605  10.583 -0.7066 -0.0311 -0.0891
  915MOL0     C26196   9.192   7.630  10.697  0.0586 -0.2960 -0.2265
  915MOL0     C26197   9.266   7.655  10.785  0.1995  0.0951  0.7416
  915MOL0     C26198   9.577   7.652  10.296  0.1568 -0.1320  0.9803
  915MOL0     C26199   9.719   7.650  10.312 -0.3243  0.9979  0.7681
  915MOL0     C26200   9.789   7.774  10.367  0.1594  0.2897 -0.6634
  915MOL0     H26201  10.170   7.299  10.365  1.6214 -0.5237  0.6907
  915MOL0     H26202  10.402   7.282  10.316  2.5394  1.7092 -1.2262
  915MOL0     H26203  10.554   7.184  10.161  1.9224 -0.4322 -2.2009
  915MOL0     H26204  10.613   7.303  10.268  0.5029  0.0132 -1.0038
  915MOL0     H26205  10.724   7.176  10.037  0.6920 -0.2922 -0.5060
  915MOL0     H26206  10.781   7.343  10.054  2.2013  0.5566  3.0153
  915MOL0     H26207  10.839   7.272  10.300 -1.4266 -1.5229  0.2120
  915MOL0     H26208  10.816   7.104  10.236 -1.2845 -0.9580 -2.9624
  915MOL0     H26209  10.986   7.109  10.090 -0.3986 -2.5374  4.1702
  915MOL0     H26210  11.012   7.286  10.097 -0.8852 -0.0763 -0.0086
  915MOL0     H26211  11.072   7.224  10.356 -1.5839  2.0520 -0.5560
  915MOL0     H26212  11.184   7.228  10.228  0.8436 -2.3218  1.4220
  915MOL0     H26213  11.119   6.969  10.188 -2.3876  1.3566 -0.9860
  915MOL0     H26214  11.219   7.022  10.321 -0.7319 -0.2040 -0.0647
  915MOL0     H26215  10.942   6.914  10.358 -0.8075  0.8749  0.1130
  915MOL0     H26216  11.003   7.033  10.474 -0.7351 -1.2451  0.2855
  915MOL0     H26217  11.088   6.758  10.388  0.7602  0.1697 -0.2787
  915MOL0     H26218  11.217   6.847  10.465  0.5667 -0.1858  2.9896
  915MOL0     H26219  10.921   6.638  10.572  2.5842 -3.3360 -0.1517
  915MOL0     H26220  10.836   6.613  10.843  0.4681 -1.4456  2.2154
  915MOL0     H26221  10.981   6.609  10.950  0.3976 -2.7938  0.8324
  915MOL0     H26222  10.931   6.390  10.891 -0.5949 -0.6306 -1.3391
  915MOL0     H26223  10.918   6.432  10.719  2.4681 -0.6317 -1.4824
  915MOL0     H26224  11.126   6.303  10.793  2.1323 -0.2426  1.5702
  915MOL0     H26225  11.168   6.452  10.727  1.6253 -0.5833  0.3921
  915MOL0     H26226  11.297   6.385  10.949  0.6962  0.0725  4.1905
  915MOL0     H26227  11.227   6.545  10.920  3.1644 -0.4842 -0.1054
  915MOL0     H26228  11.213   6.661  11.076 -1.9254  0.0684 -1.1796
  915MOL0     H26229  11.268   6.874  11.345 -0.3250 -0.1096  1.3215
  915MOL0     H26230  11.120   6.924  11.278 -1.6700 -0.3221 -2.2281
  915MOL0     H26231  11.247   6.883  11.163  1.7426  2.1798  1.0785
  915MOL0     H26232  11.026   6.545  11.848  1.0267  0.2975  3.4821
  915MOL0     H26233  10.962   6.664  12.061  0.9964  1.0001 -0.1415
  915MOL0     H26234  10.760   7.078  12.060  1.7994 -0.9976 -2.0049
  915MOL0     H26235  10.665   6.923  12.028 -1.0661  0.0524 -0.3585
  915MOL0     H26236  10.732   6.883  12.287  0.5426  1.0376 -0.4020
  915MOL0     H26237  10.735   7.059  12.285 -4.5330  2.7243 -1.7615
  915MOL0     H26238  10.504   7.068  12.195  0.1180 -1.0589  0.7655
  915MOL0     H26239  10.510   7.007  12.353  3.1280  3.4677  0.7251
  915MOL0     H26240  10.486   6.777  12.287  1.9167  0.9154 -0.4556
  915MOL0     H26241  10.460   6.824  12.117 -2.4809 -0.0698  0.2753
  915MOL0     H26242  10.264   6.775  12.248 -1.5661 -0.0920 -0.4852
  915MOL0     H26243  10.284   6.929  12.339 -0.3818  2.5938 -2.0318
  915MOL0     H26244  10.288   6.921  12.027  1.8788 -2.8741  2.2206
  915MOL0     H26245  10.290   7.068  12.124 -4.0849  1.5692 -2.4466
  915MOL0     H26246  10.055   7.004  12.202 -0.6216 -0.1970 -1.0783
  915MOL0     H26247  10.069   6.852  12.103  0.0190 -0.9531  0.6923
  915MOL0     H26248   9.942   6.991  11.969  0.4441 -4.1576  0.0479
  915MOL0     H26249  10.100   7.006  11.895  1.5507 -1.2023  0.3702
  915MOL0     H26250  10.845   7.013  11.846  0.5932  0.7286  0.4500
  915MOL0     H26251  10.895   6.873  11.624  0.0146 -3.6189 -0.1215
  915MOL0     H26252  11.068   6.459  11.487  1.0264 -0.1505  1.0212
  915MOL0     H26253  11.083   6.322  11.291 -0.3356  0.7566  1.4049
  915MOL0     H26254  10.366   7.457   9.931  0.1031 -1.0954  0.0244
  915MOL0     H26255  10.119   7.493   9.974  2.9250 -0.0673 -1.5661
  915MOL0     H26256   9.745   7.323  10.219 -0.3251 -0.5895  0.7066
  915MOL0     H26257   9.515   7.343  10.166  0.2343 -1.2685  0.9056
  915MOL0     H26258   9.314   7.741  10.192  1.9882  0.2692  1.0544
  915MOL0     H26259   9.177   7.637  10.184 -0.0688  1.4940 -0.4996
  915MOL0     H26260   9.187   7.776  10.398 -0.6448 -0.1960  1.3755
  915MOL0     H26261   9.333   7.694  10.440  0.5561 -0.6821  0.2775
  915MOL0     H26262   9.081   7.522  10.391  1.1495 -1.1279 -0.8776
  915MOL0     H26263   9.230   7.471  10.474  0.4873  0.4155  0.0621
  915MOL0     H26264   9.020   7.530  10.612 -1.8866  0.9292 -0.5736
  915MOL0     H26265   9.026   7.686  10.558 -3.0559 -2.0835 -0.7008
  915MOL0     H26266   9.343   7.677  10.856  1.7919  3.3738 -1.7294
  915MOL0     H26267   9.529   7.745  10.325  1.7086  0.1546  2.9185
  915MOL0     H26268   9.892   7.775  10.328  1.5058  0.6286  2.5808
  915MOL0     H26269   9.736   7.856  10.319  0.4600  1.0912  0.3525
  915MOL0     H26270   9.786   7.785  10.475  2.7348 -1.6225 -0.2724
  916MOL0     O26271   1.292   7.284   4.091  1.2550  0.4388  0.0427
  916MOL0     C26272   1.305   7.375   4.174  0.3561 -0.1377  0.1952
  916MOL0     O26273   1.279   7.506   4.151  0.3078  0.3264 -0.4463
  916MOL0     C26274   1.321   7.561   4.030  0.6607 -0.6163 -0.2651
  916MOL0     C26275   1.440   7.541   3.963 -0.2794 -0.0140  0.1649
  916MOL0     C26276   1.455   7.593   3.836 -0.6176  0.0212  0.3174
  916MOL0     C26277   1.348   7.656   3.766 -0.9255 -0.5768 -0.7483
  916MOL0     O26278   1.361   7.681   3.633  0.2444  0.0123  0.2959
  916MOL0     C26279   1.457   7.613   3.564 -0.2668 -0.2604 -0.0760
  916MOL0     C26280   1.419   7.613   3.412  0.1074 -0.2313  0.2645
  916MOL0     C26281   1.556   7.623   3.333  0.4124 -0.0768 -0.8449
  916MOL0     C26282   1.532   7.623   3.179  0.7588 -0.6286 -0.2580
  916MOL0     C26283   1.651   7.570   3.096 -0.0612 -0.0700  0.5215
  916MOL0     C26284   1.634   7.615   2.942  0.5696 -0.0530 -0.0856
  916MOL0     C26285   1.747   7.599   2.837 -0.1980 -0.3151  0.1740
  916MOL0     C26286   1.679   7.629   2.697 -0.5265  0.1817 -0.4054
  916MOL0     N26287   1.643   7.772   2.684  0.2985  0.6809 -0.9197
  916MOL0     C26288   1.517   7.809   2.657  0.0925 -0.0186  0.1858
  916MOL0     C26289   1.522   7.946   2.655  0.0514  0.0532  0.0960
  916MOL0     C26290   1.407   8.034   2.616 -0.5296 -0.3131 -1.2151
  916MOL0     C26291   1.414   8.108   2.480 -0.9385  0.4370  1.0398
  916MOL0     C26292   1.408   8.000   2.362 -0.9351 -0.1983 -0.1005
  916MOL0     C26293   1.456   8.061   2.234  0.5854 -0.0486  0.3004
  916MOL0     O26294   1.587   8.121   2.255 -0.5507 -0.2387 -0.0440
  916MOL0     C26295   1.696   8.036   2.251  0.6923  0.7168  0.0734
  916MOL0     C26296   1.721   7.972   2.125  0.2267  0.0538 -1.1782
  916MOL0     C26297   1.843   7.898   2.099  0.5458  0.4302  0.4545
  916MOL0     C26298   1.861   7.846   1.954 -0.6842  0.4586 -0.5218
  916MOL0     C26299   1.937   7.882   2.200  0.4491 -0.6362 -1.2997
  916MOL0     C26300   2.068   7.809   2.190 -0.4660 -0.1953  0.7728
  916MOL0     O26301   2.112   7.746   2.302 -0.1719 -0.7944 -0.1253
  916MOL0     C26302   2.245   7.696   2.295  0.3154 -0.7737 -0.1978
  916MOL0     C26303   2.359   7.764   2.254 -0.2413  0.0545  0.6678
  916MOL0     C26304   2.487   7.712   2.254 -0.4336  0.0688 -0.9164
  916MOL0     C26305   2.507   7.580   2.305  1.5992 -0.3978 -0.0685
  916MOL0     O26306   2.637   7.536   2.315  0.4092  0.0711  0.6166
  916MOL0     C26307   2.709   7.565   2.434 -0.2712  0.8777 -0.2051
  916MOL0     C26308   2.853   7.578   2.403  0.2470 -1.1288 -0.9068
  916MOL0     C26309   2.896   7.651   2.270  0.2335  0.1610 -0.3137
  916MOL0     C26310   3.041   7.643   2.233  0.1275  0.4577  0.8140
  916MOL0     C26311   3.129   7.734   2.320  0.0695 -0.1840 -0.1744
  916MOL0     C26312   3.243   7.793   2.234  0.1682 -0.4808 -0.0808
  916MOL0     C26313   3.346   7.688   2.190 -0.2748  0.2040 -0.6574
  916MOL0     C26314   3.438   7.744   2.080 -1.2264 -1.0287  0.3656
  916MOL0    Cl26315   3.509   7.909   2.101  0.2297 -0.1141  0.1503
  916MOL0     C26316   2.397   7.513   2.355 -0.2833 -0.2661  0.3267
  916MOL0     C26317   2.270   7.570   2.354  0.4023 -0.2963  0.1590
  916MOL0     O26318   2.122   7.817   2.079  0.5958 -0.6227  0.1763
  916MOL0     C26319   1.902   7.931   2.334 -0.1730 -0.7785  0.6223
  916MOL0     C26320   1.788   8.004   2.351  0.2635  0.0569  0.5588
  916MOL0     N26321   1.651   7.985   2.700  1.5100 -0.0953  0.0114
  916MOL0     N26322   1.723   7.882   2.704 -1.1562  0.7408 -0.2753
  916MOL0     C26323   1.236   7.688   3.846  0.6654  0.1777 -0.1607
  916MOL0     C26324   1.217   7.640   3.975 -0.1435 -0.0594 -0.4045
  916MOL0     C26325   1.335   7.350   4.321  0.9517 -0.3699 -0.0930
  916MOL0     C26326   1.337   7.456   4.408  0.6506 -0.0279  0.4688
  916MOL0     C26327   1.360   7.437   4.542 -0.2305  0.5549  0.1224
  916MOL0     C26328   1.421   7.321   4.592 -0.7462  0.5961  0.0733
  916MOL0     O26329   1.469   7.297   4.719 -0.6540 -0.0781 -0.6343
  916MOL0     C26330   1.435   7.376   4.831  0.3261 -0.3333  0.5749
  916MOL0     C26331   1.503   7.505   4.856  0.3381 -0.0944 -0.2195
  916MOL0     C26332   1.645   7.470   4.905 -0.5558 -0.1646  0.2216
  916MOL0     C26333   1.723   7.583   4.976  1.0181  0.1625  0.2366
  916MOL0     C26334   1.714   7.719   4.914 -0.0267  1.2687 -0.4991
  916MOL0     C26335   1.731   7.833   4.874 -0.3360  0.2250 -0.2385
  916MOL0     C26336   1.415   7.208   4.507  0.5321  0.6403  0.2934
  916MOL0     C26337   1.379   7.223   4.371  0.6275 -0.2019 -0.1082
  916MOL0     C26338   1.392   7.093   4.291 -0.3158  0.8142  0.0983
  916MOL0     H26339   1.519   7.487   4.015 -0.1875  1.9277  2.1550
  916MOL0     H26340   1.553   7.582   3.791 -1.1665 -0.1391 -0.8984
  916MOL0     H26341   1.476   7.511   3.598  0.0619 -1.6167 -3.8389
  916MOL0     H26342   1.558   7.655   3.557  0.7763 -2.7405 -1.3585
  916MOL0     H26343   1.376   7.514   3.399 -2.8519  0.6810  2.1248
  916MOL0     H26344   1.337   7.682   3.389  0.3746  0.3657  1.0306
  916MOL0     H26345   1.606   7.714   3.368 -2.0211 -0.0099  3.1284
  916MOL0     H26346   1.618   7.538   3.365  1.4954  0.5291 -1.2548
  916MOL0     H26347   1.452   7.552   3.154  1.6948 -1.2069 -1.7208
  916MOL0     H26348   1.496   7.724   3.154  2.6158  0.7237  2.0984
  916MOL0     H26349   1.675   7.464   3.098  1.1418  0.1634 -0.3228
  916MOL0     H26350   1.742   7.616   3.136  1.3254 -1.8386 -0.4313
  916MOL0     H26351   1.544   7.561   2.911  0.3186  0.8424 -0.9407
  916MOL0     H26352   1.602   7.718   2.930  1.4748  0.2269 -0.1714
  916MOL0     H26353   1.794   7.501   2.829  3.9112  1.4998 -0.6351
  916MOL0     H26354   1.824   7.677   2.843 -2.5393  2.1647  0.1228
  916MOL0     H26355   1.744   7.597   2.615  0.1415 -2.0799  0.9314
  916MOL0     H26356   1.590   7.566   2.698  0.0033 -0.6066 -1.4217
  916MOL0     H26357   1.422   7.755   2.651  1.0702 -1.8368  0.4341
  916MOL0     H26358   1.408   8.125   2.677  1.6555 -1.8164  1.2312
  916MOL0     H26359   1.309   7.984   2.612 -1.4024  1.0688  0.9761
  916MOL0     H26360   1.335   8.183   2.477  0.8357  2.3887  1.1592
  916MOL0     H26361   1.506   8.167   2.474 -2.1384  2.2979 -0.0095
  916MOL0     H26362   1.474   7.916   2.389 -0.7200  0.0235  0.0744
  916MOL0     H26363   1.305   7.968   2.348 -0.8324  0.6287 -3.6908
  916MOL0     H26364   1.459   7.982   2.158  0.1907  2.3298 -2.3610
  916MOL0     H26365   1.381   8.130   2.196  0.7023  0.2465  0.6047
  916MOL0     H26366   1.652   7.975   2.041 -1.7627 -1.2784  0.2824
  916MOL0     H26367   1.870   7.929   1.884 -0.6942 -0.9450 -2.2566
  916MOL0     H26368   1.768   7.792   1.934  0.3907 -1.3946 -0.7150
  916MOL0     H26369   1.938   7.769   1.943 -2.1997 -1.1085 -0.6716
  916MOL0     H26370   2.357   7.868   2.221  2.5987  0.0677  0.2865
  916MOL0     H26371   2.574   7.757   2.208 -0.5688  1.3649  0.0459
  916MOL0     H26372   2.681   7.656   2.489  0.2564  0.6300  0.4961
  916MOL0     H26373   2.687   7.484   2.505 -1.7567  2.4596  1.2444
  916MOL0     H26374   2.891   7.640   2.486 -3.4221  0.7457 -0.4390
  916MOL0     H26375   2.904   7.482   2.399  0.4161 -1.0750 -0.2350
  916MOL0     H26376   2.864   7.756   2.278 -0.4320 -0.0991  0.5334
  916MOL0     H26377   2.837   7.594   2.198 -1.2948 -0.1095  1.1089
  916MOL0     H26378   3.044   7.657   2.125 -3.3576 -2.0975  0.2208
  916MOL0     H26379   3.069   7.539   2.253  0.9564 -0.1996 -2.9856
  916MOL0     H26380   3.055   7.811   2.347  0.0647 -0.3663  0.3417
  916MOL0     H26381   3.168   7.679   2.406  1.1559 -0.5106 -0.8620
  916MOL0     H26382   3.303   7.869   2.286  0.0773 -0.4019 -0.0909
  916MOL0     H26383   3.214   7.833   2.137 -2.1239  0.5228  0.9487
  916MOL0     H26384   3.291   7.609   2.137  0.6458 -2.7476  2.3896
  916MOL0     H26385   3.403   7.649   2.275 -2.1680  0.7671  0.9612
  916MOL0     H26386   3.379   7.756   1.989 -1.1695 -0.5027  0.3938
  916MOL0     H26387   3.509   7.663   2.063 -2.4050 -2.3884  1.7101
  916MOL0     H26388   2.405   7.425   2.417  1.0737  1.1179  2.2064
  916MOL0     H26389   2.182   7.516   2.388  0.3425 -1.7732 -2.0890
  916MOL0     H26390   1.973   7.921   2.415  0.9521  2.9201  0.2803
  916MOL0     H26391   1.767   8.054   2.444  0.2499  0.6779  0.2273
  916MOL0     H26392   1.156   7.744   3.799 -0.5404  3.0426  4.6058
  916MOL0     H26393   1.134   7.648   4.044 -1.4035 -1.0250 -1.7449
  916MOL0     H26394   1.311   7.557   4.377 -0.0963 -0.2160  0.4797
  916MOL0     H26395   1.355   7.526   4.604  2.4949  2.1082 -1.7311
  916MOL0     H26396   1.329   7.388   4.809  0.1882 -3.4641 -1.0998
  916MOL0     H26397   1.446   7.311   4.918 -3.0027 -2.4788 -0.4234
  916MOL0     H26398   1.461   7.556   4.943 -2.0876 -1.4622 -0.4911
  916MOL0     H26399   1.501   7.566   4.766 -1.7909  0.8452  0.4027
  916MOL0     H26400   1.635   7.389   4.978 -1.4522 -1.0911 -0.8790
  916MOL0     H26401   1.695   7.427   4.817 -2.0163 -1.7167  0.0887
  916MOL0     H26402   1.828   7.557   4.996  0.8951 -0.1549  0.4794
  916MOL0     H26403   1.664   7.596   5.067  0.6382 -3.2947  0.6272
  916MOL0     H26404   1.733   7.930   4.827  0.0932  0.3092 -0.0584
  916MOL0     H26405   1.449   7.112   4.546 -0.4347  0.3800  0.5258
  916MOL0     H26406   1.429   7.013   4.356  1.3632 -0.4157 -2.2537
  916MOL0     H26407   1.298   7.059   4.247  0.5608  0.5883 -1.6723
  916MOL0     H26408   1.454   7.112   4.204  0.3184 -2.9654 -0.4518
  917MOL0     O26409   1.472  10.021   3.649 -0.9629 -0.3913  0.0411
  917MOL0     C26410   1.563  10.050   3.572 -0.4507 -0.0306 -0.6328
  917MOL0     O26411   1.547  10.110   3.452  0.2976  0.0310 -0.1086
  917MOL0     C26412   1.427  10.169   3.435  1.3212  0.1538 -0.5946
  917MOL0     C26413   1.309  10.101   3.396  0.3292 -0.0962  0.0291
  917MOL0     C26414   1.185  10.169   3.380  0.4553  0.4385  0.4009
  917MOL0     C26415   1.184  10.316   3.417 -0.1688  0.7245  0.1282
  917MOL0     O26416   1.083  10.408   3.396 -0.4687 -0.3604 -0.1850
  917MOL0     C26417   1.002  10.382   3.279 -0.1395  0.0949  1.6984
  917MOL0     C26418   0.958  10.511   3.207 -0.3763  0.3651  0.2675
  917MOL0     C26419   1.086  10.563   3.138 -0.8710 -0.2301 -0.2860
  917MOL0     C26420   1.058  10.685   3.054  0.2343 -0.1439  1.5554
  917MOL0     C26421   1.018  10.812   3.129 -0.3243  0.3280 -0.1092
  917MOL0     C26422   1.124  10.884   3.220  0.5238  0.2258  0.0566
  917MOL0     C26423   1.263  10.909   3.163 -0.4178 -0.3225  0.6060
  917MOL0     C26424   1.318  11.041   3.195 -0.6051 -0.3581 -0.2706
  917MOL0     N26425   1.452  11.065   3.142 -1.2235 -1.0043 -0.1112
  917MOL0     C26426   1.501  11.015   3.022  0.3522 -0.3002  0.0184
  917MOL0     C26427   1.627  11.068   3.000  0.2827  1.2607 -0.0273
  917MOL0     C26428   1.719  11.037   2.888  0.0950 -0.8790  0.6213
  917MOL0     C26429   1.647  11.040   2.755  0.2243  0.3224 -0.0904
  917MOL0     C26430   1.738  11.059   2.642 -0.1906 -0.6437 -0.5953
  917MOL0     C26431   1.675  11.023   2.509 -0.5794  0.1521  0.2146
  917MOL0     O26432   1.566  11.104   2.477  0.3191  0.3966 -0.8430
  917MOL0     C26433   1.499  11.074   2.359 -0.6350  0.3842 -0.5414
  917MOL0     C26434   1.568  11.024   2.239  0.0307  0.1224 -0.1475
  917MOL0     C26435   1.496  10.997   2.121 -0.3124  0.7101  1.1432
  917MOL0     C26436   1.583  10.963   1.990 -0.2475 -0.3822  1.0937
  917MOL0     C26437   1.352  10.986   2.123  0.1306  0.0829  0.0993
  917MOL0     C26438   1.273  10.925   2.018  0.1960 -1.0551 -0.9463
  917MOL0     O26439   1.142  10.943   2.022 -0.4201  0.1196  0.1557
  917MOL0     C26440   1.059  10.905   1.916  0.0511  0.2735 -0.8145
  917MOL0     C26441   1.041  10.767   1.876 -0.0801 -0.5867  1.2083
  917MOL0     C26442   0.934  10.735   1.784  0.0831  0.6345  0.2126
  917MOL0     C26443   0.860  10.842   1.723  1.2799  0.2341 -0.2355
  917MOL0     O26444   0.760  10.821   1.635 -0.6280 -1.0093 -0.5569
  917MOL0     C26445   0.744  10.707   1.559 -0.4141  0.1459 -0.8056
  917MOL0     C26446   0.624  10.732   1.470  0.5878  0.2247  1.0452
  917MOL0     C26447   0.492  10.734   1.548 -0.0114 -0.1309  0.6385
  917MOL0     C26448   0.373  10.752   1.454  0.3075 -0.3110 -0.0908
  917MOL0     C26449   0.247  10.733   1.530  0.0011  0.3352  0.9312
  917MOL0     C26450   0.200  10.584   1.515 -0.2380 -0.4279  0.8581
  917MOL0     C26451   0.051  10.552   1.541 -0.1517  1.1067  0.4966
  917MOL0     C26452   0.003  10.566   1.678 -0.9233 -0.0456  0.0911
  917MOL0    Cl26453  -0.172  10.516   1.654 -0.2079 -0.5596 -0.0858
  917MOL0     C26454   0.875  10.968   1.767 -1.0530 -0.7253  0.0292
  917MOL0     C26455   0.976  10.994   1.867 -0.2559 -0.4103  0.0318
  917MOL0     O26456   1.329  10.860   1.932  0.1730  0.6352  0.0235
  917MOL0     C26457   1.288  11.045   2.239 -0.8161 -0.3772  0.0032
  917MOL0     C26458   1.366  11.097   2.344 -0.4851 -0.2945  0.9379
  917MOL0     N26459   1.641  11.158   3.099  0.1513 -0.0599  0.7700
  917MOL0     N26460   1.546  11.154   3.187  0.1113 -0.9134  0.6022
  917MOL0     C26461   1.307  10.377   3.453  0.0452 -0.2051  0.2794
  917MOL0     C26462   1.427  10.307   3.456  0.3899  0.2272 -0.0985
  917MOL0     C26463   1.701  10.060   3.622 -0.4074  0.7476  0.4376
  917MOL0     C26464   1.781  10.167   3.566 -0.3378 -0.0455 -0.2730
  917MOL0     C26465   1.911  10.180   3.611  1.2505 -0.5505 -0.1748
  917MOL0     C26466   1.968  10.078   3.693 -0.0790 -1.5979 -0.7535
  917MOL0     O26467   2.096  10.080   3.733  0.2427 -0.3754  0.2225
  917MOL0     C26468   2.165  10.203   3.731  0.3952  0.0168 -0.8537
  917MOL0     C26469   2.240  10.215   3.866  0.2232 -0.2497 -0.0516
  917MOL0     C26470   2.344  10.337   3.859  0.1825  0.2170 -0.1494
  917MOL0     C26471   2.430  10.355   3.983 -0.4321  0.6457 -0.3315
  917MOL0     C26472   2.346  10.373   4.104 -0.2726  0.0747 -0.5996
  917MOL0     C26473   2.290  10.390   4.203 -0.4787  0.6511 -0.2835
  917MOL0     C26474   1.889   9.969   3.743 -0.9182 -0.4958  0.8169
  917MOL0     C26475   1.754   9.959   3.705 -0.6535  0.2722 -0.0631
  917MOL0     C26476   1.667   9.848   3.760 -0.1833  0.8257  0.3468
  917MOL0     H26477   1.308   9.995   3.372 -1.4082 -0.4897  1.6531
  917MOL0     H26478   1.101  10.103   3.360  1.0963 -0.7672  1.5548
  917MOL0     H26479   0.917  10.315   3.292  0.9158 -2.5979 -2.9269
  917MOL0     H26480   1.061  10.321   3.210  0.9454  1.8636  0.9796
  917MOL0     H26481   0.869  10.499   3.145 -0.0724  0.6889 -0.2341
  917MOL0     H26482   0.943  10.593   3.278  0.4896 -0.9744  2.1106
  917MOL0     H26483   1.161  10.591   3.212 -0.4232 -2.1412  0.0389
  917MOL0     H26484   1.133  10.483   3.080 -1.9313 -2.1950  1.4281
  917MOL0     H26485   1.139  10.719   2.988  1.4969 -2.3085  1.8772
  917MOL0     H26486   0.982  10.660   2.980  1.9193  1.2248 -0.7806
  917MOL0     H26487   0.921  10.816   3.179  0.0667  2.6752  0.5830
  917MOL0     H26488   1.012  10.870   3.036  0.0135 -1.6051 -1.3918
  917MOL0     H26489   1.090  10.983   3.251 -1.2237  0.4734 -2.4145
  917MOL0     H26490   1.134  10.812   3.303 -0.8392 -1.0626 -0.8574
  917MOL0     H26491   1.256  10.909   3.054 -3.4988  0.6499  0.7170
  917MOL0     H26492   1.334  10.832   3.194 -0.0630 -1.3473 -2.4321
  917MOL0     H26493   1.250  11.112   3.148 -1.8329 -1.1132  0.3084
  917MOL0     H26494   1.315  11.071   3.300 -0.4310  2.0228 -0.8814
  917MOL0     H26495   1.451  10.946   2.955 -1.9052  0.3673  0.9470
  917MOL0     H26496   1.770  10.941   2.903  1.5512 -0.5168 -1.5777
  917MOL0     H26497   1.796  11.113   2.895  0.0974 -1.0230  2.5148
  917MOL0     H26498   1.600  10.943   2.738  2.0935 -0.4164 -1.3419
  917MOL0     H26499   1.573  11.120   2.757 -0.7683 -0.5678  1.5859
  917MOL0     H26500   1.785  11.158   2.644  0.4324 -0.8815  2.7502
  917MOL0     H26501   1.825  10.994   2.652  2.6529  2.6557 -1.9207
  917MOL0     H26502   1.747  11.040   2.428 -1.2552 -1.0466 -0.6791
  917MOL0     H26503   1.643  10.919   2.498 -4.1017  1.2766 -2.2768
  917MOL0     H26504   1.675  11.012   2.238  0.2620  1.0235  2.9441
  917MOL0     H26505   1.690  10.983   1.997 -0.6531  3.4814 -1.1172
  917MOL0     H26506   1.553  11.026   1.906  2.7929 -0.8727 -0.4805
  917MOL0     H26507   1.572  10.857   1.965 -1.0356 -0.0288 -0.1704
  917MOL0     H26508   1.116  10.701   1.918  0.3002  1.7328  4.5279
  917MOL0     H26509   0.924  10.632   1.752  4.1174 -0.2709  1.3234
  917MOL0     H26510   0.830  10.688   1.494  2.0518  3.5110  1.1251
  917MOL0     H26511   0.731  10.617   1.620  0.4370  1.3646  1.3207
  917MOL0     H26512   0.646  10.824   1.416  1.2175 -1.5585 -1.9792
  917MOL0     H26513   0.618  10.649   1.398  2.0559 -0.2426  1.4384
  917MOL0     H26514   0.499  10.810   1.626 -2.3222  1.9637 -1.0528
  917MOL0     H26515   0.480  10.637   1.598 -3.7232  0.2359  0.7237
  917MOL0     H26516   0.378  10.678   1.374 -2.6777 -1.1032  0.3461
  917MOL0     H26517   0.370  10.850   1.405 -0.2962  1.1180  2.6051
  917MOL0     H26518   0.238  10.777   1.630  0.1055 -0.9603  1.5392
  917MOL0     H26519   0.174  10.791   1.473 -1.4887 -3.3052 -1.2337
  917MOL0     H26520   0.260  10.525   1.585  3.1162  2.4752  0.7255
  917MOL0     H26521   0.219  10.541   1.416 -1.9911  0.1816  0.2234
  917MOL0     H26522   0.015  10.460   1.494  0.3603  0.5603  1.1538
  917MOL0     H26523  -0.005  10.635   1.497 -0.4343  2.0235  2.4902
  917MOL0     H26524   0.025  10.662   1.726  1.7331 -1.8401  2.7784
  917MOL0     H26525   0.030  10.490   1.751 -5.2968  0.7157  2.9200
  917MOL0     H26526   0.829  11.045   1.707 -1.2242 -1.0374 -0.2407
  917MOL0     H26527   0.990  11.093   1.910  2.0879 -1.6292  2.3281
  917MOL0     H26528   1.179  11.049   2.243 -0.8429  0.4826 -1.0501
  917MOL0     H26529   1.304  11.134   2.424  2.8643  0.3617  3.4478
  917MOL0     H26530   1.299  10.485   3.454  1.0710 -0.0879  2.7053
  917MOL0     H26531   1.521  10.357   3.479  1.9401 -2.0804 -0.9722
  917MOL0     H26532   1.729  10.239   3.504 -2.0138 -0.5673  0.4569
  917MOL0     H26533   1.968  10.265   3.575  1.1377  0.3957  1.7247
  917MOL0     H26534   2.241  10.201   3.653 -0.3053 -1.5436 -1.5350
  917MOL0     H26535   2.101  10.291   3.718 -2.5749 -2.4033 -5.2260
  917MOL0     H26536   2.312  10.134   3.878  0.4786  0.0899  0.7273
  917MOL0     H26537   2.181  10.230   3.957  0.9572  1.4254  0.1916
  917MOL0     H26538   2.414  10.331   3.776  0.1307 -0.2402 -0.1605
  917MOL0     H26539   2.293  10.434   3.854  0.2597  0.2033 -2.5436
  917MOL0     H26540   2.499  10.439   3.967  1.5531 -0.3154  2.4541
  917MOL0     H26541   2.490  10.266   4.000 -1.4515 -0.3436 -1.6686
  917MOL0     H26542   2.229  10.404   4.289 -2.7918  3.5638 -2.1883
  917MOL0     H26543   1.954   9.915   3.811  1.3819  0.2592 -0.6564
  917MOL0     H26544   1.725   9.792   3.834  3.8977  3.3461 -0.6100
  917MOL0     H26545   1.580   9.893   3.810 -0.0803  2.9870 -1.2881
  917MOL0     H26546   1.634   9.787   3.676 -1.3898  3.3289 -1.1200
  918MOL0     O26547   1.751   7.754   0.231 -0.2524 -0.6522 -0.2230
  918MOL0     C26548   1.825   7.809   0.158 -0.3591 -0.5923  0.0144
  918MOL0     O26549   1.868   7.940   0.170  0.3373  0.0106  0.0762
  918MOL0     C26550   1.786   8.026   0.232 -0.3813 -0.4908 -0.9048
  918MOL0     C26551   1.857   8.140   0.291  0.2804 -0.7742  0.1029
  918MOL0     C26552   1.778   8.230   0.364  0.1421  0.5210 -0.2146
  918MOL0     C26553   1.637   8.219   0.360 -0.3598 -0.2878  0.3216
  918MOL0     O26554   1.550   8.301   0.429  0.3907 -0.5287 -0.0893
  918MOL0     C26555   1.610   8.362   0.542  0.7085 -0.6775 -0.7659
  918MOL0     C26556   1.503   8.448   0.607  0.1338 -0.3608  0.0822
  918MOL0     C26557   1.370   8.367   0.627  0.5016  0.7247 -0.2239
  918MOL0     C26558   1.265   8.438   0.711  0.0612 -0.4017  0.0324
  918MOL0     C26559   1.295   8.455   0.864 -0.9404  0.5116  0.9830
  918MOL0     C26560   1.370   8.336   0.930  0.2362  0.7329  0.1350
  918MOL0     C26561   1.289   8.204   0.924 -0.1468  0.4087 -0.2203
  918MOL0     C26562   1.180   8.194   1.025  0.4640 -0.3299 -0.1124
  918MOL0     N26563   1.080   8.093   0.972 -1.2455  0.1536  1.0858
  918MOL0     C26564   1.080   7.966   1.017 -1.4236  0.1244  0.1519
  918MOL0     C26565   0.988   7.905   0.937  1.1347  0.3790  0.1032
  918MOL0     C26566   0.942   7.766   0.956 -0.1769 -0.2814 -0.1557
  918MOL0     C26567   0.978   7.671   0.843  0.6981 -0.1806  0.2933
  918MOL0     C26568   1.125   7.678   0.785 -0.4497  0.1674 -0.8501
  918MOL0     C26569   1.164   7.619   0.652  0.0291  0.3385  0.2774
  918MOL0     O26570   1.160   7.476   0.639  0.2931  0.0988  0.8890
  918MOL0     C26571   1.203   7.429   0.524 -0.9718 -0.9920  0.6423
  918MOL0     C26572   1.235   7.498   0.399 -0.1420 -0.2251 -0.8799
  918MOL0     C26573   1.296   7.438   0.292  0.1296  0.3674 -0.1302
  918MOL0     C26574   1.313   7.518   0.169  0.4418  0.1425 -0.0206
  918MOL0     C26575   1.330   7.292   0.303  0.6362 -1.1620  1.0911
  918MOL0     C26576   1.395   7.233   0.186  0.0909 -0.0199  0.1344
  918MOL0     O26577   1.487   7.299   0.112  0.0007  0.2784  0.6908
  918MOL0     C26578   1.576   7.228   0.035 -1.2530  0.6782  0.1388
  918MOL0     C26579   1.668   7.142   0.081  1.2066 -0.3449  0.3528
  918MOL0     C26580   1.773   7.093   0.006  0.2115  0.1450 -0.3125
  918MOL0     C26581   1.789   7.133  -0.122 -1.0091  0.0527  1.6467
  918MOL0     O26582   1.904   7.094  -0.185 -0.3928  0.2084  0.1608
  918MOL0     C26583   1.888   7.051  -0.327  1.0843  0.6720  0.7804
  918MOL0     C26584   1.997   6.957  -0.382 -0.6070  0.2997 -0.4216
  918MOL0     C26585   2.036   6.831  -0.298  0.1806  0.0384 -0.8884
  918MOL0     C26586   1.966   6.701  -0.348  0.1582 -0.2790  1.3689
  918MOL0     C26587   1.961   6.605  -0.235 -0.6193  0.6705 -0.2772
  918MOL0     C26588   1.907   6.468  -0.282 -0.3713  0.0814  0.2683
  918MOL0     C26589   1.774   6.483  -0.375 -0.8328  0.4861  0.3131
  918MOL0     C26590   1.645   6.478  -0.296  0.2094  0.4489 -0.6183
  918MOL0    Cl26591   1.498   6.471  -0.395  0.2388 -0.3732 -0.0932
  918MOL0     C26592   1.691   7.214  -0.183  0.3232  0.4448  0.3623
  918MOL0     C26593   1.585   7.262  -0.107 -1.3607  0.2630 -0.5449
  918MOL0     O26594   1.374   7.108   0.189 -1.1254 -0.5506 -0.3003
  918MOL0     C26595   1.299   7.226   0.424  0.4675 -1.5857  0.7266
  918MOL0     C26596   1.230   7.296   0.523  0.2177  0.3995 -0.0567
  918MOL0     N26597   0.945   8.002   0.847 -0.3443  0.2785 -0.8198
  918MOL0     N26598   0.996   8.114   0.870  0.1700  0.9681 -0.5020
  918MOL0     C26599   1.579   8.114   0.283  0.2735 -0.5191 -0.0843
  918MOL0     C26600   1.652   8.035   0.203  0.8708  0.3084  0.7536
  918MOL0     C26601   1.906   7.721   0.066 -0.6496  0.1121  0.6700
  918MOL0     C26602   2.036   7.759   0.016  0.1627  0.5235  0.1119
  918MOL0     C26603   2.112   7.673  -0.072  0.0112  0.4435 -0.8326
  918MOL0     C26604   2.073   7.544  -0.101 -0.3632 -0.1279  0.0997
  918MOL0     O26605   2.137   7.445  -0.174 -0.1152 -0.5486 -0.4336
  918MOL0     C26606   2.188   7.486  -0.300  0.2201  0.0946  0.3962
  918MOL0     C26607   2.129   7.401  -0.413 -0.2917  0.0267  0.2407
  918MOL0     C26608   1.976   7.380  -0.418  0.6796  0.3583 -0.5994
  918MOL0     C26609   1.907   7.512  -0.417 -0.0923 -0.6224 -0.4209
  918MOL0     C26610   1.759   7.498  -0.420 -0.4383  0.7541  0.3525
  918MOL0     C26611   1.641   7.500  -0.401  0.3065  0.2608  0.6752
  918MOL0     C26612   1.950   7.508  -0.052 -0.0018 -0.0581 -0.3064
  918MOL0     C26613   1.864   7.588   0.023 -0.3841 -1.0783  0.2789
  918MOL0     C26614   1.744   7.505   0.060 -0.5395 -0.5337  0.4364
  918MOL0     H26615   1.965   8.147   0.283  0.3937 -2.3260 -0.1703
  918MOL0     H26616   1.837   8.307   0.414  0.0006 -0.9169  2.3566
  918MOL0     H26617   1.702   8.415   0.515  1.4529 -1.2738  0.4880
  918MOL0     H26618   1.633   8.284   0.616  2.3481  2.7247  2.6206
  918MOL0     H26619   1.545   8.485   0.701  0.6395 -2.8892  0.9139
  918MOL0     H26620   1.481   8.532   0.540 -1.3224  1.0644  2.1882
  918MOL0     H26621   1.325   8.366   0.528 -0.1384 -4.8384 -0.2168
  918MOL0     H26622   1.374   8.262   0.660  2.3124  1.2265  1.3421
  918MOL0     H26623   1.257   8.538   0.665 -3.6761  0.3770  1.9872
  918MOL0     H26624   1.168   8.392   0.694 -0.4783  0.7811 -0.2071
  918MOL0     H26625   1.209   8.500   0.914 -1.0343 -0.0073  1.2985
  918MOL0     H26626   1.369   8.535   0.853  1.6754 -2.0789 -6.6236
  918MOL0     H26627   1.470   8.335   0.885 -0.7347  1.6222 -2.1794
  918MOL0     H26628   1.393   8.354   1.036  0.9557  0.2688  0.0650
  918MOL0     H26629   1.360   8.122   0.937 -0.1572  0.5792  1.1221
  918MOL0     H26630   1.248   8.196   0.823 -0.1952  0.3693 -0.1976
  918MOL0     H26631   1.211   8.163   1.126 -2.1276 -2.3895  0.2052
  918MOL0     H26632   1.120   8.285   1.036 -1.8530 -1.6262 -1.1444
  918MOL0     H26633   1.144   7.919   1.091 -3.2684 -3.5167 -0.3273
  918MOL0     H26634   0.833   7.768   0.967 -0.1217  2.4390  0.6405
  918MOL0     H26635   0.989   7.727   1.047 -1.4467 -1.2767  0.1056
  918MOL0     H26636   0.960   7.568   0.874 -1.1232 -1.0889 -3.2785
  918MOL0     H26637   0.901   7.685   0.766 -1.0672 -2.9034  1.4246
  918MOL0     H26638   1.165   7.779   0.770  1.4535 -0.6777 -1.8786
  918MOL0     H26639   1.191   7.621   0.851  0.8048  1.4932 -0.8836
  918MOL0     H26640   1.121   7.682   0.574  0.5498  0.1013 -0.2049
  918MOL0     H26641   1.269   7.648   0.643 -0.3896  2.3714  1.3198
  918MOL0     H26642   1.214   7.604   0.392  3.1584  0.4904 -1.6838
  918MOL0     H26643   1.422   7.524   0.159  0.4326 -0.6959 -0.7381
  918MOL0     H26644   1.256   7.611   0.165 -3.6627 -2.1231  1.0063
  918MOL0     H26645   1.276   7.458   0.086  0.6630  0.2385 -0.1909
  918MOL0     H26646   1.665   7.112   0.185 -0.2153 -0.1377  0.4017
  918MOL0     H26647   1.837   7.020   0.055  0.1912 -1.9543 -3.1710
  918MOL0     H26648   1.799   6.988  -0.334 -0.7907  3.2442  0.1574
  918MOL0     H26649   1.870   7.131  -0.399  2.0577  0.1994 -0.0220
  918MOL0     H26650   1.973   6.919  -0.482  0.7877  1.7045 -1.3529
  918MOL0     H26651   2.091   7.013  -0.382 -0.2917 -0.2208  0.2887
  918MOL0     H26652   2.026   6.848  -0.190 -0.4814  0.7567 -1.0582
  918MOL0     H26653   2.139   6.811  -0.331 -0.8268 -3.0607 -2.5314
  918MOL0     H26654   2.021   6.663  -0.435  1.2677  0.2246  1.8272
  918MOL0     H26655   1.864   6.733  -0.371  0.3186  0.3620  1.5161
  918MOL0     H26656   2.061   6.600  -0.191 -0.4087  1.7116 -0.6087
  918MOL0     H26657   1.895   6.641  -0.156 -1.5103  1.5434 -1.3860
  918MOL0     H26658   1.879   6.401  -0.201  1.3398 -0.1270  0.7315
  918MOL0     H26659   1.988   6.418  -0.337 -1.7403 -1.9967  0.0528
  918MOL0     H26660   1.777   6.388  -0.428 -0.5480  0.2071  0.8300
  918MOL0     H26661   1.768   6.572  -0.439 -3.5090  1.6742  2.0396
  918MOL0     H26662   1.633   6.570  -0.239 -0.6875 -0.3306  0.5134
  918MOL0     H26663   1.641   6.396  -0.223 -0.7220  0.6528 -0.4265
  918MOL0     H26664   1.702   7.254  -0.283 -1.5803  0.5909  0.1824
  918MOL0     H26665   1.506   7.328  -0.141  0.4883  3.1750  0.3988
  918MOL0     H26666   1.320   7.121   0.441  0.6324 -2.1650 -2.3760
  918MOL0     H26667   1.202   7.242   0.613  0.9668  1.9265  1.1305
  918MOL0     H26668   1.472   8.100   0.291  0.3298 -1.1027 -0.3371
  918MOL0     H26669   1.604   7.962   0.139  2.0718  1.3525 -1.4842
  918MOL0     H26670   2.072   7.855   0.052 -1.5262  0.3476  2.4876
  918MOL0     H26671   2.211   7.710  -0.099  0.9188 -1.4364 -0.2800
  918MOL0     H26672   2.177   7.590  -0.334  1.9254  0.1299 -0.1633
  918MOL0     H26673   2.296   7.478  -0.284  0.2111 -1.8220 -0.2711
  918MOL0     H26674   2.173   7.301  -0.403  0.8437  0.2855 -1.6208
  918MOL0     H26675   2.155   7.440  -0.512 -3.5742 -3.2364 -2.1480
  918MOL0     H26676   1.942   7.330  -0.509  0.9063  0.7444 -0.9001
  918MOL0     H26677   1.953   7.310  -0.337  0.9459  0.3710 -0.5122
  918MOL0     H26678   1.946   7.553  -0.511  1.4640 -1.1333 -0.0242
  918MOL0     H26679   1.940   7.577  -0.336  1.9103 -1.0888 -0.8125
  918MOL0     H26680   1.541   7.487  -0.367  1.0124 -2.2449  2.0707
  918MOL0     H26681   1.913   7.407  -0.064 -1.6631  0.4245  0.3926
  918MOL0     H26682   1.707   7.542   0.156 -2.3920  0.3753 -0.5771
  918MOL0     H26683   1.677   7.515  -0.025  0.0001  1.0110  0.1448
  918MOL0     H26684   1.761   7.398   0.072 -2.3843 -0.6858  2.0668
  919MOL0     O26685   6.681   0.181   5.361 -0.4442 -0.6779  0.2260
  919MOL0     C26686   6.602   0.267   5.327  0.3250 -0.3361  0.0074
  919MOL0     O26687   6.504   0.321   5.403 -0.5338 -0.7806 -0.3391
  919MOL0     C26688   6.515   0.294   5.538  0.1090  0.4733 -0.8516
  919MOL0     C26689   6.486   0.166   5.591 -0.6977 -0.8907  0.5628
  919MOL0     C26690   6.510   0.131   5.730  0.1758  0.0976 -0.7490
  919MOL0     C26691   6.544   0.244   5.814  0.2402 -0.4537  0.0343
  919MOL0     O26692   6.568   0.242   5.952 -0.2897  0.2688 -0.1618
  919MOL0     C26693   6.637   0.124   5.994  0.7338 -0.2906 -1.0897
  919MOL0     C26694   6.754   0.155   6.096 -0.0655 -0.2919  0.1515
  919MOL0     C26695   6.821   0.031   6.140  0.3483 -0.4732 -0.2666
  919MOL0     C26696   6.923  -0.022   6.044  0.1208  0.5791 -0.7728
  919MOL0     C26697   7.027  -0.109   6.115 -0.3604  0.3687  1.0651
  919MOL0     C26698   7.102  -0.176   6.008 -0.2583  0.6620  0.4735
  919MOL0     C26699   7.201  -0.272   6.074 -1.2682 -0.3160  0.1993
  919MOL0     C26700   7.314  -0.325   5.975 -0.1787 -0.5643 -1.0264
  919MOL0     N26701   7.274  -0.393   5.849 -0.6389 -0.1678  0.8987
  919MOL0     C26702   7.244  -0.528   5.853 -0.1552 -0.7157  0.2640
  919MOL0     C26703   7.213  -0.559   5.720  0.0806  0.3652 -0.2230
  919MOL0     C26704   7.145  -0.690   5.678  0.5703 -0.2316 -0.4825
  919MOL0     C26705   6.997  -0.669   5.629  0.1368  0.7788  0.2017
  919MOL0     C26706   6.905  -0.622   5.743 -0.0067 -0.6876  0.1306
  919MOL0     C26707   6.895  -0.728   5.856  0.2970 -0.0266  0.2485
  919MOL0     O26708   6.785  -0.821   5.825 -0.1713 -0.2911  0.5784
  919MOL0     C26709   6.692  -0.852   5.923 -0.1355  0.1729 -0.0606
  919MOL0     C26710   6.556  -0.826   5.898 -1.4251 -0.4953  0.2415
  919MOL0     C26711   6.468  -0.873   5.993 -0.3891 -0.9487  0.2983
  919MOL0     C26712   6.317  -0.858   5.965 -0.6103 -0.3351  0.5175
  919MOL0     C26713   6.519  -0.918   6.114  0.3104 -0.5190  0.0079
  919MOL0     C26714   6.435  -0.953   6.231  0.4575 -0.2157 -0.7700
  919MOL0     O26715   6.499  -1.007   6.343  0.5266 -0.1892  0.5585
  919MOL0     C26716   6.418  -1.090   6.415 -0.2044 -0.5393  0.0573
  919MOL0     C26717   6.304  -1.046   6.486  0.0708  1.1023  0.1487
  919MOL0     C26718   6.222  -1.145   6.559 -0.2641  1.3159  0.6230
  919MOL0     C26719   6.248  -1.283   6.538 -0.7041 -0.0353 -0.1520
  919MOL0     O26720   6.177  -1.387   6.592  0.0398 -0.1053 -0.1647
  919MOL0     C26721   6.089  -1.355   6.706 -0.4404 -0.4660 -0.3170
  919MOL0     C26722   6.034  -1.492   6.767 -0.4392  0.1220 -0.4245
  919MOL0     C26723   6.104  -1.537   6.898  0.3537 -0.6552  0.1483
  919MOL0     C26724   6.241  -1.596   6.894  0.3044 -0.8989  0.7750
  919MOL0     C26725   6.276  -1.688   6.763  0.6636 -0.1374 -0.4488
  919MOL0     C26726   6.417  -1.740   6.751 -0.1514  0.3700  0.3438
  919MOL0     C26727   6.460  -1.777   6.604 -1.0680  0.0838 -0.6009
  919MOL0     C26728   6.597  -1.851   6.622  0.2021 -0.5809 -0.0701
  919MOL0    Cl26729   6.739  -1.757   6.698 -0.3585  0.2623  0.1666
  919MOL0     C26730   6.369  -1.314   6.465  0.3515 -0.3969  0.6762
  919MOL0     C26731   6.454  -1.225   6.409  1.4628  0.2378 -0.4369
  919MOL0     O26732   6.315  -0.942   6.216 -0.3752 -0.9566 -0.2176
  919MOL0     C26733   6.663  -0.932   6.140  0.5929 -0.9122  0.1272
  919MOL0     C26734   6.745  -0.906   6.035 -0.7698  0.3836  0.0509
  919MOL0     N26735   7.211  -0.437   5.644  0.1285  0.9314  0.5480
  919MOL0     N26736   7.259  -0.342   5.719 -0.9657 -0.9267  0.2499
  919MOL0     C26737   6.566   0.366   5.763 -0.6553 -0.7764  1.4294
  919MOL0     C26738   6.549   0.393   5.625  0.0131 -0.4019  0.3212
  919MOL0     C26739   6.574   0.297   5.181  0.1358  1.1148 -0.8351
  919MOL0     C26740   6.441   0.297   5.146  1.0800 -0.4345  0.6430
  919MOL0     C26741   6.403   0.317   5.010  0.5118  0.6805 -0.4444
  919MOL0     C26742   6.497   0.325   4.908 -0.1785 -0.1733 -0.6395
  919MOL0     O26743   6.460   0.342   4.777  0.1570 -0.3416  0.3254
  919MOL0     C26744   6.561   0.329   4.674  0.6200 -0.8489 -0.4671
  919MOL0     C26745   6.487   0.325   4.544 -0.1603  1.0314  0.4141
  919MOL0     C26746   6.408   0.189   4.530  0.1526 -0.0394  0.5817
  919MOL0     C26747   6.328   0.186   4.404  0.7533  0.3351  0.1151
  919MOL0     C26748   6.414   0.218   4.290 -0.0914 -0.1894 -0.3487
  919MOL0     C26749   6.468   0.258   4.185  0.8692  0.4293  0.5153
  919MOL0     C26750   6.630   0.319   4.953 -1.4658  0.6602 -0.3326
  919MOL0     C26751   6.669   0.300   5.087 -0.2245 -0.4887 -0.6017
  919MOL0     C26752   6.814   0.301   5.117  0.0481  0.0270 -0.3420
  919MOL0     H26753   6.463   0.080   5.529  4.9165 -0.7682 -2.3911
  919MOL0     H26754   6.502   0.030   5.768 -3.5593  1.4214  2.5948
  919MOL0     H26755   6.674   0.062   5.912 -0.5891 -1.8530 -0.5616
  919MOL0     H26756   6.566   0.064   6.052 -1.9564 -0.0254 -3.8253
  919MOL0     H26757   6.815   0.224   6.036 -3.5972  0.1556 -3.3479
  919MOL0     H26758   6.708   0.212   6.177 -1.8865  0.0153 -1.0397
  919MOL0     H26759   6.862   0.046   6.240 -0.5159  0.0722  0.0139
  919MOL0     H26760   6.759  -0.058   6.157  1.0083 -0.6335  1.5211
  919MOL0     H26761   6.871  -0.060   5.956 -0.6907 -0.7334  0.2341
  919MOL0     H26762   6.989   0.062   6.019  0.1263  0.5904 -0.7223
  919MOL0     H26763   6.981  -0.182   6.182  0.3643  0.7188  1.9560
  919MOL0     H26764   7.090  -0.045   6.178  0.9633  1.6208 -1.3883
  919MOL0     H26765   7.035  -0.213   5.930  1.8254 -2.6679  0.0600
  919MOL0     H26766   7.159  -0.090   5.971 -1.2153  1.2410  0.3150
  919MOL0     H26767   7.144  -0.357   6.110  0.3246 -1.4099  0.2548
  919MOL0     H26768   7.261  -0.227   6.154  2.3354 -6.5625  1.6984
  919MOL0     H26769   7.377  -0.238   5.952  0.2715 -0.3816  0.7878
  919MOL0     H26770   7.377  -0.397   6.027 -1.6068  0.4460  2.3705
  919MOL0     H26771   7.235  -0.598   5.936  1.0733 -1.0392  0.1364
  919MOL0     H26772   7.165  -0.763   5.757 -2.6594 -1.4677 -0.6870
  919MOL0     H26773   7.193  -0.733   5.590  1.1215 -0.3539 -0.1289
  919MOL0     H26774   6.998  -0.605   5.541 -1.6474 -0.3998 -0.7435
  919MOL0     H26775   6.959  -0.763   5.586  1.8196 -0.0911  0.5038
  919MOL0     H26776   6.946  -0.525   5.772  1.7082 -0.8863 -1.4350
  919MOL0     H26777   6.808  -0.597   5.699  0.5800  0.8703 -0.3773
  919MOL0     H26778   6.987  -0.783   5.880 -1.0711 -2.1710  0.8873
  919MOL0     H26779   6.865  -0.672   5.945 -0.9058  0.7300 -0.6014
  919MOL0     H26780   6.526  -0.783   5.802  0.4319 -0.5123 -0.3910
  919MOL0     H26781   6.288  -0.778   6.034 -0.5797 -0.0085  0.1597
  919MOL0     H26782   6.269  -0.954   5.981 -3.8176  1.2319  1.1078
  919MOL0     H26783   6.293  -0.820   5.865  1.2915 -0.6233 -0.0924
  919MOL0     H26784   6.266  -0.944   6.489 -6.4426 -0.8808  2.9877
  919MOL0     H26785   6.133  -1.107   6.606 -1.3756  0.0653 -0.3840
  919MOL0     H26786   6.142  -1.313   6.792  0.2774 -2.1178  0.0867
  919MOL0     H26787   6.003  -1.294   6.676  0.1003 -1.1278 -3.5706
  919MOL0     H26788   5.929  -1.474   6.793 -0.0702  1.4447  0.2344
  919MOL0     H26789   6.043  -1.576   6.697 -0.2700  0.3384 -0.6633
  919MOL0     H26790   6.038  -1.616   6.934  0.2318  0.6152  2.8877
  919MOL0     H26791   6.092  -1.459   6.973  1.2110 -0.3376 -0.0285
  919MOL0     H26792   6.244  -1.670   6.974  0.4668  0.5281  2.1230
  919MOL0     H26793   6.321  -1.525   6.915 -0.9658  1.0440 -0.6071
  919MOL0     H26794   6.198  -1.766   6.759 -1.8246  2.0848  1.0840
  919MOL0     H26795   6.264  -1.629   6.672 -1.9474 -0.8737 -0.6774
  919MOL0     H26796   6.410  -1.830   6.814 -0.2800  2.3642  3.3798
  919MOL0     H26797   6.484  -1.669   6.799 -1.2927  1.3595  0.5141
  919MOL0     H26798   6.469  -1.691   6.537  3.6071 -0.8495 -1.5421
  919MOL0     H26799   6.381  -1.843   6.567 -3.5513  2.5863 -0.0511
  919MOL0     H26800   6.636  -1.877   6.523 -1.2221 -0.1209 -0.7813
  919MOL0     H26801   6.578  -1.946   6.673  2.8434 -0.3413  1.5176
  919MOL0     H26802   6.400  -1.416   6.444  0.9202 -0.4787  1.8299
  919MOL0     H26803   6.542  -1.254   6.351  0.7416 -0.5897 -1.1472
  919MOL0     H26804   6.706  -0.975   6.230 -0.6128 -1.6342  0.3843
  919MOL0     H26805   6.851  -0.927   6.027 -0.7501 -0.0249  1.1851
  919MOL0     H26806   6.596   0.455   5.816 -3.2070  5.1823 -5.4718
  919MOL0     H26807   6.578   0.494   5.596 -1.7466 -0.2421 -1.0061
  919MOL0     H26808   6.365   0.286   5.223 -0.9268  0.8822 -1.0421
  919MOL0     H26809   6.300   0.308   4.977  0.6067 -2.2418 -0.1801
  919MOL0     H26810   6.622   0.420   4.670 -0.9515  0.1804 -3.5616
  919MOL0     H26811   6.615   0.237   4.699  0.5953 -0.1987  2.3660
  919MOL0     H26812   6.558   0.345   4.463  1.9736 -1.2548  1.5777
  919MOL0     H26813   6.417   0.409   4.546 -2.1653 -0.3832 -2.6001
  919MOL0     H26814   6.466   0.097   4.537  0.5673  0.2388  0.8458
  919MOL0     H26815   6.330   0.183   4.606 -1.9471  0.6567 -1.4033
  919MOL0     H26816   6.247   0.260   4.408 -0.6551 -1.1895  2.3640
  919MOL0     H26817   6.288   0.086   4.386 -1.6233  1.5508 -2.1054
  919MOL0     H26818   6.521   0.268   4.093  2.6215  2.2123  1.6240
  919MOL0     H26819   6.705   0.330   4.875 -0.7891  0.2257  0.2430
  919MOL0     H26820   6.853   0.400   5.139 -1.9627  0.4318  1.8570
  919MOL0     H26821   6.832   0.240   5.207 -0.4647 -1.5501 -1.2560
  919MOL0     H26822   6.871   0.253   5.037  0.6023  1.1787 -0.6559
  920MOL0     O26823   4.232   5.977  10.147 -0.1203 -0.3225  0.1803
  920MOL0     C26824   4.339   5.927  10.123  0.1350  0.5689 -0.2347
  920MOL0     O26825   4.396   5.834  10.195  0.7985  0.0543 -0.0930
  920MOL0     C26826   4.356   5.809  10.332 -0.4712  0.1789  0.7538
  920MOL0     C26827   4.317   5.681  10.375  0.1949  0.1409  1.5230
  920MOL0     C26828   4.328   5.658  10.508 -0.0664  0.1445  0.8035
  920MOL0     C26829   4.351   5.754  10.603 -0.1033  0.1621 -0.7448
  920MOL0     O26830   4.368   5.710  10.737  0.4480 -0.3495 -0.4681
  920MOL0     C26831   4.410   5.808  10.839 -0.0490  0.0521  0.3593
  920MOL0     C26832   4.401   5.753  10.984 -0.3708 -0.2671 -0.0766
  920MOL0     C26833   4.483   5.627  10.987 -0.4001  0.3577 -0.5864
  920MOL0     C26834   4.526   5.592  11.122  0.0561 -0.7283 -0.0983
  920MOL0     C26835   4.662   5.648  11.154 -0.5492  1.1403 -0.4712
  920MOL0     C26836   4.684   5.628  11.310  0.1874 -0.3552 -0.5416
  920MOL0     C26837   4.837   5.652  11.362  0.5012 -0.9572  0.2610
  920MOL0     C26838   4.924   5.528  11.350 -0.9997  0.2768 -0.0890
  920MOL0     N26839   4.870   5.418  11.434 -0.1733 -0.8520 -1.0219
  920MOL0     C26840   4.833   5.290  11.398  0.5511 -0.6217 -0.2121
  920MOL0     C26841   4.759   5.243  11.502  1.4617 -0.7995  0.7114
  920MOL0     C26842   4.680   5.115  11.485 -0.4717  0.2184 -0.1335
  920MOL0     C26843   4.764   4.998  11.516  0.3533 -0.2947 -0.5026
  920MOL0     C26844   4.825   4.935  11.399  0.0704  0.3577  0.0016
  920MOL0     C26845   4.936   4.836  11.421 -1.0470 -0.1490  0.0906
  920MOL0     O26846   4.892   4.731  11.517  1.3744  0.1421 -0.0454
  920MOL0     C26847   4.963   4.682  11.624  0.4321 -0.6344  1.2459
  920MOL0     C26848   5.098   4.704  11.632 -0.3643 -1.3371  0.2850
  920MOL0     C26849   5.167   4.667  11.749 -0.2007 -0.2657 -0.3811
  920MOL0     C26850   5.320   4.686  11.741  0.1479  0.6152 -0.4471
  920MOL0     C26851   5.098   4.621  11.866 -0.2180  0.1014  0.3952
  920MOL0     C26852   5.167   4.582  11.992  0.7625  0.3412 -0.0063
  920MOL0     O26853   5.098   4.609  12.104  0.1293 -0.2388  0.0631
  920MOL0     C26854   5.168   4.603  12.222  0.0212  0.0621 -0.2187
  920MOL0     C26855   5.118   4.527  12.328 -0.5106  0.0330 -0.5453
  920MOL0     C26856   5.184   4.513  12.457 -0.4458 -0.3602 -0.5714
  920MOL0     C26857   5.297   4.595  12.478 -0.2551  0.2207  1.1334
  920MOL0     O26858   5.352   4.592  12.605  0.2118  0.5666  0.1650
  920MOL0     C26859   5.454   4.679  12.648 -1.1286 -0.8020  0.9327
  920MOL0     C26860   5.478   4.668  12.794  0.5761 -0.7674 -0.9594
  920MOL0     C26861   5.593   4.763  12.830  0.0417 -0.5542 -0.5325
  920MOL0     C26862   5.629   4.753  12.974 -0.5220 -0.0452  0.0895
  920MOL0     C26863   5.724   4.864  13.011 -0.3867  0.6632  0.6121
  920MOL0     C26864   5.865   4.851  12.948 -0.3835 -0.1235 -0.3173
  920MOL0     C26865   5.963   4.950  13.020  0.4271 -0.0451 -0.3765
  920MOL0     C26866   6.103   4.915  12.988  0.4427  0.0352 -0.5173
  920MOL0    Cl26867   6.169   4.772  13.071 -0.1119  0.0397 -0.5842
  920MOL0     C26868   5.342   4.687  12.372 -0.3328 -0.3142 -0.6729
  920MOL0     C26869   5.281   4.681  12.247  0.2244 -1.0356  0.6381
  920MOL0     O26870   5.282   4.533  11.982  0.0033 -0.2609  0.2251
  920MOL0     C26871   4.953   4.605  11.857 -0.2412  0.3991  0.2640
  920MOL0     C26872   4.890   4.631  11.734 -0.3022 -0.8143 -0.1995
  920MOL0     N26873   4.746   5.348  11.600 -0.3275 -0.2561 -0.2766
  920MOL0     N26874   4.818   5.441  11.560 -0.3547 -0.0054 -1.0127
  920MOL0     C26875   4.384   5.881  10.559  0.4160 -0.2416 -0.0731
  920MOL0     C26876   4.381   5.911  10.427  0.1083  0.5867 -0.2769
  920MOL0     C26877   4.400   5.981  10.001 -1.2002  0.1340 -0.3897
  920MOL0     C26878   4.504   5.899   9.943 -0.2608 -0.7274  0.4696
  920MOL0     C26879   4.555   5.936   9.818 -0.2018  1.6044  0.1619
  920MOL0     C26880   4.506   6.041   9.737 -0.0907 -0.0874  0.6251
  920MOL0     O26881   4.559   6.064   9.615 -0.4208  0.3103  0.4764
  920MOL0     C26882   4.543   5.955   9.517 -0.2255  0.0267 -0.1189
  920MOL0     C26883   4.451   5.990   9.402  0.7688 -1.2843  0.6603
  920MOL0     C26884   4.321   6.050   9.452  0.7623  0.0316 -0.5183
  920MOL0     C26885   4.221   6.078   9.337  0.4397 -0.3779 -0.5212
  920MOL0     C26886   4.127   6.187   9.363  0.0808 -0.7328 -0.2554
  920MOL0     C26887   4.045   6.277   9.375  0.1362  0.6594  0.5673
  920MOL0     C26888   4.414   6.115   9.797 -0.0036 -0.8292  0.1293
  920MOL0     C26889   4.358   6.097   9.926  0.3144  0.4003 -0.0487
  920MOL0     C26890   4.265   6.198   9.972  0.1761 -0.3962  0.0124
  920MOL0     H26891   4.315   5.600  10.303  2.3358  1.7226 -0.4696
  920MOL0     H26892   4.308   5.556  10.542 -2.6251  0.4927  0.5051
  920MOL0     H26893   4.342   5.894  10.828 -0.2944 -0.0301  1.1062
  920MOL0     H26894   4.512   5.838  10.816 -0.3550 -0.2171 -1.4323
  920MOL0     H26895   4.455   5.815  11.056  0.2732 -0.5773 -0.2938
  920MOL0     H26896   4.300   5.731  11.022  0.7332  1.8656  4.9775
  920MOL0     H26897   4.414   5.553  10.944 -0.1516 -2.0531  2.7689
  920MOL0     H26898   4.570   5.647  10.924 -0.5299  1.7511 -0.3492
  920MOL0     H26899   4.451   5.642  11.184  1.4604  1.2469  0.1069
  920MOL0     H26900   4.530   5.484  11.137  0.5886 -0.7584 -0.4348
  920MOL0     H26901   4.683   5.752  11.129  1.7371  1.2563  1.4927
  920MOL0     H26902   4.738   5.584  11.107  0.3722  1.4936  0.4790
  920MOL0     H26903   4.616   5.699  11.359  1.0854  0.2663 -0.1791
  920MOL0     H26904   4.642   5.536  11.351 -2.5339 -0.0334 -2.2832
  920MOL0     H26905   4.827   5.677  11.468 -0.9381  0.1411 -0.1026
  920MOL0     H26906   4.880   5.738  11.308 -3.8398  0.7378 -0.9161
  920MOL0     H26907   4.919   5.509  11.243 -0.2352  0.9819 -0.2584
  920MOL0     H26908   5.026   5.553  11.380 -1.0338  0.8322 -0.4313
  920MOL0     H26909   4.858   5.245  11.303 -1.9257 -1.4731 -0.5389
  920MOL0     H26910   4.633   5.108  11.387  2.0605 -0.1418 -1.4015
  920MOL0     H26911   4.593   5.115  11.551 -1.4302  0.3243 -1.3615
  920MOL0     H26912   4.843   5.039  11.580 -1.4966  3.4934 -0.3645
  920MOL0     H26913   4.700   4.932  11.575  0.5532 -2.4460 -2.5433
  920MOL0     H26914   4.750   4.869  11.356 -0.3373 -1.7377  3.5496
  920MOL0     H26915   4.858   5.012  11.328  2.3332 -0.3365  0.2064
  920MOL0     H26916   4.966   4.797  11.323 -3.4380 -1.5570 -0.1496
  920MOL0     H26917   5.018   4.895  11.463 -0.0131 -0.4124 -1.4551
  920MOL0     H26918   5.140   4.742  11.539 -1.8350 -1.0126 -0.2747
  920MOL0     H26919   5.353   4.735  11.834 -0.9227 -0.5699  0.5973
  920MOL0     H26920   5.357   4.750  11.661 -1.3424  2.0659 -0.0378
  920MOL0     H26921   5.369   4.589  11.729  0.5264  0.7448 -0.0129
  920MOL0     H26922   5.028   4.476  12.297  0.0036  0.1404 -2.3242
  920MOL0     H26923   5.135   4.449  12.529  0.6198 -2.1857 -1.4091
  920MOL0     H26924   5.544   4.653  12.591 -1.2515  3.1529 -1.4358
  920MOL0     H26925   5.445   4.781  12.611  3.4057 -0.3899  0.4171
  920MOL0     H26926   5.391   4.703  12.851  0.3661 -3.0247  0.1860
  920MOL0     H26927   5.488   4.563  12.820  0.8675 -0.3160  0.9361
  920MOL0     H26928   5.556   4.864  12.813 -3.6189 -2.0527 -2.7936
  920MOL0     H26929   5.676   4.727  12.768 -1.5029 -4.7755 -0.4958
  920MOL0     H26930   5.666   4.650  12.981  1.3120  0.6472  1.3925
  920MOL0     H26931   5.540   4.753  13.038 -0.7633 -4.1412  0.0314
  920MOL0     H26932   5.688   4.967  12.999 -1.3466  0.1365 -1.4225
  920MOL0     H26933   5.740   4.863  13.119 -0.8848  1.7162  0.7057
  920MOL0     H26934   5.863   4.862  12.839 -0.1599 -3.7505 -0.7912
  920MOL0     H26935   5.914   4.755  12.967  2.5274  1.2356 -0.3036
  920MOL0     H26936   5.949   4.982  13.124  0.1633  0.9911 -0.7260
  920MOL0     H26937   5.936   5.041  12.967  5.3667 -0.0627 -3.5826
  920MOL0     H26938   6.149   5.013  13.009 -0.1341  0.1272  0.3691
  920MOL0     H26939   6.117   4.903  12.880  0.0152 -0.3003 -0.5354
  920MOL0     H26940   5.424   4.754  12.393 -1.4445  0.6796  0.6399
  920MOL0     H26941   5.325   4.744  12.170  0.0761  0.7566  1.9509
  920MOL0     H26942   4.902   4.567  11.945 -1.8683  2.7829  0.4574
  920MOL0     H26943   4.782   4.620  11.723 -0.1239 -1.8364 -1.1211
  920MOL0     H26944   4.396   5.968  10.624  2.6945  1.2714 -2.3253
  920MOL0     H26945   4.417   6.008  10.394 -0.4576  0.3740 -1.6015
  920MOL0     H26946   4.552   5.824  10.005 -0.4023 -0.6007  0.7321
  920MOL0     H26947   4.630   5.866   9.780 -1.0373  0.5549  0.4090
  920MOL0     H26948   4.643   5.937   9.477  0.2638  1.0951  0.5875
  920MOL0     H26949   4.510   5.865   9.570 -1.4084  0.8427  0.5671
  920MOL0     H26950   4.431   5.909   9.331 -1.6699 -2.4898  2.5648
  920MOL0     H26951   4.501   6.074   9.353  2.5027 -2.3014  0.5862
  920MOL0     H26952   4.277   5.989   9.531  0.6551 -0.4828 -0.9676
  920MOL0     H26953   4.340   6.147   9.498  0.8649 -0.2249 -0.0142
  920MOL0     H26954   4.168   5.984   9.320  3.7449 -2.9343  1.8663
  920MOL0     H26955   4.286   6.096   9.251  1.5963 -0.2046  0.3642
  920MOL0     H26956   3.979   6.356   9.403  1.5012  1.6461  1.1115
  920MOL0     H26957   4.393   6.211   9.750  2.6161  0.1803  0.8141
  920MOL0     H26958   4.243   6.206  10.079 -1.0396  0.6191 -0.2915
  920MOL0     H26959   4.304   6.295   9.943  1.2137 -0.5390  0.8417
  920MOL0     H26960   4.167   6.175   9.930 -0.2033 -2.0754  1.6177
  921MOL0     O26961   2.747   9.086   2.397 -0.2533  0.7934  0.2744
  921MOL0     C26962   2.662   9.116   2.485  0.1927  0.0317 -0.2693
  921MOL0     O26963   2.568   9.226   2.476 -0.4464  0.2908  0.4658
  921MOL0     C26964   2.570   9.309   2.367  0.2539  0.8525  0.3074
  921MOL0     C26965   2.601   9.264   2.236  0.3557  0.6397 -0.4478
  921MOL0     C26966   2.597   9.349   2.132  0.5258 -0.1747  0.2527
  921MOL0     C26967   2.556   9.486   2.149  0.0324 -0.8466 -0.5274
  921MOL0     O26968   2.555   9.589   2.058 -0.1715 -1.0769  0.6464
  921MOL0     C26969   2.620   9.578   1.925  0.1968 -0.4894 -0.0584
  921MOL0     C26970   2.776   9.588   1.944 -0.3798 -0.5633 -0.1451
  921MOL0     C26971   2.831   9.727   1.976  0.4873 -1.1192 -0.0584
  921MOL0     C26972   2.769   9.848   1.898 -0.0235  0.1333 -0.2790
  921MOL0     C26973   2.842   9.977   1.931  0.4543 -0.0384  0.2453
  921MOL0     C26974   2.957   9.990   1.839 -0.1970  0.0598  0.2542
  921MOL0     C26975   3.059  10.092   1.897  0.0181 -0.0490  0.0455
  921MOL0     C26976   3.192  10.113   1.815  1.4330 -0.1607 -0.4523
  921MOL0     N26977   3.283  10.203   1.880  0.7050 -0.1536 -0.3996
  921MOL0     C26978   3.280  10.343   1.851  1.2723 -0.1411  0.9780
  921MOL0     C26979   3.382  10.392   1.914  0.2351  0.7143 -0.6452
  921MOL0     C26980   3.430  10.537   1.905  0.0297  0.8568 -0.5995
  921MOL0     C26981   3.319  10.646   1.932 -0.7021  0.3985 -0.8052
  921MOL0     C26982   3.366  10.789   1.915 -1.0676 -0.6225 -0.1983
  921MOL0     C26983   3.425  10.859   2.041 -0.4567 -1.0444 -0.4329
  921MOL0     O26984   3.329  10.886   2.138 -0.5008 -0.1033  0.1353
  921MOL0     C26985   3.381  10.931   2.262  0.6622  0.3233  0.0948
  921MOL0     C26986   3.505  10.990   2.288  0.5301  0.0200  1.2774
  921MOL0     C26987   3.550  11.036   2.406 -0.6308  0.4417  0.5770
  921MOL0     C26988   3.692  11.061   2.424  0.1713 -0.2931 -0.6080
  921MOL0     C26989   3.454  11.040   2.513  0.5434  0.3679 -0.2353
  921MOL0     C26990   3.464  11.116   2.642 -0.1409  0.6482  0.1086
  921MOL0     O26991   3.586  11.181   2.674  0.4758 -0.5370 -0.0390
  921MOL0     C26992   3.601  11.295   2.743  0.5055 -0.5327 -0.4664
  921MOL0     C26993   3.523  11.330   2.857  0.8860 -0.0956  0.4476
  921MOL0     C26994   3.523  11.455   2.917 -0.9803 -0.8233  0.9183
  921MOL0     C26995   3.618  11.549   2.875 -0.7871 -0.1666 -0.8110
  921MOL0     O26996   3.622  11.679   2.927 -0.1577  0.2631 -0.6031
  921MOL0     C26997   3.514  11.768   2.893  0.6724  0.5733 -0.6095
  921MOL0     C26998   3.520  11.863   3.018 -0.2189  0.3798 -0.5449
  921MOL0     C26999   3.443  11.991   3.002 -0.1210 -0.0223 -0.3406
  921MOL0     C27000   3.529  12.100   2.945 -0.6044  0.0571 -0.4546
  921MOL0     C27001   3.479  12.248   2.958 -0.2758 -0.8579  0.4372
  921MOL0     C27002   3.332  12.269   2.917 -0.6100 -0.9906 -0.4794
  921MOL0     C27003   3.301  12.416   2.925 -0.6759 -0.0028  0.4549
  921MOL0     C27004   3.159  12.442   2.863  0.3102 -0.0601  0.2171
  921MOL0    Cl27005   3.028  12.317   2.917  0.2223 -0.2334 -0.3866
  921MOL0     C27006   3.692  11.522   2.753  0.1427  0.1119  0.4437
  921MOL0     C27007   3.685  11.404   2.689  0.2346  0.2758 -0.1399
  921MOL0     O27008   3.368  11.119   2.714  0.0024  0.0217 -0.0759
  921MOL0     C27009   3.319  10.971   2.489  0.1570 -0.9431  0.0433
  921MOL0     C27010   3.284  10.929   2.363 -0.2311 -0.3793  0.3591
  921MOL0     N27011   3.438  10.294   1.998  0.9664 -0.1678 -0.5504
  921MOL0     N27012   3.367  10.191   1.982 -0.0104  0.9768  0.9101
  921MOL0     C27013   2.500   9.524   2.270  0.0654 -0.4151  0.4796
  921MOL0     C27014   2.514   9.436   2.379 -1.3153  0.3920 -0.4041
  921MOL0     C27015   2.670   9.052   2.619  0.8086 -0.6478  0.0424
  921MOL0     C27016   2.637   9.109   2.738  0.7245 -0.3677  0.3142
  921MOL0     C27017   2.615   9.039   2.858  0.2899 -0.7537 -0.5254
  921MOL0     C27018   2.659   8.911   2.867  0.0819  0.3100  0.4774
  921MOL0     O27019   2.654   8.849   2.984  0.6760 -0.1546 -0.4292
  921MOL0     C27020   2.536   8.866   3.055  0.1880 -0.3715 -1.1190
  921MOL0     C27021   2.544   8.748   3.148  0.5071  0.2595 -0.2917
  921MOL0     C27022   2.680   8.722   3.211 -0.1815 -0.0426 -0.0428
  921MOL0     C27023   2.767   8.839   3.258 -0.0912 -0.1761  0.3530
  921MOL0     C27024   2.871   8.783   3.339  0.3864 -0.6216  0.1685
  921MOL0     C27025   2.974   8.773   3.402 -0.0148 -0.5591 -0.7560
  921MOL0     C27026   2.711   8.847   2.759 -0.5503  0.2121 -0.9281
  921MOL0     C27027   2.714   8.915   2.633 -1.3330 -0.5548 -0.1501
  921MOL0     C27028   2.760   8.833   2.516 -0.6230 -0.3795  0.5194
  921MOL0     H27029   2.623   9.158   2.230 -0.1166  0.2396  2.9822
  921MOL0     H27030   2.621   9.319   2.031 -2.0791  3.2245 -1.5774
  921MOL0     H27031   2.584   9.653   1.854  0.6273  1.2382  1.4641
  921MOL0     H27032   2.585   9.481   1.888 -0.6987  0.3859 -1.6441
  921MOL0     H27033   2.817   9.519   2.018  3.1213  0.0147 -1.3614
  921MOL0     H27034   2.826   9.566   1.849  0.5580 -1.8475  0.6113
  921MOL0     H27035   2.825   9.749   2.083 -0.0889  2.4621 -0.7069
  921MOL0     H27036   2.940   9.719   1.966  0.7681  0.6069  1.0654
  921MOL0     H27037   2.766   9.835   1.789  1.4610 -4.0163 -0.0013
  921MOL0     H27038   2.669   9.873   1.933 -0.5062 -0.4061 -1.2251
  921MOL0     H27039   2.869   9.979   2.037 -0.2999 -1.8409  0.5079
  921MOL0     H27040   2.785  10.066   1.901  2.8039  2.6409  3.0994
  921MOL0     H27041   3.009   9.894   1.828 -1.6094 -0.7376  0.2972
  921MOL0     H27042   2.927  10.017   1.737 -0.2207 -1.5049 -0.1891
  921MOL0     H27043   3.102  10.067   1.994 -2.4569 -2.2953  0.6638
  921MOL0     H27044   3.015  10.189   1.921 -0.0055  0.1659 -0.8275
  921MOL0     H27045   3.237  10.013   1.813 -1.4277 -1.5402 -0.4319
  921MOL0     H27046   3.173  10.137   1.710  0.9772  0.1412 -0.3059
  921MOL0     H27047   3.215  10.397   1.783  1.9352 -0.6879 -0.1246
  921MOL0     H27048   3.480  10.559   1.809  0.1008  2.0084 -0.3155
  921MOL0     H27049   3.496  10.557   1.990 -1.7002 -0.4480  1.1146
  921MOL0     H27050   3.242  10.620   1.859 -1.0713 -4.4394  0.9377
  921MOL0     H27051   3.283  10.634   2.034  0.6330  1.3951 -0.1910
  921MOL0     H27052   3.422  10.796   1.822 -0.9407 -0.5411 -0.1157
  921MOL0     H27053   3.274  10.846   1.897  0.2156  1.2572 -1.2132
  921MOL0     H27054   3.505  10.797   2.082  2.2158  2.3904 -0.0020
  921MOL0     H27055   3.472  10.953   2.011 -2.6867  0.5211  0.6388
  921MOL0     H27056   3.569  10.990   2.200 -1.0835 -1.0981  0.0243
  921MOL0     H27057   3.704  11.169   2.408 -0.4094 -0.2771 -1.0094
  921MOL0     H27058   3.741  10.997   2.350  0.0025 -0.4697 -0.5687
  921MOL0     H27059   3.742  11.025   2.514  0.0082  3.5295  1.2031
  921MOL0     H27060   3.442  11.265   2.889 -0.7816  0.2000 -2.8002
  921MOL0     H27061   3.466  11.481   3.006  2.8526 -2.6393  4.2282
  921MOL0     H27062   3.533  11.819   2.798  1.3651 -0.7212 -1.1952
  921MOL0     H27063   3.419  11.715   2.897 -0.5252  2.6874  2.2149
  921MOL0     H27064   3.490  11.814   3.110  1.6502 -1.4074 -0.8082
  921MOL0     H27065   3.624  11.893   3.032 -0.1337 -0.2841  0.3026
  921MOL0     H27066   3.412  12.025   3.101 -1.8618  3.5380 -1.9149
  921MOL0     H27067   3.347  11.966   2.956 -0.9560  1.8982  0.2667
  921MOL0     H27068   3.547  12.069   2.842  0.7267  1.1289 -0.5710
  921MOL0     H27069   3.630  12.107   2.987 -1.3850  0.4815  1.4556
  921MOL0     H27070   3.481  12.289   3.059 -0.0005 -1.2139  0.5780
  921MOL0     H27071   3.545  12.301   2.890  0.2434 -1.7950  0.1951
  921MOL0     H27072   3.259  12.218   2.981  1.1976 -4.0620 -0.6889
  921MOL0     H27073   3.326  12.234   2.814 -1.6620  0.7137 -1.0233
  921MOL0     H27074   3.386  12.469   2.882  0.6966 -1.7170  0.9578
  921MOL0     H27075   3.287  12.453   3.027  0.2801  0.9364  0.2649
  921MOL0     H27076   3.162  12.439   2.754  0.7912  2.6850  0.0935
  921MOL0     H27077   3.134  12.545   2.889  1.5555 -0.3215  2.7312
  921MOL0     H27078   3.758  11.601   2.718  1.8403 -0.3189  2.5020
  921MOL0     H27079   3.735  11.381   2.595  0.9515 -2.5223  0.8066
  921MOL0     H27080   3.239  10.964   2.562 -1.5215  2.6478 -1.2136
  921MOL0     H27081   3.183  10.902   2.333 -0.8127  3.2009 -1.5202
  921MOL0     H27082   2.461   9.624   2.285  1.0382  0.1558 -0.6504
  921MOL0     H27083   2.486   9.465   2.480  3.5824  1.5820  0.8908
  921MOL0     H27084   2.602   9.212   2.734  1.6029 -0.0531  0.4151
  921MOL0     H27085   2.580   9.099   2.942  3.5147  1.0048 -0.2928
  921MOL0     H27086   2.548   8.964   3.103 -0.3646 -0.8175 -0.0281
  921MOL0     H27087   2.443   8.850   2.999 -1.7692 -1.6568  2.1804
  921MOL0     H27088   2.522   8.654   3.097  1.5538 -1.1944  1.7578
  921MOL0     H27089   2.470   8.758   3.228 -0.0545  0.8148 -0.8660
  921MOL0     H27090   2.655   8.673   3.306  1.9388  0.3927  0.7854
  921MOL0     H27091   2.743   8.656   3.152 -2.0782 -0.3665 -1.8397
  921MOL0     H27092   2.715   8.922   3.307  1.7189 -0.3249  2.6617
  921MOL0     H27093   2.825   8.879   3.174  0.5051 -0.3892  0.6576
  921MOL0     H27094   3.071   8.789   3.446 -0.9000 -1.8845  1.8805
  921MOL0     H27095   2.756   8.749   2.775  0.8350  0.4886 -2.9047
  921MOL0     H27096   2.838   8.879   2.455 -1.7978 -1.5301 -1.9947
  921MOL0     H27097   2.797   8.736   2.548  0.4726 -0.1426 -0.0015
  921MOL0     H27098   2.666   8.809   2.464 -0.9229  1.2565  0.2518
  922MOL0     O27099   8.372   3.844   5.944  0.7065  0.5981  0.3970
  922MOL0     C27100   8.332   3.852   6.058 -0.8820  0.6808 -0.0847
  922MOL0     O27101   8.351   3.962   6.130 -0.2221 -1.0276 -0.4483
  922MOL0     C27102   8.345   4.081   6.064 -0.2378  0.1104 -0.0536
  922MOL0     C27103   8.450   4.142   5.992 -0.8826  0.0425 -0.4805
  922MOL0     C27104   8.434   4.263   5.932 -0.4279 -0.4683  1.1947
  922MOL0     C27105   8.305   4.312   5.923 -0.1154  0.3519  0.5651
  922MOL0     O27106   8.278   4.428   5.865 -0.0181  0.0237  0.1623
  922MOL0     C27107   8.301   4.433   5.721 -0.2062  1.1427  0.5377
  922MOL0     C27108   8.300   4.572   5.661 -0.1415 -0.6972 -0.1565
  922MOL0     C27109   8.152   4.616   5.661  0.2302  0.3107  0.8226
  922MOL0     C27110   8.141   4.767   5.643 -0.7920  0.0083 -0.0987
  922MOL0     C27111   7.989   4.799   5.640 -0.5029 -0.2494  0.8060
  922MOL0     C27112   7.946   4.848   5.774 -0.0559 -0.7243 -0.9349
  922MOL0     C27113   7.796   4.838   5.792  0.4500 -0.3652  0.4152
  922MOL0     C27114   7.744   4.949   5.697 -0.2982  0.8775  0.2073
  922MOL0     N27115   7.600   4.950   5.721  0.4164  0.2067  0.1188
  922MOL0     C27116   7.502   4.889   5.642  0.1119  0.6051 -0.8963
  922MOL0     C27117   7.385   4.935   5.681 -0.7886 -0.2850 -0.7512
  922MOL0     C27118   7.252   4.929   5.600  0.9807 -0.3674  1.1921
  922MOL0     C27119   7.167   4.791   5.619 -0.1986  0.4249  0.6614
  922MOL0     C27120   7.251   4.660   5.594 -0.1406  0.3022 -1.1541
  922MOL0     C27121   7.322   4.643   5.450  0.3389  0.5993 -0.3625
  922MOL0     O27122   7.212   4.665   5.360  1.1488  0.2981  0.0363
  922MOL0     C27123   7.141   4.559   5.311 -0.5366  0.0359  0.1056
  922MOL0     C27124   7.044   4.588   5.218  0.9442 -0.5737 -0.1310
  922MOL0     C27125   6.964   4.494   5.148  1.1724 -0.4995  0.5679
  922MOL0     C27126   6.871   4.542   5.036 -0.6697 -0.0867  0.6268
  922MOL0     C27127   6.971   4.363   5.195 -0.1020 -0.0407  0.3737
  922MOL0     C27128   6.890   4.247   5.137 -1.1615  0.6372  0.1707
  922MOL0     O27129   6.887   4.127   5.213  0.1427  0.3706 -0.1776
  922MOL0     C27130   6.786   4.031   5.182  0.0890 -0.0852 -0.2271
  922MOL0     C27131   6.701   3.975   5.280 -0.7918  0.0348  0.4761
  922MOL0     C27132   6.619   3.870   5.254  0.0347  0.7461  0.4385
  922MOL0     C27133   6.610   3.823   5.126 -0.1067  0.4792  0.7602
  922MOL0     O27134   6.501   3.742   5.098 -0.3160  0.4533  0.1382
  922MOL0     C27135   6.401   3.808   5.011  0.4386 -0.3453  0.9773
  922MOL0     C27136   6.282   3.713   4.968 -0.1300  0.0056  0.2363
  922MOL0     C27137   6.325   3.617   4.849 -0.2597 -0.3085 -0.6373
  922MOL0     C27138   6.317   3.683   4.711 -0.6223 -0.0602  0.4918
  922MOL0     C27139   6.344   3.587   4.603 -0.2404  0.2228  0.0669
  922MOL0     C27140   6.497   3.558   4.615 -0.4559  0.3783  0.3117
  922MOL0     C27141   6.533   3.472   4.484  0.3459 -0.5268  0.0851
  922MOL0     C27142   6.685   3.437   4.496 -0.0340  0.3697 -0.6004
  922MOL0    Cl27143   6.781   3.587   4.451 -0.1402 -0.2952  0.0188
  922MOL0     C27144   6.703   3.857   5.028  0.5013 -0.0916  0.0277
  922MOL0     C27145   6.782   3.972   5.055 -0.9538  0.5069 -0.2440
  922MOL0     O27146   6.809   4.280   5.053 -0.5757  0.5849  0.3879
  922MOL0     C27147   7.058   4.332   5.306  0.4481  0.2327  0.4373
  922MOL0     C27148   7.140   4.431   5.352  0.0937  0.2547  0.0186
  922MOL0     N27149   7.396   5.019   5.796 -0.7776  0.1954  0.7446
  922MOL0     N27150   7.532   5.026   5.806  0.4681 -0.4650  0.6612
  922MOL0     C27151   8.193   4.255   5.988 -0.3408  0.7777 -0.2426
  922MOL0     C27152   8.225   4.148   6.070 -0.2223 -0.1127  0.1167
  922MOL0     C27153   8.266   3.736   6.123  0.6205 -0.5501 -0.4182
  922MOL0     C27154   8.229   3.621   6.044 -0.6468 -0.4346 -0.4224
  922MOL0     C27155   8.164   3.514   6.107  0.3947 -0.1249 -0.7037
  922MOL0     C27156   8.138   3.506   6.243 -0.5345  0.0412 -0.0134
  922MOL0     O27157   8.079   3.397   6.299  0.9812  0.0676 -0.5607
  922MOL0     C27158   8.082   3.267   6.230  0.6908 -0.4741 -0.3778
  922MOL0     C27159   8.223   3.225   6.270 -0.3482  1.1049  0.9490
  922MOL0     C27160   8.216   3.154   6.414  0.1484 -0.5155  1.1958
  922MOL0     C27161   8.346   3.150   6.484 -0.4739  0.4687 -1.0453
  922MOL0     C27162   8.369   3.045   6.588 -0.6685  0.4999 -0.3013
  922MOL0     C27163   8.412   2.962   6.673  0.6368  0.1111 -0.3841
  922MOL0     C27164   8.180   3.616   6.323 -0.6694 -1.1942 -0.3109
  922MOL0     C27165   8.240   3.725   6.266  0.1673 -0.6018 -0.6598
  922MOL0     C27166   8.294   3.831   6.359 -0.5897  0.3764  0.3454
  922MOL0     H27167   8.546   4.093   6.005  0.1607  2.6732  4.5028
  922MOL0     H27168   8.513   4.316   5.881  0.6883 -3.6035 -0.5847
  922MOL0     H27169   8.239   4.367   5.659 -1.0346  1.9425  0.4861
  922MOL0     H27170   8.401   4.403   5.688 -1.3448 -4.0678  1.0301
  922MOL0     H27171   8.366   4.636   5.721  1.9133 -1.9610 -0.9819
  922MOL0     H27172   8.341   4.574   5.560 -1.3851 -2.0283 -0.7104
  922MOL0     H27173   8.100   4.580   5.572  1.4594 -0.1989  0.2897
  922MOL0     H27174   8.100   4.583   5.751  1.2717  3.1234  2.6009
  922MOL0     H27175   8.191   4.823   5.722 -1.0736  1.1589 -0.7230
  922MOL0     H27176   8.201   4.799   5.557  2.7883 -1.4597  1.6352
  922MOL0     H27177   7.925   4.721   5.597 -0.5575  0.0440  0.3501
  922MOL0     H27178   7.990   4.888   5.576 -2.0028 -1.4059 -0.8976
  922MOL0     H27179   7.999   4.783   5.844  1.9711  1.8435  0.0622
  922MOL0     H27180   7.987   4.949   5.783 -3.3437  0.7463 -1.2265
  922MOL0     H27181   7.774   4.859   5.897  0.1001 -0.1256  0.2962
  922MOL0     H27182   7.751   4.742   5.766 -1.6930  1.1347 -1.9428
  922MOL0     H27183   7.776   5.052   5.718 -2.4372  1.7641 -0.5975
  922MOL0     H27184   7.766   4.932   5.591  0.6512  2.0924  0.1830
  922MOL0     H27185   7.515   4.825   5.556 -1.0623 -2.4545  1.0254
  922MOL0     H27186   7.265   4.937   5.492  0.6445  0.2506  1.1936
  922MOL0     H27187   7.203   5.022   5.628  1.1043 -0.9440  3.5975
  922MOL0     H27188   7.123   4.785   5.719 -3.3106  1.4027 -0.5107
  922MOL0     H27189   7.082   4.796   5.550  1.4993  2.0517 -1.4652
  922MOL0     H27190   7.321   4.627   5.672 -0.5888 -0.7781 -1.1862
  922MOL0     H27191   7.172   4.584   5.599 -0.6834  0.8828 -0.8253
  922MOL0     H27192   7.402   4.717   5.446 -0.1399  1.0860 -1.2290
  922MOL0     H27193   7.360   4.542   5.432 -2.3126 -0.3159 -1.4788
  922MOL0     H27194   7.039   4.692   5.185 -1.6964 -0.7328 -0.4685
  922MOL0     H27195   6.884   4.500   4.936 -2.3522  1.0594 -0.1202
  922MOL0     H27196   6.886   4.648   5.013 -0.2488 -0.3259 -0.2182
  922MOL0     H27197   6.767   4.526   5.066 -1.7765  1.5679 -2.0346
  922MOL0     H27198   6.717   4.019   5.378  0.1364 -0.7189  0.6849
  922MOL0     H27199   6.551   3.813   5.318  1.1439 -1.7661 -0.4733
  922MOL0     H27200   6.362   3.900   5.055 -1.2265  0.3002 -1.6413
  922MOL0     H27201   6.453   3.856   4.928  2.5906  2.0620  3.4811
  922MOL0     H27202   6.248   3.655   5.054  0.9771 -1.1960 -0.1027
  922MOL0     H27203   6.194   3.760   4.924 -1.3127 -2.4615 -0.2061
  922MOL0     H27204   6.251   3.537   4.854 -2.6203  1.7793  0.6254
  922MOL0     H27205   6.417   3.569   4.884 -0.4754  0.1467  0.6377
  922MOL0     H27206   6.377   3.773   4.695  1.6288 -1.7570 -1.2656
  922MOL0     H27207   6.211   3.710   4.706 -0.9243 -1.2875 -0.1501
  922MOL0     H27208   6.297   3.495   4.640 -0.5380 -0.1994 -1.3155
  922MOL0     H27209   6.304   3.616   4.506 -0.3781 -0.0973  0.0288
  922MOL0     H27210   6.523   3.494   4.699  0.1126 -0.1631 -0.2643
  922MOL0     H27211   6.557   3.649   4.627 -0.4924  0.2230  1.7943
  922MOL0     H27212   6.511   3.529   4.393 -2.9322 -0.0642  1.0460
  922MOL0     H27213   6.466   3.385   4.492  0.3781 -0.7364 -1.6593
  922MOL0     H27214   6.713   3.357   4.427  0.3137 -0.5650  0.5898
  922MOL0     H27215   6.711   3.397   4.594  0.2755  0.3350 -0.6925
  922MOL0     H27216   6.723   3.819   4.928 -1.1119  2.8506 -1.5505
  922MOL0     H27217   6.854   3.997   4.977  0.5677  3.1427  1.8116
  922MOL0     H27218   7.057   4.229   5.340  1.5708 -0.0845 -0.4446
  922MOL0     H27219   7.196   4.405   5.441  0.6024 -0.1007 -0.3998
  922MOL0     H27220   8.091   4.293   5.984 -0.7854 -0.4785 -2.6843
  922MOL0     H27221   8.147   4.098   6.128 -0.2605 -1.4593 -1.0533
  922MOL0     H27222   8.251   3.607   5.939  0.2436 -2.4728 -0.0150
  922MOL0     H27223   8.133   3.432   6.043  0.0441 -2.7985  2.6032
  922MOL0     H27224   8.005   3.205   6.277  0.0659 -1.1600 -2.2330
  922MOL0     H27225   8.070   3.268   6.122  0.8659 -1.3101 -0.4153
  922MOL0     H27226   8.299   3.304   6.270  1.7805 -0.7122  4.1517
  922MOL0     H27227   8.239   3.142   6.200  1.5159  0.2958  2.2550
  922MOL0     H27228   8.150   3.209   6.482 -0.8706  0.0327 -0.1863
  922MOL0     H27229   8.165   3.060   6.391 -0.4671  0.0745  0.0483
  922MOL0     H27230   8.357   3.251   6.524  1.8862 -0.4969  0.9913
  922MOL0     H27231   8.435   3.140   6.420  0.1337 -0.8310 -0.0431
  922MOL0     H27232   8.436   2.895   6.753  0.3834  0.7876  0.2633
  922MOL0     H27233   8.166   3.624   6.430 -3.2809  0.2708 -0.6694
  922MOL0     H27234   8.398   3.856   6.334 -0.3330 -1.9051 -1.2393
  922MOL0     H27235   8.236   3.922   6.344  2.6910  2.9890  2.0056
  922MOL0     H27236   8.285   3.798   6.463 -2.5862  0.5357  0.2600
  923MOL0     O27237  10.072   3.049   7.760  0.5380 -0.0051 -0.2520
  923MOL0     C27238  10.042   3.021   7.878  0.7417 -0.9327 -0.2006
  923MOL0     O27239  10.096   3.086   7.981  0.3338 -0.3485 -0.5999
  923MOL0     C27240  10.192   3.173   7.958 -0.5399  0.5711  0.3417
  923MOL0     C27241  10.320   3.137   7.983 -1.4970 -0.5861  0.2605
  923MOL0     C27242  10.427   3.228   7.956  0.0153  0.0709  0.8031
  923MOL0     C27243  10.394   3.351   7.898 -0.9702 -0.1066  0.3315
  923MOL0     O27244  10.506   3.432   7.877 -0.0061 -0.2503  0.5268
  923MOL0     C27245  10.580   3.487   7.989 -0.0418 -0.3033 -0.7149
  923MOL0     C27246  10.679   3.598   7.944 -0.1214 -0.1487 -0.8830
  923MOL0     C27247  10.807   3.544   7.888 -0.7085 -0.3265  0.1546
  923MOL0     C27248  10.912   3.653   7.873  0.6569  0.4901 -0.8653
  923MOL0     C27249  11.043   3.596   7.854  0.1759  0.0720 -0.0821
  923MOL0     C27250  11.151   3.708   7.832  0.6115 -0.1564  0.3608
  923MOL0     C27251  11.257   3.649   7.736  0.6817  0.0339 -1.5938
  923MOL0     C27252  11.346   3.557   7.812  0.2578  1.0519  0.0456
  923MOL0     N27253  11.440   3.485   7.719  0.4651  0.3106 -0.1945
  923MOL0     C27254  11.504   3.545   7.616  0.0382 -0.1395 -1.2771
  923MOL0     C27255  11.539   3.437   7.541 -0.1243  0.5920  0.4695
  923MOL0     C27256  11.645   3.453   7.424 -0.2330  0.7230  0.5114
  923MOL0     C27257  11.792   3.451   7.472 -0.6319  0.1552  0.7694
  923MOL0     C27258  11.894   3.459   7.362  1.0103  0.2062  0.8385
  923MOL0     C27259  12.029   3.431   7.429 -1.0174  0.0912 -0.3231
  923MOL0     O27260  12.155   3.433   7.349 -0.0553 -0.1190 -0.1552
  923MOL0     C27261  12.194   3.560   7.304  1.2378 -0.4015  1.0392
  923MOL0     C27262  12.300   3.572   7.213  1.0880  0.2789  0.4385
  923MOL0     C27263  12.340   3.686   7.146 -0.4968 -0.7140  0.3478
  923MOL0     C27264  12.464   3.688   7.066  1.0912  0.2982 -0.3893
  923MOL0     C27265  12.260   3.803   7.167 -0.1931 -0.1755  0.0128
  923MOL0     C27266  12.270   3.936   7.088  0.2416 -0.0557 -0.3354
  923MOL0     O27267  12.381   3.963   7.005  0.1043 -0.7630  0.1005
  923MOL0     C27268  12.375   4.076   6.923 -0.7655 -0.0960  0.0097
  923MOL0     C27269  12.483   4.161   6.928  0.1024 -0.4873 -0.2735
  923MOL0     C27270  12.504   4.265   6.839 -1.0018  0.6720  0.4239
  923MOL0     C27271  12.404   4.292   6.738 -1.5056  0.0985  0.1104
  923MOL0     O27272  12.423   4.400   6.660  0.2225 -0.8341  0.4414
  923MOL0     C27273  12.315   4.432   6.561 -0.8375  0.7185 -0.8315
  923MOL0     C27274  12.356   4.561   6.490 -0.4056  0.3106 -0.7769
  923MOL0     C27275  12.240   4.619   6.402 -1.1455  0.1486  0.1258
  923MOL0     C27276  12.290   4.746   6.342 -0.4277 -0.9047  0.0395
  923MOL0     C27277  12.190   4.795   6.250 -0.2969  0.2856  0.4739
  923MOL0     C27278  12.235   4.914   6.167 -0.0848 -0.4205  0.1899
  923MOL0     C27279  12.209   5.041   6.253  0.3092 -1.5623 -0.1397
  923MOL0     C27280  12.241   5.162   6.169 -0.6337  0.0165 -0.6333
  923MOL0    Cl27281  12.417   5.164   6.151  0.3332 -0.0059 -0.1703
  923MOL0     C27282  12.293   4.206   6.735 -0.6013 -0.4987  0.2134
  923MOL0     C27283  12.277   4.098   6.824  1.1273  0.9661  0.0177
  923MOL0     O27284  12.177   4.010   7.106  0.4044 -0.5275 -0.1237
  923MOL0     C27285  12.159   3.798   7.270 -0.4667 -1.0921 -0.2358
  923MOL0     C27286  12.134   3.682   7.341  0.4572  0.6447 -0.0617
  923MOL0     N27287  11.516   3.322   7.609  0.4355 -0.4087 -0.3765
  923MOL0     N27288  11.454   3.349   7.716 -0.1763 -0.6500 -0.0210
  923MOL0     C27289  10.262   3.391   7.873 -0.1440  0.4135 -1.1473
  923MOL0     C27290  10.162   3.297   7.907  0.0357 -0.1657  1.4166
  923MOL0     C27291   9.949   2.905   7.915  0.0089 -0.9296  0.2242
  923MOL0     C27292   9.931   2.882   8.052  0.4470 -0.2351 -0.4130
  923MOL0     C27293   9.842   2.787   8.095  0.9221  0.3295  0.7967
  923MOL0     C27294   9.769   2.707   8.003  0.3144 -0.3678 -0.6059
  923MOL0     O27295   9.674   2.611   8.032  0.9652  0.2406  0.1724
  923MOL0     C27296   9.617   2.609   8.161 -0.3091 -0.7155  0.0033
  923MOL0     C27297   9.537   2.477   8.180 -0.3225 -0.4964  0.7285
  923MOL0     C27298   9.544   2.430   8.330  0.8153  0.2188 -0.1530
  923MOL0     C27299   9.433   2.320   8.347 -1.3058 -0.6202  0.5819
  923MOL0     C27300   9.397   2.295   8.487  0.0818 -0.3113 -0.6185
  923MOL0     C27301   9.376   2.264   8.605  0.3978  0.4155  0.4939
  923MOL0     C27302   9.788   2.732   7.864  0.6064 -0.4280  0.3266
  923MOL0     C27303   9.873   2.830   7.823 -0.7607 -0.9236  0.3778
  923MOL0     C27304   9.893   2.844   7.673  0.0854  0.0943 -0.5177
  923MOL0     H27305  10.347   3.042   8.028  2.2583  0.6849  1.0416
  923MOL0     H27306  10.522   3.200   8.000 -0.6531  0.9498  2.9578
  923MOL0     H27307  10.644   3.408   8.030  2.7025  0.3218 -3.4594
  923MOL0     H27308  10.509   3.532   8.060  0.6388  1.5267 -1.1277
  923MOL0     H27309  10.632   3.667   7.872  1.4893  0.7712 -1.0896
  923MOL0     H27310  10.716   3.650   8.032  2.1736  2.2625 -3.0896
  923MOL0     H27311  10.858   3.472   7.952  2.5021  1.1785 -0.4714
  923MOL0     H27312  10.779   3.498   7.793 -2.2107 -0.2508  0.5415
  923MOL0     H27313  10.881   3.729   7.800  3.9389  1.9534 -0.8865
  923MOL0     H27314  10.915   3.712   7.965 -1.2002 -1.5047  0.5600
  923MOL0     H27315  11.037   3.535   7.764  1.0424 -1.7961  1.0531
  923MOL0     H27316  11.074   3.529   7.935 -0.5408 -1.8018 -1.2821
  923MOL0     H27317  11.109   3.804   7.801 -1.5886 -1.1908 -0.0974
  923MOL0     H27318  11.197   3.725   7.929  1.2495 -2.7617  0.6005
  923MOL0     H27319  11.304   3.735   7.686  3.8198 -0.0517  0.8929
  923MOL0     H27320  11.207   3.593   7.656  2.2094 -0.1471 -2.4618
  923MOL0     H27321  11.403   3.623   7.877 -0.6712  3.2688 -1.2588
  923MOL0     H27322  11.288   3.475   7.855 -0.7038  0.2097 -2.6074
  923MOL0     H27323  11.517   3.652   7.604 -0.0126  0.1479  0.8253
  923MOL0     H27324  11.628   3.548   7.373  1.9308  1.5332  1.1896
  923MOL0     H27325  11.631   3.366   7.359  1.9067 -0.2186  1.2231
  923MOL0     H27326  11.804   3.543   7.530  0.1193  0.5445  0.0327
  923MOL0     H27327  11.805   3.359   7.529 -1.7195 -0.9899 -0.7474
  923MOL0     H27328  11.887   3.370   7.300 -2.2254  1.2673 -0.5423
  923MOL0     H27329  11.888   3.551   7.302 -1.1690 -0.8035 -0.6385
  923MOL0     H27330  12.044   3.505   7.509 -4.8479 -1.0066  1.6183
  923MOL0     H27331  12.019   3.328   7.463  1.3230  0.0542  0.4024
  923MOL0     H27332  12.352   3.478   7.194  0.5640  0.2746 -1.1256
  923MOL0     H27333  12.551   3.741   7.107 -0.1064  1.4725  0.7131
  923MOL0     H27334  12.445   3.733   6.968 -5.4298  0.2320  0.4549
  923MOL0     H27335  12.484   3.584   7.038 -1.3305 -1.3575  3.3691
  923MOL0     H27336  12.547   4.136   7.012  0.3080 -1.3133 -0.6661
  923MOL0     H27337  12.597   4.317   6.856  0.4479 -0.8803 -2.1564
  923MOL0     H27338  12.326   4.351   6.489 -4.4499 -2.5408  1.8611
  923MOL0     H27339  12.212   4.433   6.598  0.2148 -0.5080  2.4955
  923MOL0     H27340  12.378   4.636   6.567  0.6361  1.2718 -1.9822
  923MOL0     H27341  12.444   4.542   6.429  1.3976 -2.0391  2.2447
  923MOL0     H27342  12.146   4.637   6.455 -0.7047 -0.5509  1.1753
  923MOL0     H27343  12.218   4.544   6.326  1.3978  0.5859 -1.1415
  923MOL0     H27344  12.389   4.743   6.296 -0.3570 -0.3064  0.1447
  923MOL0     H27345  12.305   4.820   6.421  1.9105 -1.7690  0.4945
  923MOL0     H27346  12.171   4.715   6.178  1.2731  1.1282 -0.9547
  923MOL0     H27347  12.093   4.811   6.297 -0.1994  0.3629  0.6517
  923MOL0     H27348  12.174   4.924   6.077  0.9636 -0.0139 -0.4913
  923MOL0     H27349  12.341   4.903   6.141 -0.2218 -2.9492  0.5010
  923MOL0     H27350  12.277   5.037   6.338 -1.0890 -1.7226  1.0051
  923MOL0     H27351  12.107   5.048   6.292  0.7668  0.7854  0.7604
  923MOL0     H27352  12.218   5.251   6.228 -0.7500 -0.1645 -0.4036
  923MOL0     H27353  12.178   5.163   6.079 -3.2967  1.1030  1.1021
  923MOL0     H27354  12.216   4.220   6.660 -0.3551 -2.4244 -0.4490
  923MOL0     H27355  12.199   4.026   6.801  1.6889  0.6927 -1.1063
  923MOL0     H27356  12.110   3.886   7.311  0.3268 -2.1516  3.3874
  923MOL0     H27357  12.057   3.678   7.418  0.0794 -1.8320 -0.4660
  923MOL0     H27358  10.241   3.489   7.833 -1.5382  1.0814  1.0474
  923MOL0     H27359  10.055   3.319   7.907 -0.0108 -0.3003  2.6789
  923MOL0     H27360  10.000   2.927   8.123 -1.1938  1.7052  0.0508
  923MOL0     H27361   9.830   2.755   8.197 -1.1517 -1.2250  0.1107
  923MOL0     H27362   9.704   2.599   8.227 -0.3376 -0.5234  0.0698
  923MOL0     H27363   9.543   2.688   8.177  1.2524  0.4373  1.9260
  923MOL0     H27364   9.582   2.404   8.112  0.6659  0.6258  0.1371
  923MOL0     H27365   9.432   2.492   8.153 -0.9549 -2.8897  1.5765
  923MOL0     H27366   9.642   2.387   8.354  1.2764  0.1962 -1.9369
  923MOL0     H27367   9.521   2.520   8.389 -2.9862 -0.1554 -0.8640
  923MOL0     H27368   9.476   2.227   8.308  1.0726  1.4276 -2.1934
  923MOL0     H27369   9.345   2.340   8.286 -0.3072  0.4731 -0.5676
  923MOL0     H27370   9.368   2.239   8.709 -4.6978 -0.2937  0.2012
  923MOL0     H27371   9.747   2.667   7.787  0.2605  0.0389  0.1098
  923MOL0     H27372   9.840   2.764   7.621 -0.6210  1.0119 -1.2325
  923MOL0     H27373   9.850   2.940   7.643 -3.4871 -0.7520  1.2752
  923MOL0     H27374   9.997   2.841   7.640  0.6140 -1.7280  1.0614
  924MOL0     O27375   9.731  10.835   5.524  0.8367 -0.1755  0.5859
  924MOL0     C27376   9.787  10.800   5.628  0.7414 -0.4721 -0.0056
  924MOL0     O27377   9.916  10.768   5.640  0.1832 -0.3582  0.6434
  924MOL0     C27378   9.984  10.741   5.523  0.1666  0.0171  0.5760
  924MOL0     C27379   9.946  10.667   5.416  0.4409 -0.6647  0.2136
  924MOL0     C27380  10.034  10.644   5.307 -0.2423  0.2228 -0.0044
  924MOL0     C27381  10.166  10.695   5.311 -0.0096 -0.8305 -0.3337
  924MOL0     O27382  10.248  10.677   5.197  0.6791 -0.5193 -0.3365
  924MOL0     C27383  10.210  10.749   5.086  0.1801  1.2896 -0.4168
  924MOL0     C27384  10.311  10.757   4.974 -0.5836  0.0445  0.1804
  924MOL0     C27385  10.350  10.609   4.923  0.6882  0.9473  0.5325
  924MOL0     C27386  10.232  10.544   4.853 -0.2318  0.4817  0.2558
  924MOL0     C27387  10.269  10.409   4.779 -0.4712 -0.5382 -0.6256
  924MOL0     C27388  10.287  10.302   4.879 -0.0980 -0.5262 -0.3583
  924MOL0     C27389  10.343  10.170   4.812  0.2369 -1.1473 -0.1135
  924MOL0     C27390  10.312  10.049   4.887 -0.4699  0.0815 -0.6529
  924MOL0     N27391  10.379  10.026   5.015  0.5234 -0.6240  0.4437
  924MOL0     C27392  10.512  10.043   5.030  1.0204 -0.5487  0.3025
  924MOL0     C27393  10.536   9.959   5.143  0.4176  0.0159  1.5006
  924MOL0     C27394  10.675   9.927   5.188  0.3919 -0.5884 -0.1568
  924MOL0     C27395  10.729  10.044   5.259 -0.0961  0.1484 -0.9093
  924MOL0     C27396  10.861  10.013   5.346  0.1714 -1.0573 -0.3398
  924MOL0     C27397  10.891  10.124   5.457  0.6898  0.5178  0.3326
  924MOL0     O27398  10.991  10.069   5.542 -0.3832 -0.0896 -0.2554
  924MOL0     C27399  11.050  10.164   5.624  0.1524  0.3602 -0.6950
  924MOL0     C27400  11.180  10.132   5.664  0.4038  0.4303 -0.6666
  924MOL0     C27401  11.256  10.214   5.744  0.4910 -0.6904  0.5499
  924MOL0     C27402  11.391  10.153   5.794  0.0159  0.5235  0.1178
  924MOL0     C27403  11.201  10.332   5.797  0.0090  0.0000 -0.0490
  924MOL0     C27404  11.276  10.430   5.883 -1.2286  0.1466  0.9053
  924MOL0     O27405  11.206  10.468   5.992 -0.5505 -0.6405  0.9729
  924MOL0     C27406  11.270  10.543   6.094 -0.4100 -0.3477 -0.8555
  924MOL0     C27407  11.408  10.554   6.125 -0.3916 -0.6333  0.3125
  924MOL0     C27408  11.456  10.629   6.231 -0.0226 -0.7248 -0.9373
  924MOL0     C27409  11.365  10.689   6.324 -0.6167 -1.2520  0.1247
  924MOL0     O27410  11.434  10.751   6.427 -0.1326 -0.2374 -0.3678
  924MOL0     C27411  11.359  10.781   6.546 -0.3732 -0.2532  0.3125
  924MOL0     C27412  11.456  10.857   6.644 -0.7487 -0.7055 -0.4836
  924MOL0     C27413  11.514  10.992   6.593  0.0040 -0.7514 -0.7280
  924MOL0     C27414  11.400  11.095   6.592 -0.4407 -0.5023 -0.3796
  924MOL0     C27415  11.456  11.241   6.580 -0.3422 -0.2327  0.7304
  924MOL0     C27416  11.348  11.339   6.530 -0.2267 -0.2164  0.6049
  924MOL0     C27417  11.359  11.378   6.375 -0.5131 -0.3877 -1.0406
  924MOL0     C27418  11.472  11.484   6.344 -0.2262 -0.2974 -0.2508
  924MOL0    Cl27419  11.429  11.584   6.207  0.8531 -0.1787 -0.5843
  924MOL0     C27420  11.227  10.670   6.291 -0.0070 -0.0995 -0.4356
  924MOL0     C27421  11.178  10.616   6.172  0.1597 -0.1406 -0.5063
  924MOL0     O27422  11.385  10.481   5.853 -0.7523  0.3553 -0.0664
  924MOL0     C27423  11.074  10.363   5.755  0.6614 -0.8041  0.6929
  924MOL0     C27424  10.999  10.280   5.671  0.3176 -0.3554 -0.1364
  924MOL0     N27425  10.422   9.906   5.193  0.1063  0.5837  0.9939
  924MOL0     N27426  10.330   9.942   5.115 -0.3788 -0.5041  0.0066
  924MOL0     C27427  10.203  10.767   5.421 -0.4102  1.1783 -0.1357
  924MOL0     C27428  10.114  10.791   5.523 -0.9902  0.7354 -0.0710
  924MOL0     C27429   9.694  10.816   5.748 -0.1081 -0.0266 -0.4989
  924MOL0     C27430   9.581  10.907   5.754  0.6107  0.4929  0.8057
  924MOL0     C27431   9.493  10.926   5.860 -0.4125  0.4700 -0.5629
  924MOL0     C27432   9.526  10.852   5.966 -0.7588  0.1582 -0.4208
  924MOL0     O27433   9.460  10.851   6.084  0.9819 -0.0402  0.5921
  924MOL0     C27434   9.338  10.917   6.089  0.7597 -0.4241  0.6480
  924MOL0     C27435   9.221  10.840   6.019  0.5525  0.3879  0.4523
  924MOL0     C27436   9.096  10.923   6.044  0.2060 -0.1143  0.9167
  924MOL0     C27437   8.968  10.849   6.011 -0.1394  0.0375  0.0134
  924MOL0     C27438   8.864  10.942   6.028 -0.2825  0.0920  0.6688
  924MOL0     C27439   8.774  11.022   6.037 -0.5042 -0.3931 -0.0610
  924MOL0     C27440   9.641  10.770   5.972  0.5178 -0.1506 -1.2783
  924MOL0     C27441   9.734  10.759   5.872  0.6950  0.2150 -0.8536
  924MOL0     C27442   9.850  10.668   5.908 -0.0225 -0.2474 -0.6229
  924MOL0     H27443   9.850  10.618   5.404  0.4664 -1.5428  2.8423
  924MOL0     H27444   9.999  10.586   5.223 -1.1203 -1.0522  1.2083
  924MOL0     H27445  10.188  10.853   5.112  0.6278  1.0803  0.8955
  924MOL0     H27446  10.125  10.695   5.043 -0.3952  1.5346  0.3834
  924MOL0     H27447  10.272  10.820   4.893 -1.2337 -1.0107 -0.3472
  924MOL0     H27448  10.404  10.798   5.015  1.1826 -2.9603 -0.5389
  924MOL0     H27449  10.424  10.627   4.844  2.3983  4.1836  2.6351
  924MOL0     H27450  10.395  10.548   5.002 -0.8316  1.7315  2.0551
  924MOL0     H27451  10.149  10.523   4.920 -0.5561 -0.5756 -0.4503
  924MOL0     H27452  10.182  10.613   4.784 -0.9601  0.7329  1.0178
  924MOL0     H27453  10.359  10.429   4.720 -1.3198 -1.5545 -2.3241
  924MOL0     H27454  10.185  10.377   4.717 -0.0505  0.0405 -1.5124
  924MOL0     H27455  10.363  10.327   4.954 -1.8168  1.9280  0.6804
  924MOL0     H27456  10.193  10.278   4.929  0.7389 -2.2119  0.4994
  924MOL0     H27457  10.452  10.168   4.822  0.1719  1.1768  1.7873
  924MOL0     H27458  10.304  10.164   4.710 -0.9689 -1.0283  0.3189
  924MOL0     H27459  10.206  10.040   4.911 -0.6759 -4.0162 -2.4191
  924MOL0     H27460  10.337   9.965   4.821 -0.2057 -1.0517  0.8332
  924MOL0     H27461  10.570  10.111   4.969 -1.3538  0.8922 -0.5167
  924MOL0     H27462  10.733   9.897   5.100  0.2163 -1.0664 -0.1101
  924MOL0     H27463  10.681   9.840   5.255  3.8887  0.4870  1.1609
  924MOL0     H27464  10.759  10.127   5.194 -1.3427  2.2425  1.0371
  924MOL0     H27465  10.655  10.077   5.332 -0.2094  0.7991 -1.3064
  924MOL0     H27466  10.848   9.923   5.407 -0.3243 -0.9798 -0.3259
  924MOL0     H27467  10.947   9.998   5.279  1.2916  1.4601  0.3960
  924MOL0     H27468  10.915  10.215   5.401 -2.8181  0.2753 -1.8749
  924MOL0     H27469  10.797  10.148   5.507  0.6812 -0.6986  0.9475
  924MOL0     H27470  11.236  10.048   5.624  1.0347 -0.1786  1.3878
  924MOL0     H27471  11.410  10.200   5.892  0.7747 -2.7328  1.6824
  924MOL0     H27472  11.488  10.169   5.746  2.0201  2.1105  4.1896
  924MOL0     H27473  11.380  10.048   5.819 -0.5952  0.0597 -1.9435
  924MOL0     H27474  11.492  10.509   6.071 -1.5903 -0.3958 -1.8660
  924MOL0     H27475  11.560  10.652   6.251 -0.8036  1.0717  1.5441
  924MOL0     H27476  11.274  10.847   6.524 -0.7472 -0.7190  0.3532
  924MOL0     H27477  11.320  10.685   6.578 -0.3130 -0.0018  1.1627
  924MOL0     H27478  11.410  10.871   6.742  3.4960 -1.9591  1.9595
  924MOL0     H27479  11.542  10.797   6.677  0.0019  1.9158  2.8284
  924MOL0     H27480  11.556  10.996   6.492 -1.6103 -1.2942 -1.4477
  924MOL0     H27481  11.591  11.027   6.663 -1.8574  3.0390 -0.3543
  924MOL0     H27482  11.333  11.089   6.678 -0.2350 -0.3336 -0.2059
  924MOL0     H27483  11.344  11.092   6.499 -1.5899 -1.6787  0.3169
  924MOL0     H27484  11.488  11.279   6.677 -2.9017  0.8904  1.2159
  924MOL0     H27485  11.540  11.228   6.511 -1.5276 -1.5337 -0.5578
  924MOL0     H27486  11.354  11.430   6.590  0.5650  0.1598 -0.0229
  924MOL0     H27487  11.248  11.297   6.538 -0.8678  1.0595 -0.2657
  924MOL0     H27488  11.265  11.424   6.344 -0.2973 -1.3698 -3.3724
  924MOL0     H27489  11.377  11.286   6.318 -2.5922 -0.6167 -1.4143
  924MOL0     H27490  11.560  11.423   6.321  0.0673  0.4822 -1.2771
  924MOL0     H27491  11.497  11.545   6.431 -2.0539  0.9863 -0.5710
  924MOL0     H27492  11.158  10.706   6.366 -1.8354 -0.0140 -2.0954
  924MOL0     H27493  11.073  10.619   6.147 -0.3949 -1.3035  1.4819
  924MOL0     H27494  11.022  10.454   5.784  2.2966  0.4584 -0.2150
  924MOL0     H27495  10.905  10.323   5.636  0.4228 -0.0361 -0.0207
  924MOL0     H27496  10.301  10.807   5.441 -0.0940  0.1570  0.4675
  924MOL0     H27497  10.134  10.853   5.610  0.5468 -0.7397  0.6834
  924MOL0     H27498   9.554  10.969   5.669  1.9548 -1.5703 -1.2551
  924MOL0     H27499   9.420  11.005   5.843 -0.7579 -0.0565 -1.6009
  924MOL0     H27500   9.314  10.929   6.195  0.3960 -1.8005  0.7492
  924MOL0     H27501   9.344  11.015   6.042  1.1914 -1.7589 -2.2910
  924MOL0     H27502   9.205  10.742   6.066 -1.7316  0.5983  0.2560
  924MOL0     H27503   9.232  10.823   5.912  1.1006 -4.6102  1.0605
  924MOL0     H27504   9.092  10.957   6.148  1.0772  3.3471 -0.0642
  924MOL0     H27505   9.091  11.018   5.991  0.4870 -1.0152 -0.7935
  924MOL0     H27506   8.938  10.781   6.092 -1.1083  0.0328 -0.3438
  924MOL0     H27507   8.961  10.819   5.906  1.1424 -0.1563 -0.0412
  924MOL0     H27508   8.709  11.106   6.047  1.6103  1.1691  1.5519
  924MOL0     H27509   9.663  10.710   6.060  1.0648 -1.4369 -2.2680
  924MOL0     H27510   9.833  10.587   5.980  2.2807  0.0531  0.3681
  924MOL0     H27511   9.892  10.627   5.816 -0.3064  2.2809 -1.9641
  924MOL0     H27512   9.932  10.727   5.950  0.2768  1.5003 -3.4297
  925MOL0     O27513   0.742   0.016   0.376  0.2636  0.0224 -0.0144
  925MOL0     C27514   0.656  -0.058   0.425 -0.7875  0.9829  0.0925
  925MOL0     O27515   0.538  -0.103   0.364 -0.6671  0.1798 -0.4901
  925MOL0     C27516   0.554  -0.153   0.237  0.0805 -0.4758  0.6142
  925MOL0     C27517   0.468  -0.087   0.141 -0.3257 -0.6878 -0.5511
  925MOL0     C27518   0.468  -0.124   0.009 -0.3063  0.4716 -0.6526
  925MOL0     C27519   0.569  -0.204  -0.038 -0.1102  0.2490 -0.0554
  925MOL0     O27520   0.587  -0.242  -0.174 -0.0574 -0.0352 -0.0532
  925MOL0     C27521   0.570  -0.137  -0.274  1.2403  0.4948  0.6459
  925MOL0     C27522   0.686  -0.139  -0.368 -0.4953 -0.2227  0.6564
  925MOL0     C27523   0.668  -0.232  -0.489 -0.0877 -0.4976  0.3676
  925MOL0     C27524   0.704  -0.380  -0.451  0.3807 -0.2536 -0.5346
  925MOL0     C27525   0.615  -0.477  -0.527  0.0877 -0.0537 -0.0002
  925MOL0     C27526   0.643  -0.628  -0.486  0.5466  0.7834  0.3614
  925MOL0     C27527   0.568  -0.727  -0.574 -0.0445  0.0603 -0.4118
  925MOL0     C27528   0.626  -0.867  -0.577 -0.1181  0.7910  1.5012
  925MOL0     N27529   0.755  -0.862  -0.651  0.5637 -0.5147  1.0164
  925MOL0     C27530   0.767  -0.923  -0.774  0.1228  0.1020  0.0191
  925MOL0     C27531   0.900  -0.926  -0.787  0.2234  0.5491  0.8581
  925MOL0     C27532   0.958  -1.001  -0.903 -0.4586 -0.5967 -0.7446
  925MOL0     C27533   1.099  -1.036  -0.891 -0.0468  0.1091  0.3045
  925MOL0     C27534   1.124  -1.170  -0.814 -0.0382 -0.2241 -0.2242
  925MOL0     C27535   1.250  -1.239  -0.870 -0.3909  0.8683  0.0797
  925MOL0     O27536   1.318  -1.330  -0.773 -0.6027 -0.2174 -0.5451
  925MOL0     C27537   1.438  -1.387  -0.803 -1.5025  0.3580  0.9664
  925MOL0     C27538   1.515  -1.454  -0.706  1.0594 -0.3067 -0.4443
  925MOL0     C27539   1.627  -1.537  -0.725  0.2804 -0.0994  0.2778
  925MOL0     C27540   1.687  -1.592  -0.598  0.0192  0.1245  0.5432
  925MOL0     C27541   1.671  -1.561  -0.863 -0.7282  0.7356 -0.1434
  925MOL0     C27542   1.769  -1.678  -0.906  0.0686 -0.0063 -0.8684
  925MOL0     O27543   1.782  -1.775  -0.804  0.6405  0.7874  0.5581
  925MOL0     C27544   1.880  -1.873  -0.804 -0.1077  0.0852  0.4558
  925MOL0     C27545   1.961  -1.890  -0.695  0.3046  0.5853 -0.7199
  925MOL0     C27546   2.056  -1.996  -0.694 -0.4897 -0.5051 -0.1862
  925MOL0     C27547   2.083  -2.082  -0.796  0.7544  0.7350 -0.1264
  925MOL0     O27548   2.174  -2.187  -0.792  0.4166 -0.9458 -0.2352
  925MOL0     C27549   2.121  -2.303  -0.843  0.1387  0.0627 -0.3339
  925MOL0     C27550   2.179  -2.427  -0.772  0.4610 -1.8983  0.0513
  925MOL0     C27551   2.298  -2.485  -0.839 -0.6727  0.2884 -0.5902
  925MOL0     C27552   2.278  -2.522  -0.982 -0.9872 -0.7116  0.5055
  925MOL0     C27553   2.400  -2.613  -1.020 -0.1356 -0.5841  0.2763
  925MOL0     C27554   2.400  -2.681  -1.152 -0.2110  0.1034 -0.5942
  925MOL0     C27555   2.531  -2.763  -1.171  0.3705  0.2776  0.9861
  925MOL0     C27556   2.530  -2.858  -1.294 -0.3134 -0.4402 -0.3977
  925MOL0    Cl27557   2.480  -2.787  -1.454 -0.2349 -0.0064  0.1989
  925MOL0     C27558   2.008  -2.054  -0.912  0.6337 -0.8493  0.5606
  925MOL0     C27559   1.918  -1.945  -0.915  0.3299 -0.5418 -0.7465
  925MOL0     O27560   1.819  -1.693  -1.015  0.5352 -0.1907 -0.5881
  925MOL0     C27561   1.611  -1.482  -0.954  0.2848 -0.6122 -0.0318
  925MOL0     C27562   1.504  -1.384  -0.924 -0.2393  0.4991  1.2373
  925MOL0     N27563   0.968  -0.862  -0.686  0.7811 -0.1795 -0.2040
  925MOL0     N27564   0.875  -0.828  -0.598  0.2103  0.2506 -0.2029
  925MOL0     C27565   0.649  -0.272   0.055  0.3478  0.8937 -0.6070
  925MOL0     C27566   0.647  -0.248   0.192  1.3193 -0.5859 -0.2075
  925MOL0     C27567   0.676  -0.101   0.575 -0.0222 -0.1701  0.4249
  925MOL0     C27568   0.561  -0.106   0.650 -0.1380  0.9955  0.9249
  925MOL0     C27569   0.566  -0.148   0.785 -0.4488 -0.7449  0.0368
  925MOL0     C27570   0.692  -0.184   0.841  0.2460 -1.3499 -0.8075
  925MOL0     O27571   0.685  -0.217   0.978  0.5631 -0.1413  0.4940
  925MOL0     C27572   0.811  -0.255   1.045  0.5221  0.3034  0.5399
  925MOL0     C27573   0.780  -0.281   1.189 -0.4206  0.2469  0.2076
  925MOL0     C27574   0.726  -0.167   1.267  0.0954 -1.0423 -0.4012
  925MOL0     C27575   0.724  -0.204   1.416  0.1625 -0.2605  0.2847
  925MOL0     C27576   0.687  -0.072   1.475 -0.7043  0.9861  0.2862
  925MOL0     C27577   0.679   0.034   1.529 -0.1625 -0.3274  0.2658
  925MOL0     C27578   0.802  -0.180   0.761  0.1727  0.0464  0.2510
  925MOL0     C27579   0.796  -0.133   0.632 -0.3520 -1.2393  0.1623
  925MOL0     C27580   0.926  -0.128   0.552 -0.7259  0.7176  0.8401
  925MOL0     H27581   0.401  -0.005   0.164  1.5036  0.0197  3.1034
  925MOL0     H27582   0.394  -0.070  -0.048  2.1909  2.0556 -2.5995
  925MOL0     H27583   0.555  -0.036  -0.235  1.5641  1.5644 -1.8316
  925MOL0     H27584   0.478  -0.168  -0.324  1.3792 -0.5271  0.9945
  925MOL0     H27585   0.683  -0.036  -0.405 -2.1316 -0.1146  1.0240
  925MOL0     H27586   0.777  -0.146  -0.308 -0.2062 -0.6853  0.1670
  925MOL0     H27587   0.563  -0.231  -0.521 -0.1651  0.8843  0.6278
  925MOL0     H27588   0.739  -0.202  -0.566 -1.0012  1.3322  0.1889
  925MOL0     H27589   0.807  -0.398  -0.482  1.6886  1.8128  2.1874
  925MOL0     H27590   0.704  -0.397  -0.343 -0.4886  0.2537 -0.4396
  925MOL0     H27591   0.628  -0.460  -0.634 -1.9817  0.3734 -0.2193
  925MOL0     H27592   0.513  -0.451  -0.496  0.0651  1.5024 -1.3041
  925MOL0     H27593   0.748  -0.654  -0.497 -0.4002 -2.5890 -2.7091
  925MOL0     H27594   0.604  -0.635  -0.384 -2.2348  0.5975 -0.6262
  925MOL0     H27595   0.553  -0.690  -0.676 -0.0254  1.8640  0.2204
  925MOL0     H27596   0.464  -0.736  -0.542  0.4521 -1.4957  0.8784
  925MOL0     H27597   0.645  -0.899  -0.474 -0.9027 -0.6411  1.2359
  925MOL0     H27598   0.551  -0.936  -0.618  0.5314 -0.6526  2.6563
  925MOL0     H27599   0.676  -0.946  -0.829 -1.7249  0.1695  2.8348
  925MOL0     H27600   0.947  -0.933  -0.988  1.6719  3.7077  2.0696
  925MOL0     H27601   0.900  -1.093  -0.919  0.0834 -1.8305  3.2986
  925MOL0     H27602   1.131  -1.058  -0.994 -2.0628 -1.0805 -0.1355
  925MOL0     H27603   1.155  -0.952  -0.850  0.7108 -0.5871  0.7297
  925MOL0     H27604   1.136  -1.143  -0.709  1.6934 -2.3306  0.1746
  925MOL0     H27605   1.038  -1.237  -0.825 -1.2197  0.7453  2.3636
  925MOL0     H27606   1.231  -1.300  -0.959  1.5835 -0.7429  0.6952
  925MOL0     H27607   1.325  -1.160  -0.877  3.5028 -2.4077  1.0907
  925MOL0     H27608   1.480  -1.441  -0.605  2.0017  2.5331 -0.3938
  925MOL0     H27609   1.795  -1.611  -0.605 -0.4383 -1.9168 -2.7401
  925MOL0     H27610   1.635  -1.686  -0.577  0.3929 -0.8171 -2.3404
  925MOL0     H27611   1.666  -1.525  -0.514 -0.2436  0.2215  0.4011
  925MOL0     H27612   1.953  -1.807  -0.626  2.2690  0.4923 -0.3204
  925MOL0     H27613   2.134  -1.996  -0.618 -3.1353  0.9893  2.7310
  925MOL0     H27614   2.013  -2.310  -0.825  0.2018  0.0671  0.0544
  925MOL0     H27615   2.142  -2.298  -0.951  1.8319  1.8471  0.0168
  925MOL0     H27616   2.190  -2.401  -0.666  0.7636  0.2704 -0.4666
  925MOL0     H27617   2.095  -2.497  -0.773 -1.9131  0.7224 -1.8882
  925MOL0     H27618   2.333  -2.573  -0.785 -0.1393  0.6567 -0.3295
  925MOL0     H27619   2.378  -2.410  -0.836 -0.0541 -0.3697  2.5766
  925MOL0     H27620   2.283  -2.436  -1.050 -2.8332 -0.4105  0.7069
  925MOL0     H27621   2.180  -2.570  -0.993 -2.0876  1.6686 -0.9331
  925MOL0     H27622   2.479  -2.538  -1.013 -2.3557  1.8324  1.4374
  925MOL0     H27623   2.417  -2.689  -0.943 -1.6916 -2.4808 -1.1659
  925MOL0     H27624   2.387  -2.613  -1.237  1.6858 -2.4689 -3.1379
  925MOL0     H27625   2.317  -2.753  -1.146  1.2383 -1.6713 -0.9435
  925MOL0     H27626   2.561  -2.822  -1.084 -1.8662 -2.0432  0.3071
  925MOL0     H27627   2.602  -2.684  -1.195 -2.0935  2.1075 -0.8654
  925MOL0     H27628   2.462  -2.941  -1.275 -0.4091 -0.5252 -1.0904
  925MOL0     H27629   2.635  -2.890  -1.304  0.1963  1.0105  0.0246
  925MOL0     H27630   2.020  -2.113  -1.002  4.3055  0.1231  0.2661
  925MOL0     H27631   1.857  -1.935  -1.004 -0.7025 -1.6101 -0.1828
  925MOL0     H27632   1.650  -1.482  -1.056 -0.7023 -2.3806 -0.4522
  925MOL0     H27633   1.457  -1.335  -1.009  0.0861  0.1500  0.8434
  925MOL0     H27634   0.707  -0.356   0.018  0.0346  0.7517 -0.7799
  925MOL0     H27635   0.711  -0.307   0.257  1.4985  0.1808  0.3219
  925MOL0     H27636   0.467  -0.090   0.598  0.7420  0.4065 -0.9119
  925MOL0     H27637   0.474  -0.152   0.843 -0.2129  1.4318  0.6532
  925MOL0     H27638   0.857  -0.344   1.001  0.7549  0.1117  1.1570
  925MOL0     H27639   0.875  -0.166   1.040 -2.9588  2.9820 -3.9822
  925MOL0     H27640   0.874  -0.326   1.222 -1.1636 -1.1713  0.4563
  925MOL0     H27641   0.710  -0.365   1.188  0.8052 -0.7917 -0.3471
  925MOL0     H27642   0.791  -0.080   1.264  1.4267 -1.9629  0.5501
  925MOL0     H27643   0.626  -0.138   1.232  0.6785 -2.4445 -3.5103
  925MOL0     H27644   0.819  -0.242   1.454  0.1099  0.9880  1.7772
  925MOL0     H27645   0.639  -0.269   1.435 -0.7157  0.9083  0.5039
  925MOL0     H27646   0.674   0.135   1.564  0.5274  0.5273 -1.9337
  925MOL0     H27647   0.896  -0.218   0.798 -0.6812 -1.3260  1.1303
  925MOL0     H27648   0.956  -0.030   0.514 -0.0907 -0.0894 -0.8906
  925MOL0     H27649   1.008  -0.156   0.619  0.6303 -1.2880 -1.4561
  925MOL0     H27650   0.933  -0.206   0.475  3.0186 -1.0733  2.7083
  926MOL0     O27651   8.358  10.305   8.434 -0.4777 -0.2720  0.4341
  926MOL0     C27652   8.440  10.245   8.508 -0.0863 -0.4696  0.8113
  926MOL0     O27653   8.434  10.245   8.641  0.7878 -0.0947  0.6030
  926MOL0     C27654   8.325  10.316   8.700  0.7290 -0.4771 -0.0389
  926MOL0     C27655   8.312  10.452   8.732  1.4433  0.0334  0.2891
  926MOL0     C27656   8.186  10.497   8.778  0.1465  0.6767  0.1476
  926MOL0     C27657   8.077  10.409   8.813 -1.5585  0.9109  0.8762
  926MOL0     O27658   7.960  10.450   8.872  0.5661 -0.7750 -0.1074
  926MOL0     C27659   7.964  10.481   9.008  0.6067  0.9409 -0.0937
  926MOL0     C27660   7.830  10.544   9.067 -0.4628  0.3095 -0.3535
  926MOL0     C27661   7.874  10.595   9.207  0.2922  0.2263 -0.4237
  926MOL0     C27662   7.749  10.652   9.272 -0.4241 -0.3405 -0.9383
  926MOL0     C27663   7.798  10.725   9.397  0.2972  0.2511 -0.4863
  926MOL0     C27664   7.684  10.780   9.490  0.1901  0.3930  0.5025
  926MOL0     C27665   7.730  10.842   9.616  0.1280 -0.3012 -0.8163
  926MOL0     C27666   7.606  10.898   9.700 -0.2033 -1.4239 -0.6434
  926MOL0     N27667   7.535  10.798   9.781 -0.0450  0.0386  0.0212
  926MOL0     C27668   7.415  10.732   9.753 -0.6022  0.1431  0.7590
  926MOL0     C27669   7.415  10.627   9.841 -0.6278 -0.0660  0.3516
  926MOL0     C27670   7.323  10.514   9.865 -0.4937 -0.4488 -0.4840
  926MOL0     C27671   7.303  10.446   9.728  0.4006 -0.2512 -0.5906
  926MOL0     C27672   7.425  10.391   9.658 -0.5728  0.3357 -0.4884
  926MOL0     C27673   7.381  10.315   9.527  0.4762 -0.2426 -0.2117
  926MOL0     O27674   7.313  10.410   9.436 -0.4936  0.3026  0.6536
  926MOL0     C27675   7.349  10.412   9.304 -0.3851  0.6907 -0.1775
  926MOL0     C27676   7.382  10.533   9.242 -0.2625 -0.3012 -0.3024
  926MOL0     C27677   7.412  10.542   9.104 -0.2434 -0.5115 -0.3540
  926MOL0     C27678   7.437  10.692   9.054  0.0547  0.0830  0.2925
  926MOL0     C27679   7.418  10.434   9.031  0.1869  0.0757  0.8115
  926MOL0     C27680   7.439  10.423   8.881 -0.1030  0.5278 -0.2032
  926MOL0     O27681   7.444  10.303   8.820  0.4994 -0.5864 -0.5275
  926MOL0     C27682   7.543  10.275   8.725 -0.7890 -0.2853 -0.0908
  926MOL0     C27683   7.674  10.308   8.746  0.4002  0.0052 -0.7787
  926MOL0     C27684   7.776  10.279   8.655  0.3562  1.3071  0.4950
  926MOL0     C27685   7.737  10.216   8.535  0.1364  0.2311 -0.5558
  926MOL0     O27686   7.835  10.170   8.449 -0.0998  0.8432 -0.6428
  926MOL0     C27687   7.953  10.253   8.425 -0.6443  0.1271 -1.0076
  926MOL0     C27688   8.020  10.216   8.296  0.1412  0.1140  0.2864
  926MOL0     C27689   7.940  10.257   8.170  0.5706  0.5026  1.0606
  926MOL0     C27690   8.022  10.237   8.043 -0.6953 -0.2716  0.0410
  926MOL0     C27691   8.074  10.093   8.009 -0.4218  0.3999 -0.4613
  926MOL0     C27692   7.969   9.975   8.021 -0.1411 -0.0517 -0.0835
  926MOL0     C27693   8.020   9.836   7.970  0.6028 -0.7545  0.7356
  926MOL0     C27694   8.005   9.729   8.074 -0.5168  1.2783  0.6414
  926MOL0    Cl27695   8.073   9.579   8.005 -0.4410 -0.0067  0.0307
  926MOL0     C27696   7.609  10.184   8.517 -0.4841 -0.4315 -0.0858
  926MOL0     C27697   7.507  10.212   8.613 -0.4701 -0.2768  0.2704
  926MOL0     O27698   7.443  10.529   8.815  0.1272 -0.4132 -0.0825
  926MOL0     C27699   7.381  10.306   9.091 -0.2498  0.1034  0.6642
  926MOL0     C27700   7.353  10.298   9.225  0.1448 -0.2383 -0.0517
  926MOL0     N27701   7.524  10.642   9.923  0.7178  0.5122  0.2772
  926MOL0     N27702   7.584  10.748   9.897 -0.4694 -0.4862  0.6992
  926MOL0     C27703   8.093  10.267   8.794  0.1502 -0.9114  0.0232
  926MOL0     C27704   8.214  10.226   8.728 -0.4548  0.5255 -1.0891
  926MOL0     C27705   8.557  10.182   8.442 -0.7717  0.7919 -0.1695
  926MOL0     C27706   8.663  10.140   8.528 -0.2126  0.0925  0.4460
  926MOL0     C27707   8.781  10.081   8.477  0.0046 -0.1043 -0.0807
  926MOL0     C27708   8.784  10.048   8.341  0.8336 -0.0350 -0.0679
  926MOL0     O27709   8.891  10.005   8.271 -0.2733 -0.3392  0.1428
  926MOL0     C27710   8.992   9.919   8.321  0.3143  0.2037  0.0352
  926MOL0     C27711   8.935   9.795   8.386 -0.0713 -0.2663 -0.5380
  926MOL0     C27712   9.042   9.690   8.429  0.7179 -0.2433 -0.3020
  926MOL0     C27713   9.142   9.633   8.324 -0.0507  0.1319 -0.2822
  926MOL0     C27714   9.237   9.730   8.259  0.3190  0.4286  0.0900
  926MOL0     C27715   9.304   9.824   8.216  0.4211 -0.4950 -0.2527
  926MOL0     C27716   8.681  10.078   8.257 -0.7378  0.4570 -0.3254
  926MOL0     C27717   8.564  10.146   8.302 -0.4175 -0.4062 -0.1460
  926MOL0     C27718   8.457  10.164   8.205 -0.9515 -0.4019 -0.1545
  926MOL0     H27719   8.387  10.528   8.716  2.1651 -0.5749  0.7306
  926MOL0     H27720   8.162  10.603   8.783 -2.5928  0.2384 -1.6842
  926MOL0     H27721   8.044  10.551   9.032 -2.2863  4.2963  0.5838
  926MOL0     H27722   7.975  10.383   9.055  0.7706  0.5531 -0.9164
  926MOL0     H27723   7.784  10.624   9.009 -2.3367 -0.0510  0.5604
  926MOL0     H27724   7.751  10.472   9.089 -1.6301  1.5322 -0.4722
  926MOL0     H27725   7.916  10.521   9.276 -0.5593 -0.3149 -0.4699
  926MOL0     H27726   7.944  10.677   9.189 -1.7068  2.2033  0.3889
  926MOL0     H27727   7.707  10.723   9.200  1.1004  1.6488  0.0499
  926MOL0     H27728   7.676  10.574   9.293 -1.8961  1.3909  0.7764
  926MOL0     H27729   7.855  10.813   9.367  0.1989  1.0730  1.5935
  926MOL0     H27730   7.858  10.652   9.451 -0.7755 -1.3967 -1.4260
  926MOL0     H27731   7.621  10.847   9.431  0.6999  0.0823 -0.4195
  926MOL0     H27732   7.628  10.689   9.514 -1.7815  1.4776  0.2287
  926MOL0     H27733   7.801  10.921   9.593  0.0098 -0.1369 -0.6175
  926MOL0     H27734   7.785  10.771   9.679 -0.0644 -0.6640 -1.0496
  926MOL0     H27735   7.654  10.974   9.762 -2.6074 -1.1025  0.9806
  926MOL0     H27736   7.543  10.955   9.631  2.7677  0.4444 -2.0104
  926MOL0     H27737   7.359  10.761   9.664  1.5620  2.6209  0.0910
  926MOL0     H27738   7.226  10.549   9.901 -0.4765 -1.8175  0.9961
  926MOL0     H27739   7.373  10.447   9.936 -2.0208  0.2274  1.3060
  926MOL0     H27740   7.241  10.358   9.744  2.1515 -1.4116  0.1193
  926MOL0     H27741   7.255  10.513   9.656 -0.5858  0.6509  0.8495
  926MOL0     H27742   7.498  10.469   9.633 -4.4007  3.8469 -1.9247
  926MOL0     H27743   7.463  10.327   9.738  0.7347 -0.7384 -1.9085
  926MOL0     H27744   7.467  10.271   9.476 -0.0810  1.5211 -2.9149
  926MOL0     H27745   7.317  10.230   9.550  0.7506 -0.8750 -1.6911
  926MOL0     H27746   7.370  10.618   9.310 -0.4682 -1.8356  1.6658
  926MOL0     H27747   7.525  10.709   8.991 -1.0677 -0.7121 -1.5662
  926MOL0     H27748   7.453  10.757   9.141  1.8940 -0.9549  0.7978
  926MOL0     H27749   7.351  10.733   9.001 -0.4940 -1.3160  0.0700
  926MOL0     H27750   7.718  10.357   8.832  0.1277 -0.6613 -0.2523
  926MOL0     H27751   7.876  10.318   8.676  1.8956 -1.2365 -1.5252
  926MOL0     H27752   7.933  10.361   8.418  1.2950  0.4800 -1.9239
  926MOL0     H27753   8.029  10.245   8.503 -2.4249  4.5517  1.5761
  926MOL0     H27754   8.119  10.262   8.291  2.7989 -4.9551  0.0344
  926MOL0     H27755   8.036  10.108   8.291  1.4865  0.3464 -1.4000
  926MOL0     H27756   7.927  10.366   8.171  5.5811  1.3332  1.1793
  926MOL0     H27757   7.847  10.201   8.171  2.0519 -2.1118  0.8676
  926MOL0     H27758   8.101  10.312   8.047 -1.1177  0.7066 -4.5119
  926MOL0     H27759   7.975  10.266   7.948  1.1810 -1.4020 -1.2958
  926MOL0     H27760   8.118  10.097   7.909  1.4549  1.1653  0.3456
  926MOL0     H27761   8.157  10.062   8.072 -2.0864 -0.6613  1.3132
  926MOL0     H27762   7.875   9.995   7.967  0.2430  1.5324 -0.2391
  926MOL0     H27763   7.944   9.960   8.127  0.3797  2.1191  0.4006
  926MOL0     H27764   8.129   9.838   7.960  0.6063  0.8324  0.8472
  926MOL0     H27765   7.962   9.805   7.883  2.3876 -1.7992 -0.1182
  926MOL0     H27766   7.900   9.707   8.096 -1.3065  5.0176  1.2062
  926MOL0     H27767   8.059   9.755   8.166  4.0568 -0.5633 -1.2282
  926MOL0     H27768   7.575  10.141   8.424 -1.0097 -0.4130  0.0976
  926MOL0     H27769   7.405  10.186   8.587 -0.5833 -0.0237  0.4524
  926MOL0     H27770   7.370  10.214   9.035 -1.9555 -0.4349  1.8104
  926MOL0     H27771   7.336  10.207   9.283  0.3179  0.4693  1.1294
  926MOL0     H27772   8.023  10.199   8.840  0.7332 -0.7903  1.1389
  926MOL0     H27773   8.244  10.122   8.713 -0.8803  0.2235  0.0671
  926MOL0     H27774   8.658  10.160   8.635 -4.0593  1.8524  0.1224
  926MOL0     H27775   8.864  10.068   8.546 -0.6003  0.0367  0.6951
  926MOL0     H27776   9.050   9.892   8.233 -3.3303  1.1523 -2.9385
  926MOL0     H27777   9.060   9.978   8.383  0.8633  1.6219 -1.8113
  926MOL0     H27778   8.864   9.747   8.318 -1.6197  1.5553 -0.2800
  926MOL0     H27779   8.868   9.814   8.470 -1.4349 -3.0646 -0.8679
  926MOL0     H27780   9.101   9.727   8.514  0.7795 -1.9556  0.4540
  926MOL0     H27781   8.975   9.613   8.471 -1.7322  0.7520 -2.1878
  926MOL0     H27782   9.101   9.585   8.235 -0.1559  1.3234 -0.9087
  926MOL0     H27783   9.192   9.556   8.384  0.7134  0.0754 -0.9783
  926MOL0     H27784   9.350   9.913   8.179  1.1798 -0.4088  0.8331
  926MOL0     H27785   8.701  10.056   8.153 -1.1590 -0.3213 -0.2505
  926MOL0     H27786   8.486  10.128   8.106 -0.0965  1.8692 -0.7830
  926MOL0     H27787   8.368  10.107   8.231 -1.3380 -0.0965 -0.8009
  926MOL0     H27788   8.432  10.268   8.182  2.6347  0.4519 -0.8883
  927MOL0     O27789   6.742   5.160   3.710  0.3542  0.1378 -0.4514
  927MOL0     C27790   6.792   5.158   3.823 -0.4271 -0.1250 -0.0206
  927MOL0     O27791   6.884   5.072   3.872 -0.5368 -0.3151  0.1229
  927MOL0     C27792   6.911   4.969   3.789 -0.3385  0.6908  0.4320
  927MOL0     C27793   6.840   4.847   3.810 -1.0466 -0.1844 -0.5330
  927MOL0     C27794   6.831   4.750   3.720  0.1330  0.7198 -0.3443
  927MOL0     C27795   6.901   4.756   3.597  0.4382 -0.4816 -0.6728
  927MOL0     O27796   6.894   4.646   3.519 -0.2200 -0.4629 -0.5894
  927MOL0     C27797   7.025   4.633   3.453 -0.5953 -0.1700  0.1932
  927MOL0     C27798   7.040   4.496   3.380 -0.8163 -0.2094  0.1822
  927MOL0     C27799   7.036   4.373   3.479 -0.7776  0.1626 -0.1245
  927MOL0     C27800   7.012   4.245   3.394 -0.4862 -0.2822 -0.8244
  927MOL0     C27801   6.959   4.116   3.456  0.1094 -0.1753 -0.5856
  927MOL0     C27802   7.073   4.033   3.521  0.5421  0.8141 -0.2974
  927MOL0     C27803   7.019   3.922   3.610  0.0332 -0.2774  0.7907
  927MOL0     C27804   7.134   3.864   3.700  0.1877 -0.1322  0.1212
  927MOL0     N27805   7.242   3.795   3.624  0.5364  0.1422 -1.0161
  927MOL0     C27806   7.221   3.667   3.578 -0.9755  0.1268 -0.2011
  927MOL0     C27807   7.337   3.639   3.516 -0.8487  0.6498  0.5353
  927MOL0     C27808   7.383   3.493   3.490 -0.0710  0.3927 -0.0313
  927MOL0     C27809   7.467   3.437   3.605  0.5480  0.6859 -0.1192
  927MOL0     C27810   7.587   3.355   3.551 -0.0786 -0.2864 -0.3651
  927MOL0     C27811   7.655   3.282   3.669  1.5326 -0.0437  1.4535
  927MOL0     O27812   7.721   3.167   3.622 -0.3804  0.1754 -0.4941
  927MOL0     C27813   7.797   3.091   3.704 -0.3459  1.3965 -0.6483
  927MOL0     C27814   7.844   3.137   3.831  0.1357 -0.2305 -0.9695
  927MOL0     C27815   7.918   3.058   3.924  0.7209 -0.8641  0.3879
  927MOL0     C27816   7.966   3.132   4.040  0.5780  1.0143  0.0021
  927MOL0     C27817   7.941   2.916   3.893 -0.0875 -0.0448  0.1303
  927MOL0     C27818   8.016   2.824   3.977  0.2891  0.3530  0.2552
  927MOL0     O27819   8.036   2.695   3.931  0.4428  0.4212  0.0878
  927MOL0     C27820   8.116   2.596   3.993 -0.6457  0.1480 -1.1248
  927MOL0     C27821   8.048   2.478   4.023  0.1667 -1.0740  0.1742
  927MOL0     C27822   8.102   2.366   4.076  1.0703  0.0500  0.4359
  927MOL0     C27823   8.243   2.367   4.092 -0.0897  0.0746  0.3228
  927MOL0     O27824   8.299   2.247   4.113 -0.7482 -0.4634 -0.0607
  927MOL0     C27825   8.350   2.182   3.999  0.1380  0.3088  0.0619
  927MOL0     C27826   8.453   2.078   4.042  0.0932  1.1258  0.3656
  927MOL0     C27827   8.572   2.132   4.104 -0.3168 -0.2073 -0.4306
  927MOL0     C27828   8.625   2.057   4.225 -0.9365 -0.8850 -0.2604
  927MOL0     C27829   8.666   1.908   4.213  0.2869  0.0487  1.0775
  927MOL0     C27830   8.733   1.878   4.073 -0.0176  0.1631  0.2824
  927MOL0     C27831   8.776   1.732   4.068 -0.5114 -1.2032  0.4761
  927MOL0     C27832   8.913   1.713   4.142 -0.0628  0.0254 -0.2871
  927MOL0    Cl27833   9.084   1.756   4.062 -0.0825  0.3174  0.1599
  927MOL0     C27834   8.318   2.495   4.072 -0.3591  1.0755 -0.8176
  927MOL0     C27835   8.252   2.600   4.018  0.0514 -0.0986  0.0932
  927MOL0     O27836   8.053   2.857   4.088 -0.2186 -0.1171 -0.3078
  927MOL0     C27837   7.884   2.871   3.771 -0.7675 -0.5613  0.6100
  927MOL0     C27838   7.820   2.952   3.674 -0.6117  0.5497 -0.1817
  927MOL0     N27839   7.420   3.752   3.507  0.1291 -0.0804  0.0747
  927MOL0     N27840   7.355   3.846   3.567 -0.0756 -0.7046 -0.1137
  927MOL0     C27841   6.964   4.880   3.570  0.1745 -0.0438 -0.0520
  927MOL0     C27842   6.971   4.985   3.664  0.7055 -0.1079 -0.3266
  927MOL0     C27843   6.752   5.268   3.905  0.6159 -1.1056 -0.9317
  927MOL0     C27844   6.625   5.328   3.888 -0.2561 -0.9537  0.5836
  927MOL0     C27845   6.575   5.431   3.961 -0.4954  0.5358 -0.0878
  927MOL0     C27846   6.641   5.474   4.067 -0.3862  1.0424 -0.3207
  927MOL0     O27847   6.568   5.562   4.147 -0.7471  0.4129 -0.3692
  927MOL0     C27848   6.599   5.577   4.286 -0.9458 -0.0918 -0.2714
  927MOL0     C27849   6.568   5.473   4.394  0.1288  0.3565  0.2851
  927MOL0     C27850   6.660   5.355   4.377  0.4447 -0.4366 -0.2551
  927MOL0     C27851   6.653   5.261   4.503  1.4650  0.2666  0.2050
  927MOL0     C27852   6.741   5.311   4.613 -0.0128 -0.3868  0.6531
  927MOL0     C27853   6.821   5.359   4.695 -0.0386 -0.3149 -0.2671
  927MOL0     C27854   6.781   5.437   4.086  0.7536 -0.0608  0.9738
  927MOL0     C27855   6.835   5.340   3.996  0.3200  0.1565 -0.9580
  927MOL0     C27856   6.980   5.298   4.010 -0.2789 -0.4042  0.6454
  927MOL0     H27857   6.784   4.834   3.902 -3.6813 -2.9767 -2.3306
  927MOL0     H27858   6.777   4.659   3.743  1.7200 -0.0593  0.5236
  927MOL0     H27859   7.118   4.638   3.511  2.2325 -1.8369 -3.6695
  927MOL0     H27860   7.026   4.700   3.366 -0.1718 -0.8766 -0.3651
  927MOL0     H27861   6.960   4.492   3.306  0.8667  0.2448 -1.7513
  927MOL0     H27862   7.124   4.502   3.311 -3.1083  1.2177 -2.6886
  927MOL0     H27863   7.136   4.351   3.517  0.0022 -1.4131 -2.7532
  927MOL0     H27864   6.961   4.392   3.556 -2.0048  2.1684 -1.7049
  927MOL0     H27865   6.938   4.262   3.314 -0.6820  1.6239 -0.2793
  927MOL0     H27866   7.106   4.217   3.345 -1.3564  0.5428 -3.0991
  927MOL0     H27867   6.914   4.063   3.372  2.4735  1.0158 -2.7233
  927MOL0     H27868   6.886   4.145   3.532 -0.1804 -2.1763 -0.0487
  927MOL0     H27869   7.136   3.984   3.446  0.8276 -1.9333  1.5748
  927MOL0     H27870   7.148   4.101   3.562 -0.1448  3.8482 -3.5757
  927MOL0     H27871   6.975   3.843   3.548 -1.4174  0.3878  0.9239
  927MOL0     H27872   6.936   3.967   3.665  0.3163  0.6742  0.4590
  927MOL0     H27873   7.183   3.957   3.733  1.2060 -0.8721  0.7370
  927MOL0     H27874   7.089   3.808   3.782 -2.8674 -0.5839 -1.6950
  927MOL0     H27875   7.136   3.602   3.594 -0.5106 -0.9405 -1.8500
  927MOL0     H27876   7.442   3.506   3.399  1.1359 -2.1707  0.2986
  927MOL0     H27877   7.289   3.439   3.475  0.4053 -0.3446 -0.3963
  927MOL0     H27878   7.507   3.517   3.669 -1.1964  1.8149 -0.3790
  927MOL0     H27879   7.400   3.374   3.663  0.1128 -0.2263 -1.5637
  927MOL0     H27880   7.560   3.278   3.478 -1.6034 -2.1666  2.0341
  927MOL0     H27881   7.662   3.426   3.517  1.5700 -1.9664 -0.3938
  927MOL0     H27882   7.729   3.358   3.695  2.8509  0.2191 -2.5423
  927MOL0     H27883   7.583   3.251   3.746 -0.2045  1.0663  0.3584
  927MOL0     H27884   7.828   3.240   3.859 -0.4425  0.1644 -2.6416
  927MOL0     H27885   7.909   3.089   4.123  0.4552  1.5402  0.1967
  927MOL0     H27886   7.952   3.240   4.040 -1.8990  0.7605  1.0978
  927MOL0     H27887   8.072   3.119   4.066  0.2570  1.1387  1.4575
  927MOL0     H27888   7.945   2.480   3.988 -0.2341  2.2866  1.1821
  927MOL0     H27889   8.036   2.281   4.084  2.2439 -1.0170 -0.6651
  927MOL0     H27890   8.267   2.131   3.949  0.7601  0.1690 -0.8379
  927MOL0     H27891   8.403   2.258   3.941  0.0184  0.4127  0.0890
  927MOL0     H27892   8.410   2.004   4.110 -0.1162 -1.7333 -2.6783
  927MOL0     H27893   8.468   2.018   3.952  1.6913  1.3864  0.4302
  927MOL0     H27894   8.549   2.235   4.135  1.4996 -0.2548  1.2621
  927MOL0     H27895   8.648   2.157   4.029 -0.1579  1.2236  0.1731
  927MOL0     H27896   8.548   2.069   4.302 -0.4273 -0.4088  0.1862
  927MOL0     H27897   8.708   2.116   4.266 -1.9025  1.1557 -1.1351
  927MOL0     H27898   8.724   1.871   4.299  1.1752 -2.6497 -0.5555
  927MOL0     H27899   8.572   1.852   4.206  1.5438 -2.0063 -1.1552
  927MOL0     H27900   8.826   1.931   4.049 -1.9358  2.9584 -1.7101
  927MOL0     H27901   8.672   1.907   3.987  2.2804 -0.4300 -1.6872
  927MOL0     H27902   8.789   1.701   3.964  1.5919 -0.7916  0.5785
  927MOL0     H27903   8.700   1.670   4.118 -1.4172  0.7189  1.6278
  927MOL0     H27904   8.927   1.611   4.178  1.6798  1.3625  3.2806
  927MOL0     H27905   8.919   1.775   4.232  1.8228 -0.8108  0.2146
  927MOL0     H27906   8.426   2.501   4.080 -0.2970  0.5006 -1.1699
  927MOL0     H27907   8.309   2.692   4.008  0.1753 -0.1499  0.3347
  927MOL0     H27908   7.897   2.769   3.736 -0.9799 -1.2082  2.3109
  927MOL0     H27909   7.794   2.914   3.576 -1.3304  0.1775  0.1433
  927MOL0     H27910   7.011   4.894   3.473 -0.8594 -1.3622 -0.7730
  927MOL0     H27911   7.021   5.078   3.640 -0.6090 -0.1020 -3.6620
  927MOL0     H27912   6.560   5.298   3.806 -1.7624 -0.3900  1.5445
  927MOL0     H27913   6.474   5.467   3.946 -1.4089 -2.4920 -2.0380
  927MOL0     H27914   6.705   5.601   4.294 -1.1965  1.1038 -0.2709
  927MOL0     H27915   6.548   5.665   4.328  3.9807  1.9210  2.2189
  927MOL0     H27916   6.464   5.445   4.380 -0.0231  0.1952  1.6201
  927MOL0     H27917   6.566   5.520   4.493  1.1977  1.1503 -0.0514
  927MOL0     H27918   6.619   5.291   4.298  2.9756  0.4405 -2.4118
  927MOL0     H27919   6.763   5.388   4.361  0.2999  1.0521  1.5648
  927MOL0     H27920   6.688   5.164   4.467  1.5199  1.1813 -2.3689
  927MOL0     H27921   6.549   5.257   4.537  0.9200  1.0651 -1.2949
  927MOL0     H27922   6.895   5.385   4.768  0.9482 -0.8583 -1.0592
  927MOL0     H27923   6.844   5.488   4.158  2.6196  1.1122 -1.3264
  927MOL0     H27924   7.002   5.223   4.086  0.6033  0.7232  1.5502
  927MOL0     H27925   7.018   5.283   3.908  1.8546  1.7361  1.0262
  927MOL0     H27926   7.044   5.383   4.038  2.3388 -1.9894 -0.1297
  928MOL0     O27927   5.841   2.484   0.393  0.4060 -0.5817 -0.1117
  928MOL0     C27928   5.898   2.381   0.379 -0.3914 -0.5284 -1.3021
  928MOL0     O27929   6.030   2.372   0.350  0.5085 -0.6001  0.6180
  928MOL0     C27930   6.092   2.455   0.263 -0.4879 -0.6209 -0.4117
  928MOL0     C27931   6.146   2.395   0.146  0.1118  0.6720 -0.1584
  928MOL0     C27932   6.214   2.467   0.052 -0.2440  0.3494 -0.4203
  928MOL0     C27933   6.247   2.602   0.058  0.1464  0.0161 -0.2041
  928MOL0     O27934   6.335   2.664  -0.024 -0.3643  0.1972  0.4194
  928MOL0     C27935   6.329   2.624  -0.157  1.0408  1.2384  1.4462
  928MOL0     C27936   6.203   2.669  -0.236  0.5526  0.2005 -0.2555
  928MOL0     C27937   6.183   2.827  -0.232  0.6606  0.0200  0.5048
  928MOL0     C27938   6.080   2.864  -0.339  0.4204 -0.8774 -0.1244
  928MOL0     C27939   6.070   3.012  -0.377  0.1830 -0.1621 -0.1668
  928MOL0     C27940   5.935   3.053  -0.445 -0.1388 -0.1214  0.0766
  928MOL0     C27941   5.934   3.209  -0.461 -0.0795 -0.2772  0.0462
  928MOL0     C27942   5.987   3.259  -0.600  0.9302  0.4818  0.0251
  928MOL0     N27943   5.863   3.263  -0.692  0.2134  0.3569 -0.3048
  928MOL0     C27944   5.819   3.161  -0.772 -0.6708  0.9056  0.3536
  928MOL0     C27945   5.703   3.201  -0.818 -0.0046 -1.0645  0.5581
  928MOL0     C27946   5.612   3.113  -0.915  0.6608 -0.9526 -0.1027
  928MOL0     C27947   5.673   3.107  -1.061 -0.2347  0.3943 -0.0700
  928MOL0     C27948   5.576   3.029  -1.145 -0.2558  1.0545  0.9023
  928MOL0     C27949   5.610   3.005  -1.291 -1.8701  0.2423  0.0860
  928MOL0     O27950   5.625   3.136  -1.349 -0.0775  0.3468  0.2658
  928MOL0     C27951   5.679   3.139  -1.475 -0.7675  0.0890  0.2451
  928MOL0     C27952   5.716   3.032  -1.557 -0.1240  0.1671 -0.5365
  928MOL0     C27953   5.767   3.048  -1.690  0.8340  0.2199  0.8919
  928MOL0     C27954   5.782   2.923  -1.765  0.5777 -0.1192 -1.0462
  928MOL0     C27955   5.781   3.178  -1.740 -1.0145 -0.3606  0.6459
  928MOL0     C27956   5.840   3.200  -1.878 -0.5292  0.4495  0.0097
  928MOL0     O27957   5.938   3.115  -1.933  0.0356  0.4087 -0.2494
  928MOL0     C27958   6.011   3.155  -2.036  0.7205 -0.2912  0.1777
  928MOL0     C27959   6.134   3.218  -2.010 -0.5635 -0.4929 -0.7427
  928MOL0     C27960   6.205   3.269  -2.121  0.0881  0.3580 -0.1649
  928MOL0     C27961   6.156   3.243  -2.250  0.1935  0.1144 -0.1057
  928MOL0     O27962   6.222   3.304  -2.354 -0.1684  0.4114 -0.1460
  928MOL0     C27963   6.259   3.441  -2.342  0.1107  0.3843  1.1825
  928MOL0     C27964   6.416   3.467  -2.318  0.4017  0.1823  0.8976
  928MOL0     C27965   6.499   3.456  -2.448 -0.2408  1.1234  0.4383
  928MOL0     C27966   6.639   3.521  -2.415  0.0123 -0.1356 -0.9233
  928MOL0     C27967   6.732   3.526  -2.531  0.2023  0.2124 -0.2484
  928MOL0     C27968   6.790   3.384  -2.565 -0.1075 -0.5369 -0.2537
  928MOL0     C27969   6.939   3.378  -2.518  0.6607 -0.1087 -0.0376
  928MOL0     C27970   6.993   3.238  -2.518  0.6086  0.3508 -0.3446
  928MOL0    Cl27971   7.032   3.189  -2.690 -0.1102 -0.3540  0.1764
  928MOL0     C27972   6.045   3.172  -2.271 -0.1323  0.1950 -0.9187
  928MOL0     C27973   5.967   3.130  -2.163  0.4563  0.8138 -0.4477
  928MOL0     O27974   5.791   3.291  -1.940 -0.7558 -0.4140 -0.5495
  928MOL0     C27975   5.729   3.279  -1.666 -0.1185 -0.0973  0.8526
  928MOL0     C27976   5.687   3.262  -1.539  0.3254  0.5908 -0.0188
  928MOL0     N27977   5.671   3.329  -0.760  0.0131  0.2871  0.7372
  928MOL0     N27978   5.772   3.366  -0.686 -0.1486  0.9084  0.5321
  928MOL0     C27979   6.179   2.665   0.169 -0.5115 -0.0114  0.1924
  928MOL0     C27980   6.106   2.597   0.270  0.0248 -0.7521 -1.0689
  928MOL0     C27981   5.825   2.259   0.415  0.0937  0.0264  0.3619
  928MOL0     C27982   5.689   2.273   0.465  0.6008 -0.9349  0.2833
  928MOL0     C27983   5.597   2.171   0.467 -0.8950 -0.8038  0.0178
  928MOL0     C27984   5.642   2.039   0.457  0.1602 -0.8510 -0.4253
  928MOL0     O27985   5.556   1.928   0.457 -0.8795 -0.4776 -0.7473
  928MOL0     C27986   5.419   1.928   0.487  0.4655  0.6503 -0.2055
  928MOL0     C27987   5.334   1.934   0.363  0.1486  0.3008 -0.7075
  928MOL0     C27988   5.345   1.808   0.265  0.4651 -0.1721  0.0769
  928MOL0     C27989   5.473   1.802   0.194  0.0063 -0.1100 -0.9468
  928MOL0     C27990   5.483   1.700   0.083 -0.6055 -0.1414 -0.7831
  928MOL0     C27991   5.516   1.616   0.003  0.8291  0.2721  0.0215
  928MOL0     C27992   5.776   2.018   0.428 -0.1451  0.5631  0.8158
  928MOL0     C27993   5.871   2.126   0.399 -0.6743  0.5851 -0.3709
  928MOL0     C27994   6.011   2.086   0.353 -0.6031  0.1872  0.3534
  928MOL0     H27995   6.120   2.290   0.138 -1.3049  0.8964  1.0448
  928MOL0     H27996   6.235   2.394  -0.026 -2.6186  0.5492 -1.3448
  928MOL0     H27997   6.342   2.518  -0.182 -0.4156  1.4046 -0.2082
  928MOL0     H27998   6.411   2.668  -0.214  0.1542  1.5832  0.4076
  928MOL0     H27999   6.202   2.631  -0.339  3.0779 -2.1839  0.4814
  928MOL0     H28000   6.113   2.628  -0.188  2.4655 -3.4037  0.6585
  928MOL0     H28001   6.162   2.856  -0.129  0.3417  1.4107  0.0775
  928MOL0     H28002   6.277   2.873  -0.264  1.3921 -1.9639 -0.3426
  928MOL0     H28003   6.108   2.811  -0.431 -0.4464 -0.6841 -0.5075
  928MOL0     H28004   5.983   2.822  -0.312  0.2548 -1.2010 -1.1611
  928MOL0     H28005   6.156   3.020  -0.444 -0.3461 -0.6775 -0.9245
  928MOL0     H28006   6.079   3.061  -0.279  1.6929  1.0130 -0.8327
  928MOL0     H28007   5.922   2.998  -0.538 -0.1029 -1.2752  0.7343
  928MOL0     H28008   5.845   3.032  -0.385 -2.0678  2.1425 -1.8285
  928MOL0     H28009   5.999   3.257  -0.387  1.0440 -2.8503  0.8614
  928MOL0     H28010   5.835   3.248  -0.435  0.5471  0.0283  2.1671
  928MOL0     H28011   6.026   3.361  -0.586  2.0823  0.4063 -2.2338
  928MOL0     H28012   6.060   3.186  -0.634 -1.5932 -1.6594 -1.0952
  928MOL0     H28013   5.880   3.074  -0.790 -1.3588  1.0645 -3.4777
  928MOL0     H28014   5.515   3.162  -0.931  0.5500 -1.3675 -0.7577
  928MOL0     H28015   5.600   3.014  -0.870 -2.5121 -0.9843 -0.7432
  928MOL0     H28016   5.687   3.208  -1.101 -1.0317 -0.1283 -1.8065
  928MOL0     H28017   5.770   3.058  -1.051 -1.5386 -2.4477 -0.5447
  928MOL0     H28018   5.560   2.929  -1.103  2.2657 -0.5890 -1.6002
  928MOL0     H28019   5.480   3.080  -1.141  0.5208  2.7737 -0.7226
  928MOL0     H28020   5.684   2.926  -1.305 -2.3738 -0.0154 -1.3599
  928MOL0     H28021   5.526   2.968  -1.351 -2.6783  0.3445  1.1250
  928MOL0     H28022   5.711   2.927  -1.528 -0.8905 -0.6905 -3.4504
  928MOL0     H28023   5.742   2.840  -1.707  2.5090  1.3930  2.7760
  928MOL0     H28024   5.890   2.903  -1.767  1.1279  1.9012  1.8092
  928MOL0     H28025   5.745   2.931  -1.868 -1.5016  3.1085 -0.1996
  928MOL0     H28026   6.166   3.245  -1.910  0.1645  0.9554 -1.3229
  928MOL0     H28027   6.290   3.329  -2.090 -0.7228  0.9694  0.9544
  928MOL0     H28028   6.236   3.480  -2.441  4.5186  1.3425  0.3128
  928MOL0     H28029   6.201   3.496  -2.267 -0.8323  2.1141 -0.7256
  928MOL0     H28030   6.431   3.565  -2.272 -0.8888  0.7608  0.1430
  928MOL0     H28031   6.446   3.399  -2.238 -1.0397 -2.0583 -0.3576
  928MOL0     H28032   6.445   3.504  -2.530  0.9039  3.0434  0.7528
  928MOL0     H28033   6.514   3.352  -2.480  0.9026  2.1052 -2.5665
  928MOL0     H28034   6.692   3.468  -2.335 -1.2559 -0.5448 -0.3199
  928MOL0     H28035   6.624   3.628  -2.395  0.8320 -0.2456  0.4234
  928MOL0     H28036   6.672   3.568  -2.612  2.6202  1.9793 -1.2702
  928MOL0     H28037   6.815   3.595  -2.514 -0.4575  0.3976  2.7541
  928MOL0     H28038   6.792   3.395  -2.674 -0.8215  0.1574 -0.2080
  928MOL0     H28039   6.724   3.300  -2.543  0.5699 -0.6905  1.3356
  928MOL0     H28040   6.937   3.415  -2.415  1.5213 -0.4610  0.1134
  928MOL0     H28041   7.004   3.441  -2.581  0.8244  0.8800  1.0914
  928MOL0     H28042   6.904   3.182  -2.486 -1.1227  0.6274 -4.1737
  928MOL0     H28043   7.073   3.224  -2.445  1.1987  0.7209 -0.9069
  928MOL0     H28044   6.008   3.161  -2.372 -0.4203 -0.1028 -0.7832
  928MOL0     H28045   5.876   3.071  -2.174  0.9920 -0.0492 -0.3140
  928MOL0     H28046   5.744   3.381  -1.702  2.6397 -1.3012 -1.8319
  928MOL0     H28047   5.647   3.351  -1.490 -2.0114  0.0441 -0.8118
  928MOL0     H28048   6.188   2.772   0.186  1.7450 -0.3408  1.4139
  928MOL0     H28049   6.063   2.650   0.354  0.9784  0.1267 -1.1122
  928MOL0     H28050   5.645   2.370   0.483 -0.6388 -1.2212 -1.0517
  928MOL0     H28051   5.498   2.205   0.495 -1.1628 -0.2393 -1.4949
  928MOL0     H28052   5.393   1.837   0.542 -0.6719  1.5363  0.7900
  928MOL0     H28053   5.403   2.019   0.546  1.7972  0.8255 -0.0934
  928MOL0     H28054   5.359   2.026   0.310  2.6503 -0.8160 -1.6117
  928MOL0     H28055   5.228   1.938   0.393  0.5480 -0.1959  0.8580
  928MOL0     H28056   5.337   1.721   0.332 -0.7904  0.7925  1.2403
  928MOL0     H28057   5.262   1.811   0.194 -0.1691  0.4206  0.8255
  928MOL0     H28058   5.551   1.782   0.269 -0.4816 -0.6281 -0.5644
  928MOL0     H28059   5.510   1.901   0.166 -1.9674  1.5499  1.7854
  928MOL0     H28060   5.547   1.552  -0.077 -0.3304  0.2415 -0.4313
  928MOL0     H28061   5.807   1.921   0.391  0.5236  0.2947  2.0512
  928MOL0     H28062   6.095   2.153   0.374  0.5812 -0.4796 -1.8786
  928MOL0     H28063   6.031   1.985   0.391 -0.2993 -0.4302 -1.3504
  928MOL0     H28064   5.994   2.076   0.245 -0.0048 -2.7263  0.4487
  929MOL0     O28065   2.147   7.749   4.980 -0.2916  0.2082  0.6018
  929MOL0     C28066   2.179   7.866   4.998 -0.5317 -0.4292  0.4036
  929MOL0     O28067   2.174   7.930   5.119 -0.0964 -0.2062 -0.4607
  929MOL0     C28068   2.153   7.861   5.231  0.8574 -0.4692 -0.1298
  929MOL0     C28069   2.042   7.786   5.271  0.0875  0.3486  0.8790
  929MOL0     C28070   2.032   7.722   5.396  0.5420  0.6388  0.3653
  929MOL0     C28071   2.134   7.735   5.489 -0.4965  0.4522 -0.2139
  929MOL0     O28072   2.116   7.680   5.616  0.0891 -0.4376  0.3801
  929MOL0     C28073   2.225   7.636   5.693 -0.1353  0.5955 -0.0368
  929MOL0     C28074   2.166   7.527   5.789  0.7120 -0.2455 -0.0976
  929MOL0     C28075   2.159   7.380   5.724  0.4727 -1.0583 -0.3635
  929MOL0     C28076   2.104   7.276   5.824  0.2342  0.2500 -0.3894
  929MOL0     C28077   2.146   7.131   5.790  0.3614 -0.9312 -0.5858
  929MOL0     C28078   2.058   7.022   5.858 -0.3574 -0.0351 -0.7697
  929MOL0     C28079   2.026   7.048   6.003 -0.5561  0.5026  0.0888
  929MOL0     C28080   1.947   6.928   6.065  0.4231 -0.5602 -1.0798
  929MOL0     N28081   1.901   6.971   6.204 -0.3987 -0.0086  0.5631
  929MOL0     C28082   1.787   7.035   6.242 -0.7124 -0.0976 -1.1059
  929MOL0     C28083   1.798   7.056   6.381 -1.0421 -0.0186 -0.3446
  929MOL0     C28084   1.709   7.164   6.448  0.6205  1.2170  0.6813
  929MOL0     C28085   1.599   7.111   6.545 -0.6032 -0.3949  0.9472
  929MOL0     C28086   1.485   7.022   6.486  0.5192 -0.7696  0.3541
  929MOL0     C28087   1.391   6.992   6.598  0.2970  0.9078 -0.1273
  929MOL0     O28088   1.260   6.943   6.554  0.5779 -0.0378  0.1149
  929MOL0     C28089   1.155   6.927   6.642 -0.0436  0.0870  0.0681
  929MOL0     C28090   1.030   6.885   6.588 -0.4330 -0.4464 -0.7311
  929MOL0     C28091   0.910   6.876   6.652  0.5843  0.3936  0.6401
  929MOL0     C28092   0.796   6.830   6.565  0.6955 -0.7394 -0.3119
  929MOL0     C28093   0.896   6.938   6.782 -0.7660  0.4959  0.1199
  929MOL0     C28094   0.769   6.952   6.855  0.0101  0.7119  1.1681
  929MOL0     O28095   0.651   6.897   6.810  0.0336  0.0557  0.2980
  929MOL0     C28096   0.546   6.883   6.907  0.4708 -0.3512  0.0759
  929MOL0     C28097   0.417   6.915   6.865 -0.1525 -0.6270 -0.4802
  929MOL0     C28098   0.307   6.889   6.950  0.1664 -0.2489 -0.3206
  929MOL0     C28099   0.334   6.841   7.078  0.9136 -1.1541 -0.6481
  929MOL0     O28100   0.224   6.816   7.153 -0.0309 -0.1543  0.9133
  929MOL0     C28101   0.243   6.729   7.264  0.7209 -0.1959 -0.0451
  929MOL0     C28102   0.106   6.677   7.315  0.3048  0.3941 -0.7024
  929MOL0     C28103   0.000   6.778   7.354  0.0102  0.4761  0.1856
  929MOL0     C28104  -0.122   6.701   7.398 -0.1658  1.0015 -0.4980
  929MOL0     C28105  -0.231   6.804   7.426 -0.6448  0.3707 -0.3546
  929MOL0     C28106  -0.360   6.728   7.443 -0.7336  0.6156 -0.3474
  929MOL0     C28107  -0.485   6.811   7.452 -1.0377 -0.0165  0.2474
  929MOL0     C28108  -0.609   6.739   7.502 -0.4251  0.1440  0.0749
  929MOL0    Cl28109  -0.603   6.710   7.685 -0.8209 -0.4040  0.3162
  929MOL0     C28110   0.460   6.828   7.125  0.2103  0.4725  0.0556
  929MOL0     C28111   0.568   6.834   7.037 -0.0059 -0.2626  0.3013
  929MOL0     O28112   0.778   7.018   6.959 -0.2809 -0.0891 -0.3122
  929MOL0     C28113   1.017   6.972   6.847 -0.9072 -0.0452  0.2656
  929MOL0     C28114   1.142   6.972   6.774 -0.5615  0.1659  0.7987
  929MOL0     N28115   1.909   6.984   6.429  0.2356  0.1247 -0.8551
  929MOL0     N28116   1.954   6.929   6.321 -0.1087  1.1634 -0.1802
  929MOL0     C28117   2.251   7.813   5.452  0.5625  0.3651 -0.7244
  929MOL0     C28118   2.258   7.870   5.325 -0.0154  0.7226 -0.8466
  929MOL0     C28119   2.211   7.944   4.871 -0.1599 -0.2348 -0.0784
  929MOL0     C28120   2.130   7.912   4.760 -0.0963 -0.4024 -1.0552
  929MOL0     C28121   2.146   7.991   4.639  0.0259  0.0110 -0.2362
  929MOL0     C28122   2.248   8.086   4.628 -0.4008  0.1563 -0.4413
  929MOL0     O28123   2.260   8.146   4.506  0.2931 -1.2208 -0.6095
  929MOL0     C28124   2.367   8.242   4.493  0.1367 -0.4767  0.4699
  929MOL0     C28125   2.367   8.279   4.342 -0.6975 -1.0398 -0.2839
  929MOL0     C28126   2.433   8.173   4.251 -0.3887 -0.9957 -0.4030
  929MOL0     C28127   2.340   8.092   4.165  0.3958  0.1976  0.3673
  929MOL0     C28128   2.260   8.168   4.069  0.2449 -0.3851  0.1025
  929MOL0     C28129   2.186   8.224   3.983  0.3714  0.0950 -1.0160
  929MOL0     C28130   2.335   8.111   4.737  0.8406 -1.1781  0.0938
  929MOL0     C28131   2.320   8.036   4.854  0.7386  0.1938  0.5252
  929MOL0     C28132   2.425   8.048   4.964  0.4653  0.1366  1.1257
  929MOL0     H28133   1.956   7.780   5.206  1.1523 -2.1439 -0.4649
  929MOL0     H28134   1.935   7.678   5.415  0.4877 -1.1695 -3.2463
  929MOL0     H28135   2.265   7.722   5.748 -1.0519  1.5575 -0.8278
  929MOL0     H28136   2.305   7.593   5.632 -2.0055 -1.6860 -1.0109
  929MOL0     H28137   2.214   7.523   5.887  0.9508 -3.7135 -0.2151
  929MOL0     H28138   2.060   7.549   5.805  0.4734 -0.1501 -1.6472
  929MOL0     H28139   2.098   7.386   5.633  2.1118  1.4937 -1.3819
  929MOL0     H28140   2.260   7.351   5.696  0.2291  0.0370 -2.5375
  929MOL0     H28141   2.119   7.305   5.929  0.8499 -1.2285 -0.0395
  929MOL0     H28142   1.998   7.287   5.801  1.1472  4.8119 -3.8063
  929MOL0     H28143   2.254   7.121   5.797  0.6211  0.1560 -2.4732
  929MOL0     H28144   2.131   7.126   5.682  0.3294 -0.3708 -0.6106
  929MOL0     H28145   1.964   7.009   5.803 -0.9624 -1.6892  0.5636
  929MOL0     H28146   2.125   6.935   5.850 -0.7887 -0.4552  0.0768
  929MOL0     H28147   1.955   7.131   6.002  0.1331  1.1420  1.5727
  929MOL0     H28148   2.110   7.094   6.056  1.0182  1.9898 -3.3649
  929MOL0     H28149   1.856   6.903   6.009 -1.5342 -1.0343  2.0473
  929MOL0     H28150   2.018   6.846   6.080  0.2206 -0.7349 -1.0775
  929MOL0     H28151   1.717   7.088   6.179  0.3147  0.2727 -1.9775
  929MOL0     H28152   1.649   7.214   6.371 -0.5923  2.3499  2.3017
  929MOL0     H28153   1.771   7.235   6.504 -0.5975  1.6599  1.4993
  929MOL0     H28154   1.658   7.048   6.612  0.6620  0.2687  0.4754
  929MOL0     H28155   1.552   7.200   6.587 -1.0936  1.3708 -2.9079
  929MOL0     H28156   1.419   7.065   6.410  0.2606 -1.9975 -0.1436
  929MOL0     H28157   1.521   6.926   6.447 -0.4272 -2.1242  2.6255
  929MOL0     H28158   1.445   6.915   6.653  0.4825  0.8224 -0.4294
  929MOL0     H28159   1.371   7.084   6.654  1.1854  1.7971 -1.2358
  929MOL0     H28160   1.023   6.879   6.479 -2.1353 -2.5735 -0.5609
  929MOL0     H28161   0.757   6.735   6.601 -2.3818  1.1327  1.7165
  929MOL0     H28162   0.827   6.817   6.460 -0.2039 -0.5632 -0.6052
  929MOL0     H28163   0.710   6.897   6.569  0.1272 -1.5284  2.5694
  929MOL0     H28164   0.395   6.967   6.773  1.5904 -1.4372 -1.4190
  929MOL0     H28165   0.207   6.918   6.921 -0.1016 -0.2342  0.5877
  929MOL0     H28166   0.308   6.643   7.246  1.0054  0.3118 -1.5811
  929MOL0     H28167   0.280   6.782   7.352 -1.4357 -0.9380  1.3895
  929MOL0     H28168   0.069   6.606   7.240 -0.1995  1.6440 -1.6664
  929MOL0     H28169   0.137   6.635   7.412 -0.4611  3.7030  1.1171
  929MOL0     H28170  -0.018   6.838   7.265  0.7631 -1.6588 -1.5199
  929MOL0     H28171   0.031   6.828   7.447  1.5497  0.5026 -0.3024
  929MOL0     H28172  -0.107   6.653   7.495  0.7440  0.4684 -0.8928
  929MOL0     H28173  -0.151   6.625   7.325 -1.8715  0.2611  0.8891
  929MOL0     H28174  -0.214   6.863   7.516  2.0099  3.8523 -2.8635
  929MOL0     H28175  -0.233   6.866   7.336  1.2351  2.5910  1.0277
  929MOL0     H28176  -0.351   6.681   7.541 -2.3862  3.3587  1.2469
  929MOL0     H28177  -0.369   6.659   7.358 -1.3475 -0.5454  0.6257
  929MOL0     H28178  -0.496   6.835   7.346  0.3861  0.8235  0.2580
  929MOL0     H28179  -0.469   6.898   7.517 -0.8881 -0.0362  0.2387
  929MOL0     H28180  -0.644   6.654   7.443  0.6103 -0.0685 -0.2421
  929MOL0     H28181  -0.685   6.811   7.468  1.6015  0.9824 -3.1615
  929MOL0     H28182   0.468   6.811   7.232 -1.3198  0.7260  0.2309
  929MOL0     H28183   0.664   6.813   7.083 -1.5568 -2.6892  2.8071
  929MOL0     H28184   1.027   6.998   6.952 -0.4397  1.8812 -0.2214
  929MOL0     H28185   1.232   7.006   6.824  1.8536 -0.2982 -2.8378
  929MOL0     H28186   2.335   7.817   5.521  0.7408  0.2776 -0.9340
  929MOL0     H28187   2.346   7.931   5.310  0.4618 -0.0235 -1.1162
  929MOL0     H28188   2.043   7.847   4.761 -2.0551  2.0480  0.7760
  929MOL0     H28189   2.082   7.966   4.555 -1.6791 -2.2336  1.5803
  929MOL0     H28190   2.346   8.323   4.563  1.7868 -1.2384  1.9652
  929MOL0     H28191   2.464   8.196   4.517  0.3477  0.6461  1.9348
  929MOL0     H28192   2.411   8.378   4.328 -2.6700 -0.3169 -1.7958
  929MOL0     H28193   2.261   8.289   4.318 -0.2622  3.0828 -1.2819
  929MOL0     H28194   2.496   8.224   4.177  1.4567 -0.1051  1.6602
  929MOL0     H28195   2.492   8.103   4.310 -0.8709 -0.5862  0.5746
  929MOL0     H28196   2.277   8.034   4.233  2.1042 -1.8320  0.3540
  929MOL0     H28197   2.377   8.018   4.094  0.7340 -1.4960  2.2185
  929MOL0     H28198   2.127   8.281   3.914  1.8685  0.9180 -1.6625
  929MOL0     H28199   2.417   8.182   4.732  0.8113 -0.8818  2.5319
  929MOL0     H28200   2.512   8.110   4.941  1.5197 -1.3578  0.8786
  929MOL0     H28201   2.371   8.102   5.043  0.4766  1.3466  0.3188
  929MOL0     H28202   2.461   7.947   4.985 -3.9850 -2.2548 -1.2345
  930MOL0     O28203   6.934   7.919   3.167 -0.5393 -0.3477 -0.3927
  930MOL0     C28204   7.010   7.841   3.227 -0.4793 -0.1949  0.3301
  930MOL0     O28205   7.032   7.700   3.201  1.0433 -0.6242  0.7807
  930MOL0     C28206   6.993   7.645   3.077 -0.1237 -0.0505  0.0036
  930MOL0     C28207   7.061   7.520   3.053 -0.0517 -0.6633  0.1370
  930MOL0     C28208   7.047   7.463   2.929 -0.5249 -0.0948  0.2153
  930MOL0     C28209   6.987   7.527   2.828  0.0446 -0.2812  0.4423
  930MOL0     O28210   6.986   7.464   2.712 -0.3516  0.0974 -0.4420
  930MOL0     C28211   7.047   7.536   2.598 -0.3900  0.0638  0.1021
  930MOL0     C28212   6.990   7.471   2.475  0.7233  0.1915 -0.5667
  930MOL0     C28213   7.004   7.317   2.462  0.0402  1.0650  0.3417
  930MOL0     C28214   6.891   7.260   2.373 -0.4581 -0.4673 -0.4319
  930MOL0     C28215   6.923   7.115   2.323  0.5304 -0.2325 -0.4217
  930MOL0     C28216   7.045   7.098   2.234 -0.2736 -0.9930  0.3074
  930MOL0     C28217   7.029   6.981   2.140  0.0178 -0.6705 -1.1929
  930MOL0     C28218   7.073   6.846   2.202  0.1940  0.0961  0.0469
  930MOL0     N28219   7.035   6.737   2.116 -0.9332 -0.2941 -0.2892
  930MOL0     C28220   6.955   6.626   2.138 -0.8007  0.0932  0.3964
  930MOL0     C28221   6.960   6.556   2.016  0.7526  0.2878 -0.0328
  930MOL0     C28222   6.882   6.422   1.978 -0.8722  0.2126 -0.9591
  930MOL0     C28223   6.768   6.429   1.873 -0.3099  0.0782 -0.2154
  930MOL0     C28224   6.697   6.293   1.847  0.6261 -0.4703 -0.1267
  930MOL0     C28225   6.776   6.171   1.805  0.6375  0.7043  0.0572
  930MOL0     O28226   6.812   6.181   1.665 -0.5132  0.1880 -0.3827
  930MOL0     C28227   6.900   6.095   1.610  1.0691 -0.5978  1.1683
  930MOL0     C28228   6.941   6.122   1.484 -0.6513  0.7063  0.4292
  930MOL0     C28229   7.047   6.041   1.422  0.6733 -1.4749  0.1346
  930MOL0     C28230   7.087   6.069   1.275  0.3636  0.6896  0.2558
  930MOL0     C28231   7.116   5.949   1.502 -0.1668 -0.5794 -0.5328
  930MOL0     C28232   7.215   5.856   1.444  0.0458  0.0751  0.0112
  930MOL0     O28233   7.348   5.892   1.427  0.3169 -0.2737  0.4534
  930MOL0     C28234   7.411   5.827   1.323 -0.0343  0.2280 -0.2890
  930MOL0     C28235   7.532   5.765   1.348 -0.0840  0.1613  0.6327
  930MOL0     C28236   7.606   5.707   1.249  0.6485  0.1121  0.1909
  930MOL0     C28237   7.564   5.713   1.115  0.3961 -1.0948  0.2313
  930MOL0     O28238   7.643   5.671   1.015 -0.0992  0.9201 -0.3063
  930MOL0     C28239   7.610   5.712   0.879 -0.6803 -0.1506 -1.0616
  930MOL0     C28240   7.740   5.709   0.794  0.5285 -0.3491  0.5269
  930MOL0     C28241   7.708   5.643   0.651 -0.1032 -0.6915 -0.1415
  930MOL0     C28242   7.836   5.647   0.563 -0.2786  0.3146  0.1068
  930MOL0     C28243   7.813   5.689   0.413  0.3896 -0.4643 -0.2140
  930MOL0     C28244   7.676   5.642   0.345 -1.6157  0.1549  0.0983
  930MOL0     C28245   7.678   5.699   0.202  0.4514  0.3719  0.2632
  930MOL0     C28246   7.551   5.670   0.112 -0.5423 -0.2366  0.2352
  930MOL0    Cl28247   7.514   5.507   0.124  0.0204 -0.2181 -0.2295
  930MOL0     C28248   7.435   5.766   1.093  0.0769  0.3053  0.2356
  930MOL0     C28249   7.364   5.823   1.194 -0.0553 -0.2787  0.6090
  930MOL0     O28250   7.160   5.757   1.404 -0.0632 -0.3402 -0.5417
  930MOL0     C28251   7.082   5.929   1.636  0.2922  0.1453 -0.0251
  930MOL0     C28252   6.961   5.989   1.680 -0.9788 -0.6500 -0.0825
  930MOL0     N28253   7.033   6.628   1.926  0.3325  1.0486 -0.1032
  930MOL0     N28254   7.086   6.730   1.989 -0.1243  0.0560 -0.1019
  930MOL0     C28255   6.944   7.657   2.847  0.1484  0.1368  0.0276
  930MOL0     C28256   6.938   7.717   2.963 -0.0213 -0.1785 -0.8097
  930MOL0     C28257   7.078   7.891   3.350  0.2353 -0.3147 -0.1197
  930MOL0     C28258   7.111   7.799   3.448  1.1041  0.3384  0.0278
  930MOL0     C28259   7.162   7.835   3.572  0.3117  0.5381 -0.5342
  930MOL0     C28260   7.187   7.971   3.602 -0.1302  0.1495  0.6410
  930MOL0     O28261   7.231   8.006   3.728 -0.7427  1.1162  0.2694
  930MOL0     C28262   7.188   8.132   3.784 -0.3720 -1.0192  0.2618
  930MOL0     C28263   7.306   8.222   3.824 -0.3330  0.7004 -0.0181
  930MOL0     C28264   7.254   8.365   3.853 -0.6613 -0.6802  0.3546
  930MOL0     C28265   7.365   8.458   3.896  0.3778 -0.0515 -0.0886
  930MOL0     C28266   7.452   8.403   3.998 -0.0221 -0.0096  1.2698
  930MOL0     C28267   7.524   8.366   4.088  1.1529  0.5864 -0.6085
  930MOL0     C28268   7.165   8.063   3.489  0.6229 -0.2952 -0.2151
  930MOL0     C28269   7.109   8.028   3.369 -0.2924  0.1454  0.5227
  930MOL0     C28270   7.096   8.137   3.264  0.3875  0.5757 -0.2583
  930MOL0     H28271   7.109   7.472   3.137  1.5433  1.6567  0.6237
  930MOL0     H28272   7.087   7.363   2.913  2.1311  1.0865 -0.9879
  930MOL0     H28273   7.156   7.529   2.605 -0.3924 -0.1052 -0.0312
  930MOL0     H28274   7.038   7.645   2.606  1.6791  0.3131 -0.3273
  930MOL0     H28275   6.885   7.499   2.464  0.2530 -1.6451 -1.1086
  930MOL0     H28276   7.037   7.513   2.386 -1.1450  2.6656 -0.4777
  930MOL0     H28277   7.099   7.294   2.415 -0.6659 -1.2504 -0.0816
  930MOL0     H28278   6.996   7.259   2.555  2.3372  0.4427  0.2036
  930MOL0     H28279   6.801   7.241   2.431  1.2342 -0.2184  2.4924
  930MOL0     H28280   6.876   7.331   2.291  0.7818  1.8872  1.2408
  930MOL0     H28281   6.830   7.079   2.278  1.5158 -1.4829 -1.5183
  930MOL0     H28282   6.928   7.048   2.409  1.4925  2.7590  2.0666
  930MOL0     H28283   7.070   7.187   2.176 -0.5473 -0.0203  1.6435
  930MOL0     H28284   7.141   7.082   2.285 -2.0561  0.9656  4.7281
  930MOL0     H28285   7.102   7.000   2.062 -0.0959 -0.3314 -1.2178
  930MOL0     H28286   6.926   6.984   2.103 -0.6095  0.7609  0.5243
  930MOL0     H28287   7.182   6.836   2.201  0.3446  1.4646  0.1935
  930MOL0     H28288   7.019   6.837   2.297  0.3481 -1.3561  0.0246
  930MOL0     H28289   6.914   6.585   2.230  0.9045 -3.5075 -0.2739
  930MOL0     H28290   6.827   6.394   2.069 -0.5487 -0.6249 -1.0104
  930MOL0     H28291   6.952   6.339   1.963 -1.3001 -0.2653 -0.3814
  930MOL0     H28292   6.698   6.511   1.892  1.0242  1.4153 -0.8100
  930MOL0     H28293   6.815   6.454   1.777  0.2520 -2.6305 -0.7125
  930MOL0     H28294   6.637   6.266   1.935 -1.0152  1.8006 -0.4641
  930MOL0     H28295   6.612   6.312   1.781 -0.2456  1.9349  1.5521
  930MOL0     H28296   6.863   6.172   1.871  0.6949  3.4409  0.0634
  930MOL0     H28297   6.710   6.084   1.811  0.0789  0.8371 -2.7629
  930MOL0     H28298   6.908   6.212   1.434 -0.5368 -0.0415 -1.0522
  930MOL0     H28299   7.181   6.124   1.262 -1.6136  3.6157 -3.2844
  930MOL0     H28300   7.007   6.124   1.225 -2.4381  0.1592  3.7161
  930MOL0     H28301   7.087   5.975   1.220 -0.0297  1.3724 -0.9363
  930MOL0     H28302   7.575   5.755   1.448  0.0404  4.6980  1.2256
  930MOL0     H28303   7.698   5.653   1.270  0.1397 -0.8702 -0.0085
  930MOL0     H28304   7.520   5.656   0.852 -0.9525 -1.7642  2.6157
  930MOL0     H28305   7.587   5.819   0.888  1.0377  0.1354  0.5767
  930MOL0     H28306   7.764   5.815   0.784 -1.2742  0.7378  5.0708
  930MOL0     H28307   7.818   5.649   0.842 -0.8498 -1.7395  1.1360
  930MOL0     H28308   7.627   5.704   0.610 -4.8049 -4.1786  3.0283
  930MOL0     H28309   7.670   5.542   0.666 -0.9159 -0.4895 -0.7819
  930MOL0     H28310   7.879   5.546   0.569  1.7954  1.1585  0.1857
  930MOL0     H28311   7.920   5.706   0.602 -1.0143  1.4726 -0.0221
  930MOL0     H28312   7.809   5.799   0.412 -4.3800 -0.3616  1.5482
  930MOL0     H28313   7.902   5.653   0.361  1.4189 -0.6834  1.5808
  930MOL0     H28314   7.587   5.673   0.400 -1.5475 -1.1460  1.0042
  930MOL0     H28315   7.673   5.534   0.327 -1.3744  0.0919  0.4379
  930MOL0     H28316   7.752   5.647   0.141 -0.8225  1.5136 -2.4325
  930MOL0     H28317   7.709   5.805   0.205 -0.0096  0.5454 -0.8429
  930MOL0     H28318   7.555   5.702   0.008  1.6827  0.2863  0.4326
  930MOL0     H28319   7.467   5.725   0.156  0.2178  1.3161 -0.2237
  930MOL0     H28320   7.383   5.755   0.998  0.4701 -2.9864  0.2653
  930MOL0     H28321   7.265   5.865   1.175  0.7728  0.6093 -2.2524
  930MOL0     H28322   7.109   5.846   1.700 -0.1211 -0.3621 -0.4963
  930MOL0     H28323   6.912   5.954   1.770 -1.2583  3.3832  1.5782
  930MOL0     H28324   6.903   7.707   2.760 -1.3048  1.5790  1.4794
  930MOL0     H28325   6.900   7.818   2.959  1.7986  0.5087 -2.0138
  930MOL0     H28326   7.082   7.697   3.428 -4.7701  1.4401  1.1047
  930MOL0     H28327   7.186   7.762   3.648 -1.9987 -0.8183 -0.9897
  930MOL0     H28328   7.112   8.188   3.730  2.1713  0.7313 -1.7715
  930MOL0     H28329   7.135   8.097   3.873  0.8608  0.3986  1.6195
  930MOL0     H28330   7.379   8.213   3.744  1.5867 -0.3476  1.7522
  930MOL0     H28331   7.342   8.192   3.923 -1.6697  1.4864  0.7477
  930MOL0     H28332   7.221   8.402   3.755  1.8178 -5.2954 -2.5999
  930MOL0     H28333   7.170   8.371   3.923 -0.6305  1.2479  0.2873
  930MOL0     H28334   7.319   8.551   3.929  0.5281 -0.4292  1.2226
  930MOL0     H28335   7.419   8.478   3.803 -0.6645 -1.5700 -1.0630
  930MOL0     H28336   7.569   8.350   4.184 -1.8931  1.8589  1.1938
  930MOL0     H28337   7.186   8.166   3.516 -1.0224  0.0729 -0.1976
  930MOL0     H28338   6.996   8.153   3.224 -0.1733  0.0038  0.8524
  930MOL0     H28339   7.135   8.228   3.309  1.5332 -0.8047  1.7236
  930MOL0     H28340   7.166   8.115   3.183 -0.5975 -1.3549 -0.6462
  931MOL0     O28341   1.714   7.195   9.928  0.2286  0.3578 -0.3124
  931MOL0     C28342   1.634   7.159  10.010 -0.3832  0.1046 -0.4733
  931MOL0     O28343   1.583   7.029  10.023  0.0602 -0.5736 -0.5003
  931MOL0     C28344   1.671   6.927  10.003  0.8571 -0.0121  0.0962
  931MOL0     C28345   1.804   6.931  10.001 -0.7882 -0.6490 -0.4176
  931MOL0     C28346   1.881   6.813   9.971 -0.5700 -0.1176 -0.7063
  931MOL0     C28347   1.827   6.689   9.951  0.2268 -0.5281 -0.4464
  931MOL0     O28348   1.890   6.572   9.921 -0.1794  0.0784 -0.2820
  931MOL0     C28349   2.022   6.579   9.859  0.6380 -0.4447  0.9897
  931MOL0     C28350   2.022   6.656   9.732  0.8286  0.6049  0.3960
  931MOL0     C28351   1.924   6.593   9.623 -0.0142  0.0573 -0.1926
  931MOL0     C28352   1.936   6.443   9.596  0.3341 -0.5536 -0.1561
  931MOL0     C28353   1.839   6.405   9.490  0.8775  0.3814 -1.3183
  931MOL0     C28354   1.850   6.258   9.450  0.2842 -0.5005 -0.0893
  931MOL0     C28355   1.733   6.218   9.361 -0.4491 -0.2669 -0.4792
  931MOL0     C28356   1.787   6.179   9.225  0.0186  0.2537 -0.8068
  931MOL0     N28357   1.686   6.094   9.162  0.1345  0.9075 -0.8666
  931MOL0     C28358   1.669   5.955   9.167  0.4499 -0.1927 -0.8705
  931MOL0     C28359   1.553   5.936   9.117  0.7219  0.1951 -1.1736
  931MOL0     C28360   1.478   5.798   9.112  0.3014 -1.1825 -0.2056
  931MOL0     C28361   1.392   5.777   9.240  0.8836  0.2628  0.6296
  931MOL0     C28362   1.355   5.634   9.254  0.6083  0.9287 -0.3458
  931MOL0     C28363   1.208   5.626   9.325  0.5582  0.2126  1.3761
  931MOL0     O28364   1.185   5.490   9.365 -0.2626 -0.6138  0.2547
  931MOL0     C28365   1.237   5.430   9.484  0.4921  0.0251 -0.6941
  931MOL0     C28366   1.219   5.295   9.499 -0.7025  0.2375  1.1481
  931MOL0     C28367   1.261   5.221   9.609  0.9799 -0.5953 -0.0113
  931MOL0     C28368   1.212   5.071   9.608  0.6914  1.0331 -0.1336
  931MOL0     C28369   1.323   5.292   9.718 -0.6053  0.3293  0.0990
  931MOL0     C28370   1.393   5.222   9.821 -0.4553 -1.1630 -0.8107
  931MOL0     O28371   1.472   5.105   9.802 -0.1987 -0.2196 -0.0469
  931MOL0     C28372   1.518   5.042   9.922 -0.0636  0.3409  0.6233
  931MOL0     C28373   1.597   5.111  10.013  0.2037 -0.4779  0.7811
  931MOL0     C28374   1.638   5.044  10.127 -0.1976  0.3195  0.5370
  931MOL0     C28375   1.607   4.907  10.147  0.5129  0.3022  0.1357
  931MOL0     O28376   1.663   4.849  10.264  0.3337 -0.0680 -0.8513
  931MOL0     C28377   1.677   4.708  10.273 -0.3508 -0.3636  0.7200
  931MOL0     C28378   1.761   4.697  10.394 -0.1486  0.3995  0.1435
  931MOL0     C28379   1.906   4.752  10.375  0.7344  0.3042  0.3228
  931MOL0     C28380   1.989   4.670  10.280  0.1852 -0.4560  0.0187
  931MOL0     C28381   2.132   4.678  10.295 -0.0353 -0.7403 -0.3495
  931MOL0     C28382   2.178   4.806  10.239  0.4816  0.4514 -0.6136
  931MOL0     C28383   2.325   4.840  10.290 -0.1295 -0.2174 -0.4237
  931MOL0     C28384   2.356   4.986  10.283 -1.2668  0.6831  0.1024
  931MOL0    Cl28385   2.315   5.076  10.122 -0.2362  0.4585  0.0579
  931MOL0     C28386   1.536   4.832  10.054 -0.4812 -0.5775  0.1828
  931MOL0     C28387   1.495   4.903   9.941  0.4225  1.0757 -0.2052
  931MOL0     O28388   1.375   5.273   9.930 -0.3860  0.6094  0.7186
  931MOL0     C28389   1.335   5.431   9.701 -0.5566  0.6648  0.0279
  931MOL0     C28390   1.304   5.494   9.585  0.1091 -0.3173 -0.1752
  931MOL0     N28391   1.480   6.055   9.095 -0.1576 -0.5494 -0.0962
  931MOL0     N28392   1.570   6.145   9.109  0.2421 -0.4238 -0.2354
  931MOL0     C28393   1.687   6.688   9.962 -0.0850 -0.4353 -0.2180
  931MOL0     C28394   1.610   6.801   9.977 -0.0260 -0.3116  0.2867
  931MOL0     C28395   1.579   7.268  10.089  0.3936  0.8064  0.0969
  931MOL0     C28396   1.523   7.234  10.216  0.5298  0.4764  0.4705
  931MOL0     C28397   1.464   7.325  10.298 -1.6259 -0.9265  0.4289
  931MOL0     C28398   1.463   7.457  10.256 -0.3611 -0.1128 -0.1857
  931MOL0     O28399   1.406   7.556  10.331  0.1893  0.4069  0.2550
  931MOL0     C28400   1.507   7.639  10.395  0.3950 -0.1341 -0.2948
  931MOL0     C28401   1.561   7.576  10.526  0.9913 -0.4568  0.3059
  931MOL0     C28402   1.638   7.663  10.629 -0.4690 -0.7348 -0.5890
  931MOL0     C28403   1.658   7.573  10.761  0.0199 -0.5604 -0.2859
  931MOL0     C28404   1.750   7.460  10.749  0.7648  1.0125  0.7167
  931MOL0     C28405   1.817   7.359  10.724  0.7155  0.2653 -0.9799
  931MOL0     C28406   1.509   7.498  10.137 -0.6110  0.3408  1.3145
  931MOL0     C28407   1.567   7.404  10.046  0.0303 -0.5508  0.2682
  931MOL0     C28408   1.621   7.470   9.913  0.8159 -0.1937  0.3875
  931MOL0     H28409   1.861   7.017  10.036  3.5936 -3.8544  1.2451
  931MOL0     H28410   1.989   6.821   9.964 -0.4813  1.0252  1.2357
  931MOL0     H28411   2.055   6.478   9.835 -2.2314 -0.7778 -2.2112
  931MOL0     H28412   2.090   6.623   9.933  1.5419 -1.3280  0.7043
  931MOL0     H28413   1.993   6.761   9.738  0.8026  0.5326  1.8689
  931MOL0     H28414   2.122   6.646   9.690 -1.5224  0.8249 -6.5085
  931MOL0     H28415   1.827   6.619   9.665  0.4362  1.7482 -0.1585
  931MOL0     H28416   1.929   6.646   9.528  2.9090 -1.4856 -1.0141
  931MOL0     H28417   2.040   6.426   9.567 -0.0155 -1.1411 -1.0975
  931MOL0     H28418   1.907   6.393   9.689 -2.7754 -2.5615 -2.0065
  931MOL0     H28419   1.843   6.477   9.408  0.4422  0.9501 -0.8495
  931MOL0     H28420   1.741   6.413   9.540  0.4955 -4.3761 -0.8968
  931MOL0     H28421   1.946   6.248   9.399 -0.0489  0.6563 -0.9814
  931MOL0     H28422   1.849   6.198   9.542  1.6186 -1.8598 -0.9180
  931MOL0     H28423   1.669   6.307   9.357  2.1323  1.8951  2.2835
  931MOL0     H28424   1.678   6.132   9.401  0.1758 -0.7383 -0.6312
  931MOL0     H28425   1.795   6.273   9.169  1.1425  0.4886 -0.2787
  931MOL0     H28426   1.883   6.127   9.228  0.2725  0.6592 -1.6438
  931MOL0     H28427   1.740   5.882   9.205  0.5099  0.3427  0.0829
  931MOL0     H28428   1.551   5.719   9.099 -0.8388 -2.1479 -0.9493
  931MOL0     H28429   1.407   5.792   9.029 -1.0431  1.2351  0.6349
  931MOL0     H28430   1.451   5.805   9.328  2.0655 -1.2142  0.3553
  931MOL0     H28431   1.304   5.842   9.241  0.7695  0.4990  5.8193
  931MOL0     H28432   1.352   5.580   9.159  1.6541 -0.5809  0.4409
  931MOL0     H28433   1.434   5.580   9.307 -0.2290 -1.9844 -1.8529
  931MOL0     H28434   1.221   5.680   9.419 -1.4154  0.9065  1.2922
  931MOL0     H28435   1.130   5.662   9.257 -1.2739  1.7505  4.1037
  931MOL0     H28436   1.181   5.236   9.416  0.6901  0.4979  0.3079
  931MOL0     H28437   1.238   5.025   9.512  1.9057  0.4389  0.4575
  931MOL0     H28438   1.105   5.064   9.631  0.8655 -2.8897  0.2021
  931MOL0     H28439   1.261   5.007   9.682  2.2074  0.5825 -1.4494
  931MOL0     H28440   1.614   5.213   9.982 -1.4979 -0.1596  0.7776
  931MOL0     H28441   1.702   5.096  10.198 -1.4630  2.0083  0.5282
  931MOL0     H28442   1.578   4.662  10.277 -0.0574 -1.5780 -2.8224
  931MOL0     H28443   1.729   4.663  10.188 -1.3789  0.7730 -0.5465
  931MOL0     H28444   1.731   4.763  10.476  0.8705  0.1173  0.7585
  931MOL0     H28445   1.757   4.597  10.439  2.1560 -1.4320 -3.2601
  931MOL0     H28446   1.966   4.767  10.465  3.7199 -1.8975 -1.1400
  931MOL0     H28447   1.903   4.850  10.326 -0.1006 -0.1467 -0.5676
  931MOL0     H28448   1.962   4.695  10.177  2.6331 -2.2366 -1.1291
  931MOL0     H28449   1.971   4.562  10.287  0.0920 -0.3730  1.5508
  931MOL0     H28450   2.160   4.670  10.401  0.8413  3.0363 -0.1461
  931MOL0     H28451   2.180   4.609  10.225  0.0879 -1.6708  0.6318
  931MOL0     H28452   2.110   4.887  10.268 -0.2946 -0.7392  1.0636
  931MOL0     H28453   2.179   4.805  10.130  3.5057 -0.6467 -0.6778
  931MOL0     H28454   2.401   4.788  10.231  2.2413 -0.8378  2.9373
  931MOL0     H28455   2.334   4.810  10.394 -2.9758  2.3180  0.7194
  931MOL0     H28456   2.464   4.999  10.295 -1.3355  1.8780 -0.4533
  931MOL0     H28457   2.309   5.040  10.366  0.5904  0.4943  1.3479
  931MOL0     H28458   1.525   4.725  10.073  0.5604 -1.2294 -2.4079
  931MOL0     H28459   1.427   4.850   9.875 -1.3761  0.6793  1.8711
  931MOL0     H28460   1.373   5.499   9.776  1.1017  0.3148 -0.4432
  931MOL0     H28461   1.335   5.597   9.575  0.7320 -0.5899 -1.2453
  931MOL0     H28462   1.654   6.588   9.938 -0.8663  0.3739 -2.8609
  931MOL0     H28463   1.502   6.798   9.985 -0.3043 -0.8633 -2.6865
  931MOL0     H28464   1.516   7.130  10.246 -2.0257 -0.8558 -3.8344
  931MOL0     H28465   1.421   7.307  10.396 -3.5184 -1.0895 -0.3895
  931MOL0     H28466   1.585   7.678  10.329  0.0521  0.7948 -0.1722
  931MOL0     H28467   1.456   7.725  10.440 -1.3784 -1.8181  1.0905
  931MOL0     H28468   1.627   7.490  10.505  0.9215 -0.2910 -0.6399
  931MOL0     H28469   1.472   7.535  10.574 -0.0581 -2.2612 -2.8907
  931MOL0     H28470   1.737   7.698  10.597 -0.6558  0.8385  0.4470
  931MOL0     H28471   1.590   7.758  10.650 -1.7490 -1.0684 -1.8602
  931MOL0     H28472   1.560   7.551  10.805 -0.6229 -1.2097 -1.9719
  931MOL0     H28473   1.699   7.633  10.842 -3.0780  1.6134 -0.1436
  931MOL0     H28474   1.879   7.275  10.703 -1.8161 -1.8211 -0.5238
  931MOL0     H28475   1.518   7.602  10.110  2.4494 -0.8038 -3.2281
  931MOL0     H28476   1.549   7.429   9.842  0.9925 -3.2888  1.8058
  931MOL0     H28477   1.606   7.578   9.906  0.8125 -0.2698 -1.0604
  931MOL0     H28478   1.723   7.445   9.883  0.7310  2.7633 -3.0802
  932MOL0     O28479   9.852   3.798  10.542  0.3478 -0.8009 -0.1789
  932MOL0     C28480   9.949   3.867  10.519  0.6626 -1.1650 -0.4814
  932MOL0     O28481   9.991   3.965  10.609  0.2397 -0.3152  0.7454
  932MOL0     C28482   9.942   3.957  10.737 -0.6197 -0.3407 -0.8211
  932MOL0     C28483  10.032   3.908  10.833  0.7892 -0.0047 -0.3060
  932MOL0     C28484   9.994   3.905  10.968  0.0154  1.7239 -0.7912
  932MOL0     C28485   9.869   3.948  11.008  0.0701 -0.9438 -0.3730
  932MOL0     O28486   9.808   3.942  11.127  0.0094 -0.5102 -0.4737
  932MOL0     C28487   9.833   3.825  11.216 -0.5713 -0.0065  0.9452
  932MOL0     C28488   9.928   3.864  11.336 -0.9563  0.8665  0.1178
  932MOL0     C28489   9.861   3.960  11.438  0.3290  0.3108 -0.2583
  932MOL0     C28490   9.969   4.007  11.532 -0.1299 -0.4333 -1.0194
  932MOL0     C28491   9.917   4.120  11.623 -0.8983  0.0563 -0.0797
  932MOL0     C28492   9.832   4.059  11.742  0.8354 -1.4338  0.6424
  932MOL0     C28493   9.938   4.023  11.852  0.5538 -1.4360 -0.3361
  932MOL0     C28494   9.865   3.984  11.975  0.2315 -0.6218  0.3485
  932MOL0     N28495   9.971   3.965  12.081  0.9387  0.1456 -0.4050
  932MOL0     C28496   9.982   3.854  12.155  0.8593  0.1884  0.0252
  932MOL0     C28497  10.070   3.889  12.249 -0.7895  0.6460 -0.7118
  932MOL0     C28498  10.108   3.787  12.351 -0.1529  0.1668 -0.5687
  932MOL0     C28499  10.258   3.744  12.329 -0.0432  0.6253  0.0383
  932MOL0     C28500  10.288   3.613  12.397  0.2878  0.6230 -0.2942
  932MOL0     C28501  10.437   3.583  12.368 -0.6441 -0.3447 -0.4449
  932MOL0     O28502  10.468   3.569  12.225  1.0623 -0.2837  0.0108
  932MOL0     C28503  10.464   3.451  12.150 -0.4454 -0.5403  0.1222
  932MOL0     C28504  10.518   3.462  12.021 -0.1593 -0.6239  0.4949
  932MOL0     C28505  10.536   3.353  11.941  0.5847 -0.0570  0.3065
  932MOL0     C28506  10.626   3.377  11.823 -0.3642  0.5740  0.8009
  932MOL0     C28507  10.489   3.221  11.979  0.0790 -0.9069 -0.5791
  932MOL0     C28508  10.501   3.101  11.891 -0.3695 -0.3247 -0.3115
  932MOL0     O28509  10.415   3.004  11.925  0.2876  1.2015 -0.1616
  932MOL0     C28510  10.410   2.886  11.856  0.1511 -0.8966 -0.2632
  932MOL0     C28511  10.490   2.776  11.891 -0.2984  0.7725 -0.7190
  932MOL0     C28512  10.485   2.664  11.811 -0.2552 -0.3881 -0.5735
  932MOL0     C28513  10.400   2.659  11.693  0.1739  0.1418 -0.5842
  932MOL0     O28514  10.404   2.557  11.605 -0.3420  0.2735 -0.2913
  932MOL0     C28515  10.518   2.465  11.591 -0.5764  0.1757 -0.1997
  932MOL0     C28516  10.491   2.403  11.449 -0.8747 -0.3542 -0.0463
  932MOL0     C28517  10.364   2.304  11.456  0.3852  0.0127  0.5364
  932MOL0     C28518  10.334   2.236  11.312 -0.5347 -0.3635 -0.2107
  932MOL0     C28519  10.208   2.149  11.318 -0.3955  0.4142  0.2549
  932MOL0     C28520  10.215   2.042  11.424  0.7935  0.4723  1.4467
  932MOL0     C28521  10.333   1.946  11.388  0.1759  0.1075 -0.1999
  932MOL0     C28522  10.293   1.798  11.399 -0.3225 -0.4012 -0.3977
  932MOL0    Cl28523  10.442   1.700  11.407 -0.1388  0.0514  0.2283
  932MOL0     C28524  10.322   2.774  11.665 -0.0682  0.3072  0.4154
  932MOL0     C28525  10.325   2.882  11.750  0.2702  0.2599 -0.0987
  932MOL0     O28526  10.590   3.090  11.805 -0.2074  0.3204  0.0746
  932MOL0     C28527  10.439   3.213  12.113  0.9799  0.2262 -0.6019
  932MOL0     C28528  10.420   3.326  12.192 -0.5020  0.2225  0.1407
  932MOL0     N28529  10.121   4.015  12.222 -0.5012 -0.3878 -0.0950
  932MOL0     N28530  10.058   4.061  12.125  0.1070 -0.6775  0.9369
  932MOL0     C28531   9.787   3.994  10.907  0.5030 -0.2362  0.5673
  932MOL0     C28532   9.822   3.999  10.779  0.3119 -0.4744  0.4546
  932MOL0     C28533  10.025   3.858  10.396  0.1648  0.4905 -0.3955
  932MOL0     C28534  10.164   3.841  10.406  0.0262  0.2353  0.1434
  932MOL0     C28535  10.234   3.837  10.292  0.6132  0.0085 -0.0305
  932MOL0     C28536  10.181   3.842  10.164  0.2087  0.0693 -0.0303
  932MOL0     O28537  10.273   3.848  10.067  0.1222 -0.9115  0.3275
  932MOL0     C28538  10.226   3.837   9.932 -0.6452  0.5253  0.6758
  932MOL0     C28539  10.183   3.693   9.870  0.0098  0.1909  0.4807
  932MOL0     C28540  10.102   3.714   9.738 -0.3763 -1.0594 -0.2115
  932MOL0     C28541   9.961   3.764   9.758  0.2957  0.6431  0.2338
  932MOL0     C28542   9.899   3.739   9.623 -1.0802 -0.3597 -0.7377
  932MOL0     C28543   9.848   3.732   9.510  0.5133 -1.0017  0.2596
  932MOL0     C28544  10.036   3.851  10.152  0.1000  0.9380 -0.4036
  932MOL0     C28545   9.958   3.855  10.273 -0.3474  0.2510  0.5579
  932MOL0     C28546   9.806   3.859  10.252 -0.3971  0.4408 -0.0510
  932MOL0     H28547  10.133   3.880  10.808  0.9287  2.3579 -2.9806
  932MOL0     H28548  10.064   3.860  11.037 -0.5926  0.3255 -1.0509
  932MOL0     H28549   9.887   3.744  11.164  0.8075 -0.1483  2.5001
  932MOL0     H28550   9.734   3.797  11.253 -0.3649 -1.7160  0.3404
  932MOL0     H28551   9.942   3.772  11.394  3.1308  1.1415 -0.1186
  932MOL0     H28552  10.024   3.902  11.302 -0.7373  0.8905  0.7421
  932MOL0     H28553   9.825   4.049  11.387 -0.1680  0.3498  0.1445
  932MOL0     H28554   9.775   3.905  11.478  0.2861 -0.5891 -1.5280
  932MOL0     H28555   9.991   3.928  11.604 -4.1171 -2.3223 -1.5982
  932MOL0     H28556  10.060   4.042  11.483  1.3104 -1.8477  0.5006
  932MOL0     H28557   9.838   4.170  11.566 -2.0068  1.1485  2.2848
  932MOL0     H28558  10.003   4.178  11.659  0.7060 -1.8255 -0.7459
  932MOL0     H28559   9.765   4.141  11.769  0.0275 -1.9022  0.1304
  932MOL0     H28560   9.771   3.975  11.709  0.5002 -1.0226  0.1955
  932MOL0     H28561   9.998   4.110  11.881 -0.2620 -1.0028  0.1205
  932MOL0     H28562   9.990   3.929  11.830 -0.8941 -2.1996 -0.6569
  932MOL0     H28563   9.796   4.060  12.012  0.4957 -1.0694  1.8200
  932MOL0     H28564   9.805   3.894  11.963 -0.2664 -0.1968 -0.4254
  932MOL0     H28565   9.911   3.771  12.150 -1.0263  1.7394 -0.1573
  932MOL0     H28566  10.042   3.699  12.357  0.8777 -0.5206  1.4332
  932MOL0     H28567  10.087   3.835  12.447 -2.0900 -1.5780 -0.0438
  932MOL0     H28568  10.279   3.742  12.221  1.5188  1.3189  0.2963
  932MOL0     H28569  10.307   3.833  12.370 -1.4740  0.8977  1.2378
  932MOL0     H28570  10.275   3.635  12.503 -0.6496 -1.3535  0.0373
  932MOL0     H28571  10.228   3.525  12.373 -1.9541  1.3938  2.0309
  932MOL0     H28572  10.497   3.664  12.411  1.3179 -1.8483 -0.2225
  932MOL0     H28573  10.467   3.499  12.432  1.7300  0.0860 -0.8955
  932MOL0     H28574  10.556   3.556  11.981  1.7369 -0.8174  1.7412
  932MOL0     H28575  10.722   3.333  11.852 -1.5480 -3.6767 -0.8959
  932MOL0     H28576  10.638   3.484  11.807  1.1012  0.6585  2.2237
  932MOL0     H28577  10.586   3.324  11.736 -1.1611  2.5132 -0.0733
  932MOL0     H28578  10.563   2.775  11.971 -0.6108  0.5848 -0.4376
  932MOL0     H28579  10.556   2.582  11.822  0.2607  0.3645  2.7725
  932MOL0     H28580  10.615   2.514  11.585 -0.1990 -0.6129 -0.7980
  932MOL0     H28581  10.510   2.396  11.676 -2.1140  3.3795  2.5236
  932MOL0     H28582  10.475   2.494  11.390  0.6210  0.9465  1.4531
  932MOL0     H28583  10.581   2.353  11.412  0.5352  2.1356 -0.2291
  932MOL0     H28584  10.271   2.357  11.483 -0.2693 -0.7785 -0.1052
  932MOL0     H28585  10.372   2.229  11.535 -4.1427 -4.3102 -2.4560
  932MOL0     H28586  10.413   2.162  11.294  0.5557  0.6765  0.1622
  932MOL0     H28587  10.317   2.311  11.235 -3.4477  0.4979  1.1323
  932MOL0     H28588  10.121   2.207  11.351  1.6945  1.6496  4.1747
  932MOL0     H28589  10.189   2.100  11.222  1.3096  0.5834 -0.1959
  932MOL0     H28590  10.131   1.975  11.401  3.4541 -2.0102 -2.2871
  932MOL0     H28591  10.204   2.078  11.527 -3.2232  1.7154  0.7504
  932MOL0     H28592  10.411   1.959  11.463 -0.7483 -0.1741  0.8303
  932MOL0     H28593  10.378   1.964  11.289  1.3056  2.8114  0.6960
  932MOL0     H28594  10.237   1.790  11.305 -0.2878  1.6990 -0.6354
  932MOL0     H28595  10.238   1.768  11.489  1.5631 -2.0278  0.2892
  932MOL0     H28596  10.268   2.776  11.571 -0.2956  0.9769  0.5498
  932MOL0     H28597  10.260   2.967  11.732  0.9230  0.8739  0.3865
  932MOL0     H28598  10.408   3.112  12.141 -1.5226  1.4248  1.3007
  932MOL0     H28599  10.380   3.304  12.291  0.3365 -2.8367 -0.1056
  932MOL0     H28600   9.694   4.047  10.927  1.8701  2.4867  0.1240
  932MOL0     H28601   9.752   4.042  10.708  1.1553 -1.9904 -1.3989
  932MOL0     H28602  10.219   3.831  10.500  1.1466  1.4119 -0.3495
  932MOL0     H28603  10.341   3.828  10.310  0.0028 -1.0471  3.8940
  932MOL0     H28604  10.146   3.909   9.910 -0.8191  0.8239  2.2269
  932MOL0     H28605  10.316   3.864   9.876  0.7897 -2.0476  1.5974
  932MOL0     H28606  10.116   3.637   9.936 -0.2475 -0.6969 -0.5011
  932MOL0     H28607  10.263   3.623   9.842 -0.8037 -1.0362  1.1247
  932MOL0     H28608  10.159   3.781   9.673 -0.0433 -1.7648 -0.6642
  932MOL0     H28609  10.089   3.617   9.689 -1.5284 -0.6763 -0.6909
  932MOL0     H28610   9.951   3.870   9.783 -2.8354  0.5015 -0.0047
  932MOL0     H28611   9.891   3.707   9.820  0.8354  0.0913  0.3380
  932MOL0     H28612   9.802   3.718   9.414 -2.2956  0.0031  1.3545
  932MOL0     H28613   9.988   3.868  10.056 -2.2231  3.1475  1.0103
  932MOL0     H28614   9.777   3.948  10.194 -1.2735 -0.2516 -0.7098
  932MOL0     H28615   9.785   3.769  10.193  0.9039 -1.5648  2.3670
  932MOL0     H28616   9.751   3.852  10.346 -3.6964  3.1864 -1.5651
  933MOL0     O28617   8.819  10.679  10.801  0.4503 -0.2772 -0.2102
  933MOL0     C28618   8.917  10.753  10.835 -0.8157  0.0166  0.4190
  933MOL0     O28619   8.974  10.765  10.967  0.6703  1.0521  0.0158
  933MOL0     C28620   8.908  10.690  11.068  0.7205 -0.2181  0.3955
  933MOL0     C28621   8.844  10.747  11.168  0.7630 -0.1119  0.2655
  933MOL0     C28622   8.787  10.684  11.269  0.3962  1.1062 -0.1597
  933MOL0     C28623   8.787  10.535  11.268  0.3042  0.2005  0.3350
  933MOL0     O28624   8.730  10.444  11.360 -0.3071  0.0050 -0.3498
  933MOL0     C28625   8.630  10.493  11.449 -0.4105  0.5315 -0.0158
  933MOL0     C28626   8.584  10.359  11.515  1.3939 -0.3851 -0.3878
  933MOL0     C28627   8.480  10.397  11.629 -0.0618 -1.2314 -1.0066
  933MOL0     C28628   8.440  10.288  11.726 -0.2656  0.4718  1.1085
  933MOL0     C28629   8.360  10.175  11.661 -0.2757  0.0201  0.3177
  933MOL0     C28630   8.318  10.049  11.723 -0.3619  0.5848  0.6348
  933MOL0     C28631   8.243  10.064  11.861 -0.3848  0.0063 -0.2838
  933MOL0     C28632   8.159   9.945  11.899 -0.0715 -0.1925  0.6599
  933MOL0     N28633   8.174   9.923  12.044 -0.5001  0.8895  0.9040
  933MOL0     C28634   8.140  10.014  12.146 -0.6663 -0.9371  0.3021
  933MOL0     C28635   8.162   9.951  12.265 -0.4729  0.4617 -0.1623
  933MOL0     C28636   8.144  10.021  12.397 -1.0696 -0.3802  0.2789
  933MOL0     C28637   8.278  10.067  12.451  0.7236  0.3189 -0.5727
  933MOL0     C28638   8.253  10.179  12.554  0.8012 -1.0808 -0.7612
  933MOL0     C28639   8.324  10.161  12.690  0.8157 -0.5118 -0.8136
  933MOL0     O28640   8.309  10.283  12.761  0.3207  0.4314  0.3892
  933MOL0     C28641   8.220  10.262  12.870 -0.0173 -0.4340 -0.2647
  933MOL0     C28642   8.096  10.311  12.867  0.0128  0.8114  0.8923
  933MOL0     C28643   7.995  10.289  12.963 -0.1620 -0.3416  0.0201
  933MOL0     C28644   7.858  10.355  12.947 -0.7256 -0.5680  0.1625
  933MOL0     C28645   8.030  10.194  13.072  0.2180  0.5262 -0.8072
  933MOL0     C28646   7.942  10.159  13.192  0.5325 -0.1102  0.4231
  933MOL0     O28647   8.013  10.122  13.301 -0.1046 -0.5089  0.5172
  933MOL0     C28648   7.941  10.083  13.412 -0.2337  1.0087 -0.0843
  933MOL0     C28649   7.863   9.972  13.410  0.7448 -0.2868  0.4697
  933MOL0     C28650   7.787   9.916  13.514  0.7482 -0.5097 -0.7990
  933MOL0     C28651   7.803   9.979  13.636  0.3100 -0.4301  0.4530
  933MOL0     O28652   7.742   9.953  13.753 -0.1217 -0.6265  0.1984
  933MOL0     C28653   7.641   9.851  13.765 -0.7059  0.4255  0.1169
  933MOL0     C28654   7.551   9.874  13.891 -0.3049  0.0427  0.3493
  933MOL0     C28655   7.471  10.008  13.873 -0.0516  0.5523  0.3791
  933MOL0     C28656   7.383  10.048  13.990 -0.3022 -0.0229 -0.3440
  933MOL0     C28657   7.344  10.198  13.999 -1.1899  0.2145 -0.1212
  933MOL0     C28658   7.274  10.211  14.128  0.1378 -0.5001  0.2402
  933MOL0     C28659   7.224  10.359  14.158 -0.3314 -0.3499  0.7364
  933MOL0     C28660   7.142  10.365  14.275 -0.2961 -0.5167 -1.0136
  933MOL0    Cl28661   7.084  10.531  14.299 -0.2396 -0.1097  0.4885
  933MOL0     C28662   7.894  10.086  13.646 -0.6775 -1.5648 -0.3840
  933MOL0     C28663   7.967  10.128  13.535 -0.0904 -0.2221 -2.0391
  933MOL0     O28664   7.814  10.171  13.187 -0.9300  0.1854  0.4960
  933MOL0     C28665   8.167  10.151  13.078  0.3096 -1.2493 -0.3108
  933MOL0     C28666   8.260  10.187  12.980 -0.6945  0.1086  0.4476
  933MOL0     N28667   8.214   9.823  12.227 -0.1839 -0.2783 -0.0953
  933MOL0     N28668   8.219   9.809  12.103 -1.1817 -0.8381 -0.7327
  933MOL0     C28669   8.844  10.472  11.153 -0.9404  0.2173 -0.0784
  933MOL0     C28670   8.913  10.553  11.067 -1.0644  0.4830  0.0858
  933MOL0     C28671   9.004  10.831  10.738 -0.9341  0.0967 -0.5601
  933MOL0     C28672   9.114  10.905  10.780 -0.4509  0.2011 -0.6407
  933MOL0     C28673   9.197  10.976  10.691  0.1875  0.6484 -0.4453
  933MOL0     C28674   9.179  10.974  10.550 -0.7811 -0.4025 -0.7223
  933MOL0     O28675   9.263  11.043  10.472 -0.3426  0.2246  0.6341
  933MOL0     C28676   9.336  10.971  10.366  1.0099 -0.2622  0.5635
  933MOL0     C28677   9.477  10.942  10.419 -0.0080 -0.7279  0.1426
  933MOL0     C28678   9.471  10.823  10.522 -0.3958  0.1140 -0.9183
  933MOL0     C28679   9.591  10.811  10.619  0.8801 -0.8608  0.2191
  933MOL0     C28680   9.617  10.938  10.680 -0.1376  0.2477  0.5475
  933MOL0     C28681   9.651  11.050  10.733  0.3083 -0.0139 -0.4584
  933MOL0     C28682   9.067  10.904  10.511  1.0674 -0.0428  0.6100
  933MOL0     C28683   8.963  10.843  10.600 -1.3243 -0.4512  0.3376
  933MOL0     C28684   8.833  10.802  10.543  0.1361 -0.5345 -0.3746
  933MOL0     H28685   8.814  10.852  11.170 -2.2974 -0.8135 -1.7210
  933MOL0     H28686   8.730  10.722  11.354  1.5925 -0.6610  1.5053
  933MOL0     H28687   8.546  10.526  11.387 -2.3632 -5.3792 -1.0794
  933MOL0     H28688   8.664  10.569  11.520  0.2407  2.8022 -2.5908
  933MOL0     H28689   8.530  10.294  11.446  0.1424  0.0586  0.1440
  933MOL0     H28690   8.663  10.293  11.551  2.3918 -0.4117 -2.4903
  933MOL0     H28691   8.531  10.480  11.679 -2.5507  0.7899 -1.5747
  933MOL0     H28692   8.388  10.442  11.590  0.0844 -0.7996 -0.8556
  933MOL0     H28693   8.528  10.252  11.780 -1.1714  1.5979  3.4786
  933MOL0     H28694   8.378  10.333  11.804 -2.1458 -0.8050  0.4243
  933MOL0     H28695   8.418  10.152  11.571 -1.3792  2.4410 -1.1072
  933MOL0     H28696   8.274  10.236  11.632  1.0673  1.8477  0.0028
  933MOL0     H28697   8.263   9.991  11.648  2.2661 -0.5527 -0.5266
  933MOL0     H28698   8.412   9.996  11.740  0.3496  2.1236  1.7558
  933MOL0     H28699   8.180  10.154  11.870  1.5942  1.3329  1.2992
  933MOL0     H28700   8.318  10.080  11.940 -0.9548  0.9925  0.0851
  933MOL0     H28701   8.050   9.953  11.891 -0.3576 -0.2112  3.6483
  933MOL0     H28702   8.197   9.862  11.839  1.4984  1.4342 -0.7160
  933MOL0     H28703   8.098  10.112  12.129 -1.1888 -1.3446 -0.8560
  933MOL0     H28704   8.090   9.959  12.469 -1.4263  0.1821  0.5038
  933MOL0     H28705   8.080  10.107  12.372  0.1595  1.3663  2.7510
  933MOL0     H28706   8.327   9.980  12.495 -1.5808 -1.7695 -1.8634
  933MOL0     H28707   8.346  10.099  12.371  2.3388  2.7918  1.6506
  933MOL0     H28708   8.280  10.276  12.511 -1.3315 -1.0200 -2.0540
  933MOL0     H28709   8.146  10.192  12.571  0.5719 -1.5665 -1.7425
  933MOL0     H28710   8.277  10.072  12.734  1.2644 -1.2756 -1.8239
  933MOL0     H28711   8.429  10.135  12.671  1.2491  0.0531  0.7044
  933MOL0     H28712   8.074  10.378  12.784  1.6963 -0.1128 -0.3850
  933MOL0     H28713   7.793  10.269  12.930 -3.9635  1.3011  2.1241
  933MOL0     H28714   7.859  10.428  12.865  0.5646 -0.0220  0.6335
  933MOL0     H28715   7.822  10.398  13.041  3.5409 -1.0137  2.2291
  933MOL0     H28716   7.842   9.933  13.311  3.3514  2.6991 -1.4500
  933MOL0     H28717   7.704   9.846  13.503  0.8462 -0.8617  0.5058
  933MOL0     H28718   7.572   9.869  13.682 -2.0244  3.3098  1.6903
  933MOL0     H28719   7.687   9.751  13.764 -2.2759 -0.3715 -2.1350
  933MOL0     H28720   7.483   9.789  13.904 -1.8399  1.3668  1.3391
  933MOL0     H28721   7.610   9.878  13.983  1.4268 -1.3051 -0.6222
  933MOL0     H28722   7.406  10.026  13.787  1.5705  2.4423 -0.5477
  933MOL0     H28723   7.553  10.080  13.857 -0.3312  1.3780  2.4172
  933MOL0     H28724   7.431  10.019  14.083  0.3265  3.5251  0.5847
  933MOL0     H28725   7.292   9.989  13.971  1.0000 -2.1487 -0.2693
  933MOL0     H28726   7.434  10.259  14.010 -1.0753  0.2231 -1.0233
  933MOL0     H28727   7.291  10.232  13.910  0.2954  3.2182 -0.0056
  933MOL0     H28728   7.334  10.170  14.210 -0.1019 -3.3158 -0.8934
  933MOL0     H28729   7.184  10.149  14.124 -0.1341 -0.3286  2.4520
  933MOL0     H28730   7.173  10.387  14.065 -1.0737 -1.7214  0.7017
  933MOL0     H28731   7.307  10.431  14.154 -1.4782  0.9442 -0.9937
  933MOL0     H28732   7.190  10.332  14.368 -2.4426  0.5531  0.5668
  933MOL0     H28733   7.057  10.296  14.272  0.0787 -1.0697  0.3816
  933MOL0     H28734   7.926  10.128  13.740 -1.8538 -0.8992 -0.2561
  933MOL0     H28735   8.044  10.203  13.544 -1.7939  1.4108 -0.0732
  933MOL0     H28736   8.202  10.092  13.162 -0.7368  1.1831  1.9815
  933MOL0     H28737   8.360  10.144  12.982 -0.5119  0.4631  3.0571
  933MOL0     H28738   8.833  10.365  11.137 -1.6852  0.1701  0.6539
  933MOL0     H28739   8.960  10.507  10.980 -0.4407 -1.1538  1.2300
  933MOL0     H28740   9.138  10.911  10.886 -4.8503 -2.7816  0.8393
  933MOL0     H28741   9.276  11.041  10.726 -1.1449  0.4861  3.3518
  933MOL0     H28742   9.284  10.882  10.332 -2.2040  2.5917 -2.8832
  933MOL0     H28743   9.327  11.037  10.279 -2.9488 -3.2328 -1.6100
  933MOL0     H28744   9.515  11.037  10.455  1.5313  0.9246 -4.8971
  933MOL0     H28745   9.537  10.915  10.331 -0.3691  2.0374 -1.0566
  933MOL0     H28746   9.387  10.826  10.592  0.9993  1.7624  0.7880
  933MOL0     H28747   9.467  10.726  10.471  2.4805  0.1490 -1.4085
  933MOL0     H28748   9.676  10.790  10.554  0.3743 -0.6365 -0.5178
  933MOL0     H28749   9.567  10.741  10.700 -0.1699  0.7830  1.4037
  933MOL0     H28750   9.675  11.149  10.766 -0.0666 -0.2842  0.6870
  933MOL0     H28751   9.040  10.915  10.407 -1.7049  0.5518  1.3019
  933MOL0     H28752   8.810  10.860  10.453  0.3053 -0.2357 -0.2268
  933MOL0     H28753   8.847  10.697  10.515  0.5582 -0.1170 -1.7876
  933MOL0     H28754   8.747  10.816  10.610  0.6259  1.1444 -0.0522
  934MOL0     O28755   1.122   4.331   2.023 -0.1645 -0.3734  0.1186
  934MOL0     C28756   1.014   4.393   2.050  0.3480  0.4795  0.9867
  934MOL0     O28757   0.970   4.502   1.980 -0.2087 -0.3107  0.5573
  934MOL0     C28758   1.060   4.575   1.913 -0.7373 -1.2543  0.6367
  934MOL0     C28759   1.060   4.588   1.773  0.2541  0.1592 -0.6806
  934MOL0     C28760   1.140   4.687   1.707  0.3280  0.4074 -0.5166
  934MOL0     C28761   1.224   4.775   1.767 -0.5027  0.0267 -0.3013
  934MOL0     O28762   1.286   4.869   1.687 -1.0230  0.4690 -0.7353
  934MOL0     C28763   1.317   4.993   1.758 -0.0141 -0.3603 -0.1652
  934MOL0     C28764   1.319   5.117   1.654  1.0351  0.5323 -0.1853
  934MOL0     C28765   1.452   5.162   1.586  0.3229 -0.6149 -0.1119
  934MOL0     C28766   1.564   5.196   1.688  0.2226 -0.0773 -0.1702
  934MOL0     C28767   1.675   5.263   1.618 -0.8354 -0.1338  0.5596
  934MOL0     C28768   1.806   5.259   1.706 -0.1091 -0.2457  1.4276
  934MOL0     C28769   1.932   5.301   1.614 -0.5354  0.9501  0.3245
  934MOL0     C28770   1.956   5.454   1.623  0.1023 -0.7734 -0.4724
  934MOL0     N28771   2.036   5.487   1.516 -0.1513 -0.2403 -0.1669
  934MOL0     C28772   2.164   5.446   1.481  0.0104 -0.9418  0.4383
  934MOL0     C28773   2.211   5.519   1.381 -0.1963 -0.9969 -0.3747
  934MOL0     C28774   2.347   5.496   1.317  0.2110  1.6883  0.0867
  934MOL0     C28775   2.343   5.493   1.165 -0.1253  0.4746 -0.7411
  934MOL0     C28776   2.462   5.437   1.095 -0.1479  0.1888 -0.2200
  934MOL0     C28777   2.446   5.439   0.940 -0.8459 -0.5191 -0.7923
  934MOL0     O28778   2.382   5.556   0.901 -0.0290  0.2807  0.4294
  934MOL0     C28779   2.446   5.675   0.875  0.3397  1.3411  0.3507
  934MOL0     C28780   2.369   5.790   0.851 -0.3844 -0.5066 -0.3937
  934MOL0     C28781   2.440   5.910   0.836  0.3246 -0.0808 -0.5554
  934MOL0     C28782   2.364   6.040   0.831 -0.2999 -0.3165  0.4784
  934MOL0     C28783   2.582   5.914   0.821  0.4277 -0.2422 -0.2498
  934MOL0     C28784   2.666   6.035   0.786 -0.2315  0.6106  0.1405
  934MOL0     O28785   2.793   6.011   0.830 -0.8463 -0.0104  0.4682
  934MOL0     C28786   2.895   6.094   0.776  0.7649  0.1858 -0.3942
  934MOL0     C28787   2.902   6.219   0.830 -0.0718 -0.0419 -0.1278
  934MOL0     C28788   2.999   6.321   0.786  0.5091  0.0952 -0.0270
  934MOL0     C28789   3.079   6.280   0.674  1.1456 -0.2153 -0.1518
  934MOL0     O28790   3.156   6.383   0.620 -0.1652  0.0714  0.1997
  934MOL0     C28791   3.250   6.352   0.519 -0.0069  1.8567 -0.0950
  934MOL0     C28792   3.314   6.489   0.497  0.5031 -0.1689 -0.1181
  934MOL0     C28793   3.389   6.534   0.628  0.4792 -0.3473  0.2446
  934MOL0     C28794   3.415   6.687   0.632 -0.6441 -0.0828 -0.3212
  934MOL0     C28795   3.537   6.724   0.723 -0.3124 -0.0990 -1.2919
  934MOL0     C28796   3.521   6.874   0.765 -0.2055 -0.2529 -1.1074
  934MOL0     C28797   3.590   6.972   0.680 -0.0486  0.5809 -1.1044
  934MOL0     C28798   3.525   7.106   0.681  0.6697 -0.3642  0.4998
  934MOL0    Cl28799   3.355   7.091   0.623  0.2660  0.6245  0.0373
  934MOL0     C28800   3.070   6.159   0.618  0.0074  0.0659 -0.9377
  934MOL0     C28801   2.978   6.069   0.672  1.0387  0.1265  0.6935
  934MOL0     O28802   2.628   6.140   0.734  0.2488 -0.4001  0.2862
  934MOL0     C28803   2.650   5.788   0.841 -0.8759 -0.8195 -1.6614
  934MOL0     C28804   2.581   5.678   0.878  0.8070  0.0269  0.9763
  934MOL0     N28805   2.118   5.611   1.347  0.0143 -0.4976 -0.5158
  934MOL0     N28806   2.011   5.581   1.419 -0.3940  0.1007  0.8277
  934MOL0     C28807   1.236   4.752   1.909  0.2805  0.1542  0.0852
  934MOL0     C28808   1.160   4.655   1.977  1.1044  0.4197 -0.1025
  934MOL0     C28809   0.923   4.364   2.162 -1.0210 -0.2630 -0.4551
  934MOL0     C28810   0.834   4.454   2.218 -0.2545 -0.6465  0.2236
  934MOL0     C28811   0.748   4.421   2.312  0.3917  0.5384  0.0302
  934MOL0     C28812   0.761   4.300   2.379  0.0680  0.7389 -0.1797
  934MOL0     O28813   0.695   4.259   2.492 -0.6446 -0.3911  0.3489
  934MOL0     C28814   0.607   4.361   2.544 -0.5020  0.5305  0.1059
  934MOL0     C28815   0.534   4.314   2.666 -0.2000  0.8078 -0.7877
  934MOL0     C28816   0.408   4.392   2.708  0.5634 -0.2176  0.1751
  934MOL0     C28817   0.318   4.319   2.811  0.8034 -0.1690 -0.6404
  934MOL0     C28818   0.322   4.378   2.945  0.1447  0.0506 -0.6405
  934MOL0     C28819   0.339   4.416   3.059 -1.3571 -0.0843  0.8420
  934MOL0     C28820   0.855   4.213   2.334 -0.7274  0.3376  0.8282
  934MOL0     C28821   0.951   4.240   2.231  0.3093 -0.4356  0.6678
  934MOL0     C28822   1.048   4.136   2.199 -0.4550  0.3062  0.0250
  934MOL0     H28823   0.993   4.518   1.724  0.1963 -0.1221 -0.2019
  934MOL0     H28824   1.129   4.688   1.599  1.6061  2.2061 -0.6809
  934MOL0     H28825   1.406   4.994   1.821  1.1947 -0.5521 -1.8059
  934MOL0     H28826   1.240   5.021   1.831  0.4209  1.4396 -0.3482
  934MOL0     H28827   1.239   5.107   1.580 -0.8671  0.2198  1.7858
  934MOL0     H28828   1.281   5.198   1.717 -0.7277  0.9901 -1.7459
  934MOL0     H28829   1.476   5.080   1.518  2.8326  0.6009 -0.8089
  934MOL0     H28830   1.427   5.254   1.532  0.0102  1.6707  3.6062
  934MOL0     H28831   1.526   5.256   1.771 -0.4934 -1.4759  0.5389
  934MOL0     H28832   1.599   5.099   1.724  5.8008  1.1585 -1.3409
  934MOL0     H28833   1.649   5.362   1.581 -2.0229 -1.2133 -1.7372
  934MOL0     H28834   1.695   5.211   1.524  2.3567 -0.5092  1.3237
  934MOL0     H28835   1.784   5.325   1.790 -1.9169 -1.9955  2.4030
  934MOL0     H28836   1.821   5.157   1.745 -1.8917 -0.5362  1.4555
  934MOL0     H28837   1.907   5.267   1.513 -3.3903 -0.1938  1.3029
  934MOL0     H28838   2.022   5.246   1.642  1.1226  1.1326 -3.9691
  934MOL0     H28839   1.860   5.507   1.617  0.3896 -0.3685 -2.0326
  934MOL0     H28840   2.001   5.484   1.718 -1.3564 -1.4703  0.4834
  934MOL0     H28841   2.222   5.376   1.541  0.1622 -1.0896  0.1240
  934MOL0     H28842   2.396   5.406   1.354  0.0097  1.3585 -0.4557
  934MOL0     H28843   2.409   5.581   1.348 -0.1827  1.5602  1.2886
  934MOL0     H28844   2.254   5.436   1.140 -1.7829  1.9119  1.4992
  934MOL0     H28845   2.324   5.598   1.139  1.2870  0.4276 -2.1417
  934MOL0     H28846   2.548   5.499   1.121  1.8443 -2.6339  0.4478
  934MOL0     H28847   2.477   5.336   1.134  3.1703  0.4361 -0.6001
  934MOL0     H28848   2.545   5.416   0.898 -1.4883  1.3211 -3.6011
  934MOL0     H28849   2.386   5.353   0.909 -0.3619 -1.8457  1.6716
  934MOL0     H28850   2.262   5.803   0.845 -0.2832 -0.2123 -1.8326
  934MOL0     H28851   2.401   6.095   0.919 -0.7187  1.0471 -0.1716
  934MOL0     H28852   2.256   6.027   0.835 -0.9190  3.7301  1.4384
  934MOL0     H28853   2.399   6.093   0.742  0.8792  0.4581  1.3670
  934MOL0     H28854   2.818   6.240   0.895  0.9305  0.6479  0.9880
  934MOL0     H28855   3.011   6.424   0.818 -1.0357  0.7012 -1.2578
  934MOL0     H28856   3.326   6.276   0.537 -1.2203  0.5277 -0.3525
  934MOL0     H28857   3.198   6.316   0.430  2.9271 -2.2535 -0.4092
  934MOL0     H28858   3.381   6.487   0.410 -1.9858 -1.3671 -2.1368
  934MOL0     H28859   3.233   6.561   0.485 -0.3506 -0.0241  4.6352
  934MOL0     H28860   3.483   6.477   0.634  0.0743 -1.4117 -2.2060
  934MOL0     H28861   3.343   6.502   0.722  1.1413 -3.0625 -0.2614
  934MOL0     H28862   3.325   6.731   0.675 -1.1193 -0.0921 -1.2739
  934MOL0     H28863   3.427   6.723   0.529 -1.8956  0.0776 -0.4217
  934MOL0     H28864   3.541   6.667   0.816  1.8502  3.9640  1.4010
  934MOL0     H28865   3.632   6.707   0.672  1.9222  1.2950  2.0364
  934MOL0     H28866   3.573   6.875   0.861  0.0799  0.2694 -1.2645
  934MOL0     H28867   3.415   6.899   0.775 -0.1909  0.4506 -2.4415
  934MOL0     H28868   3.595   6.923   0.582 -0.4142 -2.0018  0.0866
  934MOL0     H28869   3.690   7.003   0.711  0.0355  3.0822 -3.4651
  934MOL0     H28870   3.581   7.173   0.614  1.9882  0.0952  1.9978
  934MOL0     H28871   3.523   7.158   0.777  1.3927  1.2460 -0.3152
  934MOL0     H28872   3.130   6.129   0.532 -1.1189 -3.5802 -0.6499
  934MOL0     H28873   2.975   5.967   0.637 -2.2571  0.3942 -0.1236
  934MOL0     H28874   2.758   5.790   0.851 -0.7994  3.0963 -1.4249
  934MOL0     H28875   2.646   5.594   0.903  0.0127 -1.1088 -0.5590
  934MOL0     H28876   1.306   4.811   1.967  0.3348  3.4130 -3.0290
  934MOL0     H28877   1.155   4.651   2.086 -3.3870  2.7664 -0.0144
  934MOL0     H28878   0.832   4.556   2.179 -2.0085 -1.4915 -2.1079
  934MOL0     H28879   0.675   4.488   2.355 -0.0563 -0.5324  0.9925
  934MOL0     H28880   0.662   4.453   2.565  1.3024 -0.7034  1.0375
  934MOL0     H28881   0.533   4.375   2.465 -0.8696  1.7035  0.6402
  934MOL0     H28882   0.606   4.301   2.748  0.0242  0.3995 -1.0429
  934MOL0     H28883   0.488   4.216   2.655 -1.1617  0.7962  2.3439
  934MOL0     H28884   0.436   4.489   2.750  0.5161  0.6411 -1.6886
  934MOL0     H28885   0.349   4.410   2.618  0.2849 -2.3742 -0.1133
  934MOL0     H28886   0.343   4.213   2.822 -0.9690 -0.8362 -2.4304
  934MOL0     H28887   0.217   4.330   2.771  1.7641 -2.3494 -4.0463
  934MOL0     H28888   0.374   4.423   3.160  0.3075 -2.3553  0.4925
  934MOL0     H28889   0.881   4.122   2.388  1.7366  1.2269  1.2697
  934MOL0     H28890   1.015   4.047   2.252  0.0908  0.6379  0.9448
  934MOL0     H28891   1.056   4.105   2.094  0.6593 -0.0869  0.2060
  934MOL0     H28892   1.143   4.171   2.241 -2.5821  1.9906  4.0032
  935MOL0     O28893   3.030   9.546   6.688 -0.6548 -0.3314 -0.1559
  935MOL0     C28894   2.975   9.439   6.681 -0.1340 -0.2170  0.2803
  935MOL0     O28895   2.840   9.429   6.660 -0.3610 -0.1113 -0.4778
  935MOL0     C28896   2.774   9.543   6.616 -0.4506 -0.3082 -0.1238
  935MOL0     C28897   2.795   9.605   6.486  0.0934 -0.3017  0.7345
  935MOL0     C28898   2.721   9.721   6.450 -1.2211 -0.1485 -1.3111
  935MOL0     C28899   2.642   9.789   6.547 -0.0817 -0.2374 -0.2223
  935MOL0     O28900   2.571   9.907   6.523  0.1873  0.1358  0.5846
  935MOL0     C28901   2.575   9.969   6.395 -0.1266 -0.2592  0.4897
  935MOL0     C28902   2.470  10.084   6.379 -0.4085 -0.6898 -0.5440
  935MOL0     C28903   2.529  10.206   6.459  0.0100  0.4557 -0.3276
  935MOL0     C28904   2.408  10.307   6.495 -0.0409 -0.0469  0.1373
  935MOL0     C28905   2.466  10.417   6.578 -0.0352  0.1291  0.2102
  935MOL0     C28906   2.503  10.373   6.718  0.3730 -0.1089  0.6881
  935MOL0     C28907   2.547  10.497   6.795  0.3487  0.4054 -0.6669
  935MOL0     C28908   2.652  10.597   6.725 -0.3424 -0.2039  0.1985
  935MOL0     N28909   2.785  10.541   6.702  0.6297  0.3077  0.1553
  935MOL0     C28910   2.867  10.502   6.799  0.7367  0.5808 -0.5567
  935MOL0     C28911   2.981  10.466   6.733 -0.0281  0.8260 -0.3120
  935MOL0     C28912   3.112  10.441   6.793  0.4900 -0.2847 -0.7782
  935MOL0     C28913   3.201  10.345   6.707  0.8319 -0.4695  0.0415
  935MOL0     C28914   3.345  10.306   6.762  0.4880  0.3538 -0.9068
  935MOL0     C28915   3.353  10.247   6.903 -0.2862 -0.2021 -0.3743
  935MOL0     O28916   3.254  10.154   6.920  0.4556  0.4931 -0.4463
  935MOL0     C28917   3.276  10.058   7.009 -0.6965  0.0022  0.6171
  935MOL0     C28918   3.209   9.940   6.994 -0.2142  0.1984  0.8312
  935MOL0     C28919   3.239   9.826   7.063  0.0984 -0.8051 -0.1530
  935MOL0     C28920   3.202   9.687   7.007 -0.7898 -0.0412  0.4006
  935MOL0     C28921   3.317   9.844   7.182  0.6337 -0.4826 -0.2496
  935MOL0     C28922   3.352   9.732   7.278 -0.1478  0.8430 -0.2943
  935MOL0     O28923   3.367   9.773   7.409 -0.3882  0.3498 -0.0397
  935MOL0     C28924   3.427   9.682   7.487 -0.0435  1.0146 -0.6091
  935MOL0     C28925   3.570   9.675   7.486  0.5709 -0.2332 -0.0556
  935MOL0     C28926   3.638   9.585   7.562  0.2540  0.3707 -0.4392
  935MOL0     C28927   3.564   9.514   7.665 -0.8695 -1.2556  0.1991
  935MOL0     O28928   3.604   9.431   7.755  0.0219  0.8331  0.0098
  935MOL0     C28929   3.732   9.440   7.818  0.8758 -0.0058 -0.8685
  935MOL0     C28930   3.723   9.387   7.966 -1.7152  0.6702 -0.0980
  935MOL0     C28931   3.866   9.364   8.029  0.1603 -0.6190  0.2578
  935MOL0     C28932   3.933   9.244   7.964  0.1811 -0.5427  0.5358
  935MOL0     C28933   4.079   9.227   8.020 -0.3918  0.3652  0.6083
  935MOL0     C28934   4.158   9.097   7.978  0.0309  0.5959  0.4839
  935MOL0     C28935   4.295   9.105   8.050 -0.3357  0.1101 -0.1911
  935MOL0     C28936   4.359   8.971   8.073 -0.1070 -0.7892 -0.3942
  935MOL0    Cl28937   4.417   8.903   7.908 -0.1868  0.3870  0.0929
  935MOL0     C28938   3.424   9.533   7.667  0.5958  0.1620  0.3537
  935MOL0     C28939   3.358   9.620   7.582  0.7352  0.2142 -0.5529
  935MOL0     O28940   3.356   9.616   7.248  0.6696  0.4651 -1.0283
  935MOL0     C28941   3.372   9.975   7.219 -0.1998  1.2808 -0.3451
  935MOL0     C28942   3.353  10.081   7.128 -0.1088 -0.8232  0.2125
  935MOL0     N28943   2.960  10.475   6.599  0.1700  0.0362  0.2680
  935MOL0     N28944   2.833  10.515   6.579 -0.1742  0.4052 -1.3597
  935MOL0     C28945   2.612   9.717   6.664 -0.9925 -0.3756 -0.0792
  935MOL0     C28946   2.678   9.599   6.702  0.0630  0.2025  0.9955
  935MOL0     C28947   3.063   9.317   6.692  0.0503  0.2508 -0.0847
  935MOL0     C28948   2.992   9.197   6.728  0.1605  0.4938  0.4868
  935MOL0     C28949   3.054   9.071   6.726  0.4534 -0.6649 -0.0939
  935MOL0     C28950   3.187   9.061   6.689  0.2009 -0.3514  0.4503
  935MOL0     O28951   3.235   8.938   6.708 -0.2248 -0.1118  0.6106
  935MOL0     C28952   3.375   8.926   6.674 -0.5783 -0.5287  0.4992
  935MOL0     C28953   3.410   8.775   6.647 -0.6585  0.5980 -1.1102
  935MOL0     C28954   3.456   8.715   6.780 -0.4725  0.4568 -0.1647
  935MOL0     C28955   3.466   8.566   6.754 -0.0126  0.5075 -0.1912
  935MOL0     C28956   3.338   8.495   6.779 -0.3691  0.6339 -0.1302
  935MOL0     C28957   3.227   8.447   6.788 -0.5442  0.4163 -0.4585
  935MOL0     C28958   3.266   9.178   6.663  0.8372 -1.2175 -0.4261
  935MOL0     C28959   3.207   9.307   6.671  0.3313  0.2283 -0.5968
  935MOL0     C28960   3.287   9.428   6.658  0.1397 -0.5444  0.1549
  935MOL0     H28961   2.860   9.555   6.415  2.3594  0.2298  2.3198
  935MOL0     H28962   2.743   9.769   6.355 -0.6591 -1.0065 -1.6216
  935MOL0     H28963   2.566   9.902   6.309  0.1567 -0.4186  0.5862
  935MOL0     H28964   2.668  10.026   6.390 -0.8511  1.6753  4.5743
  935MOL0     H28965   2.450  10.117   6.277 -0.6371 -0.2596 -0.3579
  935MOL0     H28966   2.374  10.053   6.420 -0.0937  1.7562  2.4108
  935MOL0     H28967   2.580  10.171   6.549 -1.8261 -1.3983  0.0832
  935MOL0     H28968   2.593  10.259   6.388 -2.5439  1.9608 -1.6491
  935MOL0     H28969   2.373  10.359   6.405 -3.8779 -0.2845  1.3322
  935MOL0     H28970   2.318  10.254   6.525 -2.2693  2.7536 -1.1331
  935MOL0     H28971   2.394  10.498   6.596 -0.9530 -0.8194  0.9250
  935MOL0     H28972   2.544  10.471   6.523  1.1603  0.8475  2.4867
  935MOL0     H28973   2.412  10.334   6.764  0.0993  1.4840  1.5807
  935MOL0     H28974   2.580  10.296   6.711  0.8851  0.5361 -1.3337
  935MOL0     H28975   2.570  10.457   6.894 -1.8951 -0.3403 -0.3848
  935MOL0     H28976   2.450  10.548   6.803 -0.6299 -0.9041 -3.0296
  935MOL0     H28977   2.614  10.625   6.626  0.4849 -0.7994 -0.2983
  935MOL0     H28978   2.652  10.695   6.773  0.4395  1.0877 -2.2605
  935MOL0     H28979   2.846  10.499   6.906  1.1609  2.2447 -0.3923
  935MOL0     H28980   3.103  10.398   6.893  0.8990 -0.4079 -0.7950
  935MOL0     H28981   3.159  10.538   6.807 -2.4979  1.6866 -3.0464
  935MOL0     H28982   3.141  10.258   6.679 -1.5703  0.4275  2.0620
  935MOL0     H28983   3.212  10.404   6.615 -2.5827  1.5897  0.7970
  935MOL0     H28984   3.379  10.230   6.691 -0.5227 -1.6553  0.6399
  935MOL0     H28985   3.403  10.399   6.770  1.5235 -0.3361  0.0199
  935MOL0     H28986   3.448  10.193   6.908 -1.3335 -2.1476 -0.5276
  935MOL0     H28987   3.342  10.322   6.982  1.2853  0.7861 -1.0374
  935MOL0     H28988   3.143   9.922   6.909 -0.5991  2.4121  0.6084
  935MOL0     H28989   3.296   9.642   6.972 -1.5558 -1.6402  0.3121
  935MOL0     H28990   3.146   9.694   6.914  1.6033  0.7468 -1.0744
  935MOL0     H28991   3.148   9.624   7.079 -2.5066 -0.7467 -1.4192
  935MOL0     H28992   3.603   9.750   7.415 -2.7190  0.0539 -1.4195
  935MOL0     H28993   3.745   9.587   7.540 -0.0026 -0.5008 -1.9238
  935MOL0     H28994   3.806   9.382   7.763  0.9942 -0.1424 -0.5712
  935MOL0     H28995   3.761   9.546   7.824  0.2098  0.1282  3.0259
  935MOL0     H28996   3.651   9.451   8.018 -3.7516 -1.5928  0.0279
  935MOL0     H28997   3.682   9.286   7.964  0.3189 -0.3606  3.0808
  935MOL0     H28998   3.855   9.361   8.138 -2.9311 -1.8302  0.0249
  935MOL0     H28999   3.926   9.453   8.006  3.1387 -2.7194 -0.7808
  935MOL0     H29000   3.947   9.253   7.856  2.0418  1.2925  0.8871
  935MOL0     H29001   3.858   9.164   7.977 -5.6127  3.8911 -1.1183
  935MOL0     H29002   4.142   9.313   7.994  1.5275 -1.2472 -0.3779
  935MOL0     H29003   4.058   9.214   8.126  0.5004 -1.1098  0.6275
  935MOL0     H29004   4.169   9.086   7.870 -1.2455 -0.4034  0.4349
  935MOL0     H29005   4.107   9.016   8.031  0.6768  0.7671  1.3944
  935MOL0     H29006   4.293   9.149   8.150 -0.4174 -1.5400  0.5751
  935MOL0     H29007   4.372   9.171   8.010  1.1100 -0.7710  1.0427
  935MOL0     H29008   4.278   8.915   8.120 -0.3976  0.6832  0.9531
  935MOL0     H29009   4.436   8.971   8.150 -2.6002  1.2303  2.3084
  935MOL0     H29010   3.368   9.479   7.743  0.3445 -0.7918 -0.4914
  935MOL0     H29011   3.251   9.629   7.596  0.5649 -3.5301  1.7725
  935MOL0     H29012   3.437   9.992   7.304 -1.4946 -0.9548  1.2056
  935MOL0     H29013   3.398  10.174   7.160 -3.1178  0.5565  0.7522
  935MOL0     H29014   2.532   9.756   6.726  0.0458  3.0855 -0.6672
  935MOL0     H29015   2.653   9.552   6.797  0.4816 -2.1611  0.0155
  935MOL0     H29016   2.886   9.204   6.754  0.4042  1.9261  1.1764
  935MOL0     H29017   2.996   8.988   6.765  0.2884  0.3795  2.0052
  935MOL0     H29018   3.389   8.986   6.584 -1.4654 -2.1251 -0.7533
  935MOL0     H29019   3.441   8.967   6.751 -0.8977  0.6083  0.1789
  935MOL0     H29020   3.489   8.753   6.575 -0.4262  0.3937 -0.7929
  935MOL0     H29021   3.310   8.741   6.616 -2.0121  1.7140  1.6917
  935MOL0     H29022   3.553   8.760   6.804 -0.1355 -0.6105  0.5524
  935MOL0     H29023   3.389   8.739   6.862  0.5890 -0.3265  0.9754
  935MOL0     H29024   3.530   8.517   6.829 -0.2346  0.0978 -0.2639
  935MOL0     H29025   3.513   8.545   6.657 -0.1307  0.3624 -0.2190
  935MOL0     H29026   3.134   8.395   6.804 -0.4703  0.4966  0.2781
  935MOL0     H29027   3.371   9.188   6.637  0.9153  3.2407  0.6475
  935MOL0     H29028   3.263   9.485   6.568 -1.3127 -1.9412 -0.4011
  935MOL0     H29029   3.284   9.507   6.733  4.1134  0.8284 -0.9119
  935MOL0     H29030   3.393   9.403   6.655  0.2649 -0.1187  0.8954
  936MOL0     O29031   6.292   8.096   7.846  0.1387 -0.5835 -0.4942
  936MOL0     C29032   6.302   8.180   7.934 -0.1401 -0.3940 -1.4134
  936MOL0     O29033   6.306   8.149   8.062  0.7814 -0.9358 -0.2749
  936MOL0     C29034   6.247   8.039   8.117  0.8593 -0.3523 -0.2005
  936MOL0     C29035   6.277   8.008   8.246 -0.2422  0.2605  0.6998
  936MOL0     C29036   6.213   7.901   8.307 -0.2533  0.0203 -0.6714
  936MOL0     C29037   6.117   7.814   8.246 -1.1558  0.3572  0.9455
  936MOL0     O29038   6.046   7.728   8.319  0.1236 -0.0789 -0.0029
  936MOL0     C29039   5.904   7.705   8.292  0.3343  0.7879  0.9616
  936MOL0     C29040   5.821   7.655   8.406 -1.0023 -0.6481 -0.7846
  936MOL0     C29041   5.674   7.620   8.392  0.4678  0.5692  0.6121
  936MOL0     C29042   5.612   7.571   8.525 -0.0131  0.8801 -0.5229
  936MOL0     C29043   5.466   7.547   8.523  0.5986 -0.7928  0.0750
  936MOL0     C29044   5.402   7.541   8.663 -0.8246  0.3661 -0.0057
  936MOL0     C29045   5.384   7.392   8.687 -0.3435 -0.2113 -0.1217
  936MOL0     C29046   5.319   7.364   8.818 -0.6365 -0.3941  0.4816
  936MOL0     N29047   5.286   7.227   8.846  0.2165 -0.7032 -0.5900
  936MOL0     C29048   5.201   7.149   8.779 -1.0081 -0.4167  1.0082
  936MOL0     C29049   5.235   7.027   8.829 -0.8382  0.4339  0.3784
  936MOL0     C29050   5.160   6.895   8.781 -0.4463  0.5897 -0.4241
  936MOL0     C29051   5.043   6.847   8.883  0.9384  0.2119 -0.5623
  936MOL0     C29052   5.084   6.826   9.035  0.2570 -1.0504 -0.3712
  936MOL0     C29053   4.970   6.752   9.114 -0.4194  0.9650 -0.2365
  936MOL0     O29054   4.861   6.837   9.142 -0.3961  0.2145 -0.2248
  936MOL0     C29055   4.745   6.793   9.208  0.0453  0.1423  0.0789
  936MOL0     C29056   4.716   6.657   9.232  0.4213 -0.5168 -0.2142
  936MOL0     C29057   4.601   6.621   9.307 -1.0431 -0.5445  1.3117
  936MOL0     C29058   4.570   6.471   9.329 -0.1771  0.2118  1.1404
  936MOL0     C29059   4.511   6.728   9.340  0.6376  0.7063 -0.5016
  936MOL0     C29060   4.385   6.689   9.419 -0.5347  1.1063  0.1706
  936MOL0     O29061   4.360   6.741   9.536 -0.1687  0.1737  0.1379
  936MOL0     C29062   4.295   6.665   9.634  0.1594  0.1459 -0.0111
  936MOL0     C29063   4.282   6.739   9.746  0.8199  0.5115 -0.6796
  936MOL0     C29064   4.219   6.683   9.861  1.2769 -0.3342  0.2942
  936MOL0     C29065   4.181   6.546   9.860  0.3653  0.4478 -0.4540
  936MOL0     O29066   4.146   6.499   9.980 -0.1829  0.2760 -0.2726
  936MOL0     C29067   4.044   6.568  10.052 -0.4493  0.5715 -0.5508
  936MOL0     C29068   3.963   6.473  10.127 -0.2135 -0.3530 -0.7535
  936MOL0     C29069   3.855   6.408  10.039 -0.1848  0.3126 -0.0941
  936MOL0     C29070   3.769   6.324  10.128 -0.5209  0.3370  0.0094
  936MOL0     C29071   3.750   6.178  10.073 -0.3454  0.2344 -0.0848
  936MOL0     C29072   3.611   6.122  10.086  0.3571  0.7229  0.2581
  936MOL0     C29073   3.505   6.210  10.010  0.1662 -0.3013 -0.4747
  936MOL0     C29074   3.385   6.133   9.971 -0.5227 -0.3927  0.0456
  936MOL0    Cl29075   3.275   6.090  10.113 -0.1258 -0.3312  0.1607
  936MOL0     C29076   4.196   6.468   9.739  0.2319 -0.8946 -0.2466
  936MOL0     C29077   4.255   6.532   9.629 -0.2717  0.1926 -0.5643
  936MOL0     O29078   4.313   6.614   9.357 -0.4562 -0.4957 -0.1347
  936MOL0     C29079   4.543   6.872   9.331 -0.2250  0.2397  0.4380
  936MOL0     C29080   4.660   6.894   9.263  0.1464  0.0635  0.0969
  936MOL0     N29081   5.344   7.029   8.919  0.1246  0.1101  0.0314
  936MOL0     N29082   5.371   7.153   8.928  0.8165  0.6094 -0.1246
  936MOL0     C29083   6.088   7.844   8.111 -0.4871 -1.1565  0.0495
  936MOL0     C29084   6.139   7.961   8.050  0.1418 -1.1218 -0.8694
  936MOL0     C29085   6.300   8.327   7.889  0.2310  1.1853  0.5389
  936MOL0     C29086   6.329   8.348   7.749  0.1632  0.7506 -0.2854
  936MOL0     C29087   6.322   8.475   7.694  0.2688  0.1314 -0.3034
  936MOL0     C29088   6.299   8.588   7.777  0.6536  1.0077  0.2331
  936MOL0     O29089   6.291   8.717   7.745 -0.0492 -1.1552  0.2960
  936MOL0     C29090   6.309   8.766   7.613 -0.8875  0.3475 -0.9448
  936MOL0     C29091   6.183   8.735   7.533  0.0508 -0.0467 -0.3023
  936MOL0     C29092   6.199   8.752   7.378 -0.1184  0.5206 -0.9422
  936MOL0     C29093   6.315   8.852   7.341  0.6676  0.7092 -0.7157
  936MOL0     C29094   6.297   8.870   7.198 -0.0720  0.0707 -0.0819
  936MOL0     C29095   6.265   8.878   7.078 -0.1243  0.4173 -0.6809
  936MOL0     C29096   6.272   8.564   7.908  0.1658 -0.1170 -0.8477
  936MOL0     C29097   6.277   8.439   7.970  0.1552  0.3519 -0.0460
  936MOL0     C29098   6.237   8.431   8.116  0.3148  0.4335  0.2203
  936MOL0     H29099   6.355   8.054   8.307  0.3766  2.4485 -1.5702
  936MOL0     H29100   6.221   7.872   8.412  2.0529 -1.8611 -1.2668
  936MOL0     H29101   5.896   7.619   8.225  1.4561  2.6322 -1.7116
  936MOL0     H29102   5.857   7.796   8.253  2.4260  1.5089 -0.0668
  936MOL0     H29103   5.872   7.571   8.453 -3.3793 -2.5717 -1.4825
  936MOL0     H29104   5.823   7.737   8.478 -0.6284  1.5323 -3.1250
  936MOL0     H29105   5.611   7.703   8.358  0.7918  0.4103 -0.4191
  936MOL0     H29106   5.665   7.546   8.312 -1.5241  1.0061  0.3589
  936MOL0     H29107   5.668   7.481   8.552 -3.3084 -0.8026  1.3391
  936MOL0     H29108   5.637   7.649   8.598  0.9775 -0.5235  0.6951
  936MOL0     H29109   5.449   7.449   8.477  0.1125 -0.6892  0.0314
  936MOL0     H29110   5.412   7.621   8.464  3.6883  2.6032  1.1305
  936MOL0     H29111   5.459   7.591   8.741 -3.5298  0.6281  1.9364
  936MOL0     H29112   5.302   7.585   8.660 -1.1878 -0.2289  2.0650
  936MOL0     H29113   5.476   7.333   8.684 -0.5683 -0.6008  0.5214
  936MOL0     H29114   5.315   7.352   8.613  0.2867 -1.2494 -0.1602
  936MOL0     H29115   5.397   7.397   8.888 -1.2666  2.4918 -0.0527
  936MOL0     H29116   5.235   7.430   8.844 -0.7045 -2.0195  5.4146
  936MOL0     H29117   5.135   7.186   8.701  2.1363  0.1734 -1.5623
  936MOL0     H29118   5.230   6.812   8.762 -1.2324 -0.6315  1.7097
  936MOL0     H29119   5.096   6.908   8.693 -5.1600  1.5214  2.7800
  936MOL0     H29120   4.964   6.923   8.873 -0.0397 -0.9150 -1.7195
  936MOL0     H29121   5.017   6.759   8.824  0.7209 -0.8603  1.0611
  936MOL0     H29122   5.177   6.769   9.024 -0.1932 -1.4835 -2.2838
  936MOL0     H29123   5.114   6.917   9.087  1.6470 -3.2920  3.0939
  936MOL0     H29124   4.934   6.667   9.056 -0.3790  1.3131 -0.7789
  936MOL0     H29125   5.013   6.715   9.208  0.7253  2.2426 -0.2164
  936MOL0     H29126   4.779   6.575   9.200 -0.7528 -1.1880 -0.8752
  936MOL0     H29127   4.497   6.444   9.407 -1.4025 -1.8837 -0.6048
  936MOL0     H29128   4.663   6.425   9.363 -0.7964 -1.0454  1.2217
  936MOL0     H29129   4.537   6.419   9.238  0.1507  3.0240 -0.6887
  936MOL0     H29130   4.313   6.843   9.753  1.1107  0.3852  0.0152
  936MOL0     H29131   4.216   6.745   9.950  2.0600  1.2931 -0.7685
  936MOL0     H29132   4.099   6.629  10.124  0.0721 -1.7660  1.1398
  936MOL0     H29133   3.979   6.626   9.985 -1.1226  0.0486 -0.3608
  936MOL0     H29134   4.024   6.394  10.172 -1.3403 -0.8650 -0.1031
  936MOL0     H29135   3.905   6.533  10.198 -0.3557  0.2554 -1.3750
  936MOL0     H29136   3.895   6.345   9.959 -0.0540  0.3016 -0.0201
  936MOL0     H29137   3.793   6.478   9.981  1.0960  2.9061  1.4984
  936MOL0     H29138   3.672   6.367  10.153 -0.9079 -1.8468  2.7787
  936MOL0     H29139   3.821   6.315  10.224 -2.1722 -0.3858  0.8740
  936MOL0     H29140   3.782   6.182   9.969 -1.7562  0.3320 -0.5329
  936MOL0     H29141   3.824   6.112  10.119  1.8296  2.5604 -0.0031
  936MOL0     H29142   3.576   6.099  10.187 -2.4105 -2.0621 -1.1678
  936MOL0     H29143   3.614   6.032  10.024 -1.6096  0.5966  0.3045
  936MOL0     H29144   3.543   6.248   9.915  1.0405 -1.1188 -0.4646
  936MOL0     H29145   3.473   6.295  10.071  0.6371  0.6018 -1.4592
  936MOL0     H29146   3.420   6.047   9.913  1.0050  0.8733 -0.9751
  936MOL0     H29147   3.325   6.196   9.904  0.4674 -0.4021 -0.8669
  936MOL0     H29148   4.175   6.361   9.742  1.5861 -1.1714 -0.0126
  936MOL0     H29149   4.288   6.465   9.549  0.0328 -0.3292 -0.0096
  936MOL0     H29150   4.480   6.947   9.377  0.6541  1.3672 -0.1230
  936MOL0     H29151   4.692   6.997   9.252 -0.6115  0.3067  0.0716
  936MOL0     H29152   6.019   7.779   8.058  0.1994 -1.3732 -0.6070
  936MOL0     H29153   6.106   7.988   7.951  0.4407  1.9253 -0.2242
  936MOL0     H29154   6.352   8.265   7.682  1.1890  1.9278 -1.4339
  936MOL0     H29155   6.350   8.484   7.590 -0.6632 -3.5627 -0.9995
  936MOL0     H29156   6.321   8.875   7.612 -3.0708  0.6385  0.0465
  936MOL0     H29157   6.400   8.718   7.575 -0.2982  0.1870  0.6256
  936MOL0     H29158   6.098   8.796   7.562  0.3836  0.2182  0.1244
  936MOL0     H29159   6.140   8.638   7.560  0.9905 -0.9075 -1.7446
  936MOL0     H29160   6.224   8.655   7.335  2.2351  0.6657 -0.0689
  936MOL0     H29161   6.107   8.791   7.332 -0.3822  0.6255 -0.3352
  936MOL0     H29162   6.412   8.806   7.364 -0.0022  0.8113  2.8665
  936MOL0     H29163   6.314   8.943   7.401  1.5933  0.8339 -0.8740
  936MOL0     H29164   6.252   8.871   6.972  5.4441  0.1321 -1.6578
  936MOL0     H29165   6.231   8.640   7.974 -1.8677 -1.4853 -0.4327
  936MOL0     H29166   6.227   8.530   8.161 -2.6094  0.5256 -0.4625
  936MOL0     H29167   6.137   8.388   8.121  1.0296 -1.3728 -0.3155
  936MOL0     H29168   6.307   8.370   8.175  0.7990 -0.6398 -1.4134
  937MOL0     O29169   9.790   1.440   1.186 -0.1823 -0.1642  0.0544
  937MOL0     C29170   9.869   1.348   1.158 -1.1337 -1.0043  1.1140
  937MOL0     O29171   9.894   1.309   1.030  0.1906 -0.6537 -0.3136
  937MOL0     C29172   9.812   1.362   0.932  0.0306 -0.3215 -0.3768
  937MOL0     C29173   9.885   1.435   0.836  0.3526 -0.3343  0.0080
  937MOL0     C29174   9.819   1.504   0.735  0.2959 -0.1133 -0.9347
  937MOL0     C29175   9.680   1.488   0.708 -0.0392 -0.2131  0.0973
  937MOL0     O29176   9.634   1.558   0.597 -0.6882 -0.3633 -0.0371
  937MOL0     C29177   9.516   1.492   0.535  1.1920  0.2473  0.3520
  937MOL0     C29178   9.520   1.534   0.380  0.1266 -0.8033 -0.1095
  937MOL0     C29179   9.540   1.677   0.347 -0.1846 -0.0855  0.2693
  937MOL0     C29180   9.447   1.786   0.420  0.1344 -0.4575  0.5687
  937MOL0     C29181   9.456   1.924   0.355 -0.2387 -0.1323 -0.3331
  937MOL0     C29182   9.591   1.976   0.372 -0.3624 -0.2824  0.5496
  937MOL0     C29183   9.602   2.123   0.339  0.0703  1.0966  0.4656
  937MOL0     C29184   9.739   2.174   0.356  0.7818 -0.2230 -0.4649
  937MOL0     N29185   9.740   2.311   0.308 -1.5124  0.1126  1.1383
  937MOL0     C29186   9.849   2.406   0.329  0.0729  0.1766 -0.6096
  937MOL0     C29187   9.863   2.495   0.230  0.5912  0.5180  0.2529
  937MOL0     C29188   9.986   2.595   0.208 -0.3426  0.3651 -0.8030
  937MOL0     C29189   9.963   2.732   0.281 -0.1076  1.4358  0.1702
  937MOL0     C29190   9.979   2.726   0.439 -0.3861  0.0915  0.1896
  937MOL0     C29191  10.123   2.683   0.487 -0.7709 -0.4434 -0.9596
  937MOL0     O29192  10.131   2.696   0.627  0.0391 -0.2109  0.4302
  937MOL0     C29193  10.252   2.707   0.696  0.5556 -0.8896 -0.0758
  937MOL0     C29194  10.366   2.774   0.647  0.6247 -0.0860  0.6007
  937MOL0     C29195  10.489   2.778   0.719  0.1048  0.4682  0.3122
  937MOL0     C29196  10.599   2.871   0.660 -0.1983 -1.1794 -0.7647
  937MOL0     C29197  10.507   2.694   0.829  0.5786  0.2304 -0.0669
  937MOL0     C29198  10.636   2.668   0.899 -0.4168  0.1890 -0.2789
  937MOL0     O29199  10.746   2.735   0.863  0.6031  0.1120  0.2119
  937MOL0     C29200  10.870   2.688   0.905  0.1887 -0.1005  0.6185
  937MOL0     C29201  10.912   2.560   0.943  0.6460 -0.0622 -0.4086
  937MOL0     C29202  11.036   2.532   0.990  0.5573 -0.3163 -0.6676
  937MOL0     C29203  11.132   2.626   0.983 -0.6449  0.2081  0.7139
  937MOL0     O29204  11.262   2.593   1.003 -0.2520  0.3539  0.6207
  937MOL0     C29205  11.326   2.657   1.118  0.2130  0.1095 -0.0092
  937MOL0     C29206  11.465   2.598   1.125  0.4831  1.1400  0.2002
  937MOL0     C29207  11.462   2.444   1.149 -0.0540 -0.8228 -0.7029
  937MOL0     C29208  11.609   2.404   1.166  0.3014  0.8887 -0.1686
  937MOL0     C29209  11.628   2.258   1.163 -0.0432  0.2385  0.0728
  937MOL0     C29210  11.755   2.212   1.238  0.0100 -0.3773 -0.1207
  937MOL0     C29211  11.891   2.275   1.199 -0.0063 -0.0832  0.3302
  937MOL0     C29212  11.933   2.412   1.262  0.1889 -0.4383  1.1624
  937MOL0    Cl29213  11.968   2.394   1.423 -0.2193  0.1255 -0.0649
  937MOL0     C29214  11.101   2.759   0.948  0.0069 -0.4835  1.0306
  937MOL0     C29215  10.968   2.792   0.913 -0.5859 -0.3317 -0.2906
  937MOL0     O29216  10.636   2.571   0.978  0.6127  0.7615  0.6893
  937MOL0     C29217  10.383   2.633   0.883  0.2757  0.5974  0.0551
  937MOL0     C29218  10.262   2.637   0.812 -0.0648 -0.0383  0.6350
  937MOL0     N29219   9.765   2.460   0.142  0.3377  0.0437 -0.3278
  937MOL0     N29220   9.703   2.356   0.180  0.3081 -0.5069 -0.7532
  937MOL0     C29221   9.608   1.423   0.800  0.2957  0.3520  0.0641
  937MOL0     C29222   9.667   1.362   0.916 -1.0148  0.6748  0.9347
  937MOL0     C29223   9.934   1.278   1.271  0.1439  0.8480 -0.5462
  937MOL0     C29224   9.971   1.355   1.384  0.3736  0.8053  2.1857
  937MOL0     C29225  10.031   1.297   1.490 -0.3740  0.3757 -0.8303
  937MOL0     C29226  10.028   1.157   1.501  0.0109  0.5383  0.3106
  937MOL0     O29227  10.095   1.080   1.598  0.2646  0.3063 -0.1277
  937MOL0     C29228  10.185   1.144   1.691 -0.2852 -0.2134 -0.0276
  937MOL0     C29229  10.215   1.038   1.797  0.1552  0.5514  0.0994
  937MOL0     C29230  10.111   1.030   1.912 -0.6056 -0.4887  0.5481
  937MOL0     C29231  10.112   0.895   1.986  0.7484 -0.1676  0.0136
  937MOL0     C29232  10.059   0.794   1.901 -0.6152  0.0048 -0.7070
  937MOL0     C29233  10.024   0.713   1.817  0.4368  0.3490  0.0284
  937MOL0     C29234  10.002   1.077   1.390  0.1391 -0.1853 -0.2233
  937MOL0     C29235   9.950   1.133   1.280  0.6696 -0.3749  0.1628
  937MOL0     C29236   9.880   1.041   1.176  0.4477 -0.3192  0.0080
  937MOL0     H29237   9.992   1.453   0.837  0.0418  1.7148 -0.4523
  937MOL0     H29238   9.894   1.552   0.673  0.4917 -1.3948 -1.7311
  937MOL0     H29239   9.423   1.532   0.575  0.7419  0.4058 -0.8126
  937MOL0     H29240   9.516   1.382   0.540 -1.1697  0.2720  2.3792
  937MOL0     H29241   9.599   1.480   0.328  0.7010  0.5266 -0.6791
  937MOL0     H29242   9.428   1.512   0.325  0.3806  2.0171 -1.8610
  937MOL0     H29243   9.641   1.696   0.384  0.5649 -1.8204 -0.7254
  937MOL0     H29244   9.547   1.686   0.238  1.9338 -0.6550  0.3110
  937MOL0     H29245   9.343   1.753   0.415 -1.1620  3.2260 -2.2450
  937MOL0     H29246   9.474   1.777   0.525  1.5062  0.6625  0.3440
  937MOL0     H29247   9.377   1.984   0.401 -0.5649 -1.6469  1.1929
  937MOL0     H29248   9.435   1.911   0.249 -1.7265  0.6344 -0.1617
  937MOL0     H29249   9.629   1.960   0.473  0.2213  0.7184  0.5051
  937MOL0     H29250   9.653   1.919   0.302 -1.3424  0.8522 -1.3241
  937MOL0     H29251   9.531   2.181   0.400  0.3696 -0.9743  2.9631
  937MOL0     H29252   9.566   2.138   0.237  3.0558  0.8865 -0.6986
  937MOL0     H29253   9.764   2.153   0.460  1.4250 -2.9846 -1.0865
  937MOL0     H29254   9.815   2.117   0.302  2.0508 -1.5160  2.4549
  937MOL0     H29255   9.914   2.379   0.412  0.3427 -3.5879 -1.8233
  937MOL0     H29256  10.005   2.611   0.101  2.0667  1.6470 -0.2314
  937MOL0     H29257  10.079   2.544   0.232 -0.5138 -0.8018 -2.4143
  937MOL0     H29258  10.028   2.809   0.239 -3.2149  4.2957  0.1833
  937MOL0     H29259   9.867   2.780   0.259  0.5314  1.7760 -2.0283
  937MOL0     H29260   9.967   2.832   0.463  0.2005  1.1782 -3.6168
  937MOL0     H29261   9.903   2.657   0.476 -0.1817 -0.9316 -1.2262
  937MOL0     H29262  10.172   2.590   0.457 -2.6234 -0.4807 -4.4643
  937MOL0     H29263  10.191   2.759   0.448  0.8509 -0.7962  1.0252
  937MOL0     H29264  10.366   2.837   0.559  0.7893 -2.0742 -0.9076
  937MOL0     H29265  10.641   2.927   0.743 -3.6512 -0.1239  0.4549
  937MOL0     H29266  10.557   2.954   0.602  2.8327  1.1858  0.1769
  937MOL0     H29267  10.678   2.820   0.603 -0.3420 -0.6197 -1.4842
  937MOL0     H29268  10.855   2.468   0.939  2.3465 -1.3332  1.9699
  937MOL0     H29269  11.055   2.432   1.029  0.2133 -0.4684 -0.8836
  937MOL0     H29270  11.334   2.766   1.104  1.2659 -0.0712 -1.0073
  937MOL0     H29271  11.266   2.628   1.204  0.5687  1.9124  0.9033
  937MOL0     H29272  11.519   2.618   1.031 -1.0207 -0.7767 -1.1488
  937MOL0     H29273  11.512   2.632   1.218 -0.8469 -0.2544  1.4186
  937MOL0     H29274  11.421   2.389   1.064  1.5840  0.6091 -2.5125
  937MOL0     H29275  11.391   2.430   1.231 -0.1232  3.9249  0.3671
  937MOL0     H29276  11.637   2.431   1.269 -1.2106 -3.9281  1.7693
  937MOL0     H29277  11.673   2.450   1.090  1.4547  1.4708  1.1005
  937MOL0     H29278  11.539   2.210   1.206 -0.8466 -1.7167 -3.3684
  937MOL0     H29279  11.642   2.218   1.062 -0.5285  0.9097 -0.2640
  937MOL0     H29280  11.775   2.106   1.223  1.7699 -0.3045  1.3146
  937MOL0     H29281  11.735   2.229   1.345  2.2856  1.1278  0.1392
  937MOL0     H29282  11.888   2.289   1.090  3.0612 -0.3951  0.1356
  937MOL0     H29283  11.974   2.209   1.226  0.2985 -0.2857 -1.0175
  937MOL0     H29284  11.843   2.472   1.253 -0.8907 -2.0860  0.4012
  937MOL0     H29285  12.013   2.461   1.207 -0.4246 -0.4034  0.2863
  937MOL0     H29286  11.176   2.836   0.960  0.5052 -1.0386  1.5541
  937MOL0     H29287  10.938   2.896   0.902 -0.5124 -0.1488  1.0227
  937MOL0     H29288  10.388   2.569   0.971 -2.5057 -2.3364 -1.6957
  937MOL0     H29289  10.171   2.585   0.839  0.5078 -1.9721 -0.9641
  937MOL0     H29290   9.499   1.424   0.799  0.2073  2.4634  2.0152
  937MOL0     H29291   9.601   1.311   0.985 -0.4367 -1.8727 -0.2599
  937MOL0     H29292   9.971   1.464   1.383  2.3167  0.9331 -1.5008
  937MOL0     H29293  10.073   1.354   1.572 -2.7234 -1.4279  1.8235
  937MOL0     H29294  10.278   1.172   1.640 -1.0332  1.9776 -0.2806
  937MOL0     H29295  10.153   1.238   1.737  1.2790 -0.4009  1.5951
  937MOL0     H29296  10.313   1.058   1.840  0.8268  0.4303 -1.3190
  937MOL0     H29297  10.205   0.948   1.735 -6.6224  3.2481 -3.8576
  937MOL0     H29298  10.150   1.108   1.979  1.9985 -0.5949 -0.7246
  937MOL0     H29299  10.007   1.058   1.893  0.5040  2.1090 -2.6484
  937MOL0     H29300  10.047   0.908   2.073 -0.6820 -0.0386 -1.0328
  937MOL0     H29301  10.211   0.862   2.018  0.9111 -0.2587 -0.5803
  937MOL0     H29302   9.993   0.644   1.740  1.5178 -2.2611  1.8097
  937MOL0     H29303  10.007   0.971   1.411  0.1636 -0.4724 -1.6193
  937MOL0     H29304   9.918   1.069   1.077  2.4225 -0.9804  0.5480
  937MOL0     H29305   9.889   0.939   1.214 -2.2082  0.3938  2.9841
  937MOL0     H29306   9.773   1.064   1.173  0.4186 -0.5400 -1.1377
  938MOL0     O29307   3.680   6.331   1.049  0.3240 -0.8805  0.0456
  938MOL0     C29308   3.693   6.373   0.930  0.5100 -0.0564  0.3429
  938MOL0     O29309   3.757   6.498   0.892  0.1354  0.4040 -0.4967
  938MOL0     C29310   3.860   6.539   0.975  0.6879 -0.3272 -0.1175
  938MOL0     C29311   3.876   6.671   0.994 -0.0118 -0.3223  0.1924
  938MOL0     C29312   4.006   6.712   1.045 -0.8106 -0.3260  0.2041
  938MOL0     C29313   4.088   6.615   1.110 -0.4887 -1.0483 -0.4652
  938MOL0     O29314   4.210   6.651   1.167 -0.3230 -0.8865  0.4443
  938MOL0     C29315   4.210   6.739   1.274 -0.3525 -0.6539  0.3742
  938MOL0     C29316   4.187   6.668   1.410 -0.0317  0.9984 -0.1656
  938MOL0     C29317   4.037   6.659   1.456  0.0633 -1.0459 -0.0090
  938MOL0     C29318   3.960   6.785   1.440  0.3563  0.7287  0.4154
  938MOL0     C29319   3.829   6.771   1.519 -0.5260 -0.7215 -1.0769
  938MOL0     C29320   3.750   6.641   1.492  0.2948 -0.6776  0.3813
  938MOL0     C29321   3.712   6.630   1.343 -0.0958  0.0776 -0.1075
  938MOL0     C29322   3.557   6.612   1.327 -0.0136  0.2081  0.3168
  938MOL0     N29323   3.495   6.485   1.377 -0.1421 -0.3794  0.1545
  938MOL0     C29324   3.539   6.364   1.358  0.9455  0.4376  0.1384
  938MOL0     C29325   3.443   6.271   1.389  0.6267  0.4204  0.1221
  938MOL0     C29326   3.454   6.126   1.384  0.5680 -0.0586 -0.4978
  938MOL0     C29327   3.399   6.042   1.503 -0.3161 -0.6613 -0.3504
  938MOL0     C29328   3.481   6.080   1.623 -0.0058 -0.0894  0.6560
  938MOL0     C29329   3.431   6.019   1.738  0.2295 -0.7588  0.1962
  938MOL0     O29330   3.457   5.881   1.752  0.2236 -0.4742 -0.3092
  938MOL0     C29331   3.401   5.813   1.868  0.2591 -0.6984 -0.0972
  938MOL0     C29332   3.406   5.676   1.869 -0.1391 -1.0181 -0.4963
  938MOL0     C29333   3.367   5.599   1.976  0.6052  0.7643  0.1129
  938MOL0     C29334   3.374   5.453   1.963  0.0498  0.9007 -0.3046
  938MOL0     C29335   3.302   5.665   2.078 -0.7918 -0.7091  0.0992
  938MOL0     C29336   3.248   5.595   2.198  0.2914  0.0294 -0.1455
  938MOL0     O29337   3.158   5.657   2.276 -0.4886 -0.7918 -0.5374
  938MOL0     C29338   3.062   5.589   2.356 -0.7809  0.1684  0.5157
  938MOL0     C29339   3.092   5.469   2.427 -0.5804  0.1694  0.3669
  938MOL0     C29340   2.987   5.400   2.497  0.3083 -0.2601  0.5383
  938MOL0     C29341   2.856   5.447   2.505  0.5084 -0.7822 -0.0498
  938MOL0     O29342   2.752   5.388   2.573 -1.0961 -0.2088 -0.3663
  938MOL0     C29343   2.789   5.291   2.668 -0.7741  0.1828  0.2302
  938MOL0     C29344   2.676   5.296   2.771  0.2134 -0.6307  0.3718
  938MOL0     C29345   2.718   5.224   2.900  0.0187  0.8783 -0.2510
  938MOL0     C29346   2.715   5.065   2.879  0.4598  0.6790  0.0327
  938MOL0     C29347   2.696   4.981   3.008  0.6889 -0.1371  0.3914
  938MOL0     C29348   2.824   4.969   3.086  0.8065  1.0096  0.5639
  938MOL0     C29349   2.801   4.895   3.222  0.0561  0.6370  0.7582
  938MOL0     C29350   2.938   4.863   3.280 -0.5345 -0.4941  0.8207
  938MOL0    Cl29351   3.021   4.754   3.164  0.0003  0.0662  0.0569
  938MOL0     C29352   2.836   5.564   2.441  0.6509 -0.5637 -0.8373
  938MOL0     C29353   2.932   5.638   2.369  0.1534  0.4727 -0.0254
  938MOL0     O29354   3.293   5.484   2.224 -0.7757  0.5351 -0.1454
  938MOL0     C29355   3.302   5.807   2.084 -0.0354  0.0725 -0.3890
  938MOL0     C29356   3.352   5.886   1.976  0.2612  1.0078 -0.4936
  938MOL0     N29357   3.339   6.345   1.439 -0.3508  0.8640  0.0414
  938MOL0     N29358   3.378   6.466   1.440  0.4455  0.4635  0.2215
  938MOL0     C29359   4.070   6.488   1.083 -0.2561 -0.0942  0.3952
  938MOL0     C29360   3.959   6.446   1.011  0.4090 -0.0849 -0.2201
  938MOL0     C29361   3.629   6.295   0.806 -0.8379  0.6738 -1.0590
  938MOL0     C29362   3.679   6.320   0.678 -0.5402  1.0484  0.3890
  938MOL0     C29363   3.648   6.245   0.571 -0.0647  0.6001  0.2499
  938MOL0     C29364   3.579   6.119   0.583  0.2746  0.5621  0.3242
  938MOL0     O29365   3.573   6.034   0.477 -0.2594 -0.3296  0.9439
  938MOL0     C29366   3.595   6.080   0.338  0.4600  0.3752 -0.4279
  938MOL0     C29367   3.487   6.048   0.240 -0.1137 -0.7025 -0.0566
  938MOL0     C29368   3.391   6.172   0.217 -0.1337  0.3442 -0.1125
  938MOL0     C29369   3.255   6.123   0.159 -0.1957  0.5291 -0.7487
  938MOL0     C29370   3.162   6.236   0.152  0.1784 -0.0029 -0.1752
  938MOL0     C29371   3.093   6.331   0.140  0.4723  0.1216 -0.1297
  938MOL0     C29372   3.534   6.092   0.713 -0.1467  0.0962 -0.3738
  938MOL0     C29373   3.547   6.182   0.820 -0.9677 -0.2330 -0.0889
  938MOL0     C29374   3.506   6.132   0.966 -0.0454 -0.3029 -0.0622
  938MOL0     H29375   3.797   6.741   0.971 -1.6139 -2.2706 -0.5658
  938MOL0     H29376   4.037   6.816   1.048  2.0238 -1.0169 -1.9157
  938MOL0     H29377   4.133   6.817   1.275  0.2668 -0.0152 -0.7469
  938MOL0     H29378   4.308   6.786   1.266  0.3760 -2.1057  0.3417
  938MOL0     H29379   4.232   6.569   1.402 -0.0833  0.9951 -0.4357
  938MOL0     H29380   4.235   6.719   1.494  0.6357  3.7179 -2.0605
  938MOL0     H29381   3.983   6.573   1.414 -2.7588  0.4960  0.2209
  938MOL0     H29382   4.053   6.635   1.561  0.0155 -0.4370  0.1397
  938MOL0     H29383   4.016   6.870   1.480  4.1130 -1.9968  1.5813
  938MOL0     H29384   3.943   6.799   1.333 -0.4109 -1.3427  0.2144
  938MOL0     H29385   3.776   6.857   1.479 -0.4985  0.3534  1.0583
  938MOL0     H29386   3.841   6.782   1.627 -3.0257 -0.5236 -0.7691
  938MOL0     H29387   3.805   6.548   1.509  1.0678 -0.7837 -2.2882
  938MOL0     H29388   3.662   6.657   1.555 -0.1540  2.8704 -0.9283
  938MOL0     H29389   3.760   6.540   1.304 -2.2898 -0.8935 -0.7227
  938MOL0     H29390   3.749   6.710   1.280  1.8565 -0.2158  0.5989
  938MOL0     H29391   3.507   6.702   1.363  2.8197  2.3480 -0.6692
  938MOL0     H29392   3.526   6.617   1.222  1.4887  0.0764 -0.1577
  938MOL0     H29393   3.631   6.344   1.303  0.3517  3.4757 -2.2014
  938MOL0     H29394   3.561   6.110   1.366  0.4461 -0.6305 -0.7574
  938MOL0     H29395   3.396   6.100   1.294 -1.0453 -1.9379  0.9998
  938MOL0     H29396   3.294   6.063   1.525  0.1974 -0.6852  2.5854
  938MOL0     H29397   3.408   5.933   1.496  0.4389 -0.5003 -2.4811
  938MOL0     H29398   3.583   6.047   1.602 -0.2848  0.0770 -1.1672
  938MOL0     H29399   3.480   6.188   1.641 -0.9728 -0.1724  1.2114
  938MOL0     H29400   3.483   6.067   1.821 -1.4264 -0.8037  1.3117
  938MOL0     H29401   3.323   6.036   1.745 -0.1448 -2.4436 -0.8540
  938MOL0     H29402   3.462   5.625   1.792  0.4226  0.3261 -1.0063
  938MOL0     H29403   3.405   5.411   1.868 -1.1705 -0.9207  0.0443
  938MOL0     H29404   3.270   5.421   1.978 -0.0355  1.0119 -0.6660
  938MOL0     H29405   3.445   5.412   2.036 -0.5928  1.9659  0.9690
  938MOL0     H29406   3.190   5.422   2.426  0.1622  1.6608 -0.4675
  938MOL0     H29407   2.997   5.304   2.546 -2.5988  0.1736  2.2095
  938MOL0     H29408   2.808   5.196   2.617  2.5881  0.3122  0.9875
  938MOL0     H29409   2.880   5.328   2.717 -0.2519  1.5854 -1.7061
  938MOL0     H29410   2.651   5.398   2.799 -0.2461 -1.3056  2.5997
  938MOL0     H29411   2.579   5.254   2.741  0.3837 -1.1857  0.5779
  938MOL0     H29412   2.641   5.247   2.974  0.7480  0.5278  0.6339
  938MOL0     H29413   2.814   5.263   2.935  0.5067  0.6113 -1.2526
  938MOL0     H29414   2.799   5.038   2.813  1.5405 -0.1226  1.6671
  938MOL0     H29415   2.626   5.041   2.819  2.2249 -2.7617 -1.5211
  938MOL0     H29416   2.612   5.020   3.066 -1.2405 -1.1682 -1.5537
  938MOL0     H29417   2.665   4.882   2.973 -0.8039 -0.4754  2.4825
  938MOL0     H29418   2.860   5.069   3.113 -0.0529  1.5295 -0.1841
  938MOL0     H29419   2.888   4.916   3.015 -2.2269  0.1310 -1.7282
  938MOL0     H29420   2.755   4.796   3.213 -0.1252  0.8712 -1.2676
  938MOL0     H29421   2.743   4.947   3.299  0.0465 -1.6215  2.3793
  938MOL0     H29422   2.939   4.812   3.377 -1.6739  0.1677  1.2007
  938MOL0     H29423   2.993   4.957   3.294 -0.3276 -0.2751 -1.1909
  938MOL0     H29424   2.739   5.611   2.448  0.6131 -0.8013  0.7864
  938MOL0     H29425   2.918   5.733   2.320  0.1664  2.7557  3.9682
  938MOL0     H29426   3.248   5.874   2.150 -0.1763  2.3913 -2.7087
  938MOL0     H29427   3.349   5.995   1.979 -0.6392  0.9866 -0.5132
  938MOL0     H29428   4.139   6.403   1.087  0.6624  0.5457 -1.0132
  938MOL0     H29429   3.960   6.346   0.968  0.1618 -0.0033 -0.4137
  938MOL0     H29430   3.753   6.398   0.667  1.5057 -0.2557  3.6344
  938MOL0     H29431   3.701   6.269   0.479 -0.2553  1.0589  0.2581
  938MOL0     H29432   3.633   6.180   0.317  1.4377 -0.0366 -0.6774
  938MOL0     H29433   3.684   6.024   0.306  1.1332  1.0061  0.3007
  938MOL0     H29434   3.426   5.961   0.265  0.0911 -1.2916 -1.4911
  938MOL0     H29435   3.546   6.019   0.153  1.6834 -2.6368  1.7134
  938MOL0     H29436   3.370   6.220   0.313 -0.2217  2.5120 -1.1549
  938MOL0     H29437   3.443   6.252   0.163  3.0186 -0.8558  0.9362
  938MOL0     H29438   3.203   6.050   0.221 -0.1727  2.9020  2.3047
  938MOL0     H29439   3.263   6.081   0.058 -1.2372  2.5639 -1.7521
  938MOL0     H29440   3.034   6.419   0.161 -0.3861 -0.7234  1.1848
  938MOL0     H29441   3.479   6.002   0.740  0.9405 -0.7478 -0.9075
  938MOL0     H29442   3.463   6.208   1.033  0.5739 -0.1501  0.1640
  938MOL0     H29443   3.423   6.062   0.950 -0.1347  0.2970 -2.7136
  938MOL0     H29444   3.597   6.103   1.018  0.4878  3.4898  1.4893
  939MOL0     O29445   0.981  11.009   9.002 -0.4014  0.3007  0.2310
  939MOL0     C29446   0.876  11.042   9.056  0.6577 -0.6874 -0.4149
  939MOL0     O29447   0.756  10.971   9.050 -0.2338  0.4404  0.3935
  939MOL0     C29448   0.740  10.840   9.024 -0.4653  0.2229  0.6748
  939MOL0     C29449   0.844  10.746   9.009 -0.2745 -0.0004  0.2452
  939MOL0     C29450   0.815  10.610   8.993  0.3655 -0.6837 -0.8294
  939MOL0     C29451   0.683  10.564   8.982  0.8876 -0.1538  0.6865
  939MOL0     O29452   0.665  10.427   8.958 -0.1906 -0.6954 -0.9994
  939MOL0     C29453   0.557  10.392   8.876 -0.4569  0.4261  0.0362
  939MOL0     C29454   0.582  10.256   8.812  0.6535 -0.5865 -0.0489
  939MOL0     C29455   0.584  10.148   8.918  0.6524 -0.2269 -0.0846
  939MOL0     C29456   0.550  10.017   8.852 -0.4030 -0.9409 -0.6915
  939MOL0     C29457   0.569   9.898   8.949 -0.8180 -0.6261  0.3825
  939MOL0     C29458   0.715   9.888   8.993  0.4052  0.0710 -0.4814
  939MOL0     C29459   0.822   9.909   8.890 -0.5491 -0.3598 -0.1909
  939MOL0     C29460   0.950   9.843   8.951 -0.8929 -1.4343  0.3969
  939MOL0     N29461   1.056   9.848   8.844 -0.9418 -0.1132  0.0319
  939MOL0     C29462   1.041   9.802   8.718 -0.1125 -0.2028  0.4290
  939MOL0     C29463   1.131   9.861   8.635  0.6581  0.8871 -0.0615
  939MOL0     C29464   1.132   9.865   8.484  1.2631  0.1332  0.4205
  939MOL0     C29465   1.023   9.962   8.441  0.2412  0.8039 -0.5490
  939MOL0     C29466   1.061  10.110   8.471  0.1502  0.1569 -0.0071
  939MOL0     C29467   0.971  10.210   8.400  0.3662  0.6194 -0.2726
  939MOL0     O29468   0.830  10.178   8.428  0.1648  0.0727 -1.2479
  939MOL0     C29469   0.736  10.260   8.363 -0.0521 -0.0314 -0.6281
  939MOL0     C29470   0.757  10.322   8.237 -0.2018  0.2051 -0.5365
  939MOL0     C29471   0.656  10.402   8.167 -0.4221 -0.0516 -0.0531
  939MOL0     C29472   0.690  10.447   8.025 -0.7949  0.9909  0.3702
  939MOL0     C29473   0.535  10.430   8.240 -0.5733  0.0487 -0.0089
  939MOL0     C29474   0.428  10.525   8.190  0.4945  0.7422 -0.3098
  939MOL0     O29475   0.327  10.560   8.285 -0.3233  0.0662 -0.1870
  939MOL0     C29476   0.237  10.663   8.268 -1.1812 -0.1753  0.0969
  939MOL0     C29477   0.119  10.660   8.348 -0.8855  0.4010 -0.0843
  939MOL0     C29478   0.027  10.764   8.342  0.7210 -0.2121 -0.1595
  939MOL0     C29479   0.043  10.870   8.241  0.1754 -0.5345  0.6340
  939MOL0     O29480  -0.042  10.976   8.222  0.0327  0.7509  0.2212
  939MOL0     C29481  -0.111  11.009   8.341 -0.2006 -0.1390  0.0868
  939MOL0     C29482  -0.166  11.152   8.333 -0.3642 -1.0301 -0.2355
  939MOL0     C29483  -0.292  11.159   8.242  0.4770 -0.4012  0.1765
  939MOL0     C29484  -0.420  11.150   8.325  0.2321  0.5458  0.1517
  939MOL0     C29485  -0.546  11.143   8.234 -0.8845  0.6198 -0.5140
  939MOL0     C29486  -0.564  10.997   8.186 -0.8356 -0.7464  0.6920
  939MOL0     C29487  -0.675  11.006   8.076  0.2546 -0.0186  0.4379
  939MOL0     C29488  -0.690  10.875   8.001  0.1599 -0.8109 -0.3869
  939MOL0    Cl29489  -0.759  10.760   8.116  0.4495 -0.1865  0.0145
  939MOL0     C29490   0.161  10.881   8.172 -0.5740 -0.3707  0.1589
  939MOL0     C29491   0.260  10.781   8.193 -0.5020 -0.1392  0.0330
  939MOL0     O29492   0.441  10.575   8.081 -0.2668  0.6891  0.4629
  939MOL0     C29493   0.516  10.371   8.366  0.2822 -0.3137 -0.5813
  939MOL0     C29494   0.615  10.288   8.427 -0.2822  0.5456  0.5360
  939MOL0     N29495   1.205   9.940   8.715  0.1712 -0.9003  0.0443
  939MOL0     N29496   1.166   9.932   8.839 -0.2417 -0.9804  1.0532
  939MOL0     C29497   0.576  10.656   8.993 -1.0032  0.3177  0.2947
  939MOL0     C29498   0.604  10.793   9.014 -0.5550  0.6557  0.5334
  939MOL0     C29499   0.860  11.184   9.128  0.3668  0.0962 -0.4435
  939MOL0     C29500   0.742  11.200   9.198 -0.4244  1.1407 -0.4071
  939MOL0     C29501   0.712  11.310   9.277 -0.1005 -0.1463  0.2518
  939MOL0     C29502   0.809  11.413   9.270  0.2044 -0.2627  0.1787
  939MOL0     O29503   0.791  11.547   9.300 -0.2719 -0.0259 -0.3752
  939MOL0     C29504   0.790  11.565   9.444 -0.0636  0.1468  0.0838
  939MOL0     C29505   0.657  11.625   9.475  0.2794  0.5701 -0.0405
  939MOL0     C29506   0.643  11.771   9.428  0.2959  0.7458  0.6399
  939MOL0     C29507   0.721  11.872   9.529 -0.3717  0.1838 -0.9644
  939MOL0     C29508   0.638  11.880   9.653 -0.9495  0.0674 -0.0010
  939MOL0     C29509   0.571  11.889   9.762  1.1423  0.4498  0.6211
  939MOL0     C29510   0.936  11.398   9.212  0.2203 -0.2762  1.1769
  939MOL0     C29511   0.967  11.280   9.141 -0.1335 -0.3921 -0.4606
  939MOL0     C29512   1.101  11.276   9.071  0.4245  0.2718 -0.2614
  939MOL0     H29513   0.946  10.783   9.016 -1.3590  3.3778 -0.1384
  939MOL0     H29514   0.897  10.542   8.974 -0.7170 -1.8249 -1.6204
  939MOL0     H29515   0.558  10.452   8.785  2.2086  1.3200  0.5434
  939MOL0     H29516   0.458  10.391   8.922 -0.9317  0.0088 -0.9920
  939MOL0     H29517   0.515  10.240   8.727 -0.8383  2.7000  0.3859
  939MOL0     H29518   0.682  10.241   8.769  1.6412  0.0112  1.9204
  939MOL0     H29519   0.688  10.145   8.952  1.1801  4.2142 -0.7205
  939MOL0     H29520   0.512  10.170   8.997  0.0936  1.6911 -1.0743
  939MOL0     H29521   0.457  10.020   8.794 -0.8691  0.6224  0.0715
  939MOL0     H29522   0.622  10.001   8.771  0.4550 -1.7369  0.2031
  939MOL0     H29523   0.539   9.811   8.891 -0.9784 -0.9464  0.9382
  939MOL0     H29524   0.504   9.893   9.037 -1.1954  0.7755  0.2092
  939MOL0     H29525   0.746   9.965   9.064  1.6609  0.7318 -1.6875
  939MOL0     H29526   0.727   9.793   9.046  0.4092 -0.0983 -0.7798
  939MOL0     H29527   0.853  10.012   8.871 -2.2663  0.1555 -0.3265
  939MOL0     H29528   0.792   9.858   8.798  2.1079  0.1187 -1.4106
  939MOL0     H29529   0.970   9.907   9.036 -0.4634  0.9921 -1.4246
  939MOL0     H29530   0.926   9.738   8.972 -3.0566 -0.8133  1.1927
  939MOL0     H29531   0.971   9.741   8.662  2.6850 -1.6202 -1.8030
  939MOL0     H29532   1.110   9.768   8.438 -0.6245  1.0726 -0.7916
  939MOL0     H29533   1.231   9.894   8.447  1.5121 -1.6274 -0.4018
  939MOL0     H29534   1.017   9.961   8.332 -0.8908  3.5362 -0.5772
  939MOL0     H29535   0.934   9.933   8.498 -0.4653  5.0820  0.9252
  939MOL0     H29536   1.040  10.125   8.577 -0.0172 -0.9690  0.1341
  939MOL0     H29537   1.165  10.129   8.440  0.5684 -1.8173  0.0639
  939MOL0     H29538   0.997  10.315   8.414 -0.1953  0.6370  0.7365
  939MOL0     H29539   0.999  10.183   8.297 -0.0402  1.9542 -0.7577
  939MOL0     H29540   0.852  10.315   8.186  1.5693 -3.0119  2.6953
  939MOL0     H29541   0.603  10.440   7.959 -1.1272 -4.4817  0.9096
  939MOL0     H29542   0.770  10.377   8.000  1.9117  2.4595  3.9309
  939MOL0     H29543   0.729  10.548   8.010  0.8777  0.3907  0.4458
  939MOL0     H29544   0.110  10.582   8.423  0.2353 -2.4313 -2.6775
  939MOL0     H29545  -0.065  10.763   8.400  0.9022 -2.5298  0.1730
  939MOL0     H29546  -0.190  10.938   8.368  0.2929 -1.7033 -2.2454
  939MOL0     H29547  -0.035  11.004   8.419  0.2355  0.7483 -0.2713
  939MOL0     H29548  -0.185  11.182   8.436  0.7717 -0.6534 -0.1235
  939MOL0     H29549  -0.087  11.218   8.296  1.5827 -2.8947  0.3807
  939MOL0     H29550  -0.294  11.085   8.161 -1.7200  0.5058 -0.6710
  939MOL0     H29551  -0.309  11.254   8.192 -2.0238 -0.1081  1.3999
  939MOL0     H29552  -0.428  11.238   8.389 -1.1729 -0.6022  1.6424
  939MOL0     H29553  -0.432  11.057   8.381 -3.9740  1.1167  0.5304
  939MOL0     H29554  -0.630  11.182   8.292  0.2628  0.9808  0.9420
  939MOL0     H29555  -0.524  11.212   8.152  2.5071  1.7609  1.1798
  939MOL0     H29556  -0.601  10.929   8.264  0.0544  0.0108  1.8057
  939MOL0     H29557  -0.472  10.952   8.149 -1.8141 -2.5324  0.3168
  939MOL0     H29558  -0.649  11.076   7.996  0.5177 -1.9618 -1.2317
  939MOL0     H29559  -0.767  11.044   8.123 -3.6486 -1.7457 -4.8394
  939MOL0     H29560  -0.601  10.831   7.956  0.6488  0.3080 -0.5582
  939MOL0     H29561  -0.761  10.885   7.918 -0.9813  1.3674  0.7464
  939MOL0     H29562   0.190  10.967   8.112  2.9943 -1.5397 -0.0349
  939MOL0     H29563   0.351  10.796   8.137 -1.6101 -1.4571 -2.2664
  939MOL0     H29564   0.429  10.380   8.430 -0.0976  1.8674 -1.3390
  939MOL0     H29565   0.580  10.244   8.519 -2.2034 -0.5255 -0.6326
  939MOL0     H29566   0.477  10.611   8.984 -0.6815 -0.3654  0.1039
  939MOL0     H29567   0.515  10.852   9.031  0.7718  2.6571  0.8285
  939MOL0     H29568   0.669  11.120   9.198  1.6760 -0.9319  0.7010
  939MOL0     H29569   0.620  11.329   9.332  1.2749  0.4947  2.5023
  939MOL0     H29570   0.800  11.470   9.498  3.8773 -0.6861 -1.7826
  939MOL0     H29571   0.871  11.632   9.472 -0.2299  0.5168 -0.3065
  939MOL0     H29572   0.640  11.609   9.582 -0.9846  0.7328 -0.1971
  939MOL0     H29573   0.579  11.564   9.430  0.0192  1.7186 -1.2082
  939MOL0     H29574   0.684  11.765   9.326 -1.5120  1.0356 -0.1313
  939MOL0     H29575   0.543  11.812   9.418  1.5959  3.9724 -0.2777
  939MOL0     H29576   0.748  11.967   9.481  2.8003 -0.0074  0.1702
  939MOL0     H29577   0.822  11.834   9.548 -0.9031 -0.5978  0.4520
  939MOL0     H29578   0.512  11.892   9.851 -0.3499  1.2786 -0.3501
  939MOL0     H29579   1.001  11.485   9.211 -0.0182  0.0789 -3.2698
  939MOL0     H29580   1.088  11.305   8.966  2.7656  0.6786 -0.4922
  939MOL0     H29581   1.155  11.358   9.120 -1.1143  1.2008 -0.0340
  939MOL0     H29582   1.159  11.184   9.061 -0.1107 -0.6638  3.6735
  940MOL0     O29583  11.005   3.030   3.230  0.7379  0.7500  0.0068
  940MOL0     C29584  11.026   2.990   3.113 -0.1956 -0.4296 -0.8540
  940MOL0     O29585  10.985   3.048   3.000  0.9481  0.4541  0.1155
  940MOL0     C29586  10.875   3.139   3.005 -0.8430  0.5621 -0.1137
  940MOL0     C29587  10.899   3.275   2.975 -0.2078  0.7843  0.9904
  940MOL0     C29588  10.802   3.376   2.986  0.2878  0.6112  0.1356
  940MOL0     C29589  10.674   3.347   3.026 -0.3140  0.6323 -0.0084
  940MOL0     O29590  10.595   3.463   3.046  0.1501  0.7660  0.2864
  940MOL0     C29591  10.453   3.444   3.058  0.9085  0.5092  0.1981
  940MOL0     C29592  10.380   3.571   3.029  0.9787  0.1294  0.6027
  940MOL0     C29593  10.407   3.603   2.877  0.3919 -0.3297  0.0746
  940MOL0     C29594  10.296   3.699   2.826 -0.0598 -0.0694  0.3129
  940MOL0     C29595  10.302   3.709   2.676  0.5299 -0.3886  0.0811
  940MOL0     C29596  10.183   3.639   2.601 -0.1954 -0.4860  0.0905
  940MOL0     C29597  10.163   3.494   2.617  0.0200 -0.2273  0.5393
  940MOL0     C29598  10.280   3.420   2.537  0.5770 -0.3439 -0.3913
  940MOL0     N29599  10.295   3.281   2.576  1.0177 -0.0753 -0.3499
  940MOL0     C29600  10.401   3.224   2.641  0.0893 -0.6276 -0.5569
  940MOL0     C29601  10.368   3.102   2.673 -0.0132 -0.1757  0.1150
  940MOL0     C29602  10.445   3.003   2.745  0.5387  0.5277 -0.2524
  940MOL0     C29603  10.585   2.989   2.683  0.0014 -0.7345 -0.9513
  940MOL0     C29604  10.654   2.868   2.729  1.1342  0.9668 -0.5052
  940MOL0     C29605  10.804   2.884   2.706 -0.2779  0.6840  0.2144
  940MOL0     O29606  10.861   2.751   2.686 -0.6212  1.2252 -0.2072
  940MOL0     C29607  10.886   2.671   2.796  0.6280  0.0396 -0.4109
  940MOL0     C29608  10.854   2.694   2.933  0.0411  1.0456 -0.2984
  940MOL0     C29609  10.854   2.594   3.032  0.2840  0.6658  0.0040
  940MOL0     C29610  10.797   2.623   3.171  0.9610  0.3282  0.1086
  940MOL0     C29611  10.898   2.461   2.996  0.2223  0.7854  0.8243
  940MOL0     C29612  10.897   2.352   3.092 -0.5692  0.1465  1.1516
  940MOL0     O29613  10.900   2.227   3.047  0.4388 -0.0619 -0.4464
  940MOL0     C29614  10.867   2.126   3.132  0.0852  0.3860 -0.6712
  940MOL0     C29615  10.749   2.141   3.218  0.5982  0.5848  1.4452
  940MOL0     C29616  10.712   2.028   3.300 -0.2423  0.6215  0.5876
  940MOL0     C29617  10.778   1.907   3.295 -0.6878  0.5230  0.6562
  940MOL0     O29618  10.730   1.793   3.372 -1.1530 -0.3182 -0.1092
  940MOL0     C29619  10.787   1.663   3.329 -0.4050 -0.5942  0.1864
  940MOL0     C29620  10.912   1.632   3.395 -1.1570 -1.0409  0.2256
  940MOL0     C29621  10.962   1.483   3.351  0.0674  0.1730 -0.9501
  940MOL0     C29622  11.092   1.449   3.422 -0.4918  0.1035  0.3696
  940MOL0     C29623  11.139   1.295   3.382  0.6047 -0.3444 -0.2598
  940MOL0     C29624  11.282   1.241   3.408 -0.8824  0.8178 -0.2656
  940MOL0     C29625  11.382   1.353   3.365 -0.4845  0.3430  0.8090
  940MOL0     C29626  11.531   1.312   3.361 -0.5197  0.2526  0.0856
  940MOL0    Cl29627  11.553   1.196   3.233 -0.1271  0.4269  0.1085
  940MOL0     C29628  10.891   1.899   3.205 -0.4729 -0.1496 -0.2899
  940MOL0     C29629  10.936   2.007   3.123  0.3093 -0.7013 -0.1254
  940MOL0     O29630  10.921   2.385   3.202 -0.3271 -0.0694  0.6109
  940MOL0     C29631  10.951   2.440   2.871 -0.0730  0.0973 -0.0324
  940MOL0     C29632  10.936   2.539   2.776  0.8252 -0.1842  0.6821
  940MOL0     N29633  10.230   3.100   2.661  0.4782 -0.0071 -0.0944
  940MOL0     N29634  10.182   3.201   2.593 -0.7271 -0.1011 -0.3573
  940MOL0     C29635  10.649   3.221   3.074  0.3867 -0.3268  0.1915
  940MOL0     C29636  10.749   3.122   3.063 -0.8269  0.8234  0.9857
  940MOL0     C29637  11.111   2.862   3.101 -0.0692  0.3925  0.4648
  940MOL0     C29638  11.155   2.826   2.965  0.3589  0.0295 -0.5178
  940MOL0     C29639  11.230   2.711   2.941 -0.7546 -0.9249 -0.4922
  940MOL0     C29640  11.269   2.634   3.048 -0.6796  0.5038  0.2284
  940MOL0     O29641  11.354   2.533   3.012  0.4860 -1.0927 -0.4094
  940MOL0     C29642  11.311   2.407   3.079  0.1918  0.9274 -0.3099
  940MOL0     C29643  11.322   2.302   2.977  0.7322  0.4576  0.6425
  940MOL0     C29644  11.295   2.163   3.036 -0.6813  0.7032 -0.0527
  940MOL0     C29645  11.281   2.055   2.925  0.4555 -0.0244  0.1452
  940MOL0     C29646  11.277   1.919   2.969  0.3070 -0.5434  0.8020
  940MOL0     C29647  11.257   1.799   2.992 -0.0244 -0.5975 -0.0481
  940MOL0     C29648  11.233   2.663   3.171 -0.2290  0.0090  0.5640
  940MOL0     C29649  11.157   2.777   3.208 -0.9666  0.9084  0.5780
  940MOL0     C29650  11.127   2.791   3.353 -0.0149 -0.1184 -0.0434
  940MOL0     H29651  11.001   3.307   2.959  0.5458 -0.3236  3.2521
  940MOL0     H29652  10.827   3.481   2.976  0.4365  0.3198 -4.4315
  940MOL0     H29653  10.438   3.429   3.166 -0.8133 -0.1603 -0.0945
  940MOL0     H29654  10.414   3.361   3.000 -1.5673  0.2263  2.0745
  940MOL0     H29655  10.276   3.563   3.064  0.7138  1.8586  0.2756
  940MOL0     H29656  10.421   3.644   3.099 -1.4545 -0.1037  2.4103
  940MOL0     H29657  10.506   3.648   2.868 -0.3108  1.0027 -1.5089
  940MOL0     H29658  10.400   3.517   2.810 -1.0414  1.5446 -2.3709
  940MOL0     H29659  10.196   3.669   2.859  0.3760 -0.7171  1.0858
  940MOL0     H29660  10.309   3.803   2.859  0.1144 -0.3150  1.0449
  940MOL0     H29661  10.395   3.671   2.634  0.8772  1.7925 -1.2952
  940MOL0     H29662  10.291   3.814   2.647 -0.5917  0.1655  2.2368
  940MOL0     H29663  10.094   3.699   2.624 -1.7941 -1.7908 -2.1592
  940MOL0     H29664  10.200   3.659   2.495  0.3929 -0.8708  0.1084
  940MOL0     H29665  10.067   3.462   2.574  0.3484  0.5044 -0.7817
  940MOL0     H29666  10.145   3.453   2.717 -1.6589 -0.3225  0.2197
  940MOL0     H29667  10.257   3.430   2.430  1.0527  3.3354 -0.3052
  940MOL0     H29668  10.377   3.470   2.548 -0.6453  2.6826 -1.9633
  940MOL0     H29669  10.496   3.275   2.652 -1.3940  1.8938  2.0313
  940MOL0     H29670  10.403   2.903   2.728  0.6044  0.6552 -1.2263
  940MOL0     H29671  10.456   3.029   2.851  0.3045  0.9166 -0.3203
  940MOL0     H29672  10.584   2.986   2.574 -2.8660  0.9198 -1.0856
  940MOL0     H29673  10.635   3.075   2.729 -0.1649 -0.7053 -0.8215
  940MOL0     H29674  10.633   2.846   2.834 -0.5827  1.3274 -0.7563
  940MOL0     H29675  10.614   2.787   2.668  0.3060 -0.9494  2.3723
  940MOL0     H29676  10.814   2.944   2.615 -1.8047  0.1384 -0.3475
  940MOL0     H29677  10.861   2.936   2.783 -1.3316  2.2019  0.0206
  940MOL0     H29678  10.809   2.790   2.954 -0.9478  0.8167 -1.2305
  940MOL0     H29679  10.758   2.725   3.173 -1.8987 -0.6393 -1.0867
  940MOL0     H29680  10.868   2.610   3.254 -1.3883 -2.7549  1.8457
  940MOL0     H29681  10.721   2.546   3.190  1.3746 -1.5709 -4.6317
  940MOL0     H29682  10.684   2.227   3.231 -1.6207 -0.7924  0.0698
  940MOL0     H29683  10.615   2.019   3.347 -1.3401 -2.8531 -1.9858
  940MOL0     H29684  10.717   1.586   3.361  0.8541 -1.6906  0.3702
  940MOL0     H29685  10.802   1.646   3.222  1.8859 -1.8428  0.6443
  940MOL0     H29686  10.991   1.702   3.366 -0.0952 -2.5314 -0.6179
  940MOL0     H29687  10.900   1.642   3.504  1.2001  1.7014  0.3323
  940MOL0     H29688  10.997   1.482   3.247 -1.8550  0.4784 -1.6356
  940MOL0     H29689  10.889   1.404   3.370  0.7701 -0.1496  0.5719
  940MOL0     H29690  11.072   1.461   3.528  0.8207  0.6897  0.5669
  940MOL0     H29691  11.167   1.522   3.393  2.4724 -1.8928  2.3824
  940MOL0     H29692  11.072   1.225   3.433 -0.3187  0.2110 -0.6937
  940MOL0     H29693  11.132   1.282   3.274 -2.0557 -0.7595 -0.1055
  940MOL0     H29694  11.298   1.150   3.350  1.0672 -0.6933  2.3747
  940MOL0     H29695  11.321   1.223   3.509 -1.6850  4.8412  0.9570
  940MOL0     H29696  11.387   1.434   3.439  1.2970  2.0030 -1.0231
  940MOL0     H29697  11.360   1.385   3.263  2.0443 -6.3790 -2.4574
  940MOL0     H29698  11.550   1.265   3.459  0.1318  3.4655  1.6251
  940MOL0     H29699  11.598   1.398   3.353  0.6214 -0.3226  2.3981
  940MOL0     H29700  10.952   1.811   3.185  2.1604  1.7525 -1.1806
  940MOL0     H29701  11.009   1.994   3.044 -2.7465  3.0953 -4.0984
  940MOL0     H29702  10.976   2.337   2.846 -2.8751 -0.6724 -0.0328
  940MOL0     H29703  10.968   2.517   2.675 -1.9348 -1.1826 -0.0619
  940MOL0     H29704  10.555   3.178   3.107 -2.4505  2.1574 -3.8497
  940MOL0     H29705  10.725   3.021   3.093  0.3649  0.0607 -0.4686
  940MOL0     H29706  11.124   2.879   2.875 -0.0756  3.7918  1.6139
  940MOL0     H29707  11.255   2.684   2.839  2.0216 -1.1314  0.1784
  940MOL0     H29708  11.380   2.387   3.161 -1.3438  1.7314  1.2437
  940MOL0     H29709  11.207   2.407   3.112  0.0426 -0.7653 -0.6653
  940MOL0     H29710  11.428   2.306   2.952  0.9514 -0.5348  1.3267
  940MOL0     H29711  11.254   2.325   2.894 -0.3149  0.7058  1.5437
  940MOL0     H29712  11.386   2.145   3.094  2.3407  0.0277 -4.4649
  940MOL0     H29713  11.215   2.164   3.110  0.4815  0.3610  1.2620
  940MOL0     H29714  11.375   2.070   2.870  1.4786  2.6437  2.4199
  940MOL0     H29715  11.192   2.073   2.864  0.5545  0.7651  0.2246
  940MOL0     H29716  11.233   1.697   3.012  1.3430 -0.8288  0.5551
  940MOL0     H29717  11.284   2.609   3.251 -1.5204 -1.9723  0.1404
  940MOL0     H29718  11.172   2.707   3.406 -0.5018 -0.6631 -0.4737
  940MOL0     H29719  11.171   2.888   3.379 -4.0049  1.5110  1.4604
  940MOL0     H29720  11.023   2.795   3.388  0.2963 -0.6890  1.0043
  941MOL0     O29721   0.677   7.895   1.457  0.2830 -0.0691 -0.3460
  941MOL0     C29722   0.672   7.982   1.365 -0.0583  0.0213 -0.5170
  941MOL0     O29723   0.705   8.115   1.380 -0.5291  1.1902  0.7965
  941MOL0     C29724   0.739   8.154   1.510 -0.5732 -0.6538 -0.4905
  941MOL0     C29725   0.644   8.199   1.603 -0.6614 -0.0512 -0.0744
  941MOL0     C29726   0.682   8.254   1.718 -0.1493 -0.7797 -0.3962
  941MOL0     C29727   0.811   8.262   1.766 -0.5440  0.1283  0.7745
  941MOL0     O29728   0.844   8.307   1.887 -0.4841  0.0428  0.5268
  941MOL0     C29729   0.807   8.443   1.905  0.3492 -0.2560  0.1115
  941MOL0     C29730   0.880   8.510   2.032 -0.6834  0.6745  0.3563
  941MOL0     C29731   1.020   8.570   2.001 -0.3652 -0.6852 -0.3514
  941MOL0     C29732   1.124   8.467   1.941 -0.5496  0.5325  0.5379
  941MOL0     C29733   1.193   8.531   1.825  0.2854 -0.9586  0.0759
  941MOL0     C29734   1.300   8.442   1.751 -0.1700 -0.6000 -0.4521
  941MOL0     C29735   1.380   8.518   1.657  0.2200 -0.3944  0.8951
  941MOL0     C29736   1.303   8.612   1.563 -0.5759 -0.8293  0.2841
  941MOL0     N29737   1.228   8.530   1.469  0.6323 -0.5992 -0.8670
  941MOL0     C29738   1.086   8.515   1.471  0.5160  0.4795  0.4160
  941MOL0     C29739   1.054   8.485   1.341  0.7741 -0.4320 -0.1766
  941MOL0     C29740   0.909   8.477   1.288 -0.0095 -0.1178 -1.4938
  941MOL0     C29741   0.890   8.547   1.156  0.3532 -0.4562  0.5629
  941MOL0     C29742   0.772   8.496   1.071 -0.2254  0.2089 -1.1024
  941MOL0     C29743   0.799   8.423   0.939  0.1479 -0.6708 -0.0738
  941MOL0     O29744   0.824   8.540   0.851  0.1422 -0.4383  0.0882
  941MOL0     C29745   0.863   8.511   0.722  0.1805 -0.1463  0.3232
  941MOL0     C29746   0.882   8.618   0.638 -0.6985 -0.4640  0.6175
  941MOL0     C29747   0.929   8.603   0.507 -0.1675  0.4769  0.1064
  941MOL0     C29748   0.967   8.739   0.450  0.0947  0.1218  0.4106
  941MOL0     C29749   0.946   8.474   0.456  0.3613 -0.6021 -0.6101
  941MOL0     C29750   0.987   8.458   0.314 -0.2709 -0.7654 -0.1189
  941MOL0     O29751   1.042   8.339   0.277 -0.7647  0.6027 -0.5944
  941MOL0     C29752   1.137   8.323   0.175  0.0156  0.7447  0.1011
  941MOL0     C29753   1.167   8.191   0.149 -0.0791  0.1428  0.2871
  941MOL0     C29754   1.255   8.156   0.035  0.0639  0.1750 -0.3652
  941MOL0     C29755   1.315   8.260  -0.029 -0.2465 -0.1642 -0.0174
  941MOL0     O29756   1.406   8.225  -0.128  0.3937  0.5840  0.1078
  941MOL0     C29757   1.516   8.317  -0.142 -0.4843 -0.4734 -0.9065
  941MOL0     C29758   1.629   8.245  -0.207  0.4955 -0.3103  0.6721
  941MOL0     C29759   1.754   8.335  -0.213  0.3364  0.4103 -0.3678
  941MOL0     C29760   1.867   8.282  -0.305 -0.0383  0.1654  0.0867
  941MOL0     C29761   1.953   8.168  -0.252 -0.3567 -0.9292 -0.0571
  941MOL0     C29762   2.060   8.213  -0.154 -0.8360 -0.2356  1.5761
  941MOL0     C29763   2.025   8.215  -0.007 -0.3710 -0.4017 -0.4977
  941MOL0     C29764   2.156   8.220   0.076  0.1752 -0.2259  0.2395
  941MOL0    Cl29765   2.244   8.069   0.083 -0.0284  0.0111  0.3336
  941MOL0     C29766   1.297   8.395   0.004 -0.1444  0.3142 -1.3168
  941MOL0     C29767   1.209   8.420   0.102  0.0646 -0.6181  0.8926
  941MOL0     O29768   0.956   8.543   0.232 -0.2540 -0.2077  1.0012
  941MOL0     C29769   0.920   8.361   0.538  0.9086 -0.4589 -0.5090
  941MOL0     C29770   0.882   8.386   0.671  0.5145 -1.9085 -0.6698
  941MOL0     N29771   1.180   8.464   1.276  0.2513  0.0701  0.7607
  941MOL0     N29772   1.283   8.499   1.352  1.2076  0.9509  0.4994
  941MOL0     C29773   0.905   8.209   1.680 -0.1714  0.6550 -0.3423
  941MOL0     C29774   0.872   8.162   1.555  0.3529  0.3980 -0.2651
  941MOL0     C29775   0.639   7.926   1.227  0.5038  0.4173  0.2048
  941MOL0     C29776   0.566   7.803   1.230 -0.3349 -0.7112 -0.1863
  941MOL0     C29777   0.518   7.747   1.111 -0.2731  0.3165 -0.1124
  941MOL0     C29778   0.551   7.796   0.983  1.6871 -0.9663 -0.9595
  941MOL0     O29779   0.501   7.736   0.879  0.4670  0.1396  0.4708
  941MOL0     C29780   0.591   7.650   0.806  0.2356 -0.3330 -0.1003
  941MOL0     C29781   0.638   7.530   0.894 -0.0284 -0.8329 -0.2255
  941MOL0     C29782   0.529   7.426   0.939  0.2497  0.1633  0.0742
  941MOL0     C29783   0.593   7.343   1.042 -0.0439 -0.4582 -0.4488
  941MOL0     C29784   0.483   7.244   1.060 -0.3869  0.4466 -0.2458
  941MOL0     C29785   0.410   7.147   1.071  0.5684 -0.4494  0.5662
  941MOL0     C29786   0.627   7.918   0.976 -0.4241  0.7627  0.9702
  941MOL0     C29787   0.666   7.980   1.094  1.1685 -0.6195  0.3119
  941MOL0     C29788   0.723   8.121   1.087  0.8444 -0.1646 -1.0961
  941MOL0     H29789   0.543   8.207   1.564 -1.0768 -3.4207 -0.0569
  941MOL0     H29790   0.597   8.286   1.778  0.8101  2.7976 -0.7154
  941MOL0     H29791   0.701   8.451   1.930  0.6925  0.8568  1.3041
  941MOL0     H29792   0.829   8.509   1.821 -0.3054 -0.6113 -0.3530
  941MOL0     H29793   0.808   8.584   2.068 -1.2256  0.2331  0.1881
  941MOL0     H29794   0.892   8.437   2.112 -0.5994 -0.3829 -0.5937
  941MOL0     H29795   1.009   8.658   1.937  1.2427 -0.1772  0.0139
  941MOL0     H29796   1.078   8.605   2.087  4.0144  0.6080 -3.4837
  941MOL0     H29797   1.210   8.432   1.998  0.0686 -0.8218 -1.1502
  941MOL0     H29798   1.074   8.374   1.915 -1.6566  1.3076 -0.2295
  941MOL0     H29799   1.243   8.615   1.874 -2.1311  0.4615  0.2507
  941MOL0     H29800   1.113   8.560   1.757 -0.2750 -1.5059  0.5018
  941MOL0     H29801   1.363   8.383   1.819  2.1561 -0.0376 -1.9805
  941MOL0     H29802   1.243   8.368   1.694 -2.1931  0.6805 -0.1837
  941MOL0     H29803   1.424   8.443   1.590 -1.7513 -0.8475  0.0368
  941MOL0     H29804   1.453   8.566   1.724 -0.4600 -0.8227  1.9654
  941MOL0     H29805   1.241   8.681   1.621 -2.1056  0.2863 -2.4663
  941MOL0     H29806   1.357   8.689   1.508 -1.7730  0.2871  0.6266
  941MOL0     H29807   1.019   8.532   1.555  1.2957 -1.7874  1.5959
  941MOL0     H29808   0.848   8.517   1.370 -0.3572 -0.2638 -1.6768
  941MOL0     H29809   0.890   8.370   1.283 -0.5239 -0.2410  1.3614
  941MOL0     H29810   0.873   8.655   1.165 -0.5953 -0.4011 -1.3005
  941MOL0     H29811   0.982   8.532   1.098  0.3652  1.8487 -0.1041
  941MOL0     H29812   0.726   8.419   1.133  0.5646  0.2550 -0.4589
  941MOL0     H29813   0.703   8.578   1.044 -1.3352 -1.2114 -2.7770
  941MOL0     H29814   0.893   8.366   0.943  1.6547  1.6960 -0.3398
  941MOL0     H29815   0.711   8.376   0.893 -1.2259  0.3251  1.4088
  941MOL0     H29816   0.861   8.715   0.681  1.5542 -1.2101  3.7089
  941MOL0     H29817   1.071   8.734   0.417 -0.3740  1.0785 -1.3316
  941MOL0     H29818   0.953   8.825   0.516  3.1198  0.7465  0.3976
  941MOL0     H29819   0.916   8.762   0.356 -3.3461 -3.3225  1.1957
  941MOL0     H29820   1.113   8.112   0.200 -1.1534  0.4222 -0.3988
  941MOL0     H29821   1.277   8.056  -0.001  0.8230  0.4464 -0.6743
  941MOL0     H29822   1.503   8.404  -0.207 -0.1786  0.0292 -0.3058
  941MOL0     H29823   1.554   8.347  -0.044  0.6824 -0.0867 -1.4589
  941MOL0     H29824   1.643   8.144  -0.168 -0.3651 -0.0355  1.7515
  941MOL0     H29825   1.591   8.241  -0.309  0.4797 -0.3916  0.6810
  941MOL0     H29826   1.790   8.342  -0.110 -1.4401 -2.4807  0.5761
  941MOL0     H29827   1.724   8.435  -0.245 -0.4214 -0.1149 -1.3579
  941MOL0     H29828   1.934   8.367  -0.322  0.7965 -0.6312 -0.7174
  941MOL0     H29829   1.829   8.256  -0.405 -0.1976 -1.2418  0.4968
  941MOL0     H29830   1.882   8.099  -0.206 -2.9692  0.7725 -1.2837
  941MOL0     H29831   1.999   8.125  -0.341  0.5342 -1.7064  0.7594
  941MOL0     H29832   2.109   8.308  -0.179  2.4217 -1.8340  1.3476
  941MOL0     H29833   2.133   8.133  -0.167 -1.6842 -0.6993 -0.5574
  941MOL0     H29834   1.969   8.127   0.027 -3.1797  1.3726 -0.2068
  941MOL0     H29835   1.949   8.289   0.019 -1.4007 -1.8586  0.8268
  941MOL0     H29836   2.121   8.243   0.177  0.3444 -0.1056  0.2699
  941MOL0     H29837   2.217   8.303   0.040 -0.3316 -0.1957 -0.5691
  941MOL0     H29838   1.341   8.474  -0.057 -1.7651 -1.7971 -5.6739
  941MOL0     H29839   1.203   8.527   0.122 -1.4857 -0.5529  0.1701
  941MOL0     H29840   0.932   8.261   0.496  0.3395  0.2178 -2.3683
  941MOL0     H29841   0.863   8.308   0.744 -0.1626  1.1446  2.6687
  941MOL0     H29842   1.011   8.200   1.700 -0.2449 -1.7636 -0.7521
  941MOL0     H29843   0.948   8.123   1.487  0.6229 -0.6223  0.5818
  941MOL0     H29844   0.562   7.745   1.322  0.3027 -0.7597 -0.1830
  941MOL0     H29845   0.452   7.660   1.116  0.8168 -0.4806  1.1462
  941MOL0     H29846   0.543   7.617   0.714  1.0946  3.1797 -2.0090
  941MOL0     H29847   0.677   7.708   0.771  2.3286 -1.1133  3.2506
  941MOL0     H29848   0.681   7.560   0.989 -1.7345 -2.5438  1.1687
  941MOL0     H29849   0.706   7.469   0.833 -2.6063 -1.8174 -2.3600
  941MOL0     H29850   0.450   7.490   0.981  0.6966  0.8101 -0.0603
  941MOL0     H29851   0.501   7.368   0.851 -0.5364 -1.0385  1.0812
  941MOL0     H29852   0.609   7.395   1.137  0.2948 -1.9272  0.3242
  941MOL0     H29853   0.681   7.296   0.998  0.9288  0.7780  0.1110
  941MOL0     H29854   0.355   7.055   1.076  0.1934 -0.1633  2.2698
  941MOL0     H29855   0.658   7.964   0.882 -0.6123  4.1146  2.4310
  941MOL0     H29856   0.661   8.182   1.152 -1.1329 -2.9948 -0.1522
  941MOL0     H29857   0.825   8.130   1.125 -0.1727  2.9579  1.2827
  941MOL0     H29858   0.707   8.164   0.987  0.1662  0.3982 -0.7510
  942MOL0     O29859   0.865   3.301   4.616  0.6005  0.5671 -0.4710
  942MOL0     C29860   0.749   3.321   4.620 -0.0626  0.2184 -0.1008
  942MOL0     O29861   0.692   3.403   4.709 -0.2241  0.0965 -0.0198
  942MOL0     C29862   0.771   3.496   4.766 -0.4265 -0.4633 -0.1313
  942MOL0     C29863   0.763   3.630   4.724 -0.1654  0.1133  0.7212
  942MOL0     C29864   0.856   3.728   4.779  0.3333 -0.1243  0.6499
  942MOL0     C29865   0.958   3.695   4.873  0.5303 -0.1432  0.9268
  942MOL0     O29866   1.035   3.798   4.924 -0.2151 -0.0560 -0.8448
  942MOL0     C29867   1.169   3.790   4.986  1.5051 -0.1034  0.0364
  942MOL0     C29868   1.277   3.811   4.883  0.0944 -0.1833  0.0574
  942MOL0     C29869   1.420   3.818   4.942  0.2705  0.1794  0.3805
  942MOL0     C29870   1.446   3.720   5.053  0.7564 -0.1537  0.3811
  942MOL0     C29871   1.587   3.739   5.099  0.7867 -0.0806 -0.0633
  942MOL0     C29872   1.612   3.645   5.222 -0.0212  0.2111  0.4424
  942MOL0     C29873   1.755   3.665   5.267 -0.8968  0.3345  0.4486
  942MOL0     C29874   1.804   3.561   5.366  0.7401 -0.8743 -0.7443
  942MOL0     N29875   1.727   3.550   5.493 -0.2325  0.8654  0.3037
  942MOL0     C29876   1.687   3.430   5.546 -0.2711 -0.0094  0.6884
  942MOL0     C29877   1.630   3.462   5.657  0.1711  0.2714 -0.3491
  942MOL0     C29878   1.555   3.365   5.739 -0.0691  0.3520  0.8715
  942MOL0     C29879   1.606   3.224   5.744  0.6995  0.0509  0.5896
  942MOL0     C29880   1.520   3.128   5.817  0.0115  0.1525 -0.0247
  942MOL0     C29881   1.578   2.986   5.836  0.1520  0.1406 -0.7025
  942MOL0     O29882   1.492   2.925   5.932  0.3249  0.4134 -0.9394
  942MOL0     C29883   1.518   2.792   5.953 -0.2719  0.2370  0.3348
  942MOL0     C29884   1.428   2.737   6.046  0.6277 -0.2818 -0.0795
  942MOL0     C29885   1.432   2.596   6.086 -0.2986 -0.5764  0.0908
  942MOL0     C29886   1.326   2.563   6.196 -0.4070 -0.1140  0.7000
  942MOL0     C29887   1.525   2.513   6.029  0.3712  0.5692 -0.2565
  942MOL0     C29888   1.545   2.364   6.066  0.0787 -1.2721  0.0742
  942MOL0     O29889   1.627   2.295   5.979 -0.5670  0.4040  0.1109
  942MOL0     C29890   1.636   2.159   6.002 -1.0209 -0.8350  0.1158
  942MOL0     C29891   1.762   2.112   5.970 -0.6235 -0.2286 -0.2447
  942MOL0     C29892   1.790   1.972   5.973  0.3019  0.7305  0.3403
  942MOL0     C29893   1.694   1.883   6.014 -0.7410 -0.1996  0.1079
  942MOL0     O29894   1.716   1.753   6.023 -0.0454  0.2428  0.8031
  942MOL0     C29895   1.761   1.683   5.905  0.1576 -1.0119 -0.7491
  942MOL0     C29896   1.633   1.672   5.813 -0.2935 -0.3266  0.0943
  942MOL0     C29897   1.651   1.549   5.737 -0.2593  1.4298  0.1311
  942MOL0     C29898   1.531   1.528   5.649  0.1726  0.6593 -0.6321
  942MOL0     C29899   1.453   1.404   5.700  0.0088  0.3811  0.1646
  942MOL0     C29900   1.339   1.395   5.609 -0.3059 -0.3784  0.1446
  942MOL0     C29901   1.226   1.299   5.656 -0.5120  0.2422  0.5798
  942MOL0     C29902   1.129   1.264   5.548  0.2814  0.9328  0.5769
  942MOL0    Cl29903   1.193   1.169   5.420 -0.0950 -0.2707 -0.0634
  942MOL0     C29904   1.572   1.924   6.058  0.5300 -0.4848 -1.1285
  942MOL0     C29905   1.551   2.059   6.054  0.8179 -0.1668 -0.1220
  942MOL0     O29906   1.497   2.323   6.169 -0.4976 -0.9872  0.5148
  942MOL0     C29907   1.618   2.571   5.945 -0.0848  0.8888  0.6660
  942MOL0     C29908   1.614   2.709   5.910  0.1778  0.3652 -0.4167
  942MOL0     N29909   1.623   3.599   5.666 -0.0898  0.2446  0.0123
  942MOL0     N29910   1.675   3.651   5.555 -0.7758 -0.0688 -0.6770
  942MOL0     C29911   0.966   3.553   4.900 -0.4724  0.1238 -0.3896
  942MOL0     C29912   0.870   3.459   4.860  0.6219 -0.2215  0.2738
  942MOL0     C29913   0.654   3.238   4.536 -0.1575  0.7251 -0.6658
  942MOL0     C29914   0.517   3.266   4.534 -0.7768 -0.1637  0.6177
  942MOL0     C29915   0.431   3.182   4.459  0.0701  0.2517  0.9745
  942MOL0     C29916   0.479   3.075   4.383 -0.6756  0.7421  0.6575
  942MOL0     O29917   0.417   2.980   4.301  0.5983 -0.6389 -0.0459
  942MOL0     C29918   0.274   2.999   4.278 -0.1554  0.5048  0.1934
  942MOL0     C29919   0.226   2.874   4.210  0.4629 -0.0891  0.0877
  942MOL0     C29920   0.089   2.916   4.148  0.4400  0.0952  0.1390
  942MOL0     C29921   0.011   2.795   4.094  0.0619 -1.1592 -1.0449
  942MOL0     C29922   0.076   2.742   3.980 -0.3487  0.2903 -0.5861
  942MOL0     C29923   0.137   2.700   3.883 -0.2781 -0.0765  0.2844
  942MOL0     C29924   0.614   3.051   4.382 -0.9892  0.0159 -0.7829
  942MOL0     C29925   0.703   3.126   4.458 -0.4860 -0.2517  0.5290
  942MOL0     C29926   0.848   3.083   4.450 -0.4696  0.0099 -0.3833
  942MOL0     H29927   0.688   3.652   4.650 -2.5323  0.0635  2.9732
  942MOL0     H29928   0.859   3.834   4.759  2.4741 -0.2235  0.2488
  942MOL0     H29929   1.166   3.694   5.037 -2.4055  0.1495  0.6104
  942MOL0     H29930   1.175   3.873   5.058  0.6696  0.0293 -0.0380
  942MOL0     H29931   1.287   3.732   4.809  3.3028 -0.8528  1.0308
  942MOL0     H29932   1.261   3.911   4.843  1.2234  1.5827  3.5810
  942MOL0     H29933   1.493   3.799   4.862 -0.0375  0.2619  0.0775
  942MOL0     H29934   1.436   3.916   4.986 -1.1167 -0.8699  3.5141
  942MOL0     H29935   1.371   3.728   5.132 -1.3639  0.9699 -1.6366
  942MOL0     H29936   1.450   3.622   5.005  1.0510  0.9545 -1.9887
  942MOL0     H29937   1.601   3.844   5.125  1.1842  0.2420 -1.5425
  942MOL0     H29938   1.658   3.717   5.019  0.7222 -1.7642  0.2990
  942MOL0     H29939   1.547   3.681   5.303 -0.2479  1.2403 -0.1742
  942MOL0     H29940   1.588   3.541   5.203  3.6595 -1.3705  3.1533
  942MOL0     H29941   1.769   3.760   5.318 -0.0149 -2.0803  5.3580
  942MOL0     H29942   1.819   3.653   5.179 -2.0227 -2.5276 -0.0917
  942MOL0     H29943   1.803   3.465   5.314 -0.4078 -0.0658 -2.2963
  942MOL0     H29944   1.908   3.593   5.378  0.8787 -1.6843  0.3831
  942MOL0     H29945   1.707   3.334   5.499 -1.7707  0.4581 -0.9910
  942MOL0     H29946   1.449   3.371   5.715 -0.6346  0.7440  3.1936
  942MOL0     H29947   1.576   3.407   5.838 -0.7476  0.8780  0.7990
  942MOL0     H29948   1.624   3.179   5.646 -1.8757 -3.1118  1.3773
  942MOL0     H29949   1.703   3.225   5.793 -0.9339  0.9930  4.1032
  942MOL0     H29950   1.487   3.150   5.919 -2.0686 -1.5201 -0.2543
  942MOL0     H29951   1.428   3.123   5.758  0.6635 -2.5861 -0.9591
  942MOL0     H29952   1.568   2.934   5.740  0.3939  1.2112 -1.3231
  942MOL0     H29953   1.682   2.982   5.868 -0.8119  2.0742  3.4615
  942MOL0     H29954   1.365   2.815   6.088 -2.8502 -1.7200 -2.2065
  942MOL0     H29955   1.258   2.494   6.146  0.3166  0.4325 -1.1281
  942MOL0     H29956   1.278   2.649   6.244 -0.6505 -1.1159  2.3178
  942MOL0     H29957   1.380   2.512   6.276  4.2585  3.5928  0.4144
  942MOL0     H29958   1.845   2.172   5.934 -0.9442 -0.2453 -1.0474
  942MOL0     H29959   1.890   1.951   5.937  0.8795 -2.3462  3.2359
  942MOL0     H29960   1.836   1.739   5.849 -1.4139 -0.6785 -2.6080
  942MOL0     H29961   1.801   1.588   5.943  3.6453  0.8107  0.6283
  942MOL0     H29962   1.539   1.663   5.868 -2.3867 -3.3477 -3.5445
  942MOL0     H29963   1.641   1.760   5.750  0.1894 -1.2008 -1.0995
  942MOL0     H29964   1.661   1.466   5.807 -0.5802  1.1459 -0.1562
  942MOL0     H29965   1.734   1.556   5.665  2.1759 -0.5097  2.5486
  942MOL0     H29966   1.572   1.495   5.553  2.7637  2.6362 -0.3130
  942MOL0     H29967   1.458   1.607   5.631  0.0348  0.6496 -0.1309
  942MOL0     H29968   1.506   1.309   5.691 -0.0508  0.4827 -1.4677
  942MOL0     H29969   1.415   1.414   5.803 -1.4399 -1.5310 -0.1317
  942MOL0     H29970   1.372   1.368   5.508 -2.5686  0.7298 -0.9849
  942MOL0     H29971   1.289   1.491   5.591 -2.4978 -1.6075 -0.8317
  942MOL0     H29972   1.180   1.350   5.741 -0.0919 -0.3538  1.1713
  942MOL0     H29973   1.274   1.206   5.688  1.5160  1.0932  0.1242
  942MOL0     H29974   1.093   1.361   5.511  0.1825  2.3715  4.0215
  942MOL0     H29975   1.045   1.212   5.593 -0.1242  0.4390 -0.7185
  942MOL0     H29976   1.498   1.857   6.101  1.7754  1.2975  4.6852
  942MOL0     H29977   1.455   2.097   6.089  0.4399 -1.9520  0.8805
  942MOL0     H29978   1.693   2.511   5.894  1.6187  2.9760  0.5814
  942MOL0     H29979   1.684   2.738   5.833 -2.1371 -1.3496 -3.3740
  942MOL0     H29980   1.048   3.519   4.963 -1.5553  0.1659  1.0965
  942MOL0     H29981   0.878   3.356   4.892  1.4279 -0.4007 -0.4628
  942MOL0     H29982   0.484   3.350   4.594  1.5049  1.8129 -0.7687
  942MOL0     H29983   0.324   3.200   4.457 -0.1039 -0.6801 -0.6537
  942MOL0     H29984   0.212   3.018   4.366 -1.2957  0.4934 -0.5832
  942MOL0     H29985   0.263   3.078   4.203 -2.6828 -3.3970 -4.0186
  942MOL0     H29986   0.222   2.781   4.267 -0.3459  0.2284  0.5696
  942MOL0     H29987   0.291   2.854   4.125  2.1544  0.0846  1.2844
  942MOL0     H29988   0.028   2.950   4.232  1.2738 -1.3909  1.3800
  942MOL0     H29989   0.096   2.987   4.065 -1.6748 -0.0570 -0.2253
  942MOL0     H29990  -0.096   2.816   4.084 -0.0125 -0.2316  1.1996
  942MOL0     H29991   0.020   2.728   4.180  1.0643  0.3789  0.0941
  942MOL0     H29992   0.194   2.676   3.795 -0.2455 -0.6047  0.4469
  942MOL0     H29993   0.662   2.960   4.349  1.7373  1.8049 -2.1838
  942MOL0     H29994   0.905   3.169   4.413  0.4975 -1.4639 -2.6138
  942MOL0     H29995   0.869   3.051   4.553 -0.3708 -2.0880 -0.9945
  942MOL0     H29996   0.869   3.006   4.375 -0.6631  1.3284 -1.8583
  943MOL0     O29997   3.809   3.617   8.916 -0.0399  0.2070 -0.2262
  943MOL0     C29998   3.724   3.537   8.882 -0.3635  0.5045 -0.0497
  943MOL0     O29999   3.610   3.505   8.955  0.1936 -0.2012  0.3486
  943MOL0     C30000   3.621   3.536   9.086 -1.2299  1.0165 -0.6018
  943MOL0     C30001   3.685   3.452   9.170  0.6301 -0.1834  0.1227
  943MOL0     C30002   3.681   3.471   9.309 -0.6483  0.0625 -0.3132
  943MOL0     C30003   3.606   3.571   9.367 -0.4431  0.2604  0.7372
  943MOL0     O30004   3.610   3.579   9.505  0.2425  0.4066  0.8788
  943MOL0     C30005   3.513   3.671   9.567 -0.4830 -0.4868 -0.3929
  943MOL0     C30006   3.555   3.814   9.595 -0.5952 -0.1994  0.5951
  943MOL0     C30007   3.426   3.899   9.650  0.4909  0.2034 -0.3148
  943MOL0     C30008   3.326   3.932   9.530  0.5797  1.1490  0.1218
  943MOL0     C30009   3.210   4.029   9.590 -0.7397  1.0658 -0.7239
  943MOL0     C30010   3.113   4.070   9.475  1.3314 -0.0564 -0.4467
  943MOL0     C30011   2.994   4.169   9.502 -0.4377 -0.1650  0.1368
  943MOL0     C30012   2.921   4.114   9.633 -0.2990  0.2558  0.4731
  943MOL0     N30013   2.800   4.198   9.656  0.4464 -0.0709  0.9759
  943MOL0     C30014   2.805   4.318   9.727  0.1821  0.0712  1.1764
  943MOL0     C30015   2.669   4.340   9.739 -0.2376  0.6587 -0.4503
  943MOL0     C30016   2.593   4.455   9.798 -0.1817 -1.3012  0.4798
  943MOL0     C30017   2.539   4.569   9.706 -0.7172  0.2764  0.1229
  943MOL0     C30018   2.490   4.689   9.783 -0.4481 -0.1565  0.2682
  943MOL0     C30019   2.410   4.779   9.685  0.2980  0.6552  1.1529
  943MOL0     O30020   2.502   4.826   9.589 -0.3698  1.0409  0.4999
  943MOL0     C30021   2.462   4.915   9.490  0.0280 -0.4138  0.5327
  943MOL0     C30022   2.545   5.024   9.461 -0.3200 -0.6197  0.0381
  943MOL0     C30023   2.511   5.124   9.373 -0.4687 -0.7298  0.0538
  943MOL0     C30024   2.620   5.219   9.324 -0.5090 -0.3061  0.3459
  943MOL0     C30025   2.389   5.120   9.304 -0.0749 -0.4472 -0.0004
  943MOL0     C30026   2.357   5.219   9.206  0.1809  0.0383  0.4265
  943MOL0     O30027   2.262   5.185   9.114  0.5240 -0.0031 -0.6788
  943MOL0     C30028   2.230   5.266   9.012 -0.0214  0.1728  0.7731
  943MOL0     C30029   2.312   5.346   8.941 -0.2799  0.4438  0.2041
  943MOL0     C30030   2.265   5.420   8.822 -0.5885  0.9155 -0.2187
  943MOL0     C30031   2.125   5.422   8.791 -0.4033 -0.4901  0.9024
  943MOL0     O30032   2.078   5.504   8.697 -0.2610  0.3166 -0.3531
  943MOL0     C30033   2.132   5.638   8.674 -0.8918 -0.6355  0.3217
  943MOL0     C30034   2.045   5.707   8.564  0.3990  1.0082  0.4002
  943MOL0     C30035   2.029   5.620   8.436 -0.2842 -0.1759  0.3239
  943MOL0     C30036   1.987   5.695   8.323 -0.7095 -0.6599  0.2263
  943MOL0     C30037   1.953   5.616   8.195 -0.8048 -0.7356 -0.6048
  943MOL0     C30038   1.892   5.723   8.091 -0.3726  0.7331  0.5107
  943MOL0     C30039   1.872   5.667   7.954  0.2338 -1.1607  1.0539
  943MOL0     C30040   1.807   5.773   7.856  0.5574 -0.3647 -0.5002
  943MOL0    Cl30041   1.892   5.920   7.823  0.3757  0.6448 -0.3846
  943MOL0     C30042   2.043   5.345   8.867 -0.3814  0.3723 -0.5707
  943MOL0     C30043   2.097   5.276   8.981  0.2894 -0.3148  0.3816
  943MOL0     O30044   2.411   5.332   9.213  0.4246 -0.2824 -0.2951
  943MOL0     C30045   2.305   5.014   9.331  0.1411 -0.1549 -0.4945
  943MOL0     C30046   2.337   4.919   9.431  0.2498 -0.0024  0.0782
  943MOL0     N30047   2.588   4.250   9.681  0.3755  0.3572  0.4519
  943MOL0     N30048   2.673   4.161   9.635  0.3361  0.1792  0.3955
  943MOL0     C30049   3.547   3.666   9.277 -0.1951 -0.0068  0.6293
  943MOL0     C30050   3.558   3.643   9.140 -0.5363 -0.2317 -0.4019
  943MOL0     C30051   3.720   3.485   8.742 -0.2598  0.4247  0.1580
  943MOL0     C30052   3.616   3.396   8.723  0.2770  0.7508 -0.0232
  943MOL0     C30053   3.584   3.352   8.595  0.4101  0.5676  0.9051
  943MOL0     C30054   3.665   3.388   8.481 -0.4861  0.3235 -0.6011
  943MOL0     O30055   3.638   3.355   8.350 -0.1317 -0.2237 -0.0730
  943MOL0     C30056   3.537   3.251   8.331 -0.4903 -0.1883 -0.5882
  943MOL0     C30057   3.545   3.210   8.188 -0.7786 -0.1967 -0.0053
  943MOL0     C30058   3.436   3.105   8.169  0.7150  0.4970  0.5792
  943MOL0     C30059   3.430   3.049   8.027 -0.8049 -1.0427  0.6911
  943MOL0     C30060   3.328   2.941   8.012  0.2059  0.4417 -0.3808
  943MOL0     C30061   3.229   2.872   8.001  0.9283 -0.4311 -0.2863
  943MOL0     C30062   3.776   3.471   8.506  0.2933  0.1932 -0.3139
  943MOL0     C30063   3.804   3.518   8.634  0.3714 -1.3775 -0.6741
  943MOL0     C30064   3.921   3.616   8.655  0.0374  0.5135  0.0733
  943MOL0     H30065   3.725   3.356   9.137 -0.8323 -0.9253  0.4059
  943MOL0     H30066   3.725   3.391   9.369  0.2322 -0.9145 -2.1589
  943MOL0     H30067   3.505   3.638   9.671 -0.8903 -1.0653 -0.6052
  943MOL0     H30068   3.413   3.672   9.522 -0.1608 -1.5866 -1.1781
  943MOL0     H30069   3.638   3.813   9.666  2.1429  0.7164 -2.3504
  943MOL0     H30070   3.592   3.866   9.506 -2.9685  0.9039  0.1653
  943MOL0     H30071   3.368   3.843   9.723 -1.5829  1.0770 -1.2282
  943MOL0     H30072   3.459   3.992   9.699 -1.1411  0.6428  0.0150
  943MOL0     H30073   3.372   3.973   9.440 -0.7761 -0.3667 -1.3349
  943MOL0     H30074   3.276   3.842   9.494  2.3807  0.6993 -1.4172
  943MOL0     H30075   3.266   4.114   9.629 -0.8050  1.2115 -0.9473
  943MOL0     H30076   3.156   3.976   9.669  0.2006 -1.6500 -1.7865
  943MOL0     H30077   3.183   4.117   9.405  2.5771 -0.3606  0.5597
  943MOL0     H30078   3.071   3.987   9.417  2.5835 -0.7361 -0.4235
  943MOL0     H30079   2.930   4.164   9.413 -0.6851 -2.4487  0.3833
  943MOL0     H30080   3.033   4.271   9.502  0.4333 -0.4858  0.8693
  943MOL0     H30081   2.897   4.009   9.613 -1.8662  0.6754  0.0556
  943MOL0     H30082   2.987   4.129   9.719 -0.2011  2.5980  0.0408
  943MOL0     H30083   2.886   4.372   9.775  2.0496 -2.3873  0.9831
  943MOL0     H30084   2.671   4.495   9.863 -0.5940 -1.7487  1.2658
  943MOL0     H30085   2.512   4.418   9.861 -1.3524  2.0955  1.2152
  943MOL0     H30086   2.625   4.604   9.648 -2.5519  1.5084 -1.9636
  943MOL0     H30087   2.466   4.518   9.643 -0.4623 -0.7234  0.5988
  943MOL0     H30088   2.419   4.659   9.861 -0.5294 -1.1156 -0.1701
  943MOL0     H30089   2.577   4.745   9.819 -1.1223  1.6837 -0.8381
  943MOL0     H30090   2.332   4.725   9.630  0.9333  1.8190 -1.0206
  943MOL0     H30091   2.364   4.873   9.718 -2.2614 -0.4804  1.0544
  943MOL0     H30092   2.642   5.026   9.509 -0.7485  2.6379  1.0385
  943MOL0     H30093   2.597   5.322   9.354  2.6385  0.5122  0.3502
  943MOL0     H30094   2.632   5.219   9.215  3.0165  4.0703  0.4228
  943MOL0     H30095   2.723   5.204   9.358  0.3855  0.7240 -1.7240
  943MOL0     H30096   2.416   5.362   8.965 -0.3497  1.1415  0.0663
  943MOL0     H30097   2.341   5.446   8.750 -0.1138 -2.2091 -1.0098
  943MOL0     H30098   2.122   5.711   8.756 -3.9742 -0.7403  0.1654
  943MOL0     H30099   2.235   5.632   8.639 -1.0501  1.3551 -0.6358
  943MOL0     H30100   1.948   5.722   8.612 -0.3324 -0.4420 -0.5509
  943MOL0     H30101   2.097   5.803   8.559 -0.1206  1.2384 -1.9523
  943MOL0     H30102   1.954   5.547   8.467 -1.5973  1.1227  0.3500
  943MOL0     H30103   2.122   5.565   8.419  0.1716  0.3496  1.0670
  943MOL0     H30104   2.068   5.763   8.295  0.4686 -3.0455 -2.8109
  943MOL0     H30105   1.904   5.764   8.343 -0.4715 -0.0834 -0.7153
  943MOL0     H30106   2.036   5.559   8.152 -2.0325  0.5089 -5.1746
  943MOL0     H30107   1.882   5.537   8.223 -0.9039 -0.2656  0.5393
  943MOL0     H30108   1.964   5.805   8.084  0.8557 -0.3963 -4.1781
  943MOL0     H30109   1.800   5.768   8.128 -1.5928  0.9270 -2.5046
  943MOL0     H30110   1.804   5.581   7.948  0.0172 -0.9843  0.9348
  943MOL0     H30111   1.968   5.638   7.910  0.0032  1.9810 -1.9376
  943MOL0     H30112   1.711   5.798   7.901  0.5925 -2.3903  0.8248
  943MOL0     H30113   1.791   5.726   7.758 -2.3521 -4.5986  1.6837
  943MOL0     H30114   1.934   5.341   8.863 -0.3826 -1.2242  0.1615
  943MOL0     H30115   2.035   5.215   9.045 -0.9775  0.5071 -0.0215
  943MOL0     H30116   2.203   5.002   9.293 -1.0572  0.2238  2.3547
  943MOL0     H30117   2.255   4.857   9.468 -0.8425  1.8848  0.9804
  943MOL0     H30118   3.492   3.757   9.298 -0.5345  0.1076 -0.6543
  943MOL0     H30119   3.502   3.706   9.072  0.4311 -0.4411 -1.4115
  943MOL0     H30120   3.544   3.349   8.790 -0.3944 -1.1676 -1.9772
  943MOL0     H30121   3.496   3.292   8.575 -0.2687  2.9477 -6.2176
  943MOL0     H30122   3.558   3.168   8.399  1.9929 -0.8410 -2.0293
  943MOL0     H30123   3.439   3.291   8.358 -0.5931 -0.6730 -0.2270
  943MOL0     H30124   3.645   3.168   8.173  0.1785  2.0688 -0.3824
  943MOL0     H30125   3.524   3.303   8.135 -1.5172  0.7286  1.8216
  943MOL0     H30126   3.459   3.026   8.241  0.1639  2.2427  2.7981
  943MOL0     H30127   3.331   3.129   8.189  0.2354 -1.9620  1.3328
  943MOL0     H30128   3.526   3.005   7.998 -1.1298 -0.9896 -0.5188
  943MOL0     H30129   3.400   3.128   7.958 -1.1114 -2.4032 -0.7998
  943MOL0     H30130   3.133   2.825   8.000  0.2496  0.8408  1.3301
  943MOL0     H30131   3.843   3.504   8.427 -1.4642 -0.0007 -1.9458
  943MOL0     H30132   3.969   3.636   8.559 -4.8744  3.1859 -2.1882
  943MOL0     H30133   3.881   3.717   8.672 -1.9119  0.3133 -2.7425
  943MOL0     H30134   3.996   3.600   8.733  3.2244 -0.6174 -2.9577
  944MOL0     O30135   6.939   9.223   3.512 -0.2320 -0.5453 -0.8192
  944MOL0     C30136   6.847   9.297   3.470 -0.7423  0.5890  0.4026
  944MOL0     O30137   6.863   9.368   3.346 -0.3680  0.0982 -0.1806
  944MOL0     C30138   6.982   9.371   3.273 -0.5758 -0.7771  0.1307
  944MOL0     C30139   7.074   9.267   3.241  1.0398 -0.5099  0.1489
  944MOL0     C30140   7.184   9.289   3.149 -0.1408 -0.4225 -0.7713
  944MOL0     C30141   7.200   9.410   3.083 -0.0629  0.4327 -0.4324
  944MOL0     O30142   7.306   9.417   2.998 -0.4288 -0.1042  0.2152
  944MOL0     C30143   7.375   9.545   2.986  0.3844 -0.5703 -0.1472
  944MOL0     C30144   7.512   9.521   2.929  0.0899  0.5924  0.5727
  944MOL0     C30145   7.581   9.661   2.913  0.4769  0.3107  0.1330
  944MOL0     C30146   7.716   9.646   2.850 -0.1304  0.3527  0.0603
  944MOL0     C30147   7.794   9.770   2.807  0.6289 -0.0158 -0.0228
  944MOL0     C30148   7.923   9.739   2.730  0.2542  0.1843 -0.1904
  944MOL0     C30149   8.028   9.839   2.745 -0.2508  0.6936  0.5436
  944MOL0     C30150   8.137   9.813   2.642  0.1735  0.4709  0.3316
  944MOL0     N30151   8.226   9.696   2.661  0.7835 -0.3137 -0.0348
  944MOL0     C30152   8.173   9.571   2.685 -1.5047 -0.5473 -0.0981
  944MOL0     C30153   8.288   9.500   2.712 -0.7530  0.2216  0.3097
  944MOL0     C30154   8.285   9.350   2.743 -0.0176 -0.0590  0.2239
  944MOL0     C30155   8.422   9.277   2.725 -0.3294  0.0135  0.8832
  944MOL0     C30156   8.477   9.290   2.570 -0.0084 -0.6309  0.0928
  944MOL0     C30157   8.387   9.210   2.480 -0.2078  0.4630 -0.7930
  944MOL0     O30158   8.449   9.143   2.364 -0.2926 -0.5204 -0.3332
  944MOL0     C30159   8.430   9.008   2.359  0.3367  0.7369 -0.6021
  944MOL0     C30160   8.460   8.927   2.471  0.8114 -0.1939  0.5728
  944MOL0     C30161   8.416   8.785   2.471  0.5077  0.5938 -0.9403
  944MOL0     C30162   8.459   8.707   2.593  0.4483 -0.2093 -0.4620
  944MOL0     C30163   8.363   8.721   2.352 -0.1861  0.0257 -0.1321
  944MOL0     C30164   8.328   8.581   2.328  0.2350 -0.0716 -0.6862
  944MOL0     O30165   8.258   8.540   2.211 -0.4815 -0.3063 -0.9041
  944MOL0     C30166   8.250   8.405   2.182  0.1249  0.2069 -1.1842
  944MOL0     C30167   8.350   8.305   2.215 -0.1893  0.1044  0.0312
  944MOL0     C30168   8.345   8.180   2.156  1.0067  0.0237 -0.0535
  944MOL0     C30169   8.226   8.125   2.098  1.0098  0.1058  0.0345
  944MOL0     O30170   8.214   7.992   2.059  0.5417  0.0453  0.4726
  944MOL0     C30171   8.280   7.885   2.121  0.4312  0.6539  0.2325
  944MOL0     C30172   8.234   7.748   2.069  0.1061  0.3210 -0.0133
  944MOL0     C30173   8.268   7.700   1.930 -0.4130 -0.1691  0.5375
  944MOL0     C30174   8.259   7.550   1.906  0.8615  0.1367  0.2558
  944MOL0     C30175   8.297   7.504   1.764 -0.3290  0.0535  0.4747
  944MOL0     C30176   8.445   7.526   1.745 -0.6564 -0.0275  0.5523
  944MOL0     C30177   8.496   7.425   1.643  0.7026  0.5422 -0.3097
  944MOL0     C30178   8.631   7.471   1.590 -0.4981 -0.0076 -0.5124
  944MOL0    Cl30179   8.592   7.594   1.469  0.0701  0.1923  0.0619
  944MOL0     C30180   8.119   8.222   2.085 -0.8656  0.1986  0.0799
  944MOL0     C30181   8.130   8.354   2.126  0.3657  0.5203 -0.0433
  944MOL0     O30182   8.359   8.505   2.425 -0.3484  0.0748  0.4361
  944MOL0     C30183   8.350   8.801   2.246 -0.0615 -1.2460  0.3019
  944MOL0     C30184   8.366   8.944   2.246 -1.1082  0.4853 -0.4963
  944MOL0     N30185   8.401   9.587   2.714 -0.0603  0.0642  0.5118
  944MOL0     N30186   8.369   9.705   2.666  0.3809  0.2938  0.2169
  944MOL0     C30187   7.108   9.511   3.114 -0.4151 -0.5261 -0.6830
  944MOL0     C30188   7.000   9.492   3.204 -0.6509 -0.5744  0.7712
  944MOL0     C30189   6.722   9.326   3.555  0.7138  0.2091  0.4461
  944MOL0     C30190   6.645   9.433   3.520 -0.6117  0.0462  0.5124
  944MOL0     C30191   6.538   9.472   3.598 -0.2498  0.6804 -0.3253
  944MOL0     C30192   6.496   9.398   3.710 -0.2168  0.4400  0.7394
  944MOL0     O30193   6.393   9.432   3.791  0.3046  0.0464  0.8731
  944MOL0     C30194   6.258   9.414   3.736  0.2747 -0.6844 -0.2534
  944MOL0     C30195   6.153   9.400   3.849  0.3428 -0.0001  0.2033
  944MOL0     C30196   6.178   9.293   3.959  0.2295 -0.9329 -0.1793
  944MOL0     C30197   6.053   9.206   3.976 -0.1889 -0.3348 -0.0145
  944MOL0     C30198   5.937   9.275   4.039 -1.0843  0.5896 -1.4428
  944MOL0     C30199   5.829   9.328   4.090 -0.4684  0.6837 -0.0013
  944MOL0     C30200   6.564   9.280   3.739 -0.6675  0.3873  0.5473
  944MOL0     C30201   6.682   9.247   3.664  0.8642  0.6067  0.8596
  944MOL0     C30202   6.769   9.134   3.706 -0.2007 -0.0312  0.6177
  944MOL0     H30203   7.040   9.175   3.286 -0.2988 -0.2548 -0.2831
  944MOL0     H30204   7.245   9.205   3.122 -0.1463 -1.0322  0.9553
  944MOL0     H30205   7.388   9.600   3.079  2.1193 -0.5239 -0.3818
  944MOL0     H30206   7.321   9.601   2.908 -0.6920 -2.1272 -0.5695
  944MOL0     H30207   7.569   9.454   2.993 -0.9948  1.2527  2.2911
  944MOL0     H30208   7.501   9.465   2.835  0.4013  1.0571  0.2493
  944MOL0     H30209   7.518   9.717   2.843  2.0098  1.2451 -0.5752
  944MOL0     H30210   7.580   9.725   3.002  0.5925  1.5040 -0.6897
  944MOL0     H30211   7.769   9.574   2.913 -0.0026  0.4469  0.0624
  944MOL0     H30212   7.702   9.601   2.751  3.7712  0.2913 -0.6501
  944MOL0     H30213   7.817   9.831   2.895 -2.2549 -0.0941  0.9040
  944MOL0     H30214   7.735   9.838   2.744 -0.9447 -1.9174 -0.7183
  944MOL0     H30215   7.963   9.654   2.786 -2.5813  0.5368  2.6890
  944MOL0     H30216   7.912   9.717   2.624 -0.1565  0.6537 -0.2524
  944MOL0     H30217   8.068   9.837   2.847  1.8949 -0.6961 -0.2747
  944MOL0     H30218   7.986   9.940   2.735 -1.0463  0.4033  0.8934
  944MOL0     H30219   8.111   9.824   2.536  2.9774 -0.7131 -0.5674
  944MOL0     H30220   8.209   9.893   2.659  1.1577 -0.7514  2.3543
  944MOL0     H30221   8.078   9.519   2.669 -1.0515 -0.8442 -2.0309
  944MOL0     H30222   8.201   9.307   2.688 -1.2071  2.8723 -0.4859
  944MOL0     H30223   8.262   9.337   2.849 -3.5432 -0.4103 -0.4433
  944MOL0     H30224   8.492   9.312   2.801  0.5168 -1.6160  0.8913
  944MOL0     H30225   8.411   9.173   2.756  0.6354  0.4948  3.0062
  944MOL0     H30226   8.476   9.389   2.524 -0.1710 -1.2478 -1.2831
  944MOL0     H30227   8.574   9.240   2.567 -1.0928 -2.9482 -3.2623
  944MOL0     H30228   8.328   9.140   2.540 -1.7579  3.4535  1.4690
  944MOL0     H30229   8.308   9.279   2.448  0.8078  2.7377  1.3436
  944MOL0     H30230   8.524   8.974   2.545  1.6543  1.4473 -1.1050
  944MOL0     H30231   8.364   8.699   2.646 -0.7712  0.8403 -2.3693
  944MOL0     H30232   8.540   8.758   2.646 -0.2635  3.2614 -2.3896
  944MOL0     H30233   8.505   8.612   2.565  3.9140  1.0984  0.3355
  944MOL0     H30234   8.433   8.341   2.275 -0.7223  1.6332 -0.0888
  944MOL0     H30235   8.429   8.116   2.180  0.3878 -0.4420  0.9575
  944MOL0     H30236   8.385   7.878   2.092  0.5176  1.2862  0.3695
  944MOL0     H30237   8.253   7.892   2.227  0.8231 -3.4260  0.7540
  944MOL0     H30238   8.268   7.675   2.143  2.5219  0.6537 -0.7209
  944MOL0     H30239   8.125   7.754   2.068  0.0759  0.1592  0.9249
  944MOL0     H30240   8.370   7.728   1.902 -0.8542  1.1839  0.1897
  944MOL0     H30241   8.206   7.746   1.851 -0.4069 -2.9941 -1.2587
  944MOL0     H30242   8.162   7.523   1.950  1.5541  1.3487  2.7364
  944MOL0     H30243   8.317   7.493   1.980  1.4883 -1.4061 -1.3427
  944MOL0     H30244   8.280   7.396   1.771 -2.2392  0.4293  2.8133
  944MOL0     H30245   8.228   7.552   1.694  0.7615 -0.7846 -1.2496
  944MOL0     H30246   8.510   7.520   1.833 -1.0269  2.3648  1.0809
  944MOL0     H30247   8.451   7.625   1.698  0.7016 -0.6449 -0.6420
  944MOL0     H30248   8.432   7.411   1.556 -1.2948 -0.4643  1.2429
  944MOL0     H30249   8.503   7.326   1.689  2.1667  1.0874  0.7261
  944MOL0     H30250   8.686   7.390   1.541 -1.4361 -0.2964 -1.1160
  944MOL0     H30251   8.706   7.515   1.656 -0.3050 -0.3267 -0.5164
  944MOL0     H30252   8.025   8.192   2.039  0.4823 -1.8721 -1.5069
  944MOL0     H30253   8.051   8.426   2.107  1.1676  1.7821  1.1747
  944MOL0     H30254   8.323   8.768   2.146  1.2593 -1.8754  0.1364
  944MOL0     H30255   8.327   8.997   2.159 -0.6776  0.2997 -0.8035
  944MOL0     H30256   7.127   9.606   3.067 -0.4991  1.1556  2.4105
  944MOL0     H30257   6.927   9.570   3.223  0.6202  0.9249 -0.1865
  944MOL0     H30258   6.682   9.499   3.443  1.4292  0.4853  1.7821
  944MOL0     H30259   6.473   9.558   3.583 -0.9379  0.2591  0.1701
  944MOL0     H30260   6.240   9.507   3.681  1.8540 -1.1335 -1.6205
  944MOL0     H30261   6.253   9.329   3.667 -3.3438 -1.5991  0.8905
  944MOL0     H30262   6.054   9.376   3.809 -0.3371  0.9080  1.2985
  944MOL0     H30263   6.134   9.497   3.896  0.4620 -0.0619  0.3800
  944MOL0     H30264   6.273   9.240   3.943 -0.4994 -2.6503  0.8913
  944MOL0     H30265   6.187   9.350   4.052 -0.2399 -0.0005 -0.6918
  944MOL0     H30266   6.079   9.111   4.023 -2.3955 -0.9795  0.0186
  944MOL0     H30267   6.008   9.162   3.886  1.5592 -1.2004 -0.5029
  944MOL0     H30268   5.744   9.372   4.138 -0.5916 -0.4131  0.8302
  944MOL0     H30269   6.534   9.209   3.815 -1.7152 -1.9065 -1.8673
  944MOL0     H30270   6.730   9.084   3.796  1.7372 -0.1457  1.4400
  944MOL0     H30271   6.766   9.058   3.627 -3.0812  0.4791  0.1079
  944MOL0     H30272   6.871   9.161   3.733  0.3140 -1.6287  0.3530
  945MOL0     O30273   3.753   6.265   9.091 -0.1321  0.5339 -0.2172
  945MOL0     C30274   3.659   6.242   9.166  0.1212  0.4354  0.9914
  945MOL0     O30275   3.571   6.331   9.199  0.2108  0.3259  0.3885
  945MOL0     C30276   3.580   6.459   9.143  0.3615  1.0882  0.1531
  945MOL0     C30277   3.616   6.567   9.222 -0.4091 -0.4033 -0.6549
  945MOL0     C30278   3.617   6.702   9.159  0.7463 -0.0947 -0.6811
  945MOL0     C30279   3.590   6.715   9.020 -0.3168  0.2629  0.0445
  945MOL0     O30280   3.611   6.823   8.937 -0.0400 -0.3976  0.6772
  945MOL0     C30281   3.750   6.838   8.904  0.0207  0.4579  0.6937
  945MOL0     C30282   3.757   6.933   8.792  0.7533 -0.5010 -0.5850
  945MOL0     C30283   3.908   6.965   8.761  0.1005 -0.0558 -0.1668
  945MOL0     C30284   3.912   7.082   8.665 -0.2530 -0.0996  0.4852
  945MOL0     C30285   4.051   7.109   8.598 -0.6912 -0.1540  0.4660
  945MOL0     C30286   4.148   7.186   8.688 -0.3628  0.0623 -0.5107
  945MOL0     C30287   4.292   7.176   8.657 -0.8309 -0.0349 -0.1086
  945MOL0     C30288   4.348   7.189   8.512  0.2630 -0.0558 -0.0041
  945MOL0     N30289   4.321   7.327   8.458  0.4750  0.5917  0.2517
  945MOL0     C30290   4.340   7.448   8.516 -0.5317  0.1676  0.1920
  945MOL0     C30291   4.267   7.535   8.440  0.1673 -0.2212  1.4803
  945MOL0     C30292   4.253   7.686   8.454  0.1458  0.9776 -0.3682
  945MOL0     C30293   4.169   7.722   8.576  0.1371 -0.5188 -0.3796
  945MOL0     C30294   4.275   7.759   8.695 -0.1469  0.5770 -0.5091
  945MOL0     C30295   4.200   7.799   8.807  0.7771  0.1485  0.1464
  945MOL0     O30296   4.103   7.702   8.843 -0.2870  0.4730 -0.3202
  945MOL0     C30297   4.002   7.749   8.922  0.2770 -0.0457 -0.1796
  945MOL0     C30298   3.894   7.665   8.893 -0.6360  0.0646 -1.0784
  945MOL0     C30299   3.773   7.686   8.954 -0.5026 -0.0377  0.4696
  945MOL0     C30300   3.663   7.593   8.914 -0.8628 -0.1082  0.8568
  945MOL0     C30301   3.759   7.787   9.061  0.2654  0.2259  0.1605
  945MOL0     C30302   3.633   7.827   9.140 -0.0347  0.4602  0.6782
  945MOL0     O30303   3.626   7.951   9.189 -0.2578  0.6498  0.5288
  945MOL0     C30304   3.559   7.987   9.305  0.2022 -0.5339  0.5041
  945MOL0     C30305   3.599   7.949   9.436  0.5590 -0.0286  0.3791
  945MOL0     C30306   3.523   7.994   9.543 -0.0950  0.7093  0.9230
  945MOL0     C30307   3.409   8.078   9.522 -0.0317  0.0548  0.7446
  945MOL0     O30308   3.328   8.121   9.620 -0.1332 -0.4067  0.1775
  945MOL0     C30309   3.312   8.052   9.740 -0.1540 -0.1596  0.2574
  945MOL0     C30310   3.400   8.105   9.859 -0.6944  0.5340 -0.0688
  945MOL0     C30311   3.401   8.257   9.849 -0.8852 -0.3871  0.1322
  945MOL0     C30312   3.479   8.327   9.968 -0.9022 -0.3514 -0.3378
  945MOL0     C30313   3.472   8.269  10.107 -0.8243  0.3350 -1.0324
  945MOL0     C30314   3.596   8.248  10.177  0.2085  0.6615  0.0837
  945MOL0     C30315   3.688   8.139  10.119 -0.2768 -0.7664  0.1304
  945MOL0     C30316   3.813   8.127  10.198 -0.7366  1.4699  0.0219
  945MOL0    Cl30317   3.901   8.288  10.227 -0.1337 -0.2421  0.5699
  945MOL0     C30318   3.380   8.117   9.393 -0.7070  0.1855 -0.6373
  945MOL0     C30319   3.456   8.070   9.288 -0.0022 -0.6322  0.0725
  945MOL0     O30320   3.540   7.745   9.148  0.0728  0.1333 -0.5774
  945MOL0     C30321   3.867   7.871   9.081 -0.2525  0.0589 -0.3178
  945MOL0     C30322   3.995   7.855   9.012 -0.1598 -0.3967  0.5876
  945MOL0     N30323   4.204   7.455   8.333  0.6055 -0.6655  0.4727
  945MOL0     N30324   4.237   7.332   8.348 -0.8319  1.6186 -0.3885
  945MOL0     C30325   3.554   6.592   8.954  0.2019 -0.0830 -0.8869
  945MOL0     C30326   3.543   6.474   9.014 -0.0964  0.5982  0.0328
  945MOL0     C30327   3.639   6.101   9.206  0.5263 -0.6878 -1.0295
  945MOL0     C30328   3.754   6.024   9.222  0.1266 -0.3805 -0.1435
  945MOL0     C30329   3.748   5.896   9.274  0.3592  1.3360 -0.1864
  945MOL0     C30330   3.617   5.839   9.301 -0.0860  0.6622  0.0668
  945MOL0     O30331   3.608   5.712   9.358 -0.0884 -1.2026  0.1090
  945MOL0     C30332   3.545   5.616   9.291  0.0587  0.9513  0.3556
  945MOL0     C30333   3.644   5.493   9.280  0.5005 -0.4527 -0.0806
  945MOL0     C30334   3.687   5.453   9.417  0.5639 -0.0352  0.1158
  945MOL0     C30335   3.805   5.361   9.424 -0.2275  0.5501 -0.0625
  945MOL0     C30336   3.809   5.288   9.558  0.6669  0.0652 -0.7551
  945MOL0     C30337   3.811   5.213   9.661  0.6069 -0.3180 -0.5722
  945MOL0     C30338   3.503   5.916   9.270  0.9154  0.1293  0.3976
  945MOL0     C30339   3.511   6.041   9.229  0.4841  0.4488  0.2637
  945MOL0     C30340   3.380   6.123   9.232 -0.5366  0.5942  0.4831
  945MOL0     H30341   3.643   6.555   9.327 -2.6433 -1.5690 -0.1551
  945MOL0     H30342   3.638   6.795   9.210 -2.4882  0.2885  0.1947
  945MOL0     H30343   3.777   6.742   8.859 -2.4819 -0.5252  1.1202
  945MOL0     H30344   3.820   6.868   8.982  0.4188 -0.7850  0.8397
  945MOL0     H30345   3.705   6.884   8.709  1.1973 -1.3249 -0.3827
  945MOL0     H30346   3.700   7.024   8.814 -0.2216 -1.1871 -0.2056
  945MOL0     H30347   3.974   7.001   8.840  2.2737  1.0309 -2.3530
  945MOL0     H30348   3.947   6.870   8.724 -2.1247 -0.5612 -1.4213
  945MOL0     H30349   3.840   7.072   8.583 -1.4552  1.0121  1.3508
  945MOL0     H30350   3.886   7.174   8.720  0.4501  1.0278 -1.0047
  945MOL0     H30351   4.031   7.163   8.506 -0.8138 -2.3451 -0.8723
  945MOL0     H30352   4.097   7.018   8.559 -0.5349  0.8868 -1.8875
  945MOL0     H30353   4.120   7.290   8.704 -0.1846  0.2377 -1.3283
  945MOL0     H30354   4.137   7.139   8.787 -1.7565  3.0492  0.8858
  945MOL0     H30355   4.313   7.076   8.697 -1.0408 -0.3154 -0.6903
  945MOL0     H30356   4.340   7.251   8.720 -0.3380  0.4465 -1.0218
  945MOL0     H30357   4.455   7.172   8.496  0.5458  2.3966 -1.1470
  945MOL0     H30358   4.298   7.112   8.453 -2.8771  2.4228 -0.8529
  945MOL0     H30359   4.406   7.474   8.599  1.8262  2.1314 -2.0779
  945MOL0     H30360   4.202   7.731   8.368 -3.2877 -0.4072  0.7580
  945MOL0     H30361   4.348   7.740   8.460  0.7755  0.1334 -2.1554
  945MOL0     H30362   4.112   7.810   8.541  0.1812 -0.4171 -0.1941
  945MOL0     H30363   4.109   7.639   8.611  0.9560 -0.5939  0.8854
  945MOL0     H30364   4.339   7.672   8.712  1.5809  1.7396 -0.7603
  945MOL0     H30365   4.336   7.843   8.660 -0.3218  0.7494 -0.4035
  945MOL0     H30366   4.259   7.800   8.899 -0.6026 -1.5380  1.1239
  945MOL0     H30367   4.155   7.895   8.782 -0.6687 -0.8370 -1.2872
  945MOL0     H30368   3.901   7.580   8.825 -1.5002  1.2248 -2.7071
  945MOL0     H30369   3.568   7.640   8.938 -0.2925  2.1048 -0.9201
  945MOL0     H30370   3.679   7.493   8.957  1.2413  0.6097  1.8887
  945MOL0     H30371   3.649   7.584   8.806  0.9016  1.0377  0.4896
  945MOL0     H30372   3.686   7.884   9.446  0.1445 -0.4352  1.5032
  945MOL0     H30373   3.557   7.969   9.642  1.4691  0.3429  0.3288
  945MOL0     H30374   3.207   8.059   9.768 -1.0885 -0.6256 -2.8158
  945MOL0     H30375   3.336   7.946   9.725 -2.2185 -0.5059 -0.9056
  945MOL0     H30376   3.356   8.061   9.949 -0.8017  2.0471  0.6363
  945MOL0     H30377   3.503   8.074   9.843 -0.0855  3.1961 -1.9173
  945MOL0     H30378   3.297   8.292   9.851 -0.4790  0.8720 -0.0819
  945MOL0     H30379   3.454   8.290   9.760 -0.4762 -2.5458 -0.4825
  945MOL0     H30380   3.467   8.436   9.976  0.2934 -0.2805  0.8032
  945MOL0     H30381   3.583   8.317   9.937 -0.1436  2.5018  0.9504
  945MOL0     H30382   3.418   8.345  10.165  0.3250  0.4684 -0.0886
  945MOL0     H30383   3.415   8.176  10.110  2.0401 -1.6036 -2.6033
  945MOL0     H30384   3.576   8.212  10.278 -0.6525 -2.8686 -1.2359
  945MOL0     H30385   3.650   8.343  10.180  2.8607 -0.6399 -2.0834
  945MOL0     H30386   3.712   8.164  10.015 -0.2452 -1.2878  0.0079
  945MOL0     H30387   3.642   8.040  10.117 -2.7145  0.2670  0.9716
  945MOL0     H30388   3.871   8.057  10.137  2.0520  1.4118  2.4608
  945MOL0     H30389   3.785   8.076  10.291  1.5425 -2.1025 -1.0712
  945MOL0     H30390   3.318   8.205   9.377  0.6632  1.6449  1.4853
  945MOL0     H30391   3.422   8.100   9.189 -2.2910 -2.1611  0.3033
  945MOL0     H30392   3.867   7.939   9.165  0.5231 -0.8191  0.4173
  945MOL0     H30393   4.078   7.925   9.020 -2.5956  2.9984 -1.4248
  945MOL0     H30394   3.533   6.605   8.848 -0.6076  3.6511 -0.4033
  945MOL0     H30395   3.506   6.385   8.966  2.2947  0.2627 -1.3761
  945MOL0     H30396   3.852   6.071   9.228  1.0808 -1.7563 -3.2246
  945MOL0     H30397   3.838   5.839   9.294  0.0162  0.6205 -0.6625
  945MOL0     H30398   3.448   5.597   9.337  0.7494 -2.3233  0.6686
  945MOL0     H30399   3.519   5.640   9.188  2.4896 -0.6304 -0.7032
  945MOL0     H30400   3.727   5.528   9.218 -0.3931  1.9110 -0.0422
  945MOL0     H30401   3.596   5.405   9.236 -1.1989  1.3621 -2.1450
  945MOL0     H30402   3.703   5.534   9.488 -1.8411 -0.5133  1.3286
  945MOL0     H30403   3.605   5.389   9.455 -0.2814  0.2331 -1.1954
  945MOL0     H30404   3.898   5.417   9.409  0.8608 -1.0966  0.2135
  945MOL0     H30405   3.792   5.282   9.349  0.3497  2.5383 -2.3566
  945MOL0     H30406   3.801   5.132   9.730 -0.4245  0.2152 -0.0811
  945MOL0     H30407   3.407   5.867   9.262 -0.8325  3.4139 -0.7191
  945MOL0     H30408   3.374   6.167   9.132  0.5377  0.6132  0.4150
  945MOL0     H30409   3.289   6.064   9.240 -0.7091  0.9212  0.9383
  945MOL0     H30410   3.381   6.196   9.313 -2.6504  1.0954  0.1116
  946MOL0     O30411   8.493   6.562   5.792 -0.4829 -0.2224 -0.6762
  946MOL0     C30412   8.513   6.442   5.806  0.0994 -0.9429 -2.1325
  946MOL0     O30413   8.422   6.351   5.843  0.2607  0.3122 -0.1529
  946MOL0     C30414   8.294   6.398   5.845 -0.3264 -0.2067  0.0361
  946MOL0     C30415   8.203   6.339   5.756  0.3212  0.5008  0.7887
  946MOL0     C30416   8.068   6.363   5.757 -0.9032 -0.3818 -0.4366
  946MOL0     C30417   8.010   6.450   5.855  1.1614  0.4297  0.3734
  946MOL0     O30418   7.877   6.459   5.857 -0.1477  0.7313  0.1540
  946MOL0     C30419   7.823   6.550   5.952 -0.0897 -0.7534  0.5562
  946MOL0     C30420   7.673   6.535   5.911 -0.0102  0.6466 -0.2813
  946MOL0     C30421   7.583   6.627   5.997  0.0483  0.6564  0.0086
  946MOL0     C30422   7.450   6.656   5.916  0.6896  0.3622  0.4469
  946MOL0     C30423   7.358   6.749   5.996  0.4486 -0.6584 -0.6038
  946MOL0     C30424   7.214   6.730   5.967  0.8922  0.1268 -0.2167
  946MOL0     C30425   7.115   6.832   6.025  0.3725  0.7592  0.6646
  946MOL0     C30426   7.142   6.983   5.987  0.2683  0.3800 -0.4544
  946MOL0     N30427   7.021   7.050   5.933  1.2067  0.5834 -0.1966
  946MOL0     C30428   6.951   7.036   5.813  0.1207  0.1809  0.3482
  946MOL0     C30429   6.830   7.109   5.825 -0.0122 -0.7998  0.7852
  946MOL0     C30430   6.720   7.112   5.728 -0.0601 -0.1791 -0.8927
  946MOL0     C30431   6.688   7.253   5.699  0.2584 -0.7544  0.7898
  946MOL0     C30432   6.580   7.266   5.585  0.5697  0.4693 -0.4339
  946MOL0     C30433   6.553   7.411   5.536 -0.3217 -0.5547  0.4018
  946MOL0     O30434   6.506   7.484   5.642 -0.1940 -0.2135  1.2758
  946MOL0     C30435   6.585   7.585   5.689  0.8726 -0.1435  0.2572
  946MOL0     C30436   6.601   7.694   5.602 -0.0424 -0.8772 -0.1312
  946MOL0     C30437   6.673   7.800   5.650 -1.2590 -0.1812  0.8515
  946MOL0     C30438   6.692   7.909   5.546 -0.9558  0.4371 -1.9865
  946MOL0     C30439   6.727   7.805   5.782  0.1292 -0.5532  0.1670
  946MOL0     C30440   6.800   7.917   5.833 -0.7854 -0.4173  0.2863
  946MOL0     O30441   6.854   8.012   5.753 -0.4844 -0.6489  0.4403
  946MOL0     C30442   6.895   8.138   5.794 -0.3244 -0.3623 -0.4369
  946MOL0     C30443   6.909   8.183   5.929  0.0233  0.5481  0.8092
  946MOL0     C30444   6.962   8.309   5.945 -0.2205 -0.0716  0.8313
  946MOL0     C30445   7.008   8.388   5.841 -0.3221 -0.2167 -0.5173
  946MOL0     O30446   7.072   8.505   5.841 -0.7742  0.1018  0.1787
  946MOL0     C30447   7.110   8.568   5.959 -0.1371 -0.1881 -0.1124
  946MOL0     C30448   6.994   8.650   6.021 -0.4487  0.0488  0.7597
  946MOL0     C30449   7.044   8.747   6.129 -0.3264 -0.0594  0.1501
  946MOL0     C30450   6.923   8.790   6.208  0.2416 -0.7184 -0.3662
  946MOL0     C30451   6.927   8.784   6.354 -0.2762  0.3506  0.2485
  946MOL0     C30452   6.794   8.782   6.431  0.1654 -0.0472 -0.3915
  946MOL0     C30453   6.821   8.818   6.580 -0.1479 -0.0846  0.4099
  946MOL0     C30454   6.718   8.906   6.627 -0.2257  0.5369  0.0901
  946MOL0    Cl30455   6.769   8.988   6.786 -0.0717  0.1698  0.4841
  946MOL0     C30456   6.986   8.346   5.709 -0.5331 -0.4210  0.5709
  946MOL0     C30457   6.936   8.219   5.686  0.7838 -0.1104 -0.0746
  946MOL0     O30458   6.817   7.917   5.950  0.6585  0.2973  0.2214
  946MOL0     C30459   6.706   7.694   5.869 -0.1078  0.0007  0.0460
  946MOL0     C30460   6.630   7.588   5.822 -0.2698 -0.2080 -0.5333
  946MOL0     N30461   6.835   7.186   5.941 -1.4354  0.6834  0.1354
  946MOL0     N30462   6.949   7.145   6.003 -0.1996  0.3797  0.4346
  946MOL0     C30463   8.101   6.502   5.948 -0.6097 -0.2245 -0.5081
  946MOL0     C30464   8.241   6.486   5.943 -1.8859  0.6565  0.1724
  946MOL0     C30465   8.654   6.400   5.812  0.0484 -0.4677  1.1368
  946MOL0     C30466   8.681   6.269   5.787  0.6550  0.4510  0.9697
  946MOL0     C30467   8.800   6.207   5.779  0.2152 -0.2584  1.6176
  946MOL0     C30468   8.910   6.284   5.801  0.0551 -1.3378 -0.6290
  946MOL0     O30469   9.029   6.216   5.805  0.1542  0.4385 -0.1125
  946MOL0     C30470   9.149   6.287   5.780 -0.0262  0.0205  0.1213
  946MOL0     C30471   9.249   6.177   5.753 -0.3424 -0.5062 -0.3007
  946MOL0     C30472   9.373   6.209   5.672 -1.1400 -0.4003  0.5858
  946MOL0     C30473   9.459   6.303   5.754  0.0317 -0.0623 -0.2439
  946MOL0     C30474   9.485   6.424   5.682 -1.1096  0.2830 -0.1779
  946MOL0     C30475   9.533   6.515   5.615  0.8199 -0.9140  0.9280
  946MOL0     C30476   8.893   6.414   5.839 -0.7011  0.7822 -0.6723
  946MOL0     C30477   8.766   6.478   5.839  0.3439 -0.0245 -1.8358
  946MOL0     C30478   8.756   6.628   5.886  0.3369 -0.1644  0.3773
  946MOL0     H30479   8.245   6.273   5.680 -1.7238  1.3924 -1.2640
  946MOL0     H30480   8.005   6.322   5.678 -0.3997  0.5232 -1.3306
  946MOL0     H30481   7.854   6.651   5.924  0.4346 -1.2853 -0.8746
  946MOL0     H30482   7.851   6.516   6.052  2.1452  0.4114  0.3681
  946MOL0     H30483   7.661   6.545   5.803  1.9017 -2.0455 -0.8284
  946MOL0     H30484   7.653   6.430   5.934 -0.0859  0.2137 -2.1503
  946MOL0     H30485   7.549   6.569   6.083  1.5083  1.0360  0.8782
  946MOL0     H30486   7.643   6.715   6.023 -0.6962  0.2698  3.4825
  946MOL0     H30487   7.469   6.709   5.822 -2.4935  1.1500  0.1408
  946MOL0     H30488   7.398   6.561   5.902  2.3629 -0.6701  0.9777
  946MOL0     H30489   7.386   6.853   5.978 -2.0257  0.2560  0.4705
  946MOL0     H30490   7.367   6.733   6.104 -2.2093 -1.0195 -0.3677
  946MOL0     H30491   7.194   6.732   5.860 -0.4665 -3.1248 -0.1228
  946MOL0     H30492   7.182   6.634   6.008  2.6913  0.3933  1.9924
  946MOL0     H30493   7.107   6.817   6.133  1.9460 -0.9115  0.5952
  946MOL0     H30494   7.016   6.812   5.985  0.2350 -0.4638  1.5485
  946MOL0     H30495   7.194   7.028   6.072  2.2305 -4.6267  1.3729
  946MOL0     H30496   7.213   6.990   5.905  2.8831  0.2071  1.6386
  946MOL0     H30497   6.994   6.977   5.732 -0.2216  0.1523  0.1834
  946MOL0     H30498   6.638   7.055   5.773  1.1164  0.8722  3.0654
  946MOL0     H30499   6.760   7.061   5.640  0.2308 -0.1535 -0.7761
  946MOL0     H30500   6.651   7.302   5.789  3.0205 -1.1472  2.2528
  946MOL0     H30501   6.779   7.295   5.656 -1.7206  1.3181 -1.7606
  946MOL0     H30502   6.610   7.203   5.500 -0.4294 -2.3498  1.1892
  946MOL0     H30503   6.487   7.223   5.622 -0.3075 -0.1567 -3.1667
  946MOL0     H30504   6.643   7.454   5.494 -1.7954  2.7825  0.3550
  946MOL0     H30505   6.481   7.417   5.454 -0.3370 -2.3972  0.2273
  946MOL0     H30506   6.572   7.689   5.497  2.3046 -0.5582 -0.8630
  946MOL0     H30507   6.623   7.911   5.461 -1.2553 -1.6230 -1.8342
  946MOL0     H30508   6.794   7.918   5.508 -1.1169  3.3079 -2.0165
  946MOL0     H30509   6.670   8.001   5.602  1.7745 -0.3603  0.6688
  946MOL0     H30510   6.882   8.129   6.019  0.3237  2.2302  1.9664
  946MOL0     H30511   6.974   8.350   6.045  1.3609  0.6117  0.4020
  946MOL0     H30512   7.120   8.494   6.039  1.6584 -0.3685 -0.4794
  946MOL0     H30513   7.206   8.620   5.952  1.5268 -2.6809  2.1543
  946MOL0     H30514   6.941   8.705   5.943  3.1236  0.4878 -1.6386
  946MOL0     H30515   6.923   8.576   6.058  1.0163 -3.7019 -3.1276
  946MOL0     H30516   7.093   8.837   6.090  2.3421 -0.5600  2.1181
  946MOL0     H30517   7.120   8.705   6.195  0.4727 -2.2841 -2.0240
  946MOL0     H30518   6.830   8.739   6.180 -0.4257  1.2137 -1.8993
  946MOL0     H30519   6.893   8.889   6.170 -1.6682 -1.5550 -1.1753
  946MOL0     H30520   6.981   8.691   6.373 -0.4737  0.3767  0.9543
  946MOL0     H30521   6.974   8.881   6.376  0.1572  0.6676 -1.8462
  946MOL0     H30522   6.762   8.677   6.430  0.6349 -0.2270  1.1662
  946MOL0     H30523   6.722   8.850   6.385 -0.6131  1.5258  2.8852
  946MOL0     H30524   6.919   8.865   6.594 -1.1777  2.0823  0.8638
  946MOL0     H30525   6.826   8.730   6.644 -0.9230  0.2916  1.0012
  946MOL0     H30526   6.619   8.860   6.632 -0.5505  1.3294  1.4906
  946MOL0     H30527   6.702   8.978   6.547 -2.4729  0.4293  0.3757
  946MOL0     H30528   7.024   8.406   5.627  0.5442 -1.8664 -0.0184
  946MOL0     H30529   6.930   8.180   5.585 -1.1277  0.6760 -0.3080
  946MOL0     H30530   6.741   7.688   5.972  0.8235  0.0600 -0.2553
  946MOL0     H30531   6.598   7.503   5.880 -0.3739 -1.2561 -2.0664
  946MOL0     H30532   8.066   6.559   6.033 -0.2107 -0.3183 -0.2770
  946MOL0     H30533   8.307   6.531   6.015  1.9429 -1.3015 -1.7953
  946MOL0     H30534   8.595   6.207   5.762  1.0798  0.5333 -0.8012
  946MOL0     H30535   8.811   6.101   5.758 -1.8337 -0.2222  0.0576
  946MOL0     H30536   9.140   6.351   5.692 -1.3723  1.0374  0.9658
  946MOL0     H30537   9.170   6.366   5.853 -0.6815  0.0236  0.3172
  946MOL0     H30538   9.191   6.107   5.692 -2.7186  0.4884  0.6733
  946MOL0     H30539   9.265   6.127   5.849  0.4655 -2.6690 -1.4921
  946MOL0     H30540   9.426   6.118   5.645 -1.3024 -1.1510  2.5994
  946MOL0     H30541   9.339   6.253   5.578 -1.5596 -3.3124 -0.7034
  946MOL0     H30542   9.558   6.259   5.770  0.3355  1.2107  1.6959
  946MOL0     H30543   9.426   6.338   5.853  3.0876  1.0632  0.4961
  946MOL0     H30544   9.558   6.611   5.574 -3.0182  1.1214  2.7663
  946MOL0     H30545   8.973   6.473   5.882 -0.7741  1.3607 -1.3054
  946MOL0     H30546   8.824   6.647   5.970 -0.4957 -0.4628  1.1452
  946MOL0     H30547   8.779   6.684   5.795 -1.3183  1.1594  0.7221
  946MOL0     H30548   8.658   6.656   5.926  0.6544  0.9881  0.3973
  947MOL0     O30549   9.942   6.194   6.940 -0.7031  0.8496 -0.3283
  947MOL0     C30550   9.878   6.176   6.832 -0.6431 -0.1471 -0.3111
  947MOL0     O30551   9.917   6.213   6.708 -0.3691  0.7747 -0.3072
  947MOL0     C30552  10.048   6.206   6.677  0.5059 -0.3754 -0.2706
  947MOL0     C30553  10.110   6.109   6.595  0.2693 -0.8001 -0.2114
  947MOL0     C30554  10.249   6.121   6.552 -0.2194  0.2896 -0.5186
  947MOL0     C30555  10.325   6.229   6.598  0.2153  1.0354 -0.1158
  947MOL0     O30556  10.462   6.229   6.568  0.2421  0.1991 -0.5332
  947MOL0     C30557  10.508   6.366   6.545  0.5093  0.4363  0.0705
  947MOL0     C30558  10.658   6.340   6.524  0.3359  1.1532  0.5874
  947MOL0     C30559  10.741   6.460   6.489  1.2001 -0.1341  0.1348
  947MOL0     C30560  10.876   6.419   6.424  0.0816 -0.1816 -0.4438
  947MOL0     C30561  10.933   6.522   6.321  0.0610 -0.3218 -0.1951
  947MOL0     C30562  10.976   6.645   6.403 -0.0707 -1.0368 -0.4510
  947MOL0     C30563  11.040   6.623   6.533 -0.1016 -0.4303 -0.1135
  947MOL0     C30564  11.106   6.744   6.585  0.2540 -0.5399  0.1029
  947MOL0     N30565  10.999   6.813   6.661 -0.3282  0.0443  0.3301
  947MOL0     C30566  11.012   6.840   6.798 -0.6492 -0.9644 -0.4495
  947MOL0     C30567  10.909   6.920   6.823  0.5403 -0.2345 -0.2175
  947MOL0     C30568  10.852   6.975   6.944 -0.0036  0.2756  0.1925
  947MOL0     C30569  10.951   7.074   7.014 -0.3426  0.6548  0.1027
  947MOL0     C30570  10.911   7.183   7.105  0.5685 -0.4647  0.2453
  947MOL0     C30571  10.840   7.137   7.234  0.3877 -0.5115  0.2516
  947MOL0     O30572  10.715   7.068   7.218  0.3272  0.0264 -0.7817
  947MOL0     C30573  10.663   7.007   7.336 -0.7108 -0.9271 -0.1628
  947MOL0     C30574  10.720   7.028   7.458  0.8381  0.0402 -0.0549
  947MOL0     C30575  10.653   6.975   7.570 -0.2458 -1.0183 -0.0626
  947MOL0     C30576  10.718   6.991   7.700  0.1964  1.1510  0.3276
  947MOL0     C30577  10.532   6.901   7.558 -0.3369  1.7602  0.1600
  947MOL0     C30578  10.449   6.846   7.667  0.6057  0.1043 -0.5487
  947MOL0     O30579  10.413   6.709   7.667  1.3086 -0.2873 -0.3482
  947MOL0     C30580  10.332   6.664   7.764 -0.2397 -0.1418  0.3797
  947MOL0     C30581  10.195   6.668   7.754  0.3400 -0.7643 -0.1624
  947MOL0     C30582  10.101   6.637   7.855 -1.1954  0.2084  0.2035
  947MOL0     C30583  10.152   6.584   7.978 -0.0351  0.4402  0.2975
  947MOL0     O30584  10.075   6.529   8.085  0.1000 -0.7483 -0.0722
  947MOL0     C30585  10.075   6.620   8.199 -0.0747  0.3568  0.7231
  947MOL0     C30586   9.924   6.626   8.247 -0.3250 -0.0660  0.5587
  947MOL0     C30587   9.824   6.657   8.130 -0.4268 -1.1125 -0.1873
  947MOL0     C30588   9.683   6.649   8.177 -0.0888 -1.2106 -0.2849
  947MOL0     C30589   9.580   6.689   8.077  0.3821 -0.0518 -0.0346
  947MOL0     C30590   9.443   6.607   8.085 -0.3951  0.3635 -0.6909
  947MOL0     C30591   9.371   6.648   8.219 -0.3650  0.4242 -0.1474
  947MOL0     C30592   9.242   6.564   8.235  0.3406  0.1839 -0.3362
  947MOL0    Cl30593   9.125   6.630   8.125  0.4415  0.0792 -0.0750
  947MOL0     C30594  10.291   6.571   7.983 -0.0901 -1.1559  1.0346
  947MOL0     C30595  10.385   6.606   7.877  0.4780  0.7617 -0.6297
  947MOL0     O30596  10.403   6.932   7.742  0.8301 -0.2066 -1.1933
  947MOL0     C30597  10.476   6.874   7.428  0.2846  0.1775 -0.0218
  947MOL0     C30598  10.547   6.927   7.322 -0.1563  0.1517  0.0453
  947MOL0     N30599  10.840   6.942   6.700  0.6427  0.6106 -0.0592
  947MOL0     N30600  10.893   6.878   6.609  0.0048  0.3133 -0.1364
  947MOL0     C30601  10.261   6.318   6.690  0.0463  0.2620  0.1084
  947MOL0     C30602  10.128   6.310   6.721  0.1895 -0.2977  0.0083
  947MOL0     C30603   9.753   6.090   6.843  0.1740  0.0566  0.2463
  947MOL0     C30604   9.680   6.050   6.722  0.3367  0.1811  0.3556
  947MOL0     C30605   9.578   5.965   6.730  0.6795 -0.7949  0.1104
  947MOL0     C30606   9.519   5.929   6.843 -0.7908 -0.2875 -1.0171
  947MOL0     O30607   9.407   5.852   6.840  0.5138 -0.0183  0.8113
  947MOL0     C30608   9.294   5.880   6.750  0.1622 -0.5362 -0.4071
  947MOL0     C30609   9.162   5.840   6.829 -0.0738  0.0777  0.9343
  947MOL0     C30610   9.126   5.696   6.852 -0.0876  1.1362  0.4151
  947MOL0     C30611   9.063   5.681   6.986  0.5406  0.2591 -0.9083
  947MOL0     C30612   8.935   5.749   6.983 -1.1621 -0.4027 -0.0120
  947MOL0     C30613   8.823   5.800   6.969 -0.0034 -0.7282 -0.6462
  947MOL0     C30614   9.581   5.962   6.961 -0.2978 -0.6492 -0.5774
  947MOL0     C30615   9.693   6.043   6.968  0.2130 -0.7228 -1.4150
  947MOL0     C30616   9.747   6.081   7.112 -0.5696 -1.6258  0.6404
  947MOL0     H30617  10.049   6.023   6.568  1.9129 -1.1062 -3.3445
  947MOL0     H30618  10.292   6.042   6.491 -1.7317  0.0364 -1.2863
  947MOL0     H30619  10.499   6.433   6.630  2.9972  0.0749  0.6990
  947MOL0     H30620  10.467   6.408   6.453 -1.3436  1.5630  1.3624
  947MOL0     H30621  10.711   6.290   6.606  3.7960 -1.3929 -2.8291
  947MOL0     H30622  10.662   6.270   6.440 -1.2683 -2.8740  3.5193
  947MOL0     H30623  10.685   6.522   6.419 -0.9029  0.0069  1.8426
  947MOL0     H30624  10.759   6.519   6.580 -2.2977  3.7664 -1.4007
  947MOL0     H30625  10.955   6.397   6.497  1.7686  2.7375 -1.2315
  947MOL0     H30626  10.854   6.338   6.354 -0.4931  0.0258 -0.5039
  947MOL0     H30627  10.865   6.539   6.237  0.2792 -0.5087 -0.4143
  947MOL0     H30628  11.022   6.475   6.278 -0.1968  0.6308 -1.8571
  947MOL0     H30629  11.046   6.706   6.346 -1.0328 -0.1100 -0.6721
  947MOL0     H30630  10.891   6.710   6.424  1.6245  0.7941  1.0792
  947MOL0     H30631  11.110   6.540   6.526 -0.5023 -0.9391  1.4547
  947MOL0     H30632  10.960   6.596   6.602  0.0917 -1.9289 -0.4587
  947MOL0     H30633  11.196   6.723   6.644  0.9287  4.0079  0.9918
  947MOL0     H30634  11.132   6.813   6.505 -2.7784  2.1924  1.2701
  947MOL0     H30635  11.094   6.816   6.864 -1.3046 -0.3680  0.6047
  947MOL0     H30636  10.810   6.898   7.009  2.2803  0.3101  1.7981
  947MOL0     H30637  10.761   7.030   6.916  1.3182  1.7501 -1.4235
  947MOL0     H30638  11.019   7.007   7.067  1.1162  0.8263 -1.5037
  947MOL0     H30639  11.015   7.129   6.945 -2.5137  1.4777 -1.3681
  947MOL0     H30640  11.003   7.236   7.131  0.4348  1.0660 -2.0647
  947MOL0     H30641  10.848   7.255   7.051 -0.9891 -2.4220 -0.6739
  947MOL0     H30642  10.911   7.080   7.295 -0.9148 -0.0696  2.2785
  947MOL0     H30643  10.821   7.223   7.297 -1.0948  1.0297 -2.1265
  947MOL0     H30644  10.809   7.083   7.485  1.2628 -0.8939  0.5053
  947MOL0     H30645  10.748   7.094   7.723  0.3068  1.5772 -1.5541
  947MOL0     H30646  10.804   6.927   7.676 -2.6760 -2.3478 -1.6078
  947MOL0     H30647  10.660   6.953   7.784  1.2576  0.9510  0.9901
  947MOL0     H30648  10.154   6.694   7.657 -1.2206 -0.1733  0.6201
  947MOL0     H30649   9.997   6.658   7.834 -1.4656 -0.1245  1.1855
  947MOL0     H30650  10.147   6.578   8.271  0.5397  0.4309  0.1564
  947MOL0     H30651  10.093   6.724   8.170 -0.4484 -0.4888 -2.9061
  947MOL0     H30652   9.907   6.526   8.287 -0.6052  0.2875  1.3470
  947MOL0     H30653   9.919   6.702   8.326 -0.4345  1.2317 -0.6503
  947MOL0     H30654   9.848   6.587   8.049  2.7994 -0.3101 -0.0599
  947MOL0     H30655   9.842   6.760   8.099 -1.5791 -1.3171 -1.6004
  947MOL0     H30656   9.681   6.718   8.262 -1.8961  2.7588 -3.2389
  947MOL0     H30657   9.658   6.546   8.204 -1.4585 -0.1829  2.8989
  947MOL0     H30658   9.563   6.797   8.077  2.0714  0.2300  0.9069
  947MOL0     H30659   9.630   6.670   7.981  1.3701 -1.4763  0.7298
  947MOL0     H30660   9.471   6.502   8.077  2.0445  0.6354  2.3437
  947MOL0     H30661   9.374   6.635   8.005 -2.3771 -0.9812  0.4902
  947MOL0     H30662   9.363   6.757   8.216 -2.4385  0.3241  0.0029
  947MOL0     H30663   9.427   6.613   8.306  1.5885 -1.1447 -1.9550
  947MOL0     H30664   9.207   6.568   8.339  0.5241 -1.1144 -0.2136
  947MOL0     H30665   9.253   6.459   8.209 -1.9154 -0.0209 -0.6501
  947MOL0     H30666  10.335   6.528   8.073  0.4463 -3.4792 -0.2436
  947MOL0     H30667  10.490   6.590   7.900 -0.2665 -0.4944  2.5279
  947MOL0     H30668  10.385   6.815   7.421  0.5717 -0.1391 -1.3765
  947MOL0     H30669  10.507   6.919   7.221  2.4110  2.4967 -1.3065
  947MOL0     H30670  10.325   6.393   6.735  0.3418 -1.0581  2.0273
  947MOL0     H30671  10.080   6.387   6.780 -0.8582 -2.7215  2.5287
  947MOL0     H30672   9.705   6.090   6.624  0.6970 -2.4896 -0.7048
  947MOL0     H30673   9.535   5.940   6.634  0.0026  1.0226 -0.0990
  947MOL0     H30674   9.302   5.978   6.702  1.3340 -0.4333 -0.0151
  947MOL0     H30675   9.308   5.807   6.670  1.3877 -0.3599 -0.3629
  947MOL0     H30676   9.081   5.886   6.772  1.2048  0.0809 -0.9482
  947MOL0     H30677   9.178   5.885   6.928  3.6323 -1.2437  1.0801
  947MOL0     H30678   9.065   5.652   6.773  0.2471  2.1034 -0.4031
  947MOL0     H30679   9.221   5.642   6.850 -0.9193 -0.3866  0.2510
  947MOL0     H30680   9.128   5.723   7.063  2.3528 -0.8741 -1.7478
  947MOL0     H30681   9.072   5.574   7.008  1.7615  0.5550  0.1315
  947MOL0     H30682   8.742   5.856   6.925  0.4090 -0.0294 -0.5360
  947MOL0     H30683   9.532   5.923   7.050  3.0792 -0.2983  1.6275
  947MOL0     H30684   9.849   6.042   7.116  1.5028  3.1982  2.1050
  947MOL0     H30685   9.758   6.189   7.119 -0.0991 -1.5307 -1.0042
  947MOL0     H30686   9.694   6.040   7.199 -0.6739 -1.8558  0.4715
  948MOL0     O30687   1.611   1.024   2.733  0.3889  0.6317 -0.0253
  948MOL0     C30688   1.527   0.986   2.655  0.3933  0.1654 -0.1145
  948MOL0     O30689   1.424   1.071   2.609 -0.4500  0.3461 -0.4309
  948MOL0     C30690   1.429   1.202   2.643 -0.5609  0.4156  0.0754
  948MOL0     C30691   1.519   1.277   2.567  0.5492 -0.4473  0.4735
  948MOL0     C30692   1.523   1.414   2.589  0.0067 -0.9474 -0.3380
  948MOL0     C30693   1.441   1.478   2.680  1.2369 -0.4806  0.4562
  948MOL0     O30694   1.470   1.611   2.693 -0.3651  0.0732  0.1586
  948MOL0     C30695   1.372   1.684   2.769  0.5852  0.4428 -0.6041
  948MOL0     C30696   1.375   1.829   2.755 -1.0666  0.4091 -0.6090
  948MOL0     C30697   1.368   1.880   2.616  0.3372 -0.2481  0.4636
  948MOL0     C30698   1.352   2.029   2.617  0.7387 -0.8038  0.5826
  948MOL0     C30699   1.292   2.073   2.483  0.1485 -0.2948  0.3203
  948MOL0     C30700   1.246   2.219   2.473  0.2338 -0.1153 -0.1482
  948MOL0     C30701   1.203   2.252   2.326  0.5727  1.0603  0.5476
  948MOL0     C30702   1.309   2.201   2.222 -0.9055  0.3094  0.1787
  948MOL0     N30703   1.295   2.276   2.096  0.5281 -0.2246  0.7934
  948MOL0     C30704   1.315   2.414   2.080 -0.0813  0.2342 -0.1984
  948MOL0     C30705   1.260   2.451   1.962 -0.1994  0.3423 -0.3325
  948MOL0     C30706   1.276   2.593   1.915 -0.0379  0.8794  0.3955
  948MOL0     C30707   1.355   2.609   1.780  0.3042  0.3131 -1.0669
  948MOL0     C30708   1.374   2.757   1.762 -0.1394 -0.2951  0.5661
  948MOL0     C30709   1.448   2.793   1.630  0.6703  0.2561 -0.0792
  948MOL0     O30710   1.447   2.935   1.620  0.0210 -0.1305 -0.1829
  948MOL0     C30711   1.517   2.986   1.519 -0.7624  1.6656  0.7656
  948MOL0     C30712   1.455   3.060   1.417 -0.1080 -0.0932 -0.7545
  948MOL0     C30713   1.530   3.137   1.324 -0.1871 -0.2813  0.6283
  948MOL0     C30714   1.437   3.231   1.237  0.4356  0.4677  0.0055
  948MOL0     C30715   1.670   3.126   1.325  0.8246 -0.3010 -0.7419
  948MOL0     C30716   1.748   3.177   1.214 -1.4609  0.4828 -0.7429
  948MOL0     O30717   1.878   3.200   1.243  0.1642  0.0703 -0.4855
  948MOL0     C30718   1.959   3.246   1.141 -0.4689  0.7825 -0.4585
  948MOL0     C30719   1.968   3.378   1.117  0.1486 -0.6994  0.3172
  948MOL0     C30720   2.048   3.421   1.021  0.2732 -0.5909  1.7209
  948MOL0     C30721   2.128   3.338   0.946 -0.0781  0.4923  0.2611
  948MOL0     O30722   2.206   3.382   0.846  0.4052  0.3040  0.1347
  948MOL0     C30723   2.304   3.293   0.786  0.8410 -0.2211 -0.5117
  948MOL0     C30724   2.391   3.392   0.704  0.7950  0.1489  0.6180
  948MOL0     C30725   2.489   3.323   0.623 -1.0810 -0.0188 -0.6410
  948MOL0     C30726   2.559   3.429   0.536 -0.1309 -0.1784 -0.6141
  948MOL0     C30727   2.658   3.367   0.432  0.5851  0.4662 -0.2611
  948MOL0     C30728   2.700   3.477   0.329 -0.5348 -0.0471 -0.2597
  948MOL0     C30729   2.721   3.426   0.186 -1.1802  0.5387  0.1525
  948MOL0     C30730   2.820   3.517   0.116  0.4590 -1.3352 -0.0508
  948MOL0    Cl30731   2.978   3.494   0.206  0.4859 -0.2916 -0.1788
  948MOL0     C30732   2.115   3.205   0.967  1.3757  0.8014 -0.9407
  948MOL0     C30733   2.030   3.150   1.067 -0.6537  0.5504  0.2344
  948MOL0     O30734   1.697   3.203   1.101  0.1709  0.1055  0.3399
  948MOL0     C30735   1.731   3.048   1.423  1.2138  0.0759  0.3292
  948MOL0     C30736   1.657   2.974   1.517  0.4232 -0.0306  0.0276
  948MOL0     N30737   1.213   2.336   1.909  0.1901  0.1468  0.3656
  948MOL0     N30738   1.238   2.235   1.986  0.6421  0.5498  0.3356
  948MOL0     C30739   1.340   1.402   2.741  0.3879 -0.1309  0.8531
  948MOL0     C30740   1.337   1.260   2.721  1.0014 -0.5449  0.2574
  948MOL0     C30741   1.526   0.846   2.619  0.0413 -0.6865 -0.6711
  948MOL0     C30742   1.404   0.795   2.597 -0.5242 -0.5148  0.1559
  948MOL0     C30743   1.380   0.654   2.594  0.8743  0.4494 -0.2638
  948MOL0     C30744   1.479   0.564   2.619 -0.4284  0.4372 -0.2733
  948MOL0     O30745   1.441   0.431   2.643 -0.2035 -0.5084  0.4939
  948MOL0     C30746   1.540   0.343   2.696  0.4909 -0.2198  0.7660
  948MOL0     C30747   1.569   0.384   2.833 -0.4396  0.2243  0.2088
  948MOL0     C30748   1.627   0.265   2.916  0.0859 -0.0102 -0.1672
  948MOL0     C30749   1.674   0.307   3.059  0.0746  0.5010 -0.1333
  948MOL0     C30750   1.560   0.346   3.144  0.1124  0.4332 -0.1748
  948MOL0     C30751   1.461   0.383   3.218 -0.3338 -0.5506  0.3584
  948MOL0     C30752   1.611   0.615   2.633 -0.7208 -0.8418  0.3320
  948MOL0     C30753   1.639   0.759   2.635 -1.0613  0.9689 -0.8909
  948MOL0     C30754   1.780   0.813   2.659 -0.5199  0.3668 -0.1951
  948MOL0     H30755   1.591   1.235   2.498 -1.6758 -0.8642 -1.7471
  948MOL0     H30756   1.597   1.470   2.533 -1.8537  2.1014  0.0270
  948MOL0     H30757   1.377   1.661   2.876 -2.0329  1.8557 -0.0959
  948MOL0     H30758   1.272   1.648   2.744  0.4336 -0.0169  0.5799
  948MOL0     H30759   1.296   1.870   2.819  1.0074  1.9843  1.0343
  948MOL0     H30760   1.472   1.864   2.790 -1.2533  0.4724 -0.1442
  948MOL0     H30761   1.467   1.858   2.575  1.6715  0.1435  3.2395
  948MOL0     H30762   1.287   1.825   2.566  0.4260 -0.5632  0.6585
  948MOL0     H30763   1.284   2.073   2.690 -0.7817  3.7063 -3.0258
  948MOL0     H30764   1.445   2.086   2.629  1.8103 -2.5567  0.9492
  948MOL0     H30765   1.202   2.017   2.456  0.5652 -1.8566  1.9525
  948MOL0     H30766   1.361   2.049   2.402 -0.5554 -3.1466  0.4799
  948MOL0     H30767   1.167   2.232   2.548  0.9556  2.7129  0.2115
  948MOL0     H30768   1.327   2.288   2.496 -0.4365  0.8915 -0.7248
  948MOL0     H30769   1.208   2.361   2.323  5.5099  1.0581  1.0120
  948MOL0     H30770   1.105   2.208   2.301  1.2513 -0.0871 -0.1845
  948MOL0     H30771   1.410   2.218   2.259 -1.5838  1.7807  1.5258
  948MOL0     H30772   1.303   2.098   2.187 -1.5625  0.4490 -0.1354
  948MOL0     H30773   1.366   2.488   2.142 -0.7331  2.3288 -2.0144
  948MOL0     H30774   1.329   2.637   1.999 -2.3174  0.5855  2.0816
  948MOL0     H30775   1.176   2.635   1.898  0.0495  0.8611 -0.1797
  948MOL0     H30776   1.449   2.554   1.792 -1.5936 -2.7950  1.1640
  948MOL0     H30777   1.289   2.565   1.705  0.8816 -4.1892  0.7612
  948MOL0     H30778   1.286   2.820   1.765  0.9444  2.0263 -4.7051
  948MOL0     H30779   1.436   2.776   1.850  1.3811  0.4095 -0.6022
  948MOL0     H30780   1.545   2.743   1.629 -0.7912 -2.8625 -0.0889
  948MOL0     H30781   1.399   2.752   1.541  1.5919  1.9032 -1.3873
  948MOL0     H30782   1.347   3.067   1.418 -0.5264 -4.3482  0.2829
  948MOL0     H30783   1.352   3.260   1.299 -0.1125 -1.7177  0.3562
  948MOL0     H30784   1.397   3.179   1.150 -0.5661  1.1129  0.0607
  948MOL0     H30785   1.504   3.315   1.215  1.9261  0.0720  2.5891
  948MOL0     H30786   1.900   3.450   1.161 -1.0446 -2.0475  0.7475
  948MOL0     H30787   2.057   3.528   1.007  0.0467 -0.6075  1.4503
  948MOL0     H30788   2.356   3.244   0.869  0.1052  2.1070  1.4524
  948MOL0     H30789   2.249   3.219   0.727  4.8638 -4.1041  0.0598
  948MOL0     H30790   2.318   3.453   0.649 -0.5071 -1.5548  0.3346
  948MOL0     H30791   2.434   3.470   0.767 -0.0879  2.5766 -1.5796
  948MOL0     H30792   2.447   3.243   0.560  0.3415  0.5139 -2.3705
  948MOL0     H30793   2.557   3.274   0.693 -3.4208  0.8296  2.4501
  948MOL0     H30794   2.618   3.487   0.608 -0.4279 -1.8111  1.0236
  948MOL0     H30795   2.488   3.489   0.478 -2.8045  0.8413  3.3357
  948MOL0     H30796   2.740   3.328   0.494 -1.0754  1.5186  2.8099
  948MOL0     H30797   2.601   3.286   0.386 -2.6669  1.9581  0.8562
  948MOL0     H30798   2.790   3.521   0.371 -1.1232 -0.6347  1.7766
  948MOL0     H30799   2.619   3.550   0.320  0.2758  1.0479  1.0127
  948MOL0     H30800   2.633   3.420   0.121  0.5158 -2.4590 -2.0950
  948MOL0     H30801   2.755   3.322   0.183  2.2063  1.4636  1.5404
  948MOL0     H30802   2.785   3.620   0.123  1.1715 -1.0883 -0.0346
  948MOL0     H30803   2.834   3.497   0.009  1.0840 -1.9296  0.1282
  948MOL0     H30804   2.166   3.133   0.905 -0.6512 -0.9717 -0.6375
  948MOL0     H30805   2.012   3.048   1.099  1.0234  0.0569 -0.3435
  948MOL0     H30806   1.839   3.034   1.415  1.2532 -0.2213  1.3377
  948MOL0     H30807   1.707   2.903   1.583  1.9654  1.3232  0.3820
  948MOL0     H30808   1.263   1.438   2.807 -0.9718 -0.6731 -0.3713
  948MOL0     H30809   1.260   1.202   2.771  2.0031  0.3586  3.0519
  948MOL0     H30810   1.318   0.859   2.607  0.4973  0.7247  1.4897
  948MOL0     H30811   1.278   0.618   2.579  1.2807 -0.2963 -1.3951
  948MOL0     H30812   1.509   0.238   2.699  2.9421 -1.1544 -1.8268
  948MOL0     H30813   1.622   0.350   2.624 -1.6432  2.3537 -1.6282
  948MOL0     H30814   1.473   0.418   2.874 -0.2562  0.9985  0.0133
  948MOL0     H30815   1.637   0.469   2.845 -1.0945  0.8951 -0.6548
  948MOL0     H30816   1.555   0.183   2.917 -1.4195  1.2797  0.7002
  948MOL0     H30817   1.709   0.225   2.856 -0.8865 -0.3738 -1.3100
  948MOL0     H30818   1.753   0.382   3.066  1.1803 -0.5225 -1.1728
  948MOL0     H30819   1.728   0.218   3.093 -2.6218 -0.9713  0.6316
  948MOL0     H30820   1.383   0.417   3.282 -0.3316  0.2612 -0.0635
  948MOL0     H30821   1.696   0.553   2.659 -0.5060 -0.4180  0.6432
  948MOL0     H30822   1.847   0.729   2.637 -1.1453  0.6970 -4.2320
  948MOL0     H30823   1.800   0.894   2.587  2.3041  0.1237  0.1976
  948MOL0     H30824   1.785   0.848   2.762  1.4437  2.7383 -0.9839
  949MOL0     O30825   8.263   8.267   4.243 -0.3584  0.5749 -0.1791
  949MOL0     C30826   8.219   8.163   4.301  0.7469 -0.4990  0.1475
  949MOL0     O30827   8.095   8.154   4.360  0.3606  0.6274  0.3371
  949MOL0     C30828   7.996   8.251   4.366 -0.7661 -0.4982 -0.9052
  949MOL0     C30829   8.003   8.387   4.333  0.2445  0.0214  0.6022
  949MOL0     C30830   7.894   8.470   4.353 -0.2347  0.1916 -0.3238
  949MOL0     C30831   7.776   8.432   4.415 -0.9812 -0.2822 -0.8540
  949MOL0     O30832   7.682   8.526   4.437 -0.9640  0.4668 -0.4204
  949MOL0     C30833   7.548   8.483   4.480  0.7462 -0.0522  0.3267
  949MOL0     C30834   7.450   8.605   4.485 -0.1801  1.0168 -0.4237
  949MOL0     C30835   7.301   8.545   4.482  0.4405  0.7628  0.2913
  949MOL0     C30836   7.204   8.663   4.487  1.1056  0.3123  0.4451
  949MOL0     C30837   7.059   8.626   4.502  0.3064  0.1871 -0.3819
  949MOL0     C30838   7.027   8.590   4.652 -0.5646  0.5473 -0.5935
  949MOL0     C30839   6.969   8.696   4.741  0.9843 -0.1105 -1.3767
  949MOL0     C30840   6.824   8.726   4.738 -0.1502 -0.1639 -0.7548
  949MOL0     N30841   6.746   8.603   4.755  1.1141  0.2167 -0.5113
  949MOL0     C30842   6.660   8.537   4.669 -0.5170 -0.8793  0.5147
  949MOL0     C30843   6.585   8.449   4.742  0.0500 -0.4246  0.5866
  949MOL0     C30844   6.520   8.326   4.686 -0.3333  0.0309 -0.1771
  949MOL0     C30845   6.624   8.219   4.667 -0.6487  0.5161  0.8193
  949MOL0     C30846   6.700   8.245   4.534 -0.9074  0.5662 -1.1699
  949MOL0     C30847   6.808   8.132   4.526  0.6134  1.1787 -0.3674
  949MOL0     O30848   6.871   8.121   4.400  0.8977  0.1385  0.8694
  949MOL0     C30849   6.849   8.017   4.312  0.6469  0.3014 -0.4053
  949MOL0     C30850   6.792   7.891   4.344  1.3959 -0.4973  0.0672
  949MOL0     C30851   6.781   7.791   4.246 -0.8523  0.6350  2.0804
  949MOL0     C30852   6.730   7.657   4.266  0.4893  0.1776  0.2797
  949MOL0     C30853   6.825   7.818   4.107 -0.1346 -0.3682 -0.1797
  949MOL0     C30854   6.828   7.717   3.987  0.1146 -0.3402 -0.2242
  949MOL0     O30855   6.763   7.752   3.878  0.2411 -0.2786  0.0214
  949MOL0     C30856   6.754   7.648   3.783  0.0862 -0.7318  0.1315
  949MOL0     C30857   6.855   7.619   3.693  1.0865 -0.0208  0.2274
  949MOL0     C30858   6.825   7.542   3.586  0.0142 -0.0582  0.8297
  949MOL0     C30859   6.697   7.483   3.565  0.3889  0.0845 -0.9007
  949MOL0     O30860   6.666   7.391   3.461 -0.8614 -0.6387  0.0122
  949MOL0     C30861   6.630   7.257   3.509  0.7690  0.1637 -0.6874
  949MOL0     C30862   6.721   7.156   3.439 -0.4166 -0.2001  0.2464
  949MOL0     C30863   6.685   7.014   3.472  0.3730  0.0460  0.0123
  949MOL0     C30864   6.809   6.922   3.459  0.4533 -0.0779 -0.0577
  949MOL0     C30865   6.766   6.782   3.395 -0.5188 -0.2397  1.1234
  949MOL0     C30866   6.664   6.704   3.483  0.0627  0.6102 -0.0605
  949MOL0     C30867   6.563   6.611   3.399  0.3943  0.2976 -0.4979
  949MOL0     C30868   6.479   6.668   3.279 -0.5416 -0.6569 -0.4406
  949MOL0    Cl30869   6.330   6.771   3.323 -0.2701 -0.2660  0.1434
  949MOL0     C30870   6.600   7.507   3.659  0.0144 -0.7358  0.4396
  949MOL0     C30871   6.627   7.594   3.770 -0.0842 -1.1864 -0.7416
  949MOL0     O30872   6.899   7.615   4.006  0.4318  0.3234 -0.6527
  949MOL0     C30873   6.874   7.946   4.086 -0.6900 -0.0532 -0.4078
  949MOL0     C30874   6.887   8.046   4.179  0.2837  0.0210 -0.7379
  949MOL0     N30875   6.607   8.479   4.878  0.4381  0.2399 -0.0982
  949MOL0     N30876   6.701   8.570   4.877  0.5325 -0.9541 -0.2788
  949MOL0     C30877   7.766   8.299   4.460  0.3871 -0.2993 -1.2764
  949MOL0     C30878   7.872   8.211   4.426  0.2781 -0.0615  0.6024
  949MOL0     C30879   8.306   8.043   4.302  0.3710 -0.1120 -0.2473
  949MOL0     C30880   8.277   7.952   4.405  0.0794  0.0461 -0.5055
  949MOL0     C30881   8.352   7.845   4.435  0.2295 -0.0406 -0.0165
  949MOL0     C30882   8.458   7.809   4.349 -1.1402  1.1325  1.2515
  949MOL0     O30883   8.525   7.691   4.380  0.2342  0.3915 -0.1129
  949MOL0     C30884   8.573   7.605   4.272  0.0973  0.0406 -0.5205
  949MOL0     C30885   8.531   7.464   4.305  0.9151  1.4709  0.0064
  949MOL0     C30886   8.663   7.389   4.303  0.9971  0.7167  0.0280
  949MOL0     C30887   8.638   7.236   4.321  0.3760 -0.1492 -0.4143
  949MOL0     C30888   8.596   7.162   4.204 -0.2760 -0.5496  0.6956
  949MOL0     C30889   8.602   7.111   4.096 -0.3771  0.0887  0.3394
  949MOL0     C30890   8.495   7.903   4.257  0.8266  0.2096  0.0770
  949MOL0     C30891   8.423   8.018   4.236 -0.7114  0.7777 -0.8165
  949MOL0     C30892   8.471   8.101   4.125 -0.2794 -0.9681  0.0313
  949MOL0     H30893   8.082   8.439   4.280 -0.4648  1.6492  1.0852
  949MOL0     H30894   7.890   8.576   4.332 -2.4118  0.1637 -0.2993
  949MOL0     H30895   7.554   8.426   4.573 -2.7296 -3.2750 -1.1628
  949MOL0     H30896   7.511   8.411   4.406 -1.8965  0.8667  0.6158
  949MOL0     H30897   7.464   8.659   4.580  2.1575 -0.7830  0.3488
  949MOL0     H30898   7.470   8.677   4.405  1.7391  0.3070 -0.6436
  949MOL0     H30899   7.279   8.494   4.388  1.6868  2.9194 -1.2237
  949MOL0     H30900   7.287   8.482   4.571  1.9398 -0.5784 -0.3712
  949MOL0     H30901   7.221   8.731   4.571  0.8674  2.1227 -0.9150
  949MOL0     H30902   7.221   8.725   4.399  1.3849  0.4805  0.6171
  949MOL0     H30903   7.038   8.548   4.428  0.3021  1.1637 -1.4426
  949MOL0     H30904   6.996   8.709   4.470 -0.0726  0.1783  0.3075
  949MOL0     H30905   6.944   8.518   4.643 -0.6454  0.1098  2.5009
  949MOL0     H30906   7.114   8.545   4.700 -1.0889 -2.3950 -2.1343
  949MOL0     H30907   7.018   8.794   4.743  1.0434 -0.1490 -0.8039
  949MOL0     H30908   6.983   8.662   4.844  3.4603  3.4944 -0.3355
  949MOL0     H30909   6.811   8.788   4.827  2.0264 -1.1711  0.3459
  949MOL0     H30910   6.781   8.776   4.650 -2.0009  0.6742  0.5682
  949MOL0     H30911   6.656   8.546   4.561  0.7836 -1.5064  0.3920
  949MOL0     H30912   6.461   8.341   4.595  1.2334  1.1531 -1.0677
  949MOL0     H30913   6.447   8.297   4.762 -0.1953 -1.7448 -0.6865
  949MOL0     H30914   6.703   8.214   4.742 -0.8249 -3.5780  0.9370
  949MOL0     H30915   6.581   8.122   4.642 -1.4022  1.4901 -2.0977
  949MOL0     H30916   6.640   8.266   4.445 -2.3220  0.0144 -0.3704
  949MOL0     H30917   6.762   8.335   4.537 -0.2232  0.1514  3.2665
  949MOL0     H30918   6.879   8.141   4.609  0.9861 -1.9449 -0.2403
  949MOL0     H30919   6.757   8.037   4.541 -0.3419  1.5342 -1.1996
  949MOL0     H30920   6.781   7.850   4.444 -1.6640  1.8661  0.8476
  949MOL0     H30921   6.740   7.639   4.373 -0.9371 -1.3237  0.2081
  949MOL0     H30922   6.764   7.574   4.203 -1.1322  0.3735 -0.9269
  949MOL0     H30923   6.624   7.646   4.240  0.3301 -2.8080  1.7853
  949MOL0     H30924   6.957   7.656   3.697  1.7073 -1.6088  0.0896
  949MOL0     H30925   6.901   7.520   3.512 -1.4361  1.7415 -1.3659
  949MOL0     H30926   6.631   7.248   3.618 -3.5372 -1.5982 -0.6050
  949MOL0     H30927   6.527   7.231   3.482  0.9565 -2.9185  1.1562
  949MOL0     H30928   6.738   7.164   3.331  2.0504  2.0675  0.6885
  949MOL0     H30929   6.816   7.188   3.483 -1.1225  0.0935  1.6277
  949MOL0     H30930   6.595   7.004   3.410 -0.0493  0.8384  0.4750
  949MOL0     H30931   6.663   7.021   3.579 -0.9338  1.1035 -0.3025
  949MOL0     H30932   6.846   6.901   3.560  0.7248  2.0868  0.3257
  949MOL0     H30933   6.885   6.975   3.401 -2.3808  2.4447 -1.7175
  949MOL0     H30934   6.724   6.812   3.298 -2.2329  1.1263  2.2323
  949MOL0     H30935   6.855   6.720   3.376  0.1951  0.5672  1.7587
  949MOL0     H30936   6.603   6.778   3.536 -0.0011  0.5907 -0.1072
  949MOL0     H30937   6.724   6.639   3.547 -1.9277 -2.4945 -1.1228
  949MOL0     H30938   6.494   6.556   3.464 -1.7426  0.6603 -2.3496
  949MOL0     H30939   6.628   6.530   3.363  3.1781  1.0133  2.4904
  949MOL0     H30940   6.455   6.582   3.215  0.8275 -2.0719  0.8601
  949MOL0     H30941   6.548   6.735   3.228  3.2940 -2.3197  2.1314
  949MOL0     H30942   6.506   7.453   3.662 -0.1858 -0.9070 -3.3462
  949MOL0     H30943   6.558   7.624   3.848  0.5311  0.2603 -0.7288
  949MOL0     H30944   6.917   7.969   3.989 -0.1824 -0.7483 -0.3591
  949MOL0     H30945   6.939   8.137   4.153  0.3298  0.1693 -0.1467
  949MOL0     H30946   7.673   8.264   4.502  0.2779  1.4509  0.1008
  949MOL0     H30947   7.862   8.109   4.462 -1.1106  0.3704  1.5442
  949MOL0     H30948   8.190   7.977   4.465 -0.0945  4.5718 -2.2262
  949MOL0     H30949   8.319   7.774   4.510 -0.6294 -0.4530 -0.7589
  949MOL0     H30950   8.526   7.643   4.181 -1.5381 -0.3169  0.1464
  949MOL0     H30951   8.680   7.622   4.253  0.9664 -2.6641  1.3611
  949MOL0     H30952   8.452   7.436   4.236  0.6247  0.8729  0.5707
  949MOL0     H30953   8.489   7.456   4.406  0.6337  0.4662 -0.1806
  949MOL0     H30954   8.714   7.401   4.207 -1.4859 -0.0087 -1.4607
  949MOL0     H30955   8.729   7.419   4.384  3.1422  0.7255 -1.6399
  949MOL0     H30956   8.567   7.214   4.402  0.7958 -3.2556 -0.7751
  949MOL0     H30957   8.736   7.197   4.349  0.5312 -0.4764 -1.3756
  949MOL0     H30958   8.628   7.074   3.998  0.3000 -1.6711  1.1322
  949MOL0     H30959   8.579   7.889   4.190 -0.8235  0.8838 -2.2361
  949MOL0     H30960   8.393   8.102   4.049 -2.6165  0.7480  2.2671
  949MOL0     H30961   8.481   8.206   4.155 -1.8735 -1.3041  1.9539
  949MOL0     H30962   8.572   8.070   4.096  0.2304 -0.7027  1.4220
  950MOL0     O30963   0.073   9.218   6.457  0.6013  0.1599  0.6125
  950MOL0     C30964   0.080   9.337   6.499 -0.1523  0.7271 -1.3410
  950MOL0     O30965  -0.026   9.409   6.547  0.2387  0.2904 -0.1006
  950MOL0     C30966  -0.119   9.353   6.633 -0.5259  0.3864  0.6736
  950MOL0     C30967  -0.122   9.214   6.674 -1.3511 -0.1751  1.2812
  950MOL0     C30968  -0.226   9.158   6.737 -0.0388  0.4876  0.7453
  950MOL0     C30969  -0.337   9.236   6.764 -0.2499 -0.4114  0.1494
  950MOL0     O30970  -0.441   9.173   6.831 -0.4479 -0.5748  1.0141
  950MOL0     C30971  -0.574   9.231   6.833  0.4992 -0.2853 -0.8963
  950MOL0     C30972  -0.663   9.113   6.854 -0.4467  0.3068 -0.4681
  950MOL0     C30973  -0.808   9.168   6.876 -0.4995 -0.0768  0.0283
  950MOL0     C30974  -0.846   9.214   7.022 -0.9846  0.3877  0.6376
  950MOL0     C30975  -0.969   9.291   7.023  0.6995 -0.5086 -0.3080
  950MOL0     C30976  -1.003   9.349   7.164  0.1551  0.5880  1.2226
  950MOL0     C30977  -1.120   9.439   7.162 -0.7725  0.2831 -0.0320
  950MOL0     C30978  -1.244   9.349   7.152  0.4057  0.1515  0.4888
  950MOL0     N30979  -1.351   9.442   7.145  0.4129 -0.1865 -0.7684
  950MOL0     C30980  -1.373   9.522   7.042 -0.0425 -0.2833  0.7202
  950MOL0     C30981  -1.493   9.588   7.068  0.3765  0.4972  0.1244
  950MOL0     C30982  -1.562   9.667   6.964 -0.3244 -0.5281 -0.8272
  950MOL0     C30983  -1.691   9.588   6.925 -0.0956 -1.1416 -0.0824
  950MOL0     C30984  -1.762   9.632   6.794 -0.4220 -0.6187 -0.1432
  950MOL0     C30985  -1.835   9.772   6.813  0.4301  0.7066  0.5739
  950MOL0     O30986  -1.952   9.759   6.898 -0.6794 -0.6959 -1.3917
  950MOL0     C30987  -2.085   9.757   6.854 -0.2503  0.0114  0.0054
  950MOL0     C30988  -2.124   9.718   6.726 -0.5203  0.5034  0.3919
  950MOL0     C30989  -2.260   9.682   6.700 -0.1300 -0.7210 -0.3302
  950MOL0     C30990  -2.292   9.610   6.574  0.6268  0.3567 -0.2614
  950MOL0     C30991  -2.358   9.702   6.805  0.6573  0.5319  0.0270
  950MOL0     C30992  -2.501   9.696   6.781  0.4269  0.2983  0.0576
  950MOL0     O30993  -2.551   9.692   6.656 -0.1375  1.2599 -0.7333
  950MOL0     C30994  -2.686   9.712   6.637  0.8447  0.4481  0.6369
  950MOL0     C30995  -2.787   9.626   6.675 -0.3897 -0.0414 -0.0709
  950MOL0     C30996  -2.929   9.647   6.653 -0.1476 -0.6848 -0.4003
  950MOL0     C30997  -2.968   9.761   6.578  1.2866  1.0301 -0.5941
  950MOL0     O30998  -3.098   9.786   6.550  0.1319  0.3636  0.0798
  950MOL0     C30999  -3.129   9.916   6.496 -1.3700 -0.3016 -0.1103
  950MOL0     C31000  -3.285   9.943   6.497  0.6821  0.3356  0.1555
  950MOL0     C31001  -3.360   9.959   6.632  0.6168 -1.6273 -0.5458
  950MOL0     C31002  -3.513   9.995   6.620 -0.1589 -0.2465  0.6064
  950MOL0     C31003  -3.518  10.139   6.588  0.1531  0.0855 -0.2997
  950MOL0     C31004  -3.663  10.181   6.563  1.1535  0.4626  0.2046
  950MOL0     C31005  -3.703  10.164   6.413 -0.2366  0.0255  0.9904
  950MOL0     C31006  -3.629  10.273   6.317  1.2181  0.8106  0.6159
  950MOL0    Cl31007  -3.479  10.210   6.255 -0.2141 -0.0602  0.6623
  950MOL0     C31008  -2.869   9.847   6.539  0.3520 -0.6764 -0.1935
  950MOL0     C31009  -2.732   9.817   6.560 -0.5727 -0.0525 -0.0266
  950MOL0     O31010  -2.572   9.705   6.877  0.0106 -0.3381 -0.9219
  950MOL0     C31011  -2.321   9.758   6.930 -0.8113  0.4344  0.0177
  950MOL0     C31012  -2.183   9.777   6.954 -0.0623 -0.1346  0.4137
  950MOL0     N31013  -1.539   9.543   7.195  0.3268 -0.5602  0.7023
  950MOL0     N31014  -1.447   9.460   7.240 -0.2202 -0.3195 -0.5828
  950MOL0     C31015  -0.339   9.370   6.715 -0.9787  0.6903 -1.0758
  950MOL0     C31016  -0.229   9.425   6.661 -0.1808  0.3592 -0.7375
  950MOL0     C31017   0.213   9.394   6.497 -0.5889 -0.2103 -0.3199
  950MOL0     C31018   0.224   9.536   6.494  0.3240 -0.2248 -0.5330
  950MOL0     C31019   0.348   9.592   6.510 -1.1961  0.3854 -0.5580
  950MOL0     C31020   0.467   9.529   6.506  0.3632  0.0543  0.4615
  950MOL0     O31021   0.583   9.609   6.503 -0.6134 -0.9508 -0.2646
  950MOL0     C31022   0.693   9.529   6.455  0.0130  0.1448 -0.1124
  950MOL0     C31023   0.757   9.454   6.567 -0.5186  0.1217 -0.4867
  950MOL0     C31024   0.854   9.545   6.652 -0.5191 -0.1660  0.5219
  950MOL0     C31025   0.947   9.485   6.756 -1.4395  0.5911 -0.3399
  950MOL0     C31026   1.073   9.443   6.700 -0.3169 -0.1412 -0.0408
  950MOL0     C31027   1.190   9.412   6.680 -0.5610 -1.2904  0.3975
  950MOL0     C31028   0.460   9.385   6.490 -0.4158 -0.6756  0.7131
  950MOL0     C31029   0.342   9.321   6.501  0.9658 -0.7984  0.6422
  950MOL0     C31030   0.357   9.169   6.466  0.8358  1.0367  0.0172
  950MOL0     H31031  -0.028   9.160   6.673  0.7676  3.0884  3.7170
  950MOL0     H31032  -0.200   9.060   6.776  2.0405  0.4654 -0.5319
  950MOL0     H31033  -0.597   9.282   6.739  2.8467  3.1536  0.1730
  950MOL0     H31034  -0.576   9.307   6.912  0.8885  2.6225 -3.4981
  950MOL0     H31035  -0.651   9.044   6.770 -0.9865  1.4621 -1.5135
  950MOL0     H31036  -0.628   9.056   6.941  1.8354  1.5505 -0.4893
  950MOL0     H31037  -0.814   9.253   6.808  0.0177 -1.4861 -1.8651
  950MOL0     H31038  -0.883   9.096   6.842  0.0303 -0.1644 -0.9973
  950MOL0     H31039  -0.859   9.124   7.083 -0.0742 -0.5849 -0.5596
  950MOL0     H31040  -0.765   9.278   7.057  1.4481 -0.6731 -2.6265
  950MOL0     H31041  -1.048   9.224   6.987  0.0282  1.0248 -1.8128
  950MOL0     H31042  -0.952   9.372   6.952 -2.9982 -0.6454 -1.5625
  950MOL0     H31043  -1.019   9.262   7.228  1.1617 -0.0793  0.5946
  950MOL0     H31044  -0.914   9.409   7.184  1.6376 -1.4624  1.1577
  950MOL0     H31045  -1.103   9.514   7.083  3.5073  3.8156  3.6505
  950MOL0     H31046  -1.120   9.502   7.252 -0.6461  0.4658 -0.1578
  950MOL0     H31047  -1.241   9.280   7.067 -1.6946  1.5317 -0.8103
  950MOL0     H31048  -1.258   9.289   7.242  0.2115 -0.1186  0.2767
  950MOL0     H31049  -1.321   9.538   6.948 -2.0376  1.7546 -0.1259
  950MOL0     H31050  -1.490   9.687   6.884  2.7623 -2.6448  1.1893
  950MOL0     H31051  -1.589   9.757   7.020 -2.5082 -2.1848  0.9630
  950MOL0     H31052  -1.659   9.486   6.901 -3.7990 -2.7852  1.2342
  950MOL0     H31053  -1.764   9.573   7.005 -3.9019 -1.1715 -3.2897
  950MOL0     H31054  -1.690   9.637   6.712  1.0357  2.9332  1.1549
  950MOL0     H31055  -1.838   9.562   6.757 -1.2000  2.1969 -4.6381
  950MOL0     H31056  -1.762   9.847   6.845  2.8440  0.0644 -2.9153
  950MOL0     H31057  -1.868   9.807   6.715 -0.4852 -0.3516  0.4813
  950MOL0     H31058  -2.057   9.698   6.643 -0.1142  1.2674  0.5360
  950MOL0     H31059  -2.327   9.677   6.495 -0.8818  3.1134  2.5354
  950MOL0     H31060  -2.373   9.537   6.576 -0.1374  1.1800 -0.6800
  950MOL0     H31061  -2.211   9.544   6.542 -1.0832  0.0414 -4.4991
  950MOL0     H31062  -2.755   9.542   6.736  3.4948  1.0091 -0.3740
  950MOL0     H31063  -3.009   9.594   6.705  0.2658 -0.3713  0.5865
  950MOL0     H31064  -3.068   9.992   6.545  1.0586 -1.2461 -1.4601
  950MOL0     H31065  -3.105   9.912   6.389 -1.0076  3.0684 -0.2499
  950MOL0     H31066  -3.309  10.029   6.434 -0.8922 -3.3042 -4.8456
  950MOL0     H31067  -3.316   9.858   6.435  2.4871  0.4525 -0.9975
  950MOL0     H31068  -3.303  10.028   6.695 -0.9833  1.2399 -2.0462
  950MOL0     H31069  -3.360   9.859   6.677  0.7981 -2.2489 -1.8747
  950MOL0     H31070  -3.564   9.983   6.716  1.9710  4.7190  2.7445
  950MOL0     H31071  -3.555   9.928   6.545  1.3979  2.3113 -2.8009
  950MOL0     H31072  -3.491  10.192   6.680  3.1189 -2.2751  0.3455
  950MOL0     H31073  -3.447  10.166   6.509 -1.8165  0.9231 -1.8455
  950MOL0     H31074  -3.669  10.284   6.600  1.5811 -0.0031  1.6538
  950MOL0     H31075  -3.729  10.121   6.627  0.2810 -1.3800 -2.2474
  950MOL0     H31076  -3.812  10.173   6.406 -0.3592 -0.2450  2.3275
  950MOL0     H31077  -3.671  10.067   6.373  0.3316  1.0139 -1.1047
  950MOL0     H31078  -3.620  10.371   6.364 -2.7540  1.1952  0.8849
  950MOL0     H31079  -3.700  10.283   6.235 -0.2125 -0.0094  1.7088
  950MOL0     H31080  -2.889   9.923   6.464  3.0474 -0.2047 -0.5566
  950MOL0     H31081  -2.655   9.877   6.512 -0.3524  0.8513  1.3943
  950MOL0     H31082  -2.395   9.776   7.008  1.1125  4.3726  1.1535
  950MOL0     H31083  -2.143   9.806   7.051 -1.9732 -1.4147  1.6651
  950MOL0     H31084  -0.432   9.426   6.723 -1.1090  0.2412  1.1445
  950MOL0     H31085  -0.237   9.524   6.616  0.8350  1.2872  1.0325
  950MOL0     H31086   0.135   9.596   6.505  0.7316  0.5640 -1.3372
  950MOL0     H31087   0.343   9.699   6.529  1.0077  0.2843  0.9805
  950MOL0     H31088   0.661   9.457   6.379  1.6809 -0.0553 -0.6509
  950MOL0     H31089   0.770   9.589   6.407  0.7976  0.3870  1.3872
  950MOL0     H31090   0.821   9.379   6.521 -1.4532 -0.2303 -1.2356
  950MOL0     H31091   0.683   9.409   6.634  0.2259  0.8735  0.8948
  950MOL0     H31092   0.920   9.606   6.589 -0.8327  2.1596  2.3040
  950MOL0     H31093   0.793   9.619   6.705 -0.3086  0.2207  0.2287
  950MOL0     H31094   0.889   9.405   6.801  1.5248  0.0226  2.8563
  950MOL0     H31095   0.962   9.548   6.844 -2.4186 -1.0750  1.0531
  950MOL0     H31096   1.291   9.378   6.664  0.5191  2.0347 -0.6904
  950MOL0     H31097   0.547   9.320   6.487 -2.5720 -3.7661 -2.1353
  950MOL0     H31098   0.375   9.153   6.360  1.5988 -0.7734  0.3778
  950MOL0     H31099   0.452   9.138   6.511  1.0455  2.0862  0.3268
  950MOL0     H31100   0.271   9.109   6.496  1.8244  0.1639  1.2437
  951MOL0     O31101   3.805   6.464   4.323 -0.1627  0.1630 -0.1517
  951MOL0     C31102   3.754   6.578   4.327  0.3491  1.4048  0.1774
  951MOL0     O31103   3.713   6.638   4.443 -0.0828 -0.2284 -0.4949
  951MOL0     C31104   3.761   6.572   4.557  0.8340 -0.2724 -0.5101
  951MOL0     C31105   3.890   6.584   4.601  1.1174  0.3671  0.2682
  951MOL0     C31106   3.928   6.495   4.706 -0.1369 -0.7723 -0.1630
  951MOL0     C31107   3.853   6.399   4.775  0.5480 -1.1220 -0.0718
  951MOL0     O31108   3.895   6.321   4.883  0.6137  0.4083 -0.1383
  951MOL0     C31109   4.032   6.341   4.929 -0.0321 -0.1204  0.4060
  951MOL0     C31110   4.071   6.218   5.006 -0.5261  0.2645  0.3553
  951MOL0     C31111   4.215   6.213   5.070 -0.4276  0.5482  0.3128
  951MOL0     C31112   4.340   6.191   4.981  0.4288  1.0459  0.2465
  951MOL0     C31113   4.340   6.073   4.896 -0.5202  0.2765  0.0105
  951MOL0     C31114   4.296   5.933   4.961  0.8683 -0.6932  0.5770
  951MOL0     C31115   4.352   5.817   4.869  0.1383  0.2959  0.0983
  951MOL0     C31116   4.349   5.691   4.950  0.2448 -1.2320 -0.5770
  951MOL0     N31117   4.482   5.630   4.969 -0.0467 -0.3917  0.2408
  951MOL0     C31118   4.544   5.516   4.912  0.0637  0.4850 -0.3128
  951MOL0     C31119   4.665   5.509   4.980 -0.1792 -0.7414  0.3494
  951MOL0     C31120   4.767   5.394   4.974  0.9690  0.3023  0.4529
  951MOL0     C31121   4.834   5.371   4.834  1.1515 -0.5146 -0.4141
  951MOL0     C31122   4.986   5.363   4.841  0.2350  0.3211 -1.5006
  951MOL0     C31123   5.023   5.228   4.911  0.2788 -0.6388 -0.0389
  951MOL0     O31124   4.984   5.131   4.814  0.0467  0.9362  0.8564
  951MOL0     C31125   5.090   5.052   4.763 -0.7379 -0.6002 -0.8688
  951MOL0     C31126   5.172   4.989   4.861 -0.5201  0.8051  0.4876
  951MOL0     C31127   5.277   4.907   4.813  0.2671  0.3025  0.3577
  951MOL0     C31128   5.366   4.849   4.918 -0.4098  0.3009  0.2746
  951MOL0     C31129   5.300   4.878   4.672  0.5668  0.3408  0.4237
  951MOL0     C31130   5.403   4.785   4.615  0.7479 -0.4928 -0.9745
  951MOL0     O31131   5.428   4.811   4.485  0.5295 -0.0447  0.4807
  951MOL0     C31132   5.457   4.699   4.402 -0.0852 -0.8443 -0.4849
  951MOL0     C31133   5.376   4.626   4.321 -0.4428 -0.4912 -0.1100
  951MOL0     C31134   5.418   4.520   4.244  1.6580 -0.3978 -0.5841
  951MOL0     C31135   5.551   4.475   4.252  0.9126 -0.3774 -0.3785
  951MOL0     O31136   5.575   4.362   4.191  0.0313  0.6353  0.8351
  951MOL0     C31137   5.690   4.286   4.214  0.1904 -0.9705 -0.3942
  951MOL0     C31138   5.691   4.156   4.128  0.0063  0.5626  0.5596
  951MOL0     C31139   5.689   4.193   3.974 -0.6820  0.5414  0.5025
  951MOL0     C31140   5.722   4.061   3.895  0.5975  0.0746 -0.2107
  951MOL0     C31141   5.646   4.063   3.756 -0.5973 -0.4159  0.7254
  951MOL0     C31142   5.708   3.953   3.662 -0.4853  0.1253  0.4017
  951MOL0     C31143   5.601   3.890   3.566 -0.1081  0.2994 -0.5143
  951MOL0     C31144   5.638   3.753   3.522 -0.0320  0.9659  0.3095
  951MOL0    Cl31145   5.632   3.634   3.659  0.3414 -0.1347  0.2405
  951MOL0     C31146   5.635   4.549   4.334  0.0592 -0.1005 -0.1945
  951MOL0     C31147   5.595   4.665   4.398 -0.0465  1.1071 -0.1746
  951MOL0     O31148   5.456   4.695   4.676  1.3417 -0.3086 -0.8693
  951MOL0     C31149   5.206   4.936   4.584  0.1167 -0.7584 -0.5762
  951MOL0     C31150   5.111   5.026   4.632 -0.5390  0.4719 -0.3600
  951MOL0     N31151   4.665   5.617   5.071 -0.8597 -0.4713 -0.0131
  951MOL0     N31152   4.560   5.680   5.071  0.1698 -0.5856  0.2867
  951MOL0     C31153   3.724   6.394   4.721  0.2117 -0.2892 -0.7318
  951MOL0     C31154   3.674   6.490   4.624  0.0927 -0.3293 -0.5832
  951MOL0     C31155   3.741   6.666   4.205 -0.7013 -0.3153  0.0123
  951MOL0     C31156   3.685   6.793   4.218  0.7419 -0.3261  0.4298
  951MOL0     C31157   3.668   6.880   4.112 -0.0280 -1.0000 -0.0176
  951MOL0     C31158   3.723   6.858   3.982  0.4516  0.6624 -0.0205
  951MOL0     O31159   3.710   6.945   3.873 -0.4955 -0.5299  0.9769
  951MOL0     C31160   3.638   7.068   3.893  0.7928  0.7234 -0.5440
  951MOL0     C31161   3.628   7.149   3.762  0.8828  0.2343  0.4634
  951MOL0     C31162   3.759   7.156   3.685 -0.5365  0.3201  0.1024
  951MOL0     C31163   3.770   7.069   3.557 -0.3250 -0.3106  0.1250
  951MOL0     C31164   3.895   7.093   3.489  0.4521  0.1284 -0.3075
  951MOL0     C31165   4.002   7.123   3.446  0.8122  0.2290 -0.0818
  951MOL0     C31166   3.783   6.730   3.966  0.4690  0.2165  0.9502
  951MOL0     C31167   3.799   6.638   4.077 -0.1037 -0.0276  0.4978
  951MOL0     C31168   3.898   6.527   4.045  0.2983 -0.0315 -0.5141
  951MOL0     H31169   3.965   6.639   4.546  1.0092 -0.2220 -0.4839
  951MOL0     H31170   4.031   6.513   4.736 -1.4237  1.3256  3.6637
  951MOL0     H31171   4.028   6.431   4.991  1.4644  0.8056 -0.7715
  951MOL0     H31172   4.100   6.359   4.845 -0.4996  1.4658  0.3378
  951MOL0     H31173   3.998   6.205   5.086  0.2900 -0.8585  0.9607
  951MOL0     H31174   4.059   6.133   4.938  2.2788  1.0640 -1.3080
  951MOL0     H31175   4.232   6.310   5.118  0.3468  0.5973 -0.0531
  951MOL0     H31176   4.213   6.132   5.144 -0.8059  2.4164  2.4680
  951MOL0     H31177   4.360   6.278   4.918  2.6671  0.7630  0.4770
  951MOL0     H31178   4.420   6.183   5.055 -1.0062 -0.3659  1.7419
  951MOL0     H31179   4.441   6.075   4.854 -0.3165  0.3741  0.4986
  951MOL0     H31180   4.272   6.090   4.812  1.2911  1.0159 -1.3755
  951MOL0     H31181   4.328   5.933   5.065  1.8966 -1.7385  0.2830
  951MOL0     H31182   4.188   5.949   4.956  1.0838  1.0210  0.8226
  951MOL0     H31183   4.454   5.846   4.843 -0.5111  2.2417 -0.4272
  951MOL0     H31184   4.283   5.809   4.785 -1.3079  0.5192  1.2213
  951MOL0     H31185   4.300   5.706   5.047 -2.8308  2.4793 -2.4079
  951MOL0     H31186   4.280   5.629   4.891  0.3270 -0.9198 -1.0056
  951MOL0     H31187   4.510   5.436   4.848 -0.8547 -0.4728  1.3010
  951MOL0     H31188   4.721   5.300   5.007  5.0556 -2.1069 -0.1215
  951MOL0     H31189   4.834   5.422   5.056  0.6833  2.9348 -0.1170
  951MOL0     H31190   4.776   5.288   4.793  1.8096 -0.3967 -1.6083
  951MOL0     H31191   4.821   5.457   4.767 -1.5972  0.6399  1.4065
  951MOL0     H31192   5.032   5.362   4.741 -3.9158 -0.6587 -3.6351
  951MOL0     H31193   5.025   5.448   4.897 -0.3868  0.8029 -1.7922
  951MOL0     H31194   5.131   5.223   4.931  0.0926 -1.8478  0.7534
  951MOL0     H31195   4.985   5.214   5.012  0.9225  0.0489  0.3088
  951MOL0     H31196   5.159   4.988   4.969 -0.7380  0.7489  0.4598
  951MOL0     H31197   5.469   4.882   4.904 -1.0820  2.9649  1.1407
  951MOL0     H31198   5.349   4.741   4.927 -0.8117  0.3800  0.4331
  951MOL0     H31199   5.352   4.892   5.017 -1.4998  2.2470 -0.6607
  951MOL0     H31200   5.275   4.665   4.311  0.1963  2.4225  2.9856
  951MOL0     H31201   5.344   4.457   4.195 -0.4105  1.1819  0.4006
  951MOL0     H31202   5.773   4.353   4.190  0.2675 -1.0567 -0.3672
  951MOL0     H31203   5.690   4.243   4.315 -1.1015 -0.7289 -0.2734
  951MOL0     H31204   5.780   4.103   4.162  0.3492  0.7844  0.0205
  951MOL0     H31205   5.602   4.098   4.152 -1.8357  2.6732 -0.7995
  951MOL0     H31206   5.774   4.255   3.946  0.7703 -1.3365  0.5040
  951MOL0     H31207   5.597   4.245   3.947 -2.1239 -2.9072 -2.1022
  951MOL0     H31208   5.687   3.976   3.955  0.7707  1.4271  1.9040
  951MOL0     H31209   5.829   4.044   3.885  0.8034 -1.4595  3.1779
  951MOL0     H31210   5.541   4.045   3.783 -0.4602 -2.4448  0.1007
  951MOL0     H31211   5.649   4.161   3.708 -0.1967 -0.9022 -0.2649
  951MOL0     H31212   5.742   3.874   3.730 -0.5428  1.7495  2.4057
  951MOL0     H31213   5.784   3.991   3.593 -0.8561 -1.5399 -1.0204
  951MOL0     H31214   5.597   3.959   3.482  2.1769  0.0269 -0.9066
  951MOL0     H31215   5.504   3.873   3.614  0.4275 -0.1592  0.4451
  951MOL0     H31216   5.733   3.756   3.467  0.4032  0.3299  0.9997
  951MOL0     H31217   5.573   3.720   3.440  1.3452 -0.9213 -0.0992
  951MOL0     H31218   5.740   4.531   4.356 -0.5764 -0.3118  3.1872
  951MOL0     H31219   5.656   4.726   4.464 -0.2954 -0.4352  1.5834
  951MOL0     H31220   5.222   4.937   4.476 -1.5217 -1.1113 -0.8475
  951MOL0     H31221   5.046   5.077   4.562 -2.7805  0.1506  1.3832
  951MOL0     H31222   3.651   6.330   4.770  1.3609 -0.0997  1.3484
  951MOL0     H31223   3.572   6.480   4.588  0.2834 -1.0158 -0.9478
  951MOL0     H31224   3.639   6.832   4.309 -0.5454 -0.7084 -0.0271
  951MOL0     H31225   3.633   6.980   4.139 -2.2174 -1.9691  1.0501
  951MOL0     H31226   3.535   7.049   3.925  0.5312 -0.2363 -1.8540
  951MOL0     H31227   3.687   7.136   3.962 -3.0212  2.4205  0.7928
  951MOL0     H31228   3.610   7.250   3.801  2.0120  0.0172  1.6297
  951MOL0     H31229   3.553   7.130   3.685 -0.9463  2.9391  1.4523
  951MOL0     H31230   3.784   7.260   3.661  1.5721 -0.8894 -3.7820
  951MOL0     H31231   3.840   7.112   3.745 -2.1088 -2.7429  0.1535
  951MOL0     H31232   3.686   7.079   3.488  0.3234  2.1919 -0.3884
  951MOL0     H31233   3.775   6.965   3.590  2.2323 -1.5083 -3.4380
  951MOL0     H31234   4.104   7.137   3.417  0.2554  2.3737 -1.2173
  951MOL0     H31235   3.821   6.708   3.867 -0.0173 -1.2107  1.0688
  951MOL0     H31236   3.937   6.478   4.135 -2.0629  0.4090  0.8337
  951MOL0     H31237   3.860   6.446   3.982 -0.0832  0.1829 -0.5637
  951MOL0     H31238   3.988   6.571   4.003  1.7542 -3.7099 -1.6997
  952MOL0     O31239  10.644   2.947   4.918 -0.3914 -0.3350  0.4922
  952MOL0     C31240  10.576   3.043   4.933  0.0701 -0.8244 -0.0392
  952MOL0     O31241  10.623   3.172   4.915  0.4233  0.1449  0.2213
  952MOL0     C31242  10.746   3.216   4.867 -0.4401  0.8158  0.5207
  952MOL0     C31243  10.754   3.353   4.842 -1.0774 -0.2459  0.0369
  952MOL0     C31244  10.883   3.394   4.791  0.5521 -0.0362 -0.4534
  952MOL0     C31245  10.985   3.306   4.761  0.7158 -0.6628 -1.4999
  952MOL0     O31246  11.102   3.343   4.689  0.8138  0.8615 -0.1083
  952MOL0     C31247  11.120   3.483   4.648 -1.0581  0.2648 -0.4464
  952MOL0     C31248  11.033   3.504   4.523  0.0666 -0.3820 -0.6802
  952MOL0     C31249  11.101   3.487   4.395  0.5134  0.7270  0.2923
  952MOL0     C31250  11.013   3.523   4.275  0.5807  0.2864  0.2309
  952MOL0     C31251  11.077   3.574   4.145 -0.7007 -1.4800 -0.1812
  952MOL0     C31252  11.121   3.725   4.151 -0.9251 -0.2321 -0.6574
  952MOL0     C31253  11.236   3.755   4.041  0.1590  0.3615 -0.5156
  952MOL0     C31254  11.180   3.780   3.902 -0.9256  0.3453 -0.4615
  952MOL0     N31255  11.294   3.820   3.818 -0.2061 -0.2139  0.1242
  952MOL0     C31256  11.373   3.746   3.727 -1.2246 -0.2058  0.1813
  952MOL0     C31257  11.471   3.834   3.680 -0.8245  0.0364  0.2813
  952MOL0     C31258  11.586   3.794   3.599  0.4325  0.2638 -0.7834
  952MOL0     C31259  11.685   3.907   3.572 -0.1145  0.5259  0.6307
  952MOL0     C31260  11.795   3.854   3.470  0.5562 -0.1018 -0.6850
  952MOL0     C31261  11.861   3.976   3.416  0.3974 -0.0865  1.3859
  952MOL0     O31262  11.999   3.979   3.446  0.2491 -0.1051  0.4349
  952MOL0     C31263  12.090   3.982   3.349 -0.4864 -1.1595  1.3451
  952MOL0     C31264  12.068   4.046   3.224 -0.3470 -0.3707 -1.3813
  952MOL0     C31265  12.165   4.047   3.122 -0.3002  0.8653  0.4145
  952MOL0     C31266  12.137   4.117   3.001 -0.1752 -0.6900  0.6752
  952MOL0     C31267  12.290   3.983   3.145 -0.3916 -0.0123  0.2634
  952MOL0     C31268  12.413   3.980   3.058 -0.3539 -0.5487  0.4973
  952MOL0     O31269  12.391   4.014   2.931  0.8256 -0.4558  0.2622
  952MOL0     C31270  12.496   3.998   2.847 -0.7359  0.0753  0.7486
  952MOL0     C31271  12.546   3.867   2.829  0.2643  0.1476  0.4128
  952MOL0     C31272  12.651   3.843   2.740  0.1213 -0.7938  0.9312
  952MOL0     C31273  12.696   3.946   2.658 -1.1050 -0.3966 -0.6651
  952MOL0     O31274  12.791   3.910   2.566  0.5591 -0.8675  0.0140
  952MOL0     C31275  12.822   4.012   2.464 -0.5978 -0.3698  0.1303
  952MOL0     C31276  12.954   3.978   2.390  0.8992  0.2670 -0.1249
  952MOL0     C31277  13.085   4.047   2.425  0.2044 -0.3285 -0.1642
  952MOL0     C31278  13.093   4.108   2.570 -0.1339  0.6003  1.0782
  952MOL0     C31279  13.098   4.003   2.677  0.4769  0.7374 -0.3959
  952MOL0     C31280  13.077   4.059   2.805 -0.1656 -0.0653  0.0544
  952MOL0     C31281  13.101   3.980   2.932 -0.3011 -0.0669  0.0162
  952MOL0     C31282  13.004   3.868   2.941  0.0166 -0.1822  0.3371
  952MOL0    Cl31283  13.068   3.768   3.074  0.0350  0.2049  0.1326
  952MOL0     C31284  12.643   4.076   2.674  0.9639  0.0530  0.4333
  952MOL0     C31285  12.555   4.096   2.773  0.6228  0.5988 -0.1041
  952MOL0     O31286  12.524   3.973   3.114 -0.2276 -0.3910 -0.3189
  952MOL0     C31287  12.314   3.932   3.276 -0.5201  0.1924  0.4790
  952MOL0     C31288  12.215   3.932   3.381 -0.0700 -0.3662  0.9153
  952MOL0     N31289  11.453   3.960   3.736  0.8118  0.6639 -0.0887
  952MOL0     N31290  11.351   3.951   3.813 -0.8740 -1.4501 -0.0233
  952MOL0     C31291  10.972   3.171   4.792 -0.0349  0.8238 -0.3985
  952MOL0     C31292  10.850   3.127   4.841 -0.0339  0.3247 -0.3710
  952MOL0     C31293  10.429   3.034   4.956 -0.9351  0.1856 -0.8113
  952MOL0     C31294  10.376   2.905   4.948 -0.0871 -0.9116 -0.3291
  952MOL0     C31295  10.235   2.889   4.962  0.4506 -0.3929  0.3620
  952MOL0     C31296  10.147   2.995   4.976  0.5522  0.2146 -0.3470
  952MOL0     O31297  10.016   2.973   4.995  0.0856  0.2246 -0.6673
  952MOL0     C31298   9.940   3.022   5.115 -0.0363  0.1768  1.1298
  952MOL0     C31299   9.859   2.911   5.172  0.2336  0.3481  0.3402
  952MOL0     C31300   9.823   2.953   5.316  0.7992  0.1841  0.5509
  952MOL0     C31301   9.764   3.088   5.338  0.1363 -0.0176 -0.0302
  952MOL0     C31302   9.735   3.111   5.480  1.0602 -1.4512  0.4912
  952MOL0     C31303   9.706   3.146   5.591 -0.8289  0.3074 -0.2488
  952MOL0     C31304  10.202   3.122   4.977 -0.0816  0.5109 -0.4987
  952MOL0     C31305  10.343   3.148   4.975 -0.6628  0.3165  0.3908
  952MOL0     C31306  10.383   3.297   4.988 -0.2469 -0.0933  0.0416
  952MOL0     H31307  10.679   3.428   4.865 -0.6817  0.9876 -2.4026
  952MOL0     H31308  10.900   3.498   4.766 -0.0056  0.8503  2.4802
  952MOL0     H31309  11.226   3.508   4.635 -1.0801  0.7658  0.2411
  952MOL0     H31310  11.094   3.530   4.743  1.5327 -1.9059  1.5116
  952MOL0     H31311  10.937   3.452   4.521  0.6402 -1.5878  0.7113
  952MOL0     H31312  11.012   3.611   4.529  0.1289 -0.3840 -0.3694
  952MOL0     H31313  11.200   3.531   4.390  0.9619 -0.1557  1.0660
  952MOL0     H31314  11.115   3.379   4.381 -0.0390  0.5294  1.1815
  952MOL0     H31315  10.957   3.435   4.244  0.3424  1.2352 -2.3313
  952MOL0     H31316  10.948   3.608   4.298  0.6893  0.4668 -0.1083
  952MOL0     H31317  11.005   3.568   4.063 -0.3534  1.1283 -0.7911
  952MOL0     H31318  11.164   3.512   4.123 -1.2173 -1.7496 -1.6141
  952MOL0     H31319  11.047   3.805   4.149  2.5975  3.3420 -2.1365
  952MOL0     H31320  11.171   3.741   4.248  0.5835 -1.7456 -1.1363
  952MOL0     H31321  11.308   3.672   4.041 -0.6316 -0.3335 -0.1062
  952MOL0     H31322  11.279   3.851   4.072 -2.4673  1.7460 -0.8751
  952MOL0     H31323  11.126   3.691   3.871 -0.2042 -1.2283  2.3926
  952MOL0     H31324  11.118   3.870   3.912 -2.2272 -0.6355  0.6273
  952MOL0     H31325  11.377   3.640   3.704  1.3206  0.2573 -1.9948
  952MOL0     H31326  11.554   3.753   3.503 -0.4593  0.8455 -0.7378
  952MOL0     H31327  11.631   3.709   3.652  1.1698 -0.5545 -2.6344
  952MOL0     H31328  11.627   3.986   3.524 -0.5030 -0.9118 -1.4224
  952MOL0     H31329  11.731   3.931   3.669  1.2269 -2.0987  0.7300
  952MOL0     H31330  11.862   3.776   3.507  0.5427 -1.9654 -4.1131
  952MOL0     H31331  11.751   3.795   3.389  2.3363 -0.3322 -1.5348
  952MOL0     H31332  11.850   3.959   3.309  2.0671  1.7563  0.8653
  952MOL0     H31333  11.804   4.066   3.444 -1.8277 -1.9853  3.5410
  952MOL0     H31334  11.973   4.094   3.204  0.7400  0.8407 -4.1889
  952MOL0     H31335  12.210   4.196   2.981 -1.7327  0.6480  0.0300
  952MOL0     H31336  12.036   4.158   3.003 -0.7045 -1.7083 -1.9692
  952MOL0     H31337  12.135   4.039   2.924  0.4704  0.7849 -0.8846
  952MOL0     H31338  12.508   3.786   2.890 -0.6904  0.2595 -0.0171
  952MOL0     H31339  12.712   3.754   2.744  2.6767  0.8768  2.4014
  952MOL0     H31340  12.738   3.992   2.398  0.7136 -2.5105 -0.9942
  952MOL0     H31341  12.827   4.120   2.484  0.6754  0.0999 -2.3358
  952MOL0     H31342  12.977   3.872   2.407 -0.0609  0.1592  0.5811
  952MOL0     H31343  12.934   3.980   2.282 -0.5928 -3.0019 -0.0546
  952MOL0     H31344  13.104   4.121   2.347  1.6641 -1.9368 -1.4348
  952MOL0     H31345  13.169   3.978   2.404 -0.0532 -0.2450 -1.6152
  952MOL0     H31346  13.009   4.175   2.591  1.0722  1.9706  1.7641
  952MOL0     H31347  13.179   4.176   2.571 -1.8746  2.9531 -0.2038
  952MOL0     H31348  13.020   3.931   2.652  0.4473  0.1190  1.3451
  952MOL0     H31349  13.197   3.961   2.659 -0.2952  0.1760 -4.1160
  952MOL0     H31350  12.972   4.089   2.812 -0.8780 -2.0850 -1.0658
  952MOL0     H31351  13.139   4.148   2.813 -1.6862  1.0469 -0.1600
  952MOL0     H31352  13.083   4.047   3.016 -2.4636  2.8377 -2.5499
  952MOL0     H31353  13.203   3.942   2.935 -0.2677 -0.2456 -1.8986
  952MOL0     H31354  13.002   3.807   2.850  0.9394 -0.7131  0.6547
  952MOL0     H31355  12.905   3.905   2.969  0.3872 -0.1714  1.7027
  952MOL0     H31356  12.667   4.164   2.616 -2.1233  0.0806 -0.9571
  952MOL0     H31357  12.519   4.198   2.780  1.2705  0.9193 -1.2077
  952MOL0     H31358  12.409   3.886   3.301 -1.5521 -2.6491 -0.5277
  952MOL0     H31359  12.226   3.902   3.485  0.8524 -0.9039  0.6782
  952MOL0     H31360  11.057   3.109   4.767  0.5245  0.8273  1.3521
  952MOL0     H31361  10.844   3.019   4.852  1.5357 -0.0164 -2.3085
  952MOL0     H31362  10.441   2.819   4.935 -0.3685 -1.1991  0.1161
  952MOL0     H31363  10.201   2.786   4.959  3.3462 -1.6573  4.0649
  952MOL0     H31364  10.005   3.068   5.191 -1.2982 -1.3001  3.2122
  952MOL0     H31365   9.867   3.095   5.078  0.5797 -0.1974 -0.9410
  952MOL0     H31366   9.920   2.820   5.177 -2.2430 -1.4455 -0.3187
  952MOL0     H31367   9.769   2.887   5.116  1.5354 -0.1823 -1.6309
  952MOL0     H31368   9.748   2.879   5.345  2.0902 -1.5553 -0.3385
  952MOL0     H31369   9.905   2.934   5.386 -1.6325 -0.3654  3.4309
  952MOL0     H31370   9.670   3.097   5.283 -0.5031 -0.3028  0.9865
  952MOL0     H31371   9.840   3.161   5.308  0.4330 -0.4957 -0.4642
  952MOL0     H31372   9.713   3.178   5.693  0.5253  2.0166 -0.8230
  952MOL0     H31373  10.120   3.190   4.996 -0.0581  0.6029 -0.7286
  952MOL0     H31374  10.416   3.332   4.890 -1.2888 -0.5937 -0.5120
  952MOL0     H31375  10.292   3.355   5.006 -1.5343 -2.3700  1.3419
  952MOL0     H31376  10.454   3.304   5.071 -0.5590 -1.6032  0.4646
  953MOL0     O31377   1.451  10.596  10.645 -0.2634  0.0090 -0.1476
  953MOL0     C31378   1.570  10.586  10.676 -0.0720  0.2994  0.6690
  953MOL0     O31379   1.611  10.562  10.804  0.4746  0.1388 -0.0850
  953MOL0     C31380   1.505  10.552  10.897  0.9235  0.2195 -0.2027
  953MOL0     C31381   1.498  10.430  10.967  0.0300 -0.3864 -0.1721
  953MOL0     C31382   1.386  10.409  11.055 -0.5631 -0.2571  0.6606
  953MOL0     C31383   1.301  10.509  11.085  0.5659  0.1040 -0.1808
  953MOL0     O31384   1.201  10.474  11.173  0.0996 -0.1690  0.1212
  953MOL0     C31385   1.065  10.501  11.137  0.2068  0.1987 -1.2817
  953MOL0     C31386   0.991  10.368  11.125 -0.6545 -0.8585 -0.6989
  953MOL0     C31387   0.856  10.386  11.058 -0.2599 -0.1724 -0.0290
  953MOL0     C31388   0.777  10.263  11.093 -0.2962 -0.0380 -1.0361
  953MOL0     C31389   0.642  10.242  11.018  0.2091  0.4302 -0.3373
  953MOL0     C31390   0.559  10.371  10.995  0.8821  0.7473  0.4854
  953MOL0     C31391   0.427  10.312  10.928  1.2259 -0.0787  0.7267
  953MOL0     C31392   0.330  10.428  10.901 -1.1066  0.7085  0.7123
  953MOL0     N31393   0.369  10.506  10.772 -0.5748 -0.4094 -0.7363
  953MOL0     C31394   0.394  10.451  10.646 -0.2357  0.8403  0.7567
  953MOL0     C31395   0.442  10.558  10.576 -0.8681 -0.2231 -0.1356
  953MOL0     C31396   0.467  10.568  10.431  0.0319 -0.0524 -0.0058
  953MOL0     C31397   0.566  10.459  10.391 -1.1093  1.1153  0.2606
  953MOL0     C31398   0.710  10.495  10.434 -0.4102 -0.0298 -0.6002
  953MOL0     C31399   0.805  10.382  10.399  0.4244  0.4707  1.0908
  953MOL0     O31400   0.934  10.429  10.386 -0.2585  0.3295  0.0004
  953MOL0     C31401   1.048  10.348  10.355  0.5713 -0.3766 -0.3864
  953MOL0     C31402   1.054  10.213  10.333  0.5613  1.1341  0.3124
  953MOL0     C31403   1.176  10.144  10.309  0.2235 -0.8456 -0.2660
  953MOL0     C31404   1.173   9.990  10.294  0.1889 -0.1049  0.8971
  953MOL0     C31405   1.295  10.226  10.279 -0.1918  0.2531  0.3149
  953MOL0     C31406   1.422  10.175  10.230 -0.1768  0.1285  0.2771
  953MOL0     O31407   1.526  10.257  10.207 -0.5662  0.0800 -0.4613
  953MOL0     C31408   1.636  10.203  10.139 -0.1349  0.5217 -0.3646
  953MOL0     C31409   1.625  10.182  10.001 -1.0031  0.7932  0.0111
  953MOL0     C31410   1.742  10.144   9.933 -0.1148 -0.1515 -0.5151
  953MOL0     C31411   1.863  10.130  10.002 -1.1026  0.6084  0.0768
  953MOL0     O31412   1.970  10.102   9.921  0.2334  0.4591  0.5943
  953MOL0     C31413   2.111  10.099   9.974  0.4205  0.0449 -0.6125
  953MOL0     C31414   2.223  10.064   9.875  0.9981  0.6507 -0.0740
  953MOL0     C31415   2.240  10.174   9.772 -0.0319  0.0499  0.4745
  953MOL0     C31416   2.365  10.145   9.683 -0.2176 -0.5437 -0.3401
  953MOL0     C31417   2.355  10.052   9.572 -0.4448  0.7262  0.6800
  953MOL0     C31418   2.484  10.029   9.503 -0.6133  0.5623 -0.6226
  953MOL0     C31419   2.474   9.911   9.404 -0.1981 -0.6144 -0.8687
  953MOL0     C31420   2.383   9.945   9.278 -0.1138 -0.3257  0.3679
  953MOL0    Cl31421   2.448  10.058   9.160 -0.4108  0.4398  0.0242
  953MOL0     C31422   1.868  10.151  10.139 -0.3748  0.2341  0.0036
  953MOL0     C31423   1.753  10.174  10.211  0.6406  0.0960 -0.4326
  953MOL0     O31424   1.431  10.053  10.212 -0.1272 -0.1052 -0.8238
  953MOL0     C31425   1.278  10.369  10.283  0.8498 -0.2253 -0.4579
  953MOL0     C31426   1.162  10.427  10.333 -0.3447 -0.2768  0.2471
  953MOL0     N31427   0.433  10.669  10.658  0.8350 -0.8275  0.1120
  953MOL0     N31428   0.388  10.637  10.769  0.6253  0.6570 -0.8353
  953MOL0     C31429   1.323  10.637  11.035 -0.5914  0.5073 -0.3389
  953MOL0     C31430   1.422  10.654  10.929 -0.3937 -0.5924 -0.7171
  953MOL0     C31431   1.671  10.582  10.567  0.0494 -0.3804  0.2104
  953MOL0     C31432   1.778  10.497  10.589 -0.8839  0.4448 -0.3930
  953MOL0     C31433   1.887  10.499  10.498 -0.4269 -0.2624  0.3503
  953MOL0     C31434   1.884  10.569  10.383  0.5043  1.3893 -0.5634
  953MOL0     O31435   1.985  10.574  10.289  0.0978 -0.6215  0.6313
  953MOL0     C31436   2.118  10.574  10.333  0.3170  0.4448 -1.1764
  953MOL0     C31437   2.140  10.696  10.424  0.8622 -0.2953 -0.0376
  953MOL0     C31438   2.266  10.674  10.511  0.4238  0.3142 -0.1174
  953MOL0     C31439   2.372  10.784  10.508 -0.2314 -0.2662  0.3911
  953MOL0     C31440   2.486  10.787  10.601 -0.3354  0.3018  0.7128
  953MOL0     C31441   2.587  10.780  10.667 -0.2382 -0.5261 -0.3469
  953MOL0     C31442   1.764  10.637  10.349  0.2060  1.1350  0.3068
  953MOL0     C31443   1.665  10.658  10.447 -0.0985 -0.2421 -0.5188
  953MOL0     C31444   1.547  10.738  10.401 -0.0971  0.5299 -0.2419
  953MOL0     H31445   1.578  10.356  10.969  0.1871 -0.2171 -0.2355
  953MOL0     H31446   1.375  10.317  11.111 -1.8983  0.4987  1.6931
  953MOL0     H31447   1.059  10.557  11.044  1.0528  0.3176 -1.2727
  953MOL0     H31448   1.029  10.560  11.221  0.1877 -3.3145  1.4328
  953MOL0     H31449   1.049  10.292  11.072 -0.1897 -0.6118 -0.5519
  953MOL0     H31450   0.970  10.333  11.226 -1.1933  2.5133  0.4995
  953MOL0     H31451   0.805  10.479  11.082  0.0043 -0.1881  0.6002
  953MOL0     H31452   0.866  10.391  10.949  0.7275 -0.6784  0.0269
  953MOL0     H31453   0.831  10.170  11.078  0.7890  0.4083 -0.0262
  953MOL0     H31454   0.747  10.286  11.196 -1.9780 -3.6887 -0.5387
  953MOL0     H31455   0.566  10.193  11.080  1.0936 -0.5236  0.0296
  953MOL0     H31456   0.669  10.187  10.927  5.2601 -0.7276  1.5671
  953MOL0     H31457   0.534  10.436  11.079 -1.3829  3.2120 -1.8642
  953MOL0     H31458   0.601  10.434  10.915  1.0929 -1.5747 -1.3379
  953MOL0     H31459   0.370  10.251  10.999 -0.0746  2.1983  1.7398
  953MOL0     H31460   0.436  10.252  10.837 -2.4427  1.1244 -0.6335
  953MOL0     H31461   0.229  10.398  10.872  0.2200 -1.9623 -1.6161
  953MOL0     H31462   0.317  10.484  10.994  2.5066  1.0455  1.1713
  953MOL0     H31463   0.370  10.353  10.605 -1.0291  0.4849  2.0026
  953MOL0     H31464   0.513  10.658  10.389  0.4303 -0.6769 -0.9468
  953MOL0     H31465   0.371  10.561  10.378  0.3102 -0.5060 -0.4604
  953MOL0     H31466   0.529  10.361  10.425  0.7116 -0.8494 -2.8539
  953MOL0     H31467   0.561  10.457  10.282  2.4339 -1.0935 -0.0234
  953MOL0     H31468   0.741  10.580  10.372  0.7551 -0.2229 -0.3189
  953MOL0     H31469   0.711  10.521  10.541 -2.3429 -0.0240 -0.5541
  953MOL0     H31470   0.788  10.319  10.487  0.4580 -0.8921  0.1537
  953MOL0     H31471   0.773  10.327  10.311 -0.2834  0.7332  1.1824
  953MOL0     H31472   0.971  10.149  10.359 -0.1616  1.5846 -0.8181
  953MOL0     H31473   1.213   9.976  10.193  5.2412  1.9302  2.2983
  953MOL0     H31474   1.075   9.947  10.316 -0.4263  0.9169  0.2480
  953MOL0     H31475   1.243   9.940  10.363  3.4315 -0.4356 -2.3239
  953MOL0     H31476   1.534  10.215   9.953 -0.4293  0.4986 -1.3067
  953MOL0     H31477   1.719  10.126   9.829  2.6556  3.4325 -1.9762
  953MOL0     H31478   2.137  10.202  10.001 -1.5570  0.0855  1.4422
  953MOL0     H31479   2.126  10.035  10.061 -0.3079  0.5397 -0.1191
  953MOL0     H31480   2.318  10.052   9.927  1.1570  1.8414 -0.0703
  953MOL0     H31481   2.202   9.966   9.829  0.4458  0.3144  0.8753
  953MOL0     H31482   2.265  10.261   9.834  2.7864 -0.8622  0.7452
  953MOL0     H31483   2.146  10.183   9.717  0.3146 -1.5582 -0.4304
  953MOL0     H31484   2.456  10.117   9.738 -0.1102  0.3968 -0.0115
  953MOL0     H31485   2.400  10.239   9.638  2.5127 -1.6183 -0.6442
  953MOL0     H31486   2.311   9.955   9.599 -4.3489  1.7923 -1.1708
  953MOL0     H31487   2.284  10.091   9.499 -0.5696  0.5490  0.7053
  953MOL0     H31488   2.559  10.007   9.579  1.8596  2.0306 -2.4897
  953MOL0     H31489   2.524  10.115   9.449 -1.0168  0.1148 -1.6542
  953MOL0     H31490   2.457   9.823   9.466 -5.2389  0.6521 -0.0476
  953MOL0     H31491   2.573   9.903   9.358  0.3889 -3.1333  0.6580
  953MOL0     H31492   2.287   9.980   9.318  0.0187  0.6243 -0.1214
  953MOL0     H31493   2.356   9.852   9.228 -0.0399 -0.1248 -0.0561
  953MOL0     H31494   1.965  10.124  10.181 -0.6711 -0.0666  0.5075
  953MOL0     H31495   1.758  10.182  10.319 -2.9431 -0.2197 -0.1032
  953MOL0     H31496   1.354  10.440  10.251 -0.1381  1.0191 -0.1090
  953MOL0     H31497   1.149  10.532  10.353  1.0954 -0.1247  0.4693
  953MOL0     H31498   1.267  10.722  11.073 -0.1621 -1.0435  4.5091
  953MOL0     H31499   1.444  10.749  10.883  0.7238  0.6931  2.2110
  953MOL0     H31500   1.774  10.444  10.683 -3.6401  1.6865  0.2889
  953MOL0     H31501   1.974  10.444  10.533  0.7045  0.2749 -1.5280
  953MOL0     H31502   2.146  10.480  10.382  1.3459  0.1124 -2.3481
  953MOL0     H31503   2.180  10.580  10.243  0.0391 -0.0148 -1.3969
  953MOL0     H31504   2.066  10.705  10.504  0.6372  1.0829 -0.3842
  953MOL0     H31505   2.140  10.776  10.350 -4.6602  0.9539  0.8815
  953MOL0     H31506   2.238  10.677  10.617  1.7337  1.7968  0.2268
  953MOL0     H31507   2.316  10.579  10.492 -1.7914 -0.6524 -1.5340
  953MOL0     H31508   2.335  10.885  10.530  0.9511  0.7086 -1.8228
  953MOL0     H31509   2.416  10.781  10.408 -0.6182 -1.7957  0.2462
  953MOL0     H31510   2.689  10.785  10.697  0.2680 -0.2629 -2.0194
  953MOL0     H31511   1.758  10.685  10.252  1.3097  1.8702  0.5834
  953MOL0     H31512   1.553  10.780  10.301 -3.3385 -0.2536 -0.8537
  953MOL0     H31513   1.459  10.674  10.407 -1.3109  2.0816 -0.9731
  953MOL0     H31514   1.532  10.819  10.473 -1.1851  0.4026 -0.3149
  954MOL0     O31515   7.577   8.325   4.971  0.6549  0.0578  0.0356
  954MOL0     C31516   7.599   8.348   5.092  0.2977  0.2563 -0.6426
  954MOL0     O31517   7.583   8.255   5.193  0.0129  0.9695  0.2165
  954MOL0     C31518   7.521   8.134   5.156  0.4220  0.1698 -0.0925
  954MOL0     C31519   7.396   8.133   5.093  0.6308 -0.6020 -1.3439
  954MOL0     C31520   7.335   8.009   5.060  0.0057  0.2330  0.0194
  954MOL0     C31521   7.391   7.891   5.088  0.4518  0.9009 -0.5678
  954MOL0     O31522   7.346   7.765   5.056 -0.3369 -0.7411 -0.2801
  954MOL0     C31523   7.266   7.740   4.941  0.6505 -0.5095 -0.1072
  954MOL0     C31524   7.293   7.612   4.864 -0.0053 -0.0123  0.4795
  954MOL0     C31525   7.299   7.479   4.945  0.5225  0.2588  0.3279
  954MOL0     C31526   7.428   7.449   5.007 -0.0748  0.3907 -0.6248
  954MOL0     C31527   7.541   7.411   4.920 -0.2236  0.1162  0.4065
  954MOL0     C31528   7.522   7.304   4.817 -0.6500 -1.6058  0.7458
  954MOL0     C31529   7.661   7.252   4.769 -0.0530  0.1457  0.0891
  954MOL0     C31530   7.643   7.146   4.661 -0.2949 -0.1157 -0.3672
  954MOL0     N31531   7.772   7.103   4.600 -0.8564 -0.3752  0.1913
  954MOL0     C31532   7.788   7.081   4.464  0.0130 -0.8246  0.8183
  954MOL0     C31533   7.910   7.019   4.454  0.4837  0.3936 -0.1619
  954MOL0     C31534   7.985   6.987   4.330 -0.1635 -0.0986  1.1761
  954MOL0     C31535   7.894   6.962   4.214 -0.1968  1.1997  0.3987
  954MOL0     C31536   7.826   6.822   4.235  0.4291 -0.3170  0.2894
  954MOL0     C31537   7.745   6.790   4.115 -0.9211 -0.7700 -0.3458
  954MOL0     O31538   7.678   6.661   4.118 -0.5272 -0.0020  0.6823
  954MOL0     C31539   7.708   6.555   4.031  0.3989 -0.6332  0.1658
  954MOL0     C31540   7.823   6.543   3.945 -0.1887  0.5585  0.7875
  954MOL0     C31541   7.858   6.431   3.872 -0.2484 -0.6108  0.5092
  954MOL0     C31542   7.978   6.421   3.775  0.8271  0.3854  0.8165
  954MOL0     C31543   7.770   6.327   3.878  0.8071 -0.1188  1.8246
  954MOL0     C31544   7.773   6.204   3.783  0.9634  0.6068 -0.4912
  954MOL0     O31545   7.654   6.132   3.766  0.1348  0.9958  0.0868
  954MOL0     C31546   7.645   6.028   3.678  0.1368 -0.4994  0.7400
  954MOL0     C31547   7.629   5.902   3.732 -0.5087 -1.5896  0.3594
  954MOL0     C31548   7.606   5.793   3.643  0.2500  0.3937  0.2669
  954MOL0     C31549   7.608   5.799   3.506 -0.9904  0.4274  0.3034
  954MOL0     O31550   7.605   5.678   3.434  0.7970 -0.2435  0.6164
  954MOL0     C31551   7.704   5.661   3.340 -0.3930 -0.1171 -0.5734
  954MOL0     C31552   7.720   5.512   3.315  1.0072  0.3252  1.0331
  954MOL0     C31553   7.785   5.486   3.181 -0.1092 -0.2587  0.3689
  954MOL0     C31554   7.797   5.334   3.150  0.7257 -0.6065  0.3105
  954MOL0     C31555   7.862   5.313   3.019  0.6239 -0.3862  0.0075
  954MOL0     C31556   7.754   5.288   2.911 -0.0399  0.2219 -0.0530
  954MOL0     C31557   7.818   5.317   2.778 -0.0511  0.7424 -0.2453
  954MOL0     C31558   7.747   5.244   2.663 -0.0048  1.0243  0.0448
  954MOL0    Cl31559   7.585   5.315   2.616 -0.3297 -0.0009 -0.3701
  954MOL0     C31560   7.627   5.925   3.455 -0.0424 -0.3007 -0.0711
  954MOL0     C31561   7.648   6.038   3.536  0.7356 -0.2553  0.3536
  954MOL0     O31562   7.880   6.177   3.736  0.1647  0.1559  0.2129
  954MOL0     C31563   7.653   6.336   3.953 -0.3376  0.8841  0.2686
  954MOL0     C31564   7.621   6.448   4.038  0.0729  0.7915  1.0787
  954MOL0     N31565   7.964   7.003   4.583 -0.0203  0.4512  0.3436
  954MOL0     N31566   7.875   7.047   4.663 -0.6579 -0.3016  0.5171
  954MOL0     C31567   7.516   7.885   5.157  0.0003 -0.3469  0.3402
  954MOL0     C31568   7.580   8.006   5.182  0.2749  1.0998 -0.0029
  954MOL0     C31569   7.654   8.478   5.129  0.9148  0.3028 -0.2838
  954MOL0     C31570   7.680   8.496   5.266  0.2077 -0.1882 -0.3152
  954MOL0     C31571   7.713   8.620   5.317 -0.2109 -0.0774  0.7607
  954MOL0     C31572   7.736   8.729   5.239  1.1082  0.7589  0.2857
  954MOL0     O31573   7.769   8.842   5.308  0.4064  0.0719  0.2386
  954MOL0     C31574   7.811   8.959   5.224  0.7302  0.5680 -0.6190
  954MOL0     C31575   7.846   9.072   5.324 -0.3864  0.2623 -0.5079
  954MOL0     C31576   7.964   9.044   5.422 -0.2604 -0.3194  0.3409
  954MOL0     C31577   8.092   9.013   5.344  0.5721  0.3030  1.0494
  954MOL0     C31578   8.215   9.035   5.419  0.4432  0.2034  0.0335
  954MOL0     C31579   8.303   9.080   5.491  0.4562 -0.1795  0.5254
  954MOL0     C31580   7.706   8.718   5.096  0.1718  0.9480  0.5651
  954MOL0     C31581   7.668   8.595   5.040 -0.2077  0.6919 -0.4419
  954MOL0     C31582   7.641   8.596   4.893  0.1423  0.1696 -1.1556
  954MOL0     H31583   7.325   8.215   5.102 -1.5785 -2.5992  0.7078
  954MOL0     H31584   7.235   8.000   5.019  0.1822  0.2939 -0.4264
  954MOL0     H31585   7.267   7.827   4.876  0.0675 -1.4889 -1.4693
  954MOL0     H31586   7.163   7.736   4.976  1.0034 -4.7269  1.0583
  954MOL0     H31587   7.227   7.621   4.778  0.5171  2.2403  0.2421
  954MOL0     H31588   7.391   7.624   4.816  0.9110 -1.2415  1.9347
  954MOL0     H31589   7.230   7.490   5.030 -0.7081  0.4812 -0.6678
  954MOL0     H31590   7.269   7.397   4.879  1.9383  1.1531 -1.4851
  954MOL0     H31591   7.450   7.540   5.064 -1.5264  1.8701 -2.3127
  954MOL0     H31592   7.405   7.372   5.081 -1.6422  1.3022 -0.1241
  954MOL0     H31593   7.624   7.380   4.984 -1.7850 -0.8548  2.0894
  954MOL0     H31594   7.579   7.502   4.873 -0.6094 -0.2479 -0.6477
  954MOL0     H31595   7.465   7.223   4.863 -1.0410 -1.7981 -0.0635
  954MOL0     H31596   7.461   7.342   4.734  0.6102 -0.6706  0.2269
  954MOL0     H31597   7.725   7.205   4.844  0.3793 -0.5083 -0.6811
  954MOL0     H31598   7.706   7.341   4.724  0.4036  0.8910  1.9312
  954MOL0     H31599   7.583   7.065   4.702 -1.8402 -0.4999 -3.1633
  954MOL0     H31600   7.578   7.196   4.589  1.4839  2.3903 -0.3633
  954MOL0     H31601   7.719   7.104   4.384 -1.1394  1.7086  2.4047
  954MOL0     H31602   8.044   6.897   4.349 -1.3193 -2.8260 -5.3051
  954MOL0     H31603   8.057   7.064   4.301  1.0275 -1.2769  0.8856
  954MOL0     H31604   7.820   7.042   4.204  1.2422  2.3999 -1.1647
  954MOL0     H31605   7.964   6.965   4.129 -1.8891  1.5057 -1.0469
  954MOL0     H31606   7.914   6.759   4.251  0.8672  0.9100  3.3047
  954MOL0     H31607   7.763   6.814   4.324 -1.6521 -0.4746 -1.1310
  954MOL0     H31608   7.666   6.866   4.112 -0.0402  0.1808 -3.9738
  954MOL0     H31609   7.809   6.794   4.026  1.4720  2.3264  1.2928
  954MOL0     H31610   7.879   6.633   3.920  0.4766 -0.2805 -0.8599
  954MOL0     H31611   7.952   6.392   3.673  2.0847  0.3533  0.4976
  954MOL0     H31612   8.047   6.349   3.819  1.8031 -0.0487 -1.3018
  954MOL0     H31613   8.027   6.517   3.758  3.7738 -0.4351  3.6958
  954MOL0     H31614   7.610   5.885   3.837 -3.0984 -0.4886  0.1463
  954MOL0     H31615   7.570   5.702   3.689 -0.4122  0.3700 -0.2873
  954MOL0     H31616   7.676   5.711   3.246 -0.8799 -1.3997 -1.1344
  954MOL0     H31617   7.789   5.703   3.393 -3.0099  1.6597  2.6008
  954MOL0     H31618   7.791   5.482   3.392  2.1948 -1.2451 -0.5808
  954MOL0     H31619   7.629   5.451   3.310  0.9498  0.3948  1.2249
  954MOL0     H31620   7.881   5.538   3.177  0.6726 -1.7440 -1.3517
  954MOL0     H31621   7.719   5.533   3.108  1.2962 -0.7485 -1.2713
  954MOL0     H31622   7.694   5.298   3.149  0.0716  1.1578  1.2914
  954MOL0     H31623   7.846   5.284   3.234  0.9363  0.2773  0.7242
  954MOL0     H31624   7.921   5.401   2.992 -0.5873  0.1470 -0.9959
  954MOL0     H31625   7.920   5.220   3.019  0.8464 -0.2558 -0.9738
  954MOL0     H31626   7.669   5.355   2.925 -1.1060 -1.2039  0.6120
  954MOL0     H31627   7.728   5.182   2.919 -1.6425  0.6338  0.5628
  954MOL0     H31628   7.923   5.286   2.775 -0.1854 -0.2123  2.4206
  954MOL0     H31629   7.822   5.423   2.750  1.0335  0.2479 -2.1993
  954MOL0     H31630   7.745   5.139   2.695  1.4282  1.4319  1.5824
  954MOL0     H31631   7.803   5.251   2.569  0.9025 -3.7453 -0.0365
  954MOL0     H31632   7.633   5.941   3.348  0.7263  3.9580  0.4261
  954MOL0     H31633   7.651   6.135   3.486  0.3867  0.5389  1.7913
  954MOL0     H31634   7.595   6.245   3.960  0.7050  0.0901 -0.9433
  954MOL0     H31635   7.535   6.442   4.104 -0.4602 -1.3703  0.2568
  954MOL0     H31636   7.557   7.794   5.199 -1.6073 -0.6952  1.2512
  954MOL0     H31637   7.666   8.004   5.248  0.5184 -2.1233 -0.2738
  954MOL0     H31638   7.668   8.421   5.343 -0.8112 -0.6480 -0.8960
  954MOL0     H31639   7.726   8.639   5.423  1.3325 -1.7260  0.9113
  954MOL0     H31640   7.883   8.947   5.142 -0.7697  0.9338 -2.0365
  954MOL0     H31641   7.726   8.996   5.167 -1.6736  0.4551  2.6358
  954MOL0     H31642   7.756   9.075   5.387  1.2982 -1.2259  2.2145
  954MOL0     H31643   7.862   9.162   5.265  2.2115  0.2385  0.0249
  954MOL0     H31644   7.977   9.143   5.466 -1.6004 -0.4080  0.9720
  954MOL0     H31645   7.945   8.970   5.501  2.3537  0.1836  1.5612
  954MOL0     H31646   8.098   9.074   5.254  0.9500 -2.8897 -1.2283
  954MOL0     H31647   8.095   8.908   5.313 -0.5110  0.3578  0.7295
  954MOL0     H31648   8.395   9.111   5.535  0.8727 -0.7129  0.0459
  954MOL0     H31649   7.710   8.804   5.031  0.8721  1.8015  1.6872
  954MOL0     H31650   7.688   8.505   4.855 -0.9141 -1.5822  1.4206
  954MOL0     H31651   7.536   8.574   4.870 -0.7262  2.4193  0.3268
  954MOL0     H31652   7.674   8.691   4.851 -0.3549  1.1177  0.5109
  955MOL0     O31653  10.477   9.997   8.244  0.5346 -0.7171  0.2600
  955MOL0     C31654  10.589   9.972   8.293  0.2361 -0.6730 -0.1434
  955MOL0     O31655  10.611   9.897   8.405 -0.2371 -0.8378 -0.3051
  955MOL0     C31656  10.510   9.854   8.486 -0.5556  0.9876 -0.0681
  955MOL0     C31657  10.410   9.770   8.438 -0.0621  1.9470 -0.3788
  955MOL0     C31658  10.301   9.729   8.520 -0.2203 -0.7222  0.4711
  955MOL0     C31659  10.304   9.763   8.654 -0.5113 -0.6685  1.0197
  955MOL0     O31660  10.190   9.731   8.722  0.3765  0.5748  0.7949
  955MOL0     C31661  10.202   9.686   8.856  1.1857  0.1728  0.1841
  955MOL0     C31662  10.295   9.567   8.880 -0.0597  0.7674 -0.3739
  955MOL0     C31663  10.289   9.526   9.024 -0.6020 -0.1236  0.1078
  955MOL0     C31664  10.425   9.453   9.049 -0.5590  0.6035 -0.1652
  955MOL0     C31665  10.436   9.380   9.181  0.2509  0.3721 -0.3745
  955MOL0     C31666  10.332   9.422   9.291  0.0775 -0.1080 -0.8787
  955MOL0     C31667  10.353   9.350   9.419  0.4830  0.7540  0.2306
  955MOL0     C31668  10.246   9.399   9.522 -0.1501 -0.1395  0.8254
  955MOL0     N31669  10.228   9.294   9.625 -0.3524 -0.4051 -1.0728
  955MOL0     C31670  10.329   9.234   9.688 -0.6455 -0.3994 -0.4237
  955MOL0     C31671  10.277   9.119   9.744 -0.6780  1.1696  0.9977
  955MOL0     C31672  10.331   9.015   9.829 -0.4101 -0.4133  0.3177
  955MOL0     C31673  10.416   9.087   9.935  0.0594  0.4615 -0.3307
  955MOL0     C31674  10.353   9.200  10.014  0.2698 -0.5306  1.3056
  955MOL0     C31675  10.432   9.226  10.136 -0.2357 -0.1243  0.4428
  955MOL0     O31676  10.411   9.113  10.220 -0.1184  0.6918 -0.2908
  955MOL0     C31677  10.307   9.108  10.308  0.4300 -0.2862 -0.5765
  955MOL0     C31678  10.300   9.198  10.420  0.4874 -0.3101 -0.8598
  955MOL0     C31679  10.189   9.189  10.514  0.3003 -0.1540  0.0961
  955MOL0     C31680  10.179   9.306  10.606 -0.2196 -0.0640 -1.0391
  955MOL0     C31681  10.087   9.088  10.497  0.3615  0.1593  0.8230
  955MOL0     C31682   9.967   9.075  10.586 -0.3056  0.1236 -0.5459
  955MOL0     O31683   9.860   9.026  10.520  0.6227  0.3853  0.1104
  955MOL0     C31684   9.746   9.007  10.596 -0.7104  0.5347 -0.7554
  955MOL0     C31685   9.719   8.874  10.613 -0.3886 -0.7400 -0.0627
  955MOL0     C31686   9.604   8.837  10.682 -0.0453  1.0121  0.0269
  955MOL0     C31687   9.514   8.939  10.730  0.7984  0.4963 -0.6458
  955MOL0     O31688   9.395   8.888  10.770  0.4439  0.2725  0.2569
  955MOL0     C31689   9.359   8.929  10.902 -0.5849 -0.0647 -1.1060
  955MOL0     C31690   9.221   8.890  10.953  0.3910  0.0549 -0.5990
  955MOL0     C31691   9.204   8.739  10.966 -0.2964 -0.0149  0.0370
  955MOL0     C31692   9.063   8.674  10.959 -0.2756 -0.5782  0.4536
  955MOL0     C31693   8.966   8.732  11.069 -0.0644  0.6407  0.3558
  955MOL0     C31694   8.831   8.655  11.064  0.0763 -0.0723  0.5614
  955MOL0     C31695   8.734   8.667  11.185 -0.4279  0.5631  0.2610
  955MOL0     C31696   8.717   8.528  11.261 -0.0777 -0.8597  0.3286
  955MOL0    Cl31697   8.656   8.403  11.149 -0.0010 -0.1189  0.7269
  955MOL0     C31698   9.546   9.078  10.710 -0.3884 -0.4478 -0.3809
  955MOL0     C31699   9.670   9.111  10.643 -0.5572  0.3566 -0.9860
  955MOL0     O31700   9.976   9.100  10.705  0.3631  0.1940  0.5459
  955MOL0     C31701  10.103   8.998  10.390 -0.0628  0.3140 -0.1979
  955MOL0     C31702  10.209   9.011  10.301  0.4651 -1.1199  0.6038
  955MOL0     N31703  10.144   9.119   9.714  0.4194 -0.0527 -0.2138
  955MOL0     N31704  10.115   9.223   9.644  0.7724  0.3384  0.1436
  955MOL0     C31705  10.411   9.844   8.697 -0.1239 -0.4320 -1.3803
  955MOL0     C31706  10.508   9.898   8.611  0.3299  0.6353 -0.5001
  955MOL0     C31707  10.703  10.010   8.228 -0.0211 -0.5556  0.2150
  955MOL0     C31708  10.797   9.904   8.219  0.3390 -0.3675  0.3389
  955MOL0     C31709  10.920   9.933   8.185 -1.2582  0.0263 -0.1864
  955MOL0     C31710  10.968  10.072   8.162  1.6132  0.1423 -0.5649
  955MOL0     O31711  11.095  10.088   8.129  0.3473  0.2036  0.0699
  955MOL0     C31712  11.149  10.216   8.148 -0.6134 -0.6879  0.5936
  955MOL0     C31713  11.285  10.201   8.216 -1.2124  0.0162  0.1740
  955MOL0     C31714  11.392  10.136   8.116  0.1270  0.2721  0.3318
  955MOL0     C31715  11.528  10.116   8.156  0.1406 -0.9303  0.2229
  955MOL0     C31716  11.606  10.243   8.160 -0.8087  0.1712 -1.3307
  955MOL0     C31717  11.675  10.339   8.159  0.4295 -0.1005 -0.0518
  955MOL0     C31718  10.870  10.174   8.176 -0.5207 -0.0102 -0.2852
  955MOL0     C31719  10.739  10.148   8.206  0.2396  0.3664  0.2581
  955MOL0     C31720  10.650  10.271   8.241  0.5705 -0.9147 -0.0954
  955MOL0     H31721  10.410   9.740   8.333 -0.7980 -2.8591  0.7497
  955MOL0     H31722  10.230   9.678   8.456 -0.6851  0.8871 -0.3688
  955MOL0     H31723  10.100   9.652   8.879  0.7295  1.0142 -0.5372
  955MOL0     H31724  10.224   9.781   8.906  1.0196  2.6025 -3.9363
  955MOL0     H31725  10.264   9.483   8.817 -0.4131  0.0443  0.7287
  955MOL0     H31726  10.398   9.596   8.860  0.6329 -2.0411 -1.3372
  955MOL0     H31727  10.296   9.617   9.084  3.5026  1.8536 -2.8041
  955MOL0     H31728  10.209   9.456   9.048 -0.3776 -0.5858 -0.4736
  955MOL0     H31729  10.434   9.372   8.976  0.8923 -2.7163  3.3310
  955MOL0     H31730  10.509   9.522   9.037 -1.7996  2.1309 -0.4664
  955MOL0     H31731  10.536   9.391   9.224  1.8422 -0.2243 -3.5769
  955MOL0     H31732  10.430   9.271   9.166  0.1847 -0.0098  2.0147
  955MOL0     H31733  10.362   9.525   9.311 -1.8833  0.3038  0.1333
  955MOL0     H31734  10.227   9.421   9.260 -1.8625  1.8349  4.3889
  955MOL0     H31735  10.448   9.341   9.472 -0.9200 -3.7589  2.5228
  955MOL0     H31736  10.335   9.246   9.389  0.9524  0.8444 -0.3900
  955MOL0     H31737  10.287   9.490   9.569  1.9237 -1.7217  2.2859
  955MOL0     H31738  10.159   9.417   9.459  0.6054 -1.1642 -0.5721
  955MOL0     H31739  10.433   9.266   9.687 -0.3786 -1.1881  0.5447
  955MOL0     H31740  10.380   8.945   9.761  0.4336  0.8926 -0.4645
  955MOL0     H31741  10.251   8.965   9.883 -1.0953  0.3677  0.0506
  955MOL0     H31742  10.442   9.005  10.003 -2.4053  0.5102  0.7853
  955MOL0     H31743  10.509   9.122   9.889 -0.3423 -0.1079 -1.6202
  955MOL0     H31744  10.342   9.287   9.948 -1.1907 -0.7271  1.2661
  955MOL0     H31745  10.248   9.174  10.031 -1.1050  0.8071 -3.5181
  955MOL0     H31746  10.540   9.222  10.118 -0.0843 -3.4506  1.3013
  955MOL0     H31747  10.394   9.320  10.175  1.8153  2.5729 -3.4250
  955MOL0     H31748  10.394   9.250  10.438  1.3418 -2.4934  1.7543
  955MOL0     H31749  10.258   9.380  10.589 -1.7426  1.4810 -1.6431
  955MOL0     H31750  10.192   9.267  10.707  0.3452  2.1266 -0.2250
  955MOL0     H31751  10.077   9.345  10.600 -0.3847  0.7125  3.4185
  955MOL0     H31752   9.770   8.798  10.554  0.4531  0.8660 -1.4771
  955MOL0     H31753   9.579   8.732  10.696 -2.6235  1.9719  3.9890
  955MOL0     H31754   9.427   8.891  10.980 -2.6300 -3.3774 -0.7620
  955MOL0     H31755   9.355   9.038  10.893  1.8976  0.0252 -1.8158
  955MOL0     H31756   9.200   8.946  11.045  0.1478  3.1067 -2.3917
  955MOL0     H31757   9.149   8.925  10.879 -0.2509 -0.4405 -0.2229
  955MOL0     H31758   9.259   8.710  11.057  0.2511  0.4358 -0.1411
  955MOL0     H31759   9.258   8.699  10.880  0.2953 -0.1175  0.4494
  955MOL0     H31760   9.076   8.566  10.972  2.3466 -0.1764  1.8800
  955MOL0     H31761   9.029   8.691  10.856 -0.3002  1.5376  0.7707
  955MOL0     H31762   9.017   8.726  11.166 -1.6044  2.0111  1.3150
  955MOL0     H31763   8.950   8.839  11.050  3.0668  0.4322 -5.6531
  955MOL0     H31764   8.861   8.550  11.055 -0.3747 -0.1550 -0.0489
  955MOL0     H31765   8.789   8.683  10.967 -2.1791 -0.0868  1.4741
  955MOL0     H31766   8.638   8.704  11.149 -2.4663 -3.2791  1.1920
  955MOL0     H31767   8.778   8.742  11.252  0.6751 -0.2102  0.4308
  955MOL0     H31768   8.645   8.536  11.343 -0.1655  2.6542  0.0655
  955MOL0     H31769   8.818   8.497  11.291  1.3460  1.7840 -1.2563
  955MOL0     H31770   9.481   9.153  10.754  2.9289  2.6052 -0.2559
  955MOL0     H31771   9.683   9.218  10.631  4.6810  0.3698  1.6519
  955MOL0     H31772  10.037   8.913  10.370  0.3063 -0.3394  1.2744
  955MOL0     H31773  10.231   8.945  10.218  0.7214 -1.1564  0.7021
  955MOL0     H31774  10.401   9.877   8.800 -0.2310  1.0274 -1.8346
  955MOL0     H31775  10.579   9.963   8.661 -0.5292  1.0333  0.2535
  955MOL0     H31776  10.767   9.801   8.239  3.7784 -1.7435 -0.8070
  955MOL0     H31777  10.991   9.853   8.172 -0.5051  0.5012  0.9016
  955MOL0     H31778  11.150  10.277   8.058  2.9248  0.8700  1.5504
  955MOL0     H31779  11.077  10.277   8.204 -0.6479  1.0657 -1.2735
  955MOL0     H31780  11.268  10.135   8.302 -1.5954  0.0532  0.1273
  955MOL0     H31781  11.317  10.300   8.251 -0.0840 -0.1129 -0.4581
  955MOL0     H31782  11.351  10.038   8.090 -1.8417  0.8184  1.2321
  955MOL0     H31783  11.390  10.192   8.022 -5.2137 -2.3202 -1.5120
  955MOL0     H31784  11.570  10.044   8.086 -0.1433  0.5056 -1.4964
  955MOL0     H31785  11.535  10.061   8.250 -0.3999  0.9505  1.4147
  955MOL0     H31786  11.727  10.431   8.169  0.4367 -0.1647  0.5245
  955MOL0     H31787  10.894  10.279   8.159 -1.2217  0.0155 -1.2061
  955MOL0     H31788  10.708  10.363   8.230 -1.4288  0.4457  0.2160
  955MOL0     H31789  10.565  10.262   8.173 -0.6905 -0.5699  1.3566
  955MOL0     H31790  10.622  10.266   8.347  2.6789  2.5758  0.8008
  956MOL0     O31791   4.615   7.626   3.250  0.4279 -0.3695  0.4349
  956MOL0     C31792   4.492   7.620   3.241 -0.4059 -0.1201 -0.1467
  956MOL0     O31793   4.431   7.548   3.140  0.4885  0.6880  0.3947
  956MOL0     C31794   4.508   7.478   3.044 -0.5742 -0.9575  0.8117
  956MOL0     C31795   4.621   7.400   3.075  0.1400 -0.1026  0.6587
  956MOL0     C31796   4.684   7.325   2.980 -0.0624 -0.2878  0.3296
  956MOL0     C31797   4.643   7.329   2.844  0.2562 -0.0340  1.0409
  956MOL0     O31798   4.704   7.248   2.747  0.1186  0.1086  0.6027
  956MOL0     C31799   4.789   7.136   2.761  0.2007 -0.2140 -0.5663
  956MOL0     C31800   4.718   7.017   2.812  0.2665  0.3294 -0.4856
  956MOL0     C31801   4.611   6.967   2.705  0.7933 -0.1698  0.4195
  956MOL0     C31802   4.548   6.835   2.751  0.5261  0.6270 -0.5833
  956MOL0     C31803   4.445   6.782   2.649  0.8901  0.0451  0.8040
  956MOL0     C31804   4.340   6.670   2.686 -0.4663  0.1846 -0.1389
  956MOL0     C31805   4.397   6.538   2.715 -0.5938 -0.2907  0.7428
  956MOL0     C31806   4.450   6.528   2.863 -0.3522 -1.2276  0.0635
  956MOL0     N31807   4.345   6.548   2.963  0.3538  0.7897 -0.6573
  956MOL0     C31808   4.335   6.653   3.055  0.6827 -0.2756  0.3449
  956MOL0     C31809   4.231   6.632   3.134  0.3886  0.5140 -0.4169
  956MOL0     C31810   4.188   6.721   3.249 -0.0979  0.6660  0.0237
  956MOL0     C31811   4.068   6.670   3.335 -0.1448  0.8652  0.1767
  956MOL0     C31812   4.103   6.554   3.429  0.0091 -0.2708  0.1966
  956MOL0     C31813   3.996   6.534   3.532 -0.6177 -0.0974 -0.3735
  956MOL0     O31814   3.862   6.508   3.480  0.2104  0.0687 -0.4238
  956MOL0     C31815   3.758   6.561   3.546 -1.8349 -1.0196  0.4336
  956MOL0     C31816   3.681   6.494   3.640 -0.1788  0.0928 -0.7725
  956MOL0     C31817   3.580   6.557   3.716  1.5608 -0.2979  0.4810
  956MOL0     C31818   3.520   6.474   3.833  0.4313 -0.3968  0.1807
  956MOL0     C31819   3.541   6.684   3.681  0.7876  0.0520 -0.8960
  956MOL0     C31820   3.443   6.763   3.754  0.6011  0.3654 -0.9098
  956MOL0     O31821   3.367   6.848   3.676  0.0023  0.6217  0.2055
  956MOL0     C31822   3.240   6.883   3.706 -0.1326  0.5150  0.0097
  956MOL0     C31823   3.133   6.790   3.695 -0.3596  0.6613  0.7883
  956MOL0     C31824   3.009   6.831   3.743  0.0893  0.7071  0.7473
  956MOL0     C31825   2.983   6.961   3.789  0.0642  0.5799 -0.2700
  956MOL0     O31826   2.862   7.004   3.828  0.1348 -0.1086  0.0122
  956MOL0     C31827   2.740   6.946   3.785 -0.3599 -0.4918  0.2761
  956MOL0     C31828   2.701   6.833   3.877 -0.0234 -0.2090  0.1282
  956MOL0     C31829   2.614   6.717   3.829  0.1535 -0.0045  0.3475
  956MOL0     C31830   2.655   6.574   3.877 -0.0458  0.5716 -0.9079
  956MOL0     C31831   2.588   6.473   3.790  0.2251 -0.9918 -0.0100
  956MOL0     C31832   2.443   6.486   3.798  0.3524  0.5586 -0.0397
  956MOL0     C31833   2.393   6.534   3.661  0.1503 -0.0053  0.0983
  956MOL0     C31834   2.236   6.516   3.658 -0.9147 -0.6120 -0.1000
  956MOL0    Cl31835   2.171   6.356   3.671 -0.2233 -0.1287  0.1031
  956MOL0     C31836   3.088   7.060   3.784 -0.2022 -0.1398  0.2714
  956MOL0     C31837   3.215   7.014   3.746 -0.2059  0.1618 -0.3584
  956MOL0     O31838   3.418   6.748   3.876  0.0476 -0.0835 -0.0445
  956MOL0     C31839   3.611   6.742   3.565 -0.5631 -0.0521 -1.0902
  956MOL0     C31840   3.729   6.690   3.509  0.5417 -0.2305 -0.6328
  956MOL0     N31841   4.166   6.511   3.089 -0.4642  0.1831 -0.0808
  956MOL0     N31842   4.235   6.466   2.988 -0.5869  1.0435  0.2053
  956MOL0     C31843   4.538   7.418   2.808 -0.3294 -0.1492  0.5633
  956MOL0     C31844   4.463   7.486   2.908 -0.1513  0.5254  1.1053
  956MOL0     C31845   4.406   7.695   3.331  0.1171  0.0104  0.2387
  956MOL0     C31846   4.276   7.647   3.338 -0.2330 -0.2372 -0.3545
  956MOL0     C31847   4.179   7.717   3.411  1.4427 -0.3788 -0.4157
  956MOL0     C31848   4.206   7.828   3.495 -0.6002  0.0189 -1.0068
  956MOL0     O31849   4.105   7.877   3.561  0.2820  0.9511  0.2289
  956MOL0     C31850   4.129   7.971   3.668  0.7679 -0.1969  0.4535
  956MOL0     C31851   3.985   8.024   3.712  0.1159 -0.0586  0.6730
  956MOL0     C31852   3.885   7.906   3.751 -1.0340  0.0764 -0.3490
  956MOL0     C31853   3.801   7.923   3.869  0.2662 -0.6291 -1.5662
  956MOL0     C31854   3.873   7.906   3.996  0.5321  0.4845  0.9199
  956MOL0     C31855   3.932   7.906   4.101 -0.1036  0.1891  0.1706
  956MOL0     C31856   4.346   7.863   3.493 -0.0292 -0.4409  0.1246
  956MOL0     C31857   4.441   7.804   3.412 -0.1813 -0.3777 -1.0670
  956MOL0     C31858   4.582   7.858   3.419 -0.1165  0.1695 -0.2874
  956MOL0     H31859   4.653   7.394   3.179 -3.2529 -4.0632  1.7246
  956MOL0     H31860   4.771   7.266   3.009 -0.5088 -1.8572 -1.3474
  956MOL0     H31861   4.869   7.151   2.834 -2.1952  0.5044  2.0618
  956MOL0     H31862   4.818   7.123   2.656 -0.4609  1.1173 -0.9344
  956MOL0     H31863   4.782   6.934   2.842  1.1517  1.5670  1.2390
  956MOL0     H31864   4.665   7.050   2.902  2.3356 -1.4637  1.5065
  956MOL0     H31865   4.538   7.046   2.688 -0.3162 -1.6333 -2.3592
  956MOL0     H31866   4.659   6.944   2.610 -2.0447  0.5272 -1.2955
  956MOL0     H31867   4.633   6.768   2.764  0.6814  0.7317 -1.0288
  956MOL0     H31868   4.508   6.837   2.853  1.9509 -4.5262  0.3595
  956MOL0     H31869   4.499   6.767   2.555  1.0449 -0.5454  0.9868
  956MOL0     H31870   4.370   6.860   2.627  0.2165 -0.6051  0.7549
  956MOL0     H31871   4.298   6.702   2.781 -0.2323 -1.7388  0.6505
  956MOL0     H31872   4.267   6.661   2.605  0.1797  1.1746 -0.8665
  956MOL0     H31873   4.478   6.505   2.648 -2.0025 -0.8561 -0.7605
  956MOL0     H31874   4.311   6.471   2.712 -0.2602 -1.0967  4.4627
  956MOL0     H31875   4.484   6.424   2.872  3.0220 -0.1373  1.4690
  956MOL0     H31876   4.527   6.599   2.895 -0.9951 -0.9655  1.0844
  956MOL0     H31877   4.395   6.742   3.069  1.0710  0.0075 -2.4665
  956MOL0     H31878   4.159   6.809   3.191 -1.2863 -0.7458 -1.6274
  956MOL0     H31879   4.269   6.758   3.314  1.1689 -1.4512 -0.2483
  956MOL0     H31880   4.019   6.754   3.386  0.2960  1.1081  0.2053
  956MOL0     H31881   4.002   6.637   3.254 -1.3479  0.5163  1.2518
  956MOL0     H31882   4.110   6.475   3.353  2.0878  1.6012 -1.6917
  956MOL0     H31883   4.201   6.572   3.475 -0.6452  1.9501  0.8152
  956MOL0     H31884   4.024   6.444   3.588  0.5959 -0.3058 -1.2567
  956MOL0     H31885   3.998   6.627   3.588  1.3613  0.6500 -1.5622
  956MOL0     H31886   3.697   6.389   3.661 -3.0316 -0.1133  0.9674
  956MOL0     H31887   3.423   6.522   3.849  1.5454  2.2220 -0.4813
  956MOL0     H31888   3.585   6.472   3.921 -1.1790 -2.7298  1.4408
  956MOL0     H31889   3.493   6.372   3.803 -0.0677  0.4316 -2.4337
  956MOL0     H31890   3.148   6.685   3.673 -1.6977  0.7681 -0.8259
  956MOL0     H31891   2.932   6.759   3.769 -1.9064  0.9149 -3.5788
  956MOL0     H31892   2.667   7.026   3.803 -1.3240 -1.6271  1.6089
  956MOL0     H31893   2.746   6.916   3.680  1.0905  1.4143 -0.2384
  956MOL0     H31894   2.794   6.789   3.914  0.2646 -0.9187 -1.3637
  956MOL0     H31895   2.647   6.887   3.956  1.3152 -0.3543  1.1754
  956MOL0     H31896   2.623   6.712   3.720  3.3400  3.7590  0.2167
  956MOL0     H31897   2.509   6.746   3.843  0.0996 -0.5582  1.1448
  956MOL0     H31898   2.615   6.563   3.978 -0.5076 -0.4459 -1.1879
  956MOL0     H31899   2.762   6.551   3.882 -0.3330 -0.5304  1.6833
  956MOL0     H31900   2.628   6.493   3.690  0.8708 -1.9759  0.0314
  956MOL0     H31901   2.626   6.376   3.822  1.1778 -0.3301  0.9184
  956MOL0     H31902   2.408   6.555   3.876 -1.5751  0.4943 -0.7919
  956MOL0     H31903   2.398   6.389   3.823 -0.1133  0.6658 -0.4540
  956MOL0     H31904   2.436   6.472   3.581 -2.0882 -2.5504  0.7031
  956MOL0     H31905   2.427   6.638   3.656  0.1576  0.0121  0.4769
  956MOL0     H31906   2.198   6.553   3.562  0.6867  3.1627  0.5452
  956MOL0     H31907   2.194   6.595   3.722  0.0060  1.8792 -2.3648
  956MOL0     H31908   3.078   7.164   3.813  0.8815 -0.8208  3.4813
  956MOL0     H31909   3.297   7.085   3.754 -0.3178  0.1228  1.6853
  956MOL0     H31910   3.578   6.835   3.518 -2.5995 -0.2098 -0.0649
  956MOL0     H31911   3.792   6.732   3.431  3.2155 -0.4540  1.2484
  956MOL0     H31912   4.494   7.410   2.709  0.0730 -3.4061  0.5420
  956MOL0     H31913   4.381   7.547   2.871  0.3444 -0.0426 -1.0759
  956MOL0     H31914   4.246   7.555   3.290  0.4915 -0.3492 -0.6076
  956MOL0     H31915   4.081   7.674   3.427 -1.3022  5.0582 -0.3198
  956MOL0     H31916   4.180   7.929   3.755  0.2513  2.2711  2.0460
  956MOL0     H31917   4.176   8.066   3.642 -1.7353  1.0268  0.1600
  956MOL0     H31918   3.941   8.095   3.642 -1.4542  0.7901  2.4291
  956MOL0     H31919   3.993   8.077   3.807 -0.8126 -0.6548  1.1003
  956MOL0     H31920   3.818   7.890   3.666  0.6671 -0.8853 -1.5725
  956MOL0     H31921   3.951   7.818   3.756  0.3882  1.1418  0.7437
  956MOL0     H31922   3.719   7.851   3.872  2.2869 -3.1075  2.0157
  956MOL0     H31923   3.762   8.025   3.882  2.7079 -0.0456  2.8963
  956MOL0     H31924   3.974   7.886   4.198  3.3388  1.8176 -0.8694
  956MOL0     H31925   4.384   7.949   3.549 -1.4820 -0.3550  1.0304
  956MOL0     H31926   4.594   7.960   3.456 -0.0860 -0.1925  0.7183
  956MOL0     H31927   4.641   7.798   3.489  0.1268  1.8293  0.9747
  956MOL0     H31928   4.618   7.850   3.316 -1.3050  1.4087 -0.8326
  957MOL0     O31929   7.726   6.330   9.109  0.1639 -0.4380  0.4554
  957MOL0     C31930   7.611   6.361   9.135  0.6107 -0.2557  0.1638
  957MOL0     O31931   7.556   6.487   9.095  0.1436 -0.1273 -0.0734
  957MOL0     C31932   7.644   6.573   9.036  0.7924 -0.3060 -0.5775
  957MOL0     C31933   7.700   6.556   8.912 -0.4112  0.2495 -0.5292
  957MOL0     C31934   7.783   6.651   8.854 -0.0200 -0.3708  0.8141
  957MOL0     C31935   7.815   6.769   8.920  0.2428 -0.9721  1.3290
  957MOL0     O31936   7.886   6.875   8.871  0.5334 -0.5561 -0.0185
  957MOL0     C31937   7.984   6.850   8.765 -0.2820 -0.0139  0.8004
  957MOL0     C31938   8.120   6.791   8.816  0.4342 -0.2939 -0.8076
  957MOL0     C31939   8.110   6.645   8.850 -0.0185  0.9572  0.4139
  957MOL0     C31940   8.250   6.575   8.846  1.0770  0.1535 -0.3540
  957MOL0     C31941   8.239   6.417   8.870 -0.3473 -0.0689 -0.6177
  957MOL0     C31942   8.371   6.356   8.891  0.0400  0.9035 -0.5730
  957MOL0     C31943   8.361   6.206   8.929 -0.5730  1.4315  0.5353
  957MOL0     C31944   8.508   6.136   8.940  0.7239 -0.3146 -0.4396
  957MOL0     N31945   8.490   5.996   8.995  0.6528  1.0045  0.1473
  957MOL0     C31946   8.514   5.954   9.126 -1.3983 -0.1325 -0.6349
  957MOL0     C31947   8.489   5.822   9.131  0.2156 -1.1167  0.0699
  957MOL0     C31948   8.490   5.734   9.260  0.3162  0.3616 -0.9037
  957MOL0     C31949   8.619   5.690   9.320 -0.3459  0.2299  0.1185
  957MOL0     C31950   8.718   5.803   9.361 -1.1269  0.1544 -0.6977
  957MOL0     C31951   8.806   5.782   9.486  0.1130 -0.8984  0.4377
  957MOL0     O31952   8.727   5.766   9.606 -0.0465 -0.1562  0.0890
  957MOL0     C31953   8.799   5.794   9.714  0.2004 -0.0783  0.2737
  957MOL0     C31954   8.737   5.857   9.817 -0.0059  0.1771 -0.7233
  957MOL0     C31955   8.805   5.891   9.938  0.3684  0.5007  0.0864
  957MOL0     C31956   8.732   5.969  10.041 -0.8161  0.4227 -0.3277
  957MOL0     C31957   8.937   5.833   9.961 -0.3229  0.0132  0.4430
  957MOL0     C31958   9.001   5.847  10.094 -0.5631  0.1514 -0.0610
  957MOL0     O31959   9.134   5.860  10.079 -0.3242  0.5829 -0.6203
  957MOL0     C31960   9.210   5.810  10.181 -0.6129  0.1185 -0.3507
  957MOL0     C31961   9.257   5.892  10.283  0.4086 -0.2675 -0.9292
  957MOL0     C31962   9.343   5.842  10.383 -0.5667  0.0266  1.1746
  957MOL0     C31963   9.382   5.712  10.383 -0.5893 -0.0832  0.6389
  957MOL0     O31964   9.459   5.674  10.497  0.3016 -0.4306 -0.1392
  957MOL0     C31965   9.597   5.662  10.478 -0.6203 -0.8905  0.0081
  957MOL0     C31966   9.674   5.640  10.609  0.1948 -0.0499  0.5301
  957MOL0     C31967   9.733   5.755  10.687 -0.0001 -0.2914 -1.1826
  957MOL0     C31968   9.625   5.809  10.779  0.5366  0.1097  0.5175
  957MOL0     C31969   9.673   5.900  10.895  0.4299 -0.5068  0.3889
  957MOL0     C31970   9.761   6.021  10.851 -1.0416  0.2681 -0.3244
  957MOL0     C31971   9.680   6.111  10.769  0.2512  0.0599 -0.2931
  957MOL0     C31972   9.712   6.262  10.756  0.5468  0.6277 -0.8011
  957MOL0    Cl31973   9.667   6.363  10.905  0.0069  0.2399 -0.0934
  957MOL0     C31974   9.342   5.628  10.276 -0.7785 -0.8957 -0.2165
  957MOL0     C31975   9.258   5.677  10.173  0.6982 -0.8544 -0.2149
  957MOL0     O31976   8.939   5.837  10.199  0.0827 -0.6178  0.2943
  957MOL0     C31977   8.994   5.748   9.861 -0.1537  0.5910  0.0104
  957MOL0     C31978   8.930   5.736   9.736  0.7822 -1.0827  0.2486
  957MOL0     N31979   8.450   5.786   9.005  0.8272 -0.3272 -0.1404
  957MOL0     N31980   8.460   5.888   8.925  0.2441  0.2031  0.3759
  957MOL0     C31981   7.761   6.792   9.045  0.9950  0.2456  0.9348
  957MOL0     C31982   7.677   6.696   9.105  0.1239  0.1127 -0.9069
  957MOL0     C31983   7.542   6.272   9.242  1.0548  0.0433  0.4247
  957MOL0     C31984   7.457   6.338   9.326  0.3211 -0.1178 -0.3755
  957MOL0     C31985   7.371   6.258   9.407  0.1019  0.0240 -0.5326
  957MOL0     C31986   7.364   6.119   9.403 -0.0761 -0.1475 -0.4155
  957MOL0     O31987   7.262   6.051   9.479  0.6070 -0.2264  0.7383
  957MOL0     C31988   7.307   5.985   9.599  0.3331  0.8096  0.8206
  957MOL0     C31989   7.203   5.875   9.630  0.5506 -0.2788 -0.2928
  957MOL0     C31990   7.164   5.787   9.513 -0.2036  1.5299 -0.0424
  957MOL0     C31991   7.294   5.716   9.450 -0.1361 -0.5855  0.0083
  957MOL0     C31992   7.357   5.616   9.537  0.7360  0.2933 -0.3369
  957MOL0     C31993   7.397   5.517   9.588  0.6169  0.6510  0.1774
  957MOL0     C31994   7.442   6.058   9.305 -0.2072 -0.0706  0.6624
  957MOL0     C31995   7.536   6.133   9.231 -0.1385 -0.4708  0.2411
  957MOL0     C31996   7.602   6.055   9.124  0.4822 -0.0911  0.3759
  957MOL0     H31997   7.676   6.469   8.852 -0.6678  1.1897 -1.8429
  957MOL0     H31998   7.808   6.635   8.750 -1.0491 -0.0140  0.5098
  957MOL0     H31999   8.014   6.947   8.726 -1.7458 -0.2122 -0.9265
  957MOL0     H32000   7.947   6.789   8.682  1.6836  0.1413 -0.2438
  957MOL0     H32001   8.196   6.810   8.740  1.4967  3.5489  1.0054
  957MOL0     H32002   8.156   6.844   8.904  0.3459  1.6535 -1.8900
  957MOL0     H32003   8.076   6.643   8.954  2.9573  2.7382  1.5405
  957MOL0     H32004   8.045   6.588   8.784 -3.1789  1.5012  2.8239
  957MOL0     H32005   8.293   6.595   8.748  2.1515  0.1397  0.1050
  957MOL0     H32006   8.312   6.624   8.921  0.0189  1.9035 -0.5497
  957MOL0     H32007   8.192   6.373   8.781  1.4724 -1.8917 -0.7602
  957MOL0     H32008   8.158   6.400   8.941 -3.2950 -1.1948 -3.9580
  957MOL0     H32009   8.432   6.374   8.802 -0.4804  1.1089 -0.8958
  957MOL0     H32010   8.410   6.414   8.975  0.4073  1.6917 -1.2683
  957MOL0     H32011   8.302   6.151   8.855  0.4010  1.2850 -0.1487
  957MOL0     H32012   8.316   6.194   9.029 -0.3161  0.4456  0.5511
  957MOL0     H32013   8.558   6.135   8.842 -0.3421  0.2938 -1.0023
  957MOL0     H32014   8.574   6.185   9.012  2.3829 -1.3127 -1.2213
  957MOL0     H32015   8.548   6.007   9.214 -0.5368  0.8776 -1.5473
  957MOL0     H32016   8.438   5.640   9.238 -0.0541  0.7621 -1.7903
  957MOL0     H32017   8.434   5.781   9.342  0.9713  1.9503 -1.3317
  957MOL0     H32018   8.601   5.621   9.403 -2.1369  0.0213 -0.3951
  957MOL0     H32019   8.668   5.638   9.237  1.2710  2.0561 -0.1240
  957MOL0     H32020   8.781   5.821   9.274 -1.2951  2.2245 -0.4385
  957MOL0     H32021   8.660   5.895   9.373 -0.8762  0.3397 -0.8905
  957MOL0     H32022   8.867   5.692   9.471  2.1692  0.1818  1.8142
  957MOL0     H32023   8.873   5.869   9.489  0.7886 -1.3866 -0.1886
  957MOL0     H32024   8.642   5.907   9.807 -1.0587 -0.5286  3.7278
  957MOL0     H32025   8.642   6.011   9.996 -3.0323 -2.2728  1.3027
  957MOL0     H32026   8.797   6.048  10.077  1.8711 -1.0273 -1.6404
  957MOL0     H32027   8.695   5.893  10.110  0.4122  0.5295  0.4769
  957MOL0     H32028   9.235   5.998  10.274  2.7392  0.6328  2.1834
  957MOL0     H32029   9.380   5.908  10.460 -0.3470  1.3435 -0.0215
  957MOL0     H32030   9.601   5.571  10.418 -1.4801 -2.1136  1.6904
  957MOL0     H32031   9.637   5.747  10.422  1.2871 -2.2670 -0.8031
  957MOL0     H32032   9.633   5.557  10.666 -0.2426 -1.0719 -1.1801
  957MOL0     H32033   9.768   5.592  10.578  2.0563  3.2029  0.7313
  957MOL0     H32034   9.761   5.845  10.632  1.5858 -0.2435 -0.3483
  957MOL0     H32035   9.813   5.732  10.758 -1.2982  0.7045  0.6950
  957MOL0     H32036   9.589   5.727  10.843  1.9457  2.6305  4.9995
  957MOL0     H32037   9.538   5.860  10.737  0.9437  0.6250  0.2898
  957MOL0     H32038   9.594   5.952  10.950  0.3414  1.2704 -1.2990
  957MOL0     H32039   9.730   5.829  10.955 -0.9312 -2.2839 -0.3103
  957MOL0     H32040   9.851   5.983  10.802 -1.4176 -1.3176  0.1898
  957MOL0     H32041   9.792   6.060  10.948  0.2165 -2.0618  0.2678
  957MOL0     H32042   9.573   6.110  10.790  0.1578  2.0217 -0.5032
  957MOL0     H32043   9.684   6.065  10.670 -1.1992 -0.8669  0.0454
  957MOL0     H32044   9.642   6.282  10.675 -3.5082 -3.3682  1.3093
  957MOL0     H32045   9.819   6.277  10.734  0.5551  0.8431 -0.6140
  957MOL0     H32046   9.383   5.527  10.276  2.5057  0.3007 -0.2878
  957MOL0     H32047   9.219   5.618  10.091 -0.7188  0.2740 -0.4106
  957MOL0     H32048   9.085   5.690   9.869  0.4853  1.6800  1.0431
  957MOL0     H32049   8.982   5.680   9.660 -1.9619 -1.9389 -1.1308
  957MOL0     H32050   7.785   6.881   9.102 -3.2573  2.2115  0.0334
  957MOL0     H32051   7.642   6.730   9.202 -0.9257  1.6958 -1.7965
  957MOL0     H32052   7.464   6.446   9.329 -1.5433  0.0331 -0.0334
  957MOL0     H32053   7.312   6.306   9.485  0.2343 -0.4584 -0.1253
  957MOL0     H32054   7.408   5.942   9.595 -0.3514 -1.2939  3.0984
  957MOL0     H32055   7.298   6.053   9.684 -1.1221 -1.0133  2.2256
  957MOL0     H32056   7.108   5.922   9.657  0.0007 -0.5162 -1.7067
  957MOL0     H32057   7.238   5.815   9.714 -1.5646  1.3722  1.9000
  957MOL0     H32058   7.095   5.705   9.537  1.2583 -0.9069 -3.3272
  957MOL0     H32059   7.112   5.853   9.443  1.5483  1.5147 -1.4171
  957MOL0     H32060   7.373   5.788   9.427  0.2107 -0.0562  2.5713
  957MOL0     H32061   7.266   5.653   9.365 -1.5437  0.8694 -0.6491
  957MOL0     H32062   7.432   5.437   9.650  0.9194 -0.2852 -1.1427
  957MOL0     H32063   7.423   5.955   9.277  1.7722 -0.7972  1.8035
  957MOL0     H32064   7.597   6.113   9.031 -0.8062  0.7109  0.9116
  957MOL0     H32065   7.707   6.043   9.150  1.1342  1.3534 -1.3354
  957MOL0     H32066   7.539   5.968   9.103 -0.1669  0.7681 -1.4920
  958MOL0     O32067   9.100   5.901   9.336 -0.2801  0.3060  0.2765
  958MOL0     C32068   9.160   5.793   9.322  0.3313  0.2827  0.0760
  958MOL0     O32069   9.211   5.740   9.202 -0.0437 -0.2703 -0.2052
  958MOL0     C32070   9.180   5.811   9.081  0.7354  0.1969  0.0198
  958MOL0     C32071   9.097   5.764   8.971 -0.3627  0.5674 -0.1068
  958MOL0     C32072   9.075   5.842   8.859 -0.8808  0.5573  0.2693
  958MOL0     C32073   9.124   5.969   8.849  0.0277 -0.8931 -0.3451
  958MOL0     O32074   9.083   6.048   8.740  1.1086  0.6429 -0.4875
  958MOL0     C32075   8.973   6.133   8.775  0.5011 -0.3695  0.8685
  958MOL0     C32076   8.880   6.115   8.657  0.5467 -0.3224  0.1935
  958MOL0     C32077   8.789   5.996   8.662  0.2050  0.1376 -0.0446
  958MOL0     C32078   8.725   5.953   8.538  0.0164  1.8826  0.2462
  958MOL0     C32079   8.639   6.050   8.456  0.0718  0.3250  0.4901
  958MOL0     C32080   8.521   6.114   8.531  0.7680 -0.9607  0.4890
  958MOL0     C32081   8.417   6.007   8.580 -0.3846 -0.1035  0.0056
  958MOL0     C32082   8.331   5.942   8.472  0.2920 -0.8706  0.6149
  958MOL0     N32083   8.212   5.890   8.535 -0.0121 -0.2139 -0.3202
  958MOL0     C32084   8.209   5.831   8.658  0.4889 -0.0139 -0.4073
  958MOL0     C32085   8.079   5.806   8.678  0.1934  0.3080  0.5567
  958MOL0     C32086   8.011   5.711   8.768 -0.5593  0.6057  0.0586
  958MOL0     C32087   8.075   5.690   8.904  0.8070  0.3540  0.3336
  958MOL0     C32088   8.068   5.817   8.984 -1.0506  0.3423 -0.7154
  958MOL0     C32089   8.128   5.802   9.122  0.6572 -0.5207  0.6517
  958MOL0     O32090   8.165   5.925   9.178 -0.5837  0.1647 -0.5336
  958MOL0     C32091   8.083   5.988   9.266 -0.5402  0.3209 -0.6442
  958MOL0     C32092   8.076   5.934   9.396 -0.1167 -0.1317  0.4922
  958MOL0     C32093   8.012   5.988   9.501  0.3573 -1.1025  0.3759
  958MOL0     C32094   8.009   5.910   9.636  0.0216 -0.8582 -0.2344
  958MOL0     C32095   7.940   6.119   9.477  0.0009  0.1513  0.4356
  958MOL0     C32096   7.882   6.210   9.580 -0.2170 -0.1173 -0.4336
  958MOL0     O32097   7.887   6.347   9.572  0.0896 -0.6640 -0.8872
  958MOL0     C32098   7.815   6.416   9.669 -0.0237 -0.3118 -0.2427
  958MOL0     C32099   7.886   6.485   9.769  0.7759  0.1012  0.2441
  958MOL0     C32100   7.812   6.543   9.870 -0.0036  0.9276 -0.2989
  958MOL0     C32101   7.683   6.520   9.888  0.4111 -0.2880 -0.2621
  958MOL0     O32102   7.634   6.582  10.002  0.1926  0.1367 -0.5853
  958MOL0     C32103   7.511   6.524  10.037  0.5817  0.7993 -0.1964
  958MOL0     C32104   7.469   6.596  10.166 -0.6651  0.0133 -0.0701
  958MOL0     C32105   7.454   6.748  10.141  0.5763 -0.8286 -0.1463
  958MOL0     C32106   7.336   6.797  10.228  0.1124  0.4567 -0.3310
  958MOL0     C32107   7.283   6.935  10.203  0.0148  0.6678  1.2650
  958MOL0     C32108   7.175   6.922  10.094 -0.3167 -0.9011 -0.4378
  958MOL0     C32109   7.136   7.054  10.023 -0.2950 -0.4728 -0.8363
  958MOL0     C32110   7.254   7.152   9.999 -0.9930 -1.0476 -0.4467
  958MOL0    Cl32111   7.393   7.068   9.927  0.2082 -0.8067  0.1004
  958MOL0     C32112   7.609   6.447   9.789 -0.4595  0.3465 -0.7997
  958MOL0     C32113   7.677   6.395   9.684 -0.1544 -0.6526 -0.3136
  958MOL0     O32114   7.809   6.146   9.660 -0.8969 -0.8467 -0.0968
  958MOL0     C32115   7.938   6.172   9.346 -0.3022  0.2000  0.7784
  958MOL0     C32116   8.004   6.099   9.240  0.4361 -0.3445  0.0080
  958MOL0     N32117   8.008   5.854   8.572  0.1704  0.2016  0.5643
  958MOL0     N32118   8.087   5.883   8.481  0.4855 -0.0274 -0.4856
  958MOL0     C32119   9.208   6.020   8.953 -0.2748  0.1311 -0.4752
  958MOL0     C32120   9.241   5.939   9.070  0.7506  0.3577  0.4561
  958MOL0     C32121   9.201   5.726   9.444 -0.0170 -0.0508  0.0291
  958MOL0     C32122   9.261   5.801   9.546  0.3411  0.6860 -0.2666
  958MOL0     C32123   9.292   5.730   9.665 -0.0927  0.9423  0.8734
  958MOL0     C32124   9.263   5.599   9.690  0.2176 -0.0030  0.9543
  958MOL0     O32125   9.317   5.540   9.801  0.6703 -0.0516  0.9115
  958MOL0     C32126   9.438   5.469   9.773  0.0256  0.0185 -0.7759
  958MOL0     C32127   9.460   5.366   9.874  0.0599  0.0637  0.3340
  958MOL0     C32128   9.459   5.394  10.023 -0.3781  1.2518  0.1888
  958MOL0     C32129   9.566   5.493  10.075  0.4160 -0.1702  0.2595
  958MOL0     C32130   9.705   5.452  10.035 -0.3442 -0.3771 -0.7961
  958MOL0     C32131   9.819   5.423  10.020  0.5805  0.0759  1.1597
  958MOL0     C32132   9.207   5.527   9.583 -0.7643  0.2786 -0.5441
  958MOL0     C32133   9.174   5.593   9.465 -0.1757  0.1756  0.1174
  958MOL0     C32134   9.107   5.506   9.356 -0.0411  0.6885  0.3378
  958MOL0     H32135   9.036   5.676   8.988 -0.0364  0.0895 -1.3612
  958MOL0     H32136   9.021   5.812   8.769 -1.9066 -4.4224  2.2050
  958MOL0     H32137   9.001   6.238   8.780 -0.7018  0.2395 -2.4249
  958MOL0     H32138   8.934   6.099   8.871  0.9152  2.8717  2.2975
  958MOL0     H32139   8.817   6.203   8.638  3.1771  1.6004 -0.2454
  958MOL0     H32140   8.935   6.115   8.563 -0.8494  3.8067 -0.8541
  958MOL0     H32141   8.846   5.907   8.693  2.5702  0.9580 -1.7685
  958MOL0     H32142   8.712   6.008   8.739  0.7654 -1.4292  0.7936
  958MOL0     H32143   8.808   5.920   8.475 -0.0453 -1.1879  1.5940
  958MOL0     H32144   8.673   5.858   8.552 -0.0188  1.6737 -1.1270
  958MOL0     H32145   8.590   6.004   8.370 -1.5361  3.6106 -0.5069
  958MOL0     H32146   8.706   6.123   8.410 -0.5546  1.3043  1.1086
  958MOL0     H32147   8.557   6.175   8.615  0.1674 -2.6517  2.0608
  958MOL0     H32148   8.475   6.188   8.465  2.9391 -0.1256 -0.1896
  958MOL0     H32149   8.344   6.059   8.643  0.1108 -0.4455  0.8737
  958MOL0     H32150   8.466   5.936   8.647  1.8779  0.6701 -0.7218
  958MOL0     H32151   8.300   6.025   8.407  3.3882 -2.1338 -2.8345
  958MOL0     H32152   8.390   5.867   8.420  1.2049  1.0049 -1.2274
  958MOL0     H32153   8.285   5.796   8.727  1.1273  0.6342 -0.7697
  958MOL0     H32154   8.002   5.607   8.735 -1.1418 -0.1534  2.3879
  958MOL0     H32155   7.904   5.731   8.763 -0.3294  2.0507  0.4418
  958MOL0     H32156   8.015   5.631   8.974  0.2827 -0.2898 -0.6379
  958MOL0     H32157   8.177   5.653   8.890  0.6850  0.3734 -0.7069
  958MOL0     H32158   8.116   5.897   8.927  0.5691  0.4248  0.6855
  958MOL0     H32159   7.961   5.839   8.985 -0.3196  4.9862 -1.8891
  958MOL0     H32160   8.056   5.742   9.178 -0.3334  1.6878  1.8600
  958MOL0     H32161   8.221   5.746   9.118  1.3838  0.6889 -2.7050
  958MOL0     H32162   8.138   5.846   9.409  1.3499  0.7206 -0.4426
  958MOL0     H32163   8.061   5.974   9.707 -2.4312  2.8218 -1.4475
  958MOL0     H32164   8.061   5.816   9.617 -0.4986 -0.8906 -1.5848
  958MOL0     H32165   7.904   5.889   9.661  0.2832 -0.1324  1.6481
  958MOL0     H32166   7.990   6.510   9.753  1.8012 -3.9512 -0.4658
  958MOL0     H32167   7.860   6.609   9.941  0.0003 -0.4739  1.0485
  958MOL0     H32168   7.435   6.527   9.958  0.3119 -1.1875 -0.0593
  958MOL0     H32169   7.524   6.420  10.067 -2.7722  0.6377  1.2242
  958MOL0     H32170   7.381   6.540  10.199  1.5743 -3.0088  1.3338
  958MOL0     H32171   7.552   6.575  10.236  1.5953  0.7269 -2.3866
  958MOL0     H32172   7.433   6.770  10.036  1.4676  1.9419  0.1693
  958MOL0     H32173   7.546   6.804  10.162  0.6315 -0.5232 -1.1323
  958MOL0     H32174   7.384   6.789  10.326 -0.0455 -1.0541 -0.3476
  958MOL0     H32175   7.249   6.731  10.225  2.6726 -3.2553  0.2234
  958MOL0     H32176   7.246   6.983  10.293 -0.2679  3.1828 -0.1087
  958MOL0     H32177   7.369   6.986  10.159 -0.7517  0.0296 -1.1167
  958MOL0     H32178   7.093   6.873  10.148  1.2812 -2.0070  1.1031
  958MOL0     H32179   7.202   6.844  10.023  2.8046 -0.9426  0.6600
  958MOL0     H32180   7.053   7.108  10.072  0.6132  2.8605 -2.6584
  958MOL0     H32181   7.091   7.016   9.931  0.6174 -2.4049 -0.5321
  958MOL0     H32182   7.298   7.182  10.094 -0.4110  3.2786 -1.8806
  958MOL0     H32183   7.232   7.240   9.939 -1.9229  0.2485  1.7012
  958MOL0     H32184   7.502   6.432   9.787 -0.2977 -0.8606 -1.8949
  958MOL0     H32185   7.626   6.331   9.613 -1.9910  0.7581 -0.3356
  958MOL0     H32186   7.878   6.260   9.328  1.2828  1.5273  1.6851
  958MOL0     H32187   8.000   6.142   9.140 -1.2607  0.5980  0.4366
  958MOL0     H32188   9.252   6.117   8.935 -0.6926  0.1402 -1.5534
  958MOL0     H32189   9.313   5.969   9.146 -0.9636 -2.1004  3.2084
  958MOL0     H32190   9.288   5.906   9.543 -0.3038  0.8607 -0.2212
  958MOL0     H32191   9.322   5.791   9.750 -2.2168  0.6235  1.9406
  958MOL0     H32192   9.439   5.420   9.676  2.7456  1.4096 -1.5721
  958MOL0     H32193   9.516   5.546   9.773  0.8589 -0.7798  0.7172
  958MOL0     H32194   9.548   5.308   9.843 -2.7157 -3.8104 -1.1016
  958MOL0     H32195   9.377   5.297   9.862 -1.7761  2.0195  1.1548
  958MOL0     H32196   9.358   5.426  10.051  0.8049  2.5682  3.4260
  958MOL0     H32197   9.480   5.298  10.070  1.1315  0.7289 -1.4586
  958MOL0     H32198   9.572   5.505  10.184 -0.6687  1.6140  0.1603
  958MOL0     H32199   9.537   5.591  10.036 -6.4735 -0.7013  2.6052
  958MOL0     H32200   9.920   5.396   9.997 -0.7486 -4.0156 -0.7506
  958MOL0     H32201   9.187   5.421   9.594 -0.2371  0.0501 -1.6590
  958MOL0     H32202   9.148   5.540   9.261 -2.1106  2.6561  0.0707
  958MOL0     H32203   9.155   5.408   9.346  0.1576  0.9016 -0.8924
  958MOL0     H32204   8.998   5.498   9.363 -0.3748  2.6456 -1.6844
  959MOL0     O32205  10.387   8.575   2.392 -0.6226  0.2281 -0.4110
  959MOL0     C32206  10.468   8.668   2.403 -0.0321 -0.3025 -0.4546
  959MOL0     O32207  10.501   8.743   2.515 -0.0243 -0.9923  0.8712
  959MOL0     C32208  10.435   8.716   2.626  0.0718 -0.1552 -0.4422
  959MOL0     C32209  10.497   8.655   2.736  0.3157 -0.4285  0.4359
  959MOL0     C32210  10.426   8.641   2.854  0.3743 -0.5282 -0.2574
  959MOL0     C32211  10.299   8.676   2.862  0.9202  0.7978  0.3194
  959MOL0     O32212  10.249   8.651   2.988 -0.0446  0.3892 -0.3760
  959MOL0     C32213  10.197   8.516   3.006  0.6439  0.0367 -0.4077
  959MOL0     C32214  10.119   8.505   3.132  0.5598  0.1852 -0.6564
  959MOL0     C32215  10.043   8.368   3.138 -0.1780  0.1291  0.0499
  959MOL0     C32216  10.057   8.286   3.259  0.0322 -1.1446  0.0736
  959MOL0     C32217   9.929   8.194   3.257  0.1852  0.8118  0.4699
  959MOL0     C32218   9.931   8.102   3.131  0.5059 -0.1199 -0.2153
  959MOL0     C32219   9.848   7.977   3.140 -0.0719  1.1664 -0.2675
  959MOL0     C32220   9.840   7.906   3.002 -0.0740  0.0570  1.0382
  959MOL0     N32221   9.774   7.772   3.008  0.2089 -0.2580 -0.8159
  959MOL0     C32222   9.647   7.737   3.036  0.2933 -0.3599 -0.7936
  959MOL0     C32223   9.630   7.607   3.005 -0.7292  0.2339  0.3480
  959MOL0     C32224   9.506   7.539   3.006 -0.2958  0.3218 -0.2368
  959MOL0     C32225   9.443   7.531   2.873  0.1510  0.7125 -0.6039
  959MOL0     C32226   9.352   7.652   2.827  0.3042  0.0247 -0.1725
  959MOL0     C32227   9.308   7.637   2.685 -0.1364  0.1613  0.0596
  959MOL0     O32228   9.253   7.765   2.642  0.0552 -0.0749 -0.0823
  959MOL0     C32229   9.204   7.778   2.512 -0.1015 -0.5521  0.3345
  959MOL0     C32230   9.204   7.680   2.417 -0.7126 -0.1256 -0.6663
  959MOL0     C32231   9.156   7.696   2.288 -0.0461  0.8068  0.8939
  959MOL0     C32232   9.170   7.589   2.188 -0.5152  0.9498 -0.0556
  959MOL0     C32233   9.080   7.811   2.260  0.9942 -0.2273  0.3734
  959MOL0     C32234   8.993   7.822   2.136 -0.1600  0.2303 -0.0555
  959MOL0     O32235   8.866   7.879   2.164 -0.2391 -0.2898  0.7582
  959MOL0     C32236   8.786   7.900   2.052  0.1796  0.4899  1.1302
  959MOL0     C32237   8.733   8.029   2.037  0.7059  0.2626 -0.0877
  959MOL0     C32238   8.624   8.043   1.957  0.2247  0.2573  0.4694
  959MOL0     C32239   8.587   7.943   1.867 -0.2048 -0.4992  0.6106
  959MOL0     O32240   8.484   7.969   1.780  0.4014  1.1205 -0.8340
  959MOL0     C32241   8.509   8.042   1.662 -0.5026 -0.2339  0.3368
  959MOL0     C32242   8.488   8.196   1.674 -0.5081  0.2054  0.1042
  959MOL0     C32243   8.492   8.270   1.538  0.5393 -1.0169  1.5109
  959MOL0     C32244   8.359   8.366   1.519 -0.2993 -0.1514 -0.2085
  959MOL0     C32245   8.360   8.436   1.384 -1.0300  0.7432  0.4893
  959MOL0     C32246   8.331   8.334   1.271  0.2971 -0.8485 -0.2609
  959MOL0     C32247   8.192   8.349   1.209  0.0523 -0.0339  1.0627
  959MOL0     C32248   8.141   8.494   1.155 -0.7724 -0.0660 -0.3028
  959MOL0    Cl32249   7.983   8.486   1.074  0.2463 -0.1058 -0.1258
  959MOL0     C32250   8.647   7.818   1.861 -1.2485 -0.1810 -0.6579
  959MOL0     C32251   8.742   7.798   1.961  1.4031  0.0218 -0.0881
  959MOL0     O32252   9.048   7.833   2.026 -0.1657 -0.4083 -0.2088
  959MOL0     C32253   9.086   7.920   2.353  0.3627  0.5283 -0.2488
  959MOL0     C32254   9.145   7.899   2.479 -0.5589  0.2426  0.0727
  959MOL0     N32255   9.761   7.560   2.963  0.0541 -0.3504  1.0581
  959MOL0     N32256   9.846   7.661   2.963 -0.2642 -0.3808 -0.3874
  959MOL0     C32257  10.230   8.730   2.750  0.4336  0.5630 -1.4570
  959MOL0     C32258  10.303   8.757   2.640 -0.4326 -0.4654  0.2529
  959MOL0     C32259  10.531   8.702   2.277  0.3156  0.2843  0.6561
  959MOL0     C32260  10.662   8.751   2.293 -0.2518 -0.6081  0.6619
  959MOL0     C32261  10.733   8.794   2.178 -0.0559  0.4049  0.2085
  959MOL0     C32262  10.674   8.792   2.055  0.4047 -0.2606 -0.2543
  959MOL0     O32263  10.742   8.844   1.948 -0.6102  0.4709  0.0292
  959MOL0     C32264  10.822   8.744   1.878  0.9426 -0.4468  0.1463
  959MOL0     C32265  10.753   8.737   1.740  0.1352  0.6067  0.0700
  959MOL0     C32266  10.764   8.861   1.665 -0.5369 -0.1239 -0.0973
  959MOL0     C32267  10.716   8.848   1.516 -0.2398  0.3949  0.9727
  959MOL0     C32268  10.805   8.761   1.437  1.0526 -0.0333 -0.6208
  959MOL0     C32269  10.853   8.665   1.381  0.0083  0.0444  0.6002
  959MOL0     C32270  10.549   8.727   2.032 -0.2666 -0.0924  0.0512
  959MOL0     C32271  10.481   8.677   2.143  0.0336  0.1736 -0.1621
  959MOL0     C32272  10.356   8.608   2.119  0.3900  0.0500 -0.2771
  959MOL0     H32273  10.596   8.614   2.720  0.3779 -0.0918 -0.0705
  959MOL0     H32274  10.467   8.588   2.939 -0.0821 -2.7191 -1.3296
  959MOL0     H32275  10.280   8.446   3.019  0.1044 -0.6697 -0.6341
  959MOL0     H32276  10.140   8.487   2.917 -0.0715 -1.4947  0.5108
  959MOL0     H32277  10.194   8.510   3.211 -0.5558 -1.8214  0.6195
  959MOL0     H32278  10.047   8.587   3.141  1.8619  1.1386  2.1831
  959MOL0     H32279   9.939   8.392   3.112  1.4937  5.1718 -3.9383
  959MOL0     H32280  10.086   8.313   3.054 -2.8505 -0.3150 -1.1416
  959MOL0     H32281  10.148   8.226   3.260  0.3596 -0.6820  2.1578
  959MOL0     H32282  10.071   8.358   3.340 -0.0381  0.4793 -1.3010
  959MOL0     H32283   9.843   8.262   3.255  0.2991  0.9763  1.0297
  959MOL0     H32284   9.923   8.131   3.346  0.2864 -1.8916 -1.3063
  959MOL0     H32285   9.901   8.158   3.042 -0.6996 -0.4934 -0.0599
  959MOL0     H32286  10.035   8.068   3.121  1.4024  1.9894  1.2380
  959MOL0     H32287   9.747   8.007   3.169 -0.0234  1.3078 -0.2424
  959MOL0     H32288   9.889   7.913   3.219 -1.1592  0.7148 -0.0522
  959MOL0     H32289   9.791   7.968   2.925 -1.7237  1.9178  3.4299
  959MOL0     H32290   9.940   7.888   2.962  0.0264 -1.8245  2.0651
  959MOL0     H32291   9.560   7.792   3.069 -0.3037 -0.1812 -2.5854
  959MOL0     H32292   9.433   7.577   3.079 -0.9317  1.0897 -1.2409
  959MOL0     H32293   9.517   7.436   3.040 -3.4449 -1.4164 -3.7650
  959MOL0     H32294   9.531   7.507   2.812  1.3488 -4.3911  2.5274
  959MOL0     H32295   9.374   7.446   2.879  2.1090 -0.9416 -0.3080
  959MOL0     H32296   9.278   7.662   2.908  2.3519 -0.7861  1.9290
  959MOL0     H32297   9.407   7.746   2.840 -1.9471  1.3936  0.0494
  959MOL0     H32298   9.393   7.601   2.627 -0.6633  2.0684 -2.0282
  959MOL0     H32299   9.230   7.560   2.684  1.2062 -1.3054 -2.3105
  959MOL0     H32300   9.252   7.588   2.450  0.5453 -0.4089 -3.0940
  959MOL0     H32301   9.253   7.526   2.222 -1.7742 -0.0071  1.3698
  959MOL0     H32302   9.178   7.623   2.085  1.2263 -3.8843 -1.7863
  959MOL0     H32303   9.090   7.514   2.191 -0.3557  0.7954  1.0000
  959MOL0     H32304   8.764   8.116   2.093 -4.0233  2.2992 -0.1912
  959MOL0     H32305   8.568   8.136   1.951 -0.2541 -0.0241  0.5594
  959MOL0     H32306   8.614   8.024   1.640 -1.3039 -2.0191 -2.6725
  959MOL0     H32307   8.440   8.005   1.585 -1.3851  2.6809 -0.4081
  959MOL0     H32308   8.389   8.204   1.721 -1.0535 -1.3773 -0.6714
  959MOL0     H32309   8.562   8.233   1.745  3.0173 -0.8836 -2.6931
  959MOL0     H32310   8.486   8.203   1.451 -1.5004 -1.4053  1.9058
  959MOL0     H32311   8.582   8.329   1.519  2.6013 -4.4220 -0.4804
  959MOL0     H32312   8.363   8.438   1.601  1.9970 -0.9623  0.4469
  959MOL0     H32313   8.266   8.313   1.542  0.1644 -0.3066  1.4102
  959MOL0     H32314   8.284   8.514   1.397  0.3140  2.2950 -0.4820
  959MOL0     H32315   8.458   8.484   1.372 -1.6826  1.5434 -2.4700
  959MOL0     H32316   8.335   8.231   1.308  2.9558 -0.8887 -0.4663
  959MOL0     H32317   8.402   8.350   1.190  1.2251 -0.4970  0.5958
  959MOL0     H32318   8.123   8.313   1.286  0.3762  1.6619  2.1949
  959MOL0     H32319   8.181   8.268   1.136 -2.4738 -2.2762  3.6906
  959MOL0     H32320   8.215   8.527   1.082 -2.1826 -1.7148 -2.5910
  959MOL0     H32321   8.127   8.565   1.237 -0.1379  2.5623 -2.3467
  959MOL0     H32322   8.611   7.742   1.792  1.7459 -0.1846 -2.4273
  959MOL0     H32323   8.772   7.696   1.982 -1.6253 -0.6979  1.3106
  959MOL0     H32324   9.035   8.010   2.320 -0.1182 -1.2774 -5.5642
  959MOL0     H32325   9.156   7.978   2.553  1.8980  2.2659 -2.2316
  959MOL0     H32326  10.132   8.770   2.776  0.9580  1.4767 -0.8428
  959MOL0     H32327  10.252   8.802   2.555 -0.8247 -2.6164 -0.7207
  959MOL0     H32328  10.715   8.762   2.387  0.7026  0.9649 -0.0161
  959MOL0     H32329  10.832   8.840   2.179  0.4880 -0.7255 -0.2699
  959MOL0     H32330  10.924   8.782   1.867  0.4111  1.1263  0.3641
  959MOL0     H32331  10.828   8.652   1.936  1.1659 -1.2431 -1.1113
  959MOL0     H32332  10.649   8.704   1.751 -0.1844  0.4480 -2.7366
  959MOL0     H32333  10.792   8.657   1.677 -3.1585 -0.8414 -0.3452
  959MOL0     H32334  10.715   8.943   1.718 -0.1705 -1.5490  2.6053
  959MOL0     H32335  10.869   8.892   1.664 -0.8728  1.0598 -1.2009
  959MOL0     H32336  10.721   8.947   1.469 -3.9564  1.1644  1.8572
  959MOL0     H32337  10.612   8.813   1.507 -0.1432 -0.0726  1.6417
  959MOL0     H32338  10.875   8.563   1.354 -2.3374 -1.2057  2.9202
  959MOL0     H32339  10.516   8.697   1.933  2.2965  4.0442 -2.3906
  959MOL0     H32340  10.336   8.616   2.012  3.8481 -1.8137 -1.2299
  959MOL0     H32341  10.371   8.502   2.139 -2.1993 -0.1930  0.8472
  959MOL0     H32342  10.277   8.654   2.179  0.0904  0.7387 -1.1647
  960MOL0     O32343   2.582   1.046   5.846  0.6592  0.6862  0.0167
  960MOL0     C32344   2.705   1.049   5.836 -0.2544  1.6976  0.3712
  960MOL0     O32345   2.774   1.088   5.720  0.7412  0.1637 -0.3935
  960MOL0     C32346   2.719   1.095   5.598  1.5497  0.4018  0.7599
  960MOL0     C32347   2.583   1.070   5.563  0.0514 -0.3406 -0.3447
  960MOL0     C32348   2.545   1.073   5.426 -0.1849 -0.0062 -0.0091
  960MOL0     C32349   2.636   1.097   5.328  0.2228 -0.1980 -0.6350
  960MOL0     O32350   2.607   1.083   5.194  0.5086  0.5215 -0.7191
  960MOL0     C32351   2.486   1.142   5.148  0.7580 -0.8459 -0.6060
  960MOL0     C32352   2.514   1.251   5.039  0.2102 -0.1567 -0.2861
  960MOL0     C32353   2.602   1.200   4.926  0.2424  0.3448  0.0821
  960MOL0     C32354   2.612   1.313   4.819  0.1038 -0.2209 -0.1897
  960MOL0     C32355   2.672   1.449   4.870  0.0189 -0.0703  0.5912
  960MOL0     C32356   2.721   1.536   4.750  0.4873  0.3021  0.9541
  960MOL0     C32357   2.610   1.575   4.656  0.1431  0.0399 -0.3474
  960MOL0     C32358   2.530   1.691   4.729  0.3977  0.2506  0.8717
  960MOL0     N32359   2.401   1.694   4.679  0.6049  0.1845 -0.4764
  960MOL0     C32360   2.366   1.735   4.552  0.2924  0.1363  0.4489
  960MOL0     C32361   2.234   1.720   4.546  0.3203 -0.6912 -0.5187
  960MOL0     C32362   2.153   1.787   4.438 -0.9303 -1.5349  0.4059
  960MOL0     C32363   2.009   1.736   4.443 -0.2742  0.0229 -0.1440
  960MOL0     C32364   1.913   1.786   4.325 -0.2527 -0.3396  0.8979
  960MOL0     C32365   1.897   1.700   4.209 -0.1066 -0.1958 -0.2056
  960MOL0     O32366   1.797   1.594   4.236  0.2295  0.2094  0.0462
  960MOL0     C32367   1.804   1.480   4.167 -0.5486 -0.7196  0.5047
  960MOL0     C32368   1.762   1.363   4.224 -0.2264  0.2861 -0.4191
  960MOL0     C32369   1.756   1.243   4.148  1.2424 -0.6949 -0.4944
  960MOL0     C32370   1.708   1.120   4.215  0.2032 -0.1031  0.3471
  960MOL0     C32371   1.796   1.249   4.010  0.3223  0.5655 -0.5081
  960MOL0     C32372   1.800   1.128   3.923  0.5863  0.9873 -0.0088
  960MOL0     O32373   1.855   1.152   3.804 -0.2482 -0.8229 -0.1793
  960MOL0     C32374   1.857   1.057   3.703 -0.0985 -0.7572  0.4670
  960MOL0     C32375   1.914   0.935   3.714 -0.3574  0.2267 -0.4930
  960MOL0     C32376   1.922   0.840   3.610 -0.5017  0.0235 -0.1392
  960MOL0     C32377   1.868   0.880   3.484  1.0671  0.3770 -0.1468
  960MOL0     O32378   1.892   0.789   3.383 -0.4414  0.6137  0.2414
  960MOL0     C32379   1.854   0.820   3.250 -0.3583 -0.2527 -0.6041
  960MOL0     C32380   1.852   0.694   3.166 -0.2146 -0.1457 -0.4143
  960MOL0     C32381   1.976   0.608   3.168  0.4069  0.2164 -0.2360
  960MOL0     C32382   2.103   0.690   3.107 -0.9268 -0.5996 -0.3746
  960MOL0     C32383   2.226   0.602   3.071 -0.4412  0.3109 -0.1752
  960MOL0     C32384   2.360   0.678   3.076 -1.3905  0.3947  0.1419
  960MOL0     C32385   2.405   0.771   3.191 -0.5656  0.9772  0.6947
  960MOL0     C32386   2.364   0.730   3.331  0.0166  0.1191 -0.1300
  960MOL0    Cl32387   2.436   0.843   3.447 -0.2457 -0.2721  0.3669
  960MOL0     C32388   1.797   0.997   3.476 -0.0866  0.4389  0.4251
  960MOL0     C32389   1.799   1.084   3.581 -1.3015  0.3400  0.4912
  960MOL0     O32390   1.746   1.020   3.954  0.1754  0.2154 -0.0909
  960MOL0     C32391   1.867   1.365   3.964  0.7551 -0.5006  0.6609
  960MOL0     C32392   1.866   1.484   4.039  0.3983  0.1414 -0.8627
  960MOL0     N32393   2.196   1.649   4.654  0.5096 -0.5791 -0.4483
  960MOL0     N32394   2.290   1.631   4.740  0.6948 -0.5718  0.0787
  960MOL0     C32395   2.765   1.137   5.363 -0.3862  0.5325  0.3115
  960MOL0     C32396   2.809   1.127   5.494  0.3211 -0.0011  0.0952
  960MOL0     C32397   2.776   1.053   5.968  0.5906 -0.6437 -0.6701
  960MOL0     C32398   2.713   0.976   6.062 -0.0478  0.4913  1.0672
  960MOL0     C32399   2.770   0.962   6.192 -0.0697 -0.1101  0.0055
  960MOL0     C32400   2.891   1.022   6.221 -0.1884 -0.4003 -0.0015
  960MOL0     O32401   2.939   1.009   6.343  0.7514  0.4095  0.3368
  960MOL0     C32402   3.014   1.131   6.388 -0.1785 -0.0009  0.3516
  960MOL0     C32403   3.016   1.149   6.548 -0.8013 -0.3092  0.3093
  960MOL0     C32404   3.098   1.040   6.612 -0.7693 -0.5805  0.7070
  960MOL0     C32405   3.250   1.084   6.623  0.0515 -0.2368  1.0398
  960MOL0     C32406   3.324   0.993   6.546  0.6099  1.2527  0.5797
  960MOL0     C32407   3.392   0.924   6.485 -0.7306  0.2211 -0.3753
  960MOL0     C32408   2.952   1.105   6.121 -0.4117 -0.7439 -0.2393
  960MOL0     C32409   2.893   1.122   6.002  1.3024  0.0763  0.0642
  960MOL0     C32410   2.952   1.222   5.916 -0.3953  0.4343 -0.0530
  960MOL0     H32411   2.505   1.044   5.634  0.1190 -0.7699 -0.4265
  960MOL0     H32412   2.439   1.059   5.407 -0.4003  1.3496  0.0491
  960MOL0     H32413   2.428   1.186   5.230  0.5598 -1.7101 -0.2738
  960MOL0     H32414   2.431   1.055   5.110 -2.1843 -2.2942  5.6137
  960MOL0     H32415   2.422   1.299   5.003 -1.2543 -0.5562  2.6338
  960MOL0     H32416   2.569   1.322   5.101  0.5367 -3.3460  3.5033
  960MOL0     H32417   2.704   1.176   4.959  0.5194  2.6100  1.0718
  960MOL0     H32418   2.564   1.111   4.876  2.6756 -0.8765  0.2239
  960MOL0     H32419   2.687   1.278   4.747  0.9003 -3.6606  2.0630
  960MOL0     H32420   2.514   1.331   4.775  1.6630  1.8960 -3.1330
  960MOL0     H32421   2.745   1.431   4.950 -0.7667  2.0958  1.8790
  960MOL0     H32422   2.591   1.499   4.924  1.9445  1.4009  2.3032
  960MOL0     H32423   2.752   1.630   4.796 -2.7499  1.5764  0.7881
  960MOL0     H32424   2.806   1.497   4.693 -2.0507  0.9153 -3.7083
  960MOL0     H32425   2.541   1.490   4.647  0.9794 -0.9788  2.1371
  960MOL0     H32426   2.652   1.610   4.561  0.0374 -1.4994 -0.9987
  960MOL0     H32427   2.529   1.666   4.836  1.8280 -1.8540  0.4598
  960MOL0     H32428   2.577   1.790   4.720 -0.3043  0.4939 -0.3754
  960MOL0     H32429   2.428   1.795   4.486  2.2131 -0.4603  1.6148
  960MOL0     H32430   2.200   1.759   4.344  2.0520 -0.1917  1.3910
  960MOL0     H32431   2.164   1.896   4.443 -1.8849 -1.3471 -1.1564
  960MOL0     H32432   2.008   1.627   4.452 -0.6175 -0.0805 -1.2160
  960MOL0     H32433   1.970   1.786   4.532 -3.6254  1.0327 -1.9943
  960MOL0     H32434   1.822   1.789   4.385 -1.5434  3.4954 -0.9909
  960MOL0     H32435   1.938   1.890   4.302 -2.1533  0.6346  2.8709
  960MOL0     H32436   1.873   1.768   4.127 -2.2705  1.1493  1.4200
  960MOL0     H32437   1.996   1.664   4.181 -0.8151  0.3365 -3.8794
  960MOL0     H32438   1.745   1.383   4.329 -1.7431  2.8184 -1.0437
  960MOL0     H32439   1.777   1.035   4.206 -2.2530 -2.3403  1.1504
  960MOL0     H32440   1.614   1.079   4.175  0.5533 -0.5570 -0.0133
  960MOL0     H32441   1.704   1.151   4.320 -1.3073  0.5397  0.1319
  960MOL0     H32442   1.967   0.898   3.802  1.1682  0.1535 -1.4086
  960MOL0     H32443   1.953   0.740   3.638 -3.0846 -0.5037  1.1910
  960MOL0     H32444   1.756   0.868   3.242 -1.6257 -2.4489  0.6556
  960MOL0     H32445   1.925   0.899   3.223 -1.6863  1.1626 -0.1287
  960MOL0     H32446   1.777   0.629   3.213  1.8950 -2.0682  0.5035
  960MOL0     H32447   1.823   0.714   3.063 -0.3903  1.4171 -0.0802
  960MOL0     H32448   1.964   0.524   3.099  0.6025  1.5288 -1.9309
  960MOL0     H32449   1.997   0.559   3.263  4.1646 -1.8126 -1.8860
  960MOL0     H32450   2.132   0.765   3.181  1.0292 -1.2749 -0.3955
  960MOL0     H32451   2.088   0.740   3.011 -1.1936  1.2890  0.5991
  960MOL0     H32452   2.227   0.514   3.136 -0.9050 -0.9188 -1.7658
  960MOL0     H32453   2.218   0.554   2.973  1.9436 -3.0027  1.0550
  960MOL0     H32454   2.372   0.717   2.975  0.1184  1.2198  0.6135
  960MOL0     H32455   2.437   0.600   3.080 -0.1677  1.5930  0.6789
  960MOL0     H32456   2.372   0.871   3.160  2.0838  1.4979 -0.7858
  960MOL0     H32457   2.514   0.772   3.183 -0.5802 -0.3149  0.0402
  960MOL0     H32458   2.393   0.625   3.345  1.5825  0.6294  0.7774
  960MOL0     H32459   2.255   0.724   3.338  0.0671 -1.2411 -0.2065
  960MOL0     H32460   1.751   1.021   3.381 -2.4263 -3.1009  0.4654
  960MOL0     H32461   1.740   1.174   3.571 -0.2421  1.1701  1.4609
  960MOL0     H32462   1.918   1.366   3.868  0.2468  2.5207  0.3257
  960MOL0     H32463   1.906   1.574   3.994 -1.1420  0.2136 -2.1451
  960MOL0     H32464   2.835   1.164   5.285 -2.5440 -0.9031 -2.3388
  960MOL0     H32465   2.913   1.145   5.519  0.8436 -0.0917 -1.8682
  960MOL0     H32466   2.617   0.928   6.046 -0.8005  2.1632  0.2988
  960MOL0     H32467   2.719   0.911   6.274 -0.8738 -0.2790 -0.5882
  960MOL0     H32468   3.117   1.123   6.354  0.5870  3.3936  1.5524
  960MOL0     H32469   2.970   1.222   6.346 -0.4334 -1.4895 -2.8987
  960MOL0     H32470   2.916   1.142   6.591 -1.3434 -1.9465 -1.1089
  960MOL0     H32471   3.053   1.250   6.570 -0.4198 -0.5724  0.9040
  960MOL0     H32472   3.059   1.026   6.714  2.8124 -1.3470  2.1384
  960MOL0     H32473   3.080   0.948   6.556  0.0018  1.1164 -2.5571
  960MOL0     H32474   3.272   1.070   6.729 -1.3198 -0.0854  1.3717
  960MOL0     H32475   3.252   1.190   6.594 -1.4423 -0.8099 -1.4946
  960MOL0     H32476   3.454   0.863   6.423 -3.5036  0.5753 -3.8107
  960MOL0     H32477   3.046   1.157   6.138 -1.2433  0.5824  0.4589
  960MOL0     H32478   2.994   1.305   5.973 -1.5437  1.3135 -0.4626
  960MOL0     H32479   3.049   1.179   5.886 -1.8268 -1.8032 -1.8543
  960MOL0     H32480   2.894   1.261   5.832  3.1199  0.0684 -2.9355
  961MOL0     O32481   5.615   8.495   9.214 -0.2891  0.4118  0.5594
  961MOL0     C32482   5.597   8.606   9.159 -0.0218  0.0585 -0.5384
  961MOL0     O32483   5.659   8.656   9.043 -0.1812 -0.8310  0.1574
  961MOL0     C32484   5.801   8.660   9.045 -0.7275  0.2421 -0.0802
  961MOL0     C32485   5.871   8.604   8.940  0.8785 -1.0918 -0.8322
  961MOL0     C32486   6.010   8.589   8.926 -0.7524 -0.1032  0.4808
  961MOL0     C32487   6.089   8.651   9.028  0.0005 -0.5505 -1.2110
  961MOL0     O32488   6.224   8.637   9.036 -0.5837 -0.3371 -0.6512
  961MOL0     C32489   6.266   8.504   8.992 -0.5733  0.8924  0.2025
  961MOL0     C32490   6.407   8.475   9.014 -0.4750 -0.6220 -0.0755
  961MOL0     C32491   6.481   8.556   8.910 -0.1938  0.1095 -0.1716
  961MOL0     C32492   6.631   8.568   8.926  0.6157  0.1186 -0.1586
  961MOL0     C32493   6.681   8.647   9.046  0.2241  0.3072  0.0256
  961MOL0     C32494   6.836   8.639   9.050 -0.7278 -0.3393 -0.5408
  961MOL0     C32495   6.899   8.734   8.950  0.3905  0.3077 -0.1827
  961MOL0     C32496   7.050   8.732   8.928 -0.7526 -0.4247 -1.3098
  961MOL0     N32497   7.118   8.782   9.050  0.0620  0.2957 -0.0662
  961MOL0     C32498   7.130   8.915   9.089 -0.2898  0.1568 -0.1404
  961MOL0     C32499   7.212   8.917   9.196 -0.5975  0.4154  0.5068
  961MOL0     C32500   7.258   9.044   9.264  0.7847  0.0056  0.8699
  961MOL0     C32501   7.314   9.023   9.408 -0.3073  0.0636 -1.0124
  961MOL0     C32502   7.385   9.150   9.447  0.5514 -0.2978 -0.0101
  961MOL0     C32503   7.436   9.147   9.595  0.3546  0.5949 -0.0694
  961MOL0     O32504   7.360   9.058   9.682  0.6834  0.1345  0.0421
  961MOL0     C32505   7.240   9.100   9.738  0.0536 -0.0371 -0.4512
  961MOL0     C32506   7.174   9.000   9.813 -0.3098 -0.4781  0.8911
  961MOL0     C32507   7.051   9.028   9.873  0.0810  0.0413 -0.2171
  961MOL0     C32508   6.984   8.915   9.945  0.5354 -0.2735  0.2332
  961MOL0     C32509   6.995   9.157   9.859  0.2476  0.3405 -0.7496
  961MOL0     C32510   6.864   9.198   9.924  0.4544  0.3393 -0.8607
  961MOL0     O32511   6.830   9.333   9.912 -0.2538 -0.0604  0.0925
  961MOL0     C32512   6.706   9.371   9.943  0.2608  0.2871 -0.4213
  961MOL0     C32513   6.670   9.439  10.059  0.4249 -0.1574 -0.6110
  961MOL0     C32514   6.539   9.477  10.081 -0.6724 -0.4138 -0.4976
  961MOL0     C32515   6.441   9.440   9.996  0.4389  0.1663  1.3811
  961MOL0     O32516   6.314   9.480  10.013 -0.9199  0.0723  0.4115
  961MOL0     C32517   6.271   9.544  10.133  0.0146 -0.4335 -0.2349
  961MOL0     C32518   6.118   9.541  10.166 -0.4473 -0.8535  0.6617
  961MOL0     C32519   6.076   9.410  10.212  0.1221 -0.9734  0.2877
  961MOL0     C32520   5.920   9.421  10.219  0.1938  0.8971 -1.3752
  961MOL0     C32521   5.837   9.287  10.229 -0.2473 -0.0020 -0.0227
  961MOL0     C32522   5.852   9.222  10.366  0.0835  0.0244 -0.1683
  961MOL0     C32523   5.779   9.090  10.390 -0.3606 -0.0039 -0.2945
  961MOL0     C32524   5.777   9.059  10.533  0.4250 -0.1234  0.0455
  961MOL0    Cl32525   5.931   9.048  10.624  0.4123  0.5804  0.4583
  961MOL0     C32526   6.478   9.370   9.877 -0.9054  0.0022  0.1270
  961MOL0     C32527   6.612   9.346   9.842  0.0510  0.6117  0.3861
  961MOL0     O32528   6.796   9.112   9.974  0.0356 -0.3453  0.5424
  961MOL0     C32529   7.054   9.251   9.779  0.2777 -0.2231 -0.3587
  961MOL0     C32530   7.178   9.231   9.722  0.4699  0.3155 -0.3511
  961MOL0     N32531   7.251   8.790   9.229  0.5145 -0.0134 -0.2815
  961MOL0     N32532   7.190   8.707   9.145  0.3432 -0.5105  0.4466
  961MOL0     C32533   6.024   8.715   9.140  0.2057  0.6188 -0.5657
  961MOL0     C32534   5.884   8.709   9.155  0.1038 -0.7748  0.6536
  961MOL0     C32535   5.470   8.674   9.205 -0.6011 -0.7415 -0.6421
  961MOL0     C32536   5.360   8.596   9.230  0.4227  0.0331 -0.3214
  961MOL0     C32537   5.245   8.652   9.280  0.2339  0.0203  0.1050
  961MOL0     C32538   5.236   8.786   9.316 -0.8021 -0.2317  0.6058
  961MOL0     O32539   5.133   8.848   9.380 -0.2277  0.5000 -0.0655
  961MOL0     C32540   5.010   8.776   9.400  0.7023  0.7175 -0.3302
  961MOL0     C32541   4.893   8.878   9.442  0.1951 -0.0901 -0.8783
  961MOL0     C32542   4.748   8.827   9.465  0.6061 -0.2593  1.0180
  961MOL0     C32543   4.656   8.942   9.501  0.6150 -0.0075 -0.3988
  961MOL0     C32544   4.620   9.031   9.388 -0.8188 -0.8578  0.1968
  961MOL0     C32545   4.594   9.101   9.293  0.2772  0.4274 -0.3562
  961MOL0     C32546   5.354   8.866   9.288  0.6332 -0.3313 -0.4101
  961MOL0     C32547   5.470   8.810   9.237 -0.8954  0.1769  0.9699
  961MOL0     C32548   5.585   8.898   9.213  0.5941  0.3668  1.1106
  961MOL0     H32549   5.808   8.577   8.855 -0.8741  0.0780  0.0404
  961MOL0     H32550   6.057   8.544   8.839 -1.4337 -0.8987  0.5093
  961MOL0     H32551   6.250   8.493   8.885  1.7021 -4.0737  0.0846
  961MOL0     H32552   6.205   8.427   9.040  0.7507  1.3165  2.7311
  961MOL0     H32553   6.426   8.511   9.116 -3.5744 -0.4085  0.5284
  961MOL0     H32554   6.436   8.370   9.007  0.3443 -0.5353  1.5899
  961MOL0     H32555   6.453   8.504   8.818 -1.3928 -0.6747  0.6130
  961MOL0     H32556   6.447   8.660   8.910  3.1462  1.3171  0.1834
  961MOL0     H32557   6.668   8.466   8.926  0.0194 -0.1711  2.2213
  961MOL0     H32558   6.668   8.612   8.833  5.6306 -2.3204  0.3825
  961MOL0     H32559   6.640   8.585   9.126 -0.8894 -1.4587 -1.8329
  961MOL0     H32560   6.649   8.751   9.031 -1.1423 -0.5013 -3.5315
  961MOL0     H32561   6.873   8.655   9.152  1.5005  2.9392 -1.7110
  961MOL0     H32562   6.874   8.539   9.026  1.2291  0.5874 -1.4994
  961MOL0     H32563   6.873   8.838   8.974 -2.2648 -0.3791  0.2539
  961MOL0     H32564   6.855   8.710   8.852  0.9937  0.2246 -0.4385
  961MOL0     H32565   7.094   8.639   8.890  1.4162  0.5891 -1.4334
  961MOL0     H32566   7.063   8.808   8.851 -1.2396  1.9943  0.8190
  961MOL0     H32567   7.074   8.996   9.043 -2.1338 -2.5979 -3.2268
  961MOL0     H32568   7.173   9.113   9.260 -0.0635 -1.0718 -2.3263
  961MOL0     H32569   7.332   9.090   9.198  0.9250 -0.9099  0.3763
  961MOL0     H32570   7.233   8.994   9.475 -0.1405  0.6604 -0.5381
  961MOL0     H32571   7.379   8.937   9.422 -0.3421  0.3375  1.2646
  961MOL0     H32572   7.470   9.170   9.380  1.2540  0.8794  1.1888
  961MOL0     H32573   7.317   9.234   9.429 -2.0119 -2.3841 -0.6590
  961MOL0     H32574   7.538   9.109   9.600 -0.0053 -0.6942 -1.6515
  961MOL0     H32575   7.448   9.251   9.627  4.1199  0.1468  0.3871
  961MOL0     H32576   7.227   8.907   9.831  0.9691  0.4112  1.8718
  961MOL0     H32577   6.933   8.939  10.039  1.0797 -2.5184  1.1783
  961MOL0     H32578   7.052   8.833   9.970 -0.6882 -0.9797  1.4255
  961MOL0     H32579   6.900   8.885   9.881  2.0527 -1.0161 -1.4839
  961MOL0     H32580   6.747   9.468  10.130 -1.3281  1.7396  0.6198
  961MOL0     H32581   6.533   9.536  10.172 -0.3907 -2.1440  0.7193
  961MOL0     H32582   6.324   9.497  10.217 -0.3616  0.4122  0.5015
  961MOL0     H32583   6.302   9.649  10.139  1.1522 -0.7227 -0.8148
  961MOL0     H32584   6.090   9.628  10.226  1.3723 -1.0245  1.8343
  961MOL0     H32585   6.078   9.563  10.067  0.6565  2.7207  0.8728
  961MOL0     H32586   6.111   9.387  10.313  0.9840  0.0875  0.2523
  961MOL0     H32587   6.111   9.336  10.140 -0.8349  0.6582 -1.9623
  961MOL0     H32588   5.880   9.486  10.141 -2.4084  2.1348  0.8187
  961MOL0     H32589   5.889   9.470  10.312 -3.4897 -2.6737 -0.4333
  961MOL0     H32590   5.733   9.304  10.203 -0.1789  4.2777  1.6212
  961MOL0     H32591   5.874   9.227  10.145 -0.0970  2.3732 -1.7459
  961MOL0     H32592   5.830   9.302  10.438  4.5746 -0.9163  2.6572
  961MOL0     H32593   5.954   9.193  10.390  0.3945  2.2291  1.5585
  961MOL0     H32594   5.831   9.005  10.345  3.0110  1.8602 -0.2208
  961MOL0     H32595   5.676   9.105  10.356  0.4179  2.1101 -1.9101
  961MOL0     H32596   5.715   8.970  10.544 -2.7893  1.7728 -1.1837
  961MOL0     H32597   5.716   9.136  10.582 -0.5197  2.4599 -4.6222
  961MOL0     H32598   6.402   9.336   9.807 -1.6597 -0.2740  1.0558
  961MOL0     H32599   6.638   9.283   9.757  1.7479 -0.9836  2.0102
  961MOL0     H32600   7.008   9.343   9.744  0.3448 -0.3692 -0.8403
  961MOL0     H32601   7.220   9.304   9.654  0.8509  1.8012  1.4104
  961MOL0     H32602   6.081   8.748   9.226  0.7243  0.2570 -0.7668
  961MOL0     H32603   5.840   8.743   9.248 -0.0996  1.3592 -0.1518
  961MOL0     H32604   5.356   8.488   9.217 -1.8438  0.2173 -1.7780
  961MOL0     H32605   5.167   8.579   9.297  1.0887 -0.8493  0.3460
  961MOL0     H32606   4.975   8.738   9.304 -0.1668 -1.2159  0.6905
  961MOL0     H32607   5.029   8.694   9.470  1.1631  0.1579 -1.0994
  961MOL0     H32608   4.896   8.945   9.356  0.7017  1.9432  0.6603
  961MOL0     H32609   4.926   8.942   9.525  2.0311 -1.6133 -0.3518
  961MOL0     H32610   4.711   8.779   9.374 -1.0629 -4.2445  3.4977
  961MOL0     H32611   4.757   8.759   9.550  0.4371 -1.5717  0.0257
  961MOL0     H32612   4.705   8.997   9.582 -0.5042 -1.1839  1.1316
  961MOL0     H32613   4.568   8.888   9.537  0.1127  2.0818  1.7390
  961MOL0     H32614   4.562   9.172   9.219 -1.1373  0.7820  0.5658
  961MOL0     H32615   5.351   8.966   9.332 -1.3982  0.5640 -2.3965
  961MOL0     H32616   5.666   8.861   9.276  0.5942  1.1744  1.5960
  961MOL0     H32617   5.621   8.910   9.110  1.0684  0.4072  1.2803
  961MOL0     H32618   5.568   8.998   9.253 -1.9065  0.6709 -0.4677
  962MOL0     O32619   1.403   4.356   2.989  0.1271  0.1386  0.0457
  962MOL0     C32620   1.373   4.381   3.108 -0.1478  0.2200  0.0511
  962MOL0     O32621   1.293   4.484   3.149  1.4054 -0.2241 -0.0504
  962MOL0     C32622   1.276   4.588   3.059  0.0446 -0.4099  0.5493
  962MOL0     C32623   1.386   4.641   2.980  0.3963 -0.0025  0.4365
  962MOL0     C32624   1.365   4.741   2.885  0.0973 -0.9176 -0.0394
  962MOL0     C32625   1.229   4.799   2.880 -0.4536  0.7146 -0.8620
  962MOL0     O32626   1.206   4.900   2.797 -0.3432 -0.0095  0.9453
  962MOL0     C32627   1.230   5.031   2.859  0.2162 -0.5183  0.4888
  962MOL0     C32628   1.277   5.129   2.743 -0.6613  0.1429 -0.2113
  962MOL0     C32629   1.270   5.278   2.777  0.5465 -0.0322 -0.8348
  962MOL0     C32630   1.196   5.373   2.683  0.8883 -0.2736 -0.0981
  962MOL0     C32631   1.272   5.499   2.643 -0.7540 -0.6438 -0.1476
  962MOL0     C32632   1.387   5.467   2.548  0.8863  0.0758 -0.1561
  962MOL0     C32633   1.431   5.588   2.476  0.0906  0.1844 -0.4810
  962MOL0     C32634   1.497   5.568   2.337  0.3857  0.2019 -0.3081
  962MOL0     N32635   1.622   5.492   2.336 -0.0051 -0.0629 -0.8129
  962MOL0     C32636   1.713   5.510   2.436  0.0803 -0.1948 -0.6094
  962MOL0     C32637   1.804   5.415   2.421 -0.3189  0.5356  0.3299
  962MOL0     C32638   1.897   5.381   2.542  0.8800 -0.2143 -0.5054
  962MOL0     C32639   1.838   5.255   2.624 -0.9815  0.2446 -0.5679
  962MOL0     C32640   1.726   5.307   2.719  0.2750  0.3570  0.3737
  962MOL0     C32641   1.664   5.194   2.800  0.9892  0.7393  0.6792
  962MOL0     O32642   1.778   5.143   2.866  0.6834  0.2167 -0.2500
  962MOL0     C32643   1.760   5.027   2.929 -0.1953  0.9979 -0.6273
  962MOL0     C32644   1.672   5.004   3.035 -0.0928  0.1221 -0.1139
  962MOL0     C32645   1.677   4.878   3.099  0.0961 -0.2236 -0.2119
  962MOL0     C32646   1.596   4.847   3.223 -0.9872  0.2166  0.3040
  962MOL0     C32647   1.773   4.779   3.064 -0.7234  0.8262  0.6042
  962MOL0     C32648   1.808   4.660   3.132 -0.5280 -0.4537 -0.8702
  962MOL0     O32649   1.937   4.649   3.180  0.2155  0.2456  0.3956
  962MOL0     C32650   1.969   4.547   3.266  1.0135  1.4469  0.6145
  962MOL0     C32651   2.089   4.475   3.245 -0.6431  0.6591 -0.4811
  962MOL0     C32652   2.111   4.354   3.317 -0.4088  0.6491  0.4303
  962MOL0     C32653   2.033   4.323   3.429  1.1525 -1.0468 -0.2966
  962MOL0     O32654   2.051   4.217   3.506 -0.0721 -1.3629  0.9536
  962MOL0     C32655   2.155   4.131   3.482  0.7200 -0.2211  0.1572
  962MOL0     C32656   2.153   4.039   3.608 -0.3037 -0.6983 -1.1615
  962MOL0     C32657   2.297   4.018   3.665  0.0156  0.5155  0.0521
  962MOL0     C32658   2.318   3.922   3.780  0.1705  0.6175 -0.0569
  962MOL0     C32659   2.301   3.770   3.726  0.3938  0.2848  0.6084
  962MOL0     C32660   2.186   3.692   3.792 -0.4101  0.7635  0.2035
  962MOL0     C32661   2.223   3.650   3.928  0.3619 -0.1757  0.3427
  962MOL0     C32662   2.107   3.560   3.979  0.1462 -0.5083 -1.0082
  962MOL0    Cl32663   2.147   3.493   4.149  0.0335  0.3281 -0.1226
  962MOL0     C32664   1.926   4.406   3.453 -0.8789 -0.0339 -0.3578
  962MOL0     C32665   1.884   4.511   3.367 -0.2100 -0.3660 -0.1827
  962MOL0     O32666   1.722   4.573   3.146 -1.2477 -0.9847  0.8332
  962MOL0     C32667   1.841   4.793   2.943  0.7469 -0.7734 -1.3162
  962MOL0     C32668   1.837   4.915   2.886 -0.0407 -0.2172  0.2082
  962MOL0     N32669   1.781   5.340   2.296 -0.8200 -0.4327  0.5670
  962MOL0     N32670   1.672   5.390   2.251 -0.0452  0.0034  0.6280
  962MOL0     C32671   1.130   4.758   2.965  0.3584  0.2618 -1.6297
  962MOL0     C32672   1.147   4.651   3.056 -0.5491  0.9171  0.1302
  962MOL0     C32673   1.416   4.285   3.204 -0.4143  0.7843  0.0832
  962MOL0     C32674   1.539   4.304   3.287 -0.4566 -0.1855  0.0517
  962MOL0     C32675   1.576   4.216   3.379  0.6685  0.3952  0.6320
  962MOL0     C32676   1.496   4.100   3.399  0.3077 -0.5660 -0.7646
  962MOL0     O32677   1.535   4.001   3.491 -0.0714 -0.1302 -0.1055
  962MOL0     C32678   1.437   3.969   3.589  0.3204 -0.0410 -0.1959
  962MOL0     C32679   1.483   4.006   3.733  0.2119 -0.2584  0.4103
  962MOL0     C32680   1.519   4.147   3.774 -0.3693 -0.4005  0.1989
  962MOL0     C32681   1.408   4.249   3.774  0.3727 -0.2306  0.0935
  962MOL0     C32682   1.462   4.373   3.821 -0.0389  0.3949 -0.3529
  962MOL0     C32683   1.476   4.487   3.851  0.8382 -0.2750  0.3453
  962MOL0     C32684   1.384   4.078   3.323 -0.3600 -0.0006  0.4463
  962MOL0     C32685   1.349   4.162   3.215  0.7502 -0.5861  1.3885
  962MOL0     C32686   1.234   4.136   3.118 -0.3034  0.5762  0.1720
  962MOL0     H32687   1.487   4.604   2.997  0.5521 -1.2066 -2.4931
  962MOL0     H32688   1.445   4.781   2.824 -1.6315 -0.2859 -2.0187
  962MOL0     H32689   1.307   5.022   2.936 -1.2920  0.4881  2.1924
  962MOL0     H32690   1.137   5.054   2.912 -0.5342 -2.4108  0.1065
  962MOL0     H32691   1.380   5.101   2.716  0.6362  1.6680  2.6205
  962MOL0     H32692   1.209   5.109   2.660 -1.8937  3.4541 -0.1393
  962MOL0     H32693   1.224   5.300   2.874 -1.0943  1.2878 -1.8577
  962MOL0     H32694   1.375   5.308   2.774  0.2117  1.1016 -2.3946
  962MOL0     H32695   1.167   5.314   2.595 -1.2397 -0.4842  0.6911
  962MOL0     H32696   1.104   5.407   2.732  0.4264  0.3971 -1.3716
  962MOL0     H32697   1.305   5.543   2.738 -0.1814 -2.2325  0.4316
  962MOL0     H32698   1.201   5.570   2.602 -0.3113 -1.2176 -2.0227
  962MOL0     H32699   1.469   5.416   2.598  0.3096  0.1724  0.9153
  962MOL0     H32700   1.338   5.403   2.473  0.4214  0.9350 -0.5982
  962MOL0     H32701   1.489   5.654   2.540 -3.0673  2.4789  0.2528
  962MOL0     H32702   1.344   5.652   2.457  0.0761  0.3862  0.2529
  962MOL0     H32703   1.421   5.525   2.271  0.2097  2.1808 -1.4694
  962MOL0     H32704   1.526   5.670   2.308  3.6717  0.3867  2.8372
  962MOL0     H32705   1.717   5.585   2.514  4.0912  0.6875 -1.4495
  962MOL0     H32706   1.915   5.467   2.607  1.3484 -0.0211 -0.8817
  962MOL0     H32707   1.992   5.353   2.495  0.7495 -2.3314  0.4115
  962MOL0     H32708   1.808   5.179   2.551 -0.2995 -1.4293  0.8213
  962MOL0     H32709   1.909   5.203   2.688 -0.5200  0.7724 -0.6328
  962MOL0     H32710   1.763   5.382   2.790  0.4902  0.3925  0.2251
  962MOL0     H32711   1.648   5.351   2.656  0.3750  0.0635  0.0429
  962MOL0     H32712   1.590   5.225   2.875  0.0285  3.0880 -1.1204
  962MOL0     H32713   1.619   5.131   2.723  5.2437  0.4313 -1.8070
  962MOL0     H32714   1.611   5.079   3.083 -1.1858 -0.3908 -0.6651
  962MOL0     H32715   1.532   4.934   3.245 -2.3192 -0.4943 -0.6493
  962MOL0     H32716   1.664   4.841   3.308 -0.1466 -0.7055 -0.4199
  962MOL0     H32717   1.544   4.752   3.207  0.5907 -0.5177 -0.6164
  962MOL0     H32718   2.142   4.517   3.160  1.8606  2.2069  1.7112
  962MOL0     H32719   2.188   4.285   3.284  1.5981  1.5790  2.8431
  962MOL0     H32720   2.134   4.070   3.394  0.4593 -2.3592  1.6156
  962MOL0     H32721   2.250   4.183   3.467  0.0411  0.6062 -1.5478
  962MOL0     H32722   2.088   4.082   3.685 -3.6557 -0.9048 -3.6732
  962MOL0     H32723   2.117   3.941   3.574  2.3737 -2.3315  0.3235
  962MOL0     H32724   2.322   4.119   3.698  2.0671  0.6353 -1.6472
  962MOL0     H32725   2.359   3.981   3.582 -0.6056  0.7735 -0.5393
  962MOL0     H32726   2.243   3.948   3.855 -2.0522 -1.8005 -1.2625
  962MOL0     H32727   2.419   3.939   3.817 -0.9433  4.2157  1.7234
  962MOL0     H32728   2.279   3.778   3.619  1.4698  2.6320  0.4943
  962MOL0     H32729   2.395   3.716   3.742  0.0045 -1.9475 -3.4391
  962MOL0     H32730   2.164   3.605   3.729  0.9704  0.3041  0.3318
  962MOL0     H32731   2.103   3.763   3.789  0.2012  1.4718 -0.7484
  962MOL0     H32732   2.237   3.743   3.984 -0.3446  0.9182 -1.2360
  962MOL0     H32733   2.314   3.588   3.929  0.2622 -0.3203  0.7176
  962MOL0     H32734   2.100   3.473   3.914 -0.4194  1.0941 -3.2215
  962MOL0     H32735   2.020   3.627   3.977  0.3376 -0.2654 -1.2370
  962MOL0     H32736   1.875   4.369   3.541  2.4959 -1.3286  1.2552
  962MOL0     H32737   1.796   4.567   3.398  0.0460 -0.6395  1.1274
  962MOL0     H32738   1.915   4.717   2.921  1.6738 -0.7402  1.3989
  962MOL0     H32739   1.906   4.938   2.806  2.3190 -0.9083  1.9261
  962MOL0     H32740   1.029   4.798   2.960 -0.5297 -1.2026  1.8002
  962MOL0     H32741   1.067   4.621   3.124 -0.0404 -1.3815 -0.1841
  962MOL0     H32742   1.602   4.389   3.264 -0.4952 -0.7698 -2.5854
  962MOL0     H32743   1.670   4.231   3.433  0.3097 -1.2724  1.7895
  962MOL0     H32744   1.347   4.028   3.571  0.5290 -0.3339 -2.4289
  962MOL0     H32745   1.398   3.867   3.575 -1.1297  0.7033 -2.0187
  962MOL0     H32746   1.575   3.949   3.749  0.1641 -0.2190  0.8609
  962MOL0     H32747   1.405   3.981   3.807 -3.3377  1.2124 -2.5220
  962MOL0     H32748   1.562   4.150   3.874 -2.4174  0.5832  1.1038
  962MOL0     H32749   1.577   4.199   3.697 -1.4798  1.3563  0.4932
  962MOL0     H32750   1.326   4.242   3.845  0.2197  0.0326 -0.0560
  962MOL0     H32751   1.366   4.258   3.674 -0.9786 -3.5964  0.2387
  962MOL0     H32752   1.491   4.590   3.874 -2.3559  1.0753 -2.6533
  962MOL0     H32753   1.340   3.980   3.339  1.9006 -0.8974  1.4701
  962MOL0     H32754   1.154   4.211   3.119  0.5643  1.5347 -0.0011
  962MOL0     H32755   1.270   4.121   3.016  0.2571  4.3855 -0.3567
  962MOL0     H32756   1.191   4.042   3.154  1.9525 -0.0017  1.5885
  963MOL0     O32757   7.494   2.789   6.524  0.5035 -0.0594 -0.0960
  963MOL0     C32758   7.479   2.677   6.565  1.0620  0.0612  0.0659
  963MOL0     O32759   7.549   2.566   6.524  0.0452 -0.7982  0.4390
  963MOL0     C32760   7.649   2.579   6.436 -0.3073  0.1207  0.5791
  963MOL0     C32761   7.748   2.678   6.456 -0.2044  0.1461 -0.9510
  963MOL0     C32762   7.854   2.693   6.377  0.2797 -0.2986  0.2550
  963MOL0     C32763   7.865   2.623   6.260  1.2043 -0.4040  0.1069
  963MOL0     O32764   7.966   2.652   6.173  0.1373  0.8206 -0.3544
  963MOL0     C32765   8.039   2.548   6.106  0.8583  0.0537  0.5262
  963MOL0     C32766   8.186   2.599   6.099 -0.3363 -0.0797  0.4657
  963MOL0     C32767   8.258   2.607   6.233  0.2295  1.1059  0.4382
  963MOL0     C32768   8.266   2.751   6.274  0.7809  0.6016 -0.0036
  963MOL0     C32769   8.384   2.823   6.205 -1.0634 -0.1456  0.1460
  963MOL0     C32770   8.513   2.830   6.289  0.3266 -0.2944  0.4970
  963MOL0     C32771   8.613   2.906   6.205  0.7968 -0.0275  0.5038
  963MOL0     C32772   8.659   2.826   6.072  0.3182  0.2590 -0.8224
  963MOL0     N32773   8.781   2.889   6.019 -0.4748 -0.1064 -0.5632
  963MOL0     C32774   8.782   2.995   5.931 -0.2116  0.2413  0.3341
  963MOL0     C32775   8.899   3.062   5.963 -0.0866  0.1556  0.3121
  963MOL0     C32776   8.933   3.200   5.913  0.0659 -0.1519  0.2787
  963MOL0     C32777   8.920   3.194   5.753  0.1619 -0.1829 -1.2051
  963MOL0     C32778   8.954   3.331   5.695  0.0312 -0.1678 -0.1588
  963MOL0     C32779   9.007   3.340   5.552 -0.9550  0.4988 -0.0612
  963MOL0     O32780   9.151   3.338   5.574  0.2850  0.4301 -0.5254
  963MOL0     C32781   9.233   3.341   5.466 -0.5864  0.2470  0.6058
  963MOL0     C32782   9.178   3.335   5.329  0.1798 -1.0436  0.3201
  963MOL0     C32783   9.260   3.333   5.207  0.5731 -0.4152 -0.6671
  963MOL0     C32784   9.197   3.324   5.076 -0.8936 -0.3578 -0.0326
  963MOL0     C32785   9.393   3.315   5.224  0.2341 -0.3436  0.3424
  963MOL0     C32786   9.489   3.287   5.114  0.5307  0.0082 -0.8875
  963MOL0     O32787   9.451   3.176   5.044 -0.3994 -0.0017  0.1472
  963MOL0     C32788   9.520   3.151   4.922  0.4452 -0.3284 -1.0402
  963MOL0     C32789   9.538   3.249   4.826 -0.5791 -0.4123 -0.0283
  963MOL0     C32790   9.613   3.224   4.707  0.0276 -0.0962 -0.9082
  963MOL0     C32791   9.673   3.099   4.686 -0.9565  0.5365 -0.4821
  963MOL0     O32792   9.731   3.062   4.566 -0.4090  0.4894  0.7503
  963MOL0     C32793   9.688   3.117   4.444  0.4587 -0.1552 -0.6788
  963MOL0     C32794   9.755   3.035   4.327 -0.5839 -0.4509 -0.4090
  963MOL0     C32795   9.894   3.085   4.274  0.3837  0.0285  0.3049
  963MOL0     C32796   9.942   3.239   4.282  0.3438 -0.0981  0.1419
  963MOL0     C32797   9.908   3.311   4.168 -0.2393  0.4291 -0.3658
  963MOL0     C32798   9.760   3.318   4.129  0.3021  0.3967  0.0283
  963MOL0     C32799   9.727   3.376   3.991 -0.2322  0.4128 -0.5997
  963MOL0     C32800   9.735   3.532   3.988  0.6134 -0.2900  0.7982
  963MOL0    Cl32801   9.895   3.589   3.974  0.1443 -0.1259 -0.2300
  963MOL0     C32802   9.652   3.002   4.787  0.0694 -0.4628 -1.0548
  963MOL0     C32803   9.578   3.026   4.901 -0.0209  0.9677  0.2178
  963MOL0     O32804   9.598   3.341   5.108  0.3519  0.1899  0.7482
  963MOL0     C32805   9.446   3.321   5.348 -0.3563 -0.9620 -0.1168
  963MOL0     C32806   9.375   3.335   5.467  0.0782  0.0714 -0.2418
  963MOL0     N32807   8.973   2.995   6.055 -0.0144  0.4282  0.3066
  963MOL0     N32808   8.901   2.894   6.096  0.3532 -0.9404 -0.5525
  963MOL0     C32809   7.772   2.521   6.233 -0.0706 -0.3041  0.4973
  963MOL0     C32810   7.662   2.497   6.321 -0.1917 -0.3077  0.9933
  963MOL0     C32811   7.373   2.658   6.670 -1.1646 -0.1912 -0.1737
  963MOL0     C32812   7.351   2.771   6.754  1.2105  0.7618  0.2096
  963MOL0     C32813   7.257   2.750   6.856  0.0362  0.9973 -0.4885
  963MOL0     C32814   7.184   2.631   6.879  0.0873  0.4935 -0.0183
  963MOL0     O32815   7.089   2.620   6.979 -0.2059  0.4106  1.0787
  963MOL0     C32816   7.048   2.727   7.063 -0.2858  0.2611  0.2716
  963MOL0     C32817   6.935   2.683   7.162 -0.4887 -0.0934 -1.2410
  963MOL0     C32818   7.011   2.645   7.290 -0.3102 -0.7405  0.3025
  963MOL0     C32819   7.100   2.527   7.274 -0.3910  0.3431 -0.4125
  963MOL0     C32820   7.023   2.406   7.245 -1.5420  0.1395  0.5736
  963MOL0     C32821   6.950   2.321   7.204  0.3502  0.6312  0.3326
  963MOL0     C32822   7.209   2.532   6.798 -0.6967  0.6818  0.8357
  963MOL0     C32823   7.307   2.531   6.696  0.1447 -0.1277 -0.1360
  963MOL0     C32824   7.324   2.408   6.614 -0.4405  0.4494 -0.3277
  963MOL0     H32825   7.741   2.735   6.548 -2.5799 -0.7180 -0.5244
  963MOL0     H32826   7.939   2.761   6.379  1.4833 -1.4899 -2.9967
  963MOL0     H32827   8.005   2.529   6.003  1.7742 -2.1038  0.5510
  963MOL0     H32828   8.031   2.448   6.150  1.2161 -0.7043 -1.0253
  963MOL0     H32829   8.240   2.530   6.033  1.1137  1.0977  0.3948
  963MOL0     H32830   8.176   2.699   6.057  2.9082  1.4086  2.7535
  963MOL0     H32831   8.199   2.545   6.302  0.1043 -0.2930 -0.8598
  963MOL0     H32832   8.356   2.559   6.236 -0.2436  0.1349  1.9942
  963MOL0     H32833   8.171   2.800   6.249  1.3480  1.4189 -0.6122
  963MOL0     H32834   8.290   2.751   6.381 -0.3343 -0.9966  0.2815
  963MOL0     H32835   8.353   2.926   6.187  1.6848  0.5446 -1.1574
  963MOL0     H32836   8.410   2.770   6.113  0.6062  1.2260 -0.2188
  963MOL0     H32837   8.485   2.877   6.383 -1.8321  1.1454 -0.7868
  963MOL0     H32838   8.554   2.731   6.310 -0.6830 -0.6542  0.7793
  963MOL0     H32839   8.702   2.924   6.265 -0.4321 -0.2001  2.4402
  963MOL0     H32840   8.581   3.008   6.179 -1.6849  0.0397  3.3143
  963MOL0     H32841   8.684   2.727   6.112  1.4350  0.5584 -0.7222
  963MOL0     H32842   8.588   2.818   5.990  0.0039 -2.0913 -0.3908
  963MOL0     H32843   8.701   3.024   5.865 -0.7552 -2.4520 -0.2890
  963MOL0     H32844   9.026   3.250   5.940 -2.3991  5.0826  0.4669
  963MOL0     H32845   8.860   3.277   5.942 -1.3922 -0.9403 -1.0930
  963MOL0     H32846   8.980   3.117   5.703  1.6696  1.6157 -2.3020
  963MOL0     H32847   8.821   3.159   5.722  0.1789  0.4356 -1.9814
  963MOL0     H32848   8.861   3.388   5.700 -0.1652 -0.5691  4.2589
  963MOL0     H32849   9.025   3.380   5.762  0.5401 -0.4163 -0.5030
  963MOL0     H32850   8.974   3.257   5.487 -1.3514  2.3024 -2.3109
  963MOL0     H32851   8.978   3.440   5.518 -0.7002  1.4241  2.2752
  963MOL0     H32852   9.071   3.347   5.318  0.6054  2.1438 -1.5913
  963MOL0     H32853   9.258   3.351   4.990  0.3643  0.0242  0.9515
  963MOL0     H32854   9.113   3.393   5.066 -1.4671 -1.4480 -5.0934
  963MOL0     H32855   9.158   3.225   5.049 -2.2396  0.6750 -2.0465
  963MOL0     H32856   9.510   3.353   4.838 -1.3079 -0.7535  1.5220
  963MOL0     H32857   9.633   3.305   4.638 -0.5488  1.3921  0.6100
  963MOL0     H32858   9.579   3.104   4.438  0.3481  0.0910  0.5303
  963MOL0     H32859   9.725   3.220   4.437  1.3648 -0.2227  2.1719
  963MOL0     H32860   9.761   2.930   4.357 -2.3311 -1.1238 -2.2383
  963MOL0     H32861   9.690   3.040   4.239 -1.2061 -0.2636  0.0527
  963MOL0     H32862   9.917   3.040   4.177 -0.1477 -0.6876  0.4950
  963MOL0     H32863   9.976   3.035   4.328  0.8377  0.5366  0.0922
  963MOL0     H32864  10.052   3.241   4.281  0.4067  3.1364 -2.5989
  963MOL0     H32865   9.910   3.288   4.374  1.6072 -1.9196  1.6383
  963MOL0     H32866   9.930   3.416   4.189 -3.1059  0.6125  2.3957
  963MOL0     H32867   9.972   3.267   4.091 -0.5979  0.9014 -0.9431
  963MOL0     H32868   9.701   3.361   4.211 -0.9995 -2.1737  0.5376
  963MOL0     H32869   9.726   3.215   4.144  3.2027 -0.2301  4.1301
  963MOL0     H32870   9.630   3.332   3.967  0.4398 -3.1946  2.4225
  963MOL0     H32871   9.795   3.336   3.915 -0.2838  0.9631 -0.9497
  963MOL0     H32872   9.678   3.553   4.079 -1.3516 -1.4522 -0.0863
  963MOL0     H32873   9.680   3.582   3.909  1.4963 -0.2931  0.1714
  963MOL0     H32874   9.691   2.901   4.776  1.9732 -0.0453  1.0507
  963MOL0     H32875   9.562   2.949   4.976  1.3374  0.2021 -0.2364
  963MOL0     H32876   9.554   3.310   5.350 -0.0054  0.6159 -3.3657
  963MOL0     H32877   9.424   3.350   5.563 -0.6988  1.1040  0.0068
  963MOL0     H32878   7.774   2.476   6.135  0.6133  1.6385 -0.4232
  963MOL0     H32879   7.586   2.424   6.296 -0.9754  0.3862  1.3363
  963MOL0     H32880   7.406   2.862   6.736 -0.0001  1.0109 -2.7923
  963MOL0     H32881   7.246   2.832   6.926 -1.2921  0.6168 -0.2197
  963MOL0     H32882   7.131   2.768   7.121 -0.0228 -1.2339  1.0144
  963MOL0     H32883   7.016   2.804   6.992 -4.6810 -0.7479  0.8615
  963MOL0     H32884   6.871   2.602   7.126 -1.7264  0.7542 -1.0332
  963MOL0     H32885   6.881   2.778   7.166 -0.2330  0.0017  1.1620
  963MOL0     H32886   7.070   2.730   7.325 -0.7967  0.1053 -0.8562
  963MOL0     H32887   6.938   2.617   7.366  1.1715 -1.6394  1.4550
  963MOL0     H32888   7.156   2.521   7.368 -3.5436  0.7394  1.6480
  963MOL0     H32889   7.165   2.542   7.187  0.7092  1.4424  0.5579
  963MOL0     H32890   6.899   2.237   7.162  1.7869  0.2993 -0.8576
  963MOL0     H32891   7.158   2.437   6.815  1.0679 -0.3298  0.7346
  963MOL0     H32892   7.425   2.366   6.616 -0.4666  0.4058  1.7424
  963MOL0     H32893   7.261   2.326   6.647  0.4995 -0.1004  0.1436
  963MOL0     H32894   7.304   2.439   6.511 -0.4865 -1.8427 -1.0574
  964MOL0     O32895  10.252   0.781   3.337 -0.0393 -0.2807  0.8449
  964MOL0     C32896  10.365   0.741   3.366 -0.3062  0.6024 -0.8583
  964MOL0     O32897  10.411   0.612   3.363 -0.6843  0.4689 -0.7343
  964MOL0     C32898  10.318   0.506   3.347 -0.0140 -0.1742 -0.4125
  964MOL0     C32899  10.326   0.387   3.431  0.3369 -0.5486  0.5421
  964MOL0     C32900  10.240   0.277   3.411 -0.0100  0.7408  1.2587
  964MOL0     C32901  10.140   0.276   3.308 -0.0617  0.0085  0.0453
  964MOL0     O32902  10.070   0.170   3.261  0.5321 -0.9500 -0.3027
  964MOL0     C32903  10.035   0.064   3.342 -0.4151 -0.9865 -0.9198
  964MOL0     C32904   9.931  -0.031   3.289  0.7856 -0.1870 -0.9500
  964MOL0     C32905   9.948  -0.042   3.140  0.9427  0.1595  0.7849
  964MOL0     C32906   9.868  -0.159   3.078 -0.3198  0.2782  1.0363
  964MOL0     C32907   9.882  -0.167   2.917 -0.8549  0.1141 -0.7542
  964MOL0     C32908  10.022  -0.202   2.866 -0.2323  0.0079  0.0638
  964MOL0     C32909  10.043  -0.162   2.722  0.4089 -0.0141  0.0433
  964MOL0     C32910  10.198  -0.156   2.685  0.4792  0.0323 -0.4458
  964MOL0     N32911  10.236  -0.295   2.654  0.0507  0.5307  0.3057
  964MOL0     C32912  10.200  -0.374   2.540  0.3515  0.2977 -0.5185
  964MOL0     C32913  10.229  -0.501   2.572  0.3275  0.8253 -0.5233
  964MOL0     C32914  10.181  -0.616   2.491 -0.0863  0.3402  0.1412
  964MOL0     C32915  10.122  -0.732   2.575 -0.0742  0.2716  0.3660
  964MOL0     C32916  10.087  -0.850   2.499  0.0357 -0.5468 -0.3767
  964MOL0     C32917  10.201  -0.918   2.427 -0.2114  0.8302  0.0892
  964MOL0     O32918  10.274  -0.988   2.535 -0.3622  0.6887  0.8877
  964MOL0     C32919  10.398  -1.044   2.513  1.1385 -0.6334  0.6531
  964MOL0     C32920  10.457  -1.047   2.386 -0.4940  0.4788 -0.4208
  964MOL0     C32921  10.577  -1.106   2.367 -1.6401  0.1119  0.0178
  964MOL0     C32922  10.629  -1.117   2.231  0.6823  0.5659  0.1875
  964MOL0     C32923  10.651  -1.166   2.476  0.3700 -0.7873  0.0416
  964MOL0     C32924  10.791  -1.203   2.471 -0.6484 -0.0916 -0.2020
  964MOL0     O32925  10.870  -1.159   2.366 -0.8555  0.2770 -0.2383
  964MOL0     C32926  11.012  -1.172   2.369 -0.4826 -0.7523 -0.0818
  964MOL0     C32927  11.082  -1.158   2.491 -0.4131  0.1011 -0.0834
  964MOL0     C32928  11.223  -1.151   2.488  0.1122 -0.8104 -0.2390
  964MOL0     C32929  11.289  -1.170   2.367  0.7839 -0.4865  0.2109
  964MOL0     O32930  11.421  -1.158   2.342 -0.2585  0.4573 -0.1832
  964MOL0     C32931  11.511  -1.106   2.443 -1.2136 -1.1195 -0.1155
  964MOL0     C32932  11.654  -1.088   2.394  1.3398 -0.0169  0.0626
  964MOL0     C32933  11.648  -1.020   2.255  0.0224 -0.4297  0.6192
  964MOL0     C32934  11.779  -1.041   2.179 -0.5111  0.4616 -1.1107
  964MOL0     C32935  11.773  -0.972   2.044  0.3496 -0.2754  0.3016
  964MOL0     C32936  11.908  -0.966   1.959 -0.0193  0.2314 -0.2305
  964MOL0     C32937  12.021  -0.885   2.018 -1.1000 -0.6738 -0.1198
  964MOL0     C32938  12.138  -0.837   1.919  0.3380 -0.6529 -1.2359
  964MOL0    Cl32939  12.234  -0.984   1.900  0.2885 -0.3243  0.1325
  964MOL0     C32940  11.222  -1.197   2.250  0.0233  0.7970 -0.6926
  964MOL0     C32941  11.084  -1.183   2.243 -0.1427  0.4591 -0.0877
  964MOL0     O32942  10.834  -1.277   2.563 -0.3067 -0.2283  0.4347
  964MOL0     C32943  10.582  -1.172   2.601  0.0210  0.0332 -0.0319
  964MOL0     C32944  10.457  -1.109   2.624 -0.2439  0.0321 -0.1093
  964MOL0     N32945  10.280  -0.502   2.699 -0.2937  0.4905  0.3978
  964MOL0     N32946  10.284  -0.383   2.745 -0.1170  0.2769  0.2362
  964MOL0     C32947  10.137   0.392   3.225  0.1272 -0.1004  0.7571
  964MOL0     C32948  10.221   0.508   3.243 -0.0159  0.2320 -0.7510
  964MOL0     C32949  10.469   0.844   3.409  0.3942  0.2557 -0.0314
  964MOL0     C32950  10.606   0.812   3.393 -0.2907 -0.0027 -0.4117
  964MOL0     C32951  10.694   0.914   3.424 -0.8035  0.6441  0.2935
  964MOL0     C32952  10.659   1.040   3.476 -0.0543 -0.2309  0.7634
  964MOL0     O32953  10.760   1.142   3.479  0.5195  0.2922 -0.2973
  964MOL0     C32954  10.804   1.170   3.614  0.5153  0.9457 -1.1629
  964MOL0     C32955  10.765   1.321   3.650  0.3707 -0.3434 -0.2543
  964MOL0     C32956  10.847   1.386   3.767  1.4122 -0.1973 -0.1444
  964MOL0     C32957  10.834   1.294   3.889  0.0222 -0.6858  0.1602
  964MOL0     C32958  10.704   1.279   3.958  0.3486 -0.8645  0.2792
  964MOL0     C32959  10.607   1.272   4.025  0.4802  0.5313  0.0642
  964MOL0     C32960  10.525   1.060   3.506  0.3871 -0.0469 -0.0052
  964MOL0     C32961  10.430   0.959   3.483  0.4512  0.8090 -0.4094
  964MOL0     C32962  10.290   0.991   3.525 -0.0221 -0.8813  0.4371
  964MOL0     H32963  10.397   0.394   3.513  3.1818  1.1508 -1.8550
  964MOL0     H32964  10.241   0.196   3.484 -4.3350  1.5884  2.5801
  964MOL0     H32965  10.003   0.105   3.438 -1.4772 -1.3044 -1.1218
  964MOL0     H32966  10.126   0.003   3.351 -0.8849 -1.8164 -1.6030
  964MOL0     H32967   9.938  -0.128   3.340  1.1262 -0.2695 -1.1562
  964MOL0     H32968   9.834   0.018   3.306  2.1204  2.4133 -0.2914
  964MOL0     H32969   9.906   0.048   3.093  2.3627 -0.3699 -1.6450
  964MOL0     H32970  10.051  -0.030   3.105  0.0092  2.0644 -1.6555
  964MOL0     H32971   9.909  -0.250   3.122 -3.0515 -0.4529  2.2820
  964MOL0     H32972   9.760  -0.154   3.095 -0.5543 -1.6126  0.2958
  964MOL0     H32973   9.859  -0.066   2.881  3.0186  0.4219 -2.9571
  964MOL0     H32974   9.805  -0.234   2.879 -1.4386  0.6750 -0.5830
  964MOL0     H32975  10.097  -0.158   2.933  0.5534  0.4302 -1.0722
  964MOL0     H32976  10.025  -0.311   2.867 -1.5785 -0.0400  0.3276
  964MOL0     H32977  10.007  -0.059   2.711  0.9082  0.0145 -1.5142
  964MOL0     H32978   9.983  -0.220   2.651 -3.5231  0.8685  2.3400
  964MOL0     H32979  10.209  -0.091   2.597 -0.8767  0.8488 -0.0306
  964MOL0     H32980  10.251  -0.121   2.774  2.1313 -2.2970 -0.4227
  964MOL0     H32981  10.148  -0.348   2.448 -1.5051 -0.8279  0.1622
  964MOL0     H32982  10.259  -0.644   2.419 -1.3230 -2.8400 -0.1361
  964MOL0     H32983  10.103  -0.586   2.420  1.3980  0.8172 -1.3748
  964MOL0     H32984  10.200  -0.769   2.643 -0.9890 -3.6054 -0.4383
  964MOL0     H32985  10.032  -0.698   2.627  0.6490  1.1890  1.0488
  964MOL0     H32986  10.046  -0.922   2.571  0.1870  2.3715  2.8902
  964MOL0     H32987  10.008  -0.833   2.425 -0.9527  0.1913  0.8108
  964MOL0     H32988  10.157  -0.999   2.368 -0.9212  1.2232  0.0633
  964MOL0     H32989  10.269  -0.855   2.369  1.5492 -1.2721 -0.2617
  964MOL0     H32990  10.412  -1.001   2.299 -0.8291  1.3488  0.1948
  964MOL0     H32991  10.655  -1.219   2.200  0.2147 -0.1294  1.9607
  964MOL0     H32992  10.713  -1.050   2.211 -0.0537  0.9252 -1.9828
  964MOL0     H32993  10.549  -1.079   2.167 -1.1044 -1.9192  0.7545
  964MOL0     H32994  11.043  -1.145   2.591 -0.4748  0.8936 -0.2049
  964MOL0     H32995  11.291  -1.131   2.570  1.3851  1.6264 -1.7407
  964MOL0     H32996  11.482  -1.010   2.485 -0.1111 -0.4218 -0.9119
  964MOL0     H32997  11.514  -1.176   2.527 -2.9419 -2.7632 -1.3209
  964MOL0     H32998  11.697  -1.025   2.472 -0.4580 -0.5936  1.5840
  964MOL0     H32999  11.702  -1.186   2.401  1.6459  0.2281  1.9349
  964MOL0     H33000  11.620  -0.914   2.254  0.7289 -0.2364 -0.6003
  964MOL0     H33001  11.575  -1.062   2.185  0.9175 -2.6483  0.9227
  964MOL0     H33002  11.801  -1.148   2.182 -0.3134  0.4484 -2.3811
  964MOL0     H33003  11.861  -0.985   2.224 -3.1825 -0.0076  5.3553
  964MOL0     H33004  11.699  -1.016   1.977 -1.7315  2.1024  0.8421
  964MOL0     H33005  11.744  -0.867   2.061  1.1426  0.0936 -0.5289
  964MOL0     H33006  11.888  -0.923   1.860  1.0038  0.8459 -0.1859
  964MOL0     H33007  11.951  -1.064   1.937 -1.7986 -0.5941 -0.2136
  964MOL0     H33008  12.065  -0.921   2.112  1.2289  0.2527 -0.7768
  964MOL0     H33009  11.980  -0.791   2.056 -0.1309 -0.0669 -0.5422
  964MOL0     H33010  12.204  -0.757   1.954  0.2213 -2.1466  3.1320
  964MOL0     H33011  12.092  -0.809   1.824  2.7983 -0.4733 -2.4385
  964MOL0     H33012  11.273  -1.225   2.159  2.9900  0.8635  0.8041
  964MOL0     H33013  11.040  -1.203   2.146 -1.4118 -1.6356  0.8504
  964MOL0     H33014  10.643  -1.214   2.681  0.4392  1.5484  0.4706
  964MOL0     H33015  10.403  -1.101   2.718  1.7738  0.9553  1.0258
  964MOL0     H33016  10.055   0.397   3.154 -1.8407 -2.0204  2.7331
  964MOL0     H33017  10.203   0.603   3.194 -1.1007 -0.6765 -2.1857
  964MOL0     H33018  10.641   0.722   3.344  1.0220  0.0784  0.3307
  964MOL0     H33019  10.800   0.891   3.415 -0.9943 -1.4816  2.5400
  964MOL0     H33020  10.752   1.107   3.686  2.8973  1.7500  1.4569
  964MOL0     H33021  10.913   1.158   3.620  0.2880 -0.8350  0.0355
  964MOL0     H33022  10.657   1.334   3.662  0.4696  0.0633  0.2164
  964MOL0     H33023  10.786   1.374   3.557 -3.5284  1.6631 -0.2297
  964MOL0     H33024  10.952   1.401   3.741  1.4048  0.0441 -0.0313
  964MOL0     H33025  10.809   1.484   3.799  1.4141 -0.8097  1.9276
  964MOL0     H33026  10.905   1.316   3.968  3.0472 -1.6408 -2.0993
  964MOL0     H33027  10.863   1.193   3.856 -1.2700 -0.3005 -2.4697
  964MOL0     H33028  10.509   1.260   4.066  0.7424  0.9740  0.8440
  964MOL0     H33029  10.496   1.156   3.548 -1.2098 -1.1403  1.5205
  964MOL0     H33030  10.255   1.060   3.449  1.8585 -1.4981 -1.0507
  964MOL0     H33031  10.228   0.906   3.557 -0.9000  0.3577  2.1940
  964MOL0     H33032  10.292   1.063   3.607  0.2426  0.9692 -1.1464
  965MOL0     O33033   9.975   6.845   8.983 -0.1157 -0.3327  0.3009
  965MOL0     C33034  10.013   6.770   8.903 -0.3301 -0.0953 -0.0731
  965MOL0     O33035   9.950   6.731   8.791  0.1129  0.8176 -0.7640
  965MOL0     C33036   9.818   6.745   8.765 -0.4769  0.1387 -0.3035
  965MOL0     C33037   9.778   6.663   8.665  0.9827 -0.3343  0.2521
  965MOL0     C33038   9.639   6.671   8.627  0.3750  0.6723 -0.1675
  965MOL0     C33039   9.550   6.733   8.708 -0.4894 -0.6119 -0.3710
  965MOL0     O33040   9.414   6.722   8.673 -0.3083  0.1091 -0.9531
  965MOL0     C33041   9.312   6.825   8.708 -0.4322  0.7026  0.4837
  965MOL0     C33042   9.179   6.785   8.657  0.3078  0.3698 -0.7747
  965MOL0     C33043   9.071   6.880   8.706 -0.5960  0.3261  0.4613
  965MOL0     C33044   8.935   6.876   8.632  0.2082 -0.4398  0.3261
  965MOL0     C33045   8.828   6.966   8.683  0.0727 -0.2990  0.6897
  965MOL0     C33046   8.768   6.938   8.815 -0.3946 -0.0897  0.6018
  965MOL0     C33047   8.639   7.023   8.825  0.1647 -0.0432  0.0725
  965MOL0     C33048   8.660   7.142   8.917  1.7265 -0.4714 -0.4928
  965MOL0     N33049   8.530   7.211   8.940 -0.2521 -0.8278  0.5434
  965MOL0     C33050   8.483   7.313   8.850  0.2214  0.5200 -0.2233
  965MOL0     C33051   8.348   7.322   8.886  0.3487 -0.6982 -0.3379
  965MOL0     C33052   8.261   7.424   8.816 -0.0490 -0.2979  0.2546
  965MOL0     C33053   8.146   7.344   8.758  0.4929 -0.8501 -0.3993
  965MOL0     C33054   8.050   7.430   8.668 -0.8772  0.1797 -0.1906
  965MOL0     C33055   7.915   7.365   8.654 -0.2376 -0.1027 -0.6129
  965MOL0     O33056   7.919   7.268   8.549 -0.0485  0.0268  0.1478
  965MOL0     C33057   7.789   7.243   8.512 -0.5682 -0.2353 -0.3746
  965MOL0     C33058   7.710   7.339   8.442 -0.4561 -0.1325 -0.6701
  965MOL0     C33059   7.582   7.305   8.394 -0.9002 -0.5205  0.1168
  965MOL0     C33060   7.510   7.393   8.299  0.2416 -0.2101 -0.7132
  965MOL0     C33061   7.541   7.162   8.413  0.2484 -0.9049  0.5038
  965MOL0     C33062   7.435   7.107   8.335 -0.2461 -0.9754 -0.2006
  965MOL0     O33063   7.364   7.004   8.395  0.1368 -0.7019 -0.5989
  965MOL0     C33064   7.237   6.973   8.350 -0.0406 -0.5733  0.3280
  965MOL0     C33065   7.203   6.844   8.351  0.4865  0.2287  0.5352
  965MOL0     C33066   7.071   6.796   8.316 -1.4110  0.3638 -0.2329
  965MOL0     C33067   6.974   6.892   8.288 -0.2189  0.0973 -0.4946
  965MOL0     O33068   6.852   6.849   8.261  0.0590  0.3412 -0.2982
  965MOL0     C33069   6.766   6.829   8.371 -0.2632  0.2725  0.1870
  965MOL0     C33070   6.630   6.775   8.328 -0.3756 -0.2487  0.3493
  965MOL0     C33071   6.655   6.638   8.255  0.7738 -0.2062 -0.5926
  965MOL0     C33072   6.717   6.531   8.344 -0.6788  0.4649 -0.3369
  965MOL0     C33073   6.787   6.417   8.277  0.5116  0.1978 -0.8102
  965MOL0     C33074   6.923   6.455   8.214  0.5214  1.2563  0.9780
  965MOL0     C33075   6.980   6.347   8.115  0.9853 -0.5423  0.6038
  965MOL0     C33076   7.135   6.363   8.113  0.2508  1.1536  0.6999
  965MOL0    Cl33077   7.179   6.507   8.022 -0.2203  0.1155 -0.1467
  965MOL0     C33078   7.006   7.025   8.293  0.5157 -0.6856 -0.1846
  965MOL0     C33079   7.144   7.067   8.313  1.2839 -0.5493  0.1062
  965MOL0     O33080   7.424   7.130   8.214  0.7643 -0.2579 -0.0777
  965MOL0     C33081   7.619   7.070   8.482  0.1442 -0.8491  0.2905
  965MOL0     C33082   7.738   7.113   8.529 -0.2975 -0.2607  0.4782
  965MOL0     N33083   8.320   7.239   8.997  0.2814  0.5679 -0.1709
  965MOL0     N33084   8.426   7.168   9.024 -0.4679 -0.1251 -0.7217
  965MOL0     C33085   9.592   6.812   8.812 -1.2660 -0.1933  0.6526
  965MOL0     C33086   9.733   6.824   8.838  0.7696 -0.4611  0.8389
  965MOL0     C33087  10.154   6.735   8.910 -0.2086  0.6997 -0.7120
  965MOL0     C33088  10.214   6.792   9.020  0.1974 -1.2154 -0.2211
  965MOL0     C33089  10.349   6.788   9.037  0.7591 -0.6421 -0.2933
  965MOL0     C33090  10.433   6.720   8.946  0.2919 -1.1537  0.8155
  965MOL0     O33091  10.573   6.718   8.946 -0.6674 -0.4033 -0.1004
  965MOL0     C33092  10.630   6.724   9.083  0.0438 -0.5799 -0.7388
  965MOL0     C33093  10.683   6.872   9.108  1.0604  0.3021 -0.1209
  965MOL0     C33094  10.818   6.901   9.042 -0.1425 -0.4185 -0.7246
  965MOL0     C33095  10.815   7.027   8.964 -0.0952 -0.2553  0.8699
  965MOL0     C33096  10.803   7.001   8.820 -0.1746  0.4472  0.0919
  965MOL0     C33097  10.781   6.970   8.702  0.6441  0.5475  0.5379
  965MOL0     C33098  10.363   6.644   8.846 -0.7909  0.6139 -0.0989
  965MOL0     C33099  10.228   6.646   8.828  0.1755  0.5187  1.0765
  965MOL0     C33100  10.152   6.554   8.733 -0.9370 -0.3919  0.3435
  965MOL0     H33101   9.849   6.606   8.606 -0.3006 -1.7825  0.0421
  965MOL0     H33102   9.613   6.616   8.538 -2.8862 -0.7958  1.5134
  965MOL0     H33103   9.341   6.920   8.662 -1.6907  0.8934  0.0364
  965MOL0     H33104   9.305   6.832   8.817 -1.8301 -0.1513  0.4673
  965MOL0     H33105   9.183   6.787   8.548 -1.2073 -0.7650 -0.8817
  965MOL0     H33106   9.161   6.680   8.682 -0.1590 -0.2971 -3.5953
  965MOL0     H33107   9.040   6.853   8.807 -4.1807  2.0902 -0.0142
  965MOL0     H33108   9.098   6.985   8.715 -1.1627  0.5732 -0.4956
  965MOL0     H33109   8.964   6.909   8.532  1.1517 -0.3422  0.6231
  965MOL0     H33110   8.882   6.781   8.616  2.5573 -1.8956  0.6988
  965MOL0     H33111   8.750   6.947   8.608 -0.7882 -0.5325  1.6240
  965MOL0     H33112   8.863   7.069   8.667  2.7570 -1.1417  0.6866
  965MOL0     H33113   8.753   6.830   8.823  0.8975 -0.6469 -2.8529
  965MOL0     H33114   8.837   6.955   8.898 -0.8292 -2.6299  1.5750
  965MOL0     H33115   8.557   6.958   8.855  0.1285 -1.1582 -2.2575
  965MOL0     H33116   8.615   7.062   8.726 -0.1115  1.4999  0.7148
  965MOL0     H33117   8.700   7.108   9.013  2.7173  2.8805  0.4123
  965MOL0     H33118   8.730   7.216   8.877  0.5025  2.7268  2.7111
  965MOL0     H33119   8.537   7.367   8.773  0.9002 -2.0023 -1.6243
  965MOL0     H33120   8.307   7.477   8.732  2.5821 -1.5189  0.8177
  965MOL0     H33121   8.226   7.503   8.883 -0.0273 -0.6333  0.6669
  965MOL0     H33122   8.183   7.259   8.701 -1.4351 -1.0145 -1.4748
  965MOL0     H33123   8.083   7.318   8.844  2.1474  0.7610  1.4343
  965MOL0     H33124   8.040   7.528   8.714  0.1213  1.2655 -2.1557
  965MOL0     H33125   8.097   7.448   8.571 -2.9773 -2.9788 -1.9679
  965MOL0     H33126   7.895   7.321   8.752  0.8754  2.5930  0.9256
  965MOL0     H33127   7.840   7.444   8.640  0.2956  0.7305  1.0131
  965MOL0     H33128   7.747   7.441   8.440  3.3161 -1.2719  1.7629
  965MOL0     H33129   7.408   7.417   8.329 -0.1850 -2.6681  0.1121
  965MOL0     H33130   7.503   7.341   8.203 -1.7002  0.4116 -0.9532
  965MOL0     H33131   7.578   7.476   8.280 -2.2137  2.0760 -0.1143
  965MOL0     H33132   7.277   6.769   8.377  0.2051  0.3586  1.8003
  965MOL0     H33133   7.050   6.689   8.312  0.6723 -0.3331  3.5183
  965MOL0     H33134   6.810   6.765   8.448  0.5035  1.1725  0.5101
  965MOL0     H33135   6.768   6.930   8.412  2.3813  1.0877 -1.6676
  965MOL0     H33136   6.567   6.750   8.414  2.3230 -3.2236  1.6519
  965MOL0     H33137   6.586   6.852   8.264  0.4340  0.7645  0.9741
  965MOL0     H33138   6.722   6.652   8.170  0.5390  1.8679 -0.4714
  965MOL0     H33139   6.560   6.603   8.212  1.5569 -0.2700 -2.3430
  965MOL0     H33140   6.635   6.487   8.402  2.2202 -3.1064  1.4214
  965MOL0     H33141   6.788   6.567   8.419  1.7014  0.0706 -2.2802
  965MOL0     H33142   6.799   6.328   8.340 -1.4307 -1.2765 -2.4052
  965MOL0     H33143   6.719   6.382   8.199  0.1584 -0.6820 -0.1262
  965MOL0     H33144   6.992   6.466   8.298  0.5828 -2.0480  1.4764
  965MOL0     H33145   6.924   6.549   8.156  1.2546  0.5580 -0.1745
  965MOL0     H33146   6.945   6.362   8.012 -0.2638 -0.2482  1.0576
  965MOL0     H33147   6.950   6.245   8.140 -1.7384 -0.9744 -3.4985
  965MOL0     H33148   7.171   6.279   8.053  0.4185  0.5797  1.5866
  965MOL0     H33149   7.175   6.358   8.214 -1.0991  4.4557  1.5422
  965MOL0     H33150   6.933   7.102   8.269 -1.1028 -0.5312  4.2529
  965MOL0     H33151   7.153   7.176   8.312  1.1088 -0.5303 -1.1896
  965MOL0     H33152   7.598   6.964   8.493  1.1703 -0.9294  1.7245
  965MOL0     H33153   7.803   7.047   8.585 -1.8786  0.3397  3.1838
  965MOL0     H33154   9.517   6.864   8.870 -0.3806 -0.8139  2.4124
  965MOL0     H33155   9.755   6.893   8.920  1.4931  0.6384 -0.2406
  965MOL0     H33156  10.157   6.839   9.099  1.3349 -2.1821  1.2230
  965MOL0     H33157  10.382   6.852   9.118  2.0799 -2.4500  0.6835
  965MOL0     H33158  10.562   6.690   9.162  2.2704  1.1246  2.0935
  965MOL0     H33159  10.713   6.653   9.089 -0.9429 -1.6546  1.7591
  965MOL0     H33160  10.715   6.869   9.213  0.2669 -1.1227  0.1087
  965MOL0     H33161  10.608   6.952   9.107  0.9218  0.2371  1.6090
  965MOL0     H33162  10.885   6.914   9.127  1.5681  1.0073 -2.2232
  965MOL0     H33163  10.859   6.819   8.981  3.5544  1.2101 -0.7021
  965MOL0     H33164  10.913   7.076   8.967 -1.1152  1.9970 -0.3417
  965MOL0     H33165  10.749   7.107   9.000 -1.3780  0.5347 -2.7933
  965MOL0     H33166  10.752   6.944   8.602  0.8797 -0.1367  0.6428
  965MOL0     H33167  10.429   6.587   8.781 -1.1590 -2.0571  1.7069
  965MOL0     H33168  10.220   6.485   8.682 -1.0460  1.1303 -2.0095
  965MOL0     H33169  10.082   6.494   8.791  1.6067 -0.4978  3.5951
  965MOL0     H33170  10.103   6.608   8.651  2.3130 -1.0507 -2.2804
  966MOL0     O33171   7.852   1.356  10.456  0.1085 -0.7633 -0.0346
  966MOL0     C33172   7.766   1.405  10.386 -0.3866  1.4361 -0.0194
  966MOL0     O33173   7.713   1.526  10.404  0.5001 -0.1638 -0.1108
  966MOL0     C33174   7.751   1.619  10.502 -0.8724 -0.4650  0.6729
  966MOL0     C33175   7.732   1.599  10.634 -0.8525  1.1421 -0.0830
  966MOL0     C33176   7.776   1.691  10.730 -0.1675 -1.3744  0.1989
  966MOL0     C33177   7.843   1.807  10.685 -0.6617 -0.4186  0.2285
  966MOL0     O33178   7.921   1.891  10.758  0.1643  0.2371 -0.6701
  966MOL0     C33179   8.020   1.821  10.834 -1.0955 -0.2294 -0.2282
  966MOL0     C33180   7.974   1.815  10.978  0.0371 -0.3835 -0.2695
  966MOL0     C33181   7.940   1.950  11.049 -0.5740 -0.5173 -0.2250
  966MOL0     C33182   8.048   2.053  11.026  0.3441 -0.3553  0.3599
  966MOL0     C33183   8.027   2.167  11.116 -0.4925 -0.5560 -0.0108
  966MOL0     C33184   8.146   2.272  11.097 -0.1210 -0.2796  0.8137
  966MOL0     C33185   8.153   2.381  11.204  0.0961 -0.2026  0.4721
  966MOL0     C33186   8.021   2.463  11.205 -0.8378  0.1589  0.4350
  966MOL0     N33187   7.936   2.413  11.317  0.2611  0.3165 -0.3760
  966MOL0     C33188   7.794   2.418  11.327  0.3570 -0.2614  0.1923
  966MOL0     C33189   7.770   2.377  11.457  0.6125  0.0390  0.0405
  966MOL0     C33190   7.642   2.358  11.533 -0.5530  0.1764 -0.8334
  966MOL0     C33191   7.591   2.216  11.509  0.3765  0.2646  0.4461
  966MOL0     C33192   7.678   2.096  11.537 -0.1594  0.3312 -0.4655
  966MOL0     C33193   7.708   2.076  11.685  1.1017  0.3312  0.5194
  966MOL0     O33194   7.578   2.068  11.748  0.7466  0.1001 -0.0284
  966MOL0     C33195   7.548   1.954  11.820 -0.6309  0.6420  0.5169
  966MOL0     C33196   7.649   1.893  11.902 -0.2596 -0.3317  0.3457
  966MOL0     C33197   7.624   1.779  11.963 -0.9677  0.2276 -0.0300
  966MOL0     C33198   7.731   1.748  12.077 -0.7374  0.8579  0.0756
  966MOL0     C33199   7.504   1.703  11.946  0.5880 -0.6144 -0.0816
  966MOL0     C33200   7.474   1.571  12.003 -0.5137 -0.2563 -0.1500
  966MOL0     O33201   7.355   1.515  11.972 -0.5863  1.2239  0.5706
  966MOL0     C33202   7.301   1.411  12.042 -0.2102 -0.5242  0.1932
  966MOL0     C33203   7.227   1.442  12.149  0.4324  0.9358  0.0861
  966MOL0     C33204   7.160   1.336  12.220 -0.5734 -0.0301  0.4109
  966MOL0     C33205   7.169   1.208  12.174  0.8102 -0.3899  0.2105
  966MOL0     O33206   7.110   1.106  12.244 -0.3488  0.3948 -0.8127
  966MOL0     C33207   6.963   1.115  12.246 -0.0763 -0.4756  0.3653
  966MOL0     C33208   6.898   0.988  12.302 -0.0871 -0.1164 -0.3283
  966MOL0     C33209   6.912   0.967  12.463  0.1482 -0.3763  0.0955
  966MOL0     C33210   6.873   1.080  12.558  0.2326  0.1176  0.9222
  966MOL0     C33211   6.725   1.102  12.581 -1.3074 -0.2047 -0.5422
  966MOL0     C33212   6.702   1.188  12.709 -0.3071  0.1640 -0.7847
  966MOL0     C33213   6.553   1.223  12.710 -0.2329  0.4250 -0.3049
  966MOL0     C33214   6.503   1.302  12.834 -0.6306  0.5449 -0.3226
  966MOL0    Cl33215   6.565   1.245  12.990 -0.2891  0.2324 -0.2327
  966MOL0     C33216   7.244   1.172  12.064  0.3202 -0.0034  0.0942
  966MOL0     C33217   7.305   1.275  11.997  0.5353 -0.9501  0.9553
  966MOL0     O33218   7.557   1.522  12.077 -0.6475 -0.2553 -0.7659
  966MOL0     C33219   7.406   1.778  11.879 -0.5460  0.2980  0.6876
  966MOL0     C33220   7.423   1.896  11.809 -0.7829 -0.0767 -0.4758
  966MOL0     N33221   7.887   2.337  11.517 -0.2652  0.7277  0.3163
  966MOL0     N33222   7.982   2.370  11.438 -0.3534  0.6036 -0.0665
  966MOL0     C33223   7.855   1.833  10.548  0.4377 -0.0337  0.5124
  966MOL0     C33224   7.805   1.740  10.463  0.3008  0.0320  0.3483
  966MOL0     C33225   7.713   1.317  10.273 -0.2756  0.4775 -0.7175
  966MOL0     C33226   7.608   1.372  10.202 -0.4993 -0.3856 -1.3349
  966MOL0     C33227   7.530   1.292  10.116  0.3538 -0.7929 -0.2733
  966MOL0     C33228   7.553   1.158  10.105 -0.5370 -0.8459 -0.1262
  966MOL0     O33229   7.467   1.077  10.024  0.4057 -0.7602 -0.0860
  966MOL0     C33230   7.489   0.931  10.006 -1.5066  0.6610 -0.7393
  966MOL0     C33231   7.591   0.885   9.904 -0.0463 -0.7720 -0.7270
  966MOL0     C33232   7.586   0.959   9.767  0.2570 -0.9673 -0.4887
  966MOL0     C33233   7.696   0.918   9.669 -0.3133  0.0628 -0.8538
  966MOL0     C33234   7.694   0.778   9.620 -0.3240 -0.1699 -1.5900
  966MOL0     C33235   7.720   0.668   9.575  0.7936 -0.5229  0.7023
  966MOL0     C33236   7.660   1.097  10.174  0.3221 -0.3214 -1.0630
  966MOL0     C33237   7.745   1.180  10.260 -0.0163  0.8171 -0.6724
  966MOL0     C33238   7.880   1.118  10.313  0.4098 -1.3750  0.0096
  966MOL0     H33239   7.681   1.513  10.676 -2.0635  1.4924 -0.7627
  966MOL0     H33240   7.749   1.674  10.834 -0.3513 -1.9757  0.0552
  966MOL0     H33241   8.116   1.870  10.818 -1.8826  1.3032 -0.4573
  966MOL0     H33242   8.038   1.720  10.797 -3.3668 -0.3874 -1.0706
  966MOL0     H33243   7.884   1.752  10.986  0.9622 -1.5120  2.2932
  966MOL0     H33244   8.051   1.763  11.035 -0.8941  0.6110  2.0515
  966MOL0     H33245   7.848   1.989  11.006 -0.2534 -1.2239 -1.6322
  966MOL0     H33246   7.931   1.937  11.157 -1.6169 -2.5844 -0.5025
  966MOL0     H33247   8.142   1.996  11.032  0.7735  0.0617 -1.7373
  966MOL0     H33248   8.042   2.085  10.922  2.3856 -1.9674 -0.3343
  966MOL0     H33249   8.014   2.137  11.220 -3.6668 -1.0599 -0.4563
  966MOL0     H33250   7.935   2.218  11.086  0.8247  2.1818  0.2827
  966MOL0     H33251   8.240   2.217  11.108  0.8211  1.5262  2.4438
  966MOL0     H33252   8.153   2.320  10.999  3.3147 -0.9936  0.5567
  966MOL0     H33253   8.233   2.443  11.161 -0.3378  0.5416  0.7204
  966MOL0     H33254   8.190   2.341  11.299  2.0150  0.1618 -0.0743
  966MOL0     H33255   8.045   2.567  11.230 -3.0173  0.5929  0.9335
  966MOL0     H33256   7.970   2.467  11.108 -0.4837  1.2123  0.2763
  966MOL0     H33257   7.727   2.457  11.251  2.3718  0.6905 -1.1890
  966MOL0     H33258   7.576   2.436  11.495 -0.3357  0.4283 -0.6980
  966MOL0     H33259   7.669   2.362  11.638  0.8674  0.6150 -1.1882
  966MOL0     H33260   7.497   2.201  11.562  0.8698 -0.4682  1.1265
  966MOL0     H33261   7.563   2.211  11.403 -2.4827 -1.9119  1.1866
  966MOL0     H33262   7.625   2.014  11.489  1.9097  0.9193 -4.1139
  966MOL0     H33263   7.767   2.093  11.474  0.2151 -1.1727  0.0934
  966MOL0     H33264   7.770   1.992  11.716 -0.1777 -1.4986 -1.5858
  966MOL0     H33265   7.760   2.166  11.720  2.2157  0.5362 -1.5009
  966MOL0     H33266   7.743   1.945  11.917 -0.1626 -0.4012  0.0042
  966MOL0     H33267   7.681   1.731  12.173  4.2625 -0.4587  2.7540
  966MOL0     H33268   7.818   1.814  12.081 -0.3964  0.4400 -0.2745
  966MOL0     H33269   7.766   1.647  12.055 -1.0598 -0.0840  3.3577
  966MOL0     H33270   7.216   1.544  12.184 -1.2037  1.3678 -1.5175
  966MOL0     H33271   7.112   1.356  12.315 -0.1694 -2.3614  1.1804
  966MOL0     H33272   6.928   1.200  12.305  2.8931  1.1118  0.0554
  966MOL0     H33273   6.921   1.126  12.146  3.2705  2.8134 -0.9108
  966MOL0     H33274   6.791   0.985  12.280 -0.0993  0.0288 -0.2909
  966MOL0     H33275   6.946   0.900  12.259  1.1960  0.4399 -0.0630
  966MOL0     H33276   7.017   0.940  12.475  0.8807  2.2486  0.1941
  966MOL0     H33277   6.857   0.875  12.485  1.1256 -1.0369 -0.1516
  966MOL0     H33278   6.916   1.179  12.539 -0.4566  0.3745  0.6529
  966MOL0     H33279   6.929   1.060  12.649 -0.4190  0.4520  1.4040
  966MOL0     H33280   6.681   1.161  12.499 -0.9437 -1.6915 -1.8403
  966MOL0     H33281   6.676   1.005  12.583 -0.0469 -0.8373  1.4150
  966MOL0     H33282   6.773   1.271  12.709 -0.6608  0.4659 -0.9353
  966MOL0     H33283   6.720   1.115  12.789 -1.5349 -1.7407 -2.1707
  966MOL0     H33284   6.489   1.135  12.717 -0.6461  0.8527  2.1231
  966MOL0     H33285   6.540   1.284  12.620 -0.4920  2.5659  1.1054
  966MOL0     H33286   6.395   1.288  12.830 -0.5114 -0.3428 -0.7021
  966MOL0     H33287   6.510   1.411  12.835  0.7724  0.4733  0.6474
  966MOL0     H33288   7.266   1.071  12.033  3.0829  0.3347  0.7394
  966MOL0     H33289   7.359   1.248  11.907  0.6312 -1.4721  1.1666
  966MOL0     H33290   7.304   1.740  11.869 -0.9386  0.9945  1.8514
  966MOL0     H33291   7.350   1.950  11.749  1.1434  3.2585 -0.0913
  966MOL0     H33292   7.896   1.924  10.505 -3.8309  2.3858  1.0453
  966MOL0     H33293   7.825   1.774  10.362 -2.3495  3.7299  0.8821
  966MOL0     H33294   7.587   1.477  10.222  1.5065 -0.3883  1.2578
  966MOL0     H33295   7.446   1.330  10.059 -0.1561 -1.0901  0.2640
  966MOL0     H33296   7.538   0.888  10.093  1.2639  0.3194 -2.3623
  966MOL0     H33297   7.394   0.883   9.978 -1.9157 -0.2495  1.9124
  966MOL0     H33298   7.595   0.778   9.884  2.0860 -0.9175  0.1786
  966MOL0     H33299   7.686   0.900   9.956 -2.8908  0.9803  4.7093
  966MOL0     H33300   7.489   0.950   9.717  0.2369 -0.3085 -0.5698
  966MOL0     H33301   7.590   1.067   9.782 -1.8076 -0.8281 -0.5497
  966MOL0     H33302   7.793   0.935   9.717 -0.5507  0.3803 -0.4785
  966MOL0     H33303   7.699   0.973   9.575 -1.0776 -0.2020 -1.0382
  966MOL0     H33304   7.739   0.571   9.534 -1.1466 -0.0955 -1.4708
  966MOL0     H33305   7.688   0.992  10.175  1.1694 -0.1031 -0.1118
  966MOL0     H33306   7.875   1.112  10.422  0.0689  0.3848  0.1145
  966MOL0     H33307   7.907   1.022  10.268  3.4902 -0.9588  0.6834
  966MOL0     H33308   7.966   1.178  10.282 -0.1319 -0.5243  0.1300
  967MOL0     O33309   0.425   3.813   9.710 -0.3313 -0.1471  0.1266
  967MOL0     C33310   0.488   3.899   9.769 -0.1188  0.9201 -0.5159
  967MOL0     O33311   0.601   3.948   9.718 -0.0952 -0.3914 -0.0181
  967MOL0     C33312   0.663   3.909   9.606 -0.5344  1.0520 -0.3776
  967MOL0     C33313   0.716   4.002   9.510  0.4527  0.1462  0.6618
  967MOL0     C33314   0.755   3.954   9.382  0.4318 -0.0623 -0.9253
  967MOL0     C33315   0.759   3.816   9.357 -0.6230 -0.2572 -0.0014
  967MOL0     O33316   0.773   3.761   9.234  1.3799 -0.5028  0.1379
  967MOL0     C33317   0.884   3.820   9.158 -0.3571 -0.9461 -0.0623
  967MOL0     C33318   0.928   3.713   9.059  1.2452 -0.1684 -0.5626
  967MOL0     C33319   1.028   3.773   8.961  0.0405 -0.7162 -0.0859
  967MOL0     C33320   1.087   3.675   8.853  0.6452 -0.0661 -1.4100
  967MOL0     C33321   1.162   3.762   8.755 -0.4122 -0.1081  0.3748
  967MOL0     C33322   1.267   3.685   8.673 -0.0050  0.0863  1.3087
  967MOL0     C33323   1.329   3.774   8.557 -0.7787  0.0399  0.5158
  967MOL0     C33324   1.441   3.854   8.609 -0.8266 -0.0244  0.8364
  967MOL0     N33325   1.524   3.913   8.498 -0.7476 -0.5530 -1.0931
  967MOL0     C33326   1.639   3.854   8.447 -0.6482  0.1972  0.7373
  967MOL0     C33327   1.713   3.954   8.394 -0.2521 -0.3721 -0.3790
  967MOL0     C33328   1.848   3.949   8.321 -0.6716 -0.7368 -0.2840
  967MOL0     C33329   1.833   3.938   8.166 -0.2938  0.5325 -0.1499
  967MOL0     C33330   1.782   4.068   8.113  0.3710 -0.1642  0.3370
  967MOL0     C33331   1.810   4.080   7.966  0.1671  0.1504 -0.3164
  967MOL0     O33332   1.937   4.138   7.944  0.7769 -0.0051 -0.4157
  967MOL0     C33333   1.921   4.251   7.870  0.3361  0.2043 -0.1525
  967MOL0     C33334   1.877   4.364   7.934 -0.5759 -1.2975  0.5994
  967MOL0     C33335   1.865   4.489   7.867  0.1287  0.6867 -0.0126
  967MOL0     C33336   1.811   4.596   7.951  1.2663  0.1057 -1.2219
  967MOL0     C33337   1.893   4.500   7.727  0.0505  0.3991  0.3197
  967MOL0     C33338   1.879   4.624   7.641  0.4272 -0.4252 -0.4380
  967MOL0     O33339   1.915   4.608   7.508  0.0094  0.0463 -0.0915
  967MOL0     C33340   1.899   4.717   7.431  1.1486 -0.3971 -0.0033
  967MOL0     C33341   2.007   4.787   7.396 -0.8089  0.1849  0.2037
  967MOL0     C33342   2.007   4.909   7.338 -0.1200 -1.1728 -0.2809
  967MOL0     C33343   1.886   4.955   7.284 -0.1494  0.1222 -0.3396
  967MOL0     O33344   1.878   5.064   7.208  0.3792  0.5908  0.4490
  967MOL0     C33345   1.993   5.124   7.148  0.0201 -0.2469 -0.1972
  967MOL0     C33346   1.948   5.216   7.037 -0.1528  0.0275 -0.4265
  967MOL0     C33347   1.908   5.352   7.092  0.0422 -0.3319 -0.5727
  967MOL0     C33348   1.817   5.431   6.998  0.9538 -0.4602 -0.0550
  967MOL0     C33349   1.678   5.369   6.967 -0.4548  0.8662  0.4450
  967MOL0     C33350   1.601   5.437   6.849 -0.3194 -0.5563 -0.4822
  967MOL0     C33351   1.469   5.368   6.815  0.5391  0.7747 -0.5636
  967MOL0     C33352   1.415   5.392   6.676  0.0511 -0.1203  1.0911
  967MOL0    Cl33353   1.443   5.559   6.609  0.0685  0.2321  0.1986
  967MOL0     C33354   1.763   4.885   7.307 -1.1868 -0.2592 -0.1237
  967MOL0     C33355   1.772   4.764   7.380 -0.3718  1.0498 -0.3501
  967MOL0     O33356   1.859   4.735   7.691  0.7374 -1.0417 -0.1747
  967MOL0     C33357   1.924   4.381   7.672 -0.5953  1.0244  0.6284
  967MOL0     C33358   1.938   4.259   7.732  0.1163  0.1894 -0.2147
  967MOL0     N33359   1.642   4.069   8.427  0.6402 -0.8126 -0.0940
  967MOL0     N33360   1.532   4.045   8.483  0.2388  0.2557 -0.1377
  967MOL0     C33361   0.735   3.723   9.467 -0.1630 -0.1324  0.6070
  967MOL0     C33362   0.682   3.772   9.588 -0.1076 -0.4123 -0.5257
  967MOL0     C33363   0.451   3.943   9.905 -0.3093 -0.0701  1.2409
  967MOL0     C33364   0.554   3.995   9.988 -0.9846 -0.4095 -0.1492
  967MOL0     C33365   0.545   4.003  10.131 -0.1258  0.3341 -0.4821
  967MOL0     C33366   0.426   3.970  10.193  0.1949  0.1617  0.4770
  967MOL0     O33367   0.400   3.990  10.325  0.3064  0.2432  0.0370
  967MOL0     C33368   0.502   4.069  10.407 -0.0565 -0.4749  1.3297
  967MOL0     C33369   0.625   3.982  10.463 -0.3630  0.0255  0.2687
  967MOL0     C33370   0.574   3.856  10.547 -0.7284 -0.0157 -0.5789
  967MOL0     C33371   0.526   3.881  10.685  0.1578 -1.0053 -0.2649
  967MOL0     C33372   0.549   3.756  10.760 -0.0655  0.0470 -0.2999
  967MOL0     C33373   0.579   3.661  10.830  0.0373 -0.1826 -0.1232
  967MOL0     C33374   0.323   3.930  10.114 -0.4484 -0.5511  0.6166
  967MOL0     C33375   0.329   3.917   9.968  0.0253 -0.9282 -0.6838
  967MOL0     C33376   0.209   3.861   9.905  0.7999  0.2404 -0.3472
  967MOL0     H33377   0.707   4.110   9.505  1.9814  0.2295 -3.1661
  967MOL0     H33378   0.777   4.028   9.306 -1.7338  0.2369 -1.3438
  967MOL0     H33379   0.971   3.847   9.218  0.1893 -2.1263 -0.2809
  967MOL0     H33380   0.839   3.904   9.104 -1.5035 -1.2603  0.3673
  967MOL0     H33381   0.979   3.639   9.121  0.7151  1.3780  1.8781
  967MOL0     H33382   0.847   3.667   9.002 -0.1251  0.3539  0.8717
  967MOL0     H33383   0.972   3.848   8.906  2.3886 -0.7529 -2.7569
  967MOL0     H33384   1.104   3.829   9.017 -1.0929  0.1297  0.6585
  967MOL0     H33385   1.153   3.598   8.893  2.4795  1.7652 -0.7328
  967MOL0     H33386   0.999   3.631   8.805  0.3355  0.5948 -1.4692
  967MOL0     H33387   1.200   3.843   8.816 -2.8867  0.5174  1.1879
  967MOL0     H33388   1.095   3.814   8.686  1.4452  0.4522 -1.1216
  967MOL0     H33389   1.340   3.641   8.741  0.5898 -0.7642  0.1442
  967MOL0     H33390   1.213   3.604   8.623  2.4981  0.6158 -2.7717
  967MOL0     H33391   1.250   3.840   8.520  1.1504  3.0275  1.3739
  967MOL0     H33392   1.371   3.728   8.467  2.8402  2.2171  0.8866
  967MOL0     H33393   1.385   3.927   8.667 -3.2298 -2.2665  1.5065
  967MOL0     H33394   1.513   3.790   8.661 -0.3376 -2.6550 -2.7206
  967MOL0     H33395   1.669   3.750   8.460 -1.1483  0.1522  1.6084
  967MOL0     H33396   1.894   3.857   8.358 -1.2214 -0.2774  1.6680
  967MOL0     H33397   1.904   4.036   8.357 -3.1392  0.3226  1.2875
  967MOL0     H33398   1.933   3.918   8.128  0.6925 -0.1265  2.5275
  967MOL0     H33399   1.758   3.860   8.153 -1.2147  1.5297 -0.9613
  967MOL0     H33400   1.676   4.071   8.138  1.3358  0.8820  5.2806
  967MOL0     H33401   1.839   4.149   8.159  1.4311  0.1560 -1.4580
  967MOL0     H33402   1.803   3.981   7.921  1.3500 -0.8081  1.4840
  967MOL0     H33403   1.733   4.147   7.926 -1.2724 -0.6876  0.9336
  967MOL0     H33404   1.846   4.366   8.039 -3.1938  0.6215 -0.0874
  967MOL0     H33405   1.865   4.688   7.930  4.0886 -1.7765 -2.9465
  967MOL0     H33406   1.806   4.568   8.057 -2.4389 -1.7391 -1.7438
  967MOL0     H33407   1.711   4.613   7.911  0.3852 -1.7838  0.0187
  967MOL0     H33408   2.097   4.743   7.439 -0.0287  0.7388 -0.8146
  967MOL0     H33409   2.096   4.963   7.309 -1.3143 -0.4104 -2.8972
  967MOL0     H33410   2.050   5.180   7.222  0.9092 -0.8833 -0.3771
  967MOL0     H33411   2.054   5.047   7.099  1.3817  0.8704 -0.3109
  967MOL0     H33412   2.022   5.234   6.958 -0.5021  3.4597 -0.1412
  967MOL0     H33413   1.859   5.170   6.992  0.4404 -0.9998 -0.5900
  967MOL0     H33414   1.993   5.413   7.125 -0.7312  1.4237 -1.6673
  967MOL0     H33415   1.841   5.347   7.178 -2.2397  1.8444 -2.0693
  967MOL0     H33416   1.877   5.443   6.908 -0.2007  4.3734 -0.4556
  967MOL0     H33417   1.814   5.528   7.049  1.3747 -0.9327  0.8992
  967MOL0     H33418   1.674   5.262   6.945 -1.5033  1.4414 -2.6313
  967MOL0     H33419   1.619   5.380   7.058  3.2651  0.2543  3.1690
  967MOL0     H33420   1.670   5.423   6.766 -1.7759 -0.5266 -1.7528
  967MOL0     H33421   1.586   5.546   6.855  0.8013 -0.4648  1.1698
  967MOL0     H33422   1.401   5.413   6.888  1.9147  0.2667  1.0875
  967MOL0     H33423   1.486   5.260   6.824 -2.7101  0.1968 -0.0446
  967MOL0     H33424   1.306   5.380   6.680 -0.1439 -0.0365 -1.7215
  967MOL0     H33425   1.466   5.322   6.609 -0.1231  0.9027 -0.1481
  967MOL0     H33426   1.664   4.918   7.278 -1.8373 -3.3486 -1.8694
  967MOL0     H33427   1.687   4.708   7.417  0.4213  0.0440 -0.0045
  967MOL0     H33428   1.938   4.387   7.564  0.4583  2.7780  0.8159
  967MOL0     H33429   1.983   4.183   7.668 -3.6786 -1.1148 -1.6231
  967MOL0     H33430   0.758   3.623   9.432  0.0993  0.5478 -1.2804
  967MOL0     H33431   0.664   3.706   9.672  3.0091 -0.7969 -0.0456
  967MOL0     H33432   0.656   4.002   9.951 -0.7813 -3.6471 -0.4678
  967MOL0     H33433   0.635   4.037  10.180 -0.3966 -1.5868  1.4752
  967MOL0     H33434   0.535   4.156  10.350  2.0259 -2.7384 -1.1526
  967MOL0     H33435   0.433   4.097  10.487 -2.2943  0.1167 -0.6861
  967MOL0     H33436   0.689   4.045  10.525  0.5151 -0.1561 -0.4451
  967MOL0     H33437   0.685   3.946  10.380 -1.2402  0.8945 -0.7699
  967MOL0     H33438   0.501   3.807  10.481 -0.2772 -0.4650 -0.7557
  967MOL0     H33439   0.656   3.784  10.554 -0.3710  0.3254 -1.1599
  967MOL0     H33440   0.425   3.923  10.693  1.2354  1.6738  0.2802
  967MOL0     H33441   0.591   3.953  10.735  3.9403 -3.6864 -0.9411
  967MOL0     H33442   0.624   3.591  10.898 -0.1050 -1.8259 -1.6590
  967MOL0     H33443   0.231   3.886  10.153 -0.4039  0.5512  2.0233
  967MOL0     H33444   0.216   3.752   9.897 -0.2893  0.0193  1.2943
  967MOL0     H33445   0.121   3.883   9.966  2.2537 -2.1085  2.8500
  967MOL0     H33446   0.192   3.911   9.809  0.4609 -0.4197 -0.6405
  968MOL0     O33447   4.163   0.101   7.219 -0.0840  0.5430  0.3192
  968MOL0     C33448   4.279   0.090   7.247  0.5480  0.7070  0.8410
  968MOL0     O33449   4.328   0.051   7.368  0.5343 -0.6205 -0.1821
  968MOL0     C33450   4.255   0.014   7.471  0.1950  0.8793 -0.2115
  968MOL0     C33451   4.140  -0.057   7.469 -0.1077  0.0133  1.0605
  968MOL0     C33452   4.068  -0.093   7.580 -0.0458 -0.0737 -0.1084
  968MOL0     C33453   4.126  -0.063   7.709 -0.1500 -0.3617 -0.1136
  968MOL0     O33454   4.065  -0.106   7.830  0.4941  0.0776  0.0862
  968MOL0     C33455   3.948  -0.175   7.828 -0.3191  0.4157 -0.3345
  968MOL0     C33456   3.917  -0.265   7.957 -0.2179  0.3593 -0.6107
  968MOL0     C33457   3.767  -0.309   7.965  1.2511  0.5102 -0.5207
  968MOL0     C33458   3.698  -0.232   8.084  0.6559 -0.1987  0.0282
  968MOL0     C33459   3.547  -0.229   8.074  0.0899 -0.2590  0.3151
  968MOL0     C33460   3.478  -0.203   8.210 -0.1238  0.3724  0.3555
  968MOL0     C33461   3.325  -0.167   8.206 -0.0324  0.8463 -0.8080
  968MOL0     C33462   3.230  -0.222   8.095 -0.8423  0.6239 -0.8470
  968MOL0     N33463   3.096  -0.190   8.120 -0.2529  0.6389 -0.9606
  968MOL0     C33464   3.044  -0.068   8.135  0.6069  0.1649 -0.6597
  968MOL0     C33465   2.912  -0.078   8.148 -0.5238  0.4957 -0.4677
  968MOL0     C33466   2.810   0.030   8.163  0.1389  1.0546 -0.0701
  968MOL0     C33467   2.861   0.155   8.232  0.3484  0.4456 -1.0785
  968MOL0     C33468   2.871   0.135   8.381 -0.9187 -0.3301  0.0862
  968MOL0     C33469   2.873   0.261   8.474  0.1997 -0.0651 -0.9444
  968MOL0     O33470   2.994   0.334   8.451 -0.5873  0.5348  0.3435
  968MOL0     C33471   3.007   0.452   8.515 -0.1468  0.8405 -0.1960
  968MOL0     C33472   3.124   0.514   8.481 -0.0455  0.1537 -0.6692
  968MOL0     C33473   3.165   0.636   8.543  0.9302 -0.7447 -0.0463
  968MOL0     C33474   3.300   0.692   8.493  0.5802  0.2170 -1.0342
  968MOL0     C33475   3.085   0.687   8.652 -0.5905 -0.7228 -0.1128
  968MOL0     C33476   3.124   0.812   8.731  0.9476  0.1133 -0.0880
  968MOL0     O33477   3.043   0.923   8.709  0.3305 -0.8454 -0.8565
  968MOL0     C33478   3.102   1.041   8.744 -1.0704 -0.1823 -0.1638
  968MOL0     C33479   3.180   1.109   8.651 -0.0213  0.2116 -0.5941
  968MOL0     C33480   3.254   1.221   8.672  0.5734  0.4223  0.4130
  968MOL0     C33481   3.263   1.267   8.810 -0.3163  0.4633  0.0657
  968MOL0     O33482   3.320   1.396   8.837 -0.0552  0.3875 -0.0477
  968MOL0     C33483   3.442   1.420   8.759  0.0471 -0.3733 -1.1616
  968MOL0     C33484   3.553   1.493   8.832 -0.2864 -0.2330  0.3447
  968MOL0     C33485   3.685   1.493   8.757 -0.5508  0.4979  0.2478
  968MOL0     C33486   3.787   1.602   8.784  1.2886 -0.0250  0.6043
  968MOL0     C33487   3.925   1.561   8.732 -0.3921  0.3140  0.2521
  968MOL0     C33488   4.020   1.679   8.713  0.2771 -0.1085 -0.0994
  968MOL0     C33489   4.164   1.632   8.690 -0.2927  0.6439 -0.9688
  968MOL0     C33490   4.190   1.540   8.582  0.8361  0.7737  0.2469
  968MOL0    Cl33491   4.347   1.473   8.591  0.1730 -0.8259  0.1675
  968MOL0     C33492   3.192   1.212   8.904 -0.1822 -0.5628 -1.2339
  968MOL0     C33493   3.120   1.100   8.872 -0.6665 -0.3726  0.3452
  968MOL0     O33494   3.210   0.804   8.810 -0.0528 -0.7555  0.0160
  968MOL0     C33495   2.962   0.619   8.680 -0.6174  0.1081  0.3723
  968MOL0     C33496   2.924   0.509   8.605  0.7909 -0.6556  0.1185
  968MOL0     N33497   2.882  -0.211   8.169  0.8417 -0.7807 -0.5698
  968MOL0     N33498   2.994  -0.275   8.147 -0.0631 -0.3066  0.6093
  968MOL0     C33499   4.250   0.010   7.713 -0.0521  0.0121 -0.6111
  968MOL0     C33500   4.318   0.037   7.599 -0.5860  0.3839  0.7000
  968MOL0     C33501   4.392   0.131   7.153  0.5293  0.4467 -0.1749
  968MOL0     C33502   4.513   0.055   7.156  0.4351 -0.1499 -0.0358
  968MOL0     C33503   4.622   0.099   7.080  0.4022  0.2204 -0.1428
  968MOL0     C33504   4.601   0.205   6.984  0.0571  0.6481 -0.0575
  968MOL0     O33505   4.704   0.242   6.906 -0.7898 -0.0577  0.2109
  968MOL0     C33506   4.702   0.173   6.780  0.1865  0.3672  0.2982
  968MOL0     C33507   4.717   0.012   6.789 -0.0266 -1.1835  0.4606
  968MOL0     C33508   4.753  -0.033   6.644 -0.8758 -0.1958 -1.3064
  968MOL0     C33509   4.746  -0.186   6.598  0.0948 -1.3266  0.4635
  968MOL0     C33510   4.622  -0.243   6.650 -0.9722 -0.2382  0.6872
  968MOL0     C33511   4.530  -0.302   6.692  0.8408  0.6234  0.1144
  968MOL0     C33512   4.482   0.276   6.979  0.4222 -1.0758 -0.6479
  968MOL0     C33513   4.377   0.248   7.071  0.6191 -0.1564  0.7650
  968MOL0     C33514   4.256   0.343   7.067  0.2813  0.3989  0.0129
  968MOL0     H33515   4.100  -0.090   7.374 -1.0652  0.9111  1.1339
  968MOL0     H33516   3.966  -0.129   7.567 -0.5737  1.8679 -1.8179
  968MOL0     H33517   3.946  -0.247   7.746 -0.9414  1.4977 -1.3031
  968MOL0     H33518   3.863  -0.107   7.812  0.9423  2.2839  0.5323
  968MOL0     H33519   3.975  -0.358   7.957 -0.7426 -0.0358 -2.9335
  968MOL0     H33520   3.949  -0.209   8.045 -5.1767 -0.2347  1.8707
  968MOL0     H33521   3.707  -0.302   7.873 -1.2047 -0.3164  0.9140
  968MOL0     H33522   3.769  -0.415   7.990  3.3316  0.9847  1.6623
  968MOL0     H33523   3.730  -0.264   8.183 -0.0967  1.8629  1.0046
  968MOL0     H33524   3.732  -0.128   8.081  0.9805 -0.3146 -0.3036
  968MOL0     H33525   3.493  -0.310   8.024  0.7485 -1.2294  1.1239
  968MOL0     H33526   3.520  -0.136   8.023 -1.6484 -0.5050  0.7083
  968MOL0     H33527   3.484  -0.298   8.263  3.2281 -1.2527 -2.4757
  968MOL0     H33528   3.544  -0.130   8.257  3.1925 -2.3720  0.3495
  968MOL0     H33529   3.319  -0.059   8.219  0.2496  0.5060  3.7054
  968MOL0     H33530   3.276  -0.208   8.294 -0.2807 -0.4595 -1.5250
  968MOL0     H33531   3.255  -0.191   7.994 -1.2459  0.6176 -0.9491
  968MOL0     H33532   3.240  -0.331   8.099  0.4268  0.5797 -3.3986
  968MOL0     H33533   3.092   0.029   8.128  0.4522  0.3959  1.0776
  968MOL0     H33534   2.718  -0.012   8.204 -0.8032  1.8340 -1.3088
  968MOL0     H33535   2.772   0.065   8.066  0.7423  1.6424 -0.1036
  968MOL0     H33536   2.962   0.187   8.205  1.5982  0.3543  2.7863
  968MOL0     H33537   2.797   0.245   8.227 -1.3153 -0.1662  3.6296
  968MOL0     H33538   2.794   0.067   8.420  0.7906 -1.6914  1.2540
  968MOL0     H33539   2.970   0.091   8.388 -0.9882 -0.6585 -0.8669
  968MOL0     H33540   2.789   0.330   8.464  1.9600  2.1535 -1.1738
  968MOL0     H33541   2.863   0.230   8.578 -0.3370 -0.9508 -1.2464
  968MOL0     H33542   3.180   0.472   8.398 -3.3999 -0.7049 -2.6940
  968MOL0     H33543   3.309   0.652   8.392  0.2643  1.2052 -1.4669
  968MOL0     H33544   3.375   0.644   8.557 -0.2482  0.1501 -0.0935
  968MOL0     H33545   3.322   0.799   8.495  2.9173 -0.1592 -2.4787
  968MOL0     H33546   3.158   1.073   8.550 -2.3786  0.2570 -0.1507
  968MOL0     H33547   3.290   1.274   8.585 -2.8946  1.2640 -0.6536
  968MOL0     H33548   3.477   1.321   8.729 -3.7202 -1.6451 -1.9866
  968MOL0     H33549   3.423   1.472   8.665 -0.1779 -2.4314 -2.3196
  968MOL0     H33550   3.528   1.592   8.871 -0.5341 -0.5318  0.9607
  968MOL0     H33551   3.559   1.422   8.915 -0.9275  0.4238  0.9678
  968MOL0     H33552   3.674   1.481   8.649 -1.7083 -3.3486  0.6201
  968MOL0     H33553   3.732   1.400   8.792 -0.5200  0.3376 -0.2202
  968MOL0     H33554   3.793   1.619   8.892 -1.1670 -1.7919  1.1015
  968MOL0     H33555   3.745   1.689   8.733 -2.5015 -2.7321 -1.3773
  968MOL0     H33556   3.963   1.481   8.796 -0.9671  0.4637  0.7939
  968MOL0     H33557   3.915   1.521   8.631 -1.0306  2.4301 -0.5907
  968MOL0     H33558   4.012   1.742   8.802  1.2784  1.0830 -0.8261
  968MOL0     H33559   4.001   1.743   8.626  1.0721 -2.4408 -2.0803
  968MOL0     H33560   4.206   1.594   8.784  0.9172  1.0960 -1.3103
  968MOL0     H33561   4.214   1.726   8.665 -0.0350  1.3198  1.6909
  968MOL0     H33562   4.166   1.577   8.481  1.2957  0.6626  0.0953
  968MOL0     H33563   4.129   1.450   8.590 -1.1600  2.2569  3.4374
  968MOL0     H33564   3.193   1.254   9.004 -1.2234 -2.6357 -0.2811
  968MOL0     H33565   3.071   1.044   8.951 -0.9930 -0.4702  0.0757
  968MOL0     H33566   2.896   0.651   8.760 -2.1784 -3.9985  0.9608
  968MOL0     H33567   2.839   0.449   8.636 -0.3481  2.2887  3.3372
  968MOL0     H33568   4.296   0.024   7.810  0.0767 -0.5586 -0.5862
  968MOL0     H33569   4.416   0.085   7.604 -0.0993 -0.6943  2.1422
  968MOL0     H33570   4.520  -0.024   7.230 -0.0690  1.3746  1.7169
  968MOL0     H33571   4.705   0.030   7.074  1.1393  0.9160  1.5001
  968MOL0     H33572   4.606   0.189   6.730  0.1562  0.6601  0.4499
  968MOL0     H33573   4.775   0.222   6.714  2.7785 -1.3107  1.7377
  968MOL0     H33574   4.624  -0.034   6.824 -1.3944  0.3062 -1.0200
  968MOL0     H33575   4.798  -0.008   6.860  2.2825  2.0502 -1.0427
  968MOL0     H33576   4.693   0.031   6.579 -3.1567  0.2965  1.1143
  968MOL0     H33577   4.859  -0.005   6.638 -1.5658  3.1497 -0.1290
  968MOL0     H33578   4.845  -0.228   6.618  1.3856  1.7655  1.1484
  968MOL0     H33579   4.741  -0.203   6.490 -0.4585 -0.5197  0.3506
  968MOL0     H33580   4.436  -0.337   6.732 -0.0607  1.8873 -0.8287
  968MOL0     H33581   4.478   0.356   6.905  2.2644 -0.2349  0.0960
  968MOL0     H33582   4.279   0.436   7.014  1.1470 -0.3861 -1.0485
  968MOL0     H33583   4.170   0.299   7.015  3.4349 -0.9869 -4.7000
  968MOL0     H33584   4.223   0.374   7.167  2.9063  1.9555  0.5076
  969MOL0     O33585   9.874   9.416   0.537 -0.2787  0.1264 -0.4147
  969MOL0     C33586   9.887   9.536   0.550 -1.1448  0.5390  0.3961
  969MOL0     O33587   9.910   9.617   0.450  0.0781  0.1316  0.1615
  969MOL0     C33588   9.972   9.586   0.337 -0.3900  0.1594  1.4363
  969MOL0     C33589   9.920   9.648   0.223 -0.1079 -0.1670 -0.1411
  969MOL0     C33590   9.977   9.645   0.106 -0.0001 -0.2397  0.6383
  969MOL0     C33591  10.093   9.565   0.087 -1.1382 -0.2543  0.0076
  969MOL0     O33592  10.143   9.565  -0.044  0.3405 -0.1497  0.1641
  969MOL0     C33593  10.284   9.523  -0.062  0.2034  1.0850 -0.0297
  969MOL0     C33594  10.315   9.528  -0.208 -0.6610 -0.1763  0.2331
  969MOL0     C33595  10.469   9.536  -0.235 -0.2526  0.5107  0.2372
  969MOL0     C33596  10.506   9.532  -0.380  1.3785 -0.4406  0.0576
  969MOL0     C33597  10.656   9.533  -0.403  0.2949 -0.1322  0.3751
  969MOL0     C33598  10.669   9.567  -0.547 -0.4126  0.1714 -0.6054
  969MOL0     C33599  10.812   9.605  -0.578  0.1323  0.0490  0.2422
  969MOL0     C33600  10.925   9.502  -0.545  0.1015  0.4151  0.2483
  969MOL0     N33601  10.962   9.430  -0.672  0.3385  0.9512  0.4046
  969MOL0     C33602  10.877   9.342  -0.745 -0.0756 -1.3841 -0.0398
  969MOL0     C33603  10.957   9.286  -0.837 -0.3291  0.0660  0.2486
  969MOL0     C33604  10.920   9.185  -0.941  0.5513  0.7827  0.5429
  969MOL0     C33605  10.818   9.250  -1.030 -1.0086 -1.1986  0.2138
  969MOL0     C33606  10.875   9.374  -1.118 -0.5668 -0.9644  0.8279
  969MOL0     C33607  10.786   9.426  -1.237 -0.1760 -0.1789 -0.0778
  969MOL0     O33608  10.668   9.482  -1.190  0.2089 -0.1739  0.9316
  969MOL0     C33609  10.578   9.513  -1.282  1.1047 -0.1685 -0.1583
  969MOL0     C33610  10.600   9.526  -1.416  0.7309 -0.2527  0.3852
  969MOL0     C33611  10.495   9.567  -1.496  0.2806  1.0725 -0.6542
  969MOL0     C33612  10.504   9.588  -1.652  0.3888  0.2035  0.2362
  969MOL0     C33613  10.374   9.586  -1.430  0.0363  0.2780  0.4676
  969MOL0     C33614  10.256   9.619  -1.518  0.2050 -0.5976 -0.1876
  969MOL0     O33615  10.166   9.510  -1.532  0.4224  0.4909 -0.1988
  969MOL0     C33616  10.051   9.543  -1.608 -0.7195 -0.3799 -0.3624
  969MOL0     C33617  10.025   9.453  -1.714 -0.2642  0.3697  0.6505
  969MOL0     C33618   9.918   9.480  -1.803 -1.1394 -0.6223  0.4781
  969MOL0     C33619   9.834   9.592  -1.793 -0.0798  0.4783 -0.2232
  969MOL0     O33620   9.731   9.602  -1.879  0.6358 -0.2027  0.4171
  969MOL0     C33621   9.656   9.724  -1.895 -0.9857 -0.2894  0.0242
  969MOL0     C33622   9.574   9.722  -2.026 -0.5529  0.7547  0.2776
  969MOL0     C33623   9.464   9.825  -2.048 -0.3953  0.3455 -0.4384
  969MOL0     C33624   9.367   9.770  -2.159  0.1353  0.5165 -0.3082
  969MOL0     C33625   9.246   9.859  -2.194  0.6700 -0.0278  1.0635
  969MOL0     C33626   9.275   9.998  -2.265  0.6294  0.1850  0.2665
  969MOL0     C33627   9.152  10.066  -2.317  0.3640  0.0069  0.0364
  969MOL0     C33628   9.180  10.215  -2.331 -0.9459  0.2001  0.3019
  969MOL0    Cl33629   9.296  10.242  -2.472  0.3259 -0.0279 -0.1517
  969MOL0     C33630   9.855   9.666  -1.673  1.1247 -0.3529 -0.4072
  969MOL0     C33631   9.964   9.642  -1.585  0.0871 -0.5919 -0.3244
  969MOL0     O33632  10.247   9.734  -1.566 -0.3840  0.1995 -0.0618
  969MOL0     C33633  10.356   9.587  -1.304 -0.7213 -0.8157  0.2497
  969MOL0     C33634  10.456   9.549  -1.222  0.0275 -0.0085 -0.5492
  969MOL0     N33635  11.081   9.341  -0.818 -0.7053 -0.0153  0.1654
  969MOL0     N33636  11.082   9.420  -0.723 -0.5108  0.6683 -0.2037
  969MOL0     C33637  10.155   9.511   0.201 -0.3639  0.2843 -1.1494
  969MOL0     C33638  10.099   9.529   0.325 -0.2704 -0.1905  0.8795
  969MOL0     C33639   9.878   9.609   0.674 -0.2611 -0.5678 -0.1743
  969MOL0     C33640   9.931   9.739   0.684  0.1323 -0.8898  0.2559
  969MOL0     C33641   9.920   9.822   0.796  0.5639 -0.3252  0.1995
  969MOL0     C33642   9.870   9.762   0.916 -0.3655 -0.9229  0.4883
  969MOL0     O33643   9.878   9.842   1.025  0.4276  0.6105 -0.3307
  969MOL0     C33644   9.901   9.789   1.158 -0.4542 -0.3684  0.1574
  969MOL0     C33645  10.040   9.727   1.191 -0.5792  0.1101  1.2601
  969MOL0     C33646  10.161   9.822   1.192  0.0782 -0.6850  0.8142
  969MOL0     C33647  10.181   9.901   1.324 -0.1399  0.9107 -0.0545
  969MOL0     C33648  10.270  10.021   1.304  0.1929  0.2632 -0.8835
  969MOL0     C33649  10.323  10.126   1.280  0.5849  0.2674 -0.6979
  969MOL0     C33650   9.815   9.639   0.905  0.4390 -0.3286 -0.6993
  969MOL0     C33651   9.807   9.569   0.788 -0.2019  0.6191 -0.2263
  969MOL0     C33652   9.753   9.435   0.792 -0.1216  0.2454  0.0692
  969MOL0     H33653   9.834   9.715   0.223  0.9260  1.2079 -1.3615
  969MOL0     H33654   9.925   9.696   0.025  0.4679 -2.5545 -1.2433
  969MOL0     H33655  10.289   9.418  -0.030 -2.9316  0.0430 -2.5001
  969MOL0     H33656  10.355   9.582  -0.003  0.9136  1.1319 -0.9146
  969MOL0     H33657  10.273   9.444  -0.264 -3.4399  1.4276 -0.2732
  969MOL0     H33658  10.276   9.617  -0.258  2.5005  0.8920 -0.5706
  969MOL0     H33659  10.507   9.627  -0.186 -0.7898  0.5547  0.5829
  969MOL0     H33660  10.502   9.448  -0.179 -0.8474  0.6019  0.7541
  969MOL0     H33661  10.463   9.443  -0.427  0.8354 -0.0705 -0.1567
  969MOL0     H33662  10.460   9.624  -0.419 -0.3414  0.1692  3.1633
  969MOL0     H33663  10.703   9.436  -0.380  1.3696  0.1332 -0.6092
  969MOL0     H33664  10.705   9.596  -0.328 -0.2409 -0.2816  0.8595
  969MOL0     H33665  10.643   9.484  -0.613 -1.0613  0.9612 -1.3741
  969MOL0     H33666  10.600   9.648  -0.573  0.0943  1.3911  1.6174
  969MOL0     H33667  10.837   9.697  -0.526 -0.1065  0.3627 -0.1949
  969MOL0     H33668  10.818   9.617  -0.687 -0.5146 -1.4081  0.0172
  969MOL0     H33669  11.011   9.555  -0.501 -1.6391  0.7907  3.5064
  969MOL0     H33670  10.895   9.439  -0.460  1.2289 -1.3792 -0.6096
  969MOL0     H33671  10.773   9.312  -0.737 -0.6581  0.0700 -1.6349
  969MOL0     H33672  10.880   9.092  -0.900 -0.7745  0.9450 -0.3300
  969MOL0     H33673  11.009   9.149  -0.995  0.6097 -0.8273  1.6605
  969MOL0     H33674  10.783   9.174  -1.101  0.3685  0.4929 -2.4572
  969MOL0     H33675  10.733   9.281  -0.970 -0.3222  1.0907  0.0982
  969MOL0     H33676  10.908   9.451  -1.048  1.7701  0.1516 -1.3664
  969MOL0     H33677  10.962   9.345  -1.177 -0.3583 -0.5227  0.9217
  969MOL0     H33678  10.838   9.498  -1.302 -0.3921 -2.1722 -2.6303
  969MOL0     H33679  10.774   9.345  -1.310 -0.9279  1.3258 -1.7097
  969MOL0     H33680  10.697   9.500  -1.458  1.1181  2.0471 -0.2823
  969MOL0     H33681  10.597   9.553  -1.696 -1.6713 -3.2833 -1.7967
  969MOL0     H33682  10.482   9.692  -1.678  2.3645  1.0395  1.6787
  969MOL0     H33683  10.430   9.530  -1.709 -0.7127  2.4949 -0.7728
  969MOL0     H33684  10.080   9.360  -1.716 -3.2638 -1.5270 -0.9792
  969MOL0     H33685   9.898   9.406  -1.880 -3.9021 -0.2669  0.7301
  969MOL0     H33686   9.589   9.736  -1.809 -1.7029 -0.5048 -0.4928
  969MOL0     H33687   9.734   9.799  -1.903  0.5227 -1.4277  2.7060
  969MOL0     H33688   9.644   9.728  -2.110 -1.0326 -0.5513 -0.2319
  969MOL0     H33689   9.533   9.621  -2.029  1.2672 -0.0088 -0.0632
  969MOL0     H33690   9.515   9.918  -2.074  1.2859  0.1110  1.7238
  969MOL0     H33691   9.417   9.841  -1.950  1.4209  0.0273  0.5248
  969MOL0     H33692   9.329   9.672  -2.130 -0.0190  0.9145  0.9118
  969MOL0     H33693   9.406   9.758  -2.260 -3.5820 -1.2879 -1.7143
  969MOL0     H33694   9.173   9.802  -2.252 -0.8728  3.6819 -0.9464
  969MOL0     H33695   9.194   9.879  -2.100 -1.3295  1.1389 -0.2290
  969MOL0     H33696   9.344   9.973  -2.347  1.0323 -4.6460  1.7911
  969MOL0     H33697   9.324  10.065  -2.193 -1.0104  1.7450 -0.0036
  969MOL0     H33698   9.073  10.060  -2.241  0.5185 -1.4196  0.1070
  969MOL0     H33699   9.112  10.028  -2.411  0.4222 -0.1192  0.0625
  969MOL0     H33700   9.211  10.262  -2.237 -0.8246  1.9209 -0.5640
  969MOL0     H33701   9.087  10.272  -2.340 -0.7384  1.0216  2.6584
  969MOL0     H33702   9.793   9.754  -1.663 -0.4071 -1.6316  3.3389
  969MOL0     H33703   9.972   9.715  -1.505 -2.6038 -2.2017  1.5686
  969MOL0     H33704  10.261   9.623  -1.264  0.2725  2.9251 -0.3034
  969MOL0     H33705  10.446   9.556  -1.114  0.1215 -3.4195 -0.2313
  969MOL0     H33706  10.248   9.454   0.191 -0.5343 -0.5355  1.3592
  969MOL0     H33707  10.148   9.487   0.412 -0.3538 -0.7736  0.6508
  969MOL0     H33708   9.984   9.786   0.602  1.0699  0.8904  1.7924
  969MOL0     H33709   9.951   9.925   0.780 -0.6059 -0.0692 -0.5114
  969MOL0     H33710   9.881   9.867   1.231  0.3200  0.2743 -0.2975
  969MOL0     H33711   9.823   9.713   1.171 -0.0520 -0.9843 -0.8922
  969MOL0     H33712  10.064   9.656   1.112  1.8057  1.7690  0.3924
  969MOL0     H33713  10.035   9.667   1.282 -0.8841 -2.0068 -0.0840
  969MOL0     H33714  10.247   9.762   1.161  0.1506  0.2724 -0.9057
  969MOL0     H33715  10.141   9.896   1.114  0.0437 -0.3689  1.1196
  969MOL0     H33716  10.221   9.842   1.407 -1.4601  2.2221  1.6248
  969MOL0     H33717  10.078   9.926   1.354 -0.8832 -2.1297  0.2026
  969MOL0     H33718  10.369  10.221   1.264  0.2610  1.2512  3.2268
  969MOL0     H33719   9.780   9.578   0.988  0.5252 -2.5882 -2.2363
  969MOL0     H33720   9.676   9.420   0.716  0.5133 -3.5204 -0.0252
  969MOL0     H33721   9.833   9.363   0.777  2.9136  3.1330  1.1660
  969MOL0     H33722   9.716   9.404   0.891 -1.5122  0.1875 -0.4458
  970MOL0     O33723   4.888   6.632   1.111  0.2070  0.6111 -0.2070
  970MOL0     C33724   4.765   6.627   1.134 -0.5451 -0.2148 -0.2403
  970MOL0     O33725   4.703   6.674   1.257 -0.7556 -0.2387  0.4452
  970MOL0     C33726   4.784   6.654   1.371  0.1597  0.6102 -0.7960
  970MOL0     C33727   4.749   6.742   1.478  0.2008 -0.1457 -0.1235
  970MOL0     C33728   4.817   6.742   1.599 -0.8724 -0.3864  0.9008
  970MOL0     C33729   4.921   6.650   1.628  0.3372 -1.2004  0.1251
  970MOL0     O33730   4.964   6.660   1.757  0.3866  0.2798  0.4033
  970MOL0     C33731   5.077   6.573   1.787  0.0377 -0.6840 -0.4618
  970MOL0     C33732   5.123   6.581   1.930  0.0001 -0.1419 -0.0908
  970MOL0     C33733   5.030   6.517   2.035  1.1013 -0.0705  0.2104
  970MOL0     C33734   4.971   6.374   2.025  0.2505  0.0796  0.3593
  970MOL0     C33735   4.861   6.342   1.932  0.0526  0.7314  0.0327
  970MOL0     C33736   4.732   6.419   1.949  0.0545  0.3322  0.3538
  970MOL0     C33737   4.624   6.379   1.848  0.7521  0.7806  0.8445
  970MOL0     C33738   4.661   6.427   1.701 -0.3778  0.7432  0.4463
  970MOL0     N33739   4.561   6.371   1.598 -0.6539  0.3368 -0.0659
  970MOL0     C33740   4.574   6.240   1.560 -0.6707 -0.3758  0.3005
  970MOL0     C33741   4.493   6.219   1.455 -1.0965 -0.2083  0.2063
  970MOL0     C33742   4.495   6.092   1.376 -1.0662 -0.5303 -0.0651
  970MOL0     C33743   4.533   6.113   1.234 -0.1008  0.1883 -0.5409
  970MOL0     C33744   4.682   6.149   1.232 -0.2827 -0.1391 -0.1910
  970MOL0     C33745   4.724   6.150   1.086  0.5906  0.3067  0.3678
  970MOL0     O33746   4.835   6.221   1.075  0.1341  1.0118 -0.7194
  970MOL0     C33747   4.892   6.246   0.949 -0.6504 -1.1909 -0.1517
  970MOL0     C33748   5.008   6.336   0.939 -0.4072 -0.1412  0.6123
  970MOL0     C33749   5.077   6.373   0.822  1.3845 -0.7333  0.2509
  970MOL0     C33750   5.190   6.471   0.837 -0.6532 -0.1509 -0.8815
  970MOL0     C33751   5.028   6.318   0.703 -0.7681  0.5994 -0.2208
  970MOL0     C33752   5.091   6.337   0.572 -1.0647  0.1198 -0.1043
  970MOL0     O33753   5.069   6.237   0.477  0.8862  0.5948 -0.4440
  970MOL0     C33754   5.103   6.248   0.350  0.5129  0.3498 -0.6756
  970MOL0     C33755   5.026   6.178   0.259  0.5907 -0.3354  0.3040
  970MOL0     C33756   5.053   6.171   0.117  0.3505 -0.7221 -0.0063
  970MOL0     C33757   5.159   6.251   0.074 -0.0143 -0.0329  0.2844
  970MOL0     O33758   5.211   6.262  -0.057  0.0950 -0.5115 -0.2415
  970MOL0     C33759   5.127   6.193  -0.153 -0.0565 -0.3620  0.6181
  970MOL0     C33760   5.182   6.231  -0.292  0.0162  1.0126 -0.5340
  970MOL0     C33761   5.315   6.161  -0.330  0.5522 -0.5266 -0.2118
  970MOL0     C33762   5.303   6.131  -0.486 -0.2191 -0.6260 -1.2235
  970MOL0     C33763   5.427   6.063  -0.555 -0.0605  0.4008  0.5025
  970MOL0     C33764   5.492   5.933  -0.508  1.3515  0.6551  0.2948
  970MOL0     C33765   5.623   5.915  -0.571 -0.6783 -0.2125  0.6150
  970MOL0     C33766   5.709   5.793  -0.543  0.9927  0.6232 -0.3311
  970MOL0    Cl33767   5.600   5.643  -0.550 -0.0445  0.1000 -0.1572
  970MOL0     C33768   5.238   6.320   0.168  0.2700  0.1845  0.2295
  970MOL0     C33769   5.212   6.326   0.301  0.5152 -0.6218 -0.1953
  970MOL0     O33770   5.147   6.446   0.557  0.2683 -0.5321  0.0636
  970MOL0     C33771   4.931   6.211   0.710 -0.3340 -0.2744 -0.0502
  970MOL0     C33772   4.856   6.188   0.829 -0.2679  0.5555  0.8780
  970MOL0     N33773   4.421   6.340   1.432  0.4808  0.5673  0.2317
  970MOL0     N33774   4.464   6.424   1.522 -0.3837 -0.7961 -0.0335
  970MOL0     C33775   4.948   6.550   1.533  0.0621 -0.7291 -1.0581
  970MOL0     C33776   4.885   6.563   1.402 -0.7710  0.3523 -0.9003
  970MOL0     C33777   4.671   6.586   1.027 -0.7168 -0.4900 -0.9961
  970MOL0     C33778   4.549   6.544   1.073  0.3111  0.3847 -0.2738
  970MOL0     C33779   4.450   6.499   0.996 -0.4862 -0.3601 -0.1997
  970MOL0     C33780   4.469   6.500   0.856 -0.4650  0.1432 -0.9968
  970MOL0     O33781   4.378   6.445   0.774  0.1761  0.4607 -0.2385
  970MOL0     C33782   4.275   6.541   0.726 -0.3584 -1.0793 -0.3485
  970MOL0     C33783   4.201   6.475   0.612  0.2905 -0.2939  0.1267
  970MOL0     C33784   4.046   6.509   0.624  0.0782 -0.8209 -0.1173
  970MOL0     C33785   4.015   6.661   0.639  0.5445 -1.2071 -0.8491
  970MOL0     C33786   4.054   6.741   0.525 -0.3612  0.7419 -0.0336
  970MOL0     C33787   4.091   6.804   0.428  0.1533  1.0516 -0.1519
  970MOL0     C33788   4.589   6.551   0.809  1.1934  0.4572 -0.1725
  970MOL0     C33789   4.693   6.590   0.886 -0.2713  0.3653 -0.1349
  970MOL0     C33790   4.814   6.639   0.817 -0.1341 -0.1794  0.1538
  970MOL0     H33791   4.670   6.816   1.467 -0.1927 -0.3629  1.1510
  970MOL0     H33792   4.784   6.800   1.685  0.0818  0.9816  0.3828
  970MOL0     H33793   5.153   6.597   1.712 -1.0342 -0.6059 -1.5675
  970MOL0     H33794   5.048   6.472   1.758 -0.2072 -0.7393 -0.0340
  970MOL0     H33795   5.221   6.534   1.935  1.1683  2.2666  2.8964
  970MOL0     H33796   5.147   6.686   1.948  3.2536 -0.6274 -1.0746
  970MOL0     H33797   5.096   6.514   2.121 -0.2715 -0.5545  1.2859
  970MOL0     H33798   4.950   6.587   2.061  1.3242  0.6119 -0.8677
  970MOL0     H33799   5.052   6.302   2.009 -2.2589 -2.5596 -1.6043
  970MOL0     H33800   4.927   6.358   2.124 -0.9599 -2.0674 -0.4604
  970MOL0     H33801   4.835   6.236   1.947 -2.1954  1.3072  0.5773
  970MOL0     H33802   4.893   6.338   1.827 -0.9206  0.3321 -0.2677
  970MOL0     H33803   4.713   6.384   2.051  2.9896 -2.8094  0.0108
  970MOL0     H33804   4.746   6.526   1.936 -3.0037  0.9480  1.2697
  970MOL0     H33805   4.530   6.432   1.864  1.2261  0.8827  3.7753
  970MOL0     H33806   4.612   6.270   1.853  1.2793  0.7014  0.4452
  970MOL0     H33807   4.647   6.535   1.700 -3.4093  0.4351 -0.4265
  970MOL0     H33808   4.762   6.390   1.682 -0.8755 -2.2862  2.8357
  970MOL0     H33809   4.652   6.168   1.584  1.5314  2.6909  3.2825
  970MOL0     H33810   4.392   6.055   1.383 -1.4457  0.2762 -1.0564
  970MOL0     H33811   4.561   6.015   1.417  2.1601  0.5603 -2.8025
  970MOL0     H33812   4.529   6.020   1.176  2.5185  1.9615 -3.9560
  970MOL0     H33813   4.475   6.189   1.182  0.2556 -1.1510 -3.0579
  970MOL0     H33814   4.698   6.247   1.278  1.4323 -1.0753  1.3117
  970MOL0     H33815   4.743   6.084   1.295  0.6426  2.0744  1.3273
  970MOL0     H33816   4.740   6.049   1.049 -0.9004 -0.3985  1.5681
  970MOL0     H33817   4.650   6.194   1.018  1.1717 -1.0340 -1.1997
  970MOL0     H33818   5.041   6.376   1.034  1.7210  3.0104 -1.2743
  970MOL0     H33819   5.217   6.487   0.942  1.7135  4.4905 -1.9230
  970MOL0     H33820   5.163   6.568   0.794 -3.3520  0.1525  1.2366
  970MOL0     H33821   5.283   6.436   0.791 -1.7008 -2.0550 -1.6659
  970MOL0     H33822   4.945   6.118   0.300  0.0816 -0.0452 -0.2562
  970MOL0     H33823   4.997   6.107   0.050 -0.3981  1.2389 -1.3321
  970MOL0     H33824   5.145   6.086  -0.134 -0.3682 -0.1945  1.9976
  970MOL0     H33825   5.024   6.224  -0.136 -0.3520 -1.5473  1.0851
  970MOL0     H33826   5.101   6.211  -0.363 -1.4392  0.5718  1.1434
  970MOL0     H33827   5.196   6.338  -0.305 -1.0336  1.1888 -0.3090
  970MOL0     H33828   5.330   6.070  -0.271 -1.5910  0.0181  1.2758
  970MOL0     H33829   5.397   6.233  -0.320 -2.0946  2.7650 -0.1949
  970MOL0     H33830   5.285   6.232  -0.525  2.6686  1.4310  2.0815
  970MOL0     H33831   5.212   6.076  -0.510 -1.9762  1.5188  0.1135
  970MOL0     H33832   5.403   6.042  -0.660  2.0487 -3.6722  0.6412
  970MOL0     H33833   5.500   6.144  -0.546 -2.0567  2.0898  2.9348
  970MOL0     H33834   5.432   5.844  -0.529 -0.8162  1.7362  1.5231
  970MOL0     H33835   5.516   5.932  -0.401 -0.1547  0.3711  0.6612
  970MOL0     H33836   5.674   6.007  -0.539 -0.5312  1.0344 -2.7707
  970MOL0     H33837   5.625   5.926  -0.680  1.9085 -1.0194  0.5051
  970MOL0     H33838   5.759   5.799  -0.446 -1.1420 -2.5463  1.1304
  970MOL0     H33839   5.782   5.784  -0.624 -1.3068  3.2424 -2.9082
  970MOL0     H33840   5.318   6.387   0.139  0.1104  1.0672  1.7241
  970MOL0     H33841   5.266   6.395   0.364  2.0697 -1.2544 -0.7604
  970MOL0     H33842   4.902   6.151   0.625 -0.3030 -0.2352 -0.0883
  970MOL0     H33843   4.778   6.112   0.821 -0.5349  1.0400 -3.0651
  970MOL0     H33844   5.018   6.470   1.553  0.5268  0.2927  1.8563
  970MOL0     H33845   4.919   6.494   1.326 -0.1606 -1.6442  1.0766
  970MOL0     H33846   4.517   6.538   1.177 -2.4188 -2.9222 -1.1102
  970MOL0     H33847   4.356   6.458   1.032  0.7896 -1.4513  2.0541
  970MOL0     H33848   4.201   6.561   0.805 -2.0551  0.0525 -2.1334
  970MOL0     H33849   4.326   6.636   0.705  0.3684 -1.5874 -0.9052
  970MOL0     H33850   4.203   6.366   0.616  0.1725 -0.3039 -0.0449
  970MOL0     H33851   4.247   6.482   0.512  1.1108 -3.6526  0.1412
  970MOL0     H33852   3.979   6.472   0.547 -0.3699 -1.9368  0.7810
  970MOL0     H33853   4.020   6.454   0.715  2.5465 -1.7652  0.0944
  970MOL0     H33854   4.055   6.696   0.735  0.6923  0.9289 -1.6515
  970MOL0     H33855   3.907   6.679   0.640  0.2039 -2.3244  3.4796
  970MOL0     H33856   4.101   6.872   0.345  0.0026 -1.8767 -2.7167
  970MOL0     H33857   4.608   6.532   0.703  1.3544  3.6618 -0.8117
  970MOL0     H33858   4.884   6.555   0.805 -2.1802 -1.9367 -0.0247
  970MOL0     H33859   4.802   6.687   0.720 -1.5813  0.0407  0.4298
  970MOL0     H33860   4.864   6.712   0.882 -0.6097 -0.0929  0.4251
  971MOL0     O33861   3.878  11.022   3.226 -0.1219 -0.2773 -0.0822
  971MOL0     C33862   3.908  11.106   3.147  1.2590  0.1143  1.0415
  971MOL0     O33863   3.893  11.087   3.008  0.3225  0.0891 -0.8205
  971MOL0     C33864   3.875  10.963   2.956  0.0766  0.4242  0.8464
  971MOL0     C33865   3.781  10.929   2.854 -0.1921 -0.6818 -0.4937
  971MOL0     C33866   3.758  10.795   2.814 -0.3100 -0.3178 -0.4506
  971MOL0     C33867   3.835  10.691   2.863  0.1111 -1.1161 -0.2072
  971MOL0     O33868   3.790  10.573   2.807  0.3249  0.0904  0.4987
  971MOL0     C33869   3.862  10.449   2.817 -0.1132 -1.2211  0.5954
  971MOL0     C33870   3.759  10.337   2.828 -0.8823  0.0073 -0.4303
  971MOL0     C33871   3.656  10.329   2.719 -0.7905 -0.0938  0.5976
  971MOL0     C33872   3.629  10.169   2.698  0.6245 -0.8734  0.7791
  971MOL0     C33873   3.491  10.168   2.637  0.6078 -0.5380 -0.2940
  971MOL0     C33874   3.383  10.189   2.751  0.2418 -0.5642  0.1436
  971MOL0     C33875   3.237  10.216   2.705 -0.3778 -0.3452 -0.8980
  971MOL0     C33876   3.142  10.195   2.821 -0.4866  0.7085  0.1726
  971MOL0     N33877   3.011  10.203   2.774  0.4232 -0.1190  0.0032
  971MOL0     C33878   2.945  10.311   2.716 -0.7099  0.2470  0.0186
  971MOL0     C33879   2.812  10.293   2.724 -0.6424  0.2118 -0.5349
  971MOL0     C33880   2.703  10.382   2.683 -0.6140  0.3530 -0.1712
  971MOL0     C33881   2.692  10.380   2.530  1.1508  0.5032  0.1107
  971MOL0     C33882   2.569  10.458   2.489  0.2510 -0.0302  0.0243
  971MOL0     C33883   2.511  10.388   2.366 -0.3727 -0.4950  0.2988
  971MOL0     O33884   2.446  10.270   2.415  0.1449 -0.6633 -0.2749
  971MOL0     C33885   2.371  10.200   2.323 -0.0687 -1.1294  0.3035
  971MOL0     C33886   2.422  10.141   2.211  0.5068  0.3013 -0.6314
  971MOL0     C33887   2.345  10.073   2.115  0.1556  0.0554 -0.0866
  971MOL0     C33888   2.419  10.016   1.999  0.3913  0.5055  0.5508
  971MOL0     C33889   2.202  10.061   2.143 -0.0488 -0.7406  0.0644
  971MOL0     C33890   2.105   9.991   2.060 -0.8628  0.0996  0.4308
  971MOL0     O33891   1.981   9.961   2.108  0.0024 -0.9203  0.0342
  971MOL0     C33892   1.877   9.962   2.014  0.3661  0.2036 -0.4907
  971MOL0     C33893   1.759  10.050   2.033 -1.1107 -0.4274 -0.1176
  971MOL0     C33894   1.656  10.053   1.942  0.6071 -0.0170 -0.5496
  971MOL0     C33895   1.654   9.973   1.829 -0.6271 -0.1403 -1.0219
  971MOL0     O33896   1.557   9.979   1.735 -0.5297 -0.4766  0.6042
  971MOL0     C33897   1.428   9.979   1.794 -0.2795  1.2565 -0.5755
  971MOL0     C33898   1.324   9.940   1.688 -0.0269 -0.6077 -0.5510
  971MOL0     C33899   1.192   9.893   1.732  0.1534 -0.6286  0.2176
  971MOL0     C33900   1.101  10.005   1.768  0.1521  0.6622  0.4446
  971MOL0     C33901   0.965   9.959   1.834 -0.4551 -1.0285  1.1508
  971MOL0     C33902   0.880   9.883   1.738  0.5249  0.6401 -0.3016
  971MOL0     C33903   0.750   9.844   1.808  0.2731  0.0936 -0.8412
  971MOL0     C33904   0.683   9.734   1.734  0.0611 -0.7392  0.2504
  971MOL0    Cl33905   0.526   9.704   1.807 -0.4161 -0.1687  0.2611
  971MOL0     C33906   1.774   9.890   1.803 -1.3939 -0.7627 -0.0369
  971MOL0     C33907   1.871   9.875   1.908 -0.9025 -0.1912  0.1704
  971MOL0     O33908   2.139   9.951   1.943 -0.5591 -0.4244  0.2462
  971MOL0     C33909   2.148  10.133   2.258 -0.0677  0.4598 -0.3270
  971MOL0     C33910   2.237  10.216   2.332  0.8001  1.3878 -0.1091
  971MOL0     N33911   2.794  10.177   2.790  0.8312 -0.1129 -0.2347
  971MOL0     N33912   2.903  10.133   2.826 -0.8156 -0.0911  0.5950
  971MOL0     C33913   3.939  10.720   2.952 -0.2576  0.7389  0.2675
  971MOL0     C33914   3.955  10.854   2.989 -0.3061 -0.2029 -0.8420
  971MOL0     C33915   3.927  11.242   3.194 -0.1176 -1.0833  0.6452
  971MOL0     C33916   3.869  11.348   3.122 -1.2716 -0.4662  0.4408
  971MOL0     C33917   3.876  11.486   3.163  1.3335  0.1298  0.0078
  971MOL0     C33918   3.946  11.520   3.276 -0.0660  0.0343 -0.5503
  971MOL0     O33919   3.956  11.648   3.315  0.8604  0.1139 -0.3699
  971MOL0     C33920   3.873  11.739   3.261  0.4337  0.4360  0.0656
  971MOL0     C33921   3.910  11.874   3.316 -0.0025 -0.2199  0.5592
  971MOL0     C33922   3.913  11.873   3.470  0.8257 -0.1099  0.7232
  971MOL0     C33923   3.775  11.923   3.528  0.5880 -0.0381  0.4132
  971MOL0     C33924   3.777  12.062   3.572 -0.7936 -0.3440 -0.1550
  971MOL0     C33925   3.763  12.178   3.611  0.4372  1.0059 -0.7917
  971MOL0     C33926   4.002  11.417   3.353 -0.8747  0.3304  0.5488
  971MOL0     C33927   4.001  11.280   3.308  0.5251  0.0187  0.2857
  971MOL0     C33928   4.089  11.177   3.379  0.3699  0.4862 -0.2491
  971MOL0     H33929   3.699  10.987   2.813 -0.0588 -1.4179 -1.8674
  971MOL0     H33930   3.677  10.782   2.743  0.1033  1.1298 -1.2201
  971MOL0     H33931   3.922  10.446   2.908 -1.5839 -1.6156  1.5880
  971MOL0     H33932   3.923  10.440   2.727  1.1557  1.4928  1.0806
  971MOL0     H33933   3.822  10.248   2.830 -0.2846  0.4217 -0.6199
  971MOL0     H33934   3.705  10.339   2.924  0.0651  0.5264  0.1103
  971MOL0     H33935   3.567  10.388   2.744 -1.0855  0.8637 -2.3003
  971MOL0     H33936   3.697  10.377   2.630  2.1427 -2.9829  0.1807
  971MOL0     H33937   3.707  10.113   2.645  0.3881 -0.6880  0.2301
  971MOL0     H33938   3.623  10.117   2.794  3.0613 -0.1112  1.4187
  971MOL0     H33939   3.474  10.071   2.588 -2.9419 -0.5821  0.7686
  971MOL0     H33940   3.470  10.247   2.564  1.1820  1.9381  2.0544
  971MOL0     H33941   3.380  10.099   2.813 -0.3288 -0.4517  0.2901
  971MOL0     H33942   3.417  10.274   2.810  0.5372  2.1251 -3.5484
  971MOL0     H33943   3.212  10.142   2.628  1.1874 -0.1658 -1.6054
  971MOL0     H33944   3.235  10.311   2.652  2.5642  1.0205  1.1269
  971MOL0     H33945   3.158  10.103   2.878 -1.5191 -2.4646 -4.1809
  971MOL0     H33946   3.148  10.281   2.888 -0.5801  1.6532 -0.9914
  971MOL0     H33947   2.990  10.405   2.686 -0.1900  0.3347  1.0162
  971MOL0     H33948   2.713  10.488   2.708 -0.7258  0.0924  1.0035
  971MOL0     H33949   2.612  10.354   2.735  0.7438 -2.2860  0.9677
  971MOL0     H33950   2.784  10.417   2.484  1.1755 -0.5533 -0.7395
  971MOL0     H33951   2.677  10.280   2.488 -0.0229  1.1065 -0.9888
  971MOL0     H33952   2.491  10.474   2.565  1.5818 -0.0093  1.4409
  971MOL0     H33953   2.598  10.558   2.456  1.6935 -1.0894 -2.1598
  971MOL0     H33954   2.438  10.452   2.316 -0.1249 -1.0423 -0.7887
  971MOL0     H33955   2.596  10.373   2.298 -0.0496  2.6836 -0.1868
  971MOL0     H33956   2.529  10.140   2.194  0.2887  0.4113 -2.1362
  971MOL0     H33957   2.520  10.058   1.992  1.2024 -1.4997 -0.4619
  971MOL0     H33958   2.359  10.047   1.913 -0.3929 -1.7620  0.2109
  971MOL0     H33959   2.426   9.907   2.001 -0.9684  0.2080 -3.1069
  971MOL0     H33960   1.766  10.105   2.126  2.4510  2.4871 -1.8709
  971MOL0     H33961   1.568  10.114   1.960  0.3798 -0.9651  1.9268
  971MOL0     H33962   1.423   9.903   1.873  2.8588  5.2234  4.0829
  971MOL0     H33963   1.391  10.071   1.841 -3.9842 -0.6645  0.6038
  971MOL0     H33964   1.318  10.028   1.624  0.5607  0.0446  0.2659
  971MOL0     H33965   1.375   9.860   1.632 -0.2921 -2.3781  1.5700
  971MOL0     H33966   1.204   9.809   1.800 -1.1945 -1.9489 -1.0865
  971MOL0     H33967   1.157   9.839   1.643 -1.3618  0.6771 -0.0333
  971MOL0     H33968   1.080  10.071   1.683  2.3794 -0.5881 -1.2091
  971MOL0     H33969   1.151  10.063   1.846  2.1566 -3.2807  2.3850
  971MOL0     H33970   0.977   9.918   1.934 -0.1276 -1.4758  0.9334
  971MOL0     H33971   0.902  10.047   1.847  0.4343  0.0561 -1.2068
  971MOL0     H33972   0.938   9.791   1.724  1.6144  0.8319  2.2105
  971MOL0     H33973   0.864   9.939   1.646 -0.7932  0.1917 -0.3638
  971MOL0     H33974   0.680   9.924   1.832 -1.4609 -2.2631  2.9298
  971MOL0     H33975   0.772   9.800   1.906 -1.6622 -1.3446 -0.9978
  971MOL0     H33976   0.741   9.642   1.743  0.4361 -0.4685  0.6619
  971MOL0     H33977   0.670   9.756   1.627 -0.5386 -2.8761 -0.1556
  971MOL0     H33978   1.788   9.828   1.715  0.7224 -2.4206  1.3592
  971MOL0     H33979   1.952   9.808   1.881 -2.3420 -0.6414 -3.5206
  971MOL0     H33980   2.042  10.122   2.282 -0.4861 -0.5959 -2.4791
  971MOL0     H33981   2.182  10.283   2.398  1.2125  0.7797  0.8770
  971MOL0     H33982   3.994  10.637   2.993 -1.2933 -0.0967  0.0073
  971MOL0     H33983   4.036  10.883   3.055 -2.2862  1.0164  1.1845
  971MOL0     H33984   3.824  11.323   3.027  0.7968  1.2341 -1.1005
  971MOL0     H33985   3.813  11.553   3.106 -0.3983 -0.1967  1.4709
  971MOL0     H33986   3.890  11.737   3.153  3.1106  0.9107  0.4009
  971MOL0     H33987   3.767  11.727   3.281  0.1108 -0.0492 -1.7651
  971MOL0     H33988   3.857  11.963   3.279 -1.1557 -0.7849  0.8154
  971MOL0     H33989   4.011  11.889   3.277 -0.1695 -0.9030 -0.1581
  971MOL0     H33990   3.920  11.770   3.505  1.2050 -0.4682 -0.3655
  971MOL0     H33991   3.992  11.932   3.518 -1.3416  0.3377  4.0881
  971MOL0     H33992   3.750  11.866   3.618  1.2614  0.6140  1.0249
  971MOL0     H33993   3.694  11.897   3.459 -1.3055 -0.0718  2.5196
  971MOL0     H33994   3.734  12.274   3.648 -2.1707 -0.8219  2.5434
  971MOL0     H33995   4.065  11.447   3.436 -1.6092  2.8161  0.2736
  971MOL0     H33996   4.194  11.207   3.375  0.8077 -0.7587  1.0828
  971MOL0     H33997   4.047  11.170   3.480 -1.0753  1.8985 -0.6960
  971MOL0     H33998   4.086  11.081   3.327 -1.9294  0.6305 -0.4855
  972MOL0     O33999   5.230   7.545   7.532  0.4338 -0.8419  0.2217
  972MOL0     C34000   5.166   7.617   7.453 -0.0112 -0.1951 -1.2496
  972MOL0     O34001   5.219   7.666   7.334  0.3560  0.2939  0.2996
  972MOL0     C34002   5.342   7.641   7.301 -0.6229 -0.0557 -0.1126
  972MOL0     C34003   5.359   7.590   7.169  0.9551  0.1489 -0.9103
  972MOL0     C34004   5.490   7.554   7.132  0.4393  0.2091 -0.5030
  972MOL0     C34005   5.601   7.589   7.207  0.3744 -0.1747  0.1286
  972MOL0     O34006   5.726   7.557   7.156 -0.8356 -0.0473  0.9357
  972MOL0     C34007   5.818   7.667   7.138 -0.4058  0.1406 -0.7126
  972MOL0     C34008   5.902   7.641   7.007  0.4758  0.8333 -0.6962
  972MOL0     C34009   6.024   7.735   6.996  0.4711 -0.8355  0.3780
  972MOL0     C34010   6.118   7.713   6.880  0.0340  1.1406  0.1265
  972MOL0     C34011   6.227   7.807   6.857 -0.6770 -0.2578  1.5539
  972MOL0     C34012   6.272   7.877   6.997 -0.8351  0.0175 -1.0637
  972MOL0     C34013   6.396   7.972   6.973  1.3687 -0.0125 -0.2922
  972MOL0     C34014   6.396   8.096   7.058  0.9781 -0.6192  0.6980
  972MOL0     N34015   6.480   8.201   7.001 -0.4439  0.5433  0.4762
  972MOL0     C34016   6.449   8.302   6.908 -0.1203  0.0931  0.2356
  972MOL0     C34017   6.560   8.353   6.868 -0.4186  0.9223  0.1760
  972MOL0     C34018   6.565   8.485   6.796 -0.3133 -0.2302  0.2940
  972MOL0     C34019   6.544   8.608   6.885  0.6280  0.3509  0.3025
  972MOL0     C34020   6.676   8.658   6.941  0.1000 -1.1063  0.2369
  972MOL0     C34021   6.664   8.785   7.028  0.0831  0.1449 -0.3161
  972MOL0     O34022   6.796   8.802   7.094 -0.0840 -0.3265  0.2632
  972MOL0     C34023   6.821   8.918   7.165 -0.0073 -0.7524 -0.0097
  972MOL0     C34024   6.717   8.972   7.241 -0.5759  0.4869  0.6532
  972MOL0     C34025   6.749   9.083   7.322  0.6833  0.0180 -0.1057
  972MOL0     C34026   6.631   9.143   7.404 -0.3280  0.0483 -0.6582
  972MOL0     C34027   6.877   9.143   7.320  0.7287 -0.1888 -0.7695
  972MOL0     C34028   6.903   9.279   7.388  0.4152  0.6399 -0.8051
  972MOL0     O34029   6.990   9.359   7.323  0.0323  0.6041  0.0172
  972MOL0     C34030   7.056   9.466   7.381  0.3473 -0.3155  0.0136
  972MOL0     C34031   7.122   9.456   7.501  0.7367 -0.9530 -0.1627
  972MOL0     C34032   7.207   9.560   7.547  0.2610  0.0256  0.3123
  972MOL0     C34033   7.202   9.685   7.482  0.4304  0.3191 -0.2097
  972MOL0     O34034   7.272   9.795   7.541 -0.7869  0.4052  0.0809
  972MOL0     C34035   7.233   9.930   7.502  0.4037  0.1685 -0.2725
  972MOL0     C34036   7.293   9.999   7.387 -0.2439 -0.7588  0.1444
  972MOL0     C34037   7.413  10.081   7.430  0.2792  0.2002  0.8589
  972MOL0     C34038   7.509   9.998   7.508  0.1156 -0.2736 -0.4269
  972MOL0     C34039   7.646  10.067   7.534  0.5138  0.8882  0.0858
  972MOL0     C34040   7.608  10.174   7.645 -0.4440 -0.2707 -0.7636
  972MOL0     C34041   7.737  10.236   7.708 -0.5659 -0.8024  0.7032
  972MOL0     C34042   7.852  10.278   7.617 -0.1897  0.2502 -0.2783
  972MOL0    Cl34043   7.958  10.412   7.687 -0.4019  0.0376 -0.2501
  972MOL0     C34044   7.136   9.687   7.356  0.6248  0.1855 -0.5960
  972MOL0     C34045   7.077   9.575   7.302 -0.2280  0.4772 -0.3176
  972MOL0     O34046   6.836   9.303   7.490  0.1270 -0.0761  0.1085
  972MOL0     C34047   6.978   9.080   7.250  0.1932 -0.1700 -0.3914
  972MOL0     C34048   6.950   8.971   7.170  0.1122 -0.5397 -0.5370
  972MOL0     N34049   6.665   8.286   6.937 -0.2426 -0.0690  0.1895
  972MOL0     N34050   6.614   8.193   7.017  1.0876  0.1680 -0.2768
  972MOL0     C34051   5.582   7.628   7.338 -0.3353 -0.2054 -0.3871
  972MOL0     C34052   5.457   7.659   7.386  0.2259  0.5065 -0.0826
  972MOL0     C34053   5.028   7.671   7.489 -0.2051  0.4748  0.8541
  972MOL0     C34054   5.007   7.799   7.437 -0.9794 -0.4351 -0.0758
  972MOL0     C34055   4.903   7.883   7.477  0.5587 -0.3656  0.5807
  972MOL0     C34056   4.799   7.836   7.564 -0.3021  0.1011 -0.4346
  972MOL0     O34057   4.675   7.895   7.600  0.6284 -0.6961 -0.2850
  972MOL0     C34058   4.650   8.039   7.601 -0.6540  0.2264  0.3636
  972MOL0     C34059   4.531   8.070   7.509 -0.6397  1.0556  0.1367
  972MOL0     C34060   4.545   8.026   7.361  0.3470 -0.2257 -0.2182
  972MOL0     C34061   4.592   8.139   7.259 -0.9514 -1.0389 -0.9271
  972MOL0     C34062   4.733   8.184   7.298 -1.0938  0.0291  0.6358
  972MOL0     C34063   4.844   8.213   7.332 -0.7659 -0.7066  0.5033
  972MOL0     C34064   4.819   7.706   7.611  0.3475  0.5440  0.2689
  972MOL0     C34065   4.937   7.623   7.585 -0.0808  0.0841 -0.8418
  972MOL0     C34066   4.966   7.496   7.654  0.7031  0.3030  0.4510
  972MOL0     H34067   5.272   7.567   7.109 -0.5944  2.6834  0.2019
  972MOL0     H34068   5.509   7.516   7.032  1.7387  1.9068 -0.9565
  972MOL0     H34069   5.883   7.673   7.226 -0.7451  0.8042 -0.5002
  972MOL0     H34070   5.764   7.760   7.120 -2.8582 -1.5160 -2.6225
  972MOL0     H34071   5.940   7.539   7.016 -2.5774 -0.2767  1.3763
  972MOL0     H34072   5.844   7.659   6.916  3.0727  7.5976 -1.5751
  972MOL0     H34073   5.979   7.834   6.981 -0.2336 -1.5547 -3.2920
  972MOL0     H34074   6.081   7.725   7.089  1.8796  1.8433 -0.0936
  972MOL0     H34075   6.141   7.607   6.897 -4.3993  0.3209  2.6124
  972MOL0     H34076   6.055   7.719   6.790  1.2347  1.9450 -0.6841
  972MOL0     H34077   6.199   7.896   6.800  4.3020 -0.1697 -1.3772
  972MOL0     H34078   6.308   7.761   6.799 -0.6079  0.8874  0.6993
  972MOL0     H34079   6.187   7.926   7.045 -2.8306 -2.9010 -1.3071
  972MOL0     H34080   6.303   7.796   7.064 -3.5761 -0.8023 -0.6385
  972MOL0     H34081   6.384   8.012   6.872 -3.6203  0.7811  0.3494
  972MOL0     H34082   6.489   7.916   6.987  0.6366 -1.6690 -1.6026
  972MOL0     H34083   6.294   8.136   7.064  1.5788  1.6126 -1.9285
  972MOL0     H34084   6.431   8.057   7.154  0.1720  0.5674  1.5012
  972MOL0     H34085   6.350   8.342   6.885 -0.2255 -0.5762 -0.5122
  972MOL0     H34086   6.492   8.479   6.715  0.1629 -0.9920 -0.0926
  972MOL0     H34087   6.666   8.494   6.755 -0.4372  0.6257  0.1543
  972MOL0     H34088   6.496   8.678   6.817 -0.2002 -1.0100 -0.5696
  972MOL0     H34089   6.477   8.578   6.966  1.2034 -2.2485 -0.0959
  972MOL0     H34090   6.695   8.571   7.005  0.5873  1.1507  3.3980
  972MOL0     H34091   6.755   8.661   6.865  0.4198  1.4333  0.5907
  972MOL0     H34092   6.652   8.872   6.963  0.2437  1.0375  0.8193
  972MOL0     H34093   6.578   8.775   7.094  0.3246  1.2107  0.1918
  972MOL0     H34094   6.629   8.908   7.248  0.4263 -1.8269 -3.9073
  972MOL0     H34095   6.636   9.140   7.513  0.0550  0.2783 -0.6670
  972MOL0     H34096   6.544   9.084   7.373 -0.2629 -2.1412  2.8111
  972MOL0     H34097   6.607   9.246   7.377  1.8260  0.3611 -1.5542
  972MOL0     H34098   7.118   9.373   7.571 -3.0428  0.4537  1.5804
  972MOL0     H34099   7.263   9.542   7.639  0.4292 -0.4439  0.1200
  972MOL0     H34100   7.127   9.932   7.474  0.2435 -1.2941  0.1654
  972MOL0     H34101   7.234   9.981   7.598  0.8655 -1.9243  0.8851
  972MOL0     H34102   7.315   9.923   7.312 -0.6170 -0.9594  0.2314
  972MOL0     H34103   7.217  10.070   7.352  0.8299  2.6898  4.0072
  972MOL0     H34104   7.381  10.167   7.489 -0.5679 -0.0189  0.7282
  972MOL0     H34105   7.465  10.111   7.339  0.5019 -0.3009  0.8124
  972MOL0     H34106   7.522   9.907   7.448 -0.1687  0.7516 -2.1201
  972MOL0     H34107   7.459   9.980   7.604  3.2812  1.3196  1.6610
  972MOL0     H34108   7.718   9.995   7.574 -0.8054 -0.1610  0.6351
  972MOL0     H34109   7.687  10.111   7.442 -1.2597  0.9546 -0.7120
  972MOL0     H34110   7.548  10.136   7.728  0.6667  0.8301  0.5895
  972MOL0     H34111   7.549  10.258   7.607  0.8723  2.3287  2.4526
  972MOL0     H34112   7.787  10.179   7.787 -1.2822  1.1295  2.6932
  972MOL0     H34113   7.694  10.321   7.763 -1.5691 -1.6420  1.2598
  972MOL0     H34114   7.788  10.322   7.539 -3.7408 -1.9978  1.1065
  972MOL0     H34115   7.902  10.188   7.582  1.2293  1.0131 -0.2772
  972MOL0     H34116   7.139   9.772   7.288  0.3268 -0.1321 -1.0137
  972MOL0     H34117   7.034   9.581   7.203  0.9116  0.9192 -0.8069
  972MOL0     H34118   7.076   9.126   7.257  1.1542 -2.1530  0.0571
  972MOL0     H34119   7.038   8.922   7.131 -0.2577 -2.3815  0.8221
  972MOL0     H34120   5.664   7.645   7.407 -2.1473  1.3740  1.4597
  972MOL0     H34121   5.437   7.697   7.486  0.1580  3.4276 -1.1117
  972MOL0     H34122   5.067   7.842   7.358  1.5809 -2.6263  0.5190
  972MOL0     H34123   4.906   7.982   7.434  1.3434 -0.5243  0.2534
  972MOL0     H34124   4.641   8.072   7.705 -0.5017 -0.3509  0.5620
  972MOL0     H34125   4.743   8.083   7.565  1.1283 -1.3988  2.6976
  972MOL0     H34126   4.517   8.178   7.518 -0.2780  1.4951 -3.1144
  972MOL0     H34127   4.439   8.021   7.543  0.0542 -0.2385  0.2092
  972MOL0     H34128   4.584   7.925   7.355 -1.6114 -1.0109 -0.4824
  972MOL0     H34129   4.445   8.009   7.320  0.0901 -1.5580  0.8761
  972MOL0     H34130   4.528   8.227   7.252 -1.7074 -1.7314 -4.3696
  972MOL0     H34131   4.593   8.102   7.156  3.2872 -0.8864 -1.1334
  972MOL0     H34132   4.941   8.242   7.369 -0.8188 -0.5268  0.5016
  972MOL0     H34133   4.749   7.654   7.676  0.1190  3.5617  2.6594
  972MOL0     H34134   4.896   7.471   7.734  2.3142 -2.0696  1.2163
  972MOL0     H34135   4.964   7.410   7.587  0.8629  1.4359 -1.0531
  972MOL0     H34136   5.062   7.510   7.706  0.3124  3.2816  0.5951
  973MOL0     O34137   2.656   1.689   4.166 -0.3258 -0.1963  0.3243
  973MOL0     C34138   2.779   1.665   4.159  0.4653 -0.3041 -0.2398
  973MOL0     O34139   2.871   1.734   4.088 -0.2620 -0.2413  0.1408
  973MOL0     C34140   2.817   1.859   4.036  0.3165  0.0649 -0.0578
  973MOL0     C34141   2.882   1.971   4.091  0.8374 -0.0648  0.3116
  973MOL0     C34142   2.866   2.087   4.020  0.6957 -0.6604 -0.5337
  973MOL0     C34143   2.759   2.093   3.921 -1.0757  0.3453  0.0831
  973MOL0     O34144   2.725   2.214   3.868 -0.0623 -0.1820  0.4506
  973MOL0     C34145   2.586   2.258   3.881  0.1302  1.0639  0.6886
  973MOL0     C34146   2.574   2.400   3.834  0.3982  0.2473  0.0944
  973MOL0     C34147   2.617   2.427   3.693  0.6624  0.3329  0.7621
  973MOL0     C34148   2.625   2.583   3.663 -0.0876  0.4876  0.1852
  973MOL0     C34149   2.591   2.608   3.522 -0.0287  1.2355 -0.0520
  973MOL0     C34150   2.719   2.574   3.437  0.2492  0.0479 -0.1233
  973MOL0     C34151   2.691   2.589   3.284 -0.0240 -0.7807 -0.5131
  973MOL0     C34152   2.613   2.472   3.222 -0.2229 -0.1434 -0.0578
  973MOL0     N34153   2.683   2.339   3.215  0.2360 -0.7982  0.1043
  973MOL0     C34154   2.815   2.322   3.180 -0.0654 -0.4527  0.2377
  973MOL0     C34155   2.856   2.206   3.223 -0.4237  0.5627 -0.6780
  973MOL0     C34156   2.989   2.147   3.224  0.9003 -0.6059  0.4692
  973MOL0     C34157   3.083   2.232   3.305  1.4240 -0.2020  0.6225
  973MOL0     C34158   3.042   2.233   3.450 -0.8665 -0.4688 -0.6617
  973MOL0     C34159   3.162   2.251   3.544  0.0588  0.5948  1.2608
  973MOL0     O34160   3.198   2.385   3.567 -0.3378  0.4162  1.4728
  973MOL0     C34161   3.328   2.417   3.608  0.1284 -0.1764 -0.1371
  973MOL0     C34162   3.422   2.318   3.653  0.9145 -0.7187 -0.0407
  973MOL0     C34163   3.552   2.366   3.698  0.5641  0.1741 -0.1076
  973MOL0     C34164   3.660   2.262   3.732  1.0226  1.3963  0.7088
  973MOL0     C34165   3.573   2.504   3.710 -0.7550 -0.8738  0.0422
  973MOL0     C34166   3.702   2.556   3.755 -0.4685 -0.4537  0.2028
  973MOL0     O34167   3.763   2.486   3.845  0.0417  0.5193  0.0744
  973MOL0     C34168   3.888   2.522   3.874 -0.0548  1.1498 -0.0724
  973MOL0     C34169   3.978   2.421   3.832 -1.1645  0.1183  0.6377
  973MOL0     C34170   4.113   2.435   3.858  0.2045 -0.3623  0.3952
  973MOL0     C34171   4.159   2.559   3.914 -0.3215  0.2429  0.6310
  973MOL0     O34172   4.298   2.564   3.911  0.1121 -0.5399 -0.7828
  973MOL0     C34173   4.358   2.695   3.906  0.0836  0.1508 -0.1193
  973MOL0     C34174   4.500   2.683   3.946  0.2860  0.2830  0.8267
  973MOL0     C34175   4.538   2.603   4.077  0.0580  0.6486 -1.4292
  973MOL0     C34176   4.696   2.621   4.087 -0.1969 -0.7318 -0.0697
  973MOL0     C34177   4.753   2.527   4.196 -0.1121  0.0410  0.5536
  973MOL0     C34178   4.900   2.556   4.218  0.1784 -0.2947 -0.4200
  973MOL0     C34179   4.987   2.475   4.119 -0.3232 -0.0310  0.6748
  973MOL0     C34180   5.135   2.518   4.135  0.5101 -0.2084 -0.1786
  973MOL0    Cl34181   5.233   2.464   4.284 -0.0711  0.4555  0.1269
  973MOL0     C34182   4.068   2.658   3.951 -0.1963 -0.8114  0.2273
  973MOL0     C34183   3.933   2.641   3.937  0.0576  0.1947 -0.1919
  973MOL0     O34184   3.738   2.663   3.714  0.0395 -0.9008  0.1964
  973MOL0     C34185   3.468   2.599   3.680 -0.0561  0.5789  0.4509
  973MOL0     C34186   3.346   2.554   3.624 -0.1911 -0.1984  0.1095
  973MOL0     N34187   2.742   2.149   3.285 -0.2555 -0.3534  0.2481
  973MOL0     N34188   2.642   2.232   3.279 -0.2041  0.5296  0.1517
  973MOL0     C34189   2.708   1.977   3.872  0.7866  0.3914 -0.2610
  973MOL0     C34190   2.732   1.861   3.930 -0.7066  0.1174  0.0880
  973MOL0     C34191   2.836   1.568   4.259 -0.0156 -0.5249  0.3177
  973MOL0     C34192   2.973   1.575   4.291 -0.4481  0.3000 -0.1184
  973MOL0     C34193   3.035   1.483   4.365  0.8799 -0.6613  0.0828
  973MOL0     C34194   2.957   1.369   4.411 -0.8399 -0.5892 -0.7184
  973MOL0     O34195   3.008   1.270   4.489  1.2615 -0.0496  0.5139
  973MOL0     C34196   3.148   1.283   4.523  0.5492 -0.0402 -0.3417
  973MOL0     C34197   3.201   1.146   4.554  0.1155  0.1856 -0.3166
  973MOL0     C34198   3.273   1.086   4.430 -0.6119 -0.0333 -0.8972
  973MOL0     C34199   3.182   1.031   4.317 -0.1783  0.1736 -0.2663
  973MOL0     C34200   3.244   0.930   4.235 -0.3312 -0.3873 -0.0012
  973MOL0     C34201   3.288   0.843   4.164  1.1380  0.7062 -0.0338
  973MOL0     C34202   2.828   1.370   4.386  0.0991 -0.3212 -0.4384
  973MOL0     C34203   2.757   1.466   4.315  0.0435 -0.3254  0.7990
  973MOL0     C34204   2.609   1.462   4.327  0.1023  0.3482  0.6084
  973MOL0     H34205   2.954   1.958   4.170 -1.0075 -1.0751  1.9115
  973MOL0     H34206   2.921   2.180   4.035 -0.6270  0.4844 -2.2352
  973MOL0     H34207   2.555   2.258   3.986  0.3861 -0.7582  0.7973
  973MOL0     H34208   2.518   2.190   3.828  1.0143  1.1794 -0.6382
  973MOL0     H34209   2.467   2.421   3.844 -0.1303 -1.9944 -0.4128
  973MOL0     H34210   2.627   2.475   3.894  2.7448 -1.3089  0.0984
  973MOL0     H34211   2.701   2.372   3.649 -0.4034 -0.6592 -0.1050
  973MOL0     H34212   2.536   2.389   3.630 -1.1068  0.0863  3.0438
  973MOL0     H34213   2.546   2.633   3.719  0.1645 -1.8464  2.8209
  973MOL0     H34214   2.728   2.614   3.685 -0.3529 -0.3255  2.9739
  973MOL0     H34215   2.566   2.711   3.494 -4.5183  0.1199 -0.9824
  973MOL0     H34216   2.508   2.542   3.495 -0.4220  0.9589  1.7021
  973MOL0     H34217   2.788   2.654   3.466  1.5901 -1.3442  0.6121
  973MOL0     H34218   2.777   2.483   3.454  1.7443  1.0948  0.5912
  973MOL0     H34219   2.776   2.615   3.220 -1.0263  0.9231 -1.2066
  973MOL0     H34220   2.628   2.677   3.267  0.8604 -0.4474 -2.2725
  973MOL0     H34221   2.513   2.476   3.267 -0.7490 -2.3172 -0.9201
  973MOL0     H34222   2.610   2.510   3.120 -0.5939 -0.1296 -0.0446
  973MOL0     H34223   2.888   2.387   3.133 -0.0446 -0.3427  0.4242
  973MOL0     H34224   3.020   2.150   3.119 -1.4236 -1.0599 -0.3002
  973MOL0     H34225   2.982   2.044   3.259  1.4797 -1.0175 -0.5736
  973MOL0     H34226   3.188   2.202   3.292  1.0238 -2.0135  1.3359
  973MOL0     H34227   3.079   2.334   3.267  1.8590 -1.6993 -4.0547
  973MOL0     H34228   2.989   2.327   3.459  0.3296  0.0500  1.7394
  973MOL0     H34229   2.981   2.145   3.473  0.3870 -0.8710  1.3781
  973MOL0     H34230   3.124   2.211   3.639 -1.7452 -0.7175  0.0681
  973MOL0     H34231   3.240   2.182   3.510 -0.5835  0.1616  0.6191
  973MOL0     H34232   3.389   2.215   3.643  0.2783 -0.4404 -1.0392
  973MOL0     H34233   3.615   2.163   3.722 -1.2309  2.4256  0.0370
  973MOL0     H34234   3.664   2.272   3.841 -2.9800 -4.4584  1.8734
  973MOL0     H34235   3.755   2.265   3.678  0.9929  0.1054  0.5685
  973MOL0     H34236   3.947   2.323   3.798 -0.9329 -0.0689  0.9552
  973MOL0     H34237   4.189   2.363   3.830 -0.0335  0.2360 -2.0238
  973MOL0     H34238   4.332   2.752   3.816 -1.7677 -1.6533 -0.8090
  973MOL0     H34239   4.324   2.753   3.992  0.1296  3.8779 -2.4105
  973MOL0     H34240   4.555   2.659   3.854  0.4191 -0.1651  1.0228
  973MOL0     H34241   4.531   2.786   3.965  3.0433 -0.7305  2.3392
  973MOL0     H34242   4.516   2.497   4.066 -0.7358  0.4182  1.5647
  973MOL0     H34243   4.485   2.635   4.167 -0.7656 -1.1180 -1.2496
  973MOL0     H34244   4.723   2.721   4.121  0.2910  0.1757 -2.8935
  973MOL0     H34245   4.748   2.603   3.992  0.0339  2.4546 -0.6386
  973MOL0     H34246   4.705   2.569   4.285 -0.1160  1.3220 -0.0190
  973MOL0     H34247   4.732   2.421   4.182 -1.1589  0.3077 -0.0551
  973MOL0     H34248   4.933   2.523   4.317 -0.2675  0.4055 -0.0319
  973MOL0     H34249   4.918   2.660   4.190 -2.6890  0.1046 -1.1039
  973MOL0     H34250   4.973   2.494   4.012  2.5215 -2.6812 -0.3216
  973MOL0     H34251   4.966   2.372   4.150 -3.3996  1.3698  4.0315
  973MOL0     H34252   5.144   2.626   4.123 -1.0904 -0.0017  0.2945
  973MOL0     H34253   5.198   2.473   4.058  0.3185 -1.1728  0.2056
  973MOL0     H34254   4.098   2.760   3.971 -2.8083  0.0160  0.2763
  973MOL0     H34255   3.868   2.727   3.948  0.5518  1.0798 -3.2809
  973MOL0     H34256   3.494   2.703   3.697  2.2263 -0.3236  3.2920
  973MOL0     H34257   3.260   2.614   3.597  0.7864  1.9097  1.4452
  973MOL0     H34258   2.629   1.973   3.797 -1.4226  1.5090  1.8474
  973MOL0     H34259   2.684   1.772   3.891  1.0360 -0.1828 -1.5445
  973MOL0     H34260   3.041   1.648   4.249 -0.2159 -1.3319 -2.8492
  973MOL0     H34261   3.140   1.498   4.389  1.0773 -1.4333 -0.2652
  973MOL0     H34262   3.217   1.329   4.452  1.2401  3.9859  2.5582
  973MOL0     H34263   3.153   1.331   4.621 -1.7265 -2.9882  1.3972
  973MOL0     H34264   3.121   1.079   4.588 -0.5538  2.1172  2.2537
  973MOL0     H34265   3.266   1.160   4.641  0.1777  3.9756 -0.8057
  973MOL0     H34266   3.341   1.164   4.394 -0.1119  0.5625  1.2434
  973MOL0     H34267   3.334   1.000   4.459  2.4989  1.0869 -3.4937
  973MOL0     H34268   3.139   1.111   4.256 -1.5427 -0.6142 -0.3783
  973MOL0     H34269   3.093   0.981   4.357  0.0242  0.2170  0.2488
  973MOL0     H34270   3.308   0.757   4.102 -4.0154 -1.0462  0.3201
  973MOL0     H34271   2.777   1.285   4.429 -1.2185  1.5258  1.8826
  973MOL0     H34272   2.564   1.556   4.362  1.3541  1.7534 -1.3562
  973MOL0     H34273   2.575   1.436   4.227  1.7747  0.8647 -0.1357
  973MOL0     H34274   2.588   1.383   4.400  2.7298 -1.5900 -0.5672
  974MOL0     O34275   1.094   6.946   0.782  0.4377  0.5796  0.2063
  974MOL0     C34276   1.045   6.878   0.699 -0.1364  0.1833  0.6755
  974MOL0     O34277   0.971   6.760   0.724 -0.7091 -0.2993  0.5105
  974MOL0     C34278   0.983   6.676   0.831 -0.5222  0.3223 -0.2455
  974MOL0     C34279   0.869   6.619   0.884  0.5378 -0.6919  0.5329
  974MOL0     C34280   0.883   6.529   0.985  0.2684  1.2843 -0.4709
  974MOL0     C34281   1.006   6.492   1.046 -1.2252 -0.1736  1.0909
  974MOL0     O34282   1.009   6.384   1.140  0.8062 -0.1566 -0.6608
  974MOL0     C34283   1.032   6.422   1.282 -0.6748 -0.1197 -0.1119
  974MOL0     C34284   0.899   6.460   1.352  0.6296  0.5571 -0.3475
  974MOL0     C34285   0.828   6.328   1.401  0.5994  0.0865 -0.2644
  974MOL0     C34286   0.811   6.228   1.286  0.3859  0.0026  0.3511
  974MOL0     C34287   0.737   6.104   1.343 -0.5510 -0.5272  0.0560
  974MOL0     C34288   0.709   5.996   1.239  0.7346  0.0895 -0.6050
  974MOL0     C34289   0.594   6.023   1.139  0.6757  1.2727  0.0650
  974MOL0     C34290   0.587   5.907   1.027 -1.3341 -0.3450 -0.5620
  974MOL0     N34291   0.579   5.774   1.086 -0.5205  0.8300  0.3757
  974MOL0     C34292   0.472   5.688   1.059 -0.6724  0.3459  0.1234
  974MOL0     C34293   0.512   5.571   1.124  1.0496 -0.8463  0.2596
  974MOL0     C34294   0.424   5.450   1.124 -0.7403 -0.5282 -0.0669
  974MOL0     C34295   0.289   5.455   1.046  0.1848 -0.3648 -0.9834
  974MOL0     C34296   0.218   5.324   1.047  0.9140  0.0911 -0.1285
  974MOL0     C34297   0.119   5.313   0.923  0.7835  0.4539  0.2178
  974MOL0     O34298   0.060   5.188   0.939 -0.5869 -0.3648 -0.0214
  974MOL0     C34299  -0.056   5.166   0.866 -0.7151  0.0343  0.1969
  974MOL0     C34300  -0.125   5.254   0.774  0.3238  0.1485  0.4697
  974MOL0     C34301  -0.242   5.216   0.714  0.1993 -0.1239  0.3957
  974MOL0     C34302  -0.283   5.309   0.603  0.7269  0.4799  0.5191
  974MOL0     C34303  -0.306   5.088   0.741  0.0048  0.5161 -1.1875
  974MOL0     C34304  -0.433   5.053   0.679  0.0192  0.1432  0.0034
  974MOL0     O34305  -0.457   4.920   0.688  0.3839 -0.3129 -0.0001
  974MOL0     C34306  -0.583   4.873   0.695  0.3763  0.4253 -0.5923
  974MOL0     C34307  -0.641   4.781   0.598 -0.3249 -0.6994  0.7141
  974MOL0     C34308  -0.763   4.718   0.617 -0.1257  0.2761 -0.1023
  974MOL0     C34309  -0.837   4.757   0.733  0.3509 -0.4782 -1.3341
  974MOL0     O34310  -0.954   4.687   0.761  0.0910  0.9874 -1.1595
  974MOL0     C34311  -0.947   4.545   0.741  0.2435 -0.6964 -0.0985
  974MOL0     C34312  -0.877   4.477   0.852  0.9405 -0.1145 -0.7431
  974MOL0     C34313  -0.909   4.322   0.863  0.7075  0.1249 -0.2522
  974MOL0     C34314  -0.778   4.240   0.848 -0.3249 -0.3808 -0.2918
  974MOL0     C34315  -0.818   4.092   0.868  0.1415 -0.4113 -0.8301
  974MOL0     C34316  -0.696   4.011   0.905  0.4541  0.1092 -0.6937
  974MOL0     C34317  -0.745   3.874   0.939 -0.7670  1.0197  0.0215
  974MOL0     C34318  -0.621   3.790   0.980 -0.0559 -0.0155 -0.0429
  974MOL0    Cl34319  -0.556   3.829   1.138  0.4404  0.2032 -0.1198
  974MOL0     C34320  -0.785   4.852   0.824  0.2183 -0.0969 -0.6636
  974MOL0     C34321  -0.652   4.898   0.813 -0.0183  0.3116 -0.3259
  974MOL0     O34322  -0.517   5.139   0.639  0.0728  0.0030  0.1508
  974MOL0     C34323  -0.231   5.001   0.832  0.4189  0.2003 -0.0404
  974MOL0     C34324  -0.109   5.036   0.881 -0.4471  0.0541  0.6064
  974MOL0     N34325   0.644   5.592   1.168  0.8306  0.7867 -0.2810
  974MOL0     N34326   0.685   5.709   1.146 -0.4106 -0.2254 -1.2878
  974MOL0     C34327   1.129   6.554   0.991 -0.6817 -0.8366  0.0609
  974MOL0     C34328   1.111   6.646   0.881 -0.1616  0.5929  0.6814
  974MOL0     C34329   1.048   6.910   0.563 -0.0203  0.4334  0.1502
  974MOL0     C34330   0.946   6.979   0.509 -0.1398 -0.0986 -0.4996
  974MOL0     C34331   0.946   7.013   0.379 -0.5806 -0.0228  0.5787
  974MOL0     C34332   1.043   6.969   0.292  0.4274  0.3921  0.0802
  974MOL0     O34333   1.031   6.999   0.164  0.3050  0.7051  0.5611
  974MOL0     C34334   1.019   6.875   0.080 -0.0041 -0.7002  0.9515
  974MOL0     C34335   0.872   6.852   0.054 -0.2457  0.8346  0.2532
  974MOL0     C34336   0.799   6.981   0.014  0.3169 -0.0860  0.1969
  974MOL0     C34337   0.665   6.963  -0.062  0.0428  0.8323 -0.4708
  974MOL0     C34338   0.580   6.856   0.007 -0.8938 -0.9558 -1.2284
  974MOL0     C34339   0.500   6.792   0.066 -0.3206 -0.0279 -1.1759
  974MOL0     C34340   1.152   6.899   0.348  0.1304 -0.1645 -0.2372
  974MOL0     C34341   1.145   6.861   0.478  0.9507 -0.5445 -1.0810
  974MOL0     C34342   1.253   6.785   0.535 -0.0637 -0.5476 -0.3823
  974MOL0     H34343   0.773   6.640   0.837  0.6169 -2.2999 -0.4572
  974MOL0     H34344   0.796   6.469   1.010  0.0520  1.0391 -1.7538
  974MOL0     H34345   1.097   6.509   1.297  0.3142 -0.7190 -0.8136
  974MOL0     H34346   1.084   6.343   1.336 -1.3427  0.6651  1.7581
  974MOL0     H34347   0.923   6.519   1.441 -0.1544  4.0623 -2.2704
  974MOL0     H34348   0.833   6.512   1.282  1.6754 -0.6943 -2.3591
  974MOL0     H34349   0.884   6.280   1.482  1.6070  0.9454 -0.4333
  974MOL0     H34350   0.728   6.366   1.422 -0.4011 -1.6459 -1.6505
  974MOL0     H34351   0.752   6.262   1.201 -2.5352 -2.6759  1.0971
  974MOL0     H34352   0.903   6.181   1.249  1.4454  0.3518  2.4007
  974MOL0     H34353   0.639   6.133   1.383  0.1287  2.3221 -0.1391
  974MOL0     H34354   0.797   6.049   1.416 -1.4187 -0.7250  0.6339
  974MOL0     H34355   0.801   5.956   1.197  0.7458  0.3074 -0.7909
  974MOL0     H34356   0.685   5.915   1.308 -2.0632  1.5904  0.3871
  974MOL0     H34357   0.613   6.118   1.089 -1.5049  2.1082  0.7251
  974MOL0     H34358   0.497   6.032   1.188 -0.3083  1.6882 -1.8594
  974MOL0     H34359   0.518   5.932   0.946  0.5567 -2.1847 -2.8711
  974MOL0     H34360   0.682   5.912   0.974 -1.0726 -2.5308 -0.3639
  974MOL0     H34361   0.379   5.710   1.007  0.7096  4.1232 -1.0446
  974MOL0     H34362   0.403   5.432   1.229 -1.2255 -0.3637 -0.1348
  974MOL0     H34363   0.476   5.362   1.085  1.1023  0.7094 -0.5790
  974MOL0     H34364   0.229   5.534   1.092  1.3604  0.3704 -0.6785
  974MOL0     H34365   0.315   5.484   0.944 -1.8818 -2.7547 -2.3021
  974MOL0     H34366   0.274   5.232   1.029 -0.5686 -0.8199 -0.2738
  974MOL0     H34367   0.178   5.305   1.147  1.3897 -2.3570 -0.3381
  974MOL0     H34368   0.043   5.390   0.939  1.8824  1.5703  0.2675
  974MOL0     H34369   0.175   5.301   0.830 -1.4102 -0.5388 -1.0507
  974MOL0     H34370  -0.062   5.340   0.755  2.7224 -1.6530 -0.3221
  974MOL0     H34371  -0.195   5.341   0.546 -0.4214  1.6398 -0.6547
  974MOL0     H34372  -0.351   5.380   0.651 -1.0875 -2.7717  3.1876
  974MOL0     H34373  -0.341   5.261   0.524  3.0913 -2.0284  0.1323
  974MOL0     H34374  -0.582   4.758   0.510 -0.7008 -0.1921  0.3265
  974MOL0     H34375  -0.806   4.659   0.536 -2.2770  1.8713 -0.1980
  974MOL0     H34376  -1.053   4.521   0.752 -0.8049  4.1019  3.7759
  974MOL0     H34377  -0.916   4.510   0.642 -1.3756 -0.2991 -0.7884
  974MOL0     H34378  -0.769   4.495   0.852  0.7981  0.9265  1.0513
  974MOL0     H34379  -0.915   4.527   0.941  0.2270  2.2628 -2.2746
  974MOL0     H34380  -0.986   4.278   0.798  0.9377 -1.9794  0.8097
  974MOL0     H34381  -0.941   4.314   0.967  0.1468 -0.9572 -0.4938
  974MOL0     H34382  -0.703   4.271   0.921  1.8722  1.7298 -3.2064
  974MOL0     H34383  -0.733   4.268   0.752  2.6588  1.6041  1.5236
  974MOL0     H34384  -0.891   4.082   0.948  0.3553  0.1888 -0.5533
  974MOL0     H34385  -0.861   4.063   0.771 -2.0231  3.9946 -1.4672
  974MOL0     H34386  -0.672   4.052   1.003 -2.4888  0.5088 -0.0580
  974MOL0     H34387  -0.616   4.014   0.831  0.7859 -3.1195 -0.6144
  974MOL0     H34388  -0.786   3.829   0.848 -0.7446  0.5630  0.2326
  974MOL0     H34389  -0.822   3.877   1.017 -3.2637  0.6654 -2.2635
  974MOL0     H34390  -0.538   3.802   0.910  1.0386 -0.7786  1.0848
  974MOL0     H34391  -0.656   3.686   0.983 -0.0352 -0.0015  0.7427
  974MOL0     H34392  -0.851   4.861   0.910 -0.7864 -2.7580 -1.0535
  974MOL0     H34393  -0.598   4.939   0.898 -0.5969 -5.0632  3.1029
  974MOL0     H34394  -0.268   4.900   0.846  0.7313  0.0474 -0.3006
  974MOL0     H34395  -0.050   4.977   0.951  1.5136  2.0545  0.7668
  974MOL0     H34396   1.230   6.531   1.025 -0.2041 -3.5539 -2.7956
  974MOL0     H34397   1.199   6.670   0.822 -0.2160  0.8388  0.7002
  974MOL0     H34398   0.867   7.012   0.575  0.4255  1.5473 -0.6099
  974MOL0     H34399   0.853   7.062   0.352  0.6183  2.6046  0.9075
  974MOL0     H34400   1.057   6.906  -0.018  5.6576 -3.3873  1.8710
  974MOL0     H34401   1.081   6.794   0.121  3.7103  1.6463  0.4933
  974MOL0     H34402   0.812   6.803   0.132 -0.3136 -1.3261 -1.0846
  974MOL0     H34403   0.870   6.786  -0.033 -2.8564 -1.2687  1.7333
  974MOL0     H34404   0.790   7.044   0.103  1.4571  2.3194 -1.3037
  974MOL0     H34405   0.858   7.037  -0.058 -1.6125 -1.6598 -2.8209
  974MOL0     H34406   0.688   6.911  -0.155  4.0461  1.2207  0.1157
  974MOL0     H34407   0.613   7.059  -0.070  0.7380  1.3825  1.1088
  974MOL0     H34408   0.424   6.729   0.109  0.1764  1.0837  1.5439
  974MOL0     H34409   1.239   6.872   0.288  0.3325  3.7240 -1.9972
  974MOL0     H34410   1.208   6.694   0.576  1.7028 -1.2152  0.1693
  974MOL0     H34411   1.328   6.760   0.460  0.6207  0.1507  0.0495
  974MOL0     H34412   1.306   6.837   0.615  0.7003 -1.4440 -0.2949
  975MOL0     O34413   9.572   6.413   4.758 -0.4280  0.6467  0.5298
  975MOL0     C34414   9.597   6.534   4.723  0.3096  0.3982 -0.4620
  975MOL0     O34415   9.591   6.640   4.813 -0.5642 -0.4037 -0.3394
  975MOL0     C34416   9.519   6.628   4.926 -0.5960 -0.3053 -0.3045
  975MOL0     C34417   9.377   6.607   4.927  0.4649 -0.8819 -0.1498
  975MOL0     C34418   9.306   6.574   5.044 -0.5294  0.1865  0.3289
  975MOL0     C34419   9.376   6.558   5.160  0.4790 -0.6896  0.4645
  975MOL0     O34420   9.314   6.541   5.279  0.8028 -0.5693 -0.5697
  975MOL0     C34421   9.194   6.468   5.270 -0.1609  0.9211  0.5455
  975MOL0     C34422   9.147   6.418   5.409 -0.6533 -0.4480  1.0257
  975MOL0     C34423   9.070   6.288   5.426 -0.4254  0.2139 -0.4369
  975MOL0     C34424   8.966   6.262   5.317  0.5153 -0.9847 -0.1004
  975MOL0     C34425   8.845   6.179   5.362  0.2769  0.3493 -0.5355
  975MOL0     C34426   8.747   6.267   5.434  0.1321 -0.2081  0.1864
  975MOL0     C34427   8.676   6.377   5.347 -0.4018  0.3708 -0.6879
  975MOL0     C34428   8.602   6.483   5.435  0.1761 -0.0428 -0.6090
  975MOL0     N34429   8.465   6.462   5.451  0.7521  0.5231 -0.0574
  975MOL0     C34430   8.386   6.563   5.496  0.2666 -0.5546 -0.3046
  975MOL0     C34431   8.267   6.516   5.491  0.3420  0.3207  0.9945
  975MOL0     C34432   8.139   6.586   5.469  0.5454  0.5114 -0.8687
  975MOL0     C34433   8.086   6.690   5.569 -0.8163 -0.2243  0.4757
  975MOL0     C34434   7.948   6.728   5.532  0.1133  0.0923 -1.4449
  975MOL0     C34435   7.913   6.833   5.640 -0.3683  0.0390  0.4358
  975MOL0     O34436   7.988   6.946   5.607  0.1645 -0.5817  0.1455
  975MOL0     C34437   7.961   7.077   5.661 -0.0452  0.4807  0.3028
  975MOL0     C34438   8.052   7.177   5.647 -0.1939 -0.1344 -0.4700
  975MOL0     C34439   8.050   7.304   5.721  0.7889 -0.4740  0.1880
  975MOL0     C34440   8.161   7.413   5.699  0.1357 -0.1854  0.6256
  975MOL0     C34441   7.928   7.336   5.789 -0.6038  0.7130  0.6922
  975MOL0     C34442   7.898   7.463   5.849 -0.8311 -0.5901 -0.7785
  975MOL0     O34443   7.836   7.454   5.975 -0.6622 -0.0045 -0.1971
  975MOL0     C34444   7.832   7.558   6.067 -0.4225  1.0974 -0.9879
  975MOL0     C34445   7.786   7.518   6.191 -0.1830 -0.5028  0.2211
  975MOL0     C34446   7.787   7.609   6.304  0.9892 -0.2825  0.0423
  975MOL0     C34447   7.804   7.740   6.281 -0.1949 -0.7347  0.8700
  975MOL0     O34448   7.798   7.820   6.391  0.1252  0.3879 -0.3792
  975MOL0     C34449   7.690   7.910   6.385 -0.0619 -0.4956  0.1673
  975MOL0     C34450   7.651   7.951   6.531 -0.2296  0.0990  0.5863
  975MOL0     C34451   7.541   8.054   6.524 -0.4158  0.2788  0.1872
  975MOL0     C34452   7.586   8.191   6.482  0.3394 -0.0460 -0.2216
  975MOL0     C34453   7.486   8.309   6.513  0.8186  0.8394 -0.4612
  975MOL0     C34454   7.501   8.375   6.649 -0.4187  0.1024  0.0942
  975MOL0     C34455   7.625   8.460   6.667 -0.4929 -0.1837 -0.2982
  975MOL0     C34456   7.690   8.435   6.805  0.7999 -0.0061 -0.6320
  975MOL0    Cl34457   7.592   8.531   6.918  0.3437  0.3947  0.5810
  975MOL0     C34458   7.829   7.787   6.154 -0.5917  0.4976 -0.0760
  975MOL0     C34459   7.853   7.696   6.048  0.1518  0.4504  0.3242
  975MOL0     O34460   7.932   7.562   5.789  0.2813  0.1439  0.3172
  975MOL0     C34461   7.838   7.235   5.811 -1.1878 -0.6870 -0.5992
  975MOL0     C34462   7.853   7.107   5.747 -0.6171  0.0591 -0.1269
  975MOL0     N34463   8.278   6.382   5.439  0.2671  0.2269 -0.9679
  975MOL0     N34464   8.399   6.350   5.425  0.3231  0.0575 -0.0075
  975MOL0     C34465   9.513   6.582   5.157 -0.7745 -0.7210 -1.0768
  975MOL0     C34466   9.588   6.607   5.037  0.5394  0.3256 -0.4290
  975MOL0     C34467   9.631   6.561   4.580  0.6288 -0.4341 -1.0592
  975MOL0     C34468   9.582   6.467   4.490  1.0550 -0.0187 -0.2149
  975MOL0     C34469   9.589   6.494   4.357  0.3116 -0.0884 -0.4145
  975MOL0     C34470   9.659   6.599   4.317 -0.8481 -0.1000  0.2461
  975MOL0     O34471   9.668   6.630   4.185  0.5652 -0.6735  0.3760
  975MOL0     C34472   9.766   6.558   4.108  0.3663  0.6692  0.3661
  975MOL0     C34473   9.914   6.614   4.131  0.0593 -0.7574  0.7550
  975MOL0     C34474   9.949   6.746   4.051  0.6509 -1.1387  0.7816
  975MOL0     C34475   9.891   6.875   4.108  0.9480  0.1856  0.2383
  975MOL0     C34476   9.958   6.986   4.038  0.1742  0.1917  0.1554
  975MOL0     C34477  10.006   7.079   3.979 -0.6366  0.2978  0.0789
  975MOL0     C34478   9.720   6.691   4.399  0.4594  0.3948 -0.8105
  975MOL0     C34479   9.702   6.680   4.539  0.0207  1.0115  0.1415
  975MOL0     C34480   9.758   6.780   4.632 -0.0378 -0.2753 -0.4791
  975MOL0     H34481   9.328   6.620   4.832 -1.2359  0.8032  0.8884
  975MOL0     H34482   9.198   6.565   5.045 -0.4956 -0.8467  3.0009
  975MOL0     H34483   9.183   6.380   5.207  1.0604  0.2135  1.2958
  975MOL0     H34484   9.121   6.545   5.243  0.3100  1.4698  0.8206
  975MOL0     H34485   9.240   6.412   5.466  0.2188 -2.9963 -0.5201
  975MOL0     H34486   9.075   6.494   5.441 -2.0260 -1.7350  1.1109
  975MOL0     H34487   9.142   6.206   5.429  0.4275  0.9558 -0.1485
  975MOL0     H34488   9.022   6.300   5.523  2.5973  1.8235  0.9845
  975MOL0     H34489   8.935   6.358   5.276  2.8131  0.9222  2.2894
  975MOL0     H34490   9.008   6.200   5.237 -0.8717 -2.1702  0.0485
  975MOL0     H34491   8.886   6.099   5.425  0.8922 -0.8591 -2.3718
  975MOL0     H34492   8.785   6.134   5.283  0.0970 -1.5360  0.6159
  975MOL0     H34493   8.670   6.204   5.480  2.6786 -1.4823  3.1290
  975MOL0     H34494   8.795   6.311   5.522 -1.0082 -0.5101  0.9858
  975MOL0     H34495   8.602   6.334   5.278 -2.0809  4.4132 -1.7077
  975MOL0     H34496   8.754   6.435   5.297  2.8801 -2.0175  1.2630
  975MOL0     H34497   8.639   6.494   5.538  0.6611 -1.4099 -0.6197
  975MOL0     H34498   8.624   6.571   5.374 -2.1986  1.3343  0.3633
  975MOL0     H34499   8.402   6.667   5.521  0.4706 -1.0494  1.8349
  975MOL0     H34500   8.059   6.511   5.471 -1.0037  2.1271  0.6381
  975MOL0     H34501   8.144   6.630   5.369  1.1475 -1.9024 -1.9914
  975MOL0     H34502   8.089   6.653   5.671  0.1955  3.1586  1.7979
  975MOL0     H34503   8.159   6.770   5.568 -0.0417 -0.9024 -0.7471
  975MOL0     H34504   7.947   6.770   5.430  2.4528 -1.9611 -2.4125
  975MOL0     H34505   7.888   6.638   5.544  2.2432 -1.2325 -0.2296
  975MOL0     H34506   7.805   6.851   5.644 -1.0852 -3.5644  1.4587
  975MOL0     H34507   7.949   6.813   5.742 -1.3606 -2.5593  0.3537
  975MOL0     H34508   8.141   7.158   5.588  0.0280 -0.1469 -0.1331
  975MOL0     H34509   8.254   7.362   5.672  0.2787  1.4249 -2.2354
  975MOL0     H34510   8.180   7.476   5.786  2.8518 -0.4863  0.3296
  975MOL0     H34511   8.127   7.474   5.615 -0.0966 -1.3972 -0.1908
  975MOL0     H34512   7.760   7.413   6.201 -2.6514  0.0991  0.6136
  975MOL0     H34513   7.751   7.564   6.396  0.3801  3.5615  1.8639
  975MOL0     H34514   7.727   7.997   6.330 -1.8329 -0.2601 -0.7173
  975MOL0     H34515   7.595   7.871   6.347 -0.9132  0.5605  1.1091
  975MOL0     H34516   7.611   7.865   6.585 -0.6951  0.8228  1.4159
  975MOL0     H34517   7.735   7.987   6.591  0.1670  0.1445  0.0182
  975MOL0     H34518   7.483   8.063   6.617  0.8689 -4.1932  1.6565
  975MOL0     H34519   7.467   8.023   6.450 -0.6741  1.2422  0.0291
  975MOL0     H34520   7.613   8.197   6.376  2.3879  2.8941  0.3410
  975MOL0     H34521   7.682   8.202   6.533 -1.9489 -0.3381  4.7234
  975MOL0     H34522   7.502   8.385   6.436  0.4723  0.1820 -1.1958
  975MOL0     H34523   7.389   8.259   6.504  1.5749 -0.7524 -0.1721
  975MOL0     H34524   7.494   8.290   6.716 -1.4147  0.4254  0.4122
  975MOL0     H34525   7.431   8.458   6.660 -0.6013  0.2000 -1.5342
  975MOL0     H34526   7.597   8.565   6.649  2.4250  1.0724  1.7553
  975MOL0     H34527   7.694   8.442   6.584 -1.0430  0.2788 -0.8721
  975MOL0     H34528   7.798   8.450   6.813  1.0624 -1.5910 -0.8025
  975MOL0     H34529   7.673   8.329   6.826 -3.5912  0.5318 -0.5633
  975MOL0     H34530   7.840   7.894   6.137  0.9237  0.4494  0.3860
  975MOL0     H34531   7.887   7.739   5.954 -1.1179  2.1045  0.5745
  975MOL0     H34532   7.772   7.242   5.897  1.5443 -0.1174  1.5967
  975MOL0     H34533   7.791   7.022   5.775 -0.4119  0.3085  1.1422
  975MOL0     H34534   9.568   6.568   5.250 -3.3298  1.8226  0.9908
  975MOL0     H34535   9.696   6.612   5.032  0.4455  1.5865 -2.1517
  975MOL0     H34536   9.536   6.375   4.525 -3.2225  0.7692 -3.0093
  975MOL0     H34537   9.539   6.420   4.295  2.1111 -1.1908 -0.6225
  975MOL0     H34538   9.778   6.452   4.131 -1.7713  0.3004 -0.0508
  975MOL0     H34539   9.736   6.570   4.004  2.6628 -0.5742 -0.5075
  975MOL0     H34540   9.984   6.538   4.095 -0.1042 -0.2517 -0.7288
  975MOL0     H34541   9.944   6.637   4.233 -1.1298 -0.5823  1.0735
  975MOL0     H34542  10.057   6.760   4.044  0.3076  0.9348 -2.6080
  975MOL0     H34543   9.918   6.733   3.946  2.1688  0.4281  0.0963
  975MOL0     H34544   9.912   6.886   4.214 -0.6651  1.0285  0.5098
  975MOL0     H34545   9.782   6.874   4.096  0.6796  2.2402  1.9267
  975MOL0     H34546  10.036   7.157   3.912 -0.1104 -2.3014 -2.9755
  975MOL0     H34547   9.791   6.764   4.364  1.8748  0.3524  1.7549
  975MOL0     H34548   9.844   6.822   4.581 -0.2417 -1.3914 -1.8103
  975MOL0     H34549   9.680   6.850   4.663  0.5579  0.1591  0.0612
  975MOL0     H34550   9.799   6.742   4.726  0.7734 -2.8423 -1.7714
  976MOL0     O34551   7.278   7.710   2.515 -0.3424 -0.0276 -0.8449
  976MOL0     C34552   7.390   7.721   2.480 -0.0967  0.4978 -0.0102
  976MOL0     O34553   7.422   7.721   2.350 -0.0120 -0.4235  0.3265
  976MOL0     C34554   7.324   7.692   2.264  0.3181  0.7164 -0.4188
  976MOL0     C34555   7.250   7.797   2.203  0.0276 -0.0454 -0.8579
  976MOL0     C34556   7.146   7.762   2.117 -0.7513  0.8909  0.5123
  976MOL0     C34557   7.113   7.626   2.087  0.3125  0.7629 -0.1516
  976MOL0     O34558   7.005   7.609   2.010  0.5415 -0.6681 -0.2398
  976MOL0     C34559   7.027   7.646   1.879 -0.4926  1.1158  0.2186
  976MOL0     C34560   6.930   7.579   1.789 -0.6488  0.0468  0.0460
  976MOL0     C34561   6.955   7.420   1.788  0.4499 -0.6103  0.5525
  976MOL0     C34562   6.903   7.355   1.659  0.3211 -0.0849 -0.0963
  976MOL0     C34563   6.963   7.208   1.641 -0.7321 -0.1230  0.3885
  976MOL0     C34564   6.947   7.127   1.770 -0.5519  0.2561 -0.0951
  976MOL0     C34565   6.986   6.982   1.770 -0.5707 -0.1061 -0.2884
  976MOL0     C34566   6.907   6.890   1.671 -0.2578 -0.4933 -0.1495
  976MOL0     N34567   6.789   6.835   1.738  0.1843  0.1919  0.2958
  976MOL0     C34568   6.752   6.834   1.870  0.4637 -0.3949 -0.5105
  976MOL0     C34569   6.623   6.795   1.872 -0.1434 -1.5872 -0.2900
  976MOL0     C34570   6.541   6.766   1.991 -0.5741  0.6367 -0.5166
  976MOL0     C34571   6.544   6.888   2.093  0.6323  0.3533  0.3317
  976MOL0     C34572   6.457   7.002   2.043  0.3861 -0.3083 -0.0598
  976MOL0     C34573   6.509   7.078   1.913 -0.0430 -0.8189 -0.1457
  976MOL0     O34574   6.441   7.208   1.904  0.2526 -0.4615  0.0398
  976MOL0     C34575   6.470   7.324   1.978 -0.1413 -0.0507  0.1007
  976MOL0     C34576   6.382   7.429   1.987  0.1460  0.2599  0.0205
  976MOL0     C34577   6.412   7.548   2.051  0.9245  0.4218 -0.5399
  976MOL0     C34578   6.303   7.657   2.051 -0.3890 -0.3467 -0.4834
  976MOL0     C34579   6.530   7.549   2.132 -0.1883  0.1574  0.6958
  976MOL0     C34580   6.576   7.660   2.212  0.5560  0.4368 -0.7974
  976MOL0     O34581   6.661   7.623   2.310  0.1999  0.2776 -0.3156
  976MOL0     C34582   6.728   7.727   2.378 -0.2229 -0.3661  0.4267
  976MOL0     C34583   6.660   7.822   2.458 -0.0802 -0.1811  0.9250
  976MOL0     C34584   6.735   7.922   2.524  0.0310 -0.2309  0.2122
  976MOL0     C34585   6.876   7.924   2.509 -0.1514 -1.8371  0.4509
  976MOL0     O34586   6.958   8.015   2.563 -0.7654 -0.6862 -0.2121
  976MOL0     C34587   7.075   7.954   2.636  0.0117  0.6156  0.2593
  976MOL0     C34588   7.097   8.054   2.750  0.7793 -0.0565 -0.1673
  976MOL0     C34589   7.226   8.025   2.811 -1.3492  0.1210  0.4186
  976MOL0     C34590   7.298   8.156   2.867  0.4053 -0.8914 -0.1191
  976MOL0     C34591   7.341   8.252   2.751  0.2698 -0.5334  0.4568
  976MOL0     C34592   7.462   8.341   2.779  1.5310 -0.0029 -0.6178
  976MOL0     C34593   7.590   8.267   2.769 -1.0696 -0.0500 -0.5681
  976MOL0     C34594   7.616   8.177   2.655  0.2040 -0.0534  0.0364
  976MOL0    Cl34595   7.606   8.254   2.499 -0.1347  0.0262 -0.1795
  976MOL0     C34596   6.931   7.832   2.426 -0.1954 -1.0998 -0.2910
  976MOL0     C34597   6.859   7.741   2.358  0.0914 -0.6503  0.6727
  976MOL0     O34598   6.535   7.769   2.189 -0.3232  0.3407  0.8168
  976MOL0     C34599   6.617   7.437   2.140  0.0487  1.2677  0.8209
  976MOL0     C34600   6.585   7.332   2.053 -0.5881  0.2447  0.5855
  976MOL0     N34601   6.578   6.783   1.742  0.0640 -0.4768 -0.1403
  976MOL0     N34602   6.676   6.811   1.667  0.2422  0.0812 -0.4270
  976MOL0     C34603   7.194   7.523   2.146 -0.4780 -0.4747 -0.7803
  976MOL0     C34604   7.294   7.559   2.238 -0.0038 -0.0207 -0.0358
  976MOL0     C34605   7.496   7.740   2.583  0.4985  0.0729  0.2638
  976MOL0     C34606   7.611   7.805   2.547 -0.3841 -0.5336  0.3512
  976MOL0     C34607   7.720   7.825   2.622 -0.2828 -0.3554 -0.2541
  976MOL0     C34608   7.723   7.786   2.756  0.5144 -0.2098  0.0021
  976MOL0     O34609   7.840   7.805   2.827 -0.8722 -0.2478  0.6130
  976MOL0     C34610   7.836   7.762   2.960 -0.2665  0.4601 -0.4693
  976MOL0     C34611   7.966   7.806   3.034 -0.1991 -0.6587  0.4549
  976MOL0     C34612   8.096   7.802   2.937  0.1988 -0.2508 -0.4471
  976MOL0     C34613   8.219   7.862   3.006 -0.5509 -0.0641 -0.3913
  976MOL0     C34614   8.344   7.827   2.945 -1.1575  0.1649 -0.2178
  976MOL0     C34615   8.450   7.797   2.898 -0.0989 -0.2452  0.3412
  976MOL0     C34616   7.609   7.707   2.802  0.5924 -0.3488  0.7983
  976MOL0     C34617   7.499   7.695   2.716  0.1468  0.1219  0.2434
  976MOL0     C34618   7.384   7.614   2.769  0.0655  0.1651 -0.9563
  976MOL0     H34619   7.270   7.901   2.227 -1.3808  0.2599 -0.9346
  976MOL0     H34620   7.076   7.837   2.083 -0.6263  0.5848 -0.4560
  976MOL0     H34621   7.129   7.619   1.850 -0.8804  0.4372 -0.5667
  976MOL0     H34622   7.004   7.751   1.860 -2.8333  0.4691 -0.9665
  976MOL0     H34623   6.824   7.605   1.804 -0.8707 -0.9846  0.3218
  976MOL0     H34624   6.949   7.626   1.692  0.1578 -1.6399 -0.6428
  976MOL0     H34625   7.063   7.403   1.783  0.5393  0.0114  0.3703
  976MOL0     H34626   6.928   7.380   1.886  0.2406 -0.3190  0.6149
  976MOL0     H34627   6.794   7.348   1.668  0.4709 -0.7831  1.5837
  976MOL0     H34628   6.939   7.414   1.574  2.9426  1.6535  2.0425
  976MOL0     H34629   7.071   7.216   1.627 -1.0388  0.1103 -2.4581
  976MOL0     H34630   6.920   7.168   1.549 -0.2850  0.9784 -0.3264
  976MOL0     H34631   7.004   7.171   1.853 -1.3273  2.6462 -0.7632
  976MOL0     H34632   6.844   7.137   1.806 -0.1669 -1.0597  1.5118
  976MOL0     H34633   6.998   6.940   1.871 -0.3474 -0.7433 -0.5780
  976MOL0     H34634   7.087   6.976   1.730 -0.4316  0.9763 -0.1423
  976MOL0     H34635   6.875   6.945   1.582 -1.3815 -1.3013 -0.2707
  976MOL0     H34636   6.966   6.807   1.630  1.0705  0.6167 -0.5523
  976MOL0     H34637   6.812   6.850   1.958 -0.3720 -0.4324  0.0737
  976MOL0     H34638   6.593   6.677   2.030  2.4666  1.0415 -3.2045
  976MOL0     H34639   6.442   6.746   1.949 -0.9036  1.9887 -0.4176
  976MOL0     H34640   6.500   6.862   2.190 -0.7642  0.0220 -0.3740
  976MOL0     H34641   6.648   6.900   2.126  1.8956 -1.3749 -2.6015
  976MOL0     H34642   6.352   6.980   2.020  0.8979  0.2762 -3.5369
  976MOL0     H34643   6.469   7.073   2.126  3.0818 -1.3490  0.5492
  976MOL0     H34644   6.615   7.096   1.929 -0.2283  0.5146 -0.2851
  976MOL0     H34645   6.494   7.032   1.815  1.5305 -0.4595 -0.5836
  976MOL0     H34646   6.289   7.415   1.932  2.1185 -4.1832 -2.7485
  976MOL0     H34647   6.257   7.659   2.151 -0.6067 -1.5154 -0.5465
  976MOL0     H34648   6.233   7.637   1.970 -0.0921 -0.8436 -0.6212
  976MOL0     H34649   6.356   7.750   2.028 -2.2558  1.1871  1.0530
  976MOL0     H34650   6.554   7.818   2.482 -0.4715 -2.9484 -0.8186
  976MOL0     H34651   6.684   7.999   2.581 -1.3858 -1.7622  1.1089
  976MOL0     H34652   7.060   7.855   2.679 -1.9654  0.7165 -0.1015
  976MOL0     H34653   7.160   7.934   2.571 -1.7453 -1.9902 -1.4162
  976MOL0     H34654   7.085   8.155   2.710  1.6728 -0.1136 -0.5985
  976MOL0     H34655   7.014   8.036   2.819 -0.8248 -3.0001 -2.6068
  976MOL0     H34656   7.294   7.981   2.738 -0.5220 -0.8694  1.7357
  976MOL0     H34657   7.215   7.949   2.889  0.0289  0.5627  1.0774
  976MOL0     H34658   7.380   8.114   2.926  0.1674  0.3890  1.1762
  976MOL0     H34659   7.230   8.207   2.936  0.8368 -1.1873  0.5247
  976MOL0     H34660   7.357   8.195   2.659 -3.6161 -3.8913  1.6143
  976MOL0     H34661   7.256   8.317   2.730  0.2722 -1.0568 -1.3700
  976MOL0     H34662   7.460   8.368   2.885  0.3140  0.4523 -0.7373
  976MOL0     H34663   7.452   8.433   2.720  0.1198  0.9079  0.9555
  976MOL0     H34664   7.603   8.208   2.860  1.1793  1.2483  0.0339
  976MOL0     H34665   7.679   8.331   2.780  0.6817 -2.3812 -0.4362
  976MOL0     H34666   7.546   8.093   2.650 -0.9729  0.8892  0.3073
  976MOL0     H34667   7.718   8.142   2.673 -0.5543 -2.2032  0.3893
  976MOL0     H34668   7.033   7.843   2.391 -1.0363 -2.9533 -3.8299
  976MOL0     H34669   6.921   7.674   2.301  0.9269  1.8947 -1.6161
  976MOL0     H34670   6.702   7.405   2.199 -0.0254 -2.9633 -1.0471
  976MOL0     H34671   6.649   7.245   2.057  2.3559  2.2551  0.5514
  976MOL0     H34672   7.180   7.419   2.118  1.8893 -1.9262  2.7459
  976MOL0     H34673   7.365   7.488   2.280  0.2045  0.1391 -0.1196
  976MOL0     H34674   7.611   7.833   2.443 -0.4114 -0.5630  0.3432
  976MOL0     H34675   7.803   7.881   2.579 -0.3186 -2.4327 -3.4033
  976MOL0     H34676   7.749   7.794   3.016 -0.1363  0.1240 -0.0694
  976MOL0     H34677   7.838   7.652   2.963  0.9100  0.4858  1.4818
  976MOL0     H34678   7.980   7.730   3.112  1.9581 -1.2180 -0.3929
  976MOL0     H34679   7.946   7.902   3.083  1.8293  1.0941 -1.8882
  976MOL0     H34680   8.120   7.701   2.905  0.6567 -0.2447 -0.1278
  976MOL0     H34681   8.091   7.865   2.848 -2.4806  0.4502  0.0996
  976MOL0     H34682   8.241   7.832   3.109  0.1942  4.4726  1.0003
  976MOL0     H34683   8.216   7.971   3.007  1.6142  0.0756  1.8215
  976MOL0     H34684   8.535   7.759   2.847  0.1427 -3.7563  2.9891
  976MOL0     H34685   7.613   7.652   2.895  0.2318 -0.1686  0.9194
  976MOL0     H34686   7.360   7.519   2.720  1.5285 -1.3343  1.0772
  976MOL0     H34687   7.413   7.596   2.873  3.9003 -0.2737 -1.9667
  976MOL0     H34688   7.295   7.679   2.768 -1.6178 -1.9660  0.1457
  977MOL0     O34689   0.680   5.387   7.991  0.0300  0.2400 -0.4541
  977MOL0     C34690   0.764   5.365   7.909 -0.6966 -0.6285  1.1051
  977MOL0     O34691   0.900   5.348   7.939 -0.4522 -0.5402 -0.1225
  977MOL0     C34692   0.924   5.264   8.039 -1.3508 -0.6067 -0.4324
  977MOL0     C34693   0.848   5.161   8.092  0.2531 -0.1170  1.2160
  977MOL0     C34694   0.899   5.065   8.180 -0.0139  0.5670  0.7740
  977MOL0     C34695   1.028   5.079   8.227 -0.6193  0.3943 -0.0482
  977MOL0     O34696   1.068   4.979   8.308 -0.1287 -0.2187 -0.1858
  977MOL0     C34697   1.195   4.986   8.372  0.5771 -0.3546  0.3010
  977MOL0     C34698   1.222   4.895   8.491 -0.7842  0.4554  1.3364
  977MOL0     C34699   1.102   4.873   8.588  1.0283 -0.7957  0.2049
  977MOL0     C34700   1.030   5.003   8.640  0.3186  0.6757 -0.1390
  977MOL0     C34701   0.880   4.985   8.666  0.3788 -0.3752  0.6239
  977MOL0     C34702   0.804   5.097   8.743 -0.3703  0.3157 -0.5408
  977MOL0     C34703   0.780   5.224   8.664  0.0553 -0.4748 -1.0162
  977MOL0     C34704   0.662   5.218   8.568 -0.4664  0.6648 -0.8523
  977MOL0     N34705   0.618   5.356   8.524 -0.4192 -0.4909  0.1959
  977MOL0     C34706   0.612   5.404   8.391 -0.3329  0.0019  0.0914
  977MOL0     C34707   0.550   5.520   8.406 -0.8346  0.5175  0.8336
  977MOL0     C34708   0.493   5.607   8.301 -0.4621 -0.1812 -0.5742
  977MOL0     C34709   0.554   5.744   8.293  0.2238 -0.6729  0.6567
  977MOL0     C34710   0.485   5.819   8.172 -0.1102 -0.0508 -0.0745
  977MOL0     C34711   0.561   5.786   8.044 -1.2047  0.6734 -0.4415
  977MOL0     O34712   0.477   5.819   7.935  0.1403 -0.2539 -0.6124
  977MOL0     C34713   0.528   5.844   7.812 -0.3497  0.2398 -0.0098
  977MOL0     C34714   0.649   5.791   7.777  0.5504 -0.5854 -0.5628
  977MOL0     C34715   0.691   5.818   7.648  0.3125 -0.2061 -0.4359
  977MOL0     C34716   0.828   5.760   7.619 -0.3799  0.3117 -0.1220
  977MOL0     C34717   0.613   5.885   7.550 -0.0204 -0.9884  1.0539
  977MOL0     C34718   0.650   5.887   7.408 -0.5070  0.4432 -0.7464
  977MOL0     O34719   0.636   5.999   7.338 -0.6288  0.5254  0.6319
  977MOL0     C34720   0.635   6.008   7.207  0.0354  0.2291  1.2163
  977MOL0     C34721   0.559   6.110   7.151 -0.5401  0.6109  0.2418
  977MOL0     C34722   0.580   6.139   7.016 -0.3305  0.2785 -0.2257
  977MOL0     C34723   0.658   6.059   6.929  0.5794 -0.6155  0.1424
  977MOL0     O34724   0.660   6.090   6.798 -0.6530  0.3804 -0.1731
  977MOL0     C34725   0.791   6.119   6.747 -0.7506  0.3678 -0.9526
  977MOL0     C34726   0.786   6.127   6.597 -0.2218 -0.4724 -0.2703
  977MOL0     C34727   0.804   5.991   6.519  0.5577 -0.2313 -0.6596
  977MOL0     C34728   0.886   6.011   6.384  1.5638 -0.8333  0.4111
  977MOL0     C34729   0.822   6.098   6.284  0.2482 -0.0538  0.0356
  977MOL0     C34730   0.684   6.047   6.228  0.3019  0.2299 -0.8405
  977MOL0     C34731   0.712   5.927   6.137  0.2175  0.0758 -1.1564
  977MOL0     C34732   0.592   5.858   6.051  0.1184 -1.5399  0.3743
  977MOL0    Cl34733   0.494   5.976   5.947  0.1018  0.4291  0.2465
  977MOL0     C34734   0.721   5.948   6.984 -0.2531  0.3090 -0.8906
  977MOL0     C34735   0.713   5.925   7.117  0.6033 -0.8151 -0.5612
  977MOL0     O34736   0.664   5.775   7.360  0.3669  0.4108 -0.2285
  977MOL0     C34737   0.496   5.949   7.591  0.2828  0.3322  0.1339
  977MOL0     C34738   0.457   5.927   7.723  0.3380  0.2001 -1.0435
  977MOL0     N34739   0.541   5.544   8.542  0.2517 -0.2375 -0.2555
  977MOL0     N34740   0.586   5.450   8.612 -0.7330 -0.9350  0.1645
  977MOL0     C34741   1.113   5.187   8.177 -0.2856 -0.5406 -0.7411
  977MOL0     C34742   1.064   5.271   8.084  0.6191 -0.3308 -0.2656
  977MOL0     C34743   0.732   5.358   7.760  0.0053  0.1732 -0.7480
  977MOL0     C34744   0.841   5.318   7.668 -0.1446  1.0805  0.1230
  977MOL0     C34745   0.806   5.284   7.540 -0.7162 -0.3134 -0.1469
  977MOL0     C34746   0.682   5.328   7.482  0.0816 -0.0532  0.5288
  977MOL0     O34747   0.666   5.316   7.348  0.5208 -0.1456 -0.3486
  977MOL0     C34748   0.613   5.429   7.276  0.1030 -0.0712 -0.1633
  977MOL0     C34749   0.463   5.418   7.245 -0.4159 -0.0133 -0.0107
  977MOL0     C34750   0.423   5.280   7.203 -0.6567 -0.2104  0.1691
  977MOL0     C34751   0.271   5.261   7.205 -0.1571  0.8069  0.8048
  977MOL0     C34752   0.258   5.117   7.161  0.0256 -0.0787  0.8527
  977MOL0     C34753   0.251   4.998   7.144 -0.3395 -0.1149 -0.3024
  977MOL0     C34754   0.590   5.384   7.569  0.5476 -1.2689 -0.2274
  977MOL0     C34755   0.612   5.407   7.700 -0.2824  0.4408 -0.0958
  977MOL0     C34756   0.497   5.459   7.775 -0.1299 -0.0415 -0.6978
  977MOL0     H34757   0.742   5.166   8.070  0.6619  0.3059 -0.9012
  977MOL0     H34758   0.826   4.995   8.219 -1.0246  2.2539  2.1165
  977MOL0     H34759   1.195   5.088   8.410 -0.8657 -0.4193  0.5395
  977MOL0     H34760   1.280   4.988   8.304  1.8411  1.9010  1.8285
  977MOL0     H34761   1.244   4.793   8.458 -2.2315  0.3461  0.6219
  977MOL0     H34762   1.302   4.931   8.556  0.3120  0.9524 -0.2274
  977MOL0     H34763   1.017   4.828   8.535 -1.8106  1.8289  2.1755
  977MOL0     H34764   1.110   4.798   8.667 -4.9712 -4.5392 -2.0027
  977MOL0     H34765   1.075   5.039   8.733  0.4671 -0.4740  0.2565
  977MOL0     H34766   1.033   5.081   8.563  0.6073  2.7640  1.8711
  977MOL0     H34767   0.860   4.895   8.724  1.2761 -0.0527  1.4512
  977MOL0     H34768   0.839   4.969   8.566  4.7600 -0.2966 -1.4348
  977MOL0     H34769   0.705   5.067   8.778  1.6052 -1.3606  4.5399
  977MOL0     H34770   0.856   5.117   8.837  0.9551 -2.8674 -0.4642
  977MOL0     H34771   0.874   5.251   8.615  1.3443 -1.7717  0.6117
  977MOL0     H34772   0.763   5.292   8.748  1.1695 -0.0664 -1.1077
  977MOL0     H34773   0.693   5.177   8.472 -1.2623 -0.7390 -0.5227
  977MOL0     H34774   0.573   5.164   8.600 -1.2776  2.2229 -0.3852
  977MOL0     H34775   0.622   5.359   8.293 -3.7022 -2.2964  0.6461
  977MOL0     H34776   0.386   5.616   8.324 -0.6719  0.4778 -1.7133
  977MOL0     H34777   0.493   5.561   8.201  1.5540 -0.5121 -0.4581
  977MOL0     H34778   0.523   5.801   8.381 -2.3650  1.2311 -1.3221
  977MOL0     H34779   0.662   5.758   8.281  0.7721 -2.6287  2.6265
  977MOL0     H34780   0.377   5.802   8.163 -0.5500  2.3200 -0.1377
  977MOL0     H34781   0.495   5.926   8.194  1.4383  0.1402 -1.5187
  977MOL0     H34782   0.660   5.832   8.036 -0.0454 -1.7152 -0.5892
  977MOL0     H34783   0.585   5.680   8.037 -1.6316  0.4925  0.6151
  977MOL0     H34784   0.704   5.727   7.845 -1.6169  0.1779  2.1080
  977MOL0     H34785   0.886   5.743   7.710  0.6903 -0.3563 -0.9074
  977MOL0     H34786   0.896   5.835   7.578  0.8833 -2.0055 -2.6115
  977MOL0     H34787   0.826   5.662   7.570  3.4340  0.0505 -0.0665
  977MOL0     H34788   0.485   6.168   7.204 -1.4816 -0.1399 -0.2178
  977MOL0     H34789   0.527   6.227   6.980 -0.9198  0.5869  1.3159
  977MOL0     H34790   0.808   6.218   6.788  1.4249  0.3108 -1.6307
  977MOL0     H34791   0.879   6.066   6.784  0.2481  3.8809  2.3032
  977MOL0     H34792   0.699   6.187   6.568  1.5686  2.4398 -0.0122
  977MOL0     H34793   0.872   6.189   6.571  0.0951 -1.0628 -0.6251
  977MOL0     H34794   0.705   5.950   6.498 -0.7425  2.9423 -1.3669
  977MOL0     H34795   0.853   5.918   6.584 -2.6879 -1.9759  0.0400
  977MOL0     H34796   0.914   5.913   6.344 -1.0283 -1.1167 -0.9244
  977MOL0     H34797   0.982   6.054   6.415  1.3477 -0.5648  0.7167
  977MOL0     H34798   0.808   6.200   6.322  1.1328  1.0642 -2.4429
  977MOL0     H34799   0.888   6.114   6.199 -1.2442  2.4267 -0.7600
  977MOL0     H34800   0.642   6.125   6.163 -0.5000 -0.3097 -0.9847
  977MOL0     H34801   0.602   6.028   6.298 -3.4728  1.1352 -4.5881
  977MOL0     H34802   0.758   5.843   6.189 -0.2964  1.0012  0.9080
  977MOL0     H34803   0.782   5.966   6.062  1.0651  1.9604  0.5098
  977MOL0     H34804   0.514   5.828   6.122 -1.6060  0.4621 -0.5640
  977MOL0     H34805   0.634   5.773   5.997 -0.5060 -2.4478  1.2737
  977MOL0     H34806   0.796   5.891   6.929  1.8393  2.1327 -0.0489
  977MOL0     H34807   0.772   5.852   7.172  1.3645  0.3175  0.1512
  977MOL0     H34808   0.435   6.005   7.520  1.6928 -2.5552 -3.6945
  977MOL0     H34809   0.365   5.962   7.768 -0.2315 -1.3746 -0.8988
  977MOL0     H34810   1.217   5.196   8.207 -0.6530  0.7205  0.2529
  977MOL0     H34811   1.124   5.349   8.037 -0.8130  0.0821 -1.4897
  977MOL0     H34812   0.941   5.309   7.709 -0.1297  1.0415  0.0788
  977MOL0     H34813   0.875   5.234   7.473  2.2402  0.6266  2.0149
  977MOL0     H34814   0.644   5.518   7.331 -3.3733  1.1548  0.0558
  977MOL0     H34815   0.675   5.432   7.186 -1.2409  3.4249 -1.1516
  977MOL0     H34816   0.429   5.481   7.162 -0.1969 -3.6093 -3.1212
  977MOL0     H34817   0.408   5.439   7.337 -0.0210 -2.2468  0.8071
  977MOL0     H34818   0.468   5.258   7.106 -1.7304  1.3111 -0.7146
  977MOL0     H34819   0.477   5.207   7.264 -0.0541 -1.2905 -1.5759
  977MOL0     H34820   0.217   5.329   7.139  0.8084  2.6776  1.8832
  977MOL0     H34821   0.226   5.269   7.304  0.1130  0.5179  0.9539
  977MOL0     H34822   0.270   4.893   7.127 -2.4750 -0.7628  0.9565
  977MOL0     H34823   0.498   5.420   7.524  0.6445 -1.0695 -0.2640
  977MOL0     H34824   0.459   5.379   7.840  0.7359  1.1827  1.4456
  977MOL0     H34825   0.519   5.553   7.827 -1.5108  0.2563 -0.6241
  977MOL0     H34826   0.421   5.503   7.710  1.8053  1.5838 -1.9703
  978MOL0     O34827   1.610   7.484   7.597 -0.2750 -0.2513  0.0196
  978MOL0     C34828   1.514   7.465   7.522 -0.2087 -0.1447  0.3325
  978MOL0     O34829   1.447   7.565   7.460  0.3726  0.2339  0.3382
  978MOL0     C34830   1.498   7.687   7.465  0.4623 -0.5904 -0.3754
  978MOL0     C34831   1.395   7.787   7.481 -0.0614 -0.4625  0.0290
  978MOL0     C34832   1.425   7.917   7.497 -0.1762  0.4193  0.0471
  978MOL0     C34833   1.553   7.967   7.500 -0.3328 -1.1076 -0.1204
  978MOL0     O34834   1.600   8.101   7.524 -0.1806  0.5572 -0.0309
  978MOL0     C34835   1.502   8.204   7.551  0.9821 -0.6843  0.4293
  978MOL0     C34836   1.429   8.253   7.430  0.5137  0.1638  0.5567
  978MOL0     C34837   1.515   8.319   7.326 -0.5755 -0.3041 -0.5923
  978MOL0     C34838   1.594   8.445   7.371  0.0056  0.7074 -0.7851
  978MOL0     C34839   1.664   8.504   7.256  0.5397 -0.7023  0.0019
  978MOL0     C34840   1.580   8.589   7.169 -0.4385  0.0049 -0.1500
  978MOL0     C34841   1.565   8.729   7.214  0.0481 -0.3151 -0.9390
  978MOL0     C34842   1.563   8.832   7.105  0.4719 -0.7525 -0.6052
  978MOL0     N34843   1.535   8.966   7.164 -0.1503 -0.5059 -0.0372
  978MOL0     C34844   1.521   9.070   7.080 -0.1235 -0.5525  0.0701
  978MOL0     C34845   1.481   9.177   7.159 -0.0294 -0.3416 -0.8705
  978MOL0     C34846   1.439   9.314   7.119 -0.1519 -0.9355 -0.1069
  978MOL0     C34847   1.293   9.343   7.157  0.7532  0.3421  0.0321
  978MOL0     C34848   1.191   9.271   7.054  0.4514 -1.3131 -0.2249
  978MOL0     C34849   1.049   9.267   7.119 -0.8379 -0.8447 -0.9714
  978MOL0     O34850   0.960   9.361   7.055 -0.5496  0.9177  0.3782
  978MOL0     C34851   0.865   9.414   7.134  0.4275  0.2597 -1.6992
  978MOL0     C34852   0.769   9.334   7.213 -0.7040 -0.1596 -0.4950
  978MOL0     C34853   0.669   9.397   7.285 -0.1523  0.3526 -0.3646
  978MOL0     C34854   0.579   9.298   7.362  0.2175 -1.1457  0.0568
  978MOL0     C34855   0.651   9.539   7.292 -0.4646 -0.4766  0.3406
  978MOL0     C34856   0.548   9.610   7.374 -1.6874 -0.0232  0.9220
  978MOL0     O34857   0.579   9.742   7.379  0.3381 -0.4683 -0.9384
  978MOL0     C34858   0.467   9.820   7.418 -0.2230 -0.7817  0.7644
  978MOL0     C34859   0.436   9.859   7.549  0.5277  0.1258  0.3096
  978MOL0     C34860   0.322   9.938   7.577  0.0196 -0.1040  0.3698
  978MOL0     C34861   0.238   9.986   7.472  0.8768 -0.3289  0.5895
  978MOL0     O34862   0.137  10.072   7.495 -0.2201  0.2796 -0.0935
  978MOL0     C34863   0.023  10.025   7.571 -0.0217 -0.3729  0.2194
  978MOL0     C34864   0.020  10.101   7.705  0.1884  0.6197 -0.2807
  978MOL0     C34865   0.008  10.251   7.688 -0.6289 -0.8637 -0.1184
  978MOL0     C34866  -0.030  10.333   7.813 -0.4720 -0.6376  0.1981
  978MOL0     C34867  -0.042  10.482   7.772 -0.1750 -1.1193 -0.9005
  978MOL0     C34868  -0.041  10.579   7.893  0.3134 -0.5051 -0.5021
  978MOL0     C34869  -0.165  10.551   7.971  0.2995  0.0048 -0.3113
  978MOL0     C34870  -0.201  10.661   8.071 -1.6211 -0.4421  0.2324
  978MOL0    Cl34871  -0.305  10.792   8.001  0.1556 -0.2981 -0.3581
  978MOL0     C34872   0.270   9.952   7.336 -0.0214 -0.4290  0.2970
  978MOL0     C34873   0.378   9.871   7.317 -0.5689  0.0825  0.3712
  978MOL0     O34874   0.457   9.558   7.431 -0.6456 -0.0386  0.3579
  978MOL0     C34875   0.744   9.613   7.226 -0.6428 -0.4116  0.4222
  978MOL0     C34876   0.853   9.551   7.151  0.0921  0.6093  0.0223
  978MOL0     N34877   1.494   9.141   7.288  0.6698  0.0446  0.0244
  978MOL0     N34878   1.518   9.013   7.292 -0.1651  1.2748 -0.3956
  978MOL0     C34879   1.655   7.871   7.507  0.5297 -0.0493 -0.3423
  978MOL0     C34880   1.630   7.736   7.474 -0.1343 -0.0748 -0.7704
  978MOL0     C34881   1.463   7.330   7.491 -0.0936 -0.1602  0.0527
  978MOL0     C34882   1.413   7.308   7.363 -0.1996  0.3777 -0.6042
  978MOL0     C34883   1.367   7.182   7.310  0.0335  0.2427 -0.3812
  978MOL0     C34884   1.347   7.083   7.400  0.6209 -0.3080  0.4569
  978MOL0     O34885   1.292   6.962   7.349  0.0838 -0.5468 -0.6514
  978MOL0     C34886   1.243   6.850   7.431  0.0013 -0.0587 -1.0028
  978MOL0     C34887   1.135   6.874   7.524  0.6033  0.1138 -0.2644
  978MOL0     C34888   1.003   6.900   7.456 -0.3601 -1.4084 -0.7514
  978MOL0     C34889   0.993   7.052   7.426  0.2591 -0.5686  0.6088
  978MOL0     C34890   0.864   7.114   7.447  0.5422  0.1598 -0.8922
  978MOL0     C34891   0.755   7.168   7.467  0.4965 -0.0232 -0.3810
  978MOL0     C34892   1.401   7.095   7.532  0.6645  0.4421 -0.1869
  978MOL0     C34893   1.452   7.216   7.579 -0.0793  0.1746 -0.3689
  978MOL0     C34894   1.499   7.223   7.719  1.7037 -0.8207  0.1891
  978MOL0     H34895   1.295   7.742   7.483  0.4787 -1.7087  0.0722
  978MOL0     H34896   1.347   7.990   7.512  1.5279  2.0671  1.4613
  978MOL0     H34897   1.547   8.294   7.593 -2.0645  1.0638  0.2633
  978MOL0     H34898   1.423   8.168   7.618 -1.7330  1.3326 -1.4755
  978MOL0     H34899   1.392   8.167   7.373 -0.8780  2.1067 -1.6285
  978MOL0     H34900   1.352   8.321   7.465 -0.0803  0.0817 -0.5517
  978MOL0     H34901   1.592   8.244   7.309  0.1854  1.0711 -4.0814
  978MOL0     H34902   1.456   8.334   7.235  0.3125  1.4793 -0.9296
  978MOL0     H34903   1.529   8.522   7.415 -1.9531 -0.4702 -1.4538
  978MOL0     H34904   1.667   8.421   7.448 -1.1416  0.2271  0.1769
  978MOL0     H34905   1.723   8.435   7.196  0.7391 -2.5083  2.1285
  978MOL0     H34906   1.743   8.566   7.299  0.6626 -1.1070  0.3698
  978MOL0     H34907   1.633   8.592   7.073  1.0245 -1.2548  0.5777
  978MOL0     H34908   1.491   8.532   7.140 -0.4029 -0.2542  0.2444
  978MOL0     H34909   1.653   8.759   7.271  0.5558 -1.4675 -1.0986
  978MOL0     H34910   1.480   8.738   7.283  0.4822  2.4902 -0.6207
  978MOL0     H34911   1.660   8.825   7.056  1.6562 -0.4487  1.5691
  978MOL0     H34912   1.487   8.806   7.030 -0.4077 -2.1148  0.7026
  978MOL0     H34913   1.529   9.074   6.972  1.4700  4.2803  0.1030
  978MOL0     H34914   1.468   9.312   7.014  1.5954 -3.8418  0.3177
  978MOL0     H34915   1.508   9.385   7.165  3.0930 -0.6376 -4.7253
  978MOL0     H34916   1.283   9.307   7.260  2.6142 -0.4639 -0.0353
  978MOL0     H34917   1.279   9.451   7.167 -1.0433  0.0310  1.4271
  978MOL0     H34918   1.181   9.332   6.964 -2.3461  1.7935  1.9425
  978MOL0     H34919   1.230   9.173   7.025  0.2179 -0.7063 -2.8884
  978MOL0     H34920   1.006   9.167   7.103 -1.2742 -1.1870  1.8990
  978MOL0     H34921   1.046   9.293   7.225  2.7050 -0.8139 -0.7340
  978MOL0     H34922   0.775   9.229   7.189  0.7674 -0.2324  0.0544
  978MOL0     H34923   0.474   9.323   7.344  1.0379  1.7316 -1.2060
  978MOL0     H34924   0.593   9.302   7.471  1.4920 -1.9016 -0.0628
  978MOL0     H34925   0.581   9.191   7.337  0.4180 -2.7210  5.4035
  978MOL0     H34926   0.511   9.843   7.625  0.4351 -3.8331 -0.2491
  978MOL0     H34927   0.317   9.978   7.678 -0.7579 -0.7725  0.6061
  978MOL0     H34928  -0.070  10.053   7.522 -0.1122  0.1500  0.6849
  978MOL0     H34929   0.032   9.916   7.584  0.1024 -0.1489  2.2710
  978MOL0     H34930  -0.058  10.057   7.769  0.6396 -1.1896 -0.9039
  978MOL0     H34931   0.112  10.086   7.762 -0.7710 -0.0690  1.1561
  978MOL0     H34932  -0.076  10.273   7.622 -1.3662 -0.8769  0.7895
  978MOL0     H34933   0.096  10.297   7.643 -1.2243  0.0576 -0.3578
  978MOL0     H34934   0.046  10.328   7.892  0.0484  2.2684 -0.0100
  978MOL0     H34935  -0.120  10.295   7.861 -0.6230  0.6802  1.0110
  978MOL0     H34936   0.045  10.518   7.717 -0.0787 -1.4819 -0.9922
  978MOL0     H34937  -0.122  10.502   7.699 -0.4196  2.4252  0.1492
  978MOL0     H34938  -0.049  10.686   7.869  2.1224  1.0802  4.6697
  978MOL0     H34939   0.048  10.565   7.954  0.5274  1.9009 -0.1633
  978MOL0     H34940  -0.141  10.458   8.025 -0.0774  0.0150 -0.1205
  978MOL0     H34941  -0.247  10.531   7.901  1.0147 -0.0670 -1.1388
  978MOL0     H34942  -0.096  10.679   8.094 -1.0370  0.1775 -2.5966
  978MOL0     H34943  -0.250  10.615   8.158 -0.1490 -1.2374  0.6834
  978MOL0     H34944   0.220   9.993   7.249  0.9687  0.9066  0.3175
  978MOL0     H34945   0.397   9.832   7.218  3.1005  0.9720  0.5683
  978MOL0     H34946   0.736   9.721   7.220  0.1316 -0.4128 -0.9493
  978MOL0     H34947   0.936   9.605   7.108  2.7975 -2.1940  1.3526
  978MOL0     H34948   1.755   7.896   7.540  1.0214 -3.3611  1.0696
  978MOL0     H34949   1.712   7.667   7.493  4.0340  4.6514  0.6851
  978MOL0     H34950   1.412   7.392   7.294 -3.2966  2.5059  1.7638
  978MOL0     H34951   1.343   7.176   7.204  3.3093 -3.5480 -1.1713
  978MOL0     H34952   1.212   6.760   7.377  0.3597 -3.1949  3.4425
  978MOL0     H34953   1.329   6.802   7.479 -2.3031 -1.5486  1.9781
  978MOL0     H34954   1.164   6.939   7.607 -0.6512 -1.1486  1.2280
  978MOL0     H34955   1.110   6.785   7.583  0.2953 -0.2912 -0.9961
  978MOL0     H34956   0.987   6.844   7.363 -1.2197  0.1834 -1.6111
  978MOL0     H34957   0.921   6.867   7.521  0.1113  0.0662  0.6540
  978MOL0     H34958   1.022   7.076   7.323 -1.1897 -0.1924  0.2664
  978MOL0     H34959   1.071   7.103   7.483  0.2041  1.2130 -0.8170
  978MOL0     H34960   0.663   7.221   7.479  0.4530 -0.3368  0.8766
  978MOL0     H34961   1.395   7.014   7.604  1.5363 -0.4886 -1.1359
  978MOL0     H34962   1.607   7.230   7.710  1.5299  0.0203 -1.6035
  978MOL0     H34963   1.441   7.297   7.776  0.7426 -1.3828 -0.0428
  978MOL0     H34964   1.492   7.127   7.771  0.8071 -0.1615  1.3521
  979MOL0     O34965   2.004   0.977   5.129  0.6497  0.0018  0.2727
  979MOL0     C34966   2.107   1.019   5.190  0.0820  1.0017 -0.1613
  979MOL0     O34967   2.196   1.109   5.136 -0.8548 -0.3421  0.4116
  979MOL0     C34968   2.193   1.134   5.004  0.2929 -0.4409  0.3373
  979MOL0     C34969   2.171   1.267   4.960  0.6529  0.1089 -0.9563
  979MOL0     C34970   2.167   1.291   4.819 -0.8443  0.4882 -0.0391
  979MOL0     C34971   2.197   1.190   4.724 -0.3113 -0.0927 -0.0852
  979MOL0     O34972   2.210   1.208   4.588 -0.6134 -0.2568 -0.2229
  979MOL0     C34973   2.159   1.323   4.528 -0.0822  0.6758  0.0499
  979MOL0     C34974   2.121   1.273   4.381  0.2715  0.2033  0.1593
  979MOL0     C34975   2.243   1.280   4.277 -0.4303 -0.0903 -0.8229
  979MOL0     C34976   2.201   1.244   4.138  0.7287 -0.2776  0.3825
  979MOL0     C34977   2.317   1.241   4.036  0.1236 -0.7953  0.3825
  979MOL0     C34978   2.277   1.182   3.901 -0.3040 -0.4677 -0.5323
  979MOL0     C34979   2.411   1.161   3.815  0.2760  0.0176 -0.2034
  979MOL0     C34980   2.389   1.067   3.691 -0.1120  0.0754 -0.1472
  979MOL0     N34981   2.327   1.147   3.583  1.0297  0.0529  0.0181
  979MOL0     C34982   2.191   1.183   3.579 -0.1176  0.1394 -0.2312
  979MOL0     C34983   2.191   1.286   3.491  0.4431  0.0101 -0.2774
  979MOL0     C34984   2.075   1.342   3.430 -0.3339  0.6464 -0.5811
  979MOL0     C34985   1.972   1.409   3.526 -0.5684 -0.0062  0.7527
  979MOL0     C34986   1.837   1.452   3.463 -0.4262  0.4289  0.3033
  979MOL0     C34987   1.753   1.510   3.578 -1.4424 -0.0831 -0.3570
  979MOL0     O34988   1.820   1.613   3.656 -0.4802 -0.0230  0.3367
  979MOL0     C34989   1.801   1.745   3.631  0.0955  0.2968  0.4742
  979MOL0     C34990   1.845   1.838   3.724 -0.0679  0.4273 -0.0285
  979MOL0     C34991   1.836   1.978   3.705 -0.1976 -0.0379  0.8964
  979MOL0     C34992   1.896   2.064   3.815 -0.2151  0.5482 -0.4885
  979MOL0     C34993   1.765   2.037   3.597  0.6691  0.4871 -0.6123
  979MOL0     C34994   1.739   2.178   3.562 -0.3913  0.2397  0.7090
  979MOL0     O34995   1.685   2.206   3.432 -0.7695  0.0560  0.2812
  979MOL0     C34996   1.630   2.329   3.421  0.1921 -0.2708  0.0275
  979MOL0     C34997   1.701   2.448   3.422 -0.0015 -0.3331  1.1542
  979MOL0     C34998   1.626   2.565   3.385 -2.1659 -0.0196  1.1585
  979MOL0     C34999   1.493   2.576   3.370 -0.6322 -0.2206 -0.1853
  979MOL0     O35000   1.422   2.687   3.343 -0.5325  0.3613 -0.6957
  979MOL0     C35001   1.465   2.810   3.378 -0.3542  0.0504  0.2481
  979MOL0     C35002   1.358   2.908   3.329  0.1890 -0.8183 -0.7027
  979MOL0     C35003   1.406   3.048   3.285 -0.7821 -0.6556 -0.5292
  979MOL0     C35004   1.298   3.110   3.198  0.5430 -0.6047 -0.1751
  979MOL0     C35005   1.321   3.259   3.193 -0.2733  0.8917  0.4676
  979MOL0     C35006   1.283   3.338   3.321 -0.2674  0.9925  0.2384
  979MOL0     C35007   1.312   3.484   3.298 -0.3506 -0.3830  0.4550
  979MOL0     C35008   1.228   3.589   3.379  0.3825  0.8579  0.2305
  979MOL0    Cl35009   1.061   3.603   3.323 -0.5289 -0.1225  0.0554
  979MOL0     C35010   1.424   2.454   3.373 -0.0607 -0.8714 -1.0406
  979MOL0     C35011   1.490   2.335   3.396  0.2268  0.5704 -0.2698
  979MOL0     O35012   1.777   2.261   3.639  0.3666 -1.0581 -0.0948
  979MOL0     C35013   1.728   1.935   3.504 -0.5893 -0.2398  0.1579
  979MOL0     C35014   1.742   1.797   3.523  1.1599  0.1926 -0.5947
  979MOL0     N35015   2.318   1.314   3.447  0.4114  0.4435 -0.7823
  979MOL0     N35016   2.399   1.228   3.496  0.0431 -0.0088 -0.2657
  979MOL0     C35017   2.224   1.062   4.770 -0.5895  0.6928 -0.4327
  979MOL0     C35018   2.229   1.040   4.910 -0.7185  0.4206 -0.3885
  979MOL0     C35019   2.148   0.947   5.318 -0.4143  0.0752  0.1588
  979MOL0     C35020   2.144   1.016   5.438 -0.2884  0.7794  0.7422
  979MOL0     C35021   2.171   0.953   5.561  0.0308 -0.1927  0.0383
  979MOL0     C35022   2.229   0.825   5.551 -1.1951  0.4546  0.2452
  979MOL0     O35023   2.258   0.747   5.657 -0.0683 -0.2339  0.2577
  979MOL0     C35024   2.255   0.819   5.784  0.4024  0.7961 -0.3436
  979MOL0     C35025   2.333   0.741   5.897  0.1783  0.1960 -0.4871
  979MOL0     C35026   2.320   0.788   6.044  0.5937  0.8717 -0.0919
  979MOL0     C35027   2.206   0.720   6.121 -0.0988 -0.1853  0.1186
  979MOL0     C35028   2.181   0.788   6.250 -0.4046 -0.2850 -0.3825
  979MOL0     C35029   2.159   0.853   6.352 -0.8546  0.0870  0.2135
  979MOL0     C35030   2.264   0.765   5.435 -0.8456  0.4582 -0.0953
  979MOL0     C35031   2.216   0.824   5.317  0.7115  1.1210 -0.4518
  979MOL0     C35032   2.244   0.759   5.189  0.7711 -0.1570  0.7285
  979MOL0     H35033   2.147   1.344   5.032  0.1791  0.5218 -1.5480
  979MOL0     H35034   2.145   1.389   4.776 -0.2043  0.1651 -1.1552
  979MOL0     H35035   2.235   1.402   4.521  0.9889 -0.4766 -2.7119
  979MOL0     H35036   2.077   1.369   4.583  2.7216  1.1091  4.4138
  979MOL0     H35037   2.078   1.173   4.393 -0.8443  0.5260 -0.9561
  979MOL0     H35038   2.038   1.335   4.346  0.1399 -0.4372 -0.6951
  979MOL0     H35039   2.292   1.377   4.275  0.6361 -0.5268  1.1765
  979MOL0     H35040   2.315   1.203   4.307 -3.2684 -1.7489  2.5156
  979MOL0     H35041   2.153   1.147   4.129  1.4220 -0.5493 -0.4936
  979MOL0     H35042   2.128   1.320   4.108 -1.2938 -2.3096 -0.0551
  979MOL0     H35043   2.393   1.176   4.082  0.9481  0.4029  0.7590
  979MOL0     H35044   2.366   1.339   4.032  0.5244 -0.8279  2.8576
  979MOL0     H35045   2.213   1.095   3.920 -1.3399  0.5063  0.6154
  979MOL0     H35046   2.215   1.259   3.856 -2.9466 -0.5955  2.5188
  979MOL0     H35047   2.492   1.112   3.869  0.2808 -0.4811 -0.6617
  979MOL0     H35048   2.438   1.261   3.778  0.5619  0.5314  1.3320
  979MOL0     H35049   2.482   1.018   3.660 -1.4790 -1.1282 -2.7372
  979MOL0     H35050   2.319   0.987   3.717 -1.5110  1.1144 -0.5758
  979MOL0     H35051   2.107   1.123   3.615 -0.7307  0.7568 -0.6225
  979MOL0     H35052   2.034   1.260   3.371  0.6167 -2.1855  2.3865
  979MOL0     H35053   2.112   1.424   3.368 -0.0378  1.5133  0.7125
  979MOL0     H35054   1.961   1.344   3.613 -0.8762  0.3606  0.9924
  979MOL0     H35055   2.029   1.498   3.557  1.5052  0.1559 -2.9865
  979MOL0     H35056   1.858   1.535   3.395  1.5521  0.1251  0.4803
  979MOL0     H35057   1.784   1.371   3.413  0.1170  0.9009 -1.0984
  979MOL0     H35058   1.655   1.544   3.544 -1.5335  1.3326  1.1749
  979MOL0     H35059   1.751   1.432   3.655  1.2403 -1.5751 -1.6673
  979MOL0     H35060   1.896   1.811   3.815 -2.7863 -0.9892  1.1809
  979MOL0     H35061   1.821   2.139   3.843  1.0808  0.8093  2.7272
  979MOL0     H35062   1.984   2.127   3.796  0.4614 -0.3562 -0.4067
  979MOL0     H35063   1.923   2.004   3.902 -0.2482  0.8241 -0.2846
  979MOL0     H35064   1.807   2.452   3.444  1.1543  1.2109 -3.5662
  979MOL0     H35065   1.688   2.653   3.372  1.7268 -2.7044 -0.1690
  979MOL0     H35066   1.492   2.824   3.483 -0.0267  2.0157 -0.0680
  979MOL0     H35067   1.559   2.840   3.330 -1.3025  0.3219 -1.5243
  979MOL0     H35068   1.316   2.861   3.240 -2.0091  0.0027 -0.1537
  979MOL0     H35069   1.276   2.911   3.400  0.7278 -1.9347 -0.0069
  979MOL0     H35070   1.501   3.032   3.233 -1.8328 -2.8620 -1.9244
  979MOL0     H35071   1.423   3.096   3.382  0.7534 -3.1925  0.5688
  979MOL0     H35072   1.191   3.094   3.213  0.4498 -0.5132 -0.6965
  979MOL0     H35073   1.318   3.083   3.093  0.8184 -0.3840 -0.1796
  979MOL0     H35074   1.425   3.283   3.170 -1.1818  3.9564 -1.1175
  979MOL0     H35075   1.264   3.292   3.105  0.4308 -4.0091 -2.1353
  979MOL0     H35076   1.342   3.319   3.411 -0.0110  1.7389  0.2341
  979MOL0     H35077   1.177   3.326   3.346  0.3143  0.2775  2.5906
  979MOL0     H35078   1.309   3.509   3.192 -3.6980  0.3807  0.6233
  979MOL0     H35079   1.416   3.503   3.324 -0.6509  2.1561  0.0828
  979MOL0     H35080   1.271   3.687   3.357  0.8955  0.4766 -0.4985
  979MOL0     H35081   1.229   3.570   3.487  4.1341  0.8476  0.3022
  979MOL0     H35082   1.317   2.453   3.360 -0.8922 -1.5216  3.8556
  979MOL0     H35083   1.432   2.245   3.417  0.3866  0.1697 -1.4904
  979MOL0     H35084   1.665   1.965   3.421  1.9775 -0.5660 -2.0618
  979MOL0     H35085   1.716   1.737   3.436 -1.7472  1.1857 -0.5183
  979MOL0     H35086   2.235   0.978   4.703 -0.0442 -0.3934  0.9582
  979MOL0     H35087   2.245   0.941   4.950  0.2392  0.0124 -1.7059
  979MOL0     H35088   2.110   1.118   5.425 -1.1702  0.0983 -5.5290
  979MOL0     H35089   2.146   1.002   5.654 -1.8742 -1.1876  0.0910
  979MOL0     H35090   2.301   0.918   5.780  0.1646  0.8884 -0.8385
  979MOL0     H35091   2.152   0.826   5.820  0.2226 -0.4885 -0.5429
  979MOL0     H35092   2.440   0.741   5.875  1.0107 -1.9358  2.7659
  979MOL0     H35093   2.298   0.638   5.883 -1.3166  0.4445  1.0505
  979MOL0     H35094   2.412   0.759   6.096 -0.1645 -1.1953  0.1837
  979MOL0     H35095   2.308   0.897   6.038 -0.6309  0.6949 -4.8045
  979MOL0     H35096   2.223   0.616   6.151  2.6594  0.4225  0.9541
  979MOL0     H35097   2.121   0.718   6.052 -1.9562  4.5656  1.9010
  979MOL0     H35098   2.144   0.911   6.442  0.7674  2.5710 -0.9900
  979MOL0     H35099   2.312   0.668   5.430 -1.4872  0.1817 -0.9242
  979MOL0     H35100   2.254   0.651   5.200  0.2655 -0.6422 -2.5451
  979MOL0     H35101   2.159   0.756   5.120 -0.1679  1.0051  1.7810
  979MOL0     H35102   2.325   0.807   5.133  0.6348  1.3744  1.7834
  980MOL0     O35103   1.733   5.532   8.705  0.0377  0.1027  0.0886
  980MOL0     C35104   1.650   5.615   8.738  0.6133  0.5555  0.4080
  980MOL0     O35105   1.662   5.705   8.837 -0.2525  0.8686 -0.1798
  980MOL0     C35106   1.778   5.700   8.906  0.0589  0.1667 -0.0348
  980MOL0     C35107   1.808   5.619   9.011  0.2341  0.0896 -1.0377
  980MOL0     C35108   1.934   5.633   9.082  0.7389  0.1733 -0.0488
  980MOL0     C35109   2.025   5.734   9.046  0.3592  0.0167 -1.1350
  980MOL0     O35110   2.134   5.753   9.124  0.0983  0.3304  0.0368
  980MOL0     C35111   2.205   5.645   9.188  0.5026  0.3299  0.1918
  980MOL0     C35112   2.340   5.694   9.248  0.0761 -0.1993  0.3528
  980MOL0     C35113   2.439   5.747   9.149 -0.1295 -0.0847 -0.1330
  980MOL0     C35114   2.489   5.645   9.043  0.3802  0.1510  0.1752
  980MOL0     C35115   2.613   5.689   8.978  0.2264  1.1441  0.2423
  980MOL0     C35116   2.612   5.830   8.921 -0.2649 -0.0391  0.7942
  980MOL0     C35117   2.569   5.831   8.780  0.0558 -0.4470 -0.1448
  980MOL0     C35118   2.587   5.970   8.718 -0.2102 -0.0226  0.7984
  980MOL0     N35119   2.556   5.967   8.577  0.1503 -0.8091 -0.1042
  980MOL0     C35120   2.638   5.963   8.467 -0.2286 -0.1286  0.0214
  980MOL0     C35121   2.559   5.954   8.361  0.0019 -0.2962  0.4960
  980MOL0     C35122   2.612   5.967   8.224 -0.7348 -0.4573 -0.6658
  980MOL0     C35123   2.672   6.100   8.186  0.1482 -0.3938  0.4076
  980MOL0     C35124   2.761   6.100   8.066 -0.9363  0.6037 -0.0403
  980MOL0     C35125   2.677   6.075   7.936 -0.0162  0.0420 -0.4193
  980MOL0     O35126   2.771   6.101   7.826 -0.1101 -0.6899 -0.1760
  980MOL0     C35127   2.729   6.075   7.698 -0.4653 -0.3531 -0.4882
  980MOL0     C35128   2.625   6.012   7.647  0.7050  0.5403 -0.4818
  980MOL0     C35129   2.588   6.008   7.512 -0.3325  0.2597  0.4219
  980MOL0     C35130   2.467   5.929   7.478  0.1406 -0.0083 -0.3955
  980MOL0     C35131   2.649   6.094   7.414 -0.2642 -0.0221 -0.5620
  980MOL0     C35132   2.607   6.132   7.273 -0.0992  0.0220  0.2878
  980MOL0     O35133   2.689   6.207   7.200  0.0490  0.4402 -0.1394
  980MOL0     C35134   2.657   6.250   7.068  0.4233  0.1839 -0.3229
  980MOL0     C35135   2.746   6.216   6.964 -1.0123  0.3492  0.2610
  980MOL0     C35136   2.723   6.256   6.834  0.4228  0.0388 -0.4267
  980MOL0     C35137   2.624   6.343   6.805 -0.0020 -0.2375  0.4473
  980MOL0     O35138   2.626   6.390   6.675  0.1887  0.1079 -1.5670
  980MOL0     C35139   2.534   6.488   6.632 -0.4714  0.5883 -1.0188
  980MOL0     C35140   2.568   6.537   6.494  0.7185  1.4561  0.8247
  980MOL0     C35141   2.481   6.456   6.396  0.0006  0.4901  0.4915
  980MOL0     C35142   2.490   6.490   6.252  1.6324 -0.0386 -0.9298
  980MOL0     C35143   2.611   6.417   6.185  0.1287 -0.0822  0.1323
  980MOL0     C35144   2.592   6.263   6.155  0.2447  0.6188 -0.1816
  980MOL0     C35145   2.714   6.197   6.092 -0.1310  0.9876 -0.0495
  980MOL0     C35146   2.710   6.189   5.939  0.0335  0.6804  0.4091
  980MOL0    Cl35147   2.830   6.076   5.872 -0.2565  0.1321 -0.6501
  980MOL0     C35148   2.537   6.382   6.906  1.0735 -0.0453  0.3041
  980MOL0     C35149   2.556   6.340   7.036  2.0089  0.1637 -0.1697
  980MOL0     O35150   2.501   6.085   7.231 -0.3047  0.6739  0.5771
  980MOL0     C35151   2.770   6.156   7.466 -0.1289 -0.0922  0.2437
  980MOL0     C35152   2.809   6.148   7.606  0.6342  0.5725  0.4663
  980MOL0     N35153   2.424   5.963   8.402  0.6101 -0.3946 -0.2397
  980MOL0     N35154   2.429   5.973   8.528 -0.2995 -0.0937 -0.0237
  980MOL0     C35155   1.991   5.819   8.940 -0.6909 -0.0568 -0.5989
  980MOL0     C35156   1.863   5.807   8.879 -0.3546 -0.3649  0.3995
  980MOL0     C35157   1.524   5.607   8.652  0.8395  0.7121 -0.2000
  980MOL0     C35158   1.408   5.598   8.728  1.0098 -0.2382 -0.5525
  980MOL0     C35159   1.287   5.588   8.672 -0.0177  0.5085 -0.4027
  980MOL0     C35160   1.277   5.563   8.529  0.2604 -1.1244 -0.7002
  980MOL0     O35161   1.173   5.533   8.454 -0.2305  0.2851 -0.0475
  980MOL0     C35162   1.042   5.556   8.505  0.8007 -0.5351  0.0397
  980MOL0     C35163   0.963   5.651   8.413  0.4087  0.1676  0.4806
  980MOL0     C35164   1.041   5.779   8.383  0.4320 -0.3551 -0.6702
  980MOL0     C35165   0.966   5.885   8.301 -0.8898 -0.4862  0.7620
  980MOL0     C35166   0.969   5.843   8.166 -0.8727  0.2623  0.3009
  980MOL0     C35167   0.986   5.800   8.053 -0.3975  0.0246  0.2879
  980MOL0     C35168   1.396   5.571   8.452  0.3537 -0.7734 -0.0650
  980MOL0     C35169   1.522   5.603   8.510  1.1601 -0.6205  0.0254
  980MOL0     C35170   1.646   5.619   8.427  0.1481 -0.5299  0.3189
  980MOL0     H35171   1.722   5.554   9.022 -0.8432  1.1433 -2.7912
  980MOL0     H35172   1.956   5.559   9.157 -0.3556 -0.1990 -0.0827
  980MOL0     H35173   2.218   5.567   9.112 -2.5798 -0.9503  0.8371
  980MOL0     H35174   2.148   5.603   9.272  0.8174 -0.7961 -0.1452
  980MOL0     H35175   2.324   5.766   9.329  2.4751 -0.2186  0.9435
  980MOL0     H35176   2.386   5.609   9.299 -1.0079 -1.1368 -0.2112
  980MOL0     H35177   2.399   5.837   9.101 -0.5117  0.2515  0.7947
  980MOL0     H35178   2.523   5.781   9.210 -2.4570  1.7496  2.3189
  980MOL0     H35179   2.496   5.544   9.084 -1.7021 -1.0996 -2.2157
  980MOL0     H35180   2.413   5.640   8.964  2.8721 -2.2629 -2.3093
  980MOL0     H35181   2.638   5.614   8.903 -0.4606  0.6965  0.4593
  980MOL0     H35182   2.700   5.675   9.042 -0.9961 -3.5760  1.2260
  980MOL0     H35183   2.550   5.898   8.980 -2.0818 -1.6062  0.7767
  980MOL0     H35184   2.709   5.879   8.934 -0.4561 -0.1842  3.3291
  980MOL0     H35185   2.462   5.813   8.764 -0.6561  2.1410  1.1866
  980MOL0     H35186   2.630   5.769   8.714  1.6205  0.3454  0.5241
  980MOL0     H35187   2.510   6.027   8.769  0.6559  2.2922 -0.3286
  980MOL0     H35188   2.689   6.006   8.732  0.6519 -0.9936 -2.1448
  980MOL0     H35189   2.746   5.965   8.466 -0.2148  1.1686  0.8959
  980MOL0     H35190   2.527   5.945   8.160 -0.3708 -0.2531 -1.2241
  980MOL0     H35191   2.696   5.897   8.226  1.6038  2.1361  2.2225
  980MOL0     H35192   2.599   6.181   8.177  1.6052  1.0144  0.7144
  980MOL0     H35193   2.747   6.129   8.260  0.9721  0.6247 -0.7620
  980MOL0     H35194   2.813   6.195   8.054  1.4976 -0.7209 -0.6710
  980MOL0     H35195   2.828   6.016   8.089 -0.0716  1.1165 -0.6410
  980MOL0     H35196   2.650   5.970   7.924 -0.6860  0.2293 -0.5987
  980MOL0     H35197   2.586   6.136   7.931  0.5102  1.8594  5.3272
  980MOL0     H35198   2.571   5.938   7.705 -1.2645  1.1768 -1.4109
  980MOL0     H35199   2.472   5.905   7.372  3.1441  0.5992 -0.4989
  980MOL0     H35200   2.383   5.994   7.501 -2.1837 -1.9793 -2.6932
  980MOL0     H35201   2.463   5.837   7.537  1.7517  1.4701  2.2219
  980MOL0     H35202   2.834   6.158   6.989 -1.2212 -1.0869 -2.0691
  980MOL0     H35203   2.797   6.237   6.757  1.2283  0.4106  0.2430
  980MOL0     H35204   2.435   6.443   6.626 -0.2409 -0.5257  1.8631
  980MOL0     H35205   2.530   6.562   6.712  0.7079 -1.0201  0.6197
  980MOL0     H35206   2.551   6.645   6.494 -3.9959  0.9548  1.5462
  980MOL0     H35207   2.674   6.521   6.476  0.4886 -1.2700  1.5090
  980MOL0     H35208   2.376   6.456   6.426 -0.0832 -0.2935  0.2191
  980MOL0     H35209   2.522   6.357   6.416  0.8072  1.1261  2.0973
  980MOL0     H35210   2.506   6.598   6.247 -2.7932  0.8408 -0.3774
  980MOL0     H35211   2.397   6.476   6.196 -1.3924 -0.5415  3.6942
  980MOL0     H35212   2.638   6.462   6.089 -1.3539 -1.4743 -0.9828
  980MOL0     H35213   2.697   6.426   6.252 -0.3979 -2.4850  1.2400
  980MOL0     H35214   2.503   6.250   6.093 -1.0547 -3.1406  2.1667
  980MOL0     H35215   2.579   6.211   6.250  0.7533  1.5258  0.4032
  980MOL0     H35216   2.715   6.094   6.129  2.5718  0.6312 -0.8978
  980MOL0     H35217   2.806   6.245   6.127 -0.8775  1.1304  1.8644
  980MOL0     H35218   2.725   6.291   5.904 -0.5387  1.0020  1.0724
  980MOL0     H35219   2.608   6.158   5.914 -0.1434  0.2837  1.5518
  980MOL0     H35220   2.465   6.461   6.888  0.8047 -0.1940  0.7103
  980MOL0     H35221   2.495   6.383   7.115  0.2956 -0.7497 -0.9301
  980MOL0     H35222   2.839   6.206   7.399  2.5114 -1.0277  2.0870
  980MOL0     H35223   2.907   6.186   7.634  0.6926  0.8422 -0.0931
  980MOL0     H35224   2.060   5.899   8.915 -2.3405  2.0711  1.2404
  980MOL0     H35225   1.836   5.865   8.791  0.1492 -1.0660 -0.2344
  980MOL0     H35226   1.403   5.587   8.836  0.6206  2.8565 -0.1795
  980MOL0     H35227   1.203   5.585   8.741 -0.4518  1.2685 -0.8888
  980MOL0     H35228   0.981   5.465   8.507 -2.5965  1.5153 -1.4413
  980MOL0     H35229   1.043   5.598   8.606 -3.1754 -1.5956  0.7052
  980MOL0     H35230   0.871   5.676   8.467 -0.6424  0.9871 -1.5871
  980MOL0     H35231   0.929   5.593   8.327 -1.9611 -0.0863  1.5118
  980MOL0     H35232   1.088   5.819   8.473  1.6682 -1.3403 -0.8450
  980MOL0     H35233   1.125   5.748   8.320 -0.1801 -1.4051 -0.9993
  980MOL0     H35234   1.010   5.985   8.303  0.5627 -1.0694 -0.3387
  980MOL0     H35235   0.860   5.878   8.328 -0.7480  0.9350  1.8166
  980MOL0     H35236   1.015   5.772   7.954  0.3886 -1.1264  0.8135
  980MOL0     H35237   1.413   5.549   8.347 -1.1040 -0.8645 -0.3025
  980MOL0     H35238   1.716   5.535   8.418  1.1938  0.2760  0.6299
  980MOL0     H35239   1.629   5.622   8.319  0.9982  1.1179  0.1935
  980MOL0     H35240   1.708   5.703   8.460  1.5144 -1.4441  0.1456
  981MOL0     O35241   4.828  10.416   7.870  0.3040 -0.7074 -0.3889
  981MOL0     C35242   4.927  10.380   7.808  0.6786 -0.3064  0.1689
  981MOL0     O35243   5.054  10.368   7.858  0.6803  0.1460  0.4896
  981MOL0     C35244   5.084  10.405   7.986 -0.3223 -0.7992 -0.0508
  981MOL0     C35245   5.071  10.543   8.021  0.3863 -0.2898 -0.0889
  981MOL0     C35246   5.115  10.590   8.144  1.1237 -0.3097  0.1538
  981MOL0     C35247   5.185  10.499   8.229 -0.1745 -0.4966  0.1019
  981MOL0     O35248   5.231  10.534   8.356  0.1696  0.1949 -0.0093
  981MOL0     C35249   5.255  10.676   8.382 -1.0789  0.9215  0.8539
  981MOL0     C35250   5.221  10.706   8.531  0.6216 -0.7198 -0.2082
  981MOL0     C35251   5.287  10.625   8.642 -0.8343 -0.7280 -0.2674
  981MOL0     C35252   5.246  10.663   8.789 -0.0482  0.5388 -0.7235
  981MOL0     C35253   5.103  10.613   8.820  1.0138  1.3531 -0.1096
  981MOL0     C35254   5.086  10.459   8.846 -0.0027  0.8035  0.7240
  981MOL0     C35255   4.961  10.424   8.929  0.4529  0.1926 -0.3275
  981MOL0     C35256   4.955  10.279   8.942  0.1636  0.4194  0.1606
  981MOL0     N35257   4.825  10.253   9.005 -0.1358 -0.1497  0.3139
  981MOL0     C35258   4.789  10.124   9.051  0.5893  0.3147  0.9591
  981MOL0     C35259   4.666  10.138   9.108 -0.4118 -0.2276 -0.6957
  981MOL0     C35260   4.582  10.043   9.191  0.3556 -0.5167 -0.3920
  981MOL0     C35261   4.575  10.091   9.333  0.7677 -0.4468 -0.6047
  981MOL0     C35262   4.494   9.992   9.411 -0.1405 -0.1292  0.1845
  981MOL0     C35263   4.446  10.028   9.545  0.1801 -0.1394  0.6238
  981MOL0     O35264   4.422   9.914   9.623 -0.5199 -0.2195 -0.3031
  981MOL0     C35265   4.329   9.921   9.716  0.6034 -0.9820  0.3342
  981MOL0     C35266   4.215   9.843   9.717 -0.2166  0.0900 -0.9361
  981MOL0     C35267   4.112   9.837   9.818 -0.1191  0.4390 -1.1310
  981MOL0     C35268   4.007   9.726   9.804 -0.4398  0.3326 -0.6176
  981MOL0     C35269   4.124   9.926   9.926 -1.9076  0.6402  0.0687
  981MOL0     C35270   4.037   9.917  10.043 -0.1222 -1.3339  0.3382
  981MOL0     O35271   3.924   9.836  10.040 -0.0245  0.6843  0.2348
  981MOL0     C35272   3.823   9.860  10.119  0.4821 -0.7814 -0.8303
  981MOL0     C35273   3.774   9.751  10.189  0.2639 -0.5141  0.3468
  981MOL0     C35274   3.675   9.765  10.292 -0.0605  0.3364  0.3754
  981MOL0     C35275   3.620   9.889  10.316  0.2091  0.3740  0.3829
  981MOL0     O35276   3.544   9.906  10.420 -0.8500  0.5408 -0.9197
  981MOL0     C35277   3.425   9.831  10.412 -0.3760  0.0109  0.3308
  981MOL0     C35278   3.316   9.892  10.495  0.3203 -0.1713 -0.2359
  981MOL0     C35279   3.276  10.039  10.446 -0.0915 -0.6394 -0.9815
  981MOL0     C35280   3.169  10.045  10.333 -0.0737  0.6535 -1.2605
  981MOL0     C35281   3.134  10.192  10.299  0.3809 -0.9015  0.0486
  981MOL0     C35282   3.256  10.267  10.234  0.3679 -0.3983 -0.4720
  981MOL0     C35283   3.223  10.382  10.141  0.1362  0.1846 -0.4230
  981MOL0     C35284   3.211  10.506  10.228  0.8326 -0.1911 -0.1432
  981MOL0    Cl35285   3.135  10.623  10.117  0.1738  0.2501  0.1770
  981MOL0     C35286   3.662   9.998  10.236 -0.4238 -0.2495  0.0893
  981MOL0     C35287   3.757   9.979  10.136  0.3684 -0.1323 -0.6401
  981MOL0     O35288   4.067   9.982  10.137  0.0827 -0.6195 -0.8100
  981MOL0     C35289   4.234  10.014   9.932  0.0769  0.2380  0.3406
  981MOL0     C35290   4.337  10.009   9.833  0.6611  0.2215 -0.3508
  981MOL0     N35291   4.632  10.269   9.088  1.0034 -0.6971 -0.1002
  981MOL0     N35292   4.721  10.331   9.023 -0.2629 -0.3987  0.1511
  981MOL0     C35293   5.192  10.364   8.198 -0.7628 -1.1387 -0.0086
  981MOL0     C35294   5.145  10.320   8.070 -1.3656  0.4792  0.0540
  981MOL0     C35295   4.928  10.364   7.666  0.4600  0.5672 -0.6263
  981MOL0     C35296   4.922  10.485   7.596  0.1720  0.6315 -0.5227
  981MOL0     C35297   4.933  10.486   7.458  0.2301 -0.2045 -0.1758
  981MOL0     C35298   4.944  10.371   7.382  0.0780 -0.3639  0.3809
  981MOL0     O35299   4.954  10.383   7.240 -0.4649 -0.0343 -0.0369
  981MOL0     C35300   4.901  10.281   7.157 -0.4157  0.2735 -0.5466
  981MOL0     C35301   4.751  10.277   7.172  0.6058  0.1319  1.0459
  981MOL0     C35302   4.663  10.390   7.116 -0.0256  0.1169 -0.1045
  981MOL0     C35303   4.687  10.421   6.967 -0.7542 -0.1331  0.7263
  981MOL0     C35304   4.645  10.310   6.889 -0.3141 -0.1977 -0.4638
  981MOL0     C35305   4.604  10.228   6.812 -0.2990 -0.5280  0.4922
  981MOL0     C35306   4.951  10.249   7.442  1.1633 -0.0532 -0.0239
  981MOL0     C35307   4.938  10.239   7.587 -0.4297  0.0304 -0.2454
  981MOL0     C35308   4.947  10.105   7.652  0.0819  0.8453 -0.5202
  981MOL0     H35309   5.022  10.614   7.955 -1.0876 -0.6381  0.5832
  981MOL0     H35310   5.082  10.692   8.161 -3.7695 -0.6861 -4.2630
  981MOL0     H35311   5.187  10.742   8.327 -1.1355  0.9676  0.9789
  981MOL0     H35312   5.362  10.693   8.372 -0.3692 -0.0970  4.7735
  981MOL0     H35313   5.241  10.813   8.542 -2.1399  0.1365 -2.5778
  981MOL0     H35314   5.114  10.695   8.551  0.5575  0.4499  0.1651
  981MOL0     H35315   5.251  10.524   8.621 -0.0802 -1.5423  1.9977
  981MOL0     H35316   5.395  10.624   8.620 -0.9268  1.0157 -0.9406
  981MOL0     H35317   5.324  10.636   8.861 -0.5627  2.0156  0.4269
  981MOL0     H35318   5.237  10.772   8.782 -4.3398  0.5392  1.2416
  981MOL0     H35319   5.019  10.645   8.759  1.1014  0.9148 -0.4711
  981MOL0     H35320   5.080  10.662   8.915  1.9397 -0.2428  0.9863
  981MOL0     H35321   5.088  10.410   8.749  0.5174  1.3335  0.4611
  981MOL0     H35322   5.176  10.424   8.898 -0.8901 -1.6715  0.7386
  981MOL0     H35323   4.872  10.459   8.876  0.3730 -1.1247 -1.1091
  981MOL0     H35324   4.965  10.464   9.030 -0.0690 -1.1183  0.2281
  981MOL0     H35325   4.955  10.237   8.841 -0.9285  1.5639 -0.3449
  981MOL0     H35326   5.042  10.234   8.992 -2.1341 -1.7316  2.4851
  981MOL0     H35327   4.846  10.032   9.051 -2.1715 -1.5384  1.2620
  981MOL0     H35328   4.612   9.939   9.177 -1.7390 -1.4099  1.1849
  981MOL0     H35329   4.479  10.055   9.155 -0.9844 -0.2850  3.0992
  981MOL0     H35330   4.670  10.111   9.383  2.1393 -2.1400 -2.3483
  981MOL0     H35331   4.512  10.180   9.332 -0.9471 -1.5831  0.3658
  981MOL0     H35332   4.402   9.965   9.357 -1.9116  4.0362  0.7402
  981MOL0     H35333   4.549   9.898   9.407 -1.9338 -1.4469  3.1764
  981MOL0     H35334   4.531  10.082   9.589  0.5152  1.6139 -1.9455
  981MOL0     H35335   4.359  10.093   9.532  0.4070  0.2561  1.0389
  981MOL0     H35336   4.211   9.773   9.634  1.6828  1.2153 -2.0533
  981MOL0     H35337   3.904   9.761   9.798 -1.2232 -1.5911  0.6455
  981MOL0     H35338   4.017   9.667   9.896  0.7017  1.1801 -0.1686
  981MOL0     H35339   4.027   9.661   9.718 -2.0522 -1.1710  0.0819
  981MOL0     H35340   3.814   9.652  10.167  1.9872  0.0752  0.6611
  981MOL0     H35341   3.634   9.674  10.335  0.3644 -0.6409 -1.2263
  981MOL0     H35342   3.393   9.820  10.308  1.9738 -2.2101 -0.2693
  981MOL0     H35343   3.447   9.729  10.446  1.0049 -0.5687 -2.0553
  981MOL0     H35344   3.228   9.827  10.487  1.0899 -1.4371  1.2461
  981MOL0     H35345   3.339   9.890  10.602  1.1066  2.4207 -0.2717
  981MOL0     H35346   3.367  10.087  10.409 -0.4778  1.6869  0.8169
  981MOL0     H35347   3.239  10.098  10.530 -1.6506 -1.1965 -1.2453
  981MOL0     H35348   3.084   9.995  10.381  0.7849  0.0793 -0.2742
  981MOL0     H35349   3.208   9.981  10.254  1.3324 -2.2069  1.5188
  981MOL0     H35350   3.057  10.204  10.222 -2.3060  0.2054  2.7059
  981MOL0     H35351   3.095  10.244  10.387  2.1762 -2.8250  2.0985
  981MOL0     H35352   3.314  10.189  10.184 -1.0508 -1.0625 -1.1200
  981MOL0     H35353   3.325  10.304  10.311  0.4558 -0.1136 -0.6873
  981MOL0     H35354   3.130  10.361  10.089  1.5416 -2.6289 -2.0565
  981MOL0     H35355   3.299  10.389  10.063  1.3480  1.1327  0.7792
  981MOL0     H35356   3.309  10.541  10.263  0.2386  1.3277  0.0961
  981MOL0     H35357   3.144  10.484  10.312  1.2178  1.5886  0.6761
  981MOL0     H35358   3.637  10.103  10.246  0.1681  0.1290 -1.9095
  981MOL0     H35359   3.791  10.061  10.073  2.0037  0.4963  0.9859
  981MOL0     H35360   4.251  10.075  10.021  0.6508 -0.5839  0.8123
  981MOL0     H35361   4.420  10.075   9.855  2.5399 -2.4626  1.3487
  981MOL0     H35362   5.247  10.295   8.260 -5.5291 -2.7249  2.9785
  981MOL0     H35363   5.156  10.219   8.034 -1.0252 -0.0587  1.6282
  981MOL0     H35364   4.910  10.583   7.640 -1.7950  1.3395 -2.3957
  981MOL0     H35365   4.918  10.572   7.394 -2.4839 -1.2556 -1.1359
  981MOL0     H35366   4.922  10.302   7.051 -0.4370 -1.1102 -0.8483
  981MOL0     H35367   4.938  10.180   7.174  2.0229  0.8103 -2.1151
  981MOL0     H35368   4.716  10.266   7.275  0.6289 -1.0283  0.9421
  981MOL0     H35369   4.717  10.183   7.128 -0.1025  1.6800 -1.9625
  981MOL0     H35370   4.558  10.366   7.134  0.0396  0.4955  0.8756
  981MOL0     H35371   4.685  10.481   7.172  2.3145 -0.2180 -0.3724
  981MOL0     H35372   4.795  10.438   6.953 -0.9309  0.7181  0.3038
  981MOL0     H35373   4.640  10.515   6.936 -0.5819 -0.2889 -0.0134
  981MOL0     H35374   4.578  10.157   6.736 -0.0889  0.9880 -1.0611
  981MOL0     H35375   4.965  10.163   7.377  1.3576  0.8579 -1.2289
  981MOL0     H35376   4.847  10.059   7.655  1.7098 -3.0450  1.6680
  981MOL0     H35377   5.011  10.034   7.600  0.2544  0.3003  0.4170
  981MOL0     H35378   4.987  10.105   7.754 -3.1968  1.1263  0.9065
  982MOL0     O35379   8.749   7.525  10.020  0.5124 -1.1551  0.9813
  982MOL0     C35380   8.712   7.577  10.127 -0.0972  0.7029 -0.0278
  982MOL0     O35381   8.627   7.513  10.216  0.2284 -0.3732  0.2161
  982MOL0     C35382   8.589   7.379  10.218 -0.1327 -1.2509 -0.5776
  982MOL0     C35383   8.471   7.348  10.294  0.1148 -0.1014  0.1230
  982MOL0     C35384   8.432   7.214  10.319 -0.2432 -0.0668 -0.6509
  982MOL0     C35385   8.516   7.110  10.269 -0.2071 -0.8051  0.4849
  982MOL0     O35386   8.499   6.977  10.288  0.3826  0.1491 -0.4525
  982MOL0     C35387   8.407   6.942  10.395 -0.0872 -0.0620 -0.1115
  982MOL0     C35388   8.438   6.793  10.434 -0.2084  0.0703  0.0354
  982MOL0     C35389   8.316   6.717  10.482  0.5848 -0.8577 -0.4035
  982MOL0     C35390   8.283   6.741  10.635 -0.3515  0.1185  0.1939
  982MOL0     C35391   8.141   6.679  10.667  0.0601  0.2429  0.2104
  982MOL0     C35392   8.032   6.782  10.632 -0.4171 -0.1840 -0.1717
  982MOL0     C35393   7.893   6.727  10.664 -0.6881  0.2697 -0.3262
  982MOL0     C35394   7.786   6.841  10.661 -0.9167 -0.7798  0.6219
  982MOL0     N35395   7.647   6.797  10.678  0.1951 -0.1693 -0.0378
  982MOL0     C35396   7.568   6.795  10.783 -0.6196  0.5923  0.0985
  982MOL0     C35397   7.457   6.730  10.744 -0.1969  0.3020  0.0367
  982MOL0     C35398   7.331   6.721  10.831 -0.3726  0.1902  0.2782
  982MOL0     C35399   7.339   6.623  10.948 -0.3143  0.7619  0.3645
  982MOL0     C35400   7.210   6.622  11.030  0.1596  0.7648  0.3215
  982MOL0     C35401   7.211   6.587  11.178 -0.1664 -0.5746  0.0059
  982MOL0     O35402   7.248   6.450  11.200 -0.5778 -0.0281 -0.4872
  982MOL0     C35403   7.328   6.423  11.307  0.2527  0.6119 -0.3635
  982MOL0     C35404   7.315   6.476  11.433  0.5812 -0.0107 -0.0462
  982MOL0     C35405   7.415   6.453  11.538  0.0047 -0.2600 -0.5585
  982MOL0     C35406   7.379   6.509  11.674 -0.0925  0.6190  0.1203
  982MOL0     C35407   7.531   6.389  11.501  0.5152  0.1295  0.5290
  982MOL0     C35408   7.649   6.371  11.587 -0.9992 -0.0892  0.2494
  982MOL0     O35409   7.721   6.269  11.555  0.0665  0.9415  0.0261
  982MOL0     C35410   7.813   6.219  11.649  0.8495 -0.2730  0.3204
  982MOL0     C35411   7.924   6.305  11.669  0.2532 -0.2039 -0.5923
  982MOL0     C35412   8.034   6.262  11.749 -0.0934  0.6043 -0.8703
  982MOL0     C35413   8.028   6.128  11.812  0.2346 -0.6110 -0.0240
  982MOL0     O35414   8.131   6.105  11.905  0.0628  0.2791  0.3303
  982MOL0     C35415   8.111   5.989  11.988  0.2271 -0.4046 -0.1245
  982MOL0     C35416   7.993   6.018  12.083  0.7714 -0.6279 -0.3843
  982MOL0     C35417   8.000   6.160  12.150  0.2069 -0.8758  0.7537
  982MOL0     C35418   7.893   6.159  12.261 -0.4390  0.1631 -0.0460
  982MOL0     C35419   7.858   6.302  12.322 -0.3021  0.3139 -0.5342
  982MOL0     C35420   7.747   6.294  12.440 -0.3479 -0.5896  0.6662
  982MOL0     C35421   7.700   6.429  12.497  0.0917  0.6393 -0.1634
  982MOL0     C35422   7.557   6.454  12.448 -0.4009 -0.1895 -0.7142
  982MOL0    Cl35423   7.424   6.368  12.538  0.2780 -0.8840 -0.3556
  982MOL0     C35424   7.921   6.041  11.771 -0.0390  0.2450  0.5667
  982MOL0     C35425   7.815   6.088  11.690 -0.5356 -0.4528 -0.7634
  982MOL0     O35426   7.676   6.455  11.677 -0.4104  0.5858  0.5186
  982MOL0     C35427   7.546   6.338  11.367  0.0113 -0.2801  0.1974
  982MOL0     C35428   7.444   6.351  11.277  0.0330 -0.1943  0.0621
  982MOL0     N35429   7.470   6.704  10.603  0.6303 -0.5392 -0.5159
  982MOL0     N35430   7.582   6.745  10.575  0.6149 -0.3945 -0.4803
  982MOL0     C35431   8.626   7.152  10.186  0.8423  1.0042  0.4635
  982MOL0     C35432   8.664   7.278  10.157  0.3384  1.1941  0.2147
  982MOL0     C35433   8.773   7.697  10.170 -0.1436  0.0543 -0.5576
  982MOL0     C35434   8.756   7.734  10.301  0.0746 -0.3953 -0.6714
  982MOL0     C35435   8.835   7.834  10.367 -0.6132  0.7275  0.6107
  982MOL0     C35436   8.931   7.902  10.293 -0.1275  0.4222 -0.8313
  982MOL0     O35437   9.007   7.999  10.349 -0.0946  0.0160  0.5275
  982MOL0     C35438   9.014   8.012  10.486 -0.3892  0.4114  0.4343
  982MOL0     C35439   9.099   8.126  10.515 -0.0813 -0.0791  0.0238
  982MOL0     C35440   9.244   8.115  10.463 -0.3723  0.4214  0.0759
  982MOL0     C35441   9.308   8.007  10.560  0.0945 -0.2503  0.3439
  982MOL0     C35442   9.452   8.014  10.545  0.5108 -0.1351  0.1245
  982MOL0     C35443   9.563   8.057  10.542  0.5808  0.0347  0.0467
  982MOL0     C35444   8.938   7.880  10.160 -0.0047 -0.5930  0.3830
  982MOL0     C35445   8.857   7.784  10.099 -0.1153  0.3183  0.7166
  982MOL0     C35446   8.870   7.779   9.947  0.5788  0.6018 -0.4725
  982MOL0     H35447   8.410   7.427  10.336  0.1695 -0.8025  1.5877
  982MOL0     H35448   8.339   7.194  10.370  1.2330  1.2530  2.8555
  982MOL0     H35449   8.305   6.950  10.358 -0.3609  1.1219  0.8461
  982MOL0     H35450   8.423   7.007  10.482 -0.3467 -1.5052  1.0428
  982MOL0     H35451   8.467   6.738  10.344  0.1161  1.8145 -0.9830
  982MOL0     H35452   8.526   6.786  10.499  0.2756  5.0662  0.2996
  982MOL0     H35453   8.241   6.751  10.410  1.7889  0.6734 -0.9979
  982MOL0     H35454   8.322   6.609  10.474 -1.3399 -1.1741  1.5597
  982MOL0     H35455   8.353   6.682  10.696  1.7937  3.0073  0.7672
  982MOL0     H35456   8.286   6.847  10.662 -1.9364  0.3396 -0.4003
  982MOL0     H35457   8.141   6.657  10.774  0.7511  3.2160  0.9250
  982MOL0     H35458   8.120   6.590  10.606 -0.3291  1.9510 -2.3297
  982MOL0     H35459   8.054   6.871  10.692  1.1215  0.9314 -2.2688
  982MOL0     H35460   8.032   6.825  10.532 -0.8112  2.8113  1.0260
  982MOL0     H35461   7.899   6.685  10.765 -0.0462  3.0102  0.8694
  982MOL0     H35462   7.865   6.646  10.596 -1.3542  0.0091  0.2354
  982MOL0     H35463   7.806   6.916  10.739  0.4116 -0.0218 -0.4140
  982MOL0     H35464   7.791   6.880  10.559 -3.0124 -1.0905  0.3667
  982MOL0     H35465   7.596   6.818  10.885 -1.0233 -0.6320  0.4983
  982MOL0     H35466   7.241   6.700  10.772 -2.2031  0.4931  2.8100
  982MOL0     H35467   7.315   6.819  10.878 -2.9353 -0.0395 -0.0156
  982MOL0     H35468   7.345   6.519  10.914 -2.8714  0.8391 -0.5616
  982MOL0     H35469   7.421   6.642  11.017 -0.2787 -2.0919  1.2396
  982MOL0     H35470   7.168   6.721  11.016  1.3183  0.9534 -2.3562
  982MOL0     H35471   7.142   6.552  10.980 -1.6721 -0.0293  3.6235
  982MOL0     H35472   7.270   6.661  11.234  1.0929  1.3153 -3.4864
  982MOL0     H35473   7.106   6.594  11.207  0.0749  0.4296  0.7029
  982MOL0     H35474   7.233   6.542  11.460  1.7389  2.8748 -2.9919
  982MOL0     H35475   7.328   6.438  11.739  0.8631 -1.1767 -0.9975
  982MOL0     H35476   7.322   6.602  11.675 -1.2441 -0.0622 -0.2930
  982MOL0     H35477   7.473   6.533  11.724 -0.4799 -2.1328  2.3810
  982MOL0     H35478   7.929   6.405  11.627 -1.3249  0.1051 -0.0888
  982MOL0     H35479   8.112   6.337  11.757 -0.8559  1.2468  1.4722
  982MOL0     H35480   8.100   5.894  11.935 -1.2346 -0.9411  1.0738
  982MOL0     H35481   8.193   5.964  12.056 -1.9064  1.0958  3.3089
  982MOL0     H35482   7.904   6.012  12.021  1.4845 -0.2273 -1.4833
  982MOL0     H35483   8.000   5.940  12.160  1.8426  0.8093  1.0691
  982MOL0     H35484   7.971   6.234  12.075  1.3389  0.1079  1.2513
  982MOL0     H35485   8.100   6.189  12.183  0.3116  2.6016 -2.0779
  982MOL0     H35486   7.932   6.093  12.339  0.9799  0.2710 -0.6500
  982MOL0     H35487   7.797   6.120  12.225  1.0114 -0.0125 -4.2656
  982MOL0     H35488   7.944   6.349  12.369 -0.1747  2.4162 -2.6809
  982MOL0     H35489   7.837   6.378  12.246 -2.1123  2.7403  2.1758
  982MOL0     H35490   7.790   6.224  12.514 -1.4555 -1.6118  0.3691
  982MOL0     H35491   7.664   6.235  12.400  0.2338 -1.5659  0.8520
  982MOL0     H35492   7.768   6.506  12.459 -0.1115  1.0039  0.1986
  982MOL0     H35493   7.707   6.443  12.605  1.1711  0.5852 -0.2201
  982MOL0     H35494   7.561   6.435  12.341  0.9191  1.8586 -1.0933
  982MOL0     H35495   7.539   6.562  12.459  0.6273 -0.1828  1.4756
  982MOL0     H35496   7.903   5.941  11.808 -3.0469  0.5282  0.1816
  982MOL0     H35497   7.734   6.021  11.665 -1.1170 -0.1155  0.1470
  982MOL0     H35498   7.635   6.283  11.338 -0.0187 -0.5041  0.5110
  982MOL0     H35499   7.443   6.305  11.179  2.3218 -1.8912  0.7360
  982MOL0     H35500   8.691   7.073  10.152 -1.7930 -1.5427  0.9837
  982MOL0     H35501   8.756   7.285  10.100  2.6179 -1.9568  3.0359
  982MOL0     H35502   8.684   7.688  10.367  1.9342 -0.7055  1.2557
  982MOL0     H35503   8.824   7.863  10.471 -0.6863  0.5168  0.6615
  982MOL0     H35504   8.914   8.034  10.524 -1.0998  1.5733 -1.9377
  982MOL0     H35505   9.048   7.927  10.546  0.6298 -0.4778 -1.3293
  982MOL0     H35506   9.098   8.155  10.620  2.0957  2.7914 -0.5956
  982MOL0     H35507   9.057   8.216  10.468 -2.7147 -1.0273  0.4077
  982MOL0     H35508   9.253   8.090  10.357  2.7773 -2.8124  0.9073
  982MOL0     H35509   9.291   8.213  10.472  0.8192 -0.0134 -1.1381
  982MOL0     H35510   9.265   7.910  10.533  0.6962 -0.4468  0.0677
  982MOL0     H35511   9.286   8.039  10.662 -1.4183 -1.0207  0.2744
  982MOL0     H35512   9.663   8.095  10.544  1.4923 -2.0144 -1.6734
  982MOL0     H35513   9.007   7.931  10.092 -1.1730  1.9303  0.9654
  982MOL0     H35514   8.908   7.870   9.900  0.8361  0.4176 -0.6232
  982MOL0     H35515   8.938   7.698   9.921  0.2490  1.2223 -3.7347
  982MOL0     H35516   8.775   7.746   9.904 -1.2637 -0.3900  3.8027
  983MOL0     O35517   0.267   5.344  11.350  0.8320 -0.5916 -0.6741
  983MOL0     C35518   0.197   5.278  11.427 -0.0484  0.2036 -0.3446
  983MOL0     O35519   0.086   5.314  11.482 -0.3672  0.8583  0.5684
  983MOL0     C35520   0.029   5.433  11.451  0.3474  0.0512  0.4083
  983MOL0     C35521   0.099   5.552  11.457  0.4473  0.6408  0.1771
  983MOL0     C35522   0.039   5.675  11.430  0.0561 -0.2465 -0.2610
  983MOL0     C35523  -0.098   5.669  11.382 -1.1876 -0.7399  1.0361
  983MOL0     O35524  -0.165   5.787  11.356 -0.4627  0.7821  0.6107
  983MOL0     C35525  -0.307   5.807  11.370 -0.3425 -0.2840  0.6919
  983MOL0     C35526  -0.333   5.956  11.382 -0.4728 -0.2030 -0.3145
  983MOL0     C35527  -0.293   6.022  11.525  0.3941  1.3140  1.0639
  983MOL0     C35528  -0.333   6.167  11.506  0.6136  0.0551  0.4130
  983MOL0     C35529  -0.335   6.247  11.645 -0.4315 -0.8736 -0.5777
  983MOL0     C35530  -0.195   6.256  11.707 -0.2508  0.6889 -0.1435
  983MOL0     C35531  -0.201   6.349  11.835 -0.1453  0.1620  0.5709
  983MOL0     C35532  -0.071   6.437  11.868  1.1566 -0.5520  0.3005
  983MOL0     N35533  -0.029   6.514  11.742 -0.2628  0.8075  0.1440
  983MOL0     C35534  -0.103   6.601  11.669  0.1686 -0.1000  0.0590
  983MOL0     C35535  -0.002   6.628  11.578 -0.8550 -0.2530  0.1012
  983MOL0     C35536  -0.014   6.743  11.483  0.8233 -0.4110  0.2172
  983MOL0     C35537   0.028   6.708  11.342  0.2329 -0.2425  0.2092
  983MOL0     C35538  -0.031   6.584  11.284 -0.2475  0.3654  0.3164
  983MOL0     C35539  -0.002   6.565  11.137  0.0750  0.1944 -0.5558
  983MOL0     O35540  -0.089   6.633  11.049  0.1378 -0.0246  0.5927
  983MOL0     C35541  -0.083   6.602  10.915 -0.0721 -0.1581 -0.3481
  983MOL0     C35542  -0.029   6.490  10.859  0.7243  1.2879 -0.0846
  983MOL0     C35543  -0.032   6.479  10.720 -0.0278 -1.6542 -0.6731
  983MOL0     C35544   0.010   6.337  10.677 -0.3168 -0.4082 -0.5232
  983MOL0     C35545  -0.111   6.565  10.634  0.0845 -0.3943 -0.0988
  983MOL0     C35546  -0.129   6.551  10.485  0.5652  0.4504  0.3054
  983MOL0     O35547  -0.053   6.457  10.414  1.2202  0.3920 -0.8425
  983MOL0     C35548  -0.033   6.479  10.280 -0.9639 -0.0974  0.3754
  983MOL0     C35549  -0.140   6.504  10.195  0.4008  0.2294 -0.1498
  983MOL0     C35550  -0.126   6.528  10.054 -0.3673  0.3021  0.1058
  983MOL0     C35551   0.003   6.512   9.992  0.9988  0.5030 -0.7582
  983MOL0     O35552   0.017   6.500   9.856  0.2362 -0.2304 -0.0449
  983MOL0     C35553  -0.086   6.424   9.799  0.4220  0.1492 -0.7396
  983MOL0     C35554  -0.073   6.422   9.645 -0.2336  0.7108 -0.8915
  983MOL0     C35555  -0.175   6.326   9.580 -0.1460  0.0462 -0.2451
  983MOL0     C35556  -0.299   6.400   9.534  1.5049  0.2939 -0.1266
  983MOL0     C35557  -0.389   6.332   9.432  0.4139 -0.3439 -0.2054
  983MOL0     C35558  -0.463   6.216   9.491 -0.0873  0.3559  0.6896
  983MOL0     C35559  -0.540   6.132   9.376  0.0510  0.0408 -0.0324
  983MOL0     C35560  -0.599   5.999   9.439 -0.3713 -1.0384 -0.5533
  983MOL0    Cl35561  -0.716   6.032   9.570  0.2229  0.2526 -0.3574
  983MOL0     C35562   0.111   6.496  10.078 -0.5381 -0.6610 -0.6028
  983MOL0     C35563   0.090   6.485  10.217  0.0390  0.2181 -0.6262
  983MOL0     O35564  -0.210   6.632  10.438 -0.0407 -0.6108  0.1486
  983MOL0     C35565  -0.170   6.682  10.689 -0.0853  0.8205 -0.4793
  983MOL0     C35566  -0.153   6.691  10.829 -0.2877 -0.3688  0.8580
  983MOL0     N35567   0.115   6.552  11.592  0.8825  0.4524  0.2665
  983MOL0     N35568   0.099   6.483  11.693 -0.8217 -0.3475 -1.1553
  983MOL0     C35569  -0.163   5.548  11.372  0.9176 -0.0669 -0.2602
  983MOL0     C35570  -0.107   5.436  11.416  0.2245 -0.4433 -0.2077
  983MOL0     C35571   0.264   5.156  11.484  0.2964 -0.0892  0.0188
  983MOL0     C35572   0.290   5.146  11.626  1.5959 -0.1552 -0.1575
  983MOL0     C35573   0.355   5.029  11.670  0.7023  0.0094 -0.1650
  983MOL0     C35574   0.413   4.936  11.590  0.3509 -0.4050  0.4854
  983MOL0     O35575   0.476   4.835  11.661 -0.2112 -0.4820  0.4838
  983MOL0     C35576   0.561   4.745  11.586  0.2973  0.3080  0.3536
  983MOL0     C35577   0.488   4.627  11.512 -0.0511 -0.4878 -0.7484
  983MOL0     C35578   0.476   4.504  11.613  0.0934 -0.4817  0.9232
  983MOL0     C35579   0.385   4.535  11.727  0.8830  0.0400 -0.5631
  983MOL0     C35580   0.382   4.425  11.828  0.6539 -1.3043  0.3302
  983MOL0     C35581   0.344   4.350  11.918  2.1501 -0.0770  0.2751
  983MOL0     C35582   0.393   4.947  11.454 -0.6840 -0.9647 -1.7087
  983MOL0     C35583   0.325   5.058  11.404  0.7332  0.9845 -0.1957
  983MOL0     C35584   0.309   5.069  11.257  0.0578 -0.1597  0.3241
  983MOL0     H35585   0.200   5.553  11.496 -0.3164  0.8043  2.2372
  983MOL0     H35586   0.087   5.769  11.456 -2.9991  1.8620 -1.7060
  983MOL0     H35587  -0.338   5.759  11.463  0.1594 -0.0625  0.9767
  983MOL0     H35588  -0.358   5.766  11.282 -0.1266  1.0763 -0.0903
  983MOL0     H35589  -0.271   6.011  11.310  1.5654  0.2591  1.6977
  983MOL0     H35590  -0.440   5.965  11.361 -1.0040 -4.0512  0.0305
  983MOL0     H35591  -0.358   5.974  11.598 -1.4495 -1.8536 -2.3495
  983MOL0     H35592  -0.185   6.019  11.545  0.7273  4.5768  0.4114
  983MOL0     H35593  -0.260   6.205  11.433  1.8538 -2.9463 -0.0508
  983MOL0     H35594  -0.428   6.170  11.452  1.7561  0.7408 -1.6722
  983MOL0     H35595  -0.401   6.210  11.724 -1.9106 -1.7771 -2.1877
  983MOL0     H35596  -0.379   6.346  11.629  3.5030  1.2243  0.1644
  983MOL0     H35597  -0.151   6.158  11.731 -0.6898  0.4114 -0.4611
  983MOL0     H35598  -0.126   6.291  11.630 -0.4391 -2.0423 -1.6898
  983MOL0     H35599  -0.236   6.300  11.926  3.0393  0.7101  2.2196
  983MOL0     H35600  -0.272   6.428  11.810 -0.2464  0.0135  0.3900
  983MOL0     H35601  -0.089   6.507  11.950  1.1738 -1.3278  0.9703
  983MOL0     H35602   0.007   6.382  11.921 -0.7776  0.2665  4.3817
  983MOL0     H35603  -0.205   6.636  11.674  0.5899  1.0294  1.5439
  983MOL0     H35604   0.044   6.830  11.515  0.6651  0.6828 -2.2391
  983MOL0     H35605  -0.118   6.777  11.473  0.3984 -1.0544  2.1215
  983MOL0     H35606   0.002   6.793  11.279 -1.6527 -1.3365 -0.5830
  983MOL0     H35607   0.135   6.688  11.332  0.2511  0.6161 -1.5947
  983MOL0     H35608   0.005   6.491  11.329 -2.4018 -2.5182 -3.3128
  983MOL0     H35609  -0.139   6.587  11.300 -0.1026 -0.6800  1.6247
  983MOL0     H35610   0.103   6.594  11.121  1.3737 -3.4670  0.1700
  983MOL0     H35611  -0.008   6.457  11.117  1.2232  0.1718 -0.8781
  983MOL0     H35612   0.017   6.424  10.931  0.3471  3.1231  1.9755
  983MOL0     H35613  -0.076   6.282  10.638 -1.1795 -0.1144  0.8705
  983MOL0     H35614   0.057   6.269  10.749 -0.8615 -2.4870 -2.0379
  983MOL0     H35615   0.091   6.346  10.604  2.8255 -2.3889  2.4090
  983MOL0     H35616  -0.240   6.492  10.236  1.2585  1.3772  2.5065
  983MOL0     H35617  -0.217   6.548   9.997 -0.2006  1.5499  0.2498
  983MOL0     H35618  -0.087   6.324   9.845  3.9826 -0.7061 -2.1522
  983MOL0     H35619  -0.187   6.465   9.800 -0.0337 -0.8334 -2.4221
  983MOL0     H35620  -0.082   6.526   9.615  0.1391  2.0984  3.2173
  983MOL0     H35621   0.028   6.387   9.623  1.6793  2.6406  3.6461
  983MOL0     H35622  -0.214   6.244   9.640 -2.7070  1.1188 -0.3423
  983MOL0     H35623  -0.114   6.294   9.495  0.9959  0.5149  0.3687
  983MOL0     H35624  -0.262   6.493   9.489 -0.1156  0.4984 -1.1150
  983MOL0     H35625  -0.360   6.433   9.618  2.2737  3.1221 -0.5811
  983MOL0     H35626  -0.456   6.405   9.386  0.0011  0.9806  2.2903
  983MOL0     H35627  -0.317   6.287   9.364  1.7238  1.8718 -0.3748
  983MOL0     H35628  -0.532   6.255   9.566 -0.1123  1.4651  0.1087
  983MOL0     H35629  -0.398   6.150   9.550  0.0213 -1.2454 -1.1156
  983MOL0     H35630  -0.476   6.116   9.289 -0.4743 -1.3459 -0.1895
  983MOL0     H35631  -0.625   6.194   9.345  0.7022  1.0169  0.0700
  983MOL0     H35632  -0.524   5.926   9.471  0.1772  0.5342  1.9752
  983MOL0     H35633  -0.644   5.942   9.357  1.6478 -3.7812  0.0934
  983MOL0     H35634   0.203   6.486  10.021 -0.1491  1.5254 -0.4201
  983MOL0     H35635   0.171   6.474  10.287 -1.4187 -4.4046  0.6299
  983MOL0     H35636  -0.236   6.751  10.637 -4.0563 -1.2930  1.2554
  983MOL0     H35637  -0.185   6.782  10.879  3.1308  0.9343  0.8998
  983MOL0     H35638  -0.270   5.544  11.351  0.9276  0.0930 -0.3456
  983MOL0     H35639  -0.165   5.346  11.426  1.7073 -1.6608 -1.8746
  983MOL0     H35640   0.261   5.218  11.703  0.7876 -0.6452  0.0150
  983MOL0     H35641   0.377   5.027  11.776  2.7935  2.8918 -0.4353
  983MOL0     H35642   0.618   4.802  11.511 -1.0917  2.5027  0.8892
  983MOL0     H35643   0.647   4.711  11.644 -1.3511  0.3023  2.9202
  983MOL0     H35644   0.543   4.601  11.421 -0.1761  0.5139 -1.1326
  983MOL0     H35645   0.390   4.668  11.483 -2.2688 -4.4095  0.5447
  983MOL0     H35646   0.453   4.406  11.571  1.1201 -0.4422  0.2564
  983MOL0     H35647   0.579   4.485  11.642  0.0325  0.2970  1.7291
  983MOL0     H35648   0.286   4.555  11.685  2.2588  1.0074 -3.6714
  983MOL0     H35649   0.413   4.623  11.785 -1.3797  0.5728 -0.2057
  983MOL0     H35650   0.325   4.275  11.993  1.4598  0.6509  0.8487
  983MOL0     H35651   0.426   4.865  11.390  0.0172 -2.1932  0.1580
  983MOL0     H35652   0.358   5.161  11.225 -1.2554  0.8883  1.1831
  983MOL0     H35653   0.362   4.995  11.198 -0.1208  1.5353 -2.0937
  983MOL0     H35654   0.204   5.070  11.225  0.3338 -0.3694 -0.6030
  984MOL0     O35655   3.981   8.309   3.314 -0.2867 -0.4625 -0.7781
  984MOL0     C35656   3.865   8.283   3.333  0.8992  0.0150  0.4768
  984MOL0     O35657   3.759   8.370   3.312 -0.0184  0.3514  0.6357
  984MOL0     C35658   3.783   8.496   3.259 -0.4628 -0.2436 -0.2039
  984MOL0     C35659   3.871   8.516   3.155  0.3366  0.0276  0.2423
  984MOL0     C35660   3.885   8.649   3.106 -0.4715  0.1406 -0.0074
  984MOL0     C35661   3.821   8.760   3.159 -0.3672  0.4319 -0.8536
  984MOL0     O35662   3.837   8.891   3.124  0.3621 -0.2107 -0.0192
  984MOL0     C35663   3.883   8.936   2.992 -0.0479  0.7408  0.2237
  984MOL0     C35664   3.853   9.085   2.964 -0.0276  0.0032 -0.0821
  984MOL0     C35665   3.976   9.157   2.894  0.1286 -0.7365  0.4159
  984MOL0     C35666   3.944   9.292   2.836 -0.6275  0.1516  0.4508
  984MOL0     C35667   3.959   9.413   2.926  0.5592 -0.2858  0.3271
  984MOL0     C35668   3.898   9.536   2.863  0.2692 -0.6233  0.8795
  984MOL0     C35669   3.944   9.573   2.717  0.5285 -0.5289 -0.7692
  984MOL0     C35670   3.884   9.694   2.646 -0.6474  0.8296  0.7356
  984MOL0     N35671   3.926   9.824   2.703 -0.1652 -0.6463  0.7580
  984MOL0     C35672   4.034   9.900   2.661 -0.4707 -0.8682 -0.1646
  984MOL0     C35673   4.019  10.017   2.735  0.4254  0.0354  0.0070
  984MOL0     C35674   4.098  10.143   2.734  0.2811  0.2146  0.5925
  984MOL0     C35675   4.247  10.115   2.754 -0.0500  0.1177 -0.1322
  984MOL0     C35676   4.325  10.236   2.801  0.7863  1.1437  0.6198
  984MOL0     C35677   4.477  10.198   2.782  0.3111 -0.4145  0.2723
  984MOL0     O35678   4.554  10.317   2.821  0.8850  0.0898  0.3704
  984MOL0     C35679   4.563  10.423   2.731  0.0407  0.5597  0.0576
  984MOL0     C35680   4.622  10.536   2.774 -0.3282  0.0719  0.9783
  984MOL0     C35681   4.661  10.650   2.696 -0.1721  0.3975 -0.3571
  984MOL0     C35682   4.738  10.747   2.773  1.0757 -0.6384 -0.2775
  984MOL0     C35683   4.635  10.647   2.555  1.0734  0.1329  0.2635
  984MOL0     C35684   4.650  10.769   2.467  0.4973  0.3276  0.1747
  984MOL0     O35685   4.648  10.738   2.330  0.0130 -0.5124  0.3339
  984MOL0     C35686   4.693  10.835   2.246 -0.4827  0.8338 -0.0047
  984MOL0     C35687   4.602  10.941   2.215  0.0133 -1.0728  0.0567
  984MOL0     C35688   4.645  11.043   2.125 -0.8403 -0.1030 -0.2263
  984MOL0     C35689   4.774  11.051   2.078  0.2313  0.3988  0.0043
  984MOL0     O35690   4.820  11.164   2.010  0.0422  0.0720 -0.3454
  984MOL0     C35691   4.903  11.140   1.895 -0.3986 -0.0654  0.8937
  984MOL0     C35692   4.895  11.254   1.798 -0.0648 -0.9086  0.4158
  984MOL0     C35693   5.020  11.261   1.707  0.0057 -0.1986 -0.7960
  984MOL0     C35694   5.043  11.144   1.613 -0.4010 -0.6793  0.0682
  984MOL0     C35695   5.187  11.152   1.559  0.3887 -1.1655 -0.4676
  984MOL0     C35696   5.281  11.052   1.632  0.1856 -0.5171 -0.0567
  984MOL0     C35697   5.280  11.044   1.779 -0.9801  0.1525  0.0493
  984MOL0     C35698   5.406  10.981   1.832 -0.6573 -0.0272  0.4048
  984MOL0    Cl35699   5.419  10.815   1.762  0.4740  0.1087  0.2767
  984MOL0     C35700   4.865  10.937   2.100 -0.0019 -0.4311  0.4374
  984MOL0     C35701   4.818  10.829   2.181  0.6005  0.0268  0.6030
  984MOL0     O35702   4.653  10.882   2.513 -0.5385 -0.5399  0.4284
  984MOL0     C35703   4.581  10.530   2.504  1.0555 -0.4710 -0.3599
  984MOL0     C35704   4.541  10.422   2.595  0.1084  0.2352 -0.2258
  984MOL0     N35705   3.914   9.995   2.826 -0.3605 -0.7461 -0.4923
  984MOL0     N35706   3.871   9.879   2.813  0.3113 -0.1678 -0.9743
  984MOL0     C35707   3.748   8.742   3.279  0.0339 -0.0574  0.5783
  984MOL0     C35708   3.725   8.605   3.322 -0.6658 -0.2413  0.3444
  984MOL0     C35709   3.820   8.149   3.354  1.6469 -0.3628  0.9849
  984MOL0     C35710   3.699   8.122   3.423 -0.1975 -0.6688  0.1676
  984MOL0     C35711   3.646   7.998   3.450 -0.1011 -0.4040 -0.8215
  984MOL0     C35712   3.712   7.883   3.404 -0.1356  0.4527 -0.6188
  984MOL0     O35713   3.661   7.760   3.417 -0.0288  0.2359 -0.3223
  984MOL0     C35714   3.730   7.649   3.348 -0.4934  0.6073  0.0420
  984MOL0     C35715   3.646   7.512   3.366  0.5173 -0.3030 -0.1899
  984MOL0     C35716   3.652   7.411   3.240  0.8460 -0.3230 -1.0276
  984MOL0     C35717   3.611   7.459   3.104  0.3931  0.5776  0.1247
  984MOL0     C35718   3.467   7.488   3.117 -0.2087  0.2332 -0.8553
  984MOL0     C35719   3.345   7.508   3.131  0.0430  1.4939  1.3112
  984MOL0     C35720   3.839   7.905   3.343  0.4465  0.2096 -0.0286
  984MOL0     C35721   3.887   8.037   3.309 -0.2092  0.3792  0.1841
  984MOL0     C35722   4.019   8.039   3.219  0.2452  0.1200 -0.2050
  984MOL0     H35723   3.907   8.429   3.100  1.7461  0.0767  1.0412
  984MOL0     H35724   3.956   8.659   3.026  0.5875 -3.1717  0.3975
  984MOL0     H35725   3.842   8.889   2.902  1.1365  1.2659 -0.6255
  984MOL0     H35726   3.988   8.908   2.983 -0.8947 -3.4863  1.6007
  984MOL0     H35727   3.760   9.090   2.907 -0.2745  1.3789  0.4118
  984MOL0     H35728   3.832   9.136   3.058 -2.1133  2.0542 -1.5543
  984MOL0     H35729   4.059   9.177   2.962  2.3313  3.2085 -2.9779
  984MOL0     H35730   4.005   9.085   2.817 -0.3041 -3.7671  2.8862
  984MOL0     H35731   4.010   9.319   2.753 -1.0120  2.5509  0.8443
  984MOL0     H35732   3.838   9.298   2.808 -0.1885  1.4187 -1.0883
  984MOL0     H35733   4.065   9.426   2.950  0.6193  1.0440 -0.5456
  984MOL0     H35734   3.910   9.404   3.023  1.0454 -2.1502  0.4525
  984MOL0     H35735   3.790   9.520   2.850  0.1824 -2.1767  3.1426
  984MOL0     H35736   3.904   9.626   2.925 -3.2280  0.2103  0.2360
  984MOL0     H35737   3.916   9.496   2.643  1.9376 -1.4309 -0.3875
  984MOL0     H35738   4.052   9.580   2.728  0.2749 -0.5889  3.2663
  984MOL0     H35739   3.916   9.700   2.542 -0.8181 -1.1065  0.5376
  984MOL0     H35740   3.775   9.684   2.646 -0.6878  0.9054 -1.3448
  984MOL0     H35741   4.099   9.886   2.575 -0.9515 -0.3509 -0.6228
  984MOL0     H35742   4.066  10.198   2.823 -1.4256  1.5573 -0.7812
  984MOL0     H35743   4.064  10.195   2.644 -1.2773 -2.4279 -0.4678
  984MOL0     H35744   4.261  10.029   2.819 -1.7804 -1.3645 -1.5930
  984MOL0     H35745   4.284  10.086   2.655  0.6880 -2.0972  0.7450
  984MOL0     H35746   4.303  10.311   2.724  3.3245 -1.7435 -3.3960
  984MOL0     H35747   4.302  10.259   2.905  1.5699 -1.4877  1.4678
  984MOL0     H35748   4.516  10.115   2.842  0.4435 -0.3548  0.2710
  984MOL0     H35749   4.488  10.172   2.676 -3.4988 -1.9855  0.1074
  984MOL0     H35750   4.636  10.546   2.882 -4.1953  1.2676  1.5326
  984MOL0     H35751   4.680  10.837   2.794 -1.4265 -1.8431 -1.5962
  984MOL0     H35752   4.830  10.784   2.727  0.6180 -1.4988 -1.9500
  984MOL0     H35753   4.771  10.709   2.870  0.6138  1.7310  0.8833
  984MOL0     H35754   4.513  10.963   2.274  1.1489  0.3664  1.2967
  984MOL0     H35755   4.588  11.133   2.106  0.0799  0.8905  1.4578
  984MOL0     H35756   5.001  11.146   1.943  0.7150  0.1936 -1.2927
  984MOL0     H35757   4.897  11.040   1.850  2.8029 -0.6765  1.5381
  984MOL0     H35758   4.804  11.234   1.741 -1.0027  2.0136  0.7055
  984MOL0     H35759   4.883  11.350   1.850 -2.4535 -1.2096  0.5195
  984MOL0     H35760   5.106  11.276   1.773 -2.6124  0.1972  2.8351
  984MOL0     H35761   5.014  11.348   1.640 -1.2285  1.6177  1.5286
  984MOL0     H35762   4.971  11.152   1.531 -0.4706 -0.2115  0.1720
  984MOL0     H35763   5.024  11.047   1.659 -0.7335 -2.4592 -3.4424
  984MOL0     H35764   5.198  11.124   1.454  0.9293 -1.2273 -0.3984
  984MOL0     H35765   5.217  11.257   1.564  0.0696 -1.0906 -0.0292
  984MOL0     H35766   5.383  11.059   1.594 -0.1420 -2.6112 -1.5294
  984MOL0     H35767   5.237  10.959   1.593  0.2196  1.5503 -6.1094
  984MOL0     H35768   5.187  10.995   1.809 -1.0015 -0.9012 -1.6041
  984MOL0     H35769   5.275  11.149   1.811 -0.5140  0.8997 -2.1432
  984MOL0     H35770   5.405  10.980   1.942 -2.5265  0.1864  0.4234
  984MOL0     H35771   5.490  11.045   1.803 -1.7841  0.0237 -3.2431
  984MOL0     H35772   4.961  10.934   2.050  0.4168  3.9074  0.5541
  984MOL0     H35773   4.884  10.744   2.199  0.3673 -0.0652  1.0458
  984MOL0     H35774   4.554  10.524   2.399  0.3260 -1.0413 -0.1468
  984MOL0     H35775   4.490  10.339   2.548  0.9839 -0.5619  0.2178
  984MOL0     H35776   3.710   8.830   3.329 -1.0500  1.0118 -1.9741
  984MOL0     H35777   3.672   8.588   3.415  0.4806 -4.6036  0.4294
  984MOL0     H35778   3.627   8.200   3.448  2.4864  2.5622 -1.5215
  984MOL0     H35779   3.550   7.983   3.498  0.2292 -3.3000 -0.8843
  984MOL0     H35780   3.727   7.665   3.240  0.0145 -1.2588 -0.2963
  984MOL0     H35781   3.835   7.639   3.378  0.0189 -1.4945 -2.1875
  984MOL0     H35782   3.545   7.545   3.393  0.6674  0.8090 -0.9186
  984MOL0     H35783   3.678   7.462   3.458 -1.2327  2.0323  1.8065
  984MOL0     H35784   3.758   7.386   3.234  1.2839  0.3407  2.1946
  984MOL0     H35785   3.610   7.313   3.263  2.6853 -0.4958  1.9982
  984MOL0     H35786   3.626   7.381   3.029 -2.0752 -4.2234  4.0211
  984MOL0     H35787   3.649   7.558   3.077  0.3773  0.6508  0.3658
  984MOL0     H35788   3.238   7.515   3.138 -0.2161  0.2844 -0.7012
  984MOL0     H35789   3.905   7.822   3.318 -1.5117 -1.5193  0.2078
  984MOL0     H35790   4.106   8.079   3.272 -0.1370  0.0828  0.4561
  984MOL0     H35791   4.044   7.944   3.171  2.0373  0.5116 -0.1342
  984MOL0     H35792   4.006   8.109   3.135  1.1568 -1.1519 -1.4529
  985MOL0     O35793   9.466   0.681   8.201 -0.1063 -0.4714  0.1388
  985MOL0     C35794   9.475   0.767   8.119  0.5376 -0.6390  1.1980
  985MOL0     O35795   9.498   0.750   7.986 -0.2680 -0.2055 -0.5721
  985MOL0     C35796   9.472   0.632   7.917 -0.3263  0.7361  0.1820
  985MOL0     C35797   9.380   0.530   7.955 -1.2043 -0.4367 -0.2546
  985MOL0     C35798   9.368   0.411   7.869 -0.4532 -0.3168 -1.0016
  985MOL0     C35799   9.449   0.391   7.766 -0.4014  0.4044  0.2284
  985MOL0     O35800   9.472   0.274   7.705  0.4110  0.3966  0.1504
  985MOL0     C35801   9.354   0.181   7.714 -0.7316 -0.2247 -0.1125
  985MOL0     C35802   9.382   0.069   7.624  0.5059  0.6694 -0.5176
  985MOL0     C35803   9.471  -0.046   7.678  1.1982  0.1909  0.1295
  985MOL0     C35804   9.507  -0.131   7.564 -1.2614  0.0201 -0.1746
  985MOL0     C35805   9.559  -0.265   7.619 -0.3182  0.3551  0.4843
  985MOL0     C35806   9.620  -0.338   7.496 -0.2173 -0.0635 -0.1312
  985MOL0     C35807   9.632  -0.489   7.510  0.7308 -0.6177 -0.4176
  985MOL0     C35808   9.717  -0.560   7.408 -0.1100  0.2169 -0.1891
  985MOL0     N35809   9.655  -0.535   7.273  0.1897  0.5801  0.1893
  985MOL0     C35810   9.708  -0.467   7.158 -0.4281  0.8966  0.2541
  985MOL0     C35811   9.610  -0.487   7.068 -0.2354 -0.1391  0.0174
  985MOL0     C35812   9.625  -0.417   6.932  0.6713 -0.9630 -0.3807
  985MOL0     C35813   9.760  -0.428   6.859 -0.6020  0.3655 -0.9900
  985MOL0     C35814   9.749  -0.390   6.705 -1.0304 -0.2029 -0.3091
  985MOL0     C35815   9.883  -0.350   6.651 -0.0395  0.5444 -0.4298
  985MOL0     O35816   9.860  -0.270   6.536 -0.1828  0.3092  0.1774
  985MOL0     C35817   9.974  -0.232   6.465  0.3281 -0.1756  0.4585
  985MOL0     C35818  10.106  -0.244   6.506  0.1350 -0.1243 -0.2391
  985MOL0     C35819  10.218  -0.213   6.423 -0.4304  0.4163  0.2084
  985MOL0     C35820  10.357  -0.228   6.489  0.1413  0.3027  0.6877
  985MOL0     C35821  10.188  -0.169   6.291  0.3553 -0.2293  0.5081
  985MOL0     C35822  10.281  -0.126   6.191 -0.3684 -0.1358  0.6101
  985MOL0     O35823  10.241  -0.141   6.066  0.4136  0.5780  0.0145
  985MOL0     C35824  10.347  -0.148   5.978  0.1957  0.2033 -0.2479
  985MOL0     C35825  10.427  -0.266   5.981  0.1447  0.4391  0.2129
  985MOL0     C35826  10.525  -0.279   5.885  0.2421 -0.4793  0.9042
  985MOL0     C35827  10.546  -0.187   5.783  1.7764 -0.0886 -0.0769
  985MOL0     O35828  10.623  -0.218   5.675 -0.1414  0.4902  0.0621
  985MOL0     C35829  10.646  -0.127   5.575  0.0767 -0.0060  0.4224
  985MOL0     C35830  10.752  -0.168   5.481 -0.1188  0.8260 -0.2094
  985MOL0     C35831  10.893  -0.193   5.541  0.9473  0.1855  0.3395
  985MOL0     C35832  10.966  -0.052   5.527 -0.9334 -0.2410  0.6097
  985MOL0     C35833  11.117  -0.056   5.563 -0.9720  0.7586  0.0496
  985MOL0     C35834  11.200  -0.153   5.472 -0.3283 -0.4271  0.8176
  985MOL0     C35835  11.352  -0.140   5.497  0.2698 -0.0724  0.1243
  985MOL0     C35836  11.440  -0.257   5.454 -0.6570 -0.4838 -0.0866
  985MOL0    Cl35837  11.596  -0.190   5.406 -0.2721  0.5366 -0.0292
  985MOL0     C35838  10.470  -0.067   5.793  0.1254  0.8411 -0.1911
  985MOL0     C35839  10.376  -0.044   5.897 -0.3587 -0.0250 -0.0927
  985MOL0     O35840  10.396  -0.092   6.223  0.1856 -0.0365  0.3829
  985MOL0     C35841  10.047  -0.157   6.254  0.1064  0.0876 -0.8516
  985MOL0     C35842   9.947  -0.200   6.336 -0.2421  1.0352 -0.2094
  985MOL0     N35843   9.508  -0.565   7.118  0.7232  0.0567 -0.0478
  985MOL0     N35844   9.534  -0.580   7.245  1.2619 -0.1860 -0.3707
  985MOL0     C35845   9.549   0.485   7.739  1.2020  0.4290 -0.5719
  985MOL0     C35846   9.551   0.612   7.803 -0.3966  0.5628  0.0306
  985MOL0     C35847   9.492   0.905   8.156 -0.2727 -0.7413 -0.6450
  985MOL0     C35848   9.412   1.007   8.094  0.2693  0.3030 -0.5121
  985MOL0     C35849   9.443   1.142   8.122  0.6978 -0.2194 -0.2155
  985MOL0     C35850   9.535   1.179   8.210 -0.2038 -0.6877  0.3418
  985MOL0     O35851   9.542   1.308   8.220  0.3069 -0.5875 -0.0222
  985MOL0     C35852   9.549   1.360   8.367  0.8757 -0.3827  0.4992
  985MOL0     C35853   9.413   1.315   8.438 -1.6160  0.1351  0.3418
  985MOL0     C35854   9.399   1.401   8.566  0.5420 -0.7469 -0.6500
  985MOL0     C35855   9.258   1.441   8.581  0.9046 -0.1606 -0.2666
  985MOL0     C35856   9.227   1.508   8.709 -0.0485 -0.1479 -0.3847
  985MOL0     C35857   9.235   1.575   8.806  0.7287  0.1960  0.2130
  985MOL0     C35858   9.598   1.082   8.281  0.7702 -0.3354  1.4685
  985MOL0     C35859   9.585   0.949   8.248 -0.0437 -0.1253  0.1679
  985MOL0     C35860   9.672   0.854   8.328 -0.3913 -0.5924 -0.0629
  985MOL0     H35861   9.311   0.530   8.039 -2.2074 -1.7064 -1.0469
  985MOL0     H35862   9.287   0.340   7.883  0.3920 -3.1965 -7.1878
  985MOL0     H35863   9.255   0.223   7.693 -0.6142  0.3382  0.4183
  985MOL0     H35864   9.357   0.142   7.816  0.4513  0.9341  0.3227
  985MOL0     H35865   9.286   0.022   7.599  0.3571  0.4832  0.3772
  985MOL0     H35866   9.434   0.107   7.536  0.0364 -1.6975 -1.9195
  985MOL0     H35867   9.563  -0.010   7.725  1.5396 -2.4630  1.6770
  985MOL0     H35868   9.417  -0.106   7.751 -0.9142  1.5427 -0.2524
  985MOL0     H35869   9.412  -0.149   7.512 -1.3252 -1.2951  0.3584
  985MOL0     H35870   9.583  -0.083   7.502 -0.1136  1.6132  2.2924
  985MOL0     H35871   9.483  -0.336   7.650 -0.0212 -2.2588 -3.8903
  985MOL0     H35872   9.632  -0.250   7.699  1.3680  0.7868 -1.0520
  985MOL0     H35873   9.560  -0.311   7.408  0.4541  1.0729 -0.2581
  985MOL0     H35874   9.717  -0.291   7.480  1.1892 -3.0002 -0.7309
  985MOL0     H35875   9.531  -0.529   7.509  0.1336  0.8414  0.0370
  985MOL0     H35876   9.671  -0.526   7.605 -1.3104 -3.1069 -0.4472
  985MOL0     H35877   9.818  -0.520   7.420  0.7038 -1.5932 -0.6151
  985MOL0     H35878   9.718  -0.665   7.441 -1.3998  0.7761  1.8677
  985MOL0     H35879   9.794  -0.401   7.158 -0.8643  1.4910 -0.7311
  985MOL0     H35880   9.616  -0.308   6.943  2.0291 -1.0851  4.0613
  985MOL0     H35881   9.541  -0.450   6.872 -0.1547 -0.7077  0.6030
  985MOL0     H35882   9.824  -0.357   6.914 -2.3619 -0.5479  2.4980
  985MOL0     H35883   9.791  -0.533   6.865  0.7528  0.8137  1.1319
  985MOL0     H35884   9.703  -0.467   6.643 -1.3631 -1.6397  1.6314
  985MOL0     H35885   9.690  -0.298   6.697 -2.6300 -1.3489 -3.3539
  985MOL0     H35886   9.935  -0.281   6.717  3.8386 -0.1240 -2.4611
  985MOL0     H35887   9.937  -0.443   6.629 -2.7079 -1.0003 -0.9426
  985MOL0     H35888  10.133  -0.282   6.604  0.3133  1.6048  0.4100
  985MOL0     H35889  10.348  -0.302   6.569 -0.8958  0.4477  0.7125
  985MOL0     H35890  10.388  -0.131   6.527 -0.9658  0.1297  2.1016
  985MOL0     H35891  10.433  -0.266   6.420 -2.4614  0.9244 -2.7937
  985MOL0     H35892  10.416  -0.350   6.048 -1.6239 -0.1491 -0.7643
  985MOL0     H35893  10.588  -0.367   5.879  1.6593  0.4589  1.5398
  985MOL0     H35894  10.555  -0.108   5.517  0.4838 -0.7366 -0.4911
  985MOL0     H35895  10.667  -0.029   5.616 -1.5813  0.3600  0.4705
  985MOL0     H35896  10.718  -0.255   5.423  1.0057  0.9802 -1.1224
  985MOL0     H35897  10.755  -0.083   5.412 -2.1137  2.9822  2.1198
  985MOL0     H35898  10.950  -0.264   5.481  1.6939 -0.9863  2.3474
  985MOL0     H35899  10.882  -0.226   5.645 -1.7442  1.8554  0.6799
  985MOL0     H35900  10.923   0.026   5.590  0.7264 -0.1909  1.7299
  985MOL0     H35901  10.963  -0.016   5.424 -0.5809 -0.2372  0.6003
  985MOL0     H35902  11.170   0.040   5.567 -0.2114  0.3527 -0.1129
  985MOL0     H35903  11.126  -0.102   5.662  0.2174  0.5465 -0.1505
  985MOL0     H35904  11.173  -0.128   5.369 -0.2782 -1.4925  0.5346
  985MOL0     H35905  11.167  -0.257   5.485 -1.2796 -0.1064  1.0125
  985MOL0     H35906  11.380  -0.128   5.602 -1.1964  0.8741  0.4291
  985MOL0     H35907  11.370  -0.049   5.438 -0.9825 -0.5176 -0.9898
  985MOL0     H35908  11.395  -0.309   5.370 -1.8259 -0.1032  0.2879
  985MOL0     H35909  11.447  -0.335   5.531  0.5593 -0.3593 -0.0511
  985MOL0     H35910  10.471   0.018   5.726 -3.0567 -1.0368 -2.9193
  985MOL0     H35911  10.323   0.050   5.908 -0.6117  0.2347 -2.9569
  985MOL0     H35912  10.016  -0.117   6.158 -0.5480  1.0232 -0.2671
  985MOL0     H35913   9.850  -0.229   6.296 -0.5491  0.4199  0.9445
  985MOL0     H35914   9.607   0.482   7.647 -2.1871  1.5304 -2.9438
  985MOL0     H35915   9.630   0.683   7.779  3.7645 -3.0952  1.3958
  985MOL0     H35916   9.330   0.985   8.027 -2.0043 -1.4611  2.6077
  985MOL0     H35917   9.392   1.222   8.069  2.1046  0.1250 -1.1398
  985MOL0     H35918   9.633   1.318   8.422  1.4500  0.3901  0.2195
  985MOL0     H35919   9.567   1.467   8.374  3.0633 -0.5356 -1.6182
  985MOL0     H35920   9.415   1.213   8.477  2.5998 -0.3586 -0.6780
  985MOL0     H35921   9.332   1.316   8.364  1.9621  0.7557 -3.9868
  985MOL0     H35922   9.431   1.339   8.649  0.0017  2.5074  2.2102
  985MOL0     H35923   9.455   1.495   8.567 -1.3634  0.4730 -1.0557
  985MOL0     H35924   9.199   1.350   8.569  0.4553  0.1144 -0.1567
  985MOL0     H35925   9.234   1.511   8.501  0.7253  0.4760  0.3372
  985MOL0     H35926   9.235   1.634   8.896  1.7130  2.8197 -1.4040
  985MOL0     H35927   9.670   1.116   8.355  0.6099  0.2347  1.3716
  985MOL0     H35928   9.735   0.909   8.399 -0.2495 -2.6263  1.4933
  985MOL0     H35929   9.611   0.790   8.393 -1.6835 -0.1231 -0.7689
  985MOL0     H35930   9.725   0.789   8.259 -2.6202 -1.6609 -0.8512
  986MOL0     O35931   5.096   2.748  10.779 -0.0322  0.3265 -0.3893
  986MOL0     C35932   5.162   2.768  10.678  0.0710  0.0872 -1.6402
  986MOL0     O35933   5.280   2.830  10.677 -0.7595 -0.4256  0.0300
  986MOL0     C35934   5.322   2.888  10.786 -0.0268 -0.4102  0.2934
  986MOL0     C35935   5.346   3.028  10.791  0.3356 -0.1524 -0.4709
  986MOL0     C35936   5.386   3.090  10.911  0.1231  0.9151 -0.4125
  986MOL0     C35937   5.449   3.008  11.012 -0.4776  0.4561  0.4223
  986MOL0     O35938   5.527   3.079  11.105  0.3590 -0.3099 -0.6048
  986MOL0     C35939   5.539   3.016  11.235  0.2571 -0.8944 -0.2862
  986MOL0     C35940   5.517   3.119  11.347  0.1848  0.1123 -0.2439
  986MOL0     C35941   5.623   3.229  11.340 -0.2430 -0.2815 -0.6613
  986MOL0     C35942   5.626   3.330  11.456 -0.3369  0.3144 -0.2216
  986MOL0     C35943   5.493   3.376  11.512  0.4089 -0.4887  0.8143
  986MOL0     C35944   5.516   3.491  11.612 -0.3715  0.0399  0.4994
  986MOL0     C35945   5.393   3.542  11.682  0.4003  0.5707 -0.1851
  986MOL0     C35946   5.377   3.466  11.820  0.1570 -1.2867 -0.0298
  986MOL0     N35947   5.466   3.522  11.918 -0.4246  0.1880 -0.9472
  986MOL0     C35948   5.447   3.641  11.979 -0.3528 -0.0326  0.4037
  986MOL0     C35949   5.527   3.624  12.086  0.4162  0.1034  0.1769
  986MOL0     C35950   5.521   3.707  12.220  1.8023  0.0964  1.1288
  986MOL0     C35951   5.405   3.649  12.302  0.6981 -0.4627 -0.5597
  986MOL0     C35952   5.397   3.711  12.440 -0.1930  0.3879  0.6258
  986MOL0     C35953   5.288   3.663  12.535 -0.6872  0.2883 -0.1536
  986MOL0     O35954   5.148   3.647  12.489 -0.2240  0.0141  0.1070
  986MOL0     C35955   5.065   3.745  12.449  0.2775 -1.5062 -0.1713
  986MOL0     C35956   4.932   3.714  12.416  0.7616 -0.8792  0.5710
  986MOL0     C35957   4.841   3.817  12.376  0.7115 -0.3694 -0.8033
  986MOL0     C35958   4.706   3.754  12.334 -0.1195 -0.3933 -1.0077
  986MOL0     C35959   4.876   3.949  12.373 -0.4088  0.7516 -0.1623
  986MOL0     C35960   4.785   4.059  12.324  0.1834 -0.7191 -0.6048
  986MOL0     O35961   4.845   4.174  12.288 -0.6577  0.6483  0.4166
  986MOL0     C35962   4.790   4.239  12.178 -0.4099 -0.8291  0.4303
  986MOL0     C35963   4.866   4.262  12.057 -0.2620 -0.4989 -1.1206
  986MOL0     C35964   4.809   4.313  11.937 -0.9586  0.3217  0.3812
  986MOL0     C35965   4.680   4.360  11.943 -0.2777  0.0749  0.1213
  986MOL0     O35966   4.622   4.433  11.842  0.5345 -0.4720 -0.0030
  986MOL0     C35967   4.544   4.343  11.757  0.0517 -0.2411 -0.3226
  986MOL0     C35968   4.626   4.296  11.641 -0.8539 -0.5549  0.4543
  986MOL0     C35969   4.624   4.405  11.536 -0.9549  0.3417 -0.3094
  986MOL0     C35970   4.679   4.349  11.407  0.3582  1.1864 -0.7820
  986MOL0     C35971   4.720   4.449  11.298  0.5746 -0.0054 -0.6118
  986MOL0     C35972   4.782   4.402  11.165  0.8454 -0.1142 -0.9452
  986MOL0     C35973   4.834   4.517  11.089 -0.2131  0.0797  0.9889
  986MOL0     C35974   4.735   4.582  11.002 -0.6244 -0.1341 -0.6245
  986MOL0    Cl35975   4.593   4.658  11.072 -0.1995  0.1764  0.1279
  986MOL0     C35976   4.619   4.368  12.068  0.7622  0.4582  0.5655
  986MOL0     C35977   4.669   4.302  12.177 -0.2816 -0.3745 -0.4744
  986MOL0     O35978   4.665   4.050  12.343 -0.0298 -0.2576  0.1147
  986MOL0     C35979   5.008   3.982  12.415 -0.3894  0.1788 -0.6073
  986MOL0     C35980   5.103   3.878  12.451 -0.8726 -1.0283 -0.3263
  986MOL0     N35981   5.598   3.510  12.081 -0.3039  0.0102  0.4004
  986MOL0     N35982   5.570   3.449  11.965 -0.3091 -1.0992  0.3978
  986MOL0     C35983   5.444   2.865  10.991  0.2910  0.8340  0.6883
  986MOL0     C35984   5.378   2.810  10.881 -0.8170  0.3501 -0.9269
  986MOL0     C35985   5.115   2.709  10.554 -0.0963 -0.1256 -0.3727
  986MOL0     C35986   5.104   2.794  10.432  0.7946  0.4320 -0.5731
  986MOL0     C35987   5.059   2.746  10.311  0.7427  0.8172 -0.2516
  986MOL0     C35988   5.003   2.617  10.305 -0.8463  0.0927 -0.3117
  986MOL0     O35989   4.938   2.576  10.189  0.7430  0.2955 -0.4873
  986MOL0     C35990   4.896   2.437  10.168 -0.0362 -0.4656  0.6596
  986MOL0     C35991   4.755   2.436  10.223 -0.5981  0.8223 -0.6475
  986MOL0     C35992   4.651   2.504  10.137  0.6888 -0.0850  0.3649
  986MOL0     C35993   4.622   2.448   9.987  0.3297 -0.0870  0.5080
  986MOL0     C35994   4.595   2.304   9.995  0.9051 -0.1039  0.2261
  986MOL0     C35995   4.597   2.184   9.992  1.3045 -0.3142 -0.6337
  986MOL0     C35996   5.010   2.541  10.422  0.3952 -1.1256 -0.3905
  986MOL0     C35997   5.074   2.577  10.545 -0.5622 -0.3977 -0.5930
  986MOL0     C35998   5.088   2.477  10.658  0.7624  1.4251  0.4373
  986MOL0     H35999   5.320   3.091  10.707  0.9780 -2.4299 -2.4739
  986MOL0     H36000   5.396   3.197  10.924 -0.7491  1.1019 -1.1480
  986MOL0     H36001   5.641   2.978  11.232  1.0370  1.1314 -0.9608
  986MOL0     H36002   5.466   2.937  11.253  1.1538 -1.4278  1.1989
  986MOL0     H36003   5.425   3.178  11.343 -3.0854 -4.4972 -0.0076
  986MOL0     H36004   5.511   3.066  11.443 -1.2803 -1.8183 -1.3560
  986MOL0     H36005   5.725   3.190  11.337 -0.8139 -1.8409 -0.8293
  986MOL0     H36006   5.604   3.289  11.251  0.1006  3.7220  1.7387
  986MOL0     H36007   5.686   3.288  11.537 -0.8489 -3.2608 -1.5143
  986MOL0     H36008   5.678   3.415  11.413  0.9618  2.0071  4.1250
  986MOL0     H36009   5.448   3.291  11.565 -0.5860 -0.9466 -0.7072
  986MOL0     H36010   5.422   3.403  11.433 -1.6988 -1.7750  2.1496
  986MOL0     H36011   5.598   3.474  11.683 -0.2044  2.1916  0.8945
  986MOL0     H36012   5.545   3.574  11.546  0.7835  1.0336  2.1646
  986MOL0     H36013   5.299   3.525  11.629  1.6759 -2.4391 -1.7354
  986MOL0     H36014   5.396   3.649  11.706  0.2991  0.0193  2.5846
  986MOL0     H36015   5.276   3.478  11.859  0.6974  4.5972  0.4728
  986MOL0     H36016   5.396   3.360  11.801  1.1496 -1.8472  3.4448
  986MOL0     H36017   5.363   3.709  11.970 -1.6037 -1.5827 -0.0471
  986MOL0     H36018   5.490   3.808  12.190 -2.9064 -1.6576 -0.8499
  986MOL0     H36019   5.617   3.710  12.273  1.0047  0.2236  2.6184
  986MOL0     H36020   5.306   3.663  12.258  0.0615  0.6392  1.1373
  986MOL0     H36021   5.414   3.540  12.308  1.4659 -0.4768 -1.6803
  986MOL0     H36022   5.497   3.706  12.484 -0.2388  0.2223  0.7121
  986MOL0     H36023   5.399   3.818  12.420 -0.7220  0.2547 -0.1784
  986MOL0     H36024   5.317   3.561  12.563 -2.1454  0.4011  2.0781
  986MOL0     H36025   5.294   3.710  12.633 -1.5156  0.5305 -0.2069
  986MOL0     H36026   4.913   3.608  12.410  1.5035 -0.9631 -0.8852
  986MOL0     H36027   4.676   3.798  12.239  0.8258 -1.7748 -1.9872
  986MOL0     H36028   4.635   3.757  12.417  1.6291 -2.5880  0.7075
  986MOL0     H36029   4.721   3.648  12.311 -1.3352 -1.2940  1.8351
  986MOL0     H36030   4.973   4.245  12.065 -0.4615 -1.5429 -0.6069
  986MOL0     H36031   4.870   4.323  11.848 -1.7646 -0.1601 -0.2355
  986MOL0     H36032   4.509   4.258  11.815  1.2433 -1.5359 -1.4314
  986MOL0     H36033   4.457   4.400  11.724  0.5641  0.3100 -0.7609
  986MOL0     H36034   4.726   4.264  11.670  0.4584  0.5750 -2.3996
  986MOL0     H36035   4.573   4.209  11.601  0.0483 -0.5132 -0.8903
  986MOL0     H36036   4.685   4.488  11.574  1.8180 -1.8921  0.4916
  986MOL0     H36037   4.524   4.443  11.513 -0.6172 -0.6223 -4.1618
  986MOL0     H36038   4.595   4.292  11.369  2.6771 -1.2020 -2.7485
  986MOL0     H36039   4.759   4.277  11.426  0.0327  0.6894 -1.2725
  986MOL0     H36040   4.635   4.510  11.269 -1.0927 -2.2947 -0.8472
  986MOL0     H36041   4.798   4.509  11.345  1.7811 -1.5763 -0.4890
  986MOL0     H36042   4.704   4.355  11.105 -0.3347 -1.6278  1.6219
  986MOL0     H36043   4.865   4.337  11.192 -0.1247 -1.3883 -0.9202
  986MOL0     H36044   4.921   4.493  11.027 -1.6281  0.2183 -1.1452
  986MOL0     H36045   4.869   4.594  11.158 -2.4907  0.8953  1.3011
  986MOL0     H36046   4.697   4.496  10.945  4.3189 -1.8225 -1.8802
  986MOL0     H36047   4.785   4.660  10.943 -0.7503 -0.1486 -0.7501
  986MOL0     H36048   4.519   4.409  12.084  0.8481  0.1026  2.2243
  986MOL0     H36049   4.618   4.305  12.273  2.3873  0.3961  1.0095
  986MOL0     H36050   5.038   4.087  12.411  0.5157 -0.1083 -2.8311
  986MOL0     H36051   5.200   3.903  12.491 -2.1421 -0.2182  2.4387
  986MOL0     H36052   5.505   2.802  11.056  1.2494 -1.5972 -2.3108
  986MOL0     H36053   5.379   2.702  10.865  0.8963  0.4103 -1.4375
  986MOL0     H36054   5.127   2.900  10.438  0.6101  0.4116  0.6180
  986MOL0     H36055   5.046   2.811  10.225 -1.7200 -0.1381 -0.6926
  986MOL0     H36056   4.890   2.412  10.062 -3.1196 -1.3535  0.9377
  986MOL0     H36057   4.956   2.357  10.211 -3.5510 -3.5028  0.4253
  986MOL0     H36058   4.761   2.487  10.320 -1.6451 -0.8501  0.3333
  986MOL0     H36059   4.734   2.330  10.239  0.9956  0.4122 -1.1122
  986MOL0     H36060   4.557   2.494  10.194  1.1163 -2.7457  0.7177
  986MOL0     H36061   4.676   2.611  10.133  2.1574 -0.3874  1.0258
  986MOL0     H36062   4.708   2.438   9.920 -1.4920  0.0469 -1.9671
  986MOL0     H36063   4.533   2.490   9.939 -0.6243 -2.4277  0.1031
  986MOL0     H36064   4.587   2.077   9.993 -0.2787 -0.2044 -1.4176
  986MOL0     H36065   4.959   2.446  10.416 -3.8748  0.9934 -1.5348
  986MOL0     H36066   5.074   2.373  10.627 -0.1031  1.8517 -0.6758
  986MOL0     H36067   5.192   2.474  10.693  1.6397  0.1025 -2.0518
  986MOL0     H36068   5.010   2.505  10.729 -0.0520  1.2502 -0.3725
  987MOL0     O36069   8.297   1.177   9.296 -0.6574  0.3628  0.3268
  987MOL0     C36070   8.270   1.055   9.325 -0.8135 -0.4625  0.3773
  987MOL0     O36071   8.141   1.001   9.343  0.0059  0.1557 -0.0468
  987MOL0     C36072   8.034   1.076   9.307 -0.0934 -0.7544  0.4625
  987MOL0     C36073   8.025   1.222   9.306 -0.8806  0.7110  0.7500
  987MOL0     C36074   7.902   1.280   9.292  0.2056 -0.7466  0.5893
  987MOL0     C36075   7.781   1.214   9.289 -0.1663  0.5370 -0.4208
  987MOL0     O36076   7.669   1.289   9.285 -0.2664 -0.1543 -0.2405
  987MOL0     C36077   7.646   1.362   9.403  0.7102 -0.9396  1.4391
  987MOL0     C36078   7.585   1.279   9.510  0.1189  0.0606  0.7168
  987MOL0     C36079   7.515   1.365   9.615  0.0352 -0.3501  0.0644
  987MOL0     C36080   7.363   1.407   9.585 -0.1677  0.2986  0.5033
  987MOL0     C36081   7.303   1.500   9.684 -0.7647 -0.4254 -0.4922
  987MOL0     C36082   7.149   1.512   9.666  0.2592  0.2134  0.0485
  987MOL0     C36083   7.079   1.581   9.783 -0.0102 -0.4251 -0.8885
  987MOL0     C36084   6.931   1.587   9.762 -0.6976  0.1330 -0.1770
  987MOL0     N36085   6.889   1.693   9.668  0.5450  0.2267  0.5242
  987MOL0     C36086   6.851   1.820   9.719  0.8318 -0.3775 -0.8401
  987MOL0     C36087   6.791   1.874   9.610 -0.7956 -0.6116  0.6841
  987MOL0     C36088   6.729   2.008   9.600 -0.6559  0.4291  0.1093
  987MOL0     C36089   6.575   2.003   9.622  0.0502 -0.1347 -0.3431
  987MOL0     C36090   6.509   2.144   9.607  0.0672 -0.6820 -0.5331
  987MOL0     C36091   6.362   2.149   9.597  1.1506  0.5784 -0.0540
  987MOL0     O36092   6.294   2.134   9.725  0.1511  0.0198  0.4259
  987MOL0     C36093   6.302   2.227   9.827 -0.1474  0.9857  1.2380
  987MOL0     C36094   6.361   2.350   9.808 -0.1974 -0.0017  0.3833
  987MOL0     C36095   6.370   2.439   9.916  0.5102  0.4124  0.4429
  987MOL0     C36096   6.408   2.580   9.873  0.3234  0.2783 -0.4318
  987MOL0     C36097   6.346   2.396  10.047 -0.0741 -0.1393  0.3398
  987MOL0     C36098   6.361   2.474  10.176  0.1767  0.2339  0.4084
  987MOL0     O36099   6.383   2.408  10.292 -0.3936  0.2932 -0.1587
  987MOL0     C36100   6.363   2.479  10.405  0.1222  0.3618  0.3900
  987MOL0     C36101   6.472   2.508  10.487 -0.2699 -1.1024 -0.8371
  987MOL0     C36102   6.435   2.561  10.616 -1.2524 -1.0771  1.2259
  987MOL0     C36103   6.310   2.575  10.664  0.6026  0.2268 -0.0537
  987MOL0     O36104   6.299   2.613  10.794  0.1043  0.7584 -0.2226
  987MOL0     C36105   6.212   2.721  10.806  0.8418  0.4568  0.1642
  987MOL0     C36106   6.274   2.857  10.769  0.4214  0.1277  0.8699
  987MOL0     C36107   6.367   2.882  10.884  0.2100 -0.7148 -0.1061
  987MOL0     C36108   6.400   3.027  10.885  0.2613  0.0892  1.4804
  987MOL0     C36109   6.501   3.062  11.004  0.7032  0.1470  0.4015
  987MOL0     C36110   6.531   3.210  10.999  0.1162 -0.1815  0.2348
  987MOL0     C36111   6.614   3.232  11.122 -0.9075 -0.2833 -0.4650
  987MOL0     C36112   6.526   3.308  11.229  0.2933 -0.6656  0.1177
  987MOL0    Cl36113   6.389   3.200  11.274 -0.2371  0.4767 -0.3029
  987MOL0     C36114   6.201   2.543  10.582 -0.4431  0.1220 -0.7695
  987MOL0     C36115   6.233   2.501  10.456  0.7316 -0.2552  0.4236
  987MOL0     O36116   6.354   2.596  10.169  0.0247  0.4308  0.1074
  987MOL0     C36117   6.291   2.271  10.068 -0.3768 -0.2019 -1.0443
  987MOL0     C36118   6.260   2.187   9.958  0.4362 -0.1820  0.5080
  987MOL0     N36119   6.781   1.783   9.508 -0.0587 -0.1314 -0.3527
  987MOL0     N36120   6.836   1.671   9.547 -0.6755  0.7209 -0.0753
  987MOL0     C36121   7.794   1.074   9.290 -0.2358  0.3350  0.1923
  987MOL0     C36122   7.917   1.004   9.289  0.2007  1.0659 -0.3562
  987MOL0     C36123   8.395   0.960   9.336  1.4513  0.3351 -0.3152
  987MOL0     C36124   8.511   0.992   9.276  0.4378  0.0529 -0.0051
  987MOL0     C36125   8.629   0.914   9.278  0.1155 -0.8277 -1.1890
  987MOL0     C36126   8.623   0.791   9.340  0.0197  0.5563  0.3918
  987MOL0     O36127   8.741   0.720   9.344 -0.5874  0.3395  0.3681
  987MOL0     C36128   8.745   0.590   9.393  1.6044  0.6594 -0.1807
  987MOL0     C36129   8.888   0.540   9.379 -0.0333 -0.1398  0.3453
  987MOL0     C36130   8.948   0.555   9.244 -0.5224  0.7026  0.2378
  987MOL0     C36131   9.088   0.484   9.232  0.4694  0.2924 -0.1477
  987MOL0     C36132   9.081   0.339   9.267  1.1482  0.2233 -0.1959
  987MOL0     C36133   9.072   0.223   9.297  0.0525 -0.5751  0.3428
  987MOL0     C36134   8.506   0.748   9.414 -0.5728  0.2288  0.1997
  987MOL0     C36135   8.396   0.836   9.410  0.2640  0.6548  0.7788
  987MOL0     C36136   8.271   0.779   9.481 -0.8708 -0.1154 -0.2410
  987MOL0     H36137   8.105   1.290   9.334  0.0792 -0.2323  0.4171
  987MOL0     H36138   7.902   1.388   9.285  0.7147 -0.3643  4.4042
  987MOL0     H36139   7.569   1.437   9.385 -0.8905 -1.9130  3.7955
  987MOL0     H36140   7.734   1.412   9.445  0.2618  1.5309 -0.3350
  987MOL0     H36141   7.522   1.203   9.463 -0.2264 -0.0508  1.3588
  987MOL0     H36142   7.671   1.221   9.547 -1.1908 -4.5999 -2.5531
  987MOL0     H36143   7.518   1.315   9.712 -2.5497  3.2743  2.2774
  987MOL0     H36144   7.574   1.454   9.637 -3.3476  1.0424  5.2790
  987MOL0     H36145   7.349   1.449   9.485 -2.2564  0.2421  0.7226
  987MOL0     H36146   7.307   1.313   9.599  0.5970 -0.0141  1.6434
  987MOL0     H36147   7.354   1.597   9.688  1.7402 -1.6011 -1.4164
  987MOL0     H36148   7.315   1.461   9.785 -0.6357  1.5807  0.3088
  987MOL0     H36149   7.134   1.570   9.574  0.4724  2.5744  1.4205
  987MOL0     H36150   7.116   1.408   9.670  2.8084 -0.6605  0.0510
  987MOL0     H36151   7.128   1.678   9.796 -0.3728 -0.2992 -0.3884
  987MOL0     H36152   7.096   1.535   9.881 -2.3019  1.5674  0.5730
  987MOL0     H36153   6.903   1.484   9.737  1.7894 -0.7803  0.5464
  987MOL0     H36154   6.880   1.610   9.856 -0.0143  0.1663  0.1905
  987MOL0     H36155   6.852   1.853   9.822 -4.5422 -0.9561 -0.3003
  987MOL0     H36156   6.751   2.054   9.503  1.0332 -0.2865  0.1255
  987MOL0     H36157   6.775   2.080   9.668 -1.7635  2.2150 -0.9358
  987MOL0     H36158   6.527   1.943   9.544 -2.0968  0.7432  0.2440
  987MOL0     H36159   6.553   1.955   9.717  1.4034 -1.1008 -0.4892
  987MOL0     H36160   6.559   2.205   9.683  1.7042  1.4056 -3.0810
  987MOL0     H36161   6.555   2.186   9.517 -1.0541 -2.0173 -1.7899
  987MOL0     H36162   6.323   2.243   9.557 -0.5319  1.1093  2.5406
  987MOL0     H36163   6.330   2.071   9.528 -0.6828  2.0512 -0.9566
  987MOL0     H36164   6.390   2.391   9.712  1.7941 -0.0928  0.9014
  987MOL0     H36165   6.473   2.627   9.948  1.1240  0.1950 -1.0694
  987MOL0     H36166   6.318   2.642   9.873 -1.8553 -2.6543  0.3521
  987MOL0     H36167   6.454   2.587   9.774 -1.7347  2.9174 -1.3430
  987MOL0     H36168   6.577   2.511  10.460 -0.5034  2.8349 -1.9165
  987MOL0     H36169   6.519   2.593  10.678  1.1803 -1.7503 -1.4895
  987MOL0     H36170   6.118   2.714  10.751  1.7432  0.2897 -1.4027
  987MOL0     H36171   6.182   2.715  10.911  0.8829 -1.0191  0.1016
  987MOL0     H36172   6.328   2.839  10.676  4.2779 -0.9142  3.0730
  987MOL0     H36173   6.192   2.930  10.761 -3.3892 -3.8387 -0.3950
  987MOL0     H36174   6.459   2.823  10.882 -0.4821 -1.8206  0.2359
  987MOL0     H36175   6.315   2.862  10.978 -2.1691 -2.4072 -1.6743
  987MOL0     H36176   6.312   3.092  10.891 -1.0319 -0.8511 -3.3462
  987MOL0     H36177   6.450   3.051  10.791 -3.5813  0.9579 -0.5318
  987MOL0     H36178   6.453   3.036  11.099  1.7725 -1.5331  0.5212
  987MOL0     H36179   6.586   2.995  10.989 -0.4580 -2.4298  3.9365
  987MOL0     H36180   6.445   3.278  11.001 -0.0143 -0.1991 -2.3811
  987MOL0     H36181   6.588   3.231  10.908  2.9369  1.5042  2.2239
  987MOL0     H36182   6.688   3.306  11.091 -0.7099 -0.5820 -0.7140
  987MOL0     H36183   6.664   3.142  11.158 -2.4211 -0.6525  0.7880
  987MOL0     H36184   6.483   3.400  11.187  0.5695  0.0631  1.3573
  987MOL0     H36185   6.588   3.340  11.313  1.4234  1.2013 -1.3458
  987MOL0     H36186   6.103   2.548  10.628  0.3899 -2.0331  1.4473
  987MOL0     H36187   6.145   2.469  10.402  0.7952  0.1378  0.0898
  987MOL0     H36188   6.275   2.232  10.168  4.7099 -2.3423 -0.7646
  987MOL0     H36189   6.229   2.085   9.980 -1.1962  0.3825  1.0220
  987MOL0     H36190   7.705   1.013   9.279 -1.1727  1.7242 -0.2563
  987MOL0     H36191   7.914   0.895   9.281  1.1960  1.1756 -4.5527
  987MOL0     H36192   8.527   1.083   9.219  0.2152 -0.2873 -0.6263
  987MOL0     H36193   8.712   0.953   9.219 -1.8926  0.2846 -3.4598
  987MOL0     H36194   8.726   0.593   9.501  1.3143  0.8712 -0.2349
  987MOL0     H36195   8.669   0.533   9.339 -0.4671  0.7437  2.4176
  987MOL0     H36196   8.891   0.443   9.428  2.2230  1.4917  3.8394
  987MOL0     H36197   8.945   0.607   9.445  0.4577 -1.3229  1.1599
  987MOL0     H36198   8.875   0.495   9.188 -1.4307 -1.0667  3.0745
  987MOL0     H36199   8.950   0.661   9.216 -0.9400  0.4079 -0.9906
  987MOL0     H36200   9.162   0.534   9.295  1.0883 -0.2440 -0.4271
  987MOL0     H36201   9.122   0.480   9.128  3.6456  0.9427  0.7508
  987MOL0     H36202   9.053   0.122   9.328  2.2176 -0.8099  1.1202
  987MOL0     H36203   8.518   0.655   9.469  0.9421  1.3228  1.8170
  987MOL0     H36204   8.313   0.720   9.563  1.5413 -2.9037 -3.2294
  987MOL0     H36205   8.209   0.855   9.531 -1.2478 -1.4146  1.3688
  987MOL0     H36206   8.211   0.722   9.410  2.4185 -0.4958 -2.9391
  988MOL0     O36207   8.664   8.287   9.312 -0.3794  0.4712 -0.0385
  988MOL0     C36208   8.784   8.283   9.289  0.1940  0.2794  0.6492
  988MOL0     O36209   8.881   8.221   9.361  0.5815  0.5456 -0.2498
  988MOL0     C36210   8.846   8.169   9.485  0.9057  0.0257  0.4139
  988MOL0     C36211   8.806   8.033   9.508 -0.6650 -0.3122 -0.3872
  988MOL0     C36212   8.759   7.985   9.634 -0.0530  0.3034  0.5393
  988MOL0     C36213   8.756   8.068   9.742 -0.5504 -0.1559 -0.1998
  988MOL0     O36214   8.716   8.005   9.856 -1.0382 -0.2245 -0.6044
  988MOL0     C36215   8.705   8.084   9.971  1.1572 -0.1496 -0.1445
  988MOL0     C36216   8.555   8.121  10.004  1.0019 -0.7878  0.2034
  988MOL0     C36217   8.485   8.014  10.096 -0.6227 -0.2996  0.7110
  988MOL0     C36218   8.340   8.041  10.117 -0.7362  0.5907  0.1071
  988MOL0     C36219   8.321   8.155  10.225 -0.0373 -0.5577  0.2412
  988MOL0     C36220   8.176   8.209  10.208  1.1907  0.4310  1.0137
  988MOL0     C36221   8.064   8.106  10.226  0.3704  0.5546 -0.4414
  988MOL0     C36222   7.936   8.189  10.256 -0.4032  0.0104 -0.6202
  988MOL0     N36223   7.899   8.268  10.140  0.1001 -0.1147 -0.3129
  988MOL0     C36224   7.881   8.211  10.018  0.3312 -0.5560 -0.4738
  988MOL0     C36225   7.823   8.315   9.945 -0.5734  0.5500 -0.2441
  988MOL0     C36226   7.788   8.303   9.799 -0.3658  0.6512 -0.8835
  988MOL0     C36227   7.666   8.388   9.750 -0.2725 -0.5755 -0.8509
  988MOL0     C36228   7.643   8.397   9.605 -0.2289 -0.0428  0.1145
  988MOL0     C36229   7.517   8.482   9.576 -0.3325 -0.2603  0.7105
  988MOL0     O36230   7.393   8.433   9.643 -0.3176  0.5732  0.0140
  988MOL0     C36231   7.277   8.508   9.652 -0.4223 -0.0406  0.0522
  988MOL0     C36232   7.185   8.462   9.750 -1.0181 -0.3065  0.0660
  988MOL0     C36233   7.059   8.520   9.765  0.2696  0.3446  0.2901
  988MOL0     C36234   6.969   8.443   9.873 -0.7121 -0.6587 -0.0555
  988MOL0     C36235   7.028   8.622   9.679 -0.6184  0.3136  1.1792
  988MOL0     C36236   6.897   8.698   9.685 -0.2506  0.0974 -0.1031
  988MOL0     O36237   6.891   8.805   9.601 -0.4767 -0.1958  0.7777
  988MOL0     C36238   6.762   8.857   9.564  0.8434  0.2350 -0.4065
  988MOL0     C36239   6.668   8.775   9.497 -0.2570  0.2185 -0.0199
  988MOL0     C36240   6.552   8.827   9.440 -0.1487 -0.4888  0.2833
  988MOL0     C36241   6.520   8.962   9.458  0.1275 -0.1395 -0.5145
  988MOL0     O36242   6.403   9.004   9.421 -0.4786 -0.0816 -0.2826
  988MOL0     C36243   6.301   9.006   9.509  0.3089 -0.1532 -0.8161
  988MOL0     C36244   6.172   9.051   9.443 -0.2806  0.7547  1.1068
  988MOL0     C36245   6.185   9.178   9.372 -1.0662 -0.2815  1.0673
  988MOL0     C36246   6.124   9.163   9.221 -0.5138 -0.8670 -0.7730
  988MOL0     C36247   5.970   9.194   9.235 -0.6500  0.2627  0.5886
  988MOL0     C36248   5.890   9.133   9.123  1.1707  0.1591 -0.1748
  988MOL0     C36249   5.910   9.213   8.993 -0.0456 -0.2248 -0.4913
  988MOL0     C36250   5.849   9.153   8.870 -0.4187  0.4930  0.9507
  988MOL0    Cl36251   5.667   9.158   8.873  0.3186 -0.2474 -0.0965
  988MOL0     C36252   6.607   9.041   9.529 -0.1300 -1.0275 -0.1678
  988MOL0     C36253   6.725   8.984   9.583 -0.3240  0.3770 -0.0130
  988MOL0     O36254   6.799   8.654   9.755 -0.5500 -0.1171 -0.1530
  988MOL0     C36255   7.128   8.676   9.586 -0.5565  0.2849 -0.8150
  988MOL0     C36256   7.254   8.621   9.582  0.8525 -0.0288  0.1206
  988MOL0     N36257   7.817   8.429  10.023  0.2813  0.8077 -0.8525
  988MOL0     N36258   7.863   8.402  10.143 -0.0192 -0.4706  0.6458
  988MOL0     C36259   8.792   8.205   9.726  0.3609  1.3250 -0.3298
  988MOL0     C36260   8.826   8.254   9.599 -0.2011 -0.5568 -0.4209
  988MOL0     C36261   8.827   8.340   9.155 -0.3099 -0.1835 -1.1245
  988MOL0     C36262   8.955   8.405   9.148  0.6552  0.1485 -0.8398
  988MOL0     C36263   9.004   8.440   9.031 -0.2946 -0.1761  0.2266
  988MOL0     C36264   8.927   8.433   8.911 -0.3966  0.5197  0.1031
  988MOL0     O36265   8.974   8.463   8.784  0.0168 -0.0150 -0.4770
  988MOL0     C36266   9.093   8.536   8.786 -0.5523 -0.2068 -0.0402
  988MOL0     C36267   9.075   8.678   8.824 -0.6667  0.4131 -0.7401
  988MOL0     C36268   9.196   8.780   8.804  0.3660 -0.2552  0.7121
  988MOL0     C36269   9.159   8.920   8.861 -0.5567  0.2928 -0.0151
  988MOL0     C36270   9.153   8.904   9.006 -0.2810 -0.2927  0.0348
  988MOL0     C36271   9.158   8.882   9.121  0.1695  0.2733 -0.2403
  988MOL0     C36272   8.800   8.380   8.921 -0.1341 -0.0237 -0.1150
  988MOL0     C36273   8.751   8.334   9.045  1.1932  0.7711 -0.2817
  988MOL0     C36274   8.600   8.285   9.043  0.5265 -0.3895 -0.2417
  988MOL0     H36275   8.814   7.957   9.431  0.3431  0.3197 -0.9357
  988MOL0     H36276   8.727   7.881   9.638 -1.9089  0.8312  0.3919
  988MOL0     H36277   8.769   8.172   9.970  2.2275 -0.8830  0.5790
  988MOL0     H36278   8.740   8.029  10.059  2.5371 -1.2899 -1.3321
  988MOL0     H36279   8.568   8.208  10.069 -1.3492 -3.1709  4.3220
  988MOL0     H36280   8.490   8.141   9.919 -0.3164 -1.2842  1.0679
  988MOL0     H36281   8.485   7.923  10.035 -0.1593  0.2093 -0.0755
  988MOL0     H36282   8.536   8.003  10.192  1.6588  1.4419 -0.1879
  988MOL0     H36283   8.294   8.081  10.027 -1.7962 -0.0571  0.3464
  988MOL0     H36284   8.293   7.946  10.145  1.6571 -1.1677 -1.3349
  988MOL0     H36285   8.394   8.236  10.211  3.0565 -3.3111 -0.6410
  988MOL0     H36286   8.334   8.106  10.322  1.8972 -0.8184 -0.0992
  988MOL0     H36287   8.158   8.270  10.297 -0.6614  1.2165  0.1555
  988MOL0     H36288   8.160   8.273  10.121 -0.8833  2.1535  2.5385
  988MOL0     H36289   8.083   8.051  10.318  1.2020  0.9922 -0.3470
  988MOL0     H36290   8.041   8.033  10.147 -1.6272 -0.2712  0.8153
  988MOL0     H36291   7.856   8.119  10.283  0.5581 -0.1897  1.8850
  988MOL0     H36292   7.950   8.262  10.336  2.5855  1.1363 -2.0218
  988MOL0     H36293   7.901   8.111   9.982  0.6407 -0.2986 -1.0344
  988MOL0     H36294   7.769   8.199   9.773 -1.3816  0.6805 -0.3416
  988MOL0     H36295   7.877   8.340   9.747 -0.8399  2.2444 -0.6310
  988MOL0     H36296   7.576   8.334   9.783 -1.3468 -0.7281 -3.7475
  988MOL0     H36297   7.665   8.486   9.797  6.0419 -0.4555 -0.1126
  988MOL0     H36298   7.736   8.429   9.556 -1.8379  2.6311 -1.4381
  988MOL0     H36299   7.612   8.304   9.556  1.4848  0.0640 -1.2909
  988MOL0     H36300   7.538   8.585   9.606 -2.2500  0.1895  0.6206
  988MOL0     H36301   7.491   8.501   9.471 -0.3350  2.0452  1.0894
  988MOL0     H36302   7.216   8.383   9.817  0.4125 -2.7671 -3.2207
  988MOL0     H36303   6.861   8.436   9.857 -0.4738 -0.0694 -2.3959
  988MOL0     H36304   6.988   8.489   9.970 -0.7646 -1.7057  0.4571
  988MOL0     H36305   7.000   8.339   9.887 -1.1470 -0.5599  1.9019
  988MOL0     H36306   6.706   8.674   9.485  2.8773  1.2641  0.1820
  988MOL0     H36307   6.481   8.761   9.392 -1.5964  1.0509  0.2245
  988MOL0     H36308   6.285   8.904   9.546  0.6236  0.7330  1.9534
  988MOL0     H36309   6.320   9.071   9.594 -2.5787 -0.9505  0.5455
  988MOL0     H36310   6.140   8.964   9.385 -2.5934  3.2935 -1.8062
  988MOL0     H36311   6.087   9.058   9.512  0.4890  0.2118  2.1384
  988MOL0     H36312   6.290   9.203   9.358 -0.8877 -1.3881  0.3324
  988MOL0     H36313   6.134   9.258   9.426  0.9451  0.1618  2.4313
  988MOL0     H36314   6.140   9.060   9.191 -1.5932 -0.9998 -0.9297
  988MOL0     H36315   6.168   9.241   9.158 -0.7739 -0.7314 -0.7887
  988MOL0     H36316   5.925   9.179   9.333  1.6426 -0.3760  1.6308
  988MOL0     H36317   5.958   9.303   9.232 -0.6769  0.2931  1.5071
  988MOL0     H36318   5.787   9.142   9.157  1.2446  2.4370 -0.3493
  988MOL0     H36319   5.919   9.031   9.098  0.9256  0.1239 -0.3113
  988MOL0     H36320   6.018   9.205   8.979 -0.1152 -1.9642 -0.3725
  988MOL0     H36321   5.868   9.311   9.017  1.1043  1.1624 -3.6203
  988MOL0     H36322   5.854   9.044   8.863  0.0693  0.5459  0.2629
  988MOL0     H36323   5.899   9.195   8.782  0.8950  0.1868  1.5160
  988MOL0     H36324   6.593   9.148   9.542  2.7916 -0.4328 -1.0081
  988MOL0     H36325   6.803   9.048   9.623 -1.8094  2.8037 -0.7472
  988MOL0     H36326   7.104   8.762   9.525  0.9659  0.9329 -0.5337
  988MOL0     H36327   7.328   8.669   9.520  4.1012 -1.6719  2.4337
  988MOL0     H36328   8.788   8.279   9.806  2.0267 -0.2781  1.3699
  988MOL0     H36329   8.836   8.360   9.579 -3.9907  0.6585  2.7404
  988MOL0     H36330   9.018   8.420   9.235 -0.6685  0.0529  0.1670
  988MOL0     H36331   9.106   8.477   9.034 -0.5118  0.6955 -1.7490
  988MOL0     H36332   9.172   8.492   8.847  0.8858 -3.4349 -3.7862
  988MOL0     H36333   9.136   8.522   8.686  3.1829  0.3665  1.3134
  988MOL0     H36334   9.060   8.672   8.932  1.2550 -0.7637 -0.4788
  988MOL0     H36335   8.985   8.717   8.777  0.9042 -0.0183 -4.4546
  988MOL0     H36336   9.283   8.727   8.843  0.1473 -2.7237 -1.8525
  988MOL0     H36337   9.225   8.794   8.700  2.9270  2.6875  1.6717
  988MOL0     H36338   9.073   8.970   8.815  0.6049  3.1109  0.6212
  988MOL0     H36339   9.238   8.996   8.853  0.3695 -0.4663  1.3883
  988MOL0     H36340   9.153   8.860   9.226  0.7578  3.2604  0.4905
  988MOL0     H36341   8.736   8.382   8.834  0.2864  1.0380 -0.4206
  988MOL0     H36342   8.547   8.316   8.953 -1.0984 -1.9156  0.1266
  988MOL0     H36343   8.592   8.176   9.050 -2.1249 -0.2635 -0.1117
  988MOL0     H36344   8.543   8.350   9.111 -1.0227 -1.8156 -0.1021
  989MOL0     O36345   2.658   4.875   1.075  0.7620 -0.3035 -0.1919
  989MOL0     C36346   2.733   4.910   0.987 -0.6144  0.9170 -0.2550
  989MOL0     O36347   2.769   4.845   0.875 -0.1481 -1.1328 -0.3198
  989MOL0     C36348   2.718   4.725   0.833  0.1813 -0.5858  0.3769
  989MOL0     C36349   2.593   4.674   0.867 -0.1834  0.4914 -0.4758
  989MOL0     C36350   2.534   4.552   0.822  0.4347 -0.4661  1.4793
  989MOL0     C36351   2.598   4.473   0.730  0.3133 -0.3015 -0.2316
  989MOL0     O36352   2.532   4.359   0.691  0.2054  0.0046  0.4341
  989MOL0     C36353   2.605   4.280   0.597  0.1935 -0.2202 -0.4544
  989MOL0     C36354   2.557   4.145   0.635  0.3505 -0.2350  0.5098
  989MOL0     C36355   2.630   4.040   0.550 -0.7957  0.6214  0.3012
  989MOL0     C36356   2.561   4.024   0.406  0.4014  0.1662  0.1707
  989MOL0     C36357   2.584   3.896   0.328  0.7962 -0.3705 -0.0344
  989MOL0     C36358   2.733   3.865   0.320 -0.0663  0.3707 -0.9182
  989MOL0     C36359   2.834   3.955   0.237 -0.0693  0.4631 -0.0348
  989MOL0     C36360   2.981   3.926   0.233 -0.8811 -0.3210 -0.4649
  989MOL0     N36361   3.038   3.937   0.093 -0.4319  0.0819 -1.0930
  989MOL0     C36362   3.034   3.826   0.019  0.7414  0.4560  0.6708
  989MOL0     C36363   3.036   3.864  -0.109 -0.2716 -0.9107 -0.4315
  989MOL0     C36364   3.008   3.777  -0.225  0.1579 -0.6087  0.2362
  989MOL0     C36365   2.864   3.740  -0.241 -0.0699  0.5682  0.7666
  989MOL0     C36366   2.772   3.851  -0.287 -0.0847  0.4464 -0.3769
  989MOL0     C36367   2.634   3.790  -0.298 -1.2911 -0.0654 -0.3123
  989MOL0     O36368   2.627   3.672  -0.379  1.4798  0.2104  0.5832
  989MOL0     C36369   2.504   3.611  -0.393  0.0198 -0.0009 -0.0138
  989MOL0     C36370   2.407   3.583  -0.294 -0.0981 -0.5568  0.4157
  989MOL0     C36371   2.297   3.500  -0.317  0.2820  0.3152 -0.2599
  989MOL0     C36372   2.204   3.477  -0.195 -0.1737 -0.0376  0.2751
  989MOL0     C36373   2.287   3.428  -0.442 -0.0929 -0.2381  0.2484
  989MOL0     C36374   2.181   3.326  -0.464 -0.7489 -0.2249 -0.6422
  989MOL0     O36375   2.128   3.259  -0.362 -0.3976 -0.3354  0.0145
  989MOL0     C36376   2.053   3.145  -0.358 -0.0170  0.4214  0.1779
  989MOL0     C36377   1.970   3.124  -0.255  0.3771 -0.9730 -0.7978
  989MOL0     C36378   1.881   3.018  -0.246 -0.5549  0.8272 -0.0659
  989MOL0     C36379   1.874   2.929  -0.349  0.7901 -0.4223 -0.0365
  989MOL0     O36380   1.774   2.841  -0.328  0.2133  0.4537  0.6708
  989MOL0     C36381   1.744   2.740  -0.430  0.6282 -0.6564 -0.3482
  989MOL0     C36382   1.594   2.693  -0.409 -0.3957 -0.2508 -0.0173
  989MOL0     C36383   1.579   2.600  -0.295  0.0699  0.3116  0.6524
  989MOL0     C36384   1.433   2.567  -0.251 -1.0857  0.3936 -0.2069
  989MOL0     C36385   1.415   2.455  -0.154  0.1616  0.6673  0.1697
  989MOL0     C36386   1.263   2.438  -0.095 -0.3759 -0.8403  1.0437
  989MOL0     C36387   1.224   2.286  -0.087  0.4796 -0.4819 -0.3426
  989MOL0     C36388   1.130   2.260  -0.206 -0.5677 -0.4470 -0.5442
  989MOL0    Cl36389   0.974   2.333  -0.172 -0.1190 -0.1307  0.0122
  989MOL0     C36390   1.954   2.945  -0.461  0.2028 -0.9171  0.3613
  989MOL0     C36391   2.047   3.048  -0.464 -0.8860  0.3168 -0.4685
  989MOL0     O36392   2.160   3.306  -0.582 -0.4362  0.7476 -0.0957
  989MOL0     C36393   2.370   3.475  -0.548 -0.0594  0.7538 -0.5151
  989MOL0     C36394   2.469   3.566  -0.518 -0.5611 -0.8829 -0.2766
  989MOL0     N36395   3.042   4.004  -0.108  1.0527  1.1216 -0.2837
  989MOL0     N36396   3.032   4.043   0.009  0.5209  0.0843 -0.4263
  989MOL0     C36397   2.725   4.524   0.685 -0.4445  0.2010 -0.3022
  989MOL0     C36398   2.780   4.642   0.740 -0.6690 -0.3179  0.4050
  989MOL0     C36399   2.806   5.045   0.991  0.3969 -0.3344 -0.1192
  989MOL0     C36400   2.917   5.066   0.900  0.8151  0.5058  0.7653
  989MOL0     C36401   2.985   5.185   0.904 -0.1195  0.4698  0.4104
  989MOL0     C36402   2.956   5.279   0.996  0.5709 -0.1060  1.0680
  989MOL0     O36403   3.030   5.398   1.015 -0.0090  0.3903 -0.4235
  989MOL0     C36404   3.076   5.475   0.899  0.7129  1.1384 -0.7797
  989MOL0     C36405   2.955   5.518   0.809 -0.6707  0.2919 -0.7777
  989MOL0     C36406   3.005   5.643   0.731  0.8205  0.2741 -0.3024
  989MOL0     C36407   3.134   5.623   0.635  0.5672 -0.2388 -0.7600
  989MOL0     C36408   3.199   5.754   0.591  0.3896 -0.4502 -0.9129
  989MOL0     C36409   3.219   5.870   0.547 -0.2741 -0.5109 -0.6394
  989MOL0     C36410   2.856   5.256   1.086  0.0090 -0.0917 -0.2451
  989MOL0     C36411   2.782   5.141   1.092  0.2134 -0.4740 -0.0833
  989MOL0     C36412   2.701   5.118   1.220  0.4103  0.1276 -0.0733
  989MOL0     H36413   2.526   4.726   0.934  1.7099  0.8696  1.2287
  989MOL0     H36414   2.443   4.529   0.877  1.2394 -1.3180  2.4852
  989MOL0     H36415   2.714   4.282   0.606  0.2891 -0.6343 -1.4071
  989MOL0     H36416   2.582   4.308   0.494 -0.1732 -1.1043 -0.6178
  989MOL0     H36417   2.586   4.136   0.740  0.1972 -1.3906  0.4667
  989MOL0     H36418   2.449   4.132   0.643  0.4847 -0.6493  1.9528
  989MOL0     H36419   2.733   4.068   0.527 -1.7197  2.4556 -2.0094
  989MOL0     H36420   2.626   3.945   0.604  0.2663 -0.3625 -1.2850
  989MOL0     H36421   2.453   4.030   0.424  0.3629 -1.3048  0.6173
  989MOL0     H36422   2.586   4.115   0.351 -1.6012 -0.5377 -2.1046
  989MOL0     H36423   2.549   3.915   0.226  1.3813  4.9208  0.5040
  989MOL0     H36424   2.541   3.803   0.368  1.7571 -1.4393 -1.3702
  989MOL0     H36425   2.772   3.859   0.421 -3.1826 -3.0951  0.3000
  989MOL0     H36426   2.738   3.768   0.270 -1.9094  0.0181 -0.4891
  989MOL0     H36427   2.825   4.058   0.273 -0.1196  1.3501 -2.4333
  989MOL0     H36428   2.785   3.954   0.140  1.9603 -1.2586 -1.1216
  989MOL0     H36429   3.040   3.991   0.299  0.3896 -1.7950 -0.0869
  989MOL0     H36430   3.000   3.824   0.267  1.5434 -0.2613 -1.4400
  989MOL0     H36431   3.021   3.724   0.053 -1.1957  0.3912 -0.1069
  989MOL0     H36432   3.074   3.692  -0.206 -0.8242 -1.6443 -0.8520
  989MOL0     H36433   3.044   3.816  -0.321  2.3326 -1.6921  0.5510
  989MOL0     H36434   2.862   3.658  -0.314  0.5455  0.3569  0.9739
  989MOL0     H36435   2.822   3.703  -0.147  2.5464  1.4822  2.3946
  989MOL0     H36436   2.770   3.931  -0.211  3.4281 -1.2535  1.7383
  989MOL0     H36437   2.808   3.885  -0.384  0.1757  2.8516  0.4946
  989MOL0     H36438   2.587   3.767  -0.202  0.3904  1.1626  0.8756
  989MOL0     H36439   2.585   3.865  -0.361 -0.0086 -0.8718 -2.3721
  989MOL0     H36440   2.429   3.628  -0.197 -2.9814  0.9458  0.4663
  989MOL0     H36441   2.101   3.454  -0.224 -0.0540 -0.3764  0.1059
  989MOL0     H36442   2.199   3.563  -0.129  0.2883 -0.3176  0.6793
  989MOL0     H36443   2.232   3.392  -0.132 -2.6755 -0.8359  0.4430
  989MOL0     H36444   1.963   3.197  -0.175 -2.2686 -2.3977  0.4013
  989MOL0     H36445   1.804   3.017  -0.168 -0.3952  0.6294  0.0903
  989MOL0     H36446   1.742   2.777  -0.532 -4.1349 -0.2189 -0.3104
  989MOL0     H36447   1.818   2.659  -0.423  2.6786  0.9015 -2.5351
  989MOL0     H36448   1.531   2.782  -0.404 -0.9013 -0.6398  0.6448
  989MOL0     H36449   1.562   2.634  -0.496  1.1483  0.7662 -1.3548
  989MOL0     H36450   1.636   2.650  -0.216  1.3171  1.4232 -0.8875
  989MOL0     H36451   1.629   2.511  -0.333 -0.7399  1.7385 -4.5810
  989MOL0     H36452   1.367   2.555  -0.337 -2.2127 -2.5057  0.9442
  989MOL0     H36453   1.400   2.654  -0.193 -0.8302 -0.5017  1.3461
  989MOL0     H36454   1.440   2.366  -0.212  0.0096  1.8829 -1.8626
  989MOL0     H36455   1.485   2.467  -0.071  0.5059  3.9999 -0.4444
  989MOL0     H36456   1.202   2.494  -0.168  0.9654 -0.4368  0.2019
  989MOL0     H36457   1.259   2.479   0.006  0.4213 -2.8612  1.9351
  989MOL0     H36458   1.176   2.275   0.011  0.2959  1.0260 -0.2375
  989MOL0     H36459   1.315   2.225  -0.084  0.9126  0.1592 -0.3388
  989MOL0     H36460   1.119   2.153  -0.225 -2.5883 -1.4824  4.8203
  989MOL0     H36461   1.172   2.316  -0.291 -0.9315  1.1286  0.2820
  989MOL0     H36462   1.951   2.877  -0.546 -0.0458  0.3587 -0.6859
  989MOL0     H36463   2.115   3.064  -0.547 -0.3833  0.9883  0.0636
  989MOL0     H36464   2.363   3.432  -0.648 -1.2396 -0.7241  0.1705
  989MOL0     H36465   2.538   3.591  -0.599 -1.3149 -0.3659 -0.7694
  989MOL0     H36466   2.790   4.471   0.617  0.0003 -0.0844  0.3291
  989MOL0     H36467   2.868   4.685   0.693 -0.9374  1.3162  1.3098
  989MOL0     H36468   2.936   4.985   0.830 -1.7230  1.9940 -1.8612
  989MOL0     H36469   3.068   5.192   0.834  0.0766  1.2664  0.7163
  989MOL0     H36470   3.148   5.555   0.916  2.8370 -0.8096  0.0045
  989MOL0     H36471   3.140   5.404   0.845  0.8206 -4.0353  5.0021
  989MOL0     H36472   2.863   5.544   0.862 -0.7196 -0.1490 -0.6447
  989MOL0     H36473   2.928   5.440   0.739  1.0129  0.4456 -1.6561
  989MOL0     H36474   2.918   5.672   0.671 -1.1054  0.5215  2.4321
  989MOL0     H36475   3.027   5.725   0.800 -2.2782  1.5175 -0.6221
  989MOL0     H36476   3.106   5.566   0.546 -3.0424 -0.1077  0.1161
  989MOL0     H36477   3.211   5.570   0.692 -0.0505  1.4536  1.7999
  989MOL0     H36478   3.244   5.965   0.504  1.2104  0.1515  1.5522
  989MOL0     H36479   2.832   5.331   1.161 -0.8525 -3.4479  3.1501
  989MOL0     H36480   2.760   5.042   1.271  3.0203  2.0579 -0.0365
  989MOL0     H36481   2.697   5.215   1.271 -3.5014  0.5008 -0.7956
  989MOL0     H36482   2.597   5.085   1.210 -0.1501  1.2742  1.5044
  990MOL0     O36483   5.613   3.351   6.504 -0.7363  0.5716  0.5973
  990MOL0     C36484   5.541   3.367   6.403 -0.7635 -0.1491 -0.4485
  990MOL0     O36485   5.415   3.415   6.416  0.0784  0.3993  0.9744
  990MOL0     C36486   5.339   3.375   6.524  0.3325  0.6425 -0.6469
  990MOL0     C36487   5.243   3.455   6.565  0.2084  0.0510 -0.8459
  990MOL0     C36488   5.151   3.419   6.674  1.0368 -0.6622  0.5576
  990MOL0     C36489   5.153   3.291   6.737  0.3295  0.0979 -0.7758
  990MOL0     O36490   5.079   3.247   6.844  0.0148 -0.2570 -0.1472
  990MOL0     C36491   4.975   3.328   6.895  0.5292 -0.7178  0.6376
  990MOL0     C36492   4.910   3.257   7.019 -0.5386  0.0625  0.0058
  990MOL0     C36493   4.794   3.330   7.072  0.3938  0.6271  0.6663
  990MOL0     C36494   4.734   3.262   7.197  0.2152  0.1541  0.2729
  990MOL0     C36495   4.588   3.312   7.213 -0.8917  0.2954 -0.3021
  990MOL0     C36496   4.561   3.379   7.346  0.1613  0.0016  0.1020
  990MOL0     C36497   4.652   3.485   7.392 -1.0104  0.0281 -0.2105
  990MOL0     C36498   4.648   3.526   7.541  0.0836 -0.1984 -0.2366
  990MOL0     N36499   4.673   3.423   7.630 -0.5518 -0.2078 -0.8615
  990MOL0     C36500   4.588   3.370   7.723 -0.8201 -0.3249 -0.6447
  990MOL0     C36501   4.668   3.268   7.778 -0.6426 -0.7902  0.2367
  990MOL0     C36502   4.613   3.167   7.876  0.2478  0.0634 -0.6118
  990MOL0     C36503   4.627   3.216   8.015 -1.4476  0.2006 -0.2090
  990MOL0     C36504   4.542   3.120   8.102  0.0337 -0.1936 -0.4892
  990MOL0     C36505   4.560   3.158   8.247 -0.1407  0.5438  0.2310
  990MOL0     O36506   4.503   3.069   8.337  0.4067 -0.3933  0.7301
  990MOL0     C36507   4.567   2.947   8.354  0.0639  0.0238  0.0573
  990MOL0     C36508   4.484   2.839   8.348 -0.3021 -0.3018  0.7726
  990MOL0     C36509   4.522   2.699   8.363 -0.5947 -0.2815 -0.1271
  990MOL0     C36510   4.413   2.598   8.374 -1.4214 -0.9248  0.4409
  990MOL0     C36511   4.662   2.678   8.397  0.0751  0.0825 -0.2521
  990MOL0     C36512   4.708   2.544   8.417 -0.1246  0.5293 -0.1555
  990MOL0     O36513   4.799   2.536   8.527  0.2465 -0.2149 -0.1589
  990MOL0     C36514   4.889   2.428   8.531 -0.0853  0.3805  1.1888
  990MOL0     C36515   5.015   2.418   8.456  1.3414  0.0181 -0.0628
  990MOL0     C36516   5.091   2.304   8.465  0.1191 -0.2916  0.5896
  990MOL0     C36517   5.052   2.193   8.541  0.8987  0.3869  0.0417
  990MOL0     O36518   5.111   2.071   8.551 -0.8045  0.0791  0.3374
  990MOL0     C36519   5.215   2.041   8.459 -0.1042 -0.8556  0.1857
  990MOL0     C36520   5.215   1.893   8.428  0.6876 -0.1105  0.1540
  990MOL0     C36521   5.103   1.874   8.332 -0.4427 -0.4774  0.1900
  990MOL0     C36522   5.083   1.726   8.282 -0.3300 -0.3251  0.3054
  990MOL0     C36523   4.953   1.659   8.345  0.0917 -0.4678 -0.8256
  990MOL0     C36524   4.945   1.631   8.493  0.1902  0.7847 -0.3829
  990MOL0     C36525   5.054   1.545   8.556  0.3940 -0.2089  0.3977
  990MOL0     C36526   5.002   1.518   8.701 -0.0141  1.5020 -0.7726
  990MOL0    Cl36527   4.859   1.423   8.681  0.2625 -0.0687  0.0242
  990MOL0     C36528   4.926   2.204   8.612 -0.3034  0.1841  0.0970
  990MOL0     C36529   4.847   2.317   8.607 -0.9010  0.5551  0.5988
  990MOL0     O36530   4.686   2.450   8.334  0.1183 -0.7699 -0.6668
  990MOL0     C36531   4.754   2.786   8.400 -0.1738  0.3288  0.5165
  990MOL0     C36532   4.700   2.916   8.386 -0.5533 -0.7645  0.3667
  990MOL0     N36533   4.796   3.279   7.730  0.3210 -0.2403 -0.0512
  990MOL0     N36534   4.787   3.352   7.627 -0.4556 -0.8979  0.5553
  990MOL0     C36535   5.258   3.202   6.698  0.0178 -0.7661 -0.0541
  990MOL0     C36536   5.347   3.249   6.599 -0.9889 -0.2759  0.8666
  990MOL0     C36537   5.602   3.348   6.267 -0.4991  1.1185 -0.3455
  990MOL0     C36538   5.519   3.380   6.161 -0.1047  0.5415 -0.6990
  990MOL0     C36539   5.553   3.363   6.032  0.3519  0.1588  0.2568
  990MOL0     C36540   5.670   3.307   6.001 -0.0901  0.7819 -0.8684
  990MOL0     O36541   5.693   3.262   5.871  0.2833  0.6745  0.4819
  990MOL0     C36542   5.656   3.125   5.847  0.0896  0.6255 -0.0793
  990MOL0     C36543   5.707   3.059   5.715  0.4032 -0.4882 -0.0709
  990MOL0     C36544   5.649   3.118   5.584 -0.0366  0.3137  0.6300
  990MOL0     C36545   5.684   3.029   5.463  0.4274  0.6477 -0.8068
  990MOL0     C36546   5.602   2.908   5.482  0.5090 -0.6902  0.3315
  990MOL0     C36547   5.518   2.823   5.483 -0.0917 -0.2717  0.1783
  990MOL0     C36548   5.766   3.283   6.099  1.5743 -0.2842 -0.4706
  990MOL0     C36549   5.739   3.313   6.239 -0.2989  0.7989  0.6744
  990MOL0     C36550   5.851   3.289   6.325  0.2501  0.4471 -0.8697
  990MOL0     H36551   5.225   3.553   6.522 -4.5363 -0.4536 -0.5568
  990MOL0     H36552   5.071   3.490   6.691 -1.0844 -1.9050 -3.1300
  990MOL0     H36553   4.904   3.357   6.817  0.0092  3.9304  2.4840
  990MOL0     H36554   5.015   3.427   6.919  0.4511 -0.4085 -0.4636
  990MOL0     H36555   4.877   3.158   6.987  2.8976 -0.8398 -1.1238
  990MOL0     H36556   4.978   3.255   7.104 -0.3379  1.4878 -0.0966
  990MOL0     H36557   4.835   3.421   7.117 -1.3274  0.7436  2.1429
  990MOL0     H36558   4.729   3.354   6.987  1.2831 -1.5996 -0.7280
  990MOL0     H36559   4.732   3.153   7.184 -1.4306  0.0283  1.3148
  990MOL0     H36560   4.795   3.293   7.282 -0.7179  0.3897  0.8752
  990MOL0     H36561   4.527   3.221   7.210 -1.0977  0.3349  1.6293
  990MOL0     H36562   4.550   3.364   7.124  2.3868  2.7566 -0.4455
  990MOL0     H36563   4.456   3.406   7.358 -0.1667 -1.7063  1.5964
  990MOL0     H36564   4.571   3.309   7.430  1.0278  1.3511  1.1735
  990MOL0     H36565   4.613   3.573   7.342 -0.2153  2.2529  2.8038
  990MOL0     H36566   4.758   3.485   7.363 -0.4095  1.1048  1.7469
  990MOL0     H36567   4.717   3.610   7.554  0.4993 -0.3500 -1.3820
  990MOL0     H36568   4.544   3.552   7.561 -0.6325 -2.6782 -0.4184
  990MOL0     H36569   4.482   3.385   7.740 -1.4949 -2.5248 -2.3322
  990MOL0     H36570   4.668   3.072   7.877 -2.0958 -1.5191  3.5792
  990MOL0     H36571   4.510   3.151   7.845 -1.0399  3.8524  1.1776
  990MOL0     H36572   4.729   3.223   8.053 -1.0403  5.1836 -1.5164
  990MOL0     H36573   4.589   3.317   8.029 -1.9072  0.0181 -0.1099
  990MOL0     H36574   4.436   3.127   8.076 -0.1130 -1.9012 -0.4135
  990MOL0     H36575   4.564   3.015   8.081 -1.1194 -0.2652 -1.4111
  990MOL0     H36576   4.668   3.154   8.264  0.0756  1.5523 -0.7644
  990MOL0     H36577   4.541   3.263   8.271  2.4925  1.3344 -0.7221
  990MOL0     H36578   4.379   2.856   8.325 -0.0812  1.1810  0.7304
  990MOL0     H36579   4.332   2.657   8.420 -2.0638  1.0443 -2.8877
  990MOL0     H36580   4.447   2.513   8.433  0.5464  0.4602  1.4171
  990MOL0     H36581   4.371   2.569   8.278 -3.8720  0.7191  0.9067
  990MOL0     H36582   5.033   2.500   8.388 -0.7448  1.0404  0.5254
  990MOL0     H36583   5.181   2.299   8.404  0.4750  1.5688  0.8977
  990MOL0     H36584   5.208   2.098   8.366 -0.8948  1.4824  1.6164
  990MOL0     H36585   5.312   2.045   8.509 -0.3429 -6.0924  1.6761
  990MOL0     H36586   5.306   1.852   8.382 -0.5625  0.2551 -2.8874
  990MOL0     H36587   5.197   1.838   8.521 -0.4488  1.3161  0.8154
  990MOL0     H36588   5.124   1.939   8.247  1.3153 -1.0779  0.1148
  990MOL0     H36589   5.008   1.902   8.379  0.0102  0.0796  0.7996
  990MOL0     H36590   5.177   1.673   8.300 -0.4881 -1.1709 -1.1847
  990MOL0     H36591   5.066   1.731   8.174 -1.9917  1.8612  0.5876
  990MOL0     H36592   4.865   1.720   8.323  1.3611  1.7328 -0.0929
  990MOL0     H36593   4.943   1.568   8.284  1.7488  0.0313 -1.9166
  990MOL0     H36594   4.850   1.579   8.509  1.2284 -0.9441  0.5041
  990MOL0     H36595   4.935   1.724   8.549 -2.0572 -1.0490  2.5201
  990MOL0     H36596   5.146   1.604   8.551  0.5718 -0.5913 -3.0034
  990MOL0     H36597   5.071   1.452   8.501 -0.4566 -0.5317  0.6678
  990MOL0     H36598   4.984   1.609   8.760 -5.0144 -0.7548  1.8359
  990MOL0     H36599   5.079   1.457   8.750  1.4172  1.3115 -3.1032
  990MOL0     H36600   4.893   2.111   8.658 -0.3604  0.9744  1.6919
  990MOL0     H36601   4.748   2.314   8.649 -0.2327  1.2992  2.3031
  990MOL0     H36602   4.861   2.765   8.403 -0.1231 -0.8770 -3.2872
  990MOL0     H36603   4.765   3.000   8.406 -1.9238  0.1302  1.2464
  990MOL0     H36604   5.279   3.109   6.750  2.0102 -0.9820 -1.1352
  990MOL0     H36605   5.422   3.174   6.573  0.5715  1.1595  1.0532
  990MOL0     H36606   5.416   3.405   6.182 -0.0113 -1.1893  2.4766
  990MOL0     H36607   5.477   3.358   5.954  1.3142 -2.7298 -0.6015
  990MOL0     H36608   5.681   3.059   5.931 -3.0258 -0.1638  0.3416
  990MOL0     H36609   5.548   3.127   5.858  0.2139 -0.7602  1.9504
  990MOL0     H36610   5.664   2.960   5.729 -2.7183  0.8522  0.8905
  990MOL0     H36611   5.816   3.071   5.718  0.5357 -1.6392 -0.0431
  990MOL0     H36612   5.541   3.122   5.602 -0.2420 -0.5396 -0.3378
  990MOL0     H36613   5.683   3.220   5.566  2.1357 -0.5956 -0.7929
  990MOL0     H36614   5.791   3.005   5.456  0.6445  0.6819  1.5455
  990MOL0     H36615   5.661   3.083   5.371 -2.6773 -2.6393 -2.2194
  990MOL0     H36616   5.444   2.746   5.468  0.0691 -0.1640 -1.2631
  990MOL0     H36617   5.866   3.252   6.074  2.0236  0.4445  0.3625
  990MOL0     H36618   5.839   3.367   6.401 -2.2117 -0.9867  0.3337
  990MOL0     H36619   5.853   3.194   6.379 -0.7541  0.2543 -1.1707
  990MOL0     H36620   5.949   3.307   6.279  1.1936  1.6527  1.4115
  991MOL0     O36621   2.588   4.984   6.714 -0.3110  0.4744 -0.1360
  991MOL0     C36622   2.579   4.982   6.592  0.4478  0.2706  0.3263
  991MOL0     O36623   2.680   4.999   6.507 -0.1550  0.6569  0.3066
  991MOL0     C36624   2.803   5.045   6.547 -0.3453  0.4058 -0.7046
  991MOL0     C36625   2.830   5.147   6.645 -0.3060  0.2377  0.1356
  991MOL0     C36626   2.970   5.182   6.668 -0.3779 -0.1654  0.2409
  991MOL0     C36627   3.075   5.139   6.585 -0.4639 -0.4414  0.5122
  991MOL0     O36628   3.206   5.179   6.626  0.5918 -0.5868  1.2705
  991MOL0     C36629   3.319   5.118   6.562  0.5065  0.1792 -0.4935
  991MOL0     C36630   3.348   5.182   6.420  0.9660  0.2896  0.3048
  991MOL0     C36631   3.499   5.172   6.377  0.2076  0.6084  0.4243
  991MOL0     C36632   3.572   5.306   6.343  0.0954 -0.3238  0.3864
  991MOL0     C36633   3.632   5.364   6.478 -1.1131 -0.4126  0.6630
  991MOL0     C36634   3.705   5.497   6.454  0.5085 -1.0882 -0.2465
  991MOL0     C36635   3.755   5.569   6.578  0.0519  0.3491 -0.9276
  991MOL0     C36636   3.814   5.708   6.546 -0.6785 -0.0753 -0.1001
  991MOL0     N36637   3.915   5.731   6.441  0.1702  0.4416  0.0253
  991MOL0     C36638   3.885   5.745   6.307 -0.5485  0.0945  0.6727
  991MOL0     C36639   4.004   5.741   6.247  0.2876  0.6328  0.4267
  991MOL0     C36640   4.040   5.751   6.105  0.9359 -1.2775  0.4534
  991MOL0     C36641   3.939   5.692   5.998  0.0403 -0.1888 -0.5451
  991MOL0     C36642   3.987   5.732   5.858 -0.7830  0.6261 -0.0102
  991MOL0     C36643   4.123   5.685   5.814 -0.2673  0.4752 -0.0744
  991MOL0     O36644   4.130   5.548   5.852  0.3664  0.3331  0.5612
  991MOL0     C36645   4.246   5.487   5.816  0.0879 -0.4317  0.0608
  991MOL0     C36646   4.373   5.533   5.855 -0.6051  0.4778 -1.3182
  991MOL0     C36647   4.493   5.474   5.816  0.4673 -0.3592 -0.3558
  991MOL0     C36648   4.628   5.542   5.854  0.2794 -0.1335  0.0299
  991MOL0     C36649   4.490   5.366   5.726 -0.4470  0.9166  0.6298
  991MOL0     C36650   4.607   5.305   5.646  0.5281 -0.8807  0.1099
  991MOL0     O36651   4.578   5.221   5.542  0.2171  0.0575 -0.1165
  991MOL0     C36652   4.669   5.152   5.477 -0.2618 -0.4713  1.1154
  991MOL0     C36653   4.774   5.206   5.398 -0.9033  0.6705  0.3917
  991MOL0     C36654   4.851   5.110   5.328 -0.1564  0.1373  1.0308
  991MOL0     C36655   4.834   4.969   5.332  0.7921  0.1903 -0.0895
  991MOL0     O36656   4.918   4.890   5.250 -0.6978 -0.4911 -0.8930
  991MOL0     C36657   4.856   4.787   5.174  0.7579  0.6128  0.0933
  991MOL0     C36658   4.961   4.738   5.075  0.0622  0.4484  0.1001
  991MOL0     C36659   4.935   4.588   5.030  1.0184  0.0955  0.2610
  991MOL0     C36660   5.050   4.539   4.942 -0.6008  0.2771  0.1477
  991MOL0     C36661   5.059   4.613   4.804  0.1832 -0.0397  1.3094
  991MOL0     C36662   4.962   4.540   4.703  0.9005 -0.4211  0.5076
  991MOL0     C36663   5.004   4.582   4.566  0.1277  0.4601  0.1094
  991MOL0     C36664   4.950   4.482   4.461  0.2144  0.1832  1.2115
  991MOL0    Cl36665   5.016   4.523   4.308  0.4295  0.4728  0.1146
  991MOL0     C36666   4.720   4.925   5.411 -1.2437  0.3536 -1.2592
  991MOL0     C36667   4.644   5.018   5.483  0.9440 -0.2219  0.0885
  991MOL0     O36668   4.720   5.332   5.683  0.4446 -0.0090 -0.1152
  991MOL0     C36669   4.362   5.317   5.687 -0.1058  0.0048 -1.0863
  991MOL0     C36670   4.242   5.378   5.727 -0.0332  0.3291 -0.4539
  991MOL0     N36671   4.098   5.753   6.345 -0.2053  1.0240  0.4311
  991MOL0     N36672   4.047   5.762   6.459  1.5441  0.0189 -1.0767
  991MOL0     C36673   3.039   5.043   6.489 -0.0801  0.0006  0.6932
  991MOL0     C36674   2.905   4.995   6.473 -0.4223  0.2854 -0.0511
  991MOL0     C36675   2.453   4.971   6.517  0.2364 -0.2475 -0.1381
  991MOL0     C36676   2.445   5.023   6.387 -0.4440  0.2482  1.4152
  991MOL0     C36677   2.327   4.988   6.318  0.4306 -0.1000  0.0235
  991MOL0     C36678   2.217   4.914   6.370 -0.3792  0.9199  0.2740
  991MOL0     O36679   2.101   4.866   6.311 -0.3763  0.1038  0.5424
  991MOL0     C36680   2.066   4.923   6.187 -0.0821 -0.8095  0.3827
  991MOL0     C36681   1.975   4.831   6.116  0.2638  0.1893  0.9519
  991MOL0     C36682   1.834   4.829   6.183 -0.9913  0.5248  0.1446
  991MOL0     C36683   1.719   4.795   6.089 -0.7812 -0.6644  0.5244
  991MOL0     C36684   1.688   4.656   6.052 -0.7237  0.4047 -0.3122
  991MOL0     C36685   1.676   4.544   6.018 -0.1605 -0.4343 -0.5689
  991MOL0     C36686   2.243   4.858   6.495 -0.3375  0.4051  0.1377
  991MOL0     C36687   2.353   4.889   6.576  0.2394 -0.7917 -0.0741
  991MOL0     C36688   2.363   4.821   6.710  0.9971  0.4294  0.0815
  991MOL0     H36689   2.752   5.190   6.708  0.3813  1.8602 -0.0737
  991MOL0     H36690   2.991   5.253   6.748 -1.3029  0.3511  0.0358
  991MOL0     H36691   3.299   5.010   6.553 -0.7058  0.4628 -1.4902
  991MOL0     H36692   3.401   5.141   6.631 -0.6844  2.4846  0.2601
  991MOL0     H36693   3.278   5.143   6.345 -0.8987  2.2041  0.9580
  991MOL0     H36694   3.314   5.286   6.421  0.6359  0.5828 -5.6652
  991MOL0     H36695   3.561   5.110   6.442 -0.3349  1.8667  2.2323
  991MOL0     H36696   3.489   5.117   6.283 -0.7362 -1.2861  1.5722
  991MOL0     H36697   3.648   5.280   6.268 -0.0372 -0.4892  0.3102
  991MOL0     H36698   3.493   5.369   6.302  1.0574  0.7008  0.0481
  991MOL0     H36699   3.698   5.299   6.535 -3.5940 -3.4268  0.4061
  991MOL0     H36700   3.549   5.397   6.542 -1.7461 -0.6702 -0.0044
  991MOL0     H36701   3.789   5.474   6.388  0.1993 -0.8333 -0.7332
  991MOL0     H36702   3.626   5.565   6.420  0.7578 -0.1078  1.0520
  991MOL0     H36703   3.828   5.508   6.632  2.5827  1.0145 -3.3801
  991MOL0     H36704   3.671   5.595   6.643 -0.0894 -0.9312 -0.5796
  991MOL0     H36705   3.736   5.775   6.508 -1.0565 -0.9537 -0.9418
  991MOL0     H36706   3.836   5.764   6.637 -0.3602  3.6058 -2.2557
  991MOL0     H36707   3.784   5.765   6.273  0.0409 -0.6867 -1.7355
  991MOL0     H36708   4.130   5.693   6.084  0.7334 -0.8155 -2.0427
  991MOL0     H36709   4.053   5.858   6.088  1.2839 -1.1575  1.4259
  991MOL0     H36710   3.920   5.585   6.002 -1.8101  0.1448  0.6745
  991MOL0     H36711   3.844   5.745   6.011  0.9395  1.3637 -0.0134
  991MOL0     H36712   3.915   5.705   5.780  0.5799  0.1941 -1.1603
  991MOL0     H36713   3.976   5.840   5.860 -1.1219  0.5776  1.6185
  991MOL0     H36714   4.125   5.686   5.705  0.0100 -0.7680 -0.0917
  991MOL0     H36715   4.204   5.735   5.868  3.4093 -2.2941 -2.5392
  991MOL0     H36716   4.392   5.628   5.904 -3.4525  0.4832 -0.0517
  991MOL0     H36717   4.701   5.472   5.896  1.9233  2.1288  1.1252
  991MOL0     H36718   4.612   5.631   5.916  3.1277  1.4790 -1.3416
  991MOL0     H36719   4.670   5.571   5.757 -3.6766 -0.2540 -1.9247
  991MOL0     H36720   4.799   5.311   5.389 -0.5754  0.8100  2.5047
  991MOL0     H36721   4.937   5.146   5.273 -2.4589  0.1718 -2.9580
  991MOL0     H36722   4.833   4.705   5.242 -0.0440  0.6880 -0.0771
  991MOL0     H36723   4.772   4.823   5.114 -1.0009 -0.0336  2.0386
  991MOL0     H36724   4.964   4.803   4.988  2.1805 -0.4587 -0.5690
  991MOL0     H36725   5.056   4.717   5.124  0.0561 -1.0936 -0.4953
  991MOL0     H36726   4.854   4.589   4.957  3.0441 -0.6136 -2.1344
  991MOL0     H36727   4.917   4.525   5.118 -5.6734  0.2784 -0.4674
  991MOL0     H36728   5.050   4.431   4.927 -3.3564  0.5228 -2.6289
  991MOL0     H36729   5.140   4.559   5.001 -0.2226 -0.6797 -0.1004
  991MOL0     H36730   5.027   4.718   4.806 -2.2548 -0.6750 -0.4106
  991MOL0     H36731   5.162   4.598   4.769  0.2748  0.1197  1.5037
  991MOL0     H36732   4.855   4.560   4.708  0.5074 -2.4869  1.8171
  991MOL0     H36733   4.970   4.432   4.713  1.6377 -0.6146 -1.6969
  991MOL0     H36734   5.113   4.587   4.556  0.3147  0.7651  1.9259
  991MOL0     H36735   4.970   4.683   4.541 -1.2245 -0.5745 -2.7013
  991MOL0     H36736   4.841   4.495   4.464  0.0688 -0.1595 -1.1420
  991MOL0     H36737   4.969   4.377   4.483 -0.5012 -0.8304 -2.3424
  991MOL0     H36738   4.711   4.819   5.434 -1.8119  0.6935  0.1979
  991MOL0     H36739   4.569   4.975   5.547 -0.1312  1.0652 -0.2630
  991MOL0     H36740   4.337   5.235   5.620 -4.2641 -0.7751  1.0899
  991MOL0     H36741   4.142   5.354   5.692  0.6810  0.5851 -2.8423
  991MOL0     H36742   3.120   5.016   6.422  2.5828  1.2838  3.1372
  991MOL0     H36743   2.889   4.921   6.394 -2.1791  1.2606 -0.6512
  991MOL0     H36744   2.526   5.079   6.341 -0.7954  1.4489  2.2083
  991MOL0     H36745   2.307   5.032   6.221 -1.6975  0.6835  0.7553
  991MOL0     H36746   2.019   5.021   6.200 -0.2184 -0.9007  0.5699
  991MOL0     H36747   2.153   4.924   6.120 -0.0720 -0.6695  0.3975
  991MOL0     H36748   2.011   4.730   6.095 -0.6561 -0.1163  0.8091
  991MOL0     H36749   1.963   4.883   6.020 -0.8078  0.3447  1.1575
  991MOL0     H36750   1.836   4.755   6.264 -4.7900 -1.4085 -1.2748
  991MOL0     H36751   1.804   4.927   6.224 -1.0969  0.4119  0.3377
  991MOL0     H36752   1.726   4.854   5.997  2.5927 -3.1933 -1.0725
  991MOL0     H36753   1.628   4.830   6.138 -0.6059 -1.7965  1.7203
  991MOL0     H36754   1.656   4.440   6.006  1.3956 -1.1715  2.3020
  991MOL0     H36755   2.167   4.796   6.542  2.4833 -1.3377  2.7615
  991MOL0     H36756   2.356   4.890   6.794  0.9462 -1.1367  1.4257
  991MOL0     H36757   2.282   4.750   6.728  1.3956 -0.8075 -2.5196
  991MOL0     H36758   2.454   4.760   6.719 -0.0209 -1.2660 -0.5399
  992MOL0     O36759   8.856   6.533   7.417 -0.1666 -0.8051  0.8193
  992MOL0     C36760   8.906   6.650   7.400  0.5005  0.2797  0.6781
  992MOL0     O36761   8.844   6.767   7.444  0.7519  0.3087 -0.0096
  992MOL0     C36762   8.722   6.758   7.501  0.0398  0.8665 -0.0102
  992MOL0     C36763   8.607   6.742   7.421  0.5326  0.4950  0.0311
  992MOL0     C36764   8.483   6.776   7.477  0.9830 -0.0029 -0.0790
  992MOL0     C36765   8.464   6.804   7.613  0.9502 -0.5357 -0.6384
  992MOL0     O36766   8.333   6.821   7.651  0.6065  0.2645  1.1381
  992MOL0     C36767   8.311   6.945   7.723 -0.1953 -0.3044  0.9076
  992MOL0     C36768   8.162   6.946   7.765  0.1431  1.6842 -0.5653
  992MOL0     C36769   8.068   6.961   7.640 -0.7937 -0.7836 -0.2099
  992MOL0     C36770   8.083   7.099   7.568  0.2027 -0.2423  0.3184
  992MOL0     C36771   7.999   7.088   7.427 -0.6918  0.1473  0.7985
  992MOL0     C36772   8.028   7.215   7.340 -0.0185  0.1771  0.7975
  992MOL0     C36773   7.960   7.196   7.204 -0.5172 -0.2065  0.3126
  992MOL0     C36774   8.036   7.111   7.102 -0.4603  0.5414  0.7534
  992MOL0     N36775   7.943   7.043   7.016 -0.6329  0.4073  0.4807
  992MOL0     C36776   7.889   6.927   7.056 -0.4272 -0.5878 -1.3485
  992MOL0     C36777   7.806   6.901   6.951 -0.2294 -0.1556 -0.1603
  992MOL0     C36778   7.704   6.787   6.946 -0.5550  0.4571  0.6004
  992MOL0     C36779   7.592   6.796   7.055 -0.1064 -0.6752  1.3458
  992MOL0     C36780   7.500   6.916   7.051  0.2022  0.0310 -0.1078
  992MOL0     C36781   7.439   6.936   6.912  0.4786  0.2162  0.2279
  992MOL0     O36782   7.394   6.816   6.852 -0.2016  0.1119  0.5569
  992MOL0     C36783   7.331   6.821   6.731 -0.0547 -0.0794 -0.6153
  992MOL0     C36784   7.282   6.937   6.667  0.2438 -0.8470  0.8393
  992MOL0     C36785   7.198   6.934   6.558 -0.2598  0.2906 -0.3402
  992MOL0     C36786   7.132   7.061   6.520 -1.2589  0.6197  0.3802
  992MOL0     C36787   7.168   6.815   6.500  0.0259  0.5123 -0.5079
  992MOL0     C36788   7.056   6.789   6.400  0.6783 -0.0103 -0.6350
  992MOL0     O36789   6.951   6.874   6.383 -0.0288  0.3979  0.4709
  992MOL0     C36790   6.856   6.848   6.287  0.3169 -0.2741  0.1298
  992MOL0     C36791   6.815   6.959   6.209 -0.1461 -0.6350  0.0859
  992MOL0     C36792   6.723   6.951   6.110  1.1629  1.1521 -0.4868
  992MOL0     C36793   6.658   6.826   6.086 -0.3928  0.5999 -0.5545
  992MOL0     O36794   6.549   6.828   6.008 -0.2474 -1.0125  0.6633
  992MOL0     C36795   6.525   6.717   5.923 -1.3136 -0.5613 -0.2888
  992MOL0     C36796   6.380   6.673   5.909 -0.5801 -0.3673  0.3558
  992MOL0     C36797   6.285   6.783   5.880 -0.2274 -1.5387  0.2267
  992MOL0     C36798   6.299   6.866   5.753 -0.2553 -0.4675 -0.7689
  992MOL0     C36799   6.166   6.955   5.754  0.6717 -0.0845  0.5787
  992MOL0     C36800   6.179   7.068   5.643  0.5808  0.9761 -0.5534
  992MOL0     C36801   6.133   7.011   5.509  0.2625  0.4802  0.3454
  992MOL0     C36802   6.200   7.084   5.393 -0.8335 -0.2195 -0.2165
  992MOL0    Cl36803   6.162   7.258   5.382  0.0903 -0.0791  0.1101
  992MOL0     C36804   6.694   6.716   6.164 -0.4954  0.7421  0.0742
  992MOL0     C36805   6.792   6.730   6.263 -0.4245  0.7170 -0.4254
  992MOL0     O36806   7.067   6.684   6.341 -0.0422 -0.2315 -0.2768
  992MOL0     C36807   7.221   6.697   6.559 -0.7446 -0.1099  0.3856
  992MOL0     C36808   7.297   6.700   6.677  0.1201 -0.2368  0.0985
  992MOL0     N36809   7.824   6.994   6.849  0.7724 -0.4662  0.4401
  992MOL0     N36810   7.899   7.087   6.896  1.4102 -0.3217  0.0540
  992MOL0     C36811   8.576   6.798   7.693 -0.2769  0.6981 -0.0378
  992MOL0     C36812   8.705   6.792   7.634  0.4967 -0.2262 -0.2278
  992MOL0     C36813   9.046   6.648   7.351 -0.9509 -0.4370 -0.8813
  992MOL0     C36814   9.103   6.521   7.318  0.2990  0.9108 -1.1076
  992MOL0     C36815   9.236   6.500   7.287  0.6086  0.4437  0.3839
  992MOL0     C36816   9.323   6.612   7.300 -0.2527 -0.5635  0.4250
  992MOL0     O36817   9.458   6.615   7.302  0.1273  0.0520  0.5661
  992MOL0     C36818   9.540   6.507   7.258  0.8853 -0.1216  0.6726
  992MOL0     C36819   9.660   6.515   7.351  0.3485  0.5011 -0.5676
  992MOL0     C36820   9.752   6.400   7.332  0.9162 -0.3192  0.1911
  992MOL0     C36821   9.872   6.417   7.430  0.6456  0.1350  0.4141
  992MOL0     C36822   9.843   6.443   7.571 -0.3362 -1.1916 -0.5522
  992MOL0     C36823   9.822   6.470   7.689 -0.9095 -0.6781 -0.6287
  992MOL0     C36824   9.269   6.734   7.330  0.4594  1.3397  0.5173
  992MOL0     C36825   9.138   6.759   7.355 -0.1741 -0.1390 -0.0138
  992MOL0     C36826   9.114   6.898   7.401 -0.3004  0.0612 -0.0835
  992MOL0     H36827   8.623   6.717   7.317 -2.9620 -0.1244 -0.4889
  992MOL0     H36828   8.397   6.754   7.415  2.5431 -4.0163 -1.1577
  992MOL0     H36829   8.346   7.037   7.675  1.9570 -1.1707  0.6900
  992MOL0     H36830   8.371   6.923   7.812  3.5269  0.6055 -1.1924
  992MOL0     H36831   8.144   6.856   7.825 -0.1401  3.4901  2.2261
  992MOL0     H36832   8.158   7.029   7.836  1.2947 -0.9483  2.8096
  992MOL0     H36833   8.099   6.878   7.575  0.5506 -0.0260 -0.5841
  992MOL0     H36834   7.965   6.951   7.674 -0.9356  0.2700 -0.3093
  992MOL0     H36835   8.047   7.173   7.639 -0.5436  1.1167 -1.4198
  992MOL0     H36836   8.186   7.133   7.553  1.2690 -0.2777  5.6748
  992MOL0     H36837   7.893   7.060   7.428 -0.9465 -0.1436 -4.6272
  992MOL0     H36838   8.049   7.011   7.367 -0.2128  1.4266 -0.5142
  992MOL0     H36839   7.991   7.305   7.389 -2.3036 -0.6835  0.8066
  992MOL0     H36840   8.133   7.234   7.320 -0.4604 -0.2542 -2.6305
  992MOL0     H36841   7.964   7.299   7.166 -3.3016 -0.3155 -0.5189
  992MOL0     H36842   7.858   7.159   7.207 -0.0349 -1.5699  0.4268
  992MOL0     H36843   8.108   7.173   7.048  0.6177  0.1376  1.6968
  992MOL0     H36844   8.098   7.038   7.156  1.9356  3.8740  2.9156
  992MOL0     H36845   7.894   6.875   7.152 -2.9465  2.0852  0.4019
  992MOL0     H36846   7.763   6.697   6.966  0.4041  0.2111 -2.8192
  992MOL0     H36847   7.659   6.788   6.846  0.7383  1.1031 -0.0000
  992MOL0     H36848   7.534   6.703   7.049  1.1374 -1.4434  0.6724
  992MOL0     H36849   7.644   6.800   7.151 -1.9351 -0.0454  2.3523
  992MOL0     H36850   7.421   6.905   7.126 -1.6129  0.0733 -1.9275
  992MOL0     H36851   7.546   7.013   7.070  0.6978  0.0384 -1.2693
  992MOL0     H36852   7.343   6.988   6.917  0.6720  0.7214 -0.9671
  992MOL0     H36853   7.506   6.988   6.843 -2.8267  1.7511 -2.0953
  992MOL0     H36854   7.294   7.036   6.709 -3.6508  1.0203 -1.8488
  992MOL0     H36855   7.146   7.076   6.413  2.2705 -1.3229  0.4131
  992MOL0     H36856   7.176   7.150   6.564 -1.4879  1.1667 -0.4885
  992MOL0     H36857   7.030   7.058   6.561 -1.7307 -1.4273 -0.8003
  992MOL0     H36858   6.853   7.060   6.214  0.5855 -0.6904 -2.6647
  992MOL0     H36859   6.671   7.023   6.048  1.3511  1.1343 -0.6670
  992MOL0     H36860   6.556   6.744   5.822 -1.5541 -0.6824 -0.3963
  992MOL0     H36861   6.585   6.627   5.944 -0.8892 -0.3079 -0.4120
  992MOL0     H36862   6.368   6.599   5.830 -0.7028  0.4103 -0.3679
  992MOL0     H36863   6.360   6.645   6.013  1.0194 -0.0030  0.8022
  992MOL0     H36864   6.293   6.858   5.959 -1.4608 -0.2017 -0.8642
  992MOL0     H36865   6.183   6.744   5.893 -0.1755 -2.1930 -1.0778
  992MOL0     H36866   6.309   6.800   5.667  3.3591 -0.2243 -0.6812
  992MOL0     H36867   6.387   6.931   5.746 -1.8959  1.9191 -0.7164
  992MOL0     H36868   6.077   6.892   5.761  1.1531 -0.6090  5.5566
  992MOL0     H36869   6.163   7.002   5.852  0.4285  2.3540 -0.5245
  992MOL0     H36870   6.283   7.100   5.646  0.5384  1.1956  3.4350
  992MOL0     H36871   6.108   7.145   5.674 -2.9261 -1.6493 -1.4467
  992MOL0     H36872   6.024   7.016   5.502  0.1760  2.1585  2.0622
  992MOL0     H36873   6.161   6.906   5.500 -0.0154  0.5752 -2.4989
  992MOL0     H36874   6.180   7.026   5.302 -2.1068 -1.0191  0.5557
  992MOL0     H36875   6.307   7.081   5.415 -0.9859 -2.6463  0.5070
  992MOL0     H36876   6.645   6.621   6.147 -0.0061  0.6297 -0.7554
  992MOL0     H36877   6.809   6.648   6.333 -0.6081  0.6104 -0.5063
  992MOL0     H36878   7.206   6.596   6.520  0.2100 -0.5024  1.0012
  992MOL0     H36879   7.329   6.610   6.730 -0.2898 -1.8839 -2.2648
  992MOL0     H36880   8.559   6.799   7.800  0.6445  2.5833  0.1275
  992MOL0     H36881   8.793   6.811   7.694  1.5697  0.5727 -1.9606
  992MOL0     H36882   9.030   6.442   7.308  0.2151  0.5090  1.7692
  992MOL0     H36883   9.272   6.401   7.264 -0.8853  0.2113 -1.1688
  992MOL0     H36884   9.489   6.411   7.255  0.8694 -0.0833 -1.4798
  992MOL0     H36885   9.580   6.520   7.157  1.1286 -1.2575  0.6073
  992MOL0     H36886   9.613   6.502   7.449  2.5954 -1.3625  0.3549
  992MOL0     H36887   9.711   6.612   7.345  2.6274 -0.5573  0.4740
  992MOL0     H36888   9.695   6.311   7.361  0.1655 -0.1190 -0.6039
  992MOL0     H36889   9.784   6.389   7.228 -0.1293  1.2829 -0.3408
  992MOL0     H36890   9.947   6.483   7.386  1.2078 -0.6809  0.1093
  992MOL0     H36891   9.919   6.318   7.436  1.9063  0.4481 -2.4381
  992MOL0     H36892   9.804   6.522   7.780 -0.6044 -1.0708 -0.3407
  992MOL0     H36893   9.345   6.812   7.326  0.6893  1.2863  2.5830
  992MOL0     H36894   9.025   6.943   7.357  0.6363  0.6510 -1.4402
  992MOL0     H36895   9.090   6.903   7.507  0.9597 -1.1103  0.2861
  992MOL0     H36896   9.196   6.961   7.363  1.8116 -3.4935 -1.9878
  993MOL0     O36897   3.101   3.043   6.802 -0.3766  0.0549  0.1252
  993MOL0     C36898   3.176   2.998   6.716  0.0056 -0.8988  0.4585
  993MOL0     O36899   3.153   2.878   6.649  0.5023 -0.7280  0.1062
  993MOL0     C36900   3.033   2.800   6.672 -0.7326 -0.2719  0.4093
  993MOL0     C36901   2.973   2.733   6.558  0.1600  0.1851  0.4071
  993MOL0     C36902   2.879   2.631   6.575  0.1126 -0.2771 -0.7818
  993MOL0     C36903   2.836   2.598   6.709  0.8029  0.7869  0.1394
  993MOL0     O36904   2.744   2.499   6.730 -0.3923  0.1747  0.4104
  993MOL0     C36905   2.724   2.406   6.838  0.7610 -0.1422 -0.2366
  993MOL0     C36906   2.805   2.282   6.814 -0.5170  0.0104 -0.1240
  993MOL0     C36907   2.782   2.171   6.915  0.7342 -0.0077 -0.4666
  993MOL0     C36908   2.659   2.085   6.885  0.6671 -0.5476  1.0537
  993MOL0     C36909   2.662   1.953   6.949  0.1413  0.4424 -0.3155
  993MOL0     C36910   2.528   1.875   6.910 -0.3812 -0.1816 -0.6596
  993MOL0     C36911   2.394   1.927   6.956  0.8234  0.7163  0.1093
  993MOL0     C36912   2.403   1.969   7.102 -0.2149 -0.2724 -0.6343
  993MOL0     N36913   2.268   2.016   7.152 -0.4356  0.1307 -0.9387
  993MOL0     C36914   2.201   2.133   7.124  0.3920 -0.6266  1.1298
  993MOL0     C36915   2.087   2.123   7.203 -0.7075  0.0641 -0.1967
  993MOL0     C36916   1.987   2.226   7.195  0.3591  0.6519  0.2626
  993MOL0     C36917   1.872   2.194   7.286  0.1763  0.1497 -0.2496
  993MOL0     C36918   1.901   2.248   7.428  0.0034  0.0707  0.1208
  993MOL0     C36919   1.788   2.217   7.517 -0.1017  0.4418 -0.1271
  993MOL0     O36920   1.800   2.278   7.649 -0.5450  1.0011 -0.0056
  993MOL0     C36921   1.843   2.207   7.759  0.7500  0.0737  1.0765
  993MOL0     C36922   1.842   2.070   7.757  0.3958  1.0754 -0.5248
  993MOL0     C36923   1.883   1.997   7.867 -0.1747 -0.1523 -0.6144
  993MOL0     C36924   1.890   1.842   7.854  0.8315  0.3552 -0.0217
  993MOL0     C36925   1.925   2.065   7.980 -0.3011  0.6726 -0.1909
  993MOL0     C36926   1.968   1.993   8.107  0.0592 -0.1276 -0.2115
  993MOL0     O36927   2.055   2.057   8.192  0.0153  0.5090  0.5431
  993MOL0     C36928   2.056   2.035   8.330  0.5556 -0.1264  0.4636
  993MOL0     C36929   2.168   2.078   8.393  0.2596 -0.5438  0.8566
  993MOL0     C36930   2.178   2.064   8.532 -0.1555  0.4211 -0.4037
  993MOL0     C36931   2.080   1.996   8.608 -0.0974 -0.1191 -0.0067
  993MOL0     O36932   2.102   1.961   8.739  0.4131  0.7040  0.2251
  993MOL0     C36933   2.128   2.070   8.827  0.3471 -0.2244  0.1206
  993MOL0     C36934   2.083   2.020   8.961  0.0434  0.4694 -1.2714
  993MOL0     C36935   2.062   2.143   9.066 -0.1806 -0.2482 -0.5891
  993MOL0     C36936   2.004   2.086   9.194  0.4482  0.1805 -0.6059
  993MOL0     C36937   2.004   2.187   9.303 -0.3749  0.0724  0.1683
  993MOL0     C36938   1.962   2.116   9.429  0.5237  0.4085 -1.0886
  993MOL0     C36939   1.950   2.212   9.549  0.1402 -0.6668 -0.3254
  993MOL0     C36940   1.818   2.295   9.564  0.3435  0.4795 -0.1424
  993MOL0    Cl36941   1.857   2.425   9.670 -0.0710  0.0982 -0.2935
  993MOL0     C36942   1.967   1.947   8.540 -0.2174  0.7621 -0.6767
  993MOL0     C36943   1.947   1.973   8.404  0.3922 -0.0222  0.4217
  993MOL0     O36944   1.916   1.883   8.134  0.5568 -0.6023  0.2862
  993MOL0     C36945   1.919   2.201   7.981  0.2801 -0.9411  0.9556
  993MOL0     C36946   1.876   2.281   7.872  0.3032  0.2479 -0.6171
  993MOL0     N36947   2.083   2.002   7.263  0.5926  0.9027  0.1057
  993MOL0     N36948   2.191   1.936   7.233  0.0573  0.1474  0.5328
  993MOL0     C36949   2.887   2.661   6.820 -1.5854  0.4712  0.2995
  993MOL0     C36950   2.983   2.763   6.805  0.3637  0.0067 -0.1965
  993MOL0     C36951   3.282   3.091   6.673  0.2038 -0.2766 -0.0300
  993MOL0     C36952   3.306   3.090   6.535  0.1668 -1.2064  0.0955
  993MOL0     C36953   3.405   3.179   6.484 -0.5493  0.3340 -0.3309
  993MOL0     C36954   3.481   3.264   6.573 -0.7823 -0.4331  0.3612
  993MOL0     O36955   3.577   3.350   6.534 -0.9385  0.5137 -0.1909
  993MOL0     C36956   3.697   3.289   6.485 -0.9608 -0.2183 -0.3836
  993MOL0     C36957   3.766   3.203   6.591 -0.5299  0.1002  0.9057
  993MOL0     C36958   3.895   3.128   6.541 -0.4497  0.0601 -0.3115
  993MOL0     C36959   3.858   3.026   6.433  0.0804 -0.8737  1.0898
  993MOL0     C36960   3.966   3.020   6.329  0.6733  0.1529 -0.5973
  993MOL0     C36961   4.048   2.995   6.245 -0.3565 -0.2417  0.5873
  993MOL0     C36962   3.458   3.252   6.709  0.2210  0.5537 -0.7934
  993MOL0     C36963   3.345   3.178   6.763 -0.5505 -0.5582  0.2710
  993MOL0     C36964   3.318   3.182   6.913 -0.2008 -0.9995  0.2380
  993MOL0     H36965   3.009   2.748   6.457  0.6157  2.2641  0.8415
  993MOL0     H36966   2.850   2.582   6.482  0.8310 -0.7654 -0.7600
  993MOL0     H36967   2.618   2.380   6.833  0.5527  0.6944 -0.2309
  993MOL0     H36968   2.743   2.453   6.935  1.9145  1.1757 -1.0577
  993MOL0     H36969   2.786   2.243   6.714  2.0954 -0.8138 -0.3913
  993MOL0     H36970   2.913   2.301   6.806  0.0803 -0.1603  4.5858
  993MOL0     H36971   2.872   2.107   6.914  1.1729  0.4921  1.6391
  993MOL0     H36972   2.774   2.211   7.016 -0.4686 -0.2477 -0.4523
  993MOL0     H36973   2.575   2.148   6.918  1.2634  1.9089 -1.7025
  993MOL0     H36974   2.647   2.081   6.777  2.6366 -1.2437  0.8265
  993MOL0     H36975   2.656   1.958   7.058 -2.4393 -1.0947 -0.3045
  993MOL0     H36976   2.749   1.888   6.932  0.8368  1.4515 -0.7082
  993MOL0     H36977   2.529   1.865   6.801 -1.0874 -1.0482 -0.5975
  993MOL0     H36978   2.533   1.778   6.961 -0.0965 -0.1230 -0.5770
  993MOL0     H36979   2.310   1.858   6.948  0.0800  1.5013  0.8838
  993MOL0     H36980   2.366   2.011   6.893  0.1937  2.7366  2.8830
  993MOL0     H36981   2.450   1.886   7.157  1.2219  0.2557 -1.0025
  993MOL0     H36982   2.474   2.051   7.116  0.9773 -0.8085 -3.0242
  993MOL0     H36983   2.223   2.205   7.046  1.8713  0.0474  2.1222
  993MOL0     H36984   1.944   2.219   7.095 -1.4759  1.4665  0.9675
  993MOL0     H36985   2.029   2.325   7.211  2.6619 -0.3247  0.7550
  993MOL0     H36986   1.773   2.226   7.252  0.3649 -0.3657 -1.3328
  993MOL0     H36987   1.853   2.086   7.293 -2.4211  0.5601 -0.2993
  993MOL0     H36988   1.992   2.204   7.468 -0.2981 -0.8862 -0.2324
  993MOL0     H36989   1.919   2.356   7.438 -0.7048  0.4102 -1.8670
  993MOL0     H36990   1.699   2.259   7.470 -0.4712 -1.8927 -1.7203
  993MOL0     H36991   1.770   2.109   7.520 -2.4002  0.7771  0.7742
  993MOL0     H36992   1.812   2.008   7.673 -1.2684  1.7004 -0.4398
  993MOL0     H36993   1.877   1.806   7.752 -1.1938 -1.9876  0.9647
  993MOL0     H36994   1.810   1.802   7.917  2.7677  1.6513  3.5474
  993MOL0     H36995   1.984   1.802   7.894 -0.2451  0.9985  3.4750
  993MOL0     H36996   2.257   2.113   8.342  0.3742 -1.5915  0.3081
  993MOL0     H36997   2.263   2.104   8.588 -2.7395  3.6219  1.6163
  993MOL0     H36998   2.234   2.092   8.848 -0.3861  0.8700  3.1419
  993MOL0     H36999   2.073   2.162   8.803  0.5642  0.7376  2.9286
  993MOL0     H37000   1.993   1.959   8.952 -0.3377  0.7916  0.1347
  993MOL0     H37001   2.145   1.947   9.014  0.8618 -0.1285 -2.9798
  993MOL0     H37002   2.004   2.227   9.028  1.3979  1.6597  0.9928
  993MOL0     H37003   2.152   2.196   9.098  0.0877 -2.0142  1.9391
  993MOL0     H37004   2.057   1.997   9.230  0.0799  0.1504 -0.1354
  993MOL0     H37005   1.902   2.058   9.167 -0.1728  1.1523  0.6370
  993MOL0     H37006   2.103   2.232   9.318  1.6280 -2.2476 -4.1810
  993MOL0     H37007   1.930   2.265   9.283 -0.9902 -0.5208  0.0995
  993MOL0     H37008   2.039   2.042   9.454  0.5494  0.3808 -1.2500
  993MOL0     H37009   1.869   2.064   9.410  0.0393  1.0389 -0.5047
  993MOL0     H37010   2.037   2.279   9.542  1.8636 -2.4222  2.3902
  993MOL0     H37011   1.958   2.144   9.634  1.2157  0.9368  0.9065
  993MOL0     H37012   1.740   2.235   9.612  0.4782  1.9626  2.0703
  993MOL0     H37013   1.774   2.333   9.471 -1.9185  1.8819  1.4213
  993MOL0     H37014   1.899   1.896   8.607 -1.6316 -0.3341 -2.8433
  993MOL0     H37015   1.854   1.938   8.360 -1.1786  2.4332  1.6192
  993MOL0     H37016   1.960   2.252   8.068 -1.4191  0.0590  1.2198
  993MOL0     H37017   1.874   2.389   7.864 -0.1409  0.4908  1.9519
  993MOL0     H37018   2.858   2.635   6.921  1.3038  1.0322  1.3624
  993MOL0     H37019   3.024   2.813   6.893 -3.1994  0.9659  1.0793
  993MOL0     H37020   3.251   3.029   6.464  0.1114 -0.3195 -0.6452
  993MOL0     H37021   3.423   3.191   6.378  0.6870  3.8521  0.1392
  993MOL0     H37022   3.695   3.246   6.384  1.5565  1.5661 -1.3124
  993MOL0     H37023   3.776   3.359   6.457 -0.0066 -0.7897  0.7899
  993MOL0     H37024   3.700   3.122   6.624 -0.4364  0.1321  1.1783
  993MOL0     H37025   3.788   3.261   6.682  0.0183 -0.7998  1.3557
  993MOL0     H37026   3.975   3.193   6.507 -0.1389 -0.4723 -0.6129
  993MOL0     H37027   3.943   3.083   6.629  0.7068 -3.1574 -2.4069
  993MOL0     H37028   3.762   3.053   6.388  0.4837 -0.6551  0.3479
  993MOL0     H37029   3.851   2.929   6.482  0.1659 -1.2300  0.4026
  993MOL0     H37030   4.118   2.976   6.167 -2.4830 -2.2250 -0.9885
  993MOL0     H37031   3.526   3.287   6.787  2.9151 -1.1383 -2.2307
  993MOL0     H37032   3.223   3.233   6.932 -1.1441 -1.5031 -2.6048
  993MOL0     H37033   3.316   3.083   6.958 -3.2261 -1.3210 -0.3312
  993MOL0     H37034   3.402   3.235   6.958 -0.9445  1.9568 -1.5512
  994MOL0     O37035  10.895   8.293   7.449  0.6967  0.4305  0.0417
  994MOL0     C37036  10.845   8.406   7.482 -1.2430  0.0726  0.5302
  994MOL0     O37037  10.751   8.428   7.569 -0.6728 -0.1966 -0.1985
  994MOL0     C37038  10.709   8.322   7.648  0.9521  0.5102  1.6007
  994MOL0     C37039  10.571   8.298   7.662  0.7329  0.9078 -0.3041
  994MOL0     C37040  10.524   8.197   7.746  0.4392 -0.0579  0.2892
  994MOL0     C37041  10.614   8.104   7.796  0.0896  0.1397  0.8990
  994MOL0     O37042  10.586   7.980   7.846  0.1181 -0.9569 -0.8499
  994MOL0     C37043  10.447   7.942   7.866 -0.1348  0.1483  0.4639
  994MOL0     C37044  10.441   7.790   7.884 -0.5431  0.8631  0.8442
  994MOL0     C37045  10.450   7.707   7.751  0.1144 -0.7363  0.3307
  994MOL0     C37046  10.597   7.665   7.740  0.5191 -0.7711  0.1205
  994MOL0     C37047  10.641   7.611   7.604  0.0291 -0.4361 -0.0099
  994MOL0     C37048  10.652   7.713   7.496  1.2363 -0.1851 -0.3571
  994MOL0     C37049  10.768   7.807   7.511 -0.2405  1.2246 -0.2399
  994MOL0     C37050  10.900   7.739   7.511 -0.3356  0.0877 -0.3832
  994MOL0     N37051  10.927   7.659   7.397 -0.8462  0.4186  0.7404
  994MOL0     C37052  10.969   7.707   7.274  0.2132 -0.0229  0.7784
  994MOL0     C37053  11.005   7.610   7.187  0.8314  0.0105 -0.8877
  994MOL0     C37054  11.036   7.621   7.041  0.9180  0.0542  0.7785
  994MOL0     C37055  10.917   7.684   6.963 -0.3916  0.6419 -0.1533
  994MOL0     C37056  10.944   7.648   6.814 -0.3630 -0.0605 -0.6267
  994MOL0     C37057  10.840   7.712   6.728 -0.2215 -0.1977 -0.0652
  994MOL0     O37058  10.861   7.692   6.583  0.4757 -0.0274  0.1657
  994MOL0     C37059  10.811   7.578   6.519  1.1639 -0.4143  0.1324
  994MOL0     C37060  10.737   7.473   6.586  0.6653  0.9480  0.2228
  994MOL0     C37061  10.691   7.364   6.513  0.4807  1.0342  0.7466
  994MOL0     C37062  10.608   7.250   6.579 -0.0567  0.3637 -0.4532
  994MOL0     C37063  10.717   7.356   6.383 -0.8009 -0.4120 -0.4265
  994MOL0     C37064  10.646   7.259   6.297  0.1453 -0.1336  0.2532
  994MOL0     O37065  10.723   7.159   6.250  0.2217 -0.3599  0.2279
  994MOL0     C37066  10.661   7.043   6.229 -0.3805 -0.9310  0.0030
  994MOL0     C37067  10.646   6.948   6.331 -0.3844 -0.7345 -0.3298
  994MOL0     C37068  10.582   6.827   6.303 -0.7155 -0.2132  0.5195
  994MOL0     C37069  10.557   6.790   6.168 -0.0717 -0.5169 -0.2204
  994MOL0     O37070  10.483   6.669   6.154  0.0545  0.1519  0.2413
  994MOL0     C37071  10.423   6.628   6.030 -0.2182 -0.3352 -0.0120
  994MOL0     C37072  10.495   6.494   5.985  0.0438  0.0828  0.2334
  994MOL0     C37073  10.650   6.502   5.981 -0.2490  0.0773  0.2376
  994MOL0     C37074  10.717   6.404   5.886  0.3071 -0.2057 -0.2377
  994MOL0     C37075  10.870   6.412   5.901 -0.0177  0.7136  1.4982
  994MOL0     C37076  10.947   6.484   5.791  0.9148  0.4394  0.2781
  994MOL0     C37077  11.100   6.487   5.819  0.3575  0.0306  0.5822
  994MOL0     C37078  11.166   6.346   5.833  0.0394  0.3310  0.5036
  994MOL0    Cl37079  11.343   6.360   5.823 -0.1558  0.0463 -0.2342
  994MOL0     C37080  10.605   6.882   6.067 -0.5496 -0.5204  0.5075
  994MOL0     C37081  10.660   7.007   6.101 -0.0654  1.2419 -0.0070
  994MOL0     O37082  10.522   7.260   6.294  0.0271 -0.2277  0.4481
  994MOL0     C37083  10.809   7.436   6.323  0.1341 -0.3245  0.7018
  994MOL0     C37084  10.856   7.554   6.386  0.8669 -0.3965 -0.0184
  994MOL0     N37085  10.999   7.501   7.271 -0.3910  0.9963 -0.8333
  994MOL0     N37086  10.958   7.529   7.388  0.2919  0.9086 -0.3463
  994MOL0     C37087  10.751   8.131   7.788  0.7121  0.7498  0.1176
  994MOL0     C37088  10.791   8.238   7.715  0.2579 -0.7693 -0.7140
  994MOL0     C37089  10.891   8.523   7.403  0.2247 -0.1176 -0.1440
  994MOL0     C37090  10.809   8.633   7.402 -0.0712 -0.4650 -0.0375
  994MOL0     C37091  10.855   8.749   7.337  0.0404  0.4394 -0.0033
  994MOL0     C37092  10.983   8.758   7.285 -0.2535 -0.4633  0.1193
  994MOL0     O37093  11.017   8.890   7.251 -0.3442  0.3159  0.5642
  994MOL0     C37094  11.146   8.925   7.206  0.5147  0.8204 -0.0578
  994MOL0     C37095  11.154   9.077   7.171  1.0805  0.1952 -0.6444
  994MOL0     C37096  11.110   9.142   7.303 -0.2480 -0.1686 -0.2938
  994MOL0     C37097  11.161   9.280   7.305  0.3839  1.2360  0.2820
  994MOL0     C37098  11.118   9.360   7.422 -0.4036  0.7290  0.0844
  994MOL0     C37099  11.114   9.425   7.527 -0.7192  1.0517  0.5983
  994MOL0     C37100  11.056   8.647   7.277 -0.3875 -0.2939  0.2056
  994MOL0     C37101  11.025   8.528   7.353  0.1242  0.0945 -0.0746
  994MOL0     C37102  11.142   8.431   7.366  0.1487  0.6316  0.6864
  994MOL0     H37103  10.492   8.364   7.628 -0.6774 -1.4441 -1.9124
  994MOL0     H37104  10.417   8.180   7.756  0.7940 -3.8875 -0.6221
  994MOL0     H37105  10.387   7.975   7.781  1.4944 -1.0187 -1.2107
  994MOL0     H37106  10.408   7.981   7.961 -0.6403 -0.8688  0.6919
  994MOL0     H37107  10.515   7.752   7.955  0.7355 -2.7094 -2.0693
  994MOL0     H37108  10.340   7.764   7.918 -1.3410 -1.3055 -2.6598
  994MOL0     H37109  10.387   7.621   7.772 -1.4785  0.4989  0.7883
  994MOL0     H37110  10.418   7.769   7.667  1.3062 -0.7670 -0.1766
  994MOL0     H37111  10.669   7.736   7.783 -1.0806  0.9816  0.0667
  994MOL0     H37112  10.598   7.581   7.810 -0.5512 -2.0658 -1.3421
  994MOL0     H37113  10.563   7.538   7.579  0.6903 -1.1629 -0.0018
  994MOL0     H37114  10.729   7.549   7.625 -1.1899 -2.0188  0.6213
  994MOL0     H37115  10.667   7.662   7.400 -0.7600 -0.9757 -0.3128
  994MOL0     H37116  10.563   7.772   7.470  2.1371  0.9528 -0.9884
  994MOL0     H37117  10.751   7.876   7.594 -4.8010 -0.5529  0.5916
  994MOL0     H37118  10.756   7.872   7.424  0.8276 -0.6555 -1.8930
  994MOL0     H37119  10.973   7.820   7.521  0.1720 -0.4993  1.0424
  994MOL0     H37120  10.901   7.669   7.595 -1.2466 -2.3836 -2.3061
  994MOL0     H37121  10.970   7.811   7.242 -2.5074  0.3757  1.7416
  994MOL0     H37122  11.048   7.518   7.007  1.0952  0.2207  0.3301
  994MOL0     H37123  11.125   7.679   7.014  0.1154  0.0662 -2.0913
  994MOL0     H37124  10.820   7.643   6.992  0.6423 -0.8949  1.3767
  994MOL0     H37125  10.904   7.791   6.980 -1.9017  0.3753  0.4901
  994MOL0     H37126  11.045   7.680   6.786  0.0451 -1.6239 -1.0672
  994MOL0     H37127  10.942   7.540   6.795 -3.4468  0.1441 -2.1409
  994MOL0     H37128  10.736   7.688   6.753  0.0053 -1.6521 -0.4773
  994MOL0     H37129  10.836   7.819   6.750  0.8972 -0.1741  0.0595
  994MOL0     H37130  10.704   7.480   6.689  1.1673 -0.7241  0.5248
  994MOL0     H37131  10.504   7.280   6.569 -0.4142 -0.5127  0.4348
  994MOL0     H37132  10.629   7.217   6.682 -1.7427 -0.7435 -0.4304
  994MOL0     H37133  10.610   7.154   6.526  0.3825 -2.3675  3.9295
  994MOL0     H37134  10.653   6.963   6.439 -3.3824  2.9584 -0.4605
  994MOL0     H37135  10.539   6.758   6.376 -0.3626 -0.4075  0.5477
  994MOL0     H37136  10.321   6.597   6.055  0.8865 -1.7938  3.3324
  994MOL0     H37137  10.417   6.708   5.956 -3.4265 -2.0375 -1.8083
  994MOL0     H37138  10.466   6.420   6.061  2.1170 -2.5555 -1.3861
  994MOL0     H37139  10.460   6.455   5.889  3.3500  0.9112 -1.4267
  994MOL0     H37140  10.691   6.501   6.082  0.3089  0.6022  0.0272
  994MOL0     H37141  10.688   6.598   5.943  1.5433 -1.6126 -2.5967
  994MOL0     H37142  10.684   6.415   5.782  0.1796  3.1514  0.0360
  994MOL0     H37143  10.689   6.305   5.924 -0.4173  0.0178 -0.1614
  994MOL0     H37144  10.884   6.444   6.005 -0.5688  1.4869  1.3469
  994MOL0     H37145  10.911   6.311   5.903  2.2781  1.5706  0.5774
  994MOL0     H37146  10.921   6.590   5.784 -0.8962  0.0627  0.6413
  994MOL0     H37147  10.917   6.435   5.698 -2.3088  2.5790  0.0204
  994MOL0     H37148  11.113   6.542   5.913  0.9824 -0.2454  0.6644
  994MOL0     H37149  11.152   6.539   5.739 -0.9582  1.0355  0.3306
  994MOL0     H37150  11.132   6.278   5.755  1.2778 -0.9234  1.0183
  994MOL0     H37151  11.148   6.295   5.928  2.1051 -1.0292  0.2303
  994MOL0     H37152  10.595   6.868   5.960  0.8783 -0.7298  0.3771
  994MOL0     H37153  10.694   7.083   6.031 -1.8330  2.3984  0.3379
  994MOL0     H37154  10.840   7.432   6.219 -3.2567  5.2770 -0.9378
  994MOL0     H37155  10.923   7.630   6.346  0.9742 -0.5725 -0.1743
  994MOL0     H37156  10.814   8.058   7.837  0.3145 -0.6470 -1.3662
  994MOL0     H37157  10.897   8.257   7.705 -0.0077 -0.0696 -2.4589
  994MOL0     H37158  10.711   8.635   7.448  0.9381 -1.3395  2.3139
  994MOL0     H37159  10.791   8.836   7.336  1.6014  1.6423 -0.8175
  994MOL0     H37160  11.211   8.889   7.286  0.5837  1.9172  0.4038
  994MOL0     H37161  11.166   8.861   7.120  1.5280 -1.7724  2.0115
  994MOL0     H37162  11.083   9.102   7.092 -0.8904 -2.1719  0.2682
  994MOL0     H37163  11.257   9.103   7.143  1.9766 -1.2140  1.1031
  994MOL0     H37164  11.002   9.135   7.321 -0.2387  2.5582  1.4426
  994MOL0     H37165  11.164   9.089   7.382 -0.3112  0.3944  0.1325
  994MOL0     H37166  11.126   9.323   7.211 -0.7605 -0.4788 -0.1316
  994MOL0     H37167  11.270   9.286   7.294  0.4219 -1.9833 -3.6425
  994MOL0     H37168  11.092   9.491   7.608 -0.1944  4.8925 -2.0923
  994MOL0     H37169  11.160   8.661   7.247 -0.6580 -0.4320 -0.8498
  994MOL0     H37170  11.231   8.489   7.392  1.2985 -1.4282  1.5901
  994MOL0     H37171  11.130   8.366   7.453 -3.6209  2.5446  1.8102
  994MOL0     H37172  11.160   8.373   7.275 -1.3259  2.3481 -0.7769
  995MOL0     O37173   6.329   9.661   5.133  0.1797 -0.1254 -0.4337
  995MOL0     C37174   6.387   9.735   5.212 -0.7749  0.4904 -0.2138
  995MOL0     O37175   6.354   9.859   5.239 -0.1049 -0.8768  0.2133
  995MOL0     C37176   6.271   9.935   5.171 -0.0817 -0.4458  0.1542
  995MOL0     C37177   6.324  10.051   5.124 -0.4459  0.9263  0.3049
  995MOL0     C37178   6.240  10.138   5.065  0.7650  0.1758  0.3746
  995MOL0     C37179   6.098  10.115   5.048 -0.3042 -0.5270  0.5458
  995MOL0     O37180   6.027  10.212   4.977 -0.2710  0.3320 -0.0304
  995MOL0     C37181   5.885  10.230   4.975 -0.4375  0.2346  0.4686
  995MOL0     C37182   5.851  10.358   4.900 -0.0970  0.3501 -0.8834
  995MOL0     C37183   5.718  10.351   4.835 -0.4167  0.2176  0.6388
  995MOL0     C37184   5.607  10.438   4.882 -1.2168 -0.1863 -0.5606
  995MOL0     C37185   5.469  10.400   4.825 -0.4712  0.8678  1.6669
  995MOL0     C37186   5.467  10.387   4.665 -0.1634 -1.6293 -1.4673
  995MOL0     C37187   5.329  10.408   4.609 -0.0086 -0.5704  0.1774
  995MOL0     C37188   5.222  10.314   4.674 -0.3551 -0.8992  0.5364
  995MOL0     N37189   5.173  10.355   4.807  0.2894 -0.3847  0.0419
  995MOL0     C37190   5.162  10.274   4.911 -0.3698 -0.9663 -0.1895
  995MOL0     C37191   5.104  10.356   5.006  0.0444  0.8610 -0.2252
  995MOL0     C37192   5.076  10.307   5.146 -0.1916  0.8390 -0.4318
  995MOL0     C37193   5.157  10.377   5.252 -0.4168  0.5963 -0.5633
  995MOL0     C37194   5.305  10.380   5.246 -0.3802 -0.4266 -0.6370
  995MOL0     C37195   5.370  10.248   5.284 -0.2477  0.1708 -0.7459
  995MOL0     O37196   5.513  10.259   5.296  0.7417  0.4497 -0.5645
  995MOL0     C37197   5.588  10.146   5.342  0.1715 -0.4141  1.2487
  995MOL0     C37198   5.539  10.020   5.352 -0.6698  0.5494  1.0948
  995MOL0     C37199   5.620   9.916   5.401 -1.0009  0.3066  0.3115
  995MOL0     C37200   5.569   9.778   5.406  0.0474  0.4396 -0.4405
  995MOL0     C37201   5.750   9.953   5.447  1.1075  0.8285 -0.5023
  995MOL0     C37202   5.841   9.859   5.506  0.2957 -0.8839  0.2863
  995MOL0     O37203   5.979   9.896   5.508  0.3476 -1.2972  1.0219
  995MOL0     C37204   6.064   9.826   5.588 -0.7631  0.8151 -0.3937
  995MOL0     C37205   6.167   9.736   5.540  0.1901 -0.3005 -0.1502
  995MOL0     C37206   6.247   9.670   5.633 -0.9495 -0.1867  0.5423
  995MOL0     C37207   6.245   9.694   5.777 -0.2103  0.1435  0.6286
  995MOL0     O37208   6.301   9.632   5.883 -0.7050  0.2095 -0.0682
  995MOL0     C37209   6.411   9.547   5.858 -0.3047 -0.1921 -0.3060
  995MOL0     C37210   6.384   9.409   5.793 -0.8933 -0.8147 -0.0447
  995MOL0     C37211   6.266   9.335   5.861 -0.0039 -0.0716  0.5078
  995MOL0     C37212   6.260   9.196   5.805 -0.6063  0.7282 -0.3629
  995MOL0     C37213   6.180   9.097   5.884 -0.0294  1.1303 -0.8053
  995MOL0     C37214   6.152   8.968   5.828  0.2957 -0.0359 -0.3174
  995MOL0     C37215   6.042   8.877   5.906 -0.7053 -0.5901 -0.0428
  995MOL0     C37216   6.034   8.738   5.844  0.1967 -0.6715 -0.6528
  995MOL0    Cl37217   5.914   8.641   5.938  0.1453 -0.5847 -0.0260
  995MOL0     C37218   6.134   9.771   5.811 -0.8785 -1.1765 -1.0726
  995MOL0     C37219   6.052   9.842   5.723 -0.2595 -1.1225  0.5844
  995MOL0     O37220   5.794   9.762   5.565  0.4831  0.6361  0.0266
  995MOL0     C37221   5.789  10.090   5.438 -1.0053  0.1751  0.0913
  995MOL0     C37222   5.716  10.179   5.375  0.3454  0.5384 -0.0806
  995MOL0     N37223   5.076  10.484   4.969  0.3072 -0.1084 -0.2994
  995MOL0     N37224   5.117  10.474   4.846  0.2542  0.1937  0.2502
  995MOL0     C37225   6.053   9.989   5.089  0.2343 -0.5381 -0.5590
  995MOL0     C37226   6.138   9.897   5.158 -0.2442  0.0894 -0.1124
  995MOL0     C37227   6.490   9.676   5.309  0.2149 -0.3183  1.1503
  995MOL0     C37228   6.531   9.757   5.413 -0.1017  0.5787 -0.6378
  995MOL0     C37229   6.643   9.726   5.495 -0.2971  0.6431  0.5398
  995MOL0     C37230   6.682   9.587   5.483 -0.0450  0.7338  0.6104
  995MOL0     O37231   6.785   9.533   5.554 -0.2542  0.5798  0.1930
  995MOL0     C37232   6.869   9.626   5.623 -0.6291  0.3846  0.0048
  995MOL0     C37233   6.961   9.550   5.724 -0.1978 -0.0055  0.2167
  995MOL0     C37234   6.865   9.522   5.838  0.0209  0.2932  0.1819
  995MOL0     C37235   6.939   9.446   5.950  0.2884  0.8206 -0.1358
  995MOL0     C37236   6.859   9.403   6.060  0.2817 -0.7869 -0.6848
  995MOL0     C37237   6.820   9.355   6.165  0.3277 -1.3395 -0.5025
  995MOL0     C37238   6.616   9.495   5.402 -0.4273  0.5925 -0.0955
  995MOL0     C37239   6.521   9.541   5.307 -0.3411 -0.1867  0.1105
  995MOL0     C37240   6.464   9.430   5.220 -0.2276  0.3477 -0.7608
  995MOL0     H37241   6.431  10.064   5.123 -0.2605 -0.2986  1.4364
  995MOL0     H37242   6.281  10.229   5.023  1.3217 -0.4927 -0.5803
  995MOL0     H37243   5.848  10.239   5.078  3.3343  3.2008  1.8478
  995MOL0     H37244   5.844  10.143   4.923 -2.0380  1.5691 -0.6115
  995MOL0     H37245   5.866  10.441   4.970 -1.7632 -1.0062  1.2059
  995MOL0     H37246   5.927  10.381   4.824  1.5264 -1.0730  0.2254
  995MOL0     H37247   5.732  10.388   4.733  0.4341  2.9414  1.6539
  995MOL0     H37248   5.689  10.245   4.835 -1.3389  0.4618  1.3753
  995MOL0     H37249   5.592  10.413   4.987 -0.0771 -0.5564 -0.4702
  995MOL0     H37250   5.631  10.544   4.873 -0.5000 -0.4403 -1.9673
  995MOL0     H37251   5.404  10.483   4.856 -1.6484  1.6639 -2.3451
  995MOL0     H37252   5.435  10.305   4.867  0.5971 -1.0852 -1.4964
  995MOL0     H37253   5.538  10.458   4.622 -0.4983  0.1771  0.7443
  995MOL0     H37254   5.498  10.288   4.630 -0.3951 -2.8093  1.3381
  995MOL0     H37255   5.330  10.403   4.500  3.6607 -0.9487  0.0990
  995MOL0     H37256   5.298  10.512   4.623  1.0542 -0.4303  1.8332
  995MOL0     H37257   5.131  10.328   4.615  0.3117  1.3387 -0.0665
  995MOL0     H37258   5.260  10.211   4.669  2.4137 -0.2113  3.5951
  995MOL0     H37259   5.194  10.172   4.927 -1.4897 -1.5531 -1.5189
  995MOL0     H37260   5.092  10.199   5.148  0.8622  0.9680 -0.7903
  995MOL0     H37261   4.970  10.317   5.170 -0.0067 -1.9019  2.0624
  995MOL0     H37262   5.133  10.484   5.247  1.5054  1.0303 -4.1395
  995MOL0     H37263   5.119  10.341   5.348  0.2015 -1.2326 -0.9617
  995MOL0     H37264   5.345  10.422   5.154 -1.8624  0.3506 -0.9534
  995MOL0     H37265   5.344  10.445   5.324  0.6511  0.4110 -1.8177
  995MOL0     H37266   5.328  10.210   5.378 -1.0010  1.4161 -0.5500
  995MOL0     H37267   5.343  10.166   5.216  0.4759 -1.7815  1.2183
  995MOL0     H37268   5.436  10.003   5.324 -0.4803  1.9126 -0.5340
  995MOL0     H37269   5.633   9.708   5.352 -2.1738 -1.4668 -0.7851
  995MOL0     H37270   5.471   9.771   5.358 -0.2165  0.7318  0.0373
  995MOL0     H37271   5.558   9.741   5.509 -1.0883  1.5868 -0.1287
  995MOL0     H37272   6.188   9.718   5.435  1.5988  0.6633 -0.0558
  995MOL0     H37273   6.316   9.597   5.594  2.0990  2.1481  1.1866
  995MOL0     H37274   6.491   9.594   5.801 -0.4039 -0.7786 -0.9386
  995MOL0     H37275   6.455   9.515   5.953 -0.3426 -4.2037 -1.4637
  995MOL0     H37276   6.360   9.431   5.689 -1.5284  1.6386  0.5461
  995MOL0     H37277   6.477   9.351   5.799  0.4491  1.3960  2.5641
  995MOL0     H37278   6.174   9.390   5.842  0.9859  1.7291  0.7255
  995MOL0     H37279   6.283   9.340   5.969  0.1075 -3.0541  0.7247
  995MOL0     H37280   6.359   9.153   5.786  0.9234  4.1474 -0.8907
  995MOL0     H37281   6.226   9.206   5.701 -1.0318 -2.9722 -0.7417
  995MOL0     H37282   6.234   9.085   5.978 -1.7203 -0.4577  0.0239
  995MOL0     H37283   6.086   9.144   5.915 -1.5126 -2.8821  1.4876
  995MOL0     H37284   6.249   8.917   5.838  1.5899  2.4720  0.9380
  995MOL0     H37285   6.119   8.977   5.724 -0.4647 -1.8469 -0.2665
  995MOL0     H37286   5.948   8.931   5.914 -0.1733  0.4127 -0.3495
  995MOL0     H37287   6.072   8.874   6.011 -2.5249  1.9668  0.6356
  995MOL0     H37288   6.134   8.695   5.836  0.2062 -0.7712 -0.0047
  995MOL0     H37289   5.999   8.765   5.744 -0.2436  2.0691  0.1630
  995MOL0     H37290   6.127   9.789   5.918  3.3819  0.8770 -0.9086
  995MOL0     H37291   5.975   9.908   5.759  0.3236  0.9751 -1.7151
  995MOL0     H37292   5.891  10.113   5.467 -0.5399 -3.1966  1.7506
  995MOL0     H37293   5.744  10.284   5.372  2.1122  0.0864 -2.1050
  995MOL0     H37294   5.950   9.957   5.098  0.6205 -1.4471  0.8132
  995MOL0     H37295   6.095   9.821   5.224 -2.3890  0.5515 -0.9015
  995MOL0     H37296   6.478   9.848   5.437  0.7512  0.7787  0.5882
  995MOL0     H37297   6.672   9.797   5.572 -5.1000  0.0149  3.3591
  995MOL0     H37298   6.924   9.680   5.546 -2.9485  0.8721 -1.3936
  995MOL0     H37299   6.812   9.697   5.684 -3.2541  0.5213 -2.4204
  995MOL0     H37300   7.036   9.620   5.760 -2.6699  2.7154  0.4588
  995MOL0     H37301   7.001   9.463   5.669  0.6001 -0.0328  0.8253
  995MOL0     H37302   6.831   9.617   5.881  2.7998  1.4880 -0.0646
  995MOL0     H37303   6.777   9.466   5.805  0.3186  0.3057 -0.6568
  995MOL0     H37304   7.023   9.513   5.974 -0.8380  2.4048 -0.4285
  995MOL0     H37305   6.976   9.353   5.907  1.4678  1.0791  0.2741
  995MOL0     H37306   6.774   9.313   6.253 -0.7583 -1.9271 -1.3317
  995MOL0     H37307   6.640   9.389   5.397 -0.5237  0.5800 -0.2984
  995MOL0     H37308   6.363   9.456   5.187  0.5447 -0.2254 -3.9156
  995MOL0     H37309   6.521   9.404   5.131  1.6688  4.9393 -1.1625
  995MOL0     H37310   6.439   9.340   5.277 -0.1897  0.7290 -0.1266
  996MOL0     O37311   8.968   3.565   8.608  0.8384 -0.8136  0.0370
  996MOL0     C37312   8.984   3.517   8.491 -0.6705  0.2550 -0.1239
  996MOL0     O37313   8.883   3.473   8.402  0.0689  0.1470  0.5528
  996MOL0     C37314   8.756   3.507   8.438  0.8398  0.4590  0.9298
  996MOL0     C37315   8.709   3.630   8.388  0.5028 -0.1070 -0.3716
  996MOL0     C37316   8.583   3.670   8.429  0.2278 -0.8658 -0.3238
  996MOL0     C37317   8.497   3.592   8.503  0.8296 -0.1283  0.0424
  996MOL0     O37318   8.370   3.659   8.522  0.5949 -0.5603  0.0041
  996MOL0     C37319   8.292   3.609   8.636  0.0000  0.3975  1.2796
  996MOL0     C37320   8.172   3.699   8.676 -0.6254  0.5904  0.1173
  996MOL0     C37321   8.212   3.798   8.787  0.6985  0.6545 -0.4224
  996MOL0     C37322   8.260   3.923   8.727 -0.2882  0.0572  0.1780
  996MOL0     C37323   8.291   4.026   8.841 -0.5584 -0.1281 -0.2895
  996MOL0     C37324   8.178   4.089   8.924 -0.0242 -0.3372  0.5475
  996MOL0     C37325   8.230   4.192   9.024 -0.5901  0.1065  0.0559
  996MOL0     C37326   8.254   4.331   8.977  0.6536 -0.1923  0.2767
  996MOL0     N37327   8.325   4.405   9.085 -0.1149 -0.1099 -0.0493
  996MOL0     C37328   8.273   4.441   9.205  0.0052  0.9615 -0.8823
  996MOL0     C37329   8.360   4.518   9.275  0.0368  0.0235  0.5966
  996MOL0     C37330   8.341   4.579   9.412 -0.6991  0.4717  0.0551
  996MOL0     C37331   8.387   4.723   9.430  0.2401  0.4993 -0.2732
  996MOL0     C37332   8.345   4.765   9.574  0.2664 -0.5733 -0.6030
  996MOL0     C37333   8.390   4.904   9.591  0.3200 -0.6104 -0.4163
  996MOL0     O37334   8.370   4.952   9.729  0.9070 -0.0245  0.0450
  996MOL0     C37335   8.465   4.988   9.815  0.3467  0.3682  0.0420
  996MOL0     C37336   8.428   5.056   9.937 -0.0426 -0.1113  0.1545
  996MOL0     C37337   8.510   5.106  10.033  0.6835 -0.0348 -0.1444
  996MOL0     C37338   8.439   5.177  10.145  0.1428  0.0808  0.3419
  996MOL0     C37339   8.650   5.059  10.022  0.3365  0.1511 -0.3612
  996MOL0     C37340   8.751   5.080  10.135 -0.2260  0.6301 -0.4241
  996MOL0     O37341   8.876   5.028  10.116 -0.0094  0.0800 -0.1574
  996MOL0     C37342   8.980   5.067  10.195 -0.0281  1.0322 -0.7959
  996MOL0     C37343   9.079   5.134  10.123  0.1679  0.0307  0.6348
  996MOL0     C37344   9.200   5.165  10.186 -0.1210 -0.9688 -0.8932
  996MOL0     C37345   9.226   5.119  10.313  0.2985  1.2963 -0.9750
  996MOL0     O37346   9.345   5.159  10.361  0.4068 -0.0100  0.1476
  996MOL0     C37347   9.382   5.127  10.499  0.2833 -0.1374  0.6542
  996MOL0     C37348   9.509   5.190  10.539  0.2743  0.0187  0.2357
  996MOL0     C37349   9.628   5.162  10.441 -0.0959  1.2709 -0.1887
  996MOL0     C37350   9.769   5.240  10.472  0.0946  1.0990 -0.0118
  996MOL0     C37351   9.817   5.203  10.614 -0.0636  0.4313  0.4351
  996MOL0     C37352   9.961   5.272  10.635 -0.1743 -0.1376  0.7800
  996MOL0     C37353  10.083   5.200  10.571 -0.5202 -0.2093 -0.0408
  996MOL0     C37354  10.111   5.060  10.637  0.4861  0.5744  0.0988
  996MOL0    Cl37355  10.140   5.089  10.808 -0.2860  0.0883  0.6286
  996MOL0     C37356   9.123   5.053  10.384  0.2195 -0.8577 -0.1157
  996MOL0     C37357   8.995   5.030  10.327 -0.7735  0.2116 -0.1329
  996MOL0     O37358   8.718   5.159  10.219 -0.2024  0.5695 -0.3864
  996MOL0     C37359   8.695   5.004   9.904  0.3380 -0.4150  0.0154
  996MOL0     C37360   8.601   4.974   9.800 -0.3804  0.2250 -0.3843
  996MOL0     N37361   8.464   4.533   9.188 -0.7697  0.2964 -1.0241
  996MOL0     N37362   8.448   4.465   9.076  0.4851  0.0589  0.1486
  996MOL0     C37363   8.540   3.470   8.555 -0.0020  0.7158  0.1532
  996MOL0     C37364   8.672   3.436   8.528 -0.0305 -0.1138 -0.3801
  996MOL0     C37365   9.128   3.499   8.446 -0.3175 -0.0537 -0.1958
  996MOL0     C37366   9.151   3.432   8.326 -0.6643 -0.1387 -0.1013
  996MOL0     C37367   9.279   3.414   8.272  0.1155 -0.7861 -0.6185
  996MOL0     C37368   9.388   3.458   8.334 -0.5844 -0.7638 -1.0125
  996MOL0     O37369   9.525   3.455   8.297  0.8945  0.2481 -0.5084
  996MOL0     C37370   9.560   3.437   8.163  0.5932  0.8494 -0.2212
  996MOL0     C37371   9.715   3.433   8.174 -1.4517  0.4013 -0.0710
  996MOL0     C37372   9.773   3.568   8.233  0.3016 -0.9593 -0.4758
  996MOL0     C37373   9.879   3.534   8.340  0.0868  0.7644 -0.7663
  996MOL0     C37374  10.015   3.523   8.286 -0.5721  0.4049  0.0015
  996MOL0     C37375  10.136   3.530   8.254  0.2918 -1.0174 -1.2605
  996MOL0     C37376   9.365   3.519   8.464  0.0727 -0.0909  0.2560
  996MOL0     C37377   9.245   3.537   8.520 -0.6696  0.4529 -0.5087
  996MOL0     C37378   9.252   3.599   8.655 -0.2087  0.2857  0.1140
  996MOL0     H37379   8.770   3.696   8.327  1.2475 -0.6677 -0.2476
  996MOL0     H37380   8.546   3.765   8.390 -0.4703 -0.3430  1.5034
  996MOL0     H37381   8.362   3.596   8.719  1.8069  0.3506 -0.1808
  996MOL0     H37382   8.238   3.521   8.600 -0.8138  2.9036 -4.9748
  996MOL0     H37383   8.129   3.753   8.591 -0.0567  2.5121  0.9925
  996MOL0     H37384   8.095   3.631   8.715  3.7345 -5.0347  0.2118
  996MOL0     H37385   8.126   3.827   8.848 -0.8213  1.1114 -2.6567
  996MOL0     H37386   8.287   3.760   8.857  1.1513  0.8907 -0.7700
  996MOL0     H37387   8.347   3.898   8.666 -0.4515 -0.2397  0.0682
  996MOL0     H37388   8.187   3.958   8.653  1.0804 -1.0696 -1.8130
  996MOL0     H37389   8.338   4.112   8.793 -1.4581 -0.2805 -1.4839
  996MOL0     H37390   8.371   3.983   8.901 -0.8355 -1.6004 -0.9318
  996MOL0     H37391   8.110   4.135   8.852 -1.3252 -0.6257  1.5516
  996MOL0     H37392   8.111   4.014   8.966 -0.2028 -2.6039 -3.3083
  996MOL0     H37393   8.322   4.145   9.061  0.2085 -0.6179 -2.5808
  996MOL0     H37394   8.164   4.210   9.109 -1.6560  4.9905 -1.4913
  996MOL0     H37395   8.314   4.330   8.886  0.4137  1.2458  0.0744
  996MOL0     H37396   8.159   4.383   8.967  1.9079  2.0498 -0.8627
  996MOL0     H37397   8.179   4.412   9.252  0.9840  0.3105  0.7510
  996MOL0     H37398   8.393   4.518   9.486  0.1958 -2.0634 -2.4778
  996MOL0     H37399   8.237   4.579   9.445 -0.7649  2.0571 -0.0877
  996MOL0     H37400   8.492   4.741   9.403  0.1855 -0.7342 -1.4229
  996MOL0     H37401   8.323   4.778   9.360 -1.4774 -0.6720  0.3163
  996MOL0     H37402   8.237   4.768   9.588  0.4546 -1.6693  1.4703
  996MOL0     H37403   8.392   4.699   9.648  2.5957 -3.3523 -4.1767
  996MOL0     H37404   8.497   4.898   9.572  0.5314 -0.4803  0.6958
  996MOL0     H37405   8.335   4.975   9.528 -0.0296  0.0617  0.6269
  996MOL0     H37406   8.322   5.077   9.942  0.1754  0.8673  1.3670
  996MOL0     H37407   8.342   5.212  10.109  0.1546 -1.3363 -1.2308
  996MOL0     H37408   8.490   5.269  10.174 -2.0574  1.1496  1.0553
  996MOL0     H37409   8.434   5.116  10.236 -1.0532 -1.8849 -0.9417
  996MOL0     H37410   9.070   5.155  10.017  1.2733 -0.6905  0.3939
  996MOL0     H37411   9.283   5.211  10.133  0.4791  1.8283  2.1079
  996MOL0     H37412   9.304   5.168  10.564  0.0234  4.0037 -1.8970
  996MOL0     H37413   9.408   5.023  10.521  2.7049  0.0645 -0.8774
  996MOL0     H37414   9.504   5.299  10.542 -2.8177  0.0079 -1.2771
  996MOL0     H37415   9.536   5.167  10.643  1.1556  0.9652  0.2378
  996MOL0     H37416   9.586   5.180  10.342 -1.1406  0.0560  0.0159
  996MOL0     H37417   9.647   5.055  10.453 -0.4695  1.1895 -0.3035
  996MOL0     H37418   9.744   5.347  10.469 -1.1430  0.8236 -0.3426
  996MOL0     H37419   9.850   5.220  10.402 -1.4076 -2.1604 -1.0014
  996MOL0     H37420   9.753   5.252  10.689 -0.5413 -1.8250  1.5936
  996MOL0     H37421   9.819   5.097  10.640  2.0705  0.4662  0.5454
  996MOL0     H37422   9.975   5.287  10.742 -0.9221  0.4210  0.8091
  996MOL0     H37423   9.956   5.374  10.594 -4.3212 -0.4868 -0.0370
  996MOL0     H37424  10.174   5.258  10.587 -0.1766 -0.9349  0.7343
  996MOL0     H37425  10.082   5.193  10.462  2.7749  0.8926 -0.2450
  996MOL0     H37426  10.201   5.008  10.603 -1.1721 -2.2404 -0.3368
  996MOL0     H37427  10.027   4.991  10.622 -0.7965  1.7024  1.6565
  996MOL0     H37428   9.134   5.024  10.487  2.3650  2.3887  0.7445
  996MOL0     H37429   8.919   4.972  10.379  0.1438 -1.7844 -0.9045
  996MOL0     H37430   8.800   4.980   9.892  1.0282  0.7181  2.9014
  996MOL0     H37431   8.632   4.933   9.704 -1.2901  0.0736 -0.6206
  996MOL0     H37432   8.473   3.418   8.623 -1.2951  2.2581  0.1130
  996MOL0     H37433   8.723   3.353   8.574 -1.8081 -1.6670 -1.0891
  996MOL0     H37434   9.068   3.396   8.266 -0.7999  0.0580 -0.0307
  996MOL0     H37435   9.290   3.352   8.184 -0.6240 -0.7285 -0.7601
  996MOL0     H37436   9.522   3.347   8.115 -1.1045  0.2156  2.1384
  996MOL0     H37437   9.539   3.521   8.096 -0.8645  1.2577  0.7030
  996MOL0     H37438   9.750   3.416   8.072 -1.3272 -2.1349  0.3342
  996MOL0     H37439   9.754   3.341   8.220  0.9145  0.2348 -2.2052
  996MOL0     H37440   9.825   3.621   8.152 -0.9370  0.3735 -0.4427
  996MOL0     H37441   9.700   3.633   8.281  1.9558  1.1861 -0.6791
  996MOL0     H37442   9.853   3.438   8.386  1.4266  0.7098 -0.0599
  996MOL0     H37443   9.882   3.614   8.415 -0.4452 -0.9519  1.1680
  996MOL0     H37444  10.240   3.520   8.230  0.7773 -0.6640  0.5482
  996MOL0     H37445   9.458   3.550   8.512 -0.0555 -2.6883  2.4157
  996MOL0     H37446   9.221   3.704   8.647  2.1450  0.8942 -3.4841
  996MOL0     H37447   9.188   3.548   8.728  0.2158  1.4000  1.3005
  996MOL0     H37448   9.353   3.600   8.695  0.5181  1.3146 -1.6204
  997MOL0     O37449   6.340   1.699   1.084  0.4889 -0.5486 -0.5348
  997MOL0     C37450   6.305   1.800   1.134  0.2644 -0.0731  0.0163
  997MOL0     O37451   6.298   1.820   1.267 -0.0302  0.9875  0.0508
  997MOL0     C37452   6.324   1.733   1.363  0.0327 -0.2864  0.0258
  997MOL0     C37453   6.295   1.593   1.364  0.4171  1.4528  0.0832
  997MOL0     C37454   6.315   1.517   1.483 -0.6691  0.1955 -0.9736
  997MOL0     C37455   6.352   1.573   1.602  0.0472 -0.0129 -0.0209
  997MOL0     O37456   6.367   1.508   1.725  0.1928 -0.8043  0.0047
  997MOL0     C37457   6.432   1.382   1.725 -1.4187  1.2594  0.5963
  997MOL0     C37458   6.446   1.324   1.863  0.2522  0.6914 -0.0720
  997MOL0     C37459   6.316   1.248   1.907  0.0962 -0.3933 -0.2934
  997MOL0     C37460   6.309   1.245   2.064 -0.1422 -0.5736 -0.1184
  997MOL0     C37461   6.176   1.169   2.113  0.6294 -0.7270  0.2075
  997MOL0     C37462   6.176   1.154   2.268  0.4124 -0.5918 -0.0340
  997MOL0     C37463   6.046   1.072   2.324 -0.4547  0.4309 -0.3235
  997MOL0     C37464   6.058   0.921   2.286  0.2159 -0.2063 -0.2166
  997MOL0     N37465   6.006   0.892   2.146 -0.4294 -0.6247 -0.1386
  997MOL0     C37466   5.885   0.928   2.079 -0.7880  0.4435  0.6373
  997MOL0     C37467   5.891   0.864   1.960  0.4332  0.0427  0.6177
  997MOL0     C37468   5.802   0.888   1.839 -0.4823  0.7759 -0.9447
  997MOL0     C37469   5.801   1.041   1.808  0.3036  0.4402  0.2602
  997MOL0     C37470   5.883   1.063   1.679  0.4225 -0.3905  0.3776
  997MOL0     C37471   5.845   1.203   1.623 -0.7010 -0.2931  0.1193
  997MOL0     O37472   5.901   1.295   1.716 -0.4223 -0.0177  0.4930
  997MOL0     C37473   5.895   1.425   1.689  0.3411 -0.2388 -0.4740
  997MOL0     C37474   5.786   1.483   1.636  0.5126 -0.0541  0.8791
  997MOL0     C37475   5.789   1.615   1.576  0.1292 -0.5890  0.2643
  997MOL0     C37476   5.667   1.661   1.506  0.3051  0.0594  0.7219
  997MOL0     C37477   5.914   1.686   1.589 -0.0892  0.6349  0.1089
  997MOL0     C37478   5.938   1.825   1.551  0.1346 -1.2186 -0.8744
  997MOL0     O37479   6.064   1.879   1.546  0.2259 -0.1074  0.4148
  997MOL0     C37480   6.075   2.014   1.579 -0.3916  0.2921  0.1047
  997MOL0     C37481   6.140   2.051   1.698 -0.6916  0.1594  0.3438
  997MOL0     C37482   6.165   2.182   1.731  0.8914 -0.1281 -0.2771
  997MOL0     C37483   6.133   2.286   1.637  0.1783 -0.2315 -0.1508
  997MOL0     O37484   6.160   2.417   1.667  0.3758  0.5268  0.1433
  997MOL0     C37485   6.292   2.451   1.718 -0.4891 -0.3065 -0.3550
  997MOL0     C37486   6.274   2.571   1.813 -0.1548 -0.0756 -0.2531
  997MOL0     C37487   6.412   2.587   1.871  0.6292 -1.0136  0.5501
  997MOL0     C37488   6.452   2.729   1.920  0.2857 -0.0557  1.0159
  997MOL0     C37489   6.593   2.745   1.963  0.5614 -0.6131 -1.0312
  997MOL0     C37490   6.622   2.863   2.070  0.6113  0.4290  0.2912
  997MOL0     C37491   6.768   2.888   2.097  0.2670 -0.0782 -0.4671
  997MOL0     C37492   6.837   2.771   2.182  1.0273 -0.2242  0.0678
  997MOL0    Cl37493   6.821   2.792   2.368 -0.1040  0.0195  0.3138
  997MOL0     C37494   6.065   2.249   1.514 -0.2213  0.1035 -0.1064
  997MOL0     C37495   6.046   2.115   1.484  0.7033  0.8627 -0.3430
  997MOL0     O37496   5.835   1.889   1.528 -0.1227  0.2681 -0.2917
  997MOL0     C37497   6.019   1.626   1.661  0.3154 -0.4173 -0.6003
  997MOL0     C37498   6.012   1.499   1.706  0.2699  0.7479 -0.2606
  997MOL0     N37499   6.011   0.814   1.952 -0.4109 -0.0571  0.0614
  997MOL0     N37500   6.083   0.827   2.059 -0.0463 -0.9878  0.0102
  997MOL0     C37501   6.384   1.713   1.588 -0.2034 -0.2171 -0.4900
  997MOL0     C37502   6.359   1.787   1.479 -0.4196 -1.1970 -0.3050
  997MOL0     C37503   6.249   1.915   1.056  0.1165  0.5416  0.7080
  997MOL0     C37504   6.210   2.044   1.113 -1.0391 -0.2252  0.0251
  997MOL0     C37505   6.169   2.152   1.033  0.3060  0.3871 -0.5413
  997MOL0     C37506   6.152   2.138   0.895  0.1213  0.7596 -0.5749
  997MOL0     O37507   6.112   2.250   0.828  0.6759 -0.2867 -0.8168
  997MOL0     C37508   6.204   2.293   0.729 -0.6175 -0.5038  1.0337
  997MOL0     C37509   6.163   2.435   0.680  0.1436  0.6760 -0.3023
  997MOL0     C37510   6.152   2.552   0.788 -0.8071  0.9155  0.9988
  997MOL0     C37511   6.116   2.689   0.729  0.0302 -0.4666  0.3679
  997MOL0     C37512   5.975   2.703   0.707 -0.3783 -1.1801 -0.5715
  997MOL0     C37513   5.858   2.716   0.682 -0.0401  0.1861 -0.1649
  997MOL0     C37514   6.181   2.017   0.838  0.2330  0.0418 -0.1223
  997MOL0     C37515   6.224   1.908   0.914  0.1179 -0.8117  0.8155
  997MOL0     C37516   6.248   1.786   0.830 -0.6644  0.7093 -0.4406
  997MOL0     H37517   6.240   1.549   1.281  4.4905 -1.4172 -1.3884
  997MOL0     H37518   6.279   1.414   1.484 -1.9132  0.6156  0.6547
  997MOL0     H37519   6.534   1.399   1.688 -0.9504 -0.8350  0.8034
  997MOL0     H37520   6.388   1.306   1.659 -2.9625  1.6908  1.0948
  997MOL0     H37521   6.526   1.249   1.873 -0.9403 -0.9413 -2.0331
  997MOL0     H37522   6.463   1.415   1.922  0.1390  1.8649 -1.7872
  997MOL0     H37523   6.224   1.299   1.879 -0.0030 -1.5892 -2.3210
  997MOL0     H37524   6.317   1.148   1.862 -0.0632  0.1858 -1.5923
  997MOL0     H37525   6.403   1.199   2.095  1.1584  2.3356  0.5706
  997MOL0     H37526   6.312   1.346   2.106  3.0613 -1.3470  1.8756
  997MOL0     H37527   6.180   1.072   2.064  1.5266 -1.6887  2.0795
  997MOL0     H37528   6.098   1.232   2.069  4.2233  3.7197 -0.5652
  997MOL0     H37529   6.270   1.114   2.306  0.4158 -0.6737 -0.1256
  997MOL0     H37530   6.173   1.250   2.319 -0.7713 -2.3626  3.5873
  997MOL0     H37531   5.958   1.120   2.279 -0.2852 -0.9595 -2.2422
  997MOL0     H37532   6.033   1.098   2.430 -0.7036  5.2170 -1.3240
  997MOL0     H37533   6.162   0.888   2.290 -0.1683 -1.4314  0.3709
  997MOL0     H37534   5.993   0.867   2.356  1.2640 -1.3916 -0.1288
  997MOL0     H37535   5.797   0.985   2.110 -2.3826 -1.5391 -0.0424
  997MOL0     H37536   5.704   0.844   1.857 -0.3848 -0.0595 -2.3181
  997MOL0     H37537   5.833   0.830   1.752 -0.1554 -0.6777  0.1061
  997MOL0     H37538   5.698   1.071   1.786  1.4671  3.5225 -1.5587
  997MOL0     H37539   5.840   1.099   1.892 -1.6223  2.2618 -0.0293
  997MOL0     H37540   5.989   1.058   1.707  0.4409  1.2114  0.7026
  997MOL0     H37541   5.856   0.978   1.617  1.3873  0.2166 -0.9383
  997MOL0     H37542   5.901   1.221   1.530 -1.7590  1.0149 -0.2854
  997MOL0     H37543   5.738   1.220   1.610 -0.5353  0.8653  0.1898
  997MOL0     H37544   5.696   1.425   1.619  1.6891 -1.8182  0.3623
  997MOL0     H37545   5.690   1.680   1.401 -1.8671 -3.9597 -0.7199
  997MOL0     H37546   5.626   1.740   1.569  0.7760 -0.0893  1.2272
  997MOL0     H37547   5.588   1.585   1.511  0.5123 -0.0952  2.5780
  997MOL0     H37548   6.178   1.973   1.763  0.2065 -0.9977 -1.5005
  997MOL0     H37549   6.207   2.220   1.824 -3.3043  0.1597  1.7012
  997MOL0     H37550   6.337   2.379   1.787  1.9440  0.8742 -0.6337
  997MOL0     H37551   6.365   2.477   1.642  1.7753  2.9294  2.6075
  997MOL0     H37552   6.240   2.658   1.756 -1.3707  0.8789  1.8256
  997MOL0     H37553   6.218   2.553   1.905  0.3811  4.3207  1.1755
  997MOL0     H37554   6.498   2.545   1.816  1.1452  0.2043  0.3843
  997MOL0     H37555   6.421   2.522   1.958  2.3074 -1.6094 -0.0151
  997MOL0     H37556   6.383   2.775   1.991 -0.5623  0.2344  0.0284
  997MOL0     H37557   6.442   2.784   1.826 -0.6754  1.7617  2.1345
  997MOL0     H37558   6.629   2.647   1.998  0.3647 -0.4556 -0.3768
  997MOL0     H37559   6.656   2.763   1.876  2.8666 -2.0972  0.2147
  997MOL0     H37560   6.581   2.845   2.170  2.3614 -0.6160  0.8738
  997MOL0     H37561   6.579   2.958   2.037 -1.6122  0.0423  1.8276
  997MOL0     H37562   6.772   2.982   2.152  2.0386 -0.8511  0.8089
  997MOL0     H37563   6.826   2.901   2.005  0.2442  0.0624 -0.4628
  997MOL0     H37564   6.944   2.784   2.164  1.2408 -0.8547  0.8144
  997MOL0     H37565   6.800   2.675   2.144  0.6800  0.0385 -0.2634
  997MOL0     H37566   6.036   2.319   1.437  0.6963  1.4533  0.7267
  997MOL0     H37567   6.003   2.091   1.387  0.6192  3.8727 -1.1525
  997MOL0     H37568   6.111   1.680   1.680  0.2519 -0.3904 -0.3696
  997MOL0     H37569   6.097   1.449   1.750 -0.8437 -0.1595  0.9314
  997MOL0     H37570   6.420   1.761   1.679  1.2608 -2.5840  0.2925
  997MOL0     H37571   6.376   1.893   1.498 -2.9319 -0.8583  0.4764
  997MOL0     H37572   6.203   2.046   1.221 -2.1417 -1.0587 -0.0133
  997MOL0     H37573   6.125   2.244   1.071  2.2458  1.4589 -0.7559
  997MOL0     H37574   6.302   2.289   0.776 -1.3099 -0.3181  2.5414
  997MOL0     H37575   6.210   2.219   0.648 -0.6411 -1.4264  1.8672
  997MOL0     H37576   6.061   2.435   0.639 -1.2566 -0.3522  2.8656
  997MOL0     H37577   6.235   2.461   0.602  1.2292  0.6821  0.6716
  997MOL0     H37578   6.076   2.519   0.860  0.3796 -0.6609  1.6002
  997MOL0     H37579   6.248   2.552   0.841 -0.8946  1.1522  1.1587
  997MOL0     H37580   6.160   2.703   0.630 -0.7944 -0.9160 -0.0663
  997MOL0     H37581   6.164   2.765   0.792  0.1934 -0.0741 -0.2194
  997MOL0     H37582   5.766   2.754   0.642  1.3415  0.3503 -3.5471
  997MOL0     H37583   6.164   2.010   0.731 -0.1193  0.8473 -0.1251
  997MOL0     H37584   6.169   1.715   0.854 -0.6806 -0.3532 -3.2478
  997MOL0     H37585   6.261   1.808   0.723  2.2954  4.0350  0.3942
  997MOL0     H37586   6.343   1.740   0.858 -0.7133 -0.6790 -2.3848
  998MOL0     O37587   2.012   7.237   3.660 -1.0066  0.0724  0.3591
  998MOL0     C37588   1.940   7.330   3.636  0.1488  1.3597 -0.3075
  998MOL0     O37589   1.843   7.385   3.722 -0.5695 -0.2575 -0.7445
  998MOL0     C37590   1.836   7.326   3.843  0.9458 -0.2962 -0.7304
  998MOL0     C37591   1.944   7.324   3.935  0.0143  0.5067  0.2866
  998MOL0     C37592   1.931   7.255   4.056 -0.2665 -0.2141  0.1944
  998MOL0     C37593   1.812   7.187   4.088 -0.0347  0.4536 -0.5440
  998MOL0     O37594   1.795   7.101   4.204  0.9836  0.2902 -0.0971
  998MOL0     C37595   1.822   6.969   4.166 -0.0331  0.7790  0.0551
  998MOL0     C37596   1.844   6.886   4.289  1.2860  0.0643 -0.7601
  998MOL0     C37597   1.706   6.882   4.377 -0.4804  0.0252  0.3141
  998MOL0     C37598   1.711   6.794   4.513 -0.1250 -0.6177  0.1544
  998MOL0     C37599   1.581   6.799   4.590 -0.5024 -0.1758  0.0158
  998MOL0     C37600   1.478   6.715   4.512 -1.0324 -0.8238 -0.0825
  998MOL0     C37601   1.342   6.703   4.578  0.0593 -0.6360 -1.1326
  998MOL0     C37602   1.344   6.662   4.732 -0.2423  0.3320  0.1229
  998MOL0     N37603   1.207   6.642   4.785 -0.3068 -0.3708 -0.1219
  998MOL0     C37604   1.163   6.523   4.837  0.0498 -1.2179  0.2989
  998MOL0     C37605   1.059   6.555   4.912 -0.7406  0.6770 -1.0225
  998MOL0     C37606   0.987   6.447   4.988 -0.1635 -0.0765  0.3453
  998MOL0     C37607   0.923   6.338   4.896  1.0477 -0.2737 -0.1402
  998MOL0     C37608   0.817   6.256   4.981 -0.8276  0.3586  0.7749
  998MOL0     C37609   0.782   6.120   4.912  0.3533 -0.5786  0.0259
  998MOL0     O37610   0.879   6.017   4.946  0.0434 -0.9366 -0.0624
  998MOL0     C37611   0.874   5.898   4.882 -0.6650 -0.0806  0.2804
  998MOL0     C37612   0.775   5.855   4.789  0.0518 -1.0627  0.1100
  998MOL0     C37613   0.758   5.725   4.751  0.9902  0.8679  0.0580
  998MOL0     C37614   0.642   5.701   4.656  0.1980  0.6265 -0.2142
  998MOL0     C37615   0.848   5.626   4.802 -0.2024 -0.6816 -0.0257
  998MOL0     C37616   0.837   5.481   4.778  0.1867 -0.6744  0.6535
  998MOL0     O37617   0.929   5.397   4.849  0.4707 -0.0474  0.5889
  998MOL0     C37618   0.949   5.260   4.828  0.0331 -0.2146  0.6862
  998MOL0     C37619   1.041   5.194   4.917 -0.0242  0.4805 -0.0712
  998MOL0     C37620   1.074   5.067   4.892 -0.2133 -0.6721  0.3107
  998MOL0     C37621   1.019   4.989   4.790 -0.4428  1.2598  0.5483
  998MOL0     O37622   1.051   4.853   4.772  0.2346 -0.6185 -0.0731
  998MOL0     C37623   0.994   4.792   4.652 -0.5833 -0.3481 -0.4923
  998MOL0     C37624   1.050   4.652   4.634 -0.2071  0.6218  0.8005
  998MOL0     C37625   1.023   4.553   4.756  0.0535 -0.6918  1.1820
  998MOL0     C37626   1.033   4.409   4.696  1.2503 -0.3787 -0.5972
  998MOL0     C37627   1.181   4.365   4.647  1.2450  0.2716 -0.0553
  998MOL0     C37628   1.197   4.214   4.628  0.8470  0.0821 -0.1498
  998MOL0     C37629   1.138   4.170   4.487  0.2104  0.4344 -0.7716
  998MOL0     C37630   1.046   4.046   4.515  0.4823  1.0947 -0.1265
  998MOL0    Cl37631   1.152   3.900   4.555  0.2500  0.3730 -0.4411
  998MOL0     C37632   0.937   5.063   4.704 -0.1335  0.0875 -0.8244
  998MOL0     C37633   0.896   5.192   4.723 -0.6267  0.0858  1.2540
  998MOL0     O37634   0.755   5.443   4.697 -0.3169  0.1415 -0.2989
  998MOL0     C37635   0.961   5.675   4.875  0.3240 -0.0177 -0.9094
  998MOL0     C37636   0.970   5.807   4.913  0.3210  0.2092  0.1378
  998MOL0     N37637   1.029   6.691   4.900 -0.4777  0.4325 -0.6034
  998MOL0     N37638   1.114   6.737   4.815 -0.5882  0.2118  0.7661
  998MOL0     C37639   1.703   7.194   4.013  1.2946 -0.0701  0.5004
  998MOL0     C37640   1.717   7.252   3.880 -0.2932 -0.3003  0.4942
  998MOL0     C37641   1.945   7.414   3.517 -0.0975 -0.3686  0.3129
  998MOL0     C37642   1.890   7.549   3.513  0.4622  1.0291 -0.7513
  998MOL0     C37643   1.904   7.644   3.405 -0.5399  0.5371  0.0903
  998MOL0     C37644   1.993   7.610   3.301  0.9942 -0.2346  0.1033
  998MOL0     O37645   2.032   7.695   3.204 -0.1074  0.3650 -0.1406
  998MOL0     C37646   1.995   7.828   3.198  0.5393  0.9516 -0.2718
  998MOL0     C37647   2.118   7.918   3.141 -0.4982  0.2046  0.8725
  998MOL0     C37648   2.251   7.904   3.227 -0.0350  0.5104 -0.3026
  998MOL0     C37649   2.336   7.789   3.166 -1.7747 -0.3752 -0.0596
  998MOL0     C37650   2.404   7.849   3.045  0.7274  0.6567 -0.4115
  998MOL0     C37651   2.481   7.890   2.956  1.1249 -0.3550  0.7117
  998MOL0     C37652   2.037   7.479   3.292 -0.6607 -0.4719  0.0225
  998MOL0     C37653   2.019   7.387   3.399 -0.1433  0.3515  0.4380
  998MOL0     C37654   2.088   7.248   3.377 -0.7319 -0.3314 -0.0944
  998MOL0     H37655   2.032   7.381   3.909 -2.0675  3.0483 -1.7822
  998MOL0     H37656   2.013   7.255   4.127 -1.0539  1.8737  1.1888
  998MOL0     H37657   1.912   6.977   4.105  1.8778  0.3589  2.6941
  998MOL0     H37658   1.751   6.924   4.095  1.3562  0.9398 -1.4981
  998MOL0     H37659   1.863   6.786   4.251 -1.3805 -0.9067  0.1732
  998MOL0     H37660   1.935   6.912   4.343  1.3147 -0.2361 -0.6619
  998MOL0     H37661   1.682   6.984   4.408  1.1563 -0.3043  2.9687
  998MOL0     H37662   1.625   6.850   4.311 -0.8844 -0.0579  0.8424
  998MOL0     H37663   1.752   6.696   4.490  1.0253  0.3050 -2.0566
  998MOL0     H37664   1.781   6.853   4.574 -0.2382 -0.7241  0.3889
  998MOL0     H37665   1.531   6.897   4.598  1.9011  1.0883  0.3469
  998MOL0     H37666   1.605   6.755   4.687  0.7636 -0.3215 -0.3497
  998MOL0     H37667   1.465   6.760   4.413  1.0476 -1.4720 -0.6947
  998MOL0     H37668   1.521   6.615   4.511 -1.6226 -1.0864  0.0776
  998MOL0     H37669   1.289   6.620   4.529 -0.7658 -3.1929  3.4949
  998MOL0     H37670   1.290   6.799   4.571 -1.2474 -0.5740  4.4817
  998MOL0     H37671   1.390   6.563   4.739 -0.5917  0.2269  1.0864
  998MOL0     H37672   1.400   6.740   4.784 -3.4568  3.4156 -0.6300
  998MOL0     H37673   1.211   6.429   4.811 -1.0817 -1.9312  0.7038
  998MOL0     H37674   0.906   6.490   5.047  1.1179  0.7995  1.5480
  998MOL0     H37675   1.047   6.379   5.049 -2.1395  0.1799  2.7221
  998MOL0     H37676   0.877   6.375   4.804  0.4869 -1.8002 -0.5090
  998MOL0     H37677   1.005   6.269   4.876 -0.2681 -2.1017  0.4723
  998MOL0     H37678   0.855   6.250   5.083  0.2358  1.0563  0.4374
  998MOL0     H37679   0.715   6.296   4.970 -2.3501 -3.8026 -3.4113
  998MOL0     H37680   0.687   6.104   4.964  0.0802 -0.1766 -0.3463
  998MOL0     H37681   0.762   6.139   4.807  2.7892  2.0443 -0.0863
  998MOL0     H37682   0.697   5.926   4.762  0.9264 -1.2677 -3.5174
  998MOL0     H37683   0.677   5.663   4.560 -2.8108  0.1208 -1.2171
  998MOL0     H37684   0.586   5.793   4.635 -2.4261 -0.9412 -0.5159
  998MOL0     H37685   0.571   5.630   4.698  2.0298 -0.1993  1.6363
  998MOL0     H37686   1.083   5.260   4.992  1.3582 -0.1871 -0.2260
  998MOL0     H37687   1.152   5.020   4.952  0.6656  0.3084 -0.0369
  998MOL0     H37688   0.885   4.787   4.664 -0.4914  1.4910  2.0413
  998MOL0     H37689   1.021   4.859   4.570 -0.6707 -1.3666 -1.3687
  998MOL0     H37690   1.005   4.606   4.546  2.6963 -2.7603  0.8643
  998MOL0     H37691   1.157   4.667   4.622  0.2585 -1.3831  2.0286
  998MOL0     H37692   0.925   4.577   4.799 -0.4369  3.1363 -1.5622
  998MOL0     H37693   1.107   4.572   4.825 -0.4790  0.5671  1.5060
  998MOL0     H37694   0.963   4.404   4.612  1.2062  1.7095 -0.7502
  998MOL0     H37695   0.996   4.335   4.767 -0.4764  2.2662  1.4638
  998MOL0     H37696   1.210   4.420   4.557 -4.7694  1.6991 -1.5828
  998MOL0     H37697   1.250   4.395   4.726  0.8144 -0.6181  0.6730
  998MOL0     H37698   1.144   4.171   4.714  0.8816  0.6367  0.1617
  998MOL0     H37699   1.303   4.187   4.627  1.6020  2.6879 -1.3206
  998MOL0     H37700   1.210   4.137   4.412 -0.7119 -3.3918 -0.1967
  998MOL0     H37701   1.077   4.251   4.445 -1.6999 -1.2177 -1.3652
  998MOL0     H37702   0.979   4.024   4.431 -0.9678  1.0542  1.0045
  998MOL0     H37703   0.972   4.069   4.592  0.9616 -2.8721  1.7888
  998MOL0     H37704   0.884   5.005   4.630 -0.2021 -1.9691  0.7370
  998MOL0     H37705   0.809   5.229   4.668 -1.9929 -3.3991  0.8350
  998MOL0     H37706   1.039   5.613   4.920  3.4091  3.4543 -1.0645
  998MOL0     H37707   1.049   5.816   4.987 -1.5744 -1.8299  2.6205
  998MOL0     H37708   1.608   7.152   4.046  0.5358  1.6424  0.6022
  998MOL0     H37709   1.632   7.265   3.814  0.9353 -1.4322 -1.3909
  998MOL0     H37710   1.830   7.598   3.589 -2.8618  1.2310 -3.2903
  998MOL0     H37711   1.853   7.739   3.393 -0.2808  0.3828 -3.4684
  998MOL0     H37712   1.905   7.828   3.137  2.1346 -0.4384 -2.7768
  998MOL0     H37713   1.979   7.864   3.301  0.5803  0.8362 -0.2251
  998MOL0     H37714   2.082   8.020   3.125  3.3599  1.5252 -0.3551
  998MOL0     H37715   2.144   7.885   3.040 -0.0804 -2.0183  1.6381
  998MOL0     H37716   2.295   8.004   3.227 -0.8021  1.0032  3.4657
  998MOL0     H37717   2.230   7.880   3.331  2.1261 -1.9247 -0.3354
  998MOL0     H37718   2.285   7.696   3.139  2.3735 -2.3657 -1.8722
  998MOL0     H37719   2.410   7.758   3.240 -0.4638 -0.8974 -1.5383
  998MOL0     H37720   2.518   7.921   2.860 -0.8566  1.8709  0.5752
  998MOL0     H37721   2.105   7.458   3.210 -0.5620 -4.9031  0.9844
  998MOL0     H37722   2.190   7.241   3.414 -0.1577 -0.8180 -1.6914
  998MOL0     H37723   2.035   7.161   3.417  0.0137 -1.5700 -1.6600
  998MOL0     H37724   2.096   7.221   3.271  0.2003  0.2970 -0.1911
  999MOL0     O37725  10.659   3.502   2.591 -0.0673  0.2215  0.1783
  999MOL0     C37726  10.756   3.577   2.562  0.1286 -0.6930  0.8778
  999MOL0     O37727  10.865   3.550   2.493  0.8829  0.3429 -0.2748
  999MOL0     C37728  10.915   3.421   2.491 -0.5294 -0.3062 -0.0973
  999MOL0     C37729  10.893   3.318   2.582  1.3082 -0.9260  0.0097
  999MOL0     C37730  10.933   3.189   2.561 -0.2920 -1.4020 -0.4381
  999MOL0     C37731  11.012   3.163   2.447 -0.6423 -0.1226 -0.1835
  999MOL0     O37732  11.047   3.032   2.427 -0.3823 -0.9000 -0.4305
  999MOL0     C37733  11.161   2.999   2.505 -0.3536  1.0778  0.0631
  999MOL0     C37734  11.180   2.844   2.506 -0.3480 -0.0958  1.1809
  999MOL0     C37735  11.238   2.798   2.376 -0.1319 -0.1232 -0.0435
  999MOL0     C37736  11.204   2.656   2.356 -0.9494  0.3896 -0.1892
  999MOL0     C37737  11.247   2.596   2.219 -0.7528 -1.0602 -0.8421
  999MOL0     C37738  11.182   2.665   2.097  0.3005  0.4665 -0.8630
  999MOL0     C37739  11.187   2.585   1.974  0.5229 -0.3579 -0.7579
  999MOL0     C37740  11.315   2.632   1.904  0.6244  0.5102  0.6236
  999MOL0     N37741  11.305   2.571   1.766 -0.4340  0.3656 -0.7907
  999MOL0     C37742  11.332   2.440   1.726  0.7368 -0.4487  0.5341
  999MOL0     C37743  11.313   2.436   1.594 -0.7726 -0.5232  1.1950
  999MOL0     C37744  11.320   2.319   1.507 -0.0179 -0.5050 -0.7950
  999MOL0     C37745  11.198   2.301   1.421  0.4425  0.4020  0.1758
  999MOL0     C37746  11.205   2.170   1.344 -0.1974  0.3343  0.2214
  999MOL0     C37747  11.061   2.138   1.288 -0.1914  0.0477 -0.3908
  999MOL0     O37748  11.060   2.206   1.164  0.1452 -0.5225 -0.8367
  999MOL0     C37749  10.936   2.200   1.107  0.4194 -0.5489 -0.4409
  999MOL0     C37750  10.928   2.130   0.988  0.6606 -0.4845 -0.2477
  999MOL0     C37751  10.802   2.127   0.921  0.7497  0.6917  0.4513
  999MOL0     C37752  10.800   2.026   0.811  0.9732 -0.1916  0.7114
  999MOL0     C37753  10.691   2.193   0.978  0.9523 -0.9238 -0.1616
  999MOL0     C37754  10.556   2.199   0.926  0.2725 -0.0898 -0.2373
  999MOL0     O37755  10.455   2.245   1.000  1.0737 -0.1458  0.0606
  999MOL0     C37756  10.323   2.218   0.951  0.2873 -0.1972  0.0095
  999MOL0     C37757  10.264   2.279   0.847  0.9420 -0.5084 -0.6515
  999MOL0     C37758  10.130   2.266   0.813  0.1733 -0.4083 -0.0075
  999MOL0     C37759  10.049   2.169   0.881 -0.0217 -0.4976  0.3254
  999MOL0     O37760   9.919   2.141   0.840 -0.0352 -0.0340 -0.3776
  999MOL0     C37761   9.812   2.211   0.910 -0.1677  0.0634  0.1613
  999MOL0     C37762   9.755   2.131   1.031  0.2445 -0.1090  1.4427
  999MOL0     C37763   9.710   1.985   0.991  1.0704  0.4171 -0.0249
  999MOL0     C37764   9.620   1.985   0.875  0.2712  0.0047 -0.1514
  999MOL0     C37765   9.591   1.834   0.848 -0.5896 -0.0019  0.8811
  999MOL0     C37766   9.508   1.768   0.956 -1.0140  0.1795 -0.1127
  999MOL0     C37767   9.381   1.705   0.901  0.5727 -0.7062 -0.8950
  999MOL0     C37768   9.271   1.814   0.872  0.1491  0.3762  0.5779
  999MOL0    Cl37769   9.156   1.747   0.757 -0.5695  0.1252 -0.1767
  999MOL0     C37770  10.112   2.094   0.986 -0.6310  1.0954  0.8298
  999MOL0     C37771  10.251   2.120   1.022  0.9130  0.2677 -0.9265
  999MOL0     O37772  10.545   2.164   0.809 -0.8697  0.1811 -1.1260
  999MOL0     C37773  10.703   2.266   1.099 -0.9922  0.1970  0.6205
  999MOL0     C37774  10.829   2.265   1.163  0.5870 -0.6052 -0.1904
  999MOL0     N37775  11.308   2.567   1.551  0.7432 -0.2792 -1.3237
  999MOL0     N37776  11.301   2.639   1.655  0.7742 -0.1382  0.6101
  999MOL0     C37777  11.038   3.268   2.356  0.0536  1.5917 -0.5205
  999MOL0     C37778  11.004   3.397   2.380 -0.0107 -1.0636 -0.0838
  999MOL0     C37779  10.728   3.720   2.593 -0.1629  0.2899  0.7608
  999MOL0     C37780  10.631   3.783   2.518 -0.2619 -0.7979 -0.0903
  999MOL0     C37781  10.603   3.913   2.533 -0.4353 -0.8602  0.3441
  999MOL0     C37782  10.680   3.988   2.625  0.3996 -0.2168  0.5614
  999MOL0     O37783  10.676   4.126   2.646 -0.3181 -0.3710  0.4539
  999MOL0     C37784  10.693   4.200   2.519 -0.0921 -0.4337 -0.1028
  999MOL0     C37785  10.837   4.192   2.464 -0.6598 -0.3982 -0.0860
  999MOL0     C37786  10.954   4.241   2.565  0.5075  0.1471  0.6513
  999MOL0     C37787  10.994   4.389   2.560 -0.5329 -0.1420 -0.2548
  999MOL0     C37788  11.091   4.413   2.660 -0.0481 -0.2117 -0.5038
  999MOL0     C37789  11.152   4.447   2.766  0.3093 -0.7450  0.4606
  999MOL0     C37790  10.766   3.925   2.714  0.6854 -0.0273 -0.0026
  999MOL0     C37791  10.791   3.781   2.698  0.5447 -0.7807  0.1841
  999MOL0     C37792  10.887   3.721   2.799 -0.9811  0.2745  0.2130
  999MOL0     H37793  10.845   3.361   2.669 -1.1582  0.7882 -2.0393
  999MOL0     H37794  10.901   3.121   2.639 -0.3917  0.2833  1.0516
  999MOL0     H37795  11.157   3.032   2.610 -0.1108 -0.9693  0.7510
  999MOL0     H37796  11.248   3.056   2.471  2.2666 -1.3886  2.1893
  999MOL0     H37797  11.251   2.829   2.588 -1.2756  1.2255  2.2617
  999MOL0     H37798  11.094   2.781   2.529 -1.2855 -0.5248 -2.8003
  999MOL0     H37799  11.195   2.866   2.301 -2.0969  1.3472  2.2349
  999MOL0     H37800  11.347   2.800   2.384 -0.1497 -0.6647  0.3774
  999MOL0     H37801  11.255   2.598   2.434  0.1359  0.9935 -0.4336
  999MOL0     H37802  11.098   2.633   2.370 -1.2929  2.8029  1.6700
  999MOL0     H37803  11.235   2.487   2.216  1.8254 -1.4333 -0.0047
  999MOL0     H37804  11.353   2.616   2.200 -0.4818  0.8087  1.9490
  999MOL0     H37805  11.078   2.684   2.128  0.1582 -1.1083 -0.3243
  999MOL0     H37806  11.231   2.762   2.081 -0.7998  1.1883 -0.0373
  999MOL0     H37807  11.100   2.599   1.908  2.1322  0.4602 -2.8374
  999MOL0     H37808  11.194   2.477   1.989  2.1284 -0.9634 -4.6703
  999MOL0     H37809  11.335   2.739   1.896 -1.0581  0.7668 -0.9921
  999MOL0     H37810  11.399   2.585   1.955  2.9288  3.9555  0.2586
  999MOL0     H37811  11.364   2.358   1.790 -0.8834 -1.6097 -0.0669
  999MOL0     H37812  11.336   2.231   1.569  3.1388 -0.8719 -1.9391
  999MOL0     H37813  11.412   2.330   1.450  1.4120  0.1846  1.4927
  999MOL0     H37814  11.104   2.308   1.476  0.7179  0.2169  0.6728
  999MOL0     H37815  11.189   2.382   1.348 -1.2103 -0.3937 -0.5508
  999MOL0     H37816  11.272   2.187   1.259 -1.3932  2.4477 -0.3733
  999MOL0     H37817  11.251   2.091   1.404 -0.6316 -0.9324 -1.0690
  999MOL0     H37818  11.051   2.031   1.265  0.8712 -0.1124 -0.1827
  999MOL0     H37819  10.983   2.176   1.354  1.4172  3.6751 -0.3712
  999MOL0     H37820  11.017   2.084   0.947  0.0770  0.0635 -2.2334
  999MOL0     H37821  10.727   1.946   0.822  0.6346  0.1980  1.3910
  999MOL0     H37822  10.893   1.971   0.797  1.4290  0.6043  0.5264
  999MOL0     H37823  10.781   2.083   0.720  3.7069  0.3501  0.3761
  999MOL0     H37824  10.317   2.357   0.792  1.2556  0.5565  1.0838
  999MOL0     H37825  10.094   2.333   0.736  0.6371 -0.9927 -0.7465
  999MOL0     H37826   9.847   2.304   0.954  1.1579 -0.9093  1.2293
  999MOL0     H37827   9.738   2.249   0.839  1.5003  1.7242 -0.7690
  999MOL0     H37828   9.834   2.121   1.106  3.8949  0.9248 -1.9293
  999MOL0     H37829   9.659   2.177   1.057 -1.4112 -1.3653 -1.9205
  999MOL0     H37830   9.659   1.947   1.080 -1.8821  2.8433 -0.5502
  999MOL0     H37831   9.800   1.924   0.979 -0.0862 -1.3462 -0.0690
  999MOL0     H37832   9.682   2.011   0.789  3.1598 -4.5559  0.1926
  999MOL0     H37833   9.534   2.052   0.885  0.9489  0.5565  3.0763
  999MOL0     H37834   9.547   1.821   0.749 -2.9421  2.3232  1.5123
  999MOL0     H37835   9.688   1.785   0.836  0.0284  1.1501  1.0487
  999MOL0     H37836   9.487   1.838   1.037  1.0302 -1.5465  2.0432
  999MOL0     H37837   9.580   1.697   0.998  0.8122  2.0250  0.0450
  999MOL0     H37838   9.338   1.638   0.976 -0.3479  0.1432 -0.6498
  999MOL0     H37839   9.396   1.649   0.808  3.0796  2.7483 -2.8043
  999MOL0     H37840   9.325   1.897   0.824  0.7375  0.3749  1.2202
  999MOL0     H37841   9.225   1.845   0.966  0.4726 -0.6200  1.0807
  999MOL0     H37842  10.047   2.023   1.036 -0.6398  0.5144  0.0059
  999MOL0     H37843  10.301   2.058   1.096 -0.1771  0.0726 -0.3403
  999MOL0     H37844  10.626   2.324   1.150 -0.3213  0.4149  1.3954
  999MOL0     H37845  10.834   2.308   1.263 -1.3082 -0.9824  0.1007
  999MOL0     H37846  11.091   3.252   2.262 -1.3115  0.3015 -1.0956
  999MOL0     H37847  11.037   3.474   2.311  2.2682 -1.5065  0.4619
  999MOL0     H37848  10.579   3.721   2.446  0.7187 -2.3503  0.4824
  999MOL0     H37849  10.530   3.953   2.464 -0.2018 -1.2102 -0.1124
  999MOL0     H37850  10.621   4.159   2.448 -0.4427 -0.7086  0.4121
  999MOL0     H37851  10.671   4.305   2.540 -1.7176 -1.3292  3.1525
  999MOL0     H37852  10.854   4.259   2.379 -1.3502  0.1019  0.1673
  999MOL0     H37853  10.860   4.087   2.443  1.3553 -0.6723  2.7956
  999MOL0     H37854  10.918   4.213   2.664 -2.8032  1.8621  0.0783
  999MOL0     H37855  11.045   4.181   2.553  0.9489  1.1595 -1.8050
  999MOL0     H37856  10.914   4.459   2.587  3.6649  4.3620  1.9265
  999MOL0     H37857  11.030   4.416   2.461  1.1805 -1.0159  0.1033
  999MOL0     H37858  11.196   4.458   2.864 -0.0592 -2.2205  0.8241
  999MOL0     H37859  10.805   3.987   2.795 -2.0844  2.1801 -0.1911
  999MOL0     H37860  10.914   3.619   2.769  0.7661  1.0882 -1.2609
  999MOL0     H37861  10.973   3.785   2.821 -0.2339 -0.4145 -0.5885
  999MOL0     H37862  10.836   3.710   2.894 -1.6898  1.4984 -0.0100
 1000MOL0     O37863   4.095   9.047  10.802 -0.0065  0.4896  0.4691
 1000MOL0     C37864   4.097   9.156  10.743  0.0133 -0.7772  0.8828
 1000MOL0     O37865   4.024   9.266  10.777 -0.1204 -0.6686  0.2382
 1000MOL0     C37866   3.990   9.277  10.909 -0.0092  0.2546  1.0206
 1000MOL0     C37867   3.852   9.284  10.936  0.4608 -0.0936 -0.0412
 1000MOL0     C37868   3.808   9.315  11.063  0.8060  1.3152 -0.1773
 1000MOL0     C37869   3.893   9.300  11.170 -0.1176  0.0538 -0.2289
 1000MOL0     O37870   3.851   9.312  11.302 -0.0106  0.0478 -0.2538
 1000MOL0     C37871   3.769   9.439  11.319 -0.4731 -0.2289 -0.8366
 1000MOL0     C37872   3.733   9.454  11.467  0.3641  0.1489  0.8653
 1000MOL0     C37873   3.665   9.328  11.526 -0.5912  0.7261 -0.1805
 1000MOL0     C37874   3.542   9.289  11.447  0.1494 -0.5196  0.4910
 1000MOL0     C37875   3.478   9.161  11.493  0.2528  0.8246  0.3187
 1000MOL0     C37876   3.413   9.166  11.636 -0.3542 -0.0630 -0.4606
 1000MOL0     C37877   3.362   9.033  11.671  0.9193  1.2558 -0.0601
 1000MOL0     C37878   3.231   8.990  11.602 -0.4675 -0.3504 -0.5220
 1000MOL0     N37879   3.133   9.101  11.601  0.2596 -0.1828 -0.5119
 1000MOL0     C37880   3.051   9.115  11.712  0.8448  0.8722  0.4655
 1000MOL0     C37881   2.938   9.178  11.658 -0.2764 -0.7739 -0.5713
 1000MOL0     C37882   2.811   9.204  11.738  0.2116  0.6338  0.7448
 1000MOL0     C37883   2.782   9.357  11.759  0.2617 -1.0008 -1.0267
 1000MOL0     C37884   2.738   9.427  11.634  0.2393 -0.1993  0.8781
 1000MOL0     C37885   2.621   9.370  11.550  0.2460  0.6367  0.4850
 1000MOL0     O37886   2.502   9.374  11.623  0.6213 -0.2459  0.9102
 1000MOL0     C37887   2.386   9.361  11.549  1.0177  0.0367  0.1930
 1000MOL0     C37888   2.369   9.358  11.410  0.1294 -0.4777 -0.3824
 1000MOL0     C37889   2.248   9.350  11.331  0.0530 -0.5921  1.0525
 1000MOL0     C37890   2.268   9.366  11.179 -0.8288 -0.1950 -0.2239
 1000MOL0     C37891   2.134   9.321  11.404 -0.2192  0.0923 -0.1980
 1000MOL0     C37892   2.005   9.291  11.344  0.1851 -0.0622  0.2344
 1000MOL0     O37893   1.896   9.307  11.426 -0.3263 -0.1446  0.3262
 1000MOL0     C37894   1.778   9.254  11.387 -0.4440  0.8948  0.5003
 1000MOL0     C37895   1.751   9.128  11.325 -0.4078 -0.2156  0.6287
 1000MOL0     C37896   1.621   9.078  11.309  0.2664 -0.0706 -0.8191
 1000MOL0     C37897   1.515   9.166  11.353 -0.3035  1.0955  0.6402
 1000MOL0     O37898   1.380   9.120  11.352 -0.7737  0.3792  0.3011
 1000MOL0     C37899   1.298   9.223  11.308 -0.0310 -0.2434 -0.3760
 1000MOL0     C37900   1.166   9.178  11.262  0.4870  0.2062 -0.1948
 1000MOL0     C37901   1.155   9.072  11.154 -0.0830 -0.3608 -0.1528
 1000MOL0     C37902   1.012   9.054  11.110  0.6078 -0.0724 -0.1824
 1000MOL0     C37903   0.923   8.994  11.217 -0.7004 -0.3200  0.0670
 1000MOL0     C37904   0.789   8.959  11.153 -0.6297 -0.5476 -0.8801
 1000MOL0     C37905   0.683   8.903  11.248 -0.4597 -0.1388 -0.5300
 1000MOL0     C37906   0.551   8.859  11.181 -0.2245 -0.4490 -0.4197
 1000MOL0    Cl37907   0.586   8.738  11.060  0.2226  0.1915 -0.4175
 1000MOL0     C37908   1.542   9.291  11.412  0.5684  0.3088 -0.0140
 1000MOL0     C37909   1.673   9.336  11.423  0.3929 -0.3702 -0.0398
 1000MOL0     O37910   2.006   9.282  11.220 -0.0533 -0.2682 -0.0120
 1000MOL0     C37911   2.142   9.330  11.548  0.4928  0.9596  0.3448
 1000MOL0     C37912   2.269   9.339  11.616  0.1075  0.0922 -0.4540
 1000MOL0     N37913   2.947   9.183  11.528 -0.7433 -0.8681 -0.4759
 1000MOL0     N37914   3.070   9.149  11.488  0.0328  0.0186  0.2579
 1000MOL0     C37915   4.026   9.281  11.148  0.9149  0.1506  0.2495
 1000MOL0     C37916   4.076   9.273  11.016  0.5798 -0.5720  0.0832
 1000MOL0     C37917   4.195   9.174  10.633  0.6402 -0.3408  1.1782
 1000MOL0     C37918   4.238   9.302  10.583 -0.2518  0.0086 -0.0792
 1000MOL0     C37919   4.337   9.325  10.485 -0.2867  0.2347  1.0621
 1000MOL0     C37920   4.384   9.213  10.412  0.4114 -0.3520 -0.3528
 1000MOL0     O37921   4.480   9.223  10.311  0.0722 -0.4328 -0.7025
 1000MOL0     C37922   4.475   9.332  10.223 -0.6787 -0.6767  0.1243
 1000MOL0     C37923   4.560   9.294  10.107 -1.0291 -0.0379  0.1398
 1000MOL0     C37924   4.470   9.181  10.043  0.2285  0.4735  1.1526
 1000MOL0     C37925   4.527   9.140   9.902 -0.7141 -0.1883 -1.5324
 1000MOL0     C37926   4.666   9.095   9.903 -0.4333 -0.2325  0.4099
 1000MOL0     C37927   4.779   9.049   9.906  0.6006  0.4389  0.1776
 1000MOL0     C37928   4.346   9.092  10.457  0.7553  0.3113 -0.1709
 1000MOL0     C37929   4.252   9.065  10.558  0.6964 -0.6385 -0.0612
 1000MOL0     C37930   4.225   8.920  10.566 -0.1354  0.0810  0.2946
 1000MOL0     H37931   3.782   9.289  10.854 -1.9182 -0.6474  1.8488
 1000MOL0     H37932   3.706   9.345  11.083  0.3374  0.4200 -1.1375
 1000MOL0     H37933   3.670   9.446  11.274 -0.6594 -0.3902 -0.4562
 1000MOL0     H37934   3.826   9.527  11.287 -1.0561  0.1598 -0.8148
 1000MOL0     H37935   3.825   9.481  11.520  0.3539  3.5794 -0.5717
 1000MOL0     H37936   3.673   9.546  11.474  0.7723  0.6840 -1.5598
 1000MOL0     H37937   3.730   9.240  11.530  0.7773  1.7064 -0.3716
 1000MOL0     H37938   3.642   9.362  11.627  2.5843  3.2374 -0.1743
 1000MOL0     H37939   3.461   9.362  11.438  0.0043 -0.8051 -0.7262
 1000MOL0     H37940   3.554   9.265  11.341 -2.5668 -0.0016 -0.0114
 1000MOL0     H37941   3.550   9.080  11.507  1.5335  1.5406 -1.6826
 1000MOL0     H37942   3.416   9.137  11.406  2.4437 -1.3413 -0.7665
 1000MOL0     H37943   3.488   9.184  11.714  0.7737  0.4787 -1.6322
 1000MOL0     H37944   3.332   9.240  11.633  0.2209  0.5772 -0.2794
 1000MOL0     H37945   3.346   9.028  11.779  0.6152  1.4225 -0.0966
 1000MOL0     H37946   3.428   8.949  11.649 -2.8373 -1.4726 -2.0388
 1000MOL0     H37947   3.268   8.976  11.500 -0.0658 -0.2619 -0.3885
 1000MOL0     H37948   3.192   8.902  11.654  1.1272  1.0814  3.4398
 1000MOL0     H37949   3.088   9.080  11.808  2.7568 -1.0334 -0.8799
 1000MOL0     H37950   2.818   9.163  11.840 -1.0839 -1.9609 -0.1305
 1000MOL0     H37951   2.719   9.154  11.705  0.6575 -1.5266  2.5015
 1000MOL0     H37952   2.698   9.363  11.829  0.2976  2.3292 -1.0892
 1000MOL0     H37953   2.868   9.404  11.809  1.5223 -3.1607 -1.0690
 1000MOL0     H37954   2.712   9.529  11.665 -3.6360 -0.1278 -1.8776
 1000MOL0     H37955   2.826   9.449  11.573  0.2655 -0.7638  0.7105
 1000MOL0     H37956   2.606   9.433  11.462  3.5857  0.4097 -0.4032
 1000MOL0     H37957   2.644   9.268  11.516 -0.4929  0.1275  1.4583
 1000MOL0     H37958   2.458   9.383  11.354 -1.7123  2.9061 -2.1518
 1000MOL0     H37959   2.282   9.270  11.128  2.2565 -1.0144  1.8351
 1000MOL0     H37960   2.361   9.421  11.160  0.1978 -2.4252 -2.1198
 1000MOL0     H37961   2.184   9.427  11.146  0.0675  0.5299 -1.2474
 1000MOL0     H37962   1.835   9.063  11.305 -0.8691 -0.8534  0.7346
 1000MOL0     H37963   1.611   8.978  11.268  2.6986 -1.1943  1.0127
 1000MOL0     H37964   1.271   9.290  11.390 -2.1841 -1.9007  0.3520
 1000MOL0     H37965   1.345   9.282  11.229 -1.3674 -0.8970 -1.7080
 1000MOL0     H37966   1.116   9.135  11.349  0.2100 -0.8359 -0.8551
 1000MOL0     H37967   1.110   9.266  11.230 -2.6234 -2.1033 -1.5284
 1000MOL0     H37968   1.201   8.977  11.183  0.5890 -1.2267 -3.5350
 1000MOL0     H37969   1.206   9.102  11.062 -1.9607 -0.4174 -1.2588
 1000MOL0     H37970   1.004   8.983  11.027 -0.0830 -2.7477  2.0437
 1000MOL0     H37971   0.982   9.153  11.074 -0.8660  0.2239  1.7491
 1000MOL0     H37972   0.973   8.904  11.254  0.0320 -1.9247 -4.1511
 1000MOL0     H37973   0.896   9.075  11.285 -0.7371  1.1911 -1.6526
 1000MOL0     H37974   0.803   8.874  11.086  1.4027  0.0549 -1.2976
 1000MOL0     H37975   0.755   9.048  11.098  1.7434 -0.0003 -1.5972
 1000MOL0     H37976   0.657   8.988  11.311 -4.0236  1.2507 -3.4674
 1000MOL0     H37977   0.708   8.813  11.304 -1.9585  0.4544  1.1697
 1000MOL0     H37978   0.511   8.945  11.126 -0.5857 -1.1363 -1.2621
 1000MOL0     H37979   0.484   8.835  11.264  1.8796 -2.4884  0.8137
 1000MOL0     H37980   1.462   9.357  11.443  1.1687  0.1465  2.0728
 1000MOL0     H37981   1.697   9.436  11.459 -2.0722  1.1804 -2.2758
 1000MOL0     H37982   2.057   9.311  11.612  1.0815  2.0138  1.4689
 1000MOL0     H37983   2.286   9.325  11.722  4.2073  2.0207 -0.6647
 1000MOL0     H37984   4.090   9.282  11.235 -0.1759  1.7593  1.0801
 1000MOL0     H37985   4.182   9.281  10.994  0.9430  1.4580  2.1735
 1000MOL0     H37986   4.189   9.391  10.620  3.2604  3.0288 -1.9519
 1000MOL0     H37987   4.375   9.417  10.441 -0.0944 -0.2419  0.2009
 1000MOL0     H37988   4.377   9.377  10.203 -1.7648 -2.6791  0.6818
 1000MOL0     H37989   4.540   9.407  10.270 -0.1462  0.5738 -2.4234
 1000MOL0     H37990   4.665   9.270  10.126 -0.7815  0.0685 -1.0268
 1000MOL0     H37991   4.559   9.378  10.038 -0.8186 -0.3003 -0.1887
 1000MOL0     H37992   4.469   9.088  10.100  0.7314  0.4146  1.0705
 1000MOL0     H37993   4.367   9.215  10.033 -0.3161 -1.4841 -0.7034
 1000MOL0     H37994   4.515   9.217   9.826 -3.5867  3.1654  1.9036
 1000MOL0     H37995   4.466   9.052   9.876 -0.5178 -0.9067  0.2751
 1000MOL0     H37996   4.877   9.011   9.926  0.2304 -1.5319 -1.4148
 1000MOL0     H37997   4.395   9.019  10.393  0.4654 -0.3243  0.3174
 1000MOL0     H37998   4.279   8.856  10.495 -1.0327  0.5769 -0.8765
 1000MOL0     H37999   4.267   8.881  10.659  0.4929  2.8366  1.2383
 1000MOL0     H38000   4.118   8.898  10.565 -0.0797 -0.9782 -4.0069
 1001MOL0     O38001   4.733  10.635   6.703 -0.2155  0.4194  0.2203
 1001MOL0     C38002   4.722  10.748   6.712  0.5309 -0.2774  0.5534
 1001MOL0     O38003   4.791  10.829   6.801  0.2147 -0.2204  0.4824
 1001MOL0     C38004   4.900  10.784   6.864  0.3212 -0.7872 -0.0839
 1001MOL0     C38005   4.884  10.716   6.976 -0.1303  1.2116 -0.4272
 1001MOL0     C38006   4.997  10.670   7.049  0.4413 -0.6977  0.1422
 1001MOL0     C38007   5.125  10.687   7.003 -0.0806 -0.7236 -0.1537
 1001MOL0     O38008   5.245  10.655   7.064 -1.1271  0.5536 -0.1905
 1001MOL0     C38009   5.248  10.522   7.115 -0.5448 -0.1981  0.1779
 1001MOL0     C38010   5.300  10.428   7.004 -1.0668 -1.2588 -0.0724
 1001MOL0     C38011   5.295  10.285   7.068 -0.9691  0.1040 -0.1778
 1001MOL0     C38012   5.426  10.244   7.147  0.0918 -0.9194  0.2688
 1001MOL0     C38013   5.401  10.158   7.272  0.3172 -0.0320 -0.7046
 1001MOL0     C38014   5.374  10.241   7.392 -0.0189  1.0971 -0.4938
 1001MOL0     C38015   5.320  10.156   7.508 -0.2363 -0.0081 -0.5866
 1001MOL0     C38016   5.430  10.087   7.591  0.1103  0.6753  0.1987
 1001MOL0     N38017   5.375   9.965   7.662 -0.2240 -0.6342  0.9291
 1001MOL0     C38018   5.420   9.842   7.628  0.5578  0.9664  0.5209
 1001MOL0     C38019   5.336   9.754   7.695 -0.9658  0.0659  1.4573
 1001MOL0     C38020   5.337   9.600   7.681  0.0237 -0.6588  0.9311
 1001MOL0     C38021   5.240   9.539   7.567 -0.4283 -0.7109 -0.8657
 1001MOL0     C38022   5.266   9.593   7.427  0.2249  0.2638 -0.0879
 1001MOL0     C38023   5.235   9.734   7.381  0.5408  0.2842  0.0274
 1001MOL0     O38024   5.221   9.758   7.240  0.4105  0.2738 -0.4273
 1001MOL0     C38025   5.324   9.792   7.161 -1.0044 -1.1978 -0.1248
 1001MOL0     C38026   5.278   9.864   7.046  0.5376 -0.3700 -1.0327
 1001MOL0     C38027   5.363   9.913   6.957 -1.0340  0.7547  0.2704
 1001MOL0     C38028   5.312   9.981   6.829 -0.0069  0.0934 -0.1838
 1001MOL0     C38029   5.508   9.898   6.982  0.2097 -0.5575 -0.1937
 1001MOL0     C38030   5.614   9.955   6.905 -0.5189  0.0850 -0.7310
 1001MOL0     O38031   5.610   9.925   6.770 -0.7197  0.2405 -0.3958
 1001MOL0     C38032   5.681   9.999   6.680 -0.1669 -0.6871 -0.1005
 1001MOL0     C38033   5.680  10.141   6.685 -0.3015 -0.1495 -0.0982
 1001MOL0     C38034   5.752  10.222   6.600 -0.1881 -0.8631  0.1166
 1001MOL0     C38035   5.830  10.163   6.497  0.4821 -1.0267 -0.4392
 1001MOL0     O38036   5.887  10.240   6.393  0.0703  0.3625 -0.1402
 1001MOL0     C38037   5.884  10.378   6.387  0.1218  0.1478 -0.4157
 1001MOL0     C38038   5.972  10.428   6.272 -0.2153 -1.5628 -0.2615
 1001MOL0     C38039   5.952  10.369   6.138 -0.1856 -0.3174  0.2238
 1001MOL0     C38040   6.019  10.457   6.026 -0.4870  0.3929 -0.8406
 1001MOL0     C38041   5.988  10.397   5.878  0.9504 -0.3195 -0.5898
 1001MOL0     C38042   5.840  10.431   5.836 -0.0535 -0.2970 -0.9049
 1001MOL0     C38043   5.818  10.393   5.697  0.1628 -0.8440  0.2546
 1001MOL0     C38044   5.664  10.420   5.666 -0.6010  1.1171  0.2364
 1001MOL0    Cl38045   5.645  10.603   5.657 -0.2854  0.1319  0.2401
 1001MOL0     C38046   5.835  10.015   6.489  0.0732 -0.4810 -0.4974
 1001MOL0     C38047   5.757   9.941   6.579  0.3558  0.3923 -0.9843
 1001MOL0     O38048   5.692  10.036   6.958  0.0300  0.8267  0.4008
 1001MOL0     C38049   5.550   9.816   7.091 -0.4193 -0.1120 -0.2272
 1001MOL0     C38050   5.463   9.764   7.187  0.6689 -0.0399 -0.0799
 1001MOL0     N38051   5.235   9.824   7.766 -0.2446  0.2452 -0.0948
 1001MOL0     N38052   5.255   9.949   7.736 -0.6449 -0.2987 -0.6769
 1001MOL0     C38053   5.144  10.761   6.895 -0.4785 -0.4419  0.8378
 1001MOL0     C38054   5.029  10.813   6.817 -0.8811  0.1014  0.1764
 1001MOL0     C38055   4.610  10.798   6.637  0.2681  0.3547 -0.0015
 1001MOL0     C38056   4.612  10.758   6.502 -0.7104  0.4254 -0.8023
 1001MOL0     C38057   4.515  10.795   6.414 -0.1599 -0.2600  0.8151
 1001MOL0     C38058   4.430  10.899   6.452  0.0628 -0.6702 -0.3374
 1001MOL0     O38059   4.347  10.962   6.360 -0.1373 -0.1663 -0.0104
 1001MOL0     C38060   4.250  10.882   6.283 -0.5909 -0.4870  0.2600
 1001MOL0     C38061   4.275  10.903   6.128 -0.4528  0.1068  0.3002
 1001MOL0     C38062   4.233  11.047   6.094 -0.4609  0.4952  0.4337
 1001MOL0     C38063   4.287  11.081   5.954 -0.3270  0.2075  0.5522
 1001MOL0     C38064   4.309  11.218   5.934  0.2454 -0.5128  0.1433
 1001MOL0     C38065   4.349  11.334   5.912  0.8905  0.1090 -0.7592
 1001MOL0     C38066   4.427  10.944   6.583 -0.2389  0.1129  0.6776
 1001MOL0     C38067   4.519  10.892   6.678  0.3344 -0.1653  0.4605
 1001MOL0     C38068   4.517  10.926   6.824  0.5077 -0.3309 -0.7596
 1001MOL0     H38069   4.783  10.707   7.015 -0.2378  0.1454 -0.9047
 1001MOL0     H38070   4.975  10.617   7.141  0.1990 -0.4936  0.2019
 1001MOL0     H38071   5.148  10.486   7.143 -0.9893 -1.6132 -2.8660
 1001MOL0     H38072   5.323  10.523   7.195 -1.7780  0.3754  1.3610
 1001MOL0     H38073   5.241  10.434   6.913 -2.1054  4.0037  0.6229
 1001MOL0     H38074   5.405  10.455   6.986 -0.5966 -2.7657  0.3043
 1001MOL0     H38075   5.219  10.280   7.146 -2.3291 -0.2137 -1.4838
 1001MOL0     H38076   5.270  10.199   7.006  1.0403 -0.1616 -0.7189
 1001MOL0     H38077   5.485  10.182   7.079  2.4616  1.0123  0.4246
 1001MOL0     H38078   5.486  10.327   7.187  2.5391 -3.3083  1.9031
 1001MOL0     H38079   5.490  10.096   7.286  0.5017  0.4420  0.2965
 1001MOL0     H38080   5.317  10.095   7.238  1.8020 -2.2285 -0.5076
 1001MOL0     H38081   5.464  10.299   7.417  2.3422 -0.8058 -3.7091
 1001MOL0     H38082   5.293  10.307   7.363 -0.1916  1.0283 -0.1739
 1001MOL0     H38083   5.254  10.082   7.461 -2.3519  0.9317  0.7394
 1001MOL0     H38084   5.271  10.228   7.575  0.1329 -2.9058  3.0942
 1001MOL0     H38085   5.520  10.066   7.534  0.4001  1.2548  0.4331
 1001MOL0     H38086   5.453  10.156   7.673 -0.6402 -2.0465  2.9254
 1001MOL0     H38087   5.503   9.810   7.566  0.8804  1.8102  0.5080
 1001MOL0     H38088   5.302   9.558   7.776 -0.2244 -0.3962  0.9557
 1001MOL0     H38089   5.439   9.562   7.678 -0.0954 -0.9669 -1.4876
 1001MOL0     H38090   5.254   9.430   7.572 -1.6736 -0.8358  0.5460
 1001MOL0     H38091   5.134   9.551   7.589 -0.0584  0.2111  0.5118
 1001MOL0     H38092   5.373   9.575   7.415  0.3004 -1.2690  2.3353
 1001MOL0     H38093   5.218   9.526   7.355  2.1369 -0.2380 -0.9497
 1001MOL0     H38094   5.133   9.747   7.421  0.2949 -0.1652 -0.4520
 1001MOL0     H38095   5.296   9.814   7.425 -2.1105  1.6410  1.5220
 1001MOL0     H38096   5.173   9.878   7.022  0.0012 -1.4113  0.5117
 1001MOL0     H38097   5.382  10.061   6.807 -1.0777  0.7880 -1.1599
 1001MOL0     H38098   5.217  10.029   6.853 -0.1525 -0.8956  1.4336
 1001MOL0     H38099   5.298   9.913   6.745  0.5602 -1.2686  0.7731
 1001MOL0     H38100   5.615  10.188   6.760 -1.1075  0.2054 -0.9989
 1001MOL0     H38101   5.745  10.330   6.610 -1.3975 -0.8045 -0.9884
 1001MOL0     H38102   5.782  10.416   6.377 -0.0313  0.7209  2.5415
 1001MOL0     H38103   5.924  10.409   6.484  3.8230 -1.0533 -1.4110
 1001MOL0     H38104   5.963  10.537   6.266  0.2335 -1.4771  0.4017
 1001MOL0     H38105   6.075  10.410   6.304  0.1301 -1.0985 -1.0952
 1001MOL0     H38106   5.843  10.364   6.142 -0.3144  2.1115  1.8252
 1001MOL0     H38107   5.985  10.266   6.125  4.1106  0.8830 -0.0458
 1001MOL0     H38108   6.128  10.467   6.035 -0.5050  1.4407 -1.5172
 1001MOL0     H38109   5.983  10.559   6.043  0.6111  0.7809 -0.7337
 1001MOL0     H38110   6.063  10.427   5.804  0.7150  0.0196 -0.6926
 1001MOL0     H38111   5.991  10.288   5.880 -4.0815 -0.7630 -2.6532
 1001MOL0     H38112   5.829  10.538   5.859  3.4113 -0.3813  1.9493
 1001MOL0     H38113   5.779  10.376   5.907  3.2443 -0.2582  2.1930
 1001MOL0     H38114   5.845  10.287   5.694  0.1499 -0.8578  0.5678
 1001MOL0     H38115   5.884  10.440   5.623 -0.0038 -2.4733 -0.9774
 1001MOL0     H38116   5.591  10.377   5.735 -1.3280 -1.3491 -1.8974
 1001MOL0     H38117   5.645  10.380   5.566  4.4367  1.4399 -1.1472
 1001MOL0     H38118   5.895   9.967   6.413 -0.0146 -1.6061  0.1238
 1001MOL0     H38119   5.748   9.835   6.560  1.3415  0.1969 -0.3690
 1001MOL0     H38120   5.656   9.794   7.099  0.6284  3.6379 -1.7650
 1001MOL0     H38121   5.496   9.710   7.275 -2.8803  0.6310  1.8915
 1001MOL0     H38122   5.244  10.782   6.857 -0.3684 -0.4717  1.1113
 1001MOL0     H38123   5.042  10.863   6.721 -0.2271 -0.3677  0.0138
 1001MOL0     H38124   4.697  10.700   6.464 -0.2637  1.1668 -0.9559
 1001MOL0     H38125   4.512  10.767   6.309  0.2402 -1.8529  1.2015
 1001MOL0     H38126   4.260  10.777   6.313 -1.9508 -1.3977 -2.1778
 1001MOL0     H38127   4.148  10.914   6.306 -0.1510 -1.3927  4.0485
 1001MOL0     H38128   4.207  10.837   6.073 -0.8811  0.1912  0.7205
 1001MOL0     H38129   4.380  10.891   6.100 -0.4765  0.4281  0.0637
 1001MOL0     H38130   4.125  11.068   6.094 -0.6975  0.0592 -3.2705
 1001MOL0     H38131   4.283  11.118   6.161 -0.3183 -2.0820  3.2377
 1001MOL0     H38132   4.212  11.040   5.887 -0.1427  2.8937 -1.4459
 1001MOL0     H38133   4.383  11.039   5.922 -0.9485  0.9298 -2.6148
 1001MOL0     H38134   4.392  11.432   5.912 -2.4049  1.7226 -1.9865
 1001MOL0     H38135   4.358  11.023   6.610 -1.3757  0.6689 -3.2173
 1001MOL0     H38136   4.593  11.001   6.850 -1.0442  0.8006  0.6787
 1001MOL0     H38137   4.417  10.956   6.857  1.1487  1.1051 -0.0245
 1001MOL0     H38138   4.544  10.837   6.882  1.3486 -0.7761 -1.7990
 1002MOL0     O38139   2.418   5.023   7.279  0.1823 -0.1314  0.3761
 1002MOL0     C38140   2.342   5.116   7.311 -1.2157 -0.4018  0.3965
 1002MOL0     O38141   2.266   5.127   7.426  0.9802 -0.5329 -0.0651
 1002MOL0     C38142   2.284   5.041   7.531  0.7025  0.9267 -0.1660
 1002MOL0     C38143   2.174   4.983   7.597  0.1165 -0.1105  0.0050
 1002MOL0     C38144   2.191   4.885   7.698 -0.4652  0.0591 -0.4314
 1002MOL0     C38145   2.315   4.869   7.762 -0.1686  0.3206  0.4476
 1002MOL0     O38146   2.344   4.797   7.870 -0.6427 -0.1904  0.1099
 1002MOL0     C38147   2.253   4.691   7.913 -0.5167 -0.2154  0.0187
 1002MOL0     C38148   2.277   4.649   8.060 -0.3081 -1.1289 -0.2534
 1002MOL0     C38149   2.210   4.511   8.074 -1.1238 -0.2004  0.0822
 1002MOL0     C38150   2.272   4.392   7.986  0.5129 -0.8758  0.6115
 1002MOL0     C38151   2.416   4.345   8.000 -0.3217 -0.8768  0.4737
 1002MOL0     C38152   2.444   4.200   7.967 -0.2666  0.5159  1.3424
 1002MOL0     C38153   2.390   4.171   7.829  0.2121 -0.1715 -0.2201
 1002MOL0     C38154   2.427   4.031   7.789 -0.6459 -0.1983  0.7273
 1002MOL0     N38155   2.416   4.007   7.639  0.4951  0.3034 -0.7594
 1002MOL0     C38156   2.299   3.995   7.577  0.3012  0.9852  0.6051
 1002MOL0     C38157   2.335   3.981   7.443 -0.1808 -0.1857 -0.1933
 1002MOL0     C38158   2.235   3.949   7.334 -0.1321 -0.5576  0.7451
 1002MOL0     C38159   2.175   4.076   7.270 -0.5354 -0.3523  0.1077
 1002MOL0     C38160   2.046   4.120   7.322 -0.0542  0.1787 -0.2645
 1002MOL0     C38161   1.922   4.064   7.262  0.1640 -0.2085 -0.4517
 1002MOL0     O38162   1.810   4.131   7.336  0.0368  0.6406 -1.3487
 1002MOL0     C38163   1.743   4.240   7.296  0.7028 -1.2520 -0.2390
 1002MOL0     C38164   1.626   4.285   7.363  0.4069  0.7797 -0.2200
 1002MOL0     C38165   1.550   4.400   7.324 -0.3096  0.2337 -0.4853
 1002MOL0     C38166   1.422   4.437   7.405  0.5654  0.0396  0.9524
 1002MOL0     C38167   1.602   4.477   7.213  0.1067  0.7306  0.7023
 1002MOL0     C38168   1.539   4.609   7.177  0.1390 -0.2884  0.4244
 1002MOL0     O38169   1.562   4.636   7.046 -0.2146  0.2931  1.4760
 1002MOL0     C38170   1.488   4.733   6.990 -0.2942  0.5528 -0.1649
 1002MOL0     C38171   1.351   4.729   6.982 -0.9033 -0.2490 -0.3547
 1002MOL0     C38172   1.279   4.841   6.939  0.7144 -0.2700  0.5478
 1002MOL0     C38173   1.344   4.964   6.925  0.9437 -0.1563 -0.2270
 1002MOL0     O38174   1.278   5.087   6.903 -1.1475 -0.6682 -0.3418
 1002MOL0     C38175   1.140   5.091   6.935  0.5871  0.5035 -0.2955
 1002MOL0     C38176   1.101   5.234   6.935  0.1758 -0.2234  0.7118
 1002MOL0     C38177   1.162   5.310   7.051 -0.1587  0.0181 -0.6262
 1002MOL0     C38178   1.113   5.280   7.190  1.0142  0.1201  0.1759
 1002MOL0     C38179   1.217   5.342   7.284 -0.6460  0.1479  0.9893
 1002MOL0     C38180   1.174   5.370   7.434 -1.0094 -0.1580  0.8899
 1002MOL0     C38181   1.307   5.396   7.517  0.2985 -0.0740  0.7594
 1002MOL0     C38182   1.283   5.390   7.667  0.1477  0.5508  0.7593
 1002MOL0    Cl38183   1.182   5.529   7.705 -0.1745  0.5303 -0.2186
 1002MOL0     C38184   1.479   4.970   6.934 -0.9180  0.3109 -0.2938
 1002MOL0     C38185   1.555   4.857   6.961  0.1799 -0.3613  0.7724
 1002MOL0     O38186   1.461   4.681   7.251 -0.1394 -0.1661  0.0010
 1002MOL0     C38187   1.718   4.428   7.146  0.6986  0.2323  0.1909
 1002MOL0     C38188   1.786   4.311   7.186  0.2472 -0.9232 -0.3071
 1002MOL0     N38189   2.475   3.995   7.432  0.0295  0.3335  0.5801
 1002MOL0     N38190   2.519   4.013   7.548  0.1899 -0.1557  0.9524
 1002MOL0     C38191   2.420   4.959   7.712  0.4453 -0.4365 -0.1245
 1002MOL0     C38192   2.405   5.031   7.589  0.8091  0.7229  0.6864
 1002MOL0     C38193   2.356   5.241   7.227 -0.5455  0.3134 -0.3141
 1002MOL0     C38194   2.342   5.364   7.293  0.8350 -0.3841  0.1944
 1002MOL0     C38195   2.345   5.482   7.227  0.0450  0.4701  0.9286
 1002MOL0     C38196   2.373   5.487   7.086  0.0931  0.4680  0.2933
 1002MOL0     O38197   2.379   5.605   7.014 -0.1517 -0.2215 -0.1337
 1002MOL0     C38198   2.379   5.723   7.097 -0.9796  0.3883 -0.5832
 1002MOL0     C38199   2.426   5.833   7.003 -0.4043  0.3644  0.1909
 1002MOL0     C38200   2.570   5.806   6.934  0.3257 -0.5828  0.1905
 1002MOL0     C38201   2.694   5.791   7.025  0.2629 -0.0650  1.0370
 1002MOL0     C38202   2.797   5.734   6.940 -1.4784  0.1251  0.2169
 1002MOL0     C38203   2.855   5.666   6.853 -0.2962  0.1153  0.4057
 1002MOL0     C38204   2.394   5.362   7.020 -0.5081  0.5230 -0.0254
 1002MOL0     C38205   2.387   5.240   7.085  0.5162 -0.6309  0.2894
 1002MOL0     C38206   2.431   5.114   7.007 -0.4093  0.0314  0.4298
 1002MOL0     H38207   2.075   5.011   7.561 -0.3886  0.1859  1.5266
 1002MOL0     H38208   2.101   4.838   7.738  1.3693 -0.7343  3.1512
 1002MOL0     H38209   2.278   4.608   7.848 -3.9249 -0.4057 -1.2453
 1002MOL0     H38210   2.146   4.707   7.895 -0.6761 -2.3678 -1.2982
 1002MOL0     H38211   2.383   4.639   8.086  0.1437  0.3832 -1.4057
 1002MOL0     H38212   2.235   4.721   8.131 -1.1485 -2.4080  0.5855
 1002MOL0     H38213   2.236   4.485   8.177  1.0230 -2.0283 -0.8248
 1002MOL0     H38214   2.103   4.526   8.059 -1.1426 -0.6344 -0.2250
 1002MOL0     H38215   2.221   4.307   8.032  2.4858 -0.4094  3.9152
 1002MOL0     H38216   2.243   4.399   7.880  1.9676 -0.9151  0.1896
 1002MOL0     H38217   2.447   4.365   8.103 -1.8982 -0.5193  0.9052
 1002MOL0     H38218   2.473   4.410   7.932 -0.2585 -1.4583 -0.0390
 1002MOL0     H38219   2.552   4.180   7.967 -0.9657 -5.6512 -1.5846
 1002MOL0     H38220   2.396   4.139   8.044  0.1198  0.1628  1.3119
 1002MOL0     H38221   2.435   4.249   7.767 -0.3556  1.3206  1.1784
 1002MOL0     H38222   2.281   4.171   7.829  0.2052 -0.7526 -0.6952
 1002MOL0     H38223   2.533   4.009   7.805 -0.0931 -0.3931 -2.3840
 1002MOL0     H38224   2.369   3.953   7.839 -1.5423  0.8902  1.4182
 1002MOL0     H38225   2.202   3.987   7.623  0.4869 -0.6106  0.7750
 1002MOL0     H38226   2.152   3.886   7.366  0.8493 -2.4777 -0.2858
 1002MOL0     H38227   2.286   3.892   7.255  0.6198 -0.8069  1.3992
 1002MOL0     H38228   2.250   4.152   7.291 -1.3550  0.3801  0.4443
 1002MOL0     H38229   2.167   4.053   7.163  4.2236 -0.4396 -0.4288
 1002MOL0     H38230   2.057   4.093   7.427  0.6319 -2.6217 -0.9725
 1002MOL0     H38231   2.055   4.229   7.312  3.3390 -0.1295 -2.8679
 1002MOL0     H38232   1.923   4.091   7.156 -0.0719 -1.3911 -0.7723
 1002MOL0     H38233   1.917   3.955   7.271  0.8104 -0.1874  0.3185
 1002MOL0     H38234   1.589   4.228   7.448  3.9318  1.6774  2.1381
 1002MOL0     H38235   1.338   4.451   7.337  1.6714  2.1024 -0.0772
 1002MOL0     H38236   1.428   4.531   7.460  2.9847  0.7688 -0.3681
 1002MOL0     H38237   1.396   4.355   7.472 -2.9371  0.1342 -0.1278
 1002MOL0     H38238   1.313   4.629   6.998  1.3270 -1.0857  0.0870
 1002MOL0     H38239   1.171   4.841   6.948  0.6950  0.3279  0.3366
 1002MOL0     H38240   1.084   5.036   6.860 -0.2792  1.0509 -0.0715
 1002MOL0     H38241   1.121   5.047   7.033  1.6435 -1.5997 -0.9823
 1002MOL0     H38242   1.112   5.279   6.836 -3.0192 -2.0605 -0.6310
 1002MOL0     H38243   0.993   5.235   6.951 -0.1185  3.1820 -0.5855
 1002MOL0     H38244   1.139   5.414   7.030  0.7137  0.4450  0.4346
 1002MOL0     H38245   1.271   5.300   7.039  0.2546  3.2281 -0.2336
 1002MOL0     H38246   1.092   5.174   7.203 -0.8898  0.1970 -1.6430
 1002MOL0     H38247   1.013   5.323   7.199 -1.2584 -3.7235 -3.2718
 1002MOL0     H38248   1.309   5.286   7.263 -0.8655  0.6849 -1.7327
 1002MOL0     H38249   1.238   5.438   7.237  0.0481 -1.2786 -1.8246
 1002MOL0     H38250   1.116   5.290   7.482 -1.2188  0.8315  2.3658
 1002MOL0     H38251   1.109   5.458   7.439  0.8386  1.2274  1.5351
 1002MOL0     H38252   1.359   5.485   7.480  0.4810 -0.2446  0.6029
 1002MOL0     H38253   1.371   5.309   7.500 -0.4631 -0.4486 -0.3106
 1002MOL0     H38254   1.381   5.402   7.715  0.3021  0.5932  0.4333
 1002MOL0     H38255   1.240   5.298   7.706 -0.1578  1.0850  1.7486
 1002MOL0     H38256   1.525   5.068   6.932  0.2071  0.3075  5.9964
 1002MOL0     H38257   1.662   4.866   6.953  0.0865  0.4760  0.4019
 1002MOL0     H38258   1.763   4.478   7.061  0.1125 -2.0466 -1.5400
 1002MOL0     H38259   1.872   4.290   7.123 -0.7866 -2.9200 -1.1400
 1002MOL0     H38260   2.511   4.959   7.771  0.3410 -1.2969  0.0537
 1002MOL0     H38261   2.494   5.083   7.556  2.0133  1.5118  4.6413
 1002MOL0     H38262   2.337   5.371   7.401 -0.4374  2.1627  0.0624
 1002MOL0     H38263   2.322   5.573   7.283 -0.8459  1.0412 -0.3157
 1002MOL0     H38264   2.280   5.741   7.140 -1.0077 -0.9033 -0.0922
 1002MOL0     H38265   2.455   5.706   7.173  2.7260  0.2671 -3.9430
 1002MOL0     H38266   2.424   5.927   7.058 -0.3951  1.3314 -1.3846
 1002MOL0     H38267   2.354   5.831   6.921 -1.0912 -1.0207  0.7985
 1002MOL0     H38268   2.560   5.719   6.868  0.8588  1.1898 -2.3857
 1002MOL0     H38269   2.588   5.893   6.869 -1.2333 -0.6319 -0.3437
 1002MOL0     H38270   2.661   5.729   7.109  2.6036 -0.6312  1.6027
 1002MOL0     H38271   2.717   5.892   7.061  0.0616  0.5925 -0.6002
 1002MOL0     H38272   2.908   5.601   6.787  0.7085 -1.7473  2.8987
 1002MOL0     H38273   2.424   5.356   6.916 -0.4831 -0.3056  0.0266
 1002MOL0     H38274   2.353   5.037   7.009  0.7219 -1.1996 -0.8879
 1002MOL0     H38275   2.449   5.141   6.903  1.5024 -0.0827  0.6901
 1002MOL0     H38276   2.519   5.070   7.055 -0.9505 -0.4691  0.9928
 1003MOL0     O38277  10.272   9.416   3.425 -0.4302 -0.3744 -0.3857
 1003MOL0     C38278  10.344   9.322   3.449  0.4024  0.5199 -0.2871
 1003MOL0     O38279  10.313   9.219   3.535  0.3932 -0.2350  0.1695
 1003MOL0     C38280  10.224   9.236   3.637 -0.6615  0.4864  1.0547
 1003MOL0     C38281  10.087   9.248   3.612  0.2582  0.2871 -0.1792
 1003MOL0     C38282   9.997   9.240   3.723 -0.4035  0.1791  0.4811
 1003MOL0     C38283  10.036   9.256   3.858 -0.0881 -0.8878  0.4549
 1003MOL0     O38284   9.962   9.276   3.973  0.4426  0.5950  1.0218
 1003MOL0     C38285   9.824   9.259   3.964  0.3288  0.4530 -0.6879
 1003MOL0     C38286   9.760   9.234   4.104  0.1762 -0.6958 -0.1135
 1003MOL0     C38287   9.832   9.116   4.185  0.2090 -0.3878  0.9295
 1003MOL0     C38288   9.766   9.079   4.311  0.2007 -0.9148 -0.8615
 1003MOL0     C38289   9.818   8.947   4.373  0.1874 -0.7655 -0.4370
 1003MOL0     C38290   9.731   8.906   4.496  0.4654 -0.2024  0.1324
 1003MOL0     C38291   9.717   8.995   4.615 -0.4395 -0.6651 -0.5229
 1003MOL0     C38292   9.619   8.936   4.719 -0.5869  0.2217  0.2034
 1003MOL0     N38293   9.477   8.948   4.680 -0.0421  0.6440  0.8318
 1003MOL0     C38294   9.420   9.070   4.657  0.1654 -0.8541 -0.3217
 1003MOL0     C38295   9.292   9.038   4.619  0.2109  0.3519  1.3495
 1003MOL0     C38296   9.175   9.128   4.587 -0.5077  0.2353  0.2435
 1003MOL0     C38297   9.180   9.199   4.449  0.0442  0.1933 -0.2452
 1003MOL0     C38298   9.244   9.109   4.338 -0.0484  1.0032 -0.1104
 1003MOL0     C38299   9.262   9.184   4.207 -0.2468  0.0380  0.8692
 1003MOL0     O38300   9.317   9.315   4.215 -0.1925  0.1240  0.2369
 1003MOL0     C38301   9.379   9.374   4.107  0.1483 -0.1640  0.0241
 1003MOL0     C38302   9.454   9.490   4.132  0.3321 -0.2049 -0.1026
 1003MOL0     C38303   9.534   9.546   4.035 -0.7069  0.4925 -0.3577
 1003MOL0     C38304   9.616   9.668   4.087 -0.9172  0.3148 -0.2879
 1003MOL0     C38305   9.529   9.496   3.900  0.4466 -0.1907 -0.3460
 1003MOL0     C38306   9.616   9.565   3.793 -0.3512  0.7402 -0.7059
 1003MOL0     O38307   9.702   9.666   3.827 -0.7949 -0.5391  0.6466
 1003MOL0     C38308   9.788   9.708   3.720 -0.0429 -0.1918  0.0998
 1003MOL0     C38309   9.769   9.838   3.664  0.2471 -0.7458 -0.8801
 1003MOL0     C38310   9.844   9.872   3.554 -0.0291 -0.1350  0.2287
 1003MOL0     C38311   9.948   9.788   3.512  0.2873  1.2760  0.5167
 1003MOL0     O38312  10.026   9.837   3.405  0.7143  0.9214 -0.7752
 1003MOL0     C38313  10.159   9.792   3.371  0.4827  0.8998  0.5764
 1003MOL0     C38314  10.194   9.788   3.213  0.5866 -0.6099  0.1083
 1003MOL0     C38315  10.139   9.920   3.155  0.0865  0.5301 -0.0144
 1003MOL0     C38316  10.196   9.954   3.015  0.2291  1.1282 -0.7422
 1003MOL0     C38317  10.127  10.053   2.922 -0.1319  0.9484 -0.4802
 1003MOL0     C38318   9.980  10.008   2.908  0.9269 -0.2090  0.7993
 1003MOL0     C38319   9.915  10.092   2.794  0.4049 -0.1305 -0.6231
 1003MOL0     C38320   9.769  10.089   2.832 -0.0642 -0.2290  0.2947
 1003MOL0    Cl38321   9.661  10.182   2.718  0.0872  0.1055 -0.6275
 1003MOL0     C38322   9.966   9.656   3.557  0.1293 -0.4431 -1.0151
 1003MOL0     C38323   9.888   9.624   3.666  0.3123  0.7396 -0.2928
 1003MOL0     O38324   9.627   9.499   3.689  0.3127 -0.0955  0.3668
 1003MOL0     C38325   9.444   9.380   3.871  1.2348 -0.1020  0.6074
 1003MOL0     C38326   9.373   9.321   3.975 -0.2127 -1.1524  0.0565
 1003MOL0     N38327   9.286   8.900   4.617 -0.3273  0.0463  0.3877
 1003MOL0     N38328   9.400   8.838   4.651  1.4399 -0.7781  0.5458
 1003MOL0     C38329  10.173   9.246   3.875  0.4480  0.0445 -0.5373
 1003MOL0     C38330  10.268   9.223   3.770 -1.9705  0.0968  0.4055
 1003MOL0     C38331  10.482   9.307   3.378 -0.1052 -0.2210  0.4444
 1003MOL0     C38332  10.564   9.195   3.416  0.9728 -0.7143  0.0303
 1003MOL0     C38333  10.669   9.154   3.341 -0.6923 -0.8449  0.8863
 1003MOL0     C38334  10.719   9.232   3.230 -0.1561 -0.2684 -0.8523
 1003MOL0     O38335  10.841   9.183   3.181  0.2470 -0.0234  0.0012
 1003MOL0     C38336  10.868   9.221   3.036 -0.7904  0.3060 -0.6623
 1003MOL0     C38337  10.931   9.356   3.028 -0.7870 -0.2478 -0.0747
 1003MOL0     C38338  10.950   9.402   2.881  0.9041  0.1527 -0.2751
 1003MOL0     C38339  10.806   9.431   2.820 -0.1844  0.0040  0.5859
 1003MOL0     C38340  10.834   9.496   2.693  0.5982 -0.5142 -0.2757
 1003MOL0     C38341  10.825   9.570   2.592 -0.4715 -0.1515 -0.7384
 1003MOL0     C38342  10.644   9.338   3.199  0.4963  0.0365 -0.2785
 1003MOL0     C38343  10.527   9.387   3.269  0.1110  0.4341 -0.0258
 1003MOL0     C38344  10.434   9.496   3.212  0.4261  0.2623  0.3106
 1003MOL0     H38345  10.039   9.251   3.514 -2.3864  0.6901  1.0443
 1003MOL0     H38346   9.894   9.209   3.707  0.5572 -2.3242 -1.4796
 1003MOL0     H38347   9.818   9.164   3.910  3.2665 -1.5967  2.2192
 1003MOL0     H38348   9.771   9.336   3.907  0.3494  1.2743  0.3700
 1003MOL0     H38349   9.769   9.325   4.163  1.1889 -0.1569 -1.0478
 1003MOL0     H38350   9.655   9.206   4.092 -1.1062  1.4607  4.1860
 1003MOL0     H38351   9.838   9.022   4.130 -2.0891  0.5494 -1.0976
 1003MOL0     H38352   9.935   9.144   4.206  0.3502 -1.4231  1.6449
 1003MOL0     H38353   9.778   9.159   4.385 -0.0619  0.6950 -2.4882
 1003MOL0     H38354   9.659   9.060   4.299 -0.0606 -3.4328  3.3574
 1003MOL0     H38355   9.921   8.958   4.409 -0.2596 -0.0534  0.6731
 1003MOL0     H38356   9.813   8.862   4.305 -2.7063  0.9308 -2.5464
 1003MOL0     H38357   9.631   8.888   4.454 -0.6923  1.1239  2.1512
 1003MOL0     H38358   9.778   8.810   4.516 -0.9048 -0.3925  2.7787
 1003MOL0     H38359   9.684   9.090   4.574  2.3081  0.5933 -0.0018
 1003MOL0     H38360   9.814   9.014   4.662 -0.4071  1.6594 -1.4492
 1003MOL0     H38361   9.636   8.828   4.729  0.6460  0.6100  3.2556
 1003MOL0     H38362   9.619   8.978   4.820  1.4202  0.8481 -0.0141
 1003MOL0     H38363   9.439   9.174   4.680  1.3151 -1.5528  2.3648
 1003MOL0     H38364   9.152   9.209   4.657  2.2015  2.9664 -1.7384
 1003MOL0     H38365   9.079   9.075   4.582  0.2979 -1.1359 -2.0365
 1003MOL0     H38366   9.076   9.224   4.424 -1.0873 -3.9551 -0.3513
 1003MOL0     H38367   9.235   9.293   4.459  1.4677 -0.5734 -0.5900
 1003MOL0     H38368   9.336   9.068   4.381 -0.8067  1.1060  1.7053
 1003MOL0     H38369   9.174   9.027   4.321  1.8697 -1.3278  2.3997
 1003MOL0     H38370   9.323   9.110   4.154 -3.4278 -0.0149 -3.3004
 1003MOL0     H38371   9.165   9.182   4.155  0.1058 -0.7540  0.2250
 1003MOL0     H38372   9.453   9.515   4.238 -0.0820  1.5305 -0.4728
 1003MOL0     H38373   9.601   9.700   4.190  0.0971  0.0184 -0.0352
 1003MOL0     H38374   9.590   9.755   4.026 -3.1434  1.6552  2.3899
 1003MOL0     H38375   9.721   9.635   4.088 -1.2631 -0.8188  0.6336
 1003MOL0     H38376   9.685   9.882   3.718  0.8537 -0.2161 -0.3612
 1003MOL0     H38377   9.834   9.969   3.508 -2.8898 -0.9933 -1.1753
 1003MOL0     H38378  10.236   9.856   3.416  4.3930 -2.1321 -1.1636
 1003MOL0     H38379  10.183   9.693   3.409  2.1366  1.7556  1.9376
 1003MOL0     H38380  10.303   9.785   3.201  0.6031 -2.7275  0.4386
 1003MOL0     H38381  10.134   9.715   3.159 -2.2674  1.2417  0.5509
 1003MOL0     H38382  10.170  10.007   3.213  1.4013  0.9182 -1.2496
 1003MOL0     H38383  10.030   9.911   3.151  0.2051 -1.2449 -0.2094
 1003MOL0     H38384  10.198   9.863   2.955  2.4183  1.3499 -1.0688
 1003MOL0     H38385  10.300   9.975   3.042 -0.1045  0.6307  1.0861
 1003MOL0     H38386  10.139  10.155   2.957 -0.2912  0.8354 -0.0851
 1003MOL0     H38387  10.178  10.049   2.826 -2.5334  1.5258 -1.8741
 1003MOL0     H38388   9.932  10.025   3.005  0.2466  1.5721  0.1957
 1003MOL0     H38389   9.963   9.904   2.879 -0.6858 -0.0857  1.2255
 1003MOL0     H38390   9.935  10.052   2.694 -2.3236 -0.0449 -1.2869
 1003MOL0     H38391   9.950  10.196   2.789 -1.1665  0.4341 -0.3931
 1003MOL0     H38392   9.745  10.123   2.933  1.0638 -0.1899  0.5675
 1003MOL0     H38393   9.729   9.987   2.832  1.7035 -0.9667  0.1983
 1003MOL0     H38394  10.037   9.580   3.529 -0.1421 -1.4209  0.7945
 1003MOL0     H38395   9.885   9.526   3.713 -4.2689  1.0070  0.4148
 1003MOL0     H38396   9.425   9.346   3.770 -0.5827  3.5276 -0.4339
 1003MOL0     H38397   9.313   9.236   3.945 -2.1254  1.5121 -4.7653
 1003MOL0     H38398  10.210   9.262   3.976 -1.3187 -0.0859  0.1525
 1003MOL0     H38399  10.374   9.212   3.793 -1.8653 -1.6197 -0.7373
 1003MOL0     H38400  10.550   9.143   3.510  1.1963  2.6874  2.1285
 1003MOL0     H38401  10.728   9.070   3.375  0.7898  0.0671  0.6681
 1003MOL0     H38402  10.920   9.137   2.989 -0.5206 -0.0866  0.3188
 1003MOL0     H38403  10.773   9.239   2.986 -0.2220  1.1782 -1.4673
 1003MOL0     H38404  11.030   9.329   3.065  0.0424  1.5987 -0.8144
 1003MOL0     H38405  10.902   9.435   3.097  2.7388  0.1920  1.0827
 1003MOL0     H38406  10.997   9.500   2.897 -0.9353  1.0774 -0.2737
 1003MOL0     H38407  11.012   9.333   2.822 -1.7952 -2.6438 -0.1011
 1003MOL0     H38408  10.753   9.502   2.884  0.0384  1.0032 -0.3044
 1003MOL0     H38409  10.744   9.342   2.807  1.6112 -0.9739 -2.0936
 1003MOL0     H38410  10.836   9.629   2.503  2.9242  0.2564 -0.1828
 1003MOL0     H38411  10.688   9.397   3.119 -1.1154  1.1849 -0.3534
 1003MOL0     H38412  10.481   9.564   3.141  0.4869 -1.3920 -1.2995
 1003MOL0     H38413  10.345   9.450   3.169  1.5093 -0.8551 -0.7779
 1003MOL0     H38414  10.396   9.560   3.293 -0.8608 -2.0161  1.6224
 1004MOL0     O38415   0.300   4.218   9.128 -0.0009  0.0738  0.1213
 1004MOL0     C38416   0.412   4.246   9.171 -0.2717  0.0697  0.0347
 1004MOL0     O38417   0.491   4.149   9.227  0.1850 -0.7117 -0.2249
 1004MOL0     C38418   0.420   4.037   9.266 -0.0708  0.0153 -0.6438
 1004MOL0     C38419   0.385   3.950   9.162  0.0499  0.2785  0.0209
 1004MOL0     C38420   0.313   3.833   9.196 -0.0922 -0.0301  0.0547
 1004MOL0     C38421   0.255   3.809   9.323  0.1546 -0.9209 -0.0782
 1004MOL0     O38422   0.167   3.706   9.340 -0.3329 -0.5455 -0.0912
 1004MOL0     C38423   0.089   3.708   9.462  0.1361 -0.6432 -0.1105
 1004MOL0     C38424  -0.038   3.646   9.432  0.1992  1.1561 -0.2603
 1004MOL0     C38425  -0.122   3.702   9.316  0.4183 -0.1294 -0.6354
 1004MOL0     C38426  -0.223   3.591   9.259  0.5754  0.1204  0.4459
 1004MOL0     C38427  -0.304   3.666   9.157 -0.4022 -0.6280  0.6888
 1004MOL0     C38428  -0.409   3.573   9.104  0.4647 -0.6742 -0.2378
 1004MOL0     C38429  -0.519   3.529   9.200 -0.1953  0.5032  0.0664
 1004MOL0     C38430  -0.621   3.474   9.105  0.0210  0.6377  0.5434
 1004MOL0     N38431  -0.737   3.435   9.189  0.2462 -0.5582 -0.0228
 1004MOL0     C38432  -0.831   3.520   9.254 -0.2288 -0.5764  0.0115
 1004MOL0     C38433  -0.916   3.439   9.321  0.2123 -0.1127  0.2110
 1004MOL0     C38434  -1.027   3.485   9.422 -0.8550  0.0662  0.3505
 1004MOL0     C38435  -1.093   3.375   9.499 -0.0692  0.2426  0.2990
 1004MOL0     C38436  -1.193   3.434   9.598  0.3107  0.9784  0.6050
 1004MOL0     C38437  -1.292   3.321   9.651  0.7524 -0.7035  0.0490
 1004MOL0     O38438  -1.221   3.208   9.717  0.6225 -1.2325  1.0713
 1004MOL0     C38439  -1.170   3.238   9.845  0.8854  0.0201  0.1892
 1004MOL0     C38440  -1.247   3.287   9.949 -0.0227 -0.0335  0.0508
 1004MOL0     C38441  -1.192   3.324  10.076  1.5876  0.2805 -0.3041
 1004MOL0     C38442  -1.280   3.412  10.157 -0.2113 -1.5894 -1.1747
 1004MOL0     C38443  -1.049   3.294  10.104  1.6375 -0.3084  0.5572
 1004MOL0     C38444  -0.980   3.315  10.234  0.9802  0.7459  1.5360
 1004MOL0     O38445  -0.854   3.256  10.241  0.0625  0.2464  0.0344
 1004MOL0     C38446  -0.774   3.240  10.347  0.2989 -0.2149  0.1844
 1004MOL0     C38447  -0.646   3.186  10.328 -0.4209  1.0481 -0.5512
 1004MOL0     C38448  -0.552   3.184  10.435 -0.7513 -0.4360  0.3465
 1004MOL0     C38449  -0.591   3.230  10.563 -0.6716 -0.6266 -0.2243
 1004MOL0     O38450  -0.515   3.243  10.676  0.2279  0.0997 -0.2179
 1004MOL0     C38451  -0.413   3.141  10.680  0.2482 -0.0561 -0.3692
 1004MOL0     C38452  -0.371   3.125  10.828  0.5278 -0.1100 -0.4327
 1004MOL0     C38453  -0.482   3.095  10.928  0.0867 -0.2312  0.3147
 1004MOL0     C38454  -0.519   2.952  10.927 -0.2142  1.3314  0.7915
 1004MOL0     C38455  -0.618   2.918  11.042  0.0943  0.3432  0.7857
 1004MOL0     C38456  -0.688   2.783  11.029 -0.3495  0.3788 -0.0824
 1004MOL0     C38457  -0.786   2.777  11.143 -0.3875  0.2224 -0.4253
 1004MOL0     C38458  -0.812   2.646  11.218 -0.3598  1.0736  0.4006
 1004MOL0    Cl38459  -0.896   2.665  11.374  0.0139 -0.0048 -0.6415
 1004MOL0     C38460  -0.723   3.278  10.579  0.6696  0.5372  0.0818
 1004MOL0     C38461  -0.813   3.283  10.476  0.2153 -0.3441  0.8574
 1004MOL0     O38462  -1.024   3.402  10.309  0.5752 -0.0214  0.3721
 1004MOL0     C38463  -0.979   3.242   9.995  0.1114 -0.2651 -0.2519
 1004MOL0     C38464  -1.038   3.210   9.876  1.5592 -0.4536  0.7397
 1004MOL0     N38465  -0.868   3.311   9.303  0.4250 -0.2164  0.2824
 1004MOL0     N38466  -0.769   3.307   9.224 -0.1102 -0.0446  0.9136
 1004MOL0     C38467   0.292   3.907   9.423 -0.3191 -0.4219 -0.3809
 1004MOL0     C38468   0.378   4.018   9.392  0.3428 -0.6211 -0.0590
 1004MOL0     C38469   0.469   4.384   9.163  0.5354 -1.3995  0.8258
 1004MOL0     C38470   0.391   4.468   9.081 -0.8941  0.2369  1.2283
 1004MOL0     C38471   0.426   4.597   9.047 -0.4464  0.3954 -0.0910
 1004MOL0     C38472   0.549   4.646   9.094 -1.1504  0.6858 -0.5667
 1004MOL0     O38473   0.598   4.771   9.071  0.6731 -0.1724 -0.1955
 1004MOL0     C38474   0.503   4.859   8.998 -0.7882 -0.0299 -0.3400
 1004MOL0     C38475   0.560   4.997   9.002 -0.9417  0.5406 -0.6875
 1004MOL0     C38476   0.476   5.091   8.925  0.2353 -0.1024 -0.6116
 1004MOL0     C38477   0.488   5.241   8.967  0.1901  0.0382 -0.1432
 1004MOL0     C38478   0.458   5.252   9.107  0.7351  0.8224  0.1968
 1004MOL0     C38479   0.418   5.244   9.226  0.1943  0.3516  0.2478
 1004MOL0     C38480   0.625   4.561   9.178  0.2883 -0.3256  0.8402
 1004MOL0     C38481   0.601   4.428   9.202  1.2581  0.2158 -0.2713
 1004MOL0     C38482   0.697   4.355   9.281  1.0089  0.7497  0.3031
 1004MOL0     H38483   0.419   3.978   9.063 -3.1892  0.2606 -1.2195
 1004MOL0     H38484   0.308   3.755   9.121  1.9208  0.3952 -0.5976
 1004MOL0     H38485   0.072   3.809   9.502 -0.9685 -0.7955 -0.1497
 1004MOL0     H38486   0.135   3.648   9.541 -1.5139 -0.4283  1.0634
 1004MOL0     H38487  -0.018   3.541   9.405 -0.5755  1.7522 -3.6435
 1004MOL0     H38488  -0.094   3.654   9.525  1.2211 -1.2776  0.6592
 1004MOL0     H38489  -0.188   3.784   9.347 -3.4681 -3.2395  0.0964
 1004MOL0     H38490  -0.057   3.741   9.237  0.3139 -0.1544 -0.7345
 1004MOL0     H38491  -0.168   3.506   9.218  0.3928  0.1389  0.1620
 1004MOL0     H38492  -0.290   3.548   9.335  0.0014 -0.5807 -0.4437
 1004MOL0     H38493  -0.238   3.707   9.080  1.5370  0.0355  2.5755
 1004MOL0     H38494  -0.351   3.753   9.204 -2.5799 -0.9460 -0.7753
 1004MOL0     H38495  -0.451   3.641   9.029  0.0798  2.2508  2.4150
 1004MOL0     H38496  -0.362   3.484   9.062 -0.3395 -1.0356 -0.3900
 1004MOL0     H38497  -0.575   3.606   9.252 -2.8447 -1.3891  0.2016
 1004MOL0     H38498  -0.477   3.456   9.271 -0.5773  1.6591  1.5202
 1004MOL0     H38499  -0.650   3.548   9.029 -1.3937  0.2354  0.6536
 1004MOL0     H38500  -0.593   3.389   9.042 -2.4579 -0.6385  1.0423
 1004MOL0     H38501  -0.836   3.627   9.241  0.4741 -0.2583  1.9483
 1004MOL0     H38502  -1.107   3.525   9.358 -2.0440  0.6640  2.1449
 1004MOL0     H38503  -0.974   3.556   9.486 -2.4595  0.5349  1.1931
 1004MOL0     H38504  -1.142   3.298   9.439  0.1992 -0.6451  1.1823
 1004MOL0     H38505  -1.013   3.325   9.556  2.0428  2.5170 -0.4869
 1004MOL0     H38506  -1.133   3.476   9.680 -1.4867  0.1935  2.4051
 1004MOL0     H38507  -1.255   3.517   9.563 -3.0282  1.1016  5.6776
 1004MOL0     H38508  -1.360   3.369   9.722  3.3919 -0.1481  2.4101
 1004MOL0     H38509  -1.349   3.279   9.568 -2.0249 -1.3230  2.1300
 1004MOL0     H38510  -1.350   3.307   9.922  0.1994 -1.3987 -1.9761
 1004MOL0     H38511  -1.359   3.456  10.095  0.6553  1.9529 -0.0104
 1004MOL0     H38512  -1.220   3.499  10.183  2.0545 -2.6076 -2.7273
 1004MOL0     H38513  -1.319   3.366  10.249  2.2962 -0.0882  0.7790
 1004MOL0     H38514  -0.617   3.158  10.227  1.7086 -0.2199  0.3522
 1004MOL0     H38515  -0.446   3.174  10.414 -0.6857  0.5363  0.1866
 1004MOL0     H38516  -0.451   3.046  10.641  0.6886 -0.5904  0.4704
 1004MOL0     H38517  -0.321   3.170  10.630  0.5766 -1.3465 -0.5524
 1004MOL0     H38518  -0.295   3.046  10.831  1.7183  0.8676 -2.5530
 1004MOL0     H38519  -0.323   3.218  10.856  1.3222 -1.1651  1.9473
 1004MOL0     H38520  -0.565   3.165  10.918  1.6480  1.8389  1.2919
 1004MOL0     H38521  -0.438   3.102  11.028  1.6229 -1.8773 -0.1726
 1004MOL0     H38522  -0.434   2.886  10.945 -1.1444 -0.5493 -1.1874
 1004MOL0     H38523  -0.567   2.916  10.835  0.7089  4.9598 -1.2946
 1004MOL0     H38524  -0.566   2.927  11.138 -0.9117 -0.6924  1.4624
 1004MOL0     H38525  -0.701   2.990  11.038  0.8621  1.8396  5.4656
 1004MOL0     H38526  -0.609   2.713  11.058 -1.8372 -1.9481 -1.3594
 1004MOL0     H38527  -0.726   2.759  10.930  2.4050 -1.8960 -0.7098
 1004MOL0     H38528  -0.877   2.821  11.102 -0.9874  2.1000  2.5794
 1004MOL0     H38529  -0.759   2.842  11.227  0.3358  1.3796 -1.5284
 1004MOL0     H38530  -0.710   2.615  11.244 -0.6272 -3.4308 -2.8748
 1004MOL0     H38531  -0.855   2.570  11.153  2.0916 -1.4101  1.4803
 1004MOL0     H38532  -0.748   3.308  10.680  3.6276  0.0774  1.0626
 1004MOL0     H38533  -0.916   3.313  10.497 -0.1608 -0.6066 -0.4990
 1004MOL0     H38534  -0.874   3.216  10.000 -0.0759 -1.0837 -0.5299
 1004MOL0     H38535  -0.966   3.177   9.801  3.1310  0.3127  1.8555
 1004MOL0     H38536   0.278   3.889   9.529 -2.2905 -0.9513 -0.6962
 1004MOL0     H38537   0.394   4.100   9.462 -1.6618 -0.3160  0.1080
 1004MOL0     H38538   0.300   4.431   9.035 -1.6615  0.9001  2.1757
 1004MOL0     H38539   0.369   4.657   8.976  1.6391  1.9420 -0.5776
 1004MOL0     H38540   0.497   4.829   8.894 -1.7055  0.8036 -0.5394
 1004MOL0     H38541   0.407   4.871   9.048 -0.8379 -1.1775 -0.1451
 1004MOL0     H38542   0.664   4.997   8.971  0.2865 -4.7941  2.2217
 1004MOL0     H38543   0.572   5.022   9.108  0.1525 -0.8730 -0.4476
 1004MOL0     H38544   0.494   5.079   8.818 -2.6959 -1.3725 -1.0529
 1004MOL0     H38545   0.372   5.062   8.941  0.9202 -1.9185  1.0630
 1004MOL0     H38546   0.412   5.295   8.910 -1.0181 -0.6453  0.7853
 1004MOL0     H38547   0.588   5.284   8.950  0.0525  0.4195 -0.0124
 1004MOL0     H38548   0.389   5.235   9.328  1.9108  1.7796  0.9248
 1004MOL0     H38549   0.723   4.600   9.205 -0.3690  3.4780 -1.5496
 1004MOL0     H38550   0.663   4.333   9.383 -0.9297  1.5055 -0.1314
 1004MOL0     H38551   0.718   4.256   9.239 -1.7029 -0.4212  1.4753
 1004MOL0     H38552   0.792   4.409   9.286  2.5530 -1.9251  2.2559
 1005MOL0     O38553   3.334   1.934   7.688  1.0794  0.3592  0.1039
 1005MOL0     C38554   3.395   2.031   7.733 -0.6224  0.7541  0.2408
 1005MOL0     O38555   3.390   2.157   7.680 -1.1101 -0.0512 -0.4066
 1005MOL0     C38556   3.273   2.211   7.635 -0.4208 -0.5920 -0.5685
 1005MOL0     C38557   3.144   2.173   7.661  0.5160  0.4592  0.0204
 1005MOL0     C38558   3.023   2.236   7.625  0.6177  0.7399  0.0788
 1005MOL0     C38559   3.028   2.361   7.568  0.0772  0.7686  0.4413
 1005MOL0     O38560   2.908   2.423   7.549  0.4564  0.9761  0.7518
 1005MOL0     C38561   2.904   2.498   7.424 -0.7107  0.3625 -0.2743
 1005MOL0     C38562   2.772   2.567   7.410 -0.8928  0.4618 -0.1371
 1005MOL0     C38563   2.762   2.697   7.493 -0.2927 -0.0727 -0.2848
 1005MOL0     C38564   2.622   2.764   7.487 -0.4043 -0.9694  0.0134
 1005MOL0     C38565   2.617   2.906   7.560  0.2861 -0.8790 -0.3886
 1005MOL0     C38566   2.469   2.959   7.580  0.2780  0.8355 -0.6792
 1005MOL0     C38567   2.466   3.108   7.590 -0.3689  0.3632  0.0936
 1005MOL0     C38568   2.479   3.173   7.447 -0.6398 -0.6243 -0.7197
 1005MOL0     N38569   2.479   3.320   7.472  0.1804 -0.2252  0.3524
 1005MOL0     C38570   2.591   3.394   7.491 -0.2667  0.1101 -0.0790
 1005MOL0     C38571   2.542   3.516   7.529  0.0080 -0.3636  0.1959
 1005MOL0     C38572   2.624   3.634   7.563  0.7513 -0.0416  0.5404
 1005MOL0     C38573   2.714   3.605   7.682  0.2585 -0.1998  0.0263
 1005MOL0     C38574   2.751   3.725   7.779  0.6414 -0.4003  0.6963
 1005MOL0     C38575   2.847   3.661   7.887  0.0715 -0.2119 -0.5706
 1005MOL0     O38576   2.785   3.573   7.985 -0.8236  0.1265  0.4560
 1005MOL0     C38577   2.859   3.515   8.087 -0.0074  0.6731 -0.7825
 1005MOL0     C38578   2.791   3.428   8.171  0.6312 -0.7743  0.0882
 1005MOL0     C38579   2.849   3.368   8.282 -0.7346 -0.9851  0.7926
 1005MOL0     C38580   2.753   3.273   8.355  0.1194  0.0872 -0.2928
 1005MOL0     C38581   2.984   3.396   8.317  0.8335  0.7771 -0.7772
 1005MOL0     C38582   3.059   3.328   8.430  0.4333  0.5339  0.2335
 1005MOL0     O38583   2.995   3.308   8.552  0.3181 -1.1511 -0.0772
 1005MOL0     C38584   3.070   3.250   8.651  0.7664 -0.6030 -0.2029
 1005MOL0     C38585   3.185   3.308   8.706  0.0731  0.1482 -0.3650
 1005MOL0     C38586   3.248   3.245   8.815  0.4837  1.2095  0.9917
 1005MOL0     C38587   3.217   3.107   8.834 -0.0909 -0.2356 -0.6225
 1005MOL0     O38588   3.304   3.048   8.919 -0.2398 -0.0599 -0.3723
 1005MOL0     C38589   3.257   2.938   9.003  0.5150  0.0444  0.6764
 1005MOL0     C38590   3.358   2.906   9.110  0.2694 -0.6918 -0.5937
 1005MOL0     C38591   3.506   2.946   9.085  0.6382 -0.2891  1.0010
 1005MOL0     C38592   3.602   2.872   9.193 -0.5395 -0.4529 -0.1646
 1005MOL0     C38593   3.741   2.936   9.181  0.7059 -0.3392  0.5583
 1005MOL0     C38594   3.845   2.868   9.260 -0.3548 -0.2515  0.2981
 1005MOL0     C38595   3.986   2.917   9.218  0.1807 -0.0654 -0.6438
 1005MOL0     C38596   4.095   2.862   9.307  0.0612 -0.2452 -0.1379
 1005MOL0    Cl38597   4.108   2.914   9.470  0.0416  0.1923  0.1221
 1005MOL0     C38598   3.107   3.044   8.780  0.2122  0.5151 -1.1900
 1005MOL0     C38599   3.029   3.126   8.695  0.0528 -0.0658  0.2059
 1005MOL0     O38600   3.180   3.314   8.412 -0.5425  0.1007 -0.3905
 1005MOL0     C38601   3.054   3.478   8.220 -0.5269  0.3557  0.3536
 1005MOL0     C38602   2.982   3.548   8.123  0.0466 -0.6438  0.3659
 1005MOL0     N38603   2.399   3.514   7.524  0.0467 -0.5430 -0.2947
 1005MOL0     N38604   2.364   3.394   7.484  0.0076 -0.6701 -1.0056
 1005MOL0     C38605   3.159   2.405   7.541 -0.3695  0.8888  0.6021
 1005MOL0     C38606   3.275   2.333   7.572 -0.5454  0.5531 -0.0441
 1005MOL0     C38607   3.519   2.006   7.823 -0.2950  0.8545  1.1631
 1005MOL0     C38608   3.549   1.871   7.850  0.9622  0.4575  1.1321
 1005MOL0     C38609   3.657   1.822   7.923  0.6830  0.2478 -0.7281
 1005MOL0     C38610   3.748   1.910   7.981 -0.1551 -0.3631  0.7526
 1005MOL0     O38611   3.850   1.849   8.050  0.0277  0.0685  0.5363
 1005MOL0     C38612   3.948   1.932   8.109 -0.3842 -0.7511  0.4662
 1005MOL0     C38613   4.038   1.833   8.189 -0.1227  0.0831  0.2448
 1005MOL0     C38614   4.096   1.730   8.103 -0.3993 -0.0929  0.3206
 1005MOL0     C38615   4.225   1.764   8.032  0.2027  0.4065  0.2097
 1005MOL0     C38616   4.289   1.637   7.994 -0.0981  0.7386 -0.2786
 1005MOL0     C38617   4.330   1.527   7.961 -0.1020 -0.1610 -0.4284
 1005MOL0     C38618   3.726   2.050   7.952 -0.3074 -0.0516 -0.2973
 1005MOL0     C38619   3.611   2.100   7.883  0.8107 -0.7485  0.7450
 1005MOL0     C38620   3.607   2.252   7.869  0.2536 -0.3730 -1.1184
 1005MOL0     H38621   3.130   2.081   7.716 -3.1683  0.8454 -0.0500
 1005MOL0     H38622   2.931   2.186   7.657  1.7594 -1.5116  0.0796
 1005MOL0     H38623   2.934   2.429   7.345 -0.0815  0.8539 -0.4719
 1005MOL0     H38624   2.977   2.580   7.426  1.6470 -1.6177 -0.0496
 1005MOL0     H38625   2.779   2.588   7.303  1.2827 -2.4923 -0.7192
 1005MOL0     H38626   2.690   2.497   7.425 -3.1136  2.5312 -1.7844
 1005MOL0     H38627   2.792   2.666   7.594  0.7379  0.6512 -0.3551
 1005MOL0     H38628   2.835   2.771   7.460 -0.9494  0.1243 -1.3447
 1005MOL0     H38629   2.598   2.796   7.385  2.1659  3.6114  0.5651
 1005MOL0     H38630   2.542   2.705   7.532  1.1087 -1.5388  2.1210
 1005MOL0     H38631   2.674   2.983   7.506  0.0438 -0.7027 -0.3978
 1005MOL0     H38632   2.665   2.905   7.658 -0.8214  4.1293  0.5178
 1005MOL0     H38633   2.391   2.928   7.511 -0.1864 -2.8551  1.2692
 1005MOL0     H38634   2.434   2.913   7.673  1.9067  1.3980  0.2664
 1005MOL0     H38635   2.538   3.141   7.665 -0.1852 -1.8193  0.9249
 1005MOL0     H38636   2.365   3.128   7.628 -0.6202 -0.9423  0.1715
 1005MOL0     H38637   2.573   3.150   7.397  0.2743  0.7351  0.3050
 1005MOL0     H38638   2.402   3.138   7.377 -1.2818  2.8081 -1.9474
 1005MOL0     H38639   2.694   3.360   7.490  0.1782  1.4115  0.2576
 1005MOL0     H38640   2.562   3.722   7.581  0.9016 -0.1136  1.4496
 1005MOL0     H38641   2.692   3.647   7.478 -0.1794 -0.3534 -0.2612
 1005MOL0     H38642   2.670   3.523   7.739  2.0200 -1.3840 -0.2281
 1005MOL0     H38643   2.808   3.562   7.646  0.3160 -2.0279  2.1886
 1005MOL0     H38644   2.796   3.805   7.720  0.1468  0.5444  1.5879
 1005MOL0     H38645   2.665   3.779   7.817  1.3023  0.2227  1.3424
 1005MOL0     H38646   2.939   3.618   7.848 -0.4380 -2.4713  0.5666
 1005MOL0     H38647   2.881   3.751   7.941  1.1987 -1.6544  1.2499
 1005MOL0     H38648   2.688   3.407   8.146 -1.0837  1.5060  4.2495
 1005MOL0     H38649   2.769   3.286   8.462 -0.0698 -1.1518 -0.0980
 1005MOL0     H38650   2.766   3.168   8.324 -2.0625  0.3984 -2.5220
 1005MOL0     H38651   2.647   3.299   8.352  0.0382 -0.2996 -2.7095
 1005MOL0     H38652   3.229   3.401   8.672  1.9355  0.4544  2.5518
 1005MOL0     H38653   3.335   3.292   8.860 -0.6291  2.9671  1.4157
 1005MOL0     H38654   3.167   2.964   9.060 -0.0941  0.8308 -0.5980
 1005MOL0     H38655   3.241   2.851   8.938  4.9335  2.3022 -4.1825
 1005MOL0     H38656   3.325   2.959   9.200 -4.5311  1.0802 -3.0161
 1005MOL0     H38657   3.351   2.800   9.135 -3.6946  0.1520  3.2839
 1005MOL0     H38658   3.505   3.055   9.084  1.2115 -0.2684  2.0437
 1005MOL0     H38659   3.541   2.923   8.984  0.4156  3.2351 -0.0058
 1005MOL0     H38660   3.619   2.767   9.166 -0.0748 -0.4922  0.2507
 1005MOL0     H38661   3.562   2.870   9.295 -0.4046  4.3558  0.1884
 1005MOL0     H38662   3.766   2.929   9.075 -0.5593 -0.8640  0.2712
 1005MOL0     H38663   3.716   3.040   9.204 -3.0985 -1.5852  3.1550
 1005MOL0     H38664   3.833   2.760   9.244  1.5012 -0.3801 -0.4658
 1005MOL0     H38665   3.820   2.906   9.359  1.4861 -2.0723  1.5391
 1005MOL0     H38666   3.983   3.025   9.233 -1.3138 -0.2947  1.0461
 1005MOL0     H38667   4.005   2.901   9.111  1.3195  3.3398 -1.0660
 1005MOL0     H38668   4.194   2.885   9.266  0.4581  1.3246  1.5695
 1005MOL0     H38669   4.092   2.753   9.306 -2.3811 -0.2415  0.7007
 1005MOL0     H38670   3.090   2.943   8.814  0.0365  0.5014 -1.3125
 1005MOL0     H38671   2.932   3.108   8.649 -1.2070  2.9413  1.3965
 1005MOL0     H38672   3.161   3.496   8.228 -0.3650 -0.0595 -0.6808
 1005MOL0     H38673   3.031   3.638   8.085 -0.7602  0.9632  2.8828
 1005MOL0     H38674   3.167   2.506   7.500  1.5049  1.1358  1.4898
 1005MOL0     H38675   3.370   2.375   7.542 -1.0268  0.3660 -1.9584
 1005MOL0     H38676   3.478   1.796   7.818  0.9577  1.1987 -0.6736
 1005MOL0     H38677   3.680   1.716   7.933 -1.9862 -0.3645 -0.4949
 1005MOL0     H38678   4.008   1.990   8.038 -2.0575  3.1054  1.9364
 1005MOL0     H38679   3.903   2.014   8.165  1.9778  1.4722 -0.6683
 1005MOL0     H38680   3.972   1.797   8.267 -1.3208  2.2329  0.3137
 1005MOL0     H38681   4.123   1.884   8.236  0.9299 -0.9017 -0.5172
 1005MOL0     H38682   4.127   1.649   8.169  2.4151  0.6193 -0.0312
 1005MOL0     H38683   4.028   1.688   8.027 -1.6190  0.3902  1.1169
 1005MOL0     H38684   4.297   1.813   8.098  1.3312 -1.1606  0.2219
 1005MOL0     H38685   4.225   1.831   7.946  0.2630  0.4901  0.2748
 1005MOL0     H38686   4.366   1.439   7.911  0.5030  0.4673 -1.1303
 1005MOL0     H38687   3.790   2.132   7.982 -1.1611  1.1794 -1.6823
 1005MOL0     H38688   3.656   2.302   7.953 -1.5789 -0.6551  0.1960
 1005MOL0     H38689   3.660   2.282   7.778 -0.5748  1.8053 -0.9439
 1005MOL0     H38690   3.508   2.296   7.853  0.3334 -0.0091 -0.6507
 1006MOL0     O38691  10.315   1.818   0.304 -0.9687  0.2905 -0.5647
 1006MOL0     C38692  10.195   1.813   0.313 -0.5016  0.4970 -0.6214
 1006MOL0     O38693  10.116   1.919   0.324  0.2109  0.2692 -0.2938
 1006MOL0     C38694  10.174   2.034   0.358  0.1262 -0.4889  0.5841
 1006MOL0     C38695  10.169   2.140   0.263 -0.0629  0.9777 -0.7926
 1006MOL0     C38696  10.242   2.254   0.285 -0.1129  0.1624  0.0104
 1006MOL0     C38697  10.305   2.274   0.403 -0.4284 -1.0330  0.2994
 1006MOL0     O38698  10.386   2.391   0.413 -0.2923 -0.0758  0.1973
 1006MOL0     C38699  10.514   2.377   0.488  0.2141 -0.3792  0.5592
 1006MOL0     C38700  10.619   2.295   0.413  0.1791  0.3099  0.2883
 1006MOL0     C38701  10.749   2.289   0.491  0.4545 -0.2482 -0.3262
 1006MOL0     C38702  10.835   2.408   0.462 -0.5989  0.9749  0.1521
 1006MOL0     C38703  10.960   2.423   0.562 -0.5433 -0.2074  0.5994
 1006MOL0     C38704  11.057   2.317   0.577 -1.2979 -0.1695 -0.4296
 1006MOL0     C38705  11.143   2.287   0.447  0.5352 -0.0034 -0.4151
 1006MOL0     C38706  11.204   2.151   0.451 -0.1314 -0.0554  1.0437
 1006MOL0     N38707  11.302   2.123   0.554 -0.7136 -0.2336  0.1921
 1006MOL0     C38708  11.287   2.130   0.687  0.2110 -0.4634 -0.1171
 1006MOL0     C38709  11.417   2.120   0.724  0.1194 -0.1765  0.4282
 1006MOL0     C38710  11.459   2.116   0.868 -0.4713 -0.2016  0.2860
 1006MOL0     C38711  11.439   1.975   0.934  0.1716  0.5333 -0.1364
 1006MOL0     C38712  11.375   1.983   1.081 -0.4503  0.0228  0.5455
 1006MOL0     C38713  11.350   1.844   1.143 -0.7301 -0.4717  0.4429
 1006MOL0     O38714  11.324   1.863   1.280  0.5539  0.1059  0.4105
 1006MOL0     C38715  11.339   1.753   1.361 -0.9068  0.6680  0.0214
 1006MOL0     C38716  11.392   1.614   1.336  0.8054  0.0801 -0.5833
 1006MOL0     C38717  11.401   1.515   1.436  0.2465 -0.2985 -0.6060
 1006MOL0     C38718  11.469   1.376   1.407 -0.2484 -0.6473 -0.5093
 1006MOL0     C38719  11.350   1.546   1.569 -1.0789 -0.4380  0.3667
 1006MOL0     C38720  11.345   1.439   1.678 -0.4913  1.1561  0.6066
 1006MOL0     O38721  11.288   1.319   1.659 -0.0479 -0.1513  0.1584
 1006MOL0     C38722  11.279   1.236   1.775  0.0761  0.6465 -1.1036
 1006MOL0     C38723  11.352   1.237   1.899 -0.3297  1.0444 -0.4669
 1006MOL0     C38724  11.318   1.152   2.010 -0.7522 -0.2078  0.5070
 1006MOL0     C38725  11.220   1.051   1.996 -1.3379 -1.1364 -0.2074
 1006MOL0     O38726  11.197   0.961   2.092  0.8317 -0.3169  0.2542
 1006MOL0     C38727  11.291   0.936   2.193  0.5021  0.1699 -0.4153
 1006MOL0     C38728  11.287   1.027   2.320  0.2847 -0.0806 -0.3200
 1006MOL0     C38729  11.377   0.997   2.429 -0.8675  0.4278 -0.6027
 1006MOL0     C38730  11.525   1.021   2.393  0.9558 -0.2054  0.4657
 1006MOL0     C38731  11.608   1.006   2.519 -0.7138  0.2865 -0.0341
 1006MOL0     C38732  11.762   1.042   2.512  0.0131  0.3765 -0.6142
 1006MOL0     C38733  11.819   1.063   2.654  0.3308  0.2908 -0.4316
 1006MOL0     C38734  11.963   1.106   2.672 -0.4295 -0.2215 -0.2744
 1006MOL0    Cl38735  12.070   1.042   2.544  0.1258 -0.2715 -0.4863
 1006MOL0     C38736  11.165   1.036   1.865 -0.3105 -0.4997 -0.3555
 1006MOL0     C38737  11.185   1.130   1.759 -0.2911  1.3308 -0.0414
 1006MOL0     O38738  11.374   1.489   1.786 -0.7265  0.0163  0.0300
 1006MOL0     C38739  11.314   1.679   1.593  1.0578  0.0654 -0.0184
 1006MOL0     C38740  11.304   1.778   1.492 -0.2786  0.5096 -0.6840
 1006MOL0     N38741  11.501   2.086   0.624 -0.1528 -0.7024 -0.2697
 1006MOL0     N38742  11.420   2.083   0.525 -0.7855 -0.5492 -0.2129
 1006MOL0     C38743  10.301   2.181   0.499 -0.5355 -0.0552  0.7358
 1006MOL0     C38744  10.229   2.064   0.488  1.0572 -0.9116  1.3978
 1006MOL0     C38745  10.129   1.682   0.290  0.0553  0.2202  0.1891
 1006MOL0     C38746   9.990   1.676   0.333 -0.6135  1.0341  0.4999
 1006MOL0     C38747   9.916   1.559   0.308  0.1503  0.3220 -0.5025
 1006MOL0     C38748   9.981   1.439   0.266  0.0851  0.2572 -0.9182
 1006MOL0     O38749   9.892   1.332   0.262  0.2550 -0.2857 -0.0337
 1006MOL0     C38750   9.940   1.205   0.239 -0.3321  0.0977 -0.1007
 1006MOL0     C38751   9.835   1.090   0.270 -0.3447 -0.7521  1.3074
 1006MOL0     C38752   9.823   1.053   0.410 -0.3970  0.5525 -1.0177
 1006MOL0     C38753   9.746   1.156   0.503 -0.3704 -0.1332  1.2495
 1006MOL0     C38754   9.766   1.106   0.634 -1.1068 -0.0788  0.1255
 1006MOL0     C38755   9.769   1.073   0.750 -0.1166 -0.6032  0.0101
 1006MOL0     C38756  10.115   1.447   0.226  0.5971  0.5723  0.4247
 1006MOL0     C38757  10.185   1.564   0.243 -0.1305  0.3374 -0.2740
 1006MOL0     C38758  10.328   1.570   0.193  0.5525 -0.6515 -0.6078
 1006MOL0     H38759  10.117   2.114   0.171 -2.3051 -0.5570  0.8066
 1006MOL0     H38760  10.237   2.333   0.210 -2.5473 -2.3049 -2.7154
 1006MOL0     H38761  10.499   2.348   0.592  1.3150 -1.0086  0.5577
 1006MOL0     H38762  10.553   2.478   0.506  1.4104 -0.5393 -0.8940
 1006MOL0     H38763  10.582   2.192   0.423 -3.1451  1.4190  0.7143
 1006MOL0     H38764  10.624   2.335   0.311 -0.5695  0.9864  0.5056
 1006MOL0     H38765  10.731   2.261   0.596 -0.0222 -2.2572 -0.8968
 1006MOL0     H38766  10.809   2.202   0.463  0.9526 -0.4298  1.1926
 1006MOL0     H38767  10.880   2.402   0.363  1.6434 -2.1860  1.2211
 1006MOL0     H38768  10.781   2.502   0.477 -1.5724  0.0802  2.8176
 1006MOL0     H38769  10.915   2.436   0.661  0.6771  0.8760  1.0470
 1006MOL0     H38770  11.016   2.512   0.532  1.7614 -0.1873  4.3232
 1006MOL0     H38771  11.123   2.357   0.654 -4.2657  3.9212  0.3215
 1006MOL0     H38772  11.015   2.222   0.613 -2.1085 -1.2409 -3.8361
 1006MOL0     H38773  11.216   2.366   0.427  0.7203 -0.1359 -0.2637
 1006MOL0     H38774  11.080   2.299   0.358  0.2832  0.9263 -0.1162
 1006MOL0     H38775  11.132   2.069   0.464 -0.3619 -0.3107 -1.3145
 1006MOL0     H38776  11.258   2.123   0.360 -1.9063 -1.2198  0.2884
 1006MOL0     H38777  11.199   2.147   0.748  0.5486  2.7966 -0.3785
 1006MOL0     H38778  11.401   2.196   0.915 -1.6916 -2.0249  2.0642
 1006MOL0     H38779  11.565   2.139   0.864 -0.4250 -0.3136  0.8509
 1006MOL0     H38780  11.391   1.901   0.869  5.0966 -2.0779 -1.3445
 1006MOL0     H38781  11.540   1.934   0.947 -0.0343  0.7967  3.0831
 1006MOL0     H38782  11.451   2.032   1.143 -0.3429 -0.8444  1.1173
 1006MOL0     H38783  11.280   2.036   1.073  0.9016  2.7284  1.0717
 1006MOL0     H38784  11.259   1.810   1.092 -1.1055 -0.3005  0.9915
 1006MOL0     H38785  11.439   1.782   1.132 -0.3561  0.1927 -0.3526
 1006MOL0     H38786  11.417   1.594   1.232 -0.9302  0.9140 -1.2139
 1006MOL0     H38787  11.447   1.302   1.485  0.2935  0.4013  0.6890
 1006MOL0     H38788  11.578   1.378   1.402 -0.3083  1.8465 -3.3445
 1006MOL0     H38789  11.433   1.342   1.310  0.2251  3.5501 -2.3328
 1006MOL0     H38790  11.443   1.294   1.915  0.1347  0.5762 -1.3465
 1006MOL0     H38791  11.390   1.155   2.091 -0.9133 -2.7123  0.8130
 1006MOL0     H38792  11.269   0.837   2.234  1.3967  0.5323  0.9874
 1006MOL0     H38793  11.385   0.930   2.138 -0.0588  0.1411 -1.3966
 1006MOL0     H38794  11.298   1.130   2.283 -0.9000  0.0137 -0.4509
 1006MOL0     H38795  11.187   1.025   2.363  0.6637 -1.3984  0.5519
 1006MOL0     H38796  11.365   0.890   2.445  2.4763 -0.1231 -1.0506
 1006MOL0     H38797  11.349   1.062   2.512 -0.4682 -0.2091  0.0440
 1006MOL0     H38798  11.526   1.119   2.344 -2.4473 -0.4756 -0.3913
 1006MOL0     H38799  11.564   0.954   2.316  0.9844  0.0335  0.2686
 1006MOL0     H38800  11.560   1.067   2.596 -0.8201  0.7943 -0.4980
 1006MOL0     H38801  11.606   0.902   2.552 -0.6196  0.6179  1.0522
 1006MOL0     H38802  11.769   1.137   2.458 -3.2357  2.1541  1.7098
 1006MOL0     H38803  11.821   0.963   2.466  1.4049 -0.0531  1.7081
 1006MOL0     H38804  11.820   0.968   2.709 -1.0255  0.4653 -0.0870
 1006MOL0     H38805  11.745   1.127   2.700 -2.0379 -2.0007 -0.8040
 1006MOL0     H38806  11.989   1.075   2.773 -2.1595  1.2992  0.7091
 1006MOL0     H38807  11.969   1.215   2.669  2.7054 -0.1531  2.7206
 1006MOL0     H38808  11.087   0.967   1.835 -2.2935  2.4552 -2.6986
 1006MOL0     H38809  11.146   1.110   1.660  0.0789  1.1155 -0.1480
 1006MOL0     H38810  11.280   1.714   1.690 -0.9137  4.2945 -1.9625
 1006MOL0     H38811  11.275   1.879   1.517 -3.4266 -0.5625  0.5179
 1006MOL0     H38812  10.354   2.200   0.592  1.6559  2.6384 -0.9170
 1006MOL0     H38813  10.217   2.002   0.576  0.6464 -3.2529 -0.2268
 1006MOL0     H38814   9.934   1.764   0.364 -0.3000  0.9258  1.3684
 1006MOL0     H38815   9.813   1.555   0.341  0.8021  0.4921  1.7382
 1006MOL0     H38816   9.957   1.204   0.130 -0.8056  0.2122 -0.1745
 1006MOL0     H38817  10.034   1.189   0.292  1.4019 -3.3098 -3.6641
 1006MOL0     H38818   9.861   1.000   0.214 -0.0495  0.8543 -1.3435
 1006MOL0     H38819   9.743   1.131   0.227  0.8713 -1.7257 -2.6581
 1006MOL0     H38820   9.781   0.953   0.417 -0.6285  0.6201 -1.3923
 1006MOL0     H38821   9.924   1.047   0.451 -1.2828 -0.5467  1.1813
 1006MOL0     H38822   9.639   1.149   0.479 -0.7273  0.9797  2.3908
 1006MOL0     H38823   9.788   1.256   0.493  4.6072 -1.7061  3.3859
 1006MOL0     H38824   9.796   1.037   0.847  3.6394 -0.3729 -0.7746
 1006MOL0     H38825  10.171   1.368   0.177 -1.6105  0.0589 -1.4437
 1006MOL0     H38826  10.390   1.568   0.283  0.4800  1.5571 -0.4568
 1006MOL0     H38827  10.348   1.485   0.127 -3.4983 -1.2920 -1.2782
 1006MOL0     H38828  10.356   1.663   0.141 -1.4410 -0.2620 -1.0458
 1007MOL0     O38829   8.350   6.170   6.661 -0.7166  0.2071  0.2188
 1007MOL0     C38830   8.398   6.266   6.708  0.7351 -0.5464 -1.4158
 1007MOL0     O38831   8.334   6.353   6.787 -0.4371  0.1579 -0.4446
 1007MOL0     C38832   8.200   6.344   6.813 -0.0279 -0.4690  0.0189
 1007MOL0     C38833   8.156   6.432   6.916  0.8154 -0.6504  0.3851
 1007MOL0     C38834   8.026   6.448   6.949 -0.2251 -0.4174 -0.8088
 1007MOL0     C38835   7.922   6.372   6.888 -0.0442  0.4995 -0.7805
 1007MOL0     O38836   7.789   6.410   6.919 -0.3793 -0.0787  0.3250
 1007MOL0     C38837   7.679   6.339   6.862 -0.2755 -0.5144 -0.0165
 1007MOL0     C38838   7.585   6.439   6.807  0.3521  0.2251  0.3200
 1007MOL0     C38839   7.653   6.507   6.691  0.3734 -0.3805  1.0848
 1007MOL0     C38840   7.585   6.475   6.559  0.0146  0.8009 -0.5858
 1007MOL0     C38841   7.674   6.519   6.447  0.2004 -0.1154  0.4913
 1007MOL0     C38842   7.710   6.670   6.451 -0.0176 -0.3588  0.8864
 1007MOL0     C38843   7.762   6.715   6.322  0.7264 -0.4172 -0.3210
 1007MOL0     C38844   7.757   6.861   6.305  0.0300  0.1097  0.4754
 1007MOL0     N38845   7.860   6.904   6.201  0.3518 -0.0212  0.5637
 1007MOL0     C38846   7.988   6.922   6.240 -0.6246  0.9116 -0.5754
 1007MOL0     C38847   8.053   6.946   6.121 -0.2478  0.1253  0.9031
 1007MOL0     C38848   8.199   6.985   6.102 -0.8849  0.9761 -0.2009
 1007MOL0     C38849   8.226   7.095   5.997  0.5400 -0.2441  0.6744
 1007MOL0     C38850   8.371   7.091   5.941 -0.2542  0.3089 -0.5508
 1007MOL0     C38851   8.382   7.065   5.791 -0.5145  0.0114  0.2290
 1007MOL0     O38852   8.523   7.026   5.752  0.5457  0.6017  0.1858
 1007MOL0     C38853   8.547   6.995   5.619  0.4783  0.2927  0.4795
 1007MOL0     C38854   8.449   6.977   5.515 -0.7409  0.1053  0.2269
 1007MOL0     C38855   8.478   6.956   5.381 -0.0533  0.2828  0.1576
 1007MOL0     C38856   8.347   6.931   5.304 -0.9129  0.3042  1.2639
 1007MOL0     C38857   8.609   6.952   5.338 -0.0690 -0.1154 -0.5541
 1007MOL0     C38858   8.647   6.919   5.198 -0.1150  0.7561  0.1120
 1007MOL0     O38859   8.587   6.998   5.094  0.5242  0.6552 -1.1231
 1007MOL0     C38860   8.561   6.953   4.969 -0.1925 -0.2165  0.2217
 1007MOL0     C38861   8.591   6.826   4.919  0.0519 -0.3155 -0.9277
 1007MOL0     C38862   8.580   6.800   4.787  0.0473  0.2706 -0.2850
 1007MOL0     C38863   8.538   6.902   4.698  0.2534  1.4181 -1.0970
 1007MOL0     O38864   8.538   6.867   4.573 -0.2987  1.0547  0.2309
 1007MOL0     C38865   8.412   6.899   4.492 -0.6409  0.8820  0.5077
 1007MOL0     C38866   8.398   6.832   4.354 -1.3505  1.0703  0.7403
 1007MOL0     C38867   8.420   6.673   4.359  0.1814  0.6984 -0.5364
 1007MOL0     C38868   8.567   6.635   4.358 -0.2362 -0.3979  0.6573
 1007MOL0     C38869   8.583   6.485   4.384  0.9348 -0.1867 -0.0978
 1007MOL0     C38870   8.648   6.451   4.516 -0.3580 -0.6174 -0.8714
 1007MOL0     C38871   8.791   6.380   4.507  0.3182 -0.0950  0.5505
 1007MOL0     C38872   8.848   6.365   4.641  0.0479 -1.2878 -0.1016
 1007MOL0    Cl38873   9.020   6.347   4.631 -0.0250  0.7774  0.1068
 1007MOL0     C38874   8.517   7.027   4.746  0.6213 -0.9485  0.2416
 1007MOL0     C38875   8.521   7.055   4.878  0.1403 -0.0198 -0.1189
 1007MOL0     O38876   8.730   6.834   5.181  0.1408 -0.3087  0.1978
 1007MOL0     C38877   8.705   6.979   5.436 -0.7303 -0.4104  0.1338
 1007MOL0     C38878   8.679   7.000   5.571 -0.8157 -0.3506  0.5375
 1007MOL0     N38879   7.971   6.920   6.016  0.3123 -0.4452  0.1920
 1007MOL0     N38880   7.855   6.890   6.066  0.0046 -0.4776 -0.3123
 1007MOL0     C38881   7.962   6.270   6.801  0.8556  0.6290  0.6585
 1007MOL0     C38882   8.098   6.261   6.758 -0.0652  0.2441 -0.2250
 1007MOL0     C38883   8.540   6.283   6.698 -0.1180  1.2988  0.9517
 1007MOL0     C38884   8.623   6.169   6.718 -0.6966  0.0105 -0.5784
 1007MOL0     C38885   8.758   6.182   6.698  1.1696  0.2045  0.0314
 1007MOL0     C38886   8.819   6.307   6.670 -0.3361 -0.3443 -0.8960
 1007MOL0     O38887   8.951   6.326   6.645  0.4498 -0.2679 -0.0822
 1007MOL0     C38888   9.036   6.213   6.629  0.1367  0.2309  0.3977
 1007MOL0     C38889   9.167   6.274   6.582  0.0017 -0.4849 -0.6426
 1007MOL0     C38890   9.221   6.413   6.635  0.1023  0.2728  0.4936
 1007MOL0     C38891   9.231   6.420   6.782  0.3956 -0.5185 -0.6596
 1007MOL0     C38892   9.337   6.348   6.836  1.0283  0.1195 -0.9824
 1007MOL0     C38893   9.426   6.284   6.894 -0.2389 -1.1196  0.0094
 1007MOL0     C38894   8.738   6.419   6.663  0.0670  0.6016 -0.0203
 1007MOL0     C38895   8.599   6.405   6.661 -0.8877  0.2346  0.1637
 1007MOL0     C38896   8.508   6.510   6.608  0.1657 -0.1276 -0.6113
 1007MOL0     H38897   8.229   6.510   6.939  0.4616 -0.4820  0.9633
 1007MOL0     H38898   7.992   6.529   7.012  1.9570 -0.1638  0.1109
 1007MOL0     H38899   7.631   6.282   6.941  0.7301  0.0432  1.0195
 1007MOL0     H38900   7.716   6.273   6.783  0.4725  0.4110 -0.4670
 1007MOL0     H38901   7.490   6.392   6.779  0.3092 -1.0075  2.3208
 1007MOL0     H38902   7.564   6.514   6.883 -2.9641  0.5958 -0.7842
 1007MOL0     H38903   7.674   6.612   6.714  3.6492 -0.7731  0.3601
 1007MOL0     H38904   7.751   6.461   6.677 -0.4687 -2.1922  0.9093
 1007MOL0     H38905   7.569   6.367   6.550 -0.2646  0.8283 -0.4137
 1007MOL0     H38906   7.485   6.519   6.556  0.6923  2.3915 -3.3035
 1007MOL0     H38907   7.624   6.480   6.358 -2.1463  0.6033  1.4130
 1007MOL0     H38908   7.768   6.465   6.458 -0.3589 -0.6051  4.0384
 1007MOL0     H38909   7.614   6.718   6.476 -0.2644 -0.0348 -0.6041
 1007MOL0     H38910   7.781   6.692   6.531  1.1800 -1.3523  0.1391
 1007MOL0     H38911   7.717   6.674   6.230  2.1007 -2.1844 -0.2513
 1007MOL0     H38912   7.867   6.689   6.334  1.0862  0.5728 -1.1533
 1007MOL0     H38913   7.654   6.885   6.277 -0.5299  0.4366  2.5935
 1007MOL0     H38914   7.772   6.918   6.398  0.5189  2.3431 -0.8864
 1007MOL0     H38915   8.028   6.935   6.340 -1.3586  0.3247 -0.1881
 1007MOL0     H38916   8.241   6.894   6.059 -0.5973  1.7052 -1.5011
 1007MOL0     H38917   8.241   7.022   6.196 -3.2930  3.9061 -0.1176
 1007MOL0     H38918   8.144   7.087   5.925  0.0688 -2.2155  1.3592
 1007MOL0     H38919   8.216   7.191   6.046 -0.1685  1.7781 -3.0334
 1007MOL0     H38920   8.423   7.182   5.971 -2.5224  0.3677  4.2450
 1007MOL0     H38921   8.422   7.012   5.997 -0.5187  2.3919  2.9460
 1007MOL0     H38922   8.319   6.986   5.749 -1.9931  2.5648 -2.6487
 1007MOL0     H38923   8.343   7.147   5.731  2.8603  0.9290 -0.9584
 1007MOL0     H38924   8.343   6.983   5.541 -1.0575  0.2388 -1.0485
 1007MOL0     H38925   8.357   6.870   5.214  1.2363  2.0756  0.1658
 1007MOL0     H38926   8.302   7.029   5.283  1.6765  1.1510 -1.1221
 1007MOL0     H38927   8.267   6.884   5.361 -1.0991  1.4684  2.0170
 1007MOL0     H38928   8.619   6.750   4.991  3.6164  1.1446 -0.5767
 1007MOL0     H38929   8.612   6.701   4.756 -1.2179 -0.0360 -0.6919
 1007MOL0     H38930   8.324   6.877   4.553 -0.3604 -1.3078  0.2250
 1007MOL0     H38931   8.427   7.006   4.474  0.4308  0.7828  0.7129
 1007MOL0     H38932   8.302   6.857   4.309 -1.6144 -1.6606 -0.3593
 1007MOL0     H38933   8.476   6.864   4.284 -0.4797 -3.3314 -0.6037
 1007MOL0     H38934   8.374   6.620   4.276  2.4479 -2.7334  0.1966
 1007MOL0     H38935   8.377   6.628   4.449 -1.0061  0.0129 -1.4216
 1007MOL0     H38936   8.616   6.687   4.440 -2.5435 -4.1248  4.8356
 1007MOL0     H38937   8.616   6.659   4.263 -0.7997  0.1374  0.4968
 1007MOL0     H38938   8.485   6.436   4.384  0.9869 -0.4628  2.8130
 1007MOL0     H38939   8.643   6.439   4.305  1.8043 -0.3017  0.6151
 1007MOL0     H38940   8.579   6.387   4.572 -0.3272  0.1675  0.0911
 1007MOL0     H38941   8.654   6.535   4.586  0.4461 -0.5128 -1.0617
 1007MOL0     H38942   8.861   6.438   4.446  1.5789 -4.3433 -2.5302
 1007MOL0     H38943   8.780   6.283   4.457 -1.7065  1.7139 -2.9757
 1007MOL0     H38944   8.810   6.281   4.700  4.3621 -2.5948  1.1940
 1007MOL0     H38945   8.819   6.456   4.694 -2.7139 -0.9695 -1.9985
 1007MOL0     H38946   8.486   7.108   4.681 -2.7154 -3.3065 -1.4140
 1007MOL0     H38947   8.513   7.158   4.911 -0.3577 -0.2410  0.4730
 1007MOL0     H38948   8.806   6.982   5.396 -0.6309  0.7721  0.4214
 1007MOL0     H38949   8.757   7.037   5.636 -1.3013 -0.0625  0.9683
 1007MOL0     H38950   7.893   6.197   6.760  1.2447  0.2895  0.6015
 1007MOL0     H38951   8.116   6.194   6.675 -0.7430  0.1500 -0.3014
 1007MOL0     H38952   8.592   6.065   6.720  0.2441 -0.2681  1.1586
 1007MOL0     H38953   8.818   6.092   6.707  1.7571  0.6667  0.8658
 1007MOL0     H38954   9.046   6.150   6.718 -3.0618 -1.6733 -0.4004
 1007MOL0     H38955   9.003   6.149   6.546 -1.8945  2.3530 -0.5369
 1007MOL0     H38956   9.164   6.284   6.473 -1.1835  1.8875 -0.4578
 1007MOL0     H38957   9.253   6.210   6.605 -0.4447 -1.4350 -1.5678
 1007MOL0     H38958   9.317   6.440   6.591  0.8519  0.9241  2.4294
 1007MOL0     H38959   9.152   6.483   6.587  2.1704  0.2597 -2.8314
 1007MOL0     H38960   9.136   6.382   6.821  1.5859 -3.9286 -0.6858
 1007MOL0     H38961   9.253   6.526   6.793  2.4299 -0.6480 -2.7284
 1007MOL0     H38962   9.504   6.220   6.929  3.3731  2.1118 -1.4320
 1007MOL0     H38963   8.791   6.508   6.628  1.9845 -0.0924  0.9804
 1007MOL0     H38964   8.561   6.588   6.553 -1.3760  0.9580 -0.6520
 1007MOL0     H38965   8.430   6.467   6.544 -1.6468  2.2011 -0.1552
 1007MOL0     H38966   8.461   6.563   6.692  0.5371 -0.2199 -0.3438
 1008MOL0     O38967   8.519   2.858   5.575 -0.0206 -0.5647 -0.5224
 1008MOL0     C38968   8.399   2.866   5.536  0.0272  0.5472  0.0552
 1008MOL0     O38969   8.348   2.965   5.459 -0.1015 -0.1428  0.2232
 1008MOL0     C38970   8.431   3.076   5.424 -1.1548 -0.5167 -0.1151
 1008MOL0     C38971   8.392   3.147   5.314 -0.3025  0.5401 -0.7398
 1008MOL0     C38972   8.447   3.270   5.285 -0.1381 -0.8323  0.0061
 1008MOL0     C38973   8.542   3.331   5.367  0.0352 -0.4537  0.0840
 1008MOL0     O38974   8.586   3.459   5.343 -0.5920 -0.1064  0.0395
 1008MOL0     C38975   8.548   3.525   5.216  0.1033 -0.0197  0.5086
 1008MOL0     C38976   8.616   3.663   5.213 -0.2792  0.0601  0.2805
 1008MOL0     C38977   8.768   3.661   5.183  0.1620 -0.3091 -0.2305
 1008MOL0     C38978   8.829   3.802   5.196  0.0126 -0.4576  0.2513
 1008MOL0     C38979   8.977   3.793   5.164 -0.1098 -0.1230 -0.2142
 1008MOL0     C38980   9.067   3.715   5.255 -0.2419  0.0600  0.1180
 1008MOL0     C38981   9.214   3.750   5.241 -0.0194 -0.4744 -0.0528
 1008MOL0     C38982   9.293   3.716   5.365  0.9511 -0.3180 -0.8162
 1008MOL0     N38983   9.243   3.761   5.497 -0.0474 -0.1840 -0.6756
 1008MOL0     C38984   9.209   3.669   5.596 -0.3139  0.3555 -0.1271
 1008MOL0     C38985   9.207   3.748   5.703  0.4626  0.3037  0.4954
 1008MOL0     C38986   9.159   3.696   5.838  1.4307 -0.1964 -0.1375
 1008MOL0     C38987   9.015   3.663   5.829 -0.0945 -0.7916 -0.3904
 1008MOL0     C38988   8.961   3.607   5.962 -0.2829 -0.7236 -0.1618
 1008MOL0     C38989   8.808   3.602   5.922  0.1706 -0.2039  1.0840
 1008MOL0     O38990   8.743   3.530   6.025 -0.1497 -0.7217 -0.2307
 1008MOL0     C38991   8.629   3.460   5.983 -0.4532 -1.0316 -0.5608
 1008MOL0     C38992   8.577   3.488   5.853 -0.0568 -0.4829 -0.8130
 1008MOL0     C38993   8.469   3.408   5.808  0.5258  0.1154 -0.4052
 1008MOL0     C38994   8.394   3.463   5.687 -0.4307  0.3229  0.0169
 1008MOL0     C38995   8.425   3.294   5.876 -0.7214  0.7202 -0.3798
 1008MOL0     C38996   8.308   3.211   5.835 -0.4256 -0.8333  0.7982
 1008MOL0     O38997   8.308   3.078   5.852  0.3896 -0.0662 -0.5873
 1008MOL0     C38998   8.188   3.005   5.847 -0.3963  0.7232  0.2719
 1008MOL0     C38999   8.130   2.989   5.721 -0.0805  0.0694 -0.8524
 1008MOL0     C39000   8.011   2.924   5.723 -0.6435 -1.1163  0.6972
 1008MOL0     C39001   7.943   2.895   5.837  1.1093 -0.0576 -0.9544
 1008MOL0     O39002   7.805   2.860   5.822 -0.4051 -0.6121  0.2529
 1008MOL0     C39003   7.724   2.857   5.940 -0.2529 -0.1831  0.0334
 1008MOL0     C39004   7.579   2.829   5.897 -0.4946 -0.4642 -0.0887
 1008MOL0     C39005   7.534   2.691   5.902 -0.0652 -0.6132 -0.4394
 1008MOL0     C39006   7.386   2.693   5.854 -0.1984  0.8093 -0.2832
 1008MOL0     C39007   7.324   2.550   5.869  0.0192  0.3809  0.5508
 1008MOL0     C39008   7.238   2.518   5.744 -0.2371 -0.3747 -0.7238
 1008MOL0     C39009   7.134   2.406   5.763  0.0282  0.1061 -0.2751
 1008MOL0     C39010   7.170   2.268   5.709 -0.0377  0.0540 -0.0524
 1008MOL0    Cl39011   7.030   2.154   5.720  0.0444  0.0259 -0.2539
 1008MOL0     C39012   8.008   2.891   5.965  0.3448 -0.4592 -0.4265
 1008MOL0     C39013   8.134   2.951   5.966 -0.6098  0.7566 -0.1150
 1008MOL0     O39014   8.213   3.278   5.808  0.0704  0.2120  0.2177
 1008MOL0     C39015   8.491   3.267   6.001  0.1508 -0.1976  0.1124
 1008MOL0     C39016   8.589   3.354   6.053  0.1319  0.0902 -0.0282
 1008MOL0     N39017   9.230   3.880   5.668  0.8507  0.2026 -0.6323
 1008MOL0     N39018   9.256   3.885   5.545  0.0102  0.0880 -0.5135
 1008MOL0     C39019   8.579   3.259   5.486 -0.3048 -0.5547  0.4764
 1008MOL0     C39020   8.520   3.134   5.514  0.7461 -0.1123  0.7386
 1008MOL0     C39021   8.306   2.751   5.558 -0.2219 -0.0008 -0.2369
 1008MOL0     C39022   8.218   2.708   5.451  0.4450  1.2736  0.0431
 1008MOL0     C39023   8.115   2.616   5.487  0.1091 -0.4946 -0.3687
 1008MOL0     C39024   8.106   2.547   5.609  0.4464 -0.1187 -0.0179
 1008MOL0     O39025   8.002   2.463   5.644 -0.0798 -0.2480  0.1222
 1008MOL0     C39026   7.867   2.504   5.614  0.2111 -0.1615  0.0839
 1008MOL0     C39027   7.756   2.407   5.659 -0.3954  0.1636  0.2442
 1008MOL0     C39028   7.766   2.368   5.804  0.3607 -0.7288 -0.7117
 1008MOL0     C39029   7.675   2.251   5.858 -0.6711 -0.2256  0.5643
 1008MOL0     C39030   7.719   2.184   5.986 -0.1649 -0.6227  0.9095
 1008MOL0     C39031   7.791   2.132   6.068 -0.3991  0.8887 -0.1707
 1008MOL0     C39032   8.188   2.584   5.709  0.0864 -0.0154  0.1191
 1008MOL0     C39033   8.293   2.689   5.681  0.0376  0.6776  0.6510
 1008MOL0     C39034   8.382   2.707   5.791 -0.6878 -0.1202 -0.1771
 1008MOL0     H39035   8.308   3.092   5.272 -0.1047 -1.3089  1.1466
 1008MOL0     H39036   8.412   3.302   5.188  0.4956  1.3288  0.4467
 1008MOL0     H39037   8.440   3.540   5.204  0.3336  0.4399 -1.3246
 1008MOL0     H39038   8.575   3.457   5.136 -0.9954  0.0270  0.0823
 1008MOL0     H39039   8.578   3.722   5.129 -2.1792  0.7938  1.6199
 1008MOL0     H39040   8.590   3.720   5.302 -2.8413 -0.1647 -0.2605
 1008MOL0     H39041   8.822   3.618   5.268 -0.4672 -2.8299 -1.0308
 1008MOL0     H39042   8.784   3.611   5.087 -0.6210 -1.8231  0.4078
 1008MOL0     H39043   8.787   3.873   5.125 -0.9876 -1.2682 -0.0067
 1008MOL0     H39044   8.809   3.846   5.294  1.0342  0.6794 -0.0218
 1008MOL0     H39045   9.010   3.895   5.143  0.3796 -0.5999 -1.8747
 1008MOL0     H39046   8.989   3.747   5.066  0.1328  2.0056 -1.2460
 1008MOL0     H39047   9.036   3.743   5.356 -0.2645  3.7051 -0.7562
 1008MOL0     H39048   9.066   3.606   5.240  2.3325  0.2278 -1.9812
 1008MOL0     H39049   9.224   3.859   5.235 -0.6748 -0.3602  0.7292
 1008MOL0     H39050   9.251   3.695   5.154 -1.9123 -3.9309  1.1436
 1008MOL0     H39051   9.295   3.608   5.349 -0.7069 -0.0386 -3.3568
 1008MOL0     H39052   9.391   3.762   5.349 -0.1982  3.4703  1.6937
 1008MOL0     H39053   9.188   3.562   5.591 -2.8799  0.8429 -3.3978
 1008MOL0     H39054   9.171   3.765   5.922 -0.6117 -1.2877  1.1310
 1008MOL0     H39055   9.207   3.600   5.859 -0.4488 -1.5212 -1.6314
 1008MOL0     H39056   8.971   3.762   5.814  1.3633 -0.3936 -2.3749
 1008MOL0     H39057   8.989   3.607   5.738 -1.3344  2.1472 -1.9808
 1008MOL0     H39058   8.996   3.506   5.984  0.5885 -0.3341  0.3203
 1008MOL0     H39059   8.968   3.678   6.045  0.1514 -0.5668 -0.3290
 1008MOL0     H39060   8.762   3.701   5.910 -0.9076 -0.7436  0.6529
 1008MOL0     H39061   8.806   3.544   5.830  1.0182 -2.2980  2.3062
 1008MOL0     H39062   8.597   3.582   5.803  0.6759  0.8912  1.8653
 1008MOL0     H39063   8.361   3.386   5.616 -3.9055  2.4950 -0.9574
 1008MOL0     H39064   8.463   3.528   5.633 -2.6526  2.9459  0.1590
 1008MOL0     H39065   8.318   3.535   5.718  2.4360  3.1627  1.0579
 1008MOL0     H39066   8.184   3.007   5.628  1.0590 -1.0865 -0.4508
 1008MOL0     H39067   7.962   2.910   5.628 -0.9417  2.1918  0.2741
 1008MOL0     H39068   7.759   2.772   6.000 -1.4976  0.4366  1.7260
 1008MOL0     H39069   7.727   2.950   5.997  1.0638 -0.5165  0.5361
 1008MOL0     H39070   7.517   2.874   5.975 -0.6220 -0.0157 -0.4450
 1008MOL0     H39071   7.565   2.881   5.802 -1.0538  3.3939  1.9047
 1008MOL0     H39072   7.556   2.644   5.999  3.8351  0.9220 -0.3700
 1008MOL0     H39073   7.606   2.643   5.834  3.0819 -1.9937  3.4615
 1008MOL0     H39074   7.388   2.732   5.752 -0.0155  3.0002  0.5076
 1008MOL0     H39075   7.322   2.767   5.904 -0.6462  0.2620 -0.0387
 1008MOL0     H39076   7.401   2.477   5.893 -0.6373 -0.5699 -0.1409
 1008MOL0     H39077   7.261   2.552   5.959  3.0920 -3.7326  3.1375
 1008MOL0     H39078   7.298   2.495   5.656 -0.6295  0.0522 -1.1090
 1008MOL0     H39079   7.179   2.608   5.723 -1.3865 -0.4154  1.8877
 1008MOL0     H39080   7.041   2.444   5.720 -0.9916 -1.1265  0.7351
 1008MOL0     H39081   7.118   2.398   5.871  1.7607 -0.1915 -0.0172
 1008MOL0     H39082   7.257   2.232   5.765 -0.2114 -2.8876 -1.5264
 1008MOL0     H39083   7.194   2.284   5.603  0.8958 -0.4921  0.0692
 1008MOL0     H39084   7.963   2.848   6.054 -1.0240 -0.8335 -1.2549
 1008MOL0     H39085   8.176   2.970   6.064 -0.6248  1.9773 -0.3284
 1008MOL0     H39086   8.459   3.180   6.059  1.1027  0.9626  2.4926
 1008MOL0     H39087   8.633   3.326   6.148 -1.0323 -3.4391 -0.3858
 1008MOL0     H39088   8.633   3.304   5.569 -2.2086 -3.1117  3.3224
 1008MOL0     H39089   8.536   3.097   5.615 -1.4220  1.8353  1.8886
 1008MOL0     H39090   8.223   2.760   5.355 -0.8915 -0.0579 -0.7880
 1008MOL0     H39091   8.041   2.595   5.410  0.7668 -2.1471 -0.6033
 1008MOL0     H39092   7.860   2.597   5.672  0.1586  0.4635 -0.9033
 1008MOL0     H39093   7.848   2.533   5.511  1.4886  2.5904  0.5404
 1008MOL0     H39094   7.763   2.311   5.608  1.3419  1.9403 -3.1336
 1008MOL0     H39095   7.656   2.449   5.648 -1.4394 -2.6780 -2.3150
 1008MOL0     H39096   7.867   2.333   5.827  0.2454 -0.6589 -0.1065
 1008MOL0     H39097   7.745   2.459   5.861  1.3652 -0.2522 -1.0711
 1008MOL0     H39098   7.673   2.181   5.774  0.8188  0.8760 -0.4340
 1008MOL0     H39099   7.575   2.289   5.881 -0.7264 -0.7426  1.2282
 1008MOL0     H39100   7.845   2.083   6.147  0.1777  1.1123 -0.4233
 1008MOL0     H39101   8.182   2.546   5.811 -0.7506  0.1496  0.1405
 1008MOL0     H39102   8.405   2.813   5.805  1.9501 -0.3025 -2.2228
 1008MOL0     H39103   8.346   2.658   5.882 -2.2895  1.2803 -0.0211
 1008MOL0     H39104   8.477   2.658   5.767 -0.6087 -1.2295  2.1673
 1009MOL0     O39105  10.611   7.620   3.312  0.9235  0.4456  0.2464
 1009MOL0     C39106  10.728   7.573   3.325  0.1667  0.4449 -0.6440
 1009MOL0     O39107  10.770   7.466   3.247  0.1660 -0.2549 -0.0887
 1009MOL0     C39108  10.685   7.410   3.160 -0.0274 -0.9605 -0.5136
 1009MOL0     C39109  10.575   7.358   3.206 -0.1015 -0.0795  0.1160
 1009MOL0     C39110  10.477   7.299   3.125  0.1059  0.4446 -0.1142
 1009MOL0     C39111  10.498   7.277   2.991 -0.5209 -0.6542 -0.7241
 1009MOL0     O39112  10.422   7.190   2.920  0.7476 -0.0482  0.5193
 1009MOL0     C39113  10.317   7.114   2.982 -0.1830  0.4176  0.3020
 1009MOL0     C39114  10.259   7.004   2.884 -0.3599  0.3567 -0.1398
 1009MOL0     C39115  10.229   7.062   2.736  0.1559 -1.0279 -0.8183
 1009MOL0     C39116  10.133   7.183   2.735 -0.0497 -0.5168 -0.1687
 1009MOL0     C39117  10.068   7.230   2.595  0.1777 -0.0848 -0.8381
 1009MOL0     C39118  10.123   7.351   2.527  0.4260  0.3252 -0.4765
 1009MOL0     C39119  10.272   7.321   2.488  0.2766 -0.2540  0.1310
 1009MOL0     C39120  10.346   7.440   2.421  0.5264  0.1260  0.3718
 1009MOL0     N39121  10.265   7.474   2.295 -1.0094 -0.3376 -0.6232
 1009MOL0     C39122  10.164   7.561   2.282 -0.5663 -0.1118 -0.3872
 1009MOL0     C39123  10.148   7.597   2.158  0.1190 -0.6760 -0.5062
 1009MOL0     C39124  10.060   7.712   2.115 -0.3154  0.5308 -0.1244
 1009MOL0     C39125  10.096   7.780   1.983 -0.5898  1.0550  0.1617
 1009MOL0     C39126   9.987   7.883   1.943 -0.4428 -0.0114 -0.0812
 1009MOL0     C39127  10.022   7.958   1.814  0.2409 -0.8218  1.0493
 1009MOL0     O39128  10.138   8.032   1.857  0.0998 -0.9330  0.1941
 1009MOL0     C39129  10.216   8.108   1.767 -0.4778 -0.8595  0.2417
 1009MOL0     C39130  10.313   8.187   1.815 -0.1981  0.7445  0.2853
 1009MOL0     C39131  10.390   8.263   1.719  0.7718 -0.3038 -0.5624
 1009MOL0     C39132  10.496   8.351   1.777  0.8574 -0.0550  0.7298
 1009MOL0     C39133  10.362   8.266   1.578 -0.4789  0.1291  0.7793
 1009MOL0     C39134  10.442   8.337   1.472 -0.5448 -0.0076  0.1221
 1009MOL0     O39135  10.371   8.368   1.362  0.9846 -0.7238  0.1845
 1009MOL0     C39136  10.438   8.423   1.261  0.4173  0.5981 -0.4943
 1009MOL0     C39137  10.472   8.556   1.268 -0.2036  0.6600 -0.5951
 1009MOL0     C39138  10.560   8.598   1.162  0.8805  0.8929 -0.0999
 1009MOL0     C39139  10.595   8.515   1.058 -0.3833  0.4823 -0.5897
 1009MOL0     O39140  10.655   8.576   0.953  0.4570 -1.1596  0.0390
 1009MOL0     C39141  10.794   8.573   0.929 -0.3574  0.1941  1.2623
 1009MOL0     C39142  10.881   8.684   0.995  0.6067 -0.4758  0.1638
 1009MOL0     C39143  10.866   8.824   0.930 -0.5144  0.6571  0.0690
 1009MOL0     C39144  10.936   8.948   1.005 -0.0884  0.2454  1.0546
 1009MOL0     C39145  10.926   9.078   0.923  0.3797 -0.7159  0.1168
 1009MOL0     C39146  10.908   9.214   1.012 -0.2289 -1.1437  0.6195
 1009MOL0     C39147  11.025   9.229   1.110  0.5508  0.5545  0.6659
 1009MOL0     C39148  11.006   9.355   1.183  0.2151  0.2538 -0.7462
 1009MOL0    Cl39149  11.032   9.506   1.086  0.0097 -0.0758 -0.2672
 1009MOL0     C39150  10.562   8.387   1.058  0.5312 -0.5482 -0.3468
 1009MOL0     C39151  10.481   8.336   1.165 -0.4096  0.7311  0.2429
 1009MOL0     O39152  10.567   8.325   1.484  0.6345 -0.1225  0.3290
 1009MOL0     C39153  10.253   8.188   1.536  1.4522  0.1742 -0.5870
 1009MOL0     C39154  10.183   8.109   1.628  0.5415 -0.5807 -0.2426
 1009MOL0     N39155  10.248   7.534   2.082 -0.7154 -0.2160 -0.0954
 1009MOL0     N39156  10.307   7.462   2.170 -0.0544  0.0185  0.1943
 1009MOL0     C39157  10.608   7.346   2.935  0.5051 -0.3560 -1.3599
 1009MOL0     C39158  10.707   7.404   3.020  0.3291 -0.0166  0.6544
 1009MOL0     C39159  10.819   7.612   3.428 -0.1215 -0.0868  0.1542
 1009MOL0     C39160  10.950   7.564   3.429 -0.1206  0.2401  0.8959
 1009MOL0     C39161  11.040   7.581   3.534 -0.2379  0.0524  0.4617
 1009MOL0     C39162  10.997   7.655   3.641 -0.3307 -0.8314 -0.2160
 1009MOL0     O39163  11.079   7.691   3.747 -0.2499 -0.3845  0.2354
 1009MOL0     C39164  11.201   7.752   3.716  0.0431  0.0609  0.0895
 1009MOL0     C39165  11.206   7.844   3.591 -0.1001 -0.7278  0.0860
 1009MOL0     C39166  11.337   7.911   3.587  0.5611  0.0924  0.1428
 1009MOL0     C39167  11.351   7.988   3.460 -1.0742  0.0662 -0.1339
 1009MOL0     C39168  11.491   8.037   3.446 -0.2542  0.2036 -0.0895
 1009MOL0     C39169  11.595   8.079   3.410 -0.3890  0.0842  0.1748
 1009MOL0     C39170  10.867   7.716   3.645  0.2350  0.0770 -0.9320
 1009MOL0     C39171  10.777   7.704   3.535  0.1389 -0.1566  0.7889
 1009MOL0     C39172  10.641   7.763   3.566 -0.0217 -0.9969 -1.0964
 1009MOL0     H39173  10.535   7.379   3.305 -0.3615  0.3313 -0.0706
 1009MOL0     H39174  10.388   7.264   3.177 -0.3224  3.1836  1.1374
 1009MOL0     H39175  10.237   7.183   3.011 -2.6647 -1.3305 -1.9804
 1009MOL0     H39176  10.355   7.073   3.076  2.1826  1.2330 -0.2338
 1009MOL0     H39177  10.338   6.929   2.870  0.7832  1.8378 -2.2077
 1009MOL0     H39178  10.169   6.958   2.926 -0.1838 -0.7174 -0.8738
 1009MOL0     H39179  10.323   7.088   2.687 -0.8321  0.2813 -2.1296
 1009MOL0     H39180  10.181   6.979   2.684 -1.4751 -0.3031 -0.5559
 1009MOL0     H39181  10.053   7.177   2.809  0.7902 -0.2250  0.7860
 1009MOL0     H39182  10.198   7.263   2.771 -0.5965 -0.6103  1.0429
 1009MOL0     H39183   9.965   7.258   2.615  0.8356  1.3446  0.7671
 1009MOL0     H39184  10.060   7.140   2.534  0.0193 -0.0451 -0.8744
 1009MOL0     H39185  10.072   7.378   2.435  0.4479 -0.3327 -0.6878
 1009MOL0     H39186  10.107   7.443   2.583 -0.7102 -0.6432  0.9036
 1009MOL0     H39187  10.286   7.243   2.413  1.1406 -0.5016  0.5379
 1009MOL0     H39188  10.335   7.284   2.569  0.5032 -0.9957 -0.3726
 1009MOL0     H39189  10.363   7.521   2.493  0.1605  0.7540 -0.2318
 1009MOL0     H39190  10.442   7.398   2.392  2.0487  3.5320  0.0053
 1009MOL0     H39191  10.111   7.598   2.369 -2.8698 -0.2705 -1.6341
 1009MOL0     H39192  10.083   7.784   2.194  3.2186  0.7996 -1.2398
 1009MOL0     H39193   9.958   7.673   2.127 -1.3417  3.0284 -0.0317
 1009MOL0     H39194  10.200   7.813   1.980 -0.1303 -0.4007 -2.3026
 1009MOL0     H39195  10.093   7.701   1.908  0.8008 -0.0085  1.1565
 1009MOL0     H39196   9.884   7.846   1.945 -1.3499  2.3360  1.6412
 1009MOL0     H39197   9.977   7.955   2.025 -0.5898  0.4426 -0.4901
 1009MOL0     H39198  10.053   7.889   1.735  0.6844 -0.3959  0.8500
 1009MOL0     H39199   9.952   8.038   1.788  2.5098  1.5621  1.8406
 1009MOL0     H39200  10.339   8.187   1.920  1.3348 -1.8147  0.0049
 1009MOL0     H39201  10.582   8.285   1.792  1.9373  0.5095 -2.2489
 1009MOL0     H39202  10.462   8.393   1.872  1.2994  1.0118  0.4336
 1009MOL0     H39203  10.517   8.439   1.715 -1.0553  2.5567  3.4838
 1009MOL0     H39204  10.430   8.625   1.340 -0.5270  0.7604 -0.8787
 1009MOL0     H39205  10.586   8.703   1.156 -3.5744  2.2977  1.0983
 1009MOL0     H39206  10.840   8.482   0.969 -1.4902 -0.1594  1.7975
 1009MOL0     H39207  10.818   8.577   0.823  2.1494  0.7705  1.7636
 1009MOL0     H39208  10.841   8.700   1.095 -0.0868 -1.2702  0.0219
 1009MOL0     H39209  10.988   8.664   1.006  0.6196  0.5514  2.2079
 1009MOL0     H39210  10.759   8.846   0.918 -0.2413  1.8852 -0.1767
 1009MOL0     H39211  10.912   8.821   0.831  1.9056 -1.6366  1.1334
 1009MOL0     H39212  11.038   8.913   1.020 -1.1358 -2.3505  3.1029
 1009MOL0     H39213  10.894   8.961   1.106 -1.2365  2.1085  0.3949
 1009MOL0     H39214  11.018   9.091   0.866 -0.6668  1.0902 -1.2780
 1009MOL0     H39215  10.842   9.076   0.852 -2.0142  1.5619  2.5931
 1009MOL0     H39216  10.808   9.216   1.058  0.2833 -0.2384  1.7342
 1009MOL0     H39217  10.906   9.286   0.930 -0.3419 -2.0158 -0.1630
 1009MOL0     H39218  11.118   9.220   1.054  1.4479  1.0310  2.0149
 1009MOL0     H39219  11.023   9.136   1.168 -0.7364 -2.5068 -3.7584
 1009MOL0     H39220  11.075   9.364   1.267  2.6221  2.7423 -2.8015
 1009MOL0     H39221  10.912   9.353   1.238  0.7659  1.0132  0.2385
 1009MOL0     H39222  10.581   8.313   0.981  0.1677  0.5756 -1.5426
 1009MOL0     H39223  10.437   8.237   1.172 -1.9628  1.2822 -1.1036
 1009MOL0     H39224  10.229   8.181   1.431  0.8897  0.8380 -0.5070
 1009MOL0     H39225  10.102   8.049   1.589 -0.3457 -0.5297  1.4277
 1009MOL0     H39226  10.628   7.357   2.829  2.0467 -2.7348 -1.4049
 1009MOL0     H39227  10.787   7.455   2.967 -0.8020  0.0366 -1.0755
 1009MOL0     H39228  10.981   7.502   3.346  0.7597  0.0397  1.3627
 1009MOL0     H39229  11.137   7.537   3.514  0.0421  1.7762 -2.5978
 1009MOL0     H39230  11.229   7.801   3.810  1.9785 -0.1806 -0.3271
 1009MOL0     H39231  11.274   7.671   3.713 -1.7518 -1.6698  1.2536
 1009MOL0     H39232  11.128   7.920   3.599  0.8873  0.1337  5.9801
 1009MOL0     H39233  11.200   7.781   3.502 -2.7986 -1.6986  0.8710
 1009MOL0     H39234  11.344   7.978   3.673 -0.6736 -0.4665  0.7025
 1009MOL0     H39235  11.426   7.850   3.604  0.0426 -0.4396  1.0146
 1009MOL0     H39236  11.292   8.080   3.461 -1.5663 -0.2308 -0.6676
 1009MOL0     H39237  11.333   7.930   3.369  1.2533 -1.0516  0.0415
 1009MOL0     H39238  11.694   8.097   3.374  0.7106 -1.1211  2.4455
 1009MOL0     H39239  10.846   7.772   3.735  2.1124  2.5069 -1.8729
 1009MOL0     H39240  10.650   7.806   3.666  1.3323  1.7514 -2.2704
 1009MOL0     H39241  10.608   7.845   3.502 -0.4992  0.3425  0.7756
 1009MOL0     H39242  10.563   7.687   3.566  0.2266 -1.2631 -0.1456
 1010MOL0     O39243  10.941  10.832   0.241 -0.0356 -0.0456 -0.4160
 1010MOL0     C39244  10.845  10.842   0.315 -1.0709  0.3821 -0.0824
 1010MOL0     O39245  10.812  10.757   0.410  0.3105 -0.3330 -0.2774
 1010MOL0     C39246  10.891  10.646   0.439 -1.0648  0.2767  0.7421
 1010MOL0     C39247  10.827  10.544   0.504 -0.5362  0.2761  0.1346
 1010MOL0     C39248  10.892  10.418   0.537 -0.4013 -0.1483  0.4088
 1010MOL0     C39249  11.021  10.393   0.491 -0.9534  0.3729  0.8476
 1010MOL0     O39250  11.088  10.279   0.533 -0.1177 -0.5688 -0.2681
 1010MOL0     C39251  11.045  10.169   0.458  0.4736  0.4133  0.6719
 1010MOL0     C39252  11.160  10.099   0.391 -0.1582  0.4827  0.2392
 1010MOL0     C39253  11.235  10.013   0.472  1.0236 -0.0985 -0.1576
 1010MOL0     C39254  11.312   9.900   0.390  0.5016  0.2448 -0.4559
 1010MOL0     C39255  11.382   9.799   0.474 -0.7212  0.5028 -0.9918
 1010MOL0     C39256  11.465   9.685   0.391 -1.0409  0.1677 -0.1199
 1010MOL0     C39257  11.537   9.604   0.501  0.7820  0.4504  0.5954
 1010MOL0     C39258  11.663   9.675   0.567  0.5130  0.7467  0.2299
 1010MOL0     N39259  11.751   9.567   0.612  0.1841 -0.0579  0.1232
 1010MOL0     C39260  11.773   9.521   0.733  0.6350 -0.1220 -0.4110
 1010MOL0     C39261  11.884   9.450   0.725  0.9130 -0.2632 -0.3841
 1010MOL0     C39262  11.940   9.372   0.840 -0.3397 -0.4134 -0.0458
 1010MOL0     C39263  12.008   9.232   0.809 -0.1952 -0.0226  0.9634
 1010MOL0     C39264  11.902   9.142   0.729 -0.3805  0.4980  0.1385
 1010MOL0     C39265  11.794   9.074   0.814 -0.5846 -0.3756  0.1658
 1010MOL0     O39266  11.697   9.165   0.863 -0.3899  0.0110 -0.5525
 1010MOL0     C39267  11.590   9.196   0.790  0.0359 -0.2829  0.3143
 1010MOL0     C39268  11.552   9.139   0.664 -0.3004 -0.0491 -0.0581
 1010MOL0     C39269  11.435   9.187   0.606  0.9701 -0.0537 -0.3410
 1010MOL0     C39270  11.386   9.105   0.486  0.3458  0.0244  0.4342
 1010MOL0     C39271  11.363   9.300   0.656 -0.6492 -1.1216 -0.2301
 1010MOL0     C39272  11.245   9.357   0.588  0.0100  0.1877 -0.5563
 1010MOL0     O39273  11.223   9.492   0.626  0.2892  0.6853 -0.8585
 1010MOL0     C39274  11.099   9.549   0.594  0.8275 -0.3312 -0.1364
 1010MOL0     C39275  11.018   9.595   0.698  0.7937 -0.6861 -0.4271
 1010MOL0     C39276  10.895   9.665   0.669 -0.0471 -0.1796 -0.7985
 1010MOL0     C39277  10.852   9.685   0.538 -0.2715  0.3306 -0.8634
 1010MOL0     O39278  10.737   9.752   0.523  0.1219  0.0495 -0.8548
 1010MOL0     C39279  10.697   9.811   0.397 -0.1134 -0.2162  0.2522
 1010MOL0     C39280  10.581   9.899   0.398  0.7779 -0.0346 -0.4385
 1010MOL0     C39281  10.595  10.020   0.487 -0.0760 -0.2749  0.3925
 1010MOL0     C39282  10.494  10.129   0.449  0.1360  0.5957 -0.2185
 1010MOL0     C39283  10.528  10.257   0.527  0.0584  0.3435 -0.3350
 1010MOL0     C39284  10.410  10.351   0.520  1.2077 -0.3960 -0.2085
 1010MOL0     C39285  10.369  10.409   0.385  0.0874 -0.2532 -0.9781
 1010MOL0     C39286  10.373  10.565   0.386 -0.0879  0.3460 -0.6016
 1010MOL0    Cl39287  10.255  10.633   0.507 -0.5491 -0.1334  0.0168
 1010MOL0     C39288  10.930   9.627   0.440  0.1976  0.4850  0.1793
 1010MOL0     C39289  11.063   9.571   0.462 -0.1753  0.1383  0.2471
 1010MOL0     O39290  11.171   9.288   0.522  0.2943  0.6018 -0.3403
 1010MOL0     C39291  11.412   9.367   0.766 -0.2276  0.3801  0.4952
 1010MOL0     C39292  11.518   9.307   0.842 -0.3955 -0.3109  0.6615
 1010MOL0     N39293  11.928   9.440   0.594  1.0895  0.0958  0.1008
 1010MOL0     N39294  11.844   9.510   0.526 -0.0900  0.1680 -0.6182
 1010MOL0     C39295  11.091  10.492   0.427  0.1254  0.0602 -0.1360
 1010MOL0     C39296  11.031  10.619   0.409  0.8810 -0.5975 -0.2367
 1010MOL0     C39297  10.767  10.964   0.304 -0.3526  0.5296  0.8585
 1010MOL0     C39298  10.689  11.001   0.409 -0.1307 -0.4958 -0.4584
 1010MOL0     C39299  10.603  11.115   0.395 -0.9591 -0.0236 -0.1430
 1010MOL0     C39300  10.596  11.187   0.279 -0.8272  0.5966  0.1470
 1010MOL0     O39301  10.523  11.293   0.254  0.7451  0.3990 -0.5630
 1010MOL0     C39302  10.586  11.409   0.309  0.5102 -0.2033 -0.5950
 1010MOL0     C39303  10.522  11.541   0.263 -0.2943  0.2498 -0.1918
 1010MOL0     C39304  10.510  11.537   0.112 -0.4193  0.3212 -0.6064
 1010MOL0     C39305  10.649  11.585   0.062  0.4244  0.6166  0.2497
 1010MOL0     C39306  10.658  11.628  -0.084  0.7553 -0.9893 -0.6680
 1010MOL0     C39307  10.678  11.665  -0.190 -0.4221  0.1899 -0.5575
 1010MOL0     C39308  10.672  11.140   0.170  0.8589 -0.3189  0.4277
 1010MOL0     C39309  10.768  11.041   0.187 -0.4225 -0.0221  0.3720
 1010MOL0     C39310  10.835  11.005   0.054 -0.0091 -0.2823  0.7876
 1010MOL0     H39311  10.720  10.551   0.525 -0.3709  1.7006  0.6035
 1010MOL0     H39312  10.842  10.341   0.595 -1.7866  2.5700  3.1209
 1010MOL0     H39313  10.971  10.192   0.380 -1.6222 -2.2387  1.7296
 1010MOL0     H39314  10.990  10.107   0.529 -4.4463  1.2521 -1.9391
 1010MOL0     H39315  11.121  10.048   0.302  1.8361  1.0688 -1.0660
 1010MOL0     H39316  11.224  10.174   0.343 -1.2269  1.6042  0.5119
 1010MOL0     H39317  11.301  10.060   0.545 -0.5890 -0.4660  1.6194
 1010MOL0     H39318  11.175   9.958   0.546  0.3904  1.3032  0.4101
 1010MOL0     H39319  11.240   9.845   0.329  0.0601  0.0328  0.2584
 1010MOL0     H39320  11.393   9.952   0.338 -0.7207  3.3784  0.5552
 1010MOL0     H39321  11.311   9.758   0.547  1.4547  0.1945  1.0667
 1010MOL0     H39322  11.446   9.859   0.539 -0.8104 -0.2849 -0.1458
 1010MOL0     H39323  11.398   9.619   0.335 -1.7044 -1.3238  2.2816
 1010MOL0     H39324  11.542   9.724   0.323  0.7467 -1.3742  0.9361
 1010MOL0     H39325  11.567   9.510   0.455 -2.6103  0.4559 -2.1245
 1010MOL0     H39326  11.466   9.587   0.582 -2.6002  1.3834 -1.9235
 1010MOL0     H39327  11.722   9.736   0.498  0.0396 -0.9421 -1.7559
 1010MOL0     H39328  11.628   9.734   0.653 -0.1017  1.5387 -0.5389
 1010MOL0     H39329  11.719   9.537   0.826 -1.9028 -1.1236 -1.6149
 1010MOL0     H39330  11.853   9.354   0.904  0.2304 -3.1712  0.0920
 1010MOL0     H39331  12.007   9.442   0.891 -1.5610  1.3123 -0.7203
 1010MOL0     H39332  12.087   9.255   0.737 -0.2952  0.9718  1.1618
 1010MOL0     H39333  12.043   9.183   0.900  0.1940  1.0465  1.4031
 1010MOL0     H39334  11.855   9.188   0.642  1.7832  0.6602 -1.0333
 1010MOL0     H39335  11.967   9.067   0.682  1.4509  0.9544  1.7825
 1010MOL0     H39336  11.761   8.977   0.775 -1.2527 -1.2825  2.7532
 1010MOL0     H39337  11.865   9.042   0.890 -0.1492 -2.0729 -0.8985
 1010MOL0     H39338  11.610   9.066   0.610  1.1900  1.8883 -1.2011
 1010MOL0     H39339  11.363   9.180   0.410  1.8088  1.8062  1.6721
 1010MOL0     H39340  11.302   9.049   0.528  0.6295  0.6742  1.9273
 1010MOL0     H39341  11.458   9.031   0.449  1.2931  1.2111 -0.1508
 1010MOL0     H39342  11.044   9.582   0.803  2.3795 -0.1905 -0.7260
 1010MOL0     H39343  10.839   9.705   0.753  0.7561  1.0496 -0.8358
 1010MOL0     H39344  10.780   9.865   0.351 -0.8816  1.5147  0.8069
 1010MOL0     H39345  10.685   9.724   0.331  0.1177 -1.6143  1.9592
 1010MOL0     H39346  10.583   9.932   0.293  2.6755 -1.8196 -1.0398
 1010MOL0     H39347  10.485   9.854   0.425  0.9226  1.5946  3.4147
 1010MOL0     H39348  10.698  10.054   0.499  0.6126 -1.2143 -2.1726
 1010MOL0     H39349  10.569   9.981   0.586 -2.1148 -3.2109 -1.1228
 1010MOL0     H39350  10.393  10.094   0.470 -0.9648  2.9952 -1.1615
 1010MOL0     H39351  10.499  10.156   0.343 -0.0773  2.3236  0.1765
 1010MOL0     H39352  10.542  10.241   0.634 -2.1481  3.0712  0.4733
 1010MOL0     H39353  10.617  10.304   0.483  2.7954 -3.5221  0.5372
 1010MOL0     H39354  10.444  10.436   0.580  1.7452 -1.4348  0.9853
 1010MOL0     H39355  10.324  10.303   0.567  0.2932  1.6915  0.3671
 1010MOL0     H39356  10.266  10.380   0.360  0.2874  0.0822 -2.3165
 1010MOL0     H39357  10.424  10.368   0.300 -2.4096 -2.1549 -1.8104
 1010MOL0     H39358  10.361  10.609   0.286 -1.1218 -0.6425 -0.9413
 1010MOL0     H39359  10.466  10.610   0.421  0.1535 -1.9255  1.9285
 1010MOL0     H39360  10.883   9.621   0.342  1.1275  0.9776 -0.3160
 1010MOL0     H39361  11.108   9.539   0.369 -1.8394 -5.8981  1.0936
 1010MOL0     H39362  11.360   9.452   0.809  2.1702  1.9793  0.4377
 1010MOL0     H39363  11.540   9.355   0.937  2.2131  1.8094 -0.8710
 1010MOL0     H39364  11.197  10.477   0.405  0.5803  1.4994  0.8856
 1010MOL0     H39365  11.097  10.686   0.355  0.3081 -0.6962 -1.0720
 1010MOL0     H39366  10.683  10.932   0.493 -0.6633  2.9889  2.6218
 1010MOL0     H39367  10.537  11.143   0.477 -1.2538 -0.7355 -0.1285
 1010MOL0     H39368  10.614  11.403   0.415  0.0563  0.5819 -0.4201
 1010MOL0     H39369  10.688  11.418   0.271 -0.2434  2.5792 -2.2379
 1010MOL0     H39370  10.579  11.628   0.296  3.2454 -1.2575 -1.8301
 1010MOL0     H39371  10.426  11.559   0.313  0.3494  3.7093  0.0495
 1010MOL0     H39372  10.489  11.440   0.067 -0.5508  0.7796 -1.5577
 1010MOL0     H39373  10.432  11.611   0.096 -1.0305  0.3721  2.0699
 1010MOL0     H39374  10.718  11.502   0.080  0.1248 -0.2789 -2.2711
 1010MOL0     H39375  10.695  11.666   0.119  1.7112 -0.0512  0.2295
 1010MOL0     H39376  10.712  11.702  -0.284 -5.4734  2.2109 -1.9328
 1010MOL0     H39377  10.672  11.189   0.073 -1.6324 -0.2843  0.3843
 1010MOL0     H39378  10.942  10.986   0.066  0.4323  1.9701  0.8382
 1010MOL0     H39379  10.789  10.914   0.014 -0.7354 -0.5965  2.2575
 1010MOL0     H39380  10.831  11.090  -0.014  3.7964  0.2496  1.0129
 1011MOL0     O39381   2.073   8.391   6.358 -0.5046 -0.5567 -0.4398
 1011MOL0     C39382   1.970   8.346   6.401 -1.0658  0.5602  0.1784
 1011MOL0     O39383   1.851   8.420   6.432  0.1598 -0.0661  0.6860
 1011MOL0     C39384   1.844   8.536   6.376  0.2405 -0.4617  0.0960
 1011MOL0     C39385   1.880   8.577   6.245  0.3157  0.5041  0.0817
 1011MOL0     C39386   1.869   8.713   6.210 -0.3015  0.6677  0.3877
 1011MOL0     C39387   1.826   8.807   6.305  0.3459 -0.4119  0.5053
 1011MOL0     O39388   1.833   8.947   6.254  0.5051  0.1261 -0.4258
 1011MOL0     C39389   1.852   9.040   6.357 -1.1978 -0.5054  1.0229
 1011MOL0     C39390   1.785   9.169   6.328  0.2086  0.4695 -0.6313
 1011MOL0     C39391   1.822   9.215   6.189  0.1472  0.4205  0.2437
 1011MOL0     C39392   1.973   9.237   6.164 -0.4342  0.0419  0.2122
 1011MOL0     C39393   1.979   9.310   6.023 -0.5835  0.0063 -0.4603
 1011MOL0     C39394   1.964   9.466   6.030 -0.2422 -0.3757 -0.4024
 1011MOL0     C39395   1.964   9.539   5.898 -0.0123 -0.4768  1.5927
 1011MOL0     C39396   1.831   9.532   5.815  0.4523  0.9010  0.3949
 1011MOL0     N39397   1.733   9.609   5.890  0.5249  0.0850 -0.1886
 1011MOL0     C39398   1.624   9.559   5.961 -0.1967  0.5098  0.6793
 1011MOL0     C39399   1.570   9.661   6.039 -0.5001 -0.3030  0.8631
 1011MOL0     C39400   1.454   9.648   6.133  0.7496  0.8020 -0.1098
 1011MOL0     C39401   1.488   9.545   6.240  0.6466 -0.5953 -1.2563
 1011MOL0     C39402   1.622   9.573   6.309  0.0654  0.0936  0.9330
 1011MOL0     C39403   1.622   9.694   6.410 -0.0543  0.0689  0.1550
 1011MOL0     O39404   1.759   9.704   6.459 -0.1227 -0.0282 -0.3057
 1011MOL0     C39405   1.795   9.600   6.547 -0.2330  0.5485 -0.1561
 1011MOL0     C39406   1.714   9.563   6.654  0.4362  0.4799 -0.5663
 1011MOL0     C39407   1.747   9.455   6.729 -0.4021  0.6726 -0.2544
 1011MOL0     C39408   1.667   9.407   6.850 -0.2562 -1.0104 -0.4028
 1011MOL0     C39409   1.864   9.381   6.693  1.4011 -0.6603 -0.3824
 1011MOL0     C39410   1.880   9.255   6.751 -1.0235 -0.5591 -0.2636
 1011MOL0     O39411   1.783   9.168   6.716 -0.6908  0.1836 -0.3209
 1011MOL0     C39412   1.807   9.038   6.742  0.1840  0.0511 -0.1911
 1011MOL0     C39413   1.928   8.972   6.720  0.2301 -0.5739 -0.4816
 1011MOL0     C39414   1.949   8.832   6.748 -0.0102 -0.5610 -0.5271
 1011MOL0     C39415   1.843   8.754   6.783  0.0860 -0.0258 -0.6100
 1011MOL0     O39416   1.845   8.616   6.807  0.1900  0.4939 -0.3801
 1011MOL0     C39417   1.970   8.552   6.840 -0.2410 -0.4481  1.0475
 1011MOL0     C39418   1.986   8.430   6.751  1.1672  0.2244  0.1134
 1011MOL0     C39419   2.090   8.339   6.810 -0.3577 -0.3059  0.0093
 1011MOL0     C39420   2.132   8.216   6.723  0.7586 -0.3500  1.1753
 1011MOL0     C39421   2.229   8.106   6.778 -0.1565 -0.5581 -0.2239
 1011MOL0     C39422   2.296   8.041   6.658 -0.3076 -0.3603  0.3752
 1011MOL0     C39423   2.390   7.923   6.686 -0.1975 -0.7118  0.4090
 1011MOL0     C39424   2.416   7.830   6.567 -0.1648  0.0313 -0.2545
 1011MOL0    Cl39425   2.490   7.950   6.445 -0.1594 -0.3568 -0.1440
 1011MOL0     C39426   1.715   8.811   6.787 -0.5931  0.3345  0.3882
 1011MOL0     C39427   1.695   8.948   6.768  0.4808  0.9039 -0.0100
 1011MOL0     O39428   1.981   9.237   6.827  0.4615 -0.5863 -0.7194
 1011MOL0     C39429   1.955   9.427   6.600  0.0705  0.3501  0.5559
 1011MOL0     C39430   1.922   9.540   6.528  0.0084 -0.0444 -0.2872
 1011MOL0     N39431   1.648   9.771   6.018  0.2158  0.3467  0.9152
 1011MOL0     N39432   1.734   9.743   5.927 -0.4937  0.0929  0.1479
 1011MOL0     C39433   1.788   8.762   6.433 -0.4396 -0.2744  0.0576
 1011MOL0     C39434   1.783   8.629   6.464  0.1962 -0.3184  0.1244
 1011MOL0     C39435   1.963   8.189   6.412  0.8010 -0.5306  0.2627
 1011MOL0     C39436   1.838   8.143   6.457  0.3421 -0.2588  0.0297
 1011MOL0     C39437   1.824   8.009   6.492  0.2229 -0.5010 -0.5153
 1011MOL0     C39438   1.928   7.919   6.466  0.1218 -0.9614 -0.7362
 1011MOL0     O39439   1.910   7.787   6.486 -0.9687 -0.0638  0.7420
 1011MOL0     C39440   1.841   7.730   6.591  0.7049  0.1355 -0.7110
 1011MOL0     C39441   1.905   7.740   6.730  0.1984 -0.2681  0.2811
 1011MOL0     C39442   2.029   7.657   6.739  0.3921 -0.8395  0.7140
 1011MOL0     C39443   2.120   7.695   6.864 -0.6372 -0.6442  0.4495
 1011MOL0     C39444   2.239   7.610   6.853 -0.1506 -0.0639 -0.6665
 1011MOL0     C39445   2.331   7.534   6.862 -0.6225  0.0175 -1.0779
 1011MOL0     C39446   2.046   7.958   6.405 -0.0323  0.1629 -0.1959
 1011MOL0     C39447   2.064   8.097   6.386  0.0352 -0.0956  0.3614
 1011MOL0     C39448   2.197   8.142   6.321  0.1801  0.0584  0.3918
 1011MOL0     H39449   1.918   8.503   6.175  0.7809 -0.3704  1.2303
 1011MOL0     H39450   1.918   8.757   6.124  1.5057 -0.0962  0.9737
 1011MOL0     H39451   1.961   9.050   6.357 -0.7533 -4.0189  1.3552
 1011MOL0     H39452   1.819   9.005   6.456 -1.7307 -2.2643  0.2599
 1011MOL0     H39453   1.677   9.153   6.337  0.5881 -4.2331 -1.8852
 1011MOL0     H39454   1.811   9.250   6.397 -0.2126  1.7272 -1.9204
 1011MOL0     H39455   1.787   9.145   6.112  0.9805  1.2890 -0.9471
 1011MOL0     H39456   1.768   9.309   6.175 -3.2754 -1.3425  0.4549
 1011MOL0     H39457   2.023   9.310   6.228 -0.1260  0.7535 -0.7989
 1011MOL0     H39458   2.030   9.144   6.165  0.9463  0.7032 -3.1563
 1011MOL0     H39459   1.895   9.274   5.963 -0.1311 -0.1506 -1.0057
 1011MOL0     H39460   2.072   9.280   5.975  0.9342 -0.3247  2.5133
 1011MOL0     H39461   1.871   9.495   6.081 -1.3086 -1.1157 -1.8385
 1011MOL0     H39462   2.038   9.504   6.101 -2.0491  0.0780  1.3600
 1011MOL0     H39463   2.041   9.488   5.841  0.3014 -2.6577  3.7808
 1011MOL0     H39464   1.988   9.645   5.901 -1.8215 -0.0270  1.5204
 1011MOL0     H39465   1.840   9.586   5.721 -2.4118  0.5939 -0.1538
 1011MOL0     H39466   1.803   9.427   5.798  1.9691  0.6793 -0.9127
 1011MOL0     H39467   1.593   9.456   5.969  1.7236 -0.1991 -0.3350
 1011MOL0     H39468   1.359   9.621   6.086  0.7590 -0.9762  0.7962
 1011MOL0     H39469   1.448   9.744   6.184 -1.1095  0.1025  1.1007
 1011MOL0     H39470   1.412   9.565   6.316  2.1025  1.0004 -0.1437
 1011MOL0     H39471   1.469   9.442   6.207 -2.8748 -0.1884 -0.9119
 1011MOL0     H39472   1.651   9.481   6.361 -1.4478 -1.2926 -0.5532
 1011MOL0     H39473   1.702   9.588   6.235 -1.2167 -0.6847 -0.6954
 1011MOL0     H39474   1.586   9.779   6.351  0.8838  1.0835  0.9827
 1011MOL0     H39475   1.553   9.703   6.494  0.1121  1.2960  0.1857
 1011MOL0     H39476   1.621   9.613   6.680 -0.2427 -1.8878  2.0736
 1011MOL0     H39477   1.582   9.345   6.820 -1.5369  0.3843  0.2081
 1011MOL0     H39478   1.634   9.487   6.917  2.3220  0.6145 -0.9512
 1011MOL0     H39479   1.718   9.347   6.925  1.1206  2.4030  1.6212
 1011MOL0     H39480   2.020   9.026   6.700 -1.1423  1.4364 -1.6492
 1011MOL0     H39481   2.050   8.793   6.743  0.6411  0.9917 -0.2253
 1011MOL0     H39482   2.054   8.622   6.838  0.1066 -0.8398 -1.3786
 1011MOL0     H39483   1.947   8.515   6.941 -3.1935 -3.4631 -0.5242
 1011MOL0     H39484   1.900   8.364   6.736  2.8962 -2.4219  1.0538
 1011MOL0     H39485   2.030   8.463   6.656  0.4429  0.7884 -0.0280
 1011MOL0     H39486   2.059   8.309   6.911  1.8361 -1.2767  0.4610
 1011MOL0     H39487   2.182   8.398   6.820 -0.5574 -0.1699  1.2441
 1011MOL0     H39488   2.176   8.263   6.635 -0.5702 -2.6334 -0.8226
 1011MOL0     H39489   2.038   8.166   6.699  0.8450  0.6046 -1.4612
 1011MOL0     H39490   2.296   8.145   6.855 -2.6527  0.4810  1.5848
 1011MOL0     H39491   2.162   8.032   6.822 -0.9986 -0.1680 -0.7952
 1011MOL0     H39492   2.344   8.118   6.596  1.7896 -1.9798 -0.1521
 1011MOL0     H39493   2.220   8.010   6.586 -0.4735  1.7817 -0.4428
 1011MOL0     H39494   2.358   7.862   6.771 -0.0777 -3.0043 -1.0974
 1011MOL0     H39495   2.485   7.967   6.716  0.4187  0.2894 -2.6279
 1011MOL0     H39496   2.323   7.786   6.531 -0.6211 -0.3133  1.2744
 1011MOL0     H39497   2.485   7.749   6.592 -1.1967 -0.7797  0.0196
 1011MOL0     H39498   1.625   8.754   6.810 -0.7300  1.5128  3.1683
 1011MOL0     H39499   1.595   8.988   6.763 -1.4711 -3.5529 -1.4312
 1011MOL0     H39500   2.042   9.374   6.562 -0.6258 -1.4232  1.3232
 1011MOL0     H39501   1.977   9.578   6.442 -1.4786  0.5862 -1.0083
 1011MOL0     H39502   1.764   8.833   6.511 -0.9514  0.4261 -0.7261
 1011MOL0     H39503   1.744   8.606   6.563  2.2367  0.9936  1.2933
 1011MOL0     H39504   1.748   8.201   6.467  0.6797  0.2309  0.2522
 1011MOL0     H39505   1.727   7.996   6.538 -0.6744  3.6579 -0.8333
 1011MOL0     H39506   1.740   7.769   6.608  1.3954  0.6571  2.8568
 1011MOL0     H39507   1.835   7.625   6.558  1.4738  0.1257 -0.8275
 1011MOL0     H39508   1.837   7.694   6.801  0.0300 -2.2746 -1.0788
 1011MOL0     H39509   1.928   7.842   6.762 -0.5930 -0.6074  2.0023
 1011MOL0     H39510   2.000   7.552   6.740 -0.8628 -0.5204 -0.1207
 1011MOL0     H39511   2.090   7.670   6.648 -0.2143  1.8694  0.6006
 1011MOL0     H39512   2.071   7.678   6.960 -1.9124  0.5453  0.0325
 1011MOL0     H39513   2.172   7.790   6.852  0.1814 -1.1097  0.2282
 1011MOL0     H39514   2.402   7.454   6.872 -4.4151 -3.6678 -0.5981
 1011MOL0     H39515   2.123   7.881   6.401 -1.1637 -1.1194  1.5743
 1011MOL0     H39516   2.269   8.061   6.330  0.0205 -0.1463 -0.1263
 1011MOL0     H39517   2.186   8.161   6.214  8.1133 -0.0699 -1.0095
 1011MOL0     H39518   2.245   8.230   6.365  2.1557 -0.6127 -0.3192
 1012MOL0     O39519  11.365  11.101   3.730  0.4772  0.2014  0.5227
 1012MOL0     C39520  11.426  11.194   3.778  0.3925 -0.1997 -0.0283
 1012MOL0     O39521  11.459  11.309   3.717 -0.7841  0.0357 -0.3024
 1012MOL0     C39522  11.449  11.330   3.576 -0.2767 -0.1507  0.2988
 1012MOL0     C39523  11.459  11.460   3.531  0.3754  0.2498  0.4112
 1012MOL0     C39524  11.435  11.487   3.397  0.6973 -0.8754 -0.8305
 1012MOL0     C39525  11.386  11.397   3.307  0.5433  0.7442 -0.2384
 1012MOL0     O39526  11.389  11.420   3.172  0.0947 -0.0911  0.0712
 1012MOL0     C39527  11.344  11.318   3.078 -0.6502  0.5252  0.7581
 1012MOL0     C39528  11.295  11.383   2.948 -0.1497 -0.5253 -0.0248
 1012MOL0     C39529  11.153  11.456   2.950  0.2656 -0.1689  0.4018
 1012MOL0     C39530  11.046  11.347   2.951  0.4739 -0.5117  0.2241
 1012MOL0     C39531  10.910  11.415   2.946 -0.0891 -0.3650 -0.4618
 1012MOL0     C39532  10.878  11.495   3.069  0.3874  0.5216  0.5417
 1012MOL0     C39533  10.921  11.420   3.200  1.5136  0.3008  0.0394
 1012MOL0     C39534  10.852  11.483   3.322 -0.3143  0.2913 -0.1476
 1012MOL0     N39535  10.915  11.612   3.342 -0.7320 -0.3242  0.0057
 1012MOL0     C39536  11.052  11.625   3.378  0.5369 -0.0385  1.0372
 1012MOL0     C39537  11.086  11.739   3.311 -0.0271 -0.4357  0.7765
 1012MOL0     C39538  11.218  11.794   3.283  0.1883  0.1372 -0.0822
 1012MOL0     C39539  11.266  11.862   3.404  0.8251  0.2498  0.1222
 1012MOL0     C39540  11.406  11.918   3.386  0.7446  0.2794  0.0023
 1012MOL0     C39541  11.439  11.987   3.512 -0.3692 -0.1526 -0.3130
 1012MOL0     O39542  11.424  11.885   3.619 -1.1337  0.2088 -0.4628
 1012MOL0     C39543  11.465  11.899   3.751 -0.5949  1.3588  0.2091
 1012MOL0     C39544  11.486  11.785   3.818 -0.3034 -0.1186  0.5632
 1012MOL0     C39545  11.532  11.778   3.953  0.4241  0.0782  0.0952
 1012MOL0     C39546  11.580  11.635   4.001  0.0130 -0.6467 -0.1069
 1012MOL0     C39547  11.559  11.910   4.020 -0.5117  0.9314 -0.4652
 1012MOL0     C39548  11.619  11.924   4.157 -0.4108  0.5635  0.3328
 1012MOL0     O39549  11.684  12.034   4.191  0.4899  0.4151 -0.1477
 1012MOL0     C39550  11.734  12.056   4.316  0.2455 -0.7243  0.3822
 1012MOL0     C39551  11.829  11.974   4.377  0.5602 -0.2040  0.6173
 1012MOL0     C39552  11.880  12.003   4.505  0.5812  0.7271 -0.0950
 1012MOL0     C39553  11.854  12.121   4.566 -0.0841 -0.6246 -0.9099
 1012MOL0     O39554  11.897  12.150   4.691 -0.1505  0.6293 -0.2542
 1012MOL0     C39555  12.040  12.142   4.714 -0.2642  0.3855  0.0619
 1012MOL0     C39556  12.083  12.263   4.794 -0.3556  0.2031 -0.4936
 1012MOL0     C39557  12.227  12.240   4.854 -0.2506 -0.2933  0.7140
 1012MOL0     C39558  12.328  12.265   4.739 -0.6448  0.1149 -0.0387
 1012MOL0     C39559  12.474  12.233   4.790  0.3255 -0.2613 -0.3741
 1012MOL0     C39560  12.504  12.350   4.881 -0.1014  0.2045 -0.1930
 1012MOL0     C39561  12.658  12.359   4.909  0.4652 -0.4689  0.2915
 1012MOL0     C39562  12.694  12.431   5.041  0.4028  0.3719 -0.0964
 1012MOL0    Cl39563  12.864  12.415   5.060  0.0221  0.1102  0.5069
 1012MOL0     C39564  11.767  12.208   4.506 -0.0793  0.1583 -0.1202
 1012MOL0     C39565  11.711  12.181   4.377 -0.1149  0.6180  0.1559
 1012MOL0     O39566  11.594  11.831   4.233 -1.1017 -0.4146 -0.2005
 1012MOL0     C39567  11.527  12.024   3.940  0.0977 -0.6812 -0.5649
 1012MOL0     C39568  11.490  12.021   3.807 -0.2158  0.6917  0.1536
 1012MOL0     N39569  10.970  11.806   3.266  0.7428 -0.5273  0.2852
 1012MOL0     N39570  10.873  11.733   3.293  0.0763 -0.8284  0.3322
 1012MOL0     C39571  11.371  11.267   3.355 -0.2925  0.2583 -0.3900
 1012MOL0     C39572  11.400  11.232   3.480 -0.6049 -0.3639 -0.9754
 1012MOL0     C39573  11.473  11.193   3.924 -0.4539  0.2273 -0.7348
 1012MOL0     C39574  11.430  11.301   4.006 -0.7706  0.4398 -0.5441
 1012MOL0     C39575  11.472  11.320   4.136  0.8414 -0.0362  0.1925
 1012MOL0     C39576  11.538  11.217   4.207  0.9431 -0.4509  0.1968
 1012MOL0     O39577  11.584  11.236   4.332 -0.0981  0.5833  0.3607
 1012MOL0     C39578  11.726  11.216   4.345 -1.1689  0.2533 -0.2853
 1012MOL0     C39579  11.810  11.320   4.264  0.8608 -0.0747  0.3901
 1012MOL0     C39580  11.765  11.467   4.269 -0.1125  0.8047  0.2382
 1012MOL0     C39581  11.745  11.508   4.413  0.5498 -0.0015 -0.8041
 1012MOL0     C39582  11.859  11.483   4.500  0.4506  1.4844  0.4779
 1012MOL0     C39583  11.950  11.480   4.581  0.6826 -0.3417  0.7619
 1012MOL0     C39584  11.576  11.105   4.128  0.4478  0.0881 -0.4408
 1012MOL0     C39585  11.542  11.097   3.992  0.0171  0.5814 -0.3244
 1012MOL0     C39586  11.579  10.977   3.904  0.5463 -0.2441 -1.1523
 1012MOL0     H39587  11.491  11.548   3.586 -1.2664 -0.1136  2.0836
 1012MOL0     H39588  11.432  11.593   3.371  0.4497 -0.3220  1.2903
 1012MOL0     H39589  11.253  11.270   3.116 -1.4897  0.0027 -1.7123
 1012MOL0     H39590  11.429  11.253   3.057  0.8425  2.9066 -1.1252
 1012MOL0     H39591  11.365  11.464   2.929 -0.5655 -0.3311 -0.7688
 1012MOL0     H39592  11.303  11.316   2.862  4.4912 -0.0579 -0.2056
 1012MOL0     H39593  11.153  11.526   3.035 -0.8014 -0.0841  0.3348
 1012MOL0     H39594  11.141  11.509   2.855 -2.9601 -2.6750 -0.7756
 1012MOL0     H39595  11.047  11.275   2.869 -1.7061  0.3353 -0.6160
 1012MOL0     H39596  11.059  11.282   3.038 -0.3161 -1.8348 -0.5971
 1012MOL0     H39597  10.835  11.341   2.918 -0.0952  0.4649 -2.8490
 1012MOL0     H39598  10.901  11.480   2.858  1.0708 -3.1646 -2.7748
 1012MOL0     H39599  10.925  11.594   3.062 -3.6977  2.8634  2.4408
 1012MOL0     H39600  10.770  11.508   3.073  0.4752  2.6982 -1.7016
 1012MOL0     H39601  11.029  11.406   3.204  1.2833 -2.2394 -0.8136
 1012MOL0     H39602  10.885  11.317   3.190 -0.5001  0.9074  0.5445
 1012MOL0     H39603  10.748  11.509   3.303 -1.1932 -3.0042 -0.4458
 1012MOL0     H39604  10.869  11.432   3.417  1.0014  0.7677 -0.0959
 1012MOL0     H39605  11.128  11.550   3.398  1.1077 -0.2735 -1.6409
 1012MOL0     H39606  11.201  11.857   3.195 -1.9105  0.4110  0.4576
 1012MOL0     H39607  11.272  11.705   3.252 -0.1260 -0.3855  0.8347
 1012MOL0     H39608  11.204  11.950   3.420 -0.6290 -0.7771  0.3134
 1012MOL0     H39609  11.261  11.803   3.495 -2.2078  1.5731  0.9507
 1012MOL0     H39610  11.476  11.836   3.370 -0.4289 -1.3027  2.4088
 1012MOL0     H39611  11.416  11.987   3.302  3.1647  1.5897  1.2741
 1012MOL0     H39612  11.540  12.027   3.513  0.1396 -1.0903  3.6640
 1012MOL0     H39613  11.364  12.066   3.522  0.5755  0.4956  2.8338
 1012MOL0     H39614  11.473  11.696   3.759  1.5030  0.2107 -0.4051
 1012MOL0     H39615  11.538  11.622   4.101 -2.8666  0.6139 -1.0473
 1012MOL0     H39616  11.689  11.635   3.993  0.3746 -0.1779  3.2946
 1012MOL0     H39617  11.529  11.561   3.939  0.7987 -1.0486 -0.2852
 1012MOL0     H39618  11.860  11.887   4.321  0.7411  1.8670 -2.7412
 1012MOL0     H39619  11.931  11.929   4.566 -0.8160 -2.2143 -2.2091
 1012MOL0     H39620  12.072  12.048   4.761  0.4357 -0.3887 -1.8374
 1012MOL0     H39621  12.090  12.141   4.617 -1.0772  2.9703 -0.4396
 1012MOL0     H39622  12.075  12.349   4.727  1.9360  0.0978 -0.9560
 1012MOL0     H39623  12.011  12.262   4.877 -0.0802  0.3580 -0.2497
 1012MOL0     H39624  12.237  12.139   4.894  1.7560 -0.2681  0.3533
 1012MOL0     H39625  12.250  12.299   4.943 -1.1700 -0.8716  1.3487
 1012MOL0     H39626  12.319  12.358   4.683 -0.2048 -0.1809 -0.6164
 1012MOL0     H39627  12.319  12.192   4.658  0.2516  1.5763 -1.5087
 1012MOL0     H39628  12.470  12.139   4.844  1.3108 -0.1400 -0.0686
 1012MOL0     H39629  12.556  12.218   4.718  3.0410 -0.3317  2.5166
 1012MOL0     H39630  12.449  12.334   4.975 -0.1284  0.5392 -0.1493
 1012MOL0     H39631  12.453  12.439   4.842 -1.9290  0.8990  3.3337
 1012MOL0     H39632  12.688  12.422   4.825  0.1796 -0.6501  0.0530
 1012MOL0     H39633  12.704  12.260   4.918  1.0026 -0.1965  0.6344
 1012MOL0     H39634  12.635  12.373   5.112 -2.6163 -0.8210 -3.3251
 1012MOL0     H39635  12.659  12.534   5.029 -1.2949 -0.1663  0.0574
 1012MOL0     H39636  11.739  12.299   4.559  4.2282  0.5350  2.0083
 1012MOL0     H39637  11.653  12.253   4.320 -0.8524 -1.1958 -1.4597
 1012MOL0     H39638  11.543  12.122   3.982  0.4562 -0.9847  0.0227
 1012MOL0     H39639  11.475  12.116   3.756  2.6257  1.5133  0.6668
 1012MOL0     H39640  11.332  11.183   3.298  0.5422 -0.8947  0.6868
 1012MOL0     H39641  11.386  11.127   3.502 -1.5583 -0.5583 -2.3568
 1012MOL0     H39642  11.367  11.372   3.954 -2.2577 -0.7276 -0.4140
 1012MOL0     H39643  11.441  11.414   4.180  2.2704  2.5176 -3.6953
 1012MOL0     H39644  11.755  11.209   4.450  2.2131 -3.1348 -1.1989
 1012MOL0     H39645  11.762  11.116   4.319 -0.3696  0.3876  0.2730
 1012MOL0     H39646  11.802  11.301   4.156  0.4948  0.2102  0.3634
 1012MOL0     H39647  11.914  11.301   4.292  1.2517  0.1316 -0.8421
 1012MOL0     H39648  11.849  11.528   4.235  1.4957 -1.3731  0.0695
 1012MOL0     H39649  11.680  11.488   4.205  0.2031  2.0998  0.2102
 1012MOL0     H39650  11.658  11.459   4.459 -0.5151  3.4950  1.2487
 1012MOL0     H39651  11.718  11.613   4.424 -0.3595 -0.3668  1.0803
 1012MOL0     H39652  12.035  11.464   4.645  0.0159  0.0330  1.7624
 1012MOL0     H39653  11.615  11.020   4.184 -2.9920 -0.1305  2.0226
 1012MOL0     H39654  11.484  10.942   3.861  0.2574  1.7799 -2.3242
 1012MOL0     H39655  11.646  11.013   3.825  0.8684  1.3166 -0.2095
 1012MOL0     H39656  11.620  10.888   3.952 -1.3184 -0.4833  0.0804
 1013MOL0     O39657   2.530   5.050   4.746 -0.2732 -0.5774 -0.6288
 1013MOL0     C39658   2.646   5.054   4.714  0.1248  1.0635  0.4277
 1013MOL0     O39659   2.695   5.126   4.610  0.2887 -1.3443  0.2899
 1013MOL0     C39660   2.604   5.184   4.529  0.0749  0.3968 -0.4263
 1013MOL0     C39661   2.529   5.111   4.434  0.2406 -0.4022  0.1812
 1013MOL0     C39662   2.466   5.205   4.343 -0.3155  0.5826 -0.7119
 1013MOL0     C39663   2.460   5.341   4.356 -0.7440 -0.5274 -1.0637
 1013MOL0     O39664   2.384   5.422   4.270  0.7264 -0.1817 -0.1994
 1013MOL0     C39665   2.350   5.367   4.142 -0.4767 -0.8099 -0.3602
 1013MOL0     C39666   2.320   5.480   4.046  0.5186 -0.2458 -0.0210
 1013MOL0     C39667   2.309   5.445   3.902 -0.6239  0.0852 -0.7402
 1013MOL0     C39668   2.300   5.552   3.796 -0.2310  0.1453  0.7260
 1013MOL0     C39669   2.303   5.481   3.659 -0.3984 -0.1697 -0.2491
 1013MOL0     C39670   2.258   5.574   3.548 -0.2863 -0.3080  0.3918
 1013MOL0     C39671   2.222   5.492   3.418  0.0952  0.3731  0.1009
 1013MOL0     C39672   2.072   5.467   3.404 -0.2485  0.8934  0.3182
 1013MOL0     N39673   1.995   5.590   3.410  0.3250  1.2157  0.0825
 1013MOL0     C39674   2.029   5.699   3.337 -0.2677 -0.3258  0.6324
 1013MOL0     C39675   1.927   5.783   3.357 -0.5359 -0.4022 -0.0729
 1013MOL0     C39676   1.932   5.934   3.316 -0.4107  0.7847  0.4535
 1013MOL0     C39677   2.030   6.019   3.401 -0.4732  0.6729  0.1535
 1013MOL0     C39678   2.141   6.098   3.319 -0.0480  0.3415 -0.7979
 1013MOL0     C39679   2.242   5.992   3.273 -0.7494 -0.6271 -0.2031
 1013MOL0     O39680   2.322   5.924   3.374 -0.5353  0.3421  0.2291
 1013MOL0     C39681   2.446   5.974   3.406  0.6046 -1.6872 -0.2175
 1013MOL0     C39682   2.533   5.898   3.474  0.6376 -0.0536 -0.1268
 1013MOL0     C39683   2.661   5.933   3.504  0.2382 -0.0805  0.2888
 1013MOL0     C39684   2.733   5.825   3.580 -0.8805 -0.2709  0.4307
 1013MOL0     C39685   2.707   6.063   3.474  0.7353  0.0309 -0.2081
 1013MOL0     C39686   2.847   6.117   3.496 -0.2643 -0.2662 -0.5768
 1013MOL0     O39687   2.880   6.239   3.453 -0.8300 -0.4868 -0.1993
 1013MOL0     C39688   3.014   6.271   3.466  0.2068  0.1777 -0.0060
 1013MOL0     C39689   3.083   6.285   3.585 -0.3375 -0.6093 -0.1514
 1013MOL0     C39690   3.210   6.329   3.586  0.0589 -1.3379  0.2971
 1013MOL0     C39691   3.281   6.350   3.462  0.2652  0.7180 -0.6643
 1013MOL0     O39692   3.415   6.373   3.464 -0.3983  0.1331  0.0295
 1013MOL0     C39693   3.489   6.328   3.345  0.5891  0.2291  0.1778
 1013MOL0     C39694   3.634   6.283   3.369  0.0448 -0.2434 -1.0161
 1013MOL0     C39695   3.700   6.199   3.265  0.5389 -0.4217  0.6676
 1013MOL0     C39696   3.663   6.054   3.285  0.3255  0.6295  0.1098
 1013MOL0     C39697   3.719   5.961   3.174  1.4193 -0.2725  0.2287
 1013MOL0     C39698   3.677   5.815   3.221  0.5104 -0.5806 -0.3851
 1013MOL0     C39699   3.721   5.716   3.119  0.2331  0.0552  0.1846
 1013MOL0     C39700   3.597   5.635   3.063 -0.6137 -0.6949  0.4250
 1013MOL0    Cl39701   3.477   5.746   2.985 -0.5489  0.2305  0.2324
 1013MOL0     C39702   3.204   6.339   3.342  0.5116  0.4922 -0.2499
 1013MOL0     C39703   3.074   6.293   3.341  0.4457  0.4558  0.0799
 1013MOL0     O39704   2.923   6.039   3.561  0.4859  0.6511  0.1291
 1013MOL0     C39705   2.615   6.149   3.407 -0.2590  0.8400 -0.0787
 1013MOL0     C39706   2.484   6.104   3.381 -0.0256 -0.0790 -0.5009
 1013MOL0     N39707   1.835   5.723   3.439  0.1651  0.5284 -1.0959
 1013MOL0     N39708   1.871   5.608   3.475 -0.2716  0.5656 -0.3646
 1013MOL0     C39709   2.524   5.402   4.463 -0.5919  0.8000 -0.2198
 1013MOL0     C39710   2.595   5.324   4.552  0.3507  0.0673 -0.8324
 1013MOL0     C39711   2.729   4.950   4.782 -0.0430  0.1125  0.7453
 1013MOL0     C39712   2.851   4.920   4.714 -0.3541 -0.0697 -0.2018
 1013MOL0     C39713   2.930   4.823   4.766 -0.1284  0.7104  0.3091
 1013MOL0     C39714   2.895   4.750   4.878  0.2104  0.0199  0.9900
 1013MOL0     O39715   2.982   4.665   4.935 -0.8548  0.3613  0.0257
 1013MOL0     C39716   3.053   4.704   5.050 -0.3317 -0.2166 -0.2039
 1013MOL0     C39717   3.205   4.689   5.037 -1.5313  0.3521  0.6911
 1013MOL0     C39718   3.286   4.776   5.131  1.0122  0.8981  1.4101
 1013MOL0     C39719   3.438   4.770   5.086 -0.4827 -0.6213 -0.5291
 1013MOL0     C39720   3.518   4.826   5.198  0.3669  0.2340  0.1359
 1013MOL0     C39721   3.594   4.872   5.281  0.4591  0.1574  0.2886
 1013MOL0     C39722   2.771   4.771   4.941 -0.5238 -0.6060  0.3032
 1013MOL0     C39723   2.690   4.875   4.902 -0.4478  0.4468  0.0043
 1013MOL0     C39724   2.581   4.915   4.997 -1.0357  0.1527  0.1228
 1013MOL0     H39725   2.547   5.005   4.422  0.4266 -1.3881  6.1832
 1013MOL0     H39726   2.407   5.157   4.265  0.1441  1.7985 -1.8565
 1013MOL0     H39727   2.262   5.303   4.148 -0.2954 -0.9642  1.1199
 1013MOL0     H39728   2.434   5.312   4.097  1.1246 -1.9052  3.5010
 1013MOL0     H39729   2.232   5.536   4.080 -1.4535 -1.3789 -2.8423
 1013MOL0     H39730   2.401   5.552   4.064 -1.1323  1.1888  2.1107
 1013MOL0     H39731   2.389   5.373   3.882 -1.0450 -0.1172 -1.7861
 1013MOL0     H39732   2.219   5.383   3.888  0.9563 -1.7493 -3.9545
 1013MOL0     H39733   2.203   5.600   3.813  0.0875  0.7176  0.9596
 1013MOL0     H39734   2.382   5.624   3.798 -0.1056 -0.0061  1.4258
 1013MOL0     H39735   2.246   5.388   3.659 -0.6163 -0.0519 -1.5896
 1013MOL0     H39736   2.403   5.452   3.625  0.2330  1.1504  0.4098
 1013MOL0     H39737   2.178   5.633   3.593  0.4069  1.7688 -0.9949
 1013MOL0     H39738   2.349   5.631   3.524  0.0641 -1.1703 -0.3849
 1013MOL0     H39739   2.273   5.395   3.414 -0.8082 -0.1087  0.1727
 1013MOL0     H39740   2.256   5.550   3.330 -3.2769  0.3160 -1.3775
 1013MOL0     H39741   2.047   5.415   3.311  2.5604 -0.3096  0.1410
 1013MOL0     H39742   2.045   5.403   3.488 -2.7419  0.0036 -1.0663
 1013MOL0     H39743   2.123   5.709   3.283 -0.8740 -1.5505 -0.7207
 1013MOL0     H39744   1.838   5.989   3.302  0.6031  1.9471 -2.3806
 1013MOL0     H39745   1.964   5.937   3.212  0.3771  3.9208  0.7015
 1013MOL0     H39746   1.972   6.099   3.449  0.9556  2.5934 -1.1605
 1013MOL0     H39747   2.077   5.962   3.482 -0.5519  0.7050  0.2227
 1013MOL0     H39748   2.088   6.153   3.240 -2.8542  3.2843  2.7575
 1013MOL0     H39749   2.174   6.184   3.377 -1.4754 -0.2731  1.0145
 1013MOL0     H39750   2.187   5.909   3.229  0.9871 -2.8979  1.6028
 1013MOL0     H39751   2.299   6.045   3.197  0.1556 -0.2390  0.7157
 1013MOL0     H39752   2.498   5.798   3.500  1.7028 -0.5873 -0.6975
 1013MOL0     H39753   2.754   5.856   3.683 -0.0496  0.4966  0.0455
 1013MOL0     H39754   2.838   5.808   3.552 -0.6074 -0.8395  1.7242
 1013MOL0     H39755   2.675   5.733   3.566 -0.7501 -0.2831 -0.0466
 1013MOL0     H39756   3.033   6.255   3.677 -1.1022  1.0450  0.0040
 1013MOL0     H39757   3.266   6.354   3.675  1.7100  3.0294 -1.6858
 1013MOL0     H39758   3.428   6.243   3.311 -3.7921  1.9723  2.7666
 1013MOL0     H39759   3.478   6.402   3.265 -0.1394  1.2100  1.1521
 1013MOL0     H39760   3.696   6.373   3.373  1.7111 -1.3796 -0.2245
 1013MOL0     H39761   3.650   6.235   3.466  0.6506 -2.8230 -2.3105
 1013MOL0     H39762   3.808   6.216   3.268  0.7301 -1.4894  3.7504
 1013MOL0     H39763   3.654   6.223   3.169  0.2266 -1.8625  0.4429
 1013MOL0     H39764   3.555   6.040   3.292  0.3186 -1.1597 -2.2657
 1013MOL0     H39765   3.707   6.028   3.382 -2.9873 -0.2389  1.5169
 1013MOL0     H39766   3.693   5.991   3.072  3.1588  1.3236  0.2026
 1013MOL0     H39767   3.828   5.971   3.174  1.3511  0.5052  0.3594
 1013MOL0     H39768   3.569   5.819   3.235  0.9126  0.4814  3.7806
 1013MOL0     H39769   3.726   5.798   3.317  1.2191  3.5149  0.1745
 1013MOL0     H39770   3.787   5.650   3.174 -1.9086 -2.1353  0.3072
 1013MOL0     H39771   3.778   5.751   3.032  0.3647 -0.9293 -0.1360
 1013MOL0     H39772   3.547   5.581   3.143 -3.5593  3.3893  1.6797
 1013MOL0     H39773   3.626   5.580   2.973  1.5490  3.2862 -1.5788
 1013MOL0     H39774   3.243   6.366   3.245  0.9784  1.2742  0.1497
 1013MOL0     H39775   3.021   6.278   3.247 -1.7361 -1.5681  1.5307
 1013MOL0     H39776   2.640   6.247   3.368  0.9644  1.3508  1.8453
 1013MOL0     H39777   2.415   6.170   3.330 -2.0627  0.1325  2.3076
 1013MOL0     H39778   2.498   5.503   4.493  1.8451  0.7049  2.6419
 1013MOL0     H39779   2.640   5.368   4.641 -1.1142 -0.6829  0.3390
 1013MOL0     H39780   2.881   4.964   4.619  1.6981  1.0588  0.8952
 1013MOL0     H39781   3.027   4.817   4.717 -0.1071  0.4820  0.3802
 1013MOL0     H39782   3.027   4.807   5.077  2.0748  0.5317 -0.5318
 1013MOL0     H39783   3.016   4.639   5.130 -0.0917  1.1658  1.0767
 1013MOL0     H39784   3.222   4.718   4.933 -0.7814 -3.0179 -0.2471
 1013MOL0     H39785   3.228   4.586   5.064 -2.0562  0.4718  1.6552
 1013MOL0     H39786   3.250   4.880   5.125  0.3236  0.5825 -1.7470
 1013MOL0     H39787   3.275   4.735   5.232 -0.6415 -1.1587  0.4656
 1013MOL0     H39788   3.444   4.838   5.000 -0.2164 -0.2835 -0.2446
 1013MOL0     H39789   3.469   4.671   5.052 -1.2161 -0.7230 -0.9309
 1013MOL0     H39790   3.659   4.908   5.358  3.1042  2.5011 -2.7372
 1013MOL0     H39791   2.751   4.711   5.030 -6.5403 -0.0976 -0.3334
 1013MOL0     H39792   2.613   5.004   5.052 -0.6840  0.4084 -0.4814
 1013MOL0     H39793   2.482   4.919   4.952 -1.1185 -1.1471  0.1313
 1013MOL0     H39794   2.576   4.823   5.056  0.9900  1.0564  1.8153
 1014MOL0     O39795   6.561   5.807   6.006 -0.9741  0.6581 -1.2643
 1014MOL0     C39796   6.465   5.819   6.082  0.1054  0.3114 -0.4716
 1014MOL0     O39797   6.471   5.880   6.199  0.1052  0.4883 -0.7096
 1014MOL0     C39798   6.590   5.907   6.270 -0.3097 -0.1214 -0.9322
 1014MOL0     C39799   6.696   5.978   6.215 -0.8194 -0.5602 -0.1116
 1014MOL0     C39800   6.819   6.005   6.281  0.0977  0.4499 -1.0766
 1014MOL0     C39801   6.839   5.970   6.412 -0.4102  0.3979  0.3155
 1014MOL0     O39802   6.959   6.013   6.474  0.1895 -0.4045  0.2478
 1014MOL0     C39803   6.977   5.965   6.607  0.1511 -0.2747  0.6274
 1014MOL0     C39804   7.113   5.994   6.656 -0.2253 -0.6621 -0.2458
 1014MOL0     C39805   7.153   6.146   6.665  0.6664 -1.0271 -0.8057
 1014MOL0     C39806   7.242   6.177   6.780 -0.6017  0.9381  0.1424
 1014MOL0     C39807   7.158   6.193   6.905 -0.6222  0.1485  0.4897
 1014MOL0     C39808   7.193   6.313   6.984 -0.3608 -0.1674  0.1609
 1014MOL0     C39809   7.123   6.311   7.123  0.5517  0.5777 -0.1252
 1014MOL0     C39810   7.149   6.194   7.222 -0.1179  0.7794  0.7327
 1014MOL0     N39811   7.119   6.223   7.361  0.2694 -0.1961 -0.4658
 1014MOL0     C39812   7.215   6.239   7.455  0.0577 -0.3254 -0.2053
 1014MOL0     C39813   7.158   6.228   7.576  0.2947 -0.6860  0.8987
 1014MOL0     C39814   7.211   6.273   7.712 -0.3431  0.1867 -0.4503
 1014MOL0     C39815   7.331   6.189   7.769 -0.6785 -0.2126  0.1803
 1014MOL0     C39816   7.278   6.074   7.849  0.6271  0.2240  0.4867
 1014MOL0     C39817   7.214   5.954   7.762 -1.1546 -0.0772  0.6398
 1014MOL0     O39818   7.319   5.907   7.673  0.5826  0.4427 -0.1643
 1014MOL0     C39819   7.293   5.896   7.538  0.2965 -0.1867  0.0648
 1014MOL0     C39820   7.164   5.867   7.495 -0.6319  0.2252 -0.2557
 1014MOL0     C39821   7.133   5.844   7.355 -0.1840 -0.4448 -0.1490
 1014MOL0     C39822   6.989   5.816   7.313 -0.2075  0.3765  0.0813
 1014MOL0     C39823   7.250   5.864   7.260 -0.1299  0.4746 -0.2551
 1014MOL0     C39824   7.249   5.842   7.115  0.5491  0.9824 -0.4247
 1014MOL0     O39825   7.369   5.800   7.057  0.5032  0.0537 -0.3298
 1014MOL0     C39826   7.355   5.766   6.931  0.6441 -0.5613  1.3082
 1014MOL0     C39827   7.412   5.852   6.831  0.5070 -0.0933 -0.0527
 1014MOL0     C39828   7.411   5.809   6.695 -0.0289 -0.4128  1.2138
 1014MOL0     C39829   7.346   5.698   6.650  0.9149 -0.9802 -1.1528
 1014MOL0     O39830   7.324   5.659   6.519 -0.7527 -0.2713  0.5738
 1014MOL0     C39831   7.379   5.748   6.417 -0.3122  0.1017 -0.6659
 1014MOL0     C39832   7.294   5.718   6.298  0.0847 -0.2850 -0.7466
 1014MOL0     C39833   7.319   5.817   6.181 -0.5364  0.0517  0.0961
 1014MOL0     C39834   7.223   5.786   6.064 -0.1694 -0.3649  0.5492
 1014MOL0     C39835   7.239   5.871   5.933  0.3132 -0.3748 -0.2886
 1014MOL0     C39836   7.376   5.851   5.858 -1.0799 -0.3902  0.3179
 1014MOL0     C39837   7.395   5.952   5.739  0.1878 -0.2221  0.0659
 1014MOL0     C39838   7.458   6.081   5.776  0.6754  0.0806 -0.4404
 1014MOL0    Cl39839   7.334   6.189   5.869  0.0632 -0.1582 -0.3516
 1014MOL0     C39840   7.277   5.623   6.752  0.4557  0.6478  0.3641
 1014MOL0     C39841   7.291   5.651   6.888 -0.8167 -0.0130 -0.5053
 1014MOL0     O39842   7.136   5.847   7.064  0.0175 -0.3841 -0.3840
 1014MOL0     C39843   7.376   5.895   7.313  0.3542 -0.0277 -0.4381
 1014MOL0     C39844   7.398   5.897   7.447 -0.3606 -1.0271  0.0466
 1014MOL0     N39845   7.030   6.204   7.557  0.6367  0.1178  0.0777
 1014MOL0     N39846   7.002   6.189   7.427 -0.3354 -0.5339 -0.0412
 1014MOL0     C39847   6.733   5.892   6.472 -1.3587  0.4744  0.3546
 1014MOL0     C39848   6.608   5.872   6.404 -0.0431  1.3635  0.3735
 1014MOL0     C39849   6.327   5.831   6.021 -0.3060 -0.9558 -1.5132
 1014MOL0     C39850   6.219   5.884   6.092 -0.5280  0.7248  0.2851
 1014MOL0     C39851   6.093   5.913   6.031  0.4381  0.2452 -0.3142
 1014MOL0     C39852   6.069   5.879   5.903 -0.5682 -1.0846 -0.4210
 1014MOL0     O39853   5.947   5.886   5.835  0.3552 -0.2162 -0.4164
 1014MOL0     C39854   5.840   5.868   5.917 -0.4724 -0.0447 -0.5352
 1014MOL0     C39855   5.716   5.831   5.838  0.1047  0.0288  0.5653
 1014MOL0     C39856   5.743   5.701   5.754 -0.8620  0.2431  0.2211
 1014MOL0     C39857   5.630   5.690   5.644  0.0831 -0.3366  0.6596
 1014MOL0     C39858   5.498   5.707   5.694 -1.0098 -1.0138 -0.2375
 1014MOL0     C39859   5.390   5.717   5.742  0.1496  0.7275 -0.5504
 1014MOL0     C39860   6.178   5.828   5.828  0.1395 -1.2571  0.1795
 1014MOL0     C39861   6.304   5.808   5.884  1.6007 -1.3505  0.0103
 1014MOL0     C39862   6.394   5.739   5.796 -0.5784 -0.1165  0.5468
 1014MOL0     H39863   6.703   6.024   6.116 -2.6620 -2.8537 -1.4044
 1014MOL0     H39864   6.899   6.046   6.219  2.8803 -2.5593  0.2025
 1014MOL0     H39865   6.965   5.856   6.609  0.1048 -0.3081 -0.6038
 1014MOL0     H39866   6.903   6.001   6.680  2.2910  3.3786  1.2824
 1014MOL0     H39867   7.122   5.944   6.753  2.4041 -0.5243 -0.3637
 1014MOL0     H39868   7.188   5.952   6.588 -0.1942  0.0930 -0.6903
 1014MOL0     H39869   7.209   6.172   6.574  3.9895 -1.3677  0.9961
 1014MOL0     H39870   7.063   6.208   6.670  1.2017 -0.3359  2.4534
 1014MOL0     H39871   7.311   6.092   6.783 -1.5007  0.1863  0.3945
 1014MOL0     H39872   7.284   6.277   6.767 -2.1560  1.7181  0.8088
 1014MOL0     H39873   7.166   6.098   6.958 -1.6635 -0.5791 -0.5986
 1014MOL0     H39874   7.055   6.193   6.869  0.3203  0.8372 -2.5053
 1014MOL0     H39875   7.303   6.309   6.989 -0.3611  0.5447  0.9941
 1014MOL0     H39876   7.161   6.404   6.932 -1.7400 -1.6987 -1.8469
 1014MOL0     H39877   7.015   6.312   7.109  0.6146 -1.5677 -1.2728
 1014MOL0     H39878   7.151   6.406   7.171  0.7133  0.3205  0.3044
 1014MOL0     H39879   7.098   6.101   7.195  0.6173  0.6411 -0.2424
 1014MOL0     H39880   7.255   6.173   7.204 -0.3758  2.6144 -4.6155
 1014MOL0     H39881   7.321   6.254   7.437 -0.7175  2.0205 -3.9597
 1014MOL0     H39882   7.124   6.278   7.779  0.9597  1.8868  1.2537
 1014MOL0     H39883   7.247   6.376   7.700 -1.1796  0.1842 -3.9075
 1014MOL0     H39884   7.394   6.149   7.690  0.0023  0.6428  0.2842
 1014MOL0     H39885   7.390   6.253   7.834 -1.3546  0.5081  0.0953
 1014MOL0     H39886   7.361   6.045   7.914  0.6086 -2.5002 -0.5830
 1014MOL0     H39887   7.205   6.120   7.916  1.1832  2.3620 -0.3019
 1014MOL0     H39888   7.176   5.879   7.832 -2.4628  0.7688  0.8718
 1014MOL0     H39889   7.127   5.994   7.709 -0.6054 -0.7081 -0.7703
 1014MOL0     H39890   7.084   5.850   7.566 -1.3249 -2.2981 -1.4950
 1014MOL0     H39891   6.948   5.890   7.243 -1.3805 -0.7775 -0.4797
 1014MOL0     H39892   6.931   5.808   7.406  3.1289 -0.9871  2.2202
 1014MOL0     H39893   6.980   5.727   7.251  0.9842  1.8847 -2.4448
 1014MOL0     H39894   7.450   5.950   6.858 -0.2398  0.0215  0.6347
 1014MOL0     H39895   7.457   5.890   6.639  0.9266  0.0652  2.6475
 1014MOL0     H39896   7.360   5.855   6.435  0.2025  0.2943 -1.2435
 1014MOL0     H39897   7.483   5.721   6.397 -0.0482 -0.1771  0.9532
 1014MOL0     H39898   7.313   5.617   6.260 -1.4974  1.1605 -6.3468
 1014MOL0     H39899   7.188   5.733   6.319  0.6160  0.4310  1.6052
 1014MOL0     H39900   7.427   5.811   6.164 -0.3184 -1.9532  1.7404
 1014MOL0     H39901   7.300   5.918   6.218 -3.2715 -0.2253 -0.3536
 1014MOL0     H39902   7.127   5.817   6.105  1.7352  5.3352  1.4945
 1014MOL0     H39903   7.221   5.677   6.053 -0.4879 -0.5449  2.1668
 1014MOL0     H39904   7.158   5.831   5.871 -0.0881 -0.9806  0.6055
 1014MOL0     H39905   7.235   5.977   5.961  2.5117 -1.0783  3.3642
 1014MOL0     H39906   7.396   5.749   5.825  0.0988 -0.2342  0.4996
 1014MOL0     H39907   7.461   5.872   5.923  3.2807 -1.7686 -4.3059
 1014MOL0     H39908   7.300   5.961   5.685 -0.6718 -1.1403  1.3568
 1014MOL0     H39909   7.471   5.913   5.671  1.5924  2.6535 -0.1734
 1014MOL0     H39910   7.477   6.138   5.684  2.1236  1.3381  0.6018
 1014MOL0     H39911   7.548   6.070   5.836  0.9869  1.8924 -0.5209
 1014MOL0     H39912   7.225   5.532   6.722  0.4203  0.7001  0.2654
 1014MOL0     H39913   7.249   5.583   6.963  0.1187 -0.1907 -0.1334
 1014MOL0     H39914   7.465   5.915   7.254  1.6857 -2.4238  0.6302
 1014MOL0     H39915   7.491   5.920   7.499 -0.0496 -0.6758 -0.6504
 1014MOL0     H39916   6.740   5.858   6.574 -3.2387 -0.7214  0.1391
 1014MOL0     H39917   6.527   5.823   6.457  1.4027  0.4792  1.8583
 1014MOL0     H39918   6.231   5.911   6.196  0.5256  0.0857  0.3434
 1014MOL0     H39919   6.007   5.941   6.090 -0.6247  2.4824 -2.7316
 1014MOL0     H39920   5.867   5.785   5.983  0.3253  0.0789 -0.6925
 1014MOL0     H39921   5.813   5.957   5.975 -0.5501 -0.7194  0.4847
 1014MOL0     H39922   5.685   5.915   5.776  2.1598  2.4057  2.5520
 1014MOL0     H39923   5.632   5.815   5.907  1.4153 -0.8865  2.0378
 1014MOL0     H39924   5.839   5.691   5.703 -1.9128 -2.2250 -1.4508
 1014MOL0     H39925   5.732   5.614   5.819  0.2233 -0.1080 -0.0378
 1014MOL0     H39926   5.645   5.589   5.606  2.2716  0.6038 -1.2456
 1014MOL0     H39927   5.648   5.752   5.555 -0.5069 -0.7276  0.2629
 1014MOL0     H39928   5.290   5.731   5.779  1.4441 -1.2157  4.5000
 1014MOL0     H39929   6.144   5.815   5.726  0.5009 -0.9866  0.0216
 1014MOL0     H39930   6.475   5.794   5.748 -1.2346 -1.7237 -2.6301
 1014MOL0     H39931   6.428   5.645   5.839  3.0208  0.3806 -0.9386
 1014MOL0     H39932   6.349   5.715   5.699 -0.7627  0.4717  0.4793
 1015MOL0     O39933   7.201   0.579   8.221  0.3679  0.9328  0.3374
 1015MOL0     C39934   7.312   0.541   8.238  0.2593  0.2794 -0.1874
 1015MOL0     O39935   7.354   0.421   8.181  0.2294 -0.0013  0.4571
 1015MOL0     C39936   7.267   0.334   8.106 -0.1870 -0.3146 -0.3354
 1015MOL0     C39937   7.266   0.332   7.961 -0.1325 -0.3953 -0.6638
 1015MOL0     C39938   7.177   0.246   7.896 -0.3021  0.5947 -0.7610
 1015MOL0     C39939   7.093   0.160   7.972  0.0439  0.0622 -0.6767
 1015MOL0     O39940   7.024   0.063   7.908 -0.5649  0.2744 -0.6348
 1015MOL0     C39941   6.931  -0.014   7.988  0.4430  0.0436  0.2616
 1015MOL0     C39942   6.869  -0.118   7.893  0.1996 -0.9960  0.3123
 1015MOL0     C39943   6.795  -0.235   7.966 -0.5753 -0.3944 -1.5207
 1015MOL0     C39944   6.746  -0.330   7.856  0.5809 -0.0899  0.3282
 1015MOL0     C39945   6.658  -0.441   7.908  0.7727 -0.4347  0.9021
 1015MOL0     C39946   6.622  -0.543   7.796 -0.3934  0.8079  0.1713
 1015MOL0     C39947   6.520  -0.648   7.833  0.6566  0.6907 -0.2843
 1015MOL0     C39948   6.495  -0.747   7.725 -0.5040 -0.6937  0.1632
 1015MOL0     N39949   6.358  -0.797   7.735  0.2721  0.3180  0.6690
 1015MOL0     C39950   6.316  -0.897   7.818  0.2836  0.6309  0.0230
 1015MOL0     C39951   6.184  -0.914   7.785 -0.7757 -0.2360  0.7904
 1015MOL0     C39952   6.083  -1.018   7.821 -0.6770  0.0207  0.6646
 1015MOL0     C39953   6.041  -1.116   7.695  0.3413 -0.6742 -0.0191
 1015MOL0     C39954   5.927  -1.210   7.710 -0.0775 -0.0088 -1.5895
 1015MOL0     C39955   5.796  -1.149   7.762  0.6803 -0.4816 -0.7532
 1015MOL0     O39956   5.698  -1.250   7.807  0.1301  0.5226 -0.1203
 1015MOL0     C39957   5.702  -1.294   7.941  0.7601  0.1191  0.9439
 1015MOL0     C39958   5.808  -1.294   8.032 -0.8818 -0.6674 -0.2447
 1015MOL0     C39959   5.807  -1.351   8.159 -1.0869  0.3664  0.0341
 1015MOL0     C39960   5.930  -1.327   8.253  0.3539 -0.0991  0.9077
 1015MOL0     C39961   5.698  -1.428   8.197  0.3677 -0.6372  0.3596
 1015MOL0     C39962   5.686  -1.513   8.319 -0.3983 -0.5016  0.1636
 1015MOL0     O39963   5.594  -1.608   8.311 -0.2413  0.5550 -0.1902
 1015MOL0     C39964   5.562  -1.684   8.421  0.7397 -0.4842  0.0090
 1015MOL0     C39965   5.435  -1.653   8.481  1.0456 -0.5151  0.3218
 1015MOL0     C39966   5.375  -1.734   8.582  0.5320  0.6232 -0.8091
 1015MOL0     C39967   5.448  -1.843   8.628 -0.9464 -0.3865 -0.1659
 1015MOL0     O39968   5.388  -1.923   8.712  0.7590 -0.0842  0.3358
 1015MOL0     C39969   5.422  -2.071   8.724 -0.0951 -0.9287 -0.1502
 1015MOL0     C39970   5.322  -2.156   8.808 -0.3232  0.0419  0.8087
 1015MOL0     C39971   5.302  -2.111   8.953 -0.1246  0.4545 -1.0372
 1015MOL0     C39972   5.196  -2.205   9.022  0.0530 -0.4899 -0.0648
 1015MOL0     C39973   5.257  -2.342   9.062  1.3080  0.0923  0.9318
 1015MOL0     C39974   5.140  -2.443   9.094  0.0448 -0.5649 -0.3867
 1015MOL0     C39975   5.046  -2.408   9.220  0.0198  0.1090  0.1245
 1015MOL0     C39976   4.898  -2.388   9.180 -0.3260 -0.6948  0.0027
 1015MOL0    Cl39977   4.878  -2.290   9.032 -0.0754 -0.4426  0.0855
 1015MOL0     C39978   5.581  -1.860   8.587 -0.0950 -0.0767 -0.6443
 1015MOL0     C39979   5.637  -1.788   8.484 -0.8038  0.2010  0.1178
 1015MOL0     O39980   5.772  -1.505   8.406 -0.0065  0.3758 -0.0217
 1015MOL0     C39981   5.595  -1.441   8.110  0.7965 -0.1436 -0.0596
 1015MOL0     C39982   5.598  -1.379   7.982  0.7654  0.2046  0.1770
 1015MOL0     N39983   6.161  -0.826   7.678  1.0124  0.2312  0.4412
 1015MOL0     N39984   6.259  -0.757   7.651 -0.1217  0.2073 -0.5058
 1015MOL0     C39985   7.105   0.158   8.106 -0.5260 -0.1359  0.6777
 1015MOL0     C39986   7.192   0.240   8.173 -0.3733 -0.1343 -0.0848
 1015MOL0     C39987   7.394   0.632   8.314  1.6119 -0.5084  0.2189
 1015MOL0     C39988   7.526   0.590   8.311 -0.2388 -0.1095 -0.7087
 1015MOL0     C39989   7.621   0.668   8.386 -0.2428 -0.5483  0.8223
 1015MOL0     C39990   7.585   0.789   8.454 -0.5055 -0.7214 -0.7508
 1015MOL0     O39991   7.681   0.849   8.536 -0.2996 -0.6844  0.1704
 1015MOL0     C39992   7.666   0.992   8.572 -0.1666 -0.0857  0.0328
 1015MOL0     C39993   7.800   1.061   8.589 -0.1736  0.2273  0.3693
 1015MOL0     C39994   7.797   1.196   8.651 -0.6861 -1.0403 -0.2672
 1015MOL0     C39995   7.752   1.196   8.792 -0.3257  0.8806 -0.5289
 1015MOL0     C39996   7.759   1.325   8.866 -0.3470 -0.3523  0.8637
 1015MOL0     C39997   7.761   1.436   8.926 -0.2589 -0.1274 -0.6405
 1015MOL0     C39998   7.448   0.835   8.440 -0.6996  0.0608  0.7459
 1015MOL0     C39999   7.354   0.757   8.382 -0.0568  0.5359 -1.2048
 1015MOL0     C40000   7.215   0.816   8.363 -0.2307 -0.1837 -0.2924
 1015MOL0     H40001   7.344   0.395   7.919  0.1769  0.8730  1.6368
 1015MOL0     H40002   7.187   0.239   7.788  1.1239  1.5604 -0.7223
 1015MOL0     H40003   6.857   0.053   8.032  4.3494  6.1666 -1.2498
 1015MOL0     H40004   6.986  -0.066   8.067  2.0834  3.4769  1.5638
 1015MOL0     H40005   6.808  -0.066   7.819  1.7244 -0.1103 -0.3751
 1015MOL0     H40006   6.956  -0.147   7.834  0.9220  0.7200  0.4740
 1015MOL0     H40007   6.847  -0.295   8.041 -2.2422  0.7665  0.6944
 1015MOL0     H40008   6.711  -0.189   8.018  0.5697 -1.3222  1.3790
 1015MOL0     H40009   6.688  -0.275   7.780  0.3184 -0.5891  0.1623
 1015MOL0     H40010   6.818  -0.388   7.798  0.0647 -1.7425  1.2888
 1015MOL0     H40011   6.566  -0.401   7.950  0.2751 -1.6068  0.9626
 1015MOL0     H40012   6.710  -0.499   7.985 -1.8380 -1.4457  1.9998
 1015MOL0     H40013   6.596  -0.483   7.708  0.7508  1.1488  0.0567
 1015MOL0     H40014   6.712  -0.601   7.776 -0.2820 -0.0037  2.6224
 1015MOL0     H40015   6.424  -0.611   7.869  1.3100  1.5015  0.6989
 1015MOL0     H40016   6.562  -0.708   7.915 -0.6415  2.5776  1.8747
 1015MOL0     H40017   6.496  -0.700   7.627 -1.8530 -0.0253  0.4440
 1015MOL0     H40018   6.548  -0.843   7.729 -3.6142 -2.5660 -0.2404
 1015MOL0     H40019   6.382  -0.955   7.883 -0.1732  2.0365  1.8097
 1015MOL0     H40020   5.998  -0.957   7.851 -0.5323  1.7188 -2.0110
 1015MOL0     H40021   6.120  -1.072   7.909  3.5745  3.6660  1.4592
 1015MOL0     H40022   5.996  -1.059   7.613  0.8899 -0.1937  0.0039
 1015MOL0     H40023   6.129  -1.174   7.664  2.7426  1.6961  1.9645
 1015MOL0     H40024   5.905  -1.250   7.610 -1.8300 -0.8858 -0.8922
 1015MOL0     H40025   5.960  -1.286   7.780  2.1446  0.2050 -2.3332
 1015MOL0     H40026   5.814  -1.091   7.853 -0.4037 -2.9979  1.1868
 1015MOL0     H40027   5.755  -1.082   7.686  3.3357 -0.3365 -2.1731
 1015MOL0     H40028   5.898  -1.243   8.000 -1.2926  0.5256  0.4166
 1015MOL0     H40029   5.982  -1.423   8.260  0.6983 -0.1024 -1.0749
 1015MOL0     H40030   5.905  -1.295   8.354 -0.8908 -0.3025  0.6820
 1015MOL0     H40031   5.997  -1.255   8.204 -1.0527  0.5761 -0.1008
 1015MOL0     H40032   5.388  -1.564   8.443  0.4344 -1.6941 -1.8145
 1015MOL0     H40033   5.275  -1.725   8.622  0.4622 -3.4440  0.4265
 1015MOL0     H40034   5.443  -2.118   8.628  1.7539 -0.0601 -0.2185
 1015MOL0     H40035   5.519  -2.076   8.776  1.0800  0.7334 -2.0471
 1015MOL0     H40036   5.228  -2.162   8.752  0.2801 -2.9972 -0.0480
 1015MOL0     H40037   5.359  -2.259   8.804 -1.2540 -0.3445  1.5214
 1015MOL0     H40038   5.278  -2.004   8.949 -0.1759  0.5194  0.4591
 1015MOL0     H40039   5.394  -2.120   9.011 -0.3860 -0.5833 -0.7677
 1015MOL0     H40040   5.111  -2.218   8.955 -3.3383  2.2867  3.2041
 1015MOL0     H40041   5.156  -2.165   9.117  1.4812  1.7261 -0.3136
 1015MOL0     H40042   5.307  -2.375   8.971 -0.3552  1.1715 -0.4444
 1015MOL0     H40043   5.334  -2.334   9.140  0.9457 -2.0585  1.5783
 1015MOL0     H40044   5.197  -2.533   9.115  2.5168  1.0000  0.0071
 1015MOL0     H40045   5.085  -2.454   9.001  0.2352 -0.3019 -0.5314
 1015MOL0     H40046   5.090  -2.314   9.255  2.7602 -0.5516 -1.2946
 1015MOL0     H40047   5.060  -2.477   9.303  1.2309  1.6300  1.2410
 1015MOL0     H40048   4.864  -2.320   9.259  0.9001 -0.7209  0.5710
 1015MOL0     H40049   4.841  -2.481   9.187 -0.1387 -0.9614 -1.5897
 1015MOL0     H40050   5.640  -1.944   8.622 -0.0871 -0.5021 -1.6373
 1015MOL0     H40051   5.737  -1.793   8.441 -0.1929 -0.1797  1.5208
 1015MOL0     H40052   5.511  -1.508   8.125  2.3608 -2.1746  0.0026
 1015MOL0     H40053   5.512  -1.385   7.916  0.2904 -0.5851  0.8402
 1015MOL0     H40054   7.060   0.085   8.173 -0.0839 -1.7987 -0.7495
 1015MOL0     H40055   7.194   0.242   8.282 -0.6555  4.4847  0.0516
 1015MOL0     H40056   7.570   0.497   8.277  1.5015 -0.2767  1.7821
 1015MOL0     H40057   7.723   0.632   8.391 -0.2631 -0.4093  3.3623
 1015MOL0     H40058   7.616   1.038   8.486 -1.6925 -1.7696 -0.0486
 1015MOL0     H40059   7.618   1.005   8.670 -1.7848 -0.2458 -0.7102
 1015MOL0     H40060   7.842   1.071   8.489 -2.0346 -3.1657 -0.9260
 1015MOL0     H40061   7.873   1.002   8.646  0.3713  1.5061  1.0325
 1015MOL0     H40062   7.896   1.240   8.637 -1.2767 -0.0359 -1.5410
 1015MOL0     H40063   7.733   1.261   8.590  0.7474  1.6199  0.8833
 1015MOL0     H40064   7.814   1.127   8.851 -0.3609  1.7819  0.6010
 1015MOL0     H40065   7.647   1.167   8.804 -0.3854  1.8985  2.2339
 1015MOL0     H40066   7.757   1.528   8.980  0.9464  1.2545 -2.7469
 1015MOL0     H40067   7.421   0.926   8.492 -0.8687 -0.1392  1.0118
 1015MOL0     H40068   7.138   0.740   8.382  1.5742 -2.3636 -1.2341
 1015MOL0     H40069   7.197   0.902   8.428 -1.3393 -0.7164  0.1351
 1015MOL0     H40070   7.209   0.849   8.259  3.4896 -1.3641 -1.0242
 1016MOL0     O40071   0.162   2.142  10.689 -0.4576 -0.2837 -0.7471
 1016MOL0     C40072   0.078   2.157  10.770 -0.6570  0.2999 -0.7803
 1016MOL0     O40073   0.080   2.105  10.899 -0.3409 -0.2004 -0.0152
 1016MOL0     C40074   0.186   2.030  10.936 -0.5510  0.8756  0.2031
 1016MOL0     C40075   0.271   2.054  11.042 -0.2253 -0.2658  0.1480
 1016MOL0     C40076   0.376   1.966  11.073  1.2436  0.0181  0.4980
 1016MOL0     C40077   0.397   1.846  10.993  0.6317  0.0495  0.4320
 1016MOL0     O40078   0.500   1.769  11.033 -0.2258  0.3833 -0.2475
 1016MOL0     C40079   0.520   1.659  10.947 -0.5066  0.1211 -1.2389
 1016MOL0     C40080   0.640   1.584  11.005  0.0122 -0.3459  0.2590
 1016MOL0     C40081   0.775   1.654  10.984 -0.0166 -0.1398  0.4973
 1016MOL0     C40082   0.809   1.696  10.843  0.9595 -0.3506 -0.9352
 1016MOL0     C40083   0.943   1.760  10.822  1.4242  0.3876 -0.2668
 1016MOL0     C40084   1.009   1.741  10.696 -0.6330  0.0790  0.0519
 1016MOL0     C40085   0.956   1.820  10.570 -0.5386  0.8867  0.1312
 1016MOL0     C40086   0.987   1.967  10.568  0.0080 -0.1825  1.0973
 1016MOL0     N40087   1.131   1.997  10.545  0.1252 -0.4378  0.2818
 1016MOL0     C40088   1.200   1.969  10.430 -0.6556 -0.2152  0.2605
 1016MOL0     C40089   1.326   2.010  10.451 -0.5612  0.0607  0.3185
 1016MOL0     C40090   1.437   1.974  10.363  0.4855  0.7608  0.4494
 1016MOL0     C40091   1.516   1.857  10.424 -1.4673 -0.5115 -0.5681
 1016MOL0     C40092   1.639   1.817  10.337 -0.5405 -0.3455  0.3534
 1016MOL0     C40093   1.745   1.745  10.413 -0.2149 -0.1866 -0.3863
 1016MOL0     O40094   1.700   1.659  10.520  0.2504 -0.1316 -0.1961
 1016MOL0     C40095   1.773   1.621  10.631 -0.0213 -0.1180  0.7627
 1016MOL0     C40096   1.718   1.530  10.721 -0.3751 -0.3667  0.6943
 1016MOL0     C40097   1.799   1.477  10.823  0.4908 -0.4678  0.1598
 1016MOL0     C40098   1.721   1.404  10.926  0.0309 -0.5313  0.7405
 1016MOL0     C40099   1.937   1.517  10.844  0.2029  0.1556  0.4052
 1016MOL0     C40100   2.019   1.470  10.951 -0.4604 -0.1005 -0.4307
 1016MOL0     O40101   2.097   1.564  11.019  0.3129  0.0733 -0.5989
 1016MOL0     C40102   2.215   1.547  11.088  0.2768 -0.5081 -0.3202
 1016MOL0     C40103   2.260   1.651  11.172 -0.0326 -0.6100 -0.2339
 1016MOL0     C40104   2.367   1.643  11.258 -0.2810  0.6688 -0.5340
 1016MOL0     C40105   2.467   1.542  11.248  0.2239  0.1437  0.4640
 1016MOL0     O40106   2.581   1.540  11.316 -0.1074 -0.7306  0.3264
 1016MOL0     C40107   2.659   1.422  11.320  0.1958 -0.0826  0.4374
 1016MOL0     C40108   2.774   1.451  11.413 -0.1783  0.5757 -0.4245
 1016MOL0     C40109   2.763   1.399  11.555 -0.4289  0.5734  0.5858
 1016MOL0     C40110   2.640   1.467  11.623  0.5854  0.2769  0.3119
 1016MOL0     C40111   2.644   1.422  11.773  0.7426 -0.5761 -0.2323
 1016MOL0     C40112   2.534   1.455  11.861 -0.5161 -1.1899  1.2366
 1016MOL0     C40113   2.559   1.416  12.007  0.1573 -0.2411  0.1326
 1016MOL0     C40114   2.434   1.453  12.085  0.3575 -0.4839 -0.0633
 1016MOL0    Cl40115   2.485   1.597  12.191 -0.5538  0.2658 -0.0685
 1016MOL0     C40116   2.421   1.439  11.160 -0.0703  0.6712  0.0927
 1016MOL0     C40117   2.297   1.434  11.088  0.0238  0.5121 -0.5749
 1016MOL0     O40118   2.016   1.347  10.986 -0.1689  0.2777  0.3778
 1016MOL0     C40119   1.980   1.617  10.753 -0.5607  0.7248 -0.7557
 1016MOL0     C40120   1.896   1.668  10.658  0.6051  0.2594  0.5037
 1016MOL0     N40121   1.330   2.077  10.562  0.1743  0.0043 -0.1373
 1016MOL0     N40122   1.218   2.073  10.619 -0.3672  1.1949 -1.1727
 1016MOL0     C40123   0.302   1.824  10.892 -0.0940 -0.2151  0.4744
 1016MOL0     C40124   0.207   1.919  10.858 -0.2369  0.0838 -0.0629
 1016MOL0     C40125  -0.056   2.202  10.719  0.8649 -0.6273  0.0445
 1016MOL0     C40126  -0.174   2.169  10.781  0.7820 -0.3925 -0.7809
 1016MOL0     C40127  -0.304   2.190  10.738  0.1417  0.3619  0.1973
 1016MOL0     C40128  -0.320   2.264  10.618 -0.1576  0.0261  0.0554
 1016MOL0     O40129  -0.432   2.269  10.537  0.3310 -0.1643 -0.7620
 1016MOL0     C40130  -0.546   2.194  10.578 -0.4622  0.4654 -0.3314
 1016MOL0     C40131  -0.646   2.195  10.466 -0.2179  0.0479 -0.8124
 1016MOL0     C40132  -0.788   2.165  10.513  0.3705  0.3160 -0.2699
 1016MOL0     C40133  -0.810   2.015  10.542  0.1453 -0.0741 -0.5993
 1016MOL0     C40134  -0.932   1.970  10.605  0.2707 -0.7638  0.0799
 1016MOL0     C40135  -1.042   1.935  10.640  0.4336 -0.4881  0.3515
 1016MOL0     C40136  -0.207   2.314  10.563 -0.4829 -0.2484 -0.3881
 1016MOL0     C40137  -0.076   2.293  10.609  1.4833  0.7181  0.4810
 1016MOL0     C40138   0.024   2.352  10.527 -0.1931 -1.1370  0.6555
 1016MOL0     H40139   0.252   2.139  11.106 -1.9597 -1.2141  0.9733
 1016MOL0     H40140   0.442   1.987  11.156  3.3572  0.9662 -1.3235
 1016MOL0     H40141   0.540   1.700  10.847  2.1619  1.4218 -0.2807
 1016MOL0     H40142   0.431   1.597  10.953 -0.4540  0.2102  1.2073
 1016MOL0     H40143   0.630   1.571  11.113  2.9850  1.9363  0.9316
 1016MOL0     H40144   0.629   1.484  10.961  1.1244 -0.3786  0.0337
 1016MOL0     H40145   0.777   1.750  11.037  0.6876  2.3283 -3.5260
 1016MOL0     H40146   0.853   1.588  11.024 -0.0733 -0.5760 -0.1008
 1016MOL0     H40147   0.800   1.606  10.780  0.6330 -1.4563  0.6241
 1016MOL0     H40148   0.723   1.760  10.820 -3.8368 -3.2714  5.6063
 1016MOL0     H40149   1.001   1.716  10.904 -0.3029  2.9619  2.5449
 1016MOL0     H40150   0.931   1.866  10.846 -0.8121  0.4817 -1.4973
 1016MOL0     H40151   1.108   1.788  10.707 -0.6660 -0.1733  1.5767
 1016MOL0     H40152   1.012   1.640  10.654  0.9639  0.7807 -1.7218
 1016MOL0     H40153   0.846   1.814  10.567 -0.5827  1.9288 -1.0143
 1016MOL0     H40154   0.991   1.775  10.477  0.7749  1.5757  0.2748
 1016MOL0     H40155   0.950   2.004  10.472  3.0215  3.5025  1.1080
 1016MOL0     H40156   0.944   2.011  10.659  1.2405 -0.6082  1.9166
 1016MOL0     H40157   1.179   1.901  10.347 -2.3436 -1.9230  1.9935
 1016MOL0     H40158   1.499   2.063  10.353 -1.1318  1.7841 -1.2677
 1016MOL0     H40159   1.389   1.949  10.268  2.7931  5.2494 -2.2141
 1016MOL0     H40160   1.552   1.885  10.524  5.0406 -0.7372 -2.3609
 1016MOL0     H40161   1.454   1.770  10.445 -1.6278  0.1926  2.3669
 1016MOL0     H40162   1.601   1.750  10.258 -1.0691  0.8800 -0.4619
 1016MOL0     H40163   1.682   1.908  10.296  0.4983 -0.5368  0.9766
 1016MOL0     H40164   1.811   1.690  10.345  1.7907 -1.4238  2.3462
 1016MOL0     H40165   1.813   1.813  10.466  1.8855 -3.1897  1.0745
 1016MOL0     H40166   1.611   1.526  10.706 -0.4052  2.1318 -0.2457
 1016MOL0     H40167   1.768   1.308  10.949  0.2488 -0.5949  0.0563
 1016MOL0     H40168   1.620   1.371  10.903  0.3164 -4.3154  3.8916
 1016MOL0     H40169   1.713   1.467  11.015  3.6189  3.1634 -1.1554
 1016MOL0     H40170   2.200   1.741  11.180  2.8451  1.4051  0.3243
 1016MOL0     H40171   2.374   1.718  11.336  2.9410 -0.2893  0.2488
 1016MOL0     H40172   2.604   1.335  11.355 -0.7207  0.3132  0.0069
 1016MOL0     H40173   2.697   1.389  11.223 -0.4363 -0.7211  0.4036
 1016MOL0     H40174   2.859   1.397  11.369 -2.0694 -2.6204 -0.4573
 1016MOL0     H40175   2.795   1.558  11.407  1.2605  0.4148  1.0110
 1016MOL0     H40176   2.844   1.430  11.622 -0.6735  0.8801  0.7370
 1016MOL0     H40177   2.747   1.291  11.548 -3.7413  1.0187 -0.0994
 1016MOL0     H40178   2.550   1.424  11.577  1.5416 -0.1164 -1.2668
 1016MOL0     H40179   2.629   1.575  11.608 -2.3007  0.1611  1.0337
 1016MOL0     H40180   2.655   1.314  11.779 -0.0746 -0.6048  0.9016
 1016MOL0     H40181   2.729   1.469  11.823  0.0107  0.6206 -0.0613
 1016MOL0     H40182   2.447   1.407  11.815 -0.8886  1.6057 -1.3819
 1016MOL0     H40183   2.534   1.564  11.848  1.5866 -1.0155  2.3389
 1016MOL0     H40184   2.660   1.445  12.038  1.1854 -1.9413 -1.3870
 1016MOL0     H40185   2.559   1.307  12.014  0.4551 -0.1443  2.5976
 1016MOL0     H40186   2.399   1.376  12.154 -0.9521 -0.0165 -0.1741
 1016MOL0     H40187   2.359   1.471  12.007 -0.0738 -0.8818  0.2528
 1016MOL0     H40188   2.477   1.353  11.124 -3.5235 -1.7916  0.0419
 1016MOL0     H40189   2.273   1.348  11.027  0.6901 -1.3329  1.6025
 1016MOL0     H40190   2.068   1.677  10.776  0.8072 -1.6165  0.5019
 1016MOL0     H40191   1.938   1.745  10.593 -0.3901 -1.5266 -2.4753
 1016MOL0     H40192   0.327   1.741  10.827  2.4283  2.2855 -2.0340
 1016MOL0     H40193   0.155   1.902  10.764  2.5877 -1.1740 -1.5596
 1016MOL0     H40194  -0.169   2.102  10.866 -3.8316  0.0616  0.1615
 1016MOL0     H40195  -0.388   2.137  10.782 -0.7301  2.0481  0.6363
 1016MOL0     H40196  -0.522   2.088  10.591 -0.0976  0.8138  2.4826
 1016MOL0     H40197  -0.579   2.242  10.670  0.6070  3.6623 -1.4941
 1016MOL0     H40198  -0.623   2.112  10.398  1.0109  0.8811 -1.4432
 1016MOL0     H40199  -0.643   2.287  10.408 -0.4783 -0.7656 -2.1482
 1016MOL0     H40200  -0.807   2.230  10.599  2.6349 -2.4226  2.5595
 1016MOL0     H40201  -0.851   2.193  10.428  0.6451 -2.7525 -1.6125
 1016MOL0     H40202  -0.732   1.977  10.609  0.0400  1.7808  0.6565
 1016MOL0     H40203  -0.804   1.955  10.451 -2.5864  1.7070 -2.0855
 1016MOL0     H40204  -1.139   1.916  10.680  0.2532 -0.3753 -0.0309
 1016MOL0     H40205  -0.216   2.379  10.476  0.7385 -0.5887 -0.7941
 1016MOL0     H40206  -0.015   2.446  10.487 -0.6985  0.0710  3.6652
 1016MOL0     H40207   0.114   2.374  10.585  0.0129 -0.9689  0.2667
 1016MOL0     H40208   0.058   2.282  10.450  0.3761  0.3521 -0.4716
 1017MOL0     O40209   0.077   3.956   6.621  0.3291 -0.2463  0.1475
 1017MOL0     C40210   0.030   4.037   6.693  0.0762 -0.0216 -0.6041
 1017MOL0     O40211  -0.097   4.089   6.686  0.7286 -0.1439 -0.2448
 1017MOL0     C40212  -0.166   4.069   6.568  0.2223 -1.1992  0.0304
 1017MOL0     C40213  -0.134   4.141   6.451 -0.0556  0.0627 -0.3300
 1017MOL0     C40214  -0.202   4.117   6.332 -0.4956  0.2217  0.0968
 1017MOL0     C40215  -0.302   4.014   6.320  0.4500 -0.4090 -1.2916
 1017MOL0     O40216  -0.382   3.972   6.208 -0.1410  0.1533 -0.0014
 1017MOL0     C40217  -0.371   4.047   6.085 -0.4767  0.2963  0.6012
 1017MOL0     C40218  -0.440   3.961   5.982 -0.3743 -0.0500 -1.4465
 1017MOL0     C40219  -0.379   3.832   5.940  0.0399  0.2117  0.7456
 1017MOL0     C40220  -0.491   3.773   5.844  0.1593  0.7661  0.3628
 1017MOL0     C40221  -0.432   3.654   5.767 -0.2369  0.2522 -0.5272
 1017MOL0     C40222  -0.544   3.565   5.716 -0.7508  0.5550  0.2810
 1017MOL0     C40223  -0.488   3.434   5.639 -0.3959 -1.0917  0.3808
 1017MOL0     C40224  -0.523   3.440   5.488  0.1495 -0.2341 -0.5704
 1017MOL0     N40225  -0.671   3.415   5.472 -0.0102 -0.1073  0.2436
 1017MOL0     C40226  -0.718   3.369   5.352  1.8896 -0.7727 -0.1142
 1017MOL0     C40227  -0.841   3.325   5.381 -0.1188  0.1109 -0.0526
 1017MOL0     C40228  -0.939   3.274   5.282  0.6770 -0.6882 -0.2333
 1017MOL0     C40229  -0.984   3.131   5.309 -0.2164  0.0795 -0.0929
 1017MOL0     C40230  -1.127   3.122   5.366 -0.9100  0.6721  0.2766
 1017MOL0     C40231  -1.150   3.181   5.498  0.4575 -0.3386 -0.4538
 1017MOL0     O40232  -1.286   3.168   5.532  0.3472  0.4198 -0.8696
 1017MOL0     C40233  -1.314   3.151   5.667 -0.9734  1.5055 -0.0692
 1017MOL0     C40234  -1.437   3.192   5.702  0.0984 -0.5001 -0.6796
 1017MOL0     C40235  -1.483   3.192   5.838  0.3935 -0.3851  0.7231
 1017MOL0     C40236  -1.611   3.268   5.882 -0.6959 -1.2235 -0.0403
 1017MOL0     C40237  -1.396   3.143   5.937  0.1384  0.4199 -0.4731
 1017MOL0     C40238  -1.425   3.129   6.080  0.0118  0.2036 -0.3304
 1017MOL0     O40239  -1.397   3.003   6.143 -0.0659 -0.0371  0.2059
 1017MOL0     C40240  -1.396   3.006   6.279 -0.1972  0.5263 -0.8767
 1017MOL0     C40241  -1.514   3.027   6.346 -0.4764 -0.4658 -0.3511
 1017MOL0     C40242  -1.509   3.036   6.485 -0.0116  0.6714  0.6073
 1017MOL0     C40243  -1.390   3.027   6.564 -0.2115  0.7109  0.2614
 1017MOL0     O40244  -1.388   3.047   6.698  0.2920 -0.3229  0.3511
 1017MOL0     C40245  -1.269   3.088   6.768 -0.4589 -0.7821 -0.9816
 1017MOL0     C40246  -1.223   3.234   6.721  0.3945  0.3816  0.5982
 1017MOL0     C40247  -1.112   3.299   6.811 -0.0550  0.1963  0.2908
 1017MOL0     C40248  -1.099   3.450   6.787  0.1484  0.3003 -0.0557
 1017MOL0     C40249  -0.971   3.506   6.843  0.2858  0.2739 -0.8664
 1017MOL0     C40250  -0.956   3.499   6.999 -0.4387  1.1677  0.5661
 1017MOL0     C40251  -0.810   3.536   7.043  0.5209  0.4323  0.0516
 1017MOL0     C40252  -0.794   3.691   7.043  0.3069  0.1319  0.1293
 1017MOL0    Cl40253  -0.902   3.784   7.152  0.0878  0.1126 -0.7531
 1017MOL0     C40254  -1.266   3.005   6.490 -0.1051  0.3284 -0.0653
 1017MOL0     C40255  -1.274   2.996   6.347 -1.1698  0.6887  0.4580
 1017MOL0     O40256  -1.468   3.227   6.137 -0.9830  0.1780  0.2729
 1017MOL0     C40257  -1.269   3.091   5.892  0.2655 -0.7763  0.3824
 1017MOL0     C40258  -1.225   3.098   5.763  1.2054  0.1776  0.0738
 1017MOL0     N40259  -0.869   3.350   5.517 -0.2247  1.2056 -0.2412
 1017MOL0     N40260  -0.768   3.407   5.574  0.6803 -1.0020 -0.1219
 1017MOL0     C40261  -0.331   3.947   6.437  0.4638 -0.0820 -0.4822
 1017MOL0     C40262  -0.266   3.971   6.559  0.3298 -0.2021  0.4233
 1017MOL0     C40263   0.121   4.113   6.798  0.7516  0.2179 -0.3794
 1017MOL0     C40264   0.093   4.242   6.830  0.8002 -0.6512 -0.7035
 1017MOL0     C40265   0.158   4.312   6.928  1.0005 -0.4465 -0.1263
 1017MOL0     C40266   0.269   4.262   6.992  0.0186  0.1959 -0.2815
 1017MOL0     O40267   0.339   4.340   7.083  0.1916  0.5537  0.0536
 1017MOL0     C40268   0.483   4.314   7.100  0.5165  0.2053 -0.8870
 1017MOL0     C40269   0.563   4.444   7.134  0.0337 -0.5965  0.8525
 1017MOL0     C40270   0.710   4.424   7.142 -0.6823 -0.0524 -0.3442
 1017MOL0     C40271   0.763   4.307   7.227  0.1718 -0.0945 -0.0729
 1017MOL0     C40272   0.904   4.307   7.218 -1.3904  0.5181  0.0018
 1017MOL0     C40273   1.023   4.321   7.192  0.0776 -0.2206 -0.7188
 1017MOL0     C40274   0.297   4.135   6.963 -0.3930 -0.1772  0.1877
 1017MOL0     C40275   0.233   4.060   6.860 -0.0505 -0.8759 -0.0163
 1017MOL0     C40276   0.267   3.920   6.863 -0.3668  0.0926 -0.6379
 1017MOL0     H40277  -0.061   4.222   6.451  1.0542 -0.8723  1.4238
 1017MOL0     H40278  -0.184   4.189   6.253  1.7046  0.8267  1.0822
 1017MOL0     H40279  -0.267   4.071   6.061 -0.6626  0.0237 -0.5080
 1017MOL0     H40280  -0.431   4.139   6.089 -1.9136 -0.4117 -2.3808
 1017MOL0     H40281  -0.537   3.936   6.025  0.1740 -1.2282 -0.8407
 1017MOL0     H40282  -0.459   4.032   5.901 -0.2321  1.5956 -0.1172
 1017MOL0     H40283  -0.292   3.848   5.875 -1.3972  3.9817 -0.5064
 1017MOL0     H40284  -0.358   3.766   6.025  1.1573  1.4167  1.4491
 1017MOL0     H40285  -0.566   3.742   5.917 -1.9458  6.1685  0.9546
 1017MOL0     H40286  -0.539   3.839   5.772 -0.6074  1.3069  1.3465
 1017MOL0     H40287  -0.369   3.591   5.831  2.4470  1.8102 -1.4376
 1017MOL0     H40288  -0.362   3.680   5.687 -0.2438 -0.9994 -0.9557
 1017MOL0     H40289  -0.611   3.535   5.797 -0.9501 -0.4425 -0.2269
 1017MOL0     H40290  -0.608   3.619   5.646 -0.9639 -0.8547 -0.6697
 1017MOL0     H40291  -0.526   3.339   5.679  0.3462 -0.5330  2.5700
 1017MOL0     H40292  -0.379   3.428   5.646 -0.2650  1.8100  3.8897
 1017MOL0     H40293  -0.491   3.536   5.447 -0.2939 -0.5235 -1.6156
 1017MOL0     H40294  -0.474   3.359   5.432 -1.6885 -1.1187 -0.9962
 1017MOL0     H40295  -0.674   3.372   5.253 -2.1051 -0.9757 -2.0900
 1017MOL0     H40296  -0.888   3.262   5.186  0.1426 -1.8065 -0.4019
 1017MOL0     H40297  -1.022   3.346   5.280 -0.5213 -2.0068  0.1490
 1017MOL0     H40298  -0.980   3.082   5.212  2.1858 -2.0309  0.9582
 1017MOL0     H40299  -0.920   3.079   5.381 -2.0323  0.0683  1.6106
 1017MOL0     H40300  -1.204   3.171   5.305 -2.3446  0.0746  1.5554
 1017MOL0     H40301  -1.152   3.016   5.378  4.4978 -1.2007 -1.9389
 1017MOL0     H40302  -1.080   3.132   5.566  0.4139 -0.1684 -0.2846
 1017MOL0     H40303  -1.126   3.286   5.481 -1.8370  0.3093 -0.0041
 1017MOL0     H40304  -1.500   3.231   5.623  0.9617  2.9494  0.1676
 1017MOL0     H40305  -1.648   3.306   5.786  2.0925  0.5865 -0.5348
 1017MOL0     H40306  -1.596   3.358   5.941 -1.2180  0.2373 -2.0259
 1017MOL0     H40307  -1.682   3.202   5.933 -3.1444  1.7404  0.6365
 1017MOL0     H40308  -1.603   3.048   6.287 -2.0722  1.9380  2.6170
 1017MOL0     H40309  -1.600   3.045   6.545  0.2010  0.3374  0.9866
 1017MOL0     H40310  -1.294   3.083   6.874  0.1327 -0.3461 -0.8192
 1017MOL0     H40311  -1.184   3.023   6.746  0.1348 -0.6437  0.8214
 1017MOL0     H40312  -1.174   3.229   6.623  0.5014 -3.8435  0.6972
 1017MOL0     H40313  -1.308   3.298   6.696 -0.3683 -1.2802 -1.3197
 1017MOL0     H40314  -1.016   3.252   6.788 -0.1524  1.0669 -2.2789
 1017MOL0     H40315  -1.144   3.289   6.915 -2.2284 -1.8402 -0.4829
 1017MOL0     H40316  -1.181   3.498   6.841  0.7340  0.8120  0.3928
 1017MOL0     H40317  -1.096   3.463   6.678  4.0874  1.0339 -0.0310
 1017MOL0     H40318  -0.880   3.460   6.803  2.1049  0.9785  2.1333
 1017MOL0     H40319  -0.965   3.613   6.819  1.5568 -0.2441 -3.1546
 1017MOL0     H40320  -0.968   3.395   7.029  1.1026  0.2462 -1.7173
 1017MOL0     H40321  -1.034   3.556   7.050 -0.1695  0.0714  2.2932
 1017MOL0     H40322  -0.723   3.497   6.990  0.9871 -1.4104  2.0549
 1017MOL0     H40323  -0.794   3.494   7.143  0.2480  0.6778  0.2032
 1017MOL0     H40324  -0.815   3.719   6.939  2.9648  1.1798 -0.2183
 1017MOL0     H40325  -0.691   3.715   7.073  0.3564 -1.2097  1.1276
 1017MOL0     H40326  -1.165   3.015   6.528 -0.1041  2.5523 -0.5336
 1017MOL0     H40327  -1.178   2.967   6.304  0.5016 -2.2691  5.3224
 1017MOL0     H40328  -1.200   3.045   5.962  1.2753 -0.1058 -0.1349
 1017MOL0     H40329  -1.125   3.059   5.745  0.2602 -2.0822 -0.6962
 1017MOL0     H40330  -0.405   3.867   6.439  0.6750 -0.3088  2.1704
 1017MOL0     H40331  -0.295   3.914   6.647  0.5449  2.8820  2.6188
 1017MOL0     H40332   0.010   4.289   6.779  0.4365 -0.8841 -0.3405
 1017MOL0     H40333   0.134   4.413   6.958  2.3602  0.3679 -1.6214
 1017MOL0     H40334   0.493   4.245   7.184 -0.2507  1.3116  0.1551
 1017MOL0     H40335   0.531   4.273   7.011  2.2298 -0.7140  0.4135
 1017MOL0     H40336   0.525   4.489   7.227  0.0023  0.3952  0.3769
 1017MOL0     H40337   0.555   4.519   7.055  0.8271 -1.7016 -0.3214
 1017MOL0     H40338   0.739   4.417   7.037 -2.7119  2.6424 -1.2134
 1017MOL0     H40339   0.752   4.518   7.180 -2.2716  1.3809 -1.9252
 1017MOL0     H40340   0.725   4.206   7.209  1.7721 -0.9223  0.9683
 1017MOL0     H40341   0.739   4.325   7.332  1.1097  1.0842 -0.0356
 1017MOL0     H40342   1.122   4.351   7.165  0.8440 -1.7472  0.2644
 1017MOL0     H40343   0.391   4.095   7.001 -1.4754 -0.9166  2.2347
 1017MOL0     H40344   0.364   3.891   6.904 -0.2354 -1.3762 -1.9113
 1017MOL0     H40345   0.182   3.866   6.906 -2.5008  4.4269  1.2159
 1017MOL0     H40346   0.275   3.888   6.758 -1.2829 -2.1973 -0.0596
 1018MOL0     O40347   2.119   1.695   1.387 -0.0117 -0.4810  0.6076
 1018MOL0     C40348   2.141   1.586   1.352 -0.1672  0.3824 -0.1561
 1018MOL0     O40349   2.206   1.496   1.429 -0.5186  0.1035  0.5313
 1018MOL0     C40350   2.264   1.524   1.550  0.6304 -0.2078 -0.7618
 1018MOL0     C40351   2.242   1.438   1.652 -0.2531 -0.3472  0.0311
 1018MOL0     C40352   2.275   1.470   1.781  0.0270  0.2818 -0.0531
 1018MOL0     C40353   2.348   1.588   1.807  0.0854 -0.3175  0.5524
 1018MOL0     O40354   2.396   1.620   1.932 -0.2424 -0.1645 -0.7760
 1018MOL0     C40355   2.310   1.615   2.037 -0.2210 -0.2034 -0.2453
 1018MOL0     C40356   2.348   1.737   2.133  1.0527 -0.6905  0.5156
 1018MOL0     C40357   2.281   1.867   2.081  0.0274 -0.3747  0.9969
 1018MOL0     C40358   2.271   1.971   2.197 -0.5001  0.3860  0.2813
 1018MOL0     C40359   2.239   2.105   2.131 -0.5869 -0.2644  0.1412
 1018MOL0     C40360   2.250   2.222   2.229  0.4650 -0.0532  0.0166
 1018MOL0     C40361   2.265   2.353   2.152  0.0595  0.0884 -0.9075
 1018MOL0     C40362   2.145   2.382   2.063  0.2416  0.7395  0.4719
 1018MOL0     N40363   2.157   2.503   1.993 -0.2743  0.0859 -0.0456
 1018MOL0     C40364   2.145   2.622   2.059 -0.1223 -0.5397 -0.3152
 1018MOL0     C40365   2.131   2.706   1.967 -0.0902 -0.2188  0.7384
 1018MOL0     C40366   2.110   2.851   1.978  0.4161 -0.2626 -0.3112
 1018MOL0     C40367   2.207   2.931   2.067  1.4603  0.2744 -1.2748
 1018MOL0     C40368   2.331   2.961   1.997  0.0857 -0.3052 -0.0454
 1018MOL0     C40369   2.409   2.839   1.969 -0.7695 -0.1511  0.1211
 1018MOL0     O40370   2.421   2.766   2.090 -0.5723  0.1382  0.0603
 1018MOL0     C40371   2.499   2.653   2.093 -0.3956  0.0858 -0.1425
 1018MOL0     C40372   2.529   2.576   1.981 -0.3707 -0.3225  0.2866
 1018MOL0     C40373   2.582   2.443   1.990  0.0207  0.2173 -1.0449
 1018MOL0     C40374   2.617   2.368   1.869  0.5207 -0.5424 -0.2326
 1018MOL0     C40375   2.604   2.386   2.121 -0.3554 -0.1196  0.2323
 1018MOL0     C40376   2.634   2.242   2.140  1.0316  0.8068  0.2704
 1018MOL0     O40377   2.556   2.148   2.084 -1.4267  1.0594 -0.2372
 1018MOL0     C40378   2.614   2.016   2.074  0.2792  0.1579  0.1656
 1018MOL0     C40379   2.667   1.949   2.182  0.2233 -0.0817 -0.1870
 1018MOL0     C40380   2.725   1.822   2.161  0.2794  0.2432  0.9038
 1018MOL0     C40381   2.712   1.758   2.029  0.5905 -0.6723  0.0194
 1018MOL0     O40382   2.751   1.624   1.998  0.2473 -0.6610 -0.3459
 1018MOL0     C40383   2.838   1.562   2.097 -0.7992  0.6703 -1.1679
 1018MOL0     C40384   2.903   1.435   2.021  0.1823 -1.0714 -0.1164
 1018MOL0     C40385   2.804   1.340   1.962 -0.4582 -0.0823  1.3190
 1018MOL0     C40386   2.712   1.282   2.081  0.0706  0.1925  0.1198
 1018MOL0     C40387   2.626   1.180   2.015  0.7016  0.4328  0.5052
 1018MOL0     C40388   2.493   1.219   1.950  0.2399 -0.4220 -0.4610
 1018MOL0     C40389   2.422   1.104   1.879 -0.4444  0.0828 -0.4290
 1018MOL0     C40390   2.386   0.995   1.983 -0.3403 -0.5989  0.2151
 1018MOL0    Cl40391   2.288   1.040   2.120 -0.2211  0.0915  0.1755
 1018MOL0     C40392   2.643   1.818   1.932 -0.0436  0.6956  0.9243
 1018MOL0     C40393   2.601   1.949   1.955 -0.1745 -0.2426  0.0834
 1018MOL0     O40394   2.725   2.221   2.218  0.1194  0.0273  0.2436
 1018MOL0     C40395   2.594   2.474   2.235  0.3200  0.6969  0.5556
 1018MOL0     C40396   2.533   2.602   2.217 -0.2681 -0.2201  0.5581
 1018MOL0     N40397   2.134   2.645   1.848  0.3038 -0.6049  0.1844
 1018MOL0     N40398   2.176   2.522   1.865 -0.7634  0.1605  0.0811
 1018MOL0     C40399   2.378   1.669   1.696 -1.1391 -0.7540  0.1671
 1018MOL0     C40400   2.342   1.641   1.572  0.2353  0.0002  0.4139
 1018MOL0     C40401   2.086   1.535   1.228  0.1318 -0.6380  0.3128
 1018MOL0     C40402   2.070   1.400   1.217  0.4070  0.7898  0.2388
 1018MOL0     C40403   2.002   1.346   1.103 -0.3217  0.0356 -1.0886
 1018MOL0     C40404   1.958   1.429   0.994  0.2145  0.5554  0.7876
 1018MOL0     O40405   1.898   1.363   0.895 -0.1695 -0.3081  0.3727
 1018MOL0     C40406   1.902   1.416   0.762 -0.3544 -0.1941 -1.4865
 1018MOL0     C40407   1.852   1.315   0.659  0.5347 -0.7256 -0.1699
 1018MOL0     C40408   1.852   1.383   0.519 -0.3505  0.0766 -0.3056
 1018MOL0     C40409   1.858   1.293   0.403  0.2756  1.4627  0.0016
 1018MOL0     C40410   1.737   1.222   0.379  0.6507  0.1816 -1.4967
 1018MOL0     C40411   1.632   1.157   0.371 -0.3027 -0.6981 -0.6446
 1018MOL0     C40412   1.986   1.562   0.999 -0.2853 -0.0360 -0.3118
 1018MOL0     C40413   2.044   1.625   1.117  0.9506 -0.2527  0.0933
 1018MOL0     C40414   2.070   1.761   1.114 -0.7220 -0.4300 -0.4282
 1018MOL0     H40415   2.171   1.360   1.627 -1.6166  1.7714 -3.3895
 1018MOL0     H40416   2.238   1.391   1.846 -2.1573  0.9817 -0.3380
 1018MOL0     H40417   2.318   1.518   2.087 -1.2345  1.6817  4.0598
 1018MOL0     H40418   2.206   1.624   2.006 -0.3888  3.2533  0.8673
 1018MOL0     H40419   2.313   1.709   2.233  2.0633  2.7942  1.9800
 1018MOL0     H40420   2.456   1.756   2.132  1.3491 -2.3022 -0.5477
 1018MOL0     H40421   2.338   1.905   1.996  1.1563  1.9579  2.6699
 1018MOL0     H40422   2.177   1.843   2.059 -0.2720  0.3317  1.6016
 1018MOL0     H40423   2.207   1.935   2.278 -0.1607  1.9860  1.3044
 1018MOL0     H40424   2.365   1.975   2.252 -0.2596  0.9927 -0.1560
 1018MOL0     H40425   2.140   2.105   2.085 -1.0947  1.9591  1.1040
 1018MOL0     H40426   2.317   2.121   2.056  1.3055  4.1025  2.6769
 1018MOL0     H40427   2.167   2.240   2.297 -1.6657 -0.7257 -2.2554
 1018MOL0     H40428   2.339   2.200   2.288 -0.3112 -2.7536  0.3018
 1018MOL0     H40429   2.352   2.356   2.086 -0.7163  3.6720 -1.9922
 1018MOL0     H40430   2.275   2.433   2.226  0.9618 -0.1546 -0.7548
 1018MOL0     H40431   2.135   2.300   1.990  1.0563  0.0249  1.1362
 1018MOL0     H40432   2.055   2.382   2.125  0.5971 -3.1822  1.2776
 1018MOL0     H40433   2.144   2.653   2.163  3.5395  1.4814 -0.7527
 1018MOL0     H40434   2.010   2.869   2.019  0.9375  1.6493  0.2256
 1018MOL0     H40435   2.098   2.892   1.878 -0.1428 -0.8906 -0.5068
 1018MOL0     H40436   2.156   3.025   2.089 -1.0265 -1.6601  2.1148
 1018MOL0     H40437   2.223   2.875   2.159  0.1875  2.3081  0.2488
 1018MOL0     H40438   2.327   3.025   1.909 -0.2997  1.8086  1.4327
 1018MOL0     H40439   2.384   3.033   2.060 -2.9859  1.2087  1.0003
 1018MOL0     H40440   2.366   2.782   1.885  1.5468 -1.4226 -0.2968
 1018MOL0     H40441   2.504   2.864   1.921 -1.9183  1.5897 -1.4001
 1018MOL0     H40442   2.515   2.622   1.883  2.9793  0.1893 -0.0746
 1018MOL0     H40443   2.707   2.308   1.887 -1.0979 -2.4971  1.9359
 1018MOL0     H40444   2.627   2.435   1.783  1.8355 -3.9103 -2.9127
 1018MOL0     H40445   2.538   2.294   1.856  1.0594 -1.3796  1.0018
 1018MOL0     H40446   2.664   1.990   2.282 -3.1238 -0.8159  0.1450
 1018MOL0     H40447   2.775   1.770   2.242 -1.0433  1.2810  2.4442
 1018MOL0     H40448   2.924   1.615   2.139 -1.3468  1.1602 -0.6447
 1018MOL0     H40449   2.777   1.521   2.178  0.1003  0.7915 -0.4142
 1018MOL0     H40450   2.968   1.487   1.950 -0.3820  2.0905  1.5017
 1018MOL0     H40451   2.970   1.380   2.087  0.8498  1.8823  1.8482
 1018MOL0     H40452   2.847   1.259   1.903 -3.3894 -1.2819  0.6707
 1018MOL0     H40453   2.741   1.396   1.893  1.9913 -0.3556 -1.3093
 1018MOL0     H40454   2.654   1.362   2.128 -3.5486 -0.4663 -2.7957
 1018MOL0     H40455   2.766   1.224   2.157  1.5231 -1.7902 -2.2889
 1018MOL0     H40456   2.689   1.128   1.942  0.6350  3.0296 -1.5190
 1018MOL0     H40457   2.599   1.106   2.092 -0.9718  0.7704  0.2863
 1018MOL0     H40458   2.513   1.292   1.871 -4.5363  0.1503 -1.4486
 1018MOL0     H40459   2.416   1.270   2.010  1.5639  0.2768  0.6858
 1018MOL0     H40460   2.495   1.068   1.805  2.1646  2.9071  0.5896
 1018MOL0     H40461   2.336   1.136   1.819 -0.8156 -0.4831 -0.2082
 1018MOL0     H40462   2.480   0.948   2.015 -0.0847  0.7694  1.5840
 1018MOL0     H40463   2.312   0.926   1.941 -2.4762  0.4505  2.0411
 1018MOL0     H40464   2.622   1.755   1.846 -3.1784  2.1052  0.5037
 1018MOL0     H40465   2.551   2.011   1.880  1.2087 -1.2006 -1.7193
 1018MOL0     H40466   2.645   2.447   2.327  1.2640  1.9874  0.4304
 1018MOL0     H40467   2.527   2.674   2.298  1.8597 -1.7470  2.1830
 1018MOL0     H40468   2.447   1.748   1.720 -0.4760 -1.6332  1.2482
 1018MOL0     H40469   2.367   1.721   1.502  2.2336  2.1980  3.3661
 1018MOL0     H40470   2.089   1.331   1.299  1.4092  1.7892  0.8764
 1018MOL0     H40471   1.999   1.237   1.097  1.5858  0.0273 -3.3323
 1018MOL0     H40472   1.836   1.503   0.753  0.9988  0.9599 -0.7852
 1018MOL0     H40473   2.003   1.453   0.741  0.1190 -0.5370  0.0484
 1018MOL0     H40474   1.754   1.272   0.680  0.8478 -1.7831 -0.8065
 1018MOL0     H40475   1.922   1.231   0.658 -1.5710 -2.6531 -3.8496
 1018MOL0     H40476   1.762   1.444   0.503  0.0509  0.8835  0.4612
 1018MOL0     H40477   1.938   1.449   0.505  1.0862 -2.0773 -2.4704
 1018MOL0     H40478   1.933   1.213   0.415 -3.9610 -2.9739 -0.0042
 1018MOL0     H40479   1.883   1.345   0.311  2.0554 -0.3448 -0.6033
 1018MOL0     H40480   1.539   1.117   0.338 -2.3800  2.8798  0.3985
 1018MOL0     H40481   1.971   1.627   0.913 -1.7041  1.7178  1.1551
 1018MOL0     H40482   2.033   1.810   1.205 -1.4353 -0.6296 -0.6050
 1018MOL0     H40483   2.179   1.769   1.121 -0.6856 -1.1408 -0.1306
 1018MOL0     H40484   2.035   1.824   1.032  1.5497 -1.9376 -2.6988
 1019MOL0     O40485   0.806   2.590   4.233  0.8830 -0.7725  0.1082
 1019MOL0     C40486   0.804   2.476   4.268 -0.6725  0.2892 -0.2646
 1019MOL0     O40487   0.818   2.368   4.187  0.7797 -1.0061 -0.7854
 1019MOL0     C40488   0.799   2.387   4.050 -0.0184  0.6105  0.0625
 1019MOL0     C40489   0.689   2.336   3.970  0.5756  0.4691  1.4352
 1019MOL0     C40490   0.687   2.350   3.824 -0.4164  1.1207 -0.1666
 1019MOL0     C40491   0.801   2.409   3.767  0.9918 -0.9815  0.3625
 1019MOL0     O40492   0.804   2.448   3.632 -0.8841 -0.3964  0.0164
 1019MOL0     C40493   0.779   2.339   3.540 -0.2589  0.7817 -0.2465
 1019MOL0     C40494   0.736   2.400   3.412 -0.1097  0.0440 -0.1541
 1019MOL0     C40495   0.651   2.285   3.334 -0.0272 -0.6032 -0.2616
 1019MOL0     C40496   0.625   2.353   3.201  0.6001  0.3831  1.0181
 1019MOL0     C40497   0.560   2.254   3.102 -0.0752 -0.1501 -0.6497
 1019MOL0     C40498   0.510   2.317   2.972 -0.0324 -0.5879 -0.4312
 1019MOL0     C40499   0.463   2.209   2.879  0.7019  0.7887  0.6701
 1019MOL0     C40500   0.343   2.262   2.804  0.7711 -0.6514  0.0852
 1019MOL0     N40501   0.295   2.151   2.720  0.1310  0.5135  0.0635
 1019MOL0     C40502   0.332   2.119   2.590 -0.1140 -0.9191 -0.2159
 1019MOL0     C40503   0.265   2.002   2.558  0.3673 -1.8404 -0.1654
 1019MOL0     C40504   0.268   1.937   2.422  1.1185 -0.0862 -0.4175
 1019MOL0     C40505   0.150   1.963   2.325 -1.1630  0.2190 -0.0723
 1019MOL0     C40506   0.170   1.924   2.181  0.7790  0.4636  0.3568
 1019MOL0     C40507   0.080   2.001   2.082  0.4534  0.1001 -0.7058
 1019MOL0     O40508  -0.059   2.004   2.135  0.3860  0.3918  0.1006
 1019MOL0     C40509  -0.161   2.020   2.038  0.2415 -0.1221 -0.3525
 1019MOL0     C40510  -0.289   2.001   2.094 -0.0183 -0.6569 -0.2491
 1019MOL0     C40511  -0.403   2.007   2.020 -1.1757  0.2669  0.1597
 1019MOL0     C40512  -0.525   2.016   2.094  0.4669 -0.1570 -0.4135
 1019MOL0     C40513  -0.397   2.009   1.871 -0.3028 -0.8660 -0.4500
 1019MOL0     C40514  -0.513   2.000   1.786  1.1437  1.0537 -0.7462
 1019MOL0     O40515  -0.493   2.033   1.657  0.0128  0.7150 -0.5431
 1019MOL0     C40516  -0.605   2.042   1.578  1.3737 -0.1478  0.5808
 1019MOL0     C40517  -0.649   1.931   1.505 -0.1914  0.1636 -0.2974
 1019MOL0     C40518  -0.771   1.935   1.424  0.8297 -0.0765 -0.4500
 1019MOL0     C40519  -0.855   2.055   1.436 -0.0906  0.1873  0.2814
 1019MOL0     O40520  -0.985   2.044   1.380 -0.5001  0.7011 -0.2724
 1019MOL0     C40521  -1.090   2.127   1.430 -0.4063  0.6417  0.7226
 1019MOL0     C40522  -1.218   2.081   1.372 -0.3853  0.0053  0.6025
 1019MOL0     C40523  -1.336   2.079   1.470  0.1524  0.4603 -0.2897
 1019MOL0     C40524  -1.468   2.064   1.402 -0.8558  0.3342 -0.0621
 1019MOL0     C40525  -1.581   2.112   1.497  0.9923 -0.0375  0.5780
 1019MOL0     C40526  -1.710   2.090   1.426  0.7397  0.0434  0.7162
 1019MOL0     C40527  -1.828   2.168   1.479 -1.1072  0.3926 -0.0761
 1019MOL0     C40528  -1.950   2.152   1.396 -0.6882  0.3563 -0.7618
 1019MOL0    Cl40529  -2.054   2.300   1.403 -0.3465 -0.0604 -0.0038
 1019MOL0     C40530  -0.799   2.162   1.508 -0.3547 -0.1658 -0.2060
 1019MOL0     C40531  -0.689   2.158   1.579 -0.1682  0.0253  0.0854
 1019MOL0     O40532  -0.618   1.945   1.826 -0.1809  0.2572  0.3824
 1019MOL0     C40533  -0.269   2.015   1.819  0.3047 -0.4850  0.1703
 1019MOL0     C40534  -0.147   2.024   1.894  0.9434 -0.2285 -0.2654
 1019MOL0     N40535   0.214   1.962   2.679  1.1332  0.1831 -0.4951
 1019MOL0     N40536   0.232   2.049   2.776 -0.3828 -0.0706  0.3496
 1019MOL0     C40537   0.903   2.457   3.849  0.5659 -0.4151  1.0070
 1019MOL0     C40538   0.897   2.452   3.983 -0.0292  0.0872 -0.1069
 1019MOL0     C40539   0.800   2.452   4.409 -0.3530 -0.0751 -1.1682
 1019MOL0     C40540   0.749   2.326   4.457  0.2280  0.4539  0.6488
 1019MOL0     C40541   0.749   2.301   4.595 -0.2017 -0.1994 -0.6774
 1019MOL0     C40542   0.805   2.390   4.683  0.6240  0.2280 -0.2132
 1019MOL0     O40543   0.781   2.346   4.812 -0.5269 -1.5838  0.0238
 1019MOL0     C40544   0.804   2.436   4.921  0.3033  0.9073  0.3095
 1019MOL0     C40545   0.958   2.446   4.949  0.6677  0.4361 -0.4431
 1019MOL0     C40546   0.993   2.497   5.092 -0.7774  0.0524 -0.0867
 1019MOL0     C40547   0.929   2.401   5.203 -0.0839 -0.0692 -0.3650
 1019MOL0     C40548   0.974   2.453   5.332 -0.6669 -0.2309 -0.4421
 1019MOL0     C40549   0.994   2.503   5.443  0.2312  0.0682  0.8187
 1019MOL0     C40550   0.863   2.499   4.639 -0.1584 -0.6281  0.2658
 1019MOL0     C40551   0.867   2.539   4.503 -0.6112  0.2138 -0.6592
 1019MOL0     C40552   0.933   2.671   4.471 -0.3833 -0.3486 -0.9587
 1019MOL0     H40553   0.606   2.286   4.019  0.9048 -1.5663  0.0509
 1019MOL0     H40554   0.606   2.314   3.762  0.3589  2.8144 -2.3105
 1019MOL0     H40555   0.692   2.285   3.578  0.3893 -0.0214  0.1313
 1019MOL0     H40556   0.869   2.280   3.519 -0.1571 -0.1789  2.5067
 1019MOL0     H40557   0.670   2.485   3.434 -1.4041 -1.2483  1.2147
 1019MOL0     H40558   0.816   2.428   3.343 -2.0688 -1.8909 -3.4809
 1019MOL0     H40559   0.709   2.194   3.316 -2.6933 -2.0155 -2.4816
 1019MOL0     H40560   0.559   2.268   3.391 -2.9225  1.5487 -3.8434
 1019MOL0     H40561   0.552   2.434   3.214  0.3323  0.3341 -0.0888
 1019MOL0     H40562   0.715   2.396   3.158  0.9456 -2.0367 -0.8537
 1019MOL0     H40563   0.481   2.207   3.161  1.2356 -1.4180  0.1587
 1019MOL0     H40564   0.627   2.175   3.067  2.8883  1.8567  0.0852
 1019MOL0     H40565   0.430   2.382   3.009 -0.2952 -0.9927 -0.2858
 1019MOL0     H40566   0.596   2.371   2.931 -0.8613  0.8799 -0.3106
 1019MOL0     H40567   0.454   2.111   2.927 -0.7978  1.5961  2.1234
 1019MOL0     H40568   0.543   2.186   2.808  1.8774 -2.4440  2.8009
 1019MOL0     H40569   0.267   2.293   2.876  0.2145  0.4923 -0.9629
 1019MOL0     H40570   0.374   2.345   2.739  0.0781 -0.7189 -0.3387
 1019MOL0     H40571   0.400   2.185   2.537  1.3756 -1.5807  0.8337
 1019MOL0     H40572   0.277   1.829   2.434  1.6763  0.0762  0.8023
 1019MOL0     H40573   0.364   1.963   2.376  1.0896 -2.1189 -1.7519
 1019MOL0     H40574   0.077   1.894   2.369 -2.6970  0.6467 -1.8186
 1019MOL0     H40575   0.105   2.062   2.335  0.7373  1.2340 -1.1331
 1019MOL0     H40576   0.271   1.938   2.142  1.0285 -2.1187 -0.0889
 1019MOL0     H40577   0.146   1.817   2.173  1.9170  0.1220  1.2299
 1019MOL0     H40578   0.117   2.104   2.078 -0.2766  0.4366  0.5565
 1019MOL0     H40579   0.100   1.955   1.985  1.2981 -5.1340  1.6163
 1019MOL0     H40580  -0.286   1.993   2.202  1.4680 -0.4681 -0.2489
 1019MOL0     H40581  -0.525   2.014   2.204  0.3058  0.0004 -0.4113
 1019MOL0     H40582  -0.583   1.934   2.050  1.0754  0.5326 -2.6146
 1019MOL0     H40583  -0.580   2.107   2.069 -1.5130 -1.5232 -1.2678
 1019MOL0     H40584  -0.590   1.841   1.517 -3.1323 -2.0943 -1.5662
 1019MOL0     H40585  -0.820   1.851   1.377 -1.0390  1.3626 -1.1712
 1019MOL0     H40586  -1.086   2.131   1.539 -1.7574 -0.4353  0.8355
 1019MOL0     H40587  -1.079   2.233   1.403 -1.7588  0.6147  0.0025
 1019MOL0     H40588  -1.250   2.141   1.286 -3.1369 -1.3106  0.5963
 1019MOL0     H40589  -1.209   1.975   1.345 -1.9255 -0.7646  2.8516
 1019MOL0     H40590  -1.341   2.175   1.522  0.9840  0.1904  0.3167
 1019MOL0     H40591  -1.313   1.998   1.541  0.3919  2.4698  2.0491
 1019MOL0     H40592  -1.481   1.957   1.381 -2.0891 -0.1585  2.7633
 1019MOL0     H40593  -1.469   2.117   1.306  1.6506  1.4251  0.4488
 1019MOL0     H40594  -1.577   2.055   1.591  2.4322  0.6566  0.9721
 1019MOL0     H40595  -1.576   2.220   1.516 -1.2292 -0.1547  2.1791
 1019MOL0     H40596  -1.729   1.983   1.439  2.1713 -0.7335 -2.5165
 1019MOL0     H40597  -1.683   2.109   1.322  3.3973  1.5733  1.5931
 1019MOL0     H40598  -1.790   2.271   1.470  2.0255 -0.5065  1.3385
 1019MOL0     H40599  -1.847   2.148   1.585  0.1419 -0.4037  0.0097
 1019MOL0     H40600  -2.011   2.063   1.413  1.0659 -1.0162 -1.3168
 1019MOL0     H40601  -1.922   2.153   1.290 -2.7183  0.8734 -1.3478
 1019MOL0     H40602  -0.846   2.260   1.504 -0.7999 -0.2023  2.4922
 1019MOL0     H40603  -0.646   2.248   1.623 -0.1916 -0.5722  1.3796
 1019MOL0     H40604  -0.251   2.033   1.713  0.2063  0.6507  0.3332
 1019MOL0     H40605  -0.050   2.037   1.849  0.1187  2.6417 -1.4411
 1019MOL0     H40606   0.982   2.510   3.797 -0.3677 -0.6238 -0.6927
 1019MOL0     H40607   0.977   2.498   4.041 -0.8269  1.5168 -0.1031
 1019MOL0     H40608   0.708   2.254   4.387 -1.3545  1.7760  0.1450
 1019MOL0     H40609   0.706   2.207   4.629 -0.1158 -0.0680 -0.1999
 1019MOL0     H40610   0.762   2.536   4.907 -1.4465  0.6219  2.7228
 1019MOL0     H40611   0.757   2.377   5.000  2.0255 -1.4136 -0.3011
 1019MOL0     H40612   1.012   2.500   4.871 -1.1145 -1.1092 -2.8768
 1019MOL0     H40613   1.007   2.349   4.933 -1.3064 -0.5423 -0.8783
 1019MOL0     H40614   1.102   2.502   5.106 -0.3847 -3.4580 -0.8327
 1019MOL0     H40615   0.946   2.595   5.100 -0.0259  0.5999 -1.7975
 1019MOL0     H40616   0.955   2.295   5.191  0.3745 -0.1298  0.9807
 1019MOL0     H40617   0.822   2.392   5.221  0.3844 -0.9955  2.5392
 1019MOL0     H40618   1.001   2.528   5.547 -1.5983 -1.7307  1.4482
 1019MOL0     H40619   0.906   2.567   4.712 -1.5185  0.0140  0.5009
 1019MOL0     H40620   1.017   2.645   4.406  2.1438 -0.4641  2.1054
 1019MOL0     H40621   0.868   2.749   4.433  0.7228  1.1973  0.1846
 1019MOL0     H40622   0.980   2.718   4.558 -1.5012  0.4948 -0.8009
 1020MOL0     O40623  11.262   0.560   7.861 -0.0617 -0.8818  0.7076
 1020MOL0     C40624  11.348   0.486   7.893 -0.4709  0.3649 -0.5674
 1020MOL0     O40625  11.468   0.482   7.824  0.3722  0.0958  0.5721
 1020MOL0     C40626  11.511   0.573   7.726 -0.4243 -1.7699  0.5676
 1020MOL0     C40627  11.648   0.560   7.698 -0.9626 -1.3029  0.0751
 1020MOL0     C40628  11.715   0.639   7.602 -0.2300 -0.7118 -0.0538
 1020MOL0     C40629  11.651   0.742   7.536 -0.3779 -0.9822 -0.3011
 1020MOL0     O40630  11.706   0.816   7.433  0.5085 -0.3174  0.2246
 1020MOL0     C40631  11.819   0.763   7.367  0.6500 -0.1209 -1.1581
 1020MOL0     C40632  11.828   0.799   7.215 -0.0543 -0.1596 -0.6005
 1020MOL0     C40633  11.959   0.742   7.167  0.4445 -0.0097 -0.6612
 1020MOL0     C40634  11.978   0.771   7.016  0.9316 -0.1464  0.3894
 1020MOL0     C40635  12.088   0.688   6.947 -0.4744 -1.4103  0.5865
 1020MOL0     C40636  12.231   0.672   7.017  0.9158 -0.2825 -0.1578
 1020MOL0     C40637  12.332   0.618   6.913 -0.0686 -0.1763 -0.7083
 1020MOL0     C40638  12.463   0.577   6.978 -0.0260  0.0004  1.3424
 1020MOL0     N40639  12.538   0.467   6.914 -0.1061 -0.0054  0.5518
 1020MOL0     C40640  12.592   0.358   6.973 -0.5715 -0.6431 -0.0779
 1020MOL0     C40641  12.658   0.287   6.873  0.4874  0.3400  0.5553
 1020MOL0     C40642  12.724   0.160   6.887 -0.4827  0.0942 -0.3224
 1020MOL0     C40643  12.627   0.044   6.911 -0.5345  0.3449 -1.1399
 1020MOL0     C40644  12.530   0.012   6.787  0.4086  1.0406 -0.7016
 1020MOL0     C40645  12.471  -0.134   6.787 -0.7889  0.3850  0.4732
 1020MOL0     O40646  12.456  -0.169   6.651 -0.4760 -0.4421  0.1734
 1020MOL0     C40647  12.396  -0.287   6.640  0.7353 -0.0172  0.1619
 1020MOL0     C40648  12.276  -0.305   6.715 -0.1771  0.6898  0.2199
 1020MOL0     C40649  12.214  -0.433   6.728 -0.4461  0.4586 -0.0561
 1020MOL0     C40650  12.099  -0.450   6.828  0.0141 -0.4255 -1.1850
 1020MOL0     C40651  12.272  -0.546   6.661  0.6729  0.2026 -0.1063
 1020MOL0     C40652  12.210  -0.683   6.659  0.5385  1.2259  0.1841
 1020MOL0     O40653  12.286  -0.796   6.600 -0.5067  0.2759  0.2714
 1020MOL0     C40654  12.232  -0.922   6.605  0.3699 -0.6085 -0.8019
 1020MOL0     C40655  12.131  -0.949   6.515  0.5206  0.0663  0.2831
 1020MOL0     C40656  12.065  -1.074   6.500  0.5283 -0.2402  0.6354
 1020MOL0     C40657  12.106  -1.173   6.589  0.2738  0.8131 -0.4711
 1020MOL0     O40658  12.047  -1.296   6.570  0.0949  0.2314  0.4230
 1020MOL0     C40659  12.068  -1.407   6.660 -0.2473 -0.5077 -0.3842
 1020MOL0     C40660  11.982  -1.388   6.784  0.2080  0.4939  0.8718
 1020MOL0     C40661  11.960  -1.520   6.857  0.2193 -0.0771  0.0642
 1020MOL0     C40662  11.851  -1.602   6.788 -0.1535 -0.2641 -0.2924
 1020MOL0     C40663  11.846  -1.746   6.857 -0.3899 -0.1048  0.0298
 1020MOL0     C40664  11.736  -1.834   6.807  0.6744  0.4407  0.5523
 1020MOL0     C40665  11.601  -1.757   6.782 -0.4989  1.0040 -0.1075
 1020MOL0     C40666  11.486  -1.844   6.743  0.0976  0.7971 -0.6211
 1020MOL0    Cl40667  11.345  -1.741   6.727  0.4508 -0.2563  0.4367
 1020MOL0     C40668  12.201  -1.144   6.685 -0.1907  0.1325  0.2051
 1020MOL0     C40669  12.271  -1.026   6.690  0.3606 -0.9390 -0.1911
 1020MOL0     O40670  12.099  -0.696   6.699  0.5795 -0.1572  0.1120
 1020MOL0     C40671  12.377  -0.517   6.574  0.1154 -0.2648  0.6050
 1020MOL0     C40672  12.438  -0.396   6.560 -0.3468 -0.9728 -1.1727
 1020MOL0     N40673  12.640   0.365   6.756 -0.5958 -0.2637 -0.0600
 1020MOL0     N40674  12.569   0.466   6.782  0.5549  0.2068  0.1423
 1020MOL0     C40675  11.514   0.760   7.564 -0.1434 -1.1757 -0.5935
 1020MOL0     C40676  11.442   0.681   7.663 -0.5743 -0.1225  0.2905
 1020MOL0     C40677  11.340   0.386   8.005 -0.0409 -0.0406 -0.7710
 1020MOL0     C40678  11.427   0.277   8.012 -0.0773  0.4246 -0.0990
 1020MOL0     C40679  11.412   0.171   8.098  0.1504 -0.3951 -0.2257
 1020MOL0     C40680  11.310   0.167   8.187  0.5908  0.0953 -0.3510
 1020MOL0     O40681  11.306   0.056   8.269  0.5614 -0.0912 -0.0533
 1020MOL0     C40682  11.229   0.071   8.391  0.7107  0.0198 -0.4799
 1020MOL0     C40683  11.207  -0.066   8.461  0.1810  0.1516  0.2242
 1020MOL0     C40684  11.121  -0.071   8.580  0.0101 -0.2400 -0.2646
 1020MOL0     C40685  10.984  -0.129   8.563  0.3037 -0.6754 -0.4554
 1020MOL0     C40686  10.892  -0.122   8.676  1.0791  0.7438  0.0263
 1020MOL0     C40687  10.840  -0.114   8.783  0.4387 -0.3428 -0.1981
 1020MOL0     C40688  11.239   0.288   8.205 -0.6670  0.1520  0.3966
 1020MOL0     C40689  11.240   0.392   8.103 -0.1069 -0.4690  0.2436
 1020MOL0     C40690  11.148   0.512   8.118  0.5604 -0.7597  0.3020
 1020MOL0     H40691  11.693   0.475   7.748  1.1394  0.0172  0.5286
 1020MOL0     H40692  11.819   0.613   7.583  0.0884  0.3501  0.1517
 1020MOL0     H40693  11.815   0.654   7.369 -2.5707 -0.0719 -0.2012
 1020MOL0     H40694  11.909   0.808   7.410 -0.7240  1.1761  0.5038
 1020MOL0     H40695  11.749   0.736   7.173  0.7745 -1.9397  0.3866
 1020MOL0     H40696  11.819   0.906   7.195 -2.1736  0.8212  4.2341
 1020MOL0     H40697  12.042   0.782   7.225  2.7815 -0.9209 -3.1797
 1020MOL0     H40698  11.951   0.634   7.183  0.9320  0.0749  0.2009
 1020MOL0     H40699  11.882   0.761   6.965  1.5415 -1.5818 -0.5327
 1020MOL0     H40700  11.998   0.879   7.013  1.5542 -0.2607  0.2827
 1020MOL0     H40701  12.095   0.723   6.844 -2.3161  1.3460  1.2839
 1020MOL0     H40702  12.053   0.587   6.925  0.1284 -1.3486 -0.7526
 1020MOL0     H40703  12.268   0.771   7.043 -2.2015  1.2975 -1.2850
 1020MOL0     H40704  12.220   0.610   7.107  0.9400  0.0880  0.1025
 1020MOL0     H40705  12.348   0.695   6.837  5.5428  0.5323  0.7059
 1020MOL0     H40706  12.285   0.539   6.854  3.1264 -1.6275 -1.5785
 1020MOL0     H40707  12.534   0.657   7.002  0.4862 -0.1371  0.3429
 1020MOL0     H40708  12.440   0.543   7.079  1.6996 -2.9929  0.8508
 1020MOL0     H40709  12.587   0.342   7.080  0.8495  0.9861  0.2753
 1020MOL0     H40710  12.788   0.168   6.975  0.5770 -2.5325 -0.7585
 1020MOL0     H40711  12.787   0.144   6.798  0.0634  2.3911 -0.3940
 1020MOL0     H40712  12.692  -0.041   6.934 -0.2001  0.5828 -1.1914
 1020MOL0     H40713  12.565   0.070   6.997 -0.1573  0.2831 -0.8438
 1020MOL0     H40714  12.453   0.087   6.770 -0.3626  0.8283  1.5486
 1020MOL0     H40715  12.597   0.010   6.700  1.8194  2.9827  0.2503
 1020MOL0     H40716  12.546  -0.200   6.832 -1.0806 -1.5896 -1.7576
 1020MOL0     H40717  12.378  -0.134   6.845 -0.6345 -0.0550  0.7325
 1020MOL0     H40718  12.227  -0.223   6.766  3.4488  2.8477  0.5813
 1020MOL0     H40719  12.087  -0.362   6.891  2.5641 -2.5533  2.6919
 1020MOL0     H40720  12.129  -0.536   6.890  0.4957 -2.1192 -3.6098
 1020MOL0     H40721  12.005  -0.471   6.776 -0.2084  1.0161 -1.4093
 1020MOL0     H40722  12.109  -0.870   6.444  1.7226  2.0266  2.0037
 1020MOL0     H40723  11.994  -1.089   6.419  0.1057  0.8298  0.7885
 1020MOL0     H40724  12.040  -1.500   6.609  0.5989 -1.8371  1.4384
 1020MOL0     H40725  12.173  -1.405   6.692 -0.1698 -0.5699 -0.6274
 1020MOL0     H40726  12.024  -1.315   6.854  0.7290 -0.0702  1.1569
 1020MOL0     H40727  11.889  -1.340   6.751 -1.3859 -1.1479  2.6994
 1020MOL0     H40728  11.933  -1.488   6.958  2.7192  3.8881 -0.2850
 1020MOL0     H40729  12.053  -1.577   6.864 -0.9349 -1.9818  0.4440
 1020MOL0     H40730  11.859  -1.618   6.680 -0.1145  1.7556 -0.6311
 1020MOL0     H40731  11.754  -1.553   6.804 -1.5468 -2.8433 -0.3361
 1020MOL0     H40732  11.942  -1.799   6.853 -1.2781 -1.8708  0.8522
 1020MOL0     H40733  11.804  -1.734   6.957 -2.4896 -1.7333 -0.5796
 1020MOL0     H40734  11.718  -1.912   6.882 -2.3750  0.0778 -0.4235
 1020MOL0     H40735  11.771  -1.875   6.712 -1.4656 -0.6008  0.1582
 1020MOL0     H40736  11.618  -1.676   6.711 -1.9689  2.2796  0.9247
 1020MOL0     H40737  11.573  -1.706   6.875 -1.6544 -1.6030  1.0673
 1020MOL0     H40738  11.453  -1.909   6.825 -1.8653  2.3540 -0.0841
 1020MOL0     H40739  11.503  -1.898   6.649 -1.1215 -2.1181  0.7023
 1020MOL0     H40740  12.242  -1.210   6.761  1.7680  0.4259 -0.5347
 1020MOL0     H40741  12.354  -0.991   6.750  2.1366  1.0357 -3.5189
 1020MOL0     H40742  12.425  -0.600   6.523  2.9284  0.1435  2.3683
 1020MOL0     H40743  12.526  -0.372   6.500 -2.6098  1.9994 -3.6809
 1020MOL0     H40744  11.447   0.834   7.519  0.0590 -1.0215 -0.6403
 1020MOL0     H40745  11.338   0.709   7.657 -0.4532  0.0344 -3.8547
 1020MOL0     H40746  11.514   0.260   7.949  2.1809  1.6867  2.4506
 1020MOL0     H40747  11.484   0.090   8.095  0.1185 -0.4158 -2.9277
 1020MOL0     H40748  11.279   0.149   8.450  0.4633  0.5024 -0.9067
 1020MOL0     H40749  11.132   0.117   8.371  0.4481 -0.4308 -0.2677
 1020MOL0     H40750  11.308  -0.102   8.480 -0.3441 -3.4903 -2.7383
 1020MOL0     H40751  11.169  -0.133   8.383  2.0791  1.7837 -2.2530
 1020MOL0     H40752  11.172  -0.127   8.659  1.2156  1.8750  0.5377
 1020MOL0     H40753  11.106   0.026   8.629 -5.1007 -1.3786  0.9293
 1020MOL0     H40754  10.997  -0.232   8.528  2.4921  0.3960 -3.1424
 1020MOL0     H40755  10.934  -0.069   8.486 -2.5713 -2.7489 -0.4063
 1020MOL0     H40756  10.786  -0.119   8.875 -0.6180 -1.7858 -0.8528
 1020MOL0     H40757  11.165   0.292   8.284 -0.3519 -2.0357  0.8713
 1020MOL0     H40758  11.096   0.544   8.027  0.9591  0.3858  0.4621
 1020MOL0     H40759  11.076   0.493   8.198  2.2746 -1.8129  1.6799
 1020MOL0     H40760  11.216   0.590   8.153  3.3736 -3.1371  0.5522
 1021MOL0     O40761   9.692   2.699   4.467 -0.1580 -0.3816  0.3401
 1021MOL0     C40762   9.684   2.578   4.452  0.5454  0.0230 -0.1796
 1021MOL0     O40763   9.722   2.484   4.546  0.3839  0.0506  0.2750
 1021MOL0     C40764   9.799   2.509   4.661  0.4248  0.3252 -0.1693
 1021MOL0     C40765   9.791   2.623   4.737  0.1704 -0.9406 -0.5400
 1021MOL0     C40766   9.889   2.644   4.833 -0.4444  0.3306  0.1050
 1021MOL0     C40767   9.980   2.550   4.865  0.4898 -0.0355 -0.5634
 1021MOL0     O40768  10.066   2.577   4.960  0.4599 -0.7421 -0.3297
 1021MOL0     C40769  10.033   2.512   5.078 -0.4958 -0.2275 -0.1448
 1021MOL0     C40770  10.155   2.450   5.151 -0.7554 -0.0697 -1.3510
 1021MOL0     C40771  10.234   2.353   5.068 -0.6409  0.1684  1.3023
 1021MOL0     C40772  10.338   2.401   4.972 -0.0088 -0.9058 -0.1581
 1021MOL0     C40773  10.462   2.451   5.046 -0.3140 -0.5086  0.3580
 1021MOL0     C40774  10.591   2.474   4.962 -0.0280 -0.8757  0.5768
 1021MOL0     C40775  10.649   2.352   4.885  1.0890 -0.1955  0.3709
 1021MOL0     C40776  10.689   2.253   4.982  0.4219  1.2593  0.3639
 1021MOL0     N40777  10.774   2.148   4.921  0.4029 -0.1532 -0.2104
 1021MOL0     C40778  10.905   2.141   4.966  0.0860 -0.0626 -0.4147
 1021MOL0     C40779  10.959   2.041   4.897 -1.0786 -0.2681  0.3699
 1021MOL0     C40780  11.095   1.977   4.907 -0.3677 -0.5073 -0.1069
 1021MOL0     C40781  11.192   2.048   4.811 -0.3792 -0.6453 -0.2697
 1021MOL0     C40782  11.339   2.022   4.847  0.1627  0.4557  0.1534
 1021MOL0     C40783  11.451   2.106   4.769  1.1271  0.4708  0.2850
 1021MOL0     O40784  11.517   2.006   4.681  0.2897 -0.4105 -0.9551
 1021MOL0     C40785  11.498   2.000   4.547  1.2325  0.1860  0.0996
 1021MOL0     C40786  11.602   1.928   4.489 -0.6404 -0.0205 -0.0377
 1021MOL0     C40787  11.599   1.899   4.348  1.0067 -0.7145 -0.2176
 1021MOL0     C40788  11.704   1.797   4.294 -0.9415 -1.5809  0.1845
 1021MOL0     C40789  11.496   1.960   4.267  0.3656  0.0373 -0.6086
 1021MOL0     C40790  11.482   1.945   4.124  0.0091  0.3091  0.8166
 1021MOL0     O40791  11.421   2.047   4.060 -0.1510  0.3365  0.1507
 1021MOL0     C40792  11.427   2.032   3.928  0.6658  0.0827  0.2572
 1021MOL0     C40793  11.369   1.927   3.861  0.2403  0.1304  0.7918
 1021MOL0     C40794  11.374   1.902   3.722 -0.3206 -0.9072 -0.0916
 1021MOL0     C40795  11.458   1.979   3.638  0.8351 -0.4954  0.8131
 1021MOL0     O40796  11.479   1.959   3.508 -0.4324  0.4529  0.2910
 1021MOL0     C40797  11.449   1.835   3.444  0.2097  0.2035 -0.3279
 1021MOL0     C40798  11.479   1.848   3.298  0.1060  0.2965 -1.1744
 1021MOL0     C40799  11.632   1.846   3.267  0.2454  0.4562  1.4359
 1021MOL0     C40800  11.687   1.708   3.312 -0.0694  0.0658 -0.7367
 1021MOL0     C40801  11.838   1.689   3.259 -0.6504  0.3059  0.4471
 1021MOL0     C40802  11.909   1.569   3.336  0.9941 -0.3211  0.0074
 1021MOL0     C40803  12.037   1.527   3.272  0.0498 -1.0749 -0.0686
 1021MOL0     C40804  12.032   1.402   3.189  0.0911  0.5501 -0.0993
 1021MOL0    Cl40805  11.901   1.393   3.074  0.2919  0.2305 -0.2421
 1021MOL0     C40806  11.534   2.079   3.704  0.0608  0.4776  0.1241
 1021MOL0     C40807  11.525   2.101   3.845 -0.8100  0.5162 -0.2865
 1021MOL0     O40808  11.535   1.846   4.066 -0.0065  0.7158 -0.4472
 1021MOL0     C40809  11.389   2.028   4.330  0.4198  0.0265  0.5838
 1021MOL0     C40810  11.386   2.042   4.465  0.7672 -0.5378 -0.5859
 1021MOL0     N40811  10.865   1.994   4.811 -0.5545 -0.0590  0.0549
 1021MOL0     N40812  10.754   2.054   4.819 -0.2946 -0.7293  0.0772
 1021MOL0     C40813   9.981   2.429   4.791 -0.3931 -0.6824  0.7607
 1021MOL0     C40814   9.888   2.406   4.691 -0.3416  0.8162 -0.4557
 1021MOL0     C40815   9.605   2.519   4.335  0.2326 -0.0048 -0.1942
 1021MOL0     C40816   9.498   2.590   4.294 -0.7332 -0.9421 -0.0789
 1021MOL0     C40817   9.408   2.548   4.197 -0.3663 -0.2965  0.0523
 1021MOL0     C40818   9.412   2.423   4.142 -1.5063 -0.1039  0.0676
 1021MOL0     O40819   9.307   2.389   4.060 -0.1337 -0.6317 -0.1383
 1021MOL0     C40820   9.291   2.243   4.035  0.3207 -0.0791  0.4604
 1021MOL0     C40821   9.188   2.223   3.918 -0.8633  0.2596  0.8362
 1021MOL0     C40822   9.060   2.298   3.942 -0.5033 -0.6766  0.3729
 1021MOL0     C40823   8.997   2.256   4.060 -0.0571  0.4115  0.7698
 1021MOL0     C40824   8.888   2.338   4.088  0.2106  0.0866  0.4765
 1021MOL0     C40825   8.804   2.409   4.146 -0.4562 -0.1546  0.5463
 1021MOL0     C40826   9.521   2.343   4.183  0.1486  0.3572 -0.7224
 1021MOL0     C40827   9.626   2.395   4.273 -0.0678 -0.1028 -0.4119
 1021MOL0     C40828   9.740   2.301   4.304  0.1459  0.5136 -0.1172
 1021MOL0     H40829   9.721   2.703   4.716  1.5923  0.4952 -0.0022
 1021MOL0     H40830   9.888   2.736   4.892 -0.9302  0.4599 -0.0948
 1021MOL0     H40831   9.960   2.432   5.061 -0.6593 -0.5129  1.6665
 1021MOL0     H40832   9.985   2.579   5.151  1.3156  1.8286 -0.7445
 1021MOL0     H40833  10.223   2.532   5.177  1.6769 -2.6133  1.0288
 1021MOL0     H40834  10.127   2.416   5.251 -2.2071  2.3116 -0.8608
 1021MOL0     H40835  10.276   2.275   5.133 -0.0073 -0.6259 -0.0292
 1021MOL0     H40836  10.166   2.303   4.999  1.0447  2.2775 -2.1310
 1021MOL0     H40837  10.360   2.314   4.910 -1.9084 -1.4439 -0.1453
 1021MOL0     H40838  10.298   2.480   4.909  1.2734 -0.8934 -0.9941
 1021MOL0     H40839  10.479   2.379   5.127  3.4937 -0.4073 -0.1838
 1021MOL0     H40840  10.433   2.547   5.091  2.6517 -0.5939  2.7628
 1021MOL0     H40841  10.580   2.558   4.893 -0.7005  2.2664  4.1444
 1021MOL0     H40842  10.668   2.517   5.027  0.8352 -0.0580 -0.9522
 1021MOL0     H40843  10.738   2.382   4.830  0.7737  2.1477  0.9923
 1021MOL0     H40844  10.566   2.323   4.819 -0.1416  0.1601  1.7021
 1021MOL0     H40845  10.730   2.297   5.074 -3.6963  0.5367  2.7832
 1021MOL0     H40846  10.601   2.196   5.012  0.3582  2.4380  2.6639
 1021MOL0     H40847  10.947   2.203   5.044  0.2757  0.8468 -1.2200
 1021MOL0     H40848  11.093   1.870   4.885 -2.5850 -0.4112 -0.6219
 1021MOL0     H40849  11.132   2.001   5.007  1.1925  2.8809 -1.3238
 1021MOL0     H40850  11.170   2.027   4.706 -1.1960  2.3278 -0.7828
 1021MOL0     H40851  11.188   2.156   4.829  1.0510 -0.4879 -0.7766
 1021MOL0     H40852  11.340   2.045   4.954 -0.6504 -1.5852  0.6606
 1021MOL0     H40853  11.363   1.915   4.846 -4.2493 -0.7545  0.8776
 1021MOL0     H40854  11.406   2.191   4.716 -0.8157  2.0343  4.0433
 1021MOL0     H40855  11.532   2.146   4.831  2.8076 -1.4926 -0.5362
 1021MOL0     H40856  11.678   1.890   4.556 -2.1212 -1.2155  1.0524
 1021MOL0     H40857  11.760   1.832   4.207  0.1369 -3.6440 -0.0058
 1021MOL0     H40858  11.642   1.711   4.270 -0.5232 -1.9621  0.4540
 1021MOL0     H40859  11.781   1.774   4.369 -1.9297  0.4592  1.9373
 1021MOL0     H40860  11.305   1.862   3.919  1.1321 -0.1795  1.4523
 1021MOL0     H40861  11.331   1.814   3.675  1.3028 -2.3245  0.9418
 1021MOL0     H40862  11.493   1.742   3.481  3.7484  2.4049  1.4794
 1021MOL0     H40863  11.341   1.823   3.453 -0.0425  2.2816 -0.1107
 1021MOL0     H40864  11.429   1.765   3.246 -0.9670 -0.5455  1.0522
 1021MOL0     H40865  11.435   1.942   3.264 -2.0580  0.2790  1.2523
 1021MOL0     H40866  11.691   1.921   3.319 -0.1755  1.9702 -0.1950
 1021MOL0     H40867  11.641   1.858   3.159  3.6540 -1.6095  1.3270
 1021MOL0     H40868  11.624   1.630   3.270 -4.3909  2.5663  0.5531
 1021MOL0     H40869  11.688   1.696   3.421 -1.1601 -1.6991 -0.8969
 1021MOL0     H40870  11.839   1.655   3.155  2.7240 -0.8117  0.7327
 1021MOL0     H40871  11.884   1.788   3.268 -1.1398  0.5464  0.3444
 1021MOL0     H40872  11.832   1.492   3.342  1.0489 -0.5931 -1.9985
 1021MOL0     H40873  11.932   1.604   3.437  0.9210 -1.4117  0.4150
 1021MOL0     H40874  12.121   1.527   3.342  0.9738 -1.0134 -1.1460
 1021MOL0     H40875  12.076   1.606   3.206  0.7717 -0.4864  1.0320
 1021MOL0     H40876  12.016   1.319   3.258 -1.4601 -1.1870 -2.4061
 1021MOL0     H40877  12.127   1.376   3.142  0.5375 -4.5700  2.9358
 1021MOL0     H40878  11.598   2.146   3.647  0.1513  1.5798  1.4765
 1021MOL0     H40879  11.592   2.163   3.904  0.6468 -0.7026 -0.6084
 1021MOL0     H40880  11.306   2.061   4.268 -0.3754 -0.5643  1.3102
 1021MOL0     H40881  11.307   2.082   4.527  2.2185 -0.0472  1.0248
 1021MOL0     H40882  10.051   2.349   4.818 -0.3226 -1.6481 -2.0093
 1021MOL0     H40883   9.878   2.320   4.625 -2.3678  1.5169 -1.1540
 1021MOL0     H40884   9.471   2.686   4.339  1.1935 -1.0832  1.4900
 1021MOL0     H40885   9.320   2.597   4.157 -0.9214  0.4186  2.0711
 1021MOL0     H40886   9.384   2.203   3.994  1.5139 -0.0922  2.9979
 1021MOL0     H40887   9.277   2.189   4.129 -0.8062 -0.7574 -0.0791
 1021MOL0     H40888   9.150   2.122   3.904 -0.7949  0.4913 -1.3574
 1021MOL0     H40889   9.247   2.255   3.832 -0.9579  1.3936  1.1783
 1021MOL0     H40890   9.077   2.406   3.945 -2.3220 -0.3639  1.1653
 1021MOL0     H40891   8.982   2.274   3.868  0.9598  0.1629 -1.5349
 1021MOL0     H40892   9.061   2.254   4.148  1.9088 -3.2442 -0.5218
 1021MOL0     H40893   8.963   2.152   4.058 -1.5297  0.8208  2.1875
 1021MOL0     H40894   8.727   2.474   4.181  2.2287  3.3932  0.4660
 1021MOL0     H40895   9.530   2.239   4.155 -5.9054 -0.9652  0.8964
 1021MOL0     H40896   9.732   2.268   4.408 -2.6306 -3.3823 -1.3364
 1021MOL0     H40897   9.744   2.201   4.260  0.8704 -0.1792  1.4531
 1021MOL0     H40898   9.839   2.346   4.292 -0.1972  1.2141 -0.3949
 1022MOL0     O40899   1.542   0.603   5.807  0.0086  0.0697 -0.1762
 1022MOL0     C40900   1.497   0.722   5.795 -0.5754 -0.5764  0.0857
 1022MOL0     O40901   1.364   0.754   5.813  0.0055  0.2292  0.2756
 1022MOL0     C40902   1.271   0.653   5.813  0.1087 -0.0170 -0.2059
 1022MOL0     C40903   1.249   0.561   5.922 -0.3353 -0.1734 -0.7065
 1022MOL0     C40904   1.148   0.469   5.919  0.4628  0.6487 -0.1950
 1022MOL0     C40905   1.051   0.464   5.822  0.1615 -0.9406  0.6399
 1022MOL0     O40906   0.966   0.358   5.833  1.1709 -0.5651  0.0375
 1022MOL0     C40907   0.836   0.389   5.782 -0.1341  0.5698 -0.1210
 1022MOL0     C40908   0.735   0.271   5.795 -0.2632 -0.4030 -0.1078
 1022MOL0     C40909   0.706   0.221   5.940 -0.1571 -0.0926 -0.4532
 1022MOL0     C40910   0.647   0.321   6.036  0.6438 -0.2852  0.3558
 1022MOL0     C40911   0.629   0.262   6.172 -0.0382 -0.5674 -0.2337
 1022MOL0     C40912   0.758   0.245   6.248  0.0740  0.0799 -0.2859
 1022MOL0     C40913   0.781   0.097   6.297 -0.9783  0.3841  0.3739
 1022MOL0     C40914   0.908   0.085   6.378 -0.5042  0.5404 -0.2430
 1022MOL0     N40915   1.026   0.100   6.304 -0.3886  0.3532  0.3332
 1022MOL0     C40916   1.077   0.021   6.209 -0.5117  0.0983  0.5563
 1022MOL0     C40917   1.182   0.087   6.157  0.6659  0.4426  0.0324
 1022MOL0     C40918   1.279   0.024   6.054 -0.0178 -0.2393  0.2412
 1022MOL0     C40919   1.421   0.086   6.056 -0.2436 -0.6023 -0.4061
 1022MOL0     C40920   1.501   0.045   6.173 -0.5820 -0.1482  0.6802
 1022MOL0     C40921   1.612   0.144   6.188 -0.5362 -1.4588  0.5213
 1022MOL0     O40922   1.747   0.107   6.133 -0.0742  0.2546  0.0089
 1022MOL0     C40923   1.807  -0.005   6.171 -0.1926 -0.6425 -0.3179
 1022MOL0     C40924   1.798  -0.080   6.291  0.8819  0.1274  0.4661
 1022MOL0     C40925   1.865  -0.206   6.310  0.2206  0.4826 -0.6815
 1022MOL0     C40926   1.829  -0.280   6.433 -0.6433  0.2678  0.8975
 1022MOL0     C40927   1.941  -0.256   6.200  0.5085  0.8693 -0.2825
 1022MOL0     C40928   2.004  -0.392   6.211  0.9758  0.0421 -1.0974
 1022MOL0     O40929   2.005  -0.455   6.091  0.0866 -0.3267 -0.2120
 1022MOL0     C40930   2.040  -0.590   6.092  0.7798 -0.3215 -0.8580
 1022MOL0     C40931   2.171  -0.635   6.084  0.5239 -0.1424 -0.0258
 1022MOL0     C40932   2.192  -0.775   6.094 -0.9431  0.1462  0.7746
 1022MOL0     C40933   2.093  -0.870   6.110  0.3724 -0.3986 -0.3677
 1022MOL0     O40934   2.107  -1.005   6.119 -0.2128 -0.0343 -0.0263
 1022MOL0     C40935   2.214  -1.055   6.033  0.4349  0.1087 -0.5459
 1022MOL0     C40936   2.171  -1.202   6.007  0.1064  0.7545 -0.6202
 1022MOL0     C40937   2.279  -1.273   5.923 -0.4256  0.9296 -0.1277
 1022MOL0     C40938   2.260  -1.425   5.951  0.9288 -0.1545 -0.8869
 1022MOL0     C40939   2.127  -1.480   5.907  0.5206 -0.0998 -0.3416
 1022MOL0     C40940   2.117  -1.485   5.758 -0.3236 -0.0954  0.2474
 1022MOL0     C40941   2.003  -1.572   5.702 -0.4557  0.3466 -0.3015
 1022MOL0     C40942   2.017  -1.725   5.714  0.2657 -0.6531  0.5707
 1022MOL0    Cl40943   2.116  -1.777   5.569  0.0135 -0.1539  0.3680
 1022MOL0     C40944   1.958  -0.822   6.117 -0.2713  0.1999  0.6539
 1022MOL0     C40945   1.934  -0.682   6.114  0.0842  0.1158  0.2313
 1022MOL0     O40946   2.032  -0.442   6.317 -0.8749  0.3794 -0.4999
 1022MOL0     C40947   1.963  -0.178   6.089 -0.8387 -1.0408  0.2792
 1022MOL0     C40948   1.891  -0.053   6.071 -1.2228  1.5318 -0.2348
 1022MOL0     N40949   1.193   0.208   6.217 -0.0571 -0.2864  0.5264
 1022MOL0     N40950   1.102   0.208   6.316 -0.3885 -0.3250  0.3697
 1022MOL0     C40951   1.068   0.561   5.716  0.3333  0.0528 -0.3332
 1022MOL0     C40952   1.177   0.651   5.706  0.0160 -0.3197 -0.1153
 1022MOL0     C40953   1.602   0.830   5.788  0.3066 -0.7262  0.6987
 1022MOL0     C40954   1.743   0.796   5.778  0.4880  0.0015  1.2245
 1022MOL0     C40955   1.839   0.886   5.773 -0.4105 -0.0805 -0.6727
 1022MOL0     C40956   1.806   1.019   5.778  0.0669 -0.4105 -0.2614
 1022MOL0     O40957   1.913   1.108   5.777  0.6279  0.5839 -0.3524
 1022MOL0     C40958   1.883   1.245   5.764 -0.0725 -0.7977 -0.3306
 1022MOL0     C40959   2.024   1.320   5.761  0.3509 -0.1520 -0.6603
 1022MOL0     C40960   2.124   1.272   5.869 -0.0571 -0.2931  0.0010
 1022MOL0     C40961   2.097   1.322   6.019 -0.3712  0.1844  0.4313
 1022MOL0     C40962   2.083   1.475   6.030  0.5802 -0.1033  0.2406
 1022MOL0     C40963   2.071   1.598   6.044 -0.6181  0.4352 -0.3168
 1022MOL0     C40964   1.678   1.063   5.803  1.1388  0.5313  0.0841
 1022MOL0     C40965   1.575   0.962   5.808  0.7773 -0.2177  0.6792
 1022MOL0     C40966   1.433   1.020   5.856  0.2249 -0.0194  0.4216
 1022MOL0     H40967   1.329   0.544   5.995  0.7075 -2.7454 -2.3045
 1022MOL0     H40968   1.114   0.399   5.994  0.9576  1.0764  0.4340
 1022MOL0     H40969   0.845   0.404   5.674 -2.1647 -0.2282 -0.4288
 1022MOL0     H40970   0.799   0.484   5.821  2.9557  1.8602 -0.0505
 1022MOL0     H40971   0.639   0.307   5.756 -0.8713 -1.2932  0.5378
 1022MOL0     H40972   0.774   0.194   5.728  2.9549  0.2206  0.8665
 1022MOL0     H40973   0.642   0.132   5.931  0.9385 -0.9889  0.3506
 1022MOL0     H40974   0.797   0.173   5.977 -0.6357 -0.3891  0.3941
 1022MOL0     H40975   0.714   0.406   6.050 -1.1672  1.2699 -0.0473
 1022MOL0     H40976   0.557   0.372   5.999  1.0188  0.3562  0.3179
 1022MOL0     H40977   0.569   0.170   6.177  1.8016 -1.7503  1.1366
 1022MOL0     H40978   0.577   0.340   6.229 -3.7158 -1.7650 -1.6218
 1022MOL0     H40979   0.852   0.265   6.195  1.7611 -2.9065  1.2798
 1022MOL0     H40980   0.747   0.319   6.328 -1.0128 -0.0878 -0.2654
 1022MOL0     H40981   0.791   0.032   6.209  0.7795  0.0463  0.7817
 1022MOL0     H40982   0.712   0.051   6.368  1.7193 -1.4590  1.9591
 1022MOL0     H40983   0.908   0.143   6.471 -0.5854  1.1350 -0.6122
 1022MOL0     H40984   0.905  -0.016   6.419 -2.8069  0.3520 -0.7357
 1022MOL0     H40985   1.047  -0.076   6.169  0.3394  0.1397 -0.1930
 1022MOL0     H40986   1.253   0.046   5.951  1.5307 -1.5630 -0.4694
 1022MOL0     H40987   1.292  -0.080   6.085 -2.3115  0.1813  3.0693
 1022MOL0     H40988   1.475   0.053   5.967  0.8493 -1.2582  0.4751
 1022MOL0     H40989   1.418   0.194   6.035  2.4920 -0.3262  0.3160
 1022MOL0     H40990   1.441   0.049   6.264 -0.3666  2.0684  0.7692
 1022MOL0     H40991   1.536  -0.058   6.161  1.6933  0.7242 -0.8102
 1022MOL0     H40992   1.592   0.239   6.138  0.5998 -0.5735  1.6912
 1022MOL0     H40993   1.623   0.169   6.294 -1.0395  1.0869  0.0446
 1022MOL0     H40994   1.736  -0.042   6.372 -0.3319 -1.2783  0.2600
 1022MOL0     H40995   1.747  -0.233   6.488 -0.3615  0.1500  1.4280
 1022MOL0     H40996   1.916  -0.290   6.498  1.6758  0.0833 -2.0259
 1022MOL0     H40997   1.799  -0.385   6.418 -0.6633  0.4751 -0.7025
 1022MOL0     H40998   2.252  -0.565   6.068  0.2719 -0.1469 -1.3503
 1022MOL0     H40999   2.288  -0.818   6.067 -2.1376 -2.7575  0.8553
 1022MOL0     H41000   2.227  -1.019   5.930 -2.3183  0.1220 -0.9713
 1022MOL0     H41001   2.309  -1.044   6.086 -1.8556  1.3628  3.7990
 1022MOL0     H41002   2.154  -1.259   6.099  0.6707 -2.2379 -2.2198
 1022MOL0     H41003   2.072  -1.195   5.961 -0.4227  2.0034  0.6162
 1022MOL0     H41004   2.377  -1.241   5.960  0.7900 -0.9781 -1.5129
 1022MOL0     H41005   2.273  -1.251   5.816  4.6070  0.5734 -0.7226
 1022MOL0     H41006   2.276  -1.438   6.059  0.5489 -0.7624 -0.8967
 1022MOL0     H41007   2.338  -1.488   5.906  2.1631  0.4379  0.3536
 1022MOL0     H41008   2.120  -1.579   5.952 -1.6528 -0.3855 -1.1870
 1022MOL0     H41009   2.040  -1.429   5.949 -0.2384 -1.4604 -0.1948
 1022MOL0     H41010   2.213  -1.529   5.730 -0.5660  0.2274 -1.1564
 1022MOL0     H41011   2.104  -1.380   5.728  2.6460  1.6987  4.2534
 1022MOL0     H41012   1.980  -1.543   5.599  1.0245 -1.6468 -1.2601
 1022MOL0     H41013   1.914  -1.550   5.762  0.4466 -2.7382  2.4765
 1022MOL0     H41014   1.919  -1.772   5.708  0.0649 -0.0237 -2.5292
 1022MOL0     H41015   2.063  -1.739   5.812  1.1051 -0.8599  0.1532
 1022MOL0     H41016   1.875  -0.892   6.116  0.2219 -0.4947 -2.2059
 1022MOL0     H41017   1.831  -0.648   6.125 -1.1058 -2.9451 -0.3188
 1022MOL0     H41018   2.023  -0.209   6.004  1.0806  1.9289  0.3956
 1022MOL0     H41019   1.915   0.008   5.985  2.9682  0.6144  0.0620
 1022MOL0     H41020   1.003   0.558   5.629  1.1216  2.5707 -1.0978
 1022MOL0     H41021   1.199   0.724   5.629  1.1763  0.2103  0.6765
 1022MOL0     H41022   1.766   0.690   5.778  2.7414  0.4187 -0.3678
 1022MOL0     H41023   1.938   0.851   5.746  0.5240  0.7783  1.3914
 1022MOL0     H41024   1.829   1.274   5.674 -0.9679  0.8354  0.6733
 1022MOL0     H41025   1.841   1.283   5.858 -0.2485  1.1294 -1.1448
 1022MOL0     H41026   2.003   1.425   5.782  2.6244 -0.0547  1.6750
 1022MOL0     H41027   2.066   1.318   5.660  0.5040  2.3177 -0.6995
 1022MOL0     H41028   2.146   1.165   5.868  0.4384 -0.4410 -5.5738
 1022MOL0     H41029   2.216   1.319   5.833 -1.0841 -0.2231 -2.7770
 1022MOL0     H41030   2.161   1.287   6.101  1.1317  1.3368 -0.1959
 1022MOL0     H41031   2.000   1.283   6.051  0.5639 -2.1724  0.6181
 1022MOL0     H41032   2.036   1.699   6.060 -0.3748  0.3265  1.0439
 1022MOL0     H41033   1.649   1.167   5.811 -0.8967  0.1478 -1.4001
 1022MOL0     H41034   1.366   1.029   5.770 -2.8449 -3.1104  2.1966
 1022MOL0     H41035   1.381   0.964   5.935 -2.2754  2.4063  0.6642
 1022MOL0     H41036   1.435   1.120   5.901 -0.7721 -1.2747  3.5945
 1023MOL0     O41037  11.099   8.188   2.882  0.5495 -0.3995  0.0278
 1023MOL0     C41038  11.143   8.231   2.992  0.7156 -0.5464  0.3926
 1023MOL0     O41039  11.166   8.157   3.108  0.5990 -0.3192  0.0796
 1023MOL0     C41040  11.144   8.017   3.101 -0.1211  0.5263  0.4458
 1023MOL0     C41041  11.080   7.961   3.207 -0.2365 -0.0355  0.3155
 1023MOL0     C41042  11.078   7.817   3.225 -0.0688 -0.3845 -0.4047
 1023MOL0     C41043  11.148   7.731   3.138 -0.3222 -0.3238  0.7259
 1023MOL0     O41044  11.157   7.598   3.162 -0.3984 -0.1210  0.0983
 1023MOL0     C41045  11.241   7.512   3.087 -0.1688  1.0765  0.3947
 1023MOL0     C41046  11.165   7.414   3.015 -0.1495  0.8668  0.4703
 1023MOL0     C41047  11.062   7.471   2.913  0.7490 -1.0381  0.4480
 1023MOL0     C41048  11.120   7.530   2.787 -0.1890 -0.0711  0.1023
 1023MOL0     C41049  11.186   7.423   2.694  0.1358  1.0008  0.3373
 1023MOL0     C41050  11.316   7.468   2.625  0.4778 -0.4690 -0.6841
 1023MOL0     C41051  11.303   7.561   2.511  0.2659  0.3950 -0.1203
 1023MOL0     C41052  11.440   7.642   2.493  0.4216  0.3671  0.4383
 1023MOL0     N41053  11.563   7.558   2.474  0.6120  0.6142  0.6473
 1023MOL0     C41054  11.627   7.513   2.359 -0.8341  0.0778 -0.2967
 1023MOL0     C41055  11.749   7.464   2.395  0.5917  0.6412 -0.4428
 1023MOL0     C41056  11.872   7.420   2.303 -0.3049  1.1087 -0.2406
 1023MOL0     C41057  11.912   7.531   2.211 -0.1938 -0.4115 -0.8478
 1023MOL0     C41058  12.007   7.628   2.280  0.7377 -0.0888 -0.2455
 1023MOL0     C41059  12.086   7.729   2.198  0.3232  0.0071  0.0967
 1023MOL0     O41060  12.137   7.840   2.263  1.1590  0.4378  0.1463
 1023MOL0     C41061  12.257   7.817   2.321  0.1459 -0.9844 -0.5321
 1023MOL0     C41062  12.366   7.743   2.273 -0.8721  0.4503 -0.2791
 1023MOL0     C41063  12.489   7.731   2.348 -0.1821  0.0009 -0.1742
 1023MOL0     C41064  12.603   7.661   2.285  0.6335 -0.1966 -0.3057
 1023MOL0     C41065  12.503   7.781   2.483  0.7516  0.2593  0.6318
 1023MOL0     C41066  12.625   7.776   2.556  0.0662  0.0197 -0.6990
 1023MOL0     O41067  12.603   7.748   2.683 -0.4128  0.5612 -0.2323
 1023MOL0     C41068  12.691   7.801   2.776 -0.4452 -0.1902  0.2989
 1023MOL0     C41069  12.794   7.727   2.834  0.0994 -0.7470 -0.5145
 1023MOL0     C41070  12.866   7.798   2.934  0.1345  0.7198  0.7743
 1023MOL0     C41071  12.860   7.931   2.957 -0.0474  0.8045  0.3838
 1023MOL0     O41072  12.963   7.988   3.033  0.2171 -0.6854 -0.1493
 1023MOL0     C41073  12.974   8.125   3.033  0.4240  0.0180  0.5701
 1023MOL0     C41074  13.110   8.150   3.093  0.8397 -0.8360  0.1991
 1023MOL0     C41075  13.109   8.116   3.233  0.2193 -0.1531  0.0704
 1023MOL0     C41076  13.256   8.133   3.278 -0.2951 -0.1587 -0.3578
 1023MOL0     C41077  13.270   8.111   3.435 -0.4161 -0.1112  0.3074
 1023MOL0     C41078  13.415   8.126   3.478 -0.0791  0.6901 -0.1347
 1023MOL0     C41079  13.432   8.080   3.625  0.5583  0.0503 -0.5495
 1023MOL0     C41080  13.449   7.926   3.636 -0.0549 -0.6457 -0.3335
 1023MOL0    Cl41081  13.291   7.831   3.661  0.0041 -0.4781 -0.7353
 1023MOL0     C41082  12.753   8.002   2.905 -0.0182 -0.2649 -0.2667
 1023MOL0     C41083  12.672   7.941   2.818  0.3843  0.1284  0.0808
 1023MOL0     O41084  12.737   7.777   2.504  0.7226 -0.1212 -0.9492
 1023MOL0     C41085  12.388   7.846   2.531  1.6653  0.4716  0.4499
 1023MOL0     C41086  12.264   7.855   2.455  0.2772 -0.2075  0.4185
 1023MOL0     N41087  11.747   7.468   2.540 -0.1783  0.3687  0.5314
 1023MOL0     N41088  11.643   7.526   2.582 -0.5102  0.1137  0.3168
 1023MOL0     C41089  11.220   7.791   3.031  0.5247 -0.6567  0.9205
 1023MOL0     C41090  11.222   7.931   3.011 -0.3081  0.7329  0.7893
 1023MOL0     C41091  11.157   8.376   3.010 -0.3667  0.0281  0.0371
 1023MOL0     C41092  11.135   8.425   3.142 -0.5083 -0.2638  0.1875
 1023MOL0     C41093  11.139   8.562   3.171  0.1856 -0.5559  0.6500
 1023MOL0     C41094  11.155   8.658   3.069  0.2270 -0.5172  0.1502
 1023MOL0     O41095  11.157   8.790   3.107  0.1495  0.1565  0.7759
 1023MOL0     C41096  11.190   8.881   3.001  0.8175 -1.3417  1.0082
 1023MOL0     C41097  11.229   9.012   3.071 -0.6839 -0.2271 -0.2665
 1023MOL0     C41098  11.276   9.128   2.987  0.1047 -0.5563  0.9298
 1023MOL0     C41099  11.308   9.251   3.075 -0.0040 -0.7773  0.7081
 1023MOL0     C41100  11.443   9.228   3.140  0.3479  0.4863  1.3162
 1023MOL0     C41101  11.555   9.224   3.183  0.2124  0.8236  0.2185
 1023MOL0     C41102  11.172   8.609   2.935 -0.8466 -0.1134  0.0209
 1023MOL0     C41103  11.177   8.470   2.905  0.4312  0.5943 -0.7488
 1023MOL0     C41104  11.176   8.435   2.758 -0.7464  0.5322  0.3073
 1023MOL0     H41105  11.044   8.012   3.296  1.0272  3.8250 -1.2011
 1023MOL0     H41106  11.041   7.765   3.313  1.7226 -0.4113  0.3752
 1023MOL0     H41107  11.304   7.455   3.156 -2.2546 -0.1409  1.3552
 1023MOL0     H41108  11.319   7.559   3.025  2.0192 -0.9898  1.4066
 1023MOL0     H41109  11.235   7.338   2.978  1.1927 -0.2663  4.7401
 1023MOL0     H41110  11.096   7.363   3.083  0.2360 -0.6635 -0.2309
 1023MOL0     H41111  10.990   7.405   2.864 -0.0304  1.3431 -1.8591
 1023MOL0     H41112  10.994   7.541   2.961 -1.3313 -1.0670 -2.2036
 1023MOL0     H41113  11.044   7.567   2.717  1.1471 -1.0977 -2.0143
 1023MOL0     H41114  11.182   7.620   2.796  1.4956 -0.8317 -2.6132
 1023MOL0     H41115  11.125   7.388   2.610  0.6339  0.7786  0.0578
 1023MOL0     H41116  11.206   7.341   2.763 -0.3290  0.5513 -0.0500
 1023MOL0     H41117  11.390   7.503   2.699  0.8270  3.3226 -2.5353
 1023MOL0     H41118  11.356   7.377   2.579 -2.0666 -0.5550 -2.9137
 1023MOL0     H41119  11.225   7.637   2.524 -2.5510 -1.8620 -2.4726
 1023MOL0     H41120  11.269   7.501   2.427  0.5167  1.2618 -0.8604
 1023MOL0     H41121  11.424   7.720   2.419  0.7146 -0.5321 -0.6035
 1023MOL0     H41122  11.458   7.694   2.587  1.7145  0.5810  0.0955
 1023MOL0     H41123  11.599   7.537   2.256  1.8898 -0.7215 -1.3082
 1023MOL0     H41124  11.839   7.335   2.242 -0.4355  1.0933 -0.1492
 1023MOL0     H41125  11.949   7.384   2.371 -3.9678 -2.6197  2.4061
 1023MOL0     H41126  11.973   7.484   2.133  0.3907 -1.0224 -0.0342
 1023MOL0     H41127  11.816   7.574   2.179 -0.5386 -0.3560  0.2319
 1023MOL0     H41128  11.956   7.664   2.370 -0.8413  0.4685 -1.3431
 1023MOL0     H41129  12.075   7.558   2.330 -0.1160 -0.3277  0.5981
 1023MOL0     H41130  12.167   7.679   2.145  2.1234 -0.2325  2.8267
 1023MOL0     H41131  12.016   7.769   2.124  1.1338  1.5597  0.1129
 1023MOL0     H41132  12.364   7.694   2.177 -2.5060 -2.0096  0.9175
 1023MOL0     H41133  12.582   7.581   2.214 -1.2648 -4.0828  4.1096
 1023MOL0     H41134  12.658   7.611   2.365  1.5864  1.6642  0.2601
 1023MOL0     H41135  12.661   7.738   2.233  0.9811 -1.1582 -1.3810
 1023MOL0     H41136  12.804   7.626   2.798 -3.8163 -0.4029 -3.1850
 1023MOL0     H41137  12.946   7.738   2.976 -1.9265 -3.5993 -0.9158
 1023MOL0     H41138  12.969   8.161   2.931  0.0104 -1.0834  0.1860
 1023MOL0     H41139  12.893   8.172   3.089  0.5766  0.7362  0.1934
 1023MOL0     H41140  13.187   8.089   3.044 -0.2860 -0.8143 -1.6887
 1023MOL0     H41141  13.122   8.258   3.090 -2.0897 -0.4035 -3.6186
 1023MOL0     H41142  13.079   8.012   3.240  0.2154 -0.1086  0.8312
 1023MOL0     H41143  13.055   8.187   3.297  0.3098 -2.3720  2.7983
 1023MOL0     H41144  13.298   8.225   3.235 -4.3844  1.1600 -1.9869
 1023MOL0     H41145  13.319   8.051   3.242 -0.7620 -0.5795 -0.2306
 1023MOL0     H41146  13.205   8.170   3.500 -2.9833 -3.0277  0.6797
 1023MOL0     H41147  13.223   8.013   3.449 -3.9277  1.4796  0.9475
 1023MOL0     H41148  13.453   8.228   3.471  0.6080  0.3398 -2.0099
 1023MOL0     H41149  13.468   8.054   3.415 -1.1557  0.0392 -0.3330
 1023MOL0     H41150  13.358   8.110   3.700 -0.0320 -0.4678 -0.9211
 1023MOL0     H41151  13.525   8.130   3.654  0.3149  1.6719 -2.3461
 1023MOL0     H41152  13.518   7.907   3.719  1.0197  0.7025 -0.8565
 1023MOL0     H41153  13.495   7.897   3.540  1.5103  1.7615 -0.4204
 1023MOL0     H41154  12.723   8.105   2.920 -2.9838 -1.3685  2.3688
 1023MOL0     H41155  12.591   7.995   2.770  0.7473  2.1057  1.5671
 1023MOL0     H41156  12.383   7.888   2.630 -0.8952  2.1826 -0.3071
 1023MOL0     H41157  12.177   7.902   2.499  0.6088  2.3797 -1.4273
 1023MOL0     H41158  11.282   7.740   2.959 -0.3017 -0.9498  0.4024
 1023MOL0     H41159  11.273   7.971   2.924 -1.5998  1.9934  0.5682
 1023MOL0     H41160  11.117   8.352   3.220 -1.6023 -2.7185 -2.1868
 1023MOL0     H41161  11.126   8.594   3.274  3.9999 -0.5634  1.2743
 1023MOL0     H41162  11.269   8.849   2.933 -0.0790  0.3026 -0.8977
 1023MOL0     H41163  11.101   8.888   2.937  2.1968  2.6112 -0.7554
 1023MOL0     H41164  11.316   8.984   3.133  0.3511  0.2067 -1.4741
 1023MOL0     H41165  11.137   9.039   3.122 -0.8892 -0.8623 -0.2941
 1023MOL0     H41166  11.352   9.086   2.919  1.5856  0.1066  2.1201
 1023MOL0     H41167  11.181   9.148   2.937  1.5044  0.5750 -1.4473
 1023MOL0     H41168  11.235   9.256   3.157 -0.1760  0.3816  0.5022
 1023MOL0     H41169  11.301   9.343   3.016 -1.9711 -0.9119  0.6796
 1023MOL0     H41170  11.649   9.223   3.235 -0.6320  2.8682  1.9673
 1023MOL0     H41171  11.186   8.676   2.851  1.4768 -0.3116  0.1871
 1023MOL0     H41172  11.196   8.525   2.699 -2.8516  0.9876  0.2248
 1023MOL0     H41173  11.246   8.352   2.745  2.2538  2.9874 -0.7591
 1023MOL0     H41174  11.081   8.399   2.717 -1.9874  2.6270  1.1718
 1024MOL0     O41175  10.375   4.605   0.347  0.8208 -0.1107 -0.3756
 1024MOL0     C41176  10.287   4.695   0.358 -0.2878  0.0147 -0.4085
 1024MOL0     O41177  10.247   4.768   0.247  0.1865  0.5421  0.3012
 1024MOL0     C41178  10.271   4.729   0.120  0.2721 -0.5759  0.2348
 1024MOL0     C41179  10.293   4.832   0.029 -1.1565  0.0737 -0.7737
 1024MOL0     C41180  10.318   4.807  -0.106 -0.6141  0.3003 -0.1230
 1024MOL0     C41181  10.305   4.675  -0.157  0.7041  0.1492 -0.3848
 1024MOL0     O41182  10.311   4.652  -0.295 -0.6200 -0.1611 -0.3918
 1024MOL0     C41183  10.361   4.763  -0.365  0.5559  0.3224 -0.3163
 1024MOL0     C41184  10.394   4.741  -0.514 -0.8177 -0.8215  0.0104
 1024MOL0     C41185  10.470   4.862  -0.567  0.3898 -0.5429  0.8327
 1024MOL0     C41186  10.466   4.868  -0.725 -0.1683 -0.2385 -0.3122
 1024MOL0     C41187  10.559   4.984  -0.773 -1.0249  1.1114 -0.3400
 1024MOL0     C41188  10.519   5.043  -0.913  0.3743 -0.7553  0.0517
 1024MOL0     C41189  10.643   5.086  -0.989 -0.3436 -0.8364  0.4378
 1024MOL0     C41190  10.602   5.143  -1.127 -0.0291  0.8224  0.2953
 1024MOL0     N41191  10.592   5.286  -1.104 -0.3378 -0.1025  0.4337
 1024MOL0     C41192  10.477   5.356  -1.077  0.3522 -0.6659  0.9394
 1024MOL0     C41193  10.512   5.485  -1.080 -0.7806 -0.7875 -0.9701
 1024MOL0     C41194  10.422   5.601  -1.065  0.5523  0.4339 -0.6698
 1024MOL0     C41195  10.393   5.627  -0.915 -1.0933  0.2113 -0.1242
 1024MOL0     C41196  10.285   5.735  -0.884 -0.7167  0.5293  0.0943
 1024MOL0     C41197  10.173   5.693  -0.799  0.2532 -0.3479 -0.0184
 1024MOL0     O41198  10.182   5.735  -0.660 -1.0480  0.6348 -0.3706
 1024MOL0     C41199  10.222   5.864  -0.628 -0.5884 -0.5777 -0.1303
 1024MOL0     C41200  10.170   5.981  -0.676 -0.6062 -0.3218 -0.3616
 1024MOL0     C41201  10.217   6.109  -0.637 -0.1810 -0.3082 -0.7244
 1024MOL0     C41202  10.129   6.229  -0.680 -0.2340  1.1177 -0.6894
 1024MOL0     C41203  10.342   6.119  -0.560  0.3360  0.0889  0.4204
 1024MOL0     C41204  10.398   6.248  -0.525 -0.8044  0.1573  0.0904
 1024MOL0     O41205  10.488   6.236  -0.426 -0.5945  0.0416 -0.1045
 1024MOL0     C41206  10.564   6.348  -0.390 -0.4388  1.2852  0.8042
 1024MOL0     C41207  10.655   6.419  -0.465 -1.0354  0.3519 -0.2498
 1024MOL0     C41208  10.710   6.536  -0.413  0.4616 -0.2966  0.0824
 1024MOL0     C41209  10.699   6.581  -0.287 -0.0098  0.5424 -0.3592
 1024MOL0     O41210  10.754   6.698  -0.244  0.7116 -0.3234 -0.2556
 1024MOL0     C41211  10.791   6.794  -0.342 -0.1919  0.4537 -0.0365
 1024MOL0     C41212  10.815   6.929  -0.276  0.2247  0.4024  0.1543
 1024MOL0     C41213  10.834   7.036  -0.383 -0.0058  0.5365  0.3611
 1024MOL0     C41214  10.721   7.085  -0.468 -0.1125 -0.9179 -0.2684
 1024MOL0     C41215  10.768   7.198  -0.566  0.0620 -0.0604 -0.6814
 1024MOL0     C41216  10.847   7.138  -0.689 -0.3603  0.4994  0.2035
 1024MOL0     C41217  10.867   7.253  -0.779 -0.5543 -0.1450 -0.7846
 1024MOL0     C41218  10.914   7.220  -0.916  0.1805 -0.0745 -0.2255
 1024MOL0    Cl41219  10.901   7.369  -1.016  0.2160 -0.4048  0.0898
 1024MOL0     C41220  10.617   6.497  -0.208 -1.0301 -0.2755 -0.1743
 1024MOL0     C41221  10.547   6.395  -0.259  0.7620 -0.0611 -0.0037
 1024MOL0     O41222  10.380   6.351  -0.589 -0.0370 -0.4711  0.3500
 1024MOL0     C41223  10.405   5.996  -0.527 -0.3396 -0.0208 -0.1638
 1024MOL0     C41224  10.344   5.872  -0.555  0.3215  0.1843 -0.0943
 1024MOL0     N41225  10.649   5.486  -1.107 -0.5299 -0.2805 -1.2160
 1024MOL0     N41226  10.691   5.366  -1.136 -0.4800 -0.2146  0.2727
 1024MOL0     C41227  10.259   4.573  -0.068  0.5329  0.7087 -0.1890
 1024MOL0     C41228  10.253   4.599   0.067  0.9436 -0.4728  0.2113
 1024MOL0     C41229  10.241   4.721   0.500 -0.6274 -0.3264 -0.6101
 1024MOL0     C41230  10.250   4.623   0.596  0.0535  0.3837 -0.1550
 1024MOL0     C41231  10.226   4.655   0.730  0.1820 -1.0544 -0.5943
 1024MOL0     C41232  10.174   4.779   0.767 -0.0122 -0.0626 -0.1297
 1024MOL0     O41233  10.143   4.796   0.897  1.0458 -0.1383 -0.5167
 1024MOL0     C41234  10.072   4.914   0.937  0.5657 -0.3787  0.6636
 1024MOL0     C41235  10.051   4.907   1.094  0.3291  0.0669 -0.8126
 1024MOL0     C41236   9.976   5.020   1.154 -0.2558  0.1056 -0.4530
 1024MOL0     C41237   9.954   4.997   1.310  0.2956 -0.6404 -0.6004
 1024MOL0     C41238   9.802   5.001   1.334 -0.0483 -0.3306 -0.8771
 1024MOL0     C41239   9.687   5.010   1.369  0.8631  0.0142  0.2896
 1024MOL0     C41240  10.161   4.874   0.661 -0.6523 -0.1303  0.4725
 1024MOL0     C41241  10.193   4.848   0.532  0.8272 -0.0502  0.2991
 1024MOL0     C41242  10.156   4.961   0.430 -0.0993  0.3278 -1.0651
 1024MOL0     H41243  10.301   4.935   0.061  1.0601 -0.4145  0.4866
 1024MOL0     H41244  10.355   4.891  -0.164 -2.4399  0.6360 -0.8404
 1024MOL0     H41245  10.454   4.795  -0.317  3.2281 -2.7744 -2.9348
 1024MOL0     H41246  10.275   4.829  -0.363  0.9964  0.9422  2.3297
 1024MOL0     H41247  10.466   4.659  -0.525  1.9479  1.5409 -0.8429
 1024MOL0     H41248  10.305   4.716  -0.572 -0.4453 -0.3341 -0.7815
 1024MOL0     H41249  10.424   4.957  -0.540  0.1883  0.7839 -3.3989
 1024MOL0     H41250  10.570   4.857  -0.523  0.7583  1.7380  0.3902
 1024MOL0     H41251  10.511   4.781  -0.774  0.4856  1.3598 -2.7353
 1024MOL0     H41252  10.363   4.886  -0.754 -0.0382  1.4216  0.2021
 1024MOL0     H41253  10.664   4.955  -0.781 -0.8296  1.9555 -0.8709
 1024MOL0     H41254  10.551   5.066  -0.701  0.3718  0.6469  0.3895
 1024MOL0     H41255  10.469   4.964  -0.970 -1.1391  0.9787 -1.1060
 1024MOL0     H41256  10.449   5.127  -0.905 -0.6891 -1.5227 -0.8007
 1024MOL0     H41257  10.701   4.999  -1.021 -2.9096 -2.5998  0.3037
 1024MOL0     H41258  10.709   5.152  -0.933 -0.7036  2.9563 -3.0938
 1024MOL0     H41259  10.678   5.112  -1.200  0.2450  2.4537 -0.1487
 1024MOL0     H41260  10.504   5.105  -1.155 -0.3622  1.1237  1.0089
 1024MOL0     H41261  10.374   5.335  -1.048 -0.0623 -0.6434 -0.4449
 1024MOL0     H41262  10.325   5.581  -1.110  0.1551 -0.3619  0.4871
 1024MOL0     H41263  10.456   5.692  -1.114 -2.9410  0.2747 -3.8028
 1024MOL0     H41264  10.358   5.534  -0.869 -1.5617 -0.1614 -1.1877
 1024MOL0     H41265  10.479   5.659  -0.855 -1.2368  1.0534 -0.3568
 1024MOL0     H41266  10.346   5.823  -0.861 -0.6564  0.0325  2.0761
 1024MOL0     H41267  10.251   5.770  -0.981  1.6472 -1.2996 -1.5077
 1024MOL0     H41268  10.078   5.732  -0.836  1.0574  2.1899  0.3599
 1024MOL0     H41269  10.158   5.587  -0.817  0.7870 -0.1199 -2.0106
 1024MOL0     H41270  10.087   5.974  -0.746 -0.2053  0.9671 -1.0050
 1024MOL0     H41271  10.057   6.191  -0.753  0.1365  0.7767 -0.8800
 1024MOL0     H41272  10.196   6.298  -0.732  2.8736 -0.6370  0.7142
 1024MOL0     H41273  10.074   6.280  -0.600  0.7351  2.0637 -0.6011
 1024MOL0     H41274  10.673   6.388  -0.567 -2.7821  2.3611 -1.2567
 1024MOL0     H41275  10.792   6.574  -0.474  0.2713 -1.0973 -0.6791
 1024MOL0     H41276  10.883   6.756  -0.387  0.3769  1.6671  0.0654
 1024MOL0     H41277  10.711   6.818  -0.413 -0.1928  1.7572  0.3786
 1024MOL0     H41278  10.725   6.970  -0.231 -0.7226 -1.5349  0.1112
 1024MOL0     H41279  10.905   6.926  -0.214 -0.2671  1.4250  0.9453
 1024MOL0     H41280  10.900   6.995  -0.459 -0.1507  1.7011 -0.4189
 1024MOL0     H41281  10.881   7.122  -0.333  1.4979  0.4120 -0.7752
 1024MOL0     H41282  10.637   7.123  -0.408 -1.1177 -1.0183 -1.5643
 1024MOL0     H41283  10.680   7.007  -0.532 -2.7851  1.1526 -1.2906
 1024MOL0     H41284  10.679   7.250  -0.602  0.2267  1.8854  1.4915
 1024MOL0     H41285  10.816   7.284  -0.519 -3.0239  1.4883 -0.0740
 1024MOL0     H41286  10.801   7.051  -0.736  2.6815 -2.3989  2.1864
 1024MOL0     H41287  10.941   7.100  -0.648 -0.4416 -0.1093 -0.1742
 1024MOL0     H41288  10.950   7.309  -0.737 -0.3785 -1.9863  1.4845
 1024MOL0     H41289  10.780   7.319  -0.790  2.6526  4.2765 -2.6088
 1024MOL0     H41290  10.852   7.146  -0.968  0.4907 -0.6178  0.1765
 1024MOL0     H41291  11.017   7.184  -0.918  0.3161  0.3173 -1.3895
 1024MOL0     H41292  10.611   6.530  -0.105  1.0544  1.7712 -0.6435
 1024MOL0     H41293  10.487   6.345  -0.184 -2.3930  3.0879 -0.1912
 1024MOL0     H41294  10.496   6.011  -0.469 -0.1252  1.8556 -0.9242
 1024MOL0     H41295  10.385   5.779  -0.520 -2.3336 -1.3317 -0.7115
 1024MOL0     H41296  10.228   4.476  -0.104 -0.2714  1.2386 -0.9702
 1024MOL0     H41297  10.233   4.510   0.127 -1.2596 -0.3675 -0.2742
 1024MOL0     H41298  10.281   4.523   0.566  1.0973  0.7251 -0.2462
 1024MOL0     H41299  10.252   4.593   0.815 -1.4531 -0.6484  0.2453
 1024MOL0     H41300  10.131   4.999   0.904  1.3136 -0.2087  2.3626
 1024MOL0     H41301   9.976   4.912   0.884  1.2092 -0.9928 -0.5292
 1024MOL0     H41302  10.152   4.910   1.135 -0.3078  1.8831  0.7860
 1024MOL0     H41303  10.011   4.810   1.124  2.0458 -1.2221 -2.4424
 1024MOL0     H41304  10.041   5.105   1.134  2.6440 -2.0161 -0.7379
 1024MOL0     H41305   9.882   5.027   1.099 -0.3648 -2.7986 -0.7838
 1024MOL0     H41306  10.006   5.067   1.375 -5.6029  0.9200  3.3160
 1024MOL0     H41307   9.987   4.898   1.345 -0.2226  0.1714  2.4655
 1024MOL0     H41308   9.584   5.008   1.400  0.1910 -0.5916 -1.8449
 1024MOL0     H41309  10.122   4.974   0.679  0.0071  0.1681  0.2647
 1024MOL0     H41310  10.069   4.919   0.378  0.1113  2.5849 -3.4188
 1024MOL0     H41311  10.119   5.049   0.484 -1.2153  1.3740 -3.3979
 1024MOL0     H41312  10.232   4.987   0.356  0.8645 -3.0685 -1.4436
  11.57480  11.57480  11.57480
